FOO
141312
    1MOL0     O    1   2.661   5.449   6.273 -0.0666  0.0013 -0.4495
    1MOL0     C    2   2.552   5.494   6.308 -0.1048  0.4158  0.1911
    1MOL0     O    3   2.521   5.621   6.327 -0.1759 -0.1684 -0.3631
    1MOL0     C    4   2.610   5.716   6.282 -0.1422 -0.7575  1.2186
    1MOL0     C    5   2.740   5.711   6.320 -0.8687 -0.9342 -0.3368
    1MOL0     C    6   2.834   5.806   6.272  0.1363  0.6429  0.1586
    1MOL0     C    7   2.789   5.917   6.193 -0.0611  0.0420  0.6264
    1MOL0     O    8   2.887   6.009   6.160 -0.6732 -0.3690  0.2753
    1MOL0     C    9   2.863   6.103   6.047 -0.3401  0.9569  0.2062
    1MOL0     C   10   2.990   6.188   6.035  0.0316  0.0010  0.0302
    1MOL0     C   11   3.097   6.127   5.954  0.1363  0.3847  0.4741
    1MOL0     C   12   3.209   6.234   5.917  0.5930 -0.7327  0.3637
    1MOL0     C   13   3.346   6.180   5.965 -0.3355  0.2372 -0.4503
    1MOL0     C   14   3.446   6.293   5.971 -0.7686  0.1114  0.7995
    1MOL0     C   15   3.589   6.235   5.957 -0.8000 -0.2414  0.2234
    1MOL0     C   16   3.693   6.349   5.957 -0.3492  0.3793 -0.0857
    1MOL0     N   17   3.831   6.303   5.915  0.0081 -0.1831 -0.2945
    1MOL0     C   18   3.931   6.257   6.000  0.2672 -0.1185 -0.0737
    1MOL0     C   19   4.040   6.239   5.930  0.9478 -0.1144  0.9896
    1MOL0     C   20   4.182   6.222   5.976  0.0292  0.0996 -0.2702
    1MOL0     C   21   4.258   6.347   5.992 -0.4589  0.3783 -0.4013
    1MOL0     C   22   4.183   6.446   6.079  0.1283 -0.0176 -0.2978
    1MOL0     C   23   4.282   6.516   6.162  0.0355  0.2876  0.0424
    1MOL0     O   24   4.366   6.592   6.075 -0.8537  0.7554 -0.0039
    1MOL0     C   25   4.496   6.624   6.104 -0.1624  0.1031  0.1466
    1MOL0     C   26   4.574   6.703   6.007 -0.2784 -0.0967 -1.0284
    1MOL0     C   27   4.694   6.764   6.038 -0.3646  0.9684  0.5095
    1MOL0     C   28   4.760   6.852   5.937 -0.0221 -0.8349 -0.1949
    1MOL0     C   29   4.761   6.712   6.154 -0.0917 -0.3644 -0.3273
    1MOL0     C   30   4.903   6.750   6.189  0.3404 -0.0412  0.4531
    1MOL0     O   31   4.945   6.752   6.320  0.1364  0.2800 -0.0371
    1MOL0     C   32   5.077   6.791   6.334  0.6429 -0.2659 -0.2787
    1MOL0     C   33   5.188   6.711   6.289  0.1283 -0.5550 -0.7020
    1MOL0     C   34   5.323   6.745   6.293  0.5969 -0.3264 -0.7176
    1MOL0     C   35   5.359   6.866   6.355  0.8554 -0.3117 -0.8940
    1MOL0     O   36   5.482   6.912   6.374  0.2784  0.4648 -0.1996
    1MOL0     C   37   5.585   6.891   6.277 -0.2856 -0.3427 -0.0936
    1MOL0     C   38   5.606   7.019   6.198 -0.0440  0.6150  0.6562
    1MOL0     C   39   5.474   7.084   6.141 -0.6939  0.4422  0.5844
    1MOL0     C   40   5.409   6.989   6.034 -0.7046 -0.0584 -0.8221
    1MOL0     C   41   5.269   7.046   5.984 -0.3491 -0.1108 -0.3370
    1MOL0     C   42   5.238   6.968   5.858  0.6014 -0.6171 -0.0313
    1MOL0     C   43   5.155   7.052   5.752 -0.3750  0.3949 -0.1720
    1MOL0     C   44   5.012   7.053   5.809 -0.6843 -0.1371  0.3609
    1MOL0    Cl   45   4.924   7.130   5.686  0.3318 -0.6704  0.3750
    1MOL0     C   46   5.252   6.945   6.405 -0.8107  0.2598 -0.0995
    1MOL0     C   47   5.114   6.912   6.390  0.5464 -0.3958 -0.6313
    1MOL0     O   48   4.978   6.769   6.092 -0.0102 -0.3502  0.3916
    1MOL0     C   49   4.691   6.633   6.240 -0.0682 -0.6662  0.1214
    1MOL0     C   50   4.559   6.591   6.222  0.6230 -0.2596 -0.0425
    1MOL0     N   51   3.995   6.261   5.799  0.2346 -0.6284 -0.0653
    1MOL0     N   52   3.881   6.322   5.793 -0.3264 -0.3895  0.1080
    1MOL0     C   53   2.657   5.922   6.146 -1.0736  0.7245  1.3388
    1MOL0     C   54   2.569   5.821   6.194 -0.6739  0.0475  0.1953
    1MOL0     C   55   2.450   5.387   6.318  0.2979  0.0969  0.4058
    1MOL0     C   56   2.478   5.247   6.338 -0.0779 -0.6753 -0.0794
    1MOL0     C   57   2.386   5.149   6.332  0.7429 -0.6333  0.0051
    1MOL0     C   58   2.249   5.179   6.301  0.2958  0.6355  0.2230
    1MOL0     O   59   2.156   5.079   6.299 -0.6636 -0.1519 -0.7258
    1MOL0     C   60   2.060   5.079   6.198 -0.1737  0.2355  0.7863
    1MOL0     C   61   2.007   4.935   6.183  0.0003 -0.4362 -0.3039
    1MOL0     C   62   1.925   4.920   6.055  0.0216  0.4567  0.0416
    1MOL0     C   63   1.912   4.772   6.012 -0.4823 -1.0480 -0.1115
    1MOL0     C   64   1.876   4.759   5.868  0.4014 -0.1672  0.5084
    1MOL0     C   65   1.869   4.736   5.750 -1.1672 -1.3354 -0.1526
    1MOL0     C   66   2.217   5.317   6.278  0.2193 -0.2437 -0.0789
    1MOL0     C   67   2.316   5.416   6.286 -0.0087  0.1022 -0.7332
    1MOL0     C   68   2.265   5.552   6.254  0.0061  0.4272  0.4766
    1MOL0     H   69   2.773   5.622   6.373 -0.6356 -1.9840 -2.1428
    1MOL0     H   70   2.935   5.784   6.305 -0.7832 -0.6548  2.3426
    1MOL0     H   71   2.775   6.165   6.067 -3.0239 -2.5846  0.3856
    1MOL0     H   72   2.837   6.040   5.962  2.7482  2.1452 -1.7920
    1MOL0     H   73   2.955   6.286   6.001 -1.1504 -0.3801  0.1191
    1MOL0     H   74   3.018   6.201   6.140 -2.9813  1.6755  0.7377
    1MOL0     H   75   3.137   6.054   6.026 -2.0262 -0.9356  0.4303
    1MOL0     H   76   3.060   6.071   5.867 -0.6378 -0.2642  1.1993
    1MOL0     H   77   3.214   6.272   5.815 -3.8647  0.7928  0.4834
    1MOL0     H   78   3.167   6.321   5.967 -3.6711 -2.5204  0.4010
    1MOL0     H   79   3.388   6.114   5.890  1.7410  1.2406 -0.2344
    1MOL0     H   80   3.342   6.123   6.059  1.2516  2.1826  0.8861
    1MOL0     H   81   3.436   6.347   5.876  1.1934 -2.6700 -1.1440
    1MOL0     H   82   3.435   6.356   6.060 -3.9131 -0.5745  1.0082
    1MOL0     H   83   3.607   6.178   5.866  4.0043 -3.2018  2.5774
    1MOL0     H   84   3.596   6.161   6.037 -4.7435 -1.7818 -0.6207
    1MOL0     H   85   3.652   6.414   5.879 -1.3604 -1.7398 -1.4080
    1MOL0     H   86   3.704   6.391   6.057  0.8908  1.6607 -0.7169
    1MOL0     H   87   3.922   6.240   6.107  2.7688 -3.6403 -0.2531
    1MOL0     H   88   4.223   6.154   5.900  1.2641 -0.1984  0.6312
    1MOL0     H   89   4.185   6.163   6.068 -3.0124  1.9135  1.1455
    1MOL0     H   90   4.356   6.328   6.037 -0.3338 -1.6256 -1.3965
    1MOL0     H   91   4.288   6.393   5.897 -0.0907  0.4413 -0.2563
    1MOL0     H   92   4.118   6.513   6.021 -0.9360  0.6466  1.6035
    1MOL0     H   93   4.122   6.387   6.147  1.6725 -1.4500 -0.0897
    1MOL0     H   94   4.230   6.581   6.233 -0.9756 -2.1003  1.6099
    1MOL0     H   95   4.341   6.440   6.215  0.7778  0.9350  0.1646
    1MOL0     H   96   4.530   6.720   5.909 -2.9971 -0.5147  0.0295
    1MOL0     H   97   4.842   6.797   5.890  0.0348 -0.0059 -1.0958
    1MOL0     H   98   4.789   6.935   6.002 -0.0107 -2.9475  2.7156
    1MOL0     H   99   4.692   6.882   5.857  2.5710 -1.3035 -2.7472
    1MOL0     H  100   5.175   6.609   6.255  1.2333 -1.0169  0.2281
    1MOL0     H  101   5.396   6.673   6.257  2.1992  1.9649 -2.3137
    1MOL0     H  102   5.676   6.867   6.332 -2.0597  1.6958  4.1886
    1MOL0     H  103   5.564   6.808   6.209  0.7378  0.5710 -1.5721
    1MOL0     H  104   5.659   7.092   6.259  0.9493  1.3058 -0.9628
    1MOL0     H  105   5.677   7.004   6.116  0.7113  2.6236  0.8838
    1MOL0     H  106   5.497   7.180   6.095  0.2140 -1.5935 -3.6581
    1MOL0     H  107   5.415   7.107   6.231  0.7474 -3.8745  2.9821
    1MOL0     H  108   5.395   6.893   6.083  0.4248 -0.2850 -0.9221
    1MOL0     H  109   5.489   6.980   5.960 -0.4636 -0.8494 -0.4672
    1MOL0     H  110   5.194   7.044   6.064 -1.1238  2.1712 -0.9232
    1MOL0     H  111   5.286   7.152   5.963 -2.3739  0.1996 -0.6232
    1MOL0     H  112   5.178   6.880   5.882 -1.2242  1.3560  3.5881
    1MOL0     H  113   5.330   6.928   5.816  0.2854 -0.2056 -1.1566
    1MOL0     H  114   5.160   7.007   5.652  1.3205 -1.5982  0.7230
    1MOL0     H  115   5.209   7.147   5.739  3.3763 -1.5230  0.0449
    1MOL0     H  116   4.993   7.102   5.905  0.5091 -0.0129  0.5468
    1MOL0     H  117   4.972   6.951   5.817 -0.4329 -0.3170 -0.5933
    1MOL0     H  118   5.284   7.042   6.443  2.5802 -0.7663 -0.0783
    1MOL0     H  119   5.037   6.979   6.427 -1.8623 -3.0127 -0.5309
    1MOL0     H  120   4.738   6.610   6.335 -0.2558 -1.4429  0.0381
    1MOL0     H  121   4.504   6.534   6.297 -2.8427 -2.2611 -3.7640
    1MOL0     H  122   2.636   5.994   6.068  1.3313  1.3722  1.2119
    1MOL0     H  123   2.466   5.837   6.164  0.0147 -0.0966 -2.4893
    1MOL0     H  124   2.581   5.214   6.351 -0.1196 -1.0687 -0.6783
    1MOL0     H  125   2.416   5.046   6.350  3.7009 -0.1980 -1.6602
    1MOL0     H  126   1.984   5.156   6.214  1.2569  2.4546 -2.1608
    1MOL0     H  127   2.104   5.107   6.102  1.1601  0.1426  1.3468
    1MOL0     H  128   1.942   4.909   6.267  2.1020 -0.0223  1.5657
    1MOL0     H  129   2.095   4.870   6.186  0.0208 -0.5856  4.2854
    1MOL0     H  130   1.826   4.962   6.074 -0.6140 -0.0884 -1.8611
    1MOL0     H  131   1.956   4.989   5.977 -1.1495 -0.2215 -1.0653
    1MOL0     H  132   1.842   4.711   6.071  0.4206 -0.2396  1.9045
    1MOL0     H  133   2.011   4.725   6.019  0.3968  0.4938 -1.5491
    1MOL0     H  134   1.866   4.716   5.645 -1.7296 -2.1070  0.0008
    1MOL0     H  135   2.117   5.352   6.255  1.4814  1.6871 -3.2265
    1MOL0     H  136   2.298   5.616   6.337  1.8720  0.1684 -0.0088
    1MOL0     H  137   2.325   5.588   6.169  0.3301  0.6217  0.7828
    1MOL0     H  138   2.157   5.564   6.243 -0.0144 -0.3352 -0.2609
    2MOL0     O  139   1.947   5.270   2.959  0.6683 -0.1834 -0.0049
    2MOL0     C  140   2.066   5.293   2.951  0.1549 -0.8669  0.1731
    2MOL0     O  141   2.146   5.241   2.860  0.0788 -0.4095 -0.3432
    2MOL0     C  142   2.115   5.136   2.775  0.3525  0.6417  0.5803
    2MOL0     C  143   1.995   5.125   2.707 -0.2149  0.6377 -0.1518
    2MOL0     C  144   1.967   5.011   2.627  0.8053  0.5549  0.4778
    2MOL0     C  145   2.055   4.898   2.629 -0.3126  0.5443  0.0151
    2MOL0     O  146   2.034   4.772   2.566 -0.0144  0.8117  0.5474
    2MOL0     C  147   1.899   4.732   2.580  0.6593  0.0160 -0.7980
    2MOL0     C  148   1.888   4.583   2.533  0.5134  0.9836 -0.5290
    2MOL0     C  149   1.908   4.485   2.648 -0.2350  0.7843  0.5117
    2MOL0     C  150   1.868   4.342   2.594  0.7369 -0.3625  0.2365
    2MOL0     C  151   1.881   4.246   2.716 -1.4596  0.4166 -0.4096
    2MOL0     C  152   1.756   4.243   2.811  0.1902  0.3296  0.2794
    2MOL0     C  153   1.785   4.142   2.922 -0.0713 -0.4006 -0.6659
    2MOL0     C  154   1.772   3.999   2.890  0.0822 -0.0451 -0.6571
    2MOL0     N  155   1.637   3.945   2.881 -0.0691  0.9150  0.2336
    2MOL0     C  156   1.613   3.806   2.873  0.7883  0.7685  0.3653
    2MOL0     C  157   1.484   3.797   2.835 -0.3747 -0.5017  1.1423
    2MOL0     C  158   1.402   3.667   2.825  0.5750 -0.0721 -0.3951
    2MOL0     C  159   1.424   3.586   2.701 -0.5149 -0.4059  0.4575
    2MOL0     C  160   1.354   3.643   2.580  0.5631  0.4003 -0.4678
    2MOL0     C  161   1.375   3.559   2.450  0.5927  0.2187  0.1111
    2MOL0     O  162   1.250   3.499   2.439  0.3995  1.0329 -0.5966
    2MOL0     C  163   1.196   3.463   2.317 -0.4664  0.1651  0.2702
    2MOL0     C  164   1.057   3.467   2.302 -0.4138 -1.0174 -0.2182
    2MOL0     C  165   0.988   3.446   2.181 -0.7321 -0.7149 -1.0789
    2MOL0     C  166   0.841   3.463   2.181  0.0985  0.2736  0.4421
    2MOL0     C  167   1.066   3.403   2.072 -0.3169 -1.0583 -0.4668
    2MOL0     C  168   1.009   3.368   1.935  0.3996 -0.1962  0.4908
    2MOL0     O  169   1.100   3.338   1.831 -0.1632 -0.3658 -0.6700
    2MOL0     C  170   1.040   3.299   1.710  0.7326  0.4545 -0.3475
    2MOL0     C  171   0.950   3.192   1.694  0.6234  0.5163  0.2295
    2MOL0     C  172   0.897   3.150   1.568  0.0700 -0.0366 -0.0556
    2MOL0     C  173   0.938   3.222   1.453  0.3143  0.1748 -0.9804
    2MOL0     O  174   0.898   3.194   1.330 -1.2489 -0.3444  0.6205
    2MOL0     C  175   0.769   3.128   1.301 -0.7098  0.1831 -1.1470
    2MOL0     C  176   0.694   3.195   1.181  0.2549 -0.3236 -0.5612
    2MOL0     C  177   0.542   3.183   1.188 -0.1384 -0.5704  0.5169
    2MOL0     C  178   0.483   3.260   1.067  0.6428 -0.1281  0.2285
    2MOL0     C  179   0.363   3.203   1.009  0.0165  0.1263  0.2936
    2MOL0     C  180   0.304   3.304   0.911 -0.2426  0.1867 -0.9126
    2MOL0     C  181   0.193   3.243   0.824 -0.3775 -0.4826  0.4606
    2MOL0     C  182   0.176   3.335   0.700 -0.2830 -0.2267  0.0499
    2MOL0    Cl  183   0.329   3.331   0.599 -0.0201 -0.1340 -0.0486
    2MOL0     C  184   1.029   3.327   1.466 -0.0638  0.1411  0.1020
    2MOL0     C  185   1.086   3.362   1.589  0.8675 -0.1697 -0.3170
    2MOL0     O  186   0.887   3.385   1.916 -0.0382  0.4317 -0.2134
    2MOL0     C  187   1.206   3.409   2.088  0.5840 -0.3093  0.4834
    2MOL0     C  188   1.270   3.437   2.200 -0.3570 -0.8155 -0.0007
    2MOL0     N  189   1.432   3.922   2.815 -0.2897 -1.0656  0.4630
    2MOL0     N  190   1.522   4.012   2.844 -0.6563  0.4365  0.1989
    2MOL0     C  191   2.181   4.920   2.694 -0.0237  0.4824  0.2025
    2MOL0     C  192   2.216   5.036   2.757  0.3729 -0.4654 -0.2448
    2MOL0     C  193   2.131   5.383   3.050  1.0981 -0.2871  0.3541
    2MOL0     C  194   2.043   5.474   3.104  0.3261  0.1709 -0.5900
    2MOL0     C  195   2.099   5.574   3.188  0.1407 -0.8672  0.8277
    2MOL0     C  196   2.236   5.581   3.213 -0.3770 -0.1864 -0.4531
    2MOL0     O  197   2.300   5.677   3.295  0.0995  0.3773 -0.4099
    2MOL0     C  198   2.233   5.687   3.425 -0.2390 -0.1698  0.1243
    2MOL0     C  199   2.338   5.723   3.533  0.4719  0.1438  0.2043
    2MOL0     C  200   2.356   5.879   3.546 -0.0482  0.2135  0.1453
    2MOL0     C  201   2.444   5.913   3.659 -0.4406 -0.1864 -0.7515
    2MOL0     C  202   2.572   5.846   3.646  0.1212  0.2148  0.3076
    2MOL0     C  203   2.688   5.814   3.651  0.9309 -0.6994 -0.6007
    2MOL0     C  204   2.321   5.488   3.152 -0.4155  0.0076 -0.8471
    2MOL0     C  205   2.269   5.384   3.081  0.7229  0.0066 -1.9185
    2MOL0     C  206   2.367   5.287   3.037  0.1093  0.8248 -0.8107
    2MOL0     H  207   1.930   5.211   2.711 -1.2045  0.0716 -2.6526
    2MOL0     H  208   1.870   5.016   2.579  0.4076 -0.6185  1.1211
    2MOL0     H  209   1.826   4.792   2.524  0.8212  0.0789 -0.9454
    2MOL0     H  210   1.874   4.736   2.686  2.2031 -0.8025 -0.3763
    2MOL0     H  211   1.789   4.567   2.490  0.3247  3.1542 -1.0082
    2MOL0     H  212   1.955   4.561   2.449 -0.1476 -1.4652 -0.4794
    2MOL0     H  213   2.011   4.480   2.685 -0.6552 -0.2521  1.5723
    2MOL0     H  214   1.838   4.510   2.729  0.7545  1.4029  1.2035
    2MOL0     H  215   1.765   4.350   2.560  1.8483  3.1022 -2.9614
    2MOL0     H  216   1.928   4.320   2.506 -4.1080  1.1902 -3.9161
    2MOL0     H  217   1.970   4.270   2.775 -1.8249  2.7329 -0.7086
    2MOL0     H  218   1.895   4.145   2.676 -0.6129 -0.5071  2.0609
    2MOL0     H  219   1.740   4.346   2.846  0.8627  0.7746 -0.6666
    2MOL0     H  220   1.664   4.218   2.757 -1.3112  2.0668  1.8911
    2MOL0     H  221   1.718   4.162   3.006  0.5677 -1.1112  0.0222
    2MOL0     H  222   1.879   4.173   2.968 -1.0696  0.7711  0.6770
    2MOL0     H  223   1.832   3.980   2.800 -0.8140 -4.2480 -0.5672
    2MOL0     H  224   1.833   3.940   2.959  2.6561  1.0730 -1.8393
    2MOL0     H  225   1.674   3.717   2.880 -0.7768 -0.5141 -1.3887
    2MOL0     H  226   1.296   3.683   2.848  0.8158 -0.3234  0.9686
    2MOL0     H  227   1.444   3.605   2.905  2.1769  1.6616  0.1745
    2MOL0     H  228   1.528   3.597   2.667 -0.5793 -2.3815 -0.5201
    2MOL0     H  229   1.395   3.481   2.714 -1.4563 -0.1573  0.4191
    2MOL0     H  230   1.249   3.655   2.605  0.5061 -1.9757  0.7389
    2MOL0     H  231   1.395   3.744   2.568  1.4669  0.4840  2.4655
    2MOL0     H  232   1.403   3.615   2.360  2.3651 -1.2058 -0.2691
    2MOL0     H  233   1.441   3.473   2.463  0.9030  0.3288 -0.7103
    2MOL0     H  234   1.002   3.492   2.392  0.9522  1.2815  0.0459
    2MOL0     H  235   0.810   3.495   2.281  2.2599 -0.1070  1.2935
    2MOL0     H  236   0.802   3.362   2.162  0.4141  0.2606 -0.1580
    2MOL0     H  237   0.801   3.532   2.107  0.6801 -0.4518 -0.5848
    2MOL0     H  238   0.913   3.138   1.780  0.9437  0.4056  0.2983
    2MOL0     H  239   0.831   3.064   1.570 -0.8492  0.6373 -0.8365
    2MOL0     H  240   0.787   3.020   1.296  1.3114  0.1267  2.8412
    2MOL0     H  241   0.704   3.137   1.388 -0.5765 -1.6810 -0.8092
    2MOL0     H  242   0.718   3.302   1.180  1.6847 -0.6239 -0.3140
    2MOL0     H  243   0.724   3.167   1.080 -0.7098 -1.6396 -0.5029
    2MOL0     H  244   0.501   3.220   1.282 -0.2790 -2.9779  1.4978
    2MOL0     H  245   0.507   3.079   1.183 -1.2243 -0.1908 -0.1074
    2MOL0     H  246   0.559   3.281   0.992  0.4894  2.3521  0.6862
    2MOL0     H  247   0.454   3.353   1.117 -3.2225 -1.0233 -0.0279
    2MOL0     H  248   0.385   3.110   0.955  0.0484  1.1319 -1.5067
    2MOL0     H  249   0.281   3.176   1.076 -0.5622  2.6984  0.7290
    2MOL0     H  250   0.381   3.354   0.852 -0.8789  1.5253 -0.6380
    2MOL0     H  251   0.260   3.384   0.970 -0.3405 -0.5959  0.1090
    2MOL0     H  252   0.093   3.256   0.867 -0.7247  1.7061 -0.8720
    2MOL0     H  253   0.215   3.138   0.802 -1.2980 -0.9219  1.5009
    2MOL0     H  254   0.161   3.439   0.732  0.7464  0.5456 -1.8188
    2MOL0     H  255   0.082   3.318   0.647 -0.2728 -0.6725  0.1709
    2MOL0     H  256   1.064   3.370   1.373 -3.9221 -2.3003 -2.8131
    2MOL0     H  257   1.150   3.449   1.604  1.1593 -0.7483  2.3676
    2MOL0     H  258   1.253   3.362   2.003 -1.5572 -2.5618  0.4256
    2MOL0     H  259   1.378   3.425   2.200 -0.0965  1.1866  0.8061
    2MOL0     H  260   2.255   4.844   2.715  0.7361  1.5194  1.5068
    2MOL0     H  261   2.314   5.050   2.800  1.3402 -0.3183 -2.3905
    2MOL0     H  262   1.935   5.465   3.097  0.0430  1.1954  1.6274
    2MOL0     H  263   2.024   5.646   3.218  0.2961  1.5011 -3.6600
    2MOL0     H  264   2.145   5.751   3.414 -1.0978 -1.3478 -0.1116
    2MOL0     H  265   2.181   5.592   3.443 -2.6418  1.1692  0.7708
    2MOL0     H  266   2.427   5.672   3.496  1.1012  0.3946  1.3089
    2MOL0     H  267   2.318   5.688   3.635  3.6810  2.0131  1.6415
    2MOL0     H  268   2.401   5.921   3.455 -1.5957  0.3088 -0.6221
    2MOL0     H  269   2.257   5.922   3.562 -1.2436 -3.2282  3.5676
    2MOL0     H  270   2.399   5.881   3.753 -2.3429  1.6468 -0.9683
    2MOL0     H  271   2.454   6.022   3.669  0.8149 -0.4720  2.1226
    2MOL0     H  272   2.793   5.794   3.654  0.5716 -2.7420 -0.3437
    2MOL0     H  273   2.426   5.492   3.182 -0.4719 -1.4522 -0.3853
    2MOL0     H  274   2.442   5.278   3.116 -1.2713 -0.2790  0.4381
    2MOL0     H  275   2.323   5.187   3.029  0.0714  0.7160  0.6402
    2MOL0     H  276   2.410   5.316   2.941 -2.7053 -1.2687 -2.9206
    3MOL0     O  277   4.051   3.029   7.242  0.0176  0.0844  0.2409
    3MOL0     C  278   3.987   3.123   7.193 -0.2981  0.4656  0.1290
    3MOL0     O  279   4.015   3.203   7.083 -0.1912  0.1789  0.3623
    3MOL0     C  280   4.121   3.180   6.997  0.5312 -0.3362 -0.8559
    3MOL0     C  281   4.250   3.176   7.048  0.4701 -0.4293  0.3197
    3MOL0     C  282   4.351   3.165   6.958 -1.0576 -0.2688  0.0386
    3MOL0     C  283   4.333   3.152   6.820 -0.6143  0.2011  0.1871
    3MOL0     O  284   4.447   3.145   6.736  0.0074  0.5120  0.8693
    3MOL0     C  285   4.427   3.067   6.614  0.8661 -0.6370  0.2400
    3MOL0     C  286   4.556   3.002   6.569 -0.3953 -0.1038 -0.0553
    3MOL0     C  287   4.536   2.937   6.435 -0.5349 -0.1522  0.0119
    3MOL0     C  288   4.656   2.848   6.390  0.3166 -0.7506 -0.4853
    3MOL0     C  289   4.617   2.798   6.252 -0.0756 -0.0005  0.4075
    3MOL0     C  290   4.728   2.702   6.199 -0.1363  0.2930  0.8910
    3MOL0     C  291   4.705   2.664   6.059  0.4216 -0.2271  0.6739
    3MOL0     C  292   4.816   2.564   6.007  0.1842  0.4202 -0.0567
    3MOL0     N  293   4.793   2.540   5.867  0.7909 -0.4452 -0.1933
    3MOL0     C  294   4.882   2.554   5.762 -0.3177 -0.3503 -0.6548
    3MOL0     C  295   4.811   2.539   5.649 -0.6315  0.4022 -0.8188
    3MOL0     C  296   4.874   2.515   5.516  0.6830  0.2373  0.2066
    3MOL0     C  297   4.971   2.404   5.519  0.0062  0.9714 -0.4415
    3MOL0     C  298   5.024   2.370   5.377  0.6323 -1.0220  0.4374
    3MOL0     C  299   5.155   2.309   5.371  0.2447 -0.4408  0.6428
    3MOL0     O  300   5.204   2.325   5.233  0.3467  0.0319 -0.0273
    3MOL0     C  301   5.325   2.273   5.194  0.8447  0.9066  0.3346
    3MOL0     C  302   5.356   2.322   5.069 -0.9026  0.0679  0.4204
    3MOL0     C  303   5.479   2.306   5.002 -0.2632  0.4207 -0.4985
    3MOL0     C  304   5.495   2.366   4.864  0.0785  0.9571 -0.1845
    3MOL0     C  305   5.567   2.220   5.071 -1.1105 -0.2007 -0.9324
    3MOL0     C  306   5.696   2.179   5.016  0.5690 -0.5530 -0.1555
    3MOL0     O  307   5.763   2.057   5.053  0.2004 -0.8362 -0.1699
    3MOL0     C  308   5.885   2.033   4.992 -0.1331  0.7109 -0.2983
    3MOL0     C  309   6.006   2.066   5.049  0.4344  0.6032  0.1620
    3MOL0     C  310   6.132   2.031   4.985  0.6723 -0.5671 -0.5331
    3MOL0     C  311   6.140   1.978   4.861  0.3385 -0.0554 -0.4922
    3MOL0     O  312   6.266   1.966   4.799  0.1223  0.0252  0.4020
    3MOL0     C  313   6.277   1.877   4.691  0.5684  0.2709 -0.3609
    3MOL0     C  314   6.413   1.867   4.629  0.7870 -0.0377  0.3287
    3MOL0     C  315   6.514   1.840   4.735 -0.4350  0.0455  0.2850
    3MOL0     C  316   6.649   1.791   4.690 -0.3348 -0.1789 -0.6151
    3MOL0     C  317   6.733   1.785   4.825 -0.4077 -0.0365  0.3341
    3MOL0     C  318   6.871   1.727   4.795  0.5037  0.1092  0.5929
    3MOL0     C  319   6.960   1.732   4.927 -0.1937  0.4187  0.0580
    3MOL0     C  320   7.117   1.729   4.898  1.4844  0.7039 -0.5596
    3MOL0    Cl  321   7.170   1.549   4.856 -0.0681 -0.2407 -0.0518
    3MOL0     C  322   6.015   1.934   4.805 -0.5816  0.2965 -0.0552
    3MOL0     C  323   5.894   1.952   4.875  0.3305 -0.0152 -0.3263
    3MOL0     O  324   5.731   2.240   4.914  0.8260 -0.5407  0.0751
    3MOL0     C  325   5.541   2.164   5.200 -0.0964  0.2559  0.8567
    3MOL0     C  326   5.415   2.193   5.264 -0.4066  0.0505 -0.3823
    3MOL0     N  327   4.681   2.523   5.685  0.0365 -0.0994  0.2883
    3MOL0     N  328   4.668   2.529   5.806  0.2501  0.2545 -0.0109
    3MOL0     C  329   4.204   3.160   6.774  0.2487  0.4639  0.4999
    3MOL0     C  330   4.095   3.165   6.860 -0.0714 -0.0957 -0.6707
    3MOL0     C  331   3.862   3.155   7.261  0.3067  0.1168  0.1707
    3MOL0     C  332   3.799   3.273   7.231  0.1431  0.6369 -0.0992
    3MOL0     C  333   3.694   3.307   7.314 -0.2562 -0.3904  0.0186
    3MOL0     C  334   3.640   3.234   7.420 -0.8112 -0.4611  0.3638
    3MOL0     O  335   3.545   3.291   7.500 -0.1447  0.1188 -0.4610
    3MOL0     C  336   3.498   3.216   7.617 -0.2287 -0.1508 -0.3585
    3MOL0     C  337   3.367   3.279   7.677  0.2412  0.2057 -0.0119
    3MOL0     C  338   3.388   3.406   7.762 -0.6951  0.1055 -0.9366
    3MOL0     C  339   3.261   3.461   7.833  0.3042 -0.7683  0.6192
    3MOL0     C  340   3.290   3.594   7.891  0.2135  0.4446 -1.0001
    3MOL0     C  341   3.316   3.688   7.957  0.3464 -0.1855 -0.0415
    3MOL0     C  342   3.692   3.112   7.438 -0.4926 -0.2073  0.1658
    3MOL0     C  343   3.805   3.061   7.364 -0.1435 -0.1843  0.6436
    3MOL0     C  344   3.862   2.933   7.417  0.1387  0.6018  0.5218
    3MOL0     H  345   4.262   3.181   7.156 -2.0700  0.1241  0.6519
    3MOL0     H  346   4.452   3.162   6.996 -1.3298 -0.3789  0.7644
    3MOL0     H  347   4.389   3.142   6.543  0.8001  1.2601  2.1897
    3MOL0     H  348   4.350   2.991   6.630 -1.1927  1.2092 -0.3239
    3MOL0     H  349   4.636   3.074   6.553  0.0412 -0.5829 -0.0520
    3MOL0     H  350   4.584   2.927   6.643  0.3453  0.6782  0.4799
    3MOL0     H  351   4.455   2.864   6.427 -1.4771  1.0563 -2.8002
    3MOL0     H  352   4.509   3.017   6.365 -1.1495 -1.3824 -1.2176
    3MOL0     H  353   4.741   2.916   6.384 -0.6595  0.5460 -0.1370
    3MOL0     H  354   4.671   2.769   6.463 -1.5714  1.3519  2.3878
    3MOL0     H  355   4.603   2.878   6.179  0.9468 -0.2246 -0.0502
    3MOL0     H  356   4.526   2.738   6.263  1.2890 -2.5585 -1.2473
    3MOL0     H  357   4.815   2.761   6.226  0.2978 -0.2285  0.6454
    3MOL0     H  358   4.715   2.614   6.263  1.6833  0.1924  1.1556
    3MOL0     H  359   4.722   2.752   5.996  0.7674 -0.7358  0.0491
    3MOL0     H  360   4.605   2.620   6.052 -0.6389  0.8383  5.4915
    3MOL0     H  361   4.917   2.603   6.021  0.2104  0.1846  0.4506
    3MOL0     H  362   4.820   2.473   6.068  0.8748  0.4350 -0.0696
    3MOL0     H  363   4.990   2.564   5.755 -0.4005 -0.5224 -2.9299
    3MOL0     H  364   4.923   2.603   5.474 -2.1760  1.2480 -1.2803
    3MOL0     H  365   4.793   2.479   5.453  1.0738 -1.1683  0.4720
    3MOL0     H  366   5.054   2.434   5.583  0.4779  1.9310 -1.4732
    3MOL0     H  367   4.929   2.317   5.571 -0.3377  0.3089 -1.7553
    3MOL0     H  368   4.945   2.308   5.334 -1.0226  1.3215 -0.1294
    3MOL0     H  369   5.023   2.456   5.309  1.4362 -0.1415  1.5020
    3MOL0     H  370   5.215   2.364   5.444 -0.7127  0.5984  0.6611
    3MOL0     H  371   5.142   2.203   5.398 -1.7176 -1.5513 -3.7311
    3MOL0     H  372   5.278   2.381   5.022 -1.0425  1.4870  2.3119
    3MOL0     H  373   5.408   2.428   4.840  0.7273  1.3259 -1.6845
    3MOL0     H  374   5.508   2.302   4.776  1.7075  0.0352  0.6832
    3MOL0     H  375   5.580   2.434   4.861 -0.5602  1.7616 -3.3316
    3MOL0     H  376   6.003   2.130   5.136  3.7331  0.9025  0.1659
    3MOL0     H  377   6.229   2.063   5.022 -0.4937  1.4626  1.0444
    3MOL0     H  378   6.255   1.775   4.726  0.7216  0.6237  0.7922
    3MOL0     H  379   6.200   1.915   4.624  1.3559  2.7546  0.0590
    3MOL0     H  380   6.402   1.785   4.556 -0.9866 -0.5384  1.1133
    3MOL0     H  381   6.458   1.960   4.594  2.6914 -0.7954  0.6682
    3MOL0     H  382   6.474   1.756   4.793 -2.7167 -1.4402 -3.1349
    3MOL0     H  383   6.533   1.926   4.800 -0.9170 -0.9971  1.8680
    3MOL0     H  384   6.695   1.853   4.613  0.6524  0.3421  0.3703
    3MOL0     H  385   6.639   1.696   4.637 -2.2696  0.9967 -2.5472
    3MOL0     H  386   6.745   1.884   4.868 -1.7616 -0.2026  1.1354
    3MOL0     H  387   6.675   1.719   4.890 -2.3700  2.7548  1.5816
    3MOL0     H  388   6.905   1.784   4.708 -1.8772  0.8764  0.1043
    3MOL0     H  389   6.865   1.624   4.758  1.7810 -0.5878  2.1960
    3MOL0     H  390   6.936   1.656   5.002  2.0777  1.4618  1.9449
    3MOL0     H  391   6.951   1.830   4.975 -2.8973 -0.5976  1.9298
    3MOL0     H  392   7.169   1.775   4.982 -2.2682  2.9945  0.7328
    3MOL0     H  393   7.129   1.799   4.815 -2.3787  2.2066 -0.0685
    3MOL0     H  394   6.003   1.868   4.719 -1.1264 -2.0771  1.7380
    3MOL0     H  395   5.801   1.910   4.838 -0.2316  1.0595 -0.1656
    3MOL0     H  396   5.612   2.098   5.248  0.3464  1.3702  1.7828
    3MOL0     H  397   5.392   2.145   5.358  0.9524  0.0163 -0.0483
    3MOL0     H  398   4.180   3.160   6.668  1.3723 -0.8540  0.2120
    3MOL0     H  399   3.993   3.157   6.823 -0.3722 -0.4736  0.2192
    3MOL0     H  400   3.837   3.331   7.148  0.5714 -0.3167 -0.5733
    3MOL0     H  401   3.649   3.404   7.294  0.1986 -0.3680 -0.9333
    3MOL0     H  402   3.468   3.117   7.582  2.6677 -1.1515 -0.2769
    3MOL0     H  403   3.567   3.198   7.699 -1.8035 -1.6378  0.7008
    3MOL0     H  404   3.322   3.209   7.748  0.3443 -1.1096 -1.1925
    3MOL0     H  405   3.288   3.309   7.608 -1.9527 -2.7815  0.9880
    3MOL0     H  406   3.470   3.385   7.832 -0.1076  0.3101 -1.5519
    3MOL0     H  407   3.422   3.482   7.691 -1.4601  2.1424  0.7696
    3MOL0     H  408   3.231   3.390   7.911 -0.1370 -0.4078  0.7840
    3MOL0     H  409   3.179   3.478   7.762  2.9687  0.0048 -2.5095
    3MOL0     H  410   3.365   3.771   8.003  1.1807  1.6187 -3.8187
    3MOL0     H  411   3.652   3.055   7.522  0.5023 -3.1327 -1.1929
    3MOL0     H  412   3.798   2.882   7.489  0.4847 -1.1363 -0.3466
    3MOL0     H  413   3.866   2.860   7.335  3.4663  2.2757 -1.0129
    3MOL0     H  414   3.967   2.940   7.448  0.4502 -0.7437 -0.1503
    4MOL0     O  415   8.450   5.746  10.953  0.6064 -0.3154 -0.2000
    4MOL0     C  416   8.350   5.820  10.966  0.3569 -0.5402 -0.7582
    4MOL0     O  417   8.347   5.953  10.929 -0.0183 -0.2940  0.5841
    4MOL0     C  418   8.463   6.022  10.945 -0.4470 -0.1716  0.0528
    4MOL0     C  419   8.597   5.988  10.985 -0.4170 -0.1563 -0.4841
    4MOL0     C  420   8.695   6.091  10.987 -0.6719  1.1336 -0.4016
    4MOL0     C  421   8.675   6.224  10.948  0.5707  0.3164 -0.2328
    4MOL0     O  422   8.778   6.316  10.950  0.4088  0.0381 -0.9889
    4MOL0     C  423   8.752   6.454  10.945  0.0629  0.0365  0.4011
    4MOL0     C  424   8.869   6.532  10.989 -0.7339  0.1926  0.0045
    4MOL0     C  425   8.982   6.485  10.888  0.6039 -0.6462 -0.0495
    4MOL0     C  426   9.096   6.588  10.885 -0.1820 -0.1222 -0.4339
    4MOL0     C  427   9.228   6.529  10.843 -0.1372  0.4643 -0.4033
    4MOL0     C  428   9.323   6.643  10.810 -1.3269  0.0573  1.2525
    4MOL0     C  429   9.458   6.586  10.756 -0.2240  0.0504  0.1025
    4MOL0     C  430   9.552   6.700  10.698 -0.4279 -0.3768 -0.1012
    4MOL0     N  431   9.684   6.694  10.772 -0.1270 -1.3138 -1.0011
    4MOL0     C  432   9.775   6.594  10.779  0.0667  0.0014  0.4451
    4MOL0     C  433   9.867   6.651  10.868 -0.0130 -0.3139  0.0798
    4MOL0     C  434   9.999   6.581  10.911  0.1353 -0.2523  0.3742
    4MOL0     C  435  10.131   6.662  10.896 -0.3129 -0.5037  0.2470
    4MOL0     C  436  10.143   6.700  10.744  0.1669 -0.6900  0.1961
    4MOL0     C  437  10.244   6.809  10.721  0.5892  0.2550 -0.4536
    4MOL0     O  438  10.363   6.752  10.774 -0.0114 -0.4923  0.2673
    4MOL0     C  439  10.474   6.735  10.693  0.3726  0.2909 -0.2317
    4MOL0     C  440  10.483   6.622  10.607 -0.1107 -0.3652 -0.3057
    4MOL0     C  441  10.594   6.588  10.528  0.3153  0.2134 -0.4043
    4MOL0     C  442  10.595   6.454  10.458  0.0520  1.0082 -0.5671
    4MOL0     C  443  10.705   6.676  10.532 -0.0079  0.0018 -0.8281
    4MOL0     C  444  10.844   6.656  10.471  0.3564 -0.3763  0.0183
    4MOL0     O  445  10.890   6.529  10.501  0.6760  0.5272  0.9048
    4MOL0     C  446  11.007   6.494  10.456 -0.6388  0.3262  0.4749
    4MOL0     C  447  11.127   6.567  10.455 -0.8945  0.4614  0.2678
    4MOL0     C  448  11.246   6.514  10.387 -0.5308  1.2478  1.1070
    4MOL0     C  449  11.249   6.387  10.334 -0.1354  0.0540  1.4115
    4MOL0     O  450  11.367   6.353  10.281  0.1581  0.2721  0.3067
    4MOL0     C  451  11.383   6.220  10.250 -0.5903  0.4315  0.0143
    4MOL0     C  452  11.519   6.201  10.196 -0.5755 -0.1151  0.2167
    4MOL0     C  453  11.555   6.067  10.161  0.1982  0.4341 -0.0880
    4MOL0     C  454  11.691   6.046  10.104  0.7647 -0.0086  0.3494
    4MOL0     C  455  11.701   5.902  10.050  0.8465  0.4193  0.5687
    4MOL0     C  456  11.831   5.883   9.983  0.0840 -0.0989  0.0588
    4MOL0     C  457  11.843   5.767   9.884  0.8439 -0.7223 -0.1800
    4MOL0     C  458  11.850   5.629   9.952 -0.2113  0.9403  0.4713
    4MOL0    Cl  459  11.980   5.609  10.070  0.1201  0.1322 -0.0555
    4MOL0     C  460  11.135   6.304  10.348 -0.1016  0.0759 -0.0276
    4MOL0     C  461  11.022   6.358  10.406  0.1818 -0.4562 -0.0444
    4MOL0     O  462  10.893   6.745  10.402  0.3937  0.2237 -0.2515
    4MOL0     C  463  10.698   6.794  10.607  0.3875 -1.1940  0.1236
    4MOL0     C  464  10.588   6.823  10.689  0.8836 -0.2378  0.0796
    4MOL0     N  465   9.832   6.778  10.903  0.7104 -0.1589 -0.1150
    4MOL0     N  466   9.722   6.804  10.841  0.2202 -0.4453  0.3437
    4MOL0     C  467   8.541   6.257  10.909  0.2489  0.0542  0.2225
    4MOL0     C  468   8.442   6.158  10.909  0.2644 -0.3603 -0.5059
    4MOL0     C  469   8.230   5.760  11.019  0.2768  0.4179  0.1858
    4MOL0     C  470   8.107   5.817  10.968  0.4499 -0.1165 -0.1511
    4MOL0     C  471   7.986   5.762  11.000 -0.0129 -0.7052 -0.1979
    4MOL0     C  472   7.968   5.652  11.081  0.0749  0.3673 -0.7434
    4MOL0     O  473   7.842   5.595  11.113 -0.3013  0.0351  0.1282
    4MOL0     C  474   7.785   5.644  11.236 -0.4553  0.3451 -0.1464
    4MOL0     C  475   7.776   5.514  11.330 -0.0885 -0.3085  0.3768
    4MOL0     C  476   7.725   5.553  11.470  0.1949 -0.2537 -0.2841
    4MOL0     C  477   7.749   5.447  11.577 -0.4210 -0.3820  0.3765
    4MOL0     C  478   7.895   5.436  11.607 -0.2554 -0.0220 -0.6146
    4MOL0     C  479   8.017   5.417  11.622  0.1769 -0.2049  0.2636
    4MOL0     C  480   8.085   5.598  11.129 -0.2161  0.4368  0.0026
    4MOL0     C  481   8.215   5.648  11.103 -0.9484 -0.2130  0.3820
    4MOL0     C  482   8.338   5.575  11.159 -0.2271 -0.0214 -0.2591
    4MOL0     H  483   8.630   5.889  11.015 -0.7165  0.7455  3.3343
    4MOL0     H  484   8.791   6.057  11.024  0.1433  1.5508 -2.0197
    4MOL0     H  485   8.672   6.475  11.017 -2.8595 -2.8829 -1.6616
    4MOL0     H  486   8.709   6.489  10.850  2.0480 -1.9620 -1.3402
    4MOL0     H  487   8.848   6.638  10.974  1.1667  0.2160 -3.2819
    4MOL0     H  488   8.889   6.501  11.093 -0.8419  0.3369  0.0676
    4MOL0     H  489   9.031   6.392  10.919  1.2811 -0.9384 -1.8462
    4MOL0     H  490   8.950   6.471  10.784  0.5604 -0.5972 -0.0418
    4MOL0     H  491   9.068   6.671  10.820  0.4221  0.3847 -0.0478
    4MOL0     H  492   9.109   6.641  10.979 -1.0500  0.8548 -0.8507
    4MOL0     H  493   9.208   6.474  10.750  2.3926 -2.1245  0.4266
    4MOL0     H  494   9.263   6.458  10.919 -0.6443 -0.2126 -0.7904
    4MOL0     H  495   9.280   6.708  10.733  5.0997  0.2981 -2.9472
    4MOL0     H  496   9.354   6.692  10.903  1.9669 -1.2966  1.0186
    4MOL0     H  497   9.433   6.518  10.675  3.5461  1.3097 -2.3637
    4MOL0     H  498   9.509   6.523  10.829  1.0041  0.3579 -0.4684
    4MOL0     H  499   9.567   6.687  10.590 -1.0323 -0.3176 -0.1983
    4MOL0     H  500   9.505   6.797  10.716  0.8946  0.0267  1.3491
    4MOL0     H  501   9.770   6.499  10.727 -1.8125  0.4689 -0.2832
    4MOL0     H  502  10.007   6.492  10.848  0.7056 -2.4847  3.4077
    4MOL0     H  503   9.987   6.531  11.007  0.8711 -2.1915 -0.5011
    4MOL0     H  504  10.135   6.752  10.959 -2.5456  1.0234 -1.6188
    4MOL0     H  505  10.213   6.591  10.905  0.6960  0.5726 -0.2145
    4MOL0     H  506  10.162   6.610  10.685 -2.8582 -0.3192 -1.5808
    4MOL0     H  507  10.056   6.752  10.703  2.6282  0.9372 -3.5696
    4MOL0     H  508  10.235   6.849  10.620 -3.3689  1.2945  0.1445
    4MOL0     H  509  10.218   6.891  10.789  0.2974  0.9926 -1.4415
    4MOL0     H  510  10.403   6.548  10.616 -1.5746  1.3402  1.5733
    4MOL0     H  511  10.674   6.382  10.481 -3.2595 -2.2609  1.9480
    4MOL0     H  512  10.594   6.480  10.352  0.0282  0.8485 -0.6063
    4MOL0     H  513  10.504   6.397  10.483  2.3716 -2.0478  1.7244
    4MOL0     H  514  11.133   6.669  10.489 -2.5776  0.3442  0.9924
    4MOL0     H  515  11.335   6.574  10.375 -0.1295  0.5618  0.6294
    4MOL0     H  516  11.364   6.161  10.340  0.4200 -0.6652 -0.4562
    4MOL0     H  517  11.328   6.188  10.161  0.7962 -0.8323 -0.4409
    4MOL0     H  518  11.537   6.259  10.105 -0.9494 -0.7330 -0.2548
    4MOL0     H  519  11.584   6.257  10.266 -0.3055 -0.1390 -0.0130
    4MOL0     H  520  11.477   6.033  10.092  0.6561  0.7816 -0.7912
    4MOL0     H  521  11.557   6.009  10.253  1.9623  2.6270  1.3739
    4MOL0     H  522  11.775   6.064  10.172 -0.9377  0.3036  2.4668
    4MOL0     H  523  11.696   6.121  10.024  0.1670  0.3172  0.6144
    4MOL0     H  524  11.686   5.831  10.132 -0.3203 -1.6075 -1.2962
    4MOL0     H  525  11.612   5.890   9.987 -0.2237 -0.3317  2.1333
    4MOL0     H  526  11.908   5.878  10.061 -0.0245  1.5215  0.3087
    4MOL0     H  527  11.858   5.970   9.922  2.2152  0.2592  1.3990
    4MOL0     H  528  11.932   5.793   9.825  0.2222  0.3579 -0.6653
    4MOL0     H  529  11.758   5.777   9.816  0.7889  0.0886  0.0011
    4MOL0     H  530  11.863   5.554   9.873 -2.5164 -0.9781  1.7997
    4MOL0     H  531  11.750   5.622   9.995 -0.3577 -1.7421 -0.1063
    4MOL0     H  532  11.126   6.208  10.298 -4.0806  0.4460 -0.3922
    4MOL0     H  533  10.933   6.297  10.407 -0.1687  0.0067 -1.0575
    4MOL0     H  534  10.783   6.861  10.605 -0.4085 -0.0882  1.6896
    4MOL0     H  535  10.578   6.918  10.740 -0.7765  0.4820 -1.4845
    4MOL0     H  536   8.516   6.347  10.855  2.9178 -1.4293 -3.9335
    4MOL0     H  537   8.351   6.182  10.856 -1.3744 -2.9750  0.9497
    4MOL0     H  538   8.102   5.911  10.913  3.5378  0.6915  0.7350
    4MOL0     H  539   7.895   5.804  10.958 -1.2633 -3.1771 -0.1595
    4MOL0     H  540   7.851   5.720  11.278 -1.2695  0.3333  1.2067
    4MOL0     H  541   7.687   5.688  11.213 -3.3672 -4.4103  1.8040
    4MOL0     H  542   7.871   5.460  11.335  1.2004  1.7960  0.0273
    4MOL0     H  543   7.699   5.449  11.290 -0.7525  0.9472 -0.4633
    4MOL0     H  544   7.757   5.654  11.495 -0.2010 -0.0696 -0.5117
    4MOL0     H  545   7.616   5.560  11.465  0.1194  2.5051  2.5348
    4MOL0     H  546   7.723   5.350  11.535 -0.5517 -0.7445  1.2912
    4MOL0     H  547   7.687   5.461  11.666  0.8229  0.5347  1.1309
    4MOL0     H  548   8.119   5.385  11.633  0.9855  1.7745 -0.8010
    4MOL0     H  549   8.084   5.506  11.187 -2.4462  0.0347 -0.5822
    4MOL0     H  550   8.302   5.513  11.241 -0.0349 -0.7830 -0.7352
    4MOL0     H  551   8.378   5.500  11.089 -0.8069 -1.3350  0.7690
    4MOL0     H  552   8.419   5.639  11.195 -0.3194  0.0548 -0.1892
    5MOL0     O  553   0.764   7.546   9.001  0.3816 -0.2804 -1.0684
    5MOL0     C  554   0.759   7.544   9.124  0.7249 -0.0275  0.6406
    5MOL0     O  555   0.865   7.575   9.200  0.1787 -0.5124 -0.4920
    5MOL0     C  556   0.987   7.600   9.142 -0.0098  0.2863  0.7167
    5MOL0     C  557   1.024   7.703   9.055  0.6793  0.6622 -0.3249
    5MOL0     C  558   1.158   7.727   9.002 -0.3968  0.1892 -0.3421
    5MOL0     C  559   1.257   7.639   9.048 -0.0170 -0.3930  0.7446
    5MOL0     O  560   1.392   7.655   9.018 -0.6425 -1.2425 -0.5266
    5MOL0     C  561   1.429   7.769   8.935 -0.5421 -0.2949  1.1370
    5MOL0     C  562   1.574   7.792   8.969  0.1808 -0.2062 -0.2671
    5MOL0     C  563   1.642   7.896   8.871  0.0753  0.1448 -0.6334
    5MOL0     C  564   1.796   7.918   8.904 -0.1075  0.6172 -0.0036
    5MOL0     C  565   1.857   8.021   8.804  0.3428  0.3531  0.4071
    5MOL0     C  566   1.990   8.060   8.848 -0.2959 -0.0162  0.2623
    5MOL0     C  567   2.084   7.941   8.867 -0.4076  0.0946  0.4781
    5MOL0     C  568   2.226   7.990   8.881  0.0279  0.6289  0.1221
    5MOL0     N  569   2.254   8.061   9.001 -0.2022 -0.0049  0.3860
    5MOL0     C  570   2.241   8.195   9.026 -0.9064  0.3921 -0.2661
    5MOL0     C  571   2.308   8.216   9.142  0.6521 -0.2827 -0.7003
    5MOL0     C  572   2.338   8.352   9.183 -0.1005 -0.7407 -0.9056
    5MOL0     C  573   2.449   8.358   9.292  0.1438  0.3411 -0.7738
    5MOL0     C  574   2.470   8.506   9.326  0.1525  0.6619 -0.1590
    5MOL0     C  575   2.594   8.533   9.408  0.6194 -0.0967 -0.2942
    5MOL0     O  576   2.580   8.474   9.540  0.0289  0.6658  0.0525
    5MOL0     C  577   2.689   8.488   9.622 -0.7539 -0.8015  0.1998
    5MOL0     C  578   2.779   8.386   9.633  0.1315  0.5921 -0.7124
    5MOL0     C  579   2.896   8.397   9.707 -0.7170 -0.3696  0.3505
    5MOL0     C  580   2.983   8.270   9.698 -0.6704 -0.1179  0.0349
    5MOL0     C  581   2.919   8.519   9.782 -0.0992 -1.0295  0.4282
    5MOL0     C  582   3.036   8.549   9.867 -0.2360 -0.5327  0.1464
    5MOL0     O  583   3.010   8.625   9.982  0.0280 -0.0832 -0.3752
    5MOL0     C  584   3.104   8.643  10.077 -0.1116 -0.4198 -0.8857
    5MOL0     C  585   3.065   8.724  10.183 -0.1670  0.4885 -0.7473
    5MOL0     C  586   3.145   8.758  10.291 -0.8694 -0.3562 -0.6076
    5MOL0     C  587   3.278   8.723  10.302 -0.8275  0.0299  0.8673
    5MOL0     O  588   3.364   8.769  10.399  0.6596  0.7250 -0.4862
    5MOL0     C  589   3.485   8.694  10.412  0.6029  0.0789 -0.4923
    5MOL0     C  590   3.571   8.767  10.508  0.4368 -0.7882 -0.0127
    5MOL0     C  591   3.710   8.698  10.525 -0.8799  0.5484  0.2857
    5MOL0     C  592   3.698   8.548  10.546 -0.4917 -0.2989 -0.0033
    5MOL0     C  593   3.821   8.479  10.620  0.1064 -0.5057  0.8962
    5MOL0     C  594   3.943   8.471  10.519  0.0196 -0.2003  1.0955
    5MOL0     C  595   3.921   8.364  10.407 -0.5172  0.8415 -0.1379
    5MOL0     C  596   4.035   8.340  10.308 -0.2515  1.0313  0.2046
    5MOL0    Cl  597   4.177   8.256  10.400 -0.0973 -0.0598 -0.0752
    5MOL0     C  598   3.326   8.631  10.192  0.6502 -1.1996  0.6406
    5MOL0     C  599   3.236   8.587  10.086  0.0174 -0.2443 -0.1565
    5MOL0     O  600   3.145   8.497   9.833  0.4009  0.4004 -0.8162
    5MOL0     C  601   2.819   8.613   9.780  0.7440  0.2242  0.1800
    5MOL0     C  602   2.703   8.599   9.696  0.0060  0.1346 -1.1305
    5MOL0     N  603   2.350   8.088   9.193  0.2499  0.1613 -0.7153
    5MOL0     N  604   2.304   8.002   9.112  0.0341 -1.2077 -1.1962
    5MOL0     C  605   1.215   7.525   9.121  0.5228  0.8263  0.4950
    5MOL0     C  606   1.081   7.500   9.154 -0.3346 -0.3750  0.3963
    5MOL0     C  607   0.642   7.484   9.189  0.2911 -0.7780 -0.1621
    5MOL0     C  608   0.619   7.513   9.328 -1.2984 -0.0159 -0.9022
    5MOL0     C  609   0.499   7.488   9.390 -0.1497 -0.2096  0.0373
    5MOL0     C  610   0.392   7.432   9.311 -0.7870 -0.8888 -0.1545
    5MOL0     O  611   0.265   7.408   9.363 -0.2557 -0.2690 -0.2324
    5MOL0     C  612   0.228   7.458   9.496 -0.7403 -0.5713  0.9190
    5MOL0     C  613   0.117   7.372   9.563 -0.9449 -0.5402  0.8127
    5MOL0     C  614   0.049   7.453   9.685 -1.0167  0.2967  0.2470
    5MOL0     C  615  -0.048   7.361   9.764  0.5110 -1.0203  0.0857
    5MOL0     C  616  -0.157   7.307   9.684  0.4682 -0.0524  0.6243
    5MOL0     C  617  -0.236   7.253   9.609 -0.6092  0.1615  0.0827
    5MOL0     C  618   0.406   7.403   9.173 -0.9082 -0.8267  0.2463
    5MOL0     C  619   0.537   7.414   9.116  0.1985 -0.5355 -0.3382
    5MOL0     C  620   0.553   7.360   8.975 -0.5368 -0.5621 -0.0925
    5MOL0     H  621   0.952   7.778   9.025  1.3961 -0.4601 -6.1131
    5MOL0     H  622   1.176   7.808   8.932  0.9246  1.9209  1.8522
    5MOL0     H  623   1.368   7.857   8.958  1.6432  1.6962 -0.2145
    5MOL0     H  624   1.419   7.737   8.831  0.2907 -2.1855  1.5835
    5MOL0     H  625   1.588   7.820   9.074 -0.4447 -2.7662  0.5593
    5MOL0     H  626   1.623   7.696   8.953 -0.0113 -0.6546  1.6235
    5MOL0     H  627   1.620   7.865   8.768  1.6174  0.6729 -1.1547
    5MOL0     H  628   1.597   7.994   8.889 -1.2114 -0.2894 -1.3343
    5MOL0     H  629   1.813   7.965   9.001 -1.6589  0.4098  0.3906
    5MOL0     H  630   1.856   7.828   8.885 -0.1599  0.5307  0.2353
    5MOL0     H  631   1.791   8.108   8.807 -0.0339  0.0465  1.8200
    5MOL0     H  632   1.876   7.972   8.708  0.2507  0.2869  0.4226
    5MOL0     H  633   2.023   8.127   8.768 -0.7545 -0.7148 -0.5321
    5MOL0     H  634   1.992   8.116   8.941 -4.5336 -0.2626  0.6864
    5MOL0     H  635   2.072   7.888   8.772 -0.7953 -0.9446  1.0868
    5MOL0     H  636   2.053   7.874   8.948 -1.9360 -0.1703 -0.2797
    5MOL0     H  637   2.283   7.897   8.883 -0.0197  0.4783 -2.3623
    5MOL0     H  638   2.259   8.051   8.796 -1.5319 -0.3170 -1.2057
    5MOL0     H  639   2.202   8.271   8.959 -1.2594  0.6391  0.2202
    5MOL0     H  640   2.250   8.396   9.232  2.9263  2.9283  1.9025
    5MOL0     H  641   2.377   8.404   9.095  0.3026  2.5324  1.0481
    5MOL0     H  642   2.424   8.308   9.386 -1.3961  4.2427  1.1131
    5MOL0     H  643   2.541   8.309   9.259 -0.4487 -0.0034 -1.9839
    5MOL0     H  644   2.495   8.569   9.240 -1.4162  0.9055 -0.4655
    5MOL0     H  645   2.382   8.551   9.374 -1.3214  1.6230 -3.4937
    5MOL0     H  646   2.686   8.499   9.360 -0.1649 -1.4100 -0.9307
    5MOL0     H  647   2.594   8.641   9.423 -1.6774 -0.1953  0.9461
    5MOL0     H  648   2.765   8.290   9.585 -0.0179 -0.2522  0.9319
    5MOL0     H  649   3.081   8.310   9.671 -0.3500 -0.4940  0.6269
    5MOL0     H  650   2.944   8.194   9.630 -1.8842 -0.8758  1.5204
    5MOL0     H  651   2.995   8.214   9.791  0.3244 -0.4073 -0.2544
    5MOL0     H  652   2.962   8.758  10.181 -0.3384 -0.0621 -1.8968
    5MOL0     H  653   3.106   8.828  10.364  1.6882  1.7375 -1.0493
    5MOL0     H  654   3.454   8.593  10.440 -0.9505  0.7978  0.5166
    5MOL0     H  655   3.537   8.684  10.316 -0.3944  1.6425 -1.2396
    5MOL0     H  656   3.585   8.873  10.484  1.2513 -1.4480 -2.9464
    5MOL0     H  657   3.524   8.759  10.606 -1.7051 -1.3369 -1.0265
    5MOL0     H  658   3.763   8.737  10.612 -2.2608  0.8377  1.0127
    5MOL0     H  659   3.774   8.717  10.438  0.4215 -0.1375  1.0585
    5MOL0     H  660   3.680   8.497  10.452  3.3001 -1.7999 -0.1024
    5MOL0     H  661   3.613   8.540  10.615  0.0334 -2.6116  0.4317
    5MOL0     H  662   3.841   8.546  10.703 -1.5966  1.3524 -0.0862
    5MOL0     H  663   3.800   8.379  10.659 -1.0993 -1.9672 -2.9347
    5MOL0     H  664   4.028   8.451  10.584 -0.1274  0.4677  1.5086
    5MOL0     H  665   3.955   8.574  10.482 -1.7001 -0.0971  0.7043
    5MOL0     H  666   3.836   8.385  10.342 -1.0120  0.5096  0.3917
    5MOL0     H  667   3.905   8.269  10.459 -1.5482  1.2278  0.2775
    5MOL0     H  668   4.077   8.435  10.276 -3.1666  1.6418 -2.2525
    5MOL0     H  669   4.017   8.272  10.223  0.2923  0.6805  0.3600
    5MOL0     H  670   3.429   8.604  10.173  0.9526  2.1287 -4.6729
    5MOL0     H  671   3.283   8.515  10.020 -0.2126 -0.9074  0.3873
    5MOL0     H  672   2.823   8.708   9.832 -4.1506  0.7958 -0.0592
    5MOL0     H  673   2.631   8.679   9.689 -2.4252 -1.9114 -0.8155
    5MOL0     H  674   1.279   7.440   9.139  0.3257  0.7051  0.6247
    5MOL0     H  675   1.053   7.409   9.207 -1.3166 -0.6360 -0.5301
    5MOL0     H  676   0.694   7.575   9.376  0.1020 -1.8624 -0.6189
    5MOL0     H  677   0.490   7.519   9.494  2.0972  2.4487 -0.4582
    5MOL0     H  678   0.311   7.457   9.567  1.4981 -0.0760 -1.5571
    5MOL0     H  679   0.191   7.559   9.477  1.0898  0.1440  0.9850
    5MOL0     H  680   0.157   7.276   9.596 -2.5414 -1.4601  0.1620
    5MOL0     H  681   0.039   7.346   9.491  0.6480 -3.8128  0.0505
    5MOL0     H  682   0.124   7.496   9.752 -2.2673 -1.2211  2.7597
    5MOL0     H  683  -0.008   7.540   9.649 -2.8784 -1.3286 -0.9550
    5MOL0     H  684  -0.083   7.420   9.848  3.2331  2.0910 -0.7621
    5MOL0     H  685   0.011   7.277   9.803  0.5497 -0.4127  1.3930
    5MOL0     H  686  -0.307   7.190   9.561  0.0723 -1.1436  0.7212
    5MOL0     H  687   0.322   7.363   9.117  0.4320 -0.7655 -1.9407
    5MOL0     H  688   0.467   7.300   8.945 -0.0554 -0.9864 -0.6622
    5MOL0     H  689   0.561   7.452   8.917  1.2517  0.9656  2.3773
    5MOL0     H  690   0.642   7.296   8.972 -0.7838 -0.8575 -2.0308
    6MOL0     O  691   8.518   9.809   2.740 -0.0135 -0.2929 -0.1500
    6MOL0     C  692   8.426   9.741   2.696 -1.0004  0.5327 -0.1864
    6MOL0     O  693   8.441   9.606   2.662 -0.5205  0.7732  0.1167
    6MOL0     C  694   8.564   9.570   2.626  0.1261  0.0685 -0.1074
    6MOL0     C  695   8.575   9.524   2.494 -0.5740  0.4210  0.2357
    6MOL0     C  696   8.685   9.456   2.449  0.2097 -0.3565 -0.9996
    6MOL0     C  697   8.798   9.456   2.526 -0.5083  0.6189  0.2979
    6MOL0     O  698   8.912   9.391   2.475  0.2097 -0.3477  0.3345
    6MOL0     C  699   9.012   9.339   2.563 -0.5898 -0.1185  0.1751
    6MOL0     C  700   9.091   9.228   2.491  0.3128  0.1491 -0.3724
    6MOL0     C  701   9.189   9.298   2.388  0.2341  0.4353  0.0028
    6MOL0     C  702   9.315   9.356   2.453  0.8357  0.8972 -1.4557
    6MOL0     C  703   9.407   9.416   2.347 -0.3211 -0.4290  1.4656
    6MOL0     C  704   9.548   9.448   2.390 -0.5255 -0.6022 -0.8629
    6MOL0     C  705   9.553   9.552   2.503 -0.3654 -0.0928 -0.7462
    6MOL0     C  706   9.695   9.604   2.534 -0.2760  0.2304  0.3593
    6MOL0     N  707   9.753   9.664   2.410  0.0181  0.0780  0.6052
    6MOL0     C  708   9.733   9.782   2.342  0.2317  0.4151 -0.1167
    6MOL0     C  709   9.828   9.784   2.246 -0.1020 -0.1570  0.7810
    6MOL0     C  710   9.847   9.899   2.154  0.1530  0.1028 -0.2925
    6MOL0     C  711   9.967   9.987   2.208  0.0531 -0.3188  0.2007
    6MOL0     C  712  10.107   9.924   2.246 -0.6247  0.4425 -0.1329
    6MOL0     C  713  10.177   9.838   2.136 -0.1728 -0.6310 -0.6994
    6MOL0     O  714  10.292   9.788   2.203  0.7850 -0.3036 -0.0446
    6MOL0     C  715  10.388   9.711   2.138  0.0367 -0.5314  0.7447
    6MOL0     C  716  10.516   9.699   2.192 -0.1202  0.3202  0.3842
    6MOL0     C  717  10.625   9.632   2.118  0.6204 -0.9245 -0.3739
    6MOL0     C  718  10.757   9.616   2.179  0.1300  0.0154 -0.4072
    6MOL0     C  719  10.590   9.569   1.995  0.6770  0.5739 -0.8736
    6MOL0     C  720  10.687   9.503   1.900  0.9289  0.1556  0.9046
    6MOL0     O  721  10.639   9.464   1.779  0.1432 -0.3980 -0.2615
    6MOL0     C  722  10.698   9.365   1.704 -0.0257  0.2664 -0.2377
    6MOL0     C  723  10.835   9.352   1.681  0.4445 -0.2262  0.7523
    6MOL0     C  724  10.881   9.248   1.598  0.2593  0.6488 -0.4498
    6MOL0     C  725  10.795   9.147   1.561  0.4521 -0.5290  0.8646
    6MOL0     O  726  10.840   9.038   1.493  0.4679  1.1029  0.0513
    6MOL0     C  727  10.987   9.014   1.473  0.4858 -0.8062  1.3302
    6MOL0     C  728  11.038   9.079   1.345  0.4580 -0.1663 -0.4290
    6MOL0     C  729  11.182   9.096   1.341 -0.2156 -0.7122  0.0958
    6MOL0     C  730  11.228   9.100   1.189 -0.0827 -0.0536 -0.1267
    6MOL0     C  731  11.374   9.116   1.168 -0.4135  0.2361 -0.2887
    6MOL0     C  732  11.426   9.263   1.165  0.3002  0.0117  0.2747
    6MOL0     C  733  11.578   9.267   1.147 -0.4630  0.4935 -0.7153
    6MOL0     C  734  11.655   9.174   1.243 -1.0010  0.3826  0.3238
    6MOL0    Cl  735  11.663   9.015   1.163 -0.0369 -0.4608 -0.0391
    6MOL0     C  736  10.658   9.163   1.582  0.3114  0.2689  0.1930
    6MOL0     C  737  10.613   9.274   1.648 -0.0329  0.2032 -0.8794
    6MOL0     O  738  10.800   9.516   1.933  0.5859  0.3264  1.2270
    6MOL0     C  739  10.459   9.585   1.941 -0.4377  0.2671 -0.6138
    6MOL0     C  740  10.369   9.665   2.006 -0.5812 -1.0191 -0.1096
    6MOL0     N  741   9.894   9.663   2.247 -0.4431  0.7654 -0.2839
    6MOL0     N  742   9.855   9.595   2.350 -0.4456  0.7054  0.3640
    6MOL0     C  743   8.793   9.505   2.663 -0.1299 -0.0553 -0.7734
    6MOL0     C  744   8.674   9.561   2.708 -0.3753 -0.1794 -0.6255
    6MOL0     C  745   8.286   9.791   2.685 -0.5095  0.3868 -0.1843
    6MOL0     C  746   8.185   9.694   2.648  1.2783 -0.0593 -0.4386
    6MOL0     C  747   8.045   9.727   2.628  0.2967 -0.3964  0.1226
    6MOL0     C  748   8.004   9.861   2.652 -0.0437  0.1612 -0.3279
    6MOL0     O  749   7.874   9.894   2.658 -0.0196 -0.2221  0.3992
    6MOL0     C  750   7.775   9.841   2.573 -0.2820  0.8537 -0.0409
    6MOL0     C  751   7.646   9.895   2.629  0.0885 -0.7695 -0.5004
    6MOL0     C  752   7.530   9.818   2.568  0.8163  0.1324  0.4683
    6MOL0     C  753   7.396   9.871   2.615 -0.6932  0.4932 -0.0883
    6MOL0     C  754   7.291   9.827   2.521 -0.0337  0.3019  0.4111
    6MOL0     C  755   7.211   9.784   2.444  1.0756 -0.3450 -0.3099
    6MOL0     C  756   8.103   9.955   2.687  0.3053  0.8743 -0.2370
    6MOL0     C  757   8.242   9.921   2.706  0.3944 -0.7333  0.4857
    6MOL0     C  758   8.335  10.034   2.729  0.1396  1.0522 -0.5699
    6MOL0     H  759   8.488   9.516   2.431 -1.5971 -3.5085  1.8616
    6MOL0     H  760   8.690   9.412   2.350  2.2035 -0.8110 -0.7484
    6MOL0     H  761   8.960   9.298   2.650 -1.3163  0.6761  0.1335
    6MOL0     H  762   9.073   9.418   2.608 -0.5753  0.5774 -1.0426
    6MOL0     H  763   9.149   9.169   2.561 -1.2395  0.7726  1.5164
    6MOL0     H  764   9.025   9.154   2.445 -0.1278  0.0203  0.4540
    6MOL0     H  765   9.230   9.234   2.310  0.7934  0.6275  0.1326
    6MOL0     H  766   9.133   9.379   2.339  2.3346  2.8083  1.2882
    6MOL0     H  767   9.288   9.431   2.528 -1.3135 -2.3632  1.3313
    6MOL0     H  768   9.365   9.271   2.502 -2.3028 -1.2465 -1.6965
    6MOL0     H  769   9.359   9.505   2.303  1.1004 -0.2320  0.2468
    6MOL0     H  770   9.423   9.349   2.262  3.4937  1.9296  0.0613
    6MOL0     H  771   9.603   9.368   2.440 -2.5845 -0.5826  1.6399
    6MOL0     H  772   9.603   9.493   2.307  1.3856  0.8319  1.0565
    6MOL0     H  773   9.514   9.508   2.595 -2.8155  0.5824 -1.3891
    6MOL0     H  774   9.493   9.640   2.480 -0.0424  0.0350 -1.1106
    6MOL0     H  775   9.685   9.685   2.607 -0.0162 -0.5048  1.2263
    6MOL0     H  776   9.757   9.524   2.574 -3.2325 -3.8113 -2.3669
    6MOL0     H  777   9.662   9.864   2.350  0.2144  0.3705  0.1695
    6MOL0     H  778   9.753   9.955   2.147  0.0285  1.0914  5.1248
    6MOL0     H  779   9.884   9.865   2.057  1.4942 -0.8378  0.5224
    6MOL0     H  780  10.002  10.056   2.130  2.4672  0.8595  2.1789
    6MOL0     H  781   9.934  10.043   2.295  0.0664 -2.4707  1.6736
    6MOL0     H  782  10.170  10.010   2.272  0.5245 -0.2104 -0.6632
    6MOL0     H  783  10.101   9.868   2.340  2.6510 -0.4528 -0.3357
    6MOL0     H  784  10.113   9.760   2.095 -1.3350 -0.0200 -0.0947
    6MOL0     H  785  10.203   9.912   2.060  0.1681 -1.2478 -1.1815
    6MOL0     H  786  10.527   9.730   2.295  3.7780 -1.9092  0.8571
    6MOL0     H  787  10.834   9.679   2.131 -0.8504  1.0993 -0.6049
    6MOL0     H  788  10.795   9.515   2.167 -0.5719 -0.3376  0.3080
    6MOL0     H  789  10.737   9.645   2.282 -4.6049  2.6983 -1.7433
    6MOL0     H  790  10.899   9.428   1.724  0.4409  1.2861 -1.6788
    6MOL0     H  791  10.981   9.259   1.558  0.8690  1.6962  1.2486
    6MOL0     H  792  11.051   9.033   1.560 -0.1748  0.3861  1.5640
    6MOL0     H  793  10.997   8.909   1.443  1.2136 -0.2843 -0.4062
    6MOL0     H  794  10.996   9.031   1.256  1.4814 -0.5393 -0.7249
    6MOL0     H  795  10.991   9.177   1.349  0.7968 -0.0405  1.6035
    6MOL0     H  796  11.236   9.012   1.386 -1.4282 -0.1926  2.7205
    6MOL0     H  797  11.220   9.182   1.397 -0.6641  0.7742 -1.7532
    6MOL0     H  798  11.172   9.178   1.137  2.3467  0.8832 -1.4895
    6MOL0     H  799  11.206   9.005   1.140 -1.9415 -1.3439  2.9083
    6MOL0     H  800  11.430   9.069   1.249  0.4962 -1.7470 -1.9766
    6MOL0     H  801  11.401   9.068   1.074  0.5407  1.4005 -0.6369
    6MOL0     H  802  11.396   9.316   1.257  1.0472 -2.7965  2.2681
    6MOL0     H  803  11.393   9.325   1.081  0.1998  3.7907  2.8418
    6MOL0     H  804  11.617   9.366   1.173 -1.0108  0.2910  1.0192
    6MOL0     H  805  11.606   9.233   1.047  2.8661  2.0637 -0.4405
    6MOL0     H  806  11.609   9.167   1.342 -1.1089  1.7402  0.3894
    6MOL0     H  807  11.753   9.221   1.252 -1.5250  1.5976 -0.0570
    6MOL0     H  808  10.591   9.086   1.547 -0.0134 -0.1734  1.7188
    6MOL0     H  809  10.510   9.307   1.659  0.3624  0.6499  2.3221
    6MOL0     H  810  10.430   9.557   1.841 -0.1350  2.0322 -1.2212
    6MOL0     H  811  10.270   9.680   1.964 -1.7310 -3.7016  1.3772
    6MOL0     H  812   8.871   9.495   2.737 -0.5119  2.7549  0.1416
    6MOL0     H  813   8.671   9.588   2.813 -2.1394  2.0082 -1.1645
    6MOL0     H  814   8.218   9.593   2.627 -0.7463 -0.6468 -0.9797
    6MOL0     H  815   7.972   9.653   2.596  0.5266 -1.2381  1.4623
    6MOL0     H  816   7.804   9.874   2.473  0.7410  0.6208  0.1625
    6MOL0     H  817   7.775   9.732   2.580  0.7630  0.8735  0.5353
    6MOL0     H  818   7.630  10.003   2.613 -0.2530 -0.9674 -1.5489
    6MOL0     H  819   7.647   9.880   2.738  0.0047 -0.4671 -0.4540
    6MOL0     H  820   7.538   9.835   2.460  0.5041  0.1746  0.4519
    6MOL0     H  821   7.529   9.710   2.588 -1.2153 -0.2311 -1.1728
    6MOL0     H  822   7.413   9.978   2.630 -0.5844  0.1481  2.8384
    6MOL0     H  823   7.376   9.839   2.717  0.3474  2.8096  0.9114
    6MOL0     H  824   7.135   9.746   2.379  1.3183  0.0232 -0.8117
    6MOL0     H  825   8.061  10.045   2.729 -0.3189 -1.0736  3.7988
    6MOL0     H  826   8.282  10.123   2.765  0.7346  0.5681  1.6495
    6MOL0     H  827   8.413  10.010   2.802 -1.3271 -1.5041  0.2941
    6MOL0     H  828   8.375  10.063   2.632  0.5752  1.9430 -0.1326
    7MOL0     O  829   4.453   2.302   9.052  0.0827 -0.0305 -0.7022
    7MOL0     C  830   4.402   2.201   9.012 -0.3185  0.3359 -0.8141
    7MOL0     O  831   4.457   2.080   9.041 -0.1199  0.2688  0.2421
    7MOL0     C  832   4.558   2.060   9.139  0.2100  0.3521  0.3744
    7MOL0     C  833   4.584   2.137   9.256  0.6694 -0.2327  0.2044
    7MOL0     C  834   4.695   2.113   9.341  0.0723  0.3687 -0.0689
    7MOL0     C  835   4.780   2.006   9.307 -0.1488  0.5165  0.0208
    7MOL0     O  836   4.896   1.971   9.371 -0.2145  0.6111  0.3009
    7MOL0     C  837   4.935   2.047   9.487  0.4274  0.7421 -0.0718
    7MOL0     C  838   5.061   1.982   9.545 -0.5501  0.2530 -0.0290
    7MOL0     C  839   5.167   1.948   9.438  0.1997  0.1162 -0.2042
    7MOL0     C  840   5.279   1.885   9.521 -0.2359  0.4748  0.9309
    7MOL0     C  841   5.394   1.867   9.422 -0.0906  0.1378 -0.5903
    7MOL0     C  842   5.502   1.785   9.489 -0.6216  1.2215  0.1418
    7MOL0     C  843   5.615   1.754   9.389 -0.2603 -0.3273  0.2907
    7MOL0     C  844   5.728   1.863   9.398  0.4972 -0.3368  0.3369
    7MOL0     N  845   5.854   1.812   9.336 -0.0120  0.1658 -0.5529
    7MOL0     C  846   5.983   1.798   9.384  0.1331 -0.6183 -0.1853
    7MOL0     C  847   6.063   1.749   9.287  0.2837  0.3015 -0.1799
    7MOL0     C  848   6.212   1.724   9.285 -0.2670 -0.6716 -0.2465
    7MOL0     C  849   6.259   1.691   9.431  0.1291  0.1306  0.3673
    7MOL0     C  850   6.408   1.702   9.444 -0.2014  0.7526  0.0957
    7MOL0     C  851   6.471   1.667   9.585 -0.3222 -0.4403 -0.3290
    7MOL0     O  852   6.605   1.734   9.600  0.8280  0.0799 -0.7729
    7MOL0     C  853   6.717   1.674   9.546 -0.1284  0.6753  0.9073
    7MOL0     C  854   6.713   1.562   9.453 -0.0229  0.1172  0.4098
    7MOL0     C  855   6.831   1.522   9.392 -0.4229 -0.1681 -0.0642
    7MOL0     C  856   6.828   1.417   9.284 -0.4869  0.2544  0.4294
    7MOL0     C  857   6.953   1.587   9.418  0.1458  0.3191 -0.2760
    7MOL0     C  858   7.085   1.543   9.365  0.7892  0.3992 -0.3960
    7MOL0     O  859   7.116   1.406   9.379  0.7840 -0.3842 -0.2007
    7MOL0     C  860   7.234   1.364   9.330  0.5415  0.2904 -0.0015
    7MOL0     C  861   7.232   1.264   9.229 -0.2667  0.5549 -0.4296
    7MOL0     C  862   7.355   1.218   9.184  0.2246  0.8873  0.6669
    7MOL0     C  863   7.478   1.255   9.249 -0.1440  0.1628 -0.0911
    7MOL0     O  864   7.598   1.181   9.232 -0.0815  0.1483 -0.1365
    7MOL0     C  865   7.633   1.180   9.090  0.1815 -1.1107 -0.0960
    7MOL0     C  866   7.783   1.169   9.069 -0.2949  0.1089 -0.0267
    7MOL0     C  867   7.815   1.146   8.919 -0.2526 -0.4576  0.2123
    7MOL0     C  868   7.961   1.158   8.888 -0.2010  0.1686 -0.5456
    7MOL0     C  869   8.026   1.033   8.938 -0.2122  0.5422 -0.4160
    7MOL0     C  870   8.166   1.022   8.872  0.0989 -0.5236 -0.1440
    7MOL0     C  871   8.250   0.906   8.919  0.4190  0.1689 -0.4231
    7MOL0     C  872   8.185   0.766   8.902  0.0840 -0.3379  0.1418
    7MOL0    Cl  873   8.157   0.734   8.730 -0.0879  0.2552  0.1130
    7MOL0     C  874   7.478   1.344   9.347  0.5168  0.2702 -1.0900
    7MOL0     C  875   7.355   1.404   9.388  0.3238 -0.0869  0.3895
    7MOL0     O  876   7.149   1.629   9.299  0.1157  1.0481 -0.8487
    7MOL0     C  877   6.953   1.694   9.509 -0.3497 -0.0331 -0.9475
    7MOL0     C  878   6.839   1.735   9.572 -0.3020 -0.0481 -0.2932
    7MOL0     N  879   5.976   1.731   9.182 -0.4787 -0.8079  0.4495
    7MOL0     N  880   5.859   1.779   9.204 -0.1943  0.1538 -0.4545
    7MOL0     C  881   4.746   1.922   9.198 -1.3613 -0.6013 -0.9056
    7MOL0     C  882   4.636   1.946   9.117  0.5981 -0.2767 -0.0199
    7MOL0     C  883   4.280   2.202   8.944 -0.0248  0.3368  0.6460
    7MOL0     C  884   4.210   2.321   8.926 -0.6368 -0.6934  0.3947
    7MOL0     C  885   4.092   2.338   8.853 -0.1988  1.1977 -0.8003
    7MOL0     C  886   4.031   2.218   8.800  0.0602  0.2159 -1.3786
    7MOL0     O  887   3.928   2.233   8.714  0.0397 -0.1622 -0.3878
    7MOL0     C  888   3.873   2.353   8.659  0.0680 -0.7006 -0.5345
    7MOL0     C  889   3.740   2.383   8.723 -0.2122  0.4901  0.3389
    7MOL0     C  890   3.752   2.438   8.864  0.2773 -0.0026  0.2252
    7MOL0     C  891   3.620   2.495   8.921  0.2620  0.1017  0.2261
    7MOL0     C  892   3.505   2.405   8.909 -0.4250  0.9170 -0.3180
    7MOL0     C  893   3.408   2.332   8.898  0.0149 -0.5197 -0.2443
    7MOL0     C  894   4.094   2.097   8.815 -0.0166  0.6112 -0.1271
    7MOL0     C  895   4.217   2.086   8.884 -0.4902  0.6338  0.2393
    7MOL0     C  896   4.288   1.958   8.857 -0.7256  0.8649  0.3717
    7MOL0     H  897   4.513   2.217   9.274  2.4916  1.4235  0.2760
    7MOL0     H  898   4.722   2.167   9.431  1.4733 -0.0138 -0.2296
    7MOL0     H  899   4.852   2.051   9.558 -0.1828  2.3118 -0.8098
    7MOL0     H  900   4.950   2.152   9.459  0.1742 -0.2086 -4.5268
    7MOL0     H  901   5.100   2.038   9.631  0.5561 -2.1722  1.1342
    7MOL0     H  902   5.037   1.886   9.591 -0.2390  0.7315  1.1737
    7MOL0     H  903   5.127   1.882   9.361  1.1723 -1.8578  0.9083
    7MOL0     H  904   5.196   2.047   9.402 -1.9420 -0.4517 -3.9395
    7MOL0     H  905   5.315   1.957   9.595 -1.7841  1.5052  0.7286
    7MOL0     H  906   5.249   1.786   9.554 -1.7357  1.7831  3.8043
    7MOL0     H  907   5.435   1.966   9.402  0.6661  0.1355  0.8217
    7MOL0     H  908   5.361   1.822   9.328 -0.6849  0.2386 -0.4334
    7MOL0     H  909   5.532   1.821   9.588 -1.8477  0.7061  0.7264
    7MOL0     H  910   5.461   1.686   9.511 -0.7070  1.4818  1.2173
    7MOL0     H  911   5.569   1.757   9.290  0.8319  2.0583 -0.2132
    7MOL0     H  912   5.653   1.651   9.399 -1.3527 -0.7541  0.2207
    7MOL0     H  913   5.702   1.953   9.343  0.5416 -0.9312 -0.6724
    7MOL0     H  914   5.741   1.887   9.504  1.4549 -1.5536  0.5260
    7MOL0     H  915   6.027   1.824   9.479 -1.6674  0.4031  0.4313
    7MOL0     H  916   6.258   1.820   9.257  0.1908 -0.9985 -0.6235
    7MOL0     H  917   6.251   1.650   9.216  0.6208  0.3627 -0.8908
    7MOL0     H  918   6.218   1.746   9.516 -0.9587 -0.7536  0.4485
    7MOL0     H  919   6.242   1.584   9.451 -0.2426  0.3733  1.4242
    7MOL0     H  920   6.449   1.626   9.377 -1.9087 -0.0791 -0.0609
    7MOL0     H  921   6.426   1.807   9.419 -2.2022  0.6325 -2.3377
    7MOL0     H  922   6.417   1.699   9.675  1.1270  0.2538  0.3235
    7MOL0     H  923   6.481   1.559   9.596 -3.5473 -0.6073  3.1842
    7MOL0     H  924   6.623   1.509   9.425  0.0422 -0.9034  2.0147
    7MOL0     H  925   6.863   1.324   9.332  0.3021  0.4615  0.2664
    7MOL0     H  926   6.898   1.425   9.200 -0.1228  2.2151  0.8790
    7MOL0     H  927   6.731   1.401   9.236 -0.2536 -2.1453  0.6089
    7MOL0     H  928   7.136   1.231   9.190 -1.0408  2.1877 -0.0050
    7MOL0     H  929   7.344   1.142   9.107 -1.9223  0.7553  1.0433
    7MOL0     H  930   7.585   1.095   9.041  0.1069  0.5076 -3.1246
    7MOL0     H  931   7.590   1.269   9.042 -0.1038 -1.0145  0.3378
    7MOL0     H  932   7.839   1.260   9.092 -0.7917  0.3558  0.2254
    7MOL0     H  933   7.821   1.076   9.113  0.3882  0.0550 -0.7155
    7MOL0     H  934   7.749   1.209   8.859  1.6019 -0.8777 -2.4202
    7MOL0     H  935   7.778   1.045   8.898 -1.0793 -0.0770 -0.2145
    7MOL0     H  936   8.015   1.241   8.935  0.9047 -1.8338  2.0022
    7MOL0     H  937   7.973   1.166   8.780 -0.1035  2.4801 -0.4073
    7MOL0     H  938   8.031   1.033   9.048  1.0974 -0.0583 -0.4517
    7MOL0     H  939   7.968   0.942   8.917 -0.0858  0.1845  0.6904
    7MOL0     H  940   8.217   1.115   8.900 -0.5008  0.2314 -1.4413
    7MOL0     H  941   8.155   1.021   8.763 -0.8399 -0.9208 -0.0598
    7MOL0     H  942   8.285   0.918   9.022 -1.4004 -1.6701  0.5064
    7MOL0     H  943   8.343   0.911   8.862  1.9885 -0.3544  1.9414
    7MOL0     H  944   8.090   0.757   8.957  0.0697 -5.6017 -0.1910
    7MOL0     H  945   8.249   0.686   8.941  2.1758  0.6592 -1.0930
    7MOL0     H  946   7.577   1.359   9.388  0.9186 -2.1901 -0.9798
    7MOL0     H  947   7.363   1.475   9.470  1.5703 -0.4150  0.5714
    7MOL0     H  948   7.051   1.728   9.540 -0.2930  1.2373 -2.4008
    7MOL0     H  949   6.841   1.821   9.639  0.7285 -0.3014  0.0144
    7MOL0     H  950   4.816   1.843   9.174 -1.5184 -0.1583 -3.0448
    7MOL0     H  951   4.621   1.884   9.030 -1.7204  1.5081 -0.9980
    7MOL0     H  952   4.254   2.410   8.971  2.0413 -2.2212  1.0163
    7MOL0     H  953   4.048   2.436   8.844 -2.5459  0.5416  1.9920
    7MOL0     H  954   3.943   2.437   8.669  0.7829 -1.4211  0.7720
    7MOL0     H  955   3.862   2.346   8.550 -0.6815  0.2437 -0.5322
    7MOL0     H  956   3.681   2.290   8.728  2.7071 -1.5440 -0.3582
    7MOL0     H  957   3.697   2.457   8.654 -0.4330  1.1415  1.1656
    7MOL0     H  958   3.777   2.362   8.938 -0.2166 -2.0866 -1.6206
    7MOL0     H  959   3.824   2.520   8.859 -2.8575  2.8728 -1.7814
    7MOL0     H  960   3.587   2.578   8.859 -2.0228 -2.4410 -2.2106
    7MOL0     H  961   3.639   2.523   9.025  0.1668 -1.5439  0.7067
    7MOL0     H  962   3.336   2.253   8.889 -1.2571  0.4374  0.9347
    7MOL0     H  963   4.065   2.011   8.757  1.0391  0.8006 -0.9705
    7MOL0     H  964   4.244   1.913   8.767 -1.6701 -0.7357  1.5753
    7MOL0     H  965   4.392   1.973   8.828  0.0837  0.1206  2.6351
    7MOL0     H  966   4.282   1.885   8.938  0.7568  0.0150 -0.2326
    8MOL0     O  967   1.534   8.292   0.159 -0.2667 -0.0065 -0.1281
    8MOL0     C  968   1.570   8.250   0.051  0.5969 -0.3827 -0.4953
    8MOL0     O  969   1.507   8.284  -0.065 -0.0695  0.1105 -0.2126
    8MOL0     C  970   1.379   8.345  -0.061 -0.8165 -0.6671  0.0934
    8MOL0     C  971   1.359   8.451  -0.154 -0.2227  0.6788 -0.2931
    8MOL0     C  972   1.231   8.511  -0.170  0.2947 -0.2556  0.0909
    8MOL0     C  973   1.126   8.465  -0.092  0.3540  0.3369 -0.7445
    8MOL0     O  974   1.008   8.527  -0.111  0.8110 -0.1450  0.2344
    8MOL0     C  975   0.888   8.489  -0.038  0.2030  0.4526  0.4328
    8MOL0     C  976   0.786   8.598  -0.076  0.3129  0.2716  0.3051
    8MOL0     C  977   0.842   8.731  -0.014 -0.3031  0.3121 -0.6751
    8MOL0     C  978   0.718   8.823   0.014 -0.1768  0.1344  1.0135
    8MOL0     C  979   0.756   8.965   0.060  0.2427 -0.0801 -0.1338
    8MOL0     C  980   0.630   9.057   0.066 -0.3636 -0.3506  0.0740
    8MOL0     C  981   0.670   9.207   0.081  0.6913 -1.2009  0.5384
    8MOL0     C  982   0.554   9.309   0.121  0.2617 -0.3549  0.6855
    8MOL0     N  983   0.571   9.454   0.087 -0.2319  0.4470 -0.2537
    8MOL0     C  984   0.663   9.506   0.004 -0.2034  0.5461  0.1807
    8MOL0     C  985   0.631   9.636  -0.006  0.3853 -0.3073 -0.1140
    8MOL0     C  986   0.715   9.726  -0.098 -0.3975 -0.0790  0.3790
    8MOL0     C  987   0.695   9.881  -0.090 -0.0377  0.2653  0.1869
    8MOL0     C  988   0.746   9.953   0.045 -0.2583 -0.9741  0.1734
    8MOL0     C  989   0.761  10.101   0.012 -0.7437 -0.4619 -0.2336
    8MOL0     O  990   0.869  10.114  -0.079  0.1394  0.6634  0.6782
    8MOL0     C  991   0.999  10.117  -0.044  0.4334 -0.6247 -0.7092
    8MOL0     C  992   1.044  10.122   0.089 -0.8288 -0.4157 -0.6426
    8MOL0     C  993   1.181  10.106   0.111 -0.4723 -0.2757  0.4185
    8MOL0     C  994   1.218  10.102   0.258  0.1762  0.4542 -0.0259
    8MOL0     C  995   1.272  10.094  -0.005 -0.5156 -0.5413 -0.1903
    8MOL0     C  996   1.425  10.064  -0.001 -0.3822 -0.2968  0.9236
    8MOL0     O  997   1.489  10.040  -0.122 -0.0261  0.1765  0.5721
    8MOL0     C  998   1.624  10.065  -0.130  0.5304  0.2697 -0.2106
    8MOL0     C  999   1.716   9.964  -0.148  0.3899  0.0295 -0.1602
    8MOL0     C 1000   1.855   9.988  -0.131 -0.0289 -0.1430 -0.1299
    8MOL0     C 1001   1.904  10.115  -0.094 -0.7533 -0.1259 -0.1181
    8MOL0     O 1002   2.044  10.125  -0.067  0.8335 -0.2948  0.0691
    8MOL0     C 1003   2.110  10.256  -0.090 -0.1690  0.1643  0.3326
    8MOL0     C 1004   2.265  10.234  -0.057  0.5140  0.0669  0.0743
    8MOL0     C 1005   2.292  10.207   0.089  0.3204  0.5974 -0.4213
    8MOL0     C 1006   2.450  10.227   0.126 -0.2388  0.3482 -1.3186
    8MOL0     C 1007   2.481  10.153   0.263  0.6014 -0.3692  0.4216
    8MOL0     C 1008   2.489  10.003   0.256  0.3623 -0.6467  0.2503
    8MOL0     C 1009   2.446   9.943   0.398  0.2311  0.7067  0.0730
    8MOL0     C 1010   2.430   9.785   0.389 -0.0145  0.2276 -0.0276
    8MOL0    Cl 1011   2.589   9.727   0.400  0.3423 -0.1115 -0.1275
    8MOL0     C 1012   1.811  10.218  -0.079 -0.3931 -0.7887  1.1103
    8MOL0     C 1013   1.676  10.189  -0.097  0.0988  0.5261 -0.4145
    8MOL0     O 1014   1.479  10.059   0.106  0.2268  0.5619  0.7373
    8MOL0     C 1015   1.213  10.112  -0.140 -0.1560 -0.7454 -0.0709
    8MOL0     C 1016   1.076  10.124  -0.156  0.1812  0.0958 -1.0813
    8MOL0     N 1017   0.513   9.660   0.065 -0.5738  0.2301  0.1588
    8MOL0     N 1018   0.479   9.550   0.120 -0.3771  0.3639 -0.1431
    8MOL0     C 1019   1.147   8.372   0.008 -0.0375  0.5058 -0.1020
    8MOL0     C 1020   1.272   8.302   0.018  0.2223 -0.4787  0.3890
    8MOL0     C 1021   1.703   8.172   0.053  0.4867 -0.8451 -0.5195
    8MOL0     C 1022   1.785   8.181  -0.065  0.4336 -0.1661 -0.0125
    8MOL0     C 1023   1.890   8.087  -0.088 -0.7055 -1.0595  0.6813
    8MOL0     C 1024   1.931   8.004   0.010 -0.4171  0.0057  0.2338
    8MOL0     O 1025   2.035   7.912   0.006 -0.1419  0.2020 -0.1928
    8MOL0     C 1026   2.103   7.893  -0.117 -0.1265  0.2964 -0.7072
    8MOL0     C 1027   2.225   7.803  -0.113 -1.0023 -0.2412  0.6893
    8MOL0     C 1028   2.248   7.730  -0.241 -0.3111 -0.0050 -0.2794
    8MOL0     C 1029   2.339   7.606  -0.225  0.2980 -0.5256  0.3803
    8MOL0     C 1030   2.353   7.540  -0.355  0.2847  0.0426  0.2095
    8MOL0     C 1031   2.341   7.484  -0.461 -0.3177  0.0084 -0.1002
    8MOL0     C 1032   1.866   8.016   0.136 -0.4703 -1.3386 -0.6900
    8MOL0     C 1033   1.752   8.096   0.161 -1.0743  1.2237 -0.0430
    8MOL0     C 1034   1.698   8.076   0.301  0.5845 -0.8543  0.3631
    8MOL0     H 1035   1.433   8.494  -0.221 -0.0172 -0.9629 -1.1775
    8MOL0     H 1036   1.221   8.589  -0.245  1.0783  1.4171  1.6388
    8MOL0     H 1037   0.909   8.487   0.069 -0.3341 -0.5212  0.5425
    8MOL0     H 1038   0.846   8.392  -0.067 -0.8152  1.2556 -0.9120
    8MOL0     H 1039   0.755   8.611  -0.180 -1.8837 -2.9670  0.4269
    8MOL0     H 1040   0.700   8.560  -0.021  1.3891 -0.6030  1.4501
    8MOL0     H 1041   0.903   8.715   0.075 -1.8665 -3.2580 -0.0659
    8MOL0     H 1042   0.904   8.782  -0.088 -1.0013 -1.8435 -2.9097
    8MOL0     H 1043   0.661   8.826  -0.079  4.0537 -0.7561 -1.9120
    8MOL0     H 1044   0.651   8.777   0.088 -0.9668 -1.9791 -0.8793
    8MOL0     H 1045   0.837   9.011   0.002  0.8187 -2.1211 -1.0511
    8MOL0     H 1046   0.799   8.947   0.159 -1.2045 -1.1096  0.3460
    8MOL0     H 1047   0.566   9.041  -0.021  0.6670 -0.2166 -0.7217
    8MOL0     H 1048   0.583   9.030   0.161 -0.4760  1.5507  0.5896
    8MOL0     H 1049   0.700   9.238  -0.020  2.1884  0.7267  1.5110
    8MOL0     H 1050   0.754   9.217   0.150  1.1506 -0.7103 -0.0748
    8MOL0     H 1051   0.461   9.267   0.082  1.2657 -1.7910 -0.2884
    8MOL0     H 1052   0.544   9.303   0.230  2.5346 -1.7631  0.8977
    8MOL0     H 1053   0.743   9.456  -0.048 -2.3315 -1.9285 -0.9736
    8MOL0     H 1054   0.708   9.704  -0.204 -1.1780  0.7872  0.2412
    8MOL0     H 1055   0.821   9.704  -0.079 -0.5499  0.2873  1.7601
    8MOL0     H 1056   0.749   9.934  -0.170 -0.6803  0.5154 -0.0902
    8MOL0     H 1057   0.590   9.906  -0.110  1.5536  6.8389 -2.4737
    8MOL0     H 1058   0.669   9.928   0.118  0.5598 -0.6326  1.1685
    8MOL0     H 1059   0.838   9.910   0.086  1.1921  0.5827 -1.2961
    8MOL0     H 1060   0.680  10.149  -0.044  0.4221  0.1066 -1.4961
    8MOL0     H 1061   0.778  10.162   0.101  1.9217 -0.1293 -0.8870
    8MOL0     H 1062   0.969  10.156   0.160  0.3486 -1.1036  0.9685
    8MOL0     H 1063   1.142  10.162   0.309  0.4963 -0.6123  1.8003
    8MOL0     H 1064   1.313  10.151   0.283  1.9713 -1.3200 -2.7426
    8MOL0     H 1065   1.214   9.998   0.292 -3.7686  0.7964  1.0786
    8MOL0     H 1066   1.684   9.863  -0.176  3.0562 -1.5810  2.0720
    8MOL0     H 1067   1.918   9.902  -0.149 -2.1558 -1.9023  0.2842
    8MOL0     H 1068   2.094  10.294  -0.192 -1.2798  1.3082  0.9021
    8MOL0     H 1069   2.064  10.333  -0.028 -0.2086 -0.1877  0.7397
    8MOL0     H 1070   2.303  10.149  -0.115 -0.0755 -0.4178  0.3729
    8MOL0     H 1071   2.319  10.319  -0.098 -1.4056  0.1554 -2.5183
    8MOL0     H 1072   2.260  10.104   0.106 -0.0943 -0.1338 -4.5899
    8MOL0     H 1073   2.228  10.284   0.131 -1.5428  0.7138 -3.2052
    8MOL0     H 1074   2.471  10.333   0.141  0.5556 -0.1456  1.5234
    8MOL0     H 1075   2.521  10.181   0.056 -2.3522 -2.7296 -1.6304
    8MOL0     H 1076   2.576  10.191   0.302  0.3470  1.3771 -0.5230
    8MOL0     H 1077   2.401  10.181   0.332  0.8140 -0.6142  0.7663
    8MOL0     H 1078   2.590   9.976   0.225  0.0913 -1.5608  0.1377
    8MOL0     H 1079   2.430   9.963   0.173  1.6167 -1.0232 -0.4861
    8MOL0     H 1080   2.346   9.971   0.432  0.6665 -0.7065  2.7620
    8MOL0     H 1081   2.518   9.969   0.476 -0.5205  1.2087  0.6122
    8MOL0     H 1082   2.384   9.754   0.295  0.1682 -2.0286  0.5588
    8MOL0     H 1083   2.376   9.748   0.477  1.1771 -1.3352  0.0868
    8MOL0     H 1084   1.847  10.316  -0.050  0.3799 -0.2836 -1.3091
    8MOL0     H 1085   1.604  10.269  -0.089 -1.6148 -1.1457  3.1590
    8MOL0     H 1086   1.279  10.097  -0.225 -0.2801 -1.0759 -0.1102
    8MOL0     H 1087   1.035  10.123  -0.257  1.1419 -0.8232 -1.4807
    8MOL0     H 1088   1.069   8.359   0.083  0.0409  3.3728  0.5946
    8MOL0     H 1089   1.278   8.233   0.101 -1.4679  1.7349  2.4976
    8MOL0     H 1090   1.753   8.241  -0.149  0.5629  1.0570  0.7782
    8MOL0     H 1091   1.940   8.088  -0.185 -0.9522  0.5404  0.5431
    8MOL0     H 1092   2.035   7.851  -0.191  1.1458 -0.9109 -1.2393
    8MOL0     H 1093   2.141   7.988  -0.157  2.9070 -0.6997 -0.4927
    8MOL0     H 1094   2.229   7.736  -0.026 -0.8500 -0.9241  0.1626
    8MOL0     H 1095   2.313   7.868  -0.101 -0.1014 -1.5004  1.0793
    8MOL0     H 1096   2.151   7.698  -0.280 -0.1735 -2.0563  0.9286
    8MOL0     H 1097   2.294   7.805  -0.307  0.2759 -0.9067 -0.9161
    8MOL0     H 1098   2.310   7.553  -0.134  0.5643  1.1629  1.4774
    8MOL0     H 1099   2.439   7.642  -0.201  0.9588 -2.7897  1.2890
    8MOL0     H 1100   2.333   7.447  -0.561 -0.1559 -0.8652  0.2046
    8MOL0     H 1101   1.908   7.949   0.210  2.1447  0.1842 -0.6802
    8MOL0     H 1102   1.723   8.165   0.360  0.3300 -0.0553 -0.7044
    8MOL0     H 1103   1.589   8.080   0.293  0.5533  1.6376  1.0518
    8MOL0     H 1104   1.734   7.981   0.341 -1.8193 -3.1487 -2.5032
    9MOL0     O 1105   9.114   4.085   7.164  0.5101 -0.3074  0.1552
    9MOL0     C 1106   9.165   4.182   7.103 -0.2975 -0.3312 -0.5213
    9MOL0     O 1107   9.297   4.219   7.105 -0.0895 -0.1021  0.3243
    9MOL0     C 1108   9.385   4.174   7.199  0.6787 -0.8003  0.7434
    9MOL0     C 1109   9.516   4.176   7.163 -0.0389  1.1636 -0.7031
    9MOL0     C 1110   9.625   4.136   7.247  0.3817  0.9221 -0.9021
    9MOL0     C 1111   9.588   4.085   7.378  0.1169 -0.2677 -0.0113
    9MOL0     O 1112   9.693   4.053   7.455 -0.1146  0.2069  0.4258
    9MOL0     C 1113   9.663   4.013   7.588 -0.8055 -0.6592 -0.1985
    9MOL0     C 1114   9.799   3.953   7.637  0.3982  0.2392 -0.6539
    9MOL0     C 1115   9.832   3.819   7.572  0.1802  0.0859  0.1648
    9MOL0     C 1116   9.972   3.765   7.603  0.5244  0.3015 -0.1822
    9MOL0     C 1117   9.997   3.620   7.564  0.1574  0.0141  0.2416
    9MOL0     C 1118  10.000   3.599   7.412 -0.0648 -0.0102 -0.4459
    9MOL0     C 1119  10.025   3.456   7.383  0.1944 -0.0835  0.0607
    9MOL0     C 1120   9.900   3.367   7.423  1.1438  0.0094  0.9976
    9MOL0     N 1121   9.820   3.311   7.304  0.4632 -0.2494  0.6622
    9MOL0     C 1122   9.794   3.378   7.187  0.2414 -0.1016 -0.1163
    9MOL0     C 1123   9.714   3.286   7.122 -0.4563  0.5016 -0.2617
    9MOL0     C 1124   9.653   3.312   6.984  0.0928  0.2799 -0.1588
    9MOL0     C 1125   9.501   3.292   7.004 -0.1368 -0.8080 -0.0918
    9MOL0     C 1126   9.435   3.263   6.869 -0.1277 -0.2695 -0.4178
    9MOL0     C 1127   9.285   3.300   6.889 -0.3670 -0.3337 -0.5700
    9MOL0     O 1128   9.233   3.199   6.980 -0.0101  0.2908  0.1983
    9MOL0     C 1129   9.095   3.179   6.962  0.3906 -0.1248  0.8078
    9MOL0     C 1130   9.040   3.054   6.956 -0.1269 -0.1281 -0.1839
    9MOL0     C 1131   8.896   3.040   6.936  0.0035  0.4985  0.0642
    9MOL0     C 1132   8.842   2.902   6.936  0.3401  0.2817 -0.4122
    9MOL0     C 1133   8.809   3.151   6.926 -0.8744  0.0141  0.3395
    9MOL0     C 1134   8.668   3.154   6.885 -0.7612 -0.6723 -0.6750
    9MOL0     O 1135   8.593   3.268   6.917 -0.3110  0.5144 -0.2736
    9MOL0     C 1136   8.465   3.286   6.867 -0.4818  0.6451 -0.3136
    9MOL0     C 1137   8.357   3.205   6.882  0.1422 -0.1869  0.4827
    9MOL0     C 1138   8.236   3.230   6.822  0.4817  0.5726  0.0432
    9MOL0     C 1139   8.219   3.344   6.746  0.9810 -0.0985  0.4927
    9MOL0     O 1140   8.098   3.368   6.678 -0.5278 -0.4628  0.0219
    9MOL0     C 1141   7.979   3.297   6.717 -0.2985 -0.3256 -0.1286
    9MOL0     C 1142   7.856   3.350   6.647  0.7291 -0.5167  0.1206
    9MOL0     C 1143   7.868   3.306   6.502 -0.1258  0.2334  0.6054
    9MOL0     C 1144   7.735   3.287   6.427  0.8122 -0.0557 -0.3011
    9MOL0     C 1145   7.697   3.422   6.366  0.3330  0.0390  0.2575
    9MOL0     C 1146   7.555   3.416   6.301 -0.1869  0.6137 -0.6094
    9MOL0     C 1147   7.556   3.533   6.201  0.7757 -1.0274  0.7320
    9MOL0     C 1148   7.436   3.616   6.195  0.2290  0.3835 -0.1961
    9MOL0    Cl 1149   7.276   3.537   6.186  0.0928  0.1790 -0.1919
    9MOL0     C 1150   8.320   3.431   6.730 -0.2831 -0.5768 -0.3632
    9MOL0     C 1151   8.444   3.405   6.795 -0.4320 -0.3368 -0.6532
    9MOL0     O 1152   8.621   3.058   6.819 -0.4515 -0.1674 -0.3623
    9MOL0     C 1153   8.873   3.279   6.939  0.1691  0.6418  0.0230
    9MOL0     C 1154   9.012   3.291   6.955  0.8239 -0.4024  0.0008
    9MOL0     N 1155   9.710   3.170   7.198  0.1619 -0.1812 -0.4999
    9MOL0     N 1156   9.771   3.184   7.311 -1.0673  0.4692 -0.6464
    9MOL0     C 1157   9.454   4.075   7.413 -0.1258 -0.0443  0.2338
    9MOL0     C 1158   9.357   4.131   7.327 -0.1357 -0.1522 -0.2226
    9MOL0     C 1159   9.074   4.266   7.025 -0.9978  0.1227 -0.0840
    9MOL0     C 1160   8.969   4.200   6.947  0.7083 -0.1223  0.0185
    9MOL0     C 1161   8.888   4.269   6.860  0.5402  0.0415  0.0893
    9MOL0     C 1162   8.912   4.405   6.835 -1.1660 -0.3069  0.3743
    9MOL0     O 1163   8.842   4.456   6.727 -0.9741 -0.0030 -0.7646
    9MOL0     C 1164   8.897   4.557   6.641 -0.1151 -0.2623 -0.9419
    9MOL0     C 1165   8.857   4.696   6.701  0.7986  0.1833 -0.5076
    9MOL0     C 1166   8.871   4.825   6.618  1.2901  0.2439  0.4993
    9MOL0     C 1167   9.020   4.841   6.576  0.6935  0.4269 -0.1165
    9MOL0     C 1168   9.119   4.870   6.684  0.1527 -0.7521 -0.1707
    9MOL0     C 1169   9.205   4.893   6.770 -0.2804 -0.1286  0.5438
    9MOL0     C 1170   9.015   4.467   6.901 -0.3854 -0.3160 -0.3877
    9MOL0     C 1171   9.098   4.404   7.000  0.4567 -0.8209 -0.3944
    9MOL0     C 1172   9.200   4.489   7.074  0.7321 -0.0868  0.5929
    9MOL0     H 1173   9.540   4.198   7.060  0.6998  0.5311 -0.6808
    9MOL0     H 1174   9.731   4.142   7.224  1.1505 -3.0973  0.7685
    9MOL0     H 1175   9.583   3.940   7.603 -0.6236 -1.2767 -1.9437
    9MOL0     H 1176   9.646   4.109   7.637  1.3405  0.1081 -0.8223
    9MOL0     H 1177   9.877   4.029   7.631  1.1797 -0.3120  1.5559
    9MOL0     H 1178   9.786   3.934   7.744  1.5938 -0.2591 -0.5800
    9MOL0     H 1179   9.757   3.744   7.597  0.6008 -0.7317 -0.9162
    9MOL0     H 1180   9.810   3.832   7.465 -0.8275  1.6797  0.5288
    9MOL0     H 1181  10.041   3.838   7.559  1.5305 -0.4040  0.2022
    9MOL0     H 1182   9.978   3.758   7.712 -0.5827  0.1481 -0.1169
    9MOL0     H 1183   9.921   3.556   7.610 -1.1877  1.7923  0.5811
    9MOL0     H 1184  10.096   3.589   7.600  0.8295  1.1559 -0.5680
    9MOL0     H 1185   9.906   3.630   7.365  0.6762  2.6092 -0.3666
    9MOL0     H 1186  10.074   3.662   7.361 -0.2493 -0.6143 -1.4912
    9MOL0     H 1187  10.106   3.402   7.434  0.4604 -0.1904 -0.4575
    9MOL0     H 1188  10.046   3.444   7.276 -0.7712  4.2837 -0.7860
    9MOL0     H 1189   9.929   3.286   7.490 -0.1423 -0.0472  1.5160
    9MOL0     H 1190   9.824   3.420   7.481 -0.7598 -0.2754 -1.0841
    9MOL0     H 1191   9.811   3.480   7.155 -1.2284  0.4445  0.7284
    9MOL0     H 1192   9.680   3.225   6.924 -0.0660 -2.2222  3.1525
    9MOL0     H 1193   9.678   3.408   6.938  1.1408 -0.6454 -1.6333
    9MOL0     H 1194   9.481   3.208   7.070 -0.5730 -0.4821  0.1963
    9MOL0     H 1195   9.464   3.380   7.058  1.4478 -1.5212  2.2861
    9MOL0     H 1196   9.483   3.319   6.789  1.0241 -1.7003 -0.7652
    9MOL0     H 1197   9.441   3.158   6.838  1.4676  0.1000 -1.4543
    9MOL0     H 1198   9.276   3.402   6.926  0.7667  0.9001 -3.4295
    9MOL0     H 1199   9.238   3.285   6.792 -2.0939  0.8399  0.0362
    9MOL0     H 1200   9.106   2.971   6.980  1.4486  0.1882 -2.9810
    9MOL0     H 1201   8.906   2.827   6.984  0.1900  0.4176  0.0023
    9MOL0     H 1202   8.828   2.864   6.834 -2.7453  0.8073 -0.2566
    9MOL0     H 1203   8.746   2.898   6.988  2.2963 -1.8118  3.5189
    9MOL0     H 1204   8.367   3.110   6.934  1.7141  1.0344  2.6182
    9MOL0     H 1205   8.158   3.161   6.853  0.5707  0.2901 -0.3521
    9MOL0     H 1206   7.985   3.189   6.699  0.8378 -0.2375 -0.3608
    9MOL0     H 1207   7.968   3.323   6.823  1.5767  2.1438 -0.4446
    9MOL0     H 1208   7.764   3.304   6.682 -0.5778  0.8032 -1.4163
    9MOL0     H 1209   7.845   3.459   6.641 -0.0559 -0.5988 -0.0114
    9MOL0     H 1210   7.903   3.203   6.493 -1.4464 -0.1998  0.1992
    9MOL0     H 1211   7.941   3.362   6.442  0.3196 -0.2617  0.6766
    9MOL0     H 1212   7.660   3.243   6.492  2.1241 -3.8310 -1.0967
    9MOL0     H 1213   7.756   3.209   6.353 -2.2609 -2.4707  1.1527
    9MOL0     H 1214   7.700   3.500   6.442  0.2981  1.1728 -0.8695
    9MOL0     H 1215   7.774   3.438   6.290 -0.7178 -0.8162 -1.0362
    9MOL0     H 1216   7.467   3.435   6.363 -0.3348  0.8721 -0.8946
    9MOL0     H 1217   7.542   3.318   6.255 -0.7230 -0.8680  2.4562
    9MOL0     H 1218   7.568   3.485   6.104 -0.7909 -1.1923  0.5998
    9MOL0     H 1219   7.650   3.590   6.200  1.0306 -1.4056  1.5514
    9MOL0     H 1220   7.451   3.677   6.105 -1.4413  1.3055  0.1134
    9MOL0     H 1221   7.432   3.678   6.286 -2.9458  1.4606 -0.9373
    9MOL0     H 1222   8.301   3.517   6.666 -1.3810 -1.2441 -0.9590
    9MOL0     H 1223   8.529   3.472   6.800  0.9298 -2.0962  3.0984
    9MOL0     H 1224   8.810   3.368   6.942 -0.3138  0.3408 -0.8653
    9MOL0     H 1225   9.052   3.388   6.981 -2.3910  0.7409  1.2051
    9MOL0     H 1226   9.422   4.041   7.511 -3.3393 -0.4035 -0.8139
    9MOL0     H 1227   9.256   4.149   7.364  0.2792  2.3817 -0.1304
    9MOL0     H 1228   8.961   4.093   6.961 -2.3384 -0.0029 -0.2492
    9MOL0     H 1229   8.807   4.231   6.799 -0.3271  2.2155 -0.2064
    9MOL0     H 1230   9.005   4.542   6.642  0.0370  0.7619 -1.3950
    9MOL0     H 1231   8.856   4.539   6.541 -2.5462 -0.8297  0.0731
    9MOL0     H 1232   8.906   4.706   6.798 -1.2850 -2.5245  0.9814
    9MOL0     H 1233   8.752   4.681   6.730  0.7077 -1.2809 -1.4560
    9MOL0     H 1234   8.806   4.819   6.530 -1.1371  0.7824  2.1471
    9MOL0     H 1235   8.834   4.915   6.669 -1.4621  1.2652 -2.9470
    9MOL0     H 1236   9.018   4.926   6.507  0.0469 -0.6853 -1.5162
    9MOL0     H 1237   9.061   4.754   6.523  0.2828  0.9079 -1.2488
    9MOL0     H 1238   9.281   4.912   6.842  0.3923  0.6775 -0.3593
    9MOL0     H 1239   9.027   4.574   6.898  0.9279 -0.3612  1.5242
    9MOL0     H 1240   9.192   4.595   7.051  3.5822  0.6415  2.4042
    9MOL0     H 1241   9.190   4.466   7.180  0.3339 -2.6141  0.0685
    9MOL0     H 1242   9.303   4.460   7.048  0.3045 -1.2087  0.0819
   10MOL0     O 1243   2.877   6.009   4.939  0.7228  0.3039 -0.1056
   10MOL0     C 1244   2.913   6.032   4.826 -0.4576  0.0020 -0.6093
   10MOL0     O 1245   3.020   6.101   4.788 -0.2329 -0.2471 -0.2164
   10MOL0     C 1246   3.106   6.164   4.879 -0.8540  0.3604  0.1155
   10MOL0     C 1247   3.240   6.181   4.831  0.4675  1.0579 -0.0065
   10MOL0     C 1248   3.326   6.264   4.904  0.3667  0.5317 -0.3427
   10MOL0     C 1249   3.299   6.301   5.028  0.7060 -0.5687 -0.0278
   10MOL0     O 1250   3.388   6.372   5.107  0.0375 -0.1457  0.3478
   10MOL0     C 1251   3.457   6.484   5.042 -0.7017  0.2481 -0.5478
   10MOL0     C 1252   3.437   6.615   5.117  1.0401 -0.5506  0.2182
   10MOL0     C 1253   3.504   6.735   5.044 -0.0169 -0.3967 -0.5092
   10MOL0     C 1254   3.660   6.707   5.031  0.1304  0.3514  0.5285
   10MOL0     C 1255   3.722   6.837   4.972 -0.1888  0.5744 -0.3238
   10MOL0     C 1256   3.869   6.813   4.929  0.3053  0.3373  0.0796
   10MOL0     C 1257   3.944   6.921   4.866 -0.0360  0.2104 -0.3835
   10MOL0     C 1258   4.073   6.873   4.800 -1.1720 -0.0887  0.6521
   10MOL0     N 1259   4.157   6.987   4.758  0.2858 -0.2972 -0.8685
   10MOL0     C 1260   4.111   7.088   4.677 -0.4347  0.5002  0.1507
   10MOL0     C 1261   4.227   7.161   4.655 -0.6129 -0.7785 -0.1129
   10MOL0     C 1262   4.230   7.289   4.576 -0.1441  0.6898 -0.1467
   10MOL0     C 1263   4.378   7.352   4.575  0.0065 -0.1597  0.5625
   10MOL0     C 1264   4.468   7.289   4.471  0.5770 -0.5688 -0.6918
   10MOL0     C 1265   4.615   7.336   4.480  0.6468  1.3542 -0.4549
   10MOL0     O 1266   4.664   7.374   4.350 -0.0325 -0.0262  0.2460
   10MOL0     C 1267   4.790   7.418   4.367  0.0900 -0.0329 -0.4416
   10MOL0     C 1268   4.826   7.512   4.271 -0.3766 -0.4385 -0.2200
   10MOL0     C 1269   4.952   7.575   4.269 -0.8156  0.2642 -0.1201
   10MOL0     C 1270   4.986   7.664   4.147 -0.6137 -0.1255  0.4995
   10MOL0     C 1271   5.057   7.543   4.365 -0.4251  0.1526  0.3477
   10MOL0     C 1272   5.205   7.578   4.370 -1.0080  0.7064 -0.0006
   10MOL0     O 1273   5.284   7.509   4.464 -0.2371  0.0017  0.0147
   10MOL0     C 1274   5.417   7.546   4.492 -0.3807  0.4791 -0.2540
   10MOL0     C 1275   5.514   7.557   4.390 -0.2863 -0.5580  1.0312
   10MOL0     C 1276   5.642   7.588   4.412  0.0945  0.0942  0.0858
   10MOL0     C 1277   5.692   7.604   4.542 -0.0283  0.7732 -0.2599
   10MOL0     O 1278   5.827   7.628   4.563 -0.8067 -0.7885  0.8330
   10MOL0     C 1279   5.920   7.588   4.458 -0.2901 -0.0188 -0.5145
   10MOL0     C 1280   6.059   7.632   4.501 -0.4224  0.6196 -0.6881
   10MOL0     C 1281   6.106   7.532   4.612 -0.0266  0.0484 -0.0053
   10MOL0     C 1282   6.240   7.564   4.670  0.7239  0.1738 -0.3305
   10MOL0     C 1283   6.297   7.439   4.732 -0.5800 -0.5499 -0.5131
   10MOL0     C 1284   6.428   7.485   4.809  0.7408 -0.1128  0.1100
   10MOL0     C 1285   6.478   7.359   4.879 -0.0917 -0.3311  0.2185
   10MOL0     C 1286   6.587   7.292   4.794  0.3359 -0.5413  0.0535
   10MOL0    Cl 1287   6.734   7.397   4.785  0.6007  0.1944  0.0254
   10MOL0     C 1288   5.607   7.582   4.649  0.1846 -0.6594 -0.9823
   10MOL0     C 1289   5.472   7.562   4.620 -0.0671  0.3510 -0.2410
   10MOL0     O 1290   5.249   7.661   4.292 -0.4489 -0.1827 -0.7108
   10MOL0     C 1291   5.014   7.462   4.471 -0.6447  0.8446 -0.4235
   10MOL0     C 1292   4.894   7.390   4.466  0.0017  0.1230 -0.3499
   10MOL0     N 1293   4.337   7.113   4.724  0.4998  0.2182  0.4585
   10MOL0     N 1294   4.294   7.005   4.784  0.5701 -0.1981  0.5139
   10MOL0     C 1295   3.174   6.272   5.086  0.3793  0.3167 -0.2976
   10MOL0     C 1296   3.069   6.202   5.010  0.9563 -1.1228 -0.0053
   10MOL0     C 1297   2.841   5.966   4.711 -0.3740 -0.0540  0.4315
   10MOL0     C 1298   2.916   5.930   4.598 -0.9784  0.6261  0.3433
   10MOL0     C 1299   2.857   5.886   4.480  0.2874  0.3188 -0.3100
   10MOL0     C 1300   2.714   5.877   4.469 -0.1675  0.3377  0.5327
   10MOL0     O 1301   2.641   5.840   4.363 -0.6977 -0.1341 -0.6485
   10MOL0     C 1302   2.690   5.883   4.235 -0.2244 -0.3453  0.2080
   10MOL0     C 1303   2.591   5.863   4.119  0.3078 -0.7684  1.4473
   10MOL0     C 1304   2.582   5.720   4.057  0.0494 -0.0471 -0.6012
   10MOL0     C 1305   2.499   5.619   4.137  0.5573  0.7419 -0.9432
   10MOL0     C 1306   2.410   5.546   4.045  0.1158  0.4168  0.5914
   10MOL0     C 1307   2.340   5.482   3.966  0.2666 -0.1152 -0.0216
   10MOL0     C 1308   2.645   5.897   4.585  0.2076  0.1887  0.6753
   10MOL0     C 1309   2.704   5.947   4.702  0.1322  0.1616 -0.1594
   10MOL0     C 1310   2.613   5.969   4.814  0.6471 -0.2479 -0.0095
   10MOL0     H 1311   3.271   6.143   4.734 -0.2006  1.6690 -0.4756
   10MOL0     H 1312   3.422   6.287   4.858 -0.2270  1.0888 -1.3248
   10MOL0     H 1313   3.418   6.500   4.941 -0.1187 -0.1676 -0.8474
   10MOL0     H 1314   3.563   6.461   5.059 -0.4482  0.7825 -1.3249
   10MOL0     H 1315   3.330   6.625   5.134  1.1715 -0.0982  0.8091
   10MOL0     H 1316   3.479   6.590   5.215 -0.8921 -2.4973  0.6153
   10MOL0     H 1317   3.463   6.742   4.943 -0.4453 -1.4008 -0.4205
   10MOL0     H 1318   3.491   6.827   5.102 -1.2270 -1.9558  1.8979
   10MOL0     H 1319   3.703   6.679   5.127 -0.6053  1.1725  1.1181
   10MOL0     H 1320   3.675   6.630   4.955 -0.7567  2.1702 -1.6097
   10MOL0     H 1321   3.713   6.908   5.054  0.5095 -0.6187  0.8375
   10MOL0     H 1322   3.665   6.878   4.889  1.0595 -1.0409 -2.0775
   10MOL0     H 1323   3.935   6.782   5.010  0.5978 -1.5258 -0.8138
   10MOL0     H 1324   3.866   6.732   4.855 -2.0730  1.5670 -1.2937
   10MOL0     H 1325   3.971   7.001   4.936  0.5762  0.1072 -0.4913
   10MOL0     H 1326   3.879   6.972   4.795 -1.5119 -0.7963  0.2027
   10MOL0     H 1327   4.131   6.801   4.857 -0.1214 -0.8587 -1.3123
   10MOL0     H 1328   4.045   6.816   4.711 -2.1297 -0.5499  1.2248
   10MOL0     H 1329   4.014   7.087   4.630  0.1762 -0.3048 -1.1563
   10MOL0     H 1330   4.157   7.362   4.612 -2.0160 -0.9421 -0.4203
   10MOL0     H 1331   4.206   7.274   4.471  2.5634 -1.1538 -0.6170
   10MOL0     H 1332   4.369   7.455   4.539  0.6078 -0.0050  0.8502
   10MOL0     H 1333   4.425   7.372   4.671 -0.9226  1.1573  0.7780
   10MOL0     H 1334   4.469   7.180   4.477 -5.0206 -0.8468  0.2459
   10MOL0     H 1335   4.438   7.311   4.368  3.4413 -1.3868 -1.8040
   10MOL0     H 1336   4.619   7.426   4.541  1.6517  1.4350 -0.6217
   10MOL0     H 1337   4.668   7.260   4.538 -1.3228 -0.2452 -0.6361
   10MOL0     H 1338   4.752   7.543   4.199 -1.2775 -2.8616 -0.4132
   10MOL0     H 1339   5.038   7.611   4.067  0.8186  1.8273  0.0521
   10MOL0     H 1340   5.036   7.755   4.182 -3.4454  1.3193  1.0883
   10MOL0     H 1341   4.895   7.705   4.103  0.6673  2.7924  0.3218
   10MOL0     H 1342   5.479   7.545   4.288 -0.6749  1.0245  0.9615
   10MOL0     H 1343   5.705   7.591   4.324 -1.1806  1.9400 -0.8279
   10MOL0     H 1344   5.924   7.482   4.434  3.4534  0.1680 -1.3249
   10MOL0     H 1345   5.897   7.637   4.362  1.9548  1.6885 -0.2598
   10MOL0     H 1346   6.122   7.614   4.413 -1.2457 -0.1418 -1.1423
   10MOL0     H 1347   6.075   7.734   4.537 -0.7073  0.5660 -0.4092
   10MOL0     H 1348   6.118   7.429   4.577  0.8425 -0.7420  2.4491
   10MOL0     H 1349   6.034   7.534   4.694  0.3954  3.8655  0.4784
   10MOL0     H 1350   6.222   7.647   4.739 -1.4797  1.1438 -1.9450
   10MOL0     H 1351   6.310   7.603   4.596  2.0167 -0.8831  0.2877
   10MOL0     H 1352   6.219   7.394   4.794  1.4627  0.2312  2.8769
   10MOL0     H 1353   6.321   7.366   4.653  0.5971 -1.2889  0.4889
   10MOL0     H 1354   6.409   7.562   4.884  1.6090  0.1638  0.0634
   10MOL0     H 1355   6.505   7.522   4.740  0.2224  0.8217  0.0301
   10MOL0     H 1356   6.395   7.289   4.896  1.7487 -2.6596  0.0992
   10MOL0     H 1357   6.514   7.390   4.978  0.0925 -0.5354  0.2145
   10MOL0     H 1358   6.552   7.259   4.697 -0.3303  0.8632 -0.2104
   10MOL0     H 1359   6.620   7.199   4.842  0.9658 -1.2796 -1.7239
   10MOL0     H 1360   5.642   7.595   4.751 -1.4944 -3.6613  0.1211
   10MOL0     H 1361   5.402   7.561   4.703 -1.0804 -2.0631 -1.0219
   10MOL0     H 1362   5.075   7.456   4.561 -2.0701 -0.9324  0.4799
   10MOL0     H 1363   4.867   7.326   4.551  0.0394 -0.3063 -0.6586
   10MOL0     H 1364   3.147   6.303   5.186 -0.4654 -1.6238  0.1253
   10MOL0     H 1365   2.973   6.184   5.057  0.1037  0.5866 -0.9817
   10MOL0     H 1366   3.023   5.945   4.594 -0.6050 -1.8441 -0.7449
   10MOL0     H 1367   2.932   5.858   4.406 -0.4611 -2.8686 -0.0203
   10MOL0     H 1368   2.716   5.989   4.236 -0.3479 -0.3164  1.7869
   10MOL0     H 1369   2.782   5.825   4.216 -1.6430 -2.1649 -1.6263
   10MOL0     H 1370   2.624   5.931   4.040  0.6462 -0.9264  1.4530
   10MOL0     H 1371   2.491   5.903   4.141  0.7967  2.1313 -0.9120
   10MOL0     H 1372   2.528   5.737   3.963 -0.0857 -3.4419 -1.2564
   10MOL0     H 1373   2.683   5.683   4.034  0.4113 -0.5395  1.6270
   10MOL0     H 1374   2.446   5.670   4.218  1.4320  2.7062 -1.5406
   10MOL0     H 1375   2.574   5.555   4.183  2.0344  2.6139 -0.6025
   10MOL0     H 1376   2.260   5.436   3.911  1.4332 -0.4887 -1.4887
   10MOL0     H 1377   2.537   5.885   4.587  0.0632  0.3778 -2.2465
   10MOL0     H 1378   2.511   5.943   4.785  0.6084  0.1233 -0.2091
   10MOL0     H 1379   2.626   5.911   4.906 -5.6757  0.3247  1.7124
   10MOL0     H 1380   2.612   6.073   4.848 -0.1954 -0.3125  0.1742
   11MOL0     O 1381   8.719   1.696   1.338 -0.3018 -0.0051 -0.3258
   11MOL0     C 1382   8.744   1.709   1.216  0.6586  0.1470 -0.1052
   11MOL0     O 1383   8.853   1.664   1.146  0.1753 -0.8234 -0.0626
   11MOL0     C 1384   8.948   1.597   1.224 -0.0624 -0.6025  0.1946
   11MOL0     C 1385   9.033   1.661   1.313  1.4227 -0.3377  0.4832
   11MOL0     C 1386   9.121   1.587   1.398  0.0673 -0.3546  0.0617
   11MOL0     C 1387   9.124   1.449   1.388  0.5714 -0.2400  0.7994
   11MOL0     O 1388   9.185   1.372   1.481  0.1875 -0.1214  0.6254
   11MOL0     C 1389   9.209   1.429   1.611 -0.5193 -0.5825 -0.1058
   11MOL0     C 1390   9.234   1.301   1.700  0.4074 -0.5188  0.0395
   11MOL0     C 1391   9.382   1.267   1.706 -0.0284 -0.0515  0.7908
   11MOL0     C 1392   9.415   1.171   1.824  0.0714 -0.3555  0.3690
   11MOL0     C 1393   9.572   1.153   1.828 -0.2977 -0.0926  0.2181
   11MOL0     C 1394   9.650   1.098   1.707  0.5242  0.0801  0.4664
   11MOL0     C 1395   9.783   1.044   1.741  0.9011  0.5449  0.5478
   11MOL0     C 1396   9.786   0.896   1.790  0.1699 -0.3477  0.4585
   11MOL0     N 1397   9.923   0.838   1.799  0.3505  0.3107  0.4995
   11MOL0     C 1398   9.944   0.702   1.788  0.7081 -0.0357  1.0007
   11MOL0     C 1399  10.080   0.691   1.776 -0.5318 -0.2237  0.9799
   11MOL0     C 1400  10.155   0.561   1.758  0.0580 -0.0233  0.7608
   11MOL0     C 1401  10.167   0.472   1.879 -0.0803  0.2979  0.3117
   11MOL0     C 1402  10.243   0.522   1.999 -0.0559  0.1392 -0.7146
   11MOL0     C 1403  10.385   0.570   1.967  0.3064  0.1779  0.2809
   11MOL0     O 1404  10.457   0.474   1.890 -0.9146 -0.1034 -0.2247
   11MOL0     C 1405  10.596   0.497   1.864 -0.6969  0.1090  0.3350
   11MOL0     C 1406  10.650   0.404   1.771  1.1772 -0.0994 -0.1273
   11MOL0     C 1407  10.779   0.408   1.724  0.3694 -0.2650  0.1722
   11MOL0     C 1408  10.819   0.300   1.630  0.2505 -0.5552  0.0569
   11MOL0     C 1409  10.865   0.507   1.774  0.0984  0.6234  0.2694
   11MOL0     C 1410  11.012   0.524   1.742 -0.0764  0.3391  0.7596
   11MOL0     O 1411  11.074   0.411   1.725 -0.1596  0.3552  0.3448
   11MOL0     C 1412  11.213   0.404   1.691  0.4477 -0.4821 -0.6879
   11MOL0     C 1413  11.259   0.313   1.594 -0.7399 -0.4590 -0.0892
   11MOL0     C 1414  11.396   0.287   1.574 -1.0760 -0.7671  0.4518
   11MOL0     C 1415  11.488   0.356   1.659 -0.1926  0.2496  0.4491
   11MOL0     O 1416  11.620   0.318   1.627 -0.3755 -0.8226 -0.5026
   11MOL0     C 1417  11.721   0.402   1.687  0.2765  0.4639 -0.5175
   11MOL0     C 1418  11.849   0.373   1.613  0.2101 -0.5254 -0.3805
   11MOL0     C 1419  11.968   0.453   1.667  0.6281  0.2136  0.8464
   11MOL0     C 1420  12.102   0.389   1.622 -0.1249  0.4984  0.0228
   11MOL0     C 1421  12.228   0.471   1.664  0.2355  0.1621  0.4796
   11MOL0     C 1422  12.354   0.372   1.651  0.6558  0.0239  0.5169
   11MOL0     C 1423  12.471   0.451   1.696 -0.5461 -0.2099 -0.1833
   11MOL0     C 1424  12.584   0.356   1.738 -0.0295  0.0609 -1.1612
   11MOL0    Cl 1425  12.655   0.280   1.593  0.0195  0.0673  0.4012
   11MOL0     C 1426  11.442   0.439   1.754 -0.2322  0.0519 -0.4481
   11MOL0     C 1427  11.304   0.465   1.775 -0.6490  0.3028  0.5599
   11MOL0     O 1428  11.063   0.636   1.739 -0.1374 -0.7111 -0.2151
   11MOL0     C 1429  10.812   0.602   1.871  0.1417  0.2873 -0.1658
   11MOL0     C 1430  10.679   0.590   1.916  0.0201 -0.0974 -0.3442
   11MOL0     N 1431  10.143   0.817   1.803  0.6738  0.4361  0.6248
   11MOL0     N 1432  10.040   0.902   1.811 -0.0069  0.3519 -0.1106
   11MOL0     C 1433   9.039   1.385   1.298  0.4342 -0.5002  0.1411
   11MOL0     C 1434   8.957   1.458   1.211  0.1357 -0.4485 -1.3862
   11MOL0     C 1435   8.631   1.758   1.130 -0.2154  0.0162  0.0102
   11MOL0     C 1436   8.643   1.748   0.992 -0.4114  0.2930  0.5709
   11MOL0     C 1437   8.544   1.799   0.905  0.2181 -0.3054 -0.4327
   11MOL0     C 1438   8.428   1.860   0.956 -0.3811  0.6414 -0.1009
   11MOL0     O 1439   8.330   1.908   0.873 -1.1058  0.9790 -0.3548
   11MOL0     C 1440   8.273   1.811   0.780  0.0224 -1.0488 -0.0041
   11MOL0     C 1441   8.245   1.871   0.637 -0.4585  0.7644  0.1435
   11MOL0     C 1442   8.193   2.013   0.646 -0.9186  1.0431 -0.0424
   11MOL0     C 1443   8.045   2.016   0.697 -0.2236  0.3376 -0.1616
   11MOL0     C 1444   8.006   2.159   0.718  0.5476  0.3846 -0.7921
   11MOL0     C 1445   7.964   2.267   0.743 -0.6763  0.1026  0.1962
   11MOL0     C 1446   8.413   1.865   1.097 -0.6480  0.6108  0.2853
   11MOL0     C 1447   8.508   1.816   1.184 -0.6120 -0.0948 -0.5903
   11MOL0     C 1448   8.469   1.810   1.330 -0.5260  0.4823  0.5291
   11MOL0     H 1449   9.021   1.768   1.302  1.2956 -0.3022  0.9317
   11MOL0     H 1450   9.189   1.641   1.463  2.0925 -0.2567 -2.0199
   11MOL0     H 1451   9.127   1.492   1.647 -2.1085 -1.7888 -1.4508
   11MOL0     H 1452   9.301   1.487   1.607 -0.3883 -0.7372  0.5544
   11MOL0     H 1453   9.207   1.318   1.804  1.8189 -0.6199  0.4463
   11MOL0     H 1454   9.177   1.217   1.660 -0.8770  0.8527 -1.1338
   11MOL0     H 1455   9.406   1.220   1.610  2.1577  1.8459  0.3144
   11MOL0     H 1456   9.431   1.365   1.699 -0.0582 -0.1561 -2.4437
   11MOL0     H 1457   9.369   1.202   1.918 -0.5657 -0.4395  0.0978
   11MOL0     H 1458   9.370   1.073   1.802 -3.3329  1.0905  0.1865
   11MOL0     H 1459   9.598   1.094   1.916  1.0034  1.0315  0.6178
   11MOL0     H 1460   9.615   1.251   1.849 -0.1328 -0.1451  0.1193
   11MOL0     H 1461   9.577   1.029   1.663  0.7147  0.0908  0.1340
   11MOL0     H 1462   9.674   1.177   1.636 -1.6133  2.0047  1.7421
   11MOL0     H 1463   9.830   1.106   1.817 -0.4050  0.9531  1.0600
   11MOL0     H 1464   9.844   1.049   1.651  2.6001  0.7277  1.6707
   11MOL0     H 1465   9.737   0.894   1.888 -2.2509  2.9928 -0.5241
   11MOL0     H 1466   9.724   0.850   1.712  0.5041 -1.2053  0.6846
   11MOL0     H 1467   9.870   0.623   1.779  0.7343 -0.0854  1.2085
   11MOL0     H 1468  10.252   0.592   1.718 -0.3020 -1.5443 -1.4584
   11MOL0     H 1469  10.104   0.502   1.681  1.3250 -1.6218  1.1147
   11MOL0     H 1470  10.065   0.464   1.919 -0.8494  3.6530 -0.6706
   11MOL0     H 1471  10.206   0.371   1.863  0.7224 -0.0855  3.7798
   11MOL0     H 1472  10.194   0.604   2.051  1.1269 -0.7729  2.0382
   11MOL0     H 1473  10.252   0.438   2.069 -1.2052 -0.5120 -1.3238
   11MOL0     H 1474  10.362   0.665   1.918 -2.0961  0.3178  1.5561
   11MOL0     H 1475  10.436   0.603   2.059 -0.9318  3.0350  0.0634
   11MOL0     H 1476  10.586   0.320   1.750 -0.1804  0.7394  0.5383
   11MOL0     H 1477  10.739   0.279   1.558  0.0445  3.3742 -1.0980
   11MOL0     H 1478  10.844   0.217   1.696 -1.0100 -0.8245  0.2198
   11MOL0     H 1479  10.903   0.334   1.569 -2.8947  1.0948 -3.8388
   11MOL0     H 1480  11.181   0.266   1.535 -0.9869  0.4076 -0.4671
   11MOL0     H 1481  11.434   0.230   1.490 -1.7983  1.2231 -1.3250
   11MOL0     H 1482  11.698   0.508   1.672 -0.5977  0.6904  1.8952
   11MOL0     H 1483  11.737   0.380   1.793  2.0394  1.5181 -0.5303
   11MOL0     H 1484  11.867   0.265   1.620  1.5634 -0.2235  1.3356
   11MOL0     H 1485  11.836   0.405   1.509 -0.8878  2.6819  0.6298
   11MOL0     H 1486  11.962   0.461   1.776 -1.7918 -0.8126  0.8473
   11MOL0     H 1487  11.972   0.555   1.627 -3.5292  1.3456  2.7720
   11MOL0     H 1488  12.112   0.371   1.515  1.4675 -0.5301  0.3090
   11MOL0     H 1489  12.110   0.288   1.664  1.1954  0.7069  0.3080
   11MOL0     H 1490  12.230   0.554   1.593 -0.7960  0.9302  1.3175
   11MOL0     H 1491  12.208   0.504   1.766 -1.3607  0.7361  0.0130
   11MOL0     H 1492  12.364   0.350   1.544 -2.9165 -1.1472  0.2858
   11MOL0     H 1493  12.345   0.281   1.710  2.4707  0.7867  2.0729
   11MOL0     H 1494  12.435   0.513   1.778  1.3180 -3.2335  3.1930
   11MOL0     H 1495  12.510   0.514   1.615 -0.2662 -3.3244 -2.6933
   11MOL0     H 1496  12.558   0.278   1.809  1.8435  0.5060  0.0666
   11MOL0     H 1497  12.660   0.410   1.794 -2.0471 -0.2581  2.1724
   11MOL0     H 1498  11.505   0.487   1.828 -1.7823  1.0492  0.2929
   11MOL0     H 1499  11.273   0.526   1.859 -0.5738  1.4026 -0.1801
   11MOL0     H 1500  10.890   0.670   1.907  0.4522 -0.8371  1.4075
   11MOL0     H 1501  10.656   0.655   2.000 -0.5969  3.0172 -2.7388
   11MOL0     H 1502   9.035   1.278   1.281 -2.1716 -0.4848  0.3616
   11MOL0     H 1503   8.892   1.417   1.134  0.8794  1.7341 -3.3010
   11MOL0     H 1504   8.734   1.714   0.943  1.2793  0.9687  3.0550
   11MOL0     H 1505   8.547   1.800   0.796 -0.8766  0.3096 -0.4723
   11MOL0     H 1506   8.338   1.724   0.775 -0.1122 -1.2230  1.0235
   11MOL0     H 1507   8.176   1.778   0.816 -0.2343 -1.3090 -0.9113
   11MOL0     H 1508   8.177   1.802   0.587 -0.1942  0.7389 -0.1858
   11MOL0     H 1509   8.343   1.882   0.589 -1.1270 -0.5704 -1.6146
   11MOL0     H 1510   8.248   2.084   0.708  2.0288 -0.8164 -0.3304
   11MOL0     H 1511   8.188   2.038   0.539 -0.3858 -3.3170 -1.2628
   11MOL0     H 1512   8.036   1.959   0.790 -1.1928  0.3561 -0.2363
   11MOL0     H 1513   7.977   1.967   0.626  1.1455 -0.3571 -1.0539
   11MOL0     H 1514   7.922   2.363   0.768  1.7413  0.3920  3.8675
   11MOL0     H 1515   8.317   1.899   1.135 -1.7757 -1.9668 -0.0671
   11MOL0     H 1516   8.543   1.852   1.399  0.5095  0.6093 -0.6211
   11MOL0     H 1517   8.369   1.853   1.338 -1.5745 -0.5678 -4.1026
   11MOL0     H 1518   8.464   1.703   1.352  2.5528  0.4457  1.4202
   12MOL0     O 1519   1.500   9.844  10.328  0.1880 -0.4529  1.4988
   12MOL0     C 1520   1.411   9.775  10.276  0.3421 -0.3031 -0.3464
   12MOL0     O 1521   1.431   9.649  10.245 -0.3859  0.4470  0.4005
   12MOL0     C 1522   1.530   9.583  10.311 -0.5700  0.4495  0.1339
   12MOL0     C 1523   1.517   9.533  10.439 -0.2365 -0.1449  0.0827
   12MOL0     C 1524   1.634   9.482  10.492 -0.4368  0.1943 -0.1173
   12MOL0     C 1525   1.764   9.481  10.434  0.3076  0.4062 -0.4705
   12MOL0     O 1526   1.862   9.419  10.500 -0.9758 -0.0442 -0.1682
   12MOL0     C 1527   1.990   9.415  10.447  1.0374  0.3331  0.4508
   12MOL0     C 1528   2.053   9.549  10.468 -0.2820 -0.2343  0.0791
   12MOL0     C 1529   2.189   9.576  10.403  0.1099  0.3176 -0.2919
   12MOL0     C 1530   2.287   9.479  10.457 -0.2683  0.3288 -0.1105
   12MOL0     C 1531   2.439   9.523  10.431  0.7422  0.6408  0.2572
   12MOL0     C 1532   2.482   9.496  10.285  0.0706 -0.1414 -0.5090
   12MOL0     C 1533   2.620   9.565  10.267 -0.7760 -0.3832 -1.0801
   12MOL0     C 1534   2.664   9.581  10.126 -0.1845 -0.4155 -0.1162
   12MOL0     N 1535   2.793   9.648  10.121 -0.2306  0.2906 -0.1332
   12MOL0     C 1536   2.823   9.779  10.142  0.7316 -0.0310 -0.4148
   12MOL0     C 1537   2.953   9.781  10.172  0.6040  0.1044 -0.2800
   12MOL0     C 1538   3.027   9.898  10.205  0.2229  0.2180  0.5301
   12MOL0     C 1539   3.166   9.913  10.128  0.0622  1.0133 -0.5614
   12MOL0     C 1540   3.156   9.915   9.978  0.6252 -0.3415  0.4263
   12MOL0     C 1541   3.294   9.885   9.914 -0.2636 -0.1150  0.1512
   12MOL0     O 1542   3.377  10.010   9.940  0.4583  0.3282 -0.0747
   12MOL0     C 1543   3.513   9.998   9.910  0.0822  0.2430 -0.0312
   12MOL0     C 1544   3.582   9.891   9.846  1.0028 -0.4470 -0.3243
   12MOL0     C 1545   3.722   9.889   9.833 -0.7218 -0.1286  0.2214
   12MOL0     C 1546   3.767   9.763   9.758  0.3325  0.4969 -0.4527
   12MOL0     C 1547   3.795  10.000   9.870  0.4345 -0.2323 -0.0150
   12MOL0     C 1548   3.940  10.014   9.859 -0.4566  0.4232  0.4099
   12MOL0     O 1549   3.999  10.144   9.872  0.1889  0.5422 -0.0243
   12MOL0     C 1550   4.130  10.157   9.887 -0.1373 -0.7575  0.3798
   12MOL0     C 1551   4.196  10.227   9.787 -0.5170  0.5736  1.1172
   12MOL0     C 1552   4.336  10.253   9.795  0.1931  0.1215  0.2394
   12MOL0     C 1553   4.410  10.229   9.908  1.2674  0.4835 -0.4587
   12MOL0     O 1554   4.550  10.259   9.899  0.2461 -0.2465  0.1442
   12MOL0     C 1555   4.627  10.176   9.983  0.0240  0.9787  0.6165
   12MOL0     C 1556   4.746  10.152   9.906  0.0377  0.4235 -0.7753
   12MOL0     C 1557   4.851  10.271   9.892  0.5260  0.5717  0.2737
   12MOL0     C 1558   4.974  10.231   9.814  0.9499 -0.4396  0.0823
   12MOL0     C 1559   5.040  10.360   9.785 -0.4067 -0.1405 -0.1607
   12MOL0     C 1560   5.193  10.344   9.762  0.4436  0.2380 -0.2196
   12MOL0     C 1561   5.265  10.475   9.773  0.0203 -0.0826  0.5100
   12MOL0     C 1562   5.287  10.534   9.914  0.2170 -0.9430 -0.3540
   12MOL0    Cl 1563   5.389  10.424  10.004 -0.0406  0.1810  0.0360
   12MOL0     C 1564   4.341  10.175  10.014  0.1038 -0.1942  0.3347
   12MOL0     C 1565   4.203  10.145  10.005  0.1380  0.1621  0.5545
   12MOL0     O 1566   4.006   9.911   9.838  0.1391 -0.3652  0.3754
   12MOL0     C 1567   3.720  10.111   9.932  0.3748 -0.0381  0.0949
   12MOL0     C 1568   3.584  10.102   9.954  0.6002  0.0615 -0.1367
   12MOL0     N 1569   3.000   9.654  10.160  0.2387  0.0842 -0.3577
   12MOL0     N 1570   2.905   9.577  10.131  0.3618  0.0930 -0.6496
   12MOL0     C 1571   1.766   9.540  10.307  0.0801 -0.5096  0.1958
   12MOL0     C 1572   1.653   9.591  10.251  0.2351 -0.5943 -0.8790
   12MOL0     C 1573   1.283   9.844  10.222 -0.1928 -0.0877  0.0421
   12MOL0     C 1574   1.188   9.768  10.154 -0.7712  0.1719 -0.9185
   12MOL0     C 1575   1.070   9.827  10.108  0.3401  0.1958  0.1380
   12MOL0     C 1576   1.055   9.967  10.117  0.1949  0.3471 -0.6217
   12MOL0     O 1577   0.936  10.016  10.066  0.7187  0.5730  0.1579
   12MOL0     C 1578   0.913  10.157  10.050 -0.2479  0.2090 -0.2186
   12MOL0     C 1579   0.775  10.174   9.996  1.0975  0.3904 -0.3046
   12MOL0     C 1580   0.750  10.092   9.866 -0.0584  0.4299  0.7446
   12MOL0     C 1581   0.855  10.108   9.755  0.2207  0.1098  0.6830
   12MOL0     C 1582   0.848  10.240   9.707 -0.0197  0.7624 -0.0588
   12MOL0     C 1583   0.835  10.355   9.686 -0.1546 -0.2088  0.2859
   12MOL0     C 1584   1.152  10.047  10.179  0.3858  0.0425  0.1383
   12MOL0     C 1585   1.265   9.990  10.234 -0.0062  0.4041  0.1725
   12MOL0     C 1586   1.357  10.091  10.303  0.3155 -0.1610  0.0291
   12MOL0     H 1587   1.431   9.516  10.504  1.0296 -0.5673  1.7147
   12MOL0     H 1588   1.626   9.434  10.589 -0.3173 -0.4731 -0.4384
   12MOL0     H 1589   1.992   9.379  10.344 -0.2111 -0.7768  0.7747
   12MOL0     H 1590   2.037   9.349  10.521 -1.4151 -1.4177  0.5920
   12MOL0     H 1591   1.990   9.631  10.433  1.3363  1.3636  0.7836
   12MOL0     H 1592   2.047   9.579  10.573 -0.5503  2.2944 -0.6010
   12MOL0     H 1593   2.168   9.558  10.297 -1.3384  0.7278 -0.0988
   12MOL0     H 1594   2.214   9.682  10.409 -0.6849  0.5982 -1.4703
   12MOL0     H 1595   2.269   9.470  10.565 -1.1851  0.3301 -0.2589
   12MOL0     H 1596   2.252   9.388  10.408 -0.4986  0.4484 -0.1649
   12MOL0     H 1597   2.504   9.458  10.490 -0.6632 -0.6510  0.4441
   12MOL0     H 1598   2.456   9.631  10.442 -1.4833  1.5205 -3.2945
   12MOL0     H 1599   2.472   9.388  10.274 -0.9275 -0.1544  0.3550
   12MOL0     H 1600   2.417   9.547  10.213 -0.1879  1.7185  0.9605
   12MOL0     H 1601   2.699   9.503  10.311 -1.6458 -1.1296 -0.4979
   12MOL0     H 1602   2.619   9.668  10.304 -0.9850 -0.5729 -0.5393
   12MOL0     H 1603   2.686   9.480  10.090 -1.1702 -0.5114 -0.5047
   12MOL0     H 1604   2.591   9.632  10.062  1.3503  2.6410  0.4016
   12MOL0     H 1605   2.753   9.862  10.151 -1.1052 -1.7486  3.3107
   12MOL0     H 1606   3.058   9.890  10.310  4.8923 -3.9237 -0.7648
   12MOL0     H 1607   2.962   9.985  10.191 -1.7192 -1.0687  1.1958
   12MOL0     H 1608   3.212  10.005  10.166  0.5638 -0.3962  2.4920
   12MOL0     H 1609   3.229   9.831  10.163 -3.2250 -0.2290  3.2201
   12MOL0     H 1610   3.087   9.837   9.948 -0.2125  0.8251 -0.7753
   12MOL0     H 1611   3.112  10.012   9.952 -1.8073 -0.7755  2.5769
   12MOL0     H 1612   3.335   9.798   9.966  0.1244  0.6831  1.2239
   12MOL0     H 1613   3.283   9.866   9.807 -3.0971 -0.9945  0.5153
   12MOL0     H 1614   3.515   9.807   9.826  0.1152 -0.4627  2.3658
   12MOL0     H 1615   3.865   9.774   9.712 -0.2866  3.0018 -1.3167
   12MOL0     H 1616   3.698   9.746   9.675 -0.4490  1.3731  0.0046
   12MOL0     H 1617   3.759   9.681   9.831  1.0766  1.0671  0.2911
   12MOL0     H 1618   4.137  10.265   9.704  1.9398 -1.3315 -1.7235
   12MOL0     H 1619   4.368  10.317   9.713 -0.2845 -0.5213 -0.4622
   12MOL0     H 1620   4.637  10.211  10.086 -1.6569  4.6052 -0.2741
   12MOL0     H 1621   4.587  10.075   9.994  0.5415  0.8878  1.7810
   12MOL0     H 1622   4.804  10.074   9.956 -0.8587 -1.5094 -2.5902
   12MOL0     H 1623   4.721  10.109   9.809 -1.7559  2.1563 -1.1359
   12MOL0     H 1624   4.874  10.299   9.995  1.0021 -4.0127  1.6535
   12MOL0     H 1625   4.809  10.361   9.845  1.9066  1.0618 -0.0547
   12MOL0     H 1626   4.956  10.178   9.720  1.3060 -1.0040  0.3240
   12MOL0     H 1627   5.031  10.165   9.881  0.5309 -0.2252  0.6566
   12MOL0     H 1628   4.990  10.410   9.702  0.3301 -0.4591 -0.8062
   12MOL0     H 1629   5.035  10.430   9.869 -2.7519 -0.2395 -0.1694
   12MOL0     H 1630   5.205  10.306   9.660 -1.1475 -3.0010  0.6615
   12MOL0     H 1631   5.240  10.271   9.829 -2.7625  0.5525  2.6669
   12MOL0     H 1632   5.205  10.542   9.712 -0.4227 -0.6878  0.2729
   12MOL0     H 1633   5.356  10.480   9.713 -0.2038  0.4249  0.1992
   12MOL0     H 1634   5.186  10.551   9.952 -0.4283 -0.0430 -2.3465
   12MOL0     H 1635   5.335  10.632   9.900  0.7676 -1.1561 -0.0143
   12MOL0     H 1636   4.405  10.142  10.095 -0.8443 -1.5360  0.5698
   12MOL0     H 1637   4.138  10.099  10.079  1.2771  0.7800  1.9848
   12MOL0     H 1638   3.783  10.197   9.951  2.8619 -1.0803 -2.6721
   12MOL0     H 1639   3.545  10.184  10.014 -0.0283  0.7665 -1.4544
   12MOL0     H 1640   1.855   9.557  10.249 -0.7600  3.2836 -0.2928
   12MOL0     H 1641   1.656   9.630  10.150  3.2567 -1.6153 -1.2765
   12MOL0     H 1642   1.198   9.660  10.148 -0.3247 -0.2437  3.7753
   12MOL0     H 1643   1.001   9.758  10.060  1.8100 -1.5353  0.3784
   12MOL0     H 1644   0.925  10.203  10.149 -2.6562 -0.4335  0.4492
   12MOL0     H 1645   0.985  10.209   9.987  1.4558  0.7821  2.1024
   12MOL0     H 1646   0.755  10.279   9.972 -1.5343  0.4831  1.8352
   12MOL0     H 1647   0.706  10.133  10.070  1.4300 -1.5623 -1.0201
   12MOL0     H 1648   0.743   9.987   9.896  1.3739 -0.3737 -1.4593
   12MOL0     H 1649   0.650  10.123   9.832 -0.0897 -0.8835 -0.4723
   12MOL0     H 1650   0.844  10.038   9.672 -0.4186  1.8847 -0.7962
   12MOL0     H 1651   0.947  10.077   9.805  0.3282  1.8959  1.6583
   12MOL0     H 1652   0.822  10.452   9.643 -0.9559 -0.3045  0.2994
   12MOL0     H 1653   1.137  10.154  10.180 -1.7622 -0.2045  1.5040
   12MOL0     H 1654   1.458  10.096  10.262  0.3895  1.2078  0.3318
   12MOL0     H 1655   1.319  10.193  10.298 -1.7708 -0.9532 -1.7164
   12MOL0     H 1656   1.380  10.074  10.409  0.2139 -1.6047 -0.1634
   13MOL0     O 1657   9.861   5.019   5.471 -0.9057  0.1917 -0.2568
   13MOL0     C 1658   9.907   5.061   5.366 -0.2827  0.6392  0.1864
   13MOL0     O 1659  10.043   5.073   5.336  0.9820  0.5485  1.1744
   13MOL0     C 1660  10.141   5.051   5.428 -0.3447  0.0556 -0.1590
   13MOL0     C 1661  10.264   5.073   5.366 -0.5944  0.4736  0.3947
   13MOL0     C 1662  10.379   5.066   5.448  0.3634 -0.1651  0.4174
   13MOL0     C 1663  10.375   5.022   5.577  0.5997  0.5395  0.6715
   13MOL0     O 1664  10.491   5.032   5.654 -0.1674  0.4540  0.0434
   13MOL0     C 1665  10.580   4.918   5.650 -0.0475 -0.7203  0.1641
   13MOL0     C 1666  10.605   4.865   5.791  0.5247 -0.2785 -0.1299
   13MOL0     C 1667  10.713   4.751   5.788  0.2763 -0.7667  0.5815
   13MOL0     C 1668  10.703   4.666   5.912 -0.4805  0.2799  0.5598
   13MOL0     C 1669  10.811   4.559   5.905  0.2632  0.5431 -0.1954
   13MOL0     C 1670  10.948   4.615   5.923  0.3910  0.1333  0.6531
   13MOL0     C 1671  11.055   4.503   5.927 -0.3589 -0.1474  0.8514
   13MOL0     C 1672  11.190   4.551   5.901  0.2316  0.1222  0.2475
   13MOL0     N 1673  11.290   4.449   5.909 -0.7332 -0.2847  0.5154
   13MOL0     C 1674  11.328   4.357   5.810 -0.9843 -0.2022 -1.5744
   13MOL0     C 1675  11.400   4.263   5.875 -0.6080 -0.6156 -0.2522
   13MOL0     C 1676  11.457   4.145   5.814  0.5541 -0.2880  0.7707
   13MOL0     C 1677  11.437   4.026   5.904  0.1550 -0.2911 -1.3138
   13MOL0     C 1678  11.482   3.902   5.833  0.4307  0.2652 -0.6568
   13MOL0     C 1679  11.640   3.894   5.819 -0.2199  0.2631  0.2692
   13MOL0     O 1680  11.702   3.918   5.949 -0.9030  0.4856 -0.2408
   13MOL0     C 1681  11.841   3.905   5.976  0.3648  0.3940 -1.0649
   13MOL0     C 1682  11.936   3.826   5.910  0.6401 -0.0390 -0.2289
   13MOL0     C 1683  12.066   3.823   5.940 -1.2538  0.6815 -0.7619
   13MOL0     C 1684  12.145   3.723   5.854  0.2164  0.1674 -0.0935
   13MOL0     C 1685  12.128   3.914   6.031 -0.1326 -0.2396 -0.1114
   13MOL0     C 1686  12.274   3.920   6.064 -0.2379 -0.3774  1.4492
   13MOL0     O 1687  12.311   4.020   6.155 -1.1436  0.5288  0.4895
   13MOL0     C 1688  12.447   4.029   6.173 -0.2610  0.5937  0.0561
   13MOL0     C 1689  12.552   4.035   6.077  0.6437 -0.7675 -0.0726
   13MOL0     C 1690  12.679   4.028   6.118 -0.3826 -0.1698  0.3790
   13MOL0     C 1691  12.715   4.025   6.252 -0.0694  0.0258  0.2806
   13MOL0     O 1692  12.845   4.038   6.288  0.7594  0.2758  0.1674
   13MOL0     C 1693  12.900   4.167   6.307 -0.1465  0.1430  0.5432
   13MOL0     C 1694  13.043   4.158   6.374  0.4122 -0.3966  0.1804
   13MOL0     C 1695  13.148   4.114   6.275 -0.0915  0.1945  0.4294
   13MOL0     C 1696  13.278   4.100   6.354 -0.3944 -0.4386  0.3864
   13MOL0     C 1697  13.403   4.102   6.258 -0.6733  0.3482 -0.5372
   13MOL0     C 1698  13.527   4.084   6.337  0.0728  0.0297  0.4968
   13MOL0     C 1699  13.659   4.095   6.262 -0.6745 -0.4989  0.6302
   13MOL0     C 1700  13.770   4.032   6.358 -0.3934  0.6443  0.0932
   13MOL0    Cl 1701  13.763   4.111   6.522  0.2945  0.4774 -0.0616
   13MOL0     C 1702  12.617   4.015   6.349 -0.2040  0.0361 -0.0690
   13MOL0     C 1703  12.483   4.028   6.312 -0.2011 -1.3077  0.9431
   13MOL0     O 1704  12.342   3.824   6.028  0.7226 -0.0859  0.1504
   13MOL0     C 1705  12.037   4.001   6.097  0.0383 -0.5775 -0.2533
   13MOL0     C 1706  11.894   3.986   6.075  0.2907 -0.6852 -0.5378
   13MOL0     N 1707  11.418   4.294   6.011  0.1825 -0.5935  1.3830
   13MOL0     N 1708  11.355   4.406   6.027 -0.0197  0.4269  1.1891
   13MOL0     C 1709  10.254   5.000   5.636 -0.3799 -0.5563 -0.8730
   13MOL0     C 1710  10.137   5.017   5.567 -0.1516 -0.1986  0.4231
   13MOL0     C 1711   9.803   5.131   5.282  0.3750 -0.3740  0.0390
   13MOL0     C 1712   9.845   5.226   5.187 -0.1253  0.0147 -0.1121
   13MOL0     C 1713   9.761   5.309   5.110  0.1773 -0.5285  0.5071
   13MOL0     C 1714   9.626   5.306   5.131 -0.2531  0.8974 -0.0645
   13MOL0     O 1715   9.542   5.378   5.052  0.1346  0.1040  0.4951
   13MOL0     C 1716   9.399   5.369   5.078 -0.3530  0.2788 -0.8136
   13MOL0     C 1717   9.329   5.248   5.026  0.2844 -0.0155 -0.4955
   13MOL0     C 1718   9.172   5.270   5.005  0.8270 -0.6745  0.1023
   13MOL0     C 1719   9.110   5.319   5.140  0.3306 -0.2886 -0.5270
   13MOL0     C 1720   8.966   5.297   5.131  0.1544  0.3137  0.1552
   13MOL0     C 1721   8.847   5.284   5.113  0.4385 -0.0035 -0.5375
   13MOL0     C 1722   9.583   5.204   5.222 -0.1166  0.3712 -0.6680
   13MOL0     C 1723   9.658   5.124   5.300 -0.9608  0.8755 -0.0563
   13MOL0     C 1724   9.580   5.027   5.391 -0.5628  0.1029 -0.0862
   13MOL0     H 1725  10.283   5.086   5.260 -2.6697  3.5436  0.2795
   13MOL0     H 1726  10.475   5.073   5.397 -0.1660  0.9003 -0.4677
   13MOL0     H 1727  10.679   4.952   5.619 -0.4529 -0.1297 -0.4929
   13MOL0     H 1728  10.552   4.841   5.578 -0.6967  0.4896 -0.9135
   13MOL0     H 1729  10.651   4.949   5.845  2.0745 -0.8558 -0.4832
   13MOL0     H 1730  10.515   4.821   5.834  1.4404 -2.1584 -0.0272
   13MOL0     H 1731  10.700   4.684   5.703  0.2710  2.3787 -2.0921
   13MOL0     H 1732  10.811   4.795   5.765  0.0689 -1.0232 -0.8665
   13MOL0     H 1733  10.726   4.727   6.000  1.0770 -1.6554  1.5848
   13MOL0     H 1734  10.604   4.619   5.918  0.5787 -2.4857 -1.6040
   13MOL0     H 1735  10.804   4.499   5.813  0.0034 -0.0911  0.2322
   13MOL0     H 1736  10.795   4.495   5.992  0.1434 -0.0871 -0.6714
   13MOL0     H 1737  10.972   4.679   5.837 -1.7316  3.3051  2.2070
   13MOL0     H 1738  10.954   4.681   6.010 -1.2664  0.8011  0.3041
   13MOL0     H 1739  11.036   4.425   5.853  2.0375  1.8707 -2.1441
   13MOL0     H 1740  11.071   4.457   6.025 -0.5156 -0.2986  0.8064
   13MOL0     H 1741  11.192   4.595   5.800 -1.9081  1.3713  0.6822
   13MOL0     H 1742  11.218   4.625   5.977 -2.8279 -0.2438  1.8520
   13MOL0     H 1743  11.323   4.369   5.703  3.5446  2.6742 -1.7314
   13MOL0     H 1744  11.560   4.152   5.779 -0.0659 -1.3394 -1.3963
   13MOL0     H 1745  11.397   4.124   5.725 -0.3580  0.2235  1.2441
   13MOL0     H 1746  11.498   4.042   5.993 -2.1871 -2.0856  0.7357
   13MOL0     H 1747  11.332   4.013   5.932  1.1497 -0.6114  2.9237
   13MOL0     H 1748  11.441   3.815   5.886  2.4144 -0.5273 -0.3590
   13MOL0     H 1749  11.433   3.899   5.735 -0.2770 -1.7344 -0.2932
   13MOL0     H 1750  11.654   3.792   5.782 -0.8086  0.6632 -1.1213
   13MOL0     H 1751  11.675   3.977   5.756  0.7797 -0.1694  0.2424
   13MOL0     H 1752  11.904   3.757   5.833  0.9168 -0.0936 -0.2943
   13MOL0     H 1753  12.226   3.775   5.801  2.7313 -1.0104  2.3563
   13MOL0     H 1754  12.091   3.651   5.791  1.5613 -0.4910 -0.5375
   13MOL0     H 1755  12.193   3.655   5.925  0.4760  0.4363 -0.0082
   13MOL0     H 1756  12.516   4.030   5.975 -2.4299  1.6624  0.7252
   13MOL0     H 1757  12.763   4.043   6.052  0.1822 -0.6392  0.9809
   13MOL0     H 1758  12.908   4.209   6.206  2.1562 -1.3052  0.0441
   13MOL0     H 1759  12.831   4.229   6.364 -0.4253  0.1070  0.2513
   13MOL0     H 1760  13.067   4.259   6.407  0.2709 -0.7167  1.2890
   13MOL0     H 1761  13.041   4.095   6.464  2.2223 -2.6756 -1.2656
   13MOL0     H 1762  13.150   4.188   6.195 -0.7820  0.2870  0.4863
   13MOL0     H 1763  13.113   4.017   6.238  0.7653 -0.2214  0.6950
   13MOL0     H 1764  13.285   4.008   6.413 -0.1625  1.2226  3.0966
   13MOL0     H 1765  13.285   4.175   6.433 -2.6389 -0.1551  0.3567
   13MOL0     H 1766  13.408   4.036   6.171  0.6041  0.9935 -0.9705
   13MOL0     H 1767  13.400   4.208   6.230 -1.2409  0.2828 -0.7324
   13MOL0     H 1768  13.523   3.982   6.378  0.0661 -0.2202 -0.1215
   13MOL0     H 1769  13.533   4.147   6.427  2.9373 -0.6870  0.8837
   13MOL0     H 1770  13.683   4.197   6.234 -0.5088 -0.5065  0.7399
   13MOL0     H 1771  13.661   4.028   6.175 -0.9201  1.1067 -0.6648
   13MOL0     H 1772  13.868   4.044   6.311 -0.3695 -2.1592 -0.7710
   13MOL0     H 1773  13.753   3.924   6.369  2.3162  0.4234  5.9063
   13MOL0     H 1774  12.659   4.012   6.449  1.7979 -0.5451 -0.8770
   13MOL0     H 1775  12.410   4.035   6.392  1.3042  1.5951  2.2222
   13MOL0     H 1776  12.071   4.079   6.164  1.5926 -0.5875 -1.0064
   13MOL0     H 1777  11.816   4.052   6.110  0.5279  0.4879 -2.1288
   13MOL0     H 1778  10.251   4.983   5.743 -1.3024  1.2065 -0.5796
   13MOL0     H 1779  10.041   5.007   5.617  0.8306  0.4037  2.5417
   13MOL0     H 1780   9.948   5.240   5.155 -0.1726  0.7072  0.0174
   13MOL0     H 1781   9.803   5.371   5.032  1.9572 -1.3963  0.7388
   13MOL0     H 1782   9.380   5.382   5.185  3.5704 -0.3333  0.1035
   13MOL0     H 1783   9.353   5.449   5.019 -0.8886 -0.2193 -1.0873
   13MOL0     H 1784   9.343   5.160   5.089  0.3706 -0.1436 -0.6923
   13MOL0     H 1785   9.372   5.220   4.929  0.4487  2.8296 -1.3433
   13MOL0     H 1786   9.147   5.334   4.920 -1.7298 -2.5546 -0.7059
   13MOL0     H 1787   9.131   5.172   4.978 -0.8021 -0.1543  0.6352
   13MOL0     H 1788   9.142   5.423   5.150  3.1500 -1.2156  1.4420
   13MOL0     H 1789   9.153   5.275   5.231  4.5023  1.2016 -1.5615
   13MOL0     H 1790   8.743   5.267   5.094  0.1516  1.3416 -0.2359
   13MOL0     H 1791   9.479   5.196   5.253  0.5139  1.9609  2.2490
   13MOL0     H 1792   9.472   5.042   5.388 -0.8704 -1.4892  1.4890
   13MOL0     H 1793   9.607   4.926   5.357  1.8562  0.3446  0.8824
   13MOL0     H 1794   9.603   5.044   5.496 -3.2580 -1.2814  0.8209
   14MOL0     O 1795  11.388   5.451   8.565 -0.3165  0.7837  1.1254
   14MOL0     C 1796  11.411   5.341   8.509 -0.0306  0.3052 -0.3081
   14MOL0     O 1797  11.478   5.323   8.389  0.2281 -0.4071 -0.5683
   14MOL0     C 1798  11.569   5.415   8.360  0.0529 -0.1683 -0.2216
   14MOL0     C 1799  11.531   5.524   8.288  0.0668 -0.2141  0.0920
   14MOL0     C 1800  11.619   5.625   8.257  0.3672 -0.6650  0.0587
   14MOL0     C 1801  11.762   5.606   8.291  0.0236  0.1962  0.6164
   14MOL0     O 1802  11.859   5.701   8.264 -0.0033  0.8921  0.1624
   14MOL0     C 1803  11.838   5.778   8.147 -0.0117 -0.0621  0.5545
   14MOL0     C 1804  11.973   5.831   8.096 -0.6700  0.5879  0.2229
   14MOL0     C 1805  12.086   5.721   8.078 -0.5664  0.0954  0.3908
   14MOL0     C 1806  12.202   5.760   7.991  0.2790 -0.2210 -0.3828
   14MOL0     C 1807  12.347   5.746   8.051  0.1953  0.3217 -0.7200
   14MOL0     C 1808  12.406   5.610   8.073  0.1295 -0.1919 -0.4164
   14MOL0     C 1809  12.555   5.630   8.119  0.6031  0.0800 -0.1932
   14MOL0     C 1810  12.623   5.491   8.115 -0.0252  0.4444  0.6045
   14MOL0     N 1811  12.768   5.500   8.116 -0.3200  1.1072 -0.5444
   14MOL0     C 1812  12.844   5.442   8.013  0.2019  0.5324  0.7813
   14MOL0     C 1813  12.968   5.494   8.029 -0.2155 -0.3425  0.1366
   14MOL0     C 1814  13.090   5.466   7.943  0.2877 -0.5537  0.1034
   14MOL0     C 1815  13.216   5.498   8.013 -0.5083 -0.5133  0.4006
   14MOL0     C 1816  13.260   5.409   8.131 -0.8380  0.1387 -0.4449
   14MOL0     C 1817  13.392   5.433   8.203  0.5431  0.0350  0.5997
   14MOL0     O 1818  13.503   5.399   8.125 -0.6565  1.1080  0.0854
   14MOL0     C 1819  13.635   5.430   8.165  1.0824  0.1652  0.5501
   14MOL0     C 1820  13.665   5.487   8.290  0.2948  0.0226 -0.7164
   14MOL0     C 1821  13.793   5.512   8.341 -1.3209  0.3403 -0.6449
   14MOL0     C 1822  13.806   5.586   8.472  0.2032 -0.5874  0.4080
   14MOL0     C 1823  13.900   5.481   8.257  0.0781 -0.4777  0.6421
   14MOL0     C 1824  14.044   5.513   8.295  0.3708 -0.8932 -0.0393
   14MOL0     O 1825  14.140   5.431   8.245 -0.1030  0.4702  0.2597
   14MOL0     C 1826  14.271   5.465   8.278  0.4926  0.5883 -0.1566
   14MOL0     C 1827  14.339   5.553   8.202 -0.4375 -0.4527  1.4458
   14MOL0     C 1828  14.472   5.590   8.233  0.0217  0.1996 -0.0304
   14MOL0     C 1829  14.531   5.543   8.352 -0.1120  0.3302  0.3257
   14MOL0     O 1830  14.658   5.592   8.369  0.1969  0.2296  0.2864
   14MOL0     C 1831  14.721   5.545   8.491  0.0214 -0.3284 -0.5374
   14MOL0     C 1832  14.870   5.563   8.484 -0.1035  0.1561  0.3592
   14MOL0     C 1833  14.952   5.481   8.582 -0.0435  0.8025 -0.6205
   14MOL0     C 1834  15.094   5.534   8.588  0.7689 -0.1962 -0.3900
   14MOL0     C 1835  15.172   5.462   8.696  0.6785 -1.4654 -0.7281
   14MOL0     C 1836  15.307   5.513   8.732 -1.0712 -0.5802  0.2185
   14MOL0     C 1837  15.292   5.629   8.830 -0.5182  0.6366  0.1785
   14MOL0     C 1838  15.434   5.687   8.876 -0.2605  0.0393  0.2745
   14MOL0    Cl 1839  15.485   5.612   9.021  0.4023  0.1988  0.2787
   14MOL0     C 1840  14.455   5.458   8.424 -0.2867 -0.0490 -0.5011
   14MOL0     C 1841  14.331   5.420   8.392 -0.2978  0.7341 -0.6206
   14MOL0     O 1842  14.073   5.605   8.368  0.3608 -0.2027  0.3265
   14MOL0     C 1843  13.871   5.421   8.132 -0.5963 -0.2131 -0.3111
   14MOL0     C 1844  13.740   5.397   8.085 -0.3751 -0.3826  0.0234
   14MOL0     N 1845  12.966   5.570   8.143 -0.6865  0.5436 -0.2401
   14MOL0     N 1846  12.846   5.575   8.194 -0.0993 -0.0548  1.1705
   14MOL0     C 1847  11.799   5.494   8.362 -0.4505 -0.5624 -0.9369
   14MOL0     C 1848  11.700   5.401   8.406 -0.4300 -0.4997 -0.1422
   14MOL0     C 1849  11.359   5.219   8.577  0.1308 -0.3574  0.2095
   14MOL0     C 1850  11.243   5.230   8.658  0.2833 -0.3770  0.4084
   14MOL0     C 1851  11.185   5.123   8.719 -0.3646  0.4416  0.1602
   14MOL0     C 1852  11.244   5.002   8.714  0.3202 -0.0104 -0.4902
   14MOL0     O 1853  11.179   4.890   8.764  0.2149 -0.1262  0.4527
   14MOL0     C 1854  11.058   4.846   8.700  0.7401  0.3938  0.3606
   14MOL0     C 1855  11.067   4.800   8.556 -0.1499 -0.1599 -0.1125
   14MOL0     C 1856  11.147   4.680   8.540  0.5290 -0.3472 -0.4455
   14MOL0     C 1857  11.131   4.613   8.404  0.3432  0.4041  0.1955
   14MOL0     C 1858  11.217   4.497   8.394  0.7730 -0.3648 -0.6663
   14MOL0     C 1859  11.348   4.355   8.357 -0.6058 -0.5553 -0.4699
   14MOL0     C 1860  11.356   4.984   8.629 -0.1886  0.4783  0.4890
   14MOL0     C 1861  11.424   5.094   8.570  0.0564  0.0507  0.6193
   14MOL0     C 1862  11.560   5.066   8.499 -0.7536  0.1854 -0.6552
   14MOL0     H 1863  11.431   5.531   8.246 -0.7829 -2.5463  1.5474
   14MOL0     H 1864  11.593   5.717   8.205 -1.6401 -0.8580  0.6365
   14MOL0     H 1865  11.764   5.852   8.180 -1.7120 -0.9657 -1.0452
   14MOL0     H 1866  11.781   5.720   8.074 -2.3930 -0.2208  2.4005
   14MOL0     H 1867  11.959   5.876   7.997  1.8915 -1.1016 -1.0247
   14MOL0     H 1868  11.993   5.901   8.177 -2.1442 -2.4378  3.4407
   14MOL0     H 1869  12.121   5.709   8.181 -1.7383  3.4692  1.2855
   14MOL0     H 1870  12.046   5.628   8.036  0.6113 -0.0231 -0.5202
   14MOL0     H 1871  12.197   5.702   7.899  0.8096  0.3784 -0.7976
   14MOL0     H 1872  12.200   5.864   7.957  2.1085 -0.1492 -0.3476
   14MOL0     H 1873  12.348   5.797   8.147 -0.5377 -1.2282  0.1524
   14MOL0     H 1874  12.412   5.797   7.979 -0.8713 -0.8015 -2.5608
   14MOL0     H 1875  12.346   5.553   8.144 -0.0011  1.0494  0.4991
   14MOL0     H 1876  12.398   5.560   7.976 -0.7431 -0.1739 -0.3588
   14MOL0     H 1877  12.561   5.667   8.221  3.1761 -1.7483  0.4083
   14MOL0     H 1878  12.605   5.704   8.055  0.2934 -0.2843 -0.8665
   14MOL0     H 1879  12.592   5.441   8.207 -1.5233  3.0420  1.5977
   14MOL0     H 1880  12.584   5.428   8.034  1.6091  0.3035 -0.1391
   14MOL0     H 1881  12.794   5.394   7.930 -1.7709  0.3313  1.9957
   14MOL0     H 1882  13.076   5.522   7.851  0.0527 -1.2567 -0.2970
   14MOL0     H 1883  13.086   5.359   7.918  1.8863 -0.5740 -0.1589
   14MOL0     H 1884  13.294   5.495   7.936  1.4852  0.1117  2.2601
   14MOL0     H 1885  13.213   5.601   8.050  2.6455 -0.2878  0.3280
   14MOL0     H 1886  13.175   5.422   8.200  0.0643 -0.4767  0.8368
   14MOL0     H 1887  13.269   5.307   8.092  1.9582  0.5685 -1.0675
   14MOL0     H 1888  13.389   5.536   8.238 -1.6037 -0.5667  2.4285
   14MOL0     H 1889  13.407   5.364   8.287  1.0060  0.7544  1.1165
   14MOL0     H 1890  13.581   5.521   8.350 -0.5999 -0.3231 -1.7401
   14MOL0     H 1891  13.881   5.536   8.535 -1.2462 -2.6877  0.6032
   14MOL0     H 1892  13.715   5.571   8.531  0.0627 -1.7544 -0.0741
   14MOL0     H 1893  13.837   5.690   8.472 -0.8586 -0.2201  2.6031
   14MOL0     H 1894  14.298   5.584   8.107  1.5506 -0.2326  0.6039
   14MOL0     H 1895  14.521   5.664   8.170 -0.2178  0.2820 -0.1209
   14MOL0     H 1896  14.672   5.594   8.576 -3.2142 -2.0545 -1.2435
   14MOL0     H 1897  14.713   5.436   8.506  2.8982 -0.3383  1.7841
   14MOL0     H 1898  14.903   5.544   8.381  1.5542 -1.6248  1.1593
   14MOL0     H 1899  14.897   5.669   8.493  1.8906 -0.0116 -2.3882
   14MOL0     H 1900  14.966   5.375   8.555 -1.0135  0.4248  0.2805
   14MOL0     H 1901  14.894   5.484   8.674  0.9553 -2.2927  0.2620
   14MOL0     H 1902  15.090   5.641   8.609 -0.3706  0.0317 -1.6261
   14MOL0     H 1903  15.144   5.526   8.491  2.4862  0.8315  0.3542
   14MOL0     H 1904  15.114   5.475   8.787  1.6617 -2.1628  0.0198
   14MOL0     H 1905  15.187   5.355   8.682  0.0068 -1.4599 -1.5670
   14MOL0     H 1906  15.375   5.539   8.650 -1.4042 -0.8816 -0.1589
   14MOL0     H 1907  15.360   5.433   8.784  0.0683  1.1975  1.9354
   14MOL0     H 1908  15.238   5.601   8.921 -1.9887  0.3889 -0.7371
   14MOL0     H 1909  15.238   5.713   8.787 -1.6714  0.2771  0.8987
   14MOL0     H 1910  15.423   5.795   8.891 -0.6458  0.2581 -1.3795
   14MOL0     H 1911  15.517   5.671   8.808  0.8165  1.0343  1.3052
   14MOL0     H 1912  14.495   5.406   8.511  0.1604 -0.3942 -0.9124
   14MOL0     H 1913  14.285   5.355   8.465 -0.8843  1.1869 -0.5841
   14MOL0     H 1914  13.956   5.422   8.065  0.1071  0.8715  0.5606
   14MOL0     H 1915  13.733   5.357   7.984  2.4705 -2.2051  0.4367
   14MOL0     H 1916  11.903   5.483   8.392 -0.1751  1.7995 -0.8065
   14MOL0     H 1917  11.734   5.316   8.463 -1.7604 -1.0628 -0.1348
   14MOL0     H 1918  11.196   5.328   8.661  1.3079  0.1994 -1.1047
   14MOL0     H 1919  11.089   5.128   8.769  1.7151  2.4730  4.4130
   14MOL0     H 1920  11.022   4.764   8.763  1.0908 -0.3373 -0.3752
   14MOL0     H 1921  10.973   4.915   8.699 -2.8854 -3.4729 -3.4322
   14MOL0     H 1922  11.112   4.885   8.504  0.5439 -0.3494  0.1629
   14MOL0     H 1923  10.964   4.779   8.525 -0.7057 -2.3703  2.7428
   14MOL0     H 1924  11.251   4.710   8.554  0.8415 -1.5392 -0.0632
   14MOL0     H 1925  11.136   4.604   8.619  0.0047  2.3395  2.2478
   14MOL0     H 1926  11.153   4.685   8.325 -0.2735 -0.0465 -0.3967
   14MOL0     H 1927  11.028   4.585   8.382 -0.3570  1.9434  1.3236
   14MOL0     H 1928  11.428   4.286   8.340 -1.3822 -2.0287  1.5063
   14MOL0     H 1929  11.394   4.883   8.618 -1.8461 -0.2218  0.8909
   14MOL0     H 1930  11.587   4.960   8.504  1.1576  0.6872  0.4865
   14MOL0     H 1931  11.545   5.084   8.392  1.1310 -0.6936 -1.1237
   14MOL0     H 1932  11.642   5.123   8.543  1.1141 -1.7200 -1.5004
   15MOL0     O 1933  10.872   8.730   6.064 -0.6026  0.8272 -0.2094
   15MOL0     C 1934  10.812   8.642   6.112  0.8293  0.3530  0.8591
   15MOL0     O 1935  10.723   8.656   6.212  1.0320  0.0038 -0.3408
   15MOL0     C 1936  10.658   8.772   6.228 -0.6033 -0.0402 -1.1259
   15MOL0     C 1937  10.700   8.873   6.318 -0.2486 -0.2098  0.0559
   15MOL0     C 1938  10.611   8.981   6.345  0.4268 -0.3633  0.2483
   15MOL0     C 1939  10.481   8.992   6.284 -0.3079 -0.3617 -0.0715
   15MOL0     O 1940  10.381   9.082   6.334 -0.7774  0.6001  0.2567
   15MOL0     C 1941  10.435   9.190   6.412  0.2107  0.0649  0.4740
   15MOL0     C 1942  10.345   9.317   6.419 -0.0581  0.1434  1.3187
   15MOL0     C 1943  10.431   9.429   6.470 -0.1476 -0.3616  0.2780
   15MOL0     C 1944  10.350   9.557   6.459 -0.1804  0.9915 -0.4843
   15MOL0     C 1945  10.406   9.667   6.550  0.8091 -0.5729 -0.6417
   15MOL0     C 1946  10.520   9.740   6.481 -0.4207  0.2594 -0.7935
   15MOL0     C 1947  10.588   9.837   6.570 -0.3513  0.0897  1.0385
   15MOL0     C 1948  10.715   9.908   6.514  0.3937  0.7775  0.1170
   15MOL0     N 1949  10.838   9.830   6.501  0.3291  0.2855 -0.2103
   15MOL0     C 1950  10.880   9.756   6.610 -0.2268 -0.8323  0.5376
   15MOL0     C 1951  10.961   9.663   6.556  0.7951 -0.0053 -0.2109
   15MOL0     C 1952  11.029   9.575   6.649  0.2273 -0.5761  0.1458
   15MOL0     C 1953  11.167   9.634   6.690  0.1495 -0.5798  0.0445
   15MOL0     C 1954  11.279   9.625   6.583  0.0803 -0.1532 -0.0772
   15MOL0     C 1955  11.412   9.629   6.652  1.1536  0.0544  0.4008
   15MOL0     O 1956  11.514   9.600   6.561  0.2700 -0.3584  0.3038
   15MOL0     C 1957  11.614   9.512   6.589 -0.5227 -0.1239 -0.4572
   15MOL0     C 1958  11.668   9.492   6.720  0.2904 -0.3280  0.5913
   15MOL0     C 1959  11.785   9.412   6.752 -0.9449 -0.7337  0.3979
   15MOL0     C 1960  11.839   9.427   6.890  0.0116  0.6917 -0.5468
   15MOL0     C 1961  11.859   9.351   6.647 -0.2761  0.9116  0.2130
   15MOL0     C 1962  11.983   9.268   6.677  0.2534 -0.1235  0.1297
   15MOL0     O 1963  12.069   9.260   6.577  0.2895 -0.2251 -0.2090
   15MOL0     C 1964  12.177   9.177   6.595  0.7742  0.3241  0.2462
   15MOL0     C 1965  12.300   9.226   6.585  0.1433 -0.4186 -0.2170
   15MOL0     C 1966  12.408   9.137   6.583 -0.6796  0.0720  0.0760
   15MOL0     C 1967  12.397   9.001   6.594  0.9784  0.4421 -0.3111
   15MOL0     O 1968  12.503   8.912   6.581 -0.1636 -0.0620 -0.2715
   15MOL0     C 1969  12.639   8.944   6.629  0.0890  0.5156  0.2051
   15MOL0     C 1970  12.735   8.829   6.591 -0.3531 -0.0238  0.0216
   15MOL0     C 1971  12.716   8.705   6.680 -0.0442  0.6661 -0.9174
   15MOL0     C 1972  12.584   8.636   6.672 -0.1767 -0.2756  1.1685
   15MOL0     C 1973  12.547   8.587   6.532  0.0842  0.2421  0.3723
   15MOL0     C 1974  12.622   8.456   6.493 -0.1585 -0.6620  0.5251
   15MOL0     C 1975  12.551   8.378   6.384  0.4634  0.2721  0.1304
   15MOL0     C 1976  12.529   8.462   6.264  1.0964 -0.6094 -0.0477
   15MOL0    Cl 1977  12.452   8.370   6.134 -0.4537 -0.1983 -0.2911
   15MOL0     C 1978  12.273   8.946   6.597  0.7624  0.8371  0.3245
   15MOL0     C 1979  12.156   9.031   6.600  0.0725 -0.3409 -0.3668
   15MOL0     O 1980  11.990   9.214   6.786 -0.8128 -0.3899  0.6737
   15MOL0     C 1981  11.814   9.383   6.514  0.2475 -0.0245 -0.2756
   15MOL0     C 1982  11.689   9.458   6.485 -0.0663 -0.3225  0.5615
   15MOL0     N 1983  10.982   9.675   6.420  0.4082  0.7307 -0.0476
   15MOL0     N 1984  10.899   9.768   6.387 -0.1972  0.2414  0.2025
   15MOL0     C 1985  10.443   8.890   6.199 -0.0493  0.1128  0.2323
   15MOL0     C 1986  10.527   8.777   6.175 -0.1518 -0.5437  0.4193
   15MOL0     C 1987  10.844   8.503   6.074  0.1072 -0.7224 -0.5053
   15MOL0     C 1988  10.814   8.396   6.164  0.3934 -0.2514  0.4325
   15MOL0     C 1989  10.846   8.264   6.127  0.0278  0.5179 -0.5690
   15MOL0     C 1990  10.907   8.228   6.002 -0.1120 -0.0589  0.9303
   15MOL0     O 1991  10.929   8.097   5.960 -0.1226  0.2459  0.3831
   15MOL0     C 1992  10.931   8.005   6.069 -0.9319  0.2346  0.5621
   15MOL0     C 1993  10.972   7.869   6.005  0.0552 -0.5646 -0.0869
   15MOL0     C 1994  11.100   7.858   5.932  0.1078 -0.2100 -1.2207
   15MOL0     C 1995  11.129   7.712   5.897 -0.2709 -0.0260  0.0990
   15MOL0     C 1996  11.250   7.702   5.815 -0.1163 -0.5547  0.1604
   15MOL0     C 1997  11.348   7.718   5.746 -0.8087 -0.4360 -0.1151
   15MOL0     C 1998  10.929   8.335   5.912 -0.2725 -0.0647 -0.7223
   15MOL0     C 1999  10.901   8.471   5.941 -0.1374  0.4233 -0.7810
   15MOL0     C 2000  10.929   8.578   5.836 -0.8019 -0.4100  0.2007
   15MOL0     H 2001  10.786   8.860   6.384 -0.1619  0.5440  0.1099
   15MOL0     H 2002  10.641   9.037   6.433  1.3158 -0.1104 -0.2054
   15MOL0     H 2003  10.527   9.228   6.366 -0.1822  0.7377  0.2351
   15MOL0     H 2004  10.465   9.153   6.511 -1.0887 -1.5866  0.2805
   15MOL0     H 2005  10.314   9.339   6.317 -0.0982  1.3737  1.5694
   15MOL0     H 2006  10.260   9.308   6.487 -2.1152  1.0905 -0.9828
   15MOL0     H 2007  10.462   9.411   6.574 -1.5004 -0.7359  0.6361
   15MOL0     H 2008  10.519   9.435   6.405 -0.1683 -0.5795  0.2295
   15MOL0     H 2009  10.337   9.597   6.358 -2.7782  2.6498  0.4043
   15MOL0     H 2010  10.243   9.553   6.479 -0.3505  2.9432 -0.8293
   15MOL0     H 2011  10.427   9.634   6.653  3.0161  2.3408 -0.0206
   15MOL0     H 2012  10.323   9.737   6.544 -1.8531 -3.5971 -1.9743
   15MOL0     H 2013  10.599   9.675   6.443 -0.1190  1.6521 -2.7680
   15MOL0     H 2014  10.481   9.800   6.398 -0.6623  0.3501 -0.6160
   15MOL0     H 2015  10.632   9.787   6.656  2.3234  1.8897  0.8350
   15MOL0     H 2016  10.513   9.902   6.615 -0.4388 -0.2885  1.4360
   15MOL0     H 2017  10.682   9.946   6.417  1.3711  1.3480 -0.0062
   15MOL0     H 2018  10.746   9.987   6.582 -0.2134  0.8016  0.3669
   15MOL0     H 2019  10.854   9.779   6.713 -2.1794 -2.6942  0.5239
   15MOL0     H 2020  11.049   9.475   6.608  0.3000 -0.4941 -0.0181
   15MOL0     H 2021  10.966   9.555   6.737 -3.1143 -0.6397 -2.0870
   15MOL0     H 2022  11.161   9.735   6.731  2.6251 -0.6026  0.6021
   15MOL0     H 2023  11.191   9.568   6.774  1.1134 -0.2373  0.0511
   15MOL0     H 2024  11.268   9.534   6.523  0.0952 -1.1089  1.3327
   15MOL0     H 2025  11.274   9.707   6.510  0.3445 -1.9154 -2.1796
   15MOL0     H 2026  11.428   9.714   6.720 -0.9103 -2.8320  4.9895
   15MOL0     H 2027  11.407   9.548   6.725  2.7426  0.7769  1.3661
   15MOL0     H 2028  11.609   9.540   6.798 -2.7110 -1.5634 -0.7655
   15MOL0     H 2029  11.785   9.501   6.949  0.2385 -1.2485  2.3144
   15MOL0     H 2030  11.944   9.455   6.880  0.6490 -1.2022  0.2534
   15MOL0     H 2031  11.832   9.334   6.947  1.6236 -0.3564 -1.9424
   15MOL0     H 2032  12.304   9.334   6.583 -5.4253  0.1023 -0.4089
   15MOL0     H 2033  12.510   9.174   6.582 -1.3332  2.2405 -2.9009
   15MOL0     H 2034  12.670   9.041   6.589  0.5867 -0.8858 -3.1615
   15MOL0     H 2035  12.638   8.956   6.738  2.3739  1.9636  0.1221
   15MOL0     H 2036  12.726   8.806   6.485  0.2394  0.1891 -0.0785
   15MOL0     H 2037  12.837   8.866   6.607 -0.1541 -0.7757  0.5422
   15MOL0     H 2038  12.734   8.733   6.784 -0.3896  1.3183 -1.0289
   15MOL0     H 2039  12.794   8.634   6.649 -1.2179 -1.4445  0.6909
   15MOL0     H 2040  12.507   8.706   6.707  2.0745  3.1667 -0.1460
   15MOL0     H 2041  12.601   8.549   6.736  3.5345  0.9656  2.1320
   15MOL0     H 2042  12.441   8.565   6.544 -0.1682  1.0401 -0.2972
   15MOL0     H 2043  12.558   8.671   6.463 -0.7988 -0.5198 -0.7206
   15MOL0     H 2044  12.616   8.389   6.580  0.7194 -2.4087 -0.7119
   15MOL0     H 2045  12.729   8.473   6.473 -0.4139 -1.1746 -1.4177
   15MOL0     H 2046  12.452   8.351   6.422  0.2381  1.1419  0.1832
   15MOL0     H 2047  12.608   8.289   6.357 -0.9024 -0.0338 -1.9353
   15MOL0     H 2048  12.622   8.505   6.224 -0.5969  4.5976  0.8171
   15MOL0     H 2049  12.466   8.548   6.291  1.9655  0.4388 -1.2337
   15MOL0     H 2050  12.271   8.839   6.584 -0.9760  0.9081 -0.2457
   15MOL0     H 2051  12.056   8.994   6.577 -1.3482  3.5747 -1.1821
   15MOL0     H 2052  11.878   9.357   6.430 -1.4455  1.1939 -2.0033
   15MOL0     H 2053  11.659   9.476   6.382  1.9045 -1.1085 -0.1963
   15MOL0     H 2054  10.342   8.886   6.162  0.0271 -0.3954  0.0767
   15MOL0     H 2055  10.493   8.691   6.119  1.1339 -0.0928 -1.1326
   15MOL0     H 2056  10.770   8.409   6.263 -0.3749  1.4932 -0.1108
   15MOL0     H 2057  10.833   8.178   6.191  2.2942 -1.3467 -2.4235
   15MOL0     H 2058  11.010   8.028   6.141 -2.3506  1.4677  1.7909
   15MOL0     H 2059  10.834   8.002   6.120 -0.4345  0.6506  1.5495
   15MOL0     H 2060  10.885   7.852   5.941 -0.8712  2.7266  0.1073
   15MOL0     H 2061  10.988   7.792   6.081  1.8494 -0.4325 -0.2751
   15MOL0     H 2062  11.075   7.905   5.836  0.2673  1.3704 -0.5216
   15MOL0     H 2063  11.192   7.894   5.978 -1.1281 -1.9085  3.0456
   15MOL0     H 2064  11.037   7.669   5.857  0.4925 -2.6087  0.9356
   15MOL0     H 2065  11.152   7.648   5.983  2.2302  1.4224  0.6059
   15MOL0     H 2066  11.446   7.716   5.702 -0.7821  2.2661 -0.3496
   15MOL0     H 2067  10.988   8.297   5.829 -2.0760 -2.5753 -0.9804
   15MOL0     H 2068  10.944   8.525   5.741  0.0117  0.2054 -0.0219
   15MOL0     H 2069  10.848   8.649   5.817 -0.1319  0.6233  1.1301
   15MOL0     H 2070  11.014   8.635   5.874 -1.4277  0.9091 -0.3160
   16MOL0     O 2071   8.974   9.730   8.765 -0.2790 -0.1819  0.0876
   16MOL0     C 2072   8.865   9.781   8.796  0.3907 -0.6798  0.5254
   16MOL0     O 2073   8.856   9.909   8.857 -0.0115  0.0374 -0.2924
   16MOL0     C 2074   8.973   9.984   8.849 -0.0417 -0.7649  0.3117
   16MOL0     C 2075   9.009  10.044   8.726  0.2652  0.1056  0.2219
   16MOL0     C 2076   9.123  10.121   8.725 -0.3659 -0.3020 -0.3211
   16MOL0     C 2077   9.209  10.128   8.834  0.0794  1.0469  0.5867
   16MOL0     O 2078   9.325  10.193   8.813  0.0765  0.3598 -0.0128
   16MOL0     C 2079   9.410  10.223   8.925  0.0962 -0.8255 -0.4960
   16MOL0     C 2080   9.530  10.294   8.861  0.7636 -0.0949 -0.3215
   16MOL0     C 2081   9.617  10.355   8.967 -0.1241  0.8268 -0.2409
   16MOL0     C 2082   9.715  10.458   8.919 -0.1987 -0.1676 -0.2179
   16MOL0     C 2083   9.832  10.480   9.011  0.5390 -0.1119 -0.1330
   16MOL0     C 2084   9.934  10.361   9.026 -0.8294 -0.2580 -0.3009
   16MOL0     C 2085   9.993  10.311   8.899 -0.0252  0.5656 -0.3255
   16MOL0     C 2086  10.032  10.413   8.803 -0.9389  0.4619  0.4773
   16MOL0     N 2087  10.092  10.341   8.690 -0.4672 -0.4493 -0.3023
   16MOL0     C 2088  10.221  10.283   8.684  0.0596 -0.9216 -0.2073
   16MOL0     C 2089  10.246  10.267   8.552  0.9648 -0.3163  0.9112
   16MOL0     C 2090  10.375  10.202   8.500  0.3457 -0.6620  0.6005
   16MOL0     C 2091  10.484  10.292   8.447  0.1234 -0.3412  1.0414
   16MOL0     C 2092  10.566  10.362   8.560 -0.3992  0.0842  0.0829
   16MOL0     C 2093  10.686  10.435   8.509 -0.0355 -0.3531 -0.6164
   16MOL0     O 2094  10.784  10.344   8.459  0.0163 -0.6491 -0.3511
   16MOL0     C 2095  10.899  10.346   8.524 -0.7259  0.4166  0.3771
   16MOL0     C 2096  10.937  10.250   8.611  0.2890  0.7626 -0.2114
   16MOL0     C 2097  11.063  10.258   8.683  0.9639 -0.6420 -1.1074
   16MOL0     C 2098  11.084  10.160   8.790  0.2197  0.1575 -0.0336
   16MOL0     C 2099  11.153  10.363   8.650  0.7400 -0.4198  0.5648
   16MOL0     C 2100  11.276  10.395   8.722  0.3451  0.0424 -0.3377
   16MOL0     O 2101  11.334  10.517   8.702 -0.3661  0.8324 -0.8377
   16MOL0     C 2102  11.463  10.541   8.749  0.5330 -0.2532 -0.1838
   16MOL0     C 2103  11.575  10.550   8.672  0.1284  0.8219 -0.1862
   16MOL0     C 2104  11.697  10.576   8.736 -0.2581 -0.4071 -0.3870
   16MOL0     C 2105  11.703  10.603   8.879 -0.2943 -1.1855  0.5232
   16MOL0     O 2106  11.824  10.637   8.939  0.2688 -0.4969 -0.1941
   16MOL0     C 2107  11.934  10.684   8.864  0.0862 -0.0994  0.0135
   16MOL0     C 2108  12.043  10.722   8.959 -1.1043  0.6042 -0.1974
   16MOL0     C 2109  12.180  10.739   8.882 -0.2658 -0.4574 -0.4837
   16MOL0     C 2110  12.269  10.842   8.950 -0.4952 -0.1576 -0.7959
   16MOL0     C 2111  12.367  10.911   8.858  0.3883 -0.4378  0.5971
   16MOL0     C 2112  12.468  10.818   8.782 -0.6101  0.4899  0.0006
   16MOL0     C 2113  12.565  10.763   8.882 -1.0306  0.3861 -0.1583
   16MOL0     C 2114  12.694  10.706   8.817 -0.3924  0.1699 -0.4221
   16MOL0    Cl 2115  12.655  10.565   8.715  0.2433 -0.1748  0.1450
   16MOL0     C 2116  11.588  10.592   8.948  1.1520 -0.6478  0.0069
   16MOL0     C 2117  11.468  10.557   8.889 -0.4501  0.3349  0.6194
   16MOL0     O 2118  11.334  10.298   8.776 -0.4138  0.5995  0.6645
   16MOL0     C 2119  11.109  10.453   8.549 -0.0933 -0.2765  0.4943
   16MOL0     C 2120  10.980  10.447   8.490 -1.1974 -0.9709  0.9089
   16MOL0     N 2121  10.132  10.303   8.475  0.2927  0.0191 -0.8571
   16MOL0     N 2122  10.041  10.342   8.562 -0.1047  0.2438 -0.0643
   16MOL0     C 2123   9.176  10.068   8.955  0.6509 -0.7144  0.1008
   16MOL0     C 2124   9.054  10.002   8.966  0.5007  0.2159 -0.5217
   16MOL0     C 2125   8.741   9.698   8.773 -0.1914 -1.0338 -1.5450
   16MOL0     C 2126   8.628   9.712   8.856  0.1347  0.4733 -0.0693
   16MOL0     C 2127   8.513   9.644   8.815 -0.4457 -0.2435  1.0852
   16MOL0     C 2128   8.503   9.566   8.699  0.1207  0.6784  0.2264
   16MOL0     O 2129   8.387   9.503   8.657 -0.0005 -0.1470 -0.3523
   16MOL0     C 2130   8.268   9.559   8.701 -0.1155 -0.4438  0.1337
   16MOL0     C 2131   8.156   9.485   8.628 -0.3671  0.2415  0.7238
   16MOL0     C 2132   8.150   9.509   8.470 -0.7101  0.0409  1.1875
   16MOL0     C 2133   8.084   9.639   8.431 -0.1349 -0.3336  0.0540
   16MOL0     C 2134   8.042   9.648   8.289  0.1652 -0.4396 -0.6517
   16MOL0     C 2135   7.992   9.662   8.182 -0.3892 -0.1963 -0.2315
   16MOL0     C 2136   8.613   9.545   8.618 -0.5684  0.2435  0.1655
   16MOL0     C 2137   8.732   9.616   8.652  0.4570 -0.1073  0.7708
   16MOL0     C 2138   8.844   9.607   8.547 -0.0306  0.1993 -0.4152
   16MOL0     H 2139   8.937  10.034   8.646  1.5825 -2.1249 -0.8055
   16MOL0     H 2140   9.142  10.163   8.627 -1.3754  0.6615 -0.1222
   16MOL0     H 2141   9.428  10.132   8.983  0.3537 -2.5613 -3.1430
   16MOL0     H 2142   9.358  10.299   8.985  1.3574  0.0962 -0.5242
   16MOL0     H 2143   9.593  10.223   8.806  1.1876 -0.0924  0.1500
   16MOL0     H 2144   9.492  10.376   8.799 -0.6530 -1.3076 -1.1374
   16MOL0     H 2145   9.554  10.393   9.048  1.0513 -0.0494  1.1356
   16MOL0     H 2146   9.675  10.276   9.017 -0.2942  1.4628  1.0044
   16MOL0     H 2147   9.767  10.419   8.831 -0.3792  0.3691 -0.5637
   16MOL0     H 2148   9.653  10.547   8.907 -1.7446 -1.5170 -3.1417
   16MOL0     H 2149   9.780  10.505   9.104 -0.0438  0.6095 -0.6431
   16MOL0     H 2150   9.876  10.574   8.976  1.9489 -0.9482 -0.6855
   16MOL0     H 2151  10.020  10.390   9.088 -0.7017  1.9981 -1.4203
   16MOL0     H 2152   9.884  10.285   9.087 -0.9130  1.5122  1.9586
   16MOL0     H 2153   9.911  10.249   8.862  1.3568 -0.9314 -0.9917
   16MOL0     H 2154  10.076  10.246   8.927 -2.0128 -2.5418 -1.0883
   16MOL0     H 2155   9.960  10.484   8.762  2.6597  3.3314 -1.5243
   16MOL0     H 2156  10.110  10.469   8.855  0.6077 -1.6204  0.5300
   16MOL0     H 2157  10.279  10.243   8.766 -4.4178 -5.2154  1.3580
   16MOL0     H 2158  10.336  10.140   8.418  0.0710 -1.2513  1.1651
   16MOL0     H 2159  10.426  10.134   8.570  1.5227 -0.6000 -0.1718
   16MOL0     H 2160  10.549  10.234   8.382  0.9383  0.1335  1.4100
   16MOL0     H 2161  10.425  10.364   8.390  0.4731 -0.5724  0.3835
   16MOL0     H 2162  10.515  10.438   8.619  1.4358 -0.3657  2.3864
   16MOL0     H 2163  10.612  10.289   8.627 -1.5243 -1.5744 -0.8755
   16MOL0     H 2164  10.655  10.506   8.432  0.8294 -0.9981 -1.5730
   16MOL0     H 2165  10.718  10.499   8.592 -3.8592  1.9278 -0.6321
   16MOL0     H 2166  10.865  10.171   8.632  1.3157 -0.2426 -0.4350
   16MOL0     H 2167  11.079  10.205   8.890 -1.6780 -0.9650  0.4337
   16MOL0     H 2168  11.178  10.107   8.774  1.3575  2.6652 -2.2994
   16MOL0     H 2169  11.000  10.091   8.787  0.0207  0.4074 -0.1848
   16MOL0     H 2170  11.577  10.517   8.569  1.2365  1.2572 -0.3110
   16MOL0     H 2171  11.782  10.578   8.669 -0.1593  0.3302 -0.2475
   16MOL0     H 2172  11.977  10.610   8.796  0.4301  0.4084 -0.3194
   16MOL0     H 2173  11.911  10.781   8.821  1.0314 -0.5822 -1.6827
   16MOL0     H 2174  12.022  10.817   9.010 -0.9693  1.5659 -1.8823
   16MOL0     H 2175  12.053  10.641   9.032  0.0497 -2.3761 -3.4001
   16MOL0     H 2176  12.166  10.788   8.786 -0.5254  1.3643  0.4375
   16MOL0     H 2177  12.234  10.646   8.862 -1.0830 -0.6547 -1.8902
   16MOL0     H 2178  12.330  10.801   9.031 -3.4428  1.1124  2.2672
   16MOL0     H 2179  12.199  10.912   8.995 -0.1234 -0.3260  0.0611
   16MOL0     H 2180  12.314  10.960   8.776  1.2171  0.5554  0.6308
   16MOL0     H 2181  12.430  10.985   8.907 -0.7472  1.6776 -0.9652
   16MOL0     H 2182  12.520  10.874   8.703 -0.0218 -1.2871 -0.9290
   16MOL0     H 2183  12.426  10.728   8.736  2.9429 -1.7088  0.6877
   16MOL0     H 2184  12.525  10.675   8.933 -0.1151  1.2480  2.1868
   16MOL0     H 2185  12.589  10.827   8.967  0.5863 -1.4125  0.8286
   16MOL0     H 2186  12.759  10.676   8.899 -0.9318 -3.0348 -1.0528
   16MOL0     H 2187  12.738  10.785   8.755  1.5532  0.1569  0.8736
   16MOL0     H 2188  11.601  10.607   9.055 -1.6043 -2.5177  0.7277
   16MOL0     H 2189  11.379  10.546   8.950 -0.7396 -3.9701 -0.2811
   16MOL0     H 2190  11.177  10.536   8.532 -1.2191  0.1596 -2.2460
   16MOL0     H 2191  10.948  10.522   8.418  0.8635 -1.2650 -0.4073
   16MOL0     H 2192   9.241  10.064   9.042 -0.4144 -1.6188  0.8801
   16MOL0     H 2193   9.013   9.943   9.048 -0.9683 -2.9205 -3.2786
   16MOL0     H 2194   8.630   9.752   8.957  1.0793  3.2436 -1.0958
   16MOL0     H 2195   8.426   9.653   8.879 -0.6567  2.9109  0.4939
   16MOL0     H 2196   8.258   9.557   8.810  1.8534 -1.3631  0.3454
   16MOL0     H 2197   8.267   9.665   8.674  0.2747 -1.0154 -2.3904
   16MOL0     H 2198   8.056   9.505   8.667 -0.5860  1.3110 -0.2975
   16MOL0     H 2199   8.183   9.381   8.643 -0.6730 -0.0979 -0.8287
   16MOL0     H 2200   8.253   9.499   8.435 -1.4042 -3.2823 -0.3031
   16MOL0     H 2201   8.094   9.426   8.424 -0.1854 -0.0468  0.7027
   16MOL0     H 2202   8.146   9.722   8.464 -1.3133 -0.0990  1.8049
   16MOL0     H 2203   7.996   9.657   8.493  1.6434 -1.2199  3.0797
   16MOL0     H 2204   7.937   9.683   8.093 -3.7540  0.8687  1.9238
   16MOL0     H 2205   8.601   9.474   8.536 -0.6931  1.6759 -1.0987
   16MOL0     H 2206   8.913   9.531   8.586 -0.3138  1.4850  2.8348
   16MOL0     H 2207   8.793   9.576   8.455 -2.1842  3.5835 -0.5426
   16MOL0     H 2208   8.885   9.704   8.519 -0.7396 -0.0749 -2.5682
   17MOL0     O 2209   7.787   4.124   8.931  0.4063 -1.0375 -0.4979
   17MOL0     C 2210   7.711   4.109   8.829  0.0846  0.4757  0.7381
   17MOL0     O 2211   7.759   4.060   8.717 -0.7167  0.7097  0.5960
   17MOL0     C 2212   7.890   4.011   8.718  0.4717  0.0854 -0.2178
   17MOL0     C 2213   7.991   4.068   8.633 -0.2001 -0.5171  0.1493
   17MOL0     C 2214   8.114   4.007   8.646  0.3961 -0.1849  0.2212
   17MOL0     C 2215   8.135   3.894   8.739  0.2072  0.0115 -0.1405
   17MOL0     O 2216   8.254   3.823   8.747  0.6411 -0.6525 -0.4354
   17MOL0     C 2217   8.362   3.860   8.662 -1.0845  0.4054  0.5862
   17MOL0     C 2218   8.492   3.785   8.697 -0.0864 -0.4354  0.1687
   17MOL0     C 2219   8.551   3.831   8.823 -0.4943  1.1354  0.6529
   17MOL0     C 2220   8.695   3.793   8.834 -0.0036 -0.0060  0.2156
   17MOL0     C 2221   8.723   3.662   8.919  0.1620  0.0668  0.6053
   17MOL0     C 2222   8.856   3.594   8.878 -0.8156 -0.4141  0.4929
   17MOL0     C 2223   8.890   3.497   8.993 -0.3305 -0.0708 -0.0330
   17MOL0     C 2224   9.029   3.439   8.976  0.3058 -0.2536 -0.8531
   17MOL0     N 2225   9.140   3.530   9.006 -0.4260 -0.2137  0.0000
   17MOL0     C 2226   9.219   3.618   8.911  0.5504 -0.0111  0.0600
   17MOL0     C 2227   9.315   3.677   8.983  0.3089  0.3495  0.9131
   17MOL0     C 2228   9.418   3.784   8.942 -0.3776  0.1773  0.0250
   17MOL0     C 2229   9.557   3.741   8.985  0.1015 -0.2622 -0.4912
   17MOL0     C 2230   9.592   3.787   9.130  0.2295  0.8235 -0.4875
   17MOL0     C 2231   9.730   3.734   9.170  0.1412 -0.6779  0.0431
   17MOL0     O 2232   9.835   3.814   9.098  1.4557 -0.3141 -0.3204
   17MOL0     C 2233   9.962   3.817   9.152 -0.4340 -0.0178  0.2611
   17MOL0     C 2234   9.994   3.723   9.244  0.1061  0.5270 -0.7453
   17MOL0     C 2235  10.116   3.723   9.318  1.0605  0.5859 -0.5536
   17MOL0     C 2236  10.132   3.605   9.413 -0.3686  0.0142 -0.1533
   17MOL0     C 2237  10.205   3.838   9.302 -0.2455  0.8385 -0.1440
   17MOL0     C 2238  10.332   3.854   9.383 -0.6184 -0.4545  0.2690
   17MOL0     O 2239  10.417   3.963   9.351 -0.5785 -0.0918  0.0545
   17MOL0     C 2240  10.521   3.986   9.433  0.3748 -0.4531 -0.0754
   17MOL0     C 2241  10.515   4.068   9.550 -0.1903  0.0190  1.0788
   17MOL0     C 2242  10.619   4.086   9.634  0.3502  1.1664  0.3842
   17MOL0     C 2243  10.733   4.000   9.620 -1.0268  0.6012  0.3636
   17MOL0     O 2244  10.833   3.991   9.714  0.2581 -0.5665 -0.3677
   17MOL0     C 2245  10.868   4.120   9.774 -0.4326 -0.0930  0.0289
   17MOL0     C 2246  10.817   4.122   9.913  0.1432  0.6002  0.3493
   17MOL0     C 2247  10.846   4.260   9.968 -0.3814  0.0990  0.5094
   17MOL0     C 2248  10.735   4.368   9.941  0.1659  0.2064  0.3763
   17MOL0     C 2249  10.773   4.502  10.026  0.7594  0.4483  0.1773
   17MOL0     C 2250  10.654   4.597  10.044  0.8160 -0.0430 -1.0364
   17MOL0     C 2251  10.591   4.648   9.912  0.4835 -0.1903  0.1989
   17MOL0     C 2252  10.431   4.638   9.918  0.5415 -0.0917  0.8148
   17MOL0    Cl 2253  10.355   4.756  10.043 -0.3190  0.2839  0.1164
   17MOL0     C 2254  10.738   3.915   9.508  0.0950 -0.0945 -0.6484
   17MOL0     C 2255  10.641   3.907   9.408  0.1700 -0.2921 -0.0624
   17MOL0     O 2256  10.347   3.775   9.472 -0.7083  0.0888 -0.3428
   17MOL0     C 2257  10.167   3.930   9.208  0.4655 -0.2296  0.6074
   17MOL0     C 2258  10.047   3.918   9.135  0.5004 -0.0746 -0.5167
   17MOL0     N 2259   9.300   3.635   9.118  0.6044  1.0686 -0.5592
   17MOL0     N 2260   9.206   3.542   9.124 -0.0181  0.6600 -0.6860
   17MOL0     C 2261   8.026   3.837   8.809 -0.6477 -0.6772  0.0145
   17MOL0     C 2262   7.905   3.891   8.796 -0.8670  0.4863 -0.0150
   17MOL0     C 2263   7.561   4.136   8.826  0.0314 -0.5545  0.8587
   17MOL0     C 2264   7.482   4.120   8.701  0.1030  0.9422  0.4907
   17MOL0     C 2265   7.347   4.130   8.702 -0.2018 -0.5311 -0.1664
   17MOL0     C 2266   7.278   4.164   8.813  0.6123 -0.0272 -0.1392
   17MOL0     O 2267   7.143   4.191   8.804 -0.2471 -0.2408  0.2743
   17MOL0     C 2268   7.067   4.182   8.928 -0.8106  0.2144 -0.0084
   17MOL0     C 2269   6.920   4.164   8.911 -0.0926  0.3556  0.0702
   17MOL0     C 2270   6.882   4.022   8.881 -0.3389 -0.0925  0.1784
   17MOL0     C 2271   6.750   4.022   8.816 -0.4672  0.7592  0.2382
   17MOL0     C 2272   6.656   4.108   8.885 -0.0676 -0.4635  0.7773
   17MOL0     C 2273   6.561   4.180   8.919 -0.3161  0.4313  0.2682
   17MOL0     C 2274   7.352   4.193   8.933  0.1199  0.1437  0.5469
   17MOL0     C 2275   7.489   4.172   8.943  0.4149 -0.7384  0.1810
   17MOL0     C 2276   7.549   4.197   9.079  0.5405 -1.2090  0.1630
   17MOL0     H 2277   7.973   4.156   8.573 -0.8959 -1.3709 -0.9361
   17MOL0     H 2278   8.184   4.054   8.577 -2.2056  1.9644 -1.1707
   17MOL0     H 2279   8.376   3.968   8.670 -1.0837  0.4036  0.6093
   17MOL0     H 2280   8.338   3.826   8.561  3.0694 -1.3189 -0.0307
   17MOL0     H 2281   8.468   3.679   8.709  0.6382 -0.5394  0.7342
   17MOL0     H 2282   8.560   3.812   8.615  0.9172  1.4335  1.5523
   17MOL0     H 2283   8.549   3.941   8.819  1.3462  1.2018  0.6418
   17MOL0     H 2284   8.487   3.791   8.901  0.4579  0.8517  1.3026
   17MOL0     H 2285   8.737   3.776   8.734  1.2469 -1.1333  0.9022
   17MOL0     H 2286   8.747   3.870   8.892  1.7585 -2.3144  1.8912
   17MOL0     H 2287   8.639   3.593   8.914  1.6685 -2.2489  3.8649
   17MOL0     H 2288   8.717   3.702   9.020  1.6728 -1.9862  1.5819
   17MOL0     H 2289   8.867   3.550   8.779  0.3621 -1.3062  0.9994
   17MOL0     H 2290   8.925   3.679   8.878  0.3746 -1.3168 -1.7776
   17MOL0     H 2291   8.824   3.411   8.987  0.1749 -0.5013  0.3937
   17MOL0     H 2292   8.882   3.549   9.090 -1.2319 -0.2356 -0.0111
   17MOL0     H 2293   9.036   3.368   9.059 -2.8107  0.7849  0.4453
   17MOL0     H 2294   9.034   3.390   8.878  0.5896  0.6937 -1.3281
   17MOL0     H 2295   9.197   3.630   8.806  1.5703  2.2144  0.0554
   17MOL0     H 2296   9.391   3.885   8.976  0.3840  1.0771 -1.8422
   17MOL0     H 2297   9.419   3.784   8.832  0.1611  0.1296  0.0240
   17MOL0     H 2298   9.571   3.633   8.972  0.1988 -0.6409  2.1272
   17MOL0     H 2299   9.630   3.777   8.912 -0.3732 -0.6720 -1.1751
   17MOL0     H 2300   9.584   3.896   9.143  0.1888  0.8395 -0.6479
   17MOL0     H 2301   9.516   3.756   9.202  1.1163 -0.0142  0.1219
   17MOL0     H 2302   9.732   3.748   9.279 -3.8433 -0.9255  0.3117
   17MOL0     H 2303   9.740   3.629   9.143 -1.9003 -0.5683 -1.3781
   17MOL0     H 2304   9.933   3.635   9.263  1.9717 -0.9297 -1.1384
   17MOL0     H 2305  10.154   3.638   9.515 -1.0079 -3.5302  1.2767
   17MOL0     H 2306  10.212   3.542   9.373  0.4233  1.2105 -0.5246
   17MOL0     H 2307  10.037   3.551   9.419 -1.6111  1.8568 -1.8447
   17MOL0     H 2308  10.428   4.133   9.560  1.1553  2.0226  0.1802
   17MOL0     H 2309  10.602   4.157   9.714  0.1480  2.5048 -0.8024
   17MOL0     H 2310  10.977   4.123   9.774 -0.3415 -0.9058  2.7713
   17MOL0     H 2311  10.832   4.204   9.715  2.1077 -0.8538 -2.8690
   17MOL0     H 2312  10.718   4.078   9.924  0.5540 -0.8767 -1.4034
   17MOL0     H 2313  10.871   4.053   9.978 -0.6383  2.1728  2.7886
   17MOL0     H 2314  10.935   4.310   9.929 -1.4994  0.9781 -1.0507
   17MOL0     H 2315  10.864   4.245  10.075  4.1015 -1.2110 -0.2297
   17MOL0     H 2316  10.638   4.333   9.977  0.2291  1.0381  1.3884
   17MOL0     H 2317  10.722   4.391   9.835 -1.4839 -1.0194  0.2839
   17MOL0     H 2318  10.811   4.462  10.121 -0.1756 -3.0281 -0.7694
   17MOL0     H 2319  10.859   4.545   9.973 -1.7335  2.5832 -2.4236
   17MOL0     H 2320  10.692   4.686  10.097  3.0719 -1.2113 -0.5572
   17MOL0     H 2321  10.585   4.545  10.111  0.9399  0.5894 -0.4010
   17MOL0     H 2322  10.628   4.591   9.826  2.1805 -0.1263  0.8516
   17MOL0     H 2323  10.621   4.752   9.897  1.7220 -0.8358 -2.4861
   17MOL0     H 2324  10.411   4.536   9.951 -0.5060 -0.1073  0.1793
   17MOL0     H 2325  10.371   4.648   9.827 -1.2907 -0.0617  1.9902
   17MOL0     H 2326  10.828   3.858   9.488 -0.4384 -1.7001  1.2632
   17MOL0     H 2327  10.641   3.830   9.332  2.0618 -2.0769  1.6511
   17MOL0     H 2328  10.238   4.010   9.189 -0.5276 -0.0462 -2.9951
   17MOL0     H 2329  10.034   3.983   9.050  0.7820  0.5745 -0.0700
   17MOL0     H 2330   8.042   3.743   8.860 -1.0807  0.1473  1.7510
   17MOL0     H 2331   7.819   3.854   8.851 -1.5367 -1.2043 -2.0859
   17MOL0     H 2332   7.536   4.099   8.609 -1.2613  0.1508 -0.1563
   17MOL0     H 2333   7.294   4.135   8.608 -0.1416  2.2023 -0.1251
   17MOL0     H 2334   7.105   4.102   8.993  0.9051  0.2236 -0.9294
   17MOL0     H 2335   7.080   4.274   8.986 -1.5621 -1.1183  2.4389
   17MOL0     H 2336   6.884   4.221   8.825 -0.1743  0.4031  0.1355
   17MOL0     H 2337   6.875   4.186   9.009 -0.5554 -2.1998  0.5003
   17MOL0     H 2338   6.952   3.971   8.814  0.9541 -0.4415  1.7510
   17MOL0     H 2339   6.897   3.959   8.969  0.3755 -3.4572 -2.1632
   17MOL0     H 2340   6.700   3.925   8.809  1.2872 -0.7189  4.8083
   17MOL0     H 2341   6.768   4.075   8.722 -0.4289  2.1315  0.9965
   17MOL0     H 2342   6.478   4.246   8.934 -0.9139 -0.5271  1.3366
   17MOL0     H 2343   7.299   4.229   9.021  0.0019  0.5836  0.2990
   17MOL0     H 2344   7.474   4.203   9.158  1.3211 -1.9913  0.9775
   17MOL0     H 2345   7.612   4.113   9.108 -0.6103 -2.4782 -0.9145
   17MOL0     H 2346   7.602   4.292   9.088  1.0228 -1.6766  3.5791
   18MOL0     O 2347   4.802   1.816   6.715 -0.1449  0.6999  0.8876
   18MOL0     C 2348   4.794   1.775   6.831 -0.6471 -0.0792  0.2543
   18MOL0     O 2349   4.903   1.747   6.912 -0.7487 -0.1138 -0.0278
   18MOL0     C 2350   5.024   1.765   6.858  0.5228 -0.5180 -0.1070
   18MOL0     C 2351   5.068   1.690   6.755  0.2733  0.3186  0.2861
   18MOL0     C 2352   5.199   1.705   6.714 -0.2592 -0.1361  0.1319
   18MOL0     C 2353   5.287   1.801   6.767 -0.7293  0.4190  0.2828
   18MOL0     O 2354   5.421   1.819   6.738 -0.5390  0.1246  0.1776
   18MOL0     C 2355   5.483   1.703   6.680 -0.3858 -0.6326  0.1336
   18MOL0     C 2356   5.626   1.738   6.677 -0.1789  0.0556 -0.3281
   18MOL0     C 2357   5.716   1.672   6.567 -0.0432 -0.9465 -0.2884
   18MOL0     C 2358   5.851   1.705   6.589  0.1846  0.0769  0.4895
   18MOL0     C 2359   5.945   1.630   6.494 -0.5216  0.6995 -0.1354
   18MOL0     C 2360   6.096   1.669   6.482 -0.1443 -0.4927 -0.6215
   18MOL0     C 2361   6.125   1.816   6.452  0.0245  0.5620  0.7086
   18MOL0     C 2362   6.072   1.861   6.314 -0.1114  0.3745 -0.2731
   18MOL0     N 2363   6.103   1.778   6.196 -0.2364  0.0604 -0.7138
   18MOL0     C 2364   6.219   1.780   6.124 -0.2364  0.0676  0.2259
   18MOL0     C 2365   6.194   1.706   6.008  0.6273  0.1426 -0.3016
   18MOL0     C 2366   6.303   1.681   5.901  0.5131 -0.6999 -0.0460
   18MOL0     C 2367   6.284   1.551   5.821 -0.5164 -0.2566  0.2084
   18MOL0     C 2368   6.398   1.516   5.724 -0.0657  0.2171  0.5379
   18MOL0     C 2369   6.460   1.635   5.649  0.3782  0.3099 -0.7650
   18MOL0     O 2370   6.535   1.575   5.546 -0.1077 -0.3086 -0.7001
   18MOL0     C 2371   6.656   1.522   5.579 -0.2493 -0.1035  0.0934
   18MOL0     C 2372   6.723   1.472   5.470  0.4096 -0.6327 -0.2752
   18MOL0     C 2373   6.848   1.407   5.472  0.6019  0.1252  0.0244
   18MOL0     C 2374   6.915   1.357   5.354  0.8897  0.2148  0.7049
   18MOL0     C 2375   6.926   1.427   5.597 -0.0262  0.2635 -0.5280
   18MOL0     C 2376   7.062   1.377   5.616  0.0269  0.3266  0.1196
   18MOL0     O 2377   7.089   1.255   5.566  0.0982 -0.6247 -0.6101
   18MOL0     C 2378   7.211   1.196   5.603 -0.4025  0.2621  0.4606
   18MOL0     C 2379   7.324   1.247   5.544 -0.0013  0.1162  0.2273
   18MOL0     C 2380   7.443   1.186   5.558 -0.2843 -0.3511 -0.3730
   18MOL0     C 2381   7.462   1.080   5.645 -0.3465  0.3824  0.3981
   18MOL0     O 2382   7.585   1.024   5.666  0.4037  0.0273  0.3490
   18MOL0     C 2383   7.687   1.118   5.713 -0.2467  0.7140 -0.1073
   18MOL0     C 2384   7.823   1.046   5.714 -0.6320 -0.1000  0.6716
   18MOL0     C 2385   7.891   1.058   5.580 -0.9034 -0.0151  0.2591
   18MOL0     C 2386   8.010   0.960   5.570  0.2583  0.2392 -0.1644
   18MOL0     C 2387   8.145   1.006   5.638  0.3909 -0.2833  0.2862
   18MOL0     C 2388   8.246   1.048   5.530 -0.1310 -0.4438 -0.4307
   18MOL0     C 2389   8.386   1.083   5.591  0.9478  0.3366 -0.1898
   18MOL0     C 2390   8.452   1.200   5.524  0.1133 -0.4942 -0.6962
   18MOL0    Cl 2391   8.472   1.170   5.348  0.6560  0.1903 -0.1444
   18MOL0     C 2392   7.361   1.033   5.713  0.4446 -0.5648 -0.8525
   18MOL0     C 2393   7.232   1.087   5.689  0.3289  0.6793  0.3336
   18MOL0     O 2394   7.144   1.444   5.679  0.3861  0.0370  0.5875
   18MOL0     C 2395   6.857   1.482   5.706  0.1326 -0.2916  0.1976
   18MOL0     C 2396   6.724   1.520   5.693 -0.0265 -0.5028  0.0278
   18MOL0     N 2397   6.068   1.664   6.019 -0.6701 -0.1997 -0.0017
   18MOL0     N 2398   6.016   1.701   6.125  0.4012  0.5289  0.3972
   18MOL0     C 2399   5.237   1.878   6.874 -0.1758  0.9422 -0.3135
   18MOL0     C 2400   5.109   1.855   6.921  1.1289 -0.0803 -0.2947
   18MOL0     C 2401   4.661   1.763   6.892 -0.1368 -0.0117  0.5748
   18MOL0     C 2402   4.573   1.871   6.889 -0.3605  0.2836  0.7658
   18MOL0     C 2403   4.456   1.873   6.955 -0.0165  0.5001 -0.0815
   18MOL0     C 2404   4.405   1.756   7.009 -0.9556  0.2223  0.4905
   18MOL0     O 2405   4.285   1.744   7.062 -0.2210 -0.1249 -0.2830
   18MOL0     C 2406   4.196   1.855   7.071  0.0375  0.1648 -0.7549
   18MOL0     C 2407   4.050   1.808   7.127 -0.7988 -0.0666 -0.5873
   18MOL0     C 2408   3.972   1.721   7.023  1.0309  0.1576  1.5903
   18MOL0     C 2409   3.829   1.675   7.047 -0.5038 -0.2395  0.2379
   18MOL0     C 2410   3.766   1.755   7.156  0.4855 -1.1002  0.1591
   18MOL0     C 2411   3.699   1.813   7.240  0.8858  0.4693 -0.1482
   18MOL0     C 2412   4.486   1.637   7.000  1.0079  0.3016 -0.6590
   18MOL0     C 2413   4.618   1.642   6.946  0.5506  1.2406 -0.0132
   18MOL0     C 2414   4.714   1.517   6.947 -0.1871 -1.3189 -0.1793
   18MOL0     H 2415   5.006   1.617   6.704  1.5364 -1.3691  1.1040
   18MOL0     H 2416   5.232   1.640   6.633  0.5787 -1.4122  1.4608
   18MOL0     H 2417   5.456   1.696   6.574 -0.9657 -0.5146  0.2722
   18MOL0     H 2418   5.455   1.624   6.750 -0.4525  0.0448  0.8950
   18MOL0     H 2419   5.626   1.847   6.664 -3.2951 -0.1022 -2.8734
   18MOL0     H 2420   5.666   1.700   6.771  1.5297 -2.1577 -1.8607
   18MOL0     H 2421   5.703   1.564   6.561 -1.1893 -0.8201 -0.3529
   18MOL0     H 2422   5.689   1.707   6.467 -1.2519 -0.7961  0.0763
   18MOL0     H 2423   5.857   1.813   6.579 -0.0786  0.2856  2.1761
   18MOL0     H 2424   5.890   1.677   6.688  3.6842  0.0466 -0.7664
   18MOL0     H 2425   5.920   1.631   6.388 -0.7274  0.3386 -0.0917
   18MOL0     H 2426   5.957   1.526   6.526 -1.6209  0.5871 -0.0593
   18MOL0     H 2427   6.152   1.657   6.576  0.8520  1.6514 -0.8649
   18MOL0     H 2428   6.149   1.605   6.412  1.9775  2.6635 -2.1504
   18MOL0     H 2429   6.232   1.834   6.446  0.8036 -3.4093 -0.3052
   18MOL0     H 2430   6.073   1.866   6.534 -2.1439 -2.1784  1.1803
   18MOL0     H 2431   5.966   1.883   6.334  0.1989  1.7313 -0.0396
   18MOL0     H 2432   6.119   1.959   6.297 -2.7779  1.7737 -0.1586
   18MOL0     H 2433   6.306   1.839   6.149  0.0260 -0.1091 -0.2545
   18MOL0     H 2434   6.394   1.666   5.959 -0.3951 -0.1351  1.5989
   18MOL0     H 2435   6.301   1.765   5.830  1.1563 -0.6755 -0.0447
   18MOL0     H 2436   6.269   1.462   5.882  2.7674 -2.1825 -1.4999
   18MOL0     H 2437   6.196   1.553   5.757 -1.3394  1.3721  1.3186
   18MOL0     H 2438   6.474   1.470   5.789  2.4568  1.1933 -1.5428
   18MOL0     H 2439   6.358   1.445   5.651 -2.7028  0.3440  1.7595
   18MOL0     H 2440   6.377   1.686   5.599 -0.3844  1.0000  1.1263
   18MOL0     H 2441   6.524   1.708   5.700  0.5080  0.2491 -0.8382
   18MOL0     H 2442   6.667   1.481   5.377 -1.3345 -0.2039  0.7768
   18MOL0     H 2443   6.937   1.251   5.372 -0.5090 -0.1571  0.3535
   18MOL0     H 2444   7.006   1.414   5.334  0.5893 -0.3870 -3.1984
   18MOL0     H 2445   6.851   1.378   5.268  0.8193 -2.1711  0.0776
   18MOL0     H 2446   7.311   1.335   5.481 -0.9845  1.7605  2.5677
   18MOL0     H 2447   7.525   1.222   5.496 -0.6548  0.8604 -0.1707
   18MOL0     H 2448   7.701   1.204   5.647  1.9031 -0.9396 -1.9704
   18MOL0     H 2449   7.659   1.156   5.811 -0.4189  2.1155 -0.6717
   18MOL0     H 2450   7.892   1.098   5.782 -0.0945 -0.2429  0.2438
   18MOL0     H 2451   7.803   0.944   5.748 -2.8497  0.9144  2.6534
   18MOL0     H 2452   7.927   1.157   5.554  1.2657 -0.7856  0.1652
   18MOL0     H 2453   7.823   1.032   5.498  1.2553  1.7997 -2.2359
   18MOL0     H 2454   8.025   0.948   5.462  0.4285  2.4158 -0.4427
   18MOL0     H 2455   7.981   0.867   5.618  0.5644  0.5031  0.5570
   18MOL0     H 2456   8.120   1.091   5.701 -0.7417 -0.5766  0.2649
   18MOL0     H 2457   8.179   0.920   5.697  0.5271 -1.2148 -1.1173
   18MOL0     H 2458   8.214   1.141   5.482  1.4882  0.2896 -0.1855
   18MOL0     H 2459   8.263   0.969   5.457  1.3141  0.1793 -0.8107
   18MOL0     H 2460   8.449   0.994   5.584 -1.2587 -1.3579  0.5825
   18MOL0     H 2461   8.371   1.101   5.698 -0.2687  0.5523 -0.3924
   18MOL0     H 2462   8.546   1.222   5.575  0.7352 -3.2461 -0.5171
   18MOL0     H 2463   8.389   1.287   5.544  2.0023  1.3927 -2.3210
   18MOL0     H 2464   7.368   0.948   5.780  2.9204 -0.0180 -0.3071
   18MOL0     H 2465   7.142   1.060   5.744  1.1807 -1.7617  0.6378
   18MOL0     H 2466   6.914   1.489   5.798 -1.1106  1.0184  0.9123
   18MOL0     H 2467   6.677   1.558   5.783 -2.7971  3.5363 -2.7919
   18MOL0     H 2468   5.304   1.941   6.933 -1.4893  1.4251  0.7034
   18MOL0     H 2469   5.070   1.911   7.006  1.7480  1.0668 -0.7427
   18MOL0     H 2470   4.611   1.957   6.834  0.6252 -0.8058 -0.3206
   18MOL0     H 2471   4.407   1.969   6.971 -1.0010 -0.2532  1.7785
   18MOL0     H 2472   4.236   1.930   7.140 -3.3122  0.9381  0.5216
   18MOL0     H 2473   4.193   1.890   6.967  3.9716 -0.0598 -1.1118
   18MOL0     H 2474   3.995   1.895   7.165 -0.8193 -0.5235  0.4619
   18MOL0     H 2475   4.077   1.747   7.214  3.0139  1.8873 -0.1731
   18MOL0     H 2476   3.962   1.779   6.931 -0.6025 -1.6619  0.5685
   18MOL0     H 2477   4.024   1.626   7.008 -2.0525 -1.5597  0.9352
   18MOL0     H 2478   3.838   1.570   7.077  3.3580  0.0967  0.6751
   18MOL0     H 2479   3.767   1.675   6.957  0.5859 -0.0654 -0.5256
   18MOL0     H 2480   3.651   1.858   7.325 -1.0154  0.3778 -1.1179
   18MOL0     H 2481   4.437   1.552   7.047 -1.0903  0.1426 -2.9452
   18MOL0     H 2482   4.654   1.426   6.934 -1.9337  0.1433 -3.9177
   18MOL0     H 2483   4.780   1.519   6.860  1.0342 -1.6073  0.7184
   18MOL0     H 2484   4.761   1.526   7.045 -0.3586  0.2912 -0.2210
   19MOL0     O 2485   1.576   1.652   4.725 -0.5703  0.1395 -0.2794
   19MOL0     C 2486   1.586   1.564   4.640 -0.0520 -0.4898 -0.7055
   19MOL0     O 2487   1.690   1.479   4.630  0.2913  0.2352  0.0808
   19MOL0     C 2488   1.807   1.494   4.690 -0.0749  0.2580  0.0648
   19MOL0     C 2489   1.884   1.378   4.710  0.0840  0.1946 -0.5862
   19MOL0     C 2490   2.015   1.384   4.765  0.2334  1.2337  0.1617
   19MOL0     C 2491   2.075   1.504   4.801 -0.1418  0.3509  0.6100
   19MOL0     O 2492   2.200   1.510   4.849 -0.6416  0.5713  0.0426
   19MOL0     C 2493   2.247   1.404   4.939  0.2352  0.3757 -0.2638
   19MOL0     C 2494   2.397   1.415   4.969  0.1506 -0.0689  0.0390
   19MOL0     C 2495   2.429   1.558   5.034  0.8578  0.5195 -0.0365
   19MOL0     C 2496   2.573   1.576   5.073  0.1021 -0.1774  0.2739
   19MOL0     C 2497   2.596   1.498   5.206 -0.1768 -0.0746  0.0001
   19MOL0     C 2498   2.742   1.484   5.243 -0.6620 -0.0614  0.6652
   19MOL0     C 2499   2.795   1.357   5.169  0.5096  0.5956  1.0501
   19MOL0     C 2500   2.791   1.231   5.268  0.4531 -0.2294  0.5448
   19MOL0     N 2501   2.654   1.204   5.305 -0.2423  1.1421  0.3265
   19MOL0     C 2502   2.568   1.148   5.213  0.5626 -1.1110 -0.3259
   19MOL0     C 2503   2.460   1.122   5.293  0.7920 -0.6909 -0.5222
   19MOL0     C 2504   2.334   1.073   5.231  0.1142  0.1457  0.3176
   19MOL0     C 2505   2.196   1.122   5.274  0.2681  0.5040 -0.2111
   19MOL0     C 2506   2.078   1.030   5.241  0.1696 -0.5707  0.1016
   19MOL0     C 2507   2.089   0.904   5.325 -0.5270 -0.8902 -0.6082
   19MOL0     O 2508   1.971   0.825   5.318  0.3265 -0.1081  0.0965
   19MOL0     C 2509   1.868   0.863   5.389 -0.7658 -0.6558  0.6998
   19MOL0     C 2510   1.864   0.959   5.486 -1.2002  0.0017  0.2074
   19MOL0     C 2511   1.742   0.981   5.556 -0.0579  0.1361 -0.6487
   19MOL0     C 2512   1.739   1.087   5.667  0.0689 -0.2075  0.3078
   19MOL0     C 2513   1.629   0.898   5.519 -0.6635 -0.3883  0.8682
   19MOL0     C 2514   1.493   0.924   5.559  0.3867 -0.2522 -0.2007
   19MOL0     O 2515   1.390   0.845   5.512 -0.4428 -0.4471  0.2010
   19MOL0     C 2516   1.262   0.881   5.535  1.3864 -0.0659  0.0413
   19MOL0     C 2517   1.176   0.896   5.420 -0.1554 -0.5425  0.4522
   19MOL0     C 2518   1.032   0.920   5.438 -0.1530  0.1987 -0.3980
   19MOL0     C 2519   0.975   0.930   5.568  0.5411 -0.1612 -0.0183
   19MOL0     O 2520   0.841   0.945   5.595 -0.2290  0.7410 -0.1678
   19MOL0     C 2521   0.744   0.929   5.487 -0.3830 -0.5301 -0.6776
   19MOL0     C 2522   0.609   0.888   5.548  0.7333  0.3126 -0.3343
   19MOL0     C 2523   0.511   0.867   5.444  0.3937 -0.3316  0.8055
   19MOL0     C 2524   0.372   0.845   5.519  1.0529  0.4625 -0.3862
   19MOL0     C 2525   0.266   0.790   5.420  0.1386  0.1735 -0.2048
   19MOL0     C 2526   0.149   0.742   5.515 -0.6759 -0.4598 -0.0045
   19MOL0     C 2527   0.032   0.709   5.421  0.9764  0.0163  0.0757
   19MOL0     C 2528   0.036   0.588   5.333  0.6013 -0.0691  0.3513
   19MOL0    Cl 2529  -0.136   0.575   5.267  0.3929  0.0596 -0.0118
   19MOL0     C 2530   1.063   0.905   5.681 -0.2546  0.3924  0.6109
   19MOL0     C 2531   1.200   0.887   5.666  0.4563 -0.2908  0.3208
   19MOL0     O 2532   1.471   1.029   5.620  0.1314 -0.0441 -0.5560
   19MOL0     C 2533   1.646   0.802   5.425  0.7857 -0.3634  0.0775
   19MOL0     C 2534   1.760   0.786   5.358  0.4502  0.2154  0.7146
   19MOL0     N 2535   2.485   1.142   5.428 -0.3005  0.5562 -0.1368
   19MOL0     N 2536   2.608   1.189   5.428  0.0048  0.4568 -0.2015
   19MOL0     C 2537   1.997   1.620   4.779  0.1320 -0.7414  0.5810
   19MOL0     C 2538   1.868   1.612   4.721  0.2584  0.4928 -0.5452
   19MOL0     C 2539   1.462   1.542   4.556  0.6173 -0.6531 -0.2254
   19MOL0     C 2540   1.407   1.640   4.474  0.1933  0.1724  0.7426
   19MOL0     C 2541   1.290   1.621   4.390 -0.8647 -0.3200 -0.6217
   19MOL0     C 2542   1.219   1.507   4.412 -0.3750  0.3280  0.0374
   19MOL0     O 2543   1.092   1.496   4.367  0.5066 -0.0700  0.5145
   19MOL0     C 2544   1.058   1.468   4.222 -0.5744 -0.8199 -0.7365
   19MOL0     C 2545   0.977   1.334   4.213  0.5680  0.5330  0.5577
   19MOL0     C 2546   0.859   1.367   4.126  0.0754 -0.4483 -0.1320
   19MOL0     C 2547   0.772   1.247   4.091 -0.4717  0.3500 -0.4485
   19MOL0     C 2548   0.670   1.294   3.997  0.0175  0.2390  0.3695
   19MOL0     C 2549   0.587   1.338   3.920  0.3849  0.7639  0.1089
   19MOL0     C 2550   1.276   1.403   4.500  0.1104  0.2428  0.8083
   19MOL0     C 2551   1.397   1.415   4.562 -0.1751 -0.1529 -0.4086
   19MOL0     C 2552   1.434   1.297   4.651  0.1588  0.2535 -0.5469
   19MOL0     H 2553   1.856   1.277   4.679  0.0245  0.1877 -0.5104
   19MOL0     H 2554   2.072   1.292   4.769 -0.0778  0.8694 -2.2004
   19MOL0     H 2555   2.229   1.305   4.896 -1.9699  0.7864 -0.4047
   19MOL0     H 2556   2.189   1.407   5.031  0.7693 -1.4912  0.1831
   19MOL0     H 2557   2.420   1.342   5.047 -0.4719 -1.6678 -1.2151
   19MOL0     H 2558   2.458   1.387   4.882 -0.3740  0.4273 -0.5037
   19MOL0     H 2559   2.400   1.641   4.969  0.3579 -1.9180 -3.1660
   19MOL0     H 2560   2.374   1.561   5.129  1.1357 -1.2635  0.2274
   19MOL0     H 2561   2.634   1.528   4.996  0.0459  1.4179 -0.8008
   19MOL0     H 2562   2.595   1.682   5.088 -1.3692 -0.0164  1.5389
   19MOL0     H 2563   2.540   1.404   5.209 -0.5307  0.1325 -0.0580
   19MOL0     H 2564   2.548   1.569   5.274 -2.4008 -1.0093 -0.5019
   19MOL0     H 2565   2.806   1.567   5.210 -1.1919  0.8213  1.7967
   19MOL0     H 2566   2.760   1.471   5.350 -0.1902  0.6370  0.6811
   19MOL0     H 2567   2.899   1.379   5.146 -0.4435  1.0392 -4.1246
   19MOL0     H 2568   2.748   1.341   5.071 -0.5833  3.4038  1.0186
   19MOL0     H 2569   2.832   1.144   5.216 -4.1016 -1.9999 -0.5927
   19MOL0     H 2570   2.849   1.252   5.359 -0.3654  3.7597  0.3286
   19MOL0     H 2571   2.583   1.128   5.108  3.4278 -1.2889  0.0555
   19MOL0     H 2572   2.338   0.964   5.236 -0.9374  0.0960  0.4171
   19MOL0     H 2573   2.344   1.096   5.124  1.7877 -1.9984 -0.0518
   19MOL0     H 2574   2.200   1.141   5.382  1.2290 -2.5374  0.3935
   19MOL0     H 2575   2.166   1.216   5.227 -0.6147 -0.1501 -0.9725
   19MOL0     H 2576   1.990   1.082   5.279  0.5440  2.0832 -2.2474
   19MOL0     H 2577   2.058   1.027   5.133  0.2330  0.7916  0.0303
   19MOL0     H 2578   2.170   0.843   5.286 -0.8526 -1.3526 -0.5682
   19MOL0     H 2579   2.122   0.924   5.428  1.6418  0.9725 -1.5967
   19MOL0     H 2580   1.953   1.013   5.516 -1.5580 -0.5156  2.4057
   19MOL0     H 2581   1.686   1.046   5.753 -2.1150  0.5532 -0.5895
   19MOL0     H 2582   1.677   1.174   5.640 -1.9062 -0.4413  3.5970
   19MOL0     H 2583   1.841   1.108   5.701  1.3101 -3.1116 -1.2762
   19MOL0     H 2584   1.234   0.900   5.328  2.0553  0.5054  1.7920
   19MOL0     H 2585   0.970   0.929   5.349  0.5230  1.2655 -0.7787
   19MOL0     H 2586   0.733   1.020   5.427 -1.1549 -1.2693 -1.6882
   19MOL0     H 2587   0.763   0.844   5.422 -0.0068 -2.2787  1.5835
   19MOL0     H 2588   0.629   0.791   5.594 -0.0035  1.1250  1.8076
   19MOL0     H 2589   0.568   0.952   5.626 -0.6356  0.4774 -1.1593
   19MOL0     H 2590   0.542   0.788   5.375  1.2226 -0.3393  1.1818
   19MOL0     H 2591   0.503   0.956   5.380  1.4010 -1.3605 -0.8295
   19MOL0     H 2592   0.342   0.945   5.553  0.4923  0.4647 -0.8781
   19MOL0     H 2593   0.390   0.782   5.606  2.1741  2.9619  1.3336
   19MOL0     H 2594   0.221   0.874   5.367  0.6296  0.0326 -0.8572
   19MOL0     H 2595   0.292   0.719   5.341 -0.3046  2.4008 -2.4659
   19MOL0     H 2596   0.123   0.830   5.574 -0.5150  0.8982 -1.8787
   19MOL0     H 2597   0.174   0.657   5.579  2.2789 -1.3327 -2.1372
   19MOL0     H 2598   0.001   0.793   5.358  1.5673  0.2178  0.0468
   19MOL0     H 2599  -0.052   0.693   5.489  0.5818  2.4106  0.2406
   19MOL0     H 2600   0.061   0.494   5.382 -0.1444 -0.6701 -0.4073
   19MOL0     H 2601   0.105   0.606   5.251  1.7019 -2.3391  0.7160
   19MOL0     H 2602   1.025   0.903   5.783 -0.0036 -0.2466  0.6955
   19MOL0     H 2603   1.264   0.885   5.754 -2.7113 -1.0571  2.7859
   19MOL0     H 2604   1.564   0.742   5.388  1.0888 -1.0382  0.4956
   19MOL0     H 2605   1.758   0.720   5.272  0.4069 -0.1760  1.0129
   19MOL0     H 2606   2.033   1.718   4.808 -0.1311 -0.3773 -0.2901
   19MOL0     H 2607   1.815   1.704   4.701 -1.3103 -0.4636 -1.0265
   19MOL0     H 2608   1.462   1.733   4.479 -1.9310  1.4924  0.8399
   19MOL0     H 2609   1.256   1.698   4.322  2.3066  0.6294 -1.3198
   19MOL0     H 2610   0.997   1.554   4.193  0.3114  0.3790  0.8206
   19MOL0     H 2611   1.152   1.465   4.165  1.3149 -2.9911  2.1979
   19MOL0     H 2612   0.942   1.304   4.313 -0.1072 -3.7564 -0.7938
   19MOL0     H 2613   1.038   1.263   4.157  1.2702  1.2245  0.4281
   19MOL0     H 2614   0.811   1.458   4.163  3.3192  0.3497  2.7177
   19MOL0     H 2615   0.898   1.403   4.031 -1.8331  1.1335 -0.3857
   19MOL0     H 2616   0.723   1.199   4.177 -0.6519  1.5516  0.1404
   19MOL0     H 2617   0.818   1.164   4.036  0.4415  0.4671  0.1152
   19MOL0     H 2618   0.515   1.390   3.861 -0.3379  1.5579  1.6469
   19MOL0     H 2619   1.219   1.312   4.518 -1.3743  1.0959  0.5333
   19MOL0     H 2620   1.362   1.215   4.657  0.2738 -0.0668 -2.7327
   19MOL0     H 2621   1.531   1.252   4.631 -0.7749 -2.2623  0.1816
   19MOL0     H 2622   1.451   1.334   4.753  0.9954 -2.1527  0.2551
   20MOL0     O 2623   7.154   6.404   4.818  0.5322 -0.2156 -0.1004
   20MOL0     C 2624   7.234   6.494   4.848  0.3732 -0.8194 -0.0093
   20MOL0     O 2625   7.373   6.486   4.849 -0.1081 -0.1537 -0.1431
   20MOL0     C 2626   7.435   6.408   4.752 -0.4157 -0.9423 -0.0193
   20MOL0     C 2627   7.376   6.387   4.623 -0.4652 -0.0939  0.5944
   20MOL0     C 2628   7.452   6.321   4.518  0.0271 -0.1846 -0.3380
   20MOL0     C 2629   7.582   6.280   4.537 -0.4501 -0.2734 -0.6044
   20MOL0     O 2630   7.675   6.252   4.448 -0.1791 -0.1411  0.5780
   20MOL0     C 2631   7.625   6.202   4.329 -0.9422  0.6322  0.0706
   20MOL0     C 2632   7.753   6.194   4.233 -0.2279  0.7150  0.1309
   20MOL0     C 2633   7.863   6.096   4.286 -0.4078 -0.1991 -0.1913
   20MOL0     C 2634   7.964   6.100   4.169 -0.1930  0.2318  0.6160
   20MOL0     C 2635   8.088   6.004   4.198  0.5075 -0.3376 -0.1403
   20MOL0     C 2636   8.039   5.861   4.195 -0.4498 -0.6998  0.1822
   20MOL0     C 2637   8.159   5.755   4.200 -0.3825  0.4083 -0.7414
   20MOL0     C 2638   8.279   5.796   4.110 -0.0974  0.5794  0.0976
   20MOL0     N 2639   8.376   5.683   4.110  0.1773 -0.3538 -0.5461
   20MOL0     C 2640   8.384   5.597   4.007  0.7030 -0.5255 -0.1335
   20MOL0     C 2641   8.507   5.534   4.024  0.3589  0.2897  0.3052
   20MOL0     C 2642   8.576   5.432   3.935  0.1257  0.1714 -0.0555
   20MOL0     C 2643   8.612   5.477   3.792 -0.1940 -0.6241 -0.3954
   20MOL0     C 2644   8.699   5.608   3.801  0.5619  0.5599 -0.1401
   20MOL0     C 2645   8.827   5.588   3.877 -0.4722  0.2131 -0.5551
   20MOL0     O 2646   8.927   5.685   3.829 -0.1886  0.2637  0.7160
   20MOL0     C 2647   9.055   5.665   3.869 -0.0602  0.6921 -0.3951
   20MOL0     C 2648   9.087   5.578   3.982  0.3728  0.1130  0.4607
   20MOL0     C 2649   9.217   5.550   4.028 -0.1443  0.4504  0.6659
   20MOL0     C 2650   9.229   5.457   4.144 -0.7656  0.5464  0.3566
   20MOL0     C 2651   9.322   5.608   3.958 -0.3042  0.3162 -0.4883
   20MOL0     C 2652   9.459   5.567   3.990  0.4673 -0.3012 -0.5707
   20MOL0     O 2653   9.556   5.661   3.964  0.5211  0.2729  0.3413
   20MOL0     C 2654   9.690   5.626   3.970  0.2484  0.1816  0.1660
   20MOL0     C 2655   9.768   5.693   4.067 -0.0463 -0.5257  0.5237
   20MOL0     C 2656   9.904   5.658   4.073 -0.2158  0.0868  0.2209
   20MOL0     C 2657   9.950   5.547   4.001  0.5456  0.8410 -0.3631
   20MOL0     O 2658  10.078   5.502   4.025  0.1781  0.6023  0.0867
   20MOL0     C 2659  10.093   5.376   4.096 -0.3203 -0.3942  0.8142
   20MOL0     C 2660  10.240   5.340   4.122  0.5264 -0.4438 -0.2359
   20MOL0     C 2661  10.291   5.204   4.155  0.9670 -0.2589 -0.7403
   20MOL0     C 2662  10.450   5.199   4.171  1.0749 -0.2904  0.0762
   20MOL0     C 2663  10.500   5.066   4.220 -0.3331 -0.3703  0.7435
   20MOL0     C 2664  10.641   5.093   4.286  0.4912 -0.0108 -0.0418
   20MOL0     C 2665  10.677   4.970   4.376 -0.6888  0.0506 -0.0196
   20MOL0     C 2666  10.814   5.005   4.427 -0.0493 -0.1814 -0.7123
   20MOL0    Cl 2667  10.878   4.894   4.541  0.4889  0.2103  0.0541
   20MOL0     C 2668   9.864   5.488   3.904 -0.5698 -0.1337 -0.5322
   20MOL0     C 2669   9.735   5.527   3.882 -0.1737  0.2819 -0.0607
   20MOL0     O 2670   9.481   5.457   4.040  0.8000  0.5764 -0.0594
   20MOL0     C 2671   9.294   5.706   3.858 -0.2446 -0.2861 -0.4362
   20MOL0     C 2672   9.161   5.731   3.811 -0.5209 -0.3699 -0.8204
   20MOL0     N 2673   8.563   5.589   4.134 -0.2737 -0.2130 -0.6944
   20MOL0     N 2674   8.475   5.664   4.198 -0.9112  0.9414  0.5280
   20MOL0     C 2675   7.628   6.291   4.665 -0.0284  1.0529  0.0914
   20MOL0     C 2676   7.559   6.353   4.775 -0.5451 -0.2755 -0.6167
   20MOL0     C 2677   7.175   6.627   4.907  0.2575  0.6160  0.0026
   20MOL0     C 2678   7.254   6.707   5.001 -0.7449  0.9781 -0.2273
   20MOL0     C 2679   7.210   6.829   5.049  1.0474 -0.0003 -0.4646
   20MOL0     C 2680   7.085   6.873   5.010 -0.3342  1.2088 -0.9577
   20MOL0     O 2681   7.042   6.985   5.070  0.5419  0.1305 -0.2430
   20MOL0     C 2682   7.028   7.088   4.970 -0.0288  0.4971 -0.9619
   20MOL0     C 2683   6.882   7.111   4.937 -0.2661  0.1876  0.3392
   20MOL0     C 2684   6.773   7.103   5.048  0.2585 -0.3321  0.5362
   20MOL0     C 2685   6.785   7.226   5.132 -0.0001 -0.2935 -0.1600
   20MOL0     C 2686   6.665   7.240   5.211 -0.3835 -1.2431 -0.6104
   20MOL0     C 2687   6.550   7.244   5.255 -0.1722 -0.0677  0.7834
   20MOL0     C 2688   7.015   6.803   4.913  0.4260  0.4247  0.6323
   20MOL0     C 2689   7.055   6.684   4.859  0.0933  0.2032  0.3039
   20MOL0     C 2690   6.971   6.612   4.762  0.7305 -0.6809 -0.0637
   20MOL0     H 2691   7.277   6.418   4.592 -1.6153 -2.2285  1.8425
   20MOL0     H 2692   7.404   6.306   4.422 -0.8674  1.2028 -0.1411
   20MOL0     H 2693   7.551   6.268   4.281 -0.8767  0.7226  0.0920
   20MOL0     H 2694   7.589   6.104   4.362  1.8518  0.1253  1.9940
   20MOL0     H 2695   7.716   6.163   4.135  0.0073  1.1863 -0.1135
   20MOL0     H 2696   7.792   6.296   4.220  2.1384 -0.2831 -1.1794
   20MOL0     H 2697   7.905   6.130   4.381 -2.9473 -0.0799  0.9731
   20MOL0     H 2698   7.837   5.994   4.313 -0.5534 -0.0002  0.4383
   20MOL0     H 2699   7.912   6.070   4.077  1.2850  0.7514 -0.4349
   20MOL0     H 2700   8.006   6.200   4.159  1.6328 -0.7259 -2.9488
   20MOL0     H 2701   8.129   6.039   4.293 -2.6081 -1.4892  1.7997
   20MOL0     H 2702   8.165   6.021   4.122 -2.1693 -3.1370 -3.9034
   20MOL0     H 2703   7.979   5.827   4.280  2.4926 -2.6303  1.6343
   20MOL0     H 2704   7.988   5.851   4.099 -2.6162 -2.7524  1.4247
   20MOL0     H 2705   8.119   5.661   4.160  2.4750 -0.4759 -1.7219
   20MOL0     H 2706   8.195   5.740   4.302 -0.3003  0.4825 -0.7601
   20MOL0     H 2707   8.250   5.834   4.012  0.5430  0.2233 -0.2369
   20MOL0     H 2708   8.327   5.885   4.154 -0.7990  0.6210  0.7974
   20MOL0     H 2709   8.315   5.590   3.924  0.2277  1.5117  0.0237
   20MOL0     H 2710   8.503   5.352   3.920 -1.3824  1.2741  1.1091
   20MOL0     H 2711   8.669   5.401   3.984 -0.0343  0.6394  0.5492
   20MOL0     H 2712   8.661   5.393   3.742 -0.3474 -1.3080  0.5698
   20MOL0     H 2713   8.518   5.498   3.741  0.6540 -0.3342 -1.8973
   20MOL0     H 2714   8.716   5.629   3.695 -0.8112  0.2795 -0.4394
   20MOL0     H 2715   8.634   5.682   3.849  1.1606 -0.2160  1.9663
   20MOL0     H 2716   8.807   5.602   3.983  0.6013  0.7506 -0.4077
   20MOL0     H 2717   8.868   5.488   3.857  2.3893  1.3441 -0.8041
   20MOL0     H 2718   9.005   5.537   4.041 -0.3667  1.5320  0.4613
   20MOL0     H 2719   9.217   5.354   4.109 -0.5126  0.9272 -0.8854
   20MOL0     H 2720   9.144   5.470   4.212 -2.7084 -1.8558 -1.4468
   20MOL0     H 2721   9.323   5.479   4.196  1.1381  1.8562 -3.2531
   20MOL0     H 2722   9.716   5.763   4.131  2.2032  1.9915 -0.2556
   20MOL0     H 2723   9.973   5.708   4.140 -1.3114 -1.5928  2.7337
   20MOL0     H 2724  10.033   5.364   4.187  0.6667 -1.1855  1.3760
   20MOL0     H 2725  10.052   5.302   4.027  0.6933 -1.6634  1.5361
   20MOL0     H 2726  10.291   5.378   4.033  1.1759  2.7626  1.3398
   20MOL0     H 2727  10.269   5.403   4.207 -4.3049  1.1874  0.5007
   20MOL0     H 2728  10.264   5.134   4.075 -1.6165  0.9611 -1.0382
   20MOL0     H 2729  10.241   5.182   4.249 -1.4216  1.6706 -1.4577
   20MOL0     H 2730  10.476   5.280   4.240 -0.4117  3.3232 -3.2549
   20MOL0     H 2731  10.502   5.215   4.077 -0.4539  1.5254 -0.5145
   20MOL0     H 2732  10.427   5.025   4.291 -0.8707 -3.2974 -1.3007
   20MOL0     H 2733  10.515   4.997   4.137  0.0285 -0.0227  0.5180
   20MOL0     H 2734  10.632   5.179   4.353 -3.6546  0.6813 -1.2122
   20MOL0     H 2735  10.711   5.120   4.207 -2.9084  1.1550 -2.9173
   20MOL0     H 2736  10.686   4.877   4.320  0.6379  0.7527 -1.0306
   20MOL0     H 2737  10.598   4.962   4.451 -2.9354  1.9666 -2.0272
   20MOL0     H 2738  10.827   5.102   4.477  0.4098 -0.2019 -0.7832
   20MOL0     H 2739  10.893   5.017   4.352  2.5015  0.3273  1.8492
   20MOL0     H 2740   9.902   5.410   3.838 -0.7373  1.2289 -2.3012
   20MOL0     H 2741   9.673   5.495   3.800 -1.5215  1.3267  0.5113
   20MOL0     H 2742   9.379   5.756   3.814 -0.2211 -0.1034 -0.1874
   20MOL0     H 2743   9.152   5.806   3.733  2.5857  1.1382  0.0857
   20MOL0     H 2744   7.734   6.266   4.669 -0.2146 -0.3504 -2.2586
   20MOL0     H 2745   7.608   6.347   4.871  0.9160 -0.4914 -1.3419
   20MOL0     H 2746   7.351   6.675   5.037 -0.9438  0.5486 -0.0603
   20MOL0     H 2747   7.271   6.888   5.117 -0.7277  3.0558 -1.3342
   20MOL0     H 2748   7.062   7.187   5.002 -1.3361  0.6511  0.0508
   20MOL0     H 2749   7.084   7.072   4.877  0.3954  1.4994 -0.8966
   20MOL0     H 2750   6.853   7.039   4.860 -1.4766  0.2832  0.6842
   20MOL0     H 2751   6.880   7.206   4.883  0.7682  0.8625  1.4447
   20MOL0     H 2752   6.678   7.104   4.995 -0.9077  3.1816  2.3801
   20MOL0     H 2753   6.780   7.016   5.115 -1.6188 -1.1527 -0.2596
   20MOL0     H 2754   6.803   7.317   5.074  1.8122 -1.7584 -2.0669
   20MOL0     H 2755   6.876   7.217   5.193  0.9711  2.3352 -1.0624
   20MOL0     H 2756   6.444   7.242   5.276 -0.3980 -1.9281 -0.3237
   20MOL0     H 2757   6.910   6.829   4.904 -0.0092 -1.1364  0.9743
   20MOL0     H 2758   7.033   6.576   4.679  2.0291  1.2761 -0.0160
   20MOL0     H 2759   6.926   6.520   4.801  0.8457  0.6747  3.6921
   20MOL0     H 2760   6.896   6.678   4.718  1.6340  2.2715  2.4507
   21MOL0     O 2761   1.857   0.376   9.415  0.8790  0.1273 -0.4417
   21MOL0     C 2762   1.750   0.322   9.394  0.0680  0.0666 -0.1003
   21MOL0     O 2763   1.684   0.250   9.487 -0.5188  0.1264 -0.4414
   21MOL0     C 2764   1.731   0.241   9.617  1.0310  0.5417 -0.0391
   21MOL0     C 2765   1.700   0.122   9.685 -0.4285 -0.5322  0.2620
   21MOL0     C 2766   1.743   0.093   9.813 -0.5604  0.4101  0.6556
   21MOL0     C 2767   1.825   0.186   9.885 -0.7052  0.7203 -0.2722
   21MOL0     O 2768   1.863   0.170  10.015  0.5557 -0.7631 -1.2893
   21MOL0     C 2769   1.784   0.073  10.093  0.3450 -0.2836 -0.3875
   21MOL0     C 2770   1.816   0.095  10.242  0.1010  0.2790 -0.1112
   21MOL0     C 2771   1.788   0.238  10.281  0.5673  0.1510 -0.4300
   21MOL0     C 2772   1.830   0.278  10.424  0.2596  0.0522 -0.6307
   21MOL0     C 2773   1.811   0.432  10.449 -0.6972 -0.5303  0.2189
   21MOL0     C 2774   1.662   0.468  10.470 -0.2838 -0.3811  0.2787
   21MOL0     C 2775   1.595   0.370  10.567  0.4492  0.4618 -0.8224
   21MOL0     C 2776   1.466   0.432  10.615  0.1745  0.4029  0.1932
   21MOL0     N 2777   1.405   0.368  10.736  0.8249  0.1183  0.5498
   21MOL0     C 2778   1.387   0.426  10.864 -0.0464  0.3882 -0.2500
   21MOL0     C 2779   1.354   0.325  10.945 -0.2744  0.2683 -0.9547
   21MOL0     C 2780   1.337   0.333  11.097 -0.2429 -0.2244  0.0828
   21MOL0     C 2781   1.455   0.392  11.175 -0.6649  0.4446 -0.3640
   21MOL0     C 2782   1.422   0.412  11.327 -0.0856  0.0950 -0.6576
   21MOL0     C 2783   1.553   0.438  11.405 -0.1347 -0.4691  0.4513
   21MOL0     O 2784   1.597   0.567  11.355  0.2503  0.3268 -0.7565
   21MOL0     C 2785   1.735   0.599  11.376  0.7562  0.1124  0.0578
   21MOL0     C 2786   1.783   0.716  11.313  0.3804 -0.0220 -0.1727
   21MOL0     C 2787   1.920   0.746  11.325 -0.0113  0.5458  0.1398
   21MOL0     C 2788   1.979   0.863  11.233  0.3569  0.3309  0.7189
   21MOL0     C 2789   2.007   0.661  11.409  0.5285 -0.1014  0.0014
   21MOL0     C 2790   2.148   0.670  11.432  0.1988 -0.1512 -0.3873
   21MOL0     O 2791   2.213   0.569  11.492 -0.5736 -0.2183 -0.1684
   21MOL0     C 2792   2.345   0.551  11.477 -0.2516  0.2533  0.4937
   21MOL0     C 2793   2.427   0.585  11.363 -0.3691 -0.1794  0.0839
   21MOL0     C 2794   2.556   0.545  11.355  0.2687 -0.0010  0.7950
   21MOL0     C 2795   2.615   0.472  11.462  0.0839 -0.5315  0.3298
   21MOL0     O 2796   2.746   0.436  11.461 -0.0177 -0.6188 -0.5012
   21MOL0     C 2797   2.834   0.553  11.454  0.3373  0.0837 -0.1318
   21MOL0     C 2798   2.975   0.506  11.415 -1.1322  0.2639 -0.1767
   21MOL0     C 2799   2.965   0.407  11.297  0.7619  0.3330  0.9721
   21MOL0     C 2800   3.099   0.397  11.221 -0.2435 -0.5768  0.4954
   21MOL0     C 2801   3.108   0.295  11.103  0.5671 -0.4614  0.2787
   21MOL0     C 2802   3.022   0.334  10.976  0.4080 -0.5187 -0.1373
   21MOL0     C 2803   3.049   0.241  10.857  0.3226  1.0840  0.0702
   21MOL0     C 2804   3.036   0.320  10.722  0.9497 -0.3371 -0.1294
   21MOL0    Cl 2805   2.874   0.398  10.734  0.3736  0.3095 -0.3777
   21MOL0     C 2806   2.537   0.454  11.575  1.2274  0.1346 -0.2202
   21MOL0     C 2807   2.396   0.486  11.588  0.0888  0.0553 -0.0243
   21MOL0     O 2808   2.204   0.777  11.400 -0.1902 -0.4241 -0.4895
   21MOL0     C 2809   1.952   0.547  11.470 -0.4610 -0.1541  0.0156
   21MOL0     C 2810   1.817   0.523  11.455 -0.2706  0.6550 -0.7378
   21MOL0     N 2811   1.353   0.209  10.870 -0.1499 -0.5334 -0.4186
   21MOL0     N 2812   1.388   0.234  10.747 -0.6840 -0.7496 -0.8120
   21MOL0     C 2813   1.857   0.306   9.820 -0.0791 -0.0823 -0.0675
   21MOL0     C 2814   1.805   0.334   9.688 -0.0799 -0.2086 -0.1771
   21MOL0     C 2815   1.711   0.312   9.253 -0.0284  0.1432 -0.2095
   21MOL0     C 2816   1.809   0.278   9.158  0.0981  0.5546 -0.0320
   21MOL0     C 2817   1.781   0.265   9.020 -0.2119  0.1286 -0.4788
   21MOL0     C 2818   1.651   0.287   8.976 -0.1484  0.9522 -0.0596
   21MOL0     O 2819   1.625   0.264   8.844  0.1065 -0.5985  0.4670
   21MOL0     C 2820   1.507   0.310   8.787  0.8211  0.0381 -0.1808
   21MOL0     C 2821   1.511   0.457   8.762 -0.1353 -0.7604 -0.0410
   21MOL0     C 2822   1.624   0.500   8.658  0.5360 -0.4194 -0.1176
   21MOL0     C 2823   1.612   0.645   8.609 -0.2437  0.6868  0.7178
   21MOL0     C 2824   1.561   0.746   8.696  0.2749  0.3460 -0.7644
   21MOL0     C 2825   1.519   0.828   8.772  0.3127 -0.3734 -0.2891
   21MOL0     C 2826   1.556   0.321   9.075  0.6862  0.1619 -0.2136
   21MOL0     C 2827   1.583   0.328   9.209 -0.4279 -0.9982  0.0169
   21MOL0     C 2828   1.469   0.354   9.299 -0.7108  0.4863  1.0657
   21MOL0     H 2829   1.643   0.054   9.623  0.2640 -1.3301  0.4837
   21MOL0     H 2830   1.715  -0.000   9.861  1.2248 -0.5393 -0.0887
   21MOL0     H 2831   1.810  -0.029  10.060  1.5072 -0.4033  0.8130
   21MOL0     H 2832   1.682   0.097  10.064  0.1160  0.7237  1.1353
   21MOL0     H 2833   1.757   0.021  10.298 -0.1815 -0.7680 -1.7214
   21MOL0     H 2834   1.920   0.069  10.263 -0.6513 -0.1570  3.7487
   21MOL0     H 2835   1.831   0.312  10.213  1.3604  0.8146  0.7669
   21MOL0     H 2836   1.680   0.243  10.266 -0.1652 -2.9072  2.6008
   21MOL0     H 2837   1.788   0.210  10.499  2.1633  1.6066  2.0161
   21MOL0     H 2838   1.936   0.251  10.422 -0.3017 -2.3844 -1.2612
   21MOL0     H 2839   1.844   0.488  10.361 -1.6968  1.3638  0.9888
   21MOL0     H 2840   1.876   0.452  10.534 -0.1700 -0.0087 -0.3048
   21MOL0     H 2841   1.664   0.571  10.506  0.6670  0.5704 -2.2761
   21MOL0     H 2842   1.608   0.471  10.375 -0.0366 -0.7223  0.1242
   21MOL0     H 2843   1.655   0.359  10.658 -1.3701 -0.4327  0.3375
   21MOL0     H 2844   1.575   0.270  10.527 -2.9264 -0.4558  2.5060
   21MOL0     H 2845   1.485   0.538  10.636 -0.8433  0.8534 -1.0516
   21MOL0     H 2846   1.397   0.430  10.530 -0.3026  1.6368  0.5283
   21MOL0     H 2847   1.398   0.532  10.885 -1.3367  0.3615  0.6701
   21MOL0     H 2848   1.333   0.230  11.135 -0.6486  0.1330  1.0568
   21MOL0     H 2849   1.241   0.377  11.124 -0.5289 -0.3767 -0.6601
   21MOL0     H 2850   1.537   0.320  11.172  2.1233  3.3990 -0.0410
   21MOL0     H 2851   1.474   0.488  11.127 -2.1631  1.5601  1.1454
   21MOL0     H 2852   1.352   0.492  11.352  1.9690  2.3377 -1.6323
   21MOL0     H 2853   1.373   0.321  11.363  1.0698  0.0946  1.0894
   21MOL0     H 2854   1.539   0.453  11.512 -2.3283  1.0498  0.0395
   21MOL0     H 2855   1.625   0.358  11.389  1.9101  1.0716  1.4830
   21MOL0     H 2856   1.727   0.778  11.244  0.5689  0.3417  0.0006
   21MOL0     H 2857   2.048   0.824  11.158 -1.9965 -3.1016  0.0706
   21MOL0     H 2858   2.025   0.943  11.291 -2.2192  2.0581  0.5534
   21MOL0     H 2859   1.901   0.904  11.168 -0.4327  1.2534  2.2094
   21MOL0     H 2860   2.380   0.635  11.278 -0.3770  0.1107  0.2602
   21MOL0     H 2861   2.621   0.570  11.272  0.9533  3.8701  2.2738
   21MOL0     H 2862   2.800   0.622  11.376 -3.0190 -3.4970 -2.2121
   21MOL0     H 2863   2.839   0.607  11.549  2.6720  0.7082 -0.5301
   21MOL0     H 2864   3.040   0.589  11.389  0.5643 -1.1673 -0.7085
   21MOL0     H 2865   3.009   0.449  11.502 -0.3793 -1.1779 -1.3702
   21MOL0     H 2866   2.889   0.438  11.225 -0.7094 -1.4330  1.6981
   21MOL0     H 2867   2.930   0.307  11.326  0.3470  0.3991  0.7097
   21MOL0     H 2868   3.172   0.364  11.295 -0.1488 -0.0950  0.6198
   21MOL0     H 2869   3.119   0.503  11.200 -4.2144  0.2641  0.0551
   21MOL0     H 2870   3.208   0.275  11.063 -1.1767 -2.6547 -3.6176
   21MOL0     H 2871   3.068   0.197  11.130  0.2808  0.1689  2.3145
   21MOL0     H 2872   3.046   0.436  10.945  2.8990 -1.3286 -1.0603
   21MOL0     H 2873   2.916   0.336  11.006  0.4904 -0.9396  0.1891
   21MOL0     H 2874   2.974   0.162  10.866  0.4483  1.1764  3.5811
   21MOL0     H 2875   3.151   0.203  10.865  0.1624  0.0690 -2.1010
   21MOL0     H 2876   3.026   0.252  10.637  2.0829 -1.6008  0.7106
   21MOL0     H 2877   3.115   0.395  10.711  0.5029  0.2922  0.8090
   21MOL0     H 2878   2.587   0.402  11.656  1.4926 -1.0161 -1.0889
   21MOL0     H 2879   2.338   0.459  11.676 -3.1975 -0.5765 -2.1835
   21MOL0     H 2880   2.011   0.470  11.518 -0.6381 -0.3300 -0.0476
   21MOL0     H 2881   1.776   0.436  11.506  0.3747 -1.2859 -3.3324
   21MOL0     H 2882   1.920   0.381   9.866  0.4264  0.5346 -1.7021
   21MOL0     H 2883   1.824   0.433   9.648 -0.4153  0.4383  1.1971
   21MOL0     H 2884   1.913   0.275   9.191 -0.4933 -3.0118  1.9899
   21MOL0     H 2885   1.855   0.244   8.942 -1.5263 -1.0614 -1.4545
   21MOL0     H 2886   1.487   0.266   8.689 -2.0046  1.6603 -0.4434
   21MOL0     H 2887   1.426   0.275   8.852  0.1775  1.0635 -0.4147
   21MOL0     H 2888   1.523   0.509   8.858  0.5084  1.2720 -1.1590
   21MOL0     H 2889   1.418   0.483   8.710 -0.7150  0.3500  1.4881
   21MOL0     H 2890   1.723   0.477   8.698  0.4675 -0.5681 -0.0336
   21MOL0     H 2891   1.611   0.430   8.575 -3.7453  3.8501 -3.6581
   21MOL0     H 2892   1.547   0.630   8.522 -1.0203  0.1531  1.3856
   21MOL0     H 2893   1.707   0.679   8.565  0.7878  0.2631  2.5249
   21MOL0     H 2894   1.485   0.887   8.854 -0.3455  1.7384 -2.0053
   21MOL0     H 2895   1.451   0.342   9.060  0.4684 -1.0235 -0.4444
   21MOL0     H 2896   1.491   0.371   9.404  0.9730  1.3229  0.6087
   21MOL0     H 2897   1.395   0.421   9.254 -0.0771  1.1318  0.9714
   21MOL0     H 2898   1.417   0.258   9.295 -0.3181  0.2894 -2.5577
   22MOL0     O 2899   0.971   6.640   1.855  0.3325 -0.1682  0.0427
   22MOL0     C 2900   1.000   6.697   1.750 -0.4210 -0.5819  0.4440
   22MOL0     O 2901   1.128   6.721   1.705 -0.3979  0.2383  0.4259
   22MOL0     C 2902   1.235   6.677   1.775  0.2832 -0.1955 -0.1064
   22MOL0     C 2903   1.335   6.776   1.801  0.9247 -0.4123  0.3145
   22MOL0     C 2904   1.462   6.730   1.853  0.0650 -0.4181  0.2062
   22MOL0     C 2905   1.481   6.592   1.880 -0.2456  0.0461 -0.1824
   22MOL0     O 2906   1.607   6.556   1.926  0.2992  0.7978  0.0199
   22MOL0     C 2907   1.657   6.426   1.899 -1.2157  0.0561  0.2305
   22MOL0     C 2908   1.767   6.383   2.001  0.3964  0.2613  0.1115
   22MOL0     C 2909   1.876   6.491   2.026  0.1785 -0.0694 -0.1236
   22MOL0     C 2910   1.963   6.520   1.900 -0.5025 -0.0842  0.0282
   22MOL0     C 2911   2.071   6.634   1.926 -0.8553 -0.1906 -0.7241
   22MOL0     C 2912   2.006   6.775   1.906  0.7185  0.3511  0.0224
   22MOL0     C 2913   2.099   6.889   1.926 -0.7036 -0.0748 -0.9611
   22MOL0     C 2914   2.120   6.964   1.789 -0.2456  0.6293 -0.2889
   22MOL0     N 2915   2.215   7.085   1.790 -0.1591  0.3901  0.4191
   22MOL0     C 2916   2.279   7.147   1.894 -0.6417 -0.2343 -0.0354
   22MOL0     C 2917   2.364   7.249   1.844  0.0014 -0.1946 -0.5399
   22MOL0     C 2918   2.472   7.324   1.930 -0.5755  0.0046  0.5250
   22MOL0     C 2919   2.616   7.264   1.919 -0.1755  0.0274  0.1699
   22MOL0     C 2920   2.620   7.121   1.865  0.3263 -0.5867 -0.2136
   22MOL0     C 2921   2.576   7.002   1.961 -0.0423  0.6739  0.6394
   22MOL0     O 2922   2.586   6.869   1.906 -0.3416  0.1507 -0.3174
   22MOL0     C 2923   2.519   6.777   1.980 -0.3121  0.7540 -0.3408
   22MOL0     C 2924   2.504   6.654   1.926  0.1426  0.5192 -0.3190
   22MOL0     C 2925   2.431   6.545   1.988 -0.4465 -0.4814 -0.0914
   22MOL0     C 2926   2.398   6.419   1.904 -0.6671 -0.5547 -0.5463
   22MOL0     C 2927   2.377   6.570   2.122  0.1180  0.1320  0.4723
   22MOL0     C 2928   2.293   6.470   2.195 -0.7504  0.7081 -0.4541
   22MOL0     O 2929   2.219   6.383   2.128  0.0496 -0.6711 -0.1940
   22MOL0     C 2930   2.175   6.271   2.194 -0.0159 -0.0372  0.8154
   22MOL0     C 2931   2.229   6.153   2.148 -0.5390 -0.6346 -0.0474
   22MOL0     C 2932   2.183   6.026   2.189 -0.0059  1.0536  0.0322
   22MOL0     C 2933   2.074   6.017   2.274 -0.6838 -0.0815 -0.2643
   22MOL0     O 2934   2.032   5.891   2.297 -0.4655  0.9391  0.0415
   22MOL0     C 2935   1.910   5.880   2.380  0.1494  0.4908  0.3075
   22MOL0     C 2936   1.882   5.732   2.401 -0.1471 -0.2805  1.2825
   22MOL0     C 2937   1.967   5.661   2.510  0.1771 -0.4535 -0.4109
   22MOL0     C 2938   2.031   5.530   2.452  0.4016 -0.6522 -0.1588
   22MOL0     C 2939   2.135   5.469   2.549 -0.4402  0.1560  0.2407
   22MOL0     C 2940   2.266   5.535   2.530 -0.6908 -0.1825 -0.3731
   22MOL0     C 2941   2.360   5.480   2.633 -0.6437  0.1645 -0.6420
   22MOL0     C 2942   2.456   5.391   2.558 -0.3772 -0.2810 -0.1883
   22MOL0    Cl 2943   2.575   5.331   2.683  0.4388 -0.1206  0.0729
   22MOL0     C 2944   2.017   6.133   2.319 -0.5338 -0.5348 -0.2562
   22MOL0     C 2945   2.068   6.261   2.285 -0.2142  0.0098 -0.0021
   22MOL0     O 2946   2.302   6.473   2.320  0.2054 -0.0198  0.1545
   22MOL0     C 2947   2.394   6.698   2.178  0.6340  0.9376 -0.2201
   22MOL0     C 2948   2.469   6.792   2.106 -0.5567  0.3582 -0.1867
   22MOL0     N 2949   2.342   7.248   1.705  0.6101 -0.2070 -0.6976
   22MOL0     N 2950   2.256   7.150   1.678 -0.4170  0.7866 -0.3646
   22MOL0     C 2951   1.371   6.501   1.869 -0.6395 -0.5597 -0.0819
   22MOL0     C 2952   1.248   6.546   1.814 -0.5960 -0.2529  0.4868
   22MOL0     C 2953   0.887   6.740   1.667 -0.3434  0.7580 -0.6197
   22MOL0     C 2954   0.758   6.757   1.722 -0.0104 -0.9755 -0.2730
   22MOL0     C 2955   0.653   6.806   1.634  0.8544 -0.4213 -0.7458
   22MOL0     C 2956   0.682   6.837   1.503  0.1675 -0.3587  0.1745
   22MOL0     O 2957   0.588   6.878   1.405  0.6896 -0.3177 -0.9578
   22MOL0     C 2958   0.451   6.881   1.449 -0.1376  0.0156  1.0966
   22MOL0     C 2959   0.376   6.924   1.329 -0.0996 -0.5450  0.4031
   22MOL0     C 2960   0.411   7.069   1.288 -0.7556 -0.2528 -0.5904
   22MOL0     C 2961   0.306   7.128   1.200 -0.5120  0.4734 -0.5494
   22MOL0     C 2962   0.303   7.075   1.064 -0.0729 -0.7145 -0.5250
   22MOL0     C 2963   0.306   7.022   0.951 -0.3589 -0.1872 -0.2670
   22MOL0     C 2964   0.809   6.814   1.458 -0.5133  0.5752 -0.7479
   22MOL0     C 2965   0.912   6.775   1.535 -0.4853  0.9236  0.9307
   22MOL0     C 2966   1.041   6.770   1.451 -0.6471  0.6616  0.7959
   22MOL0     H 2967   1.326   6.879   1.767  0.6431 -0.6508 -0.3364
   22MOL0     H 2968   1.542   6.803   1.849 -2.0898  2.0621 -0.8864
   22MOL0     H 2969   1.698   6.431   1.797  1.9607  0.5651  1.4275
   22MOL0     H 2970   1.582   6.347   1.909 -1.3539 -0.4732 -3.5384
   22MOL0     H 2971   1.726   6.349   2.096 -0.3790 -3.2288 -1.2975
   22MOL0     H 2972   1.823   6.297   1.963 -0.9990  0.1045 -1.7633
   22MOL0     H 2973   1.828   6.583   2.061 -1.3852 -1.1022  0.5467
   22MOL0     H 2974   1.940   6.447   2.102 -0.3891 -1.6403 -0.5171
   22MOL0     H 2975   2.021   6.431   1.875  0.3607  0.9033 -1.6387
   22MOL0     H 2976   1.905   6.565   1.819 -0.8971  1.5465  1.1514
   22MOL0     H 2977   2.155   6.625   1.857  0.5712  0.7122  0.8077
   22MOL0     H 2978   2.113   6.628   2.027 -2.1943 -0.0971 -0.1438
   22MOL0     H 2979   1.958   6.786   1.808  0.0370  1.0130  0.4197
   22MOL0     H 2980   1.925   6.785   1.979  1.5103  2.4327  0.6634
   22MOL0     H 2981   2.197   6.857   1.964 -1.9899 -1.2451  1.6537
   22MOL0     H 2982   2.062   6.953   2.006  1.0677  0.0927 -0.2193
   22MOL0     H 2983   2.160   6.901   1.709  1.0956  1.6468 -0.4506
   22MOL0     H 2984   2.023   6.992   1.747 -1.6134 -3.7565 -0.5997
   22MOL0     H 2985   2.268   7.103   1.993 -1.9866 -2.3281 -1.0526
   22MOL0     H 2986   2.434   7.309   2.032 -3.1475 -2.7009 -0.6776
   22MOL0     H 2987   2.470   7.428   1.897 -2.9748 -0.2555 -0.3512
   22MOL0     H 2988   2.674   7.336   1.860 -2.5058 -0.3613 -2.8204
   22MOL0     H 2989   2.663   7.256   2.018  3.4343  0.3589 -1.3506
   22MOL0     H 2990   2.564   7.122   1.771  3.1572  1.7977 -2.0793
   22MOL0     H 2991   2.723   7.093   1.841  0.3936  0.1204 -0.7996
   22MOL0     H 2992   2.630   7.009   2.055  1.9888  3.3073 -0.5854
   22MOL0     H 2993   2.472   7.028   1.984 -0.9467 -2.3084  0.3725
   22MOL0     H 2994   2.542   6.634   1.827 -0.4865  1.3419 -0.7422
   22MOL0     H 2995   2.402   6.337   1.976  1.9212  0.8540  1.0502
   22MOL0     H 2996   2.470   6.411   1.822  1.0546 -1.4467  0.9924
   22MOL0     H 2997   2.293   6.430   1.872 -2.9913 -3.1433  4.9349
   22MOL0     H 2998   2.309   6.158   2.075  0.7502 -0.8842  1.3115
   22MOL0     H 2999   2.233   5.935   2.157  0.3353  1.0995  0.4200
   22MOL0     H 3000   1.932   5.918   2.480 -0.8812  1.6913  0.0983
   22MOL0     H 3001   1.826   5.938   2.342 -0.2767 -0.2706  0.0612
   22MOL0     H 3002   1.777   5.713   2.424 -0.3041 -1.0120  0.0546
   22MOL0     H 3003   1.888   5.692   2.300  1.2752  4.2473 -0.6784
   22MOL0     H 3004   1.897   5.645   2.592 -0.5066 -0.2661 -0.9469
   22MOL0     H 3005   2.046   5.731   2.539 -0.2561  0.8062 -2.1021
   22MOL0     H 3006   2.083   5.568   2.364  0.4649 -0.2625  0.0496
   22MOL0     H 3007   1.956   5.455   2.423 -2.1030  0.9725  1.6902
   22MOL0     H 3008   2.094   5.483   2.649  0.1239  1.2281  0.3384
   22MOL0     H 3009   2.154   5.363   2.529  1.3364  0.3541  0.6755
   22MOL0     H 3010   2.263   5.644   2.544 -0.9659 -0.0629 -1.2871
   22MOL0     H 3011   2.292   5.521   2.425  1.3145 -0.5231  0.1435
   22MOL0     H 3012   2.318   5.443   2.727  2.2018  1.9037  1.4775
   22MOL0     H 3013   2.420   5.565   2.665  0.6237 -1.4349  1.4977
   22MOL0     H 3014   2.505   5.443   2.476 -1.7592  3.5088  1.1868
   22MOL0     H 3015   2.402   5.312   2.505  2.0727 -0.5490 -2.4664
   22MOL0     H 3016   1.928   6.132   2.382 -1.8423 -0.1772 -2.0256
   22MOL0     H 3017   2.027   6.359   2.307  1.6264  1.4190 -2.3521
   22MOL0     H 3018   2.350   6.721   2.274  1.0459  1.4224 -0.1446
   22MOL0     H 3019   2.476   6.883   2.165 -3.3934  1.3230 -1.1913
   22MOL0     H 3020   1.389   6.403   1.912  0.9000  1.6983  5.3052
   22MOL0     H 3021   1.169   6.475   1.792 -0.3570 -0.7523  1.1859
   22MOL0     H 3022   0.746   6.740   1.828  0.1320 -0.7214 -0.2148
   22MOL0     H 3023   0.552   6.809   1.673  1.0510  0.9558 -0.2846
   22MOL0     H 3024   0.420   6.780   1.479 -2.2207  1.1122  2.9150
   22MOL0     H 3025   0.430   6.935   1.542 -2.3568 -1.3776  1.4821
   22MOL0     H 3026   0.271   6.914   1.356 -0.3575 -3.0587 -1.2089
   22MOL0     H 3027   0.388   6.861   1.241 -0.0405 -0.3263  0.2540
   22MOL0     H 3028   0.408   7.127   1.381  1.5143 -0.3622 -0.4144
   22MOL0     H 3029   0.513   7.082   1.251  0.0229 -1.4660  0.9863
   22MOL0     H 3030   0.321   7.236   1.198  3.8967  0.0998  1.3157
   22MOL0     H 3031   0.213   7.105   1.254  0.0726 -1.4123 -0.2670
   22MOL0     H 3032   0.309   6.973   0.856 -0.5399  1.3718 -1.1139
   22MOL0     H 3033   0.825   6.828   1.352 -1.1935  2.2188 -0.6595
   22MOL0     H 3034   1.039   6.826   1.357 -0.2975  3.2811  2.2211
   22MOL0     H 3035   1.138   6.814   1.473  0.8999  0.9105 -4.9416
   22MOL0     H 3036   1.056   6.664   1.430  2.1290  0.9265  1.0709
   23MOL0     O 3037   6.133  10.501  11.246  0.0593 -0.3115  0.1332
   23MOL0     C 3038   6.040  10.442  11.308  0.7215  0.0122  0.3781
   23MOL0     O 3039   6.005  10.462  11.440 -0.1156 -1.1001 -0.3689
   23MOL0     C 3040   6.108  10.511  11.513 -0.5820 -1.1008 -0.3997
   23MOL0     C 3041   6.083  10.606  11.616  1.0757 -0.1452  0.5910
   23MOL0     C 3042   6.194  10.657  11.690 -0.1099 -1.1060 -0.1250
   23MOL0     C 3043   6.329  10.618  11.671 -0.6341  0.4396  0.4573
   23MOL0     O 3044   6.443  10.669  11.736  0.2394 -0.6237 -0.8198
   23MOL0     C 3045   6.417  10.778  11.837 -0.2205 -0.8544  0.0519
   23MOL0     C 3046   6.541  10.876  11.839  0.1243  0.3634 -0.3224
   23MOL0     C 3047   6.667  10.800  11.808  0.6415  0.3968  0.9413
   23MOL0     C 3048   6.785  10.886  11.821  0.1314  0.9750 -0.3821
   23MOL0     C 3049   6.912  10.814  11.819  0.6080  0.2830  0.3302
   23MOL0     C 3050   7.035  10.912  11.800 -0.2052 -0.5808 -0.5135
   23MOL0     C 3051   7.175  10.838  11.835 -0.4133 -0.7124 -0.5182
   23MOL0     C 3052   7.187  10.822  11.980  0.0949 -0.2189 -0.6687
   23MOL0     N 3053   7.306  10.744  12.015  0.2707  0.2111  0.4875
   23MOL0     C 3054   7.428  10.787  12.068 -0.3260 -0.0913  0.5870
   23MOL0     C 3055   7.507  10.679  12.044 -0.5292 -0.2974  0.5148
   23MOL0     C 3056   7.654  10.673  12.063 -0.4724  0.0603  0.8947
   23MOL0     C 3057   7.699  10.637  12.204  0.8374 -0.4912 -0.1287
   23MOL0     C 3058   7.832  10.578  12.209  0.1272  0.2067 -1.1125
   23MOL0     C 3059   7.882  10.534  12.358  1.2983  0.2162 -0.3716
   23MOL0     O 3060   7.934  10.629  12.458 -0.1545 -0.3138 -0.2152
   23MOL0     C 3061   8.070  10.626  12.483 -0.0030  0.4524  0.7069
   23MOL0     C 3062   8.134  10.752  12.482 -1.2151 -0.0240 -0.3857
   23MOL0     C 3063   8.277  10.761  12.517 -0.4880 -0.3427  0.0859
   23MOL0     C 3064   8.331  10.904  12.529  0.4032 -0.3566 -0.3373
   23MOL0     C 3065   8.355  10.643  12.530 -0.4940  0.4474  0.8118
   23MOL0     C 3066   8.503  10.641  12.560 -0.3675  0.7682 -0.6415
   23MOL0     O 3067   8.566  10.516  12.588 -0.1276 -0.1147 -0.4223
   23MOL0     C 3068   8.699  10.520  12.586 -0.3548  0.0782  0.5819
   23MOL0     C 3069   8.772  10.534  12.465  0.4680  0.1748  0.1615
   23MOL0     C 3070   8.909  10.536  12.468 -0.5115  0.2911 -0.1132
   23MOL0     C 3071   8.968  10.508  12.589 -1.0488  0.7257  0.8116
   23MOL0     O 3072   9.105  10.488  12.603 -0.4995  0.3866  0.2943
   23MOL0     C 3073   9.193  10.586  12.553  0.3433 -0.6491 -0.0485
   23MOL0     C 3074   9.339  10.552  12.589 -0.0357 -0.2322  0.3964
   23MOL0     C 3075   9.385  10.409  12.576  0.2482  0.1324  0.5054
   23MOL0     C 3076   9.298  10.309  12.488 -0.6525  0.2890 -0.2619
   23MOL0     C 3077   9.386  10.188  12.451  0.0338  0.2837  0.4439
   23MOL0     C 3078   9.308  10.111  12.336  0.8248 -0.0307 -0.4855
   23MOL0     C 3079   9.369   9.974  12.296 -0.3240 -0.1080  0.0426
   23MOL0     C 3080   9.512   9.981  12.262 -0.6345 -0.5688 -0.6439
   23MOL0    Cl 3081   9.564   9.860  12.138 -0.1790 -0.0548 -0.0893
   23MOL0     C 3082   8.894  10.495  12.706 -0.2004 -0.4991 -1.2608
   23MOL0     C 3083   8.755  10.498  12.709 -0.7902  0.3881  0.2872
   23MOL0     O 3084   8.565  10.748  12.558  0.5670 -0.5500  0.5909
   23MOL0     C 3085   8.284  10.516  12.516 -0.3719  0.7001  0.0401
   23MOL0     C 3086   8.144  10.511  12.510  0.3855 -0.1192  0.8432
   23MOL0     N 3087   7.423  10.575  12.015 -0.0862  0.9972 -0.1967
   23MOL0     N 3088   7.311  10.608  11.988 -0.5515 -0.1905 -0.7058
   23MOL0     C 3089   6.346  10.512  11.580 -0.2311 -0.4319  0.7721
   23MOL0     C 3090   6.237  10.458  11.504  0.3811  0.0419  0.4842
   23MOL0     C 3091   5.951  10.348  11.233 -0.3986  0.3462  0.0287
   23MOL0     C 3092   5.953  10.353  11.095 -0.1965  0.1312  0.1402
   23MOL0     C 3093   5.885  10.257  11.026 -0.5525  0.0159  0.1894
   23MOL0     C 3094   5.813  10.156  11.088 -0.3594 -0.6976 -0.2547
   23MOL0     O 3095   5.754  10.065  11.006 -0.1698  0.3926  0.6121
   23MOL0     C 3096   5.686   9.959  11.058 -0.3382 -0.3735  0.4543
   23MOL0     C 3097   5.637   9.866  10.948  0.4731  0.0587  0.7637
   23MOL0     C 3098   5.758   9.840  10.861 -0.2320 -0.4006  0.4455
   23MOL0     C 3099   5.746   9.724  10.759 -0.0382 -0.1529  0.1351
   23MOL0     C 3100   5.661   9.747  10.636 -0.0238 -0.0006 -1.1492
   23MOL0     C 3101   5.611   9.753  10.528 -0.3846  0.5996 -0.3204
   23MOL0     C 3102   5.813  10.151  11.225  0.0706 -0.3794 -0.0895
   23MOL0     C 3103   5.883  10.241  11.301 -0.3524 -0.0742 -0.7144
   23MOL0     C 3104   5.859  10.220  11.452  0.2431  0.1001 -0.1022
   23MOL0     H 3105   5.983  10.644  11.637  0.8322  0.7711 -1.8589
   23MOL0     H 3106   6.163  10.720  11.773 -1.3955  0.6736 -1.8813
   23MOL0     H 3107   6.414  10.743  11.940  1.2307  3.7580  1.8658
   23MOL0     H 3108   6.323  10.834  11.831 -0.6345 -1.5153  0.1944
   23MOL0     H 3109   6.528  10.953  11.762 -3.2933  1.3912  1.0802
   23MOL0     H 3110   6.565  10.923  11.934 -1.5362  2.0230 -0.6610
   23MOL0     H 3111   6.674  10.712  11.873 -1.0408 -0.4718  0.0114
   23MOL0     H 3112   6.674  10.768  11.704  3.1306 -1.7251  1.6489
   23MOL0     H 3113   6.784  10.960  11.740 -1.6418  0.7819 -0.5623
   23MOL0     H 3114   6.775  10.951  11.909 -1.1715  0.2366  0.0327
   23MOL0     H 3115   6.903  10.733  11.746 -0.3078  0.8708 -0.2272
   23MOL0     H 3116   6.913  10.771  11.920 -2.6575  2.1020  1.2822
   23MOL0     H 3117   7.036  10.950  11.697 -0.9063  0.0126 -0.3090
   23MOL0     H 3118   7.021  11.006  11.855  1.1270 -0.8157  0.2617
   23MOL0     H 3119   7.260  10.890  11.792  0.9277 -1.1150  1.5099
   23MOL0     H 3120   7.169  10.736  11.795  1.3562 -1.7470  1.6126
   23MOL0     H 3121   7.186  10.925  12.016  0.6637  0.0619 -1.4106
   23MOL0     H 3122   7.090  10.777  12.004  0.1094 -1.4422 -2.6232
   23MOL0     H 3123   7.449  10.892  12.085 -0.0926  0.3779 -2.1421
   23MOL0     H 3124   7.690  10.771  12.030 -2.2031  0.5413  0.3175
   23MOL0     H 3125   7.697  10.608  11.985  0.2102  3.8358 -2.1675
   23MOL0     H 3126   7.682  10.719  12.274 -0.8586 -0.7209 -0.2193
   23MOL0     H 3127   7.627  10.568  12.248 -0.5677  0.8110 -0.2996
   23MOL0     H 3128   7.848  10.489  12.148  2.8487  1.1377 -1.9009
   23MOL0     H 3129   7.901  10.653  12.172  1.4942 -1.0840 -1.2754
   23MOL0     H 3130   7.791  10.496  12.405  1.2658  0.6140 -0.1154
   23MOL0     H 3131   7.946  10.449  12.330 -1.1552 -0.6811 -3.9845
   23MOL0     H 3132   8.072  10.838  12.458 -2.3539 -1.3791 -2.6559
   23MOL0     H 3133   8.266  10.992  12.532 -0.4200 -0.9865  2.1400
   23MOL0     H 3134   8.409  10.915  12.452 -0.5850  1.2402 -1.1617
   23MOL0     H 3135   8.382  10.914  12.626  0.3130 -0.3560 -0.2906
   23MOL0     H 3136   8.708  10.529  12.377 -0.4815 -2.5688  0.9143
   23MOL0     H 3137   8.966  10.551  12.376 -0.8472 -2.1852 -0.8055
   23MOL0     H 3138   9.186  10.584  12.444 -2.2949 -0.7257  0.0582
   23MOL0     H 3139   9.166  10.684  12.593  2.7775  0.1093 -0.1326
   23MOL0     H 3140   9.407  10.617  12.533  1.7845 -0.9978  1.6441
   23MOL0     H 3141   9.360  10.575  12.693  0.2880  0.6284  0.1516
   23MOL0     H 3142   9.407  10.360  12.671  1.1559  1.5259  1.0451
   23MOL0     H 3143   9.485  10.423  12.534 -0.5963 -1.4373 -2.3086
   23MOL0     H 3144   9.271  10.356  12.393 -0.4069 -4.1614 -2.8416
   23MOL0     H 3145   9.207  10.285  12.544  0.0454  0.0557  0.8018
   23MOL0     H 3146   9.489  10.203  12.416  0.5610 -4.7881 -0.9538
   23MOL0     H 3147   9.409  10.117  12.531  5.0236  0.4698 -0.4807
   23MOL0     H 3148   9.305  10.171  12.245 -1.4378 -1.4256 -1.4147
   23MOL0     H 3149   9.205  10.090  12.366  1.1892  1.2219  1.9032
   23MOL0     H 3150   9.322   9.941  12.203 -0.4404 -2.0333  0.7351
   23MOL0     H 3151   9.363   9.900  12.376  1.2275  1.4182  1.6782
   23MOL0     H 3152   9.581   9.972  12.347  1.5277 -0.0648 -2.2470
   23MOL0     H 3153   9.545  10.078  12.221  1.4890  0.2784  2.6754
   23MOL0     H 3154   8.941  10.464  12.799 -0.3576  2.5970 -0.0058
   23MOL0     H 3155   8.696  10.476  12.797  0.2875 -0.3792  0.8449
   23MOL0     H 3156   8.340  10.423  12.525  0.8522  1.4586  0.4010
   23MOL0     H 3157   8.090  10.418  12.493  1.3870 -0.7040  0.8329
   23MOL0     H 3158   6.449  10.483  11.560 -0.3784 -0.1987 -0.3666
   23MOL0     H 3159   6.253  10.382  11.428 -0.4397  0.3815 -0.0396
   23MOL0     H 3160   5.999  10.431  11.035  0.0009  0.6261  0.9177
   23MOL0     H 3161   5.886  10.268  10.918  1.0139 -1.3465  0.0242
   23MOL0     H 3162   5.755   9.900  11.119 -0.2883  0.4063  1.1782
   23MOL0     H 3163   5.600   9.989  11.119 -0.4432  2.2285 -0.8258
   23MOL0     H 3164   5.556   9.905  10.885 -1.7759  0.4809  3.7036
   23MOL0     H 3165   5.586   9.778  10.990 -4.5113  2.2824  0.1852
   23MOL0     H 3166   5.770   9.932  10.803 -2.2861  0.1378  0.7995
   23MOL0     H 3167   5.841   9.815  10.927  0.0016 -2.5796 -0.5729
   23MOL0     H 3168   5.731   9.633  10.816  0.8961  1.2557  2.7825
   23MOL0     H 3169   5.850   9.730  10.724  0.1629  1.1105  0.8879
   23MOL0     H 3170   5.565   9.756  10.432  0.2820  1.8293 -0.6181
   23MOL0     H 3171   5.746  10.078  11.270  2.5324 -2.1150  1.0117
   23MOL0     H 3172   5.802  10.127  11.459  0.7563 -0.3026 -1.1388
   23MOL0     H 3173   5.950  10.202  11.511 -0.3309  0.2057  0.8471
   23MOL0     H 3174   5.811  10.307  11.497  0.3568 -0.0535  0.3220
   24MOL0     O 3175   7.275   2.298   9.288 -0.1846  0.2699 -0.3831
   24MOL0     C 3176   7.214   2.339   9.185 -0.0957  0.3321 -0.4507
   24MOL0     O 3177   7.277   2.356   9.063 -0.1869 -0.3844  0.3784
   24MOL0     C 3178   7.413   2.349   9.043 -0.4726  0.1250 -0.4984
   24MOL0     C 3179   7.511   2.382   9.135  0.4408 -0.1070 -1.4456
   24MOL0     C 3180   7.641   2.364   9.100  0.0263  0.4871  0.0903
   24MOL0     C 3181   7.686   2.321   8.975 -0.0974  0.0821  0.1298
   24MOL0     O 3182   7.826   2.320   8.957 -0.1016  0.1119 -0.4143
   24MOL0     C 3183   7.876   2.310   8.822  0.4122 -0.1478  0.9816
   24MOL0     C 3184   8.027   2.343   8.817 -0.2899 -0.0108  0.6152
   24MOL0     C 3185   8.097   2.267   8.707  0.0363  0.7139 -0.3504
   24MOL0     C 3186   8.249   2.267   8.721  0.6888 -0.6064 -0.1284
   24MOL0     C 3187   8.303   2.413   8.720  0.6017  0.4761  0.2019
   24MOL0     C 3188   8.450   2.394   8.684  0.5161  1.3993  0.7454
   24MOL0     C 3189   8.482   2.385   8.531 -0.2801 -0.3292 -0.4561
   24MOL0     C 3190   8.632   2.398   8.505 -1.6348 -0.2966 -0.1122
   24MOL0     N 3191   8.723   2.280   8.538  0.5521 -0.4786  0.4506
   24MOL0     C 3192   8.804   2.277   8.648  0.3388 -0.0882 -0.0844
   24MOL0     C 3193   8.846   2.155   8.640 -0.3295  0.2914  0.6468
   24MOL0     C 3194   8.932   2.091   8.745  0.0474 -0.0369  0.5977
   24MOL0     C 3195   9.046   2.180   8.786 -0.3621 -0.0216 -0.2921
   24MOL0     C 3196   9.106   2.141   8.923 -0.1746 -0.5529  1.4048
   24MOL0     C 3197   9.181   2.011   8.915 -0.2326 -0.2658 -0.4788
   24MOL0     O 3198   9.313   2.002   8.859  0.4721 -0.4887 -0.0862
   24MOL0     C 3199   9.413   1.919   8.911 -0.0028 -0.3865  0.1093
   24MOL0     C 3200   9.391   1.816   9.004 -0.0552  0.0090 -0.2410
   24MOL0     C 3201   9.496   1.732   9.035  0.2831  0.2937 -0.1847
   24MOL0     C 3202   9.463   1.632   9.147 -0.1202  0.5866  0.2457
   24MOL0     C 3203   9.621   1.749   8.976  0.0502 -0.1795  0.4925
   24MOL0     C 3204   9.747   1.671   8.998 -0.0477  0.1547  0.3095
   24MOL0     O 3205   9.835   1.657   8.895  0.1046 -0.2046  0.2873
   24MOL0     C 3206   9.962   1.612   8.907 -0.6235  0.2623 -1.0578
   24MOL0     C 3207  10.043   1.605   8.801 -0.5785 -0.2980  0.6014
   24MOL0     C 3208  10.180   1.578   8.804 -0.7124  0.4189 -0.6219
   24MOL0     C 3209  10.245   1.544   8.921 -0.6199 -0.5145 -0.4352
   24MOL0     O 3210  10.373   1.491   8.934 -0.2743  0.1577 -0.9794
   24MOL0     C 3211  10.450   1.481   8.812  0.5082  0.2979  0.3943
   24MOL0     C 3212  10.597   1.456   8.846  0.8440 -0.1118 -0.0546
   24MOL0     C 3213  10.627   1.332   8.922  0.1650  0.6191 -0.5272
   24MOL0     C 3214  10.778   1.301   8.919 -0.2319 -0.3845  0.3908
   24MOL0     C 3215  10.800   1.154   8.946 -0.2008 -0.5670 -0.0871
   24MOL0     C 3216  10.951   1.127   8.932 -0.2108 -0.1981  0.2986
   24MOL0     C 3217  10.993   0.974   8.970  0.4719 -0.6620  0.8623
   24MOL0     C 3218  10.967   0.936   9.113 -0.9762  0.0595 -0.6664
   24MOL0    Cl 3219  11.045   0.773   9.144  0.4667 -0.0183  0.4299
   24MOL0     C 3220  10.165   1.540   9.034  0.0881 -0.5513 -0.1361
   24MOL0     C 3221  10.030   1.581   9.027 -0.2769  0.0654  0.2236
   24MOL0     O 3222   9.765   1.639   9.118  0.4879  0.2363 -0.2185
   24MOL0     C 3223   9.635   1.854   8.884 -0.0949  0.3041 -0.5137
   24MOL0     C 3224   9.533   1.945   8.855 -0.6411 -0.4014 -0.8674
   24MOL0     N 3225   8.812   2.097   8.523 -0.6268  0.0033 -0.3006
   24MOL0     N 3226   8.731   2.167   8.466  0.3268 -0.7126  0.2965
   24MOL0     C 3227   7.579   2.304   8.877  0.1453  0.3823  0.0725
   24MOL0     C 3228   7.448   2.319   8.913  0.4689 -0.4762 -0.7122
   24MOL0     C 3229   7.072   2.340   9.206 -0.0687 -1.0016 -0.0964
   24MOL0     C 3230   6.990   2.289   9.113 -0.0740 -0.0794  0.9001
   24MOL0     C 3231   6.853   2.274   9.131 -0.4822  0.1650  0.5036
   24MOL0     C 3232   6.790   2.320   9.238 -0.0670  0.4441 -1.0311
   24MOL0     O 3233   6.660   2.302   9.258  0.6747  0.1453  0.3585
   24MOL0     C 3234   6.613   2.309   9.390 -0.3791 -0.3662  0.3909
   24MOL0     C 3235   6.489   2.218   9.404 -0.6411 -0.6035  0.1645
   24MOL0     C 3236   6.380   2.230   9.292 -0.5579 -0.1963 -0.2480
   24MOL0     C 3237   6.260   2.129   9.308  0.0650 -0.5564  0.2204
   24MOL0     C 3238   6.160   2.157   9.404  0.5976  0.5129 -1.7014
   24MOL0     C 3239   6.071   2.163   9.496  0.8649  0.6668 -0.1113
   24MOL0     C 3240   6.871   2.395   9.332  0.4527  0.2932 -0.2979
   24MOL0     C 3241   7.011   2.410   9.314 -0.3446  0.2079 -0.3241
   24MOL0     C 3242   7.089   2.475   9.426  0.2195  0.7494 -0.1058
   24MOL0     H 3243   7.488   2.422   9.234 -0.8080  0.5116 -1.9717
   24MOL0     H 3244   7.719   2.376   9.175 -1.5198  0.1026  1.8355
   24MOL0     H 3245   7.818   2.373   8.753  0.3344  0.2446  1.3938
   24MOL0     H 3246   7.872   2.209   8.781  3.5006  0.3092 -0.7335
   24MOL0     H 3247   8.037   2.450   8.796  2.2137 -0.5123 -1.1175
   24MOL0     H 3248   8.066   2.324   8.917  2.8744 -1.0026 -0.6906
   24MOL0     H 3249   8.060   2.164   8.712  1.6184  0.0101 -2.0320
   24MOL0     H 3250   8.063   2.312   8.614 -0.0345  1.3654 -0.0150
   24MOL0     H 3251   8.274   2.206   8.808  0.3570  0.4726  0.7447
   24MOL0     H 3252   8.292   2.217   8.634  1.0355 -1.0727  0.3011
   24MOL0     H 3253   8.301   2.449   8.823  3.9665  0.9536  0.2199
   24MOL0     H 3254   8.250   2.480   8.651  2.9690  3.0272  0.6717
   24MOL0     H 3255   8.501   2.482   8.725  3.2518  1.2605 -1.9973
   24MOL0     H 3256   8.479   2.303   8.737 -1.4177 -0.3574 -1.0503
   24MOL0     H 3257   8.441   2.472   8.479 -0.5867 -0.6656 -0.7856
   24MOL0     H 3258   8.432   2.298   8.486 -3.0094 -0.2220  2.1292
   24MOL0     H 3259   8.645   2.419   8.399 -0.6975  0.5261  0.1486
   24MOL0     H 3260   8.653   2.484   8.570  0.4961 -1.5187  0.9097
   24MOL0     H 3261   8.804   2.346   8.733 -1.0078  0.8925 -0.8391
   24MOL0     H 3262   8.971   1.995   8.711  1.5735  0.0451  1.9807
   24MOL0     H 3263   8.873   2.073   8.834  2.0889 -0.2157  1.9894
   24MOL0     H 3264   9.131   2.167   8.718  1.0377  2.6143  0.8085
   24MOL0     H 3265   9.021   2.286   8.792  1.0443  0.2567  1.4202
   24MOL0     H 3266   9.174   2.222   8.950 -0.1565  0.3065 -0.9439
   24MOL0     H 3267   9.018   2.142   8.988 -2.2124 -0.2662 -1.2080
   24MOL0     H 3268   9.184   1.982   9.020  0.5643 -4.0540 -1.3888
   24MOL0     H 3269   9.119   1.932   8.872  0.8078 -1.7790  0.7089
   24MOL0     H 3270   9.290   1.801   9.041 -0.1323  0.6182 -0.1872
   24MOL0     H 3271   9.519   1.538   9.144  0.5399  0.9510  0.9061
   24MOL0     H 3272   9.358   1.602   9.147 -0.0877  0.3095 -1.7373
   24MOL0     H 3273   9.484   1.688   9.238 -0.8715  0.3007  0.5996
   24MOL0     H 3274   9.998   1.619   8.703  1.2236  0.4884 -0.1514
   24MOL0     H 3275  10.229   1.569   8.707  0.0353 -0.7161 -0.1536
   24MOL0     H 3276  10.400   1.398   8.761 -1.7659  1.0305  1.2614
   24MOL0     H 3277  10.444   1.574   8.756 -0.2641  1.1433  1.8289
   24MOL0     H 3278  10.651   1.444   8.751 -0.7625 -1.8555 -0.7935
   24MOL0     H 3279  10.642   1.536   8.906 -2.7661  0.6824  1.8254
   24MOL0     H 3280  10.569   1.246   8.887 -1.1419  1.6602 -1.0111
   24MOL0     H 3281  10.606   1.342   9.029  1.7964  1.6727 -0.2743
   24MOL0     H 3282  10.826   1.365   8.994  0.2270  1.0717 -1.1036
   24MOL0     H 3283  10.816   1.326   8.820 -0.3379 -1.8873 -0.0513
   24MOL0     H 3284  10.783   1.141   9.053  1.7705  0.3866  0.3975
   24MOL0     H 3285  10.752   1.093   8.869  3.0896 -2.5883 -0.7356
   24MOL0     H 3286  11.021   1.184   8.994 -0.1939 -0.3926  0.4592
   24MOL0     H 3287  10.969   1.150   8.827  0.7445  3.4572  1.1126
   24MOL0     H 3288  11.095   0.954   8.935 -0.2372  0.3269 -2.0116
   24MOL0     H 3289  10.930   0.915   8.903  2.5403  0.3109 -2.1000
   24MOL0     H 3290  10.859   0.923   9.126 -0.5448 -2.5688  0.9329
   24MOL0     H 3291  11.022   1.004   9.179  0.2526 -2.2809  0.8590
   24MOL0     H 3292  10.211   1.504   9.126  2.0259 -2.1738 -1.6288
   24MOL0     H 3293   9.971   1.587   9.117 -1.8455  3.0036 -0.8702
   24MOL0     H 3294   9.724   1.870   8.824  0.7229  3.0667  1.2615
   24MOL0     H 3295   9.553   2.020   8.779  0.1872 -0.2235 -0.4888
   24MOL0     H 3296   7.612   2.281   8.776 -0.3781  1.9856 -0.4901
   24MOL0     H 3297   7.363   2.294   8.851 -2.9888  2.5326  2.3989
   24MOL0     H 3298   7.031   2.248   9.021 -0.9612 -3.4335  1.8712
   24MOL0     H 3299   6.813   2.205   9.057 -0.2583  0.1396  0.4039
   24MOL0     H 3300   6.690   2.286   9.465 -0.5729  0.4537  0.8490
   24MOL0     H 3301   6.572   2.408   9.410 -0.2307 -0.1299 -0.4404
   24MOL0     H 3302   6.448   2.218   9.506 -0.8563  0.3016  0.0885
   24MOL0     H 3303   6.530   2.116   9.399 -1.2750 -0.8833  0.5204
   24MOL0     H 3304   6.341   2.327   9.262  0.3286 -0.3834 -2.1831
   24MOL0     H 3305   6.439   2.192   9.208  0.2331 -1.0601  0.6833
   24MOL0     H 3306   6.289   2.025   9.324  0.8764 -0.1089  1.8609
   24MOL0     H 3307   6.217   2.143   9.209  1.5672 -1.0264 -0.5325
   24MOL0     H 3308   5.988   2.169   9.563  1.3293 -0.6114  0.6206
   24MOL0     H 3309   6.816   2.452   9.407 -0.5365 -0.1389 -0.6746
   24MOL0     H 3310   7.161   2.547   9.387 -0.4275  1.5431  0.1266
   24MOL0     H 3311   7.025   2.515   9.506 -0.3978  0.2752 -0.3522
   24MOL0     H 3312   7.147   2.394   9.471 -3.0580 -2.9353 -1.8721
   25MOL0     O 3313   8.291   9.813   4.218 -0.0284 -0.1927 -0.1954
   25MOL0     C 3314   8.402   9.846   4.173 -0.9814 -0.3095 -0.1309
   25MOL0     O 3315   8.474   9.774   4.082 -0.3764 -0.5498  0.0068
   25MOL0     C 3316   8.449   9.650   4.040 -0.3532 -0.2959 -0.6243
   25MOL0     C 3317   8.341   9.563   4.079  0.5638  0.0553 -0.2530
   25MOL0     C 3318   8.315   9.445   4.008 -0.3061 -0.8149 -0.6815
   25MOL0     C 3319   8.407   9.400   3.919 -0.0420 -0.0817 -0.4559
   25MOL0     O 3320   8.382   9.279   3.863  0.1555  0.1843 -0.4586
   25MOL0     C 3321   8.487   9.204   3.801 -0.3351 -0.0302 -0.6173
   25MOL0     C 3322   8.440   9.055   3.773 -0.4685 -0.0527 -0.0865
   25MOL0     C 3323   8.559   8.947   3.769  0.7352 -1.3077  0.2700
   25MOL0     C 3324   8.606   8.917   3.909  0.8788 -0.5932 -0.4407
   25MOL0     C 3325   8.734   8.833   3.913 -0.4045  0.0149 -0.7525
   25MOL0     C 3326   8.761   8.801   4.060  0.5329 -0.9758 -0.5893
   25MOL0     C 3327   8.899   8.737   4.066 -0.0516  0.0381  0.1260
   25MOL0     C 3328   8.927   8.721   4.220 -0.5513  0.0176 -0.1365
   25MOL0     N 3329   9.043   8.637   4.234 -0.7469  0.8953 -0.2199
   25MOL0     C 3330   9.153   8.651   4.159  0.7952  0.3128  0.4375
   25MOL0     C 3331   9.230   8.534   4.181  0.0355 -0.0318 -0.0073
   25MOL0     C 3332   9.341   8.491   4.093  0.0387  0.0052  0.1472
   25MOL0     C 3333   9.475   8.453   4.171  0.1587  0.0781  0.3351
   25MOL0     C 3334   9.589   8.427   4.073  0.0652 -0.6249 -0.6186
   25MOL0     C 3335   9.714   8.361   4.153  0.1903  1.0230 -0.5712
   25MOL0     O 3336   9.838   8.360   4.070 -0.2900 -0.5943 -0.5973
   25MOL0     C 3337   9.933   8.276   4.107 -0.4076  0.7034 -0.1177
   25MOL0     C 3338   9.963   8.228   4.237  0.3365  0.1690  0.1855
   25MOL0     C 3339  10.076   8.145   4.262 -1.4846 -1.4142  0.2818
   25MOL0     C 3340  10.105   8.093   4.403  0.1756  0.1170 -0.3674
   25MOL0     C 3341  10.158   8.109   4.145  0.5788 -0.6126  0.0733
   25MOL0     C 3342  10.276   8.019   4.143  0.4949  0.1930 -0.4040
   25MOL0     O 3343  10.362   8.049   4.254 -0.4928  0.2778  0.2715
   25MOL0     C 3344  10.459   7.963   4.289 -0.7196 -0.5641 -0.0834
   25MOL0     C 3345  10.468   7.917   4.415  0.3905  0.0293 -0.3493
   25MOL0     C 3346  10.575   7.834   4.456  0.2895  0.8023 -0.1365
   25MOL0     C 3347  10.683   7.823   4.376 -0.4307  0.7303 -0.0926
   25MOL0     O 3348  10.787   7.751   4.428  0.1745 -0.5509  0.0874
   25MOL0     C 3349  10.864   7.658   4.342 -0.1294 -0.0719 -0.5926
   25MOL0     C 3350  10.947   7.565   4.435  0.2417  0.8414  0.1631
   25MOL0     C 3351  10.871   7.469   4.515  0.0362 -0.6726  0.1028
   25MOL0     C 3352  10.774   7.533   4.618  0.2460 -0.0437  0.0319
   25MOL0     C 3353  10.742   7.433   4.727  0.7519  0.0632 -0.2050
   25MOL0     C 3354  10.601   7.455   4.791 -0.5565 -0.1553 -0.9983
   25MOL0     C 3355  10.486   7.438   4.686 -0.7591 -0.0475 -0.7584
   25MOL0     C 3356  10.375   7.360   4.750  0.4105 -0.4757  0.1145
   25MOL0    Cl 3357  10.261   7.353   4.623 -0.3696 -0.0362 -0.3182
   25MOL0     C 3358  10.681   7.871   4.247  0.3334 -0.1878  0.1201
   25MOL0     C 3359  10.566   7.941   4.211 -0.0726  0.8509 -0.0397
   25MOL0     O 3360  10.297   7.929   4.058  0.8471  0.1131 -0.7181
   25MOL0     C 3361  10.131   8.164   4.022 -0.4660  0.0694 -0.2185
   25MOL0     C 3362  10.022   8.247   4.006 -0.0721  1.3864  0.2197
   25MOL0     N 3363   9.160   8.466   4.273 -0.6820  0.2590  0.0877
   25MOL0     N 3364   9.054   8.523   4.305  0.9694 -1.3662 -0.0469
   25MOL0     C 3365   8.520   9.477   3.892 -0.2488  0.5350 -0.0654
   25MOL0     C 3366   8.536   9.606   3.945 -0.5594  0.2053 -0.5264
   25MOL0     C 3367   8.451   9.982   4.208 -0.6268  0.0329  0.2621
   25MOL0     C 3368   8.496  10.067   4.099 -0.5348 -1.0050  0.3049
   25MOL0     C 3369   8.541  10.194   4.129 -0.4747 -0.0583 -0.1174
   25MOL0     C 3370   8.539  10.244   4.251  0.1717  0.5517  0.1018
   25MOL0     O 3371   8.570  10.374   4.273 -0.5260 -0.3351 -0.2848
   25MOL0     C 3372   8.709  10.403   4.316  0.7572  0.0113 -0.1216
   25MOL0     C 3373   8.824  10.377   4.206  0.0253  0.4591  0.0480
   25MOL0     C 3374   8.797  10.426   4.056  0.3789 -0.4935  0.2742
   25MOL0     C 3375   8.917  10.439   3.969 -0.5436 -0.8452 -0.5299
   25MOL0     C 3376   8.995  10.314   3.953  0.1781 -0.5038 -0.2110
   25MOL0     C 3377   9.051  10.208   3.931 -0.1403  0.7176 -0.5625
   25MOL0     C 3378   8.506  10.172   4.361  0.9673  1.1069 -0.4839
   25MOL0     C 3379   8.458  10.038   4.339 -0.3091 -0.5167 -0.6320
   25MOL0     C 3380   8.409   9.960   4.455 -0.2226  0.1909  0.1946
   25MOL0     H 3381   8.259   9.587   4.146 -0.2014  0.8354 -1.4353
   25MOL0     H 3382   8.225   9.389   4.031 -1.9647  1.8163 -0.3138
   25MOL0     H 3383   8.569   9.211   3.874 -1.7912  0.5032  1.0256
   25MOL0     H 3384   8.508   9.258   3.708 -1.0039  1.1111 -0.1191
   25MOL0     H 3385   8.365   9.018   3.843 -0.7906 -0.7760 -0.7979
   25MOL0     H 3386   8.400   9.058   3.671  1.2402 -0.2824 -0.7996
   25MOL0     H 3387   8.522   8.860   3.714 -0.0726  0.3517 -1.9614
   25MOL0     H 3388   8.644   8.990   3.714  1.4292 -2.7116  0.2034
   25MOL0     H 3389   8.618   9.009   3.966  1.7498 -1.5960  1.0420
   25MOL0     H 3390   8.529   8.853   3.955  0.5289  0.0738 -0.0918
   25MOL0     H 3391   8.817   8.888   3.867 -0.6649  2.6613  1.7021
   25MOL0     H 3392   8.721   8.740   3.857 -0.4158  0.7713 -2.0433
   25MOL0     H 3393   8.766   8.891   4.122  0.2081 -2.4328  1.6632
   25MOL0     H 3394   8.687   8.737   4.108 -1.6502  0.7767 -1.4872
   25MOL0     H 3395   8.971   8.795   4.007 -2.5127  2.0262 -1.1134
   25MOL0     H 3396   8.903   8.637   4.024  0.7560  0.9964 -2.2725
   25MOL0     H 3397   8.951   8.814   4.274  2.6638  2.1080 -4.5865
   25MOL0     H 3398   8.844   8.677   4.276 -0.1443 -0.2727  0.2428
   25MOL0     H 3399   9.181   8.717   4.077  1.5443 -1.1274 -0.5170
   25MOL0     H 3400   9.360   8.580   4.032  1.5965  0.0173  0.5997
   25MOL0     H 3401   9.321   8.413   4.018 -2.3749  1.1805 -0.5042
   25MOL0     H 3402   9.483   8.529   4.250  0.9841 -0.6912  1.0182
   25MOL0     H 3403   9.471   8.358   4.224 -2.0372 -0.3511 -0.5223
   25MOL0     H 3404   9.558   8.357   3.994  1.5019 -0.8577 -1.0051
   25MOL0     H 3405   9.616   8.523   4.027  1.3952 -0.4258  0.5220
   25MOL0     H 3406   9.728   8.409   4.250  1.2462 -0.6318  0.1378
   25MOL0     H 3407   9.685   8.256   4.166  0.5970  0.7342 -1.8874
   25MOL0     H 3408   9.901   8.247   4.324 -0.5137 -2.0096  0.1254
   25MOL0     H 3409  10.113   7.985   4.391  1.3435 -0.1424  2.1906
   25MOL0     H 3410  10.026   8.119   4.474  0.8762 -2.8353  1.6571
   25MOL0     H 3411  10.197   8.139   4.440 -0.2515 -0.9236  2.1911
   25MOL0     H 3412  10.395   7.952   4.487  0.3535 -2.9842  1.2591
   25MOL0     H 3413  10.579   7.810   4.561 -0.7045 -0.5587 -0.3780
   25MOL0     H 3414  10.783   7.604   4.292 -0.3945 -0.6705  0.4467
   25MOL0     H 3415  10.930   7.721   4.282 -1.9670 -0.2398 -2.9579
   25MOL0     H 3416  11.002   7.501   4.365  1.5793 -0.0035  1.9308
   25MOL0     H 3417  11.015   7.623   4.497  1.5630 -1.4353  0.9506
   25MOL0     H 3418  10.952   7.413   4.562  0.2887 -0.1428  0.3081
   25MOL0     H 3419  10.814   7.394   4.459  2.3841 -2.2780 -0.2748
   25MOL0     H 3420  10.677   7.556   4.572 -0.1461  0.3274  1.0220
   25MOL0     H 3421  10.804   7.627   4.664 -1.4990  1.3173 -1.4295
   25MOL0     H 3422  10.733   7.330   4.692 -1.0743 -0.6843  2.1636
   25MOL0     H 3423  10.819   7.441   4.805  2.5558 -3.0522 -1.4977
   25MOL0     H 3424  10.590   7.552   4.840 -0.7295 -0.8127  0.2856
   25MOL0     H 3425  10.596   7.380   4.870 -0.0002  1.4516  0.6050
   25MOL0     H 3426  10.519   7.371   4.607 -0.1422  0.5472 -1.0204
   25MOL0     H 3427  10.452   7.537   4.654 -2.2941 -0.3033 -0.0252
   25MOL0     H 3428  10.326   7.411   4.834  1.3665 -0.0897  0.4533
   25MOL0     H 3429  10.411   7.263   4.784  1.7635 -0.5023 -1.2711
   25MOL0     H 3430  10.767   7.853   4.183  3.4192  0.0353  3.8510
   25MOL0     H 3431  10.564   7.966   4.105 -1.6926  0.9539 -0.0101
   25MOL0     H 3432  10.193   8.139   3.937 -0.6233 -1.5297  0.1016
   25MOL0     H 3433  10.022   8.305   3.914 -1.8448  0.0524 -0.6623
   25MOL0     H 3434   8.601   9.443   3.829  1.6265  0.8558  2.0516
   25MOL0     H 3435   8.625   9.661   3.915  0.4556 -0.6023  0.8946
   25MOL0     H 3436   8.488  10.026   3.999  0.7257  0.6102 -0.4955
   25MOL0     H 3437   8.580  10.250   4.044 -1.2445  1.1323  0.2828
   25MOL0     H 3438   8.715  10.505   4.354 -2.5452 -0.4200  1.9254
   25MOL0     H 3439   8.729  10.345   4.406 -1.6422 -0.5661  0.0992
   25MOL0     H 3440   8.847  10.271   4.218 -2.7919  0.0046  2.9603
   25MOL0     H 3441   8.912  10.427   4.247  0.6706  0.0206 -0.7607
   25MOL0     H 3442   8.731  10.364   3.995 -1.3785  0.8789  0.6890
   25MOL0     H 3443   8.745  10.522   4.064 -1.7120 -1.6575  1.5935
   25MOL0     H 3444   8.980  10.521   4.004 -1.0195 -1.1470  1.1043
   25MOL0     H 3445   8.886  10.484   3.874  0.4111 -0.8070 -0.8424
   25MOL0     H 3446   9.095  10.112   3.914  0.1376  0.5760  0.8323
   25MOL0     H 3447   8.509  10.221   4.458  0.1775  2.5712 -1.1699
   25MOL0     H 3448   8.434  10.003   4.553 -0.2735 -0.8629  0.6914
   25MOL0     H 3449   8.300   9.951   4.452 -0.2696 -0.3638  2.1012
   25MOL0     H 3450   8.452   9.860   4.446  1.2258  0.8310 -0.2058
   26MOL0     O 3451   8.483   7.091  11.022 -0.1063 -0.3530  0.0682
   26MOL0     C 3452   8.494   6.980  11.069 -0.1514  0.3482  0.0983
   26MOL0     O 3453   8.398   6.881  11.058 -0.0102  0.4610  0.4110
   26MOL0     C 3454   8.275   6.919  11.032 -0.0390 -0.1247  0.4778
   26MOL0     C 3455   8.184   6.919  11.139 -0.2699  0.2058  0.3095
   26MOL0     C 3456   8.052   6.950  11.123 -0.1144  0.1510 -0.3435
   26MOL0     C 3457   8.001   6.967  11.000  0.3801 -0.2817  0.2028
   26MOL0     O 3458   7.867   6.981  10.976  0.4305  0.1789 -0.1886
   26MOL0     C 3459   7.775   7.053  11.071  1.0730  0.1344  0.1727
   26MOL0     C 3460   7.643   7.103  11.017 -0.2389 -0.1283  0.8084
   26MOL0     C 3461   7.546   6.984  10.980 -0.2549  1.1340  0.2209
   26MOL0     C 3462   7.464   7.019  10.848  0.3860 -1.2582 -0.1197
   26MOL0     C 3463   7.378   6.902  10.800 -0.5995 -0.4272  0.2342
   26MOL0     C 3464   7.254   6.882  10.884 -0.6596  0.1060 -0.1442
   26MOL0     C 3465   7.191   6.751  10.841  0.0383  0.0307  0.3392
   26MOL0     C 3466   7.264   6.634  10.905  0.2466  0.1868 -0.6952
   26MOL0     N 3467   7.251   6.520  10.816 -0.6912  0.5978  0.4185
   26MOL0     C 3468   7.137   6.432  10.807 -0.6553  1.0761 -0.0741
   26MOL0     C 3469   7.192   6.325  10.747  0.2402 -0.7391 -0.3088
   26MOL0     C 3470   7.125   6.199  10.724  0.1855  0.9558  0.3525
   26MOL0     C 3471   7.110   6.176  10.574  0.0208  0.7289  0.3233
   26MOL0     C 3472   7.033   6.049  10.531  0.8115 -0.1402 -0.2740
   26MOL0     C 3473   7.064   5.926  10.608 -0.0357 -0.3638  0.7195
   26MOL0     O 3474   7.206   5.905  10.602 -0.2623 -0.3388  0.1033
   26MOL0     C 3475   7.267   5.828  10.700  0.0451  0.1070  0.0885
   26MOL0     C 3476   7.398   5.849  10.746  0.1352  0.2667 -0.2008
   26MOL0     C 3477   7.457   5.771  10.847  0.3668 -0.6444  0.0519
   26MOL0     C 3478   7.595   5.823  10.889  0.0379 -0.5849 -0.0868
   26MOL0     C 3479   7.394   5.662  10.911 -0.5336 -0.7554  0.2684
   26MOL0     C 3480   7.444   5.565  11.015  0.3500  0.5599  0.2422
   26MOL0     O 3481   7.351   5.501  11.092  0.8387  0.2170 -0.6362
   26MOL0     C 3482   7.397   5.404  11.177 -0.5098 -0.2952  0.2374
   26MOL0     C 3483   7.359   5.398  11.310  0.5641 -0.3336 -0.1049
   26MOL0     C 3484   7.415   5.296  11.389  0.7867  0.3350  0.8432
   26MOL0     C 3485   7.475   5.184  11.336 -0.4552  0.1427 -0.1822
   26MOL0     O 3486   7.521   5.079  11.416 -0.0952 -0.5433 -0.5588
   26MOL0     C 3487   7.662   5.055  11.404  0.0283  0.9506  0.7380
   26MOL0     C 3488   7.715   4.970  11.515  0.4082 -0.5460  0.6223
   26MOL0     C 3489   7.868   4.957  11.500 -0.7610  0.9025 -0.1591
   26MOL0     C 3490   7.926   4.932  11.646 -0.7630 -0.6853  0.2192
   26MOL0     C 3491   8.076   4.897  11.641 -0.4251  0.4580 -0.8742
   26MOL0     C 3492   8.164   5.008  11.590  0.2872  0.6138  0.3448
   26MOL0     C 3493   8.310   4.972  11.633  0.8820  0.2968 -0.3248
   26MOL0     C 3494   8.406   5.061  11.560 -0.0141 -0.4878  0.6111
   26MOL0    Cl 3495   8.387   5.239  11.602  0.1135  0.5267 -0.1205
   26MOL0     C 3496   7.494   5.187  11.197 -0.3736 -0.2015 -0.0635
   26MOL0     C 3497   7.468   5.293  11.116  0.0225  0.0014  0.7361
   26MOL0     O 3498   7.564   5.551  11.020 -0.1240 -0.4924 -0.6324
   26MOL0     C 3499   7.261   5.645  10.865  0.0891 -0.0852 -0.0855
   26MOL0     C 3500   7.198   5.726  10.767  1.4718  0.4325  0.6284
   26MOL0     N 3501   7.322   6.337  10.727  0.4040 -0.1439  0.4430
   26MOL0     N 3502   7.360   6.453  10.759  0.7258  0.1655 -0.0382
   26MOL0     C 3503   8.084   6.946  10.885 -1.7281  0.3230  0.2778
   26MOL0     C 3504   8.221   6.931  10.900 -0.1332  0.7365 -0.5909
   26MOL0     C 3505   8.621   6.928  11.137  0.9444  0.1499 -0.9221
   26MOL0     C 3506   8.743   7.005  11.115  0.0441  0.2054  0.4189
   26MOL0     C 3507   8.861   6.966  11.165 -0.4492  0.2118  0.8443
   26MOL0     C 3508   8.871   6.850  11.240  0.7444 -0.9260  0.1004
   26MOL0     O 3509   8.997   6.820  11.291 -0.2813  0.2107  0.4510
   26MOL0     C 3510   9.030   6.696  11.357  0.0344 -0.7020  0.5389
   26MOL0     C 3511   9.158   6.721  11.433 -0.1744 -0.3716  0.2037
   26MOL0     C 3512   9.290   6.732  11.358 -0.6488 -0.7453  0.3685
   26MOL0     C 3513   9.288   6.630  11.240 -0.4214  0.0948 -0.3331
   26MOL0     C 3514   9.416   6.645  11.173  0.7593  0.9737  0.0683
   26MOL0     C 3515   9.519   6.653  11.112  0.2772  0.0079  0.1247
   26MOL0     C 3516   8.757   6.773  11.267 -0.2203  0.5880 -0.3966
   26MOL0     C 3517   8.633   6.807  11.214 -0.3120  0.1368  0.3901
   26MOL0     C 3518   8.514   6.715  11.253 -0.2812 -0.7886 -1.0883
   26MOL0     H 3519   8.211   6.894  11.241 -1.7458 -0.9120  0.4590
   26MOL0     H 3520   7.979   6.958  11.203 -0.5840  0.7434 -0.8270
   26MOL0     H 3521   7.839   7.131  11.115  1.1554 -1.0384  2.2511
   26MOL0     H 3522   7.753   6.985  11.154 -1.6509  2.0710  1.1729
   26MOL0     H 3523   7.595   7.170  11.089  0.3433  0.7071  0.4376
   26MOL0     H 3524   7.671   7.169  10.935  1.4553  1.8279  2.8288
   26MOL0     H 3525   7.608   6.898  10.953 -0.5179  0.5550  1.4118
   26MOL0     H 3526   7.486   6.963  11.069  0.1698  2.3999  0.8170
   26MOL0     H 3527   7.409   7.110  10.874  1.6594 -0.4472 -0.1867
   26MOL0     H 3528   7.540   7.042  10.772  0.0037 -0.6263 -0.3227
   26MOL0     H 3529   7.448   6.818  10.794 -0.5710 -0.3357 -0.9311
   26MOL0     H 3530   7.342   6.919  10.699  1.5342 -0.2046 -0.5353
   26MOL0     H 3531   7.284   6.886  10.989  1.4169  0.4260 -0.7080
   26MOL0     H 3532   7.196   6.974  10.872  0.7461  1.7341  3.8949
   26MOL0     H 3533   7.196   6.742  10.732  1.4274  0.3465  0.3540
   26MOL0     H 3534   7.089   6.748  10.880 -0.0554  0.9526  0.1984
   26MOL0     H 3535   7.371   6.659  10.905  0.0305  1.2414  0.3475
   26MOL0     H 3536   7.229   6.610  11.006  1.5875  2.2602  0.3409
   26MOL0     H 3537   7.035   6.440  10.844 -1.3148 -0.2190 -1.4790
   26MOL0     H 3538   7.029   6.213  10.773 -1.0106 -1.0075 -1.2866
   26MOL0     H 3539   7.183   6.126  10.781  2.0821  2.8794  1.0092
   26MOL0     H 3540   7.066   6.264  10.527 -1.9210 -0.2231  0.2607
   26MOL0     H 3541   7.214   6.159  10.543  0.4559 -0.6798  2.3643
   26MOL0     H 3542   6.929   6.079  10.545  1.1017  0.2793  1.1144
   26MOL0     H 3543   7.032   6.029  10.423 -2.2748 -0.3019 -0.3128
   26MOL0     H 3544   7.054   5.946  10.715  1.6852 -0.7319  0.9672
   26MOL0     H 3545   7.004   5.835  10.595  1.3391 -1.5127  2.0883
   26MOL0     H 3546   7.452   5.929  10.697  0.4650  0.0808 -0.1467
   26MOL0     H 3547   7.584   5.821  10.998 -1.8680  2.2101 -0.0960
   26MOL0     H 3548   7.628   5.926  10.870  2.9416 -1.3916  0.2400
   26MOL0     H 3549   7.673   5.753  10.860 -0.0796 -0.1510 -1.4843
   26MOL0     H 3550   7.293   5.471  11.356 -0.3657 -1.4742  0.4430
   26MOL0     H 3551   7.394   5.301  11.496 -0.6341  0.9603  0.5643
   26MOL0     H 3552   7.675   5.013  11.304  1.0298 -1.8546  1.9311
   26MOL0     H 3553   7.724   5.145  11.405  0.7891  0.5529 -1.8230
   26MOL0     H 3554   7.687   5.030  11.602  2.6083  1.2825  0.1669
   26MOL0     H 3555   7.663   4.874  11.517 -1.2441  0.3187  1.4167
   26MOL0     H 3556   7.920   5.042  11.454  1.1659 -0.6546 -0.9658
   26MOL0     H 3557   7.882   4.873  11.431  2.1287  1.8421 -0.8551
   26MOL0     H 3558   7.877   4.851  11.701  2.5703 -2.1491  1.3143
   26MOL0     H 3559   7.919   5.026  11.702  3.2196  1.7560 -2.7609
   26MOL0     H 3560   8.099   4.869  11.744  2.6877  0.0492 -1.5947
   26MOL0     H 3561   8.097   4.810  11.579 -2.0076 -0.2718 -0.4476
   26MOL0     H 3562   8.126   5.106  11.623 -0.2013  0.9273 -1.0879
   26MOL0     H 3563   8.164   5.006  11.481 -0.3685 -2.5940  0.3190
   26MOL0     H 3564   8.330   4.867  11.609  0.3401  0.5859 -2.2393
   26MOL0     H 3565   8.327   4.986  11.740 -2.7772 -2.6286  0.8389
   26MOL0     H 3566   8.385   5.048  11.453 -4.0129  1.8516  0.9288
   26MOL0     H 3567   8.510   5.033  11.582  0.7055  0.2081 -1.6364
   26MOL0     H 3568   7.546   5.109  11.144  1.0534  0.3498  0.4859
   26MOL0     H 3569   7.490   5.291  11.010 -1.8837 -0.5504  0.3086
   26MOL0     H 3570   7.203   5.565  10.909 -1.9539  0.0094 -2.3728
   26MOL0     H 3571   7.099   5.689  10.741  2.2989 -2.1135  0.7432
   26MOL0     H 3572   8.049   6.962  10.783  0.7351  1.1646 -0.5168
   26MOL0     H 3573   8.286   6.922  10.813 -0.4946 -2.5792 -0.6794
   26MOL0     H 3574   8.743   7.092  11.050 -0.6132 -0.9244 -1.1488
   26MOL0     H 3575   8.946   7.028  11.140 -0.6992 -0.0280 -0.6993
   26MOL0     H 3576   8.965   6.677  11.443 -0.4084 -0.9040  0.1585
   26MOL0     H 3577   9.036   6.607  11.294 -0.9394 -0.9528  0.7821
   26MOL0     H 3578   9.162   6.652  11.517 -2.9434  0.2177  0.9240
   26MOL0     H 3579   9.139   6.820  11.476  2.8611 -0.4131  1.8900
   26MOL0     H 3580   9.305   6.833  11.319  0.0637 -0.5793  1.0443
   26MOL0     H 3581   9.381   6.723  11.417  2.1033  0.6541 -3.3009
   26MOL0     H 3582   9.210   6.647  11.165  0.6038  0.1446 -1.4054
   26MOL0     H 3583   9.283   6.525  11.270  2.8309 -0.7675 -2.2922
   26MOL0     H 3584   9.610   6.668  11.059 -0.2628  0.4622 -0.6854
   26MOL0     H 3585   8.768   6.677  11.315  0.9301  0.7802 -0.2397
   26MOL0     H 3586   8.434   6.777  11.293  1.4392 -0.0821  1.5928
   26MOL0     H 3587   8.477   6.660  11.166 -1.6992  0.4610 -1.3087
   26MOL0     H 3588   8.546   6.643  11.329  0.5712  1.5663  0.9073
   27MOL0     O 3589   7.815   3.514   9.870 -0.1151  0.6351 -0.9462
   27MOL0     C 3590   7.756   3.414   9.913  0.4337 -0.6729  0.5758
   27MOL0     O 3591   7.805   3.314   9.989  0.2831 -0.2279 -0.5264
   27MOL0     C 3592   7.938   3.315  10.011 -0.7256 -0.2992 -0.2321
   27MOL0     C 3593   8.013   3.232   9.931  0.5833  0.1785 -0.1587
   27MOL0     C 3594   8.151   3.251   9.927  0.9678 -0.0010  0.1636
   27MOL0     C 3595   8.216   3.350  10.011  1.2474  0.3211  0.0693
   27MOL0     O 3596   8.354   3.364  10.010 -0.3714 -0.5540  0.7307
   27MOL0     C 3597   8.413   3.485   9.966  0.4936  0.4025 -0.4516
   27MOL0     C 3598   8.557   3.489   9.982 -0.6933 -0.1360 -0.2411
   27MOL0     C 3599   8.608   3.418  10.107  0.3316 -0.1136  0.0334
   27MOL0     C 3600   8.752   3.435  10.115 -0.3194  0.6965 -0.4020
   27MOL0     C 3601   8.799   3.408  10.262 -0.3640  0.7471 -0.1692
   27MOL0     C 3602   8.948   3.421  10.283  0.1528 -0.5932  0.1842
   27MOL0     C 3603   8.993   3.391  10.426 -0.3754 -0.4198  0.1370
   27MOL0     C 3604   9.142   3.425  10.454  0.3824  0.2405 -0.2986
   27MOL0     N 3605   9.148   3.434  10.601 -0.5277  0.0289  0.0422
   27MOL0     C 3606   9.159   3.544  10.671 -0.0163 -0.0865 -1.0299
   27MOL0     C 3607   9.137   3.506  10.799 -0.6212  0.4531  0.9291
   27MOL0     C 3608   9.127   3.604  10.906 -0.1775 -0.1934 -0.0879
   27MOL0     C 3609   9.269   3.633  10.968 -0.1835  0.2548 -0.7336
   27MOL0     C 3610   9.378   3.684  10.868  0.3723 -0.6086  0.0385
   27MOL0     C 3611   9.513   3.716  10.935 -0.1444  0.8791 -0.4820
   27MOL0     O 3612   9.569   3.595  10.981  1.1307  1.0570  0.1773
   27MOL0     C 3613   9.677   3.594  11.062  0.3156 -0.4251 -0.1866
   27MOL0     C 3614   9.740   3.467  11.101  0.1977  0.7119 -0.4803
   27MOL0     C 3615   9.846   3.472  11.183  0.0118  0.4199  0.6342
   27MOL0     C 3616   9.884   3.341  11.251  0.5147 -0.0193 -0.3498
   27MOL0     C 3617   9.910   3.596  11.217 -0.1159  0.7194 -0.1296
   27MOL0     C 3618  10.021   3.607  11.317 -0.8367 -0.5394  0.7153
   27MOL0     O 3619  10.090   3.728  11.319  0.0570  0.2861 -0.3652
   27MOL0     C 3620  10.205   3.742  11.382 -0.5817  0.4885  0.0155
   27MOL0     C 3621  10.328   3.705  11.312  0.4342 -0.6558 -0.9946
   27MOL0     C 3622  10.449   3.735  11.377  0.2512 -0.2311 -0.7356
   27MOL0     C 3623  10.453   3.796  11.506 -0.0386 -0.1106  0.7598
   27MOL0     O 3624  10.577   3.838  11.546 -0.3417  0.3041  0.4675
   27MOL0     C 3625  10.579   3.947  11.641  0.6925 -0.2638 -0.6308
   27MOL0     C 3626  10.708   4.036  11.621 -0.4181 -0.2788  0.7773
   27MOL0     C 3627  10.843   3.965  11.594  0.5629  0.4905  0.9022
   27MOL0     C 3628  10.877   3.954  11.451  0.3912 -0.2802  0.5085
   27MOL0     C 3629  11.015   3.890  11.432 -0.2093 -0.4304 -0.6615
   27MOL0     C 3630  11.053   3.831  11.295  0.4850  0.2274  0.3312
   27MOL0     C 3631  11.190   3.768  11.289 -0.2897 -0.3183 -1.0199
   27MOL0     C 3632  11.247   3.722  11.152 -0.1041 -0.2478 -0.5463
   27MOL0    Cl 3633  11.133   3.604  11.072 -0.2997  0.0354 -0.1335
   27MOL0     C 3634  10.336   3.819  11.569 -0.4187 -0.1899  0.4433
   27MOL0     C 3635  10.214   3.793  11.508 -0.2220 -0.7483 -0.3511
   27MOL0     O 3636  10.060   3.514  11.390  0.8986  0.3455 -0.6516
   27MOL0     C 3637   9.853   3.715  11.162 -0.5621 -0.2879 -0.2773
   27MOL0     C 3638   9.738   3.715  11.092 -0.4222 -0.0812 -0.1927
   27MOL0     N 3639   9.119   3.370  10.800  0.9641 -0.2168  0.8888
   27MOL0     N 3640   9.127   3.323  10.678  0.4224 -0.3624 -0.0598
   27MOL0     C 3641   8.133   3.422  10.097 -0.4174 -0.7909 -0.6249
   27MOL0     C 3642   7.997   3.400  10.103 -0.2292 -0.3335 -0.5661
   27MOL0     C 3643   7.611   3.413   9.886  0.3089 -0.4473  0.0107
   27MOL0     C 3644   7.560   3.523   9.804 -0.6721  0.5301 -0.2700
   27MOL0     C 3645   7.423   3.518   9.761  0.4360 -0.6981  0.5199
   27MOL0     C 3646   7.340   3.419   9.786  0.5512  0.6216 -0.2483
   27MOL0     O 3647   7.219   3.430   9.733 -0.0571 -0.2838  0.1516
   27MOL0     C 3648   7.113   3.346   9.782  0.3162 -0.0466  0.3564
   27MOL0     C 3649   7.057   3.387   9.927  0.3164  0.3943  0.0229
   27MOL0     C 3650   6.914   3.349   9.945 -0.2619 -0.3792 -0.0168
   27MOL0     C 3651   6.864   3.386  10.078 -0.7761  0.1817 -0.6841
   27MOL0     C 3652   6.898   3.287  10.179  0.1634  0.4492 -0.0589
   27MOL0     C 3653   6.948   3.200  10.248  0.4746  0.4424 -0.5051
   27MOL0     C 3654   7.379   3.320   9.876 -0.6137 -0.1312  0.7684
   27MOL0     C 3655   7.510   3.319   9.928 -1.2478  0.6128 -0.0437
   27MOL0     C 3656   7.544   3.214  10.020  0.0939 -0.3995  0.7803
   27MOL0     H 3657   7.970   3.155   9.868  0.2556 -1.3716  1.8534
   27MOL0     H 3658   8.210   3.184   9.865 -1.1572  0.6702 -2.7829
   27MOL0     H 3659   8.368   3.570  10.017  1.1957 -0.1505  1.1420
   27MOL0     H 3660   8.392   3.490   9.859  0.3318  0.8674 -0.3987
   27MOL0     H 3661   8.608   3.442   9.898 -1.2291  0.4834 -0.9325
   27MOL0     H 3662   8.591   3.593   9.974 -0.2109 -0.3576 -1.2656
   27MOL0     H 3663   8.558   3.463  10.193  1.6459  1.9341 -0.2091
   27MOL0     H 3664   8.588   3.311  10.091 -4.7387  0.4102  1.1785
   27MOL0     H 3665   8.802   3.358  10.056  1.6188 -0.2645  2.3204
   27MOL0     H 3666   8.793   3.534  10.089  4.5014 -1.3840 -1.8008
   27MOL0     H 3667   8.775   3.303  10.286  0.8118  0.6791  0.7953
   27MOL0     H 3668   8.737   3.465  10.332  0.6807  1.6587  0.0357
   27MOL0     H 3669   8.995   3.360  10.206 -1.5408  1.6767 -2.8725
   27MOL0     H 3670   8.974   3.522  10.249 -1.9036  0.0852  0.4716
   27MOL0     H 3671   8.982   3.283  10.443  1.6762 -0.4307  1.8026
   27MOL0     H 3672   8.927   3.453  10.486  0.5711  3.8033 -2.7443
   27MOL0     H 3673   9.198   3.337  10.419  1.2924 -0.1646  2.0287
   27MOL0     H 3674   9.168   3.519  10.405  0.7668 -0.2927 -1.1416
   27MOL0     H 3675   9.193   3.641  10.636  0.5039 -0.3544 -1.2825
   27MOL0     H 3676   9.056   3.559  10.975 -3.3987 -0.1944 -3.1621
   27MOL0     H 3677   9.090   3.695  10.857  2.3011 -0.2167 -2.2659
   27MOL0     H 3678   9.254   3.700  11.053 -0.4577  0.7731 -1.1908
   27MOL0     H 3679   9.305   3.537  11.007  1.2068  1.1684  0.3267
   27MOL0     H 3680   9.386   3.612  10.786  2.4825 -0.3548 -0.0261
   27MOL0     H 3681   9.337   3.773  10.819  0.3871 -0.2941  0.5897
   27MOL0     H 3682   9.568   3.759  10.851 -1.3356 -0.6386 -2.0837
   27MOL0     H 3683   9.511   3.793  11.013  2.4663 -0.9333  1.5843
   27MOL0     H 3684   9.710   3.371  11.059 -1.2383  0.3613  1.2030
   27MOL0     H 3685   9.988   3.332  11.219  1.7422  1.7745  2.7141
   27MOL0     H 3686   9.820   3.259  11.217 -0.5316 -0.7671  3.0583
   27MOL0     H 3687   9.881   3.345  11.360  0.7329 -2.2454 -0.2198
   27MOL0     H 3688  10.318   3.663  11.212  0.5071  1.3613 -1.8993
   27MOL0     H 3689  10.539   3.710  11.322 -0.5916  0.3735 -2.4460
   27MOL0     H 3690  10.490   4.005  11.618  0.5678 -0.4728 -0.6789
   27MOL0     H 3691  10.570   3.915  11.745  0.5274  0.4748 -0.4154
   27MOL0     H 3692  10.679   4.111  11.548 -0.1179 -2.0692 -1.2711
   27MOL0     H 3693  10.721   4.098  11.711  0.0829  3.4306 -1.6394
   27MOL0     H 3694  10.849   3.864  11.635 -1.9565 -0.3918 -0.6359
   27MOL0     H 3695  10.913   4.027  11.650  0.9619  1.7414 -0.8804
   27MOL0     H 3696  10.883   4.058  11.415  1.3449  0.0538  1.5758
   27MOL0     H 3697  10.803   3.898  11.393  0.7165  0.5137 -0.7286
   27MOL0     H 3698  11.088   3.961  11.470 -1.5424 -0.3038  1.9222
   27MOL0     H 3699  11.015   3.802  11.498  0.8265 -0.6678 -0.9688
   27MOL0     H 3700  11.026   3.901  11.216 -2.9302 -1.4219 -0.1384
   27MOL0     H 3701  10.978   3.757  11.265 -0.2563  1.5116 -1.1244
   27MOL0     H 3702  11.188   3.681  11.356  1.2596  0.4499  0.0853
   27MOL0     H 3703  11.251   3.845  11.336 -0.2011 -1.5406  0.9928
   27MOL0     H 3704  11.346   3.680  11.176  0.4549  0.3309 -1.7779
   27MOL0     H 3705  11.270   3.805  11.085  0.4935 -0.2179 -0.3195
   27MOL0     H 3706  10.349   3.852  11.672  0.6279 -1.1415  0.6398
   27MOL0     H 3707  10.126   3.812  11.569  0.3283  0.0548  0.2157
   27MOL0     H 3708   9.901   3.809  11.188 -2.0978  0.4381  0.0403
   27MOL0     H 3709   9.702   3.811  11.055  0.5255  0.1655 -0.5066
   27MOL0     H 3710   8.175   3.489  10.172 -3.0296  0.4141 -0.1315
   27MOL0     H 3711   7.923   3.463  10.151 -0.4147 -0.8733 -0.1353
   27MOL0     H 3712   7.632   3.601   9.780 -1.2404  1.0449 -0.3408
   27MOL0     H 3713   7.396   3.595   9.690  0.9501  0.3513  1.4267
   27MOL0     H 3714   7.032   3.358   9.710  0.2246  0.3888  0.5278
   27MOL0     H 3715   7.137   3.240   9.776 -1.8820 -0.6379  0.9789
   27MOL0     H 3716   7.058   3.497   9.933 -0.7903  0.3544  1.2028
   27MOL0     H 3717   7.118   3.347  10.008 -0.9849  1.3815  1.5463
   27MOL0     H 3718   6.854   3.392   9.865 -0.5731  1.9344  1.3763
   27MOL0     H 3719   6.911   3.240   9.931  0.3563 -0.8035  2.5429
   27MOL0     H 3720   6.754   3.391  10.080 -0.8494 -1.0224 -0.7923
   27MOL0     H 3721   6.905   3.477  10.122  2.4699 -2.4563  2.3443
   27MOL0     H 3722   7.004   3.123  10.297 -1.4866  0.1090  1.3351
   27MOL0     H 3723   7.304   3.250   9.911 -1.4787  0.6605  0.5434
   27MOL0     H 3724   7.620   3.151   9.974  0.6143  0.3933  0.5445
   27MOL0     H 3725   7.602   3.259  10.101  1.4329  0.7939 -0.7829
   27MOL0     H 3726   7.451   3.165  10.054 -0.4098 -0.5087 -0.7017
   28MOL0     O 3727   7.392   7.771   3.128 -0.7042 -0.3904  0.2806
   28MOL0     C 3728   7.290   7.708   3.159 -0.4006  0.5329  0.3074
   28MOL0     O 3729   7.265   7.650   3.283 -0.5626 -0.7004  0.5390
   28MOL0     C 3730   7.367   7.662   3.379  0.1574 -0.0648  0.6483
   28MOL0     C 3731   7.363   7.769   3.463 -0.1268 -0.2844 -0.1876
   28MOL0     C 3732   7.465   7.785   3.555  0.2677 -0.4850 -0.2893
   28MOL0     C 3733   7.567   7.689   3.567  0.0194  0.0220  1.0787
   28MOL0     O 3734   7.670   7.705   3.663 -0.1646 -0.6642 -0.7314
   28MOL0     C 3735   7.781   7.623   3.659  0.0734  1.2908  0.4888
   28MOL0     C 3736   7.866   7.654   3.782 -0.8819  0.1813 -0.5870
   28MOL0     C 3737   8.001   7.577   3.788  0.0655  0.4883 -0.5007
   28MOL0     C 3738   8.107   7.627   3.692 -0.0147  0.6432  0.2618
   28MOL0     C 3739   8.248   7.579   3.703 -0.6688 -0.0246 -0.1045
   28MOL0     C 3740   8.278   7.428   3.685 -0.2915 -0.4545 -0.1165
   28MOL0     C 3741   8.418   7.414   3.633 -0.2545 -0.6999 -0.2889
   28MOL0     C 3742   8.449   7.268   3.623  0.9483  0.3439 -0.3535
   28MOL0     N 3743   8.588   7.259   3.563 -0.1481 -0.1831  0.4492
   28MOL0     C 3744   8.694   7.207   3.641 -0.1058  0.2218 -0.6282
   28MOL0     C 3745   8.784   7.167   3.550  0.5537  0.7048  0.0964
   28MOL0     C 3746   8.918   7.107   3.580  0.2323  0.0100 -0.2735
   28MOL0     C 3747   9.036   7.195   3.552  0.8206  0.2099 -0.1399
   28MOL0     C 3748   9.163   7.125   3.621 -0.3294  0.6237 -0.3786
   28MOL0     C 3749   9.295   7.179   3.554  0.8645 -0.2392  0.5515
   28MOL0     O 3750   9.394   7.091   3.597 -0.7464  0.0524  0.2412
   28MOL0     C 3751   9.520   7.092   3.543  0.5608  0.6721  0.0706
   28MOL0     C 3752   9.561   7.168   3.432 -0.3954 -0.3212 -0.4170
   28MOL0     C 3753   9.693   7.166   3.381 -0.2393 -0.2526 -1.2652
   28MOL0     C 3754   9.739   7.245   3.264 -0.5673  0.5702 -0.1094
   28MOL0     C 3755   9.780   7.070   3.446 -0.0083 -0.2674 -0.8127
   28MOL0     C 3756   9.920   7.046   3.410  0.0998 -0.2399  0.7795
   28MOL0     O 3757  10.009   7.015   3.509  0.1717 -0.0964 -0.7942
   28MOL0     C 3758  10.151   7.031   3.497  0.0664  0.0432 -0.0429
   28MOL0     C 3759  10.219   6.987   3.612 -1.6057  0.0373 -0.6425
   28MOL0     C 3760  10.359   6.985   3.607 -0.4205 -0.3551 -0.3416
   28MOL0     C 3761  10.436   7.034   3.504  0.5748 -1.2121  0.1430
   28MOL0     O 3762  10.575   7.019   3.507  0.7671 -0.1198 -0.0390
   28MOL0     C 3763  10.636   7.001   3.382 -0.0677  0.1531  0.3072
   28MOL0     C 3764  10.773   6.939   3.395 -0.5948  0.4873 -1.2719
   28MOL0     C 3765  10.850   6.925   3.263 -0.3825 -0.8448  0.2675
   28MOL0     C 3766  10.876   7.052   3.184  0.0893 -1.7739 -0.5590
   28MOL0     C 3767  10.969   7.015   3.074  0.8031 -0.5213  0.3856
   28MOL0     C 3768  11.003   7.141   2.987  1.0273  0.6709  1.2273
   28MOL0     C 3769  11.078   7.264   3.044 -0.5440 -0.1906  0.7939
   28MOL0     C 3770  11.214   7.226   3.111 -0.0704 -0.5082 -0.6837
   28MOL0    Cl 3771  11.320   7.137   3.006  0.0090  0.0728  0.8258
   28MOL0     C 3772  10.358   7.079   3.392 -0.8113  0.4980  0.3911
   28MOL0     C 3773  10.223   7.081   3.391  1.0880  0.0166 -0.6351
   28MOL0     O 3774   9.939   7.037   3.286  0.3700 -0.4362  0.2404
   28MOL0     C 3775   9.729   6.981   3.550 -0.5269 -0.4356  0.3111
   28MOL0     C 3776   9.607   7.001   3.596  0.1609  1.1489  0.2204
   28MOL0     N 3777   8.736   7.200   3.426 -0.0736  0.3805 -0.0697
   28MOL0     N 3778   8.614   7.239   3.429  0.0206 -0.8946  0.0950
   28MOL0     C 3779   7.565   7.582   3.477 -0.1462 -0.7729 -0.7268
   28MOL0     C 3780   7.462   7.563   3.379 -0.5802  0.0361  0.1243
   28MOL0     C 3781   7.188   7.686   3.053 -0.7478 -0.5588  0.3939
   28MOL0     C 3782   7.128   7.562   3.050  0.4338  0.1006 -0.6369
   28MOL0     C 3783   7.017   7.543   2.973  0.4818 -0.2839 -0.4121
   28MOL0     C 3784   6.974   7.642   2.888  0.1696 -0.3889  0.6204
   28MOL0     O 3785   6.879   7.606   2.801 -0.8672 -0.8771 -0.4386
   28MOL0     C 3786   6.778   7.712   2.783  0.6393 -0.3041  0.5899
   28MOL0     C 3787   6.685   7.714   2.912  0.8642 -0.4352 -0.8296
   28MOL0     C 3788   6.557   7.793   2.895 -0.5641 -0.0971  0.4082
   28MOL0     C 3789   6.457   7.792   3.001  0.8006 -0.2167  0.0456
   28MOL0     C 3790   6.320   7.795   2.951  1.2422 -0.4497  0.4283
   28MOL0     C 3791   6.201   7.789   2.915 -0.3533 -0.1124  0.3775
   28MOL0     C 3792   7.034   7.768   2.881 -0.3433 -1.2026  0.1643
   28MOL0     C 3793   7.141   7.792   2.970  0.5170 -0.2089  0.4409
   28MOL0     C 3794   7.194   7.933   2.991 -0.7562  0.1017 -0.0904
   28MOL0     H 3795   7.277   7.835   3.457  0.4367  0.7782  2.2164
   28MOL0     H 3796   7.459   7.866   3.628  0.2575 -0.6745 -0.0783
   28MOL0     H 3797   7.836   7.636   3.566  1.1847  1.2263  1.1297
   28MOL0     H 3798   7.754   7.518   3.668  2.2317  0.7845  1.8321
   28MOL0     H 3799   7.882   7.762   3.786  0.6628  0.0075 -1.2210
   28MOL0     H 3800   7.808   7.628   3.871 -0.5887  1.2972 -0.0499
   28MOL0     H 3801   8.053   7.587   3.884 -0.4899  2.8046 -0.3681
   28MOL0     H 3802   7.979   7.471   3.777 -1.2846  0.4819  1.6104
   28MOL0     H 3803   8.077   7.608   3.588  2.0500 -1.6767  0.0204
   28MOL0     H 3804   8.110   7.736   3.705  1.1288  0.7297 -0.5955
   28MOL0     H 3805   8.280   7.616   3.801 -3.5180 -0.8209  1.2429
   28MOL0     H 3806   8.304   7.637   3.630  2.6140 -1.8262  0.7917
   28MOL0     H 3807   8.259   7.365   3.772  2.7711 -0.7848  0.4420
   28MOL0     H 3808   8.212   7.388   3.608 -0.4834 -2.1329  0.8714
   28MOL0     H 3809   8.495   7.461   3.694  2.6317 -2.7644 -2.0652
   28MOL0     H 3810   8.438   7.458   3.534 -1.0463 -0.0011 -0.1459
   28MOL0     H 3811   8.442   7.214   3.718  1.5908 -2.8907 -1.9891
   28MOL0     H 3812   8.381   7.215   3.556 -2.0981  3.3824  0.0712
   28MOL0     H 3813   8.701   7.175   3.744  4.7786 -0.3684 -0.8927
   28MOL0     H 3814   8.927   7.019   3.516  0.2643 -1.4485  1.6502
   28MOL0     H 3815   8.915   7.069   3.683 -1.9755 -0.6593 -0.5170
   28MOL0     H 3816   9.052   7.189   3.444  2.2670 -0.5249  0.0917
   28MOL0     H 3817   9.017   7.297   3.587 -0.3657  0.5923 -1.7847
   28MOL0     H 3818   9.161   7.150   3.728  2.9833 -1.6996  0.3988
   28MOL0     H 3819   9.158   7.016   3.610 -3.0899  0.0170  4.1829
   28MOL0     H 3820   9.271   7.174   3.447 -0.7882  3.1558  0.6329
   28MOL0     H 3821   9.311   7.283   3.582  0.1930 -0.9035  3.8199
   28MOL0     H 3822   9.480   7.229   3.393 -0.8012  1.0574  2.3831
   28MOL0     H 3823   9.669   7.326   3.241 -0.2207  1.1802  0.8990
   28MOL0     H 3824   9.737   7.181   3.176  0.7461 -0.5373  0.6202
   28MOL0     H 3825   9.835   7.294   3.284  0.8579 -2.5078  1.3772
   28MOL0     H 3826  10.165   6.947   3.697 -1.4043  0.3065 -0.3847
   28MOL0     H 3827  10.402   6.955   3.702  0.0571  0.0171 -0.4378
   28MOL0     H 3828  10.576   6.941   3.313  0.5876  3.1700 -3.2150
   28MOL0     H 3829  10.639   7.097   3.331  0.3967  1.9285  3.4304
   28MOL0     H 3830  10.834   6.984   3.473 -1.1398 -1.0475  0.1019
   28MOL0     H 3831  10.763   6.835   3.429 -1.1082  1.4350  1.7554
   28MOL0     H 3832  10.791   6.855   3.203  0.0392  0.3142 -1.5812
   28MOL0     H 3833  10.944   6.873   3.283  1.1385  2.0187  1.0652
   28MOL0     H 3834  10.928   7.122   3.251 -4.1728  0.8524  0.3913
   28MOL0     H 3835  10.786   7.100   3.145 -1.8381 -1.7644  3.3861
   28MOL0     H 3836  11.066   6.983   3.114  1.7161 -0.1074 -1.4135
   28MOL0     H 3837  10.929   6.935   3.012  0.9109  0.9829 -1.7516
   28MOL0     H 3838  10.910   7.176   2.942  2.7641  0.8023 -2.6575
   28MOL0     H 3839  11.050   7.107   2.894 -1.4896 -0.3807  0.2580
   28MOL0     H 3840  11.017   7.319   3.117 -1.0854 -0.3730  0.4813
   28MOL0     H 3841  11.097   7.344   2.973  0.6535  0.0509  1.3591
   28MOL0     H 3842  11.188   7.166   3.199  0.1649 -1.4987 -1.2805
   28MOL0     H 3843  11.266   7.315   3.147  1.2956 -0.2972 -2.9565
   28MOL0     H 3844  10.415   7.122   3.310  2.7234 -0.9280  1.8633
   28MOL0     H 3845  10.174   7.124   3.304  0.8524 -3.3524 -2.3702
   28MOL0     H 3846   9.794   6.902   3.584  0.2483 -0.3894 -0.9939
   28MOL0     H 3847   9.568   6.950   3.683  0.8480  1.0468  0.4753
   28MOL0     H 3848   7.648   7.512   3.482  4.4377  3.8964 -2.1389
   28MOL0     H 3849   7.456   7.479   3.311  3.6808  0.1632 -0.6575
   28MOL0     H 3850   7.165   7.480   3.110 -2.5582 -0.8055  0.1390
   28MOL0     H 3851   6.963   7.449   2.976  0.0902 -0.1189 -1.7281
   28MOL0     H 3852   6.807   7.817   2.771 -0.4336  0.3071  2.8789
   28MOL0     H 3853   6.720   7.681   2.695  1.0616 -1.4310  0.6882
   28MOL0     H 3854   6.749   7.754   2.991  0.2692 -0.8310 -0.1435
   28MOL0     H 3855   6.661   7.611   2.938  2.5660 -1.0876 -1.7323
   28MOL0     H 3856   6.587   7.895   2.869  0.7169  0.1657  2.6505
   28MOL0     H 3857   6.509   7.749   2.808 -1.3045  1.4943 -0.0235
   28MOL0     H 3858   6.475   7.883   3.059  2.9179  0.2822 -1.3058
   28MOL0     H 3859   6.476   7.702   3.061  0.0282  1.7413  3.5266
   28MOL0     H 3860   6.099   7.792   2.882 -1.2056 -1.0169  2.7158
   28MOL0     H 3861   7.001   7.836   2.802 -0.5583 -2.8933 -1.2629
   28MOL0     H 3862   7.298   7.949   2.960 -0.4682 -0.9280  0.3158
   28MOL0     H 3863   7.137   8.001   2.926  0.3183  0.5362 -0.6165
   28MOL0     H 3864   7.187   7.972   3.093 -0.5793  1.6739 -0.6474
   29MOL0     O 3865   0.573   2.687   2.966  0.9274  0.1478  0.0108
   29MOL0     C 3866   0.660   2.705   2.881 -0.5008  1.2041 -0.1606
   29MOL0     O 3867   0.770   2.636   2.873  0.0058 -0.3441 -0.5923
   29MOL0     C 3868   0.814   2.559   2.979  0.0882 -1.2062 -0.1894
   29MOL0     C 3869   0.774   2.426   2.969 -0.4038  0.3201 -0.2709
   29MOL0     C 3870   0.836   2.330   3.043 -0.6662 -0.8532 -0.1880
   29MOL0     C 3871   0.946   2.361   3.131 -0.2909  0.1242 -0.8693
   29MOL0     O 3872   0.998   2.260   3.204 -0.1346 -0.3877 -0.3849
   29MOL0     C 3873   1.087   2.284   3.321  0.5693 -0.4056  0.1978
   29MOL0     C 3874   1.090   2.142   3.383 -0.3236  0.5083  0.3822
   29MOL0     C 3875   1.144   2.151   3.527 -0.6976  0.0690 -0.0715
   29MOL0     C 3876   1.285   2.210   3.528 -0.2343 -0.4360  0.5467
   29MOL0     C 3877   1.344   2.194   3.669 -0.4142 -0.3211 -0.0236
   29MOL0     C 3878   1.480   2.266   3.679 -0.3091  0.0915  0.2004
   29MOL0     C 3879   1.541   2.279   3.822  0.2421 -0.2998 -0.9626
   29MOL0     C 3880   1.585   2.150   3.899  0.0346 -1.4997 -0.2684
   29MOL0     N 3881   1.675   2.188   4.016  1.1909  0.1653 -0.2834
   29MOL0     C 3882   1.640   2.264   4.122  0.0755 -0.4036  0.0931
   29MOL0     C 3883   1.751   2.258   4.200 -0.3838  0.6062 -0.3667
   29MOL0     C 3884   1.749   2.327   4.339  0.9599  0.8759 -0.0231
   29MOL0     C 3885   1.883   2.386   4.381  0.0223 -0.1121 -0.5599
   29MOL0     C 3886   1.872   2.499   4.486 -0.9336 -0.3940  0.0305
   29MOL0     C 3887   2.019   2.541   4.528 -1.1982 -0.6888 -0.7309
   29MOL0     O 3888   2.104   2.424   4.546 -1.0608  0.7383  0.4437
   29MOL0     C 3889   2.233   2.431   4.600  0.1235  0.5189  0.7552
   29MOL0     C 3890   2.318   2.322   4.559 -0.0086 -0.0378  0.3885
   29MOL0     C 3891   2.450   2.322   4.600  0.9806 -0.7905 -0.0178
   29MOL0     C 3892   2.543   2.226   4.538 -0.6455  0.8003 -0.3755
   29MOL0     C 3893   2.497   2.418   4.694  0.3488  0.2091 -0.1031
   29MOL0     C 3894   2.634   2.434   4.734  0.3779 -0.2152  0.0869
   29MOL0     O 3895   2.719   2.450   4.626  0.1487 -0.9864  0.4816
   29MOL0     C 3896   2.858   2.450   4.641 -0.0649  0.8946  0.0860
   29MOL0     C 3897   2.925   2.494   4.529 -0.0900 -0.4732 -0.0453
   29MOL0     C 3898   3.063   2.507   4.533 -0.5883  0.4163 -0.0312
   29MOL0     C 3899   3.132   2.464   4.653  1.0972  0.2392 -0.2592
   29MOL0     O 3900   3.263   2.486   4.655  0.3549  0.0755  0.2407
   29MOL0     C 3901   3.322   2.404   4.552 -0.7577  0.1098 -0.1076
   29MOL0     C 3902   3.480   2.391   4.549  1.2038 -0.0688  0.1922
   29MOL0     C 3903   3.534   2.301   4.440  1.1928  0.2870 -0.2512
   29MOL0     C 3904   3.682   2.287   4.449 -0.2382  0.1458 -0.1975
   29MOL0     C 3905   3.732   2.189   4.351  0.3707 -0.3129  0.4862
   29MOL0     C 3906   3.888   2.189   4.345 -0.4269  0.3259 -0.6918
   29MOL0     C 3907   3.941   2.086   4.238 -0.0783  0.2856 -0.3004
   29MOL0     C 3908   4.095   2.093   4.222  0.2227  0.8982  0.9895
   29MOL0    Cl 3909   4.139   2.203   4.094 -0.4650 -0.3701  0.0492
   29MOL0     C 3910   3.065   2.408   4.767 -0.0873 -0.2898 -0.3641
   29MOL0     C 3911   2.928   2.414   4.757 -0.2818  0.1109  1.3279
   29MOL0     O 3912   2.659   2.430   4.855  0.3627 -0.1647  0.3991
   29MOL0     C 3913   2.405   2.509   4.749 -0.4217 -0.1707  0.0812
   29MOL0     C 3914   2.272   2.510   4.703  0.8333  0.5023  0.1059
   29MOL0     N 3915   1.849   2.202   4.128  0.3382 -0.3686 -0.2971
   29MOL0     N 3916   1.808   2.165   4.016 -0.0704  0.7335 -0.1022
   29MOL0     C 3917   0.981   2.494   3.144  0.4151  0.3003  0.3849
   29MOL0     C 3918   0.921   2.595   3.067 -0.4394 -0.2414  0.4160
   29MOL0     C 3919   0.633   2.797   2.772 -0.3599 -0.8852  0.3433
   29MOL0     C 3920   0.726   2.802   2.661 -0.8983  0.5749  0.3528
   29MOL0     C 3921   0.703   2.888   2.558  0.6347  0.0783 -0.4037
   29MOL0     C 3922   0.582   2.962   2.549 -0.7559  0.8243 -0.2007
   29MOL0     O 3923   0.570   3.027   2.428  0.5387 -0.4516 -0.8746
   29MOL0     C 3924   0.440   3.032   2.373  0.5638 -0.2782  0.2621
   29MOL0     C 3925   0.370   3.167   2.398 -0.0404  0.3915  0.3343
   29MOL0     C 3926   0.449   3.288   2.325 -0.5241 -0.2877  0.0225
   29MOL0     C 3927   0.377   3.424   2.358 -0.1815 -0.2812 -0.0093
   29MOL0     C 3928   0.248   3.429   2.308  0.4288 -0.0080  0.5747
   29MOL0     C 3929   0.132   3.419   2.264  0.4281  0.1812 -1.1142
   29MOL0     C 3930   0.482   2.942   2.645 -0.2898 -0.0438  1.3420
   29MOL0     C 3931   0.507   2.866   2.759 -0.0048  0.4702  0.1812
   29MOL0     C 3932   0.384   2.859   2.843 -0.2119 -0.0727 -0.3544
   29MOL0     H 3933   0.697   2.398   2.898 -0.8406 -0.7461  0.5963
   29MOL0     H 3934   0.806   2.226   3.036 -0.8311 -0.6865 -4.0853
   29MOL0     H 3935   1.050   2.362   3.387  0.5595  2.5298 -3.0256
   29MOL0     H 3936   1.185   2.318   3.288  0.3294  1.1168  0.9928
   29MOL0     H 3937   0.985   2.111   3.389 -0.5188  1.2757  1.2622
   29MOL0     H 3938   1.142   2.074   3.316 -1.7409 -0.6381  0.4015
   29MOL0     H 3939   1.064   2.197   3.586 -2.7885 -1.9830 -1.1581
   29MOL0     H 3940   1.154   2.052   3.570 -2.8507 -0.7483 -1.3166
   29MOL0     H 3941   1.354   2.161   3.459  0.6151 -0.6358  1.5200
   29MOL0     H 3942   1.274   2.317   3.505 -1.2626 -0.8678 -1.0895
   29MOL0     H 3943   1.344   2.090   3.700 -0.0062 -0.4651 -0.4897
   29MOL0     H 3944   1.271   2.241   3.736 -1.1413 -1.3110 -0.1061
   29MOL0     H 3945   1.559   2.219   3.620  0.4118  1.7936 -0.2618
   29MOL0     H 3946   1.466   2.370   3.648 -0.1895  1.1441  3.3140
   29MOL0     H 3947   1.478   2.337   3.891 -0.8093 -2.7432  0.2426
   29MOL0     H 3948   1.633   2.338   3.818  0.7753 -1.1270 -0.9946
   29MOL0     H 3949   1.497   2.105   3.946  0.5441  0.6204  3.0041
   29MOL0     H 3950   1.637   2.091   3.824  0.2275  0.7079 -1.9793
   29MOL0     H 3951   1.547   2.313   4.147  0.9098  0.9338  0.6987
   29MOL0     H 3952   1.724   2.252   4.415  2.5468  2.6273  2.3595
   29MOL0     H 3953   1.671   2.404   4.334 -1.5921 -1.4395  1.2090
   29MOL0     H 3954   1.945   2.306   4.421  2.6425  2.2989  0.5156
   29MOL0     H 3955   1.939   2.419   4.292  0.0641 -0.7098 -0.7603
   29MOL0     H 3956   1.833   2.588   4.436  0.7194 -1.0475 -2.5774
   29MOL0     H 3957   1.800   2.472   4.564 -1.5097 -1.0529 -0.7157
   29MOL0     H 3958   2.057   2.589   4.437 -0.9265  0.0358 -0.2422
   29MOL0     H 3959   2.024   2.603   4.617 -1.2966 -2.3127  0.4467
   29MOL0     H 3960   2.280   2.249   4.489  0.4855 -0.3421  0.4327
   29MOL0     H 3961   2.636   2.267   4.498  1.1137 -2.4022  0.0743
   29MOL0     H 3962   2.498   2.165   4.459  0.0398 -1.3185  0.7953
   29MOL0     H 3963   2.574   2.154   4.614 -1.8629  3.0112  2.3664
   29MOL0     H 3964   2.871   2.530   4.442  2.2559  2.4215 -0.4594
   29MOL0     H 3965   3.107   2.557   4.447 -0.1731 -0.1126 -0.1362
   29MOL0     H 3966   3.286   2.301   4.544  0.8264 -0.4731 -0.0743
   29MOL0     H 3967   3.312   2.456   4.457  0.4798  1.8016  0.6526
   29MOL0     H 3968   3.521   2.492   4.539  2.4871 -0.7006 -1.3293
   29MOL0     H 3969   3.507   2.346   4.645 -0.8953 -1.0437  0.4009
   29MOL0     H 3970   3.508   2.354   4.348 -1.3651 -1.0782 -0.3848
   29MOL0     H 3971   3.492   2.200   4.438  1.0830  0.3361 -0.4064
   29MOL0     H 3972   3.704   2.254   4.551 -0.0383 -0.6508 -0.4905
   29MOL0     H 3973   3.722   2.386   4.426  0.6080 -0.3502 -0.9350
   29MOL0     H 3974   3.685   2.092   4.370  0.5417 -0.0915  2.1707
   29MOL0     H 3975   3.694   2.220   4.253 -1.5430 -1.4282  0.8280
   29MOL0     H 3976   3.936   2.152   4.436  0.2634  3.4264  0.3284
   29MOL0     H 3977   3.927   2.290   4.328 -1.9738  0.9207 -0.8685
   29MOL0     H 3978   3.884   2.083   4.145 -0.5532 -1.0199  0.0144
   29MOL0     H 3979   3.932   1.990   4.289  1.7747 -0.8859 -2.0293
   29MOL0     H 3980   4.140   1.996   4.200 -1.2498  0.6190 -1.1315
   29MOL0     H 3981   4.140   2.112   4.320  1.0004 -1.4169  1.1360
   29MOL0     H 3982   3.116   2.388   4.861 -1.3746 -0.1999  0.3720
   29MOL0     H 3983   2.884   2.376   4.849  1.4604  0.5562  2.3823
   29MOL0     H 3984   2.444   2.564   4.834 -0.6585 -0.6447  0.5004
   29MOL0     H 3985   2.199   2.582   4.739  0.8613  0.7052 -0.2358
   29MOL0     H 3986   1.067   2.520   3.205  0.6610  1.3366 -0.3887
   29MOL0     H 3987   0.950   2.699   3.079 -0.8934  0.1725 -1.6830
   29MOL0     H 3988   0.819   2.747   2.652  1.0149  3.8559 -2.3977
   29MOL0     H 3989   0.785   2.903   2.488  0.2869  0.7831 -0.6801
   29MOL0     H 3990   0.449   3.019   2.265 -2.0784  1.4930 -0.2735
   29MOL0     H 3991   0.382   2.942   2.398  0.0013  0.2915  1.0491
   29MOL0     H 3992   0.355   3.187   2.505  0.9479  1.2093  0.3390
   29MOL0     H 3993   0.274   3.138   2.352 -1.5637  1.7550  2.4557
   29MOL0     H 3994   0.556   3.293   2.347  0.2037  2.6502 -3.3249
   29MOL0     H 3995   0.451   3.271   2.217 -0.9038 -2.0301  0.2494
   29MOL0     H 3996   0.427   3.511   2.316 -3.9251  1.5069 -1.1255
   29MOL0     H 3997   0.362   3.438   2.466  1.3825 -0.4785  0.2592
   29MOL0     H 3998   0.030   3.427   2.234  0.2136  0.0623 -0.4327
   29MOL0     H 3999   0.391   2.997   2.626 -0.2438 -0.9945 -2.5916
   29MOL0     H 4000   0.411   2.895   2.943 -0.8465 -0.2186 -0.1293
   29MOL0     H 4001   0.311   2.928   2.801  1.4296  0.3047 -2.8134
   29MOL0     H 4002   0.352   2.754   2.847 -0.6923  0.1040  1.5894
   30MOL0     O 4003   1.254  10.170   1.585  0.1856  0.4702 -0.3840
   30MOL0     C 4004   1.193  10.247   1.658 -0.8370 -0.0129 -0.0315
   30MOL0     O 4005   1.245  10.311   1.765 -0.1837  0.0868  0.5200
   30MOL0     C 4006   1.383  10.298   1.801  0.3758  0.3548  0.2078
   30MOL0     C 4007   1.486  10.284   1.707  0.1878  0.0091  0.3192
   30MOL0     C 4008   1.616  10.303   1.752 -0.3423 -0.1421 -0.1152
   30MOL0     C 4009   1.639  10.347   1.881  0.2624  0.3767 -1.3080
   30MOL0     O 4010   1.774  10.369   1.915  1.2719 -0.0762  0.3668
   30MOL0     C 4011   1.822  10.285   2.020  0.2768 -0.2066 -0.3095
   30MOL0     C 4012   1.974  10.266   2.022 -0.1862  0.6127  0.4090
   30MOL0     C 4013   2.052  10.261   1.884 -0.2746 -0.4085 -0.1919
   30MOL0     C 4014   2.200  10.256   1.919 -0.8292 -1.2115 -0.0699
   30MOL0     C 4015   2.295  10.258   1.797 -0.5862 -0.0911 -0.4953
   30MOL0     C 4016   2.298  10.400   1.742 -0.4637  0.0324  0.3470
   30MOL0     C 4017   2.360  10.402   1.602 -0.1357  0.4487 -0.7594
   30MOL0     C 4018   2.516  10.424   1.591  0.2693  0.9298 -0.5250
   30MOL0     N 4019   2.591  10.307   1.543 -0.8640 -0.5065  0.3616
   30MOL0     C 4020   2.653  10.202   1.615  0.2384 -0.4850  0.5582
   30MOL0     C 4021   2.715  10.140   1.516  0.1972  0.3160  1.3860
   30MOL0     C 4022   2.798  10.018   1.534 -0.1783 -0.1543 -0.3042
   30MOL0     C 4023   2.758   9.884   1.455 -0.2677 -0.6978 -0.1051
   30MOL0     C 4024   2.759   9.909   1.305  0.7002  0.1243  0.4191
   30MOL0     C 4025   2.766   9.776   1.227 -0.4203  0.6146 -0.0061
   30MOL0     O 4026   2.888   9.709   1.260 -0.2211 -0.1642  0.4009
   30MOL0     C 4027   2.966   9.651   1.164 -0.2006 -0.6722 -0.2280
   30MOL0     C 4028   2.942   9.629   1.033  0.3730  0.6558  0.2514
   30MOL0     C 4029   3.036   9.572   0.948  0.4332 -0.1091 -0.2825
   30MOL0     C 4030   3.006   9.569   0.799 -0.4100  0.1271 -0.1703
   30MOL0     C 4031   3.162   9.535   1.000  0.1972 -0.2445  0.0003
   30MOL0     C 4032   3.274   9.486   0.922  0.3559 -0.6663  0.5414
   30MOL0     O 4033   3.399   9.508   0.969  0.4639 -0.3270 -0.8931
   30MOL0     C 4034   3.508   9.491   0.890 -0.4671  0.9528  0.1158
   30MOL0     C 4035   3.515   9.495   0.747  0.2757 -0.0368 -0.5962
   30MOL0     C 4036   3.628   9.473   0.679  0.2874 -0.5718  0.4874
   30MOL0     C 4037   3.749   9.453   0.744  0.1433  0.1409  0.4563
   30MOL0     O 4038   3.870   9.439   0.688  0.4254  0.0878 -0.0483
   30MOL0     C 4039   3.884   9.383   0.558 -0.1131  0.4910  0.5163
   30MOL0     C 4040   4.028   9.382   0.532 -0.0991 -0.3258 -0.2829
   30MOL0     C 4041   4.116   9.303   0.628  0.4281  0.0296 -0.4460
   30MOL0     C 4042   4.263   9.308   0.578  0.6529  0.0155  0.0708
   30MOL0     C 4043   4.352   9.243   0.679 -0.1060 -0.6523  0.4386
   30MOL0     C 4044   4.493   9.256   0.618  0.0003  0.1307 -0.7789
   30MOL0     C 4045   4.612   9.194   0.695  0.6828  0.5857  0.4146
   30MOL0     C 4046   4.746   9.193   0.609 -0.4710 -0.2473 -0.4491
   30MOL0    Cl 4047   4.793   9.360   0.542 -0.2327 -0.1993  0.5154
   30MOL0     C 4048   3.752   9.456   0.884  0.6429 -0.6475  0.2632
   30MOL0     C 4049   3.633   9.478   0.959  0.5812  0.2286  0.3474
   30MOL0     O 4050   3.252   9.419   0.821  0.1675  0.3716 -0.1905
   30MOL0     C 4051   3.187   9.550   1.140 -0.5719  0.0360  0.4841
   30MOL0     C 4052   3.090   9.608   1.212 -0.2906 -0.5749 -0.3268
   30MOL0     N 4053   2.690  10.198   1.390  0.5716  0.0760 -0.5803
   30MOL0     N 4054   2.624  10.304   1.411 -0.0287  0.3642  0.0042
   30MOL0     C 4055   1.539  10.356   1.984 -0.4683 -0.8265 -0.6384
   30MOL0     C 4056   1.418  10.339   1.936 -0.1456 -0.8877  0.1614
   30MOL0     C 4057   1.046  10.259   1.615  0.0299  0.6351 -0.3081
   30MOL0     C 4058   1.005  10.217   1.488  0.7315 -0.0877  0.4017
   30MOL0     C 4059   0.875  10.236   1.442  0.0416 -0.3977  0.1514
   30MOL0     C 4060   0.769  10.297   1.519 -0.2311  0.7503  0.1719
   30MOL0     O 4061   0.632  10.310   1.490  0.9728 -0.0524  0.2199
   30MOL0     C 4062   0.606  10.310   1.349 -0.0109  0.6352 -0.7177
   30MOL0     C 4063   0.466  10.363   1.314  0.1952 -0.0676  0.5929
   30MOL0     C 4064   0.359  10.309   1.402  0.2392 -0.3008 -1.0642
   30MOL0     C 4065   0.233  10.389   1.403  0.3742 -0.2434  0.7340
   30MOL0     C 4066   0.171  10.378   1.271  0.1049 -0.3931  0.8003
   30MOL0     C 4067   0.137  10.371   1.152 -0.7857  0.1108 -0.7076
   30MOL0     C 4068   0.816  10.332   1.643  0.4789 -0.1523 -1.0407
   30MOL0     C 4069   0.947  10.323   1.690  0.6273  0.4478 -0.1241
   30MOL0     C 4070   0.971  10.380   1.835  0.8581 -0.3903 -0.1507
   30MOL0     H 4071   1.469  10.233   1.613  0.3162  0.8670 -0.1849
   30MOL0     H 4072   1.700  10.269   1.692 -0.8092 -0.5502 -0.5483
   30MOL0     H 4073   1.775  10.186   2.011  3.1454 -1.8804  1.5096
   30MOL0     H 4074   1.804  10.324   2.120  0.3981 -0.9824  0.0241
   30MOL0     H 4075   2.011  10.338   2.095 -1.7215  0.1556  1.6955
   30MOL0     H 4076   1.997  10.168   2.065  1.5895  1.5119  1.6131
   30MOL0     H 4077   2.021  10.166   1.839  1.8347 -0.6136 -1.3581
   30MOL0     H 4078   2.028  10.345   1.818 -1.3006  0.4450  1.2240
   30MOL0     H 4079   2.228  10.335   1.989 -0.7498 -0.5020 -0.8741
   30MOL0     H 4080   2.217  10.161   1.971 -0.8780 -0.9105  0.5026
   30MOL0     H 4081   2.258  10.197   1.715 -0.9823  0.7033 -0.9206
   30MOL0     H 4082   2.398  10.234   1.825 -0.7279  0.6441  0.7549
   30MOL0     H 4083   2.201  10.450   1.734  1.1591  3.3985 -0.2912
   30MOL0     H 4084   2.360  10.463   1.807  0.8164  0.4763 -1.2440
   30MOL0     H 4085   2.305  10.474   1.541 -0.1887 -1.8718 -3.6123
   30MOL0     H 4086   2.333  10.308   1.555  1.0178 -0.1045 -0.3621
   30MOL0     H 4087   2.538  10.514   1.532  0.9265 -0.5110 -2.5680
   30MOL0     H 4088   2.548  10.450   1.692 -3.2165  1.3262  0.6175
   30MOL0     H 4089   2.657  10.186   1.723  1.0691 -2.0836  0.3239
   30MOL0     H 4090   2.804  10.000   1.642  0.3836 -1.1914 -0.4942
   30MOL0     H 4091   2.897  10.058   1.508 -0.7935 -0.3371 -3.1887
   30MOL0     H 4092   2.831   9.806   1.478  2.2827  0.5873 -2.9632
   30MOL0     H 4093   2.659   9.853   1.486 -1.2568  1.8970 -0.3923
   30MOL0     H 4094   2.669   9.967   1.284 -0.6076 -0.7381  3.2559
   30MOL0     H 4095   2.846   9.967   1.274  3.2922 -4.3039 -1.6407
   30MOL0     H 4096   2.693   9.710   1.276  0.5236  0.5643  1.4047
   30MOL0     H 4097   2.749   9.789   1.120  1.5508 -1.7675 -0.7006
   30MOL0     H 4098   2.849   9.656   0.984 -0.3998 -1.8163  0.2697
   30MOL0     H 4099   3.031   9.470   0.762  1.4294  0.5888 -0.2668
   30MOL0     H 4100   3.053   9.641   0.730 -1.7749 -1.2371 -2.6368
   30MOL0     H 4101   2.898   9.584   0.789 -0.5132 -0.2225  0.3983
   30MOL0     H 4102   3.420   9.524   0.704  0.8536  2.4017 -0.3648
   30MOL0     H 4103   3.620   9.475   0.571 -1.7988  1.5579  0.5738
   30MOL0     H 4104   3.834   9.285   0.563  0.1009  0.3491 -0.1267
   30MOL0     H 4105   3.831   9.450   0.490  1.9605  0.3856 -1.2920
   30MOL0     H 4106   4.042   9.345   0.430 -1.9106  2.1152 -1.5427
   30MOL0     H 4107   4.055   9.487   0.545 -1.4864  0.2643 -1.8356
   30MOL0     H 4108   4.085   9.201   0.605  1.0177 -0.0332 -0.9759
   30MOL0     H 4109   4.107   9.326   0.735 -0.1983 -0.8485 -0.2937
   30MOL0     H 4110   4.291   9.412   0.558  1.7692 -0.2413  0.2737
   30MOL0     H 4111   4.263   9.271   0.475 -0.1973 -0.5691  0.2645
   30MOL0     H 4112   4.363   9.291   0.777 -0.0789  1.9708 -0.7556
   30MOL0     H 4113   4.339   9.135   0.689  1.1935 -1.0909 -1.8845
   30MOL0     H 4114   4.511   9.362   0.596 -1.5377  0.5486 -0.0904
   30MOL0     H 4115   4.482   9.210   0.519 -0.8744 -0.5696 -0.3576
   30MOL0     H 4116   4.579   9.093   0.721 -0.9361  0.6532 -1.0895
   30MOL0     H 4117   4.624   9.254   0.785 -3.6229 -0.7675  2.1530
   30MOL0     H 4118   4.737   9.120   0.527  4.3556 -1.2439 -0.3698
   30MOL0     H 4119   4.824   9.151   0.673 -0.1533 -1.5540 -1.6358
   30MOL0     H 4120   3.845   9.433   0.934  0.9743  1.0284  0.4688
   30MOL0     H 4121   3.646   9.476   1.066 -0.5926 -4.5897  0.6442
   30MOL0     H 4122   3.272   9.520   1.202 -0.9715  0.6999  1.3737
   30MOL0     H 4123   3.084   9.609   1.321 -1.0716  5.0513 -0.1167
   30MOL0     H 4124   1.559  10.402   2.080 -3.4412 -1.6687  0.4968
   30MOL0     H 4125   1.332  10.368   1.994  0.3324 -0.6369  0.7543
   30MOL0     H 4126   1.070  10.174   1.412 -1.4185 -1.1163 -0.9554
   30MOL0     H 4127   0.874  10.196   1.342 -0.8546 -0.8813  0.3373
   30MOL0     H 4128   0.684  10.361   1.292  0.9373 -1.3583 -1.3034
   30MOL0     H 4129   0.607  10.208   1.308 -1.0148  0.6577 -0.8043
   30MOL0     H 4130   0.439  10.344   1.210  3.2925  1.6676 -0.6577
   30MOL0     H 4131   0.472  10.472   1.322 -0.8345  0.1755 -1.4221
   30MOL0     H 4132   0.327  10.206   1.388  0.4312 -0.3488 -1.1500
   30MOL0     H 4133   0.407  10.325   1.499  3.2138  2.1143 -2.7513
   30MOL0     H 4134   0.250  10.497   1.413 -1.4192  0.3073 -1.3511
   30MOL0     H 4135   0.171  10.365   1.490  0.4818 -1.0506  0.5944
   30MOL0     H 4136   0.114  10.366   1.048  0.0579  1.8572 -1.0092
   30MOL0     H 4137   0.733  10.362   1.707  2.0096  0.6171  0.6621
   30MOL0     H 4138   1.032  10.314   1.898  1.6630  0.3280 -0.1627
   30MOL0     H 4139   1.019  10.477   1.823  0.9204 -0.4104 -0.0649
   30MOL0     H 4140   0.876  10.402   1.886  2.3053 -0.2090  2.6711
   31MOL0     O 4141   3.231   5.119   2.931  0.2112 -0.1088 -0.2188
   31MOL0     C 4142   3.337   5.055   2.926  0.3074 -0.0858 -1.0506
   31MOL0     O 4143   3.425   5.039   3.032  0.2544  0.0901  0.2189
   31MOL0     C 4144   3.400   5.113   3.146  0.0482 -0.0813 -0.1867
   31MOL0     C 4145   3.345   5.032   3.249  0.0914  0.0814 -0.3129
   31MOL0     C 4146   3.322   5.093   3.370  0.7164 -0.8258 -0.1380
   31MOL0     C 4147   3.356   5.227   3.392  0.0520 -0.0104 -0.6419
   31MOL0     O 4148   3.325   5.297   3.512  0.0499  0.0070  0.0758
   31MOL0     C 4149   3.184   5.332   3.526  0.4728 -0.2728  0.9792
   31MOL0     C 4150   3.182   5.471   3.581 -0.0593 -0.0436 -0.3787
   31MOL0     C 4151   3.217   5.586   3.486  0.6740 -0.8710  0.1075
   31MOL0     C 4152   3.116   5.589   3.368  0.4416 -1.1043 -0.5141
   31MOL0     C 4153   3.088   5.736   3.325 -0.0947  0.3374  0.0894
   31MOL0     C 4154   3.222   5.799   3.268 -0.1618  0.1665  0.7736
   31MOL0     C 4155   3.212   5.953   3.261  0.0595  0.4327 -0.2673
   31MOL0     C 4156   3.351   6.017   3.229 -0.3524 -0.1701  0.0222
   31MOL0     N 4157   3.455   6.030   3.338 -0.0811 -0.9831 -0.0109
   31MOL0     C 4158   3.536   5.929   3.389  0.5521 -0.1898  0.2872
   31MOL0     C 4159   3.629   5.989   3.465  0.7011  0.0617  0.5154
   31MOL0     C 4160   3.750   5.935   3.539 -0.1407 -0.3244  0.5711
   31MOL0     C 4161   3.870   5.940   3.438 -0.2586  0.4791  0.6119
   31MOL0     C 4162   3.980   5.860   3.505 -0.3330 -0.0009 -0.5061
   31MOL0     C 4163   4.116   5.868   3.438 -0.1617  0.1358  0.4825
   31MOL0     O 4164   4.162   5.995   3.473 -0.2822 -0.4717  0.0720
   31MOL0     C 4165   4.286   6.043   3.438  0.1008 -0.0488 -0.2381
   31MOL0     C 4166   4.326   6.169   3.481  0.3489  0.2214 -0.8702
   31MOL0     C 4167   4.452   6.226   3.471 -0.1407 -0.3387 -0.1273
   31MOL0     C 4168   4.486   6.359   3.543 -0.3822  0.3810  0.0126
   31MOL0     C 4169   4.539   6.154   3.388  0.2098  0.3476 -0.0684
   31MOL0     C 4170   4.675   6.203   3.357 -0.9904  0.7902  0.8608
   31MOL0     O 4171   4.734   6.300   3.438  0.0901 -0.9933 -0.1709
   31MOL0     C 4172   4.836   6.357   3.385  0.7106 -0.2038  0.5113
   31MOL0     C 4173   4.963   6.325   3.425 -0.1689  0.7105  1.2179
   31MOL0     C 4174   5.074   6.389   3.374  0.3052  0.0865 -0.0655
   31MOL0     C 4175   5.058   6.493   3.281 -0.5733 -0.6591  0.2826
   31MOL0     O 4176   5.168   6.572   3.252  0.0223  0.3316  0.9322
   31MOL0     C 4177   5.300   6.517   3.267  0.0461  0.4606  0.8019
   31MOL0     C 4178   5.411   6.616   3.222  0.5411  0.6202  0.2160
   31MOL0     C 4179   5.553   6.542   3.225  0.6868 -1.2902  0.4408
   31MOL0     C 4180   5.661   6.647   3.214  0.9199 -0.1784  0.2774
   31MOL0     C 4181   5.799   6.588   3.236  0.3719  0.1980 -0.0356
   31MOL0     C 4182   5.905   6.685   3.221  0.0983 -0.7083 -0.0911
   31MOL0     C 4183   5.929   6.730   3.075  0.1305  0.3719  0.2661
   31MOL0     C 4184   6.078   6.763   3.053  1.1504 -0.5249  0.0520
   31MOL0    Cl 4185   6.178   6.612   3.060  0.0725  0.2058  0.0183
   31MOL0     C 4186   4.927   6.533   3.240 -0.1988 -0.6162 -0.1582
   31MOL0     C 4187   4.816   6.463   3.290 -0.4181  0.5175  0.2543
   31MOL0     O 4188   4.730   6.155   3.254 -0.3120 -0.2461 -0.4258
   31MOL0     C 4189   4.501   6.029   3.341  0.4225  0.0814  0.3630
   31MOL0     C 4190   4.380   5.965   3.375  0.1662 -0.1699  0.2693
   31MOL0     N 4191   3.605   6.124   3.458 -0.5531  0.6885  0.3443
   31MOL0     N 4192   3.506   6.143   3.388  0.0546  0.4428 -0.3551
   31MOL0     C 4193   3.410   5.303   3.286  0.4282  0.2432 -0.0419
   31MOL0     C 4194   3.430   5.247   3.158  0.2988 -0.9270 -0.3885
   31MOL0     C 4195   3.355   4.966   2.813 -0.2966  0.2769 -0.5455
   31MOL0     C 4196   3.246   4.902   2.756 -0.2026  1.1532 -0.1333
   31MOL0     C 4197   3.265   4.810   2.646 -0.3772 -0.6614  0.3394
   31MOL0     C 4198   3.395   4.792   2.592  0.1151 -0.6735 -0.4796
   31MOL0     O 4199   3.403   4.713   2.479 -0.8563 -0.3596 -0.9522
   31MOL0     C 4200   3.508   4.716   2.390 -0.6247  1.5583 -0.0069
   31MOL0     C 4201   3.614   4.609   2.421  0.1569 -1.0566  0.3097
   31MOL0     C 4202   3.715   4.575   2.312 -0.0204 -0.5023  0.2987
   31MOL0     C 4203   3.849   4.649   2.325  0.0460  0.3169  0.5061
   31MOL0     C 4204   3.827   4.783   2.272 -0.0197 -0.9017 -0.2205
   31MOL0     C 4205   3.818   4.899   2.240 -0.2021  0.6220 -0.9083
   31MOL0     C 4206   3.498   4.875   2.640  0.3758  0.2359 -0.2195
   31MOL0     C 4207   3.482   4.944   2.751 -0.0714  0.0452 -0.4152
   31MOL0     C 4208   3.604   5.013   2.802  0.3308 -0.3917 -0.2719
   31MOL0     H 4209   3.325   4.928   3.228  3.2210 -0.4044 -1.5416
   31MOL0     H 4210   3.268   5.047   3.452 -2.7702  2.1192 -0.5417
   31MOL0     H 4211   3.139   5.249   3.583  1.4128 -1.6251 -0.1779
   31MOL0     H 4212   3.135   5.334   3.428  1.7200  1.1484  0.3511
   31MOL0     H 4213   3.083   5.485   3.626 -0.5531  1.4901 -1.7908
   31MOL0     H 4214   3.252   5.477   3.665  0.0615  0.8183 -0.5312
   31MOL0     H 4215   3.217   5.681   3.540  0.3238 -0.6693 -0.2489
   31MOL0     H 4216   3.322   5.576   3.454  1.5282 -2.5983  3.0218
   31MOL0     H 4217   3.148   5.533   3.280  0.1634 -0.2090 -1.2069
   31MOL0     H 4218   3.023   5.542   3.402  0.8543 -1.3616  0.2784
   31MOL0     H 4219   3.053   5.789   3.414 -0.2457 -0.7211  0.6739
   31MOL0     H 4220   3.012   5.724   3.247 -0.6706 -3.2040  1.0284
   31MOL0     H 4221   3.307   5.779   3.333  0.4292 -2.1517 -0.5932
   31MOL0     H 4222   3.231   5.764   3.165 -0.7523 -0.7079  1.0064
   31MOL0     H 4223   3.171   5.967   3.361  0.6195 -2.8991  0.5667
   31MOL0     H 4224   3.139   5.983   3.186  0.5421  0.7190 -0.6287
   31MOL0     H 4225   3.403   5.976   3.141  0.2513  1.2187 -0.2876
   31MOL0     H 4226   3.331   6.122   3.206  0.5655  0.6686  2.7368
   31MOL0     H 4227   3.537   5.824   3.363  4.7400 -0.3957  0.6517
   31MOL0     H 4228   3.721   5.836   3.575  1.9305 -1.6904 -1.2834
   31MOL0     H 4229   3.772   6.001   3.624  0.0031  1.5658 -0.8556
   31MOL0     H 4230   3.838   5.908   3.339 -0.8386  0.4180  0.8126
   31MOL0     H 4231   3.902   6.044   3.426 -0.0083  0.4590  1.0784
   31MOL0     H 4232   3.987   5.903   3.605 -0.2374 -1.5894  0.1896
   31MOL0     H 4233   3.945   5.757   3.510 -1.7367  0.5142  1.2012
   31MOL0     H 4234   4.185   5.792   3.477 -2.6308 -2.1652  0.6552
   31MOL0     H 4235   4.099   5.849   3.331 -0.7230  0.9667  0.4192
   31MOL0     H 4236   4.245   6.226   3.526 -0.0199 -1.6017  0.9121
   31MOL0     H 4237   4.512   6.429   3.463  0.1614  0.6575  0.4229
   31MOL0     H 4238   4.575   6.333   3.600 -0.2178 -2.7558 -1.4910
   31MOL0     H 4239   4.402   6.387   3.607 -0.9734 -1.5217  0.1176
   31MOL0     H 4240   4.970   6.250   3.503  2.0406  0.0351  0.4558
   31MOL0     H 4241   5.163   6.379   3.436 -0.7150 -0.3615  1.3958
   31MOL0     H 4242   5.320   6.497   3.373  0.2740 -0.7413  0.5441
   31MOL0     H 4243   5.302   6.430   3.201  1.2341  0.1023  1.2912
   31MOL0     H 4244   5.386   6.650   3.121 -2.1299  0.6548  0.8047
   31MOL0     H 4245   5.407   6.708   3.281 -2.9670 -0.3376  1.7651
   31MOL0     H 4246   5.550   6.474   3.140 -3.4024 -2.5494  1.3991
   31MOL0     H 4247   5.554   6.482   3.316 -0.4842 -1.2953  0.4567
   31MOL0     H 4248   5.636   6.730   3.280 -4.3628 -0.6054 -0.7637
   31MOL0     H 4249   5.656   6.688   3.113  1.3092 -1.1868 -0.1723
   31MOL0     H 4250   5.804   6.549   3.338  0.0048 -1.2763 -0.5565
   31MOL0     H 4251   5.809   6.499   3.173 -2.5367 -1.2580  1.3101
   31MOL0     H 4252   5.998   6.639   3.257  0.0745 -1.7340 -1.2589
   31MOL0     H 4253   5.890   6.769   3.289  0.8392 -0.6727  0.0373
   31MOL0     H 4254   5.873   6.817   3.041  1.7466  0.9144 -1.1576
   31MOL0     H 4255   5.906   6.656   2.997  0.1759  2.5822 -1.9743
   31MOL0     H 4256   6.112   6.832   3.131 -3.0927 -0.0900  1.8075
   31MOL0     H 4257   6.090   6.814   2.957 -1.0420 -0.1629 -0.0936
   31MOL0     H 4258   4.912   6.613   3.167  0.2758 -3.0886 -3.1751
   31MOL0     H 4259   4.714   6.489   3.262 -0.4727  3.9976  3.0085
   31MOL0     H 4260   4.568   5.963   3.286  0.7636  0.8835 -0.2028
   31MOL0     H 4261   4.375   5.859   3.352  2.8610 -0.8954  2.5543
   31MOL0     H 4262   3.435   5.408   3.299  1.0046  0.0212  0.7404
   31MOL0     H 4263   3.475   5.311   3.082  2.1975 -1.3201  0.3343
   31MOL0     H 4264   3.145   4.918   2.790 -0.9514  3.9112 -3.0725
   31MOL0     H 4265   3.177   4.764   2.601 -0.4422 -2.3718  2.0714
   31MOL0     H 4266   3.479   4.693   2.287 -0.4832 -0.6432  0.3820
   31MOL0     H 4267   3.543   4.819   2.388  0.6306  1.2025  1.5722
   31MOL0     H 4268   3.560   4.517   2.445 -1.4738 -0.3586 -0.5139
   31MOL0     H 4269   3.668   4.643   2.510 -0.9804  2.2516 -0.0992
   31MOL0     H 4270   3.737   4.468   2.317  3.0296 -0.0106 -0.4501
   31MOL0     H 4271   3.679   4.596   2.211  0.7900 -0.4007  0.0216
   31MOL0     H 4272   3.917   4.604   2.252  0.0238 -0.7519  1.1342
   31MOL0     H 4273   3.894   4.644   2.424  1.0890 -2.6174 -0.0148
   31MOL0     H 4274   3.805   5.000   2.207 -0.9257  0.2662 -1.7429
   31MOL0     H 4275   3.595   4.868   2.591 -0.6246 -0.9348 -2.1788
   31MOL0     H 4276   3.602   5.122   2.797  1.9556 -0.3750 -2.4154
   31MOL0     H 4277   3.631   4.985   2.904  0.6487 -0.8732 -0.4847
   31MOL0     H 4278   3.681   4.985   2.729 -2.5102 -1.7832 -3.0060
   32MOL0     O 4279   4.106  11.116   1.838 -0.3265 -0.2479  0.3601
   32MOL0     C 4280   4.048  11.005   1.846  0.4847  0.2291 -0.3177
   32MOL0     O 4281   4.101  10.881   1.879  0.6989 -0.0941 -0.0994
   32MOL0     C 4282   4.235  10.877   1.879 -0.8907  0.3541 -0.4387
   32MOL0     C 4283   4.310  10.889   1.760  0.3873  0.2901  0.7942
   32MOL0     C 4284   4.446  10.880   1.767 -0.6637  0.7835  0.5045
   32MOL0     C 4285   4.511  10.879   1.887  0.1887  0.8242  0.3603
   32MOL0     O 4286   4.649  10.860   1.910 -0.4343 -0.2885  0.6699
   32MOL0     C 4287   4.749  10.906   1.822 -0.2852  0.7737  0.7437
   32MOL0     C 4288   4.851  11.004   1.885  0.2445  0.5671  0.3060
   32MOL0     C 4289   4.949  11.052   1.780 -0.6273  0.0362  0.4307
   32MOL0     C 4290   5.070  11.116   1.843  0.7101 -0.1032  0.4128
   32MOL0     C 4291   5.039  11.266   1.867 -0.4679 -0.1116  0.9361
   32MOL0     C 4292   5.178  11.344   1.878 -0.0445  0.0884  0.6914
   32MOL0     C 4293   5.264  11.295   1.999  0.0567 -0.9588  0.2525
   32MOL0     C 4294   5.207  11.314   2.138  0.0243  0.5562  0.7517
   32MOL0     N 4295   5.155  11.450   2.169 -0.8492  0.7823 -0.2149
   32MOL0     C 4296   5.213  11.573   2.146  0.2675 -0.3124  0.3044
   32MOL0     C 4297   5.104  11.647   2.183 -0.1424  0.5025 -0.7409
   32MOL0     C 4298   5.120  11.792   2.196  0.6018  0.1471  1.1308
   32MOL0     C 4299   5.195  11.842   2.319 -0.5457 -0.1527  0.0705
   32MOL0     C 4300   5.236  11.985   2.299 -1.0141 -0.1537 -0.1104
   32MOL0     C 4301   5.335  12.044   2.407  0.8540  0.6166 -0.2778
   32MOL0     O 4302   5.472  12.007   2.381  0.0603 -0.4770 -0.3883
   32MOL0     C 4303   5.557  12.080   2.292 -0.4848  0.0455  0.1726
   32MOL0     C 4304   5.693  12.033   2.280 -0.6331 -1.4593 -0.2128
   32MOL0     C 4305   5.776  12.094   2.183  0.0722 -0.0363  0.0691
   32MOL0     C 4306   5.919  12.045   2.191  0.0244 -0.1091  0.3561
   32MOL0     C 4307   5.727  12.197   2.092 -0.1969  0.1574  0.2194
   32MOL0     C 4308   5.821  12.267   1.996  0.6317  0.2363 -0.5164
   32MOL0     O 4309   5.776  12.316   1.880 -0.1437  0.6451 -0.5861
   32MOL0     C 4310   5.838  12.424   1.833  0.0425  0.4974  0.9685
   32MOL0     C 4311   5.851  12.540   1.906  0.0321  0.5843 -0.7386
   32MOL0     C 4312   5.895  12.661   1.844 -0.4649  0.6439 -0.5982
   32MOL0     C 4313   5.938  12.654   1.713 -0.2499 -0.4561 -0.0681
   32MOL0     O 4314   6.007  12.763   1.668  0.5602 -0.3912 -0.9439
   32MOL0     C 4315   6.124  12.730   1.586  0.3860  0.0522 -0.4218
   32MOL0     C 4316   6.219  12.847   1.596 -0.2910 -0.3179 -0.0454
   32MOL0     C 4317   6.292  12.890   1.463 -0.6977  0.2320 -1.1443
   32MOL0     C 4318   6.411  12.978   1.492 -0.1723  0.8494 -0.4787
   32MOL0     C 4319   6.509  13.007   1.381  0.5443 -0.5863  0.3765
   32MOL0     C 4320   6.442  13.053   1.249 -1.3566 -0.5534  1.2094
   32MOL0     C 4321   6.555  13.093   1.150 -0.2603  0.2501 -0.3124
   32MOL0     C 4322   6.505  13.159   1.026 -0.6801 -0.1251 -0.2654
   32MOL0    Cl 4323   6.479  13.337   1.045 -0.1159 -0.1875 -0.0095
   32MOL0     C 4324   5.922  12.542   1.635 -0.4072  0.3034 -0.2181
   32MOL0     C 4325   5.867  12.427   1.692 -0.1685 -1.0676  0.3428
   32MOL0     O 4326   5.938  12.264   2.027  0.3205 -0.3635  0.7160
   32MOL0     C 4327   5.590  12.236   2.105 -0.8082 -0.5274  0.5626
   32MOL0     C 4328   5.509  12.174   2.199 -0.7071  0.5022  1.0080
   32MOL0     N 4329   4.999  11.575   2.239  0.4550  0.0240  0.4328
   32MOL0     N 4330   5.039  11.462   2.235  0.0058  0.6291  0.2142
   32MOL0     C 4331   4.434  10.855   2.002  0.3904  0.3972 -0.6306
   32MOL0     C 4332   4.297  10.855   2.005 -0.3946 -0.1892 -0.0603
   32MOL0     C 4333   3.902  10.998   1.821  0.7786 -0.2260  0.2431
   32MOL0     C 4334   3.866  10.909   1.724  0.5052 -0.7670  0.0666
   32MOL0     C 4335   3.731  10.897   1.687  0.0230  0.5219 -0.3652
   32MOL0     C 4336   3.628  10.971   1.754 -0.7304 -0.4567 -0.1749
   32MOL0     O 4337   3.501  10.960   1.714 -0.1690 -0.0686 -0.7675
   32MOL0     C 4338   3.450  10.825   1.740  1.0638 -0.2349  0.1361
   32MOL0     C 4339   3.311  10.844   1.808 -0.1914 -0.0628  0.0323
   32MOL0     C 4340   3.241  10.712   1.820 -0.6560 -0.2159  0.8101
   32MOL0     C 4341   3.117  10.723   1.914  0.0869  1.3748  0.3954
   32MOL0     C 4342   3.120  10.823   2.029 -0.0388 -0.1838 -0.9805
   32MOL0     C 4343   3.137  10.913   2.111  0.5104  0.2432 -0.0764
   32MOL0     C 4344   3.668  11.063   1.856 -0.4541  0.3967 -0.2052
   32MOL0     C 4345   3.801  11.084   1.888 -0.8029 -0.6683 -0.6908
   32MOL0     C 4346   3.825  11.190   1.990  0.6366 -0.7896  0.0674
   32MOL0     H 4347   4.246  10.899   1.673 -0.4979  2.9907  1.6476
   32MOL0     H 4348   4.496  10.880   1.671  0.6814 -1.1927  1.1554
   32MOL0     H 4349   4.701  10.955   1.736 -1.8821  1.1459  1.8004
   32MOL0     H 4350   4.799  10.820   1.777  0.4845  0.7397  1.6326
   32MOL0     H 4351   4.801  11.087   1.935 -0.8747 -0.5256  1.0668
   32MOL0     H 4352   4.907  10.946   1.959 -0.7833  1.5225  1.8921
   32MOL0     H 4353   4.991  10.962   1.733  1.6450 -0.7108  3.5568
   32MOL0     H 4354   4.908  11.125   1.710 -0.8920 -0.5341 -0.0157
   32MOL0     H 4355   5.090  11.063   1.936 -3.4769 -3.6284 -0.3704
   32MOL0     H 4356   5.158  11.100   1.781 -0.1060 -1.9522 -0.3227
   32MOL0     H 4357   4.975  11.274   1.955  0.3096  0.5468  1.4636
   32MOL0     H 4358   4.982  11.321   1.791  0.8841  1.0763  0.7371
   32MOL0     H 4359   5.234  11.327   1.786 -1.5909 -1.8692  0.0225
   32MOL0     H 4360   5.161  11.452   1.877 -1.2677 -0.0551 -1.5168
   32MOL0     H 4361   5.353  11.357   1.999 -0.4025 -0.2831  0.3883
   32MOL0     H 4362   5.295  11.192   1.976 -0.3310 -0.9708 -0.2241
   32MOL0     H 4363   5.127  11.243   2.159  1.2010 -0.3039  2.5618
   32MOL0     H 4364   5.274  11.280   2.217  0.1734 -2.1793 -0.4450
   32MOL0     H 4365   5.304  11.597   2.092  0.1186  0.0405  0.2122
   32MOL0     H 4366   5.021  11.839   2.203  1.3780  2.1504 -0.3087
   32MOL0     H 4367   5.174  11.828   2.108  2.6626 -1.3581  1.7109
   32MOL0     H 4368   5.123  11.835   2.401  0.2413  0.5255  0.8370
   32MOL0     H 4369   5.279  11.772   2.332 -1.5567 -1.6218 -0.9762
   32MOL0     H 4370   5.279  11.998   2.200  0.0957 -1.1692  0.2184
   32MOL0     H 4371   5.149  12.051   2.309 -2.3263 -1.8576  0.0368
   32MOL0     H 4372   5.325  12.152   2.419 -0.0760  0.4818  0.2565
   32MOL0     H 4373   5.316  11.998   2.505 -0.7554 -0.4625 -1.0544
   32MOL0     H 4374   5.723  11.967   2.361  2.4215 -0.9499 -0.8242
   32MOL0     H 4375   5.916  11.959   2.260 -0.3830 -0.9052 -0.6332
   32MOL0     H 4376   5.985  12.116   2.242  1.3559 -0.2056 -1.1673
   32MOL0     H 4377   5.956  12.014   2.093 -1.6002  2.5866 -1.2486
   32MOL0     H 4378   5.807  12.534   2.005  1.6827 -2.8015 -0.0780
   32MOL0     H 4379   5.895  12.756   1.898  0.7070  0.2273  0.1736
   32MOL0     H 4380   6.166  12.638   1.625 -0.2394  0.9441  2.5953
   32MOL0     H 4381   6.101  12.718   1.479 -0.5912 -3.0035  0.0298
   32MOL0     H 4382   6.152  12.928   1.625 -0.9357 -1.0784  0.6022
   32MOL0     H 4383   6.296  12.847   1.674  1.2700 -0.1051 -1.5136
   32MOL0     H 4384   6.222  12.948   1.402 -0.8480 -0.4785 -1.6635
   32MOL0     H 4385   6.323  12.804   1.404  0.7400  1.3758 -2.1430
   32MOL0     H 4386   6.467  12.939   1.578 -1.4324 -2.0000 -0.8516
   32MOL0     H 4387   6.367  13.070   1.533  1.1216  0.8615  0.9972
   32MOL0     H 4388   6.582  13.080   1.418  1.2246  0.0362 -1.9818
   32MOL0     H 4389   6.564  12.914   1.367  1.2194 -0.0534 -0.6746
   32MOL0     H 4390   6.373  13.137   1.255  0.0897  0.6318  1.6740
   32MOL0     H 4391   6.382  12.979   1.194  0.3805 -0.3898 -1.0434
   32MOL0     H 4392   6.614  13.006   1.118  1.8254  1.5960 -0.3372
   32MOL0     H 4393   6.630  13.163   1.188  1.0241 -0.2561 -1.7867
   32MOL0     H 4394   6.415  13.111   0.989 -1.8147  0.2551  1.8343
   32MOL0     H 4395   6.581  13.154   0.947  0.6117 -2.6279  1.0038
   32MOL0     H 4396   5.949  12.543   1.530  0.8828  2.1819  0.0930
   32MOL0     H 4397   5.839  12.335   1.642 -2.8019 -1.8594  2.9470
   32MOL0     H 4398   5.548  12.313   2.042  0.4202  0.8882  1.4162
   32MOL0     H 4399   5.406  12.209   2.201 -0.9531 -0.1410  0.0213
   32MOL0     H 4400   4.484  10.837   2.097  1.2649 -0.5577 -1.2517
   32MOL0     H 4401   4.234  10.835   2.091 -1.4381  0.4770 -0.6487
   32MOL0     H 4402   3.944  10.855   1.671  1.3561  1.0877 -0.6622
   32MOL0     H 4403   3.699  10.819   1.619  0.8127 -0.4622  0.3545
   32MOL0     H 4404   3.446  10.765   1.649  3.1762  1.2686 -1.0499
   32MOL0     H 4405   3.525  10.775   1.801  1.8268  1.5461  0.7290
   32MOL0     H 4406   3.245  10.910   1.751 -1.5777 -0.4744  1.1066
   32MOL0     H 4407   3.337  10.889   1.905 -0.3709 -0.7677  0.4130
   32MOL0     H 4408   3.204  10.680   1.722  2.0424  0.1504 -0.4116
   32MOL0     H 4409   3.308  10.639   1.866  0.5945 -1.2395 -2.3616
   32MOL0     H 4410   3.087  10.624   1.949 -0.7553  0.6336 -2.2442
   32MOL0     H 4411   3.040  10.758   1.845 -0.3087  3.0761  1.6128
   32MOL0     H 4412   3.161  10.989   2.183 -0.2113  0.3634  0.0502
   32MOL0     H 4413   3.591  11.132   1.890  0.3301  5.0004 -6.0885
   32MOL0     H 4414   3.926  11.188   2.031  0.5356  0.6037  0.4108
   32MOL0     H 4415   3.797  11.291   1.960 -2.1679 -0.4322  3.2480
   32MOL0     H 4416   3.758  11.170   2.075  2.6649  0.3730  2.0429
   33MOL0     O 4417   9.036   9.121  10.620  0.3137 -0.4087 -0.3231
   33MOL0     C 4418   8.911   9.107  10.619 -0.1886 -0.4259  0.0257
   33MOL0     O 4419   8.831   9.132  10.508  0.6885 -0.3705  0.0237
   33MOL0     C 4420   8.892   9.176  10.400  0.9134  0.1160 -0.1047
   33MOL0     C 4421   8.863   9.304  10.356  1.3278  0.2222  0.1182
   33MOL0     C 4422   8.939   9.371  10.257  0.5013  0.4275 -0.0810
   33MOL0     C 4423   9.034   9.296  10.190  0.6293 -0.0288  0.6412
   33MOL0     O 4424   9.106   9.374  10.099  0.7724  0.1367 -0.3911
   33MOL0     C 4425   9.212   9.296  10.036  0.1188 -0.9740  0.2581
   33MOL0     C 4426   9.303   9.386   9.954  1.0185  0.6343 -0.4565
   33MOL0     C 4427   9.376   9.480  10.044 -0.3088 -0.2595  0.6105
   33MOL0     C 4428   9.503   9.535   9.974  0.3328  0.3157 -0.2109
   33MOL0     C 4429   9.583   9.638  10.063 -0.0545  0.8814  0.7546
   33MOL0     C 4430   9.710   9.671   9.991 -0.7001  0.4863 -0.7852
   33MOL0     C 4431   9.758   9.813  10.028 -0.1565  0.1263  0.9647
   33MOL0     C 4432   9.810   9.822  10.169 -0.3935 -0.2605 -0.1522
   33MOL0     N 4433   9.854   9.957  10.194 -0.2960 -0.2789 -0.2059
   33MOL0     C 4434   9.970  10.020  10.156 -0.0656  0.0796 -0.0324
   33MOL0     C 4435   9.950  10.145  10.205 -0.1257 -0.6282 -0.3131
   33MOL0     C 4436  10.038  10.262  10.166 -0.5572 -0.5051  0.1651
   33MOL0     C 4437  10.114  10.330  10.271  0.1159 -0.4382 -0.9457
   33MOL0     C 4438  10.217  10.227  10.323 -0.5838 -0.0939 -0.3312
   33MOL0     C 4439  10.309  10.295  10.427 -0.0462  0.5650  0.6672
   33MOL0     O 4440  10.401  10.376  10.350  0.0477 -0.6787 -0.0206
   33MOL0     C 4441  10.520  10.412  10.397  0.5951 -0.3800 -0.0244
   33MOL0     C 4442  10.602  10.483  10.309 -0.6585 -0.2409 -0.6794
   33MOL0     C 4443  10.737  10.523  10.352 -0.2452  0.7398  0.7953
   33MOL0     C 4444  10.827  10.594  10.254 -0.2866 -1.0200 -0.1939
   33MOL0     C 4445  10.774  10.509  10.490 -0.0650  0.0682  0.6134
   33MOL0     C 4446  10.906  10.560  10.548 -0.8455 -0.1168 -0.6839
   33MOL0     O 4447  10.958  10.680  10.495 -0.7161  0.1470  0.5279
   33MOL0     C 4448  11.088  10.724  10.530  1.0642  0.8662 -0.7635
   33MOL0     C 4449  11.103  10.858  10.525  0.0733  0.4261 -0.5743
   33MOL0     C 4450  11.225  10.918  10.532 -0.4802 -0.0039 -0.3342
   33MOL0     C 4451  11.341  10.839  10.569  0.0875  0.4756  0.7421
   33MOL0     O 4452  11.454  10.907  10.583 -0.8023 -0.3526 -0.1247
   33MOL0     C 4453  11.575  10.844  10.633  0.5406 -0.9170  0.4156
   33MOL0     C 4454  11.693  10.940  10.621 -1.1220 -0.1138  1.0901
   33MOL0     C 4455  11.678  11.058  10.715  0.7307 -0.7301 -1.0766
   33MOL0     C 4456  11.791  11.161  10.708 -0.0746  0.3220  0.5861
   33MOL0     C 4457  11.914  11.136  10.796 -0.2520  0.9302  0.1802
   33MOL0     C 4458  11.892  11.166  10.949 -0.5825  0.3713 -0.9727
   33MOL0     C 4459  12.014  11.126  11.031  0.0597 -0.2001 -0.7403
   33MOL0     C 4460  12.007  11.179  11.173 -0.8303 -0.6144 -0.7931
   33MOL0    Cl 4461  11.880  11.087  11.270 -0.1164 -0.0152 -0.1753
   33MOL0     C 4462  11.331  10.706  10.580 -1.4321 -0.8733 -0.0355
   33MOL0     C 4463  11.201  10.653  10.569  0.3788  0.4625  0.7423
   33MOL0     O 4464  10.968  10.498  10.637  0.0613  0.3197  0.5909
   33MOL0     C 4465  10.693  10.426  10.576 -0.0152 -0.1307  0.5809
   33MOL0     C 4466  10.570  10.386  10.531  0.2009 -0.2278  0.7302
   33MOL0     N 4467   9.835  10.156  10.275 -0.3944  0.0891  0.1048
   33MOL0     N 4468   9.785  10.041  10.273 -0.3534  0.4079 -0.9946
   33MOL0     C 4469   9.045   9.153  10.217 -0.3267 -0.7059  0.8138
   33MOL0     C 4470   8.983   9.095  10.328 -0.2322 -0.6020  0.8589
   33MOL0     C 4471   8.847   9.038  10.729  0.0528  0.5654  0.2031
   33MOL0     C 4472   8.743   8.939  10.701 -0.0578 -0.7792 -0.1233
   33MOL0     C 4473   8.684   8.880  10.801 -0.2775  0.2924  0.7218
   33MOL0     C 4474   8.726   8.895  10.937 -0.4119  0.0805 -0.9334
   33MOL0     O 4475   8.683   8.805  11.033 -0.1723  0.5110 -0.4194
   33MOL0     C 4476   8.576   8.861  11.119  0.2464  0.0757 -0.4371
   33MOL0     C 4477   8.473   8.754  11.175  0.3807 -0.4042 -0.6465
   33MOL0     C 4478   8.563   8.643  11.236  0.3746  0.0769 -0.8999
   33MOL0     C 4479   8.487   8.570  11.353 -0.6609  0.3173  0.8075
   33MOL0     C 4480   8.382   8.483  11.309  0.4076 -0.1089  0.3327
   33MOL0     C 4481   8.295   8.409  11.275  0.7624 -0.1519 -0.4795
   33MOL0     C 4482   8.825   8.985  10.965  0.0039 -1.2069 -0.5666
   33MOL0     C 4483   8.881   9.065  10.865 -0.1382  0.2270 -0.5259
   33MOL0     C 4484   8.963   9.177  10.907 -0.4266 -0.8907  0.0783
   33MOL0     H 4485   8.779   9.363  10.393  1.4877  0.4070  0.1854
   33MOL0     H 4486   8.927   9.475  10.228 -1.6801  0.2053 -0.1567
   33MOL0     H 4487   9.171   9.238   9.953 -1.6244  0.6861 -0.0962
   33MOL0     H 4488   9.276   9.245  10.110  2.5470 -0.4848 -1.3810
   33MOL0     H 4489   9.379   9.325   9.904  1.7650  1.1888 -0.0266
   33MOL0     H 4490   9.248   9.433   9.872 -0.3865 -0.3779 -0.1285
   33MOL0     H 4491   9.317   9.571  10.064  1.8232  1.4065 -0.2568
   33MOL0     H 4492   9.409   9.441  10.140  2.8521  2.0440  0.6116
   33MOL0     H 4493   9.574   9.452   9.981 -0.7094 -0.5884 -0.1541
   33MOL0     H 4494   9.483   9.582   9.877  3.6169  1.1549 -0.6263
   33MOL0     H 4495   9.598   9.606  10.167 -1.4661 -2.7071  0.0171
   33MOL0     H 4496   9.526   9.731  10.068 -0.0179  1.2332 -2.8302
   33MOL0     H 4497   9.791   9.602  10.018 -0.5907  1.3034  1.1405
   33MOL0     H 4498   9.687   9.667   9.884  0.6734  1.0093 -1.1232
   33MOL0     H 4499   9.686   9.891  10.000  0.8608  0.5925 -0.4346
   33MOL0     H 4500   9.840   9.836   9.960  0.2277 -2.1053  0.5755
   33MOL0     H 4501   9.728   9.796  10.237 -2.2009  0.8317 -1.7990
   33MOL0     H 4502   9.908   9.774  10.182  1.7682  3.7870  0.0874
   33MOL0     H 4503  10.047   9.980  10.091  1.7800  1.0172  1.4984
   33MOL0     H 4504   9.968  10.342  10.140 -1.0914 -0.4944  1.5647
   33MOL0     H 4505  10.107  10.247  10.083 -0.0430 -3.4590  1.0056
   33MOL0     H 4506  10.170  10.410  10.223  1.1817 -0.3089  0.4472
   33MOL0     H 4507  10.056  10.373  10.353  1.1459 -0.5148 -0.1487
   33MOL0     H 4508  10.161  10.147  10.372  1.2326 -1.3849 -0.2932
   33MOL0     H 4509  10.281  10.188  10.243 -0.5879 -0.5669 -0.1029
   33MOL0     H 4510  10.245  10.343  10.500  1.1126 -1.0530  2.8777
   33MOL0     H 4511  10.370  10.220  10.480 -0.7441 -0.0060  0.6817
   33MOL0     H 4512  10.559  10.501  10.211  0.0496  1.3077 -0.7388
   33MOL0     H 4513  10.935  10.582  10.266 -0.4221 -2.7261 -0.4020
   33MOL0     H 4514  10.801  10.698  10.274 -0.4314 -1.2396  0.8133
   33MOL0     H 4515  10.799  10.575  10.150  0.5374 -2.1898 -0.2344
   33MOL0     H 4516  11.012  10.907  10.490 -0.3153 -0.5632 -0.9898
   33MOL0     H 4517  11.244  11.022  10.509 -1.6486  0.0754 -1.0058
   33MOL0     H 4518  11.560  10.814  10.737  0.4867 -1.8926  0.1369
   33MOL0     H 4519  11.585  10.753  10.573  0.9364 -1.7323  1.6821
   33MOL0     H 4520  11.781  10.883  10.652 -1.5365 -0.7624  1.0729
   33MOL0     H 4521  11.698  10.972  10.516 -1.7579  2.6259  1.7993
   33MOL0     H 4522  11.674  11.019  10.817  1.6068 -0.0147 -0.7489
   33MOL0     H 4523  11.580  11.107  10.711  0.9553 -0.1677 -0.0690
   33MOL0     H 4524  11.760  11.265  10.726  1.4723  1.1502 -1.2132
   33MOL0     H 4525  11.818  11.152  10.603 -1.3919 -0.9669  0.3265
   33MOL0     H 4526  11.929  11.028  10.782 -4.8511  0.2815 -1.6077
   33MOL0     H 4527  12.006  11.181  10.760 -1.1664  2.6498 -0.1282
   33MOL0     H 4528  11.799  11.131  10.995 -1.2176  2.7967 -0.2163
   33MOL0     H 4529  11.888  11.276  10.956  4.2129  0.7344 -0.5887
   33MOL0     H 4530  12.104  11.165  10.983  0.4867  0.1031  0.2781
   33MOL0     H 4531  12.026  11.017  11.039  1.3872  0.0484  1.2362
   33MOL0     H 4532  11.989  11.287  11.171 -0.2732 -0.5317 -2.3924
   33MOL0     H 4533  12.096  11.150  11.230 -1.8572 -0.6469  0.8956
   33MOL0     H 4534  11.417  10.644  10.604  0.1497  1.5906  0.9960
   33MOL0     H 4535  11.199  10.545  10.582 -1.5720  0.3689  0.0266
   33MOL0     H 4536  10.730  10.410  10.677  3.2411  0.9808 -0.2950
   33MOL0     H 4537  10.495  10.338  10.593 -2.3100  1.4991 -0.7751
   33MOL0     H 4538   9.107   9.087  10.158  1.0487  1.5734 -0.4132
   33MOL0     H 4539   8.987   8.989  10.350 -0.9349 -1.0638 -1.0189
   33MOL0     H 4540   8.720   8.910  10.599  1.5916 -0.5482 -0.5864
   33MOL0     H 4541   8.600   8.813  10.782 -0.4157  0.2435  1.4690
   33MOL0     H 4542   8.614   8.915  11.206 -0.0167 -0.3132 -0.0781
   33MOL0     H 4543   8.531   8.931  11.048  1.6015 -0.8160 -2.2709
   33MOL0     H 4544   8.403   8.720  11.098  0.4474 -1.5266 -0.2348
   33MOL0     H 4545   8.414   8.800  11.255 -0.0361 -3.3425  0.8720
   33MOL0     H 4546   8.601   8.575  11.159  1.1801 -0.0040 -0.4386
   33MOL0     H 4547   8.648   8.686  11.288 -1.7109  2.4519  0.7716
   33MOL0     H 4548   8.444   8.641  11.424 -2.3623  0.7503 -0.5752
   33MOL0     H 4549   8.563   8.506  11.397 -1.1473 -1.5265 -0.8846
   33MOL0     H 4550   8.217   8.350  11.232 -0.6091  1.4784 -0.3471
   33MOL0     H 4551   8.859   8.997  11.067 -0.2197  1.0866 -0.7095
   33MOL0     H 4552   8.938   9.274  10.862  6.2869  1.2089 -0.2275
   33MOL0     H 4553   8.940   9.193  11.013 -0.5030 -0.9214  0.0672
   33MOL0     H 4554   9.070   9.160  10.894 -0.2643 -0.1043  0.3380
   34MOL0     O 4555  10.824   2.932   7.141  0.1238 -0.1592 -0.4039
   34MOL0     C 4556  10.739   2.934   7.232 -0.5695 -0.1442  0.3614
   34MOL0     O 4557  10.759   2.988   7.356 -0.6623  0.2750  0.4475
   34MOL0     C 4558  10.876   3.056   7.392  0.1826 -0.0522 -0.0526
   34MOL0     C 4559  10.965   2.990   7.470 -0.0625  0.1407 -0.7000
   34MOL0     C 4560  11.082   3.054   7.514  0.7450  0.1510 -0.1437
   34MOL0     C 4561  11.109   3.192   7.488 -0.2130  0.4414 -0.5543
   34MOL0     O 4562  11.224   3.235   7.545 -0.5845 -0.0729  0.0088
   34MOL0     C 4563  11.260   3.371   7.520  1.0279 -0.1400  1.1525
   34MOL0     C 4564  11.384   3.427   7.577 -0.1487  0.2012 -1.4877
   34MOL0     C 4565  11.367   3.434   7.728  0.1312 -0.6326  0.5507
   34MOL0     C 4566  11.505   3.428   7.781  0.1430 -0.4492 -0.9704
   34MOL0     C 4567  11.520   3.472   7.929  0.3528  1.0710  0.4332
   34MOL0     C 4568  11.644   3.539   7.967 -0.3451 -0.5143  1.3827
   34MOL0     C 4569  11.643   3.594   8.117  0.4787 -0.3247  0.4535
   34MOL0     C 4570  11.779   3.604   8.168 -0.2274  0.3284 -0.3794
   34MOL0     N 4571  11.857   3.689   8.080 -0.4066 -0.4962  0.6736
   34MOL0     C 4572  11.855   3.831   8.081  0.1638  0.4550 -0.3067
   34MOL0     C 4573  11.963   3.867   8.016 -1.8447 -0.6712  0.3214
   34MOL0     C 4574  12.014   4.007   7.986 -1.5602 -0.9113  0.4436
   34MOL0     C 4575  12.067   4.068   8.117 -0.3177  0.4321 -1.1854
   34MOL0     C 4576  12.195   3.991   8.173  0.1502 -0.9771  0.3524
   34MOL0     C 4577  12.319   4.030   8.099 -0.8326  0.0935  0.2372
   34MOL0     O 4578  12.341   4.159   8.139 -0.2015 -0.4092  0.0913
   34MOL0     C 4579  12.453   4.225   8.096 -0.0486 -0.1429  0.2433
   34MOL0     C 4580  12.452   4.357   8.115  0.3974 -0.9468  0.2793
   34MOL0     C 4581  12.566   4.435   8.098 -1.2674  0.0152  0.1353
   34MOL0     C 4582  12.553   4.583   8.130  0.7407  0.2984  0.0817
   34MOL0     C 4583  12.688   4.373   8.046  0.5680 -0.6391  0.0128
   34MOL0     C 4584  12.814   4.447   8.007  0.9406 -0.8854  0.1831
   34MOL0     O 4585  12.916   4.371   7.946  0.7609  0.9055 -0.0790
   34MOL0     C 4586  13.045   4.416   7.954 -0.5051  0.2175 -0.2093
   34MOL0     C 4587  13.121   4.386   7.843  1.0272  0.3522  0.1711
   34MOL0     C 4588  13.250   4.422   7.828  0.1895 -0.3104 -0.2012
   34MOL0     C 4589  13.316   4.500   7.933  0.3103  0.9190 -0.3833
   34MOL0     O 4590  13.453   4.537   7.929 -1.1145  0.1943 -0.3642
   34MOL0     C 4591  13.512   4.535   7.801 -0.0053  0.2547  0.9338
   34MOL0     C 4592  13.653   4.578   7.812  0.0397 -0.9156 -0.3334
   34MOL0     C 4593  13.738   4.533   7.689  0.1453 -0.1848  0.0183
   34MOL0     C 4594  13.881   4.510   7.723  0.2806  0.7442 -0.1165
   34MOL0     C 4595  13.961   4.453   7.603  0.3130  0.1987  0.3090
   34MOL0     C 4596  13.959   4.558   7.489  0.1612 -0.0501 -0.2948
   34MOL0     C 4597  14.031   4.516   7.366 -0.1681 -0.3259  0.1624
   34MOL0     C 4598  13.946   4.416   7.285  0.0849 -0.7551 -0.4725
   34MOL0    Cl 4599  14.034   4.361   7.139  0.3181 -0.1666 -0.6011
   34MOL0     C 4600  13.243   4.519   8.049  0.0515 -0.8210  0.1128
   34MOL0     C 4601  13.110   4.478   8.056  0.2765 -0.7636 -0.6099
   34MOL0     O 4602  12.826   4.564   8.045 -0.4524 -0.1490  0.0874
   34MOL0     C 4603  12.686   4.231   8.020  0.2907  0.2871 -0.6075
   34MOL0     C 4604  12.573   4.158   8.057  0.9359 -0.0321  0.6685
   34MOL0     N 4605  12.022   3.750   7.967 -0.3599 -0.2975 -0.9656
   34MOL0     N 4606  11.972   3.645   8.018 -0.2447 -0.0550  0.3574
   34MOL0     C 4607  11.014   3.262   7.414 -0.2341  0.4799  0.2109
   34MOL0     C 4608  10.890   3.196   7.370 -0.0870  0.6492 -0.2359
   34MOL0     C 4609  10.603   2.875   7.212  0.1475  0.0477 -0.6123
   34MOL0     C 4610  10.569   2.778   7.308 -0.1130  0.7754 -0.3463
   34MOL0     C 4611  10.445   2.718   7.302  0.1642  0.3591 -0.6299
   34MOL0     C 4612  10.360   2.737   7.188 -0.6476 -0.4158 -0.0152
   34MOL0     O 4613  10.245   2.671   7.188  0.1783  0.4484 -0.2850
   34MOL0     C 4614  10.177   2.617   7.074  0.2693  0.4700 -0.5044
   34MOL0     C 4615  10.182   2.470   7.100  0.8642  1.0396  0.3172
   34MOL0     C 4616  10.319   2.412   7.156 -0.1905 -0.3834  0.5893
   34MOL0     C 4617  10.298   2.278   7.223  0.0096 -0.1891 -0.4145
   34MOL0     C 4618  10.335   2.266   7.366  0.1166  0.3408  0.6851
   34MOL0     C 4619  10.341   2.266   7.490 -0.4324  0.2222  0.5616
   34MOL0     C 4620  10.404   2.820   7.085  0.0659  1.3162  1.3359
   34MOL0     C 4621  10.522   2.893   7.096  0.5021 -0.8642  0.1559
   34MOL0     C 4622  10.548   2.998   6.994 -0.1121 -0.7206  0.2662
   34MOL0     H 4623  10.939   2.885   7.481  0.9719  0.0593  1.2765
   34MOL0     H 4624  11.148   2.988   7.569 -1.4986 -1.2945  0.9885
   34MOL0     H 4625  11.176   3.436   7.543 -1.6497 -1.8325 -2.7017
   34MOL0     H 4626  11.270   3.384   7.412 -1.6730  0.0180  0.8525
   34MOL0     H 4627  11.463   3.362   7.537  1.5989  2.7594 -2.4049
   34MOL0     H 4628  11.403   3.523   7.528  1.4818 -0.4025 -2.0857
   34MOL0     H 4629  11.318   3.524   7.767 -1.0770 -0.9287 -0.2493
   34MOL0     H 4630  11.308   3.357   7.779 -2.5447  0.5116 -0.6002
   34MOL0     H 4631  11.560   3.333   7.777  0.8320 -0.4597  3.2257
   34MOL0     H 4632  11.567   3.497   7.723 -0.0674  1.2999  0.7546
   34MOL0     H 4633  11.496   3.394   8.002  0.6110 -0.5122 -1.1176
   34MOL0     H 4634  11.439   3.544   7.949 -0.7745 -0.5172  1.9115
   34MOL0     H 4635  11.712   3.455   7.951 -0.1193  0.0917 -1.3224
   34MOL0     H 4636  11.673   3.615   7.894 -1.7891 -0.9472  0.3137
   34MOL0     H 4637  11.577   3.538   8.184 -1.1857  0.9312 -0.0489
   34MOL0     H 4638  11.597   3.694   8.116  0.0219 -0.5164 -1.5192
   34MOL0     H 4639  11.772   3.651   8.266 -0.6466 -1.2051  0.3598
   34MOL0     H 4640  11.814   3.503   8.189 -1.1941 -0.1300 -0.8642
   34MOL0     H 4641  11.779   3.887   8.136  0.5179 -0.7378  1.4560
   34MOL0     H 4642  11.934   4.052   7.928 -0.2069  0.1690 -0.6654
   34MOL0     H 4643  12.102   4.007   7.920 -1.4924  2.0250  0.3916
   34MOL0     H 4644  12.093   4.173   8.102 -1.0382  0.5059 -1.9674
   34MOL0     H 4645  11.987   4.061   8.191 -0.1040  0.0494 -0.9900
   34MOL0     H 4646  12.219   4.020   8.276 -3.0247 -0.8464  1.1496
   34MOL0     H 4647  12.181   3.882   8.173  1.8860 -1.2394 -1.0172
   34MOL0     H 4648  12.400   3.965   8.133  0.4148  0.0100 -2.6040
   34MOL0     H 4649  12.313   4.033   7.990 -0.7700 -2.2705  0.1223
   34MOL0     H 4650  12.354   4.393   8.147 -0.3943 -1.0959 -1.8012
   34MOL0     H 4651  12.625   4.598   8.211  1.5456  0.0277 -0.5734
   34MOL0     H 4652  12.455   4.607   8.173  0.7705  1.4149 -0.4428
   34MOL0     H 4653  12.574   4.648   8.045 -2.1292 -1.2602 -1.9914
   34MOL0     H 4654  13.064   4.341   7.763 -0.8290 -1.3372  2.3118
   34MOL0     H 4655  13.296   4.367   7.746 -0.1464 -0.3380 -0.3735
   34MOL0     H 4656  13.506   4.437   7.754  1.1747  1.0629 -1.0355
   34MOL0     H 4657  13.469   4.607   7.730  0.9631  0.0945  0.1580
   34MOL0     H 4658  13.650   4.682   7.844 -3.2232 -1.4806  1.6229
   34MOL0     H 4659  13.698   4.538   7.904  1.1519  0.7104 -0.1294
   34MOL0     H 4660  13.727   4.613   7.615  2.2793 -0.1959 -0.3488
   34MOL0     H 4661  13.686   4.447   7.647  2.7219 -1.2007 -1.2763
   34MOL0     H 4662  13.891   4.443   7.809  1.5351  0.0347 -0.7892
   34MOL0     H 4663  13.928   4.605   7.749  0.6273  0.3411  0.7574
   34MOL0     H 4664  14.063   4.432   7.635 -0.5398 -3.5373  0.9515
   34MOL0     H 4665  13.920   4.362   7.559 -1.9590  1.5316 -0.4991
   34MOL0     H 4666  14.001   4.653   7.525 -2.3590  1.7452 -1.7608
   34MOL0     H 4667  13.853   4.563   7.463 -0.3478 -0.6784  1.5511
   34MOL0     H 4668  14.122   4.460   7.390 -0.6376 -1.4971 -0.6590
   34MOL0     H 4669  14.071   4.599   7.307 -1.7868  1.4767  1.4906
   34MOL0     H 4670  13.852   4.457   7.247  1.5425  0.3757 -3.0952
   34MOL0     H 4671  13.927   4.331   7.351  0.2703 -0.8311 -0.5149
   34MOL0     H 4672  13.285   4.581   8.127 -0.1509  1.5480 -1.5748
   34MOL0     H 4673  13.059   4.488   8.151  2.6761  2.4788  0.5416
   34MOL0     H 4674  12.772   4.179   7.980 -0.0428 -0.4731 -0.3414
   34MOL0     H 4675  12.573   4.050   8.060 -0.3943 -0.0408  2.7888
   34MOL0     H 4676  11.031   3.368   7.406 -0.9220  0.4413 -3.3961
   34MOL0     H 4677  10.807   3.248   7.324 -1.6938 -0.5740  1.1524
   34MOL0     H 4678  10.634   2.769   7.394 -0.8314  1.9762  0.3494
   34MOL0     H 4679  10.404   2.659   7.383 -0.5896  0.5980 -0.8266
   34MOL0     H 4680  10.072   2.645   7.061 -0.3837 -1.7770 -0.5168
   34MOL0     H 4681  10.236   2.634   6.983  0.4659 -0.9964 -0.6638
   34MOL0     H 4682  10.177   2.413   7.007  2.4434 -1.7270  1.7809
   34MOL0     H 4683  10.087   2.455   7.152  0.2419  3.7038  0.1089
   34MOL0     H 4684  10.383   2.388   7.071  0.9477  0.0296  1.2998
   34MOL0     H 4685  10.379   2.470   7.227 -1.4969 -1.2549  2.4899
   34MOL0     H 4686  10.359   2.205   7.168 -0.4589 -0.2695 -0.8470
   34MOL0     H 4687  10.195   2.242   7.210  0.0314 -0.8167  0.9555
   34MOL0     H 4688  10.360   2.260   7.595  4.0295  0.4239 -0.0298
   34MOL0     H 4689  10.346   2.822   6.994  0.5020 -0.6832  0.9648
   34MOL0     H 4690  10.486   2.982   6.906  1.9994  2.9685 -2.1461
   34MOL0     H 4691  10.532   3.100   7.030  0.9980 -0.2261 -0.5854
   34MOL0     H 4692  10.651   2.996   6.956  0.2339  1.9192  0.8569
   35MOL0     O 4693   0.351   6.557   2.540 -0.5449 -0.7064  0.0307
   35MOL0     C 4694   0.287   6.456   2.503 -0.4875  0.4161 -0.2576
   35MOL0     O 4695   0.354   6.340   2.486 -0.1347  0.3699  0.1516
   35MOL0     C 4696   0.454   6.307   2.566  0.7777  0.0072  0.3774
   35MOL0     C 4697   0.434   6.192   2.645 -0.5860 -0.2412  0.7144
   35MOL0     C 4698   0.533   6.151   2.741  0.0741 -0.0730 -0.1389
   35MOL0     C 4699   0.666   6.210   2.738 -0.3635 -0.2264 -0.2762
   35MOL0     O 4700   0.768   6.161   2.817 -0.1982 -0.0969 -0.5559
   35MOL0     C 4701   0.751   6.032   2.872 -0.1201  0.4125  0.0518
   35MOL0     C 4702   0.871   5.968   2.936 -0.6532 -0.7817 -0.0824
   35MOL0     C 4703   0.897   6.001   3.088  0.3260  0.1487 -0.0800
   35MOL0     C 4704   1.034   5.970   3.123  0.1033  0.3885 -0.3611
   35MOL0     C 4705   1.083   6.024   3.258  1.1666  0.4186 -0.6606
   35MOL0     C 4706   1.233   5.997   3.257  1.0527  0.0693 -0.6259
   35MOL0     C 4707   1.298   6.015   3.397  0.7076  0.6036 -0.1200
   35MOL0     C 4708   1.438   5.951   3.405  0.5618  0.5338  0.0429
   35MOL0     N 4709   1.505   5.982   3.529 -0.3953 -0.7377 -0.1901
   35MOL0     C 4710   1.498   5.908   3.643  0.7192  0.2972 -0.8355
   35MOL0     C 4711   1.579   5.964   3.737  0.0927 -0.6638 -0.3050
   35MOL0     C 4712   1.583   5.921   3.884  0.1982 -0.2806 -0.1238
   35MOL0     C 4713   1.503   6.015   3.970  0.3832  0.2573  0.6261
   35MOL0     C 4714   1.573   6.031   4.107 -0.3031  0.4422  0.0093
   35MOL0     C 4715   1.705   6.104   4.106  0.0683 -0.8361 -0.0889
   35MOL0     O 4716   1.736   6.125   4.246  0.0875  0.4786  0.7943
   35MOL0     C 4717   1.828   6.215   4.280 -0.7401 -0.3183  0.3536
   35MOL0     C 4718   1.808   6.261   4.414  0.9972 -0.3230  0.1590
   35MOL0     C 4719   1.898   6.348   4.477 -0.0789  0.4767  0.4927
   35MOL0     C 4720   1.861   6.380   4.626  0.4053 -0.9845 -0.1755
   35MOL0     C 4721   2.013   6.380   4.404  0.1296 -0.2153 -0.0288
   35MOL0     C 4722   2.134   6.457   4.466  0.1923  0.4747 -0.2013
   35MOL0     O 4723   2.202   6.522   4.376 -0.0826 -0.0937 -0.0214
   35MOL0     C 4724   2.321   6.588   4.379  0.2837 -0.1200 -0.1052
   35MOL0     C 4725   2.393   6.594   4.261  0.0133  0.4854  1.1481
   35MOL0     C 4726   2.513   6.671   4.258 -0.3163  0.7379  0.1685
   35MOL0     C 4727   2.564   6.730   4.371 -0.3595 -0.8590 -0.0825
   35MOL0     O 4728   2.681   6.799   4.343  0.6544 -0.0728 -0.0997
   35MOL0     C 4729   2.764   6.838   4.453 -0.1498 -0.0937  0.3673
   35MOL0     C 4730   2.898   6.893   4.407  0.2012  0.0467 -0.0762
   35MOL0     C 4731   2.938   6.997   4.499  0.3302  0.1108  0.2123
   35MOL0     C 4732   3.077   7.045   4.473  0.2210 -0.7876  0.1115
   35MOL0     C 4733   3.093   7.108   4.338  0.3527 -0.1151 -0.0635
   35MOL0     C 4734   3.209   7.202   4.303  0.2166 -0.2572  0.1660
   35MOL0     C 4735   3.324   7.107   4.266 -0.3490 -0.3259 -0.4752
   35MOL0     C 4736   3.451   7.185   4.255 -0.6973 -0.3842 -0.4553
   35MOL0    Cl 4737   3.461   7.340   4.345 -0.1456 -0.1490 -0.3215
   35MOL0     C 4738   2.501   6.702   4.494  0.2267 -0.6382 -0.3457
   35MOL0     C 4739   2.372   6.644   4.493 -0.3387 -0.1228  0.0066
   35MOL0     O 4740   2.150   6.450   4.585 -0.2811 -0.5430 -0.5536
   35MOL0     C 4741   2.030   6.337   4.275  0.1240 -0.8740 -0.1259
   35MOL0     C 4742   1.935   6.263   4.210 -0.9347 -0.1090 -0.2224
   35MOL0     N 4743   1.631   6.076   3.671 -0.2198 -0.2412 -0.0150
   35MOL0     N 4744   1.593   6.083   3.555 -0.4493 -0.2547 -0.3090
   35MOL0     C 4745   0.681   6.333   2.662 -0.2482  0.5168  0.5579
   35MOL0     C 4746   0.576   6.370   2.570 -0.7739 -0.4265 -0.8130
   35MOL0     C 4747   0.137   6.466   2.469 -0.6470  0.5411 -0.6742
   35MOL0     C 4748   0.072   6.348   2.435  0.0641  0.2240 -0.4388
   35MOL0     C 4749  -0.062   6.343   2.394  0.4352 -0.4595 -0.2077
   35MOL0     C 4750  -0.133   6.469   2.384 -0.3708 -0.8786 -0.4448
   35MOL0     O 4751  -0.263   6.461   2.355  0.4229  0.0696 -0.1949
   35MOL0     C 4752  -0.347   6.578   2.348 -0.5776  0.0215 -0.0927
   35MOL0     C 4753  -0.334   6.635   2.205 -0.1152  0.8546 -0.1544
   35MOL0     C 4754  -0.460   6.578   2.131  0.1699 -0.1875  0.0076
   35MOL0     C 4755  -0.437   6.428   2.085  0.0107 -0.8268 -0.6042
   35MOL0     C 4756  -0.558   6.382   2.025  1.0102  0.4855 -0.3446
   35MOL0     C 4757  -0.655   6.347   1.980 -0.7434 -0.1791 -0.5566
   35MOL0     C 4758  -0.058   6.587   2.415  0.7984  0.0751  0.0500
   35MOL0     C 4759   0.075   6.592   2.450  0.2917  0.5112 -0.1874
   35MOL0     C 4760   0.138   6.727   2.474 -0.8713 -0.9506  0.4097
   35MOL0     H 4761   0.342   6.134   2.635 -0.7712  0.3755 -2.4704
   35MOL0     H 4762   0.509   6.069   2.808 -0.9613 -0.3877 -0.8574
   35MOL0     H 4763   0.714   5.961   2.798  1.5236 -0.5318  0.0799
   35MOL0     H 4764   0.674   6.038   2.949 -0.8999 -0.8471 -0.5879
   35MOL0     H 4765   0.852   5.860   2.942  0.0459 -0.8336  1.6673
   35MOL0     H 4766   0.961   5.986   2.878  0.6261  0.3727  2.1391
   35MOL0     H 4767   0.882   6.110   3.092  3.4563  0.6163  1.8667
   35MOL0     H 4768   0.819   5.950   3.146 -0.9854 -0.5129 -2.3109
   35MOL0     H 4769   1.048   5.861   3.123 -1.8611  0.1078 -0.6711
   35MOL0     H 4770   1.100   6.018   3.050  1.9814  1.8680  2.1510
   35MOL0     H 4771   1.024   5.981   3.340 -0.2880  0.4867 -1.6394
   35MOL0     H 4772   1.069   6.132   3.261  3.3287  0.8582 -2.6739
   35MOL0     H 4773   1.237   5.889   3.239 -0.0678 -0.3900  1.5214
   35MOL0     H 4774   1.276   6.053   3.173 -0.8046  0.2913 -1.4908
   35MOL0     H 4775   1.244   5.960   3.475 -0.4675  0.0307 -1.3002
   35MOL0     H 4776   1.301   6.120   3.426 -1.0636  0.7349 -0.2737
   35MOL0     H 4777   1.433   5.843   3.385 -1.2935  0.8842 -1.6242
   35MOL0     H 4778   1.498   5.990   3.322 -0.6233 -1.5042 -1.8927
   35MOL0     H 4779   1.445   5.813   3.645 -2.4145  1.8412 -3.0485
   35MOL0     H 4780   1.687   5.909   3.913  0.0187  0.1611  0.7378
   35MOL0     H 4781   1.543   5.819   3.882 -0.8592  0.0806  1.1139
   35MOL0     H 4782   1.497   6.112   3.921 -1.6131 -0.3221 -0.3983
   35MOL0     H 4783   1.401   5.978   3.984  1.1155 -2.0313  0.3749
   35MOL0     H 4784   1.504   6.097   4.160 -1.2966 -0.6727  0.1425
   35MOL0     H 4785   1.572   5.935   4.160 -2.3601  0.5349  0.2225
   35MOL0     H 4786   1.785   6.055   4.048  1.6626  1.1860  0.2886
   35MOL0     H 4787   1.695   6.197   4.049  2.8289 -1.3639 -1.6428
   35MOL0     H 4788   1.713   6.230   4.458 -0.9137  0.7374 -2.8627
   35MOL0     H 4789   1.908   6.470   4.665 -1.3231 -0.2020  0.1973
   35MOL0     H 4790   1.889   6.292   4.686  0.1898 -0.9374 -0.0062
   35MOL0     H 4791   1.752   6.393   4.624  0.5991  1.1295  0.3221
   35MOL0     H 4792   2.350   6.546   4.173 -0.7409  1.0745  1.1889
   35MOL0     H 4793   2.558   6.677   4.159  1.2920 -1.5559  0.6604
   35MOL0     H 4794   2.709   6.912   4.512 -0.6754 -1.0432  1.0965
   35MOL0     H 4795   2.788   6.757   4.523  0.1548 -0.6310 -0.3448
   35MOL0     H 4796   2.961   6.805   4.423  0.3278  0.4047  1.6749
   35MOL0     H 4797   2.899   6.927   4.303 -1.0636  0.1667 -0.0589
   35MOL0     H 4798   2.932   6.961   4.602  0.7557  0.2229  0.2770
   35MOL0     H 4799   2.876   7.087   4.493  0.5715  0.2710  0.1143
   35MOL0     H 4800   3.157   6.971   4.487  0.4668 -0.2719  1.7088
   35MOL0     H 4801   3.091   7.110   4.560 -2.7048 -1.6736  1.3612
   35MOL0     H 4802   3.102   7.017   4.279 -1.2247 -2.7491  3.3703
   35MOL0     H 4803   3.003   7.166   4.314  0.9816  1.0226  0.3007
   35MOL0     H 4804   3.234   7.244   4.401 -0.2985 -1.7864  0.9955
   35MOL0     H 4805   3.186   7.271   4.222  0.0937  1.5308  1.6613
   35MOL0     H 4806   3.303   7.057   4.171  2.6161 -1.0485 -0.8469
   35MOL0     H 4807   3.337   7.029   4.341  0.6338  0.1077 -0.1695
   35MOL0     H 4808   3.467   7.217   4.152  1.6817  0.9791  0.2485
   35MOL0     H 4809   3.531   7.115   4.283 -0.5139 -0.0632 -0.1600
   35MOL0     H 4810   2.539   6.753   4.582 -1.1911 -0.2502  0.0827
   35MOL0     H 4811   2.325   6.642   4.591  1.6231 -0.3068  0.9744
   35MOL0     H 4812   2.109   6.369   4.207 -0.4694  1.4355  0.2106
   35MOL0     H 4813   1.948   6.235   4.106  2.0378 -1.4891  0.4000
   35MOL0     H 4814   0.762   6.404   2.672  1.0461 -0.8474  0.1262
   35MOL0     H 4815   0.591   6.455   2.505 -1.3625 -0.6603 -1.2624
   35MOL0     H 4816   0.131   6.258   2.445 -2.0834 -1.3158 -1.0064
   35MOL0     H 4817  -0.104   6.248   2.364  1.4330 -0.6159 -1.2022
   35MOL0     H 4818  -0.448   6.552   2.381 -1.2732 -0.9312 -2.7221
   35MOL0     H 4819  -0.324   6.656   2.422  1.9017  0.7315 -1.4858
   35MOL0     H 4820  -0.235   6.615   2.162 -0.1023 -1.9434  0.9257
   35MOL0     H 4821  -0.344   6.744   2.206  1.0140  1.0894 -3.2659
   35MOL0     H 4822  -0.541   6.582   2.204  1.0458 -1.2884  1.0824
   35MOL0     H 4823  -0.485   6.642   2.047  1.8487  0.4916 -0.0206
   35MOL0     H 4824  -0.412   6.371   2.175 -0.7635  1.3665  1.0729
   35MOL0     H 4825  -0.359   6.426   2.008  1.3175 -1.0787  0.6745
   35MOL0     H 4826  -0.742   6.312   1.928 -1.5571 -0.5236  0.9836
   35MOL0     H 4827  -0.112   6.679   2.396  1.5079  0.5462  0.3076
   35MOL0     H 4828   0.164   6.734   2.580 -1.6000 -0.8724  0.5880
   35MOL0     H 4829   0.230   6.734   2.415 -0.0638 -1.3655  1.5898
   35MOL0     H 4830   0.069   6.807   2.447  0.8743  0.2675 -0.7067
   36MOL0     O 4831  11.174   4.445   5.519 -0.1348 -0.6102  0.1608
   36MOL0     C 4832  11.183   4.515   5.418  0.2641 -0.4366 -0.0682
   36MOL0     O 4833  11.291   4.524   5.337  0.0175  0.0878 -0.2612
   36MOL0     C 4834  11.388   4.426   5.355 -0.2703 -0.1149  0.3798
   36MOL0     C 4835  11.459   4.426   5.473  0.4021  0.5147  0.3518
   36MOL0     C 4836  11.557   4.327   5.497 -0.3293 -0.6508  0.5924
   36MOL0     C 4837  11.586   4.223   5.410 -0.2763  0.2252 -0.7598
   36MOL0     O 4838  11.693   4.136   5.430 -0.2820  0.6788  0.2000
   36MOL0     C 4839  11.751   4.078   5.310 -0.8741  0.4294 -0.2706
   36MOL0     C 4840  11.894   4.020   5.327  0.3219 -0.2725 -0.3281
   36MOL0     C 4841  11.875   3.887   5.406 -0.2446  0.4378 -0.5982
   36MOL0     C 4842  12.006   3.843   5.471  0.2028  0.1044 -0.7030
   36MOL0     C 4843  12.108   3.771   5.385 -0.4233 -0.5683  0.0632
   36MOL0     C 4844  12.229   3.709   5.465 -0.3199 -0.1890  0.4217
   36MOL0     C 4845  12.363   3.754   5.393  0.6203  0.7084 -0.2278
   36MOL0     C 4846  12.475   3.663   5.435  0.3180  0.5582  0.0993
   36MOL0     N 4847  12.602   3.715   5.396 -0.1780  0.1885 -0.1490
   36MOL0     C 4848  12.660   3.681   5.276 -0.3738  0.3901  0.5176
   36MOL0     C 4849  12.769   3.760   5.269 -0.2373 -0.3150  0.2086
   36MOL0     C 4850  12.871   3.778   5.159 -0.1495  0.1107 -0.0262
   36MOL0     C 4851  12.832   3.894   5.065 -0.1983 -1.0861 -1.1051
   36MOL0     C 4852  12.850   4.032   5.123  0.2606  0.5488  0.0640
   36MOL0     C 4853  12.985   4.060   5.186  0.6070  0.4753 -0.6834
   36MOL0     O 4854  13.056   4.103   5.078  0.1901  0.2479 -0.4698
   36MOL0     C 4855  13.179   4.156   5.108 -0.1789  0.0808  0.8243
   36MOL0     C 4856  13.247   4.136   5.239  0.5094 -0.1555 -0.3583
   36MOL0     C 4857  13.374   4.186   5.266 -0.2587  0.8516 -0.0662
   36MOL0     C 4858  13.450   4.164   5.398 -0.2048  0.6467 -0.2303
   36MOL0     C 4859  13.438   4.256   5.158  0.5424  0.1466  0.0952
   36MOL0     C 4860  13.578   4.317   5.169 -0.5773  0.2346  0.5885
   36MOL0     O 4861  13.662   4.297   5.052  0.2994  0.5799  0.1661
   36MOL0     C 4862  13.787   4.355   5.059 -0.3171 -0.8329 -0.5483
   36MOL0     C 4863  13.798   4.496   5.045 -0.7319  0.2298 -0.3446
   36MOL0     C 4864  13.931   4.547   5.051 -0.2445  0.7983  0.8402
   36MOL0     C 4865  14.045   4.463   5.065  0.1622 -0.1326  0.2964
   36MOL0     O 4866  14.181   4.505   5.076 -0.3351  0.5967 -0.1068
   36MOL0     C 4867  14.228   4.610   4.992 -0.2879  0.3393  0.6867
   36MOL0     C 4868  14.355   4.558   4.924  0.0978 -0.1810  0.3230
   36MOL0     C 4869  14.397   4.665   4.828 -0.4851 -0.2378 -0.3966
   36MOL0     C 4870  14.493   4.605   4.725 -0.3126 -0.3571 -0.4919
   36MOL0     C 4871  14.566   4.715   4.644  0.4504  0.2633 -0.3187
   36MOL0     C 4872  14.633   4.661   4.519 -0.0706  0.1675 -0.4032
   36MOL0     C 4873  14.685   4.777   4.433 -0.8277  0.3232 -0.2606
   36MOL0     C 4874  14.759   4.704   4.322  0.1216 -1.0096 -0.1475
   36MOL0    Cl 4875  14.805   4.834   4.199  0.0571 -0.0734  0.1531
   36MOL0     C 4876  14.024   4.327   5.064 -0.7511 -0.4941  0.5784
   36MOL0     C 4877  13.899   4.276   5.059  0.0776  0.1104  0.0103
   36MOL0     O 4878  13.617   4.377   5.272  0.3064 -0.0801  0.0995
   36MOL0     C 4879  13.385   4.253   5.022  0.3385  0.3616  0.0656
   36MOL0     C 4880  13.253   4.203   4.997 -0.0341  0.2342 -0.9646
   36MOL0     N 4881  12.772   3.840   5.378 -0.9275 -0.7000 -0.2679
   36MOL0     N 4882  12.675   3.819   5.458  0.8796  0.2527  0.4732
   36MOL0     C 4883  11.515   4.229   5.281 -1.1094  0.1323  0.4450
   36MOL0     C 4884  11.425   4.333   5.255  0.9408  0.3900  0.1614
   36MOL0     C 4885  11.067   4.609   5.394 -0.5059 -0.0576 -0.2528
   36MOL0     C 4886  11.027   4.692   5.503  0.3961  0.6789  1.2037
   36MOL0     C 4887  10.901   4.758   5.477 -0.2906  0.0885  0.1407
   36MOL0     C 4888  10.834   4.749   5.350  0.2635  0.4254 -0.5802
   36MOL0     O 4889  10.721   4.817   5.351  0.0111 -0.1357  0.1449
   36MOL0     C 4890  10.718   4.915   5.240  0.3075 -0.7754 -0.9858
   36MOL0     C 4891  10.582   4.899   5.164  0.0907  0.0852 -0.2573
   36MOL0     C 4892  10.586   4.779   5.062 -0.5887 -0.0768  0.3602
   36MOL0     C 4893  10.472   4.765   4.972  0.5203  0.7370 -0.6885
   36MOL0     C 4894  10.355   4.763   5.054 -0.4491 -0.0632  0.1159
   36MOL0     C 4895  10.250   4.769   5.108 -0.6237  0.1352 -0.0337
   36MOL0     C 4896  10.889   4.681   5.247 -0.4262  0.3489  0.0446
   36MOL0     C 4897  11.015   4.623   5.265 -0.4975  0.0129  0.9867
   36MOL0     C 4898  11.078   4.541   5.151 -0.4400  0.5767 -0.6974
   36MOL0     H 4899  11.438   4.494   5.555  0.1500  0.7148  0.1254
   36MOL0     H 4900  11.617   4.334   5.587  0.3919  0.5934  0.0283
   36MOL0     H 4901  11.754   4.147   5.226 -1.5533 -1.2256 -1.7132
   36MOL0     H 4902  11.698   3.988   5.277  1.9922 -0.5271 -2.7128
   36MOL0     H 4903  11.950   4.003   5.235  0.1224  1.8024 -0.8794
   36MOL0     H 4904  11.944   4.089   5.396  1.9765 -2.7437  1.0843
   36MOL0     H 4905  11.795   3.897   5.480  0.7555  0.5588  0.4864
   36MOL0     H 4906  11.835   3.817   5.331 -0.0963  0.2119 -0.4689
   36MOL0     H 4907  12.049   3.925   5.530  1.5716 -2.1182  1.6041
   36MOL0     H 4908  11.966   3.770   5.542 -1.8602  2.2149  0.4373
   36MOL0     H 4909  12.138   3.842   5.307  1.3261  0.1267  1.2908
   36MOL0     H 4910  12.062   3.686   5.334 -3.4669  1.2602 -0.4770
   36MOL0     H 4911  12.234   3.751   5.566 -0.4306  2.2649 -0.5125
   36MOL0     H 4912  12.217   3.601   5.475 -0.7611 -0.2051 -0.2356
   36MOL0     H 4913  12.379   3.859   5.416 -1.0984  1.3486 -1.7159
   36MOL0     H 4914  12.356   3.737   5.285  2.8909  2.5327 -0.7291
   36MOL0     H 4915  12.488   3.660   5.543  2.8511 -0.0482 -0.1422
   36MOL0     H 4916  12.473   3.559   5.403  0.1007  0.4544  0.4549
   36MOL0     H 4917  12.620   3.614   5.200 -1.0523 -2.4588  3.1710
   36MOL0     H 4918  12.881   3.678   5.117 -1.1868 -0.4280  0.9549
   36MOL0     H 4919  12.965   3.794   5.211 -0.0427  0.3318 -0.2853
   36MOL0     H 4920  12.893   3.899   4.974 -0.5560 -0.1306 -1.3051
   36MOL0     H 4921  12.737   3.873   5.016 -0.0380 -1.3549 -1.3102
   36MOL0     H 4922  12.841   4.108   5.045  3.0914  0.6501 -0.2837
   36MOL0     H 4923  12.768   4.036   5.195  1.3855  2.0276  1.3276
   36MOL0     H 4924  12.981   4.140   5.261  2.4677  0.0244 -0.0514
   36MOL0     H 4925  13.010   3.974   5.248 -2.1885 -1.0703 -1.5220
   36MOL0     H 4926  13.206   4.063   5.309  0.6729 -0.6744 -0.8015
   36MOL0     H 4927  13.551   4.133   5.369 -0.6267  0.1785 -1.2457
   36MOL0     H 4928  13.419   4.077   5.457 -1.0626  0.2920 -1.1662
   36MOL0     H 4929  13.459   4.260   5.450  1.2111  0.9173 -0.9144
   36MOL0     H 4930  13.710   4.559   5.035 -2.0450 -1.5977 -1.0887
   36MOL0     H 4931  13.956   4.652   5.046  1.8155  0.2805 -1.8982
   36MOL0     H 4932  14.157   4.632   4.911 -0.1469 -1.6452 -0.0274
   36MOL0     H 4933  14.241   4.703   5.048 -0.6748  2.0065 -1.8232
   36MOL0     H 4934  14.429   4.545   5.004 -1.0003  0.6479  1.5262
   36MOL0     H 4935  14.323   4.466   4.875 -0.4573  1.5715 -2.9020
   36MOL0     H 4936  14.446   4.745   4.884 -0.4070 -0.2758 -0.4107
   36MOL0     H 4937  14.319   4.700   4.759 -0.0652 -0.9376 -1.2533
   36MOL0     H 4938  14.443   4.527   4.668 -1.1588  0.0391 -0.3122
   36MOL0     H 4939  14.570   4.557   4.786 -0.2307 -0.5494 -0.7506
   36MOL0     H 4940  14.484   4.783   4.619  2.3687  2.3187 -1.3165
   36MOL0     H 4941  14.639   4.767   4.707 -0.5538 -0.5432  1.6016
   36MOL0     H 4942  14.564   4.593   4.469 -3.1551  0.6310  2.8802
   36MOL0     H 4943  14.718   4.601   4.554 -1.5739 -0.9503  1.5029
   36MOL0     H 4944  14.742   4.845   4.497  1.0011 -1.0575 -0.3225
   36MOL0     H 4945  14.598   4.839   4.413  1.4373  4.2156  0.8455
   36MOL0     H 4946  14.691   4.630   4.279 -2.0627  0.0115  1.3252
   36MOL0     H 4947  14.845   4.649   4.361  0.8452  0.3484  0.2814
   36MOL0     H 4948  14.110   4.261   5.058 -1.1464 -0.8799 -1.8622
   36MOL0     H 4949  13.894   4.168   5.055  1.1544  0.0218  0.6523
   36MOL0     H 4950  13.441   4.298   4.940  0.5074  2.5735  1.3393
   36MOL0     H 4951  13.204   4.212   4.901 -2.7112  0.4157  0.3375
   36MOL0     H 4952  11.546   4.165   5.199 -1.3663 -0.4413  0.7882
   36MOL0     H 4953  11.376   4.345   5.159 -0.9216  2.8118  1.3064
   36MOL0     H 4954  11.065   4.707   5.603  0.7811 -1.6612  1.4579
   36MOL0     H 4955  10.858   4.815   5.559  1.1790 -1.3199  2.0033
   36MOL0     H 4956  10.726   5.017   5.280  0.3588 -1.9370  2.2747
   36MOL0     H 4957  10.798   4.901   5.167  0.8778  0.2311 -0.5728
   36MOL0     H 4958  10.565   4.989   5.104  2.0849  1.7878  1.5591
   36MOL0     H 4959  10.504   4.882   5.238 -1.2203  1.9844 -1.1144
   36MOL0     H 4960  10.672   4.795   4.997 -1.8918 -0.6510 -1.5732
   36MOL0     H 4961  10.599   4.681   5.110 -1.9104  0.2312  1.4149
   36MOL0     H 4962  10.468   4.666   4.926 -1.4261  0.6294 -0.3428
   36MOL0     H 4963  10.461   4.840   4.893  1.2991  0.8822 -0.6714
   36MOL0     H 4964  10.148   4.776   5.139 -0.7905  0.2128 -0.5926
   36MOL0     H 4965  10.842   4.677   5.149  0.2698 -1.6773 -0.2430
   36MOL0     H 4966  11.179   4.577   5.126  1.7240 -2.5197  2.4602
   36MOL0     H 4967  11.069   4.433   5.163 -0.5852  0.6207 -0.3924
   36MOL0     H 4968  11.009   4.565   5.070 -3.1529  2.2936  1.9025
   37MOL0     O 4969   0.757   0.085   4.396  0.2367 -0.5944 -0.1079
   37MOL0     C 4970   0.746   0.157   4.301  0.6006 -0.3688  0.6996
   37MOL0     O 4971   0.839   0.206   4.223 -0.6592  0.1431  0.0369
   37MOL0     C 4972   0.974   0.200   4.262  0.3858  0.2047  0.2220
   37MOL0     C 4973   1.011   0.208   4.401 -0.3672  0.4070 -0.9875
   37MOL0     C 4974   1.144   0.206   4.440  0.7529 -0.0521  0.0570
   37MOL0     C 4975   1.247   0.198   4.341  0.0262  0.8671 -0.3273
   37MOL0     O 4976   1.378   0.210   4.364 -0.6447 -0.1089  0.2908
   37MOL0     C 4977   1.411   0.315   4.459 -0.7370 -0.1392 -0.8638
   37MOL0     C 4978   1.563   0.353   4.450  0.3613  0.1566 -0.1744
   37MOL0     C 4979   1.599   0.390   4.305 -0.0636  0.1819  0.2555
   37MOL0     C 4980   1.727   0.465   4.295 -0.0902 -0.1013  0.8845
   37MOL0     C 4981   1.781   0.484   4.148  0.4977 -0.1980 -0.0028
   37MOL0     C 4982   1.911   0.566   4.150 -0.9772 -0.1606  0.4083
   37MOL0     C 4983   1.911   0.699   4.224 -0.6133 -0.6755  0.6319
   37MOL0     C 4984   2.014   0.798   4.153  0.8719 -1.4118  0.0649
   37MOL0     N 4985   2.145   0.790   4.195 -0.9393 -0.1023  0.5410
   37MOL0     C 4986   2.235   0.686   4.172 -0.5822  1.3321  0.0772
   37MOL0     C 4987   2.336   0.702   4.267 -0.6649 -0.1747  0.4101
   37MOL0     C 4988   2.454   0.610   4.292  1.2770  0.1206  0.4004
   37MOL0     C 4989   2.488   0.622   4.447 -0.7719  0.4576  0.4060
   37MOL0     C 4990   2.574   0.502   4.487  0.3145 -0.5305  0.0238
   37MOL0     C 4991   2.578   0.490   4.639 -0.4982  0.0016 -0.0040
   37MOL0     O 4992   2.639   0.600   4.709  0.2294  0.2133  0.0774
   37MOL0     C 4993   2.775   0.612   4.713  0.0875 -0.7124 -0.1676
   37MOL0     C 4994   2.825   0.721   4.785  0.1574  0.0103 -0.1792
   37MOL0     C 4995   2.961   0.747   4.793  0.2941 -0.2271 -0.5269
   37MOL0     C 4996   2.995   0.877   4.863 -0.1968  0.1709  0.1251
   37MOL0     C 4997   3.052   0.649   4.747 -0.2645  0.0534  0.4295
   37MOL0     C 4998   3.206   0.664   4.770 -0.5930  0.2881 -0.2947
   37MOL0     O 4999   3.251   0.779   4.833 -0.5998  0.5479 -0.3724
   37MOL0     C 5000   3.382   0.784   4.870 -0.6282  0.8371 -0.0465
   37MOL0     C 5001   3.426   0.733   4.991  0.1773 -0.2336 -0.3092
   37MOL0     C 5002   3.567   0.749   5.010 -0.7355  0.2433  0.2607
   37MOL0     C 5003   3.649   0.827   4.923 -0.5410 -0.0222 -0.4172
   37MOL0     O 5004   3.783   0.835   4.962 -0.6892  0.0947 -0.0283
   37MOL0     C 5005   3.874   0.881   4.861  0.0102 -0.7985  0.0429
   37MOL0     C 5006   4.003   0.802   4.867  0.2995  0.2775  1.2664
   37MOL0     C 5007   4.102   0.854   4.961  0.0202 -0.2263  0.3467
   37MOL0     C 5008   4.233   0.774   4.966  0.3347 -0.5555  0.7436
   37MOL0     C 5009   4.335   0.843   5.054  0.7259 -1.1347 -0.2724
   37MOL0     C 5010   4.469   0.782   5.064 -1.3350 -0.5090 -0.9207
   37MOL0     C 5011   4.534   0.835   5.188  0.1705  0.0070 -0.5490
   37MOL0     C 5012   4.647   0.752   5.232 -0.1057  0.4693 -0.2100
   37MOL0    Cl 5013   4.779   0.754   5.118 -0.4041  0.4029  0.5254
   37MOL0     C 5014   3.588   0.895   4.814  0.6725 -0.0015  0.6792
   37MOL0     C 5015   3.458   0.863   4.786  0.1217 -0.4131  0.4107
   37MOL0     O 5016   3.278   0.572   4.717  0.1485 -0.6166  0.2301
   37MOL0     C 5017   2.999   0.536   4.677  0.7258  0.2399  0.5284
   37MOL0     C 5018   2.860   0.522   4.651 -0.5296 -0.3035 -0.1665
   37MOL0     N 5019   2.316   0.822   4.328 -0.2168 -0.2200  0.4134
   37MOL0     N 5020   2.213   0.881   4.282 -0.4053  0.6647  0.9589
   37MOL0     C 5021   1.207   0.192   4.206 -0.2214  0.2319 -0.0275
   37MOL0     C 5022   1.073   0.192   4.164  0.2565  0.6736 -0.1309
   37MOL0     C 5023   0.607   0.176   4.242  0.3017 -1.6542 -0.3856
   37MOL0     C 5024   0.583   0.280   4.150 -0.3571 -0.8935 -0.2404
   37MOL0     C 5025   0.460   0.305   4.086  0.1009  0.9577 -0.0120
   37MOL0     C 5026   0.352   0.226   4.118 -0.8386 -0.0607  0.0598
   37MOL0     O 5027   0.215   0.253   4.078  0.0306 -0.5812 -0.2014
   37MOL0     C 5028   0.191   0.296   3.944 -0.0111 -0.2995  0.3868
   37MOL0     C 5029   0.031   0.299   3.926  0.1588 -0.0230 -0.8907
   37MOL0     C 5030  -0.034   0.433   3.967 -1.0440 -0.3297  0.2489
   37MOL0     C 5031  -0.179   0.432   3.930 -0.4812  0.8656 -0.1061
   37MOL0     C 5032  -0.259   0.342   4.014 -0.5546  1.4586  0.2744
   37MOL0     C 5033  -0.331   0.269   4.072 -0.5140 -0.6670  0.4704
   37MOL0     C 5034   0.365   0.129   4.223  0.7362 -0.2032 -0.4141
   37MOL0     C 5035   0.492   0.101   4.284  0.1885  0.4777  0.3381
   37MOL0     C 5036   0.500  -0.019   4.377  0.0026 -0.6766 -0.5178
   37MOL0     H 5037   0.926   0.227   4.466 -1.4841  0.2586 -2.3384
   37MOL0     H 5038   1.162   0.240   4.541  1.0920  1.3956 -0.4590
   37MOL0     H 5039   1.405   0.288   4.565  3.7928  1.6608  0.0722
   37MOL0     H 5040   1.341   0.395   4.437 -1.1011 -0.2658 -0.2072
   37MOL0     H 5041   1.576   0.447   4.505  1.7456  0.6205 -1.2309
   37MOL0     H 5042   1.638   0.284   4.489  2.2973  2.3229  0.1524
   37MOL0     H 5043   1.627   0.298   4.253  1.6968  0.3565  0.8478
   37MOL0     H 5044   1.523   0.444   4.248 -0.5965  2.3578  2.8079
   37MOL0     H 5045   1.717   0.564   4.340 -1.9307  1.2771 -2.2645
   37MOL0     H 5046   1.803   0.404   4.345  1.4057  1.2352  0.3145
   37MOL0     H 5047   1.705   0.544   4.097  0.3242  0.4835  1.0370
   37MOL0     H 5048   1.789   0.384   4.105 -1.9777 -0.7469  0.6618
   37MOL0     H 5049   1.995   0.502   4.178 -0.1659  0.5646 -0.3365
   37MOL0     H 5050   1.936   0.579   4.044 -0.6405 -0.2416  0.4754
   37MOL0     H 5051   1.960   0.686   4.321  1.0081 -0.5055 -0.1467
   37MOL0     H 5052   1.810   0.742   4.231 -1.1570 -1.2458 -2.5074
   37MOL0     H 5053   2.017   0.785   4.044  2.4891  1.5656 -0.3341
   37MOL0     H 5054   1.990   0.902   4.176  3.2234 -0.9755  0.7486
   37MOL0     H 5055   2.219   0.605   4.102 -1.8531 -1.6746  3.5437
   37MOL0     H 5056   2.538   0.641   4.229  0.9072 -0.9191 -0.6299
   37MOL0     H 5057   2.413   0.514   4.261  1.5894  0.5290 -1.3840
   37MOL0     H 5058   2.555   0.708   4.462  2.1946 -0.8540 -3.5251
   37MOL0     H 5059   2.398   0.632   4.508  0.5130  2.2443  2.1298
   37MOL0     H 5060   2.520   0.412   4.455 -0.6797  0.5763 -1.5574
   37MOL0     H 5061   2.675   0.511   4.446  0.2163  0.4947 -0.0159
   37MOL0     H 5062   2.481   0.471   4.684 -1.4938 -1.3945 -2.5592
   37MOL0     H 5063   2.641   0.402   4.650 -0.9111 -0.4527 -1.1425
   37MOL0     H 5064   2.751   0.784   4.833 -1.1643  1.0127 -3.3412
   37MOL0     H 5065   3.050   0.866   4.957  0.9757 -1.9354 -0.7618
   37MOL0     H 5066   2.911   0.938   4.898 -0.0607  1.1329 -1.1731
   37MOL0     H 5067   3.061   0.936   4.799  2.4186 -0.3128  2.1642
   37MOL0     H 5068   3.358   0.684   5.059  0.3425  0.3463  0.2832
   37MOL0     H 5069   3.609   0.696   5.095  0.0505  1.0479  0.3847
   37MOL0     H 5070   3.837   0.873   4.758 -0.1076 -0.3442  0.0480
   37MOL0     H 5071   3.907   0.984   4.873  2.0285 -1.4554  0.4558
   37MOL0     H 5072   3.969   0.700   4.890 -2.1309  0.2284 -1.8708
   37MOL0     H 5073   4.053   0.806   4.770  1.3239  3.1070  1.8130
   37MOL0     H 5074   4.064   0.854   5.064  2.1889 -0.1149  1.2022
   37MOL0     H 5075   4.123   0.957   4.928  0.4431  0.2163  1.9050
   37MOL0     H 5076   4.281   0.764   4.868  0.6843  1.4073  0.6740
   37MOL0     H 5077   4.199   0.679   5.008 -2.3656 -0.3023 -0.5972
   37MOL0     H 5078   4.348   0.947   5.022  0.9090 -1.0286  0.1288
   37MOL0     H 5079   4.291   0.860   5.153  2.2473  1.0615  0.0916
   37MOL0     H 5080   4.526   0.809   4.974  3.2212  0.7920  2.0111
   37MOL0     H 5081   4.467   0.674   5.081  2.3623 -0.4788  0.6117
   37MOL0     H 5082   4.460   0.838   5.269  0.8401 -3.7139  0.3901
   37MOL0     H 5083   4.573   0.936   5.171 -1.2146  0.4039 -1.5531
   37MOL0     H 5084   4.613   0.649   5.250 -2.2706  1.4015  1.4996
   37MOL0     H 5085   4.679   0.784   5.331 -1.8864 -0.9090  0.8669
   37MOL0     H 5086   3.645   0.959   4.748 -1.6571  0.5495 -0.9239
   37MOL0     H 5087   3.403   0.909   4.704 -0.1563 -2.5787 -0.6984
   37MOL0     H 5088   3.060   0.456   4.637 -0.3085 -0.6048  0.5927
   37MOL0     H 5089   2.827   0.438   4.591 -1.8476  0.6353 -0.8081
   37MOL0     H 5090   1.285   0.192   4.131  0.0729  1.0941  0.2623
   37MOL0     H 5091   1.049   0.171   4.060 -2.0847  1.1562  0.2592
   37MOL0     H 5092   0.672   0.336   4.123  0.0435 -0.3092  2.0897
   37MOL0     H 5093   0.441   0.383   4.014  0.4261 -0.0743 -1.2409
   37MOL0     H 5094   0.237   0.394   3.928  0.3027 -0.6485 -1.0044
   37MOL0     H 5095   0.237   0.239   3.862 -2.0031  0.9822 -1.7597
   37MOL0     H 5096  -0.017   0.221   3.985 -1.5601 -0.9198 -3.3273
   37MOL0     H 5097   0.012   0.284   3.819 -0.6372 -0.9428 -0.6301
   37MOL0     H 5098  -0.017   0.451   4.073 -0.5096  2.3295 -0.2252
   37MOL0     H 5099   0.008   0.520   3.916 -1.0872 -0.1370  0.5419
   37MOL0     H 5100  -0.193   0.394   3.828  0.6278  0.5585 -0.1563
   37MOL0     H 5101  -0.218   0.534   3.931  0.9640  1.4323  0.0492
   37MOL0     H 5102  -0.409   0.220   4.126 -0.8645 -0.2226  0.3738
   37MOL0     H 5103   0.279   0.068   4.248  2.5234 -1.9790  1.8212
   37MOL0     H 5104   0.590  -0.080   4.368  0.9728  0.9260 -2.4437
   37MOL0     H 5105   0.485   0.028   4.475  1.4211  1.8311 -1.3920
   37MOL0     H 5106   0.425  -0.093   4.348  0.1479  0.3445 -3.8895
   38MOL0     O 5107   8.250   4.733   3.216  0.9083  0.0767  0.2208
   38MOL0     C 5108   8.255   4.678   3.327  0.0361 -0.4244 -0.3898
   38MOL0     O 5109   8.370   4.661   3.393 -0.0939 -0.3501  0.3116
   38MOL0     C 5110   8.495   4.687   3.328  0.9171 -0.0176 -1.0271
   38MOL0     C 5111   8.555   4.813   3.339 -0.2561 -0.6148  0.4316
   38MOL0     C 5112   8.662   4.846   3.256  0.0021  0.9688  0.1670
   38MOL0     C 5113   8.715   4.751   3.168  0.1923 -1.6944 -0.3938
   38MOL0     O 5114   8.820   4.790   3.089 -0.0536  0.2288  0.0214
   38MOL0     C 5115   8.899   4.697   3.024  0.0657 -0.5840 -0.4853
   38MOL0     C 5116   9.034   4.756   2.999 -0.5301 -0.5915  0.2673
   38MOL0     C 5117   9.023   4.854   2.878 -0.8992  0.8761  0.2275
   38MOL0     C 5118   8.978   4.997   2.933 -0.2367  0.5708 -0.1289
   38MOL0     C 5119   8.979   5.104   2.835  0.5955 -0.6847  0.0995
   38MOL0     C 5120   9.124   5.144   2.784  1.0354  0.5104 -0.3344
   38MOL0     C 5121   9.115   5.275   2.712  0.0222  0.3686 -0.2122
   38MOL0     C 5122   9.251   5.315   2.643 -0.4622  0.5128 -0.2205
   38MOL0     N 5123   9.223   5.435   2.560 -0.0808  0.3750  0.1971
   38MOL0     C 5124   9.205   5.419   2.421  0.1429  0.1940  0.1318
   38MOL0     C 5125   9.214   5.549   2.382  0.9162 -0.1418 -0.6661
   38MOL0     C 5126   9.209   5.593   2.238  0.5510 -0.3409 -0.1767
   38MOL0     C 5127   9.343   5.544   2.178 -1.0056 -0.1866 -0.0817
   38MOL0     C 5128   9.354   5.557   2.023  0.2011 -0.1319 -0.5538
   38MOL0     C 5129   9.499   5.542   1.996 -0.1297  0.0816  0.0936
   38MOL0     O 5130   9.572   5.438   2.057  0.0416 -0.0016  0.0889
   38MOL0     C 5131   9.711   5.444   2.046 -1.3241  0.8296  0.0715
   38MOL0     C 5132   9.775   5.448   1.923 -0.1804  0.4000  0.2370
   38MOL0     C 5133   9.916   5.436   1.904 -0.3754 -0.1327  0.5576
   38MOL0     C 5134   9.972   5.457   1.775  0.3854  0.4065 -0.0146
   38MOL0     C 5135   9.991   5.409   2.021 -0.4261  0.8447  0.6406
   38MOL0     C 5136  10.135   5.370   2.015 -0.2197 -0.6889 -0.2010
   38MOL0     O 5137  10.176   5.304   2.130 -0.6675  0.0791 -0.2180
   38MOL0     C 5138  10.302   5.258   2.121 -0.7335 -0.3518 -1.0457
   38MOL0     C 5139  10.324   5.141   2.063  0.1388  0.0087 -0.3041
   38MOL0     C 5140  10.454   5.103   2.037  0.6095  0.1036  0.6004
   38MOL0     C 5141  10.559   5.198   2.076  0.4156  0.6233  0.0021
   38MOL0     O 5142  10.687   5.142   2.065  0.1236  0.3901  0.0355
   38MOL0     C 5143  10.794   5.239   2.054  0.0861  0.3102 -0.8492
   38MOL0     C 5144  10.923   5.150   2.013 -0.1829  0.0435  0.0771
   38MOL0     C 5145  11.041   5.242   1.965 -0.0748 -0.3712  0.4177
   38MOL0     C 5146  11.161   5.148   1.925  0.2074  0.7938 -1.0668
   38MOL0     C 5147  11.273   5.231   1.858  0.1541  0.2266  0.4045
   38MOL0     C 5148  11.396   5.140   1.852  0.1946 -0.7925 -0.4601
   38MOL0     C 5149  11.501   5.189   1.752 -1.2148 -0.1471  0.4987
   38MOL0     C 5150  11.641   5.160   1.808 -0.8377  0.5962  0.0738
   38MOL0    Cl 5151  11.666   4.982   1.837 -0.5717 -0.1087  0.5138
   38MOL0     C 5152  10.529   5.319   2.130  0.0463  0.5007 -0.8044
   38MOL0     C 5153  10.401   5.349   2.162  0.0219 -0.1461  0.0549
   38MOL0     O 5154  10.203   5.391   1.909 -0.2512  1.0188 -0.8448
   38MOL0     C 5155   9.926   5.406   2.144 -0.1540  0.5258  0.3517
   38MOL0     C 5156   9.789   5.414   2.156 -0.4687 -0.1506 -0.0255
   38MOL0     N 5157   9.227   5.635   2.492 -0.5417 -0.6728  0.8777
   38MOL0     N 5158   9.228   5.570   2.595 -1.1450  0.1413  0.2214
   38MOL0     C 5159   8.671   4.622   3.170  0.5190 -0.0842  0.1425
   38MOL0     C 5160   8.564   4.590   3.252  0.5316 -0.3362  0.2450
   38MOL0     C 5161   8.134   4.652   3.406  0.0548  0.2104 -0.5624
   38MOL0     C 5162   8.013   4.708   3.367 -0.1315 -0.3708  0.8678
   38MOL0     C 5163   7.888   4.678   3.414  0.1345 -0.3013 -0.1490
   38MOL0     C 5164   7.877   4.597   3.528 -0.3085  0.1528 -0.0192
   38MOL0     O 5165   7.761   4.574   3.603  0.3190 -0.1132  0.0523
   38MOL0     C 5166   7.650   4.634   3.536  0.5494  0.4799  0.7632
   38MOL0     C 5167   7.528   4.623   3.631  0.7107 -0.2479 -0.3575
   38MOL0     C 5168   7.405   4.670   3.554  0.4850 -0.6657 -0.0680
   38MOL0     C 5169   7.271   4.605   3.600  1.2099 -0.0667  0.0557
   38MOL0     C 5170   7.261   4.595   3.742 -0.3596 -0.6134  0.5273
   38MOL0     C 5171   7.243   4.584   3.865  0.3904 -0.6506 -0.2915
   38MOL0     C 5172   7.995   4.542   3.577  0.5294  0.9923  0.1174
   38MOL0     C 5173   8.118   4.555   3.505  0.4838  0.9293 -0.3202
   38MOL0     C 5174   8.223   4.458   3.547  0.5795  0.5590 -0.0146
   38MOL0     H 5175   8.531   4.881   3.420  4.7455  0.0505  1.6991
   38MOL0     H 5176   8.715   4.941   3.249  0.3044  0.7085 -2.0391
   38MOL0     H 5177   8.861   4.660   2.929  2.8174 -1.4492 -1.3540
   38MOL0     H 5178   8.920   4.609   3.085  3.4345 -0.8205 -1.7457
   38MOL0     H 5179   9.076   4.802   3.089 -3.2292 -0.0464  1.3542
   38MOL0     H 5180   9.109   4.683   2.966  1.1188  1.2383 -0.2436
   38MOL0     H 5181   9.124   4.882   2.847  0.1086 -1.9461  0.6822
   38MOL0     H 5182   8.963   4.819   2.793  3.6016 -4.3332 -1.3706
   38MOL0     H 5183   8.872   4.989   2.962 -0.5131  1.8036 -0.7358
   38MOL0     H 5184   9.040   5.019   3.020 -1.7291  2.7876  0.4386
   38MOL0     H 5185   8.928   5.193   2.875  1.9985 -0.3071  1.1266
   38MOL0     H 5186   8.923   5.075   2.746 -2.3171 -1.1726  1.9558
   38MOL0     H 5187   9.184   5.165   2.873  0.8036 -1.3022  0.2880
   38MOL0     H 5188   9.161   5.064   2.719 -1.7317 -0.4142 -0.9135
   38MOL0     H 5189   9.100   5.354   2.786  0.8612  0.4199 -0.0867
   38MOL0     H 5190   9.039   5.258   2.635 -0.3337 -2.1533  0.5970
   38MOL0     H 5191   9.327   5.350   2.713  0.5474  2.0030 -1.9911
   38MOL0     H 5192   9.296   5.236   2.582 -1.2280  1.0062 -1.4444
   38MOL0     H 5193   9.173   5.333   2.364  1.6612 -0.1876 -0.1847
   38MOL0     H 5194   9.197   5.701   2.225 -2.4080 -0.7837 -2.0084
   38MOL0     H 5195   9.127   5.543   2.185  1.3447 -1.0362 -0.7569
   38MOL0     H 5196   9.428   5.595   2.223  0.4831 -2.2289 -0.4642
   38MOL0     H 5197   9.365   5.446   2.220 -1.7223 -0.3449 -0.0540
   38MOL0     H 5198   9.297   5.478   1.974 -4.0570  3.1757 -1.5174
   38MOL0     H 5199   9.330   5.656   1.983  2.8293  0.2924 -1.2875
   38MOL0     H 5200   9.513   5.519   1.890  1.2663  0.1451  0.2415
   38MOL0     H 5201   9.547   5.641   2.005  0.5960 -0.2396 -0.1715
   38MOL0     H 5202   9.718   5.470   1.834 -0.2255 -0.9191 -0.0770
   38MOL0     H 5203  10.060   5.522   1.776  0.7318 -0.0601  1.0214
   38MOL0     H 5204   9.892   5.499   1.714 -0.0552  1.5994  1.3248
   38MOL0     H 5205   9.988   5.357   1.734 -0.2356 -0.4726  1.7738
   38MOL0     H 5206  10.247   5.073   2.027  1.7627  0.4256 -5.3903
   38MOL0     H 5207  10.479   5.005   1.997  1.2782  1.0090 -1.3217
   38MOL0     H 5208  10.773   5.309   1.972  1.9933 -0.6532 -2.2340
   38MOL0     H 5209  10.818   5.301   2.141  3.1286 -1.0372 -0.6060
   38MOL0     H 5210  10.956   5.090   2.098  1.9684  0.5345 -0.3435
   38MOL0     H 5211  10.888   5.075   1.942 -1.7152 -1.2594  2.1240
   38MOL0     H 5212  11.071   5.312   2.043  1.2232  2.0565 -2.0785
   38MOL0     H 5213  11.005   5.296   1.876 -1.8219 -2.6742 -0.3893
   38MOL0     H 5214  11.135   5.067   1.857  1.8049 -0.5077 -0.1877
   38MOL0     H 5215  11.199   5.111   2.020 -0.2255  0.1613 -1.1348
   38MOL0     H 5216  11.242   5.253   1.756 -0.7074 -1.2548  0.3155
   38MOL0     H 5217  11.288   5.329   1.904  1.4556  0.6811 -0.9267
   38MOL0     H 5218  11.369   5.043   1.808  1.3297 -0.5370 -1.8047
   38MOL0     H 5219  11.437   5.123   1.951 -0.3025 -3.5861 -0.6376
   38MOL0     H 5220  11.507   5.298   1.743 -2.4356 -0.0836  0.2414
   38MOL0     H 5221  11.483   5.150   1.652 -3.1783 -0.1640  0.8233
   38MOL0     H 5222  11.651   5.218   1.901 -1.9866 -2.4498  2.2500
   38MOL0     H 5223  11.718   5.179   1.733  1.7196  0.5394  2.4961
   38MOL0     H 5224  10.607   5.388   2.160  0.4800  0.1201 -1.0425
   38MOL0     H 5225  10.378   5.430   2.231  1.5651  2.0408 -1.8266
   38MOL0     H 5226   9.985   5.398   2.235  1.1377 -0.3981 -0.5366
   38MOL0     H 5227   9.737   5.406   2.251 -4.0038 -1.5089 -1.8852
   38MOL0     H 5228   8.717   4.557   3.096  0.6970  0.5493 -0.3100
   38MOL0     H 5229   8.516   4.494   3.262  1.2650 -0.7905 -0.4653
   38MOL0     H 5230   8.015   4.774   3.281 -0.4261 -3.5722 -1.8545
   38MOL0     H 5231   7.801   4.708   3.357 -0.6159  0.1038  1.1695
   38MOL0     H 5232   7.673   4.741   3.530 -0.0889  0.5708 -0.5652
   38MOL0     H 5233   7.620   4.589   3.441  0.9253  1.5526  0.1176
   38MOL0     H 5234   7.547   4.685   3.720 -0.0751  0.5560 -0.7324
   38MOL0     H 5235   7.517   4.522   3.671  0.3225  0.1349  0.5451
   38MOL0     H 5236   7.408   4.777   3.575 -0.1766 -0.2644 -1.8422
   38MOL0     H 5237   7.404   4.665   3.445 -0.3173 -0.5387 -0.0713
   38MOL0     H 5238   7.268   4.503   3.560  2.8342 -0.7998  1.6629
   38MOL0     H 5239   7.184   4.654   3.555  1.8708 -0.3681 -1.6445
   38MOL0     H 5240   7.213   4.577   3.968  3.3418  0.3151  0.7391
   38MOL0     H 5241   7.999   4.489   3.672  2.1964  0.6110 -0.1261
   38MOL0     H 5242   8.309   4.457   3.479  0.9106  0.3048  0.3997
   38MOL0     H 5243   8.265   4.479   3.646  1.4781  0.3198 -0.3294
   38MOL0     H 5244   8.177   4.359   3.548  3.6818 -0.9915 -0.0797
   39MOL0     O 5245   3.450  10.792   9.565 -0.3035  0.6550 -0.2062
   39MOL0     C 5246   3.393  10.874   9.489 -0.4233  0.3880 -0.6072
   39MOL0     O 5247   3.444  10.998   9.468 -0.1799  0.0111 -0.2045
   39MOL0     C 5248   3.573  11.037   9.456  0.7769  0.4824  0.7560
   39MOL0     C 5249   3.596  11.172   9.439 -0.0355 -0.3569 -0.1303
   39MOL0     C 5250   3.722  11.223   9.422  0.1604  0.5684  0.7344
   39MOL0     C 5251   3.840  11.133   9.422  1.2365 -0.3829 -0.4090
   39MOL0     O 5252   3.964  11.178   9.409  0.3130 -0.1697  0.2531
   39MOL0     C 5253   4.058  11.131   9.499 -0.1881  0.2504 -0.0516
   39MOL0     C 5254   4.179  11.223   9.527  0.0968  0.6239 -0.0861
   39MOL0     C 5255   4.293  11.197   9.420  0.4707  1.0082 -0.0109
   39MOL0     C 5256   4.417  11.278   9.449 -0.5350  0.0547  0.2129
   39MOL0     C 5257   4.524  11.242   9.343  0.3524 -0.8429  0.0880
   39MOL0     C 5258   4.661  11.297   9.375  0.0617 -0.1592 -0.7038
   39MOL0     C 5259   4.756  11.232   9.277 -0.0391 -0.7502  0.0464
   39MOL0     C 5260   4.893  11.303   9.290  0.5107  0.7124 -0.5141
   39MOL0     N 5261   4.943  11.282   9.434 -0.1313  0.0255  0.1602
   39MOL0     C 5262   5.011  11.379   9.497  0.9091  0.3223 -0.2701
   39MOL0     C 5263   5.028  11.322   9.619  0.4961  0.0262 -0.2023
   39MOL0     C 5264   5.097  11.389   9.737 -0.5748 -0.6151  0.5029
   39MOL0     C 5265   5.246  11.401   9.724  0.2725 -0.0277 -0.9457
   39MOL0     C 5266   5.322  11.451   9.856  0.4382 -0.1364 -0.2615
   39MOL0     C 5267   5.469  11.480   9.825  0.0531 -0.0029 -0.3397
   39MOL0     O 5268   5.537  11.520   9.944  0.6699 -0.2986  0.0504
   39MOL0     C 5269   5.670  11.528   9.932 -0.1352  0.4002 -0.1930
   39MOL0     C 5270   5.762  11.452   9.868  0.6682  0.1871 -0.1161
   39MOL0     C 5271   5.899  11.484   9.870  0.2458  0.3350  0.0613
   39MOL0     C 5272   5.994  11.398   9.785  0.3184 -0.5291  0.3836
   39MOL0     C 5273   5.946  11.595   9.944 -0.0999 -1.2949  0.3128
   39MOL0     C 5274   6.093  11.643   9.949 -0.3736 -0.6882  0.2676
   39MOL0     O 5275   6.127  11.725  10.056 -0.2788  0.0075  0.6977
   39MOL0     C 5276   6.255  11.770  10.064  0.0770 -0.2342 -0.2342
   39MOL0     C 5277   6.369  11.685  10.066 -0.8351 -0.5545  0.2840
   39MOL0     C 5278   6.498  11.741  10.078 -0.7091  0.0268 -0.7098
   39MOL0     C 5279   6.512  11.880  10.112  0.2542 -0.3289  0.9393
   39MOL0     O 5280   6.620  11.946  10.151  0.4905  0.0367  0.3663
   39MOL0     C 5281   6.735  11.931  10.063  0.4015  0.0192  0.2507
   39MOL0     C 5282   6.783  12.068  10.021 -0.7870 -0.1702  0.2579
   39MOL0     C 5283   6.817  12.165  10.140  0.1723  0.9889 -0.5797
   39MOL0     C 5284   6.912  12.124  10.244  0.2963  0.4487  0.2762
   39MOL0     C 5285   6.939  12.225  10.356  0.1292  0.2400 -0.4490
   39MOL0     C 5286   6.983  12.158  10.489  0.5369  0.4912  0.6251
   39MOL0     C 5287   6.968  12.267  10.594  0.0012 -0.1666  0.3587
   39MOL0     C 5288   6.959  12.210  10.737 -0.9475  0.1317 -0.0181
   39MOL0    Cl 5289   7.103  12.119  10.750  0.1202  0.0370 -0.2946
   39MOL0     C 5290   6.399  11.966  10.098  0.3510 -0.8910  1.0800
   39MOL0     C 5291   6.272  11.913  10.076 -0.4117  0.6800 -0.6136
   39MOL0     O 5292   6.172  11.609   9.857  0.4413 -0.3725 -0.2033
   39MOL0     C 5293   5.850  11.668  10.023  0.3858  0.7694 -0.4070
   39MOL0     C 5294   5.715  11.630  10.014  0.9381  0.0207  0.0662
   39MOL0     N 5295   4.975  11.193   9.627 -0.2172 -0.0363  0.3079
   39MOL0     N 5296   4.912  11.172   9.520  0.0019  0.3187 -0.5268
   39MOL0     C 5297   3.813  10.998   9.430  0.3058 -0.3420 -0.4466
   39MOL0     C 5298   3.684  10.953   9.445 -0.0884 -0.3741 -0.8914
   39MOL0     C 5299   3.253  10.858   9.432 -0.2492  0.5039 -0.3993
   39MOL0     C 5300   3.213  10.954   9.338  0.0627  0.6231 -0.9251
   39MOL0     C 5301   3.089  10.943   9.275 -1.2428  0.3004 -0.1177
   39MOL0     C 5302   2.994  10.849   9.319 -0.3625 -1.1041 -0.1115
   39MOL0     O 5303   2.868  10.872   9.259 -0.1982 -0.3088 -0.3530
   39MOL0     C 5304   2.765  10.779   9.298  1.2078 -0.2156  0.6987
   39MOL0     C 5305   2.636  10.804   9.220 -0.7005  0.0245  0.1477
   39MOL0     C 5306   2.648  10.734   9.077 -0.1199  0.1722 -0.3827
   39MOL0     C 5307   2.541  10.777   8.980 -0.2761 -0.1981 -0.1128
   39MOL0     C 5308   2.414  10.721   9.022 -0.4697  0.5041 -0.1341
   39MOL0     C 5309   2.315  10.669   9.086 -0.3262  0.3224 -0.3523
   39MOL0     C 5310   3.032  10.760   9.420  0.6460 -0.1740 -0.1906
   39MOL0     C 5311   3.159  10.762   9.478 -0.0519  0.2589  0.3678
   39MOL0     C 5312   3.194  10.674   9.596  0.3913  0.1706 -0.0675
   39MOL0     H 5313   3.513  11.242   9.439 -1.1558 -1.5248  2.7646
   39MOL0     H 5314   3.746  11.328   9.429  0.5477  0.5412 -0.0342
   39MOL0     H 5315   4.101  11.033   9.474  0.5043  0.0980  1.6319
   39MOL0     H 5316   4.003  11.127   9.594 -2.6357  1.7275 -1.3019
   39MOL0     H 5317   4.149  11.329   9.524  2.3744  1.3699  1.3453
   39MOL0     H 5318   4.226  11.198   9.622  4.0572  2.0198 -1.4568
   39MOL0     H 5319   4.329  11.095   9.438 -2.3988 -0.1636 -0.3354
   39MOL0     H 5320   4.259  11.215   9.318  1.8880 -1.5095 -1.0144
   39MOL0     H 5321   4.406  11.387   9.445  2.6977  0.5091  0.6065
   39MOL0     H 5322   4.466  11.263   9.546  0.4442 -0.5032 -0.3511
   39MOL0     H 5323   4.487  11.287   9.251 -1.0135 -1.0685  0.5080
   39MOL0     H 5324   4.527  11.133   9.335 -1.0451 -0.7759 -2.1379
   39MOL0     H 5325   4.661  11.405   9.353 -0.6282  0.8643  3.5829
   39MOL0     H 5326   4.681  11.272   9.479 -0.5652 -0.0279 -0.5493
   39MOL0     H 5327   4.714  11.259   9.180  2.1826 -0.6689 -0.9421
   39MOL0     H 5328   4.751  11.124   9.294 -0.8928 -0.6263  0.6371
   39MOL0     H 5329   4.968  11.279   9.215 -0.7227  0.6756 -1.7683
   39MOL0     H 5330   4.867  11.407   9.267  0.8488  0.6891 -1.0243
   39MOL0     H 5331   5.038  11.480   9.468  3.4164  0.2238  1.4118
   39MOL0     H 5332   5.096  11.319   9.821  1.4232 -0.7132  0.4861
   39MOL0     H 5333   5.046  11.481   9.766 -0.9469 -0.3897 -0.8028
   39MOL0     H 5334   5.287  11.301   9.703 -2.1441 -1.3256  0.1675
   39MOL0     H 5335   5.271  11.462   9.637  1.6716  1.2295  0.2824
   39MOL0     H 5336   5.281  11.546   9.892  0.8891  0.2380 -0.7190
   39MOL0     H 5337   5.330  11.377   9.936  1.4034  0.4812  0.2383
   39MOL0     H 5338   5.522  11.396   9.778  1.1159  0.1054  0.6283
   39MOL0     H 5339   5.483  11.561   9.752 -0.4308 -1.3443 -1.9765
   39MOL0     H 5340   5.728  11.365   9.811 -1.2343 -0.2565  1.5605
   39MOL0     H 5341   5.942  11.306   9.756 -1.5695 -0.1474  2.3357
   39MOL0     H 5342   6.077  11.366   9.848  0.9538  1.1397  0.4397
   39MOL0     H 5343   6.026  11.445   9.691 -4.3309  0.0635 -1.1591
   39MOL0     H 5344   6.352  11.579  10.053 -0.8188 -0.4118 -1.1738
   39MOL0     H 5345   6.579  11.669  10.069  0.1908  1.2316 -2.8229
   39MOL0     H 5346   6.808  11.870  10.117  0.3047 -0.6867 -0.4020
   39MOL0     H 5347   6.704  11.877   9.973  0.5091 -1.8016  1.2638
   39MOL0     H 5348   6.874  12.061   9.961 -1.3914  0.8566 -0.8078
   39MOL0     H 5349   6.707  12.108   9.953 -1.1833 -3.5097 -1.4447
   39MOL0     H 5350   6.726  12.179  10.200 -0.8119 -1.8145 -1.2900
   39MOL0     H 5351   6.853  12.258  10.095  2.8187 -0.6037 -2.0001
   39MOL0     H 5352   7.008  12.102  10.196 -0.7092  4.3443 -4.2968
   39MOL0     H 5353   6.866  12.033  10.284  0.1154  0.1440 -0.5886
   39MOL0     H 5354   7.006  12.307  10.332 -1.2608  1.9964  1.3219
   39MOL0     H 5355   6.843  12.276  10.369  0.3075  1.3179 -2.8610
   39MOL0     H 5356   7.083  12.114  10.477 -1.1592 -3.7387  0.2105
   39MOL0     H 5357   6.914  12.075  10.506  0.0530  0.8828  0.5941
   39MOL0     H 5358   6.880  12.326  10.565  0.7254  0.0216 -1.5730
   39MOL0     H 5359   7.058  12.329  10.586  0.2175 -0.4534  0.5453
   39MOL0     H 5360   6.869  12.149  10.741  0.1880 -1.7700 -1.6138
   39MOL0     H 5361   6.951  12.293  10.807  1.4545 -0.7954  1.4775
   39MOL0     H 5362   6.411  12.073  10.110  1.3506 -0.4929 -2.3562
   39MOL0     H 5363   6.185  11.978  10.078 -1.1518 -0.2786  1.7427
   39MOL0     H 5364   5.886  11.737  10.098  1.9233  0.6844 -1.0289
   39MOL0     H 5365   5.643  11.690  10.069 -0.2801  0.2771 -1.7195
   39MOL0     H 5366   3.901  10.935   9.430  0.9118  0.4928 -0.1324
   39MOL0     H 5367   3.673  10.845   9.453  1.3970 -0.4273  1.3549
   39MOL0     H 5368   3.285  11.029   9.307  0.1040  0.6839 -0.6832
   39MOL0     H 5369   3.066  11.008   9.191  2.8538  0.4922 -1.3340
   39MOL0     H 5370   2.788  10.672   9.302 -0.0433 -0.4914  0.9818
   39MOL0     H 5371   2.754  10.811   9.402  3.5027 -0.9241  1.2188
   39MOL0     H 5372   2.631  10.913   9.211  1.8080  0.2833  1.2712
   39MOL0     H 5373   2.544  10.767   9.267 -0.8608 -0.0516 -0.2196
   39MOL0     H 5374   2.741  10.770   9.030 -1.5782  2.7112 -1.5375
   39MOL0     H 5375   2.646  10.625   9.085 -0.3438 -0.2162 -3.9068
   39MOL0     H 5376   2.560  10.743   8.878 -0.2586  0.1012 -0.2089
   39MOL0     H 5377   2.545  10.883   8.956  1.8348 -0.4183 -0.9711
   39MOL0     H 5378   2.230  10.626   9.135 -1.2187  0.9155 -1.3378
   39MOL0     H 5379   2.954  10.698   9.462  0.1633  0.2629 -0.4270
   39MOL0     H 5380   3.111  10.607   9.620 -0.8215  1.1170 -1.4620
   39MOL0     H 5381   3.279  10.609   9.571  0.0859 -0.2683  0.0167
   39MOL0     H 5382   3.217  10.738   9.681 -0.9324 -2.3725  2.4047
   40MOL0     O 5383  10.953   4.228   5.280  0.0885 -0.1630 -0.0479
   40MOL0     C 5384  10.899   4.216   5.393  0.2847 -0.2977 -0.1600
   40MOL0     O 5385  10.925   4.123   5.481 -0.5512  0.1357  0.6078
   40MOL0     C 5386  11.032   4.040   5.459 -0.0956  0.4560  0.7489
   40MOL0     C 5387  11.167   4.081   5.462  0.2218  0.0420 -0.0063
   40MOL0     C 5388  11.261   3.981   5.445  0.0625  0.1820  0.2309
   40MOL0     C 5389  11.232   3.843   5.427 -0.4366  1.2307 -1.0618
   40MOL0     O 5390  11.328   3.743   5.429 -0.6548 -0.1724 -0.1915
   40MOL0     C 5391  11.430   3.754   5.526  0.0999  0.0148 -0.5874
   40MOL0     C 5392  11.543   3.658   5.504 -0.7059  0.7766  0.0331
   40MOL0     C 5393  11.495   3.511   5.542  0.0747  0.4527  0.1206
   40MOL0     C 5394  11.600   3.412   5.490 -0.6489 -0.6062  0.0765
   40MOL0     C 5395  11.743   3.435   5.534 -0.4243 -0.2294  0.7691
   40MOL0     C 5396  11.750   3.443   5.682 -0.6059  0.3991  0.5561
   40MOL0     C 5397  11.892   3.458   5.726 -0.0699  0.2608 -0.6568
   40MOL0     C 5398  11.978   3.328   5.722  0.7069  0.5583  0.6203
   40MOL0     N 5399  12.125   3.352   5.734 -0.2973 -0.2917 -0.8794
   40MOL0     C 5400  12.185   3.395   5.852 -0.2147  0.5018  0.2175
   40MOL0     C 5401  12.316   3.421   5.813  0.5159  0.0164 -0.5377
   40MOL0     C 5402  12.423   3.491   5.901 -0.4059 -0.6475 -0.0753
   40MOL0     C 5403  12.498   3.602   5.819 -0.1859  0.3444  0.5441
   40MOL0     C 5404  12.616   3.648   5.902  0.3260  0.1361 -0.1000
   40MOL0     C 5405  12.715   3.737   5.849 -0.6639  0.1444  0.9163
   40MOL0     O 5406  12.831   3.753   5.932  0.0337 -0.4843 -0.3131
   40MOL0     C 5407  12.927   3.835   5.882 -0.5037 -0.0410 -0.0746
   40MOL0     C 5408  12.933   3.899   5.755  0.0810  0.3053 -0.2834
   40MOL0     C 5409  13.028   3.993   5.720 -0.4742 -0.1423  0.6807
   40MOL0     C 5410  13.012   4.056   5.578  0.1153  0.4604 -1.4341
   40MOL0     C 5411  13.129   4.027   5.812 -0.1495  0.4672  0.6771
   40MOL0     C 5412  13.251   4.113   5.786  0.1779 -0.6487  0.3408
   40MOL0     O 5413  13.313   4.161   5.899 -0.1318  0.4761  0.1847
   40MOL0     C 5414  13.420   4.247   5.885  0.4267 -1.0205  0.1891
   40MOL0     C 5415  13.397   4.385   5.857  0.2417 -0.3438  0.2273
   40MOL0     C 5416  13.510   4.472   5.842  0.5188  0.4926  0.0917
   40MOL0     C 5417  13.644   4.424   5.867  0.9915  0.4325  0.0096
   40MOL0     O 5418  13.750   4.507   5.844 -0.3879 -0.0158  0.2822
   40MOL0     C 5419  13.834   4.472   5.732  0.5268  0.6449  0.1913
   40MOL0     C 5420  13.896   4.617   5.702 -0.0193  1.5577 -0.8434
   40MOL0     C 5421  13.987   4.675   5.822 -0.4283  0.5009 -0.4284
   40MOL0     C 5422  14.132   4.632   5.799  0.2623 -0.2167  0.1876
   40MOL0     C 5423  14.230   4.674   5.913 -0.0474 -0.2323 -0.9397
   40MOL0     C 5424  14.364   4.601   5.916 -0.2291  0.4125  1.7262
   40MOL0     C 5425  14.443   4.630   6.048  0.4094 -0.1148 -0.4339
   40MOL0     C 5426  14.578   4.556   6.067 -0.7328  0.1248  0.3997
   40MOL0    Cl 5427  14.619   4.578   6.248  0.0962 -0.0897  0.0939
   40MOL0     C 5428  13.658   4.287   5.896  0.3785  0.1878  0.3614
   40MOL0     C 5429  13.544   4.201   5.913 -0.2373 -0.1228  0.3786
   40MOL0     O 5430  13.291   4.126   5.672 -0.2145 -0.7941 -1.0125
   40MOL0     C 5431  13.118   3.967   5.937 -0.1044 -0.3361  0.2824
   40MOL0     C 5432  13.025   3.865   5.968 -0.1500 -0.7146  0.3996
   40MOL0     N 5433  12.336   3.394   5.679  0.0207 -0.3264 -0.1521
   40MOL0     N 5434  12.222   3.356   5.641  0.0496  0.3661 -0.2724
   40MOL0     C 5435  11.100   3.805   5.443 -0.5679 -0.1628  0.9412
   40MOL0     C 5436  11.003   3.905   5.453  0.6695  0.4832  1.0168
   40MOL0     C 5437  10.789   4.311   5.428  0.1812  0.2347 -0.4743
   40MOL0     C 5438  10.738   4.395   5.330  0.3914 -0.6488 -0.1521
   40MOL0     C 5439  10.634   4.486   5.350  0.7833 -0.1071 -0.4983
   40MOL0     C 5440  10.568   4.493   5.478  0.4502 -0.0899  0.4867
   40MOL0     O 5441  10.457   4.569   5.511  0.5569 -0.1202  0.0244
   40MOL0     C 5442  10.403   4.659   5.420 -0.0285 -0.7534  0.2554
   40MOL0     C 5443  10.258   4.696   5.458 -0.7029  0.5828  0.8810
   40MOL0     C 5444  10.169   4.574   5.457 -0.2273  0.3693  0.2278
   40MOL0     C 5445  10.024   4.620   5.473 -0.0172 -0.6161 -0.5886
   40MOL0     C 5446   9.956   4.641   5.342 -0.0717  0.1991 -0.1576
   40MOL0     C 5447   9.913   4.662   5.236 -0.2872  0.0767 -0.4764
   40MOL0     C 5448  10.610   4.409   5.580 -0.0119 -0.2006  1.0668
   40MOL0     C 5449  10.726   4.330   5.557  0.7763  0.5795  0.0303
   40MOL0     C 5450  10.768   4.251   5.677  0.8692 -0.0507 -0.5664
   40MOL0     H 5451  11.195   4.183   5.488  0.4113 -0.3307  1.3072
   40MOL0     H 5452  11.363   4.012   5.467  0.2869 -1.7020  2.2685
   40MOL0     H 5453  11.383   3.738   5.623 -1.0608 -0.7576 -1.2556
   40MOL0     H 5454  11.468   3.856   5.538  1.3316 -0.5015  0.0726
   40MOL0     H 5455  11.575   3.673   5.401 -1.3555 -1.0647 -0.4837
   40MOL0     H 5456  11.631   3.675   5.566 -0.9503  1.1804  0.2749
   40MOL0     H 5457  11.475   3.496   5.649 -0.9786 -0.2308 -0.1517
   40MOL0     H 5458  11.396   3.499   5.496 -2.1072 -1.3816  4.6078
   40MOL0     H 5459  11.566   3.312   5.521  3.5195 -2.2718  0.0150
   40MOL0     H 5460  11.593   3.407   5.381 -1.9337 -2.0409  0.1917
   40MOL0     H 5461  11.789   3.528   5.499  2.3544 -1.6063  0.4407
   40MOL0     H 5462  11.812   3.362   5.491 -0.5030 -0.2052  0.6027
   40MOL0     H 5463  11.704   3.534   5.723  0.9813  0.6144  1.9811
   40MOL0     H 5464  11.708   3.352   5.725  0.9260 -0.2919  0.6429
   40MOL0     H 5465  11.881   3.495   5.828 -0.8361 -0.6929 -0.3832
   40MOL0     H 5466  11.946   3.530   5.663  0.6618 -0.9901 -1.5112
   40MOL0     H 5467  11.956   3.261   5.805  3.1558  0.1031  0.9549
   40MOL0     H 5468  11.952   3.266   5.635  2.3097 -1.7203  1.6784
   40MOL0     H 5469  12.137   3.402   5.949 -1.0585  1.8650 -0.2795
   40MOL0     H 5470  12.488   3.406   5.922  0.5675 -0.1043 -0.8379
   40MOL0     H 5471  12.385   3.544   5.989  1.0957 -0.1081  0.2767
   40MOL0     H 5472  12.547   3.567   5.727  1.5093  0.8753  1.2175
   40MOL0     H 5473  12.429   3.686   5.806  0.2986  0.6647 -0.0316
   40MOL0     H 5474  12.578   3.698   5.992  3.3608 -1.8878  2.5035
   40MOL0     H 5475  12.662   3.555   5.937 -0.6872 -0.1274  0.5756
   40MOL0     H 5476  12.753   3.683   5.762 -1.5779 -2.6649  2.1283
   40MOL0     H 5477  12.676   3.834   5.817 -0.5533 -0.4146 -1.0407
   40MOL0     H 5478  12.847   3.888   5.689  0.4654  2.0082 -1.1355
   40MOL0     H 5479  13.062   4.002   5.496  0.3176 -2.6956  0.5897
   40MOL0     H 5480  13.057   4.155   5.584 -0.7543  0.7832  2.9225
   40MOL0     H 5481  12.905   4.075   5.561 -0.3293 -0.8758 -0.3428
   40MOL0     H 5482  13.298   4.430   5.853  2.0910  4.3054  0.6753
   40MOL0     H 5483  13.493   4.574   5.810 -0.3334  0.8459  1.5728
   40MOL0     H 5484  13.900   4.391   5.764  1.1105  1.4361  1.0768
   40MOL0     H 5485  13.779   4.433   5.646  0.8955 -1.8174  0.9938
   40MOL0     H 5486  13.948   4.598   5.608 -2.7081  0.0209 -2.1428
   40MOL0     H 5487  13.817   4.688   5.673 -0.6736  0.6458 -1.3701
   40MOL0     H 5488  13.961   4.633   5.919 -1.4994 -1.0730 -1.3513
   40MOL0     H 5489  13.976   4.784   5.818 -0.2115  0.5064 -1.0980
   40MOL0     H 5490  14.157   4.661   5.697  0.2704 -0.6595  0.0591
   40MOL0     H 5491  14.131   4.523   5.792  0.3727 -0.2131  0.1237
   40MOL0     H 5492  14.238   4.783   5.912  0.7827  0.0484  4.4223
   40MOL0     H 5493  14.177   4.653   6.006  0.8550  2.8687  0.4082
   40MOL0     H 5494  14.432   4.623   5.833 -2.3546  0.5354 -0.0794
   40MOL0     H 5495  14.340   4.494   5.909 -0.9125  0.6269  0.2945
   40MOL0     H 5496  14.371   4.600   6.125  1.1079 -0.1684  0.2059
   40MOL0     H 5497  14.457   4.737   6.061  1.0153 -0.1400 -0.8400
   40MOL0     H 5498  14.654   4.588   5.995 -2.8443  2.5126 -0.9591
   40MOL0     H 5499  14.561   4.449   6.058  1.8943 -0.4021  0.9267
   40MOL0     H 5500  13.758   4.248   5.889 -0.6391 -2.6537  0.5963
   40MOL0     H 5501  13.554   4.096   5.935  2.2675 -0.4611 -1.8199
   40MOL0     H 5502  13.191   3.982   6.016 -0.6803 -1.6269  1.0893
   40MOL0     H 5503  13.042   3.833   6.070  1.2323  2.1908  1.1834
   40MOL0     H 5504  11.081   3.699   5.427 -0.9207  0.1408 -0.8178
   40MOL0     H 5505  10.898   3.880   5.466  0.5354  0.4226 -0.0703
   40MOL0     H 5506  10.786   4.401   5.233  0.1787  0.9402 -0.1846
   40MOL0     H 5507  10.607   4.566   5.281  1.0017 -0.4928 -1.0391
   40MOL0     H 5508  10.463   4.748   5.399 -2.0270 -0.1478 -3.9695
   40MOL0     H 5509  10.392   4.612   5.322 -0.2993 -1.4730  0.6237
   40MOL0     H 5510  10.209   4.765   5.388 -1.6496 -1.8683 -1.0226
   40MOL0     H 5511  10.257   4.744   5.556  0.4602 -0.0569  1.2165
   40MOL0     H 5512  10.188   4.515   5.368  3.8149 -0.6569  1.5853
   40MOL0     H 5513  10.202   4.511   5.540  1.7185 -0.5013 -1.1679
   40MOL0     H 5514  10.008   4.706   5.539 -0.3764 -0.8263 -0.3976
   40MOL0     H 5515   9.970   4.534   5.515  0.5493 -1.5011 -1.6062
   40MOL0     H 5516   9.870   4.675   5.138 -0.9699  0.1959 -0.1709
   40MOL0     H 5517  10.573   4.419   5.681 -0.5277  2.7883  0.6777
   40MOL0     H 5518  10.731   4.299   5.767  0.6201  0.3618 -0.8849
   40MOL0     H 5519  10.749   4.143   5.670  0.6749 -0.1416  1.0923
   40MOL0     H 5520  10.875   4.271   5.688  0.6273  1.8754 -1.3443
   41MOL0     O 5521   7.053   5.179   8.980  0.2314  0.3049  0.8774
   41MOL0     C 5522   7.060   5.062   8.939  0.1501  0.1255  1.1738
   41MOL0     O 5523   7.146   4.967   8.974 -0.0202  0.1414 -0.2008
   41MOL0     C 5524   7.213   4.987   9.097  0.4095  0.4432  0.7584
   41MOL0     C 5525   7.347   4.955   9.090 -0.6084 -0.3121  1.1240
   41MOL0     C 5526   7.418   4.975   9.202 -0.6500 -0.0206 -1.0577
   41MOL0     C 5527   7.365   5.021   9.325 -0.0917  0.5435  0.6914
   41MOL0     O 5528   7.452   5.044   9.436  0.2907  0.1758 -0.7270
   41MOL0     C 5529   7.585   5.001   9.443 -0.2377  0.3757  0.7260
   41MOL0     C 5530   7.634   5.060   9.569  0.2596 -0.8419 -0.1208
   41MOL0     C 5531   7.778   5.025   9.608 -0.4640 -0.3871  0.7863
   41MOL0     C 5532   7.840   5.131   9.699  0.6080 -0.3025  0.3600
   41MOL0     C 5533   7.971   5.072   9.748 -0.8392  0.5179  0.0280
   41MOL0     C 5534   8.021   5.160   9.859 -0.5159  1.4791  0.2337
   41MOL0     C 5535   8.163   5.132   9.913  0.6801 -0.1831 -0.7166
   41MOL0     C 5536   8.193   5.232  10.023  0.2736 -1.2801  0.1214
   41MOL0     N 5537   8.321   5.204  10.083 -0.0639  0.0984  0.1914
   41MOL0     C 5538   8.361   5.211  10.208  0.1834  0.0727  0.3707
   41MOL0     C 5539   8.490   5.199  10.217 -0.1470 -1.0116  0.2043
   41MOL0     C 5540   8.569   5.189  10.345 -0.1223  0.0453  1.2814
   41MOL0     C 5541   8.707   5.239  10.330  0.2919  1.3426 -0.4928
   41MOL0     C 5542   8.702   5.397  10.324 -0.0221 -0.3785 -0.2640
   41MOL0     C 5543   8.843   5.441  10.366  0.7025  1.0953  0.4241
   41MOL0     O 5544   8.866   5.577  10.345 -0.0837 -0.6123  0.2421
   41MOL0     C 5545   8.978   5.625  10.390  0.6546 -0.3336 -0.2072
   41MOL0     C 5546   9.084   5.547  10.440  0.3507 -0.3404  0.0299
   41MOL0     C 5547   9.214   5.598  10.472  0.1673  0.0112 -0.3549
   41MOL0     C 5548   9.308   5.503  10.513 -0.4295 -0.2849  0.6111
   41MOL0     C 5549   9.245   5.730  10.450 -0.0427 -0.1824  0.8917
   41MOL0     C 5550   9.374   5.801  10.484  0.2946 -0.7388 -0.4154
   41MOL0     O 5551   9.402   5.919  10.422  0.8157 -0.0059 -0.2412
   41MOL0     C 5552   9.525   5.983  10.434 -0.2471  0.1822 -0.2061
   41MOL0     C 5553   9.634   5.945  10.515 -0.6399 -0.2428  0.0643
   41MOL0     C 5554   9.747   6.024  10.520 -0.2172  0.4606 -0.4954
   41MOL0     C 5555   9.760   6.136  10.444  0.2254 -0.0270 -0.2242
   41MOL0     O 5556   9.875   6.204  10.446  0.5422 -0.3500 -0.7961
   41MOL0     C 5557   9.868   6.337  10.499 -0.5259 -0.7579  0.1968
   41MOL0     C 5558   9.998   6.419  10.515 -0.2283  0.7471 -0.6409
   41MOL0     C 5559  10.053   6.456  10.382 -0.2130 -0.3173 -0.2777
   41MOL0     C 5560  10.135   6.581  10.411 -0.1135  0.3113 -0.7051
   41MOL0     C 5561  10.196   6.637  10.284 -0.9490  0.4100  0.4029
   41MOL0     C 5562  10.271   6.536  10.198  0.8715 -0.0465  0.0972
   41MOL0     C 5563  10.348   6.616  10.091 -1.2555 -0.2703  0.4770
   41MOL0     C 5564  10.398   6.538   9.966  0.3222 -0.5173 -0.3598
   41MOL0    Cl 5565  10.543   6.427  10.016  0.3466  0.0732 -0.5852
   41MOL0     C 5566   9.654   6.176  10.365 -1.4358  0.7435  0.2993
   41MOL0     C 5567   9.542   6.094  10.350 -0.3207 -0.1227  0.1829
   41MOL0     O 5568   9.428   5.760  10.586 -0.1213  0.0466  0.2104
   41MOL0     C 5569   9.141   5.814  10.418  0.3366  0.7720 -0.4998
   41MOL0     C 5570   9.014   5.765  10.380 -0.7369  0.5713 -0.3769
   41MOL0     N 5571   8.539   5.204  10.093 -0.5118 -1.2059  0.8389
   41MOL0     N 5572   8.437   5.206  10.010  0.9370  0.0242  0.3541
   41MOL0     C 5573   7.221   5.036   9.333 -0.3092  0.5106 -0.1193
   41MOL0     C 5574   7.147   5.022   9.216 -0.2949  0.4535  0.2100
   41MOL0     C 5575   6.980   5.031   8.819 -0.1573  0.7291 -1.0555
   41MOL0     C 5576   7.033   5.066   8.702  0.0718 -0.6551 -0.0098
   41MOL0     C 5577   6.966   5.041   8.585  0.5424 -0.0922  0.0986
   41MOL0     C 5578   6.839   4.982   8.581 -0.1736 -0.1596  0.3044
   41MOL0     O 5579   6.784   4.973   8.459 -0.0394 -0.5100 -0.3855
   41MOL0     C 5580   6.645   4.960   8.458 -0.7709  0.0915 -0.0110
   41MOL0     C 5581   6.592   4.817   8.441  0.2312  0.1067  0.7623
   41MOL0     C 5582   6.438   4.791   8.475 -0.0797 -0.5413 -0.1234
   41MOL0     C 5583   6.404   4.643   8.496 -0.4239  0.3630 -0.6148
   41MOL0     C 5584   6.259   4.629   8.514  0.1467 -0.0781 -0.6619
   41MOL0     C 5585   6.137   4.620   8.519  0.2666  0.0439 -0.1848
   41MOL0     C 5586   6.785   4.935   8.698  0.8973 -0.4895 -0.0219
   41MOL0     C 5587   6.854   4.970   8.820  0.0449  0.3709  0.3339
   41MOL0     C 5588   6.793   4.927   8.945 -0.7991 -0.0031 -0.5847
   41MOL0     H 5589   7.400   4.922   9.001  1.3931 -0.3859  2.2972
   41MOL0     H 5590   7.523   4.949   9.202 -0.6684 -0.9959  4.0087
   41MOL0     H 5591   7.647   5.038   9.361  0.4433 -2.3747 -0.1185
   41MOL0     H 5592   7.594   4.892   9.440  0.8783  0.4421 -2.2556
   41MOL0     H 5593   7.630   5.169   9.561  2.1624 -0.7216  0.2205
   41MOL0     H 5594   7.573   5.023   9.652 -0.2266  0.9181  0.3498
   41MOL0     H 5595   7.773   4.926   9.654  0.6523 -1.6166 -1.5517
   41MOL0     H 5596   7.841   5.019   9.518 -0.7599 -0.4763  0.5804
   41MOL0     H 5597   7.868   5.214   9.633  3.3745 -1.2581  0.2274
   41MOL0     H 5598   7.768   5.161   9.776  1.3209  3.5880 -0.2626
   41MOL0     H 5599   8.047   5.070   9.669 -1.1458 -2.9907 -0.3374
   41MOL0     H 5600   7.954   4.971   9.788 -1.5909  0.9931  0.9511
   41MOL0     H 5601   8.018   5.260   9.815 -1.5770  0.2345 -2.7735
   41MOL0     H 5602   7.961   5.165   9.950 -1.5039 -1.7244 -0.1147
   41MOL0     H 5603   8.226   5.148   9.825 -2.2872 -0.0422 -2.9602
   41MOL0     H 5604   8.167   5.026   9.940 -1.2351  0.5180  2.8720
   41MOL0     H 5605   8.186   5.334   9.983 -2.6660 -0.4150  2.4758
   41MOL0     H 5606   8.122   5.227  10.106  0.0441 -0.2299  0.0033
   41MOL0     H 5607   8.293   5.217  10.293  1.5898 -1.0749  1.6634
   41MOL0     H 5608   8.572   5.084  10.376 -0.1441 -0.4527 -0.3012
   41MOL0     H 5609   8.500   5.238  10.414 -1.3090 -2.5808  2.1217
   41MOL0     H 5610   8.769   5.217  10.417  1.2981  3.3207 -0.6695
   41MOL0     H 5611   8.763   5.207  10.242 -2.9690 -0.0163 -2.2512
   41MOL0     H 5612   8.687   5.448  10.229 -0.1787  1.4729  0.7052
   41MOL0     H 5613   8.616   5.425  10.386 -1.5314 -0.1314 -2.3843
   41MOL0     H 5614   8.844   5.426  10.475  1.5155  0.2487  0.3120
   41MOL0     H 5615   8.923   5.374  10.335  0.0055  1.0992 -1.4938
   41MOL0     H 5616   9.083   5.441  10.459  0.1912 -0.6258 -1.4463
   41MOL0     H 5617   9.390   5.501  10.441 -1.1873  1.1230 -0.3524
   41MOL0     H 5618   9.275   5.400  10.526  4.0071 -2.1573 -1.0714
   41MOL0     H 5619   9.350   5.534  10.609  0.0004  3.3700 -0.5948
   41MOL0     H 5620   9.629   5.864  10.588 -1.1125  1.4784  2.0437
   41MOL0     H 5621   9.834   5.990  10.575  1.6728  1.5475 -2.6557
   41MOL0     H 5622   9.786   6.397  10.458 -0.2618  1.1660  2.3032
   41MOL0     H 5623   9.837   6.333  10.603  1.0282  0.2074  0.7316
   41MOL0     H 5624   9.979   6.511  10.571  1.0995  0.4159  0.3980
   41MOL0     H 5625  10.068   6.356  10.572  0.6788  3.7219  1.8120
   41MOL0     H 5626   9.972   6.498  10.322  0.8210  0.7391 -0.9828
   41MOL0     H 5627  10.100   6.370  10.333  0.8943  1.8094 -3.2343
   41MOL0     H 5628  10.215   6.550  10.478  0.6813 -0.6379 -2.0573
   41MOL0     H 5629  10.057   6.650  10.445 -1.7213 -1.3438 -0.8557
   41MOL0     H 5630  10.114   6.680  10.226 -0.8706 -1.3132 -1.0634
   41MOL0     H 5631  10.256   6.724  10.311 -1.3807  1.3130 -1.3960
   41MOL0     H 5632  10.199   6.468  10.153 -0.0555 -0.1651  1.6822
   41MOL0     H 5633  10.336   6.469  10.254  0.7930  0.7229  1.1445
   41MOL0     H 5634  10.444   6.656  10.124 -0.5996 -1.1694 -0.2407
   41MOL0     H 5635  10.286   6.696  10.050  1.5856  1.7479 -0.1505
   41MOL0     H 5636  10.411   6.606   9.881 -0.9004  3.4912  2.3553
   41MOL0     H 5637  10.322   6.465   9.937  1.1941 -1.0923 -1.2829
   41MOL0     H 5638   9.649   6.272  10.314 -1.1274  0.6962  0.1731
   41MOL0     H 5639   9.456   6.121  10.289 -1.1632  1.0121  1.7933
   41MOL0     H 5640   9.154   5.922  10.417  1.4414  0.6820  0.6383
   41MOL0     H 5641   8.929   5.825  10.351 -0.1693  1.4142 -0.3065
   41MOL0     H 5642   7.185   5.067   9.430 -1.8161 -0.5521 -0.3134
   41MOL0     H 5643   7.040   5.040   9.222 -0.3412  1.4007 -2.3464
   41MOL0     H 5644   7.132   5.109   8.706  0.2724 -1.0698 -0.4690
   41MOL0     H 5645   7.018   5.059   8.491  1.2448  0.0568  0.5122
   41MOL0     H 5646   6.600   5.004   8.547 -0.8451  0.0245 -0.0151
   41MOL0     H 5647   6.599   5.014   8.375  1.1820  1.0343 -0.5473
   41MOL0     H 5648   6.661   4.756   8.500  1.1768 -1.2218 -1.5686
   41MOL0     H 5649   6.597   4.780   8.338  0.6917  0.5634  0.6167
   41MOL0     H 5650   6.408   4.852   8.560  1.6421  1.6164 -0.9567
   41MOL0     H 5651   6.382   4.821   8.386  1.9277  1.1637 -0.9111
   41MOL0     H 5652   6.451   4.602   8.586  0.1400  1.7856 -0.2326
   41MOL0     H 5653   6.442   4.584   8.412  0.8747  1.2368 -0.6695
   41MOL0     H 5654   6.031   4.606   8.517  0.2611  0.1072 -0.4974
   41MOL0     H 5655   6.694   4.876   8.703  0.4188  0.3256  1.2533
   41MOL0     H 5656   6.687   4.954   8.934  0.2181  4.5346 -0.9048
   41MOL0     H 5657   6.813   4.823   8.972  1.1585  0.2036 -1.0681
   41MOL0     H 5658   6.828   4.986   9.030 -0.2132  1.0042 -1.5067
   42MOL0     O 5659   4.474   6.051   5.451 -0.0318  0.3638 -0.5869
   42MOL0     C 5660   4.396   6.050   5.361 -0.7710  1.1703 -0.0749
   42MOL0     O 5661   4.419   5.974   5.248  0.4977 -0.2321  0.4953
   42MOL0     C 5662   4.523   5.894   5.231 -0.1883  0.4243 -0.8794
   42MOL0     C 5663   4.661   5.937   5.247  1.0268  0.5641  0.1378
   42MOL0     C 5664   4.761   5.848   5.224  0.4653  0.0985  0.2898
   42MOL0     C 5665   4.731   5.718   5.171 -0.8273 -0.8712 -0.3291
   42MOL0     O 5666   4.843   5.636   5.141  0.1877 -0.3684 -1.0296
   42MOL0     C 5667   4.851   5.510   5.213  0.7214  1.1324 -0.5336
   42MOL0     C 5668   4.996   5.447   5.192  0.3983 -0.6811  0.2631
   42MOL0     C 5669   5.113   5.518   5.264  0.1227  0.3009  0.0381
   42MOL0     C 5670   5.239   5.449   5.222 -0.1916  0.4410 -0.9856
   42MOL0     C 5671   5.296   5.501   5.090 -0.2929 -0.1730 -0.1925
   42MOL0     C 5672   5.399   5.399   5.040 -0.0449  1.0913 -0.1873
   42MOL0     C 5673   5.471   5.447   4.904  0.4802  0.6294  0.3573
   42MOL0     C 5674   5.549   5.580   4.937 -0.4992 -0.2239  0.0723
   42MOL0     N 5675   5.640   5.608   4.819  0.2117 -0.0347  0.0125
   42MOL0     C 5676   5.602   5.656   4.694  0.6286 -0.0018  0.3812
   42MOL0     C 5677   5.717   5.670   4.624 -0.2635  0.0642 -0.0011
   42MOL0     C 5678   5.725   5.726   4.483 -0.7999  1.0633 -0.1468
   42MOL0     C 5679   5.820   5.637   4.402  0.2406  0.4100  0.7489
   42MOL0     C 5680   5.890   5.690   4.278 -0.0683 -0.0183  0.7330
   42MOL0     C 5681   5.948   5.566   4.200 -0.9575 -0.0963 -0.0461
   42MOL0     O 5682   6.016   5.478   4.288 -0.0667  0.3672  0.2263
   42MOL0     C 5683   6.149   5.496   4.329 -0.2128  0.0337  0.5646
   42MOL0     C 5684   6.222   5.611   4.321 -1.0822 -0.7146  0.8180
   42MOL0     C 5685   6.358   5.617   4.348  0.2956 -0.7754  0.4417
   42MOL0     C 5686   6.421   5.751   4.341  0.1992 -0.0439 -0.6070
   42MOL0     C 5687   6.425   5.496   4.387 -0.1645 -0.0801 -0.5052
   42MOL0     C 5688   6.570   5.489   4.409  0.0625 -0.7541 -0.9268
   42MOL0     O 5689   6.613   5.364   4.454 -0.0247  0.1018  0.4500
   42MOL0     C 5690   6.743   5.340   4.483  0.4890 -0.2233  0.1421
   42MOL0     C 5691   6.770   5.308   4.616 -0.0945  0.1582 -0.2549
   42MOL0     C 5692   6.903   5.257   4.652  0.5999 -0.4608 -0.8122
   42MOL0     C 5693   7.006   5.268   4.555  0.1462  0.4428  0.0509
   42MOL0     O 5694   7.131   5.218   4.581 -0.2323 -0.3226 -0.2909
   42MOL0     C 5695   7.166   5.176   4.716 -0.5169 -1.0019 -0.0519
   42MOL0     C 5696   7.319   5.147   4.719 -0.3289  0.9158 -0.7409
   42MOL0     C 5697   7.357   5.136   4.869 -0.5429 -0.4024  0.1158
   42MOL0     C 5698   7.507   5.105   4.903 -0.6044 -0.5400 -0.8706
   42MOL0     C 5699   7.511   5.055   5.042  0.3372 -0.5754 -0.0833
   42MOL0     C 5700   7.659   5.007   5.082 -0.2145  0.2247 -0.0330
   42MOL0     C 5701   7.765   5.116   5.078  0.5396  0.9188 -0.3872
   42MOL0     C 5702   7.901   5.045   5.120  0.2627  0.3452 -0.4980
   42MOL0    Cl 5703   8.026   5.163   5.070 -0.0186  0.1874  0.2503
   42MOL0     C 5704   6.974   5.303   4.422  0.0157 -0.2468 -0.5572
   42MOL0     C 5705   6.843   5.330   4.390 -0.6345  0.9785 -0.2668
   42MOL0     O 5706   6.643   5.587   4.386 -0.6692  0.6454 -0.0034
   42MOL0     C 5707   6.348   5.379   4.413  0.1590 -0.0120  0.4155
   42MOL0     C 5708   6.212   5.379   4.385 -0.4184 -0.8979 -0.2420
   42MOL0     N 5709   5.830   5.641   4.709  0.3267  0.1043  0.1312
   42MOL0     N 5710   5.776   5.601   4.819  0.3986 -0.3161 -0.5705
   42MOL0     C 5711   4.599   5.687   5.139  0.7200 -0.1776 -0.1123
   42MOL0     C 5712   4.501   5.774   5.171  0.0596  0.5800 -0.2426
   42MOL0     C 5713   4.266   6.123   5.367 -0.3947  0.3018  0.0359
   42MOL0     C 5714   4.186   6.114   5.256  0.9435 -0.5057 -0.2220
   42MOL0     C 5715   4.048   6.154   5.264  0.1609  0.4953 -0.2796
   42MOL0     C 5716   3.999   6.226   5.377 -0.7387  0.2059  0.1440
   42MOL0     O 5717   3.865   6.267   5.369  0.0561 -0.4993  0.0080
   42MOL0     C 5718   3.803   6.315   5.489 -0.5044 -0.2323 -0.4046
   42MOL0     C 5719   3.652   6.328   5.452 -0.8499  0.9913 -0.5849
   42MOL0     C 5720   3.553   6.321   5.568  0.0604  0.2746  0.5411
   42MOL0     C 5721   3.409   6.376   5.537  0.2100  0.0820 -0.4368
   42MOL0     C 5722   3.403   6.523   5.529 -0.0807 -0.1111 -0.2094
   42MOL0     C 5723   3.398   6.647   5.530 -0.0317  0.2413  0.2282
   42MOL0     C 5724   4.090   6.249   5.486 -0.7869  0.1038 -0.8122
   42MOL0     C 5725   4.223   6.200   5.484  0.1851  0.8234 -0.7832
   42MOL0     C 5726   4.313   6.223   5.606  0.4952  0.0390  0.1568
   42MOL0     H 5727   4.671   6.030   5.302 -0.4221  0.4903  0.5610
   42MOL0     H 5728   4.867   5.858   5.245  1.6266 -4.8990 -1.7346
   42MOL0     H 5729   4.781   5.438   5.167  1.5629  0.6275 -1.0609
   42MOL0     H 5730   4.837   5.530   5.319  3.0317  4.7741 -0.7645
   42MOL0     H 5731   5.002   5.352   5.245  0.6588 -0.5806  0.4173
   42MOL0     H 5732   5.008   5.444   5.084  1.5834 -0.1013  0.3619
   42MOL0     H 5733   5.126   5.623   5.239 -3.1499  1.5595  2.7434
   42MOL0     H 5734   5.103   5.517   5.373  0.5519  1.6264  0.0972
   42MOL0     H 5735   5.317   5.449   5.298 -0.3652 -0.5355 -0.7994
   42MOL0     H 5736   5.213   5.345   5.202  1.6679 -0.0450 -1.0111
   42MOL0     H 5737   5.346   5.594   5.121  0.4444 -1.3244  2.2935
   42MOL0     H 5738   5.225   5.527   5.010 -1.4297  1.6693  1.3152
   42MOL0     H 5739   5.482   5.386   5.109  1.3941 -1.0903 -2.1543
   42MOL0     H 5740   5.348   5.304   5.018 -0.6730  0.5384  3.1353
   42MOL0     H 5741   5.396   5.466   4.828  0.6835  3.4875  0.7693
   42MOL0     H 5742   5.541   5.373   4.866  0.0627  1.1638 -1.5558
   42MOL0     H 5743   5.478   5.663   4.945 -1.3531 -0.7819 -1.4176
   42MOL0     H 5744   5.611   5.566   5.026  1.0092 -1.2223 -1.0970
   42MOL0     H 5745   5.502   5.691   4.669  0.8562  0.9599  0.7690
   42MOL0     H 5746   5.760   5.829   4.474 -0.3922  0.7329 -3.2809
   42MOL0     H 5747   5.625   5.731   4.439  0.6272  0.0631 -3.8543
   42MOL0     H 5748   5.899   5.598   4.468 -1.2155  0.9808  2.9502
   42MOL0     H 5749   5.751   5.562   4.363  0.1061  0.9206  0.0046
   42MOL0     H 5750   5.813   5.734   4.214  0.0237 -0.1886  0.5049
   42MOL0     H 5751   5.966   5.765   4.301  0.5422 -0.9125  1.7201
   42MOL0     H 5752   5.876   5.507   4.143  1.0707  0.3981 -3.4120
   42MOL0     H 5753   6.011   5.611   4.122 -2.3852  0.4194 -0.9314
   42MOL0     H 5754   6.181   5.707   4.290 -1.4537 -1.3645 -0.8022
   42MOL0     H 5755   6.352   5.836   4.337  0.3812  0.1089 -0.5047
   42MOL0     H 5756   6.481   5.759   4.250  1.6875 -0.3709  0.3191
   42MOL0     H 5757   6.476   5.762   4.435 -2.6585 -0.9235  1.3093
   42MOL0     H 5758   6.691   5.300   4.690 -0.2345  0.8791 -0.3151
   42MOL0     H 5759   6.914   5.221   4.754 -3.4187 -0.0926 -0.0881
   42MOL0     H 5760   7.155   5.265   4.778  0.7231  0.6040 -2.0376
   42MOL0     H 5761   7.110   5.090   4.754 -0.7933 -1.8150 -2.1953
   42MOL0     H 5762   7.353   5.053   4.673 -2.2055  0.5300 -1.4492
   42MOL0     H 5763   7.379   5.230   4.682  3.3896 -0.9630  0.5478
   42MOL0     H 5764   7.299   5.049   4.900 -1.6250 -0.5844 -2.2447
   42MOL0     H 5765   7.319   5.226   4.920 -2.4226 -2.0207  1.7286
   42MOL0     H 5766   7.567   5.194   4.888  0.4298 -1.1483 -0.4519
   42MOL0     H 5767   7.545   5.026   4.837  0.8432 -0.1781 -0.4926
   42MOL0     H 5768   7.474   5.135   5.107 -1.0795  0.2190 -1.8024
   42MOL0     H 5769   7.441   4.973   5.055 -0.6900  0.0885 -1.2474
   42MOL0     H 5770   7.689   4.929   5.011  0.1729  3.7079 -4.0510
   42MOL0     H 5771   7.663   4.962   5.182  0.2123  0.6758  0.1522
   42MOL0     H 5772   7.744   5.193   5.153 -0.3886 -2.9747  3.7994
   42MOL0     H 5773   7.791   5.161   4.982  0.4360 -0.5301 -1.1175
   42MOL0     H 5774   7.915   4.950   5.067 -0.8578  1.1714 -2.3839
   42MOL0     H 5775   7.907   5.027   5.228 -1.7145  4.0608  0.4176
   42MOL0     H 5776   7.053   5.323   4.350 -0.8634  3.8951 -0.6330
   42MOL0     H 5777   6.813   5.343   4.286 -0.5042  1.3408 -0.2616
   42MOL0     H 5778   6.395   5.286   4.442  0.8932  0.8381  2.1019
   42MOL0     H 5779   6.150   5.291   4.397 -0.8118 -0.5460  0.4173
   42MOL0     H 5780   4.587   5.584   5.107  0.7224 -0.9891  2.2556
   42MOL0     H 5781   4.399   5.752   5.141  0.1120  0.7865 -0.5866
   42MOL0     H 5782   4.232   6.063   5.172  1.4167 -0.7697  0.1901
   42MOL0     H 5783   3.995   6.132   5.173  0.7296  0.8967 -0.7183
   42MOL0     H 5784   3.805   6.240   5.569 -1.6434  0.8828  0.7053
   42MOL0     H 5785   3.845   6.406   5.533 -0.1126 -0.5362 -0.1454
   42MOL0     H 5786   3.624   6.257   5.374 -0.5344 -0.8328  0.8757
   42MOL0     H 5787   3.637   6.426   5.406 -1.5559  1.4680  0.5990
   42MOL0     H 5788   3.543   6.213   5.586 -1.9638  0.6489  1.9086
   42MOL0     H 5789   3.589   6.355   5.665  0.1864 -1.8794  1.3168
   42MOL0     H 5790   3.348   6.342   5.622  1.3388  1.7172  1.0946
   42MOL0     H 5791   3.363   6.334   5.447 -0.3241 -0.9117  0.2789
   42MOL0     H 5792   3.398   6.754   5.524  0.3948  0.5103  3.3207
   42MOL0     H 5793   4.087   6.313   5.574  3.9526 -0.6136  0.0917
   42MOL0     H 5794   4.271   6.298   5.673  1.4635 -0.4119  1.2992
   42MOL0     H 5795   4.317   6.130   5.663 -0.8817 -0.5726 -0.6843
   42MOL0     H 5796   4.413   6.245   5.567  0.5648  1.2102  0.9736
   43MOL0     O 5797   0.566   4.646   5.079 -0.0083  0.0094  0.1264
   43MOL0     C 5798   0.474   4.598   5.145 -0.0340  0.4468 -0.5512
   43MOL0     O 5799   0.460   4.468   5.166 -0.2272  0.5262  0.4591
   43MOL0     C 5800   0.509   4.379   5.070  0.1643  0.9254 -0.7849
   43MOL0     C 5801   0.449   4.387   4.943  0.0859  1.2301 -0.2289
   43MOL0     C 5802   0.510   4.316   4.839 -0.0427 -0.0089 -0.1074
   43MOL0     C 5803   0.624   4.241   4.860 -0.4381 -0.6837 -0.2749
   43MOL0     O 5804   0.689   4.165   4.766 -0.2636 -0.3873 -0.1801
   43MOL0     C 5805   0.597   4.072   4.713 -0.0382  0.1948 -0.1293
   43MOL0     C 5806   0.558   4.107   4.563  0.8317 -0.6523  0.2730
   43MOL0     C 5807   0.691   4.122   4.481  0.1297  0.1461 -0.1029
   43MOL0     C 5808   0.673   4.086   4.332 -0.4015  0.9102 -0.2894
   43MOL0     C 5809   0.813   4.103   4.273  0.2916 -0.3662  0.8767
   43MOL0     C 5810   0.813   4.024   4.143 -0.5429 -0.7435  0.8581
   43MOL0     C 5811   0.949   4.048   4.065  0.7297  0.6875  0.4127
   43MOL0     C 5812   0.961   3.974   3.929 -0.0511  0.1037  0.1361
   43MOL0     N 5813   0.902   4.044   3.819  0.3315 -0.9019 -0.3888
   43MOL0     C 5814   0.776   4.022   3.766  0.0321  0.3005  0.1563
   43MOL0     C 5815   0.772   4.103   3.661  0.3463  0.4568  0.7952
   43MOL0     C 5816   0.658   4.124   3.557 -0.4641  0.6368  0.3057
   43MOL0     C 5817   0.622   4.266   3.537 -0.4485  0.7861  0.1649
   43MOL0     C 5818   0.541   4.291   3.411 -0.1680  0.1110  0.4573
   43MOL0     C 5819   0.393   4.251   3.422 -0.7668  0.7530 -0.4107
   43MOL0     O 5820   0.318   4.334   3.519  0.1548 -0.1415  0.6671
   43MOL0     C 5821   0.176   4.354   3.507 -1.0242 -0.6361  0.4195
   43MOL0     C 5822   0.095   4.291   3.408  0.0037 -0.4638  0.0597
   43MOL0     C 5823  -0.045   4.312   3.420 -0.0451  0.3246 -0.3563
   43MOL0     C 5824  -0.124   4.245   3.302  0.0501  0.0783  0.1588
   43MOL0     C 5825  -0.102   4.395   3.521  1.0423 -0.2571 -0.0941
   43MOL0     C 5826  -0.251   4.423   3.536  0.2537  0.1864  0.2571
   43MOL0     O 5827  -0.288   4.422   3.669 -0.2283 -0.0997  0.9747
   43MOL0     C 5828  -0.413   4.449   3.694 -0.0472  0.5573 -0.4640
   43MOL0     C 5829  -0.444   4.524   3.800 -0.7277 -0.2992 -0.7435
   43MOL0     C 5830  -0.574   4.542   3.849  0.3735 -0.1766  0.6605
   43MOL0     C 5831  -0.679   4.481   3.786  0.3729 -0.1227  0.6180
   43MOL0     O 5832  -0.820   4.476   3.819 -0.2335  0.1085 -0.7419
   43MOL0     C 5833  -0.860   4.506   3.954  0.3321 -0.5552 -0.3951
   43MOL0     C 5834  -1.010   4.534   3.962 -0.6172 -0.1914  0.1751
   43MOL0     C 5835  -1.077   4.522   4.110  0.1222 -0.6976  0.1281
   43MOL0     C 5836  -1.218   4.570   4.097 -0.0220 -0.2102  0.3619
   43MOL0     C 5837  -1.226   4.723   4.098  0.1250 -0.3883 -0.0221
   43MOL0     C 5838  -1.238   4.789   4.239  0.4657  0.0994 -0.4140
   43MOL0     C 5839  -1.386   4.814   4.285  0.2371  0.7022  0.5848
   43MOL0     C 5840  -1.452   4.699   4.347  2.0064  0.0026 -0.6631
   43MOL0    Cl 5841  -1.633   4.756   4.379 -0.2086 -0.5511  0.2649
   43MOL0     C 5842  -0.654   4.417   3.669 -0.2290  0.2606 -0.2376
   43MOL0     C 5843  -0.523   4.387   3.625 -0.4486 -0.3121 -0.8583
   43MOL0     O 5844  -0.328   4.425   3.436 -0.3832 -0.5593 -0.4485
   43MOL0     C 5845  -0.013   4.462   3.607  0.4307  0.0328  0.1145
   43MOL0     C 5846   0.122   4.436   3.599  0.2857 -0.1779  0.2311
   43MOL0     N 5847   0.884   4.182   3.662 -0.1906 -0.6288 -0.3306
   43MOL0     N 5848   0.959   4.144   3.757 -0.0937 -0.5334 -0.3329
   43MOL0     C 5849   0.674   4.228   4.988 -0.0029  0.3480 -0.1999
   43MOL0     C 5850   0.617   4.294   5.094 -0.7375 -0.0904  0.9635
   43MOL0     C 5851   0.381   4.699   5.204  0.9635  1.2221 -0.3422
   43MOL0     C 5852   0.261   4.639   5.254  0.0459  0.1453 -0.4523
   43MOL0     C 5853   0.158   4.718   5.307 -0.0859  0.1521 -0.2035
   43MOL0     C 5854   0.175   4.861   5.323  0.2726 -0.5221  0.2845
   43MOL0     O 5855   0.079   4.929   5.403  0.4496  0.9339 -0.1732
   43MOL0     C 5856   0.046   5.064   5.396  0.0192 -0.3518 -0.9755
   43MOL0     C 5857  -0.075   5.085   5.482 -0.2133  0.0563 -0.2193
   43MOL0     C 5858  -0.055   5.036   5.629  0.6209  0.1020  0.1166
   43MOL0     C 5859  -0.203   5.044   5.698 -0.7518  0.3836 -0.4840
   43MOL0     C 5860  -0.256   5.189   5.710  0.4677  0.6681 -0.1734
   43MOL0     C 5861  -0.315   5.291   5.726  0.2101 -0.2064 -0.0288
   43MOL0     C 5862   0.293   4.912   5.265  0.3533  0.5072 -0.3611
   43MOL0     C 5863   0.394   4.834   5.211 -0.6658 -0.0889  0.5339
   43MOL0     C 5864   0.517   4.903   5.160  0.6277  0.7959  0.5834
   43MOL0     H 5865   0.369   4.456   4.922 -0.2302  0.5366 -1.3948
   43MOL0     H 5866   0.464   4.321   4.741  0.2678  0.8827 -0.2178
   43MOL0     H 5867   0.504   4.059   4.769 -0.0244 -2.0772 -0.5271
   43MOL0     H 5868   0.655   3.979   4.710  1.6473  1.1483  1.5298
   43MOL0     H 5869   0.494   4.025   4.529 -4.1610  2.4427  0.9972
   43MOL0     H 5870   0.494   4.195   4.548  0.2988 -1.0443  0.2364
   43MOL0     H 5871   0.715   4.228   4.496 -2.0344  0.2910  3.4287
   43MOL0     H 5872   0.764   4.060   4.534 -0.8356  0.1385  1.2612
   43MOL0     H 5873   0.633   3.984   4.333 -0.8334  1.0798  0.6252
   43MOL0     H 5874   0.596   4.149   4.287 -1.9013 -0.7131 -0.1047
   43MOL0     H 5875   0.890   4.061   4.339  0.1277 -1.0285  0.6579
   43MOL0     H 5876   0.850   4.206   4.270  1.6563 -0.8508 -1.4768
   43MOL0     H 5877   0.793   3.920   4.170 -0.5906 -1.0208 -0.2034
   43MOL0     H 5878   0.738   4.050   4.068 -0.8399 -2.5426  0.4708
   43MOL0     H 5879   1.026   4.005   4.131  1.7811  2.1685  0.1988
   43MOL0     H 5880   0.962   4.156   4.050  2.1151  0.3180 -1.3635
   43MOL0     H 5881   1.067   3.960   3.908 -0.5641 -3.3756 -0.8725
   43MOL0     H 5882   0.916   3.874   3.931 -0.1291  0.0170 -2.6528
   43MOL0     H 5883   0.707   3.943   3.794  2.4469 -3.4195 -3.2258
   43MOL0     H 5884   0.566   4.073   3.587 -0.2254 -0.1218 -0.2352
   43MOL0     H 5885   0.677   4.071   3.464 -4.5527  0.2138 -0.4733
   43MOL0     H 5886   0.580   4.301   3.632  2.5668 -0.5134  2.1327
   43MOL0     H 5887   0.717   4.318   3.519 -0.1482  0.2228  0.1239
   43MOL0     H 5888   0.549   4.397   3.386 -2.0841  0.3032  0.4805
   43MOL0     H 5889   0.584   4.236   3.326  0.5594  2.4374 -0.7649
   43MOL0     H 5890   0.346   4.230   3.326 -1.6997 -2.1064  0.5688
   43MOL0     H 5891   0.397   4.150   3.465  1.3184  1.3583  0.9589
   43MOL0     H 5892   0.137   4.233   3.327  1.6206  1.1021 -0.2809
   43MOL0     H 5893  -0.199   4.314   3.263  1.2646  2.5842  1.9614
   43MOL0     H 5894  -0.178   4.163   3.350  0.1569  0.9072  1.7941
   43MOL0     H 5895  -0.069   4.201   3.219 -0.5878  1.7852 -1.2297
   43MOL0     H 5896  -0.360   4.569   3.852  0.6587 -0.4440 -2.7436
   43MOL0     H 5897  -0.585   4.586   3.948  2.4283 -0.3347  1.0025
   43MOL0     H 5898  -0.844   4.416   4.015  0.4822 -0.3296 -0.1014
   43MOL0     H 5899  -0.814   4.596   3.996 -0.5557 -0.4211  0.3204
   43MOL0     H 5900  -1.027   4.629   3.911  1.0974  0.6952  1.1520
   43MOL0     H 5901  -1.062   4.471   3.890  0.8642  0.6665 -1.7221
   43MOL0     H 5902  -1.018   4.579   4.182 -0.4960 -0.9911  0.8786
   43MOL0     H 5903  -1.073   4.422   4.155  2.5423 -0.6073  0.2699
   43MOL0     H 5904  -1.289   4.522   4.166 -0.5459  0.0263 -0.0034
   43MOL0     H 5905  -1.254   4.532   4.001  1.8435 -2.0555  0.3110
   43MOL0     H 5906  -1.146   4.773   4.043 -2.3451  2.7348 -1.0192
   43MOL0     H 5907  -1.309   4.761   4.038  1.3542  1.2818 -0.7456
   43MOL0     H 5908  -1.203   4.891   4.220 -0.0351  0.1368 -1.1627
   43MOL0     H 5909  -1.172   4.741   4.311  0.1511 -0.7478 -0.6763
   43MOL0     H 5910  -1.432   4.851   4.193  2.4368  1.5571 -0.2358
   43MOL0     H 5911  -1.377   4.903   4.348  1.1123  2.1618 -1.4816
   43MOL0     H 5912  -1.402   4.670   4.439  1.6028  0.6654 -0.2287
   43MOL0     H 5913  -1.452   4.610   4.282  1.1476 -0.0012 -0.6732
   43MOL0     H 5914  -0.737   4.387   3.605  1.5175 -0.6559 -2.2010
   43MOL0     H 5915  -0.509   4.326   3.537 -3.0581  0.2152 -1.7184
   43MOL0     H 5916  -0.050   4.531   3.681 -0.8503 -2.2295  1.7126
   43MOL0     H 5917   0.192   4.477   3.671  2.0366 -0.9660 -0.9609
   43MOL0     H 5918   0.765   4.173   5.006 -0.5857 -0.3518  0.6565
   43MOL0     H 5919   0.652   4.284   5.196  1.1838 -1.9512  0.2020
   43MOL0     H 5920   0.239   4.534   5.238  2.0873 -0.0635 -2.3995
   43MOL0     H 5921   0.069   4.684   5.358  1.1728 -0.1852  1.8688
   43MOL0     H 5922   0.125   5.129   5.434 -1.9731  0.6928  1.7555
   43MOL0     H 5923   0.029   5.077   5.289  3.4789 -1.2482 -1.7439
   43MOL0     H 5924  -0.156   5.033   5.431 -3.8845  2.3041  2.7689
   43MOL0     H 5925  -0.106   5.190   5.475  1.2404  0.6547  1.5018
   43MOL0     H 5926  -0.008   4.937   5.623  0.9555  0.1369  1.7229
   43MOL0     H 5927   0.012   5.098   5.690  0.4956  0.0518  0.3072
   43MOL0     H 5928  -0.185   4.992   5.792  1.5136 -1.5231 -1.8560
   43MOL0     H 5929  -0.273   4.987   5.636 -1.2544 -1.4430  1.6335
   43MOL0     H 5930  -0.381   5.374   5.740  1.0762  0.6485 -0.9460
   43MOL0     H 5931   0.309   5.020   5.268 -2.5408  1.0269 -0.7733
   43MOL0     H 5932   0.512   4.999   5.213 -2.1599  2.2033 -1.9183
   43MOL0     H 5933   0.610   4.853   5.185 -0.0146 -0.5628  0.3310
   43MOL0     H 5934   0.507   4.937   5.056  0.6095  2.1525  1.0028
   44MOL0     O 5935   7.281   2.411   1.957  0.0549 -0.8994  0.2041
   44MOL0     C 5936   7.294   2.365   2.076 -0.3576 -0.2134  0.6296
   44MOL0     O 5937   7.208   2.294   2.154 -0.0962 -0.2313 -0.0911
   44MOL0     C 5938   7.081   2.290   2.111  0.9529  0.6647  0.2851
   44MOL0     C 5939   6.999   2.400   2.064 -0.6800 -0.0572 -0.6196
   44MOL0     C 5940   6.868   2.385   2.025 -0.5334  0.3821  0.1053
   44MOL0     C 5941   6.811   2.256   2.020  0.4692 -0.4134 -1.7256
   44MOL0     O 5942   6.674   2.255   1.986 -0.1485  0.4817  0.0467
   44MOL0     C 5943   6.632   2.127   1.929  0.7108  0.6218 -0.2952
   44MOL0     C 5944   6.504   2.139   1.848  0.0148  0.4386 -0.0414
   44MOL0     C 5945   6.434   2.004   1.806  0.0250  0.0789 -0.0747
   44MOL0     C 5946   6.375   1.921   1.926 -0.9062 -0.5010  0.8194
   44MOL0     C 5947   6.279   1.810   1.872  0.1032  0.0621  0.4561
   44MOL0     C 5948   6.205   1.755   1.998  0.7898 -0.4220  0.0709
   44MOL0     C 5949   6.133   1.620   1.962  0.4415 -0.2571  0.0169
   44MOL0     C 5950   6.028   1.590   2.061 -0.2369 -0.0807  0.0844
   44MOL0     N 5951   6.084   1.583   2.203  0.2376  0.5444  0.2154
   44MOL0     C 5952   6.197   1.519   2.228 -0.5693 -0.1504 -0.2237
   44MOL0     C 5953   6.223   1.550   2.359 -0.9680  0.6516 -0.5936
   44MOL0     C 5954   6.335   1.496   2.445  0.0975  0.3974  0.2281
   44MOL0     C 5955   6.469   1.510   2.371 -0.2952  1.1271  0.2052
   44MOL0     C 5956   6.529   1.651   2.377  0.2002  0.3228  0.0650
   44MOL0     C 5957   6.682   1.656   2.329 -1.0849 -0.4837  0.2407
   44MOL0     O 5958   6.683   1.608   2.193 -0.4580 -0.2536  0.1778
   44MOL0     C 5959   6.773   1.650   2.092 -0.3231 -0.4846  1.5359
   44MOL0     C 5960   6.738   1.621   1.957 -0.0460 -0.4680  0.0785
   44MOL0     C 5961   6.826   1.661   1.854  0.6599 -0.1379  0.3482
   44MOL0     C 5962   6.774   1.623   1.714 -0.1606 -0.2236  0.1743
   44MOL0     C 5963   6.932   1.748   1.884 -0.1421 -0.2329 -0.1891
   44MOL0     C 5964   7.012   1.819   1.781  0.0471  0.5170 -0.1442
   44MOL0     O 5965   7.088   1.921   1.824  0.5056 -0.3823  1.1361
   44MOL0     C 5966   7.144   2.005   1.735 -0.7239 -0.1282  0.0443
   44MOL0     C 5967   7.145   2.144   1.767  0.5878  0.2479 -0.3107
   44MOL0     C 5968   7.210   2.238   1.679  0.2697  0.0751 -0.1080
   44MOL0     C 5969   7.284   2.189   1.570  0.3237 -0.1890  0.4414
   44MOL0     O 5970   7.375   2.257   1.492  0.1672 -0.2069 -0.1953
   44MOL0     C 5971   7.367   2.396   1.486  0.1749 -0.3667 -0.3698
   44MOL0     C 5972   7.503   2.452   1.536 -0.6329 -0.2991  0.0574
   44MOL0     C 5973   7.530   2.594   1.483 -0.3404 -1.2579 -0.2475
   44MOL0     C 5974   7.653   2.651   1.564 -0.0049 -0.0416  0.3120
   44MOL0     C 5975   7.678   2.802   1.531 -0.0053  0.2186 -0.2572
   44MOL0     C 5976   7.733   2.824   1.389 -0.4197  0.2333  0.3309
   44MOL0     C 5977   7.849   2.737   1.339 -0.9787 -0.1677 -0.1890
   44MOL0     C 5978   7.867   2.744   1.186 -0.3033 -0.1997 -0.6254
   44MOL0    Cl 5979   7.883   2.911   1.145 -0.3231  0.0912 -0.1582
   44MOL0     C 5980   7.290   2.053   1.543  0.6194  0.5984 -0.5272
   44MOL0     C 5981   7.223   1.959   1.628 -0.1802  0.8609  0.2339
   44MOL0     O 5982   7.005   1.780   1.667 -0.2017  0.4867  0.1692
   44MOL0     C 5983   6.973   1.774   2.017  0.1407  0.5850 -0.1966
   44MOL0     C 5984   6.889   1.726   2.119 -0.1254 -0.4132 -0.3777
   44MOL0     N 5985   6.115   1.622   2.407  0.7413 -0.1478 -0.5019
   44MOL0     N 5986   6.026   1.632   2.317 -0.1741 -1.4755  0.1763
   44MOL0     C 5987   6.882   2.143   2.066  0.1199 -0.2732 -0.3610
   44MOL0     C 5988   7.017   2.163   2.112  0.6188  0.7003 -0.5950
   44MOL0     C 5989   7.438   2.378   2.126  1.1392 -0.4904  0.0170
   44MOL0     C 5990   7.538   2.339   2.043  0.4421 -0.7976 -0.2738
   44MOL0     C 5991   7.671   2.328   2.084  0.3167 -0.2694  0.1190
   44MOL0     C 5992   7.711   2.388   2.206 -0.7996  0.5404  0.3082
   44MOL0     O 5993   7.841   2.387   2.253 -0.1939 -0.4109 -0.0519
   44MOL0     C 5994   7.943   2.397   2.151 -0.2475 -0.2403 -0.8028
   44MOL0     C 5995   8.053   2.479   2.229  1.0455  0.4410  0.0569
   44MOL0     C 5996   8.174   2.507   2.146  0.3187  0.6165  1.2890
   44MOL0     C 5997   8.302   2.484   2.222  0.2711  0.7404 -0.3725
   44MOL0     C 5998   8.352   2.608   2.280  0.1429 -0.6740  0.2192
   44MOL0     C 5999   8.398   2.712   2.327 -1.4362  0.5562 -0.1994
   44MOL0     C 6000   7.611   2.431   2.293 -0.3828  0.4331  0.1623
   44MOL0     C 6001   7.473   2.425   2.258  0.2478  0.1057  0.5396
   44MOL0     C 6002   7.366   2.465   2.360  0.1260 -0.4623  0.3399
   44MOL0     H 6003   7.033   2.503   2.067  1.8973 -0.8611  1.1292
   44MOL0     H 6004   6.800   2.468   2.008 -1.1650 -0.5375 -2.2929
   44MOL0     H 6005   6.617   2.051   2.007  0.8509 -0.1715 -1.0350
   44MOL0     H 6006   6.704   2.090   1.856 -1.4411 -1.0227 -1.6661
   44MOL0     H 6007   6.430   2.197   1.903 -1.2936 -0.4693 -0.7694
   44MOL0     H 6008   6.534   2.194   1.758  2.0195  0.7877  0.7857
   44MOL0     H 6009   6.368   2.038   1.726  1.4544  2.0923 -0.4722
   44MOL0     H 6010   6.515   1.939   1.770  0.9762  1.9670 -1.5492
   44MOL0     H 6011   6.456   1.864   1.971  0.9361 -1.9296 -3.7077
   44MOL0     H 6012   6.322   1.993   1.989 -0.0895  2.5208 -1.6645
   44MOL0     H 6013   6.329   1.723   1.829  0.9118 -0.0059  1.4813
   44MOL0     H 6014   6.211   1.864   1.805 -2.0182  0.1362  2.5240
   44MOL0     H 6015   6.265   1.738   2.088  0.2953 -2.6519  0.0214
   44MOL0     H 6016   6.124   1.824   2.023  0.6179 -0.8370  0.6630
   44MOL0     H 6017   6.202   1.536   1.959 -0.9887 -1.4639 -0.3068
   44MOL0     H 6018   6.090   1.635   1.862  2.1626  0.3967 -0.6611
   44MOL0     H 6019   5.956   1.673   2.065 -1.2467 -0.9151 -0.4783
   44MOL0     H 6020   5.968   1.502   2.039 -0.8219  0.6234 -1.1838
   44MOL0     H 6021   6.260   1.458   2.164 -0.1950  0.3003 -0.2902
   44MOL0     H 6022   6.340   1.388   2.463  2.3773  0.5822  0.9077
   44MOL0     H 6023   6.336   1.536   2.546 -1.2667 -2.8074  1.6734
   44MOL0     H 6024   6.550   1.448   2.413  0.3872  1.7794 -0.1251
   44MOL0     H 6025   6.459   1.468   2.270 -1.7901 -1.0603  1.1731
   44MOL0     H 6026   6.463   1.719   2.323 -1.6731 -1.2431  0.2912
   44MOL0     H 6027   6.535   1.678   2.483 -0.4989  0.2607  0.1237
   44MOL0     H 6028   6.722   1.757   2.344 -1.2538 -0.6366  1.8854
   44MOL0     H 6029   6.745   1.588   2.388  1.2819  1.2878 -0.0983
   44MOL0     H 6030   6.646   1.567   1.937 -0.4268 -1.0378  2.9652
   44MOL0     H 6031   6.845   1.564   1.655 -1.2999 -1.9185  0.4379
   44MOL0     H 6032   6.735   1.714   1.669 -0.9061  1.1388  3.2921
   44MOL0     H 6033   6.684   1.563   1.728 -1.1537  0.8408 -1.3296
   44MOL0     H 6034   7.095   2.170   1.859  0.6537  0.8911 -0.4487
   44MOL0     H 6035   7.223   2.339   1.717 -3.5804  0.1751  1.3405
   44MOL0     H 6036   7.344   2.422   1.382  0.0064  2.1977  0.2423
   44MOL0     H 6037   7.282   2.442   1.537 -0.5357 -0.9042 -1.0492
   44MOL0     H 6038   7.493   2.461   1.644  1.5017  2.0361  0.1512
   44MOL0     H 6039   7.588   2.392   1.503 -0.8034 -0.5196  0.0175
   44MOL0     H 6040   7.449   2.667   1.488 -0.2477 -1.1842  0.1479
   44MOL0     H 6041   7.558   2.580   1.378  0.1788 -3.4985  0.1312
   44MOL0     H 6042   7.741   2.590   1.541  0.1913  0.2054  0.3931
   44MOL0     H 6043   7.637   2.649   1.672  3.3199  0.3230  0.9218
   44MOL0     H 6044   7.591   2.865   1.553  0.0349  0.6019 -1.1522
   44MOL0     H 6045   7.754   2.844   1.598  0.9709  0.5423 -1.5220
   44MOL0     H 6046   7.744   2.931   1.367  1.5027 -0.3230 -1.6844
   44MOL0     H 6047   7.649   2.810   1.320 -1.7815 -1.9464  2.2735
   44MOL0     H 6048   7.843   2.631   1.365 -0.1858 -0.1668  0.0312
   44MOL0     H 6049   7.939   2.766   1.394 -0.2246 -1.6030 -0.6148
   44MOL0     H 6050   7.780   2.690   1.146  1.1290 -1.1392 -2.6432
   44MOL0     H 6051   7.957   2.693   1.150 -0.1131 -0.8823  0.7547
   44MOL0     H 6052   7.355   2.010   1.468  0.3813  0.6162 -0.7457
   44MOL0     H 6053   7.256   1.856   1.616 -2.6011  0.2141 -1.8844
   44MOL0     H 6054   7.062   1.825   2.053 -1.1207  2.3365  0.6160
   44MOL0     H 6055   6.908   1.745   2.224 -2.3039 -3.1337  0.6447
   44MOL0     H 6056   6.838   2.044   2.072 -1.5757  0.5576  2.5729
   44MOL0     H 6057   7.067   2.074   2.147 -0.9366  0.8986  2.4578
   44MOL0     H 6058   7.492   2.302   1.951 -2.0050  1.9664 -0.2905
   44MOL0     H 6059   7.734   2.272   2.016 -1.0846 -1.1965 -0.4747
   44MOL0     H 6060   7.966   2.293   2.129 -3.2893 -1.3410  0.5693
   44MOL0     H 6061   7.907   2.436   2.055  1.8295 -1.6061 -2.2028
   44MOL0     H 6062   8.078   2.407   2.308  0.5111 -1.3660 -1.3493
   44MOL0     H 6063   8.016   2.572   2.273  3.4031  1.2517  0.4442
   44MOL0     H 6064   8.180   2.435   2.064 -1.1515 -1.2465  2.7226
   44MOL0     H 6065   8.162   2.610   2.110 -1.0423  0.4004  1.0570
   44MOL0     H 6066   8.373   2.436   2.154 -0.5451 -0.2192 -0.5717
   44MOL0     H 6067   8.287   2.415   2.305  1.3551 -0.3345 -1.0491
   44MOL0     H 6068   8.466   2.787   2.363  1.1723 -1.6023 -0.3744
   44MOL0     H 6069   7.637   2.479   2.386  0.3314  1.3049 -0.4708
   44MOL0     H 6070   7.405   2.464   2.462  1.0696  0.0395 -0.0008
   44MOL0     H 6071   7.328   2.565   2.338 -0.4748 -0.6256  0.6199
   44MOL0     H 6072   7.282   2.395   2.361  0.7291 -1.2243  1.5531
   45MOL0     O 6073   1.339  11.354   5.849  0.1378  0.3468  0.3358
   45MOL0     C 6074   1.325  11.307   5.735  0.4743  0.4103  1.0441
   45MOL0     O 6075   1.390  11.204   5.678 -0.2058 -0.1903  0.2983
   45MOL0     C 6076   1.465  11.128   5.759 -0.1339 -0.5034  0.1293
   45MOL0     C 6077   1.605  11.115   5.731  0.7357 -0.4888  0.0166
   45MOL0     C 6078   1.690  11.044   5.813  0.3541  0.4353 -0.1751
   45MOL0     C 6079   1.645  10.990   5.934 -0.1898  0.2836  0.3816
   45MOL0     O 6080   1.720  10.925   6.028  0.2837 -0.1407 -0.2990
   45MOL0     C 6081   1.828  10.840   5.987  0.3725 -0.0838 -0.2852
   45MOL0     C 6082   1.957  10.906   6.003  0.1157 -0.3988 -0.1254
   45MOL0     C 6083   2.081  10.833   5.945  0.6513  0.0768 -0.2337
   45MOL0     C 6084   2.204  10.911   5.981  0.5796 -0.2306 -0.0981
   45MOL0     C 6085   2.335  10.851   5.925  0.5304  0.2463 -0.2678
   45MOL0     C 6086   2.452  10.947   5.948  0.3728  0.4373  0.9576
   45MOL0     C 6087   2.572  10.894   5.873  0.4965  0.5844 -0.9615
   45MOL0     C 6088   2.681  10.992   5.898  0.4538 -0.0376 -0.0028
   45MOL0     N 6089   2.807  10.938   5.848 -0.8738  0.4703  0.1240
   45MOL0     C 6090   2.905  10.887   5.929 -0.3638  0.8499 -0.1298
   45MOL0     C 6091   3.008  10.867   5.846 -0.0241 -0.3106  0.2410
   45MOL0     C 6092   3.140  10.807   5.879 -0.2934  0.0859  0.2706
   45MOL0     C 6093   3.267  10.889   5.829  0.0770  0.2999 -0.0660
   45MOL0     C 6094   3.397  10.800   5.853 -0.0205  0.1507  0.0621
   45MOL0     C 6095   3.525  10.856   5.793 -0.1440 -0.0798 -0.0303
   45MOL0     O 6096   3.634  10.779   5.851  0.6467  0.1518 -0.0948
   45MOL0     C 6097   3.755  10.779   5.797 -0.1973  0.0934  0.2678
   45MOL0     C 6098   3.796  10.857   5.690 -0.2284 -0.0953  1.4555
   45MOL0     C 6099   3.926  10.847   5.627 -0.0408 -0.2744  0.5904
   45MOL0     C 6100   3.961  10.931   5.506 -0.2295 -0.1495  0.3889
   45MOL0     C 6101   4.022  10.754   5.688 -0.1827 -0.1978  0.8634
   45MOL0     C 6102   4.154  10.723   5.625  0.3904  0.2835 -0.6712
   45MOL0     O 6103   4.199  10.819   5.543 -0.4251 -0.1406 -0.9659
   45MOL0     C 6104   4.329  10.790   5.493 -0.5554  0.4973 -0.8188
   45MOL0     C 6105   4.360  10.680   5.411  0.2998 -0.5353  0.2699
   45MOL0     C 6106   4.494  10.665   5.367  0.2305 -0.0001  0.0574
   45MOL0     C 6107   4.595  10.753   5.401  0.3764 -0.3677 -0.5052
   45MOL0     O 6108   4.722  10.727   5.351  0.0393 -0.2617  0.2798
   45MOL0     C 6109   4.831  10.810   5.392  0.1500  0.6084 -0.1870
   45MOL0     C 6110   4.954  10.750   5.327 -0.3124  0.3828  0.4332
   45MOL0     C 6111   5.068  10.848   5.330 -0.3278  0.4392  0.5117
   45MOL0     C 6112   5.195  10.771   5.293 -0.2687  0.7370  0.0312
   45MOL0     C 6113   5.304  10.874   5.254 -0.6093  0.0237 -0.7255
   45MOL0     C 6114   5.442  10.824   5.295  0.1319  0.5343  0.2037
   45MOL0     C 6115   5.545  10.841   5.186 -0.9478  0.0092 -0.0806
   45MOL0     C 6116   5.688  10.834   5.251  0.4934  0.2798 -0.5882
   45MOL0    Cl 6117   5.729  10.687   5.354  0.6370  0.1670 -0.2455
   45MOL0     C 6118   4.559  10.862   5.470 -0.2105  0.6548  0.3438
   45MOL0     C 6119   4.432  10.884   5.516 -0.0272 -0.0395  0.3523
   45MOL0     O 6120   4.200  10.610   5.651  0.5366  0.4384  0.0529
   45MOL0     C 6121   3.984  10.690   5.807  0.1470  0.3927  0.2673
   45MOL0     C 6122   3.850  10.697   5.856  0.5625 -0.1111  1.0026
   45MOL0     N 6123   2.980  10.902   5.717  0.4140  0.1308  0.4222
   45MOL0     N 6124   2.858  10.944   5.713  0.4010 -0.1402  0.0223
   45MOL0     C 6125   1.506  10.982   5.952  0.4053  0.0781 -0.0794
   45MOL0     C 6126   1.420  11.056   5.872  0.4861 -0.0900  0.4198
   45MOL0     C 6127   1.207  11.358   5.651 -0.1890 -0.2520 -0.1669
   45MOL0     C 6128   1.188  11.292   5.529 -0.0996  0.2823  0.0261
   45MOL0     C 6129   1.079  11.333   5.444 -1.0553 -0.0643  0.7130
   45MOL0     C 6130   0.998  11.437   5.483  0.0677 -0.4379 -0.7480
   45MOL0     O 6131   0.883  11.454   5.407 -0.0561  0.5890  0.1755
   45MOL0     C 6132   0.840  11.581   5.364  0.2107 -0.3888 -0.0807
   45MOL0     C 6133   0.748  11.552   5.244 -1.0576 -0.3939  0.7720
   45MOL0     C 6134   0.607  11.535   5.296  1.4897 -0.3591  0.2788
   45MOL0     C 6135   0.510  11.495   5.189  0.2943 -0.4298 -0.0445
   45MOL0     C 6136   0.466  11.608   5.112 -0.0511  0.0499  1.3744
   45MOL0     C 6137   0.425  11.701   5.045  0.1142  0.0769 -0.4480
   45MOL0     C 6138   1.021  11.507   5.604 -0.4419  0.5163  0.2297
   45MOL0     C 6139   1.121  11.471   5.692  0.6645  0.3488 -0.0544
   45MOL0     C 6140   1.118  11.531   5.832 -1.0113 -0.5469  0.2307
   45MOL0     H 6141   1.649  11.155   5.640  0.4781 -0.3712 -0.0565
   45MOL0     H 6142   1.796  11.045   5.790  0.1225 -1.4598 -1.5576
   45MOL0     H 6143   1.830  10.799   5.886  1.5123  0.2248 -0.4099
   45MOL0     H 6144   1.836  10.754   6.053 -2.7133 -0.5886 -0.4281
   45MOL0     H 6145   1.952  11.004   5.954  0.6379 -0.1504  0.2997
   45MOL0     H 6146   1.976  10.921   6.110  0.8671  2.1220 -0.5553
   45MOL0     H 6147   2.069  10.743   6.005 -3.8344  0.9372  0.5191
   45MOL0     H 6148   2.077  10.813   5.837 -1.4087  0.8419 -0.3474
   45MOL0     H 6149   2.184  11.011   5.941 -0.9670 -1.6097 -3.1444
   45MOL0     H 6150   2.215  10.926   6.089 -1.7645 -2.8162  0.6321
   45MOL0     H 6151   2.308  10.835   5.820 -1.9739 -1.4528  0.5258
   45MOL0     H 6152   2.357  10.751   5.964  0.2228  0.6755  1.0746
   45MOL0     H 6153   2.426  11.047   5.915  2.6414  0.3545 -1.4795
   45MOL0     H 6154   2.471  10.939   6.055  1.9443  1.5968  0.7969
   45MOL0     H 6155   2.543  10.895   5.768  0.0571 -1.9469 -0.9377
   45MOL0     H 6156   2.590  10.794   5.914 -1.6796 -0.0794 -1.4612
   45MOL0     H 6157   2.658  11.086   5.847 -0.3091  1.0184  2.1629
   45MOL0     H 6158   2.697  11.016   6.003  0.0970  2.0997 -0.3912
   45MOL0     H 6159   2.908  10.864   6.036 -0.8948 -1.5164 -0.5622
   45MOL0     H 6160   3.136  10.706   5.838  0.0005 -0.4313  1.4608
   45MOL0     H 6161   3.150  10.798   5.988 -1.0464  0.0939  0.3451
   45MOL0     H 6162   3.263  10.913   5.723  2.8791 -0.1815 -0.3754
   45MOL0     H 6163   3.277  10.982   5.886  3.3765 -0.8352  1.4910
   45MOL0     H 6164   3.409  10.787   5.961 -1.3605  0.9764  0.3334
   45MOL0     H 6165   3.385  10.701   5.809  1.8017 -0.7612  1.5014
   45MOL0     H 6166   3.520  10.850   5.684  1.0882  0.2361 -0.1175
   45MOL0     H 6167   3.550  10.960   5.816  0.3269 -0.3172  0.5452
   45MOL0     H 6168   3.720  10.914   5.637  0.9332  1.9589  1.8721
   45MOL0     H 6169   3.883  10.978   5.446  1.5500  0.1564 -1.8461
   45MOL0     H 6170   4.009  10.869   5.430  2.8672 -0.6129  2.5438
   45MOL0     H 6171   4.031  11.009   5.538 -2.0026  0.7934  2.1343
   45MOL0     H 6172   4.279  10.618   5.372 -2.3844  2.8622 -0.0219
   45MOL0     H 6173   4.524  10.580   5.306  0.2380  0.3735 -0.4630
   45MOL0     H 6174   4.812  10.913   5.360  1.1586  0.6418 -0.7103
   45MOL0     H 6175   4.847  10.807   5.500 -2.6508  0.5041  0.3044
   45MOL0     H 6176   4.980  10.662   5.385 -0.4660  0.4587  0.6193
   45MOL0     H 6177   4.929  10.713   5.227 -1.2302  0.1342  0.7442
   45MOL0     H 6178   5.081  10.889   5.430 -1.4011 -0.9805  1.2637
   45MOL0     H 6179   5.051  10.926   5.255 -0.5363  4.1971  4.1268
   45MOL0     H 6180   5.189  10.696   5.214  0.2022 -0.8688  1.4557
   45MOL0     H 6181   5.231  10.723   5.385 -0.2724  3.0283  1.3063
   45MOL0     H 6182   5.306  10.893   5.146  1.1331 -1.1277 -0.9304
   45MOL0     H 6183   5.293  10.967   5.312  2.3239 -2.2153  3.9879
   45MOL0     H 6184   5.441  10.717   5.316  0.3178  0.8241  1.8557
   45MOL0     H 6185   5.474  10.861   5.393  1.7307  0.2373 -0.1824
   45MOL0     H 6186   5.532  10.942   5.145  0.6886  0.5432  0.6376
   45MOL0     H 6187   5.540  10.767   5.105 -2.2669 -2.1484  1.8389
   45MOL0     H 6188   5.710  10.912   5.324  0.5973 -1.4144  1.3049
   45MOL0     H 6189   5.762  10.841   5.170  0.8724  0.7883 -0.2030
   45MOL0     H 6190   4.635  10.938   5.482  0.8304 -0.6437  2.8851
   45MOL0     H 6191   4.423  10.974   5.576 -1.2655 -0.6834  1.1694
   45MOL0     H 6192   4.057  10.622   5.851  0.4440 -0.4799 -1.5025
   45MOL0     H 6193   3.839  10.634   5.943  1.1157 -2.2353 -0.3714
   45MOL0     H 6194   1.456  10.929   6.033  0.8580 -1.3226 -0.6831
   45MOL0     H 6195   1.313  11.050   5.891  0.3012 -1.2004 -0.7733
   45MOL0     H 6196   1.260  11.225   5.483  0.3822  2.0020 -1.9205
   45MOL0     H 6197   1.083  11.287   5.345  1.5605  1.8969 -0.2227
   45MOL0     H 6198   0.774  11.620   5.443 -1.1525 -1.4564 -0.6491
   45MOL0     H 6199   0.926  11.648   5.359  0.2357 -0.3727  0.4688
   45MOL0     H 6200   0.800  11.468   5.195 -1.4104 -1.1016  1.5802
   45MOL0     H 6201   0.744  11.646   5.188  0.5074  0.8685  2.6563
   45MOL0     H 6202   0.615  11.449   5.363  0.6357 -0.9134 -0.3109
   45MOL0     H 6203   0.565  11.623   5.346 -2.4922 -2.4843  1.0834
   45MOL0     H 6204   0.419  11.445   5.221  0.3134  0.0428  0.7525
   45MOL0     H 6205   0.565  11.424   5.126  2.3701  2.5458 -1.8985
   45MOL0     H 6206   0.398  11.774   4.971 -1.3774 -2.8118 -2.9967
   45MOL0     H 6207   0.948  11.583   5.630  0.7211  2.0233 -0.7505
   45MOL0     H 6208   1.086  11.457   5.906 -1.4739 -1.4333 -0.8114
   45MOL0     H 6209   1.212  11.577   5.861 -1.7291  0.7634  0.5685
   45MOL0     H 6210   1.044  11.612   5.832 -0.1269  0.3218 -1.9368
   46MOL0     O 6211   4.689   6.953   7.753 -0.4076 -0.5946  0.3363
   46MOL0     C 6212   4.721   6.992   7.863  0.4879  0.2890  0.2882
   46MOL0     O 6213   4.840   6.967   7.929  0.7293 -0.5008 -0.6239
   46MOL0     C 6214   4.953   6.926   7.864 -1.0988  0.8868 -0.6330
   46MOL0     C 6215   5.043   6.864   7.946 -0.1710  0.3909  0.2654
   46MOL0     C 6216   5.166   6.829   7.882 -0.4449  0.3161 -0.6048
   46MOL0     C 6217   5.202   6.857   7.750  0.0095 -0.2139 -0.3657
   46MOL0     O 6218   5.320   6.814   7.697 -0.3523  0.1040 -0.9077
   46MOL0     C 6219   5.387   6.879   7.589  0.3034 -0.5382  0.0127
   46MOL0     C 6220   5.519   6.808   7.561  0.4431  0.9745 -0.2472
   46MOL0     C 6221   5.607   6.811   7.695  0.9840  0.2924 -0.4307
   46MOL0     C 6222   5.728   6.912   7.678  0.0369 -0.1913  0.3725
   46MOL0     C 6223   5.790   6.957   7.804 -0.4307  0.2448  0.3900
   46MOL0     C 6224   5.913   6.873   7.835 -0.1881  0.3903 -0.0685
   46MOL0     C 6225   6.036   6.967   7.790 -0.2287 -0.2920 -0.0962
   46MOL0     C 6226   6.167   6.905   7.845 -1.2111  0.3214 -0.5336
   46MOL0     N 6227   6.283   6.956   7.780 -0.4804  0.2761  0.5036
   46MOL0     C 6228   6.314   6.910   7.659 -1.7283  0.0586  0.1397
   46MOL0     C 6229   6.442   6.950   7.648 -0.3617 -0.3373 -0.5609
   46MOL0     C 6230   6.530   6.917   7.527  0.1149 -0.8336  0.8362
   46MOL0     C 6231   6.572   6.764   7.520  0.3769  0.1023  0.3113
   46MOL0     C 6232   6.664   6.726   7.409 -0.5716 -0.1945 -0.1011
   46MOL0     C 6233   6.772   6.826   7.377 -1.0597 -0.1690 -0.3836
   46MOL0     O 6234   6.857   6.750   7.288  0.6198 -0.2447  0.2318
   46MOL0     C 6235   6.984   6.791   7.269  0.6693 -0.1888  0.0943
   46MOL0     C 6236   7.017   6.922   7.269  0.2376  0.0581  0.0809
   46MOL0     C 6237   7.146   6.970   7.259 -0.3123 -0.1624  0.3781
   46MOL0     C 6238   7.169   7.123   7.259 -0.5489  0.0843  0.4083
   46MOL0     C 6239   7.255   6.872   7.253 -0.0669  1.6969  0.5734
   46MOL0     C 6240   7.401   6.908   7.268  0.4824  0.1387  0.3394
   46MOL0     O 6241   7.438   7.015   7.342  0.1882 -0.0127  0.1954
   46MOL0     C 6242   7.567   7.041   7.356 -0.5156 -0.2240  0.4041
   46MOL0     C 6243   7.622   7.016   7.481 -0.9202  0.7940 -0.0337
   46MOL0     C 6244   7.760   7.046   7.498 -0.6657 -0.0704 -0.1621
   46MOL0     C 6245   7.837   7.090   7.387 -0.0085 -0.3517 -0.5248
   46MOL0     O 6246   7.969   7.116   7.390  0.1056 -0.1302  0.1796
   46MOL0     C 6247   8.029   7.162   7.510  0.4951 -0.2783 -0.4722
   46MOL0     C 6248   8.181   7.170   7.492 -0.0596  0.7403  0.4333
   46MOL0     C 6249   8.240   7.026   7.496 -0.9069  0.0330  0.2941
   46MOL0     C 6250   8.391   7.025   7.473 -0.2237  1.0762  0.2159
   46MOL0     C 6251   8.440   6.875   7.472 -0.3794  0.4291  0.0455
   46MOL0     C 6252   8.589   6.866   7.481  0.7450  0.2112  0.0262
   46MOL0     C 6253   8.649   6.727   7.452  0.6513  0.5394 -0.5978
   46MOL0     C 6254   8.799   6.726   7.425 -0.3696  0.2175 -0.0686
   46MOL0    Cl 6255   8.883   6.815   7.549 -0.1490  0.2858 -0.7738
   46MOL0     C 6256   7.775   7.118   7.264 -0.7391 -0.6424 -0.0037
   46MOL0     C 6257   7.643   7.089   7.244  0.3687  0.2780 -0.4720
   46MOL0     O 6258   7.480   6.823   7.226  0.1087  0.3724  0.3305
   46MOL0     C 6259   7.220   6.734   7.237  0.5625  1.1052  0.0910
   46MOL0     C 6260   7.088   6.702   7.254 -0.2641 -0.5576 -0.4815
   46MOL0     N 6261   6.481   7.008   7.761 -0.5675 -0.5362 -0.7452
   46MOL0     N 6262   6.384   7.017   7.840  0.0542  0.8503  0.8458
   46MOL0     C 6263   5.110   6.923   7.673  0.9387 -0.2285 -0.1512
   46MOL0     C 6264   4.981   6.955   7.732  0.2758 -0.4576  0.3090
   46MOL0     C 6265   4.626   7.057   7.958  0.4645  0.0948  0.1570
   46MOL0     C 6266   4.674   7.138   8.061 -0.6037  0.2552 -0.2416
   46MOL0     C 6267   4.588   7.208   8.148 -0.5030 -1.0637 -0.2109
   46MOL0     C 6268   4.449   7.201   8.130  0.2800  0.0517 -0.6776
   46MOL0     O 6269   4.357   7.261   8.208 -0.3022 -0.2885  0.0252
   46MOL0     C 6270   4.377   7.342   8.321 -0.3923  0.0706 -0.4836
   46MOL0     C 6271   4.422   7.483   8.267 -0.3762  0.7480  0.0851
   46MOL0     C 6272   4.431   7.593   8.378  0.4128 -0.1461 -0.0625
   46MOL0     C 6273   4.303   7.630   8.452 -0.0173  0.4536  0.3204
   46MOL0     C 6274   4.191   7.660   8.355  0.0589  0.4390 -0.7639
   46MOL0     C 6275   4.109   7.684   8.268 -0.1379  0.4449 -0.5787
   46MOL0     C 6276   4.401   7.110   8.032 -0.6548 -0.0798 -0.8812
   46MOL0     C 6277   4.484   7.042   7.939  0.4736 -0.1932  0.2422
   46MOL0     C 6278   4.418   6.944   7.850 -0.3157  0.1584 -0.7396
   46MOL0     H 6279   5.025   6.841   8.050  1.4292 -0.4183  0.3869
   46MOL0     H 6280   5.241   6.779   7.942  1.3030  1.2690 -1.9160
   46MOL0     H 6281   5.412   6.982   7.615  0.1746 -1.1164  2.6504
   46MOL0     H 6282   5.324   6.862   7.501  1.2681  1.5710 -1.1419
   46MOL0     H 6283   5.489   6.705   7.536 -3.8085  1.6942  1.0680
   46MOL0     H 6284   5.570   6.861   7.480 -1.2867  0.8053 -1.5158
   46MOL0     H 6285   5.546   6.836   7.782  1.1377 -1.3577  0.1854
   46MOL0     H 6286   5.652   6.713   7.714  0.4177 -0.0511 -0.8176
   46MOL0     H 6287   5.796   6.890   7.596  0.9477 -1.5591  1.4416
   46MOL0     H 6288   5.670   6.997   7.642 -1.4654 -1.2992  0.0403
   46MOL0     H 6289   5.727   6.942   7.892  1.3091  0.4058  1.7315
   46MOL0     H 6290   5.824   7.061   7.799 -1.3328  0.4704 -2.9033
   46MOL0     H 6291   5.916   6.861   7.944  0.9914  1.0114 -0.0239
   46MOL0     H 6292   5.919   6.771   7.796  0.6566 -0.0686  1.2052
   46MOL0     H 6293   6.038   7.066   7.837  1.3889 -0.2732 -0.1703
   46MOL0     H 6294   6.041   6.981   7.682 -3.0075  3.0160 -0.0093
   46MOL0     H 6295   6.181   6.941   7.947 -0.2425 -1.1544 -0.1117
   46MOL0     H 6296   6.166   6.796   7.838 -3.0462  0.3422 -0.9710
   46MOL0     H 6297   6.250   6.858   7.587 -2.2014  1.6047 -0.6046
   46MOL0     H 6298   6.620   6.979   7.533 -0.3622  0.5241 -3.2294
   46MOL0     H 6299   6.489   6.943   7.429  1.2984  0.7034  0.7099
   46MOL0     H 6300   6.627   6.741   7.612  4.5394  1.2883 -1.6581
   46MOL0     H 6301   6.483   6.703   7.536 -0.6350  1.8165  1.6290
   46MOL0     H 6302   6.707   6.634   7.449 -3.0983 -1.9220 -1.0836
   46MOL0     H 6303   6.611   6.705   7.315  0.7586  0.5392 -1.0439
   46MOL0     H 6304   6.730   6.915   7.331  0.2656  0.7390  0.1108
   46MOL0     H 6305   6.824   6.853   7.469 -0.9554  1.6808 -0.9553
   46MOL0     H 6306   6.936   6.994   7.272  0.9140  0.7976  1.1621
   46MOL0     H 6307   7.197   7.161   7.358  0.4735 -0.8203  0.4929
   46MOL0     H 6308   7.077   7.174   7.231 -2.4837 -3.3689 -0.0651
   46MOL0     H 6309   7.250   7.156   7.193  0.9951 -0.3121  2.0084
   46MOL0     H 6310   7.549   6.997   7.559  0.4583  0.2910  1.1840
   46MOL0     H 6311   7.807   7.041   7.595 -0.8364  0.5466 -0.0414
   46MOL0     H 6312   7.989   7.260   7.540 -0.2175 -0.7208  0.0453
   46MOL0     H 6313   8.008   7.087   7.587 -1.3013 -2.6586 -3.0699
   46MOL0     H 6314   8.211   7.230   7.406  0.8699 -0.7217 -0.3125
   46MOL0     H 6315   8.224   7.211   7.584 -2.0271 -2.1936  2.8847
   46MOL0     H 6316   8.189   6.956   7.430  0.7965 -0.7862 -0.1912
   46MOL0     H 6317   8.222   6.975   7.591 -3.1460  0.3280  0.0910
   46MOL0     H 6318   8.459   7.071   7.546  1.8324 -3.1521  1.2718
   46MOL0     H 6319   8.417   7.075   7.379 -3.2830  3.2812  0.3984
   46MOL0     H 6320   8.396   6.816   7.552  1.5484 -0.0979  0.7924
   46MOL0     H 6321   8.408   6.814   7.387 -1.6372  1.1432 -0.0129
   46MOL0     H 6322   8.620   6.899   7.580 -2.2524  0.7109  0.8964
   46MOL0     H 6323   8.631   6.933   7.406  0.8055  1.9509  1.5546
   46MOL0     H 6324   8.598   6.682   7.366  2.0538 -0.7305 -0.8169
   46MOL0     H 6325   8.627   6.665   7.539  1.7693 -0.5934 -1.0925
   46MOL0     H 6326   8.814   6.773   7.328  3.0535 -0.1416  0.1832
   46MOL0     H 6327   8.824   6.619   7.416 -0.1474  0.2496  0.1854
   46MOL0     H 6328   7.836   7.169   7.190 -0.0371  0.7434  1.4534
   46MOL0     H 6329   7.598   7.117   7.150  0.7114 -0.5898 -0.9073
   46MOL0     H 6330   7.294   6.654   7.233 -0.9328 -0.3835  1.0219
   46MOL0     H 6331   7.048   6.601   7.252 -1.8825 -0.1112  2.9705
   46MOL0     H 6332   5.120   6.958   7.571 -0.2483 -0.7749 -0.4707
   46MOL0     H 6333   4.911   7.008   7.668  1.6478 -2.1604 -2.8191
   46MOL0     H 6334   4.782   7.144   8.078 -0.9179  1.6072  1.5675
   46MOL0     H 6335   4.621   7.269   8.231 -1.2687 -1.4525  0.3920
   46MOL0     H 6336   4.282   7.350   8.376 -0.7916 -4.5629 -0.0871
   46MOL0     H 6337   4.460   7.304   8.380  0.0706 -0.3088 -1.3525
   46MOL0     H 6338   4.356   7.516   8.187  1.4497  1.5250 -1.1787
   46MOL0     H 6339   4.519   7.468   8.217 -1.0878  0.6392 -1.2944
   46MOL0     H 6340   4.511   7.571   8.450  0.3568 -0.2304 -0.0249
   46MOL0     H 6341   4.467   7.684   8.328  0.4075 -0.2000 -0.1627
   46MOL0     H 6342   4.328   7.720   8.509  2.2267  0.9020 -1.2734
   46MOL0     H 6343   4.271   7.555   8.526 -0.4573 -0.1955 -0.5051
   46MOL0     H 6344   4.028   7.699   8.200  0.4686 -0.4536 -1.5186
   46MOL0     H 6345   4.297   7.083   8.017 -0.9689  0.9647 -0.6673
   46MOL0     H 6346   4.311   6.935   7.867 -0.3871  3.8108  1.7184
   46MOL0     H 6347   4.430   6.980   7.747  3.2382  4.9260  0.9584
   46MOL0     H 6348   4.459   6.843   7.853  1.2203  0.7500 -0.6899
   47MOL0     O 6349   2.372   8.373   6.806 -0.5890  0.2468 -0.1280
   47MOL0     C 6350   2.376   8.430   6.698  0.4875  0.3219 -0.0141
   47MOL0     O 6351   2.490   8.476   6.645 -0.3001 -0.1286  0.4592
   47MOL0     C 6352   2.618   8.456   6.700 -0.7378 -1.1790 -0.3674
   47MOL0     C 6353   2.672   8.522   6.814 -0.4145  0.3692  0.1036
   47MOL0     C 6354   2.789   8.475   6.873 -0.3244 -0.3278 -0.3978
   47MOL0     C 6355   2.862   8.370   6.819 -0.0428  0.4871 -0.5229
   47MOL0     O 6356   2.975   8.324   6.882  0.4918 -0.2393 -0.2029
   47MOL0     C 6357   2.978   8.182   6.917  0.2589  0.8362 -0.0709
   47MOL0     C 6358   3.021   8.167   7.070  0.6366 -0.0189 -0.0922
   47MOL0     C 6359   3.153   8.235   7.112  0.4645 -0.2501  0.0950
   47MOL0     C 6360   3.195   8.202   7.252  0.5319  0.3993  0.2127
   47MOL0     C 6361   3.322   8.265   7.288 -0.1874  0.2218  0.8183
   47MOL0     C 6362   3.366   8.233   7.434 -0.2244 -0.0209  0.2427
   47MOL0     C 6363   3.506   8.279   7.464  0.1085  0.7391  0.8418
   47MOL0     C 6364   3.535   8.264   7.611  0.5387 -0.3496 -0.6841
   47MOL0     N 6365   3.673   8.303   7.652 -0.5895  1.2825 -0.0398
   47MOL0     C 6366   3.792   8.231   7.638  0.5381 -0.0906  0.7287
   47MOL0     C 6367   3.891   8.323   7.649  0.1311 -0.7236  0.8470
   47MOL0     C 6368   4.035   8.299   7.622 -1.0001  0.4315  0.3085
   47MOL0     C 6369   4.127   8.370   7.723 -0.2931 -0.2567  0.6572
   47MOL0     C 6370   4.109   8.310   7.865 -0.6096  0.7390  0.3132
   47MOL0     C 6371   4.235   8.334   7.953 -0.4135  0.0223 -0.3874
   47MOL0     O 6372   4.244   8.472   7.992  0.4106  0.5457 -0.1372
   47MOL0     C 6373   4.359   8.524   8.047  0.3062 -0.2063  0.5278
   47MOL0     C 6374   4.463   8.443   8.106 -0.1096  0.0726  0.3069
   47MOL0     C 6375   4.570   8.507   8.162 -0.4275  0.2471  0.2937
   47MOL0     C 6376   4.675   8.425   8.238  0.3366  0.0928 -0.0976
   47MOL0     C 6377   4.583   8.649   8.148 -0.2477  0.2988 -0.0829
   47MOL0     C 6378   4.690   8.727   8.202 -0.0271  0.2100 -0.6348
   47MOL0     O 6379   4.810   8.664   8.217 -0.3868  0.9081 -0.1257
   47MOL0     C 6380   4.920   8.731   8.260  1.0270  0.1027  0.0105
   47MOL0     C 6381   5.043   8.699   8.208 -0.3477  0.5096  0.1129
   47MOL0     C 6382   5.157   8.735   8.282 -1.0869  0.6403 -0.0503
   47MOL0     C 6383   5.155   8.790   8.400 -0.0692 -1.6772  0.4772
   47MOL0     O 6384   5.278   8.816   8.460  0.6282  0.7780  0.3280
   47MOL0     C 6385   5.295   8.928   8.547  0.3096  0.5033 -0.3184
   47MOL0     C 6386   5.440   8.896   8.587  0.7111 -0.2283 -0.1763
   47MOL0     C 6387   5.486   8.969   8.716 -0.3695  0.2169 -0.2938
   47MOL0     C 6388   5.636   8.936   8.749  0.5810  0.7641  0.0819
   47MOL0     C 6389   5.665   8.792   8.798 -0.2188  0.7798  0.4709
   47MOL0     C 6390   5.813   8.753   8.784  0.4051  0.7428 -0.0607
   47MOL0     C 6391   5.848   8.627   8.865  0.3376 -0.1923 -0.0242
   47MOL0     C 6392   5.963   8.540   8.829 -0.1748  0.0720  0.2915
   47MOL0    Cl 6393   5.900   8.421   8.716 -0.1072 -0.0686 -0.1503
   47MOL0     C 6394   5.027   8.837   8.441  0.1163 -0.3831 -0.1360
   47MOL0     C 6395   4.907   8.810   8.379 -0.3616  0.4063  0.1695
   47MOL0     O 6396   4.669   8.843   8.231 -0.3346 -0.4193 -0.2013
   47MOL0     C 6397   4.483   8.721   8.082  0.5927 -0.8248 -0.5493
   47MOL0     C 6398   4.370   8.663   8.033 -0.7439 -0.1533 -0.6698
   47MOL0     N 6399   3.834   8.451   7.672 -0.3493  0.0354  0.0060
   47MOL0     N 6400   3.703   8.433   7.684 -0.3330 -0.4044 -0.0736
   47MOL0     C 6401   2.818   8.316   6.700 -0.3810  0.0116 -0.2335
   47MOL0     C 6402   2.703   8.360   6.638 -0.2264 -0.1188  0.2633
   47MOL0     C 6403   2.257   8.458   6.620 -0.6421 -0.1438 -0.1633
   47MOL0     C 6404   2.269   8.567   6.532 -0.1631  0.1841  1.1138
   47MOL0     C 6405   2.160   8.594   6.443 -0.0876 -0.3124  0.0335
   47MOL0     C 6406   2.049   8.514   6.441  0.2561 -1.5198 -0.2341
   47MOL0     O 6407   1.941   8.531   6.355  0.0226 -0.5276 -0.1074
   47MOL0     C 6408   1.934   8.641   6.269  0.5950 -0.4876  0.1043
   47MOL0     C 6409   1.901   8.769   6.344 -0.1188 -0.0842  0.2124
   47MOL0     C 6410   1.756   8.817   6.303 -0.1233  0.0619  0.2561
   47MOL0     C 6411   1.733   8.959   6.356 -0.1788  1.0263 -0.0576
   47MOL0     C 6412   1.609   9.025   6.313 -0.4952  0.2140 -0.1382
   47MOL0     C 6413   1.507   9.073   6.275 -0.2254  0.0085 -0.1836
   47MOL0     C 6414   2.038   8.419   6.537 -0.0810  0.3310  0.5029
   47MOL0     C 6415   2.143   8.379   6.620 -0.9243 -0.0685 -0.6492
   47MOL0     C 6416   2.126   8.260   6.712  0.1369  0.2367 -0.0261
   47MOL0     H 6417   2.606   8.597   6.857  0.0346  0.5484  0.4994
   47MOL0     H 6418   2.828   8.514   6.966  0.7740  0.5811 -1.2038
   47MOL0     H 6419   3.060   8.134   6.862  1.1666 -0.2288  2.0894
   47MOL0     H 6420   2.882   8.132   6.900  1.2190 -0.4961 -2.0308
   47MOL0     H 6421   2.936   8.204   7.127  0.0282 -0.6089 -0.5972
   47MOL0     H 6422   3.034   8.064   7.102  2.0531  0.2631  0.3135
   47MOL0     H 6423   3.235   8.210   7.045  1.1305 -2.1390  1.5224
   47MOL0     H 6424   3.137   8.344   7.112  1.6017  0.0667  4.1355
   47MOL0     H 6425   3.122   8.249   7.320 -1.0948 -0.6455 -0.7443
   47MOL0     H 6426   3.199   8.093   7.259  2.5501  0.4314  0.0016
   47MOL0     H 6427   3.315   8.373   7.279  0.4410  0.4476  2.7227
   47MOL0     H 6428   3.405   8.236   7.221 -0.2903 -2.0081  1.5701
   47MOL0     H 6429   3.296   8.291   7.495 -0.2583 -1.8826  2.0815
   47MOL0     H 6430   3.360   8.127   7.462  1.9432  0.0395  1.1604
   47MOL0     H 6431   3.514   8.385   7.439  1.2914  0.3124 -0.7388
   47MOL0     H 6432   3.582   8.234   7.400 -0.2080 -0.8771  1.5503
   47MOL0     H 6433   3.458   8.313   7.671 -0.5404 -1.8429 -0.7982
   47MOL0     H 6434   3.530   8.157   7.632  3.5169 -0.1248  2.0570
   47MOL0     H 6435   3.814   8.128   7.610 -0.8812 -0.1759 -0.1822
   47MOL0     H 6436   4.060   8.346   7.526 -0.2533 -0.6811 -0.0726
   47MOL0     H 6437   4.064   8.196   7.598 -0.3028  0.6089  0.3784
   47MOL0     H 6438   4.230   8.347   7.695 -0.2529  0.0193  0.5739
   47MOL0     H 6439   4.106   8.477   7.729 -1.5324 -0.3850 -0.7422
   47MOL0     H 6440   4.031   8.370   7.912  1.2444  0.8333  3.5637
   47MOL0     H 6441   4.085   8.203   7.859 -1.9302  0.8894  2.0314
   47MOL0     H 6442   4.231   8.277   8.046 -0.9934 -3.1058 -2.2135
   47MOL0     H 6443   4.325   8.311   7.894  1.4047  1.4844  1.6205
   47MOL0     H 6444   4.464   8.335   8.093 -0.4066 -0.1609  1.9691
   47MOL0     H 6445   4.616   8.334   8.257  1.0402 -0.4312 -0.3739
   47MOL0     H 6446   4.690   8.471   8.336  0.4224 -2.6367  1.2613
   47MOL0     H 6447   4.768   8.421   8.182  0.7007 -0.3574  0.5291
   47MOL0     H 6448   5.059   8.644   8.115 -4.2294 -1.7343  0.5788
   47MOL0     H 6449   5.254   8.715   8.238 -1.3302  3.1187 -1.8964
   47MOL0     H 6450   5.291   9.026   8.498  0.1802  1.1506  0.9615
   47MOL0     H 6451   5.226   8.922   8.631 -0.6237 -1.0754 -1.1374
   47MOL0     H 6452   5.453   8.787   8.595 -0.8089 -0.5086 -1.0621
   47MOL0     H 6453   5.501   8.915   8.498  1.7951  0.7931  0.7576
   47MOL0     H 6454   5.422   8.932   8.796  0.3606 -2.6660 -0.9302
   47MOL0     H 6455   5.474   9.077   8.703 -2.8492 -0.0355 -0.5259
   47MOL0     H 6456   5.663   9.003   8.831  0.7214 -1.3639  1.8801
   47MOL0     H 6457   5.698   8.966   8.664  1.4841  4.3578  1.8092
   47MOL0     H 6458   5.641   8.784   8.904  1.4503 -1.1699  0.7705
   47MOL0     H 6459   5.619   8.713   8.737  1.5795  0.9528 -1.2085
   47MOL0     H 6460   5.873   8.841   8.809  0.4395  0.6108  0.3328
   47MOL0     H 6461   5.840   8.724   8.682  0.2938  0.8212 -0.1122
   47MOL0     H 6462   5.766   8.555   8.851 -0.1476  0.4437 -0.5460
   47MOL0     H 6463   5.846   8.662   8.969 -2.2141  0.8333 -0.3424
   47MOL0     H 6464   5.997   8.481   8.915  0.4400  0.1413  0.1070
   47MOL0     H 6465   6.046   8.600   8.789 -0.1571 -0.3684 -0.3361
   47MOL0     H 6466   5.023   8.891   8.536 -0.9546 -0.4159 -0.1580
   47MOL0     H 6467   4.818   8.833   8.437 -0.0139  1.4520  0.3192
   47MOL0     H 6468   4.502   8.827   8.073 -0.6508 -0.7132 -2.3025
   47MOL0     H 6469   4.287   8.707   7.978  0.2018 -0.7929 -2.7278
   47MOL0     H 6470   2.881   8.255   6.636  0.2137  1.9213 -1.5536
   47MOL0     H 6471   2.669   8.309   6.549  0.3758  1.3448 -0.8448
   47MOL0     H 6472   2.348   8.642   6.536 -0.7013  0.7137  3.4660
   47MOL0     H 6473   2.173   8.669   6.367 -0.2758  1.7941  1.9671
   47MOL0     H 6474   2.029   8.653   6.216  0.5423 -2.5648 -0.5376
   47MOL0     H 6475   1.863   8.627   6.188  0.1405 -1.9169  0.7190
   47MOL0     H 6476   1.974   8.846   6.316  1.5174 -0.6087  2.6932
   47MOL0     H 6477   1.896   8.749   6.451  0.9384 -1.2914  0.0624
   47MOL0     H 6478   1.742   8.814   6.194  0.0834 -0.5103  0.2440
   47MOL0     H 6479   1.681   8.756   6.354 -4.3886  3.6377 -1.0473
   47MOL0     H 6480   1.820   9.024   6.341 -0.1161  0.7470 -0.9736
   47MOL0     H 6481   1.731   8.940   6.464 -2.3080 -2.6367 -0.5438
   47MOL0     H 6482   1.404   9.096   6.255 -0.6327 -0.7852  0.9216
   47MOL0     H 6483   1.945   8.363   6.543 -0.1453  0.5322  1.6661
   47MOL0     H 6484   2.113   8.292   6.816 -1.0601 -1.0149  0.2412
   47MOL0     H 6485   2.032   8.213   6.681  0.8616 -0.3268 -1.4643
   47MOL0     H 6486   2.211   8.194   6.696  0.1004 -0.0936  1.0541
   48MOL0     O 6487   7.840  10.453   2.501  0.8161 -0.1372 -0.4411
   48MOL0     C 6488   7.804  10.331   2.493 -0.6065  0.4454 -0.4860
   48MOL0     O 6489   7.858  10.244   2.407 -0.5063  0.7917 -0.0551
   48MOL0     C 6490   7.993  10.242   2.382  0.0002  1.4207 -0.6364
   48MOL0     C 6491   8.095  10.291   2.468  0.5976 -0.1149  0.3574
   48MOL0     C 6492   8.234  10.281   2.447  0.2221 -0.1851 -0.7320
   48MOL0     C 6493   8.273  10.223   2.326 -0.0396  0.4531 -0.7167
   48MOL0     O 6494   8.401  10.204   2.286 -0.0591  0.1466 -0.0950
   48MOL0     C 6495   8.486  10.138   2.376  0.3367  0.4814 -0.0658
   48MOL0     C 6496   8.611  10.094   2.300  0.7424  0.7584 -0.1157
   48MOL0     C 6497   8.650   9.944   2.337  1.1221 -0.8138  0.0286
   48MOL0     C 6498   8.760   9.932   2.447 -0.5385  0.2142 -0.1107
   48MOL0     C 6499   8.876   9.844   2.407  0.0642  0.0247  0.2242
   48MOL0     C 6500   8.965   9.935   2.326 -0.3461 -0.3390  0.6023
   48MOL0     C 6501   9.058   9.863   2.232  0.0991  0.8157  0.4722
   48MOL0     C 6502   9.136   9.757   2.303 -0.0866  0.7425  0.6070
   48MOL0     N 6503   9.241   9.815   2.383 -0.2857  0.0036 -0.6685
   48MOL0     C 6504   9.234   9.832   2.524 -0.2880  0.4100 -0.2266
   48MOL0     C 6505   9.359   9.887   2.547  0.2820  0.0802  0.0914
   48MOL0     C 6506   9.425   9.901   2.677  0.3785 -0.4224 -0.1494
   48MOL0     C 6507   9.399   9.775   2.762  0.7418  0.6029  0.3887
   48MOL0     C 6508   9.469   9.798   2.903 -1.4148  0.2903  0.0415
   48MOL0     C 6509   9.611   9.744   2.898 -0.5084  0.3296  0.9097
   48MOL0     O 6510   9.609   9.610   2.874 -0.1595  0.4394 -0.0401
   48MOL0     C 6511   9.735   9.540   2.859 -0.1747 -0.2005 -0.0804
   48MOL0     C 6512   9.866   9.591   2.886  0.8330  0.2791  0.3365
   48MOL0     C 6513   9.973   9.501   2.901 -0.6796  0.7800  0.0237
   48MOL0     C 6514  10.098   9.553   2.957  0.0117  0.1326  0.0986
   48MOL0     C 6515   9.956   9.360   2.885 -0.2236 -0.6953  0.5523
   48MOL0     C 6516  10.066   9.264   2.895  0.2148 -0.5386 -0.2510
   48MOL0     O 6517  10.169   9.274   2.809  0.7423  0.6077 -0.1328
   48MOL0     C 6518  10.293   9.230   2.841  0.1082  0.0936 -0.0125
   48MOL0     C 6519  10.353   9.261   2.971 -0.5635 -0.0759 -0.6275
   48MOL0     C 6520  10.493   9.235   2.987 -0.5473 -0.0461 -0.2429
   48MOL0     C 6521  10.561   9.163   2.881 -0.5422 -0.7150 -0.3390
   48MOL0     O 6522  10.694   9.127   2.896  0.2091  0.0305 -0.4518
   48MOL0     C 6523  10.712   9.024   3.001 -0.0837  0.3378  0.0375
   48MOL0     C 6524  10.795   8.912   2.940  0.0026  0.6566 -0.7833
   48MOL0     C 6525  10.936   8.955   2.895 -0.5724 -0.0289  0.4300
   48MOL0     C 6526  11.022   8.839   2.840  0.6247 -0.6797  0.3250
   48MOL0     C 6527  11.157   8.897   2.772  0.0951 -0.1503 -0.0888
   48MOL0     C 6528  11.220   9.016   2.842 -0.1009 -0.0511 -0.2197
   48MOL0     C 6529  11.296   8.976   2.975  0.3430  0.7598 -0.3081
   48MOL0     C 6530  11.385   9.099   3.025 -0.1724 -0.4503 -0.3131
   48MOL0    Cl 6531  11.288   9.244   3.061  0.3673 -0.0987 -0.2391
   48MOL0     C 6532  10.496   9.133   2.760 -0.4672 -0.0012 -0.0043
   48MOL0     C 6533  10.362   9.169   2.735 -0.3522 -0.5741 -0.3119
   48MOL0     O 6534  10.056   9.178   2.985  0.1950  0.0099  0.2888
   48MOL0     C 6535   9.827   9.312   2.855  0.7283  0.0795  0.3082
   48MOL0     C 6536   9.724   9.405   2.839  0.1844 -0.4448 -0.5699
   48MOL0     N 6537   9.421   9.906   2.427 -0.0730  0.9348  1.0381
   48MOL0     N 6538   9.350   9.878   2.321 -0.1461  0.0455  0.8046
   48MOL0     C 6539   8.178  10.174   2.239 -0.3872  0.3520  0.4696
   48MOL0     C 6540   8.040  10.185   2.265  0.5311 -0.5833  0.0775
   48MOL0     C 6541   7.676  10.289   2.549  0.2201 -0.1803  0.2372
   48MOL0     C 6542   7.594  10.219   2.460 -0.4171 -0.9380  0.1784
   48MOL0     C 6543   7.456  10.207   2.483  0.2344  0.1882 -0.0021
   48MOL0     C 6544   7.404  10.253   2.602  0.5414 -0.3988 -0.1945
   48MOL0     O 6545   7.263  10.243   2.618 -0.1812 -0.2444  0.1348
   48MOL0     C 6546   7.213  10.266   2.749  0.2510 -0.8168  0.5817
   48MOL0     C 6547   7.058  10.236   2.751 -0.3561  0.1540 -0.5040
   48MOL0     C 6548   7.031  10.090   2.722  0.4411 -0.1418  0.7829
   48MOL0     C 6549   7.037   9.997   2.840  0.5602 -0.4342 -0.2452
   48MOL0     C 6550   7.168   9.976   2.897  0.2049 -0.3801 -0.2974
   48MOL0     C 6551   7.274   9.981   2.946 -0.6399  0.0092  0.3724
   48MOL0     C 6552   7.491  10.309   2.696  0.4600 -0.0823 -0.0457
   48MOL0     C 6553   7.625  10.339   2.667  0.5108 -0.9544  0.0959
   48MOL0     C 6554   7.707  10.411   2.768 -0.6156  0.5168 -0.4746
   48MOL0     H 6555   8.057  10.344   2.554 -2.0616  0.0687 -0.8355
   48MOL0     H 6556   8.302  10.319   2.523  0.8197 -0.2294 -1.2328
   48MOL0     H 6557   8.446  10.049   2.426  0.6159  2.7675  4.6974
   48MOL0     H 6558   8.513  10.207   2.455  3.1878  1.8018 -2.0304
   48MOL0     H 6559   8.607  10.104   2.191  0.9229  0.3749 -0.1591
   48MOL0     H 6560   8.697  10.157   2.324  1.2126 -0.2355  0.8921
   48MOL0     H 6561   8.566   9.879   2.360 -0.0655  0.3318 -0.9594
   48MOL0     H 6562   8.699   9.904   2.248  1.7657  0.7962 -0.3753
   48MOL0     H 6563   8.789  10.030   2.486 -2.9341  0.1449  2.1311
   48MOL0     H 6564   8.710   9.887   2.533 -2.9652  1.3167 -0.8462
   48MOL0     H 6565   8.851   9.750   2.358 -3.2763  0.5376  0.6698
   48MOL0     H 6566   8.924   9.813   2.500  0.5683  3.7251  1.3672
   48MOL0     H 6567   8.898  10.000   2.269 -1.5305 -2.3583 -0.4263
   48MOL0     H 6568   9.009   9.981   2.415  1.7487 -2.6058  0.8526
   48MOL0     H 6569   9.131   9.913   2.167  0.0005 -0.0002 -0.2880
   48MOL0     H 6570   9.003   9.810   2.154  1.3333 -0.2185  0.2802
   48MOL0     H 6571   9.071   9.702   2.371 -2.8391  2.5279 -0.4188
   48MOL0     H 6572   9.176   9.691   2.225 -1.6145 -0.1204  0.5149
   48MOL0     H 6573   9.155   9.819   2.597 -0.3493 -1.5055 -0.6023
   48MOL0     H 6574   9.378   9.988   2.725  1.4170 -0.1602  0.4272
   48MOL0     H 6575   9.530   9.930   2.663  0.0926  0.4095 -0.6473
   48MOL0     H 6576   9.292   9.753   2.767  1.4254 -3.3819  0.8003
   48MOL0     H 6577   9.445   9.694   2.704  1.5882  1.1223  0.3108
   48MOL0     H 6578   9.465   9.903   2.934 -1.9287  0.5967 -0.9975
   48MOL0     H 6579   9.422   9.737   2.980 -0.4691 -2.2796 -1.3090
   48MOL0     H 6580   9.674   9.794   2.822 -3.1784  1.2802 -0.8162
   48MOL0     H 6581   9.661   9.756   2.994  2.5184 -2.0530 -0.2085
   48MOL0     H 6582   9.882   9.697   2.904  0.5208  1.3220 -4.3116
   48MOL0     H 6583  10.107   9.655   2.918  0.0638  0.3099  0.5632
   48MOL0     H 6584  10.197   9.513   2.931  0.7903  2.6348 -1.0552
   48MOL0     H 6585  10.088   9.541   3.066 -1.4782 -0.7845 -0.1191
   48MOL0     H 6586  10.303   9.324   3.043  1.1047  1.4919 -0.7705
   48MOL0     H 6587  10.547   9.271   3.074 -0.2195  0.4443 -0.6449
   48MOL0     H 6588  10.776   9.057   3.083 -0.0872 -0.8989  0.5722
   48MOL0     H 6589  10.618   8.981   3.037 -0.1065 -2.6466 -3.0077
   48MOL0     H 6590  10.818   8.833   3.011 -1.0004  1.3967  0.3980
   48MOL0     H 6591  10.741   8.877   2.851 -1.8475  1.4725 -0.0442
   48MOL0     H 6592  11.000   8.992   2.976  2.5652  1.8160 -2.5966
   48MOL0     H 6593  10.930   9.039   2.825 -0.3704 -0.7785 -0.5024
   48MOL0     H 6594  10.965   8.788   2.762 -2.1498 -0.1391  1.8710
   48MOL0     H 6595  11.042   8.765   2.917 -3.2852 -3.3476 -0.8934
   48MOL0     H 6596  11.229   8.816   2.762  0.8422  0.6469 -1.3349
   48MOL0     H 6597  11.130   8.935   2.673  0.9142  0.6740 -0.0078
   48MOL0     H 6598  11.139   9.090   2.847  0.6190  0.9459 -2.0939
   48MOL0     H 6599  11.301   9.062   2.784  1.3676  0.4960  2.1308
   48MOL0     H 6600  11.362   8.891   2.959  0.7617  1.0980 -0.4045
   48MOL0     H 6601  11.230   8.944   3.056  0.2105  2.4010  0.2931
   48MOL0     H 6602  11.459   9.128   2.950 -0.4294  0.8624 -0.0839
   48MOL0     H 6603  11.437   9.065   3.115 -0.7587 -2.0912 -0.5594
   48MOL0     H 6604  10.538   9.070   2.683 -1.1200 -0.3472 -0.0909
   48MOL0     H 6605  10.320   9.150   2.637 -0.9225 -1.9320  0.1658
   48MOL0     H 6606   9.805   9.207   2.844  1.7565 -0.0902 -0.2893
   48MOL0     H 6607   9.621   9.379   2.819 -0.4058  2.7360 -2.1509
   48MOL0     H 6608   8.215  10.129   2.147 -1.0632  0.2909  0.2174
   48MOL0     H 6609   7.972  10.149   2.189  1.9665 -1.2816 -0.9226
   48MOL0     H 6610   7.628  10.192   2.361 -0.1717  3.9043 -1.3146
   48MOL0     H 6611   7.386  10.174   2.406  0.1296 -1.7152  0.8481
   48MOL0     H 6612   7.277  10.213   2.821  0.4613 -1.4347 -0.0533
   48MOL0     H 6613   7.230  10.370   2.777 -1.3023 -0.5556  0.6211
   48MOL0     H 6614   7.015  10.300   2.673 -0.3990  2.2048  1.1015
   48MOL0     H 6615   7.023  10.265   2.850 -0.3691 -2.0167  0.1610
   48MOL0     H 6616   6.934  10.082   2.672 -0.2147 -2.6564  2.2227
   48MOL0     H 6617   7.098  10.055   2.643 -0.2576  2.9005 -1.3362
   48MOL0     H 6618   6.994   9.900   2.813 -1.7729  0.5945 -0.5126
   48MOL0     H 6619   6.970  10.041   2.915  0.8911 -0.6750  0.1925
   48MOL0     H 6620   7.371   9.990   2.988 -0.7727  1.6444  0.3735
   48MOL0     H 6621   7.446  10.323   2.794 -0.3372 -1.1069 -0.2542
   48MOL0     H 6622   7.741  10.508   2.732 -0.6837  0.4412 -0.7515
   48MOL0     H 6623   7.648  10.425   2.859  0.3603  0.9213  0.1064
   48MOL0     H 6624   7.797  10.354   2.794 -1.5793 -1.6706 -1.6416
   49MOL0     O 6625   5.807   3.215   7.076  0.3265  0.2216 -0.9588
   49MOL0     C 6626   5.782   3.328   7.033 -0.1384 -0.2244 -0.0847
   49MOL0     O 6627   5.875   3.419   6.983  0.2445  0.3741  0.0805
   49MOL0     C 6628   6.011   3.382   6.978 -0.0829  0.3990  0.9694
   49MOL0     C 6629   6.103   3.492   6.995 -0.2236  0.0802  0.5897
   49MOL0     C 6630   6.233   3.471   6.974  0.2425  0.7251 -0.4211
   49MOL0     C 6631   6.283   3.342   6.936  0.6866 -0.4845  0.5151
   49MOL0     O 6632   6.424   3.328   6.933 -0.0446  0.9090 -0.3727
   49MOL0     C 6633   6.487   3.207   6.889  0.3015  0.8030  0.1208
   49MOL0     C 6634   6.645   3.230   6.896  0.2545  0.5915 -0.1728
   49MOL0     C 6635   6.678   3.340   6.796 -0.3473  0.3953  1.0758
   49MOL0     C 6636   6.833   3.358   6.773  0.3781 -0.4686 -0.2846
   49MOL0     C 6637   6.889   3.428   6.899 -0.4185 -0.4510  0.5900
   49MOL0     C 6638   7.030   3.475   6.877 -0.4517 -0.4607 -0.1730
   49MOL0     C 6639   7.091   3.501   7.016 -0.1582 -0.6269  0.5190
   49MOL0     C 6640   7.106   3.379   7.103  0.3677 -0.7964  0.4279
   49MOL0     N 6641   7.207   3.401   7.202  0.8917 -0.0701 -0.4668
   49MOL0     C 6642   7.199   3.507   7.289 -0.3532  0.2973  0.2462
   49MOL0     C 6643   7.309   3.484   7.365 -0.9129 -0.1983  0.2768
   49MOL0     C 6644   7.335   3.562   7.489 -0.4331  0.6118 -0.8090
   49MOL0     C 6645   7.483   3.572   7.529 -1.1032 -0.1082 -0.2493
   49MOL0     C 6646   7.555   3.672   7.437  0.0220 -0.0539 -0.3672
   49MOL0     C 6647   7.704   3.660   7.456  0.1399 -0.4748 -0.4879
   49MOL0     O 6648   7.757   3.792   7.461 -0.6172  0.2880  0.6432
   49MOL0     C 6649   7.884   3.800   7.508  0.6549 -0.4824 -0.1299
   49MOL0     C 6650   7.985   3.710   7.478 -0.7036  0.2674  0.0863
   49MOL0     C 6651   8.112   3.715   7.538  0.0903 -0.4145 -0.6152
   49MOL0     C 6652   8.217   3.608   7.512  0.5600 -0.1349 -0.3654
   49MOL0     C 6653   8.139   3.830   7.618 -0.2652  0.0811  0.5257
   49MOL0     C 6654   8.276   3.857   7.680 -0.1804  0.2649 -0.2506
   49MOL0     O 6655   8.280   3.952   7.772 -0.3381 -0.1704 -0.1291
   49MOL0     C 6656   8.406   3.982   7.819  1.2461  0.2709  0.2937
   49MOL0     C 6657   8.486   4.078   7.761  0.7969  0.5526 -0.4220
   49MOL0     C 6658   8.623   4.097   7.804 -0.0324  0.4440  0.5656
   49MOL0     C 6659   8.669   4.020   7.913  0.3840 -0.2314 -0.1625
   49MOL0     O 6660   8.790   4.028   7.973  0.0061  0.0549 -0.2004
   49MOL0     C 6661   8.871   4.139   7.932  0.2505  0.4292 -0.5824
   49MOL0     C 6662   8.987   4.155   8.031 -0.7289  0.7571 -0.9693
   49MOL0     C 6663   8.943   4.209   8.170 -0.4724  0.1263 -0.8509
   49MOL0     C 6664   9.060   4.259   8.258  1.0594 -0.7364 -0.4838
   49MOL0     C 6665   9.172   4.162   8.301 -0.6731 -0.0358  0.6822
   49MOL0     C 6666   9.265   4.233   8.405  0.1282 -0.3778  0.1366
   49MOL0     C 6667   9.318   4.372   8.362  0.3797 -0.3898  0.4953
   49MOL0     C 6668   9.399   4.451   8.455  0.1218  0.5740 -0.7377
   49MOL0    Cl 6669   9.566   4.389   8.456  0.0893 -0.1203 -0.3735
   49MOL0     C 6670   8.585   3.924   7.973 -0.7327 -0.4258 -0.4658
   49MOL0     C 6671   8.453   3.905   7.928 -0.1862  0.4402 -0.1656
   49MOL0     O 6672   8.372   3.799   7.635  0.7206 -0.1011 -1.5888
   49MOL0     C 6673   8.038   3.925   7.647 -0.8559 -0.1461  0.4349
   49MOL0     C 6674   7.915   3.912   7.584 -0.7820  0.4655 -0.5233
   49MOL0     N 6675   7.377   3.370   7.327  0.2148  0.5807 -0.0892
   49MOL0     N 6676   7.328   3.331   7.220  0.3940 -0.4968  0.4374
   49MOL0     C 6677   6.190   3.236   6.915 -0.1505  0.4852 -1.2002
   49MOL0     C 6678   6.059   3.257   6.939 -0.3546 -1.0414 -0.5720
   49MOL0     C 6679   5.635   3.357   7.015  0.7000 -0.2456 -0.2626
   49MOL0     C 6680   5.597   3.478   6.954  0.1729  0.0399 -0.1177
   49MOL0     C 6681   5.465   3.523   6.946 -0.4346  0.5785  0.1259
   49MOL0     C 6682   5.352   3.444   6.999  0.3544 -0.8007  0.0205
   49MOL0     O 6683   5.223   3.495   6.988  0.2500 -0.0321 -0.7133
   49MOL0     C 6684   5.202   3.607   6.904  0.1337  0.2409 -0.1979
   49MOL0     C 6685   5.053   3.638   6.895 -0.5655  0.0128 -0.0328
   49MOL0     C 6686   5.014   3.702   7.034 -0.2173  0.2591  0.7148
   49MOL0     C 6687   4.872   3.727   7.052  0.9214 -0.4099 -0.0426
   49MOL0     C 6688   4.852   3.752   7.198  0.4875 -0.7993  0.7856
   49MOL0     C 6689   4.850   3.762   7.320  0.2741  0.0511 -0.3836
   49MOL0     C 6690   5.391   3.323   7.053  0.5142  0.3808  0.3332
   49MOL0     C 6691   5.521   3.273   7.053 -0.7702  0.1390  0.3645
   49MOL0     C 6692   5.538   3.130   7.098  0.2444 -0.5176 -0.3315
   49MOL0     H 6693   6.069   3.594   7.012 -0.3963  0.0345  0.5218
   49MOL0     H 6694   6.301   3.554   6.988  1.4330 -0.7201  3.8778
   49MOL0     H 6695   6.454   3.185   6.788 -0.7905  0.6513  0.5046
   49MOL0     H 6696   6.465   3.122   6.954  1.8237 -1.6108 -2.3164
   49MOL0     H 6697   6.652   3.271   6.997  2.5206  0.8474 -0.3850
   49MOL0     H 6698   6.699   3.136   6.882 -0.2757  0.5009 -1.8539
   49MOL0     H 6699   6.633   3.322   6.698  3.0452  0.6511 -0.7083
   49MOL0     H 6700   6.633   3.435   6.828 -1.1868  0.3660  0.0347
   49MOL0     H 6701   6.891   3.268   6.748 -0.0838 -0.5589 -1.1027
   49MOL0     H 6702   6.859   3.431   6.696 -2.2908  2.4578  1.3632
   49MOL0     H 6703   6.878   3.349   6.973 -0.5527 -1.5959 -0.6060
   49MOL0     H 6704   6.827   3.518   6.908 -0.4358 -0.2827 -0.8571
   49MOL0     H 6705   7.094   3.406   6.821 -1.8286 -2.6210  0.7859
   49MOL0     H 6706   7.040   3.563   6.813  0.7481  0.9074  1.7705
   49MOL0     H 6707   7.030   3.569   7.076  1.7134  0.5392  1.2185
   49MOL0     H 6708   7.187   3.551   6.996 -0.0470 -0.4577  1.4209
   49MOL0     H 6709   7.003   3.355   7.133  0.3327 -2.0466 -0.6039
   49MOL0     H 6710   7.149   3.293   7.049  1.7559  0.5467 -0.6911
   49MOL0     H 6711   7.121   3.578   7.314  1.0301  1.6953  0.7732
   49MOL0     H 6712   7.278   3.507   7.565  0.6504  1.0193  0.3386
   49MOL0     H 6713   7.284   3.659   7.485 -0.6087  0.5544 -0.1434
   49MOL0     H 6714   7.497   3.613   7.629  2.2112  0.3780 -0.7835
   49MOL0     H 6715   7.529   3.475   7.508  1.5776  1.3747 -1.9991
   49MOL0     H 6716   7.528   3.650   7.333 -2.5113 -2.6211  0.6997
   49MOL0     H 6717   7.510   3.769   7.459 -4.6432 -1.9867 -0.3749
   49MOL0     H 6718   7.738   3.613   7.549  2.2167  0.0817 -0.9094
   49MOL0     H 6719   7.741   3.604   7.370 -1.4722  2.3847 -3.2560
   49MOL0     H 6720   7.972   3.628   7.408 -0.3694  0.8291 -0.6436
   49MOL0     H 6721   8.281   3.661   7.441 -1.6251  2.6145 -0.4607
   49MOL0     H 6722   8.166   3.520   7.472  0.9518 -0.3960 -0.2867
   49MOL0     H 6723   8.276   3.587   7.602  2.3324  2.7610 -0.7081
   49MOL0     H 6724   8.445   4.119   7.669 -1.7969 -2.6431 -0.8998
   49MOL0     H 6725   8.684   4.158   7.738 -1.0779 -0.0006 -0.8547
   49MOL0     H 6726   8.929   4.120   7.841  1.6030 -3.3262  0.8586
   49MOL0     H 6727   8.813   4.232   7.926  0.1629  0.2972 -4.9113
   49MOL0     H 6728   9.042   4.062   8.043 -1.8911  0.3026  1.4900
   49MOL0     H 6729   9.053   4.233   7.993  0.5808 -1.2647 -3.1020
   49MOL0     H 6730   8.886   4.133   8.224 -1.6328  2.2246  1.0277
   49MOL0     H 6731   8.872   4.292   8.163 -1.3548 -0.1731  2.5952
   49MOL0     H 6732   9.017   4.306   8.347  0.6312  0.8115 -1.4633
   49MOL0     H 6733   9.098   4.337   8.190 -1.2733  1.7802  0.8827
   49MOL0     H 6734   9.128   4.074   8.349  1.3388 -0.8457  1.1506
   49MOL0     H 6735   9.224   4.127   8.211 -0.3814  0.9266  0.4702
   49MOL0     H 6736   9.351   4.166   8.415 -0.1434 -1.0998 -1.8989
   49MOL0     H 6737   9.204   4.262   8.491 -0.0255  3.8677 -1.1439
   49MOL0     H 6738   9.225   4.428   8.352  1.1651  0.5359 -2.9081
   49MOL0     H 6739   9.375   4.382   8.269  1.4440  6.2045  1.3452
   49MOL0     H 6740   9.359   4.429   8.554  0.0598  2.7728 -0.2094
   49MOL0     H 6741   9.401   4.560   8.442  2.2772  0.4160 -2.4026
   49MOL0     H 6742   8.634   3.861   8.047  0.8381 -0.1537 -1.2283
   49MOL0     H 6743   8.388   3.845   7.992  1.0840  3.0321  3.9246
   49MOL0     H 6744   8.060   4.016   7.701  0.3685 -1.9300  3.1959
   49MOL0     H 6745   7.849   3.996   7.602 -1.9037 -1.1164  4.2631
   49MOL0     H 6746   6.230   3.140   6.884 -0.8017  0.0095 -0.5874
   49MOL0     H 6747   5.991   3.173   6.930 -2.5231  0.1654  2.7070
   49MOL0     H 6748   5.676   3.540   6.911  0.3326  0.4816  0.7843
   49MOL0     H 6749   5.446   3.620   6.902  0.8696  1.5426  1.5664
   49MOL0     H 6750   5.249   3.698   6.940  2.1908 -0.9253  0.1817
   49MOL0     H 6751   5.230   3.575   6.803  1.2144 -1.8881  0.7270
   49MOL0     H 6752   5.003   3.545   6.868  1.4284 -0.8685 -0.9129
   49MOL0     H 6753   5.029   3.706   6.814  3.9780  2.2577  0.1992
   49MOL0     H 6754   5.048   3.633   7.111  1.8755 -0.3545 -0.6628
   49MOL0     H 6755   5.079   3.788   7.056  0.5209 -0.8295  3.1387
   49MOL0     H 6756   4.803   3.649   7.019  2.4176 -2.0578  0.5335
   49MOL0     H 6757   4.848   3.816   6.993 -0.6675 -1.4305 -1.0249
   49MOL0     H 6758   4.836   3.782   7.424  0.1769 -2.3665  0.1223
   49MOL0     H 6759   5.311   3.256   7.084 -0.1174  0.5534 -0.8390
   49MOL0     H 6760   5.597   3.076   7.024 -0.2403  0.8350 -1.7473
   49MOL0     H 6761   5.585   3.126   7.197 -2.4022 -0.6096  1.0228
   49MOL0     H 6762   5.439   3.084   7.108 -0.1605  0.1794 -1.0172
   50MOL0     O 6763  11.343  10.617   4.204  0.2489  0.0164  0.3106
   50MOL0     C 6764  11.280  10.539   4.133  0.5729  0.0681 -0.4754
   50MOL0     O 6765  11.318  10.412   4.115  0.2003 -0.2377 -0.2213
   50MOL0     C 6766  11.432  10.367   4.181 -0.2263 -0.1524 -0.4858
   50MOL0     C 6767  11.404  10.255   4.259 -0.0777  0.1482  0.6092
   50MOL0     C 6768  11.505  10.193   4.331  0.5461  0.0145 -0.0747
   50MOL0     C 6769  11.642  10.239   4.321  0.3946  0.1547  0.4589
   50MOL0     O 6770  11.737  10.167   4.394  0.3210 -0.0305  0.0217
   50MOL0     C 6771  11.864  10.226   4.379 -0.0578 -0.1789  0.0333
   50MOL0     C 6772  11.958  10.143   4.466 -0.1419 -0.1068 -0.6868
   50MOL0     C 6773  12.093  10.197   4.463 -0.0575 -0.8889 -0.0423
   50MOL0     C 6774  12.177  10.148   4.572 -0.6843  0.1485 -0.0674
   50MOL0     C 6775  12.222  10.004   4.562 -0.5015 -0.0694  0.0315
   50MOL0     C 6776  12.351   9.984   4.652  0.0515  0.0260 -0.1912
   50MOL0     C 6777  12.404   9.845   4.639  1.2274  0.9906  0.0282
   50MOL0     C 6778  12.535   9.823   4.707 -0.6690  0.1124 -0.7720
   50MOL0     N 6779  12.570   9.683   4.718  0.2459 -0.3925  0.1692
   50MOL0     C 6780  12.491   9.597   4.793 -0.5897  0.5499  0.0393
   50MOL0     C 6781  12.555   9.481   4.769 -0.1490  0.5698  0.2056
   50MOL0     C 6782  12.500   9.351   4.817 -1.3169 -0.3731 -0.0359
   50MOL0     C 6783  12.462   9.334   4.976 -0.0795 -0.0737 -0.0300
   50MOL0     C 6784  12.574   9.382   5.064  0.3755  0.2946  0.3138
   50MOL0     C 6785  12.719   9.338   5.019 -0.4045  0.1090  0.2074
   50MOL0     O 6786  12.716   9.197   5.022 -0.8310  0.4758  0.4561
   50MOL0     C 6787  12.843   9.139   5.022  0.2780  0.5031  0.0794
   50MOL0     C 6788  12.890   9.096   4.900  0.9606  0.3395 -0.1444
   50MOL0     C 6789  13.017   9.036   4.884  0.1590  1.3159  0.5747
   50MOL0     C 6790  13.060   9.010   4.744 -0.8624  0.0564  0.2153
   50MOL0     C 6791  13.092   9.006   5.001 -0.0465 -0.2335 -0.6557
   50MOL0     C 6792  13.228   8.940   4.998 -0.6824  0.5571  0.3149
   50MOL0     O 6793  13.263   8.867   5.105  0.2528  0.3998  0.2439
   50MOL0     C 6794  13.377   8.795   5.101 -0.0075  0.2471 -0.3573
   50MOL0     C 6795  13.492   8.861   5.146  1.0764 -0.3362 -0.1567
   50MOL0     C 6796  13.618   8.803   5.121 -0.4376 -0.7341  1.0872
   50MOL0     C 6797  13.622   8.688   5.042  0.1861  0.7111  0.0411
   50MOL0     O 6798  13.727   8.612   5.012 -0.0080  0.2841 -0.0243
   50MOL0     C 6799  13.858   8.669   5.038  0.5981 -0.2508  0.9292
   50MOL0     C 6800  13.955   8.601   4.940 -0.7006  0.0362  0.9144
   50MOL0     C 6801  14.012   8.470   4.986 -0.0776  0.1491 -0.2294
   50MOL0     C 6802  14.079   8.464   5.130 -0.1224  0.5055 -0.2823
   50MOL0     C 6803  14.203   8.561   5.136 -0.0621 -0.1844  0.1195
   50MOL0     C 6804  14.272   8.521   5.266 -0.6939  0.6238 -0.1237
   50MOL0     C 6805  14.381   8.623   5.304 -0.0208 -0.1269 -0.0920
   50MOL0     C 6806  14.428   8.604   5.450  0.0345  0.2746 -0.6940
   50MOL0    Cl 6807  14.450   8.443   5.505  0.0434 -0.3401  0.5882
   50MOL0     C 6808  13.500   8.615   5.005  0.2277 -0.7618 -0.0893
   50MOL0     C 6809  13.382   8.671   5.043 -0.1253 -0.7794  0.7284
   50MOL0     O 6810  13.303   8.961   4.901 -0.2781  0.1178  0.0573
   50MOL0     C 6811  13.036   9.040   5.127 -0.2361  1.0011 -0.1088
   50MOL0     C 6812  12.910   9.115   5.131 -0.0791  0.5422 -0.0706
   50MOL0     N 6813  12.665   9.497   4.682 -0.4496  0.1557 -0.1205
   50MOL0     N 6814  12.678   9.620   4.661  0.3570 -0.0614 -0.3515
   50MOL0     C 6815  11.664  10.348   4.233 -0.9505 -0.8544  0.2596
   50MOL0     C 6816  11.560  10.409   4.159  0.6624 -0.0708 -0.4839
   50MOL0     C 6817  11.156  10.582   4.056  0.1864  0.5640  0.5124
   50MOL0     C 6818  11.135  10.516   3.937  1.0610  0.9143 -0.5563
   50MOL0     C 6819  11.020  10.553   3.865 -0.1463  0.1652 -0.6850
   50MOL0     C 6820  10.938  10.655   3.898 -1.1820 -0.6529 -0.4600
   50MOL0     O 6821  10.821  10.694   3.831 -0.0535  0.2919 -0.3791
   50MOL0     C 6822  10.796  10.668   3.693 -0.1061  0.0803 -0.2483
   50MOL0     C 6823  10.882  10.744   3.597 -0.4634  0.0229  0.7237
   50MOL0     C 6824  10.890  10.890   3.614  0.0399 -0.2719 -0.8639
   50MOL0     C 6825  10.998  10.952   3.516 -0.2188 -1.0067 -0.1218
   50MOL0     C 6826  10.950  10.961   3.376 -0.1797 -0.3398  0.8777
   50MOL0     C 6827  10.872  10.972   3.274 -0.2141 -0.3218  0.3083
   50MOL0     C 6828  10.962  10.732   4.013 -0.6151  0.4639 -0.3322
   50MOL0     C 6829  11.071  10.697   4.093  0.0433 -0.1356  0.3105
   50MOL0     C 6830  11.098  10.785   4.216 -0.7644  0.1387 -0.5245
   50MOL0     H 6831  11.300  10.225   4.255  0.5756 -2.1957 -1.5113
   50MOL0     H 6832  11.493  10.102   4.388  0.0418 -1.7454 -2.8464
   50MOL0     H 6833  11.868  10.330   4.414  1.8884 -0.1013 -0.3178
   50MOL0     H 6834  11.895  10.216   4.275  2.6499  1.0892  0.6246
   50MOL0     H 6835  11.924  10.159   4.568  0.2932  2.9598 -0.9271
   50MOL0     H 6836  11.963  10.036   4.441  0.6069 -0.7082  1.8249
   50MOL0     H 6837  12.130  10.173   4.362 -3.0384 -0.4134 -1.3600
   50MOL0     H 6838  12.095  10.306   4.471  0.3437 -0.7804 -1.3625
   50MOL0     H 6839  12.263  10.214   4.588  1.5620 -2.7792  1.0336
   50MOL0     H 6840  12.119  10.153   4.665  0.8968 -1.3779  1.0764
   50MOL0     H 6841  12.243   9.982   4.457 -0.0330 -0.0584  0.1211
   50MOL0     H 6842  12.143   9.936   4.596 -0.1463  0.1977  1.4466
   50MOL0     H 6843  12.432  10.050   4.621  1.1109 -1.6625 -1.2105
   50MOL0     H 6844  12.315   9.991   4.755  2.8788 -0.9744  0.9512
   50MOL0     H 6845  12.410   9.819   4.533  3.2432  2.3380 -0.2407
   50MOL0     H 6846  12.332   9.775   4.681  2.7777 -1.0942 -0.6534
   50MOL0     H 6847  12.611   9.881   4.654  2.0950 -1.8857  0.7662
   50MOL0     H 6848  12.524   9.847   4.813  2.5124 -2.7876  0.3869
   50MOL0     H 6849  12.391   9.615   4.830 -0.7230  1.3424 -0.6946
   50MOL0     H 6850  12.569   9.269   4.797 -0.6486 -0.5807  2.6817
   50MOL0     H 6851  12.406   9.335   4.764 -0.7841  2.5273 -2.0706
   50MOL0     H 6852  12.367   9.384   4.996 -1.3101 -2.5438  0.6654
   50MOL0     H 6853  12.427   9.232   4.997  0.7642 -0.6798 -1.3778
   50MOL0     H 6854  12.560   9.490   5.070 -2.4477  0.0990 -0.9730
   50MOL0     H 6855  12.565   9.340   5.165  0.7244  0.9426  0.6242
   50MOL0     H 6856  12.751   9.381   4.923  0.2340  0.1452  0.4371
   50MOL0     H 6857  12.795   9.371   5.089 -0.7847 -0.2944  0.8193
   50MOL0     H 6858  12.827   9.123   4.815  1.2858  2.1257  0.1473
   50MOL0     H 6859  13.021   8.915   4.706 -2.1012 -0.5626  2.7924
   50MOL0     H 6860  13.165   9.035   4.731 -1.1889  1.9418  0.9780
   50MOL0     H 6861  13.004   9.078   4.680 -2.3591 -1.3361 -0.0158
   50MOL0     H 6862  13.496   8.964   5.179 -1.4361 -0.1162 -0.3048
   50MOL0     H 6863  13.704   8.864   5.146 -0.5015 -0.3462  0.3737
   50MOL0     H 6864  13.859   8.777   5.020  0.8722 -0.0593  2.0229
   50MOL0     H 6865  13.882   8.652   5.144  4.4346 -1.0542  0.0890
   50MOL0     H 6866  13.908   8.582   4.844  0.2991  0.1714  0.3829
   50MOL0     H 6867  14.035   8.674   4.927  0.5310 -1.0928  1.8601
   50MOL0     H 6868  14.085   8.438   4.912  1.4918  0.4013  1.1513
   50MOL0     H 6869  13.935   8.393   4.986  0.0428 -0.0191  1.7625
   50MOL0     H 6870  14.112   8.361   5.150  2.4814  1.6957  2.2018
   50MOL0     H 6871  14.012   8.475   5.216 -2.9700 -3.4199 -1.6844
   50MOL0     H 6872  14.273   8.535   5.056 -1.2639 -0.8096 -0.7564
   50MOL0     H 6873  14.170   8.664   5.127 -0.8890 -0.5425 -1.2059
   50MOL0     H 6874  14.326   8.430   5.241 -1.4123 -0.0209  0.5852
   50MOL0     H 6875  14.200   8.489   5.342 -1.4852 -1.4513 -1.6445
   50MOL0     H 6876  14.353   8.729   5.298  0.5862  0.1346  1.3657
   50MOL0     H 6877  14.465   8.615   5.233 -0.2075  2.8697 -0.7702
   50MOL0     H 6878  14.357   8.642   5.524  0.6735  0.2220 -0.0361
   50MOL0     H 6879  14.525   8.655   5.444  1.5255 -2.0813  1.2294
   50MOL0     H 6880  13.505   8.521   4.951 -0.5250  0.1592 -1.8438
   50MOL0     H 6881  13.290   8.629   5.003  1.2750 -0.9394 -2.5704
   50MOL0     H 6882  13.082   9.001   5.217  1.0003  2.2907 -0.1528
   50MOL0     H 6883  12.883   9.135   5.235  2.8260 -0.6701  1.0295
   50MOL0     H 6884  11.758  10.391   4.201 -2.6259  1.9596 -1.2836
   50MOL0     H 6885  11.589  10.497   4.102  0.8622  3.1962  4.1536
   50MOL0     H 6886  11.208  10.445   3.897 -2.1375 -1.1722 -3.2777
   50MOL0     H 6887  11.012  10.502   3.770 -1.5162  0.2141 -0.6190
   50MOL0     H 6888  10.798  10.561   3.671 -1.8263  0.1604 -0.9076
   50MOL0     H 6889  10.692  10.695   3.677 -0.2134 -0.1417  0.0721
   50MOL0     H 6890  10.860  10.733   3.490  1.7878  1.7725  0.0215
   50MOL0     H 6891  10.982  10.702   3.606  0.0303  0.4065 -2.0092
   50MOL0     H 6892  10.793  10.939   3.606 -1.2332 -2.8050 -2.0920
   50MOL0     H 6893  10.921  10.911   3.717 -2.2914  0.5818 -0.2688
   50MOL0     H 6894  11.091  10.895   3.525 -0.0291 -1.1731 -2.5643
   50MOL0     H 6895  11.018  11.054   3.549  1.2530 -0.3369 -2.7631
   50MOL0     H 6896  10.807  10.991   3.190  2.0944 -2.3833 -2.1344
   50MOL0     H 6897  10.899  10.817   4.035 -0.6653  0.5985 -0.9865
   50MOL0     H 6898  11.070  10.722   4.301 -1.9862  0.7739 -0.4380
   50MOL0     H 6899  11.203  10.815   4.222 -0.5363 -0.8433  2.6088
   50MOL0     H 6900  11.038  10.876   4.213 -1.1141 -0.1240 -2.1304
   51MOL0     O 6901   4.029   1.656   2.412 -0.3395 -0.3239  0.1666
   51MOL0     C 6902   4.004   1.663   2.534  1.5726 -0.1921  0.7466
   51MOL0     O 6903   4.092   1.658   2.637 -0.6997 -1.1748  0.6436
   51MOL0     C 6904   4.225   1.637   2.616 -0.2540 -0.0359 -0.1727
   51MOL0     C 6905   4.275   1.524   2.563  0.0329 -0.7728 -1.0300
   51MOL0     C 6906   4.416   1.506   2.535  0.6208  0.4735  0.5938
   51MOL0     C 6907   4.508   1.605   2.570 -0.3578  0.5718 -0.3071
   51MOL0     O 6908   4.641   1.576   2.554  0.1574 -0.0303  0.2304
   51MOL0     C 6909   4.712   1.677   2.486  0.4665  0.7491  0.3134
   51MOL0     C 6910   4.839   1.613   2.427 -0.6498  0.4105  0.8683
   51MOL0     C 6911   4.924   1.716   2.361  0.7636  0.2465  0.0670
   51MOL0     C 6912   5.054   1.665   2.304  0.1061  0.4233  0.4849
   51MOL0     C 6913   5.130   1.781   2.251 -0.1883  0.3612 -0.9850
   51MOL0     C 6914   5.245   1.730   2.163 -0.1376 -1.1124  0.2556
   51MOL0     C 6915   5.330   1.838   2.091  0.4024 -0.1731 -1.0161
   51MOL0     C 6916   5.447   1.779   2.012  0.9602 -0.6621 -0.1293
   51MOL0     N 6917   5.545   1.701   2.088  0.3340  0.3998  0.2301
   51MOL0     C 6918   5.580   1.750   2.215 -0.2669  0.6217 -0.0361
   51MOL0     C 6919   5.617   1.631   2.278 -0.5113  0.0286 -0.8441
   51MOL0     C 6920   5.657   1.604   2.425 -0.2491 -0.1963 -0.6084
   51MOL0     C 6921   5.655   1.729   2.510 -0.3026  0.2956  0.3081
   51MOL0     C 6922   5.692   1.682   2.648 -0.7792 -1.0181 -0.3993
   51MOL0     C 6923   5.843   1.664   2.672 -0.1078  0.4237  0.6959
   51MOL0     O 6924   5.888   1.798   2.685  0.0206 -0.6025 -0.1168
   51MOL0     C 6925   6.016   1.810   2.736  0.6687  0.1274  0.2264
   51MOL0     C 6926   6.047   1.784   2.867  0.3435 -0.2816 -0.3470
   51MOL0     C 6927   6.174   1.815   2.923 -0.4267 -0.5021  0.2817
   51MOL0     C 6928   6.196   1.802   3.070  0.0257 -0.7621  0.4227
   51MOL0     C 6929   6.273   1.845   2.829 -0.1286 -0.8485 -0.4039
   51MOL0     C 6930   6.418   1.862   2.862  0.4310 -0.0340  0.8919
   51MOL0     O 6931   6.504   1.876   2.763 -0.1307  0.2770  0.3857
   51MOL0     C 6932   6.636   1.874   2.793 -0.2930  0.3244  0.2627
   51MOL0     C 6933   6.705   1.999   2.808 -0.4248 -0.2417  0.3011
   51MOL0     C 6934   6.841   1.995   2.838 -0.5291 -0.2132  0.9044
   51MOL0     C 6935   6.915   1.880   2.850  0.4816  0.8696  0.3239
   51MOL0     O 6936   7.048   1.864   2.868  0.4190  0.6530 -0.7315
   51MOL0     C 6937   7.142   1.967   2.854 -0.8774 -0.3296 -0.6005
   51MOL0     C 6938   7.160   2.007   2.705 -0.3603 -0.4921 -0.0114
   51MOL0     C 6939   7.261   1.920   2.641  0.4689  0.2436 -1.1424
   51MOL0     C 6940   7.264   1.919   2.490  0.3330  0.2073  0.0057
   51MOL0     C 6941   7.350   2.023   2.430  0.1671 -0.0128 -0.0168
   51MOL0     C 6942   7.483   1.965   2.414  0.1461 -0.1237  0.6333
   51MOL0     C 6943   7.587   2.078   2.374 -0.2970  0.6114  0.0137
   51MOL0     C 6944   7.738   2.036   2.363 -0.1991 -0.3396 -0.6630
   51MOL0    Cl 6945   7.751   1.935   2.217 -0.3046  0.5627 -0.0536
   51MOL0     C 6946   6.842   1.764   2.847  0.6724 -0.1158  0.3001
   51MOL0     C 6947   6.703   1.757   2.818 -0.4854 -0.0949  0.3874
   51MOL0     O 6948   6.449   1.861   2.980 -0.1645  0.0690 -0.6492
   51MOL0     C 6949   6.238   1.848   2.686 -0.8763  0.5660  0.7090
   51MOL0     C 6950   6.110   1.844   2.640  0.1636 -0.2735 -0.0902
   51MOL0     N 6951   5.613   1.525   2.188  0.4040  0.1748 -0.2761
   51MOL0     N 6952   5.561   1.567   2.081 -0.1865  0.2284  0.2679
   51MOL0     C 6953   4.458   1.725   2.621  0.5477  0.1239 -0.5404
   51MOL0     C 6954   4.316   1.740   2.636  0.1043 -0.6300  0.3728
   51MOL0     C 6955   3.864   1.686   2.579  0.3365 -0.3486 -0.6949
   51MOL0     C 6956   3.841   1.756   2.698 -0.3712 -0.0084  0.5244
   51MOL0     C 6957   3.712   1.785   2.744  0.2076  0.6389 -0.3828
   51MOL0     C 6958   3.597   1.744   2.673 -1.2810  0.0626  0.5196
   51MOL0     O 6959   3.471   1.767   2.715 -0.0804  0.1564 -0.8288
   51MOL0     C 6960   3.444   1.876   2.799 -0.2667 -1.3841 -0.2754
   51MOL0     C 6961   3.301   1.931   2.794 -0.1958  0.7547  0.4339
   51MOL0     C 6962   3.202   1.830   2.844 -0.0212  0.2638 -0.6925
   51MOL0     C 6963   3.057   1.887   2.853  1.0370 -0.5178  0.5672
   51MOL0     C 6964   2.976   1.796   2.935 -0.6492  0.3037 -0.2845
   51MOL0     C 6965   2.918   1.715   3.005 -0.0732  0.4245 -0.2616
   51MOL0     C 6966   3.624   1.676   2.553  0.4384  0.0584 -0.0574
   51MOL0     C 6967   3.751   1.644   2.504  0.5011  0.5892 -0.4828
   51MOL0     C 6968   3.755   1.579   2.369  0.0150  0.7895  0.1638
   51MOL0     H 6969   4.207   1.445   2.534  0.7614 -1.5384 -0.7019
   51MOL0     H 6970   4.447   1.414   2.487 -0.2661 -0.5149  1.8547
   51MOL0     H 6971   4.742   1.757   2.554  1.1549  1.6930 -1.0460
   51MOL0     H 6972   4.646   1.721   2.410  2.2158  2.0673 -0.4956
   51MOL0     H 6973   4.898   1.580   2.513 -1.0890  0.0931  1.0538
   51MOL0     H 6974   4.823   1.522   2.369  1.5097  1.4163 -1.4827
   51MOL0     H 6975   4.863   1.770   2.288  2.8931  2.5181 -0.1932
   51MOL0     H 6976   4.948   1.794   2.434 -3.7912  1.6922  0.3018
   51MOL0     H 6977   5.108   1.603   2.377 -1.4961  0.4992  1.8229
   51MOL0     H 6978   5.034   1.594   2.224  1.0328  0.1765  0.4649
   51MOL0     H 6979   5.167   1.842   2.334  3.0707 -1.7684 -0.6318
   51MOL0     H 6980   5.068   1.849   2.193  0.7221  0.4920 -1.8267
   51MOL0     H 6981   5.316   1.672   2.223 -2.0733  0.0348  3.9987
   51MOL0     H 6982   5.206   1.666   2.083 -1.1798 -0.4034  0.1841
   51MOL0     H 6983   5.357   1.913   2.166 -1.1026  1.8137 -2.3419
   51MOL0     H 6984   5.264   1.889   2.020 -0.8621 -0.0510  0.2087
   51MOL0     H 6985   5.400   1.715   1.937 -0.8583 -0.7593  1.0156
   51MOL0     H 6986   5.485   1.865   1.956 -2.5642 -0.1658 -2.1000
   51MOL0     H 6987   5.573   1.846   2.264 -0.2341  0.3288  0.5522
   51MOL0     H 6988   5.759   1.566   2.435 -0.3192 -0.0665  0.8799
   51MOL0     H 6989   5.584   1.531   2.462 -1.9728  1.4161 -0.6567
   51MOL0     H 6990   5.721   1.810   2.476 -1.2460  1.8387  1.9279
   51MOL0     H 6991   5.551   1.764   2.519 -0.4557 -0.7005  3.6061
   51MOL0     H 6992   5.652   1.754   2.720 -2.2075 -1.2255 -0.9447
   51MOL0     H 6993   5.646   1.586   2.674 -1.2249 -0.3842  1.2648
   51MOL0     H 6994   5.878   1.605   2.757  1.6523 -1.1587 -1.0337
   51MOL0     H 6995   5.885   1.611   2.586  1.3689  0.1553  1.5605
   51MOL0     H 6996   5.971   1.747   2.936  0.6564  0.3732  0.3701
   51MOL0     H 6997   6.259   1.716   3.095  1.2766 -0.0105 -0.0476
   51MOL0     H 6998   6.100   1.798   3.123  0.9128  0.8949  2.2904
   51MOL0     H 6999   6.235   1.898   3.104  0.4512 -0.6024 -0.5031
   51MOL0     H 7000   6.658   2.092   2.778  1.4632  0.2156 -1.4906
   51MOL0     H 7001   6.887   2.091   2.822 -2.4236  0.4958 -0.7469
   51MOL0     H 7002   7.109   2.054   2.911 -1.5279 -1.9454  1.6393
   51MOL0     H 7003   7.238   1.930   2.891  1.4395  2.6502 -3.0547
   51MOL0     H 7004   7.058   1.993   2.668 -1.1182  1.0693  1.3550
   51MOL0     H 7005   7.179   2.114   2.694 -3.7567  0.2027 -0.3478
   51MOL0     H 7006   7.248   1.817   2.676  2.0339 -0.1725 -1.7312
   51MOL0     H 7007   7.359   1.952   2.677 -1.5800  4.4737  1.6512
   51MOL0     H 7008   7.161   1.932   2.455 -0.1744 -1.8557  0.5842
   51MOL0     H 7009   7.297   1.824   2.448  1.2350  1.4649 -2.3342
   51MOL0     H 7010   7.309   2.059   2.335  2.3113 -0.4521 -1.1690
   51MOL0     H 7011   7.348   2.115   2.490  1.1036 -1.0185  1.6410
   51MOL0     H 7012   7.471   1.879   2.348 -0.3601 -0.4740  1.1649
   51MOL0     H 7013   7.519   1.922   2.508 -0.8387  0.6116  1.3693
   51MOL0     H 7014   7.577   2.161   2.444  1.6218  0.8699  0.0195
   51MOL0     H 7015   7.551   2.109   2.275  0.8021  1.3522 -0.1652
   51MOL0     H 7016   7.772   1.979   2.450 -1.5235 -0.1127  0.0276
   51MOL0     H 7017   7.798   2.124   2.342 -1.3581  1.0492  1.4730
   51MOL0     H 7018   6.886   1.667   2.865  0.0412 -0.1083  2.0462
   51MOL0     H 7019   6.656   1.659   2.822  1.2383 -1.1081 -1.6996
   51MOL0     H 7020   6.316   1.862   2.612 -2.5970  0.8353 -1.1151
   51MOL0     H 7021   6.084   1.852   2.535 -0.7583 -0.6895  0.0874
   51MOL0     H 7022   4.531   1.798   2.653  1.1558  0.5969 -2.8602
   51MOL0     H 7023   4.275   1.834   2.670 -1.6603  0.1814 -3.4387
   51MOL0     H 7024   3.921   1.806   2.752  1.3273  1.2285 -2.7838
   51MOL0     H 7025   3.707   1.820   2.846  2.2044 -1.3434  0.4785
   51MOL0     H 7026   3.468   1.867   2.906 -1.3819  1.1483  0.2744
   51MOL0     H 7027   3.505   1.961   2.766 -2.0876 -0.2591 -0.9301
   51MOL0     H 7028   3.274   1.967   2.694  0.3219 -3.0882 -1.2564
   51MOL0     H 7029   3.294   2.022   2.855 -1.3393  0.8871  0.1253
   51MOL0     H 7030   3.203   1.736   2.788  0.6583 -0.6280  0.7552
   51MOL0     H 7031   3.231   1.810   2.948  1.8589  2.7307 -0.6607
   51MOL0     H 7032   3.008   1.895   2.756 -0.1069  1.1582  1.2381
   51MOL0     H 7033   3.051   1.987   2.897  0.5000 -0.5976  0.6811
   51MOL0     H 7034   2.863   1.643   3.061  2.2916 -1.9101 -0.7252
   51MOL0     H 7035   3.545   1.631   2.494  1.2291 -0.6253 -0.6050
   51MOL0     H 7036   3.810   1.637   2.295  2.2785 -0.1811  0.9786
   51MOL0     H 7037   3.808   1.483   2.373  0.3477  0.9922  0.8950
   51MOL0     H 7038   3.654   1.564   2.329  0.2158  0.4846 -0.2345
   52MOL0     O 7039   8.600   3.913   3.794  0.3419 -0.9094  0.7453
   52MOL0     C 7040   8.528   3.815   3.777  0.3523  0.1363  0.5131
   52MOL0     O 7041   8.571   3.689   3.746  0.3586 -0.0909  0.3256
   52MOL0     C 7042   8.689   3.678   3.684  0.1529  0.4323 -0.4634
   52MOL0     C 7043   8.783   3.591   3.732  0.3202 -0.2016  0.4475
   52MOL0     C 7044   8.899   3.575   3.664 -0.0741  1.0286 -0.2652
   52MOL0     C 7045   8.932   3.647   3.552 -0.1215 -0.8508  0.3043
   52MOL0     O 7046   9.062   3.641   3.507 -0.1291  0.1486  0.8078
   52MOL0     C 7047   9.076   3.583   3.376 -0.4927  0.0374 -0.1862
   52MOL0     C 7048   9.215   3.513   3.354  0.0551  0.6272 -0.6263
   52MOL0     C 7049   9.315   3.619   3.354  0.2650  0.1514 -0.5184
   52MOL0     C 7050   9.457   3.573   3.334  0.1561  0.3584 -0.5396
   52MOL0     C 7051   9.555   3.683   3.334 -0.1364 -0.0176  1.1859
   52MOL0     C 7052   9.696   3.641   3.275 -0.3947  0.1259  0.2956
   52MOL0     C 7053   9.805   3.743   3.311  0.7069  0.6743 -0.1914
   52MOL0     C 7054   9.783   3.882   3.239  1.1951  0.1588 -0.4778
   52MOL0     N 7055   9.821   3.885   3.101  0.4299 -0.0694  1.0284
   52MOL0     C 7056   9.954   3.880   3.047  0.6012 -0.0671 -0.6108
   52MOL0     C 7057   9.940   3.908   2.918  0.7005  0.0320 -0.5379
   52MOL0     C 7058  10.055   3.921   2.820 -0.1578 -0.1005 -0.1295
   52MOL0     C 7059  10.141   4.031   2.879 -0.0735 -0.1340  0.6193
   52MOL0     C 7060  10.243   4.093   2.783 -0.9448  0.0370  0.1668
   52MOL0     C 7061  10.366   4.010   2.756 -0.1732  1.0798 -0.2128
   52MOL0     O 7062  10.457   4.002   2.868  0.1623  0.3024 -0.1239
   52MOL0     C 7063  10.561   3.913   2.868  0.3316  0.0411 -0.7467
   52MOL0     C 7064  10.647   3.915   2.984  0.6218  0.3515  0.1604
   52MOL0     C 7065  10.754   3.837   2.999 -0.5155  0.4676  0.8183
   52MOL0     C 7066  10.822   3.848   3.130 -0.5237  0.4823  0.2779
   52MOL0     C 7067  10.789   3.747   2.894  0.2063 -1.0089 -0.6080
   52MOL0     C 7068  10.901   3.654   2.912  0.0643  0.9665  0.6331
   52MOL0     O 7069  10.985   3.648   2.798  0.1263 -0.5172  0.3813
   52MOL0     C 7070  11.084   3.553   2.790 -0.6689  0.4801  0.9831
   52MOL0     C 7071  11.207   3.593   2.749 -0.4707  0.6654  1.1881
   52MOL0     C 7072  11.314   3.508   2.732  0.3522  0.0854 -0.4398
   52MOL0     C 7073  11.307   3.377   2.781  0.2730  0.1309 -0.2550
   52MOL0     O 7074  11.412   3.292   2.787 -0.0435  0.2210 -0.5370
   52MOL0     C 7075  11.542   3.345   2.806  0.4372  0.0198 -0.6971
   52MOL0     C 7076  11.649   3.244   2.825 -0.5895  0.2933 -0.5078
   52MOL0     C 7077  11.788   3.300   2.855 -0.4093  0.5152  0.2252
   52MOL0     C 7078  11.820   3.266   3.002  0.3396  0.2613  0.5671
   52MOL0     C 7079  11.965   3.302   3.046  0.1068  0.3588 -0.0091
   52MOL0     C 7080  12.076   3.224   2.974  0.9196 -0.7905  0.1602
   52MOL0     C 7081  12.083   3.074   3.014  0.0424  0.6459 -0.6769
   52MOL0     C 7082  12.206   3.017   2.944 -0.0221  0.3847  0.3347
   52MOL0    Cl 7083  12.358   3.071   3.018 -0.1684 -0.0036 -0.2264
   52MOL0     C 7084  11.181   3.330   2.828 -0.2589  0.4495 -0.1583
   52MOL0     C 7085  11.075   3.421   2.833 -0.0053 -0.2084  0.1813
   52MOL0     O 7086  10.921   3.600   3.022  0.1816  0.8067  0.4649
   52MOL0     C 7087  10.710   3.744   2.774 -0.2212  0.6387 -0.5922
   52MOL0     C 7088  10.595   3.822   2.761  0.4157  0.5326  0.4467
   52MOL0     N 7089   9.813   3.913   2.883 -0.1653  0.4706  0.8643
   52MOL0     N 7090   9.741   3.907   2.991  0.2754  0.0762  0.7208
   52MOL0     C 7091   8.825   3.728   3.495 -0.0821 -0.6130 -0.3211
   52MOL0     C 7092   8.706   3.747   3.565  0.6811  0.5598  0.0170
   52MOL0     C 7093   8.379   3.817   3.805 -0.9790 -0.3752 -0.1095
   52MOL0     C 7094   8.301   3.714   3.753  0.1158 -0.1068 -0.4207
   52MOL0     C 7095   8.160   3.691   3.788  0.8388 -0.3338  0.4633
   52MOL0     C 7096   8.103   3.781   3.874 -0.1016  0.4647  0.2311
   52MOL0     O 7097   7.973   3.749   3.898  0.5972  0.3098 -0.3067
   52MOL0     C 7098   7.897   3.838   3.988 -0.6932 -0.1079  0.7052
   52MOL0     C 7099   7.752   3.802   3.971  0.2096  0.4874  0.1110
   52MOL0     C 7100   7.651   3.858   4.067 -0.1710 -1.0396  0.2605
   52MOL0     C 7101   7.528   3.772   4.076  0.1612  0.3381 -0.0737
   52MOL0     C 7102   7.435   3.779   3.967 -0.5594  0.5056 -0.1821
   52MOL0     C 7103   7.355   3.790   3.881 -0.5257  0.6062  0.4658
   52MOL0     C 7104   8.185   3.879   3.932  0.7787  0.7887 -0.1312
   52MOL0     C 7105   8.323   3.900   3.899 -0.4155 -0.1024 -0.1050
   52MOL0     C 7106   8.401   3.995   3.988 -0.3511  0.0900 -0.2740
   52MOL0     H 7107   8.750   3.520   3.808 -1.9147 -0.3982 -0.6354
   52MOL0     H 7108   8.963   3.497   3.705 -0.2585  2.0167  2.0210
   52MOL0     H 7109   9.069   3.667   3.307  0.5466 -0.1167 -0.5034
   52MOL0     H 7110   8.999   3.506   3.368 -0.7383 -0.0404  2.1789
   52MOL0     H 7111   9.240   3.432   3.423 -0.2277  0.6564 -0.4863
   52MOL0     H 7112   9.208   3.457   3.260 -0.5402 -3.5740  1.6661
   52MOL0     H 7113   9.282   3.691   3.278 -1.6894  1.1934  1.2000
   52MOL0     H 7114   9.307   3.668   3.451 -1.4456 -0.3175 -0.3828
   52MOL0     H 7115   9.472   3.498   3.412  0.4738 -0.7073 -1.6066
   52MOL0     H 7116   9.457   3.522   3.238 -0.1381 -1.8039  0.5401
   52MOL0     H 7117   9.573   3.727   3.432 -1.7325  2.3177  0.5080
   52MOL0     H 7118   9.517   3.762   3.269  0.2420 -0.2016  0.7370
   52MOL0     H 7119   9.747   3.553   3.314  5.0500  1.2361 -3.1504
   52MOL0     H 7120   9.693   3.611   3.170  2.7712 -0.2687  0.2220
   52MOL0     H 7121   9.909   3.717   3.288  2.4198  4.5641  2.0314
   52MOL0     H 7122   9.814   3.751   3.420 -1.0284 -2.5907  0.3164
   52MOL0     H 7123   9.680   3.919   3.246  1.4700  1.1196 -1.2085
   52MOL0     H 7124   9.846   3.956   3.290  2.4520 -1.6125  0.6233
   52MOL0     H 7125  10.051   3.870   3.094  0.3358  1.4271  0.3201
   52MOL0     H 7126  10.024   3.936   2.716  0.6251  1.8542 -0.1303
   52MOL0     H 7127  10.104   3.823   2.818 -1.2570 -0.7028  1.0920
   52MOL0     H 7128  10.082   4.112   2.921  0.6598 -0.2107  1.8309
   52MOL0     H 7129  10.204   3.989   2.959  1.0667  1.2649  0.4874
   52MOL0     H 7130  10.198   4.112   2.685 -2.9601  0.9353  1.1993
   52MOL0     H 7131  10.259   4.190   2.831 -1.3831  0.4451 -0.4939
   52MOL0     H 7132  10.341   3.909   2.723  0.9153  0.4193  0.8981
   52MOL0     H 7133  10.426   4.045   2.671  0.9989  0.9676  0.5373
   52MOL0     H 7134  10.625   3.995   3.054 -2.1869  0.3758 -0.5972
   52MOL0     H 7135  10.793   3.947   3.165  0.1045  0.7426  0.0803
   52MOL0     H 7136  10.932   3.847   3.124 -0.5818  0.1312 -0.8441
   52MOL0     H 7137  10.780   3.769   3.193 -0.8587 -1.3814 -2.1298
   52MOL0     H 7138  11.233   3.694   2.722  2.7600 -1.0037 -3.0657
   52MOL0     H 7139  11.400   3.553   2.683  0.0535 -0.2623 -1.3023
   52MOL0     H 7140  11.553   3.411   2.719 -1.2543  2.9716  1.1337
   52MOL0     H 7141  11.536   3.407   2.896  0.7972  1.2389 -1.4754
   52MOL0     H 7142  11.604   3.187   2.907 -1.8126  3.1748  0.9708
   52MOL0     H 7143  11.651   3.185   2.733 -3.0978  0.3828 -0.6795
   52MOL0     H 7144  11.786   3.407   2.833  1.0722  0.5657  0.2468
   52MOL0     H 7145  11.859   3.251   2.788 -2.1849  0.1555 -1.4938
   52MOL0     H 7146  11.796   3.163   3.032 -3.7139  0.7680 -0.4710
   52MOL0     H 7147  11.764   3.340   3.059  2.1926  0.3847  2.3564
   52MOL0     H 7148  11.984   3.407   3.024 -0.6778  0.1658 -1.8115
   52MOL0     H 7149  11.983   3.290   3.153 -0.9394  3.3881  0.6003
   52MOL0     H 7150  12.166   3.285   2.989  0.0691  1.5930 -3.2827
   52MOL0     H 7151  12.073   3.219   2.864  1.9383 -1.1167  0.1332
   52MOL0     H 7152  11.992   3.023   2.980 -1.8549  0.4162  3.9709
   52MOL0     H 7153  12.079   3.058   3.122 -3.2877 -0.0158 -0.7904
   52MOL0     H 7154  12.213   3.041   2.838  0.2973  2.8916  0.8657
   52MOL0     H 7155  12.209   2.909   2.961 -0.1919  0.1932 -0.7913
   52MOL0     H 7156  11.159   3.229   2.861 -4.5319  1.0625 -0.5803
   52MOL0     H 7157  10.979   3.392   2.874  0.7459 -0.1698  2.0447
   52MOL0     H 7158  10.729   3.666   2.701  0.7379 -0.5155  0.8349
   52MOL0     H 7159  10.528   3.809   2.676 -0.8637 -2.5533  1.7844
   52MOL0     H 7160   8.840   3.780   3.401 -1.5358 -0.3073 -0.4033
   52MOL0     H 7161   8.626   3.798   3.513 -2.3340 -3.4340  0.2618
   52MOL0     H 7162   8.342   3.644   3.681  2.0451 -2.2762  2.5327
   52MOL0     H 7163   8.114   3.604   3.744  1.9192 -0.6483 -0.0815
   52MOL0     H 7164   7.927   3.816   4.091 -2.7880 -2.2611  0.9412
   52MOL0     H 7165   7.913   3.943   3.962 -3.2136  0.3702  0.8631
   52MOL0     H 7166   7.759   3.696   3.996  2.3754  1.0648  2.2860
   52MOL0     H 7167   7.733   3.818   3.864 -2.2206  0.5209  0.4788
   52MOL0     H 7168   7.704   3.870   4.162 -0.3705 -0.2371  0.2755
   52MOL0     H 7169   7.618   3.960   4.045 -0.5357 -0.9936  1.0072
   52MOL0     H 7170   7.470   3.813   4.159 -0.7932 -2.1024  0.5251
   52MOL0     H 7171   7.555   3.667   4.090  0.1352  0.1211 -1.4761
   52MOL0     H 7172   7.294   3.807   3.794 -0.7385 -2.0447  0.0340
   52MOL0     H 7173   8.136   3.945   4.003  2.7442  1.0296  1.0912
   52MOL0     H 7174   8.340   4.048   4.061 -1.2462 -0.1126 -0.8536
   52MOL0     H 7175   8.475   3.927   4.031 -1.7416 -3.6229 -3.1378
   52MOL0     H 7176   8.447   4.080   3.936 -0.0373  0.4677  0.6096
   53MOL0     O 7177   1.788   3.437  11.048 -0.0488  0.9054  0.2461
   53MOL0     C 7178   1.749   3.337  10.986 -0.9608 -0.4897  0.7854
   53MOL0     O 7179   1.822   3.225  10.945 -0.5500 -0.1302 -0.3093
   53MOL0     C 7180   1.947   3.203  11.005 -1.1380 -0.7538  0.6550
   53MOL0     C 7181   2.050   3.153  10.916  0.2118 -0.3254 -0.3014
   53MOL0     C 7182   2.173   3.109  10.965 -0.0371 -0.5848 -0.4328
   53MOL0     C 7183   2.197   3.122  11.099  0.2874 -0.8292 -0.7437
   53MOL0     O 7184   2.319   3.083  11.142  0.1830  0.2889 -0.5341
   53MOL0     C 7185   2.371   3.117  11.272  0.5193  0.6695  0.0006
   53MOL0     C 7186   2.515   3.060  11.278  0.8166 -0.1606 -0.1304
   53MOL0     C 7187   2.611   3.144  11.185  0.3958  0.6466 -0.5441
   53MOL0     C 7188   2.743   3.071  11.189 -0.6304  0.0127  0.6656
   53MOL0     C 7189   2.853   3.147  11.113  0.1114  0.1662  0.6680
   53MOL0     C 7190   2.820   3.138  10.963 -0.6058 -0.0223 -1.0290
   53MOL0     C 7191   2.929   3.187  10.870 -0.4278  0.2013  0.0328
   53MOL0     C 7192   2.897   3.171  10.722 -0.3232  0.5029 -0.5679
   53MOL0     N 7193   2.839   3.305  10.676  0.7267  0.2587 -0.4192
   53MOL0     C 7194   2.712   3.348  10.696  0.0639  0.1597  0.5142
   53MOL0     C 7195   2.711   3.460  10.625  0.3670 -0.1567 -0.3100
   53MOL0     C 7196   2.587   3.541  10.626  0.6817 -1.0844 -0.6146
   53MOL0     C 7197   2.479   3.494  10.528  0.0818  0.2962  0.2411
   53MOL0     C 7198   2.472   3.569  10.393 -0.0564  1.0839 -0.1988
   53MOL0     C 7199   2.598   3.544  10.309 -0.5101 -0.1743  0.4856
   53MOL0     O 7200   2.610   3.399  10.282  0.1799 -0.7895  0.9796
   53MOL0     C 7201   2.728   3.366  10.234  0.6023  0.0031 -0.7267
   53MOL0     C 7202   2.762   3.396  10.108 -0.1938  0.0020  0.1094
   53MOL0     C 7203   2.882   3.356  10.056 -0.4119  0.0366  0.5593
   53MOL0     C 7204   2.924   3.405   9.917  0.7543  0.1762 -0.6904
   53MOL0     C 7205   2.981   3.291  10.138 -0.4372  0.5217  0.5078
   53MOL0     C 7206   3.120   3.263  10.094 -0.0603 -0.0375  0.1726
   53MOL0     O 7207   3.180   3.356  10.014 -0.4324  0.8955 -0.8098
   53MOL0     C 7208   3.304   3.329   9.977 -0.0036  0.9889  0.2037
   53MOL0     C 7209   3.331   3.270   9.854 -0.5743  0.9683  0.1917
   53MOL0     C 7210   3.467   3.247   9.819 -0.2863  0.4807 -0.3471
   53MOL0     C 7211   3.574   3.298   9.899  0.9904 -0.0912 -0.8626
   53MOL0     O 7212   3.702   3.290   9.847  0.2003 -0.1843  0.1379
   53MOL0     C 7213   3.794   3.225   9.930 -0.3771 -0.4296 -0.3710
   53MOL0     C 7214   3.937   3.268   9.890  0.2180 -0.4610  0.2504
   53MOL0     C 7215   4.051   3.207   9.982  0.5244 -0.2025  0.6829
   53MOL0     C 7216   4.159   3.148   9.896 -0.8413 -0.2336  0.5481
   53MOL0     C 7217   4.130   3.016   9.816 -0.2279  0.9397  0.2505
   53MOL0     C 7218   4.254   2.974   9.729  0.8104  1.0768  0.7296
   53MOL0     C 7219   4.236   2.831   9.670 -0.0535 -0.1973  0.1394
   53MOL0     C 7220   4.358   2.791   9.583 -0.2009  0.7456 -0.2407
   53MOL0    Cl 7221   4.502   2.777   9.692  0.2486  0.2032 -0.3387
   53MOL0     C 7222   3.542   3.358  10.022  0.0280  0.0970  0.1452
   53MOL0     C 7223   3.413   3.362  10.063  0.4590  0.0241  0.1003
   53MOL0     O 7224   3.174   3.157  10.132  0.7820  0.3486  0.1979
   53MOL0     C 7225   2.935   3.249  10.259 -0.6322 -0.4506 -0.3143
   53MOL0     C 7226   2.813   3.284  10.307  0.5010 -0.7527  0.5283
   53MOL0     N 7227   2.836   3.484  10.565 -0.0359  0.1315  0.3150
   53MOL0     N 7228   2.908   3.389  10.597 -0.2025  0.0715 -0.1089
   53MOL0     C 7229   2.099   3.174  11.187 -0.1835  0.3103  0.1589
   53MOL0     C 7230   1.973   3.204  11.144  0.3445 -0.2256 -1.0080
   53MOL0     C 7231   1.607   3.338  10.964  0.2354 -0.7114 -0.2332
   53MOL0     C 7232   1.553   3.205  10.981 -0.3877 -0.2871 -0.3704
   53MOL0     C 7233   1.408   3.194  10.976  0.4856  1.4430  0.3957
   53MOL0     C 7234   1.332   3.304  10.955 -0.0548 -0.1051  1.0906
   53MOL0     O 7235   1.196   3.288  10.963 -0.1938 -0.2214 -0.2593
   53MOL0     C 7236   1.109   3.400  11.000 -0.1234 -0.2806 -0.1435
   53MOL0     C 7237   0.964   3.364  10.999  0.1190 -0.7669  0.1750
   53MOL0     C 7238   0.922   3.301  11.125 -0.1943 -0.2852 -0.4282
   53MOL0     C 7239   0.809   3.197  11.109 -0.7202  0.8933 -0.3029
   53MOL0     C 7240   0.693   3.249  11.047  1.4734  0.1424  0.9784
   53MOL0     C 7241   0.590   3.287  10.996  0.1333 -0.1976  0.6915
   53MOL0     C 7242   1.390   3.431  10.930 -0.0312  0.2685  0.0027
   53MOL0     C 7243   1.525   3.452  10.935 -0.5849 -0.0930  0.2091
   53MOL0     C 7244   1.567   3.590  10.898  0.0467  0.5452 -0.1803
   53MOL0     H 7245   2.031   3.165  10.809  1.7432  0.8778 -0.4760
   53MOL0     H 7246   2.249   3.074  10.897 -0.6401  0.0650 -1.4640
   53MOL0     H 7247   2.312   3.071  11.352 -0.4122  1.6285 -0.1133
   53MOL0     H 7248   2.368   3.225  11.287 -0.5254  0.4167  1.8586
   53MOL0     H 7249   2.547   3.045  11.382 -0.6035  3.0484  0.8825
   53MOL0     H 7250   2.514   2.959  11.237  0.1449 -0.4273  0.5113
   53MOL0     H 7251   2.567   3.160  11.086  1.3911  4.9109 -0.4815
   53MOL0     H 7252   2.626   3.236  11.242  0.0275 -1.7321  3.8533
   53MOL0     H 7253   2.773   3.075  11.294 -2.3878  3.1054  1.1701
   53MOL0     H 7254   2.733   2.970  11.147 -1.3955 -0.0305  0.9372
   53MOL0     H 7255   2.958   3.118  11.122  0.0430 -0.0275  0.8748
   53MOL0     H 7256   2.856   3.248  11.156 -0.8162  0.4401  0.1137
   53MOL0     H 7257   2.810   3.030  10.947 -2.1109 -0.0722  0.0389
   53MOL0     H 7258   2.728   3.193  10.941  0.2288  0.7514 -2.8174
   53MOL0     H 7259   3.013   3.120  10.893 -0.7929 -0.3230 -0.1331
   53MOL0     H 7260   2.962   3.290  10.889 -1.4061  0.4218  0.6019
   53MOL0     H 7261   2.990   3.147  10.670  0.7614  0.8648  1.1196
   53MOL0     H 7262   2.835   3.082  10.706  3.7204 -3.2248  2.0331
   53MOL0     H 7263   2.633   3.294  10.747 -0.3662 -0.4834 -0.7818
   53MOL0     H 7264   2.626   3.642  10.608  0.3462 -0.6109  1.1570
   53MOL0     H 7265   2.532   3.546  10.720 -1.4146  0.5258 -1.8157
   53MOL0     H 7266   2.499   3.390  10.501  0.2729 -0.3111  2.4971
   53MOL0     H 7267   2.381   3.500  10.576 -0.2930  0.7016 -0.5461
   53MOL0     H 7268   2.391   3.529  10.332  0.1373  0.4630 -0.0590
   53MOL0     H 7269   2.463   3.678  10.398  0.7384  1.1641 -0.4069
   53MOL0     H 7270   2.593   3.602  10.217 -0.5556 -2.2930 -0.9239
   53MOL0     H 7271   2.679   3.589  10.366 -1.0589  2.1869 -0.5102
   53MOL0     H 7272   2.692   3.448  10.043 -0.0192  0.1989  0.0767
   53MOL0     H 7273   2.961   3.508   9.922 -1.9413  1.1834  3.3753
   53MOL0     H 7274   2.833   3.404   9.858 -0.7128  3.4924  1.2426
   53MOL0     H 7275   3.000   3.348   9.862  1.0211  1.5562 -1.8056
   53MOL0     H 7276   3.245   3.243   9.793 -1.8955 -0.7046  2.6351
   53MOL0     H 7277   3.498   3.207   9.723 -0.0603  0.7312 -0.3818
   53MOL0     H 7278   3.779   3.244  10.037  0.8550 -0.1808 -0.2255
   53MOL0     H 7279   3.794   3.118   9.908  0.3108 -0.0283 -2.5484
   53MOL0     H 7280   3.952   3.235   9.787  3.3089  0.2468  0.3936
   53MOL0     H 7281   3.941   3.377   9.895  1.6563 -0.4089 -1.2479
   53MOL0     H 7282   4.019   3.127  10.049  0.8028 -0.9668 -0.0697
   53MOL0     H 7283   4.087   3.279  10.055  2.2974 -0.2479 -0.0915
   53MOL0     H 7284   4.243   3.119   9.960 -1.1022 -0.1481  0.9345
   53MOL0     H 7285   4.187   3.223   9.822 -1.4250 -2.5029 -2.1613
   53MOL0     H 7286   4.093   2.935   9.881  0.9888 -0.4773 -0.7568
   53MOL0     H 7287   4.052   3.040   9.743  0.1400  1.9979  0.1986
   53MOL0     H 7288   4.343   2.975   9.793  0.2883 -4.9548  2.1218
   53MOL0     H 7289   4.269   3.046   9.648  2.7805 -0.2642 -0.1739
   53MOL0     H 7290   4.147   2.837   9.607 -0.2185  2.4964  0.5382
   53MOL0     H 7291   4.221   2.766   9.757  1.8671  1.8290  2.0932
   53MOL0     H 7292   4.369   2.866   9.504 -2.7428  0.3385 -1.0763
   53MOL0     H 7293   4.342   2.693   9.538 -1.9362 -0.3620  2.5030
   53MOL0     H 7294   3.611   3.398  10.095 -3.0011  1.8334  2.3141
   53MOL0     H 7295   3.385   3.396  10.162  1.8799  2.0065 -0.1226
   53MOL0     H 7296   3.000   3.196  10.329  1.5404  1.5812 -0.6692
   53MOL0     H 7297   2.784   3.261  10.409  0.1428  1.6864  1.0453
   53MOL0     H 7298   2.131   3.176  11.291  0.1510 -0.9480  0.0879
   53MOL0     H 7299   1.889   3.215  11.212 -2.5803 -3.4919 -3.7018
   53MOL0     H 7300   1.611   3.115  10.999  3.8563  2.3272  0.1621
   53MOL0     H 7301   1.353   3.101  10.977  0.4868  1.4218 -0.5156
   53MOL0     H 7302   1.142   3.448  11.093 -1.3153  2.1611 -0.9185
   53MOL0     H 7303   1.118   3.481  10.927 -0.9350  0.0203  0.0875
   53MOL0     H 7304   0.958   3.299  10.911 -0.9668 -0.1080 -0.2608
   53MOL0     H 7305   0.909   3.457  10.979  3.0481  1.2374  0.8599
   53MOL0     H 7306   1.014   3.259  11.167  0.7068  3.1594  1.3661
   53MOL0     H 7307   0.891   3.366  11.207 -1.4179  0.5322 -1.4953
   53MOL0     H 7308   0.783   3.175  11.214 -1.2954 -0.0110 -0.6181
   53MOL0     H 7309   0.848   3.104  11.067  0.1783  1.0648  0.1269
   53MOL0     H 7310   0.507   3.326  10.940  0.0155  3.7534  3.2142
   53MOL0     H 7311   1.318   3.511  10.917 -0.5796 -0.7304 -5.8273
   53MOL0     H 7312   1.515   3.657  10.967 -1.7286 -1.3929  0.4769
   53MOL0     H 7313   1.675   3.601  10.890 -0.0187  0.6385 -0.9915
   53MOL0     H 7314   1.522   3.611  10.800 -1.6248  1.0483  0.6460
   54MOL0     O 7315   7.120   2.965  10.561  1.0653 -0.2883  0.3931
   54MOL0     C 7316   7.154   2.972  10.678 -0.1683  0.9639  0.3827
   54MOL0     O 7317   7.275   2.923  10.726  0.7096 -0.1550 -0.3521
   54MOL0     C 7318   7.366   2.873  10.643 -0.2335 -0.4775 -0.5441
   54MOL0     C 7319   7.498   2.923  10.655  0.9921 -0.3450  0.4963
   54MOL0     C 7320   7.597   2.859  10.578  0.3807  0.7607  0.3936
   54MOL0     C 7321   7.563   2.754  10.495  0.1132 -0.0156 -0.0851
   54MOL0     O 7322   7.663   2.691  10.421 -0.6030 -0.3253  0.1056
   54MOL0     C 7323   7.645   2.566  10.362 -0.2066  0.4591  0.4409
   54MOL0     C 7324   7.781   2.520  10.306 -0.0505  0.2971 -0.0175
   54MOL0     C 7325   7.898   2.530  10.411 -0.2265  0.4728  0.5378
   54MOL0     C 7326   8.018   2.432  10.386 -0.1837 -0.5234 -0.0248
   54MOL0     C 7327   8.109   2.417  10.514 -0.2982 -0.8458  0.6499
   54MOL0     C 7328   8.231   2.324  10.498 -0.4726  0.1534  0.2304
   54MOL0     C 7329   8.315   2.334  10.620  0.4321 -0.0913 -0.6346
   54MOL0     C 7330   8.425   2.221  10.618 -0.2158  0.2924  0.0863
   54MOL0     N 7331   8.519   2.258  10.721 -0.0335  0.7077  0.0907
   54MOL0     C 7332   8.610   2.356  10.728 -0.1477 -1.0098  0.2243
   54MOL0     C 7333   8.695   2.324  10.832  0.1836  0.0961 -0.5436
   54MOL0     C 7334   8.815   2.407  10.865  0.4743 -0.4225  0.1585
   54MOL0     C 7335   8.931   2.318  10.915  0.0351 -1.0332 -1.0549
   54MOL0     C 7336   9.058   2.407  10.931  0.3787  0.6915 -0.0301
   54MOL0     C 7337   9.127   2.430  10.793 -0.0848 -0.1732 -0.2112
   54MOL0     O 7338   9.253   2.491  10.819 -0.2346 -0.4022  0.5608
   54MOL0     C 7339   9.350   2.414  10.873 -1.0466 -0.6896 -0.8890
   54MOL0     C 7340   9.366   2.281  10.856 -0.3618  0.8720  0.2576
   54MOL0     C 7341   9.476   2.210  10.904 -0.8275  0.2601  0.7833
   54MOL0     C 7342   9.480   2.056  10.866 -0.2836  0.5887  0.5231
   54MOL0     C 7343   9.576   2.281  10.976 -0.3855  0.0463  0.6943
   54MOL0     C 7344   9.701   2.213  11.002 -0.0964 -0.1092 -0.2695
   54MOL0     O 7345   9.769   2.262  11.113 -0.1725  0.1430 -0.1508
   54MOL0     C 7346   9.888   2.206  11.145 -0.1243 -0.3813 -0.6352
   54MOL0     C 7347   9.915   2.069  11.156 -0.6130 -0.3287 -0.3712
   54MOL0     C 7348  10.029   2.029  11.221 -0.3457 -0.4938  0.1268
   54MOL0     C 7349  10.127   2.117  11.271  0.1873  0.5229  0.1345
   54MOL0     O 7350  10.251   2.087  11.320  0.1967  0.4134  0.3480
   54MOL0     C 7351  10.321   1.973  11.260 -0.1862  0.7346 -0.3592
   54MOL0     C 7352  10.446   1.947  11.341  0.1229 -0.3324 -0.3259
   54MOL0     C 7353  10.547   2.053  11.301  0.5775 -0.3828 -0.6444
   54MOL0     C 7354  10.674   2.024  11.384 -0.9081  0.5810 -0.7385
   54MOL0     C 7355  10.684   2.085  11.528  0.3694  0.4976 -0.0587
   54MOL0     C 7356  10.814   2.051  11.593 -0.1566  0.7820  0.6185
   54MOL0     C 7357  10.842   1.904  11.626  0.2503  0.4752  0.9303
   54MOL0     C 7358  10.975   1.878  11.698 -0.2294 -0.2863 -0.6642
   54MOL0    Cl 7359  10.963   1.902  11.870  0.1864  0.0118 -0.0022
   54MOL0     C 7360  10.096   2.250  11.249 -0.4263  0.3765  0.1784
   54MOL0     C 7361   9.982   2.293  11.186  0.0172 -0.2830 -0.9426
   54MOL0     O 7362   9.745   2.131  10.929  0.0296  0.0144 -0.8820
   54MOL0     C 7363   9.551   2.417  11.005  0.5728  0.0287 -0.2125
   54MOL0     C 7364   9.440   2.482  10.960  0.7440 -0.1464 -0.0127
   54MOL0     N 7365   8.653   2.202  10.891  0.0865 -0.2295 -0.5624
   54MOL0     N 7366   8.542   2.181  10.833 -0.1055  0.3972  0.0452
   54MOL0     C 7367   7.439   2.713  10.489 -0.5280 -0.0711 -0.6519
   54MOL0     C 7368   7.342   2.767  10.567 -0.8178  0.5914 -0.1837
   54MOL0     C 7369   7.049   3.023  10.769 -0.3129 -0.8386 -0.6456
   54MOL0     C 7370   7.069   3.019  10.912 -0.6266  1.3956 -0.1874
   54MOL0     C 7371   6.974   3.060  11.002 -0.2403  0.2857  0.6660
   54MOL0     C 7372   6.871   3.137  10.965  0.2771 -0.5645  0.2971
   54MOL0     O 7373   6.794   3.200  11.056 -0.7668 -0.2503 -0.1056
   54MOL0     C 7374   6.691   3.112  11.108 -0.0867 -0.0349  0.1040
   54MOL0     C 7375   6.654   3.145  11.259 -0.0817  0.6665 -0.1698
   54MOL0     C 7376   6.626   3.296  11.267 -0.1963 -0.4335  0.2877
   54MOL0     C 7377   6.525   3.327  11.374 -0.1396  0.1489 -0.1187
   54MOL0     C 7378   6.482   3.464  11.376 -0.1300 -0.4250 -0.2899
   54MOL0     C 7379   6.423   3.573  11.392  0.2580  0.5347  0.1730
   54MOL0     C 7380   6.842   3.152  10.827 -0.1801  0.2955  1.9390
   54MOL0     C 7381   6.924   3.090  10.730  0.2271  0.7664 -0.3694
   54MOL0     C 7382   6.879   3.116  10.583  0.2441  0.0397 -0.0441
   54MOL0     H 7383   7.521   3.015  10.707  0.9615 -0.6485  1.0515
   54MOL0     H 7384   7.696   2.904  10.565  0.6347  1.2715  3.4879
   54MOL0     H 7385   7.568   2.565  10.284  0.9294 -1.1691 -0.7262
   54MOL0     H 7386   7.618   2.491  10.437  0.6115  0.9401  1.2344
   54MOL0     H 7387   7.762   2.417  10.275  0.4299  0.4200 -0.7551
   54MOL0     H 7388   7.799   2.578  10.215 -0.9540  1.1355  0.3202
   54MOL0     H 7389   7.930   2.634  10.417  2.4826 -0.3061  0.8695
   54MOL0     H 7390   7.852   2.512  10.509 -0.6001  0.1751  0.3111
   54MOL0     H 7391   7.981   2.332  10.365  2.5262 -1.7706  0.7761
   54MOL0     H 7392   8.079   2.465  10.301 -0.0956 -1.6171 -0.3970
   54MOL0     H 7393   8.049   2.393  10.603 -0.3288 -0.3119  0.7776
   54MOL0     H 7394   8.150   2.516  10.538 -1.5575 -0.5122  1.5173
   54MOL0     H 7395   8.204   2.219  10.484 -1.2620  0.4064 -0.1812
   54MOL0     H 7396   8.292   2.348  10.410 -0.8228  1.2483  0.2678
   54MOL0     H 7397   8.251   2.311  10.705  1.0828 -0.6592 -0.2885
   54MOL0     H 7398   8.348   2.438  10.633 -0.7897  0.4051 -1.2661
   54MOL0     H 7399   8.373   2.129  10.643 -0.6761 -0.1357 -2.1867
   54MOL0     H 7400   8.468   2.202  10.519  0.9842 -0.5897  0.7536
   54MOL0     H 7401   8.621   2.440  10.660  1.9896 -2.4722 -1.4122
   54MOL0     H 7402   8.791   2.490  10.932 -2.1975  1.2200 -2.5482
   54MOL0     H 7403   8.842   2.457  10.771  2.3439  0.9722  1.3623
   54MOL0     H 7404   8.913   2.271  11.012  4.0870  1.7591  1.3651
   54MOL0     H 7405   8.949   2.247  10.834 -0.5084 -1.6087 -0.6805
   54MOL0     H 7406   9.045   2.503  10.983  0.1887  0.3345  0.5991
   54MOL0     H 7407   9.124   2.359  11.003  0.2223  0.0780 -0.2895
   54MOL0     H 7408   9.126   2.345  10.725 -0.1679  1.1803 -1.9659
   54MOL0     H 7409   9.063   2.504  10.745  0.3729  1.6492  1.8234
   54MOL0     H 7410   9.295   2.223  10.799 -0.0767  1.7440 -1.0388
   54MOL0     H 7411   9.559   2.024  10.797 -2.1249 -1.0691 -0.9266
   54MOL0     H 7412   9.384   2.021  10.827 -0.4123 -0.1641  1.4646
   54MOL0     H 7413   9.492   1.998  10.958  0.6857  0.7004  0.4757
   54MOL0     H 7414   9.836   2.005  11.119 -1.7110 -0.5820  2.2148
   54MOL0     H 7415  10.046   1.923  11.238 -4.8575 -1.5319 -0.6478
   54MOL0     H 7416  10.276   1.874  11.254  2.3549 -0.6020  0.7893
   54MOL0     H 7417  10.346   1.999  11.157 -0.7171  2.9112  0.0245
   54MOL0     H 7418  10.412   1.951  11.445  2.3725 -0.4157  0.4556
   54MOL0     H 7419  10.490   1.850  11.318  0.9898  0.2650 -1.2400
   54MOL0     H 7420  10.504   2.153  11.309  0.1432 -0.6507  0.4601
   54MOL0     H 7421  10.562   2.034  11.194 -0.8812  1.9575 -1.3439
   54MOL0     H 7422  10.761   2.067  11.334 -0.7362  0.7173 -0.3198
   54MOL0     H 7423  10.686   1.916  11.392  1.1435  0.4302 -3.9629
   54MOL0     H 7424  10.665   2.193  11.519 -3.3300 -0.0563 -0.4373
   54MOL0     H 7425  10.603   2.049  11.592  1.3071  0.9177  1.4179
   54MOL0     H 7426  10.822   2.107  11.687 -0.5426  0.1115  1.0570
   54MOL0     H 7427  10.905   2.088  11.544  2.1969 -3.1964  1.4568
   54MOL0     H 7428  10.869   1.853  11.533 -0.4548  0.4269  0.7406
   54MOL0     H 7429  10.751   1.849  11.655 -1.4395  2.4563 -0.3568
   54MOL0     H 7430  11.056   1.935  11.654 -1.1842  0.9495 -0.8676
   54MOL0     H 7431  11.002   1.773  11.682 -2.5374 -1.1591  0.5534
   54MOL0     H 7432  10.172   2.325  11.271  0.0065 -0.0490  0.1512
   54MOL0     H 7433   9.967   2.400  11.181 -1.1270 -0.4504 -1.4245
   54MOL0     H 7434   9.619   2.473  11.069 -0.8228 -0.5466  1.9048
   54MOL0     H 7435   9.435   2.590  10.954  0.2272 -0.2313 -1.8141
   54MOL0     H 7436   7.406   2.639  10.417 -0.9303  0.1850 -0.7325
   54MOL0     H 7437   7.254   2.704  10.574  0.6661 -1.5522 -0.1247
   54MOL0     H 7438   7.164   2.979  10.945 -0.8475  0.9606 -0.0631
   54MOL0     H 7439   6.989   3.041  11.108 -2.6378 -1.2014  0.8251
   54MOL0     H 7440   6.600   3.139  11.054 -0.0454  1.2969  0.6663
   54MOL0     H 7441   6.720   3.006  11.108  3.1008  0.7303  0.5364
   54MOL0     H 7442   6.741   3.109  11.314 -1.1168 -1.1094  0.3787
   54MOL0     H 7443   6.568   3.087  11.291 -0.5227  1.1387 -0.4770
   54MOL0     H 7444   6.713   3.361  11.280 -0.7463  0.4797 -0.3956
   54MOL0     H 7445   6.586   3.326  11.170  1.7068  0.0141 -0.4172
   54MOL0     H 7446   6.575   3.289  11.463 -1.5566 -1.6194 -0.0282
   54MOL0     H 7447   6.435   3.265  11.373 -0.4097  0.3367  2.9902
   54MOL0     H 7448   6.371   3.666  11.386  2.0308  1.6351  1.1393
   54MOL0     H 7449   6.746   3.202  10.815  0.1959  1.3765  3.1644
   54MOL0     H 7450   6.865   3.022  10.528 -0.0748  0.7866 -1.2774
   54MOL0     H 7451   6.784   3.170  10.573  1.6304  2.2679 -2.1294
   54MOL0     H 7452   6.949   3.178  10.526 -1.5853  1.1845 -1.1475
   55MOL0     O 7453   3.341   0.851   1.930  0.0184 -0.7267  0.0865
   55MOL0     C 7454   3.316   0.756   2.001 -0.0102 -0.2444  0.0238
   55MOL0     O 7455   3.418   0.684   2.064 -0.4232 -0.4317 -0.6921
   55MOL0     C 7456   3.543   0.706   2.013 -0.3092 -0.1301  0.1461
   55MOL0     C 7457   3.630   0.809   2.068  0.7801 -0.3307  0.3676
   55MOL0     C 7458   3.757   0.837   1.997  0.7374  0.1708 -1.1106
   55MOL0     C 7459   3.797   0.755   1.891  0.1595 -0.1182 -1.1401
   55MOL0     O 7460   3.915   0.771   1.826 -0.4162 -0.3380  0.4142
   55MOL0     C 7461   4.009   0.876   1.859  0.5231  0.8596 -0.0527
   55MOL0     C 7462   4.143   0.831   1.794 -0.5738  0.7896  0.0611
   55MOL0     C 7463   4.252   0.934   1.846  0.0820 -0.9471 -0.2849
   55MOL0     C 7464   4.393   0.922   1.779  0.0451 -0.4763 -1.1054
   55MOL0     C 7465   4.500   1.029   1.837 -0.2012 -0.3307 -0.1944
   55MOL0     C 7466   4.638   1.013   1.770 -0.0180 -0.5700 -1.0293
   55MOL0     C 7467   4.745   1.091   1.851 -0.1542  0.6930 -0.2584
   55MOL0     C 7468   4.762   1.238   1.813 -0.1177 -0.2041  0.2699
   55MOL0     N 7469   4.891   1.271   1.744  0.1131 -0.2439 -0.0934
   55MOL0     C 7470   4.952   1.389   1.744  0.4720 -0.3927  0.2551
   55MOL0     C 7471   5.050   1.389   1.650 -0.5915  1.0284  1.0116
   55MOL0     C 7472   5.132   1.505   1.605  0.3706  0.4114  0.4344
   55MOL0     C 7473   5.055   1.590   1.515 -1.0133 -0.1631  0.3409
   55MOL0     C 7474   5.011   1.532   1.388 -1.0856  0.9403  0.1871
   55MOL0     C 7475   5.128   1.477   1.301  0.8077  0.7412  1.5203
   55MOL0     O 7476   5.226   1.580   1.287  0.1674 -0.1345 -0.2981
   55MOL0     C 7477   5.329   1.565   1.192  0.1652  0.1194 -0.2857
   55MOL0     C 7478   5.393   1.681   1.142 -0.3336 -0.1348  0.1058
   55MOL0     C 7479   5.495   1.666   1.041  0.4332  0.3146 -0.8223
   55MOL0     C 7480   5.566   1.792   1.005  0.2662 -0.9089  0.2590
   55MOL0     C 7481   5.524   1.533   0.995 -0.5558 -0.1382  0.4137
   55MOL0     C 7482   5.628   1.511   0.884  1.0062  0.5200  0.1748
   55MOL0     O 7483   5.682   1.384   0.887  0.1679 -0.3634 -0.2745
   55MOL0     C 7484   5.779   1.349   0.798  0.2823  0.9511 -0.1622
   55MOL0     C 7485   5.917   1.385   0.799 -0.3542  0.0943  0.0834
   55MOL0     C 7486   6.008   1.335   0.700 -0.3606 -0.1065  0.3899
   55MOL0     C 7487   5.960   1.254   0.606 -0.0500  0.9642 -1.0211
   55MOL0     O 7488   6.044   1.193   0.509  0.0921 -0.4055 -0.1479
   55MOL0     C 7489   6.145   1.278   0.457 -0.0306  0.8028  0.7219
   55MOL0     C 7490   6.181   1.230   0.315  0.2846 -0.4189 -0.1664
   55MOL0     C 7491   6.273   1.334   0.248 -0.5617  0.0600  0.7771
   55MOL0     C 7492   6.421   1.336   0.297  0.2610  0.1280 -0.2447
   55MOL0     C 7493   6.491   1.445   0.222 -0.2428 -0.4701 -0.0833
   55MOL0     C 7494   6.650   1.456   0.223 -1.3850 -0.3332  0.2889
   55MOL0     C 7495   6.685   1.577   0.141 -0.1491 -0.6786 -1.0651
   55MOL0     C 7496   6.725   1.699   0.224 -0.6623  0.1651 -0.5282
   55MOL0    Cl 7497   6.878   1.675   0.314 -0.3217 -0.0128 -0.0110
   55MOL0     C 7498   5.829   1.225   0.604 -0.2611 -0.8002 -0.0242
   55MOL0     C 7499   5.731   1.271   0.691 -0.3927  1.1658 -0.4048
   55MOL0     O 7500   5.668   1.604   0.812 -0.2975  0.1883  0.3549
   55MOL0     C 7501   5.457   1.430   1.042 -0.4228  0.6012 -0.6036
   55MOL0     C 7502   5.366   1.438   1.143 -0.2732  0.1081  0.0574
   55MOL0     N 7503   5.053   1.263   1.593 -0.9289  0.1365  0.6497
   55MOL0     N 7504   4.958   1.195   1.653 -0.0132 -0.6548  1.1930
   55MOL0     C 7505   3.710   0.652   1.843 -0.4094  0.2297  0.2690
   55MOL0     C 7506   3.580   0.643   1.895 -0.3023 -0.9475  0.1506
   55MOL0     C 7507   3.176   0.720   2.021 -0.3466 -0.4706  0.4926
   55MOL0     C 7508   3.135   0.583   2.027  0.4879  0.5598  0.7276
   55MOL0     C 7509   3.002   0.545   2.042 -0.3621  0.2290  0.2707
   55MOL0     C 7510   2.904   0.639   2.050  0.0860  0.2010  0.8110
   55MOL0     O 7511   2.765   0.610   2.067  0.2469  0.1890  0.2127
   55MOL0     C 7512   2.715   0.477   2.070  0.7150  0.4356 -0.0580
   55MOL0     C 7513   2.562   0.473   2.100 -0.5898 -0.0992  0.2827
   55MOL0     C 7514   2.476   0.528   1.992  0.1502 -0.1494  0.0797
   55MOL0     C 7515   2.325   0.495   1.991  0.4009  1.0530 -1.1799
   55MOL0     C 7516   2.301   0.355   2.000  0.4233 -0.7858  0.3269
   55MOL0     C 7517   2.312   0.236   1.999 -0.2084  0.4078  0.0170
   55MOL0     C 7518   2.944   0.775   2.070 -0.4219  0.3070  0.2212
   55MOL0     C 7519   3.077   0.821   2.050  0.1274  0.3134  0.4921
   55MOL0     C 7520   3.111   0.965   2.090 -0.2766  0.9824  1.7971
   55MOL0     H 7521   3.598   0.846   2.164  2.4564 -1.7594  1.5341
   55MOL0     H 7522   3.819   0.916   2.039  0.8017  0.6292 -2.0342
   55MOL0     H 7523   4.027   0.877   1.967 -2.2649 -5.8678  0.9335
   55MOL0     H 7524   3.986   0.974   1.816  0.9607  0.3251 -1.5813
   55MOL0     H 7525   4.174   0.727   1.805  0.3235  1.2914  3.0868
   55MOL0     H 7526   4.139   0.838   1.685  3.0314 -1.6026 -0.4014
   55MOL0     H 7527   4.217   1.035   1.820  2.0076  0.0885  0.8978
   55MOL0     H 7528   4.267   0.947   1.953 -0.2947 -3.1514  0.0827
   55MOL0     H 7529   4.439   0.823   1.782 -0.2719 -0.6533 -1.8671
   55MOL0     H 7530   4.376   0.931   1.671 -1.8458 -1.9007 -0.9847
   55MOL0     H 7531   4.508   1.040   1.946  0.7315 -2.3672 -0.0200
   55MOL0     H 7532   4.463   1.130   1.816  1.1582  0.7551  2.2359
   55MOL0     H 7533   4.661   0.906   1.767 -3.0475 -1.3521 -0.4815
   55MOL0     H 7534   4.626   1.044   1.665 -0.8426 -2.2056 -1.4617
   55MOL0     H 7535   4.837   1.032   1.842 -0.6208 -0.3636  1.4950
   55MOL0     H 7536   4.723   1.091   1.958 -0.3377  1.9098 -0.2817
   55MOL0     H 7537   4.688   1.265   1.737  1.4475  0.6556 -1.0267
   55MOL0     H 7538   4.752   1.308   1.896 -2.7180  2.8201 -2.2905
   55MOL0     H 7539   4.929   1.475   1.806  0.0506 -0.6651  0.4806
   55MOL0     H 7540   5.229   1.472   1.565  0.1879 -1.0272  1.1266
   55MOL0     H 7541   5.155   1.553   1.701  3.2994  0.1526 -0.0422
   55MOL0     H 7542   4.962   1.617   1.567 -1.2629  0.8845 -0.6063
   55MOL0     H 7543   5.105   1.685   1.493 -0.7573 -0.3686  0.0495
   55MOL0     H 7544   4.950   1.444   1.413 -1.1912  1.4362  1.7493
   55MOL0     H 7545   4.954   1.604   1.328  1.8303  0.9773 -2.8225
   55MOL0     H 7546   5.174   1.383   1.332  0.9323 -0.0391 -0.8421
   55MOL0     H 7547   5.090   1.459   1.200  4.1765 -1.2168  0.4477
   55MOL0     H 7548   5.367   1.775   1.191  1.6825  0.2157  0.5676
   55MOL0     H 7549   5.507   1.838   0.925 -0.0959 -0.4624  0.7854
   55MOL0     H 7550   5.670   1.781   0.972 -0.2791 -0.8271 -1.6366
   55MOL0     H 7551   5.560   1.858   1.091 -0.0270 -1.9420  1.0515
   55MOL0     H 7552   5.951   1.461   0.869  0.5890  2.7115 -2.9774
   55MOL0     H 7553   6.110   1.370   0.695 -0.0336 -1.0122  0.6821
   55MOL0     H 7554   6.106   1.380   0.450  1.2134  1.4042  1.9583
   55MOL0     H 7555   6.228   1.268   0.528 -0.9635  0.3993  1.7880
   55MOL0     H 7556   6.245   1.142   0.326 -1.4227 -1.7521 -0.5323
   55MOL0     H 7557   6.096   1.202   0.253  0.9095  1.1297 -1.8302
   55MOL0     H 7558   6.228   1.434   0.253  3.4652  2.0049  1.7199
   55MOL0     H 7559   6.278   1.309   0.142 -2.1694  0.3758  0.5937
   55MOL0     H 7560   6.471   1.241   0.273  2.0878  0.7184  1.0846
   55MOL0     H 7561   6.426   1.358   0.404 -0.6653  1.2970 -0.4224
   55MOL0     H 7562   6.468   1.430   0.116 -0.1339 -2.3015  0.1213
   55MOL0     H 7563   6.453   1.540   0.262  0.6271  0.1626 -0.7335
   55MOL0     H 7564   6.686   1.365   0.174 -0.4809 -1.0735  2.2232
   55MOL0     H 7565   6.686   1.464   0.326 -0.2812  1.3515 -0.1816
   55MOL0     H 7566   6.596   1.604   0.083 -1.4399 -2.7554 -0.1749
   55MOL0     H 7567   6.765   1.550   0.071  0.0594  3.1204 -2.5144
   55MOL0     H 7568   6.644   1.722   0.294  0.1433  2.5353 -0.2938
   55MOL0     H 7569   6.734   1.786   0.160 -2.2338 -0.6032 -1.8690
   55MOL0     H 7570   5.787   1.167   0.522 -0.7104 -0.5400  0.0188
   55MOL0     H 7571   5.638   1.215   0.689 -0.7649  1.7333  0.6530
   55MOL0     H 7572   5.451   1.337   0.987 -0.0967  2.3111 -3.7829
   55MOL0     H 7573   5.319   1.346   1.176  1.1116  0.5853  3.8773
   55MOL0     H 7574   3.759   0.590   1.769  0.5553  1.3066 -0.0200
   55MOL0     H 7575   3.515   0.570   1.847 -2.2750 -0.2948  1.6916
   55MOL0     H 7576   3.202   0.506   1.991  0.8184  0.7582  0.9238
   55MOL0     H 7577   2.982   0.438   2.045 -0.1244  0.2076  2.1867
   55MOL0     H 7578   2.713   0.434   1.970  0.2108  1.7682 -0.6422
   55MOL0     H 7579   2.764   0.423   2.151  0.9583  2.0238  0.9056
   55MOL0     H 7580   2.544   0.540   2.184  0.8567  0.0867  0.4787
   55MOL0     H 7581   2.531   0.372   2.129 -0.7668 -0.9689 -2.6517
   55MOL0     H 7582   2.479   0.637   2.001 -1.5898 -0.1724  1.6865
   55MOL0     H 7583   2.512   0.491   1.895  2.5689 -0.4057  1.0024
   55MOL0     H 7584   2.282   0.555   1.910  2.7944  0.6402 -2.8635
   55MOL0     H 7585   2.286   0.541   2.082 -1.5566 -0.4077 -1.2207
   55MOL0     H 7586   2.307   0.129   2.009  3.2221  0.3126  2.1354
   55MOL0     H 7587   2.878   0.848   2.116  0.8495  0.9206  1.1116
   55MOL0     H 7588   3.184   0.964   2.170  0.3497  0.1831  1.2384
   55MOL0     H 7589   3.144   1.015   1.999 -0.7410  2.2792  2.3250
   55MOL0     H 7590   3.023   1.028   2.108 -2.8555 -1.1430 -1.8405
   56MOL0     O 7591   5.520  11.173   1.080  0.9052  0.2765 -0.6284
   56MOL0     C 7592   5.429  11.257   1.080  0.4842 -0.1411 -0.3969
   56MOL0     O 7593   5.442  11.385   1.126 -0.3057 -0.4005 -0.0334
   56MOL0     C 7594   5.568  11.456   1.119  0.4511 -0.2947  0.8647
   56MOL0     C 7595   5.577  11.592   1.152 -0.1500  0.5177  0.3992
   56MOL0     C 7596   5.687  11.673   1.125 -0.9913 -0.2841 -0.6825
   56MOL0     C 7597   5.795  11.616   1.065 -0.5321  0.3124 -0.2501
   56MOL0     O 7598   5.902  11.696   1.040  0.1473 -0.2023  0.3201
   56MOL0     C 7599   5.898  11.841   1.059 -0.1182  0.5412 -0.2363
   56MOL0     C 7600   6.032  11.912   1.021  0.7601  0.0589  0.0977
   56MOL0     C 7601   6.145  11.864   1.116  0.2209  0.9153 -0.2857
   56MOL0     C 7602   6.224  11.744   1.056 -0.0905  0.3864 -0.5339
   56MOL0     C 7603   6.349  11.725   1.141 -0.1415 -0.7601 -0.2334
   56MOL0     C 7604   6.428  11.594   1.107 -0.3972 -0.8872  0.7982
   56MOL0     C 7605   6.549  11.575   1.190 -0.3084  0.5624  0.3771
   56MOL0     C 7606   6.650  11.693   1.182 -0.0237  0.4800 -0.2158
   56MOL0     N 7607   6.786  11.649   1.218 -0.2741  0.1685  0.0017
   56MOL0     C 7608   6.823  11.572   1.326 -0.0260  0.1851  0.2698
   56MOL0     C 7609   6.958  11.570   1.315 -0.3399 -0.7060  0.1467
   56MOL0     C 7610   7.055  11.502   1.401  0.2159  0.3931 -0.5370
   56MOL0     C 7611   7.118  11.592   1.515 -0.0742 -0.3324  0.1994
   56MOL0     C 7612   7.028  11.611   1.630  0.8180  0.0905 -0.6393
   56MOL0     C 7613   7.099  11.675   1.746 -0.4510 -0.0593  0.3244
   56MOL0     O 7614   6.996  11.708   1.849  0.7821  0.0412 -0.0610
   56MOL0     C 7615   6.930  11.833   1.843 -0.4882  0.1466  0.5187
   56MOL0     C 7616   6.934  11.937   1.742  0.4111  0.1870  0.3519
   56MOL0     C 7617   6.846  12.044   1.750 -0.4198  0.9448 -0.4770
   56MOL0     C 7618   6.864  12.137   1.628  0.1556 -0.5555  0.1749
   56MOL0     C 7619   6.781  12.074   1.869  0.2636 -0.0384 -0.3947
   56MOL0     C 7620   6.691  12.197   1.894 -0.2170  0.3182  0.1782
   56MOL0     O 7621   6.642  12.209   2.019  0.2164 -0.3270 -0.5797
   56MOL0     C 7622   6.552  12.306   2.047 -0.6464 -0.2400  0.1420
   56MOL0     C 7623   6.575  12.431   2.101 -0.0268  0.6046 -0.1447
   56MOL0     C 7624   6.473  12.518   2.134 -1.2703  0.0630 -0.2444
   56MOL0     C 7625   6.341  12.484   2.114 -0.1540  0.3887  0.5512
   56MOL0     O 7626   6.247  12.576   2.135  0.3305 -0.7547  0.2109
   56MOL0     C 7627   6.123  12.519   2.184 -0.0626  0.8709 -0.0901
   56MOL0     C 7628   6.038  12.612   2.256 -0.0847  0.3374 -0.0909
   56MOL0     C 7629   5.918  12.539   2.316  0.3535  0.7519  0.5299
   56MOL0     C 7630   5.804  12.634   2.339  0.8506  0.4253 -0.3926
   56MOL0     C 7631   5.668  12.564   2.359 -0.5527  0.0966 -0.3129
   56MOL0     C 7632   5.664  12.525   2.512  0.2300  0.0518  0.4949
   56MOL0     C 7633   5.588  12.396   2.543 -0.5880  0.2339  0.1338
   56MOL0     C 7634   5.618  12.348   2.681 -0.2407 -0.6039  0.3458
   56MOL0    Cl 7635   5.465  12.337   2.787  0.0382  0.6016 -0.0375
   56MOL0     C 7636   6.310  12.360   2.053 -0.4664  0.0999  0.7850
   56MOL0     C 7637   6.420  12.269   2.035 -0.0761  0.5460  0.2975
   56MOL0     O 7638   6.659  12.270   1.804  0.0488  0.5153  0.3580
   56MOL0     C 7639   6.793  11.984   1.974 -0.4982 -0.2545  0.0113
   56MOL0     C 7640   6.855  11.860   1.956 -0.2511 -1.0302  0.1441
   56MOL0     N 7641   7.005  11.653   1.207 -0.1186 -0.1311  0.6409
   56MOL0     N 7642   6.900  11.702   1.151 -0.2003 -0.7002  0.2168
   56MOL0     C 7643   5.798  11.486   1.032 -0.1929 -0.7904 -0.2230
   56MOL0     C 7644   5.692  11.408   1.062  0.5397  0.4058  0.2675
   56MOL0     C 7645   5.298  11.227   1.022 -0.5495  0.3558 -0.2839
   56MOL0     C 7646   5.187  11.275   1.093 -0.3613  0.3778 -0.3859
   56MOL0     C 7647   5.062  11.249   1.050  0.6112  0.8182  0.5554
   56MOL0     C 7648   5.035  11.180   0.934  0.3344  0.1648  0.0273
   56MOL0     O 7649   4.907  11.146   0.899  0.1763 -0.3077 -0.0486
   56MOL0     C 7650   4.870  11.150   0.762 -0.7633 -0.7476  0.2723
   56MOL0     C 7651   4.858  11.303   0.722 -0.1747  0.5527 -0.1768
   56MOL0     C 7652   4.725  11.346   0.779 -0.4317  0.0012 -0.4689
   56MOL0     C 7653   4.698  11.497   0.752 -0.1439 -0.2339 -0.1337
   56MOL0     C 7654   4.648  11.524   0.614  0.0734 -1.1925  0.3195
   56MOL0     C 7655   4.631  11.533   0.489  0.8033 -0.0246 -0.0362
   56MOL0     C 7656   5.144  11.121   0.867  0.1731  0.4429  0.6362
   56MOL0     C 7657   5.279  11.152   0.902  0.2750 -0.7769 -0.2749
   56MOL0     C 7658   5.397  11.101   0.825 -0.6936  0.3720 -0.4063
   56MOL0     H 7659   5.495  11.644   1.201 -0.4391  0.6206 -0.1807
   56MOL0     H 7660   5.676  11.775   1.159 -0.5516  0.1369 -1.7426
   56MOL0     H 7661   5.872  11.869   1.161  0.6642  2.2150 -0.4604
   56MOL0     H 7662   5.816  11.884   1.000 -1.5832 -1.0741  0.5234
   56MOL0     H 7663   6.053  11.899   0.915 -2.2914 -3.2389 -0.3006
   56MOL0     H 7664   6.022  12.021   1.028 -0.3865 -0.0013 -0.3198
   56MOL0     H 7665   6.206  11.953   1.134  0.6848  1.0851 -2.3807
   56MOL0     H 7666   6.111  11.820   1.211 -0.3724 -2.7410 -1.9958
   56MOL0     H 7667   6.170  11.650   1.041 -0.9761  1.2130 -3.1541
   56MOL0     H 7668   6.252  11.781   0.957 -0.8328 -1.2617 -1.4007
   56MOL0     H 7669   6.321  11.720   1.247  0.9887  0.9824  0.1881
   56MOL0     H 7670   6.410  11.815   1.131 -1.2673 -0.0940 -1.5554
   56MOL0     H 7671   6.361  11.508   1.102  1.0493 -1.9785 -1.0380
   56MOL0     H 7672   6.470  11.597   1.006 -1.3035  0.8417  0.4346
   56MOL0     H 7673   6.593  11.477   1.170 -0.7070  0.1781  1.2944
   56MOL0     H 7674   6.517  11.556   1.293  0.0657 -2.8749 -0.0330
   56MOL0     H 7675   6.635  11.730   1.080 -3.8611 -1.7210 -0.6516
   56MOL0     H 7676   6.616  11.770   1.251 -4.2551 -1.8803  0.6227
   56MOL0     H 7677   6.770  11.527   1.410  2.0929  1.0977  2.2351
   56MOL0     H 7678   7.125  11.442   1.342 -0.5200 -1.1585  0.1183
   56MOL0     H 7679   7.004  11.416   1.445  2.5628 -1.3710 -1.0663
   56MOL0     H 7680   7.203  11.527   1.538 -2.1168 -3.8097 -1.2308
   56MOL0     H 7681   7.134  11.687   1.463  0.6184 -1.0584 -0.9569
   56MOL0     H 7682   6.940  11.671   1.605 -0.1080 -1.5818 -1.5646
   56MOL0     H 7683   6.982  11.518   1.665 -0.1684  1.3143  1.5450
   56MOL0     H 7684   7.175  11.606   1.783 -0.9136 -1.9724 -2.0766
   56MOL0     H 7685   7.146  11.765   1.706 -1.5911 -0.2837 -1.6685
   56MOL0     H 7686   7.001  11.910   1.661  2.1430  2.9413  0.7126
   56MOL0     H 7687   6.919  12.087   1.547 -0.8074 -2.1646  0.4665
   56MOL0     H 7688   6.920  12.225   1.660 -1.8867  1.1345 -0.6763
   56MOL0     H 7689   6.764  12.162   1.593  0.1447 -0.3777  0.3328
   56MOL0     H 7690   6.678  12.459   2.123  0.0157  0.9293 -0.7668
   56MOL0     H 7691   6.511  12.610   2.175  1.5694 -1.1732  0.1111
   56MOL0     H 7692   6.075  12.473   2.097  1.4626  0.8007 -0.9449
   56MOL0     H 7693   6.149  12.444   2.260 -1.7148 -0.3771 -0.7004
   56MOL0     H 7694   6.087  12.644   2.348 -0.4917 -1.4246  0.7965
   56MOL0     H 7695   6.007  12.687   2.182 -2.5121 -2.1290 -1.7914
   56MOL0     H 7696   5.949  12.486   2.406 -0.8495  0.9317  1.0624
   56MOL0     H 7697   5.897  12.456   2.249  0.1485  0.8293  0.4968
   56MOL0     H 7698   5.794  12.694   2.248 -0.2924  1.1257  0.1708
   56MOL0     H 7699   5.832  12.702   2.420 -0.2096 -0.1865  0.4933
   56MOL0     H 7700   5.580  12.627   2.346 -2.0094 -1.9635 -0.8008
   56MOL0     H 7701   5.646  12.476   2.298  1.1731 -0.0991 -0.7078
   56MOL0     H 7702   5.613  12.610   2.558  1.9472  0.2501  2.2160
   56MOL0     H 7703   5.763  12.535   2.560 -1.7453  0.6330  5.0240
   56MOL0     H 7704   5.624  12.316   2.476  1.0869 -0.4881  1.8181
   56MOL0     H 7705   5.480  12.403   2.522 -0.6035 -0.7474 -0.1691
   56MOL0     H 7706   5.688  12.418   2.730 -0.2601 -1.3866  1.5334
   56MOL0     H 7707   5.673  12.254   2.688  0.7851  0.0238  1.0382
   56MOL0     H 7708   6.209  12.333   2.027 -1.0072  1.7858  0.9879
   56MOL0     H 7709   6.405  12.170   1.994  2.3930  0.0050  0.5334
   56MOL0     H 7710   6.741  11.999   2.068  0.9197  0.0808  0.7568
   56MOL0     H 7711   6.843  11.788   2.036 -0.6772 -0.1739  0.8634
   56MOL0     H 7712   5.888  11.441   0.990  1.6107  1.6293  0.8071
   56MOL0     H 7713   5.703  11.303   1.039 -0.2027  0.4903 -0.5606
   56MOL0     H 7714   5.196  11.334   1.184 -0.5622  0.5343 -0.4661
   56MOL0     H 7715   4.971  11.278   1.103  1.2323  3.1940  0.4195
   56MOL0     H 7716   4.953  11.111   0.701 -0.4245 -0.2572  0.4130
   56MOL0     H 7717   4.778  11.093   0.746 -1.7507  0.9498 -0.3431
   56MOL0     H 7718   4.862  11.314   0.614  3.0622 -1.7490 -0.4238
   56MOL0     H 7719   4.943  11.363   0.756  0.0753  1.2171 -1.9026
   56MOL0     H 7720   4.656  11.282   0.724 -3.9058  4.9575 -2.6889
   56MOL0     H 7721   4.721  11.316   0.884  4.2196 -0.0941 -0.1054
   56MOL0     H 7722   4.794  11.550   0.751 -0.2751  0.0062 -0.6070
   56MOL0     H 7723   4.629  11.541   0.825 -1.5088 -3.3495  0.6212
   56MOL0     H 7724   4.611  11.544   0.384 -0.0129  0.5794  0.1735
   56MOL0     H 7725   5.124  11.059   0.780  1.2087  1.3272 -0.2571
   56MOL0     H 7726   5.470  11.179   0.798  3.3574 -2.5201  1.1411
   56MOL0     H 7727   5.445  11.023   0.885 -0.3408  1.4274  0.7210
   56MOL0     H 7728   5.351  11.057   0.736  1.3287 -0.3223 -1.1734
   57MOL0     O 7729   9.616   7.441  10.642 -0.7275 -0.0494 -0.8419
   57MOL0     C 7730   9.553   7.337  10.617 -0.3204 -0.6218 -0.5306
   57MOL0     O 7731   9.611   7.210  10.602  0.2440 -0.9684 -0.3875
   57MOL0     C 7732   9.742   7.188  10.579  0.2329 -0.0432  0.2680
   57MOL0     C 7733   9.795   7.073  10.631 -0.5673 -0.0041 -0.3531
   57MOL0     C 7734   9.930   7.050  10.622 -0.3696 -1.1186 -0.3902
   57MOL0     C 7735  10.009   7.142  10.555 -0.1095 -0.3872  0.1025
   57MOL0     O 7736  10.139   7.113  10.532 -0.1566 -1.2329  0.1764
   57MOL0     C 7737  10.228   7.215  10.576  0.1270 -0.4924  0.2083
   57MOL0     C 7738  10.373   7.165  10.559  0.4004  0.1602 -0.0063
   57MOL0     C 7739  10.404   7.139  10.411  0.1817  0.1604  0.4077
   57MOL0     C 7740  10.552   7.095  10.386 -0.3643 -0.2837 -0.1151
   57MOL0     C 7741  10.561   7.050  10.244 -0.3260  0.5508  1.2581
   57MOL0     C 7742  10.676   6.957  10.215 -0.7394  0.6193  0.5611
   57MOL0     C 7743  10.811   7.020  10.243  0.1530 -0.2904 -0.1442
   57MOL0     C 7744  10.833   7.119  10.119 -0.4802 -0.0749 -0.0520
   57MOL0     N 7745  10.982   7.146  10.111 -0.4957  0.1705 -1.0720
   57MOL0     C 7746  11.055   7.236  10.196 -0.0183  0.3444 -0.2522
   57MOL0     C 7747  11.184   7.230  10.164  0.9217 -0.3812 -0.2254
   57MOL0     C 7748  11.292   7.292  10.253 -0.2944 -0.1507 -0.7413
   57MOL0     C 7749  11.424   7.245  10.209 -0.8225  0.7269  0.7339
   57MOL0     C 7750  11.536   7.294  10.292 -0.3790  0.4332 -0.1847
   57MOL0     C 7751  11.660   7.235  10.240  0.1986 -1.6596  0.7223
   57MOL0     O 7752  11.780   7.286  10.309 -0.2403  0.1296 -0.2600
   57MOL0     C 7753  11.882   7.199  10.343 -0.9132  0.3690  0.0220
   57MOL0     C 7754  11.912   7.094  10.257  0.0565 -0.0087  0.0870
   57MOL0     C 7755  12.020   7.007  10.294  0.0416 -0.3413  0.1989
   57MOL0     C 7756  12.056   6.891  10.205  0.4726  0.0847 -0.0154
   57MOL0     C 7757  12.096   7.035  10.415  0.5595  0.8399  0.5250
   57MOL0     C 7758  12.210   6.961  10.459  0.6328  0.0837 -0.1702
   57MOL0     O 7759  12.218   6.834  10.424 -0.3689  0.5397  0.1354
   57MOL0     C 7760  12.313   6.756  10.478 -0.8503 -0.4156  0.1798
   57MOL0     C 7761  12.277   6.683  10.593 -0.5290 -0.2912 -0.2730
   57MOL0     C 7762  12.370   6.617  10.671 -0.3076  0.4187  0.1178
   57MOL0     C 7763  12.503   6.622  10.636 -0.7134  0.0878 -0.4013
   57MOL0     O 7764  12.589   6.549  10.721 -0.5298 -0.4185 -0.2570
   57MOL0     C 7765  12.732   6.584  10.717  0.2285 -0.4733  0.0123
   57MOL0     C 7766  12.798   6.496  10.814 -0.7929 -0.4751  0.4435
   57MOL0     C 7767  12.906   6.587  10.883  0.8607  0.5996 -0.2365
   57MOL0     C 7768  13.017   6.497  10.948  0.4736  0.7355 -0.6574
   57MOL0     C 7769  13.096   6.584  11.049  1.0004  0.8528  0.2318
   57MOL0     C 7770  13.172   6.481  11.137 -0.5163 -0.9066  0.2658
   57MOL0     C 7771  13.283   6.553  11.212  0.3660 -0.2741  0.0818
   57MOL0     C 7772  13.312   6.489  11.351  0.9268  0.4746 -0.3264
   57MOL0    Cl 7773  13.453   6.565  11.424  0.5010 -0.1997 -0.1509
   57MOL0     C 7774  12.539   6.685  10.507 -0.3753 -0.0752  0.2989
   57MOL0     C 7775  12.446   6.755  10.435 -1.2062 -0.2900  0.0577
   57MOL0     O 7776  12.298   7.014  10.529  0.0491 -0.0717 -0.0591
   57MOL0     C 7777  12.068   7.148  10.487  0.5038 -0.2076 -0.5744
   57MOL0     C 7778  11.955   7.222  10.455 -0.2814  0.1756  0.4575
   57MOL0     N 7779  11.192   7.153  10.048  0.4756  0.6669 -0.2269
   57MOL0     N 7780  11.087   7.088  10.038 -0.3920  1.1316  0.3080
   57MOL0     C 7781   9.951   7.260  10.493  0.5771 -1.2337  0.3805
   57MOL0     C 7782   9.814   7.279  10.507 -0.2839 -0.4318 -0.1524
   57MOL0     C 7783   9.405   7.353  10.594 -0.0812 -1.1640  0.5606
   57MOL0     C 7784   9.336   7.453  10.667  0.0093 -1.3901 -0.8705
   57MOL0     C 7785   9.201   7.465  10.657 -1.2286  0.3806  0.1900
   57MOL0     C 7786   9.131   7.389  10.561  0.1840  0.5436 -0.5466
   57MOL0     O 7787   8.990   7.386  10.549  0.0371 -0.5016  0.2420
   57MOL0     C 7788   8.914   7.466  10.637 -0.2138 -0.1739 -0.3495
   57MOL0     C 7789   8.769   7.437  10.622 -0.8232  0.0845  0.8461
   57MOL0     C 7790   8.722   7.316  10.686 -0.7212  0.0196 -0.0100
   57MOL0     C 7791   8.577   7.327  10.734  0.6870  0.1319  0.6245
   57MOL0     C 7792   8.468   7.368  10.639  1.1851  0.4681  0.1850
   57MOL0     C 7793   8.372   7.384  10.570  0.1197  0.2402 -0.1065
   57MOL0     C 7794   9.193   7.295  10.483 -0.0395 -0.4346 -0.0324
   57MOL0     C 7795   9.332   7.278  10.492  0.9323 -0.5153 -1.2934
   57MOL0     C 7796   9.385   7.153  10.425  0.9075 -0.6028 -0.3871
   57MOL0     H 7797   9.745   6.992  10.683 -0.7029  0.1534 -0.2376
   57MOL0     H 7798   9.971   6.968  10.681 -1.7367 -2.0165 -0.6463
   57MOL0     H 7799  10.213   7.243  10.681  2.7779  0.4980  0.4040
   57MOL0     H 7800  10.210   7.298  10.507 -1.0003 -1.8238 -1.1757
   57MOL0     H 7801  10.448   7.238  10.591  0.9028  0.5423 -1.9187
   57MOL0     H 7802  10.388   7.073  10.616  2.6686  0.5862  0.1993
   57MOL0     H 7803  10.347   7.053  10.375 -1.0600  1.5505 -1.1351
   57MOL0     H 7804  10.391   7.226  10.346  0.3117 -1.4249 -1.8583
   57MOL0     H 7805  10.608   7.187  10.402  0.2129 -0.8296  1.2122
   57MOL0     H 7806  10.591   7.016  10.451  3.7677  1.1539 -0.5074
   57MOL0     H 7807  10.542   7.122  10.164 -0.7291 -3.0274 -2.1662
   57MOL0     H 7808  10.476   6.987  10.218 -2.6053  3.8852  0.0118
   57MOL0     H 7809  10.678   6.866  10.275  2.1553  1.4999  1.9957
   57MOL0     H 7810  10.664   6.919  10.113 -1.0985 -0.2214  0.9048
   57MOL0     H 7811  10.885   6.939  10.241 -1.2881 -1.6979  0.6537
   57MOL0     H 7812  10.823   7.064  10.342  1.5360 -1.7881  0.4053
   57MOL0     H 7813  10.811   7.064  10.027  0.7254 -1.3835  0.3963
   57MOL0     H 7814  10.786   7.218  10.121  1.0032  0.7417 -1.8702
   57MOL0     H 7815  11.015   7.294  10.278 -2.0625 -0.7650 -0.3894
   57MOL0     H 7816  11.261   7.283  10.358 -0.3560  2.1263 -0.5190
   57MOL0     H 7817  11.294   7.398  10.226  0.5317 -0.4807 -2.0684
   57MOL0     H 7818  11.426   7.137  10.229  1.2618  1.0137  2.2902
   57MOL0     H 7819  11.432   7.265  10.102 -2.1831 -2.4867 -0.0992
   57MOL0     H 7820  11.535   7.403  10.282  0.4097  0.7231  2.1907
   57MOL0     H 7821  11.531   7.270  10.399  2.4551  1.7551  0.3355
   57MOL0     H 7822  11.654   7.126  10.237 -0.8056 -1.6671 -3.5007
   57MOL0     H 7823  11.655   7.265  10.135 -0.6096 -1.2158  0.8824
   57MOL0     H 7824  11.859   7.070  10.165 -0.2804 -0.3200  0.3531
   57MOL0     H 7825  12.008   6.902  10.108 -0.5163 -2.4995  0.0906
   57MOL0     H 7826  12.030   6.795  10.253 -0.2971 -0.1046 -0.7855
   57MOL0     H 7827  12.161   6.902  10.178 -0.2058  2.8692 -1.9297
   57MOL0     H 7828  12.174   6.693  10.629 -0.1104  4.3741  0.2971
   57MOL0     H 7829  12.334   6.553  10.751  1.4500  1.5336  1.8961
   57MOL0     H 7830  12.777   6.579  10.618 -0.4446  0.9487 -0.3869
   57MOL0     H 7831  12.744   6.689  10.745  0.0245 -0.7567  1.2461
   57MOL0     H 7832  12.733   6.446  10.886  0.2708  0.7267  2.3294
   57MOL0     H 7833  12.837   6.409  10.762 -0.3819  0.4271 -0.7985
   57MOL0     H 7834  12.861   6.657  10.954  0.4590  2.0146 -1.8027
   57MOL0     H 7835  12.959   6.645  10.806 -1.6624  0.5041 -2.1617
   57MOL0     H 7836  13.082   6.449  10.875 -0.5139 -1.6880 -0.0365
   57MOL0     H 7837  12.972   6.410  10.997  1.6993 -1.2852 -2.9282
   57MOL0     H 7838  13.163   6.650  10.993  1.9303 -0.4205 -0.1887
   57MOL0     H 7839  13.025   6.651  11.099 -0.0120  0.3749 -0.5360
   57MOL0     H 7840  13.206   6.395  11.079  0.2425 -1.3430  1.3168
   57MOL0     H 7841  13.107   6.427  11.207 -1.4139 -1.0809 -0.6816
   57MOL0     H 7842  13.246   6.656  11.222  0.6361 -0.3492  2.4299
   57MOL0     H 7843  13.376   6.553  11.154  1.5366 -1.7599  1.8329
   57MOL0     H 7844  13.334   6.384  11.328  1.1112  0.5005 -0.2762
   57MOL0     H 7845  13.222   6.500  11.412 -0.4027  0.3870 -2.1948
   57MOL0     H 7846  12.633   6.693  10.454  0.3650  1.2697  1.7368
   57MOL0     H 7847  12.490   6.794  10.344  1.7919 -4.4157 -0.5748
   57MOL0     H 7848  12.134   7.188  10.563  0.0700  0.0819 -0.3462
   57MOL0     H 7849  11.913   7.296  10.522  0.0564 -1.8057  3.0543
   57MOL0     H 7850  10.003   7.332  10.431 -1.5708  0.0413 -0.0656
   57MOL0     H 7851   9.764   7.360  10.455  0.8992 -0.0980 -0.8193
   57MOL0     H 7852   9.393   7.519  10.731 -1.0566 -0.5761 -0.7377
   57MOL0     H 7853   9.140   7.516  10.731 -2.2382 -0.1421 -0.2690
   57MOL0     H 7854   8.954   7.465  10.739  1.9481 -0.0920 -1.1251
   57MOL0     H 7855   8.916   7.572  10.609 -2.0561  0.1441  0.5666
   57MOL0     H 7856   8.745   7.434  10.515 -0.2122  0.6965  0.6881
   57MOL0     H 7857   8.719   7.519  10.674 -2.7138 -0.8398  0.5834
   57MOL0     H 7858   8.733   7.226  10.624 -2.1477  1.3030 -2.2867
   57MOL0     H 7859   8.787   7.309  10.773 -0.7303  1.9961  0.1827
   57MOL0     H 7860   8.571   7.406  10.810 -2.5077  0.8368 -0.2131
   57MOL0     H 7861   8.545   7.235  10.784 -1.9740  0.8050  0.2933
   57MOL0     H 7862   8.293   7.415  10.505  0.3566  3.6342  0.9895
   57MOL0     H 7863   9.127   7.233  10.423 -0.4710 -1.0792  1.0859
   57MOL0     H 7864   9.307   7.103  10.367 -0.0222 -0.5629  0.8058
   57MOL0     H 7865   9.458   7.182  10.349 -2.7865 -0.1541 -4.0948
   57MOL0     H 7866   9.428   7.078  10.493 -0.8661 -2.9282 -1.6910
   58MOL0     O 7867  10.392   8.734  10.755 -0.3579  1.0191 -0.5058
   58MOL0     C 7868  10.335   8.691  10.851  0.4912 -0.3467  0.5896
   58MOL0     O 7869  10.392   8.659  10.970 -0.3369 -0.5947  0.2073
   58MOL0     C 7870  10.519   8.691  10.992  0.0943  0.9784 -0.0372
   58MOL0     C 7871  10.565   8.818  10.982  0.5431  0.8941  0.0299
   58MOL0     C 7872  10.704   8.841  10.991  0.2298  0.1805 -0.2960
   58MOL0     C 7873  10.794   8.744  11.028  0.6470  1.4415 -0.2963
   58MOL0     O 7874  10.918   8.787  11.042 -0.3338 -0.0852  0.4364
   58MOL0     C 7875  11.018   8.684  11.068 -0.1841  0.5126  0.4492
   58MOL0     C 7876  11.149   8.754  11.058 -0.0801  0.3740 -1.1301
   58MOL0     C 7877  11.251   8.656  11.105 -0.5194  1.1237 -0.2280
   58MOL0     C 7878  11.391   8.710  11.104  0.5438 -0.5391 -0.1828
   58MOL0     C 7879  11.489   8.624  11.180  0.2371  0.1011  0.5327
   58MOL0     C 7880  11.641   8.660  11.143 -0.0552 -0.6300  1.5769
   58MOL0     C 7881  11.746   8.604  11.232  0.3058  0.6200 -0.1453
   58MOL0     C 7882  11.740   8.448  11.241 -0.6041  0.7087 -0.0932
   58MOL0     N 7883  11.779   8.388  11.117 -0.3645 -0.0871  0.4071
   58MOL0     C 7884  11.902   8.388  11.055  0.5576  0.4716 -0.4434
   58MOL0     C 7885  11.883   8.331  10.937  0.0701 -0.6785  0.5838
   58MOL0     C 7886  11.990   8.322  10.833 -0.2863 -0.3526 -0.6983
   58MOL0     C 7887  12.118   8.270  10.903  0.0630  0.0984  0.1404
   58MOL0     C 7888  12.104   8.138  10.986  1.0692  0.0884  1.0413
   58MOL0     C 7889  12.089   8.018  10.887  0.2596  0.9353  0.6235
   58MOL0     O 7890  12.064   7.900  10.959  0.3546  1.0716  0.0992
   58MOL0     C 7891  12.159   7.841  11.039 -0.6629  0.2149  0.3316
   58MOL0     C 7892  12.118   7.726  11.098  0.3142  0.1754 -0.0315
   58MOL0     C 7893  12.208   7.650  11.174  0.5144  0.4545  0.3313
   58MOL0     C 7894  12.148   7.521  11.226  0.3375 -0.0889 -0.3408
   58MOL0     C 7895  12.347   7.681  11.173  0.7059 -0.3254  0.2153
   58MOL0     C 7896  12.443   7.599  11.238  0.8229 -0.0974  0.3905
   58MOL0     O 7897  12.557   7.590  11.171  0.3217  0.3010  0.0980
   58MOL0     C 7898  12.644   7.494  11.221 -0.1621  0.0439  0.2447
   58MOL0     C 7899  12.723   7.517  11.330 -0.8367 -0.0949 -0.3814
   58MOL0     C 7900  12.828   7.425  11.371  0.2948  0.2717 -1.1147
   58MOL0     C 7901  12.846   7.309  11.294  0.0630  0.0002  0.0928
   58MOL0     O 7902  12.940   7.212  11.331  0.2028  0.4330  0.4302
   58MOL0     C 7903  13.012   7.159  11.222 -0.2106  0.3936  0.5253
   58MOL0     C 7904  13.158   7.170  11.264 -0.2280  1.7050  0.3973
   58MOL0     C 7905  13.190   7.057  11.358 -0.2582 -0.4180 -0.1461
   58MOL0     C 7906  13.334   7.050  11.399  0.4012 -0.2203  0.1381
   58MOL0     C 7907  13.362   6.908  11.457 -0.4822 -0.1834 -0.2151
   58MOL0     C 7908  13.513   6.896  11.515  0.1423 -1.2627 -0.1687
   58MOL0     C 7909  13.625   6.889  11.416  0.4661 -0.1119 -0.7491
   58MOL0     C 7910  13.758   6.927  11.473 -0.1419  0.8159  0.3214
   58MOL0    Cl 7911  13.770   7.103  11.468  0.1341  0.2496  0.5206
   58MOL0     C 7912  12.753   7.285  11.186 -0.3894 -0.4787 -0.2766
   58MOL0     C 7913  12.665   7.386  11.144 -0.2317  0.2444 -0.1149
   58MOL0     O 7914  12.415   7.539  11.345  0.2148 -0.6960  0.2879
   58MOL0     C 7915  12.386   7.804  11.123 -0.3828  0.9827  0.4175
   58MOL0     C 7916  12.294   7.880  11.050 -0.3720  0.6402 -0.0835
   58MOL0     N 7917  11.757   8.291  10.923 -0.4772  0.3177 -0.0785
   58MOL0     N 7918  11.698   8.321  11.032 -0.6798 -0.2618 -0.3458
   58MOL0     C 7919  10.741   8.612  11.055  0.0380 -0.3392  1.1777
   58MOL0     C 7920  10.608   8.587  11.022  0.2792  0.1155 -0.6484
   58MOL0     C 7921  10.187   8.665  10.833  0.4500  0.4748  0.3647
   58MOL0     C 7922  10.123   8.609  10.947 -0.0057 -0.1549 -0.5457
   58MOL0     C 7923   9.982   8.581  10.940 -0.1242 -0.7049  0.4954
   58MOL0     C 7924   9.901   8.612  10.826 -0.4617 -1.2371 -0.4468
   58MOL0     O 7925   9.764   8.588  10.825 -0.4518  0.3068 -0.3549
   58MOL0     C 7926   9.703   8.543  10.950 -0.6223 -0.1475  0.6828
   58MOL0     C 7927   9.550   8.515  10.932 -0.0924 -0.9824 -0.3400
   58MOL0     C 7928   9.496   8.467  11.073  0.3555  0.4559 -0.7436
   58MOL0     C 7929   9.342   8.468  11.084 -0.0148  0.4240 -0.3998
   58MOL0     C 7930   9.279   8.361  11.002 -0.1086  0.0867 -1.2435
   58MOL0     C 7931   9.247   8.257  10.944 -0.3238  0.6015 -0.2687
   58MOL0     C 7932   9.975   8.664  10.719  0.2697 -0.4365  0.3375
   58MOL0     C 7933  10.112   8.680  10.714  0.3990 -1.5661 -0.1786
   58MOL0     C 7934  10.173   8.745  10.590 -0.1463 -0.4676 -0.3481
   58MOL0     H 7935  10.492   8.891  10.949  0.3968  1.1805  0.9432
   58MOL0     H 7936  10.739   8.936  10.954 -0.3621 -0.3487 -2.3735
   58MOL0     H 7937  11.016   8.602  10.994  0.3210  1.5435 -0.7484
   58MOL0     H 7938  10.991   8.633  11.161 -1.5397 -1.2894 -0.8507
   58MOL0     H 7939  11.168   8.784  10.954  1.1697  2.0392 -0.4744
   58MOL0     H 7940  11.156   8.845  11.119  1.3815  0.4584 -1.3826
   58MOL0     H 7941  11.217   8.611  11.200 -3.0329 -0.3618 -1.6950
   58MOL0     H 7942  11.255   8.578  11.028  1.2386  0.5251  0.4172
   58MOL0     H 7943  11.411   8.724  10.998  0.4988 -1.9361 -0.3849
   58MOL0     H 7944  11.393   8.806  11.156  0.8111 -1.7449  2.1687
   58MOL0     H 7945  11.466   8.520  11.154 -1.4418  0.1055  1.7755
   58MOL0     H 7946  11.460   8.632  11.285 -0.5017 -0.9245  0.4310
   58MOL0     H 7947  11.660   8.636  11.038  1.2421 -0.7471  1.8146
   58MOL0     H 7948  11.659   8.767  11.153  0.1609 -0.5810  0.7755
   58MOL0     H 7949  11.727   8.646  11.332  0.0940 -0.3527  0.2444
   58MOL0     H 7950  11.847   8.643  11.219  1.0659  0.9099  4.7166
   58MOL0     H 7951  11.803   8.406  11.320  1.8188  1.6930 -1.3798
   58MOL0     H 7952  11.639   8.413  11.266 -0.1920 -1.2192 -1.0147
   58MOL0     H 7953  12.000   8.415  11.094  0.5865  3.0161 -2.0983
   58MOL0     H 7954  12.005   8.422  10.792 -2.3300  0.8008  1.1459
   58MOL0     H 7955  11.974   8.253  10.750  0.7521 -0.4387 -0.8379
   58MOL0     H 7956  12.194   8.253  10.827 -1.1232 -0.5556 -0.9297
   58MOL0     H 7957  12.172   8.347  10.959 -1.0470  0.5137  0.6750
   58MOL0     H 7958  12.205   8.126  11.026  1.8051 -2.8871 -1.2716
   58MOL0     H 7959  12.021   8.144  11.057 -0.2377 -2.2748 -0.1477
   58MOL0     H 7960  12.013   8.039  10.812 -0.6886  0.8876  1.5588
   58MOL0     H 7961  12.179   7.991  10.831 -0.6656 -2.7003  0.6680
   58MOL0     H 7962  12.018   7.689  11.073  0.8921 -2.4778  1.2216
   58MOL0     H 7963  12.170   7.534  11.332  0.4272 -1.7410 -0.1221
   58MOL0     H 7964  12.198   7.431  11.187 -1.7645 -2.1900  1.5161
   58MOL0     H 7965  12.040   7.521  11.212  0.0767  2.8900  0.9749
   58MOL0     H 7966  12.712   7.605  11.393  0.1111 -0.1155 -0.1746
   58MOL0     H 7967  12.887   7.444  11.460  0.3170  0.7403 -1.2300
   58MOL0     H 7968  12.977   7.060  11.191 -0.0511  0.4523  0.1645
   58MOL0     H 7969  13.012   7.223  11.134  1.3386 -0.5805 -0.2164
   58MOL0     H 7970  13.218   7.165  11.172  0.3346 -1.5984  0.8177
   58MOL0     H 7971  13.175   7.268  11.308 -1.4378  2.1725 -0.1498
   58MOL0     H 7972  13.169   6.964  11.305  1.0265  1.0541 -3.5350
   58MOL0     H 7973  13.121   7.062  11.442 -0.4938 -4.1843  0.0654
   58MOL0     H 7974  13.360   7.122  11.477 -0.6324 -0.7932  1.0361
   58MOL0     H 7975  13.387   7.071  11.305 -2.8261 -1.8001 -2.2018
   58MOL0     H 7976  13.281   6.890  11.528 -0.3028  1.5670  0.4850
   58MOL0     H 7977  13.350   6.836  11.375  1.5919 -1.9355  0.9164
   58MOL0     H 7978  13.516   6.804  11.574 -0.3013 -2.2004 -1.5611
   58MOL0     H 7979  13.524   6.983  11.581  1.7361 -3.1817  2.2827
   58MOL0     H 7980  13.617   6.934  11.317  0.9694 -6.1198 -4.0141
   58MOL0     H 7981  13.636   6.783  11.393 -1.2628 -0.4967  0.0335
   58MOL0     H 7982  13.836   6.882  11.411  0.1158  1.4765  0.1554
   58MOL0     H 7983  13.775   6.882  11.572  0.9888  2.8490  1.1185
   58MOL0     H 7984  12.759   7.192  11.131 -0.9070 -1.8983  1.9173
   58MOL0     H 7985  12.595   7.377  11.061 -2.7254  1.2456  1.7230
   58MOL0     H 7986  12.490   7.835  11.128  0.5436 -1.9136  1.2293
   58MOL0     H 7987  12.329   7.975  11.010  3.1707 -0.5442 -0.1671
   58MOL0     H 7988  10.807   8.531  11.085 -0.8377 -1.0794  1.1486
   58MOL0     H 7989  10.566   8.487  11.019  2.1766 -0.8728  1.8253
   58MOL0     H 7990  10.185   8.572  11.028  1.3996  0.2275 -1.4060
   58MOL0     H 7991   9.932   8.523  11.016 -2.3554 -3.8112 -2.9964
   58MOL0     H 7992   9.760   8.458  10.988  2.3332  0.1432 -2.6163
   58MOL0     H 7993   9.713   8.626  11.021 -3.3026  0.2196  0.7388
   58MOL0     H 7994   9.532   8.445  10.851 -1.4670 -0.5650 -0.4204
   58MOL0     H 7995   9.507   8.613  10.907  0.8818  0.7252  3.7462
   58MOL0     H 7996   9.533   8.365  11.084  1.6729  1.1580  2.7559
   58MOL0     H 7997   9.537   8.515  11.162 -0.3976 -0.9567  0.4008
   58MOL0     H 7998   9.307   8.566  11.050  1.8064  0.6811 -1.6564
   58MOL0     H 7999   9.314   8.454  11.189  2.7335  0.1698  0.3863
   58MOL0     H 8000   9.215   8.169  10.891 -0.3606  1.2352 -1.3347
   58MOL0     H 8001   9.915   8.674  10.629  0.2169  1.1035  0.5256
   58MOL0     H 8002  10.252   8.677  10.558  1.1692  2.0508 -2.8343
   58MOL0     H 8003  10.106   8.749  10.503  1.4301 -1.7191 -1.6663
   58MOL0     H 8004  10.214   8.846  10.602 -0.3214 -0.4452  0.0834
   59MOL0     O 8005   0.327   1.334   4.156 -0.9833 -0.5251  0.0820
   59MOL0     C 8006   0.281   1.445   4.163  0.4971  0.6057 -0.4257
   59MOL0     O 8007   0.331   1.546   4.236  0.6230 -0.0381 -0.8410
   59MOL0     C 8008   0.413   1.508   4.337 -1.0113 -0.1460  0.1771
   59MOL0     C 8009   0.371   1.493   4.467  0.5722 -0.2785  0.0711
   59MOL0     C 8010   0.450   1.458   4.572 -0.5369 -0.8556 -0.6753
   59MOL0     C 8011   0.588   1.446   4.555  0.3548 -0.6352  0.1699
   59MOL0     O 8012   0.659   1.421   4.670 -0.5197 -0.0884  0.5703
   59MOL0     C 8013   0.792   1.475   4.670  0.4039 -0.7255 -0.2277
   59MOL0     C 8014   0.858   1.478   4.813 -0.2960  0.3263 -0.4336
   59MOL0     C 8015   1.010   1.498   4.782  0.1444  0.3551 -0.2992
   59MOL0     C 8016   1.079   1.560   4.905 -0.0637 -0.0554 -0.1309
   59MOL0     C 8017   1.223   1.578   4.875 -0.3584  0.2968  0.3352
   59MOL0     C 8018   1.302   1.651   4.984  0.0005 -0.3028 -0.3807
   59MOL0     C 8019   1.340   1.547   5.100  0.3874 -0.5037  1.0506
   59MOL0     C 8020   1.400   1.628   5.215 -0.3580  0.7056 -0.3047
   59MOL0     N 8021   1.295   1.722   5.274 -0.6478  0.2973 -0.0428
   59MOL0     C 8022   1.304   1.858   5.274 -0.5604  0.3180 -0.0369
   59MOL0     C 8023   1.183   1.903   5.329 -0.4946 -0.4504 -0.1503
   59MOL0     C 8024   1.126   2.041   5.336 -0.7921 -0.2366 -0.0668
   59MOL0     C 8025   1.210   2.139   5.426  0.4703  0.5322 -0.2012
   59MOL0     C 8026   1.294   2.210   5.329  0.1545  0.0412 -0.2750
   59MOL0     C 8027   1.392   2.303   5.392 -0.5297  0.9325  0.3042
   59MOL0     O 8028   1.506   2.226   5.442  0.4308  0.5767 -0.1444
   59MOL0     C 8029   1.627   2.283   5.471  0.3829  0.0345 -0.1107
   59MOL0     C 8030   1.730   2.193   5.505 -0.4548 -0.1698 -0.0106
   59MOL0     C 8031   1.860   2.233   5.536 -0.5627 -0.0803  0.4335
   59MOL0     C 8032   1.965   2.121   5.568 -0.0604  0.4649  0.4039
   59MOL0     C 8033   1.881   2.376   5.548  0.4515 -0.1828 -0.7373
   59MOL0     C 8034   2.005   2.440   5.592 -0.1463 -0.4232 -0.5463
   59MOL0     O 8035   2.017   2.580   5.583  0.3190 -0.5553 -0.0270
   59MOL0     C 8036   2.134   2.643   5.615  0.5825 -0.0791  0.2008
   59MOL0     C 8037   2.162   2.758   5.534 -0.6295 -0.3002 -0.2882
   59MOL0     C 8038   2.262   2.844   5.578 -0.7122 -0.1774  0.0368
   59MOL0     C 8039   2.341   2.815   5.685 -0.0091  0.0395 -0.2471
   59MOL0     O 8040   2.438   2.910   5.715  0.7863  0.2040 -0.0014
   59MOL0     C 8041   2.509   2.906   5.843  0.2221 -0.1679  0.5225
   59MOL0     C 8042   2.630   2.984   5.830 -0.3113  0.0630 -0.5486
   59MOL0     C 8043   2.701   3.025   5.969 -0.1474 -0.6957 -0.6826
   59MOL0     C 8044   2.821   2.931   6.011  0.4619 -0.4672  1.3735
   59MOL0     C 8045   2.875   2.989   6.145  0.1778 -0.2940 -0.6724
   59MOL0     C 8046   2.995   2.918   6.195  0.8412 -0.1845 -0.0237
   59MOL0     C 8047   3.062   2.994   6.310  0.6511 -0.0227 -1.3275
   59MOL0     C 8048   3.198   2.945   6.356  0.4410 -0.0325  0.5808
   59MOL0    Cl 8049   3.278   3.095   6.416 -0.1450  0.0565 -0.3283
   59MOL0     C 8050   2.322   2.698   5.753  0.9372 -0.3883 -0.4361
   59MOL0     C 8051   2.211   2.614   5.723 -0.4207 -0.4029 -0.4929
   59MOL0     O 8052   2.101   2.369   5.629  0.1880  0.4902 -0.1668
   59MOL0     C 8053   1.776   2.470   5.524  1.5856 -0.1197  0.1307
   59MOL0     C 8054   1.650   2.422   5.487 -0.0827 -0.4928 -0.6271
   59MOL0     N 8055   1.111   1.793   5.365 -0.3964 -0.4796 -0.5716
   59MOL0     N 8056   1.184   1.688   5.339 -0.0283 -0.3302  0.9152
   59MOL0     C 8057   0.641   1.475   4.428  0.7282  0.0767  0.3713
   59MOL0     C 8058   0.556   1.505   4.322 -0.0957  0.3985  0.5271
   59MOL0     C 8059   0.168   1.471   4.068 -0.4546  0.8956  0.0267
   59MOL0     C 8060   0.095   1.584   4.091  0.6040 -0.8351 -0.7678
   59MOL0     C 8061  -0.019   1.624   4.017  0.1689 -0.1065  0.4966
   59MOL0     C 8062  -0.057   1.556   3.902 -0.7821 -1.1706  0.5795
   59MOL0     O 8063  -0.161   1.598   3.821 -0.2122  0.8670  0.3452
   59MOL0     C 8064  -0.247   1.707   3.856 -0.2036  0.1697  0.8495
   59MOL0     C 8065  -0.322   1.731   3.724 -0.3059 -0.3823  0.9850
   59MOL0     C 8066  -0.445   1.830   3.738  0.4006 -0.2860 -0.1349
   59MOL0     C 8067  -0.484   1.873   3.592  0.1959  0.5473  0.8908
   59MOL0     C 8068  -0.587   1.978   3.598  0.2416  0.9928  0.2149
   59MOL0     C 8069  -0.671   2.069   3.587 -0.1283 -0.2446  0.2943
   59MOL0     C 8070   0.026   1.448   3.869  0.5263 -0.1398  0.0424
   59MOL0     C 8071   0.138   1.400   3.942 -0.1859 -0.0645  0.1568
   59MOL0     C 8072   0.215   1.283   3.879 -0.0459  0.0411 -0.6794
   59MOL0     H 8073   0.266   1.514   4.487  0.0666 -0.6585 -1.9608
   59MOL0     H 8074   0.413   1.458   4.674  1.1422  1.4407  0.0133
   59MOL0     H 8075   0.796   1.579   4.637  0.4080 -0.5945  0.1819
   59MOL0     H 8076   0.855   1.414   4.605  0.1800  1.8425 -3.1231
   59MOL0     H 8077   0.814   1.553   4.879  0.9672 -0.7719  1.7423
   59MOL0     H 8078   0.856   1.381   4.863  5.9423 -0.4833 -1.0271
   59MOL0     H 8079   1.054   1.397   4.774 -1.2523 -0.1748 -1.7860
   59MOL0     H 8080   1.020   1.559   4.692  1.0416  1.3816  0.4697
   59MOL0     H 8081   1.031   1.658   4.911  3.2678  1.8680 -1.9397
   59MOL0     H 8082   1.054   1.509   4.998 -0.0187  0.1904  0.0147
   59MOL0     H 8083   1.253   1.621   4.779  0.8730 -2.3858 -0.6090
   59MOL0     H 8084   1.257   1.475   4.858 -1.5006  0.3977 -3.7028
   59MOL0     H 8085   1.393   1.690   4.937 -0.3214 -0.0705 -0.8127
   59MOL0     H 8086   1.257   1.740   5.028  1.1080 -0.5152  1.2778
   59MOL0     H 8087   1.418   1.484   5.057  0.1620  1.0535 -1.9511
   59MOL0     H 8088   1.245   1.500   5.123 -2.6102  4.3566  0.1549
   59MOL0     H 8089   1.419   1.560   5.298 -1.0574 -0.9624 -1.4417
   59MOL0     H 8090   1.488   1.682   5.179 -0.7196  1.1269 -0.5726
   59MOL0     H 8091   1.373   1.923   5.222 -1.3559  0.4791 -0.9115
   59MOL0     H 8092   1.023   2.041   5.372 -0.7115 -0.8819  0.1813
   59MOL0     H 8093   1.127   2.077   5.233 -0.2042 -0.6214 -0.2011
   59MOL0     H 8094   1.133   2.201   5.473 -2.1907 -1.3849 -1.7131
   59MOL0     H 8095   1.264   2.086   5.505 -1.2414  0.4732  0.9997
   59MOL0     H 8096   1.353   2.143   5.267  1.1931  0.0840  0.6506
   59MOL0     H 8097   1.224   2.261   5.261  0.4994 -2.2002 -2.4295
   59MOL0     H 8098   1.432   2.372   5.316  1.3445 -2.3011 -1.8801
   59MOL0     H 8099   1.348   2.359   5.475  1.0085 -1.2043  2.7237
   59MOL0     H 8100   1.705   2.088   5.495  0.7569 -0.3421 -1.5107
   59MOL0     H 8101   2.055   2.136   5.508 -0.6181 -2.8223 -1.5113
   59MOL0     H 8102   1.923   2.026   5.533  0.0423  1.0200 -1.2912
   59MOL0     H 8103   1.982   2.111   5.676  0.7695 -0.5131  0.1996
   59MOL0     H 8104   2.107   2.789   5.446 -1.8242 -2.7007 -0.4494
   59MOL0     H 8105   2.283   2.941   5.532  3.3584  0.0018  1.8876
   59MOL0     H 8106   2.446   2.945   5.924  2.2216 -1.1016  2.6533
   59MOL0     H 8107   2.538   2.809   5.884 -0.0857 -0.2932  0.4444
   59MOL0     H 8108   2.698   2.920   5.772  0.0633 -1.1120  1.1162
   59MOL0     H 8109   2.614   3.078   5.776  0.5234  2.1784  2.6239
   59MOL0     H 8110   2.620   3.017   6.042  1.8938  5.0007  2.8301
   59MOL0     H 8111   2.729   3.131   5.965 -0.3831 -0.5605  0.7760
   59MOL0     H 8112   2.898   2.918   5.935 -0.6751 -1.4638  0.3561
   59MOL0     H 8113   2.792   2.826   6.019 -0.5626 -0.2410  0.7655
   59MOL0     H 8114   2.899   3.095   6.132 -1.6104  0.0876 -1.1691
   59MOL0     H 8115   2.810   2.989   6.233  0.1503  1.3090 -0.6655
   59MOL0     H 8116   3.075   2.919   6.121  0.2711  1.7178 -0.6659
   59MOL0     H 8117   2.975   2.815   6.224  0.6078  0.0025  0.4925
   59MOL0     H 8118   2.998   2.988   6.399  2.0262 -1.6310 -0.3870
   59MOL0     H 8119   3.076   3.100   6.288  1.2151 -0.6676 -4.6401
   59MOL0     H 8120   3.246   2.903   6.267 -1.2565 -0.7447 -0.0428
   59MOL0     H 8121   3.195   2.864   6.430 -1.6935 -1.8855 -1.3764
   59MOL0     H 8122   2.394   2.668   5.829  0.7106 -0.5315 -0.2770
   59MOL0     H 8123   2.190   2.521   5.777  0.0643 -0.3006 -0.1154
   59MOL0     H 8124   1.788   2.578   5.525 -0.7313  0.2295  2.9752
   59MOL0     H 8125   1.571   2.496   5.475  2.4041  2.4324 -0.2084
   59MOL0     H 8126   0.745   1.465   4.397  1.0047 -2.8361  1.8676
   59MOL0     H 8127   0.608   1.508   4.227 -1.1127  4.9793 -0.1269
   59MOL0     H 8128   0.118   1.648   4.175 -1.8846  1.3731 -1.6282
   59MOL0     H 8129  -0.075   1.711   4.050  1.4933  0.0975  2.3095
   59MOL0     H 8130  -0.317   1.671   3.932 -1.7370  0.5336 -0.3512
   59MOL0     H 8131  -0.200   1.799   3.891 -0.1333 -0.2903  2.0137
   59MOL0     H 8132  -0.352   1.631   3.693 -0.9275 -0.5790  2.1865
   59MOL0     H 8133  -0.256   1.781   3.653 -3.4453  2.4718 -0.1670
   59MOL0     H 8134  -0.534   1.788   3.785 -1.0130  4.4586  1.9803
   59MOL0     H 8135  -0.421   1.918   3.798 -1.9768  0.1123  0.3284
   59MOL0     H 8136  -0.520   1.788   3.533  2.8642 -0.8491  1.1350
   59MOL0     H 8137  -0.391   1.900   3.541 -0.0141 -2.3879 -1.2956
   59MOL0     H 8138  -0.744   2.148   3.584  1.6130  1.4590  0.6334
   59MOL0     H 8139   0.004   1.389   3.780 -1.6181 -1.7075  1.4923
   59MOL0     H 8140   0.303   1.308   3.818  1.2115  2.2877  1.8825
   59MOL0     H 8141   0.254   1.209   3.950  1.1248  2.1877  1.0196
   59MOL0     H 8142   0.147   1.222   3.818 -0.9857  1.2074 -0.8291
   60MOL0     O 8143   1.374   8.338   4.338 -0.5399 -0.0927  0.6980
   60MOL0     C 8144   1.333   8.443   4.279  0.1121  0.4839  0.3384
   60MOL0     O 8145   1.362   8.478   4.155 -0.4654 -0.1555  0.6983
   60MOL0     C 8146   1.460   8.416   4.082 -0.7063  0.3933  0.0098
   60MOL0     C 8147   1.575   8.370   4.138 -0.4854 -0.1771  0.7009
   60MOL0     C 8148   1.667   8.296   4.067  0.4257  0.1689  0.0637
   60MOL0     C 8149   1.643   8.250   3.934  0.1296 -0.0761  0.1933
   60MOL0     O 8150   1.725   8.169   3.856  0.0396 -0.2926  0.1419
   60MOL0     C 8151   1.866   8.155   3.881  0.0973 -0.3400 -0.3234
   60MOL0     C 8152   1.932   8.096   3.755  0.3033  0.1282  0.9401
   60MOL0     C 8153   2.093   8.091   3.789  0.2463 -0.4193 -0.4501
   60MOL0     C 8154   2.151   8.228   3.815  1.0906 -0.1235 -0.2603
   60MOL0     C 8155   2.301   8.231   3.796 -0.3312 -0.1341 -0.1121
   60MOL0     C 8156   2.365   8.364   3.831 -0.5583  0.4415 -0.2558
   60MOL0     C 8157   2.528   8.353   3.827  0.2354 -0.1268  0.8412
   60MOL0     C 8158   2.595   8.465   3.904 -0.6099  0.2279 -0.5498
   60MOL0     N 8159   2.738   8.484   3.886 -0.6061 -0.1727  0.0244
   60MOL0     C 8160   2.842   8.400   3.931  0.1469  0.1998  0.4347
   60MOL0     C 8161   2.947   8.469   3.898  0.3194  0.6995 -0.4009
   60MOL0     C 8162   3.079   8.432   3.958  0.3179  0.2893 -0.1121
   60MOL0     C 8163   3.198   8.522   3.917 -0.3533  0.0070  0.0329
   60MOL0     C 8164   3.215   8.556   3.767  0.1155  0.5476 -0.6853
   60MOL0     C 8165   3.332   8.659   3.749 -0.0355 -0.1599  0.3678
   60MOL0     O 8166   3.449   8.609   3.816  0.7464 -0.3083  0.7412
   60MOL0     C 8167   3.548   8.702   3.835 -0.0290 -0.3377  0.3647
   60MOL0     C 8168   3.551   8.838   3.787 -0.5847  1.1264  0.3742
   60MOL0     C 8169   3.663   8.923   3.791  0.0794  0.2029  0.3923
   60MOL0     C 8170   3.639   9.061   3.728 -0.5178  1.1835 -0.6389
   60MOL0     C 8171   3.781   8.870   3.840 -0.4755  0.9188  0.1288
   60MOL0     C 8172   3.905   8.943   3.841 -1.5462  0.1739 -0.4394
   60MOL0     O 8173   4.008   8.889   3.921  0.4385 -0.0014 -0.1208
   60MOL0     C 8174   4.132   8.938   3.895  0.6946  1.1263  0.1026
   60MOL0     C 8175   4.213   8.874   3.805 -0.5699  0.1487  0.1405
   60MOL0     C 8176   4.334   8.936   3.772  0.6593  0.0720 -0.1441
   60MOL0     C 8177   4.372   9.063   3.828  0.3223  0.0928  0.2496
   60MOL0     O 8178   4.501   9.100   3.791 -0.0415  0.0253  1.0623
   60MOL0     C 8179   4.535   9.241   3.807 -1.0341  0.2664  0.2527
   60MOL0     C 8180   4.677   9.274   3.747  0.6671  0.7253 -0.9983
   60MOL0     C 8181   4.701   9.421   3.775 -0.5296  0.1542 -0.8568
   60MOL0     C 8182   4.646   9.518   3.668 -0.8787  0.4629 -0.4284
   60MOL0     C 8183   4.658   9.666   3.709 -0.9845 -0.1665  0.1705
   60MOL0     C 8184   4.794   9.720   3.748 -0.6401 -0.1193 -0.2723
   60MOL0     C 8185   4.790   9.861   3.805 -0.1170  0.2874 -0.5529
   60MOL0     C 8186   4.924   9.936   3.782  0.6327  0.4714 -0.6968
   60MOL0    Cl 8187   5.069   9.823   3.777  0.5790 -0.0354  0.0477
   60MOL0     C 8188   4.289   9.130   3.914  0.4766 -0.2522  0.1004
   60MOL0     C 8189   4.165   9.068   3.950 -0.0061 -0.1101 -0.0243
   60MOL0     O 8190   3.916   9.047   3.767  0.8718  0.2474 -0.5463
   60MOL0     C 8191   3.782   8.740   3.891  0.0567  0.4501 -0.6206
   60MOL0     C 8192   3.665   8.657   3.891 -0.0348  0.2121 -0.6194
   60MOL0     N 8193   2.914   8.586   3.829 -0.8094  0.8162  0.1210
   60MOL0     N 8194   2.789   8.596   3.823 -0.5216 -0.7647 -0.6180
   60MOL0     C 8195   1.520   8.300   3.879  0.0980  0.7482  0.9128
   60MOL0     C 8196   1.430   8.385   3.949 -0.3410  0.3844  0.2688
   60MOL0     C 8197   1.217   8.496   4.347  0.0670 -0.4625  0.5433
   60MOL0     C 8198   1.219   8.508   4.487  0.7854 -0.5951 -0.0180
   60MOL0     C 8199   1.113   8.560   4.564 -0.4473  0.1416 -0.7277
   60MOL0     C 8200   0.992   8.594   4.504 -0.5799  0.0106  0.3223
   60MOL0     O 8201   0.891   8.656   4.565  0.2560  0.3350 -0.2689
   60MOL0     C 8202   0.892   8.657   4.709  0.5355 -0.0665  0.2956
   60MOL0     C 8203   0.748   8.688   4.747 -0.5887 -0.7217 -0.3711
   60MOL0     C 8204   0.679   8.800   4.673 -0.8530  0.8810 -0.1946
   60MOL0     C 8205   0.552   8.834   4.743  0.5663 -0.2940 -0.3234
   60MOL0     C 8206   0.476   8.933   4.665  1.0293  0.1025  0.4051
   60MOL0     C 8207   0.419   9.019   4.604 -0.3839  0.8734 -0.0214
   60MOL0     C 8208   0.986   8.575   4.367  0.6303  0.3632  0.5098
   60MOL0     C 8209   1.095   8.530   4.284  0.5494 -0.1639 -0.6786
   60MOL0     C 8210   1.066   8.519   4.141 -0.0703 -0.0666  0.2912
   60MOL0     H 8211   1.612   8.395   4.236 -0.5879 -1.2986  1.0382
   60MOL0     H 8212   1.756   8.252   4.109 -1.3508 -1.1738  2.7045
   60MOL0     H 8213   1.884   8.094   3.970 -0.2913  2.4846  1.8378
   60MOL0     H 8214   1.908   8.251   3.912 -0.9022  0.2804 -0.8483
   60MOL0     H 8215   1.892   7.997   3.731  0.9190  0.2278 -0.6341
   60MOL0     H 8216   1.904   8.161   3.671 -2.1447 -1.1322  0.6981
   60MOL0     H 8217   2.109   8.032   3.880 -3.3629 -0.6908  0.1952
   60MOL0     H 8218   2.148   8.039   3.710  1.2599  3.6021 -2.6314
   60MOL0     H 8219   2.095   8.302   3.757 -4.0722 -2.6842  0.8608
   60MOL0     H 8220   2.140   8.256   3.920  1.8420 -1.6651  0.2551
   60MOL0     H 8221   2.325   8.212   3.692  1.6403  4.0317 -0.6188
   60MOL0     H 8222   2.327   8.140   3.852 -2.8392 -0.0984  1.2626
   60MOL0     H 8223   2.327   8.444   3.766 -1.0984  1.0387  0.7727
   60MOL0     H 8224   2.341   8.395   3.933  2.0588 -0.4381  0.7241
   60MOL0     H 8225   2.565   8.368   3.725 -0.3207  1.0051  0.7811
   60MOL0     H 8226   2.575   8.261   3.861  0.0106 -0.4423  0.3235
   60MOL0     H 8227   2.543   8.557   3.877  1.7096  1.8579  0.1970
   60MOL0     H 8228   2.591   8.443   4.011 -1.2591 -0.3698 -0.6861
   60MOL0     H 8229   2.834   8.306   3.985  0.5198  0.5097  1.0370
   60MOL0     H 8230   3.098   8.326   3.935  1.6658  0.5806 -0.4579
   60MOL0     H 8231   3.059   8.448   4.064 -2.9522  1.7180 -0.8168
   60MOL0     H 8232   3.171   8.616   3.965 -0.1108  0.6906 -1.1351
   60MOL0     H 8233   3.293   8.490   3.960 -0.4985 -0.8482 -0.2644
   60MOL0     H 8234   3.246   8.465   3.715 -1.7273 -0.0562 -0.7918
   60MOL0     H 8235   3.128   8.596   3.714 -1.2688  0.2079  1.2484
   60MOL0     H 8236   3.360   8.679   3.645  1.5437 -1.6743  0.4594
   60MOL0     H 8237   3.289   8.752   3.788 -0.7441  1.1483 -3.1526
   60MOL0     H 8238   3.456   8.877   3.752 -1.7803  1.1918  3.4068
   60MOL0     H 8239   3.717   9.084   3.655  0.6225  1.0106  0.4920
   60MOL0     H 8240   3.655   9.131   3.811 -0.0131 -1.5614  1.7337
   60MOL0     H 8241   3.543   9.076   3.678 -0.6862 -0.6854 -0.9389
   60MOL0     H 8242   4.190   8.780   3.756 -0.1876 -0.2205  0.6476
   60MOL0     H 8243   4.401   8.877   3.711  0.4404  0.2450 -0.5547
   60MOL0     H 8244   4.467   9.301   3.747  2.4053  2.6982 -1.5564
   60MOL0     H 8245   4.527   9.264   3.914 -0.9893 -2.5416  0.9528
   60MOL0     H 8246   4.751   9.208   3.795  2.4313  2.4670 -1.1631
   60MOL0     H 8247   4.679   9.252   3.640 -0.1497 -0.9294 -0.7038
   60MOL0     H 8248   4.809   9.436   3.787 -0.3621 -2.6615  3.4204
   60MOL0     H 8249   4.668   9.452   3.875  3.7352  0.7249  0.5583
   60MOL0     H 8250   4.539   9.496   3.655 -0.8680 -2.0710  2.6527
   60MOL0     H 8251   4.688   9.483   3.573  3.0579 -3.8325  2.4941
   60MOL0     H 8252   4.613   9.733   3.636  0.0892  4.0873  3.0231
   60MOL0     H 8253   4.594   9.676   3.797 -3.0244  1.2616 -1.3985
   60MOL0     H 8254   4.849   9.710   3.654 -0.8868  1.2432 -0.5771
   60MOL0     H 8255   4.841   9.655   3.823  1.1409  2.9908  1.5156
   60MOL0     H 8256   4.770   9.850   3.912 -3.1770 -0.7216 -1.1325
   60MOL0     H 8257   4.705   9.917   3.767 -0.1544  0.5537 -0.0788
   60MOL0     H 8258   4.934  10.005   3.866 -2.2139 -0.3486  0.4492
   60MOL0     H 8259   4.914   9.998   3.693 -2.0538 -0.1592 -0.9205
   60MOL0     H 8260   4.313   9.224   3.962 -4.6987  1.1626  0.5046
   60MOL0     H 8261   4.089   9.119   4.009 -0.0455 -0.6702  0.4080
   60MOL0     H 8262   3.877   8.696   3.921 -0.4867 -1.4806 -1.5506
   60MOL0     H 8263   3.683   8.557   3.928 -1.4740  0.3486  0.5480
   60MOL0     H 8264   1.490   8.283   3.776  0.9891 -0.0335  0.7756
   60MOL0     H 8265   1.348   8.433   3.897  1.6755  3.3738 -0.4475
   60MOL0     H 8266   1.314   8.496   4.538  0.1089 -0.7023  1.2729
   60MOL0     H 8267   1.126   8.580   4.670  1.3238 -0.5003 -0.7922
   60MOL0     H 8268   0.915   8.560   4.753  0.8782 -0.3862 -0.5827
   60MOL0     H 8269   0.960   8.734   4.747 -0.0368  0.2711  0.6603
   60MOL0     H 8270   0.757   8.724   4.850 -0.8906  0.7885 -0.8467
   60MOL0     H 8271   0.689   8.596   4.757  0.1941 -1.2091 -0.0864
   60MOL0     H 8272   0.747   8.886   4.668  1.8276 -1.1317 -0.4850
   60MOL0     H 8273   0.663   8.776   4.567  1.9913  1.3190 -0.8043
   60MOL0     H 8274   0.570   8.888   4.837  4.3643  1.0198 -1.5861
   60MOL0     H 8275   0.491   8.747   4.769  0.4240 -0.5282 -1.3894
   60MOL0     H 8276   0.386   9.105   4.548 -2.9523  0.5711  0.9061
   60MOL0     H 8277   0.895   8.602   4.313  1.8321  2.9679 -0.3394
   60MOL0     H 8278   1.108   8.424   4.107 -2.4377 -1.7443  1.7865
   60MOL0     H 8279   0.958   8.515   4.122 -0.7042 -0.1454  3.4063
   60MOL0     H 8280   1.107   8.609   4.094 -0.9951  0.0928 -0.2422
   61MOL0     O 8281   9.197   1.444   7.413  0.5644  0.1873 -0.1922
   61MOL0     C 8282   9.182   1.551   7.350  0.4305  0.2933  0.1591
   61MOL0     O 8283   9.267   1.620   7.270  0.0908 -0.1334 -0.3155
   61MOL0     C 8284   9.398   1.584   7.263 -0.4195 -0.1321  0.9432
   61MOL0     C 8285   9.464   1.591   7.139  0.3064 -0.0534 -0.3830
   61MOL0     C 8286   9.602   1.581   7.130 -0.8499 -0.8155 -0.0288
   61MOL0     C 8287   9.679   1.555   7.245 -0.2914  0.5990  0.0435
   61MOL0     O 8288   9.813   1.526   7.242 -1.1502 -0.1933  0.2115
   61MOL0     C 8289   9.875   1.527   7.115 -0.4707  0.2282 -0.9402
   61MOL0     C 8290  10.017   1.470   7.125 -0.2492  0.6310  0.0314
   61MOL0     C 8291  10.017   1.319   7.143  0.0100  0.6486  0.5882
   61MOL0     C 8292  10.155   1.269   7.172  0.0112  0.1407  0.4201
   61MOL0     C 8293  10.156   1.113   7.213  0.1729 -0.7165 -0.3560
   61MOL0     C 8294  10.293   1.047   7.215 -0.7225  0.4806  0.2309
   61MOL0     C 8295  10.417   1.133   7.237  0.3162 -0.7016 -0.5453
   61MOL0     C 8296  10.513   1.076   7.339 -0.1460  0.3254 -0.2270
   61MOL0     N 8297  10.582   0.952   7.300  0.1172  0.2623  0.0270
   61MOL0     C 8298  10.664   0.918   7.202 -0.0914 -0.0714 -0.3965
   61MOL0     C 8299  10.718   0.795   7.237  0.3333 -0.0260 -0.3480
   61MOL0     C 8300  10.800   0.730   7.132  0.2170  0.4450  0.3507
   61MOL0     C 8301  10.950   0.727   7.167  0.1562  0.5370  0.3658
   61MOL0     C 8302  11.017   0.852   7.108 -0.2482  0.4503 -0.0072
   61MOL0     C 8303  11.157   0.872   7.164 -0.4033 -0.2304  0.4021
   61MOL0     O 8304  11.233   0.748   7.146  0.1591 -0.3802 -0.1357
   61MOL0     C 8305  11.361   0.742   7.189 -0.4714  0.0385  0.1323
   61MOL0     C 8306  11.420   0.844   7.273 -0.0677 -0.1657  0.1919
   61MOL0     C 8307  11.554   0.832   7.315  0.2254  0.0670  0.6589
   61MOL0     C 8308  11.600   0.935   7.424  0.3131  0.4083 -0.1681
   61MOL0     C 8309  11.623   0.712   7.287 -0.5709 -0.1821  0.7376
   61MOL0     C 8310  11.768   0.683   7.329  0.4140 -1.0624  0.4651
   61MOL0     O 8311  11.813   0.556   7.296 -0.3448  0.1905 -0.3249
   61MOL0     C 8312  11.949   0.537   7.303  0.4457  0.6207 -0.6465
   61MOL0     C 8313  11.999   0.448   7.400 -0.2995 -0.7673  0.2818
   61MOL0     C 8314  12.134   0.438   7.416 -1.2383  0.0123 -0.5073
   61MOL0     C 8315  12.224   0.485   7.323 -1.0454 -0.6420 -0.5646
   61MOL0     O 8316  12.363   0.483   7.331 -0.5185 -0.4157  0.0076
   61MOL0     C 8317  12.420   0.365   7.391 -0.7521 -0.5147  0.2698
   61MOL0     C 8318  12.573   0.390   7.407 -0.2342 -0.3906  0.3077
   61MOL0     C 8319  12.651   0.334   7.279  0.0014  0.2172 -0.4235
   61MOL0     C 8320  12.802   0.367   7.301  0.1607  0.4076 -0.2825
   61MOL0     C 8321  12.886   0.291   7.205 -0.2652  0.1318 -0.0895
   61MOL0     C 8322  13.032   0.333   7.222 -0.0366  0.5689 -0.6200
   61MOL0     C 8323  13.142   0.255   7.143  0.5770 -0.3545  0.2431
   61MOL0     C 8324  13.291   0.260   7.177 -0.7518  0.7539  0.4481
   61MOL0    Cl 8325  13.388   0.365   7.053  0.6049 -0.1259 -0.3477
   61MOL0     C 8326  12.171   0.564   7.221 -0.0014  1.0699 -0.3032
   61MOL0     C 8327  12.031   0.592   7.208  0.2896 -1.1408  0.6465
   61MOL0     O 8328  11.837   0.779   7.363  0.2005 -0.1916 -0.3712
   61MOL0     C 8329  11.560   0.613   7.206  0.6829  0.3042  0.7652
   61MOL0     C 8330  11.426   0.630   7.156 -0.0699  0.2403 -0.7505
   61MOL0     N 8331  10.660   0.756   7.345  0.0553  0.3756 -0.6554
   61MOL0     N 8332  10.579   0.848   7.384  0.3917  1.1929 -0.2722
   61MOL0     C 8333   9.617   1.551   7.369  0.1960 -0.3432 -0.4350
   61MOL0     C 8334   9.481   1.567   7.377 -0.1901 -0.2510  0.0011
   61MOL0     C 8335   9.054   1.615   7.381 -0.0636 -0.3821 -0.5119
   61MOL0     C 8336   8.947   1.605   7.293 -0.5602  0.5343  0.2772
   61MOL0     C 8337   8.829   1.668   7.310 -0.4502 -0.4788 -0.0334
   61MOL0     C 8338   8.801   1.749   7.421 -0.9806  0.1146 -0.7275
   61MOL0     O 8339   8.687   1.825   7.431 -0.2103 -0.3342  0.4824
   61MOL0     C 8340   8.598   1.831   7.320 -0.0726 -0.2305 -0.1319
   61MOL0     C 8341   8.511   1.956   7.348 -0.2148 -0.4363  0.5811
   61MOL0     C 8342   8.403   1.966   7.242  0.5895 -0.0863 -0.2663
   61MOL0     C 8343   8.287   1.865   7.264 -0.6247  0.0127  0.0994
   61MOL0     C 8344   8.183   1.891   7.161 -0.6130  0.4985  0.0911
   61MOL0     C 8345   8.098   1.905   7.079  0.2862  0.6627 -0.4466
   61MOL0     C 8346   8.907   1.768   7.508 -0.3010  0.1472  0.0735
   61MOL0     C 8347   9.030   1.699   7.493 -0.8073  0.0191 -0.5089
   61MOL0     C 8348   9.143   1.731   7.590 -0.4272 -0.1316  0.0636
   61MOL0     H 8349   9.392   1.597   7.057 -3.1259  1.1377  2.4712
   61MOL0     H 8350   9.642   1.588   7.030 -2.1788  1.4964 -0.4582
   61MOL0     H 8351   9.877   1.627   7.070  0.8323  2.0679  2.7853
   61MOL0     H 8352   9.823   1.457   7.049 -0.4729  0.2565 -0.9687
   61MOL0     H 8353  10.074   1.486   7.033  0.9622 -1.2062  0.4083
   61MOL0     H 8354  10.065   1.514   7.212 -2.3428 -1.9072  2.6925
   61MOL0     H 8355   9.943   1.300   7.221 -0.5461  0.5353  0.0379
   61MOL0     H 8356   9.985   1.271   7.050 -0.2446 -1.0814  1.5326
   61MOL0     H 8357  10.211   1.269   7.078  0.7343 -2.1515  0.7955
   61MOL0     H 8358  10.190   1.329   7.256  0.7807  0.2351  0.0311
   61MOL0     H 8359  10.082   1.070   7.144  1.2750 -1.2350 -1.2548
   61MOL0     H 8360  10.113   1.094   7.311  0.9034 -1.5227 -0.1749
   61MOL0     H 8361  10.302   0.962   7.284  0.4406 -0.2995 -0.8346
   61MOL0     H 8362  10.309   1.012   7.113  2.9503  2.3828 -0.0397
   61MOL0     H 8363  10.391   1.233   7.274 -0.2146 -0.4083 -1.6577
   61MOL0     H 8364  10.453   1.152   7.135  0.3241 -0.5984 -0.5234
   61MOL0     H 8365  10.588   1.151   7.362 -1.0764  1.5101 -0.9693
   61MOL0     H 8366  10.459   1.055   7.432  1.1956 -1.7388  0.1620
   61MOL0     H 8367  10.695   0.985   7.123  0.0982  1.2575  0.7591
   61MOL0     H 8368  10.783   0.779   7.036  1.2013 -1.1717 -0.6921
   61MOL0     H 8369  10.765   0.626   7.125 -0.3282  0.5046  1.7733
   61MOL0     H 8370  10.957   0.707   7.274 -0.6205 -0.1021  0.3140
   61MOL0     H 8371  10.991   0.641   7.113  1.2909  0.1405  1.8170
   61MOL0     H 8372  11.035   0.845   7.000  0.3421  3.6424 -0.1943
   61MOL0     H 8373  10.964   0.947   7.119 -1.6642  0.1360 -2.9845
   61MOL0     H 8374  11.210   0.954   7.115  1.2594 -0.2245  2.0662
   61MOL0     H 8375  11.148   0.893   7.271 -0.5622 -0.1065  0.3635
   61MOL0     H 8376  11.355   0.926   7.301  1.0978  0.6542  0.5677
   61MOL0     H 8377  11.650   0.877   7.502  2.7080 -0.5491 -2.2757
   61MOL0     H 8378  11.521   0.997   7.467  0.3418  0.2163  0.1651
   61MOL0     H 8379  11.657   1.013   7.372  0.3615  0.3839 -0.1511
   61MOL0     H 8380  11.927   0.405   7.469 -1.3898 -0.2225 -0.4790
   61MOL0     H 8381  12.183   0.385   7.497  3.0975  3.5282 -0.4841
   61MOL0     H 8382  12.381   0.354   7.492 -0.6869 -2.7559  0.0983
   61MOL0     H 8383  12.385   0.279   7.332 -1.7823  1.1440 -1.6453
   61MOL0     H 8384  12.598   0.495   7.421  1.4330 -0.8007  0.6492
   61MOL0     H 8385  12.619   0.344   7.495  1.5749 -2.0597 -1.3972
   61MOL0     H 8386  12.611   0.379   7.187  1.6972  3.6551  0.3396
   61MOL0     H 8387  12.649   0.225   7.271  2.7450  0.1244 -0.6655
   61MOL0     H 8388  12.821   0.324   7.400 -0.8120 -1.7821 -0.9931
   61MOL0     H 8389  12.824   0.474   7.307 -2.0006  0.8897 -0.2400
   61MOL0     H 8390  12.877   0.183   7.225  1.9138  0.1201  1.2091
   61MOL0     H 8391  12.850   0.310   7.104  0.9525  1.2381 -0.3277
   61MOL0     H 8392  13.058   0.315   7.326  1.2400 -1.4354 -1.2374
   61MOL0     H 8393  13.043   0.441   7.208  0.6897  0.3633 -1.7857
   61MOL0     H 8394  13.142   0.304   7.045  2.2225  2.0181  1.3203
   61MOL0     H 8395  13.097   0.156   7.138  0.8793 -0.6086  1.9220
   61MOL0     H 8396  13.326   0.157   7.169 -4.4376 -0.8835  2.7119
   61MOL0     H 8397  13.303   0.284   7.283  2.6706  2.2086 -0.1567
   61MOL0     H 8398  12.239   0.600   7.144  1.2822  0.8394  0.6769
   61MOL0     H 8399  12.000   0.645   7.118  0.3310  0.6773  1.6466
   61MOL0     H 8400  11.611   0.523   7.173 -0.0023  0.6348 -1.2947
   61MOL0     H 8401  11.371   0.550   7.108 -0.1094 -0.9190  1.1229
   61MOL0     H 8402   9.679   1.552   7.458  0.6811  0.4042 -0.7641
   61MOL0     H 8403   9.427   1.566   7.471 -0.5928  4.3927  0.0601
   61MOL0     H 8404   8.950   1.555   7.197 -2.5718 -0.9319  0.9014
   61MOL0     H 8405   8.763   1.650   7.226 -1.0808  1.9915 -0.1414
   61MOL0     H 8406   8.657   1.861   7.233 -0.1529  1.1457  0.2753
   61MOL0     H 8407   8.533   1.743   7.310 -0.7338 -0.0540  2.0790
   61MOL0     H 8408   8.580   2.039   7.328  1.7834 -1.8557  1.2021
   61MOL0     H 8409   8.473   1.963   7.450 -0.1201  0.7552  0.5425
   61MOL0     H 8410   8.359   2.066   7.247  0.4704 -0.1966  2.2702
   61MOL0     H 8411   8.448   1.971   7.143  0.0870  2.8225 -0.4394
   61MOL0     H 8412   8.235   1.869   7.361 -2.5840  2.1638 -0.9351
   61MOL0     H 8413   8.328   1.767   7.239 -1.1554 -0.3613  0.6650
   61MOL0     H 8414   8.014   1.907   7.012  1.4101 -1.3250 -2.0270
   61MOL0     H 8415   8.884   1.843   7.584 -1.6713 -0.4678  0.3036
   61MOL0     H 8416   9.231   1.671   7.569  1.1050  2.0874 -0.1698
   61MOL0     H 8417   9.159   1.839   7.584  0.2926 -0.2959 -1.5778
   61MOL0     H 8418   9.116   1.702   7.692 -0.7450 -1.1032 -0.2847
   62MOL0     O 8419   5.822   5.074   5.979 -0.5410  0.2107  0.1393
   62MOL0     C 8420   5.806   5.167   6.055 -0.3064  0.6621  0.1425
   62MOL0     O 8421   5.888   5.202   6.162 -1.3130 -0.0863 -0.0634
   62MOL0     C 8422   6.000   5.127   6.171 -0.4412 -0.1043 -0.1713
   62MOL0     C 8423   6.000   4.992   6.199 -0.9638  0.7336  0.4152
   62MOL0     C 8424   6.124   4.918   6.203 -0.1324 -0.2724  0.2728
   62MOL0     C 8425   6.244   4.978   6.182 -0.2856  0.0379 -0.2149
   62MOL0     O 8426   6.364   4.904   6.201 -0.3103  0.2477  0.1711
   62MOL0     C 8427   6.492   4.970   6.209  0.6107 -0.3259  0.6176
   62MOL0     C 8428   6.600   4.862   6.230 -0.3540  0.4959  0.0297
   62MOL0     C 8429   6.743   4.910   6.194 -0.6195 -0.6092  0.2749
   62MOL0     C 8430   6.843   4.845   6.291 -0.2714 -0.2782  0.2697
   62MOL0     C 8431   6.994   4.880   6.259 -0.0309  0.2853 -0.5075
   62MOL0     C 8432   7.032   5.022   6.310  0.0990 -0.2696  0.8731
   62MOL0     C 8433   7.172   5.075   6.271 -0.7369 -0.0868  0.2596
   62MOL0     C 8434   7.285   4.975   6.302  0.0740  0.5269 -0.7794
   62MOL0     N 8435   7.417   5.038   6.273 -0.3582  0.2997  0.0274
   62MOL0     C 8436   7.508   5.008   6.181 -0.7026  0.0036 -0.6883
   62MOL0     C 8437   7.618   5.082   6.210  0.2236  0.0144  0.6241
   62MOL0     C 8438   7.743   5.079   6.133 -0.3864 -0.3031 -0.0328
   62MOL0     C 8439   7.748   5.128   5.991 -0.7125 -0.7490 -0.3027
   62MOL0     C 8440   7.865   5.080   5.904  0.1391 -0.3920 -0.8688
   62MOL0     C 8441   8.000   5.115   5.952  0.3263  0.0495  0.0498
   62MOL0     O 8442   8.057   5.022   6.041 -0.6898 -0.1351 -0.4678
   62MOL0     C 8443   8.156   5.071   6.128 -0.0927  0.0889  0.0304
   62MOL0     C 8444   8.162   5.045   6.264  0.5574 -0.1417  0.5914
   62MOL0     C 8445   8.277   5.075   6.336  0.2191 -0.2253 -1.0322
   62MOL0     C 8446   8.281   5.039   6.481 -0.1670  0.1910 -0.0241
   62MOL0     C 8447   8.381   5.141   6.275  0.0658 -0.1012  0.2459
   62MOL0     C 8448   8.491   5.206   6.344 -0.2230  0.6870 -0.7425
   62MOL0     O 8449   8.612   5.227   6.288 -0.9042 -0.0495  0.2621
   62MOL0     C 8450   8.703   5.305   6.353  0.4661  0.0978 -0.2387
   62MOL0     C 8451   8.731   5.434   6.307  0.4787 -0.0108 -0.4937
   62MOL0     C 8452   8.837   5.518   6.368  0.5132  0.1500 -0.5630
   62MOL0     C 8453   8.906   5.463   6.477 -0.6006 -0.0236 -0.2357
   62MOL0     O 8454   8.993   5.544   6.537  0.0051 -0.0547 -0.3135
   62MOL0     C 8455   8.950   5.574   6.672 -0.8073 -0.3413 -1.4122
   62MOL0     C 8456   9.064   5.614   6.773  0.1538  1.0571  0.0560
   62MOL0     C 8457   9.142   5.740   6.740 -0.8330 -0.1924 -0.3610
   62MOL0     C 8458   9.280   5.746   6.816  0.7017  0.0586  0.9923
   62MOL0     C 8459   9.343   5.883   6.804  0.1588 -0.3341  0.5166
   62MOL0     C 8460   9.495   5.881   6.825  0.1486  0.0892 -0.1435
   62MOL0     C 8461   9.566   6.010   6.797 -0.1742  0.9019  0.6227
   62MOL0     C 8462   9.532   6.118   6.902  0.0078  0.3550  0.5356
   62MOL0    Cl 8463   9.632   6.267   6.860 -0.1975  0.2752  0.2651
   62MOL0     C 8464   8.885   5.332   6.521  0.3676  0.2865  0.2375
   62MOL0     C 8465   8.788   5.253   6.460  0.4150 -0.0260  0.5413
   62MOL0     O 8466   8.456   5.255   6.449  0.2456 -0.4411 -0.2565
   62MOL0     C 8467   8.375   5.163   6.142  0.0960 -0.6276 -0.0889
   62MOL0     C 8468   8.268   5.128   6.068 -0.1941  0.1796  0.0924
   62MOL0     N 8469   7.598   5.155   6.319  0.2045 -0.4669  0.0679
   62MOL0     N 8470   7.482   5.117   6.365  0.1557  0.3764 -0.6152
   62MOL0     C 8471   6.245   5.118   6.162  0.3374 -0.3337 -0.6129
   62MOL0     C 8472   6.126   5.192   6.148  0.0467 -0.4608 -0.6173
   62MOL0     C 8473   5.675   5.229   6.058 -0.3823  0.0469  0.4741
   62MOL0     C 8474   5.639   5.296   6.176  0.6229 -0.4386  0.2502
   62MOL0     C 8475   5.520   5.374   6.200 -1.0810  0.5062  0.1511
   62MOL0     C 8476   5.432   5.387   6.092  0.6444  0.7777  0.1812
   62MOL0     O 8477   5.312   5.465   6.087 -0.7239 -0.1690  0.1893
   62MOL0     C 8478   5.241   5.502   6.210  0.1680  0.5945 -0.2488
   62MOL0     C 8479   5.109   5.581   6.186  0.1945  0.6403  0.6990
   62MOL0     C 8480   5.137   5.725   6.136 -0.4735  0.3801 -0.3994
   62MOL0     C 8481   4.999   5.801   6.136 -0.4783 -0.1915 -0.4896
   62MOL0     C 8482   5.035   5.923   6.067 -0.4527 -0.2955 -0.7315
   62MOL0     C 8483   5.062   6.013   5.988 -0.7274  0.2938 -0.2708
   62MOL0     C 8484   5.472   5.336   5.972 -0.0409 -0.8107  0.0304
   62MOL0     C 8485   5.588   5.259   5.951  0.2212  0.8085 -0.3669
   62MOL0     C 8486   5.629   5.213   5.815  0.3600 -0.0613 -0.1108
   62MOL0     H 8487   5.907   4.939   6.218 -0.6790  0.9750  2.7793
   62MOL0     H 8488   6.137   4.811   6.210  1.0765 -0.3650 -2.1770
   62MOL0     H 8489   6.494   5.048   6.286  1.1673 -0.1635  0.4472
   62MOL0     H 8490   6.514   5.023   6.116 -0.2013  2.8012  2.0623
   62MOL0     H 8491   6.585   4.811   6.326  0.2871  3.1695  1.6680
   62MOL0     H 8492   6.584   4.796   6.145 -0.7606  0.1215  0.3971
   62MOL0     H 8493   6.771   4.877   6.094 -2.0227  3.4045 -1.6301
   62MOL0     H 8494   6.751   5.018   6.204  1.5008 -0.7532  0.5449
   62MOL0     H 8495   6.831   4.878   6.395 -1.8187 -2.6197  0.9104
   62MOL0     H 8496   6.826   4.738   6.283  1.1068 -0.5856  1.1364
   62MOL0     H 8497   7.016   4.889   6.152  0.3096 -1.2534 -0.6025
   62MOL0     H 8498   7.058   4.803   6.304  0.1033 -0.4706 -1.9180
   62MOL0     H 8499   6.959   5.092   6.268 -2.5699 -1.9846  2.3886
   62MOL0     H 8500   7.017   5.028   6.418 -1.5015  0.7616  0.6286
   62MOL0     H 8501   7.189   5.168   6.326  1.0527  0.9018 -1.7658
   62MOL0     H 8502   7.173   5.096   6.163 -0.5909  2.8155  0.7437
   62MOL0     H 8503   7.272   4.945   6.407  0.8205  0.6511 -0.6485
   62MOL0     H 8504   7.279   4.882   6.244 -0.0864 -1.9341  2.8276
   62MOL0     H 8505   7.498   4.934   6.102  2.6211  2.6971 -4.0059
   62MOL0     H 8506   7.790   4.981   6.147  0.4205  0.3470  2.3448
   62MOL0     H 8507   7.815   5.141   6.188  0.6968 -0.2064 -1.5148
   62MOL0     H 8508   7.656   5.100   5.939 -0.5637  1.8071 -2.1118
   62MOL0     H 8509   7.737   5.236   6.004 -0.5039 -0.7747  0.1110
   62MOL0     H 8510   7.864   4.971   5.893 -2.0612 -0.6675  1.1134
   62MOL0     H 8511   7.850   5.130   5.807 -1.6141  0.7673 -0.0609
   62MOL0     H 8512   8.069   5.126   5.868 -0.1863  1.3391 -0.2338
   62MOL0     H 8513   7.996   5.218   5.990  0.4052  0.5281 -1.1856
   62MOL0     H 8514   8.081   4.987   6.306  1.7396 -3.3553 -1.2454
   62MOL0     H 8515   8.207   4.963   6.507 -0.1030 -0.7147 -2.2904
   62MOL0     H 8516   8.268   5.126   6.545  2.3354 -0.1670  1.1091
   62MOL0     H 8517   8.382   5.001   6.498 -0.2106 -0.3987 -1.0395
   62MOL0     H 8518   8.672   5.471   6.224 -0.7549 -2.8797 -1.0008
   62MOL0     H 8519   8.849   5.619   6.330 -2.2032  0.3801 -0.9793
   62MOL0     H 8520   8.887   5.661   6.651 -1.1101  0.5330  2.3065
   62MOL0     H 8521   8.887   5.495   6.713 -1.1145  0.3825 -0.4428
   62MOL0     H 8522   9.022   5.634   6.872  1.1984 -2.1220  1.2542
   62MOL0     H 8523   9.139   5.534   6.773  1.2512  2.0107  1.8757
   62MOL0     H 8524   9.085   5.829   6.769  2.3234  0.8060  3.8166
   62MOL0     H 8525   9.166   5.720   6.635  2.5553 -0.4057  0.3375
   62MOL0     H 8526   9.340   5.674   6.758 -0.7815 -0.0760 -0.4778
   62MOL0     H 8527   9.268   5.712   6.919 -0.3836  1.5347  1.3753
   62MOL0     H 8528   9.326   5.915   6.701  1.1042  1.0400  0.7696
   62MOL0     H 8529   9.284   5.951   6.866 -0.5847 -1.5875  1.2427
   62MOL0     H 8530   9.542   5.817   6.749 -2.3626  1.0986 -2.7157
   62MOL0     H 8531   9.504   5.858   6.931 -0.1747  0.2605 -0.0790
   62MOL0     H 8532   9.537   6.053   6.701  0.6665  4.3285  1.7309
   62MOL0     H 8533   9.675   5.999   6.799  0.0836  3.0405  0.3408
   62MOL0     H 8534   9.567   6.088   7.001 -2.2190 -0.4249  1.1648
   62MOL0     H 8535   9.425   6.142   6.905 -0.3858 -1.3549  1.8453
   62MOL0     H 8536   8.948   5.299   6.603 -1.1039  1.0198  1.7284
   62MOL0     H 8537   8.779   5.148   6.487 -1.6145 -0.1454 -0.4065
   62MOL0     H 8538   8.449   5.218   6.084 -0.2023 -0.0380  0.0794
   62MOL0     H 8539   8.263   5.143   5.960 -0.4625  0.3609  0.1298
   62MOL0     H 8540   6.338   5.172   6.146 -0.1178  0.3050 -1.1561
   62MOL0     H 8541   6.157   5.291   6.117  1.9597 -0.0585  2.2034
   62MOL0     H 8542   5.703   5.276   6.261  1.4171 -0.8474 -0.4202
   62MOL0     H 8543   5.511   5.431   6.292 -4.3860  1.3413 -0.5886
   62MOL0     H 8544   5.225   5.409   6.267  1.3671  0.4007 -0.1984
   62MOL0     H 8545   5.306   5.569   6.267  1.1262  1.3525 -2.1570
   62MOL0     H 8546   5.053   5.592   6.279 -0.0652  1.6584  0.4371
   62MOL0     H 8547   5.049   5.526   6.113  1.9546  0.2719 -0.5309
   62MOL0     H 8548   5.201   5.776   6.208 -0.4059 -2.3186  1.5994
   62MOL0     H 8549   5.174   5.720   6.033  1.6072  1.5723  0.2105
   62MOL0     H 8550   4.977   5.830   6.239  1.5784 -1.8747  0.5220
   62MOL0     H 8551   4.916   5.748   6.089  0.1974 -2.2357  0.4771
   62MOL0     H 8552   5.078   6.084   5.909  0.7865 -2.9449 -3.1298
   62MOL0     H 8553   5.419   5.370   5.883  1.0991  2.9188  0.6039
   62MOL0     H 8554   5.608   5.107   5.803  0.7770 -0.1721  0.1514
   62MOL0     H 8555   5.569   5.257   5.734 -1.8438 -0.1257  1.3980
   62MOL0     H 8556   5.732   5.238   5.790  0.0788  1.8902  0.4724
   63MOL0     O 8557   9.980  11.354   3.992 -0.0260  0.4535 -0.1403
   63MOL0     C 8558   9.938  11.405   3.884 -0.1197 -0.6844 -0.8448
   63MOL0     O 8559  10.017  11.434   3.772 -0.1460 -0.6799  0.3670
   63MOL0     C 8560  10.138  11.377   3.746 -0.6239  0.0865 -0.3162
   63MOL0     C 8561  10.232  11.449   3.671 -0.7446  0.1977 -0.0506
   63MOL0     C 8562  10.355  11.392   3.624  0.3400  0.6147  0.0784
   63MOL0     C 8563  10.380  11.256   3.654 -0.2651 -0.2624  0.3572
   63MOL0     O 8564  10.480  11.185   3.603  0.0853  0.0988  0.3969
   63MOL0     C 8565  10.513  11.196   3.464  0.1531 -1.0480 -0.0536
   63MOL0     C 8566  10.576  11.070   3.407 -0.3304  0.1163  0.5824
   63MOL0     C 8567  10.496  10.943   3.429 -0.3881 -0.8746 -0.3182
   63MOL0     C 8568  10.557  10.822   3.364  0.4727 -0.3823  0.2298
   63MOL0     C 8569  10.490  10.689   3.387  0.2289 -0.2058 -1.1859
   63MOL0     C 8570  10.584  10.579   3.354  0.5601 -0.1104 -0.1890
   63MOL0     C 8571  10.506  10.450   3.377 -0.6119  0.3611 -0.0263
   63MOL0     C 8572  10.605  10.334   3.355 -0.5657 -0.2929 -0.5302
   63MOL0     N 8573  10.697  10.330   3.470 -0.4781 -0.4363 -0.0208
   63MOL0     C 8574  10.681  10.255   3.587  0.1915 -0.4086 -0.3688
   63MOL0     C 8575  10.800  10.253   3.636 -0.2712 -0.8350 -0.1219
   63MOL0     C 8576  10.822  10.204   3.772  0.1192 -0.0547 -0.5729
   63MOL0     C 8577  10.922  10.088   3.778 -0.4384 -0.7000  1.4284
   63MOL0     C 8578  11.065  10.132   3.816 -0.4029  0.7902  0.0205
   63MOL0     C 8579  11.080  10.134   3.967  0.7983  0.3699 -0.7282
   63MOL0     O 8580  11.090  10.005   4.022  0.2980  0.2768 -0.0903
   63MOL0     C 8581  11.205   9.939   4.040 -0.0731 -0.5907  0.9587
   63MOL0     C 8582  11.192   9.819   4.104 -0.7620 -0.1867 -0.4047
   63MOL0     C 8583  11.306   9.737   4.142  0.1524 -0.1812 -0.6629
   63MOL0     C 8584  11.269   9.596   4.186 -0.1811 -0.5030  0.1037
   63MOL0     C 8585  11.431   9.793   4.123  0.3204  0.7086  0.3254
   63MOL0     C 8586  11.558   9.715   4.158 -0.0268  0.0282  0.5711
   63MOL0     O 8587  11.668   9.733   4.073 -0.1942  0.4038 -0.8756
   63MOL0     C 8588  11.799   9.694   4.116  0.1683 -0.1919 -0.0606
   63MOL0     C 8589  11.850   9.729   4.242 -0.4515 -0.0621  0.5415
   63MOL0     C 8590  11.981   9.694   4.276  1.1305 -0.3800  0.1176
   63MOL0     C 8591  12.061   9.612   4.188  0.1809  0.7853 -0.8240
   63MOL0     O 8592  12.187   9.568   4.225  0.8583  0.1784  0.2241
   63MOL0     C 8593  12.273   9.678   4.253 -0.3391  0.4701 -0.0425
   63MOL0     C 8594  12.416   9.636   4.242  1.0188  0.3184  0.2575
   63MOL0     C 8595  12.450   9.519   4.330 -0.0760 -0.5415 -0.3661
   63MOL0     C 8596  12.598   9.486   4.304  0.8440 -0.7305  1.4583
   63MOL0     C 8597  12.650   9.368   4.378 -0.0387  0.5776 -0.3087
   63MOL0     C 8598  12.801   9.367   4.374 -0.1002  0.1958  0.1222
   63MOL0     C 8599  12.857   9.317   4.239  0.7541 -0.9678  1.0828
   63MOL0     C 8600  13.005   9.318   4.251  0.9035 -1.1285  0.3122
   63MOL0    Cl 8601  13.092   9.478   4.277 -0.1130  0.0708 -0.0812
   63MOL0     C 8602  12.014   9.582   4.065 -0.2726  0.0861 -0.6356
   63MOL0     C 8603  11.884   9.619   4.031  0.2076  0.2946  0.4238
   63MOL0     O 8604  11.563   9.638   4.249  0.3711 -0.8461 -0.1174
   63MOL0     C 8605  11.450   9.917   4.059  0.1420 -0.4467 -0.4052
   63MOL0     C 8606  11.337   9.992   4.022  0.9344  0.2980  0.0031
   63MOL0     N 8607  10.892  10.331   3.564  0.6630 -0.7333 -0.1347
   63MOL0     N 8608  10.827  10.370   3.459 -0.4759  0.1652  0.6762
   63MOL0     C 8609  10.290  11.191   3.734  0.6641  0.3756  0.8067
   63MOL0     C 8610  10.169  11.248   3.777 -1.1156  0.1969 -0.0122
   63MOL0     C 8611   9.807  11.471   3.888  0.0571 -0.1425  0.5118
   63MOL0     C 8612   9.791  11.591   3.810 -0.5689 -0.4015 -0.2042
   63MOL0     C 8613   9.666  11.652   3.791  0.8390 -0.6829 -0.2592
   63MOL0     C 8614   9.557  11.608   3.862 -0.0912 -0.2177  0.4214
   63MOL0     O 8615   9.438  11.675   3.844 -0.2074  0.0799  0.1716
   63MOL0     C 8616   9.340  11.646   3.939  0.7666 -0.5545  0.5558
   63MOL0     C 8617   9.226  11.753   3.920  0.2184 -0.5029  0.2488
   63MOL0     C 8618   9.088  11.716   3.984  0.3599  0.5191 -0.5075
   63MOL0     C 8619   8.989  11.829   3.973 -0.4731  0.1007  0.7943
   63MOL0     C 8620   8.852  11.816   4.042 -1.2813 -0.3797  0.1694
   63MOL0     C 8621   8.738  11.819   4.074  0.3735  0.1958 -0.5158
   63MOL0     C 8622   9.571  11.497   3.945  0.2560  0.7211  0.9234
   63MOL0     C 8623   9.690  11.428   3.960 -0.8321 -0.0671 -0.1084
   63MOL0     C 8624   9.682  11.308   4.052 -0.9221 -0.2716  0.9545
   63MOL0     H 8625  10.207  11.554   3.658 -2.1309 -0.1656 -0.4291
   63MOL0     H 8626  10.418  11.452   3.559 -0.3087  1.8087  0.5133
   63MOL0     H 8627  10.591  11.271   3.452 -1.2715  0.3523 -0.8892
   63MOL0     H 8628  10.443  11.241   3.393  0.3025 -1.1825 -0.2923
   63MOL0     H 8629  10.593  11.091   3.301  0.3790  3.4097  1.2488
   63MOL0     H 8630  10.670  11.052   3.459 -0.9442 -0.0324  1.6751
   63MOL0     H 8631  10.490  10.927   3.537  1.0572  1.9279  0.2826
   63MOL0     H 8632  10.394  10.963   3.395 -0.3777 -0.2808 -0.0183
   63MOL0     H 8633  10.571  10.849   3.259  3.0263 -0.9384  0.3772
   63MOL0     H 8634  10.657  10.805   3.404 -0.2864  0.3374  2.6155
   63MOL0     H 8635  10.396  10.697   3.332 -0.6880  0.7230  0.4176
   63MOL0     H 8636  10.463  10.680   3.493 -2.1244  2.6300 -1.4028
   63MOL0     H 8637  10.608  10.586   3.247  1.1118  1.0688 -0.0048
   63MOL0     H 8638  10.670  10.587   3.422  0.2287  1.0380  0.1151
   63MOL0     H 8639  10.418  10.451   3.311 -0.1735 -2.8817 -0.8329
   63MOL0     H 8640  10.465  10.447   3.478  0.3394  0.7681  0.3797
   63MOL0     H 8641  10.560  10.238   3.332 -2.9061 -0.0440  2.3312
   63MOL0     H 8642  10.660  10.370   3.268  1.5704 -0.3203  0.7430
   63MOL0     H 8643  10.595  10.199   3.624  0.2856  1.2319  2.6571
   63MOL0     H 8644  10.728  10.165   3.811  1.3420 -2.4947  0.1401
   63MOL0     H 8645  10.856  10.276   3.847 -1.1872  1.4364 -1.3504
   63MOL0     H 8646  10.892  10.010   3.849  2.0298 -1.7142  1.4524
   63MOL0     H 8647  10.917  10.037   3.682  0.7726 -0.1083  1.0377
   63MOL0     H 8648  11.123  10.048   3.776 -2.7303 -0.2242 -1.4479
   63MOL0     H 8649  11.095  10.230   3.779  2.9323  0.6668  1.9185
   63MOL0     H 8650  11.169  10.188   4.000 -0.3392  2.9009 -1.5886
   63MOL0     H 8651  10.995  10.185   4.013  1.0429 -0.0346  0.1975
   63MOL0     H 8652  11.091   9.782   4.115 -0.3951 -0.7580  1.3126
   63MOL0     H 8653  11.163   9.578   4.207 -0.1151 -1.8868 -0.6153
   63MOL0     H 8654  11.324   9.572   4.277 -0.0881  1.9169  0.7647
   63MOL0     H 8655  11.302   9.534   4.102 -2.4178 -1.4189 -0.1595
   63MOL0     H 8656  11.783   9.786   4.306 -1.2319  0.9140 -1.0758
   63MOL0     H 8657  12.018   9.723   4.374 -0.5146 -1.9400  1.2718
   63MOL0     H 8658  12.250   9.764   4.189 -0.9543 -0.2737 -0.8371
   63MOL0     H 8659  12.252   9.715   4.354 -2.1099 -0.3706 -0.0721
   63MOL0     H 8660  12.436   9.617   4.136  0.0932  0.6469  0.0144
   63MOL0     H 8661  12.479   9.722   4.266  1.1818  0.3111 -0.1349
   63MOL0     H 8662  12.381   9.436   4.309 -0.4879  0.0423 -1.3894
   63MOL0     H 8663  12.428   9.556   4.431 -0.9767  2.2601 -1.5087
   63MOL0     H 8664  12.659   9.575   4.326  0.6878  0.1196 -1.2819
   63MOL0     H 8665  12.609   9.457   4.199  0.1302 -1.6502  1.6225
   63MOL0     H 8666  12.616   9.384   4.480 -0.2249 -0.5653 -0.1793
   63MOL0     H 8667  12.620   9.271   4.337  0.8853  0.1410 -0.0020
   63MOL0     H 8668  12.842   9.296   4.446 -0.4355  2.6990  3.0486
   63MOL0     H 8669  12.851   9.462   4.398  0.6969 -0.1788 -0.0386
   63MOL0     H 8670  12.831   9.378   4.152  0.1246  0.0378  1.9516
   63MOL0     H 8671  12.806   9.227   4.204 -1.6319  1.1256 -1.3016
   63MOL0     H 8672  13.038   9.270   4.158  0.0786  1.2938 -1.3387
   63MOL0     H 8673  13.042   9.260   4.336 -1.3504 -2.0121  0.7583
   63MOL0     H 8674  12.077   9.532   3.993 -0.2563  0.7929 -1.1244
   63MOL0     H 8675  11.857   9.588   3.931  2.6494 -1.9602  0.3648
   63MOL0     H 8676  11.550   9.949   4.032 -0.3739  2.1413  0.5099
   63MOL0     H 8677  11.348  10.092   3.981 -0.5127  1.0461  1.3336
   63MOL0     H 8678  10.299  11.088   3.766 -1.2270  1.1210  4.2617
   63MOL0     H 8679  10.102  11.186   3.837 -1.2554 -0.7154 -1.0835
   63MOL0     H 8680   9.879  11.635   3.764 -0.5379 -0.5578 -0.2951
   63MOL0     H 8681   9.653  11.739   3.728 -1.2155 -0.4779  0.3719
   63MOL0     H 8682   9.295  11.548   3.918  1.9365 -0.8812 -0.5361
   63MOL0     H 8683   9.376  11.654   4.042 -0.2333  0.8906  0.8193
   63MOL0     H 8684   9.210  11.769   3.813  1.0616  2.4698  0.4731
   63MOL0     H 8685   9.260  11.848   3.963  1.1564 -0.2352 -1.0242
   63MOL0     H 8686   9.048  11.622   3.945 -0.0872  0.6657 -0.4069
   63MOL0     H 8687   9.105  11.696   4.090  0.1247  0.5456 -0.4628
   63MOL0     H 8688   8.971  11.825   3.865  3.9021 -2.3169 -0.0868
   63MOL0     H 8689   9.027  11.928   3.998  2.6977 -0.7071 -0.2853
   63MOL0     H 8690   8.634  11.821   4.100 -0.0174 -0.5777 -1.9395
   63MOL0     H 8691   9.483  11.448   3.985 -0.8880 -0.6278 -2.8221
   63MOL0     H 8692   9.591  11.311   4.113 -0.0842  1.7476  2.2259
   63MOL0     H 8693   9.689  11.212   4.000  0.9598 -0.9071  2.2669
   63MOL0     H 8694   9.762  11.314   4.126  1.3973 -2.0971 -1.2107
   64MOL0     O 8695   6.997   8.513   8.786  0.2912 -0.1411  0.0771
   64MOL0     C 8696   6.901   8.549   8.850 -0.2183  0.8173 -1.2248
   64MOL0     O 8697   6.908   8.611   8.967  0.4384  0.5752 -0.1886
   64MOL0     C 8698   7.022   8.589   9.040  0.2915  0.1686  0.1854
   64MOL0     C 8699   7.160   8.602   8.997  1.3978  0.0629  0.1641
   64MOL0     C 8700   7.260   8.560   9.084 -0.5653 -0.0516  0.0004
   64MOL0     C 8701   7.231   8.510   9.212 -0.5645 -0.0910 -0.2612
   64MOL0     O 8702   7.314   8.449   9.304  0.1950 -0.2098  1.5463
   64MOL0     C 8703   7.461   8.444   9.276  0.3002  0.3975  0.1509
   64MOL0     C 8704   7.540   8.564   9.321  0.0688 -0.5483  0.6853
   64MOL0     C 8705   7.695   8.546   9.303  0.1976 -0.2565  0.0364
   64MOL0     C 8706   7.756   8.577   9.164  0.2640  0.7167 -0.1469
   64MOL0     C 8707   7.888   8.511   9.145 -0.0897  0.0625 -0.9471
   64MOL0     C 8708   8.002   8.573   9.216  0.6314 -0.2531  0.9318
   64MOL0     C 8709   8.115   8.487   9.194 -0.2333  0.0297  0.0415
   64MOL0     C 8710   8.133   8.357   9.283  0.9365 -0.4795 -0.0737
   64MOL0     N 8711   8.256   8.282   9.271  0.2550 -0.8103  0.0911
   64MOL0     C 8712   8.348   8.249   9.368  0.9000  0.6622  0.2453
   64MOL0     C 8713   8.458   8.222   9.296  0.0881 -0.4709  0.6145
   64MOL0     C 8714   8.590   8.173   9.349 -0.3710 -0.4825  0.2399
   64MOL0     C 8715   8.621   8.031   9.309 -0.2621  0.5346 -0.3698
   64MOL0     C 8716   8.758   7.980   9.359 -0.3608 -0.3756  0.0835
   64MOL0     C 8717   8.791   7.859   9.260 -0.3133 -0.9862 -0.0517
   64MOL0     O 8718   8.908   7.793   9.299 -0.2981  0.0916 -0.7225
   64MOL0     C 8719   9.031   7.846   9.284 -0.3665 -0.7205 -0.2738
   64MOL0     C 8720   9.143   7.790   9.334 -0.7557 -0.6581 -0.0776
   64MOL0     C 8721   9.270   7.840   9.309 -1.0934  0.3731  0.2893
   64MOL0     C 8722   9.380   7.756   9.380 -0.1752 -0.8099  0.0553
   64MOL0     C 8723   9.283   7.952   9.226 -0.2369  0.5606  0.2714
   64MOL0     C 8724   9.416   7.994   9.172  0.4942  0.6524 -0.8121
   64MOL0     O 8725   9.427   8.130   9.141  0.4769  0.2057 -0.0833
   64MOL0     C 8726   9.554   8.168   9.110 -0.5402  1.1654  0.3128
   64MOL0     C 8727   9.591   8.131   8.983 -0.2122  0.0613 -0.1179
   64MOL0     C 8728   9.727   8.148   8.945 -0.1658  0.0254  0.4053
   64MOL0     C 8729   9.822   8.201   9.036 -0.1095  0.5167 -0.1144
   64MOL0     O 8730   9.958   8.213   9.013 -0.4501 -0.0743 -0.2650
   64MOL0     C 8731  10.011   8.293   8.906  0.2788  0.4086 -0.6223
   64MOL0     C 8732  10.021   8.444   8.933  0.0335  1.2963  1.0154
   64MOL0     C 8733   9.893   8.514   8.963 -0.1050  0.0864  0.7372
   64MOL0     C 8734   9.796   8.542   8.848  0.2368 -0.6797 -0.1628
   64MOL0     C 8735   9.664   8.606   8.884 -0.4484  0.5462 -0.0729
   64MOL0     C 8736   9.593   8.525   8.989 -0.0406 -0.5093 -0.3246
   64MOL0     C 8737   9.445   8.587   9.015  0.4043 -0.1289 -0.9591
   64MOL0     C 8738   9.353   8.473   9.075 -0.5916 -0.3993  0.2283
   64MOL0    Cl 8739   9.372   8.440   9.256  0.2848 -0.2547 -0.4741
   64MOL0     C 8740   9.782   8.232   9.166  0.1276  0.0171  0.1532
   64MOL0     C 8741   9.646   8.217   9.204  0.2397  0.0758  0.2568
   64MOL0     O 8742   9.501   7.909   9.147 -0.5064  1.2706 -0.3054
   64MOL0     C 8743   9.170   8.013   9.177  0.3830  0.2133 -0.7054
   64MOL0     C 8744   9.044   7.968   9.203 -0.3461  0.4646 -0.0912
   64MOL0     N 8745   8.434   8.224   9.161  0.6005 -0.0782  0.0208
   64MOL0     N 8746   8.307   8.248   9.150  0.2658  0.1675 -0.5523
   64MOL0     C 8747   7.097   8.511   9.254  0.0052  0.0996 -0.2901
   64MOL0     C 8748   6.988   8.545   9.169 -0.3236 -0.7057 -0.1867
   64MOL0     C 8749   6.771   8.540   8.780 -0.0222 -0.6508  0.2629
   64MOL0     C 8750   6.766   8.517   8.644  0.0620 -0.6881 -0.4963
   64MOL0     C 8751   6.642   8.487   8.571  0.7892  0.8655  0.4649
   64MOL0     C 8752   6.517   8.495   8.638 -0.3418  0.1374  0.7856
   64MOL0     O 8753   6.401   8.453   8.569 -0.2452  0.4055 -0.2864
   64MOL0     C 8754   6.285   8.413   8.648  0.7543 -0.4213  0.1287
   64MOL0     C 8755   6.241   8.277   8.597  0.1580  0.2905 -0.6131
   64MOL0     C 8756   6.336   8.163   8.632 -0.3098 -0.5428 -0.0909
   64MOL0     C 8757   6.291   8.027   8.580  0.0017 -0.2870 -1.1151
   64MOL0     C 8758   6.391   7.929   8.642  0.0143  0.5765 -0.0829
   64MOL0     C 8759   6.471   7.843   8.678 -0.3769 -0.1016  0.7105
   64MOL0     C 8760   6.522   8.536   8.775 -0.0499 -0.3508  0.2078
   64MOL0     C 8761   6.644   8.563   8.848  0.5384  0.0706  0.0481
   64MOL0     C 8762   6.636   8.628   8.982 -0.1964  0.0191  0.6702
   64MOL0     H 8763   7.187   8.640   8.899  3.2040 -0.9923  0.2188
   64MOL0     H 8764   7.363   8.581   9.058 -1.1160  0.7252 -1.6802
   64MOL0     H 8765   7.472   8.433   9.168 -0.4004 -0.4464  0.1569
   64MOL0     H 8766   7.500   8.353   9.322  0.9576  0.6025  0.0060
   64MOL0     H 8767   7.502   8.641   9.253  2.3755 -2.5936 -3.3020
   64MOL0     H 8768   7.520   8.578   9.428  1.9248  2.2457  0.7845
   64MOL0     H 8769   7.753   8.594   9.382  1.5890  1.9000 -2.1756
   64MOL0     H 8770   7.712   8.439   9.320 -0.7929 -0.5395 -0.6784
   64MOL0     H 8771   7.689   8.546   9.083  0.1663 -1.1767  0.6013
   64MOL0     H 8772   7.773   8.684   9.154  2.3698  0.4116 -0.3742
   64MOL0     H 8773   7.924   8.506   9.042  2.6245 -0.4260 -0.0485
   64MOL0     H 8774   7.871   8.410   9.183  3.0536 -0.1180  0.2806
   64MOL0     H 8775   8.032   8.668   9.172  2.0920 -1.0392  0.1711
   64MOL0     H 8776   7.972   8.589   9.320 -0.6005  2.6313  0.2454
   64MOL0     H 8777   8.207   8.543   9.214  0.9740 -1.9167  0.2844
   64MOL0     H 8778   8.124   8.450   9.091  0.5250 -3.1800  1.1398
   64MOL0     H 8779   8.115   8.383   9.387  0.1809 -1.3583  0.0219
   64MOL0     H 8780   8.052   8.290   9.252  0.6067 -2.2145  3.9536
   64MOL0     H 8781   8.338   8.237   9.476 -0.1478  0.3629  0.1250
   64MOL0     H 8782   8.580   8.186   9.457  0.0762 -1.3708  0.3985
   64MOL0     H 8783   8.670   8.235   9.307  1.8402 -3.4325 -0.2356
   64MOL0     H 8784   8.547   7.969   9.360  0.3767  2.5771  3.4035
   64MOL0     H 8785   8.619   8.030   9.199  0.4490 -1.2669 -0.3987
   64MOL0     H 8786   8.838   8.054   9.357 -0.9125  0.2239 -1.0300
   64MOL0     H 8787   8.748   7.937   9.459 -0.7692  0.3270  0.3515
   64MOL0     H 8788   8.710   7.786   9.272 -1.5964  0.0145 -2.0405
   64MOL0     H 8789   8.803   7.889   9.155 -2.3749 -1.2561 -0.4124
   64MOL0     H 8790   9.127   7.709   9.403  0.1776 -0.3672  0.4922
   64MOL0     H 8791   9.371   7.655   9.338 -1.5080  0.0861 -1.9112
   64MOL0     H 8792   9.371   7.745   9.489  0.6377 -0.0503  0.2006
   64MOL0     H 8793   9.481   7.793   9.364 -1.8425  3.4320 -1.9795
   64MOL0     H 8794   9.518   8.092   8.913  1.7480  0.6055 -2.6196
   64MOL0     H 8795   9.771   8.116   8.851  2.7820 -0.3544  1.7887
   64MOL0     H 8796  10.116   8.263   8.901  0.0792 -0.7281  0.9718
   64MOL0     H 8797   9.964   8.261   8.813 -0.5705  0.9418 -0.3924
   64MOL0     H 8798  10.082   8.449   9.024  1.1496 -0.1401  0.3808
   64MOL0     H 8799  10.076   8.486   8.848  1.0413 -2.8959 -0.6217
   64MOL0     H 8800   9.924   8.608   9.011  0.5252  0.5764 -0.5712
   64MOL0     H 8801   9.850   8.451   9.041 -0.0440  0.6837  1.2650
   64MOL0     H 8802   9.770   8.448   8.799 -0.2061 -0.9248  0.5211
   64MOL0     H 8803   9.853   8.617   8.792  3.1174 -0.4749  2.7341
   64MOL0     H 8804   9.686   8.708   8.917 -2.6511  1.4086 -1.0646
   64MOL0     H 8805   9.600   8.603   8.796  0.7273  1.1529 -0.9702
   64MOL0     H 8806   9.661   8.538   9.074  1.3218 -0.3899 -1.4016
   64MOL0     H 8807   9.585   8.420   8.961 -1.8801 -0.1360 -1.3616
   64MOL0     H 8808   9.407   8.627   8.920 -3.1953 -0.3107  0.2846
   64MOL0     H 8809   9.457   8.665   9.091  2.2041 -2.3580  1.2215
   64MOL0     H 8810   9.371   8.385   9.013  0.6477 -0.0698  0.0993
   64MOL0     H 8811   9.248   8.502   9.062 -0.2660  1.0479  0.5884
   64MOL0     H 8812   9.872   8.264   9.218  1.6493 -1.8124 -1.2118
   64MOL0     H 8813   9.613   8.253   9.301  1.7118 -1.8248  1.5284
   64MOL0     H 8814   9.182   8.097   9.110 -1.1139  2.3079  1.4771
   64MOL0     H 8815   8.964   8.028   9.161 -0.1610 -0.0556 -1.2520
   64MOL0     H 8816   7.081   8.481   9.357  4.7354 -2.0236  0.0933
   64MOL0     H 8817   6.886   8.521   9.197  0.1132 -0.7387  1.5039
   64MOL0     H 8818   6.856   8.524   8.584 -0.5787  1.3343 -1.3034
   64MOL0     H 8819   6.646   8.453   8.468 -0.7554  0.4684  0.5120
   64MOL0     H 8820   6.311   8.404   8.754  0.4025  0.7354  0.3259
   64MOL0     H 8821   6.210   8.491   8.633 -0.9522 -1.5895  2.0764
   64MOL0     H 8822   6.228   8.260   8.490  0.7799  0.6401 -0.7527
   64MOL0     H 8823   6.149   8.266   8.655 -0.5166  0.8683 -1.5464
   64MOL0     H 8824   6.431   8.183   8.582  0.1818 -0.0831  1.0060
   64MOL0     H 8825   6.348   8.167   8.740  1.6235  3.5909 -0.2664
   64MOL0     H 8826   6.298   8.034   8.471 -1.4960 -2.2602 -1.4084
   64MOL0     H 8827   6.184   8.009   8.597  0.2314 -0.1009  0.6569
   64MOL0     H 8828   6.543   7.769   8.707 -0.5122 -0.7709 -0.6342
   64MOL0     H 8829   6.430   8.549   8.833 -1.0062  0.2633 -1.3894
   64MOL0     H 8830   6.529   8.652   8.990 -0.6165 -1.1228 -0.9804
   64MOL0     H 8831   6.664   8.569   9.069 -4.1373 -0.8722  1.5170
   64MOL0     H 8832   6.691   8.722   8.969 -2.1853  1.2454  0.5481
   65MOL0     O 8833   5.672   3.838   6.220 -0.0671 -0.4805  0.3825
   65MOL0     C 8834   5.633   3.950   6.230  0.0889  0.2837 -0.6321
   65MOL0     O 8835   5.716   4.052   6.234 -0.2727  0.2348  0.0021
   65MOL0     C 8836   5.851   4.034   6.200 -0.0654  0.3587 -0.0564
   65MOL0     C 8837   5.948   4.072   6.296 -0.1018 -0.5037 -0.3364
   65MOL0     C 8838   6.085   4.041   6.272  0.1556 -0.4718  0.0084
   65MOL0     C 8839   6.125   3.989   6.150 -0.4621  0.3874 -0.4699
   65MOL0     O 8840   6.266   3.976   6.130 -0.3612 -0.7243 -0.5341
   65MOL0     C 8841   6.297   3.851   6.067  0.4304  0.2173 -0.3647
   65MOL0     C 8842   6.442   3.852   6.022 -0.7854 -0.1101  0.4912
   65MOL0     C 8843   6.480   3.705   6.007 -0.5983  0.0005 -0.4406
   65MOL0     C 8844   6.628   3.702   5.978 -0.2119  0.4945  0.3109
   65MOL0     C 8845   6.683   3.555   5.976 -0.0436 -0.0906  0.3216
   65MOL0     C 8846   6.832   3.551   5.978 -0.1474 -0.0334  0.5827
   65MOL0     C 8847   6.899   3.413   5.930 -0.6304  0.5317 -0.2502
   65MOL0     C 8848   6.863   3.300   6.015 -0.3560  0.9360  0.4108
   65MOL0     N 8849   6.897   3.171   5.952 -0.5888  0.0521  0.1005
   65MOL0     C 8850   7.013   3.127   5.884 -0.2572 -0.2529  0.8328
   65MOL0     C 8851   6.984   3.004   5.832 -0.4179 -0.2175  1.0294
   65MOL0     C 8852   7.097   2.917   5.769 -0.0901 -0.5850 -0.0440
   65MOL0     C 8853   7.166   2.845   5.878  0.3000  1.1605 -0.7486
   65MOL0     C 8854   7.279   2.926   5.950  0.0629  0.7250 -0.2234
   65MOL0     C 8855   7.398   2.830   5.984  0.4211 -0.1268 -0.7580
   65MOL0     O 8856   7.504   2.900   6.059 -0.4643  0.2924  0.3891
   65MOL0     C 8857   7.600   2.818   6.097 -0.0341 -0.1294 -0.2229
   65MOL0     C 8858   7.732   2.845   6.062 -1.0277  0.6834 -0.7054
   65MOL0     C 8859   7.836   2.770   6.111  0.0283 -0.4162 -0.1239
   65MOL0     C 8860   7.972   2.823   6.083  0.0613  0.3468 -0.2632
   65MOL0     C 8861   7.817   2.644   6.170  0.2171 -0.2810 -0.5394
   65MOL0     C 8862   7.924   2.545   6.204  0.2052 -0.4389  0.5828
   65MOL0     O 8863   8.053   2.568   6.201 -0.1987 -0.7890 -0.1086
   65MOL0     C 8864   8.152   2.474   6.218  0.9403 -0.1008  0.1247
   65MOL0     C 8865   8.133   2.336   6.221 -0.4484 -0.1620 -0.0255
   65MOL0     C 8866   8.235   2.251   6.255 -0.3798 -0.8264  0.0179
   65MOL0     C 8867   8.365   2.294   6.275 -0.7874 -0.2932 -0.1335
   65MOL0     O 8868   8.471   2.202   6.309  0.4587  0.3154 -0.0266
   65MOL0     C 8869   8.586   2.255   6.381  0.7573  0.7536  1.2088
   65MOL0     C 8870   8.693   2.145   6.394 -0.0537 -0.0382 -0.5661
   65MOL0     C 8871   8.806   2.188   6.495  0.3724 -0.1668  0.6571
   65MOL0     C 8872   8.903   2.071   6.515  0.6937 -0.3116 -0.7846
   65MOL0     C 8873   9.019   2.129   6.607  0.6497 -0.6104 -0.5331
   65MOL0     C 8874   9.131   2.030   6.657 -0.5079  0.4214  0.1732
   65MOL0     C 8875   9.212   1.972   6.545 -0.0283 -0.2248 -0.0368
   65MOL0     C 8876   9.312   2.075   6.480  0.5180  0.0956  0.1621
   65MOL0    Cl 8877   9.385   1.988   6.355  0.1068 -0.1534  0.0233
   65MOL0     C 8878   8.384   2.431   6.276  0.5350 -0.0485 -0.7160
   65MOL0     C 8879   8.278   2.519   6.250  0.4566  0.7396 -0.9873
   65MOL0     O 8880   7.874   2.434   6.237  0.4366 -0.2625  0.4911
   65MOL0     C 8881   7.686   2.626   6.221 -0.3657  0.5648 -0.0538
   65MOL0     C 8882   7.587   2.707   6.183  0.9383 -0.7505 -0.8051
   65MOL0     N 8883   6.848   2.982   5.853  0.0607  0.0694 -0.0062
   65MOL0     N 8884   6.798   3.077   5.935 -0.2063  0.4095  0.5735
   65MOL0     C 8885   6.028   3.952   6.059  0.4701  0.3154  0.5895
   65MOL0     C 8886   5.890   3.983   6.081  0.6117 -0.6704 -0.5812
   65MOL0     C 8887   5.486   3.995   6.216 -0.4146 -0.2482  0.7829
   65MOL0     C 8888   5.458   4.127   6.195  0.6856 -0.8607 -0.6772
   65MOL0     C 8889   5.330   4.171   6.177  0.1184 -0.0238  0.1154
   65MOL0     C 8890   5.222   4.086   6.190 -0.3495 -0.7295 -0.1550
   65MOL0     O 8891   5.108   4.153   6.168 -0.1465 -0.4659 -0.4092
   65MOL0     C 8892   4.996   4.066   6.121 -0.3980 -0.5279  0.1647
   65MOL0     C 8893   4.891   4.158   6.052 -0.4832 -0.4155 -0.0004
   65MOL0     C 8894   4.754   4.086   6.038  0.1860  0.3854  0.2109
   65MOL0     C 8895   4.643   4.174   5.977 -0.7652 -0.5510 -0.4268
   65MOL0     C 8896   4.523   4.095   5.977  1.0621 -0.0232  0.3178
   65MOL0     C 8897   4.414   4.036   5.950 -0.6418 -0.6302 -0.2030
   65MOL0     C 8898   5.246   3.950   6.200  0.0521  0.5269  0.1806
   65MOL0     C 8899   5.379   3.899   6.216  0.0455  0.3305  0.0742
   65MOL0     C 8900   5.391   3.743   6.231  0.0069 -0.2168  0.4516
   65MOL0     H 8901   5.922   4.116   6.391  0.0282  1.1862 -1.0374
   65MOL0     H 8902   6.162   4.094   6.327  0.0737 -0.9754  0.6226
   65MOL0     H 8903   6.236   3.825   5.980  0.8919 -0.8582 -0.3762
   65MOL0     H 8904   6.267   3.777   6.141  0.9115  1.9822  1.6915
   65MOL0     H 8905   6.461   3.908   5.931  3.6079 -0.4460  0.9971
   65MOL0     H 8906   6.500   3.897   6.104  3.6863  1.7871 -3.2456
   65MOL0     H 8907   6.467   3.649   6.100  0.4868 -0.7689 -0.7345
   65MOL0     H 8908   6.428   3.658   5.922 -1.1748  0.2847 -0.2487
   65MOL0     H 8909   6.643   3.757   5.885 -1.6792  0.5948  0.1232
   65MOL0     H 8910   6.682   3.750   6.060 -0.9328  0.4798  0.7983
   65MOL0     H 8911   6.647   3.519   5.879  1.3830  1.3774 -0.8010
   65MOL0     H 8912   6.638   3.502   6.060  1.6239  0.9178  1.9155
   65MOL0     H 8913   6.866   3.631   5.912  0.7505  0.0674  1.1363
   65MOL0     H 8914   6.861   3.574   6.082 -0.2756  0.0291  0.6042
   65MOL0     H 8915   7.007   3.426   5.921 -0.5080 -1.5974 -3.1855
   65MOL0     H 8916   6.865   3.396   5.827 -1.2829 -0.6344  0.1386
   65MOL0     H 8917   6.915   3.312   6.111  1.1839 -0.1211 -0.2389
   65MOL0     H 8918   6.757   3.300   6.042 -0.8101 -1.2245 -1.0683
   65MOL0     H 8919   7.102   3.189   5.879 -1.9531  2.3260  0.6016
   65MOL0     H 8920   7.161   2.991   5.720 -0.4691  0.2067  0.6247
   65MOL0     H 8921   7.045   2.847   5.702 -1.6864 -0.5906  1.1432
   65MOL0     H 8922   7.089   2.820   5.951  1.4033  0.5949  0.2667
   65MOL0     H 8923   7.209   2.751   5.840 -1.9469  0.0181 -0.5982
   65MOL0     H 8924   7.314   3.009   5.888  4.0349 -1.1524 -0.8522
   65MOL0     H 8925   7.238   2.968   6.042  1.6036  0.3409  0.6713
   65MOL0     H 8926   7.364   2.742   6.038  3.1388 -0.4993  0.5192
   65MOL0     H 8927   7.443   2.800   5.888  0.5445 -1.8568 -0.1787
   65MOL0     H 8928   7.751   2.939   6.011 -1.0828  1.4194  0.5711
   65MOL0     H 8929   8.016   2.866   6.174  2.5110  1.8103 -2.0195
   65MOL0     H 8930   7.952   2.908   6.017 -0.3600  1.5049  1.2964
   65MOL0     H 8931   8.029   2.741   6.039  1.0416  0.5568  0.5708
   65MOL0     H 8932   8.044   2.296   6.173 -0.6574  1.5545 -1.1446
   65MOL0     H 8933   8.206   2.146   6.250 -1.7397 -0.4204 -1.2557
   65MOL0     H 8934   8.639   2.328   6.319  0.0325 -1.2745 -2.0038
   65MOL0     H 8935   8.557   2.286   6.482 -0.6455 -1.5900  1.5987
   65MOL0     H 8936   8.641   2.051   6.413  0.6029  0.3536  4.3412
   65MOL0     H 8937   8.743   2.129   6.298  0.8787 -1.9326  0.1959
   65MOL0     H 8938   8.753   2.220   6.585 -0.8696  0.4834 -0.2811
   65MOL0     H 8939   8.854   2.280   6.460  0.5500  1.1739  4.0260
   65MOL0     H 8940   8.933   2.037   6.415 -1.2273  0.4304 -1.6634
   65MOL0     H 8941   8.854   1.995   6.576  0.0497  0.2293 -0.6163
   65MOL0     H 8942   9.068   2.212   6.554  1.4493 -2.6950 -3.2852
   65MOL0     H 8943   8.975   2.167   6.700  0.8864 -1.6466  0.0140
   65MOL0     H 8944   9.090   1.951   6.721  0.5681 -0.3203 -0.0350
   65MOL0     H 8945   9.198   2.093   6.715 -1.7478 -0.2087  2.4278
   65MOL0     H 8946   9.146   1.941   6.464 -0.8862  0.5108  0.3626
   65MOL0     H 8947   9.272   1.883   6.569 -0.6910 -0.8641 -0.6910
   65MOL0     H 8948   9.388   2.118   6.546  0.8287  0.9844 -0.7340
   65MOL0     H 8949   9.247   2.157   6.448  0.7473 -0.0680 -0.7500
   65MOL0     H 8950   8.475   2.487   6.292 -0.5550  1.7274 -0.4629
   65MOL0     H 8951   8.307   2.623   6.253  2.0360  0.2941  1.0817
   65MOL0     H 8952   7.662   2.547   6.291  0.7458 -0.6504 -0.9921
   65MOL0     H 8953   7.486   2.692   6.221  0.8855  3.6016  1.3393
   65MOL0     H 8954   6.052   3.910   5.962  0.4283 -1.6852  1.3910
   65MOL0     H 8955   5.823   3.958   5.999 -0.3330  0.6368 -0.2348
   65MOL0     H 8956   5.530   4.208   6.193  0.5378 -0.7076 -0.1145
   65MOL0     H 8957   5.317   4.278   6.161 -0.0490 -0.0809 -0.1409
   65MOL0     H 8958   5.027   3.992   6.048 -3.2558 -1.7957  0.1200
   65MOL0     H 8959   4.954   4.016   6.209  1.3707  1.5089  2.3178
   65MOL0     H 8960   4.919   4.204   5.957  1.4695  2.2599  1.7094
   65MOL0     H 8961   4.875   4.240   6.123 -1.3530 -1.1923  0.7362
   65MOL0     H 8962   4.774   4.010   5.962 -0.5204 -0.9792  1.3278
   65MOL0     H 8963   4.739   4.027   6.130  1.6609 -0.6570 -0.1695
   65MOL0     H 8964   4.671   4.206   5.876 -2.6490  0.1098 -0.7673
   65MOL0     H 8965   4.626   4.269   6.028  0.3521  0.5931 -2.0742
   65MOL0     H 8966   4.331   3.971   5.931 -0.5878 -1.0635  0.9809
   65MOL0     H 8967   5.159   3.888   6.216  0.0020  0.6889  0.5516
   65MOL0     H 8968   5.433   3.712   6.327 -0.9890  0.0879  1.0029
   65MOL0     H 8969   5.290   3.701   6.227  0.0950 -0.3511 -2.7090
   65MOL0     H 8970   5.445   3.691   6.152  3.1056 -0.0255  2.2454
   66MOL0     O 8971   1.500   0.236   3.357  0.1099  0.2366 -0.5417
   66MOL0     C 8972   1.466   0.341   3.300 -0.1059  0.0419  0.8478
   66MOL0     O 8973   1.546   0.441   3.273 -0.4457  0.7280 -0.4833
   66MOL0     C 8974   1.679   0.425   3.299 -0.1999  0.4328 -1.0647
   66MOL0     C 8975   1.750   0.466   3.418  0.6214 -0.0445  0.2062
   66MOL0     C 8976   1.886   0.459   3.426 -0.1345 -0.1278 -1.1034
   66MOL0     C 8977   1.956   0.417   3.318  0.0363  0.1175 -0.2219
   66MOL0     O 8978   2.087   0.417   3.315 -0.2544  0.6006 -0.3049
   66MOL0     C 8979   2.151   0.289   3.309 -1.4460  0.4028  0.1134
   66MOL0     C 8980   2.222   0.248   3.441  1.1032 -0.4121 -0.0482
   66MOL0     C 8981   2.317   0.347   3.497 -0.2482 -0.2797  0.1741
   66MOL0     C 8982   2.434   0.390   3.409  1.1973  1.0267  0.1771
   66MOL0     C 8983   2.509   0.509   3.479 -0.2844 -0.7800 -0.4744
   66MOL0     C 8984   2.654   0.533   3.427 -0.3131 -0.9235 -0.6102
   66MOL0     C 8985   2.723   0.652   3.500 -0.1869 -0.2790 -0.6096
   66MOL0     C 8986   2.874   0.651   3.455 -0.3481  0.1220  0.4730
   66MOL0     N 8987   2.960   0.739   3.534  0.6740  0.8450 -0.2498
   66MOL0     C 8988   2.973   0.741   3.674  0.5063 -0.8162  1.1865
   66MOL0     C 8989   3.060   0.840   3.707 -0.2075  0.2809 -0.0294
   66MOL0     C 8990   3.092   0.890   3.842 -0.2816  0.3408 -0.3253
   66MOL0     C 8991   3.212   0.822   3.905 -0.1074  0.1721  0.3281
   66MOL0     C 8992   3.221   0.870   4.044 -0.6339  0.0753  0.0895
   66MOL0     C 8993   3.362   0.836   4.112  0.2336 -0.2991  0.1234
   66MOL0     O 8994   3.352   0.792   4.249 -0.3577 -0.1892  0.2514
   66MOL0     C 8995   3.458   0.726   4.300 -0.0518 -0.4675 -0.0708
   66MOL0     C 8996   3.590   0.746   4.248  1.0756 -0.2687 -0.4512
   66MOL0     C 8997   3.695   0.681   4.308 -1.0938 -0.0379 -1.2362
   66MOL0     C 8998   3.838   0.692   4.255 -0.1370 -0.1989  0.3235
   66MOL0     C 8999   3.678   0.597   4.429  0.1715 -0.0966 -0.4028
   66MOL0     C 9000   3.793   0.537   4.508  0.2310 -0.3851 -0.4572
   66MOL0     O 9001   3.904   0.617   4.523  0.7468  0.0889  0.1582
   66MOL0     C 9002   4.027   0.571   4.569 -0.0424 -0.0838 -0.7227
   66MOL0     C 9003   4.145   0.634   4.524 -0.0543 -0.1164 -0.2186
   66MOL0     C 9004   4.270   0.615   4.592 -1.2186 -0.3864 -0.3198
   66MOL0     C 9005   4.291   0.525   4.685 -0.1721  0.1405 -0.1951
   66MOL0     O 9006   4.412   0.501   4.746 -0.3756  0.0922  0.5343
   66MOL0     C 9007   4.533   0.513   4.680  0.5529 -0.0900 -0.5425
   66MOL0     C 9008   4.635   0.521   4.795  0.5399 -0.4614  0.6197
   66MOL0     C 9009   4.779   0.487   4.739  0.8150 -0.8975 -0.1114
   66MOL0     C 9010   4.881   0.503   4.854  0.1179 -0.0412  1.0690
   66MOL0     C 9011   5.031   0.500   4.808  0.8856 -0.9382  0.5380
   66MOL0     C 9012   5.129   0.519   4.926  0.4370 -0.1991  0.2660
   66MOL0     C 9013   5.280   0.522   4.886 -0.2368  0.6775 -0.9534
   66MOL0     C 9014   5.318   0.633   4.796 -0.5371 -0.8662 -0.1989
   66MOL0    Cl 9015   5.485   0.616   4.733 -0.2208 -0.2047 -0.2993
   66MOL0     C 9016   4.181   0.447   4.729  0.9086 -0.1757 -0.4971
   66MOL0     C 9017   4.044   0.481   4.678 -1.1318 -0.8612  0.2524
   66MOL0     O 9018   3.783   0.419   4.554  0.3169 -0.1471  0.4151
   66MOL0     C 9019   3.546   0.584   4.479 -1.1317 -0.0998  0.6184
   66MOL0     C 9020   3.435   0.651   4.416 -0.3220  0.9446 -0.2408
   66MOL0     N 9021   3.103   0.896   3.589  0.4673  0.2883 -0.6518
   66MOL0     N 9022   3.048   0.836   3.496  0.3396  0.5136  0.0750
   66MOL0     C 9023   1.895   0.374   3.203  1.0240 -0.5491 -0.0889
   66MOL0     C 9024   1.751   0.365   3.201 -0.7637 -0.3299  0.3960
   66MOL0     C 9025   1.329   0.363   3.270  0.6637 -0.3581 -0.4779
   66MOL0     C 9026   1.244   0.380   3.381  1.0565  0.2373 -0.1369
   66MOL0     C 9027   1.108   0.389   3.360 -0.4167  0.0702 -0.1147
   66MOL0     C 9028   1.059   0.402   3.227 -0.0262  0.6956 -0.6576
   66MOL0     O 9029   0.924   0.418   3.213  0.0685 -0.8202  0.0425
   66MOL0     C 9030   0.829   0.439   3.319  0.6521 -0.9422 -0.0379
   66MOL0     C 9031   0.731   0.518   3.249  0.3566 -0.9201 -0.7259
   66MOL0     C 9032   0.601   0.513   3.333  0.5241 -0.0587  0.3007
   66MOL0     C 9033   0.490   0.605   3.276  1.0624  0.8121 -0.5927
   66MOL0     C 9034   0.532   0.743   3.266  0.2295 -0.6397  0.6544
   66MOL0     C 9035   0.579   0.853   3.246 -0.8523 -0.9257  0.0673
   66MOL0     C 9036   1.145   0.392   3.120  0.1488 -0.0735 -0.1960
   66MOL0     C 9037   1.283   0.376   3.142  1.1151 -0.7989  1.1331
   66MOL0     C 9038   1.373   0.371   3.017  0.2266  0.1981  0.1919
   66MOL0     H 9039   1.687   0.493   3.502 -1.8369  2.2615 -2.1727
   66MOL0     H 9040   1.938   0.496   3.513  0.8205  2.6603 -2.7512
   66MOL0     H 9041   2.225   0.301   3.229  0.8348 -0.6712  1.9474
   66MOL0     H 9042   2.083   0.208   3.281  0.5531 -2.4818  2.8989
   66MOL0     H 9043   2.144   0.222   3.514  1.6367  0.6869  0.9466
   66MOL0     H 9044   2.287   0.162   3.424  2.3212  0.5380 -0.3340
   66MOL0     H 9045   2.270   0.441   3.527  0.6377  0.7682 -1.5064
   66MOL0     H 9046   2.367   0.302   3.583  2.8604  5.8171  2.1464
   66MOL0     H 9047   2.495   0.299   3.396 -1.4698 -1.1579  1.9257
   66MOL0     H 9048   2.397   0.421   3.311  1.4436 -0.5386 -0.4520
   66MOL0     H 9049   2.515   0.486   3.586 -4.2909 -0.6598 -0.0720
   66MOL0     H 9050   2.453   0.602   3.469 -1.1812 -0.7230  3.4012
   66MOL0     H 9051   2.715   0.444   3.442  0.0955 -0.2411  2.3601
   66MOL0     H 9052   2.651   0.558   3.320  0.2397 -0.3903 -0.5106
   66MOL0     H 9053   2.719   0.641   3.608  2.7952 -0.8671 -0.4966
   66MOL0     H 9054   2.682   0.753   3.485  1.0597  0.3056 -0.1785
   66MOL0     H 9055   2.919   0.551   3.459 -1.1728 -0.3504 -1.1498
   66MOL0     H 9056   2.874   0.687   3.352  0.8332  0.6458  0.6431
   66MOL0     H 9057   2.925   0.679   3.749 -1.0774  0.2655  1.1184
   66MOL0     H 9058   3.005   0.888   3.908  0.5367  0.0911  0.7604
   66MOL0     H 9059   3.127   0.994   3.843  1.1792 -0.0904  2.5908
   66MOL0     H 9060   3.198   0.714   3.901  0.3390 -0.0169 -5.5374
   66MOL0     H 9061   3.292   0.855   3.837 -2.6351  0.0622 -2.9541
   66MOL0     H 9062   3.207   0.979   4.050  1.6992  0.3859  1.0800
   66MOL0     H 9063   3.142   0.817   4.098 -0.6500  0.8749  0.8826
   66MOL0     H 9064   3.408   0.761   4.047  2.0173 -0.4356  1.4670
   66MOL0     H 9065   3.418   0.930   4.116 -0.2547 -0.0572  1.9506
   66MOL0     H 9066   3.610   0.810   4.163  1.4658 -0.5471 -0.5709
   66MOL0     H 9067   3.838   0.725   4.151  1.2900  3.1309  1.2686
   66MOL0     H 9068   3.887   0.594   4.261  1.4641  0.4201 -1.4697
   66MOL0     H 9069   3.901   0.762   4.310  0.6530 -0.2133 -0.5366
   66MOL0     H 9070   4.137   0.696   4.435 -0.3196  0.2257  0.0411
   66MOL0     H 9071   4.345   0.690   4.570 -0.9633 -1.1375 -2.1608
   66MOL0     H 9072   4.543   0.420   4.623  1.1886  1.3071 -2.8488
   66MOL0     H 9073   4.543   0.597   4.611  0.5337 -0.6531 -1.2516
   66MOL0     H 9074   4.636   0.624   4.834  3.1875 -0.3254  0.4121
   66MOL0     H 9075   4.608   0.454   4.877  0.7673 -1.9927 -0.5089
   66MOL0     H 9076   4.806   0.557   4.659  2.4355 -1.6652 -0.2744
   66MOL0     H 9077   4.789   0.383   4.707 -2.1036 -2.3526  2.9907
   66MOL0     H 9078   4.866   0.420   4.923 -1.2048  1.5145  2.7376
   66MOL0     H 9079   4.859   0.594   4.911  0.4348  1.0121 -0.4131
   66MOL0     H 9080   5.060   0.403   4.768 -0.5647 -1.0316 -0.3671
   66MOL0     H 9081   5.036   0.580   4.733 -1.5861 -0.6925  0.5348
   66MOL0     H 9082   5.129   0.439   5.000  5.5914 -0.5680  0.2022
   66MOL0     H 9083   5.106   0.613   4.977 -0.0941 -0.4701  0.5342
   66MOL0     H 9084   5.321   0.431   4.841  1.0993 -0.5889  2.4215
   66MOL0     H 9085   5.342   0.531   4.976 -1.0243 -1.9064 -0.0704
   66MOL0     H 9086   5.317   0.729   4.848 -1.2855 -0.3400 -1.1375
   66MOL0     H 9087   5.253   0.640   4.708  1.0145  1.4764 -1.2887
   66MOL0     H 9088   4.193   0.371   4.805 -2.7402  1.2431  1.7327
   66MOL0     H 9089   3.956   0.424   4.706 -0.1903 -1.4218  2.2711
   66MOL0     H 9090   3.539   0.528   4.571  0.4668 -2.5231 -0.6170
   66MOL0     H 9091   3.334   0.648   4.455 -1.1645 -1.9167 -2.2831
   66MOL0     H 9092   1.949   0.326   3.123  0.0683 -4.1392  1.2036
   66MOL0     H 9093   1.701   0.320   3.116  0.8248  0.8108 -1.2377
   66MOL0     H 9094   1.273   0.357   3.483 -1.3560  0.3804  0.6597
   66MOL0     H 9095   1.052   0.387   3.453  0.5507 -0.8717  0.4579
   66MOL0     H 9096   0.798   0.348   3.371  4.1378 -1.6018  1.1690
   66MOL0     H 9097   0.868   0.515   3.387  0.4472  1.7302 -2.6580
   66MOL0     H 9098   0.713   0.479   3.148 -1.0207  0.5602 -1.0828
   66MOL0     H 9099   0.769   0.620   3.241 -1.1134 -0.4158 -1.7310
   66MOL0     H 9100   0.568   0.409   3.337 -0.1677  0.1314 -0.2775
   66MOL0     H 9101   0.631   0.533   3.436  1.3490  0.2789  0.0052
   66MOL0     H 9102   0.405   0.605   3.345  0.8134  3.2689 -0.8251
   66MOL0     H 9103   0.462   0.557   3.181 -0.1867 -3.7608  1.7610
   66MOL0     H 9104   0.610   0.953   3.226 -0.1312 -0.5867  2.5211
   66MOL0     H 9105   1.101   0.390   3.021  0.7119  0.0622 -0.4487
   66MOL0     H 9106   1.334   0.430   2.934  2.3588 -0.9465 -1.7090
   66MOL0     H 9107   1.470   0.413   3.044  0.3860  0.5536 -0.8845
   66MOL0     H 9108   1.391   0.268   2.985 -1.3954 -1.0537  2.9513
   67MOL0     O 9109  10.612   5.088   4.823  0.0433 -0.0328  0.1308
   67MOL0     C 9110  10.579   5.179   4.749 -0.2768  0.0076 -0.3741
   67MOL0     O 9111  10.679   5.249   4.675  0.5881 -0.1544  0.2802
   67MOL0     C 9112  10.814   5.242   4.689 -0.5786  0.2166 -0.3587
   67MOL0     C 9113  10.873   5.335   4.606 -0.2886  0.4503 -0.0964
   67MOL0     C 9114  11.008   5.334   4.599 -0.3228  0.3051 -0.3004
   67MOL0     C 9115  11.090   5.241   4.655  0.3781 -0.2178 -0.7817
   67MOL0     O 9116  11.222   5.247   4.625 -0.4069 -0.6263  0.4917
   67MOL0     C 9117  11.270   5.125   4.554  0.2214 -0.0597 -0.6140
   67MOL0     C 9118  11.412   5.156   4.497  0.2748 -0.6621  0.2354
   67MOL0     C 9119  11.515   5.225   4.586  0.6853  0.5049 -0.5377
   67MOL0     C 9120  11.654   5.220   4.522 -0.1997  0.1251 -0.7614
   67MOL0     C 9121  11.771   5.265   4.609  0.0503 -0.0356 -0.2354
   67MOL0     C 9122  11.804   5.163   4.713  0.6477  0.6000 -0.1303
   67MOL0     C 9123  11.944   5.166   4.781  0.0661 -0.6333 -0.7791
   67MOL0     C 9124  12.055   5.140   4.686  0.2807  0.6505 -0.5232
   67MOL0     N 9125  12.069   4.997   4.649 -0.1215  0.6812  0.2505
   67MOL0     C 9126  12.075   4.891   4.728  1.3765  1.6286  0.0258
   67MOL0     C 9127  12.076   4.776   4.644 -0.3893  0.2881  0.7194
   67MOL0     C 9128  12.052   4.633   4.686 -0.2144 -0.0390 -0.0951
   67MOL0     C 9129  12.181   4.557   4.707  0.1591 -1.0160 -0.3703
   67MOL0     C 9130  12.256   4.615   4.824 -0.2792 -0.0146 -0.2794
   67MOL0     C 9131  12.340   4.512   4.888 -0.1073 -0.6021 -0.0979
   67MOL0     O 9132  12.447   4.456   4.808 -0.0163  0.9500  0.1651
   67MOL0     C 9133  12.547   4.537   4.765 -0.2514 -0.0484 -0.4179
   67MOL0     C 9134  12.623   4.492   4.665  0.2941  0.7932  0.1958
   67MOL0     C 9135  12.727   4.574   4.613 -0.4202 -0.0597  0.0276
   67MOL0     C 9136  12.812   4.519   4.505  0.5063  0.4523 -0.5938
   67MOL0     C 9137  12.759   4.698   4.677  0.9218 -0.0979 -0.1249
   67MOL0     C 9138  12.872   4.796   4.638  0.2640 -0.0150 -0.7897
   67MOL0     O 9139  12.879   4.917   4.698 -0.3491  0.1523  0.4108
   67MOL0     C 9140  12.975   5.013   4.671  0.5094  0.3741 -0.6703
   67MOL0     C 9141  12.959   5.087   4.555 -0.0882  0.6431  0.1162
   67MOL0     C 9142  13.045   5.192   4.525  0.0366 -0.1663 -0.1594
   67MOL0     C 9143  13.154   5.224   4.606  0.5343 -0.4082 -0.2390
   67MOL0     O 9144  13.240   5.331   4.591  0.2388  0.5160 -0.3988
   67MOL0     C 9145  13.309   5.343   4.465  0.2748  0.7058  0.2273
   67MOL0     C 9146  13.421   5.243   4.455  0.4652 -0.4649  0.1707
   67MOL0     C 9147  13.372   5.104   4.417  0.4702  0.0128  0.4134
   67MOL0     C 9148  13.471   5.020   4.332 -0.7427 -0.1578 -0.4821
   67MOL0     C 9149  13.400   4.887   4.281  0.8502 -0.0964  0.3175
   67MOL0     C 9150  13.340   4.808   4.400  0.9136 -0.4057  0.0804
   67MOL0     C 9151  13.277   4.679   4.356  0.0216  0.1516  0.2060
   67MOL0     C 9152  13.239   4.590   4.476  0.1962  0.3847  0.7678
   67MOL0    Cl 9153  13.152   4.447   4.399 -0.0219 -0.4826 -0.4130
   67MOL0     C 9154  13.172   5.146   4.731 -0.2095 -0.4743  0.7924
   67MOL0     C 9155  13.086   5.042   4.751 -0.1161 -0.2783  0.1524
   67MOL0     O 9156  12.949   4.764   4.549 -0.3448  0.7190  0.4070
   67MOL0     C 9157  12.695   4.720   4.800 -0.4252  0.6260 -0.5904
   67MOL0     C 9158  12.588   4.647   4.836  0.8663  0.2967  0.3622
   67MOL0     N 9159  12.068   4.826   4.516  0.6523 -0.4382 -0.5772
   67MOL0     N 9160  12.066   4.956   4.517  0.6063 -0.5145 -0.5888
   67MOL0     C 9161  11.023   5.139   4.728 -0.8265  0.1178 -0.3187
   67MOL0     C 9162  10.884   5.146   4.749  0.5200  0.1933  0.4245
   67MOL0     C 9163  10.442   5.231   4.741 -0.7012 -0.8007 -0.7382
   67MOL0     C 9164  10.407   5.294   4.620  1.0084  0.2792  0.4811
   67MOL0     C 9165  10.276   5.348   4.603  0.1881  0.1931  0.3572
   67MOL0     C 9166  10.182   5.343   4.705 -0.2901 -0.5369 -0.2697
   67MOL0     O 9167  10.064   5.405   4.671 -0.2038 -0.5620 -0.5936
   67MOL0     C 9168   9.961   5.420   4.777  0.0779  0.9835 -0.3737
   67MOL0     C 9169   9.845   5.514   4.727 -0.2154  0.0198  0.6544
   67MOL0     C 9170   9.772   5.452   4.605 -0.2213 -0.1772 -0.8825
   67MOL0     C 9171   9.658   5.550   4.571 -0.1579 -0.0198  0.4527
   67MOL0     C 9172   9.559   5.567   4.680 -0.2179 -0.2002  0.2828
   67MOL0     C 9173   9.483   5.572   4.771 -0.9835 -0.5916 -1.0537
   67MOL0     C 9174  10.225   5.281   4.827  0.7561 -0.1886 -0.5785
   67MOL0     C 9175  10.349   5.229   4.848 -0.3663  0.5437 -0.4714
   67MOL0     C 9176  10.381   5.175   4.992 -0.3053 -0.0397  0.5233
   67MOL0     H 9177  10.811   5.411   4.557 -0.9649 -0.1683 -0.2219
   67MOL0     H 9178  11.064   5.400   4.533  0.8950 -0.7075 -0.3152
   67MOL0     H 9179  11.209   5.086   4.473  0.5425  0.3530 -1.0584
   67MOL0     H 9180  11.284   5.043   4.625 -0.4336 -0.9062 -1.4477
   67MOL0     H 9181  11.453   5.059   4.468 -2.2210 -2.7770  3.0148
   67MOL0     H 9182  11.404   5.217   4.407  0.3144 -2.9234 -1.3904
   67MOL0     H 9183  11.490   5.328   4.612  1.8660  0.3162  1.5426
   67MOL0     H 9184  11.516   5.167   4.679  3.9772  1.7887  0.3579
   67MOL0     H 9185  11.678   5.117   4.496  1.2216  0.1003  0.5765
   67MOL0     H 9186  11.643   5.276   4.428  0.0936  0.7188 -0.4464
   67MOL0     H 9187  11.745   5.363   4.650  0.6833  0.3524 -0.7461
   67MOL0     H 9188  11.858   5.286   4.546 -2.0477  1.2882 -2.9085
   67MOL0     H 9189  11.725   5.172   4.788 -0.5672 -2.2887 -0.8930
   67MOL0     H 9190  11.788   5.062   4.672  2.4234 -0.9368  2.6208
   67MOL0     H 9191  11.939   5.090   4.860 -0.1046 -0.1928 -0.3627
   67MOL0     H 9192  11.964   5.263   4.827  1.5975 -0.1353 -2.3974
   67MOL0     H 9193  12.051   5.200   4.594  3.9019  0.7819 -0.7315
   67MOL0     H 9194  12.148   5.177   4.730  0.5539 -0.2026 -0.3558
   67MOL0     H 9195  12.075   4.895   4.836  2.3429  1.0518  0.0642
   67MOL0     H 9196  12.007   4.575   4.605  1.3298 -2.2505  0.5354
   67MOL0     H 9197  11.987   4.633   4.774  1.5008  1.1431  1.2353
   67MOL0     H 9198  12.158   4.453   4.731 -0.0700 -0.7902  0.4289
   67MOL0     H 9199  12.243   4.559   4.617 -2.2842  0.4843 -2.1519
   67MOL0     H 9200  12.320   4.695   4.786  1.3727 -1.5245 -0.8400
   67MOL0     H 9201  12.185   4.656   4.896  2.6207  2.2265  1.4974
   67MOL0     H 9202  12.382   4.547   4.983  0.4952 -0.1418 -0.5325
   67MOL0     H 9203  12.273   4.429   4.913  1.8609 -2.2528 -0.1019
   67MOL0     H 9204  12.593   4.399   4.617  4.1470 -0.3354 -0.3400
   67MOL0     H 9205  12.914   4.506   4.541  0.3154 -2.7036 -0.8877
   67MOL0     H 9206  12.808   4.589   4.421 -2.3054  0.9938 -0.1287
   67MOL0     H 9207  12.770   4.421   4.480  0.0821  0.3149  0.5763
   67MOL0     H 9208  12.877   5.065   4.487 -1.3688  1.8277  1.2012
   67MOL0     H 9209  13.023   5.247   4.434  0.0941 -0.1176 -0.1438
   67MOL0     H 9210  13.229   5.336   4.391 -3.4535 -1.4960  4.0238
   67MOL0     H 9211  13.359   5.441   4.460  2.2986 -0.2889 -0.0192
   67MOL0     H 9212  13.478   5.269   4.365 -1.6542 -1.4386 -1.5415
   67MOL0     H 9213  13.482   5.240   4.546 -0.6438  1.8792  1.0724
   67MOL0     H 9214  13.282   5.123   4.358 -0.1039 -1.8956  0.6171
   67MOL0     H 9215  13.343   5.058   4.512  0.5043 -0.6102  0.1243
   67MOL0     H 9216  13.559   4.990   4.391  1.0595  1.4291 -2.1953
   67MOL0     H 9217  13.507   5.080   4.247 -1.5113 -1.9168 -2.1196
   67MOL0     H 9218  13.323   4.912   4.208 -1.2744 -1.0893  2.0985
   67MOL0     H 9219  13.480   4.828   4.234  1.4888  0.0799  1.1493
   67MOL0     H 9220  13.262   4.863   4.453 -1.2624 -1.7393 -1.5530
   67MOL0     H 9221  13.423   4.789   4.469 -0.1817  1.1993  1.9724
   67MOL0     H 9222  13.347   4.617   4.299  0.2992  0.9937 -0.3965
   67MOL0     H 9223  13.187   4.709   4.300 -0.1152 -2.3937 -1.0803
   67MOL0     H 9224  13.165   4.639   4.540  0.9618 -0.0572  2.0244
   67MOL0     H 9225  13.323   4.563   4.541 -0.9170 -1.1482  1.6286
   67MOL0     H 9226  13.261   5.166   4.790 -0.7303  1.8306  0.8821
   67MOL0     H 9227  13.104   4.978   4.837 -0.4803 -3.8001 -2.1998
   67MOL0     H 9228  12.740   4.801   4.856  1.0078 -0.0949 -0.6463
   67MOL0     H 9229  12.531   4.670   4.925 -0.0093 -0.6177  0.0581
   67MOL0     H 9230  11.093   5.067   4.770  1.1572  0.9852 -1.9564
   67MOL0     H 9231  10.834   5.072   4.811  0.1089  1.3864  1.5683
   67MOL0     H 9232  10.478   5.308   4.540  1.2152  0.2860  0.6639
   67MOL0     H 9233  10.242   5.403   4.517  2.2003  0.7195 -0.1369
   67MOL0     H 9234   9.919   5.321   4.797  1.1685  0.2680 -1.4009
   67MOL0     H 9235  10.004   5.453   4.872 -1.3010 -2.3054  1.5576
   67MOL0     H 9236   9.878   5.611   4.687 -2.2008  1.0962  1.4877
   67MOL0     H 9237   9.780   5.543   4.809 -0.8670 -0.4467  0.3113
   67MOL0     H 9238   9.836   5.436   4.518 -0.2990 -1.4860 -0.7087
   67MOL0     H 9239   9.729   5.359   4.641  1.1407  0.4746  2.8757
   67MOL0     H 9240   9.608   5.522   4.477 -1.1426 -2.2214  1.5483
   67MOL0     H 9241   9.701   5.643   4.531 -0.1770 -0.8499 -1.6496
   67MOL0     H 9242   9.409   5.567   4.848  0.6106  0.9830  0.6697
   67MOL0     H 9243  10.161   5.293   4.915  0.6030 -0.3921 -0.6622
   67MOL0     H 9244  10.471   5.229   5.023 -1.2969  1.1240  1.4302
   67MOL0     H 9245  10.300   5.195   5.062 -1.6907 -0.8040 -0.8071
   67MOL0     H 9246  10.397   5.067   4.997 -0.5766 -0.0228  2.0322
   68MOL0     O 9247   3.713   3.451   2.540  0.6866 -0.3443  0.2932
   68MOL0     C 9248   3.693   3.545   2.460 -0.1957  0.1030 -0.3353
   68MOL0     O 9249   3.570   3.588   2.417 -0.0294  0.0223  0.5892
   68MOL0     C 9250   3.453   3.565   2.477  0.2784  0.3398 -0.3774
   68MOL0     C 9251   3.337   3.631   2.421  0.3944 -0.7949 -0.5127
   68MOL0     C 9252   3.208   3.603   2.461 -0.4184  0.9955 -0.1286
   68MOL0     C 9253   3.181   3.506   2.557  0.1224 -0.0578  0.2549
   68MOL0     O 9254   3.055   3.469   2.592 -0.2063 -0.0724  0.6021
   68MOL0     C 9255   3.036   3.449   2.730  0.4234 -0.8209  0.5153
   68MOL0     C 9256   3.066   3.578   2.806 -0.2057  0.0150 -0.2337
   68MOL0     C 9257   2.953   3.687   2.769 -0.1646  0.2866 -0.3594
   68MOL0     C 9258   2.936   3.802   2.869 -0.3347  0.1263 -0.0319
   68MOL0     C 9259   2.820   3.894   2.829  0.2099  0.3007  0.3789
   68MOL0     C 9260   2.803   4.005   2.943 -0.6667  0.5727 -0.6453
   68MOL0     C 9261   2.928   4.101   2.930 -0.4888  0.3406  0.7175
   68MOL0     C 9262   2.914   4.209   3.031  0.2425 -0.4240 -0.0685
   68MOL0     N 9263   3.010   4.321   3.014  0.0483  0.2806  0.7821
   68MOL0     C 9264   3.132   4.307   2.957  0.4675  0.7115 -0.4530
   68MOL0     C 9265   3.175   4.436   2.931  0.5299 -0.8752 -0.2563
   68MOL0     C 9266   3.311   4.471   2.874 -0.6800 -0.9152  0.2063
   68MOL0     C 9267   3.384   4.536   2.993 -0.5712  1.1995 -0.0173
   68MOL0     C 9268   3.515   4.602   2.955 -0.0479  0.5116 -0.1767
   68MOL0     C 9269   3.578   4.692   3.056  0.2035  0.2901  0.3408
   68MOL0     O 9270   3.703   4.734   3.008  0.4212  0.6473  0.1468
   68MOL0     C 9271   3.776   4.807   3.095  0.2534 -0.8319 -0.7750
   68MOL0     C 9272   3.731   4.879   3.205 -0.1450 -0.3606 -0.3241
   68MOL0     C 9273   3.816   4.939   3.304  0.5651  0.7977 -0.4743
   68MOL0     C 9274   3.751   5.039   3.395 -0.1320  0.6125  0.3037
   68MOL0     C 9275   3.955   4.922   3.299 -0.5133 -0.6232  0.0852
   68MOL0     C 9276   4.062   4.967   3.402  0.5686  0.7569  0.7827
   68MOL0     O 9277   4.190   4.970   3.357 -0.0812 -0.3815 -0.2654
   68MOL0     C 9278   4.292   5.008   3.439  0.4581 -0.2259 -0.3700
   68MOL0     C 9279   4.306   5.127   3.508  0.0183 -0.4442 -0.9580
   68MOL0     C 9280   4.423   5.144   3.581 -0.3919  0.0332 -0.4435
   68MOL0     C 9281   4.528   5.049   3.588  0.0457 -0.0092  0.4147
   68MOL0     O 9282   4.648   5.064   3.651  0.1017 -0.3855  0.5421
   68MOL0     C 9283   4.678   5.192   3.716  0.4959  0.3702 -0.2271
   68MOL0     C 9284   4.812   5.206   3.781  0.2604  0.3127 -0.4615
   68MOL0     C 9285   4.925   5.187   3.676  0.3180  0.1870  0.0405
   68MOL0     C 9286   5.061   5.240   3.730  0.2089 -0.2144 -0.4045
   68MOL0     C 9287   5.187   5.197   3.659 -0.7891  0.2939 -0.5439
   68MOL0     C 9288   5.246   5.283   3.538  0.1298  0.1234 -0.7908
   68MOL0     C 9289   5.150   5.248   3.424 -0.3700 -0.4981  0.5386
   68MOL0     C 9290   5.228   5.282   3.291  0.5330 -0.0858 -0.3968
   68MOL0    Cl 9291   5.247   5.456   3.256  0.3646 -0.2599 -0.3597
   68MOL0     C 9292   4.514   4.935   3.510  0.2659  0.5096  0.3278
   68MOL0     C 9293   4.397   4.916   3.442 -0.0582 -0.1610  0.8394
   68MOL0     O 9294   4.029   4.975   3.517 -0.0798  0.1176 -0.2429
   68MOL0     C 9295   4.004   4.869   3.178 -0.5135  0.6103  0.4290
   68MOL0     C 9296   3.919   4.816   3.080 -0.1280 -0.1266 -0.7282
   68MOL0     N 9297   3.080   4.526   2.981  0.3337  0.1490 -0.2355
   68MOL0     N 9298   2.987   4.455   3.035  0.1265 -0.1360 -1.0238
   68MOL0     C 9299   3.297   3.434   2.606  0.1951 -0.0618 -0.3071
   68MOL0     C 9300   3.426   3.470   2.575 -0.0566  0.8036  0.6355
   68MOL0     C 9301   3.808   3.591   2.382 -0.5438  0.2690  0.7006
   68MOL0     C 9302   3.806   3.722   2.340  0.0504 -0.0249  1.2529
   68MOL0     C 9303   3.907   3.782   2.272 -0.0535 -0.4909  0.4260
   68MOL0     C 9304   4.019   3.700   2.232  0.0195 -0.0247 -0.4982
   68MOL0     O 9305   4.128   3.767   2.170 -0.1253 -1.0231  0.2777
   68MOL0     C 9306   4.249   3.696   2.153  0.0094 -0.4349 -0.3305
   68MOL0     C 9307   4.368   3.777   2.095  0.4901 -0.6387  0.8051
   68MOL0     C 9308   4.352   3.815   1.943 -0.7412  0.7384  1.0128
   68MOL0     C 9309   4.482   3.821   1.866 -0.2946 -0.8762  0.7910
   68MOL0     C 9310   4.595   3.898   1.933  0.9232 -0.2984  0.1714
   68MOL0     C 9311   4.688   3.941   1.993  0.9680  0.1340 -0.5511
   68MOL0     C 9312   4.019   3.563   2.266  1.1583  0.2839  0.1697
   68MOL0     C 9313   3.917   3.508   2.344  0.0725  0.2826  0.3125
   68MOL0     C 9314   3.915   3.356   2.368 -0.3666 -0.5624 -0.5260
   68MOL0     H 9315   3.347   3.716   2.354  0.5579 -0.0343  0.4442
   68MOL0     H 9316   3.128   3.657   2.412 -1.4777 -1.6058 -1.4448
   68MOL0     H 9317   3.092   3.367   2.778  0.3273  0.6666  3.4335
   68MOL0     H 9318   2.931   3.419   2.738 -0.9208  1.5691 -4.3154
   68MOL0     H 9319   3.062   3.563   2.915 -2.1136 -0.7364 -0.3713
   68MOL0     H 9320   3.162   3.617   2.773 -0.5449  0.0454 -1.2097
   68MOL0     H 9321   2.976   3.729   2.671 -0.8065 -1.0759 -1.1248
   68MOL0     H 9322   2.854   3.641   2.765  0.0182 -0.2298  0.6375
   68MOL0     H 9323   2.905   3.765   2.967 -1.2338 -0.0922 -0.3852
   68MOL0     H 9324   3.030   3.856   2.885  0.4395 -1.5371  1.2803
   68MOL0     H 9325   2.726   3.838   2.831  0.0693  0.5053  2.4539
   68MOL0     H 9326   2.844   3.933   2.730  3.1022  1.3702  1.4096
   68MOL0     H 9327   2.721   4.073   2.920 -0.2638  1.3568  0.1770
   68MOL0     H 9328   2.796   3.972   3.047  0.4505  1.7387 -0.1779
   68MOL0     H 9329   2.929   4.148   2.831  0.9247 -1.4870 -0.2121
   68MOL0     H 9330   3.022   4.047   2.942 -0.1533 -0.1499 -2.9569
   68MOL0     H 9331   2.813   4.250   3.024  1.4201  2.8562  0.0606
   68MOL0     H 9332   2.928   4.160   3.128  0.6922 -0.8558 -0.3479
   68MOL0     H 9333   3.185   4.216   2.931  0.4493  0.3829  0.6106
   68MOL0     H 9334   3.290   4.543   2.795 -0.3797 -0.4813  0.5174
   68MOL0     H 9335   3.371   4.391   2.829  3.3788  0.7518  2.1436
   68MOL0     H 9336   3.320   4.605   3.049  1.9228  1.9701  2.0685
   68MOL0     H 9337   3.413   4.459   3.064  1.2002  0.9612 -0.9338
   68MOL0     H 9338   3.588   4.524   2.935 -1.0438  0.2534 -3.4032
   68MOL0     H 9339   3.492   4.655   2.862 -2.1087  1.0202  0.5541
   68MOL0     H 9340   3.515   4.780   3.070  0.0833  0.8902 -3.1516
   68MOL0     H 9341   3.574   4.648   3.157 -2.2748  0.0107  0.1912
   68MOL0     H 9342   3.623   4.892   3.214  0.0915  0.5593  1.5999
   68MOL0     H 9343   3.744   4.983   3.488  1.2438  0.1715  0.1701
   68MOL0     H 9344   3.652   5.079   3.368 -1.4018 -0.7925  2.5814
   68MOL0     H 9345   3.829   5.113   3.416  0.4094  1.1515 -3.0394
   68MOL0     H 9346   4.223   5.196   3.511 -0.3519 -0.9107  1.4354
   68MOL0     H 9347   4.431   5.243   3.624 -0.8909 -0.6966  1.4662
   68MOL0     H 9348   4.661   5.266   3.637  0.2403 -0.3150 -0.8192
   68MOL0     H 9349   4.598   5.201   3.790  1.5159 -1.5583  1.1929
   68MOL0     H 9350   4.817   5.310   3.814 -0.0050  0.8234 -1.9494
   68MOL0     H 9351   4.814   5.135   3.865 -0.1913  1.7854  0.8303
   68MOL0     H 9352   4.895   5.241   3.586 -2.4584  0.2741  0.9165
   68MOL0     H 9353   4.934   5.081   3.653  1.3283  0.8902 -3.3217
   68MOL0     H 9354   5.073   5.207   3.833  2.4855 -2.5084 -1.3140
   68MOL0     H 9355   5.060   5.349   3.723 -0.2677 -0.2307 -0.7061
   68MOL0     H 9356   5.265   5.202   3.735 -1.2662  1.3858 -0.1134
   68MOL0     H 9357   5.163   5.096   3.623 -6.1591  1.6777 -1.7253
   68MOL0     H 9358   5.351   5.263   3.518  1.0480  3.9125 -0.4430
   68MOL0     H 9359   5.237   5.388   3.568  2.4832 -0.2848  1.6991
   68MOL0     H 9360   5.053   5.299   3.429 -0.3756 -0.1907 -1.5723
   68MOL0     H 9361   5.119   5.143   3.419  1.2068 -1.0116  1.0218
   68MOL0     H 9362   5.179   5.227   3.210  1.2775  2.7542 -2.9876
   68MOL0     H 9363   5.329   5.243   3.302  1.3776  2.4078  1.7741
   68MOL0     H 9364   4.596   4.864   3.497  0.8084  1.4795 -2.0443
   68MOL0     H 9365   4.384   4.824   3.385  1.2073 -1.4883  2.5787
   68MOL0     H 9366   4.108   4.861   3.149 -0.2755  0.9848  1.1483
   68MOL0     H 9367   3.960   4.775   2.989 -0.3991 -2.1939  0.0352
   68MOL0     H 9368   3.289   3.356   2.680 -0.7904  1.1174  0.8982
   68MOL0     H 9369   3.508   3.421   2.626  0.4750  0.9421 -0.0633
   68MOL0     H 9370   3.714   3.778   2.353  0.1972  1.0693 -1.5764
   68MOL0     H 9371   3.901   3.885   2.238  0.1492 -0.8470 -0.7109
   68MOL0     H 9372   4.289   3.658   2.247  0.6571 -0.0057 -0.4251
   68MOL0     H 9373   4.233   3.601   2.101 -0.9642 -0.0458 -0.7797
   68MOL0     H 9374   4.467   3.731   2.104  2.1905  1.9855 -2.2889
   68MOL0     H 9375   4.382   3.870   2.151  2.0654 -0.5161  0.2670
   68MOL0     H 9376   4.293   3.738   1.892 -0.3738  0.0623  1.5802
   68MOL0     H 9377   4.310   3.916   1.946 -2.0630  0.6234 -4.3302
   68MOL0     H 9378   4.458   3.864   1.769 -1.0408  1.6883  2.0239
   68MOL0     H 9379   4.515   3.719   1.844 -0.1326 -1.1684  2.2530
   68MOL0     H 9380   4.767   3.968   2.060  0.0686  1.8751 -0.1452
   68MOL0     H 9381   4.107   3.506   2.238  0.5852 -1.0222  0.9116
   68MOL0     H 9382   3.967   3.336   2.463  3.8597 -2.4775 -2.9504
   68MOL0     H 9383   3.816   3.310   2.368 -0.4122 -0.5718 -2.7552
   68MOL0     H 9384   3.987   3.306   2.304  0.9026 -0.2232  0.5820
   69MOL0     O 9385   9.244   1.565   3.869  0.3105  0.8581 -0.1136
   69MOL0     C 9386   9.299   1.604   3.970  0.0488  0.1521  0.2032
   69MOL0     O 9387   9.270   1.724   4.044  0.2544 -0.3644  0.2948
   69MOL0     C 9388   9.166   1.810   4.002  0.2832  0.5150 -0.9728
   69MOL0     C 9389   9.098   1.804   3.877  0.5503 -0.1347  0.1524
   69MOL0     C 9390   8.993   1.898   3.847 -0.1032  0.0991  0.7221
   69MOL0     C 9391   8.947   1.986   3.941  0.1568  0.1770  0.1272
   69MOL0     O 9392   8.837   2.065   3.929 -0.5078 -0.1253 -0.0024
   69MOL0     C 9393   8.760   2.056   3.812  0.4579 -0.4966  0.1814
   69MOL0     C 9394   8.639   2.153   3.828  0.2184 -1.0812  0.7096
   69MOL0     C 9395   8.575   2.203   3.695  0.2558 -0.4503  0.0017
   69MOL0     C 9396   8.452   2.296   3.725 -0.2769  0.1892  0.0282
   69MOL0     C 9397   8.398   2.375   3.603  0.2661  0.3621  0.0238
   69MOL0     C 9398   8.309   2.497   3.626  1.0425 -0.0849 -0.1803
   69MOL0     C 9399   8.175   2.442   3.667 -0.3411 -0.4072  0.0813
   69MOL0     C 9400   8.072   2.552   3.639 -0.2684  0.1447  0.1579
   69MOL0     N 9401   8.092   2.670   3.731 -0.4751 -0.6013 -0.3913
   69MOL0     C 9402   8.101   2.801   3.686  0.2284  0.0171  0.2177
   69MOL0     C 9403   8.096   2.885   3.789  0.1236  0.0046  0.2747
   69MOL0     C 9404   8.123   3.033   3.768  1.3654  0.2464 -0.0723
   69MOL0     C 9405   8.281   3.061   3.795  0.2429  0.2784 -0.2258
   69MOL0     C 9406   8.310   3.203   3.743  0.1237  0.5416  0.1505
   69MOL0     C 9407   8.447   3.241   3.791  0.1655  0.0054 -0.3147
   69MOL0     O 9408   8.548   3.179   3.720  0.0279 -0.0723 -0.0104
   69MOL0     C 9409   8.680   3.205   3.761  0.9582  0.8637 -0.6211
   69MOL0     C 9410   8.720   3.264   3.886  0.0734  0.1536 -0.1756
   69MOL0     C 9411   8.857   3.277   3.914 -0.3516 -0.3122 -0.5397
   69MOL0     C 9412   8.896   3.345   4.044  0.3419  0.5735 -0.1478
   69MOL0     C 9413   8.956   3.235   3.826  0.5183  0.4032  0.5712
   69MOL0     C 9414   9.098   3.237   3.852  0.3679 -0.3519 -0.2796
   69MOL0     O 9415   9.150   3.177   3.962  0.0402 -0.0836 -0.0640
   69MOL0     C 9416   9.283   3.195   3.989  0.7975  0.4889 -0.2215
   69MOL0     C 9417   9.391   3.123   3.924  0.9203  0.3046 -0.7027
   69MOL0     C 9418   9.519   3.139   3.964  0.2620 -0.7970 -0.2167
   69MOL0     C 9419   9.559   3.234   4.065  0.7172  0.6991  0.1567
   69MOL0     O 9420   9.689   3.239   4.111  0.1292 -0.4658  0.0203
   69MOL0     C 9421   9.763   3.122   4.104 -0.5412 -0.5403  0.0112
   69MOL0     C 9422   9.882   3.142   4.204  0.5542 -0.4226  0.3671
   69MOL0     C 9423   9.907   3.004   4.275  0.7255 -0.4156 -0.5922
   69MOL0     C 9424  10.022   2.997   4.367 -0.7069  0.0648  0.1465
   69MOL0     C 9425  10.162   3.010   4.297  0.1859 -0.7241  0.7110
   69MOL0     C 9426  10.274   3.043   4.390 -1.2523 -0.0570 -0.3128
   69MOL0     C 9427  10.277   3.189   4.427  0.6315 -0.1419  0.3102
   69MOL0     C 9428  10.345   3.272   4.314  0.5465 -0.1239 -0.6654
   69MOL0    Cl 9429  10.529   3.259   4.318  0.5034 -0.0604  0.3759
   69MOL0     C 9430   9.447   3.312   4.120  0.7769  0.0425  0.2901
   69MOL0     C 9431   9.312   3.289   4.083  0.1360 -0.0636  0.2196
   69MOL0     O 9432   9.153   3.309   3.774  0.5071 -0.2898 -0.3515
   69MOL0     C 9433   8.916   3.173   3.709 -0.1462 -0.0070 -0.2990
   69MOL0     C 9434   8.783   3.158   3.676 -0.1218  0.5385 -1.0170
   69MOL0     N 9435   8.078   2.798   3.902 -0.0773 -0.8490  0.7429
   69MOL0     N 9436   8.071   2.671   3.868 -0.7710 -0.0277 -0.1123
   69MOL0     C 9437   9.012   1.985   4.067  0.8669  0.0117  1.0960
   69MOL0     C 9438   9.121   1.903   4.098 -0.2201 -0.3244 -0.5538
   69MOL0     C 9439   9.404   1.509   4.025  0.0017  0.4548  0.8555
   69MOL0     C 9440   9.497   1.562   4.124  0.1204 -0.1362  0.0984
   69MOL0     C 9441   9.599   1.498   4.182  0.0533  0.1871 -0.7928
   69MOL0     C 9442   9.607   1.360   4.167 -0.1843  1.4387 -0.3159
   69MOL0     O 9443   9.698   1.284   4.234  0.7478  0.0430 -0.6403
   69MOL0     C 9444   9.653   1.154   4.280 -0.4405  0.2840 -0.8920
   69MOL0     C 9445   9.753   1.112   4.392 -0.2814 -0.5604  0.4454
   69MOL0     C 9446   9.884   1.068   4.323 -0.5377  0.7510  0.3697
   69MOL0     C 9447  10.002   1.173   4.335 -0.6310  1.0411  0.2842
   69MOL0     C 9448  10.123   1.123   4.266 -0.1752 -0.2727 -0.2821
   69MOL0     C 9449  10.227   1.091   4.216 -0.1722  0.3507 -0.4664
   69MOL0     C 9450   9.513   1.297   4.084  0.1025 -0.0484 -0.3025
   69MOL0     C 9451   9.411   1.364   4.010 -0.5587  0.0808  0.2377
   69MOL0     C 9452   9.338   1.288   3.907 -0.2176 -0.0043  0.6971
   69MOL0     H 9453   9.114   1.736   3.794  0.5749  3.4546 -3.0524
   69MOL0     H 9454   8.943   1.881   3.752  2.0964 -0.1878 -0.4544
   69MOL0     H 9455   8.713   1.960   3.789  0.2104 -0.4421  0.4531
   69MOL0     H 9456   8.817   2.077   3.721  1.1029  0.3008  0.7530
   69MOL0     H 9457   8.568   2.108   3.898 -0.6766 -0.2946  0.3290
   69MOL0     H 9458   8.676   2.240   3.885  2.0292 -1.7157  0.5635
   69MOL0     H 9459   8.651   2.252   3.633  1.0570 -0.7786  0.7040
   69MOL0     H 9460   8.533   2.109   3.658 -1.2369  1.3310 -3.1924
   69MOL0     H 9461   8.371   2.233   3.762  0.1072 -0.7206 -0.6272
   69MOL0     H 9462   8.487   2.361   3.806  5.3351 -2.2904  0.0872
   69MOL0     H 9463   8.354   2.297   3.541 -2.2082  1.4168  0.3448
   69MOL0     H 9464   8.487   2.413   3.551  1.8731 -2.5532  0.4276
   69MOL0     H 9465   8.349   2.566   3.701  1.0385  0.1543 -0.4007
   69MOL0     H 9466   8.303   2.555   3.534  0.4148  0.8687  0.4372
   69MOL0     H 9467   8.178   2.417   3.773 -0.4451  0.5111  0.3076
   69MOL0     H 9468   8.151   2.358   3.601  1.4698 -1.1141  0.2711
   69MOL0     H 9469   8.083   2.585   3.535 -0.6099  1.9195  0.6527
   69MOL0     H 9470   7.972   2.508   3.647 -1.3144  2.4830  0.7012
   69MOL0     H 9471   8.117   2.835   3.584  1.0278 -1.0515 -0.0287
   69MOL0     H 9472   8.074   3.087   3.850  2.8384  3.4326 -1.1055
   69MOL0     H 9473   8.083   3.071   3.674 -2.3123 -0.8282  0.8884
   69MOL0     H 9474   8.309   3.045   3.900 -2.7890 -4.2094  0.1563
   69MOL0     H 9475   8.346   2.988   3.746  1.1215  0.7565  0.2005
   69MOL0     H 9476   8.313   3.205   3.633  0.2362 -1.4703  0.0811
   69MOL0     H 9477   8.241   3.280   3.778  1.0751  0.8315  1.4482
   69MOL0     H 9478   8.456   3.349   3.785  0.7248  0.1347  1.9788
   69MOL0     H 9479   8.454   3.208   3.895  2.4396 -0.9413 -0.7200
   69MOL0     H 9480   8.647   3.283   3.964 -0.9925 -0.6766 -0.9431
   69MOL0     H 9481   8.875   3.450   4.022  2.7647  1.3021  0.6858
   69MOL0     H 9482   8.999   3.330   4.077 -0.2236 -0.1266  1.4309
   69MOL0     H 9483   8.826   3.307   4.119 -0.4440  0.5325 -0.8867
   69MOL0     H 9484   9.365   3.053   3.845 -1.9901  0.0461  0.3471
   69MOL0     H 9485   9.589   3.077   3.910 -0.5611 -0.4690 -1.7129
   69MOL0     H 9486   9.700   3.034   4.119 -2.0405  0.5879  0.5900
   69MOL0     H 9487   9.812   3.103   4.008 -0.6963 -3.3346  0.3916
   69MOL0     H 9488   9.975   3.173   4.154 -0.7585 -3.2627 -4.5481
   69MOL0     H 9489   9.857   3.214   4.282  1.1600 -0.0329  0.2041
   69MOL0     H 9490   9.902   2.919   4.206  1.2291  0.4400 -1.7284
   69MOL0     H 9491   9.820   2.985   4.339  1.7660  1.4826  1.5243
   69MOL0     H 9492  10.024   2.900   4.418  1.3554  0.0759  0.1892
   69MOL0     H 9493  10.013   3.076   4.441 -1.4161  0.4917 -0.3850
   69MOL0     H 9494  10.173   2.911   4.252 -1.7621  0.6912 -3.4765
   69MOL0     H 9495  10.162   3.074   4.208 -1.1006 -2.6627 -0.7761
   69MOL0     H 9496  10.371   3.021   4.344 -1.4999 -2.0414  0.0318
   69MOL0     H 9497  10.269   2.976   4.476 -1.5405  0.4279  0.0515
   69MOL0     H 9498  10.327   3.208   4.522  0.4029 -1.7828  0.7783
   69MOL0     H 9499  10.175   3.227   4.437  0.6338 -0.5317  2.1101
   69MOL0     H 9500  10.315   3.375   4.335  0.3099 -0.7021  2.1936
   69MOL0     H 9501  10.315   3.231   4.217  2.4781 -3.2524 -0.0658
   69MOL0     H 9502   9.472   3.381   4.199 -0.0550 -0.0445  0.6405
   69MOL0     H 9503   9.235   3.347   4.131  0.6954  1.2013 -0.3655
   69MOL0     H 9504   9.003   3.144   3.653 -2.1705 -1.7546 -2.7525
   69MOL0     H 9505   8.755   3.117   3.579  2.2358 -1.2557 -1.0278
   69MOL0     H 9506   8.966   2.048   4.143  0.9967 -0.0497  1.2254
   69MOL0     H 9507   9.172   1.917   4.193  0.2472 -3.5709 -0.2261
   69MOL0     H 9508   9.482   1.667   4.146  4.3083  0.3090  1.6077
   69MOL0     H 9509   9.670   1.548   4.247  1.3424 -1.8791 -0.5112
   69MOL0     H 9510   9.553   1.160   4.324 -0.6661  0.2889 -1.4011
   69MOL0     H 9511   9.649   1.081   4.198  1.3966  2.2964 -2.8970
   69MOL0     H 9512   9.722   1.029   4.455 -2.1970  1.1199  1.8745
   69MOL0     H 9513   9.778   1.198   4.455  5.7681 -1.0409 -0.6922
   69MOL0     H 9514   9.921   0.981   4.378  0.1743  2.9099  3.5701
   69MOL0     H 9515   9.874   1.053   4.215  3.0154 -0.5303  0.0746
   69MOL0     H 9516  10.028   1.202   4.437  0.0064 -2.7204  1.3572
   69MOL0     H 9517   9.970   1.268   4.293 -0.4183  0.5785 -0.9840
   69MOL0     H 9518  10.316   1.062   4.165 -1.2529 -0.6171 -1.8903
   69MOL0     H 9519   9.523   1.191   4.064 -1.6663  0.3743 -4.2262
   69MOL0     H 9520   9.336   1.182   3.933 -1.1009 -0.3576 -0.7091
   69MOL0     H 9521   9.235   1.324   3.901  0.4005  1.8807  0.5176
   69MOL0     H 9522   9.390   1.303   3.812  1.8746  0.8278  1.8886
   70MOL0     O 9523   9.306   7.828   2.117  0.0720 -0.1698 -0.5336
   70MOL0     C 9524   9.189   7.851   2.150  0.6366  0.1166 -0.4929
   70MOL0     O 9525   9.127   7.970   2.142 -0.1631 -1.0063  0.1011
   70MOL0     C 9526   9.199   8.091   2.104  0.3619 -0.4827  0.4395
   70MOL0     C 9527   9.199   8.200   2.185 -0.6061 -0.8155 -0.2597
   70MOL0     C 9528   9.252   8.325   2.145 -0.0080  0.2038  0.2193
   70MOL0     C 9529   9.299   8.334   2.010 -0.2704 -0.2691 -0.3975
   70MOL0     O 9530   9.340   8.455   1.962 -0.5369 -0.5237 -0.1283
   70MOL0     C 9531   9.457   8.453   1.872 -0.5050 -0.0608 -0.3407
   70MOL0     C 9532   9.501   8.598   1.851  0.0488  0.0413 -0.3377
   70MOL0     C 9533   9.624   8.599   1.758 -0.4858 -0.0914  0.5922
   70MOL0     C 9534   9.647   8.743   1.708  0.4374  0.5855  0.6442
   70MOL0     C 9535   9.770   8.767   1.614  0.1999 -0.3976 -0.8296
   70MOL0     C 9536   9.900   8.752   1.692  0.7216 -0.0053 -0.1279
   70MOL0     C 9537  10.023   8.815   1.629  0.4986 -0.7659 -0.4054
   70MOL0     C 9538  10.075   8.722   1.522 -0.2838 -1.0162 -0.4447
   70MOL0     N 9539  10.196   8.782   1.451 -0.2586  0.0846  0.4961
   70MOL0     C 9540  10.293   8.709   1.376  0.0989 -0.8742  0.3909
   70MOL0     C 9541  10.396   8.797   1.365 -0.5844  0.1768 -0.7888
   70MOL0     C 9542  10.529   8.774   1.288 -0.4645 -0.3893  0.3297
   70MOL0     C 9543  10.655   8.717   1.358  0.1725  0.1774  0.0835
   70MOL0     C 9544  10.661   8.559   1.366  0.7515 -0.7976 -0.7777
   70MOL0     C 9545  10.723   8.507   1.243 -0.7425 -0.8924 -0.1003
   70MOL0     O 9546  10.740   8.367   1.252 -0.4330  0.1373 -0.4315
   70MOL0     C 9547  10.824   8.308   1.159 -0.4998 -0.9664  0.1570
   70MOL0     C 9548  10.834   8.172   1.169  0.1635  0.9183 -0.2741
   70MOL0     C 9549  10.908   8.087   1.088 -0.1453  0.5174 -0.6088
   70MOL0     C 9550  10.916   7.935   1.116  0.2399  0.7428  0.3819
   70MOL0     C 9551  10.992   8.158   0.994  0.2111 -0.9360  0.5124
   70MOL0     C 9552  11.098   8.084   0.921  0.0581  0.2734  0.6882
   70MOL0     O 9553  11.069   7.953   0.887  0.1556 -0.1043 -0.9561
   70MOL0     C 9554  11.164   7.865   0.833 -0.1260 -0.4273 -0.7556
   70MOL0     C 9555  11.135   7.791   0.721  0.6160  0.5689 -0.3313
   70MOL0     C 9556  11.235   7.719   0.654  0.3779  0.2680  1.2807
   70MOL0     C 9557  11.358   7.703   0.721 -0.2787 -0.2557  0.6110
   70MOL0     O 9558  11.443   7.612   0.655  0.8428 -0.8275 -0.5040
   70MOL0     C 9559  11.579   7.613   0.693 -0.2755  0.1622  0.3792
   70MOL0     C 9560  11.651   7.511   0.599 -0.4640 -0.5695  0.7220
   70MOL0     C 9561  11.780   7.454   0.665 -0.4164 -0.2684  0.0732
   70MOL0     C 9562  11.770   7.353   0.776 -0.3721  0.5345 -0.1830
   70MOL0     C 9563  11.897   7.314   0.851 -0.1815 -0.0555 -0.8579
   70MOL0     C 9564  11.973   7.422   0.920  0.6073 -0.5959 -0.5614
   70MOL0     C 9565  12.092   7.356   0.993 -0.3851 -0.2882 -0.2074
   70MOL0     C 9566  12.195   7.456   1.061 -0.0923  0.2310 -0.2383
   70MOL0    Cl 9567  12.117   7.610   1.091 -0.5313 -0.1349 -0.0912
   70MOL0     C 9568  11.381   7.767   0.848  0.6306  1.8680 -0.1321
   70MOL0     C 9569  11.284   7.859   0.899  0.4536  0.7118  0.4347
   70MOL0     O 9570  11.204   8.144   0.894  0.8881  0.7781  0.3991
   70MOL0     C 9571  10.986   8.301   0.975 -0.2816 -0.3147 -0.6337
   70MOL0     C 9572  10.902   8.377   1.067 -0.9479  0.0530 -0.2059
   70MOL0     N 9573  10.369   8.917   1.433 -0.8552 -0.1299 -0.4005
   70MOL0     N 9574  10.254   8.903   1.483  1.0120  0.0460  0.1719
   70MOL0     C 9575   9.319   8.211   1.934  0.0340  0.3370 -0.4958
   70MOL0     C 9576   9.268   8.094   1.980 -0.2725  0.0520  0.2111
   70MOL0     C 9577   9.100   7.745   2.193 -0.0814 -0.1099  0.3101
   70MOL0     C 9578   9.098   7.635   2.110  0.2647 -0.4169 -1.1132
   70MOL0     C 9579   9.009   7.532   2.139  0.0669  0.0463 -0.8064
   70MOL0     C 9580   8.918   7.534   2.243 -0.0566 -0.2949 -0.1301
   70MOL0     O 9581   8.824   7.439   2.263 -0.2507 -0.0121 -0.3356
   70MOL0     C 9582   8.815   7.318   2.187 -0.0427 -0.3989 -0.5513
   70MOL0     C 9583   8.763   7.204   2.273  0.7008  0.1050  0.1634
   70MOL0     C 9584   8.609   7.213   2.291  0.2267  0.0303  0.2947
   70MOL0     C 9585   8.537   7.112   2.380 -0.0200  0.7218 -0.1453
   70MOL0     C 9586   8.387   7.140   2.374  0.6144 -0.0836  0.1599
   70MOL0     C 9587   8.265   7.164   2.387  0.9360  0.0822 -0.0029
   70MOL0     C 9588   8.923   7.643   2.328  0.0041  0.3223  0.3095
   70MOL0     C 9589   9.003   7.753   2.300  0.2096  0.1550  0.4308
   70MOL0     C 9590   8.995   7.869   2.397 -1.0626  0.4887 -0.6422
   70MOL0     H 9591   9.154   8.198   2.284 -0.8713  1.2985 -0.2811
   70MOL0     H 9592   9.248   8.424   2.190  2.6963  0.0361  0.9579
   70MOL0     H 9593   9.438   8.401   1.778 -1.2905 -1.3411  0.4872
   70MOL0     H 9594   9.539   8.399   1.921  0.1698  3.3586  2.6771
   70MOL0     H 9595   9.413   8.650   1.814 -0.8517 -0.4075  1.0786
   70MOL0     H 9596   9.526   8.629   1.953  0.5362 -1.5823  0.0692
   70MOL0     H 9597   9.709   8.581   1.824 -0.4979  0.1969  0.6896
   70MOL0     H 9598   9.616   8.528   1.675 -2.4793  1.5116 -0.6880
   70MOL0     H 9599   9.558   8.763   1.647  0.0622  0.8388  1.2740
   70MOL0     H 9600   9.653   8.801   1.800 -0.9034  2.0396 -0.1257
   70MOL0     H 9601   9.765   8.865   1.567  2.6211 -0.3761 -1.1357
   70MOL0     H 9602   9.767   8.692   1.535  0.9543  0.6113 -1.8523
   70MOL0     H 9603   9.886   8.800   1.789  0.8428 -1.3525  0.5754
   70MOL0     H 9604   9.903   8.644   1.709  0.6022  0.1116  0.6617
   70MOL0     H 9605  10.101   8.824   1.706 -1.1691  0.8950  1.1920
   70MOL0     H 9606  10.001   8.919   1.601  3.0516 -0.1763 -0.5072
   70MOL0     H 9607  10.101   8.622   1.559  0.5345 -0.5708  0.2353
   70MOL0     H 9608  10.000   8.714   1.444 -0.5856  0.7905 -0.3705
   70MOL0     H 9609  10.282   8.605   1.348 -1.6222 -1.8352  4.1387
   70MOL0     H 9610  10.561   8.869   1.244  0.4609 -0.2950  1.1704
   70MOL0     H 9611  10.502   8.709   1.205 -0.3899 -1.5271  1.1637
   70MOL0     H 9612  10.750   8.756   1.319  1.4115 -2.3209  0.4160
   70MOL0     H 9613  10.657   8.749   1.463  1.3660 -1.7925  0.7170
   70MOL0     H 9614  10.726   8.536   1.451 -0.4091  0.1026  0.4003
   70MOL0     H 9615  10.562   8.516   1.383  0.9253 -0.7040  0.5924
   70MOL0     H 9616  10.669   8.528   1.151  0.0240 -0.8046 -0.5355
   70MOL0     H 9617  10.821   8.555   1.233 -0.8456 -0.3115  1.3048
   70MOL0     H 9618  10.768   8.124   1.241  0.9243  0.9532  0.4637
   70MOL0     H 9619  10.892   7.882   1.023  3.4928  0.1145 -0.2088
   70MOL0     H 9620  10.842   7.918   1.195 -1.0033  1.2814 -0.6397
   70MOL0     H 9621  11.012   7.899   1.153 -0.2263  1.1342  2.0577
   70MOL0     H 9622  11.031   7.787   0.691  0.1854  3.3805  0.5467
   70MOL0     H 9623  11.207   7.661   0.566 -1.9986  1.1471  1.3786
   70MOL0     H 9624  11.612   7.717   0.692 -1.4310  0.5566  0.6852
   70MOL0     H 9625  11.584   7.568   0.792  2.3021  1.1909  0.7819
   70MOL0     H 9626  11.583   7.434   0.560 -0.5464 -0.3084  0.3376
   70MOL0     H 9627  11.682   7.559   0.506 -1.4801 -3.5250 -1.2849
   70MOL0     H 9628  11.829   7.544   0.703 -2.1244  0.6337  0.2399
   70MOL0     H 9629  11.851   7.415   0.591 -1.2959  3.2354 -2.9118
   70MOL0     H 9630  11.726   7.262   0.734  0.2144 -0.1431  0.6166
   70MOL0     H 9631  11.707   7.383   0.860  0.6310  0.3986  0.6376
   70MOL0     H 9632  11.876   7.236   0.925  1.5005 -1.1605 -1.4783
   70MOL0     H 9633  11.952   7.256   0.776 -0.3054 -0.4748 -0.6275
   70MOL0     H 9634  11.902   7.461   0.993  0.0548 -0.9575 -0.9004
   70MOL0     H 9635  12.002   7.501   0.851  0.8717 -0.1266  0.0735
   70MOL0     H 9636  12.147   7.287   0.928 -0.3938 -1.2256  0.7514
   70MOL0     H 9637  12.047   7.283   1.061  0.1779 -0.4585 -0.0149
   70MOL0     H 9638  12.277   7.471   0.990 -3.6943  2.5112 -4.4434
   70MOL0     H 9639  12.223   7.404   1.153  0.1991 -2.5604 -1.7993
   70MOL0     H 9640  11.469   7.743   0.907 -0.2475 -0.2957  0.4061
   70MOL0     H 9641  11.299   7.909   0.994 -2.2707  1.7307  0.4256
   70MOL0     H 9642  11.057   8.343   0.904  2.9245 -2.0677  1.2800
   70MOL0     H 9643  10.906   8.484   1.053 -0.9578 -0.0660 -1.1851
   70MOL0     H 9644   9.380   8.229   1.846  0.4477  3.4395  0.2789
   70MOL0     H 9645   9.280   8.007   1.916 -0.7223 -0.5306  0.9120
   70MOL0     H 9646   9.172   7.634   2.030  1.9152 -2.9615  0.3239
   70MOL0     H 9647   9.010   7.460   2.057  2.2564 -2.8649  1.5690
   70MOL0     H 9648   8.747   7.353   2.109  0.5321  1.4924 -0.2537
   70MOL0     H 9649   8.908   7.289   2.138 -0.2909  1.0498 -1.9406
   70MOL0     H 9650   8.809   7.198   2.372  0.0590  2.0894  0.6344
   70MOL0     H 9651   8.805   7.114   2.227  0.1862 -0.6262  1.0875
   70MOL0     H 9652   8.590   7.319   2.310  2.2346  1.0004 -2.4539
   70MOL0     H 9653   8.571   7.186   2.192 -0.3899 -1.6490  0.9401
   70MOL0     H 9654   8.575   7.128   2.481 -0.6587 -2.1891  0.6338
   70MOL0     H 9655   8.562   7.010   2.351  0.9449  1.7352 -3.2791
   70MOL0     H 9656   8.162   7.193   2.388  0.4355 -1.1973  4.3163
   70MOL0     H 9657   8.858   7.659   2.413  0.3727  1.6552  0.3752
   70MOL0     H 9658   9.089   7.924   2.410 -1.1950  0.3002  1.5029
   70MOL0     H 9659   8.923   7.942   2.359 -1.0012  0.9185  0.0394
   70MOL0     H 9660   8.967   7.847   2.501 -0.3184  0.1147 -0.5140
   71MOL0     O 9661  10.129   1.142   0.940 -0.1512  0.0087 -0.3065
   71MOL0     C 9662  10.114   1.226   0.851  0.3437  0.4132  0.7275
   71MOL0     O 9663  10.199   1.311   0.802  0.4365 -0.4775 -0.0417
   71MOL0     C 9664  10.335   1.288   0.826 -0.0391 -0.3876  0.2602
   71MOL0     C 9665  10.386   1.293   0.955  0.1388  0.3927 -0.2544
   71MOL0     C 9666  10.523   1.268   0.983  0.0351 -0.0411 -0.0116
   71MOL0     C 9667  10.610   1.231   0.876  0.2196 -0.1253  0.5476
   71MOL0     O 9668  10.742   1.210   0.906 -0.5449  0.6443 -0.0504
   71MOL0     C 9669  10.834   1.192   0.799  0.4612  0.3826 -0.1074
   71MOL0     C 9670  10.973   1.217   0.849 -0.5409 -0.0060  1.2710
   71MOL0     C 9671  11.059   1.268   0.730  0.6457  0.5569 -1.0645
   71MOL0     C 9672  11.195   1.272   0.798 -0.2243  0.0344  0.0370
   71MOL0     C 9673  11.301   1.299   0.697 -0.6099  0.8164  0.9136
   71MOL0     C 9674  11.446   1.281   0.754  0.4167 -0.1056 -0.6179
   71MOL0     C 9675  11.560   1.288   0.649  0.1391  0.4907  0.1739
   71MOL0     C 9676  11.565   1.418   0.575  0.5085 -0.2251  0.2904
   71MOL0     N 9677  11.693   1.456   0.515 -0.0402  0.2568 -0.3330
   71MOL0     C 9678  11.809   1.459   0.587 -0.4736  0.6503 -0.0759
   71MOL0     C 9679  11.885   1.538   0.510 -0.2879  0.0623  0.7645
   71MOL0     C 9680  12.027   1.582   0.533  0.8620 -0.1827 -0.1051
   71MOL0     C 9681  12.119   1.567   0.414 -0.4072  0.4716 -0.1892
   71MOL0     C 9682  12.166   1.415   0.393  0.2549  0.4393 -0.1245
   71MOL0     C 9683  12.269   1.410   0.284  0.5382 -0.3635  0.7936
   71MOL0     O 9684  12.388   1.481   0.320  0.1377 -0.4125 -0.2365
   71MOL0     C 9685  12.484   1.414   0.391 -0.3345 -0.2188 -0.7485
   71MOL0     C 9686  12.542   1.483   0.500  0.7388 -0.0682  0.0731
   71MOL0     C 9687  12.645   1.431   0.579 -0.3749  0.4701  0.7031
   71MOL0     C 9688  12.703   1.527   0.676 -0.3052  0.0349 -0.0863
   71MOL0     C 9689  12.685   1.294   0.558 -0.1546  0.9335 -0.5909
   71MOL0     C 9690  12.790   1.212   0.634  0.7404  0.0609  0.1936
   71MOL0     O 9691  12.851   1.273   0.736 -0.6788  0.9446  0.1836
   71MOL0     C 9692  12.959   1.209   0.794  0.1421  0.3279  0.4574
   71MOL0     C 9693  13.087   1.261   0.766  0.1711  0.0773 -0.7120
   71MOL0     C 9694  13.196   1.208   0.838  0.7918  0.2390  0.5642
   71MOL0     C 9695  13.186   1.094   0.910  0.0983  0.6091 -1.1714
   71MOL0     O 9696  13.303   1.044   0.973  0.1879 -0.2301 -0.1636
   71MOL0     C 9697  13.336   0.907   0.984 -0.1553 -0.8224 -0.0848
   71MOL0     C 9698  13.352   0.852   0.845  0.2881 -0.3437  0.3095
   71MOL0     C 9699  13.361   0.699   0.833 -0.1655  0.9936  0.1740
   71MOL0     C 9700  13.242   0.619   0.881  0.8837 -0.6851  0.6052
   71MOL0     C 9701  13.123   0.609   0.769 -0.2293 -0.2187 -1.0779
   71MOL0     C 9702  13.158   0.544   0.629  0.1292  0.4623 -0.2022
   71MOL0     C 9703  13.028   0.518   0.553  1.0390 -0.8171  0.4447
   71MOL0     C 9704  13.038   0.413   0.455 -0.2251  0.4873 -1.2796
   71MOL0    Cl 9705  13.015   0.248   0.530  0.0166 -0.2482  0.1236
   71MOL0     C 9706  13.062   1.038   0.936  0.3795  0.1349  0.2454
   71MOL0     C 9707  12.944   1.101   0.880  0.3007  0.0891  0.2920
   71MOL0     O 9708  12.809   1.097   0.592  0.3931 -0.5203  0.2394
   71MOL0     C 9709  12.622   1.226   0.460  1.0039  0.1806  0.2557
   71MOL0     C 9710  12.523   1.284   0.378  0.4463 -0.1135 -0.2237
   71MOL0     N 9711  11.825   1.561   0.389  0.3105 -0.3338 -0.5553
   71MOL0     N 9712  11.702   1.522   0.396 -0.0474  0.1938 -0.1172
   71MOL0     C 9713  10.558   1.219   0.748  0.5190 -0.0419  0.2123
   71MOL0     C 9714  10.418   1.250   0.722  1.2200  0.5194  0.7996
   71MOL0     C 9715   9.985   1.246   0.788  0.4372  0.0272 -0.2241
   71MOL0     C 9716   9.979   1.268   0.651 -0.6156  0.0889 -0.7227
   71MOL0     C 9717   9.863   1.299   0.583  0.1771  0.1259 -0.0206
   71MOL0     C 9718   9.744   1.293   0.656 -0.1348  0.8573  0.1111
   71MOL0     O 9719   9.635   1.312   0.576 -0.2613 -0.4835  0.9551
   71MOL0     C 9720   9.509   1.280   0.637 -0.2246 -0.6507 -0.2931
   71MOL0     C 9721   9.381   1.294   0.545 -0.2642 -0.4682  0.0752
   71MOL0     C 9722   9.248   1.264   0.617  0.0151  0.0974  1.0445
   71MOL0     C 9723   9.219   1.353   0.740  0.9937  1.2399  0.3970
   71MOL0     C 9724   9.181   1.492   0.697  0.2055 -0.9115  0.6221
   71MOL0     C 9725   9.149   1.612   0.656 -0.1040  0.1200 -0.1985
   71MOL0     C 9726   9.748   1.265   0.793 -0.6266 -0.1445  0.4122
   71MOL0     C 9727   9.865   1.247   0.863 -0.2920  1.0566  0.4505
   71MOL0     C 9728   9.858   1.221   0.998  0.0721  0.4939 -0.3581
   71MOL0     H 9729  10.324   1.324   1.039 -0.2739  2.0343 -1.1188
   71MOL0     H 9730  10.559   1.277   1.085 -0.8448 -0.9098  0.3914
   71MOL0     H 9731  10.818   1.254   0.710  1.0981 -0.3581 -0.7556
   71MOL0     H 9732  10.833   1.086   0.772  1.8956  0.0251  1.1121
   71MOL0     H 9733  10.963   1.285   0.935 -0.0728  1.2580  0.3565
   71MOL0     H 9734  11.004   1.118   0.882  0.1836 -0.5562 -0.9079
   71MOL0     H 9735  11.068   1.199   0.645  1.4732  0.4894 -0.9356
   71MOL0     H 9736  11.024   1.360   0.682 -2.4678 -0.2568 -0.5609
   71MOL0     H 9737  11.181   1.353   0.870 -2.0061 -1.8302  1.9465
   71MOL0     H 9738  11.211   1.176   0.849  1.9267  0.4402  0.2091
   71MOL0     H 9739  11.287   1.398   0.652  0.0848 -0.1797 -1.6765
   71MOL0     H 9740  11.302   1.234   0.609  0.5214  0.7495  0.9533
   71MOL0     H 9741  11.472   1.364   0.821  1.6139  0.4047 -1.6775
   71MOL0     H 9742  11.438   1.185   0.804 -3.1625  0.7053  0.6602
   71MOL0     H 9743  11.535   1.209   0.578 -0.4380 -0.4125  1.3506
   71MOL0     H 9744  11.658   1.265   0.692 -0.2254 -0.9138  0.2710
   71MOL0     H 9745  11.483   1.422   0.502  0.8318 -0.2563 -0.0805
   71MOL0     H 9746  11.548   1.490   0.655  0.0841  0.8705 -0.7432
   71MOL0     H 9747  11.839   1.412   0.680 -1.1250  2.8236  1.3037
   71MOL0     H 9748  12.059   1.521   0.618  3.9614  3.9928  2.0820
   71MOL0     H 9749  12.026   1.680   0.580 -4.0359 -1.5879  3.5723
   71MOL0     H 9750  12.056   1.593   0.328 -2.9866 -1.8481  0.8624
   71MOL0     H 9751  12.206   1.631   0.432  1.7872 -2.3593 -0.0103
   71MOL0     H 9752  12.206   1.372   0.486  1.6943  0.9938 -0.4615
   71MOL0     H 9753  12.074   1.359   0.375  0.9743 -0.8459  0.0076
   71MOL0     H 9754  12.295   1.308   0.254  0.9881 -0.0749  0.1721
   71MOL0     H 9755  12.232   1.463   0.195  1.7553  1.4542  1.3205
   71MOL0     H 9756  12.502   1.578   0.533  0.1589 -1.2149  2.9372
   71MOL0     H 9757  12.810   1.548   0.664  0.0060 -0.1312  2.1024
   71MOL0     H 9758  12.694   1.479   0.774  3.2136  0.6082  0.6531
   71MOL0     H 9759  12.651   1.623   0.675  0.9129  0.7899  2.4212
   71MOL0     H 9760  13.090   1.346   0.699 -4.0606  0.7982 -0.2625
   71MOL0     H 9761  13.298   1.245   0.833  0.7457  0.4377  0.9873
   71MOL0     H 9762  13.430   0.900   1.039  0.2012 -2.0615 -0.7979
   71MOL0     H 9763  13.266   0.850   1.045  0.5980 -0.5406  1.0731
   71MOL0     H 9764  13.273   0.893   0.783  0.8700 -1.8413 -1.5226
   71MOL0     H 9765  13.448   0.890   0.808  0.2530 -0.9398 -0.4143
   71MOL0     H 9766  13.452   0.665   0.884 -0.0995  0.6341 -0.1808
   71MOL0     H 9767  13.371   0.674   0.727 -1.7418 -0.6816  0.3666
   71MOL0     H 9768  13.222   0.661   0.980 -1.7558 -0.0581 -0.1148
   71MOL0     H 9769  13.256   0.512   0.901 -2.5346 -1.8424 -2.1897
   71MOL0     H 9770  13.039   0.553   0.813 -2.1268  0.3362 -3.7844
   71MOL0     H 9771  13.080   0.707   0.746  0.9932  0.2693 -1.3515
   71MOL0     H 9772  13.216   0.452   0.638 -1.4277 -0.4817  0.4795
   71MOL0     H 9773  13.226   0.613   0.577 -0.5315  2.3587  1.3447
   71MOL0     H 9774  13.005   0.612   0.502 -1.8215 -1.0617  1.1232
   71MOL0     H 9775  12.948   0.494   0.624  0.7751 -1.7319 -0.1522
   71MOL0     H 9776  13.129   0.424   0.396 -1.0216 -2.1312 -3.1853
   71MOL0     H 9777  12.952   0.427   0.388 -1.5440 -2.9705 -0.5448
   71MOL0     H 9778  13.061   0.946   0.994 -0.5855 -0.7224 -1.0678
   71MOL0     H 9779  12.840   1.077   0.898  0.0317  0.9992  0.0053
   71MOL0     H 9780  12.643   1.125   0.427 -3.0866 -1.1075  1.0774
   71MOL0     H 9781  12.477   1.225   0.300 -0.5162 -0.0987  0.3130
   71MOL0     H 9782  10.621   1.188   0.665 -0.3831 -0.7701 -0.2196
   71MOL0     H 9783  10.372   1.243   0.624  1.6097  1.2537  0.5595
   71MOL0     H 9784  10.074   1.248   0.603 -1.5970 -1.7506 -2.0280
   71MOL0     H 9785   9.862   1.297   0.474 -2.9154  0.6520 -0.0901
   71MOL0     H 9786   9.518   1.174   0.661 -0.6859 -1.0043 -1.6111
   71MOL0     H 9787   9.498   1.348   0.723  1.9892  0.2007 -0.6139
   71MOL0     H 9788   9.382   1.216   0.469 -0.9299 -1.1460  0.7364
   71MOL0     H 9789   9.378   1.389   0.491  1.8122  0.5569  1.6162
   71MOL0     H 9790   9.170   1.251   0.541  0.0715 -1.1528  1.1856
   71MOL0     H 9791   9.246   1.164   0.661  0.7189  0.2875  1.5164
   71MOL0     H 9792   9.298   1.345   0.815  2.4740 -2.3271 -1.2813
   71MOL0     H 9793   9.129   1.320   0.794  2.1664  0.3598  1.9029
   71MOL0     H 9794   9.115   1.709   0.626 -1.0031  0.3571  1.4624
   71MOL0     H 9795   9.652   1.254   0.843 -1.9980  0.8157 -1.8297
   71MOL0     H 9796   9.951   1.256   1.043  0.5915 -1.4897  0.2359
   71MOL0     H 9797   9.768   1.268   1.038  0.0368 -0.8995  1.3524
   71MOL0     H 9798   9.840   1.115   1.018 -1.3387  0.9684  1.1446
   72MOL0     O 9799  10.442   4.894   7.113  0.1309  0.2291 -0.1664
   72MOL0     C 9800  10.406   4.996   7.050 -0.5222 -0.2070  0.0739
   72MOL0     O 9801  10.490   5.085   6.982 -0.1802 -0.2291 -0.1339
   72MOL0     C 9802  10.624   5.044   6.950 -0.9609 -0.8805 -0.5218
   72MOL0     C 9803  10.739   5.101   6.999 -0.7497 -0.2475 -0.3566
   72MOL0     C 9804  10.863   5.047   6.965 -0.6564 -0.5808  0.0432
   72MOL0     C 9805  10.879   4.938   6.881  0.6050  0.1663  0.0914
   72MOL0     O 9806  11.008   4.891   6.868 -0.0850  0.7435  0.4131
   72MOL0     C 9807  11.003   4.755   6.826 -0.6925  0.7511  0.4267
   72MOL0     C 9808  11.133   4.681   6.855 -0.8147  0.2871 -0.4059
   72MOL0     C 9809  11.191   4.711   6.989 -0.4201 -0.6365  0.2953
   72MOL0     C 9810  11.332   4.650   7.009  0.7844 -0.2268 -0.2639
   72MOL0     C 9811  11.388   4.726   7.135  0.4262 -0.1441 -0.2588
   72MOL0     C 9812  11.517   4.672   7.178  0.2294  0.4723 -0.3254
   72MOL0     C 9813  11.597   4.763   7.281 -0.5982  0.3009 -0.5938
   72MOL0     C 9814  11.739   4.717   7.297 -0.4547  0.1310 -0.4076
   72MOL0     N 9815  11.804   4.823   7.378  0.4612  0.1551 -0.0591
   72MOL0     C 9816  11.911   4.900   7.350  0.2584  0.1961 -0.8831
   72MOL0     C 9817  11.927   4.980   7.462 -0.3270  0.5442 -0.4658
   72MOL0     C 9818  12.018   5.092   7.485 -0.3531 -0.4724 -0.9504
   72MOL0     C 9819  12.164   5.076   7.435 -0.4774  0.8488  0.2647
   72MOL0     C 9820  12.251   4.985   7.521  0.2257  0.2571  0.1265
   72MOL0     C 9821  12.384   4.977   7.457 -0.4484 -0.8165  0.1333
   72MOL0     O 9822  12.380   4.891   7.340 -0.6151  0.0752  0.4138
   72MOL0     C 9823  12.492   4.844   7.279  0.0223 -0.5114 -0.8320
   72MOL0     C 9824  12.485   4.775   7.161  0.4057 -0.8976  0.5040
   72MOL0     C 9825  12.606   4.729   7.106 -0.1169 -0.1506  0.5839
   72MOL0     C 9826  12.583   4.665   6.974 -0.9122  0.1246  0.3991
   72MOL0     C 9827  12.735   4.746   7.179 -0.6018  0.1086  1.5833
   72MOL0     C 9828  12.870   4.698   7.128 -0.3583 -0.0706  1.1623
   72MOL0     O 9829  12.980   4.704   7.213  0.2273  0.7629 -0.0315
   72MOL0     C 9830  13.090   4.631   7.183  0.5116 -0.4362  0.3612
   72MOL0     C 9831  13.094   4.495   7.187 -0.2107 -0.4738 -0.3571
   72MOL0     C 9832  13.212   4.418   7.162 -0.2303  1.6613  0.8817
   72MOL0     C 9833  13.331   4.493   7.127  0.0886 -0.1115  0.0820
   72MOL0     O 9834  13.448   4.425   7.087  0.4381 -0.5520  0.6140
   72MOL0     C 9835  13.556   4.497   7.033 -0.5431  0.4918  0.5466
   72MOL0     C 9836  13.638   4.392   6.968  0.5816  0.2608 -0.4131
   72MOL0     C 9837  13.770   4.453   6.910 -0.1462 -0.0436 -0.1214
   72MOL0     C 9838  13.750   4.532   6.781  0.3431  0.2715 -0.2716
   72MOL0     C 9839  13.871   4.607   6.732 -0.7101  0.0062 -0.5120
   72MOL0     C 9840  13.970   4.508   6.658 -0.1378 -0.5921 -0.7537
   72MOL0     C 9841  14.090   4.468   6.752 -1.1987  0.0081 -0.1829
   72MOL0     C 9842  14.162   4.347   6.692 -0.0792 -0.8222 -0.5473
   72MOL0    Cl 9843  14.250   4.379   6.543 -0.5302 -0.2871  0.5624
   72MOL0     C 9844  13.322   4.628   7.124  0.5878  0.0318 -0.2407
   72MOL0     C 9845  13.207   4.702   7.147 -0.3970 -0.4339 -0.1644
   72MOL0     O 9846  12.863   4.630   7.024 -0.4192 -0.4637  0.0974
   72MOL0     C 9847  12.736   4.808   7.302  0.1991 -0.0735  0.7673
   72MOL0     C 9848  12.620   4.865   7.340  0.8500  0.6898 -0.5738
   72MOL0     N 9849  11.828   4.951   7.550  0.1779 -0.4375  0.4442
   72MOL0     N 9850  11.767   4.846   7.506  0.5057  0.7138  0.4004
   72MOL0     C 9851  10.754   4.876   6.838  0.5580  0.9703 -0.0090
   72MOL0     C 9852  10.636   4.937   6.867 -0.7986 -0.1651 -0.1220
   72MOL0     C 9853  10.258   5.006   7.031 -0.3624  0.2398 -0.2307
   72MOL0     C 9854  10.208   5.119   6.955  0.3497 -0.3033 -0.5981
   72MOL0     C 9855  10.068   5.142   6.933 -0.3125  0.1735 -0.1760
   72MOL0     C 9856   9.980   5.048   6.979  0.2519  0.4506 -0.2545
   72MOL0     O 9857   9.849   5.049   6.951  0.5989  0.5075 -0.3665
   72MOL0     C 9858   9.790   5.164   6.891  0.9192 -0.0875 -0.0962
   72MOL0     C 9859   9.639   5.135   6.877 -0.9370 -0.8642 -0.1270
   72MOL0     C 9860   9.597   4.996   6.818  0.2956  0.2167 -0.4911
   72MOL0     C 9861   9.580   4.987   6.666 -0.3524 -0.3148 -0.6761
   72MOL0     C 9862   9.514   4.869   6.619  0.5683  0.5581  0.0865
   72MOL0     C 9863   9.455   4.778   6.559 -0.1451  0.5073 -1.4038
   72MOL0     C 9864  10.026   4.941   7.047 -0.2525  0.2080 -1.3962
   72MOL0     C 9865  10.162   4.915   7.087 -0.7175  0.3922 -0.1392
   72MOL0     C 9866  10.181   4.792   7.167  0.2530  0.0248  0.3064
   72MOL0     H 9867  10.732   5.188   7.064  2.4683 -1.9764  2.6447
   72MOL0     H 9868  10.945   5.089   7.023  0.0998 -3.7097  1.4877
   72MOL0     H 9869  10.996   4.733   6.719  0.1364  1.8273  0.1282
   72MOL0     H 9870  10.922   4.703   6.879 -1.1860  2.0679  1.0229
   72MOL0     H 9871  11.114   4.574   6.854  1.1527 -0.0976 -0.9738
   72MOL0     H 9872  11.203   4.702   6.773  0.3045 -0.2171  0.3935
   72MOL0     H 9873  11.192   4.818   7.012  2.1556 -1.0470  2.7155
   72MOL0     H 9874  11.114   4.680   7.060 -0.4320 -1.2820  0.0063
   72MOL0     H 9875  11.330   4.541   7.015 -3.3204 -0.4143 -1.6006
   72MOL0     H 9876  11.391   4.678   6.921 -0.9671 -0.3197 -1.5226
   72MOL0     H 9877  11.316   4.710   7.217  0.5222 -1.1130 -0.3583
   72MOL0     H 9878  11.403   4.832   7.112 -0.8690 -0.0683 -0.8328
   72MOL0     H 9879  11.506   4.573   7.221  0.9171 -0.2420 -1.7303
   72MOL0     H 9880  11.577   4.665   7.087  1.2281 -2.3820  0.4626
   72MOL0     H 9881  11.536   4.768   7.372  0.5028  1.0470  0.1312
   72MOL0     H 9882  11.602   4.866   7.246  0.3895  0.2234 -0.7080
   72MOL0     H 9883  11.753   4.620   7.346  1.0137 -0.6753 -2.2855
   72MOL0     H 9884  11.784   4.697   7.199 -0.3593 -3.0295  0.1518
   72MOL0     H 9885  11.972   4.919   7.263  0.7465  2.8895 -0.0439
   72MOL0     H 9886  12.016   5.115   7.592 -1.4872  1.7539 -1.3848
   72MOL0     H 9887  11.980   5.185   7.440 -1.2764  0.0491  0.8255
   72MOL0     H 9888  12.149   5.030   7.337  0.3772  1.7318 -0.3009
   72MOL0     H 9889  12.215   5.171   7.414  1.9906 -0.7748 -1.5866
   72MOL0     H 9890  12.255   5.022   7.624 -3.0235  0.1081  0.3954
   72MOL0     H 9891  12.203   4.887   7.522  1.8539 -0.6119 -0.9863
   72MOL0     H 9892  12.412   5.078   7.428 -0.0118 -0.4441  1.7292
   72MOL0     H 9893  12.464   4.942   7.523  1.0026 -2.1281 -2.1737
   72MOL0     H 9894  12.384   4.766   7.121 -0.5119 -1.0576  2.6711
   72MOL0     H 9895  12.482   4.671   6.931 -1.4796 -0.9852  1.5095
   72MOL0     H 9896  12.614   4.560   6.978 -1.5168 -0.2536 -2.4917
   72MOL0     H 9897  12.642   4.706   6.892 -2.5152 -1.4216 -1.6451
   72MOL0     H 9898  12.997   4.453   7.213  0.7531 -1.3080  2.2530
   72MOL0     H 9899  13.215   4.310   7.153 -1.8057  1.4815  1.9453
   72MOL0     H 9900  13.535   4.569   6.954  0.3656 -0.6161 -0.7517
   72MOL0     H 9901  13.617   4.542   7.112  1.0601 -2.7082  1.2999
   72MOL0     H 9902  13.666   4.317   7.042  1.2099 -1.6633 -2.4696
   72MOL0     H 9903  13.573   4.349   6.891 -0.0762  0.3993  0.0595
   72MOL0     H 9904  13.845   4.374   6.894  3.9942  3.4989 -0.1031
   72MOL0     H 9905  13.812   4.523   6.983  0.8443  2.0329 -2.5242
   72MOL0     H 9906  13.677   4.612   6.799  0.7904  1.3078 -2.6536
   72MOL0     H 9907  13.712   4.469   6.701  2.3010 -2.4955  0.8136
   72MOL0     H 9908  13.839   4.685   6.662  0.3131  0.1074 -0.8938
   72MOL0     H 9909  13.917   4.658   6.818 -2.0701 -1.8702  1.4148
   72MOL0     H 9910  14.007   4.555   6.567 -3.3446 -0.2188 -2.0054
   72MOL0     H 9911  13.908   4.427   6.618 -2.8869  1.2532 -0.4731
   72MOL0     H 9912  14.034   4.453   6.844  0.2176  0.4139  0.7689
   72MOL0     H 9913  14.159   4.552   6.766 -0.3245 -0.5989 -0.7209
   72MOL0     H 9914  14.088   4.267   6.682 -1.5163  0.1652  1.3907
   72MOL0     H 9915  14.244   4.315   6.757 -0.7867 -3.2311 -0.7457
   72MOL0     H 9916  13.413   4.674   7.086  1.8071 -2.1640 -0.1693
   72MOL0     H 9917  13.192   4.807   7.126 -1.9658 -0.8414 -1.2385
   72MOL0     H 9918  12.829   4.825   7.355  0.9415  0.7198 -0.7383
   72MOL0     H 9919  12.637   4.921   7.432 -2.0445 -0.2182  0.6301
   72MOL0     H 9920  10.753   4.783   6.783 -0.2680  0.2309  1.2139
   72MOL0     H 9921  10.547   4.887   6.829 -0.9714  2.2521 -3.2300
   72MOL0     H 9922  10.275   5.191   6.909  1.9147 -0.9067  0.6312
   72MOL0     H 9923  10.042   5.230   6.873 -0.5402  0.9425  1.0163
   72MOL0     H 9924   9.807   5.254   6.950 -1.0423  0.5197 -0.3906
   72MOL0     H 9925   9.835   5.183   6.793  2.0743 -1.9210  0.0158
   72MOL0     H 9926   9.615   5.209   6.800  1.8051 -0.0912 -0.3457
   72MOL0     H 9927   9.585   5.144   6.972 -0.0574 -1.9406  0.4917
   72MOL0     H 9928   9.666   4.920   6.856 -1.7391 -0.4129  2.3280
   72MOL0     H 9929   9.497   4.976   6.858  0.0730  1.5349 -0.3514
   72MOL0     H 9930   9.682   4.998   6.627 -0.3870 -0.6599 -0.8749
   72MOL0     H 9931   9.510   5.067   6.641 -1.3915 -0.3072  1.9387
   72MOL0     H 9932   9.402   4.697   6.513 -1.9383  0.5893  0.3678
   72MOL0     H 9933   9.949   4.875   7.085  1.3082 -0.2109  1.3235
   72MOL0     H 9934  10.093   4.762   7.225 -0.3730 -2.1225 -1.6083
   72MOL0     H 9935  10.202   4.706   7.104  3.5725 -0.0532  1.3577
   72MOL0     H 9936  10.257   4.800   7.245 -0.9454 -1.0194  1.6269
   73MOL0     O 9937   8.090   4.598  10.361  0.1085 -0.0501  0.3278
   73MOL0     C 9938   8.046   4.640  10.258  0.8002 -0.4164 -0.2876
   73MOL0     O 9939   8.118   4.676  10.153 -0.1335 -0.4874 -0.2472
   73MOL0     C 9940   8.254   4.678  10.149 -0.0600 -0.6294  0.2602
   73MOL0     C 9941   8.304   4.802  10.112  0.9210  0.1876  0.0346
   73MOL0     C 9942   8.441   4.821  10.096  0.1466  1.1332 -1.5247
   73MOL0     C 9943   8.525   4.714  10.129  0.5855  0.0534 -0.5725
   73MOL0     O 9944   8.661   4.725  10.121 -0.1378 -0.4493  0.0085
   73MOL0     C 9945   8.728   4.852  10.124 -0.8338 -1.0252 -0.6453
   73MOL0     C 9946   8.875   4.824  10.144 -0.1072  0.4113 -0.3269
   73MOL0     C 9947   8.971   4.937  10.097  0.1425 -0.1750 -0.0749
   73MOL0     C 9948   9.118   4.894  10.103 -0.3157 -0.2263 -0.2329
   73MOL0     C 9949   9.211   5.013  10.062  0.3068 -0.0738  0.2360
   73MOL0     C 9950   9.216   5.109  10.185  0.0671 -0.7623 -0.0269
   73MOL0     C 9951   9.314   5.227  10.176  0.2151 -0.3931 -0.1799
   73MOL0     C 9952   9.267   5.347  10.085 -0.2726 -0.5970 -0.4609
   73MOL0     N 9953   9.374   5.445  10.073  0.0276  0.2382 -0.5417
   73MOL0     C 9954   9.393   5.551  10.147  0.0079  0.0726  0.2219
   73MOL0     C 9955   9.516   5.603  10.108 -0.0063 -0.4677  0.0563
   73MOL0     C 9956   9.594   5.730  10.135 -0.1472  0.2094 -0.3527
   73MOL0     C 9957   9.685   5.725  10.261  0.4590 -0.8316  0.1275
   73MOL0     C 9958   9.796   5.633  10.229 -0.7873 -0.1228  0.1690
   73MOL0     C 9959   9.905   5.646  10.336  0.3166  0.2096 -0.6588
   73MOL0     O 9960   9.958   5.782  10.356 -0.7887 -0.6676  0.2591
   73MOL0     C 9961  10.070   5.791  10.447  0.9667  0.7347 -0.3401
   73MOL0     C 9962  10.116   5.917  10.465  0.1488  0.0312 -0.1422
   73MOL0     C 9963  10.220   5.952  10.553 -1.1508  1.1013  0.1040
   73MOL0     C 9964  10.243   6.097  10.595  0.5003  0.7171  0.8957
   73MOL0     C 9965  10.298   5.847  10.608  0.1147 -0.2458 -0.4649
   73MOL0     C 9966  10.422   5.869  10.692 -0.3658 -0.7265 -0.0010
   73MOL0     O 9967  10.459   5.755  10.754 -0.7563 -0.3545 -0.0638
   73MOL0     C 9968  10.564   5.757  10.843 -0.1514 -0.6218  0.1985
   73MOL0     C 9969  10.638   5.643  10.833 -0.7390 -0.7102  1.5353
   73MOL0     C 9970  10.762   5.629  10.902  0.6318 -0.0097 -0.3481
   73MOL0     C 9971  10.792   5.723  10.996  0.4807 -0.9303 -0.0657
   73MOL0     O 9972  10.893   5.704  11.083  0.3838 -0.7917  0.6112
   73MOL0     C 9973  11.002   5.801  11.085  0.2110  0.6345  0.5267
   73MOL0     C 9974  11.093   5.782  10.960 -0.5846 -0.4270  0.3732
   73MOL0     C 9975  11.235   5.832  10.969  0.4467 -0.1216  0.1580
   73MOL0     C 9976  11.239   5.969  11.038  0.1660 -0.4757 -1.0428
   73MOL0     C 9977  11.380   6.031  11.007 -0.4449  0.3149 -0.2055
   73MOL0     C 9978  11.420   6.155  11.091 -0.2252 -0.3281 -0.9513
   73MOL0     C 9979  11.320   6.273  11.091 -1.1253  0.0934  0.1337
   73MOL0     C 9980  11.381   6.392  11.159 -0.6134 -1.2482 -0.2343
   73MOL0    Cl 9981  11.397   6.364  11.332  0.0918 -0.5266 -0.4666
   73MOL0     C 9982  10.709   5.842  11.009 -0.1264  0.1376  1.0749
   73MOL0     C 9983  10.598   5.857  10.935  0.3629 -0.6126  1.0981
   73MOL0     O 9984  10.492   5.971  10.690  0.2548 -0.5285 -0.4650
   73MOL0     C 9985  10.240   5.720  10.605  0.4139 -0.0276  0.6102
   73MOL0     C 9986  10.124   5.692  10.539 -0.0170  0.0218  0.5358
   73MOL0     N 9987   9.564   5.529  10.007  0.2356  0.4696 -0.4113
   73MOL0     N 9988   9.487   5.424   9.994 -0.8763 -0.3545  0.4869
   73MOL0     C 9989   8.474   4.590  10.165  0.6255 -0.0581  0.3700
   73MOL0     C 9990   8.339   4.573  10.179  0.5195  0.7590 -0.0537
   73MOL0     C 9991   7.901   4.679  10.252 -0.2509  0.0718 -0.2745
   73MOL0     C 9992   7.816   4.599  10.331 -0.4691  0.2323  0.1699
   73MOL0     C 9993   7.681   4.603  10.309 -0.1068  0.4549 -0.1245
   73MOL0     C 9994   7.627   4.694  10.221 -0.1944 -0.4164 -0.3428
   73MOL0     O 9995   7.496   4.681  10.202  0.2924  0.3988  0.6322
   73MOL0     C 9996   7.437   4.745  10.081 -0.4348 -0.5977  0.3331
   73MOL0     C 9997   7.319   4.662  10.036  0.2415 -0.9058  0.6377
   73MOL0     C 9998   7.228   4.734   9.940 -0.9204  1.4680  0.0915
   73MOL0     C 9999   7.250   4.684   9.795 -0.1157  0.2924 -0.3961
   73MOL0     C10000   7.374   4.722   9.723 -0.1299  0.1011 -0.6913
   73MOL0     C10001   7.481   4.756   9.679  0.3181 -0.3106  0.6667
   73MOL0     C10002   7.710   4.787  10.154  0.3865  0.0307 -0.2096
   73MOL0     C10003   7.850   4.774  10.167 -0.4293  0.1107  0.3084
   73MOL0     C10004   7.930   4.863  10.073 -0.3215 -0.2127 -0.3584
   73MOL0     H10005   8.238   4.888  10.101  1.1894  0.8771  2.9581
   73MOL0     H10006   8.490   4.914  10.068 -0.3153  1.6023 -0.8350
   73MOL0     H10007   8.685   4.921  10.197  1.2098 -0.9190  0.5645
   73MOL0     H10008   8.729   4.898  10.025  1.7617 -1.9566 -1.1500
   73MOL0     H10009   8.892   4.789  10.246 -0.3504 -0.7361 -0.6694
   73MOL0     H10010   8.906   4.740  10.082 -2.7809 -0.6770 -0.2914
   73MOL0     H10011   8.941   4.976   9.999 -0.0010 -1.8386 -0.7259
   73MOL0     H10012   8.961   5.017  10.171 -2.6742  1.1426 -1.7142
   73MOL0     H10013   9.157   4.854  10.197  1.3627 -1.0267 -1.2298
   73MOL0     H10014   9.146   4.823  10.024 -0.1095  0.1561 -0.5051
   73MOL0     H10015   9.179   5.061   9.969 -2.2573 -1.0652  0.5409
   73MOL0     H10016   9.316   4.987  10.045  0.9158  0.1427  3.1746
   73MOL0     H10017   9.114   5.146  10.196 -0.6328 -0.3617 -5.2573
   73MOL0     H10018   9.238   5.041  10.269 -2.2171 -3.2251 -1.2540
   73MOL0     H10019   9.408   5.188  10.136  0.2701  0.8699 -1.3733
   73MOL0     H10020   9.336   5.247  10.281  0.7296 -4.5714  0.6813
   73MOL0     H10021   9.227   5.316   9.988  0.3272 -2.2127 -0.2220
   73MOL0     H10022   9.189   5.398  10.143 -0.2063  0.5015 -1.3156
   73MOL0     H10023   9.315   5.582  10.215 -0.2662 -1.5347  0.6691
   73MOL0     H10024   9.523   5.812  10.147 -0.8475 -0.0744 -2.1896
   73MOL0     H10025   9.659   5.761  10.052  0.4708 -1.5760 -0.5819
   73MOL0     H10026   9.714   5.830  10.269 -0.5927 -0.4867 -0.4393
   73MOL0     H10027   9.638   5.703  10.357  0.4153  3.6736  1.3686
   73MOL0     H10028   9.772   5.527  10.235  3.1953 -1.1729  0.5973
   73MOL0     H10029   9.839   5.643  10.129  0.6578  0.3881  0.8024
   73MOL0     H10030   9.864   5.621  10.434  0.5725  0.8340 -0.3837
   73MOL0     H10031   9.986   5.581  10.303  1.6533  0.6864  1.5356
   73MOL0     H10032  10.056   5.991  10.413  1.2218  0.8421 -0.2484
   73MOL0     H10033  10.245   6.099  10.705  2.1567  2.2290  0.8964
   73MOL0     H10034  10.170   6.165  10.552  0.8178 -1.0641 -2.8390
   73MOL0     H10035  10.345   6.124  10.567  1.1440 -1.6119  0.7554
   73MOL0     H10036  10.609   5.563  10.766  1.5735 -0.8230  0.5860
   73MOL0     H10037  10.812   5.533  10.890 -1.2738 -1.1389  0.4008
   73MOL0     H10038  10.966   5.904  11.083 -0.7300  0.4738 -4.1864
   73MOL0     H10039  11.064   5.774  11.170  0.1396  0.0603  0.4010
   73MOL0     H10040  11.097   5.680  10.920  2.7361 -0.0638 -0.5643
   73MOL0     H10041  11.041   5.832  10.878 -1.0645  0.5385  1.2495
   73MOL0     H10042  11.283   5.844  10.871  0.0269 -0.5627 -0.1061
   73MOL0     H10043  11.295   5.768  11.034  1.5039 -0.8019 -1.4230
   73MOL0     H10044  11.223   5.976  11.146  2.1489 -2.2045 -0.5720
   73MOL0     H10045  11.165   6.036  10.993  0.4941 -0.2931 -1.3140
   73MOL0     H10046  11.461   5.962  11.035  0.3267  1.7606  1.3166
   73MOL0     H10047  11.380   6.053  10.900  1.0225  2.0826  0.1127
   73MOL0     H10048  11.510   6.205  11.053 -2.4101  3.7704 -1.3286
   73MOL0     H10049  11.434   6.102  11.185 -3.8170 -3.9186 -2.1928
   73MOL0     H10050  11.227   6.235  11.134 -0.7334  0.6637  1.5178
   73MOL0     H10051  11.306   6.290  10.984  0.0745  0.1729 -0.0302
   73MOL0     H10052  11.328   6.485  11.135  2.0122 -0.1964 -2.4447
   73MOL0     H10053  11.485   6.397  11.126 -0.5788  1.4130 -0.0169
   73MOL0     H10054  10.726   5.908  11.094  2.0044  1.1980 -0.1071
   73MOL0     H10055  10.547   5.952  10.948  0.8657  0.2203 -2.1539
   73MOL0     H10056  10.298   5.642  10.653  1.7191 -0.5850 -1.7148
   73MOL0     H10057  10.086   5.591  10.548  3.1450 -1.3965 -0.6085
   73MOL0     H10058   8.540   4.506  10.182  1.7776  0.9960  1.2902
   73MOL0     H10059   8.292   4.484  10.218  1.2310  0.2452 -0.3447
   73MOL0     H10060   7.854   4.513  10.384 -0.2359 -0.4260 -1.0308
   73MOL0     H10061   7.616   4.525  10.348  2.6144 -1.1757  1.4206
   73MOL0     H10062   7.405   4.846  10.109 -1.6994 -0.4269 -1.5490
   73MOL0     H10063   7.505   4.745   9.995  0.8461 -3.7550  1.2251
   73MOL0     H10064   7.258   4.636  10.123 -1.9465 -1.6603 -1.0286
   73MOL0     H10065   7.348   4.562  10.001 -0.3938 -0.7715 -0.3320
   73MOL0     H10066   7.125   4.713   9.968 -0.4867 -2.8078 -0.8526
   73MOL0     H10067   7.251   4.841   9.950 -0.9267  1.3291  1.9199
   73MOL0     H10068   7.172   4.731   9.735  2.0951  2.2106 -1.9683
   73MOL0     H10069   7.235   4.576   9.790 -1.4243  0.4877 -1.0967
   73MOL0     H10070   7.573   4.788   9.634  0.5481 -1.9755 -0.1221
   73MOL0     H10071   7.660   4.854  10.086 -0.3555  0.5404  0.8182
   73MOL0     H10072   7.982   4.940  10.131 -2.3738  2.3590 -1.7222
   73MOL0     H10073   8.007   4.809  10.018  1.8128  0.9777  1.2790
   73MOL0     H10074   7.865   4.919  10.006 -1.2863 -0.3946  0.3923
   74MOL0     O10075   7.378   0.683   4.593  0.3440  0.0623  0.3032
   74MOL0     C10076   7.406   0.618   4.699  0.5068 -0.0500 -0.5019
   74MOL0     O10077   7.526   0.564   4.726  0.2454 -0.3280 -0.3175
   74MOL0     C10078   7.637   0.597   4.656 -0.1212  0.5497 -0.0689
   74MOL0     C10079   7.728   0.495   4.653 -0.5891  0.2834  0.0804
   74MOL0     C10080   7.840   0.507   4.587 -0.5706 -0.2828 -0.4441
   74MOL0     C10081   7.867   0.626   4.516  0.4246 -0.4165  0.7222
   74MOL0     O10082   7.994   0.633   4.458  0.0981 -0.2102  0.2047
   74MOL0     C10083   8.005   0.704   4.336  0.9844  0.3143 -0.3713
   74MOL0     C10084   8.041   0.603   4.219 -0.4632  0.1167 -0.3144
   74MOL0     C10085   8.152   0.497   4.244  0.0803  0.9280 -0.4149
   74MOL0     C10086   8.272   0.562   4.306 -0.1043 -0.3333 -0.3973
   74MOL0     C10087   8.382   0.463   4.336 -0.0586  0.2361  0.1689
   74MOL0     C10088   8.488   0.516   4.431  0.6807 -0.5228 -0.8930
   74MOL0     C10089   8.577   0.399   4.462 -0.0450 -0.5514  0.1892
   74MOL0     C10090   8.696   0.452   4.547  0.2364 -0.3938  0.5683
   74MOL0     N10091   8.782   0.559   4.492  0.4131 -0.1356  0.3713
   74MOL0     C10092   8.905   0.546   4.429 -0.5356 -0.4030 -0.2131
   74MOL0     C10093   8.940   0.674   4.402  0.0832  0.4064  0.3022
   74MOL0     C10094   9.052   0.710   4.316  0.2846  0.1765 -0.2593
   74MOL0     C10095   9.173   0.681   4.397 -1.1450 -0.9679 -0.2119
   74MOL0     C10096   9.298   0.726   4.328 -0.5907 -0.0872  0.3995
   74MOL0     C10097   9.414   0.701   4.429 -0.2303 -0.4487  0.6810
   74MOL0     O10098   9.524   0.769   4.372  0.0529  0.0916  0.5692
   74MOL0     C10099   9.649   0.722   4.398  0.2050  0.2050 -0.4631
   74MOL0     C10100   9.753   0.746   4.310  0.0826 -0.4770 -0.0137
   74MOL0     C10101   9.879   0.692   4.333  0.5066  0.0511  0.2228
   74MOL0     C10102   9.983   0.714   4.228 -0.1654  0.1689 -0.1076
   74MOL0     C10103   9.908   0.613   4.438  0.8360  0.5747 -0.6957
   74MOL0     C10104  10.041   0.569   4.475 -0.2746  0.7688  0.8323
   74MOL0     O10105  10.114   0.667   4.539 -0.5836  0.3572 -0.3912
   74MOL0     C10106  10.230   0.625   4.594 -0.4435  0.6226 -0.0768
   74MOL0     C10107  10.352   0.685   4.554  0.9389 -0.4289 -0.3658
   74MOL0     C10108  10.476   0.651   4.613  0.5867 -0.0093 -0.3605
   74MOL0     C10109  10.473   0.542   4.704 -0.5761 -0.7083 -0.7784
   74MOL0     O10110  10.581   0.477   4.762 -0.3523 -0.0780  0.3666
   74MOL0     C10111  10.704   0.494   4.702 -0.3354  0.4576  0.4701
   74MOL0     C10112  10.779   0.603   4.777  0.2995 -0.0242  0.0213
   74MOL0     C10113  10.816   0.574   4.924  0.5531  0.0403 -0.0290
   74MOL0     C10114  10.952   0.517   4.954  0.4520 -0.4678  0.2808
   74MOL0     C10115  11.028   0.442   4.840  0.3912 -0.4319 -0.6154
   74MOL0     C10116  11.168   0.387   4.887  0.1735  0.7406  0.8029
   74MOL0     C10117  11.283   0.490   4.888 -0.0646 -0.1398  0.5810
   74MOL0     C10118  11.420   0.432   4.924  0.7405  0.1697  0.8079
   74MOL0    Cl10119  11.413   0.339   5.069 -0.1425  0.0744 -0.2628
   74MOL0     C10120  10.355   0.486   4.743  0.4585  0.3359  0.0235
   74MOL0     C10121  10.236   0.531   4.700  0.3078  0.6748 -0.2482
   74MOL0     O10122  10.081   0.456   4.435 -1.2299 -0.1870 -0.0958
   74MOL0     C10123   9.799   0.581   4.522 -0.3138 -0.2814 -0.2292
   74MOL0     C10124   9.675   0.628   4.503  0.8537  0.0566  1.3623
   74MOL0     N10125   8.838   0.763   4.445 -0.0344  0.2071  0.7255
   74MOL0     N10126   8.746   0.688   4.495 -0.3649  0.2509  0.1788
   74MOL0     C10127   7.777   0.729   4.521 -0.5077 -0.2772  0.1684
   74MOL0     C10128   7.658   0.716   4.591 -1.1278  0.1496  0.3111
   74MOL0     C10129   7.311   0.609   4.815 -0.7631  0.2948  0.4977
   74MOL0     C10130   7.353   0.547   4.932  0.1793  0.3415  0.1650
   74MOL0     C10131   7.269   0.527   5.044  0.9533 -0.0476  0.9333
   74MOL0     C10132   7.132   0.563   5.041 -0.0006 -0.6358 -0.2987
   74MOL0     O10133   7.058   0.507   5.147 -0.8017  0.7849  0.1125
   74MOL0     C10134   6.915   0.528   5.150 -0.4569 -0.9327  0.2193
   74MOL0     C10135   6.873   0.494   5.295 -0.3409  0.4631 -0.5268
   74MOL0     C10136   6.725   0.476   5.299 -0.3701 -0.6221 -0.1990
   74MOL0     C10137   6.666   0.358   5.230 -0.5326  0.0255 -0.5812
   74MOL0     C10138   6.738   0.233   5.254 -1.0819  0.2076 -0.4794
   74MOL0     C10139   6.794   0.126   5.289  0.8877  0.0924 -0.3226
   74MOL0     C10140   7.086   0.626   4.922  0.2434  0.2870  0.3856
   74MOL0     C10141   7.181   0.657   4.815  0.1197  0.5912 -0.1386
   74MOL0     C10142   7.109   0.716   4.692 -0.0478 -0.7812  0.4908
   74MOL0     H10143   7.700   0.403   4.702 -0.7930  0.1653 -0.2501
   74MOL0     H10144   7.925   0.440   4.586  0.8714  1.4667 -2.0987
   74MOL0     H10145   8.087   0.774   4.355  1.3367 -0.5923  1.7724
   74MOL0     H10146   7.915   0.756   4.306  0.1055 -0.4583  0.8133
   74MOL0     H10147   7.948   0.551   4.194 -0.4259 -1.5408  2.5864
   74MOL0     H10148   8.068   0.658   4.128 -0.6149  1.1958  0.2670
   74MOL0     H10149   8.103   0.423   4.309  1.0724 -0.8486 -1.6086
   74MOL0     H10150   8.187   0.441   4.156  1.5829  2.4436 -0.8230
   74MOL0     H10151   8.308   0.637   4.235 -0.5524  0.1194 -0.1575
   74MOL0     H10152   8.229   0.600   4.400  2.0480  0.8151  0.1801
   74MOL0     H10153   8.430   0.443   4.240 -0.1995 -0.6512  0.2739
   74MOL0     H10154   8.342   0.371   4.381  0.4135  0.6934  1.5802
   74MOL0     H10155   8.540   0.590   4.369 -1.9928  1.4348 -0.9560
   74MOL0     H10156   8.442   0.568   4.516 -1.1863  0.3653 -2.3871
   74MOL0     H10157   8.622   0.360   4.370 -1.3481  1.0647 -1.1794
   74MOL0     H10158   8.527   0.319   4.517 -1.7507 -0.2129 -0.7924
   74MOL0     H10159   8.642   0.497   4.632 -3.1522 -0.1409 -1.5204
   74MOL0     H10160   8.758   0.370   4.585 -1.2499 -0.7194  2.4549
   74MOL0     H10161   8.958   0.454   4.407 -0.7338 -0.5047 -0.2714
   74MOL0     H10162   9.041   0.810   4.272 -4.1506 -0.2075 -0.4712
   74MOL0     H10163   9.052   0.650   4.225 -2.8211  0.2446 -0.3972
   74MOL0     H10164   9.163   0.744   4.486  1.5531  0.9795 -1.1323
   74MOL0     H10165   9.184   0.577   4.427  0.9785 -0.3016  1.6052
   74MOL0     H10166   9.311   0.662   4.241  2.2124  0.4726  0.3161
   74MOL0     H10167   9.294   0.833   4.306  1.4581 -0.1350 -0.3494
   74MOL0     H10168   9.400   0.744   4.529 -0.6946  0.5308  0.2047
   74MOL0     H10169   9.423   0.592   4.439 -1.5039 -0.8970 -2.1825
   74MOL0     H10170   9.745   0.812   4.224  0.5703  0.8044  0.8883
   74MOL0     H10171   9.942   0.759   4.137  0.1348  0.3006 -0.1788
   74MOL0     H10172  10.026   0.619   4.194 -1.0983 -0.2200 -0.2404
   74MOL0     H10173  10.061   0.781   4.264 -0.2879  1.8407 -2.7453
   74MOL0     H10174  10.360   0.761   4.476 -0.8598  1.1940  0.9254
   74MOL0     H10175  10.566   0.696   4.573 -0.3972 -0.3692 -3.3034
   74MOL0     H10176  10.757   0.399   4.716 -0.7854  0.0008 -0.7802
   74MOL0     H10177  10.698   0.508   4.594  0.7364  0.0227  0.3446
   74MOL0     H10178  10.873   0.624   4.725  1.4768  0.1228  2.1113
   74MOL0     H10179  10.727   0.700   4.783 -2.1648 -1.2815  0.0835
   74MOL0     H10180  10.743   0.507   4.970  1.0436 -0.3361  0.2098
   74MOL0     H10181  10.814   0.665   4.985  0.7752 -0.2315  0.3887
   74MOL0     H10182  10.950   0.467   5.051 -1.3606 -0.8619  0.0920
   74MOL0     H10183  11.009   0.610   4.959 -1.0339  0.6600 -1.9566
   74MOL0     H10184  10.966   0.352   4.831  0.0519 -0.0080 -3.2392
   74MOL0     H10185  11.038   0.489   4.742  2.7668  1.2460  0.3296
   74MOL0     H10186  11.199   0.310   4.816 -3.8652 -1.8597  1.4906
   74MOL0     H10187  11.153   0.340   4.985 -0.5999  1.9986  1.3077
   74MOL0     H10188  11.260   0.568   4.961 -0.0875 -0.4233  0.8773
   74MOL0     H10189  11.299   0.541   4.792  0.8554 -0.7597  0.3884
   74MOL0     H10190  11.481   0.517   4.956  0.3765  0.0822  1.7516
   74MOL0     H10191  11.467   0.381   4.839 -1.7841 -2.1327  0.6423
   74MOL0     H10192  10.354   0.414   4.825  2.9714 -0.2618 -0.4024
   74MOL0     H10193  10.143   0.489   4.737 -0.0423  2.0752  0.5688
   74MOL0     H10194   9.829   0.523   4.609  3.0818 -0.8976 -1.6347
   74MOL0     H10195   9.604   0.593   4.578 -2.2084 -1.5356 -1.9747
   74MOL0     H10196   7.798   0.829   4.484  2.0186 -0.7192  0.2389
   74MOL0     H10197   7.586   0.797   4.581 -1.4752 -0.0431  1.1774
   74MOL0     H10198   7.454   0.509   4.933  0.1096  0.0421 -1.5512
   74MOL0     H10199   7.313   0.478   5.130 -0.6237  0.3970  2.0361
   74MOL0     H10200   6.900   0.633   5.124 -0.9556 -0.5481  1.9507
   74MOL0     H10201   6.871   0.460   5.076  0.0758 -0.7645 -0.2548
   74MOL0     H10202   6.896   0.578   5.361 -1.8127  0.3646  0.1570
   74MOL0     H10203   6.934   0.413   5.336 -0.9684  0.5922  0.7326
   74MOL0     H10204   6.688   0.467   5.402  0.7294 -0.1586  0.2536
   74MOL0     H10205   6.678   0.559   5.246  0.0489 -0.8003 -0.8586
   74MOL0     H10206   6.670   0.369   5.121 -0.2544 -0.4765 -0.6268
   74MOL0     H10207   6.560   0.343   5.255 -0.4976 -3.2747 -1.8150
   74MOL0     H10208   6.834   0.031   5.315 -2.6909 -2.0178 -1.7929
   74MOL0     H10209   6.984   0.658   4.906  0.3310  0.2932 -0.1973
   74MOL0     H10210   7.087   0.634   4.622  1.8750 -1.3175  0.4609
   74MOL0     H10211   7.015   0.761   4.724  1.3477  0.3931  3.3140
   74MOL0     H10212   7.163   0.798   4.642 -1.2023 -0.5488 -0.4288
   75MOL0     O10213   9.480   0.487   5.726 -0.8729 -0.0072 -0.3752
   75MOL0     C10214   9.431   0.377   5.700  0.7655 -0.6887  0.6072
   75MOL0     O10215   9.507   0.259   5.722  1.0504 -0.1040  0.5119
   75MOL0     C10216   9.639   0.261   5.760 -0.5135 -0.0510 -0.3025
   75MOL0     C10217   9.701   0.357   5.841  0.2143 -0.2659  0.3052
   75MOL0     C10218   9.840   0.355   5.869 -0.3086  0.3959 -0.0278
   75MOL0     C10219   9.922   0.252   5.814  0.0503  0.1270  0.8290
   75MOL0     O10220  10.059   0.238   5.822  0.4804  0.5737  0.4488
   75MOL0     C10221  10.123   0.310   5.928 -0.4035  0.1619  0.0205
   75MOL0     C10222  10.280   0.288   5.904 -0.0776  0.8597 -0.2272
   75MOL0     C10223  10.315   0.144   5.949 -0.2904 -1.0776  0.4906
   75MOL0     C10224  10.472   0.127   5.923 -0.5633 -0.0851 -0.4998
   75MOL0     C10225  10.516  -0.026   5.934  0.3310 -0.3744  0.8087
   75MOL0     C10226  10.665  -0.027   5.968  0.4813  0.5967  0.3153
   75MOL0     C10227  10.730  -0.161   5.930  0.8598  0.2317 -0.5057
   75MOL0     C10228  10.729  -0.177   5.777  0.3777 -0.4797  0.7927
   75MOL0     N10229  10.798  -0.304   5.742 -0.7342  0.2896 -0.4770
   75MOL0     C10230  10.926  -0.334   5.772  0.4738 -0.2535  0.0420
   75MOL0     C10231  10.950  -0.468   5.745 -0.4914  0.0205 -1.2166
   75MOL0     C10232  11.073  -0.549   5.770 -0.3876  0.3863  0.2160
   75MOL0     C10233  11.192  -0.463   5.795  0.6581 -0.0907 -1.1175
   75MOL0     C10234  11.313  -0.554   5.813 -0.2664  0.9646 -0.5601
   75MOL0     C10235  11.428  -0.472   5.866  0.5094  0.6977  0.0973
   75MOL0     O10236  11.414  -0.430   6.008 -0.0037 -0.9639  0.6361
   75MOL0     C10237  11.517  -0.366   6.071  0.0368 -0.4661 -0.1552
   75MOL0     C10238  11.642  -0.338   6.013  0.0504 -0.0632  0.5691
   75MOL0     C10239  11.742  -0.261   6.076  0.1316  0.6911 -0.2994
   75MOL0     C10240  11.872  -0.234   6.001 -0.7294  0.2055 -0.1920
   75MOL0     C10241  11.727  -0.216   6.210  0.1976  0.3385 -0.6359
   75MOL0     C10242  11.827  -0.126   6.285  0.6600  0.5041  0.3279
   75MOL0     O10243  11.962  -0.133   6.253  0.5643 -0.3166 -0.4880
   75MOL0     C10244  12.057  -0.113   6.350  0.0517  0.5854 -0.1702
   75MOL0     C10245  12.060  -0.010   6.445 -0.5841  0.1558  0.8527
   75MOL0     C10246  12.153  -0.014   6.546 -0.4192 -0.5135 -0.5313
   75MOL0     C10247  12.251  -0.117   6.559  0.2273 -0.5424  0.4943
   75MOL0     O10248  12.341  -0.139   6.659  0.4132  0.3842 -0.0204
   75MOL0     C10249  12.478  -0.176   6.622  0.0092  0.6245  0.0262
   75MOL0     C10250  12.569  -0.117   6.724  0.2019  0.0379  0.7263
   75MOL0     C10251  12.700  -0.185   6.740  0.0507 -0.6827 -0.5056
   75MOL0     C10252  12.783  -0.148   6.865 -0.2418  0.3932  0.3107
   75MOL0     C10253  12.799   0.003   6.887  1.6185 -0.1390 -0.0954
   75MOL0     C10254  12.859   0.065   6.761 -0.9958 -0.1228  0.2589
   75MOL0     C10255  12.874   0.217   6.772 -0.1514  0.5588  0.0194
   75MOL0     C10256  12.938   0.272   6.638 -0.0542 -0.2231 -0.6098
   75MOL0    Cl10257  13.119   0.230   6.635 -0.0113 -0.0421 -0.0188
   75MOL0     C10258  12.249  -0.208   6.454  0.1823 -0.3325 -0.7794
   75MOL0     C10259  12.161  -0.206   6.351 -0.0669  0.5593 -0.3515
   75MOL0     O10260  11.784  -0.072   6.383  0.3955 -0.6067  0.0281
   75MOL0     C10261  11.600  -0.241   6.270  0.4746 -0.4119  0.6731
   75MOL0     C10262  11.496  -0.312   6.196  0.1284  0.6773 -0.5906
   75MOL0     N10263  10.828  -0.514   5.692  0.1378  0.0369  0.0159
   75MOL0     N10264  10.748  -0.419   5.693 -0.0476 -0.1260 -0.1629
   75MOL0     C10265   9.860   0.158   5.732  0.4223 -0.4083  0.3206
   75MOL0     C10266   9.724   0.164   5.700  0.3907 -0.4574  0.0424
   75MOL0     C10267   9.285   0.356   5.677 -0.3672  0.3282 -0.4876
   75MOL0     C10268   9.250   0.242   5.604  0.1644  0.0727 -0.0438
   75MOL0     C10269   9.113   0.222   5.589 -0.2697  0.1941 -0.1152
   75MOL0     C10270   9.010   0.314   5.617 -0.6783 -0.1371 -0.4228
   75MOL0     O10271   8.883   0.272   5.581  0.1288 -0.0112 -0.8482
   75MOL0     C10272   8.769   0.359   5.587  0.4348 -0.4550  0.2033
   75MOL0     C10273   8.652   0.288   5.523  0.3712  0.2378  0.8315
   75MOL0     C10274   8.688   0.229   5.379  0.4650 -0.2353 -0.0774
   75MOL0     C10275   8.559   0.202   5.300 -0.3619 -0.1245 -0.1314
   75MOL0     C10276   8.584   0.126   5.179 -0.1655  0.3853 -0.1586
   75MOL0     C10277   8.592   0.056   5.077  0.2769 -0.1297  0.0294
   75MOL0     C10278   9.050   0.431   5.684  0.3248 -0.2434 -0.5818
   75MOL0     C10279   9.181   0.455   5.711 -1.1071 -0.3205 -0.7653
   75MOL0     C10280   9.208   0.582   5.794  0.7604  0.5872  0.3180
   75MOL0     H10281   9.643   0.435   5.888  1.0284  1.1948 -1.0113
   75MOL0     H10282   9.882   0.436   5.928 -1.2242  0.6707  0.2548
   75MOL0     H10283  10.099   0.271   6.027 -0.4915 -0.4806 -0.2485
   75MOL0     H10284  10.100   0.417   5.919  1.3036  0.5234 -0.4967
   75MOL0     H10285  10.299   0.304   5.797 -0.8374  0.1720 -0.4736
   75MOL0     H10286  10.332   0.368   5.957  0.5433  2.1976 -2.6914
   75MOL0     H10287  10.289   0.112   6.050 -1.5109 -2.7406 -0.2982
   75MOL0     H10288  10.268   0.066   5.889  2.1692 -1.7764 -0.6613
   75MOL0     H10289  10.499   0.161   5.822  0.1266  0.0259 -0.2806
   75MOL0     H10290  10.520   0.195   5.994 -1.2275 -0.8542  0.6989
   75MOL0     H10291  10.492  -0.069   5.836  1.7053  0.4559  0.0741
   75MOL0     H10292  10.454  -0.080   6.006 -2.7557 -0.4301 -1.6454
   75MOL0     H10293  10.719   0.053   5.917 -0.3950  1.5586  0.8678
   75MOL0     H10294  10.675  -0.007   6.075 -0.6236  2.0079  0.1804
   75MOL0     H10295  10.685  -0.243   5.985  1.7935  0.2018  0.2320
   75MOL0     H10296  10.830  -0.155   5.973  0.7366 -2.0624  0.1937
   75MOL0     H10297  10.623  -0.180   5.748  0.7343 -1.8728 -0.4907
   75MOL0     H10298  10.779  -0.099   5.720  0.9257 -0.7095  0.9551
   75MOL0     H10299  11.002  -0.265   5.809 -0.9179  0.2776  2.0786
   75MOL0     H10300  11.091  -0.609   5.680 -1.1734  3.2811 -2.0129
   75MOL0     H10301  11.060  -0.624   5.849 -2.1456  1.8966  1.4289
   75MOL0     H10302  11.212  -0.383   5.723  1.5667  2.1929  1.4811
   75MOL0     H10303  11.182  -0.402   5.885  2.0995 -0.7281 -0.4961
   75MOL0     H10304  11.295  -0.650   5.863  0.1201  0.1171 -1.9740
   75MOL0     H10305  11.339  -0.582   5.710  2.2329  3.8875 -0.8582
   75MOL0     H10306  11.512  -0.541   5.853 -1.0211 -0.9462 -1.6044
   75MOL0     H10307  11.446  -0.386   5.802 -0.1659  1.1745  0.5355
   75MOL0     H10308  11.669  -0.375   5.915  1.1393 -1.6110  1.4196
   75MOL0     H10309  11.855  -0.269   5.898 -0.9168 -1.2587  0.3135
   75MOL0     H10310  11.949  -0.295   6.048 -0.8707  0.4701  0.3959
   75MOL0     H10311  11.890  -0.126   6.007 -0.8822  0.2191  0.0124
   75MOL0     H10312  11.981   0.064   6.433  1.1420  1.6259 -2.7574
   75MOL0     H10313  12.154   0.058   6.627 -0.0489  0.2363 -1.1823
   75MOL0     H10314  12.492  -0.284   6.628  1.7132  0.8858  1.5206
   75MOL0     H10315  12.507  -0.143   6.522 -1.9347  3.1043  0.1862
   75MOL0     H10316  12.585  -0.009   6.709  2.5650 -0.4930 -1.2531
   75MOL0     H10317  12.525  -0.117   6.824  0.9459 -0.5184  1.0608
   75MOL0     H10318  12.767  -0.169   6.654  2.2320  0.5178  1.3020
   75MOL0     H10319  12.669  -0.290   6.742 -0.9477 -0.3823  0.1547
   75MOL0     H10320  12.884  -0.191   6.868 -0.2676  0.3863  1.3733
   75MOL0     H10321  12.743  -0.187   6.959 -1.1394  0.2205 -0.1280
   75MOL0     H10322  12.706   0.053   6.916  1.2046 -0.4810 -0.8202
   75MOL0     H10323  12.853   0.015   6.982  0.3745  0.0175  0.6223
   75MOL0     H10324  12.811   0.046   6.665  1.4408  3.2149 -1.8058
   75MOL0     H10325  12.959   0.023   6.750 -0.7385  0.7749 -0.9605
   75MOL0     H10326  12.944   0.239   6.853 -2.2094  1.6487  1.5903
   75MOL0     H10327  12.788   0.280   6.796 -0.1178  1.0550 -1.0863
   75MOL0     H10328  12.933   0.381   6.627 -3.0461 -0.4577 -2.9708
   75MOL0     H10329  12.885   0.229   6.552 -0.1734  1.6931 -1.5392
   75MOL0     H10330  12.323  -0.287   6.450  0.1075 -0.6539  2.2791
   75MOL0     H10331  12.168  -0.270   6.264 -1.2053 -1.5774  1.0353
   75MOL0     H10332  11.587  -0.195   6.368  0.3945  2.2042 -0.4907
   75MOL0     H10333  11.396  -0.324   6.237  0.2778 -0.9606 -0.6563
   75MOL0     H10334   9.914   0.079   5.682  1.8303  0.0840  0.9952
   75MOL0     H10335   9.675   0.104   5.624  0.5520  3.7587 -3.8848
   75MOL0     H10336   9.310   0.159   5.567 -0.3605 -0.4365  0.2265
   75MOL0     H10337   9.073   0.130   5.549 -0.9748  1.4344 -2.4206
   75MOL0     H10338   8.751   0.389   5.690  0.7489  1.0243 -0.1515
   75MOL0     H10339   8.798   0.447   5.529 -0.7705  0.6310  1.2051
   75MOL0     H10340   8.571   0.361   5.513  0.1237 -0.3660 -3.1570
   75MOL0     H10341   8.608   0.209   5.584  2.5306 -0.6408  1.3384
   75MOL0     H10342   8.755   0.299   5.327 -1.7368  1.7756 -0.4155
   75MOL0     H10343   8.739   0.134   5.392  0.7785  0.0420  0.8267
   75MOL0     H10344   8.505   0.288   5.260 -0.7795 -0.9535 -1.4419
   75MOL0     H10345   8.487   0.143   5.359 -0.8121  0.2435 -0.3054
   75MOL0     H10346   8.590   0.020   4.976 -0.7730 -1.6408  0.5604
   75MOL0     H10347   8.981   0.507   5.718  1.2780 -0.0882  1.1488
   75MOL0     H10348   9.227   0.550   5.897  1.2532 -0.8831 -0.2064
   75MOL0     H10349   9.292   0.641   5.758 -0.1156  0.5395 -1.9480
   75MOL0     H10350   9.118   0.644   5.802  0.9008  0.8105  0.1414
   76MOL0     O10351   2.028   5.555   3.700  0.0315 -0.6486  0.2651
   76MOL0     C10352   1.925   5.603   3.740  0.0323 -0.1382 -0.7093
   76MOL0     O10353   1.921   5.699   3.831  0.3144  0.3345  0.7302
   76MOL0     C10354   2.023   5.793   3.854  0.0235  0.0098 -0.3092
   76MOL0     C10355   2.132   5.774   3.939  0.3163  0.2216 -0.0617
   76MOL0     C10356   2.222   5.881   3.961 -0.3526 -0.1029  0.3559
   76MOL0     C10357   2.195   6.008   3.916 -0.3938 -1.0840  0.3822
   76MOL0     O10358   2.289   6.109   3.954 -0.0969  0.3180  0.6855
   76MOL0     C10359   2.256   6.252   3.957  0.1890 -0.0714 -0.9592
   76MOL0     C10360   2.370   6.346   3.978 -0.3483 -0.0026 -0.3471
   76MOL0     C10361   2.479   6.344   3.867 -0.4105 -0.3788 -0.0365
   76MOL0     C10362   2.596   6.263   3.907 -0.6965 -0.3597 -0.1561
   76MOL0     C10363   2.700   6.222   3.802 -0.2223 -0.2776 -0.1394
   76MOL0     C10364   2.788   6.104   3.845 -0.0871 -0.3582  0.1224
   76MOL0     C10365   2.880   6.139   3.963  0.2615  0.8930 -0.5807
   76MOL0     C10366   2.973   6.021   3.997 -0.0394 -0.4127 -0.1477
   76MOL0     N10367   3.048   6.054   4.111 -1.1186 -0.6281 -0.2301
   76MOL0     C10368   3.148   6.145   4.106  0.1603 -0.0902 -0.1977
   76MOL0     C10369   3.188   6.159   4.236  0.3524 -0.2528 -1.0642
   76MOL0     C10370   3.283   6.264   4.273  0.4598 -0.4435 -0.2890
   76MOL0     C10371   3.417   6.217   4.225 -0.8262  0.6540  0.3629
   76MOL0     C10372   3.525   6.307   4.267 -0.2644  1.3323 -0.6002
   76MOL0     C10373   3.535   6.425   4.168 -0.6685 -1.1742 -0.0438
   76MOL0     O10374   3.641   6.521   4.197 -0.2126 -0.2255  0.0832
   76MOL0     C10375   3.628   6.651   4.140 -0.6174 -0.1602 -0.0875
   76MOL0     C10376   3.534   6.681   4.043  0.5679  0.8824  1.1142
   76MOL0     C10377   3.519   6.817   3.993 -0.0738 -0.4879 -0.1226
   76MOL0     C10378   3.396   6.840   3.913  0.0154  0.1906 -0.9076
   76MOL0     C10379   3.610   6.913   4.027 -0.4633  0.2106  0.1339
   76MOL0     C10380   3.611   7.055   3.985  0.6546  0.1446  0.2862
   76MOL0     O10381   3.706   7.136   4.045 -0.6656 -0.2698  0.2040
   76MOL0     C10382   3.737   7.262   4.005  0.1843 -0.2276 -0.1595
   76MOL0     C10383   3.656   7.360   3.949 -0.3295  0.4965 -0.7832
   76MOL0     C10384   3.707   7.481   3.902 -0.2827 -0.4298 -0.1343
   76MOL0     C10385   3.846   7.507   3.903  0.4199 -0.2654  0.3895
   76MOL0     O10386   3.893   7.623   3.843  0.0978  0.2082 -0.0560
   76MOL0     C10387   4.032   7.650   3.851  0.2480 -0.5980  0.4942
   76MOL0     C10388   4.059   7.794   3.792 -0.6865  0.5608 -0.3192
   76MOL0     C10389   4.214   7.819   3.791 -0.2467  0.3797 -0.6338
   76MOL0     C10390   4.238   7.966   3.797  0.1967 -0.3925 -0.1425
   76MOL0     C10391   4.388   8.009   3.797  0.2602 -0.3052 -0.8049
   76MOL0     C10392   4.408   8.158   3.823 -0.0659 -0.4173  0.4315
   76MOL0     C10393   4.555   8.188   3.841 -0.2964  0.5270  0.1699
   76MOL0     C10394   4.589   8.334   3.857 -0.2495  0.6218  0.4619
   76MOL0    Cl10395   4.766   8.356   3.901  0.3079  0.0251  0.0335
   76MOL0     C10396   3.928   7.413   3.966  0.3713 -0.2098  0.0772
   76MOL0     C10397   3.875   7.293   4.018  0.4791 -0.2335 -0.6435
   76MOL0     O10398   3.523   7.093   3.906 -0.4557  0.4047  0.2984
   76MOL0     C10399   3.708   6.873   4.119 -0.2775  0.6526  0.4839
   76MOL0     C10400   3.717   6.747   4.174 -0.0538 -0.4147 -0.3109
   76MOL0     N10401   3.111   6.078   4.314  0.3589 -0.0096 -0.0259
   76MOL0     N10402   3.019   6.022   4.244  0.6600  0.0298  0.0269
   76MOL0     C10403   2.089   6.022   3.829 -0.4637 -0.2487 -0.0993
   76MOL0     C10404   2.004   5.915   3.795 -0.2420 -0.1291  0.1450
   76MOL0     C10405   1.791   5.545   3.696  0.8321  0.1519 -0.4062
   76MOL0     C10406   1.687   5.519   3.792  0.2718 -0.3402 -0.9857
   76MOL0     C10407   1.567   5.454   3.763 -0.2461  0.2340 -0.4661
   76MOL0     C10408   1.537   5.423   3.632  0.0838  0.1889  0.1958
   76MOL0     O10409   1.405   5.387   3.608  0.1992 -0.0789  0.6007
   76MOL0     C10410   1.363   5.248   3.621  0.6560 -0.1225 -0.3266
   76MOL0     C10411   1.437   5.141   3.543 -0.1315 -0.8404 -0.5033
   76MOL0     C10412   1.406   5.008   3.589 -0.1917 -0.2358  0.0395
   76MOL0     C10413   1.518   4.908   3.552  0.5297  0.8751  0.1011
   76MOL0     C10414   1.508   4.777   3.627  0.1083 -0.4365  0.4170
   76MOL0     C10415   1.511   4.672   3.669  0.2334 -0.2303 -0.2780
   76MOL0     C10416   1.639   5.440   3.532 -0.4170 -0.0615 -0.5856
   76MOL0     C10417   1.761   5.498   3.558 -0.2712  1.3044 -0.5406
   76MOL0     C10418   1.857   5.521   3.434  0.3394  0.2691  0.2114
   76MOL0     H10419   2.141   5.675   3.982 -1.3374  0.6640  1.4350
   76MOL0     H10420   2.310   5.852   4.018 -0.3040 -0.0840  0.2896
   76MOL0     H10421   2.182   6.255   4.037  1.1733 -1.8315  0.0705
   76MOL0     H10422   2.199   6.275   3.866 -0.4520 -1.1861 -0.8597
   76MOL0     H10423   2.326   6.446   3.968  1.3694  0.9556  1.0851
   76MOL0     H10424   2.418   6.336   4.076 -1.5801 -2.0456  0.1025
   76MOL0     H10425   2.427   6.296   3.783 -3.5879  1.4739  0.6784
   76MOL0     H10426   2.519   6.443   3.841  0.0467 -0.8871 -1.3365
   76MOL0     H10427   2.652   6.313   3.986 -3.6731  2.7624  0.2001
   76MOL0     H10428   2.557   6.172   3.952  0.0297 -0.7971 -0.3997
   76MOL0     H10429   2.765   6.305   3.776 -0.0957  0.6526  2.7991
   76MOL0     H10430   2.637   6.188   3.719 -0.5508  1.5489 -0.6767
   76MOL0     H10431   2.724   6.018   3.867 -1.3487  0.8150  1.2023
   76MOL0     H10432   2.847   6.073   3.758  0.2902 -1.4287  0.7383
   76MOL0     H10433   2.811   6.163   4.044  0.0060 -1.7393  0.0590
   76MOL0     H10434   2.936   6.228   3.934  1.8443  0.4205  0.8637
   76MOL0     H10435   2.916   5.932   4.023 -1.0191 -0.0343 -0.9024
   76MOL0     H10436   3.032   6.002   3.906  3.7731  3.8040  1.0761
   76MOL0     H10437   3.193   6.203   4.027  1.2325 -0.0609  0.4103
   76MOL0     H10438   3.272   6.267   4.382 -1.6743  3.0664 -0.4829
   76MOL0     H10439   3.251   6.360   4.233  1.4995  0.0997  0.1501
   76MOL0     H10440   3.455   6.124   4.269  3.8187  1.1717 -1.9285
   76MOL0     H10441   3.426   6.200   4.118 -0.5026 -1.7693  0.7090
   76MOL0     H10442   3.507   6.319   4.374  0.3909 -0.7521 -0.2005
   76MOL0     H10443   3.628   6.270   4.267 -1.6224 -3.1162  0.5451
   76MOL0     H10444   3.557   6.392   4.066  0.7409 -3.6302  0.9714
   76MOL0     H10445   3.445   6.487   4.165 -0.0116  0.0546  2.5098
   76MOL0     H10446   3.462   6.610   4.002  0.5498  1.0849  0.7862
   76MOL0     H10447   3.333   6.750   3.906  0.0589  0.1063 -0.2207
   76MOL0     H10448   3.414   6.863   3.807 -3.0416 -0.9690 -1.8025
   76MOL0     H10449   3.344   6.927   3.953  1.2795  1.4303 -1.8298
   76MOL0     H10450   3.548   7.359   3.943 -0.5468  3.4408  0.8137
   76MOL0     H10451   3.641   7.553   3.855 -1.1077 -1.5009 -0.6534
   76MOL0     H10452   4.068   7.654   3.955  0.5024  0.8695  0.3760
   76MOL0     H10453   4.081   7.569   3.796  2.8904  0.9925  0.3113
   76MOL0     H10454   4.016   7.801   3.692  0.0460 -0.3127 -0.7148
   76MOL0     H10455   4.009   7.858   3.866 -0.9950  0.8468 -0.7705
   76MOL0     H10456   4.264   7.772   3.706  0.7171 -2.7533  1.5218
   76MOL0     H10457   4.266   7.768   3.873 -2.9449  0.3338  1.1756
   76MOL0     H10458   4.199   8.003   3.892 -0.8382 -1.6955 -0.0268
   76MOL0     H10459   4.187   8.014   3.714 -0.2340  1.0209  0.9030
   76MOL0     H10460   4.441   7.955   3.876  1.4191 -0.4188 -1.6366
   76MOL0     H10461   4.433   7.978   3.702  2.8381  1.7565 -0.3583
   76MOL0     H10462   4.357   8.196   3.912  0.1057 -3.1578  1.8083
   76MOL0     H10463   4.364   8.207   3.736 -0.1072 -2.7705 -0.9434
   76MOL0     H10464   4.599   8.158   3.745 -1.6953  0.2591 -0.4218
   76MOL0     H10465   4.597   8.122   3.917  0.2581 -1.0186 -1.4036
   76MOL0     H10466   4.526   8.379   3.934 -2.3855 -1.4570  0.0379
   76MOL0     H10467   4.572   8.383   3.761  2.5247  0.3037 -0.2801
   76MOL0     H10468   4.036   7.422   3.978  0.2363  1.0248  0.5159
   76MOL0     H10469   3.956   7.235   4.062  1.6494  1.3841 -0.5496
   76MOL0     H10470   3.786   6.942   4.149  0.8636 -0.2100 -0.4218
   76MOL0     H10471   3.806   6.713   4.226 -0.4880 -0.9939  0.0722
   76MOL0     H10472   2.053   6.118   3.794 -2.3789 -0.1004  1.9974
   76MOL0     H10473   1.912   5.918   3.738 -0.5655  1.2968  0.7159
   76MOL0     H10474   1.697   5.540   3.898  1.7858 -0.9734 -0.9735
   76MOL0     H10475   1.497   5.445   3.845  1.3584  2.3763  1.2334
   76MOL0     H10476   1.376   5.222   3.727  4.1047  0.5347 -0.4699
   76MOL0     H10477   1.257   5.236   3.599  0.3276 -1.0250  1.5222
   76MOL0     H10478   1.546   5.152   3.539 -0.3107  1.3692 -0.6789
   76MOL0     H10479   1.414   5.161   3.438 -0.5555  2.6589  0.1233
   76MOL0     H10480   1.403   5.003   3.699 -0.4916  1.3588  0.1203
   76MOL0     H10481   1.309   4.983   3.545 -0.2579 -0.2963  0.2168
   76MOL0     H10482   1.611   4.962   3.571  0.6911  1.4554 -2.1047
   76MOL0     H10483   1.507   4.876   3.448  1.4899 -0.3506  0.3529
   76MOL0     H10484   1.490   4.580   3.721  2.0708  0.6523  2.2239
   76MOL0     H10485   1.597   5.440   3.432 -2.6139  0.2220  0.2964
   76MOL0     H10486   1.817   5.482   3.340  0.8958  2.4266 -0.9879
   76MOL0     H10487   1.877   5.627   3.416  0.4936  0.3832  0.9968
   76MOL0     H10488   1.955   5.479   3.459  0.2193  0.0175  0.2733
   77MOL0     O10489   6.020  10.564   9.834 -0.4178 -0.8375  0.7006
   77MOL0     C10490   6.040  10.487   9.743 -0.2889 -0.1976  0.3892
   77MOL0     O10491   6.158  10.431   9.710  0.0383  0.3079  0.7091
   77MOL0     C10492   6.277  10.455   9.766  0.4412 -0.6817  0.0890
   77MOL0     C10493   6.313  10.532   9.880  0.8463  0.0289 -0.7455
   77MOL0     C10494   6.448  10.555   9.916  0.5908 -0.2589 -0.0213
   77MOL0     C10495   6.550  10.493   9.844  0.0456  0.8268 -0.1798
   77MOL0     O10496   6.675  10.523   9.896 -0.3643 -0.0684  0.6111
   77MOL0     C10497   6.792  10.508   9.808 -0.2837  0.4234  0.1620
   77MOL0     C10498   6.914  10.549   9.886 -0.1235  0.3577 -0.3133
   77MOL0     C10499   7.054  10.535   9.809 -0.0483 -0.4235 -0.0997
   77MOL0     C10500   7.170  10.602   9.871  0.5346  0.2621  0.1080
   77MOL0     C10501   7.292  10.630   9.789 -0.5621  1.1239  0.7232
   77MOL0     C10502   7.429  10.650   9.862 -0.4849  0.0705 -0.3183
   77MOL0     C10503   7.410  10.778   9.947  0.1258  0.1926  0.3312
   77MOL0     C10504   7.539  10.804  10.024  0.2995 -1.2296  0.4023
   77MOL0     N10505   7.554  10.936  10.086 -0.2771  0.4163 -0.5585
   77MOL0     C10506   7.497  10.982  10.206  0.7649  0.3178 -0.1806
   77MOL0     C10507   7.527  11.117  10.209  0.8228 -0.4454 -0.6144
   77MOL0     C10508   7.497  11.212  10.327 -0.3210  0.6039  0.1170
   77MOL0     C10509   7.607  11.217  10.437 -0.4505  0.0794 -0.6482
   77MOL0     C10510   7.754  11.174  10.393  0.4197 -0.3952  0.3378
   77MOL0     C10511   7.819  11.286  10.309 -0.4538  0.3505 -0.2531
   77MOL0     O10512   7.855  11.394  10.393 -0.6893 -0.8726  0.9757
   77MOL0     C10513   7.965  11.407  10.467  0.5440  0.0726 -0.1579
   77MOL0     C10514   8.083  11.338  10.447  0.2812 -0.1434 -0.0579
   77MOL0     C10515   8.195  11.369  10.519 -0.3886  0.5105  0.0521
   77MOL0     C10516   8.320  11.309  10.470 -0.7424  0.0881  0.0294
   77MOL0     C10517   8.192  11.466  10.620 -0.4605  0.3755 -0.3417
   77MOL0     C10518   8.317  11.512  10.693  0.7295 -0.5217  0.2194
   77MOL0     O10519   8.400  11.419  10.735  0.5970  0.2898 -0.4919
   77MOL0     C10520   8.521  11.452  10.791  0.0325 -0.4091  0.3220
   77MOL0     C10521   8.620  11.477  10.702 -0.5440  0.0228 -0.1123
   77MOL0     C10522   8.747  11.502  10.752  0.2067  0.3118 -0.1419
   77MOL0     C10523   8.772  11.510  10.894 -0.7301  0.0196  0.1032
   77MOL0     O10524   8.899  11.536  10.952  0.0713  0.4176 -0.2392
   77MOL0     C10525   9.009  11.524  10.864 -0.1501 -0.0247 -0.7326
   77MOL0     C10526   9.142  11.505  10.947  0.3225 -0.7815  0.3444
   77MOL0     C10527   9.263  11.454  10.855 -1.1712  0.0901 -0.9430
   77MOL0     C10528   9.399  11.475  10.932  0.0149  1.1906 -0.5068
   77MOL0     C10529   9.524  11.452  10.835 -0.0335  0.8371 -0.1366
   77MOL0     C10530   9.650  11.509  10.895  0.1644 -0.7500  0.3779
   77MOL0     C10531   9.711  11.417  11.001  0.1799  0.8299 -0.7170
   77MOL0     C10532   9.849  11.460  11.049  0.1401  0.1361  0.8255
   77MOL0    Cl10533   9.858  11.635  11.111  0.2083 -0.2316 -0.3398
   77MOL0     C10534   8.669  11.491  10.980  0.1318 -0.3999  1.3925
   77MOL0     C10535   8.542  11.456  10.923  0.7920 -1.1676  0.1583
   77MOL0     O10536   8.329  11.631  10.723 -0.2669  0.0469  0.4703
   77MOL0     C10537   8.073  11.540  10.639  0.1854  0.3881  0.0722
   77MOL0     C10538   7.959  11.506  10.564 -0.2113 -0.2883 -0.0898
   77MOL0     N10539   7.604  11.142  10.099 -0.0670 -0.8361  0.7387
   77MOL0     N10540   7.618  11.043  10.025  0.2179  0.8460  0.7566
   77MOL0     C10541   6.513  10.409   9.741 -0.0299  0.6989  0.7725
   77MOL0     C10542   6.379  10.391   9.706  0.5437  0.1008  0.0261
   77MOL0     C10543   5.923  10.467   9.649  0.4586  0.0439 -0.3517
   77MOL0     C10544   5.948  10.419   9.517 -0.4903 -0.7262 -0.0581
   77MOL0     C10545   5.842  10.406   9.427 -0.4107 -0.4755 -0.0361
   77MOL0     C10546   5.711  10.446   9.454 -0.1548 -0.3571 -0.4118
   77MOL0     O10547   5.605  10.428   9.367 -0.7809  0.0823  0.7477
   77MOL0     C10548   5.530  10.544   9.333 -0.4340 -0.3850  0.9313
   77MOL0     C10549   5.526  10.579   9.186 -0.3937 -0.2828  0.1733
   77MOL0     C10550   5.477  10.459   9.099 -0.7373  0.2625 -0.0432
   77MOL0     C10551   5.480  10.493   8.948 -0.6677 -0.0824 -0.2307
   77MOL0     C10552   5.616  10.502   8.886 -0.1025 -0.3464 -0.1224
   77MOL0     C10553   5.729  10.491   8.857 -0.2952  0.1936  0.0253
   77MOL0     C10554   5.682  10.498   9.577  0.1349  0.1449  0.4260
   77MOL0     C10555   5.780  10.509   9.677 -0.0884  0.0641  0.0601
   77MOL0     C10556   5.726  10.570   9.807  0.2876 -0.4224 -0.3394
   77MOL0     H10557   6.231  10.580   9.934 -0.9531 -3.0726 -0.4738
   77MOL0     H10558   6.461  10.629   9.995 -0.3601  1.5100 -1.4543
   77MOL0     H10559   6.794  10.568   9.717  3.4367 -1.3011 -1.0770
   77MOL0     H10560   6.808  10.405   9.774  1.5169  0.0405  1.9711
   77MOL0     H10561   6.901  10.653   9.917 -0.3053 -0.0487  1.0686
   77MOL0     H10562   6.927  10.487   9.975  1.9826 -3.1000 -2.7884
   77MOL0     H10563   7.064  10.426   9.799 -2.2592 -0.6498 -0.4241
   77MOL0     H10564   7.044  10.585   9.712  0.5941  1.3464  0.7133
   77MOL0     H10565   7.129  10.697   9.905 -3.0757 -1.6331  1.6891
   77MOL0     H10566   7.198  10.544   9.960 -1.2237 -1.1506 -0.1957
   77MOL0     H10567   7.276  10.708   9.714 -1.1937 -0.5668 -0.9939
   77MOL0     H10568   7.320  10.540   9.734  1.5424  0.9781  1.9220
   77MOL0     H10569   7.451  10.563   9.926 -0.7947  0.5707  0.4872
   77MOL0     H10570   7.501  10.657   9.780 -1.3307 -0.0846 -1.0848
   77MOL0     H10571   7.334  10.771  10.024  2.6569 -2.2753  2.8543
   77MOL0     H10572   7.380  10.865   9.887 -0.4773 -1.3938 -1.8178
   77MOL0     H10573   7.539  10.730  10.105 -0.4544 -1.8535 -0.1582
   77MOL0     H10574   7.626  10.803   9.958  2.6380  1.0742  3.1641
   77MOL0     H10575   7.438  10.920  10.273 -1.0000  1.5273 -0.5358
   77MOL0     H10576   7.404  11.179  10.376 -1.7677 -0.7486 -3.2246
   77MOL0     H10577   7.479  11.308  10.277 -1.2244 -0.4163 -1.6209
   77MOL0     H10578   7.606  11.315  10.486 -2.4269  0.5094 -1.4771
   77MOL0     H10579   7.579  11.137  10.506  3.0297 -0.4913  0.2928
   77MOL0     H10580   7.812  11.155  10.484  1.3133  0.6808  0.0106
   77MOL0     H10581   7.759  11.079  10.338 -2.0075 -1.0442  1.1138
   77MOL0     H10582   7.903  11.245  10.252  1.1333  1.0214  1.5032
   77MOL0     H10583   7.754  11.327  10.231  0.7453  0.0302 -1.4493
   77MOL0     H10584   8.095  11.271  10.363  2.8342 -0.1635  0.2418
   77MOL0     H10585   8.391  11.390  10.455 -1.5377  0.6595 -0.8262
   77MOL0     H10586   8.311  11.264  10.371  1.7202  1.3985 -0.8752
   77MOL0     H10587   8.367  11.236  10.536 -3.9275 -0.9873  1.3245
   77MOL0     H10588   8.620  11.470  10.594  1.8715 -0.5968 -0.1133
   77MOL0     H10589   8.832  11.525  10.689  0.6959 -1.0448 -0.0095
   77MOL0     H10590   8.995  11.430  10.810  0.8784 -0.6436  0.0466
   77MOL0     H10591   9.027  11.610  10.798  0.3541  2.4380  2.3946
   77MOL0     H10592   9.159  11.608  10.977 -4.6418  0.3216  0.3037
   77MOL0     H10593   9.130  11.449  11.040 -0.1997  1.3629  1.6450
   77MOL0     H10594   9.278  11.507  10.760 -0.2139 -0.3846 -1.0751
   77MOL0     H10595   9.252  11.347  10.839 -1.6868  0.3582 -2.5457
   77MOL0     H10596   9.389  11.404  11.014 -2.7075  0.6289 -1.2162
   77MOL0     H10597   9.396  11.568  10.988  0.8234  0.9198 -0.0022
   77MOL0     H10598   9.525  11.346  10.811 -0.5410  0.6659  0.5570
   77MOL0     H10599   9.522  11.516  10.746  3.3240 -0.2609 -1.1768
   77MOL0     H10600   9.635  11.611  10.930 -0.6021 -0.4218 -0.8592
   77MOL0     H10601   9.720  11.519  10.812  0.4764  1.4780  0.8433
   77MOL0     H10602   9.703  11.312  10.968  0.8581  0.4899  0.1506
   77MOL0     H10603   9.643  11.421  11.086  1.0901  1.7374 -0.0079
   77MOL0     H10604   9.921  11.449  10.967 -0.1549  2.3222  0.1928
   77MOL0     H10605   9.876  11.394  11.131 -2.1443 -0.3508  1.2340
   77MOL0     H10606   8.697  11.486  11.085  0.5752  0.2340  1.3105
   77MOL0     H10607   8.456  11.420  10.978 -0.5757  0.6635 -0.7118
   77MOL0     H10608   8.073  11.630  10.700  1.5888  0.2543  0.3098
   77MOL0     H10609   7.870  11.566  10.582  0.3660 -0.0665  2.5070
   77MOL0     H10610   6.592  10.357   9.687 -1.0906 -1.8859  1.5760
   77MOL0     H10611   6.353  10.326   9.623 -0.4424 -1.0395  1.1826
   77MOL0     H10612   6.046  10.384   9.486 -2.1144 -3.2756 -2.8803
   77MOL0     H10613   5.858  10.362   9.329 -1.0574  2.0886 -1.3706
   77MOL0     H10614   5.424  10.533   9.358 -0.5735 -3.7946 -0.5911
   77MOL0     H10615   5.564  10.635   9.384 -0.8284  0.7532 -0.7743
   77MOL0     H10616   5.619  10.624   9.149  0.7923 -0.6532  2.5180
   77MOL0     H10617   5.447  10.655   9.186 -2.1361 -2.0079  0.8742
   77MOL0     H10618   5.551  10.383   9.128 -0.6670  0.3744  0.0720
   77MOL0     H10619   5.375  10.434   9.130 -1.8635  0.4765 -3.2445
   77MOL0     H10620   5.424  10.586   8.930 -3.0281 -1.3637  0.0615
   77MOL0     H10621   5.421  10.414   8.900 -0.1391 -0.1280 -0.8121
   77MOL0     H10622   5.827  10.487   8.813 -0.5589  1.5922 -0.7719
   77MOL0     H10623   5.580  10.523   9.604  0.4484  2.3460 -0.2810
   77MOL0     H10624   5.619  10.593   9.805  0.3093 -0.3566 -1.8152
   77MOL0     H10625   5.743  10.497   9.887 -1.2503  0.1945  0.5965
   77MOL0     H10626   5.779  10.661   9.837 -1.8906  0.5503  0.7966
   78MOL0     O10627   1.217   9.129   3.960 -0.2381  0.1695  0.2190
   78MOL0     C10628   1.168   9.026   4.012  0.3974  0.7090  0.7397
   78MOL0     O10629   1.227   8.904   4.012 -0.4099 -0.1294 -0.8377
   78MOL0     C10630   1.359   8.887   3.963  0.2552 -0.9622 -0.4836
   78MOL0     C10631   1.366   8.774   3.886 -0.9517 -0.6753  0.0797
   78MOL0     C10632   1.494   8.730   3.842  1.3229 -0.3466  0.9364
   78MOL0     C10633   1.609   8.809   3.875 -0.4922 -0.3853  0.3402
   78MOL0     O10634   1.741   8.775   3.851  0.3192  0.0950 -0.0019
   78MOL0     C10635   1.767   8.646   3.794  0.1793 -0.4935 -0.4447
   78MOL0     C10636   1.889   8.654   3.703  0.2234  0.2217 -1.0171
   78MOL0     C10637   2.002   8.722   3.789  0.1941  0.1055 -0.1815
   78MOL0     C10638   2.131   8.723   3.713 -0.0142 -0.9439  0.1172
   78MOL0     C10639   2.225   8.823   3.781 -0.0471  0.1774  0.1619
   78MOL0     C10640   2.362   8.796   3.721  0.2251 -0.3229 -0.1382
   78MOL0     C10641   2.461   8.893   3.787 -0.2175 -0.1597  0.0239
   78MOL0     C10642   2.603   8.880   3.737 -0.3653 -0.3506 -0.1063
   78MOL0     N10643   2.692   8.956   3.831 -0.6932  0.6696 -0.6461
   78MOL0     C10644   2.819   8.932   3.874 -0.5256 -0.1879 -0.0024
   78MOL0     C10645   2.862   9.029   3.952 -0.0263 -0.5208  0.0146
   78MOL0     C10646   2.989   9.047   4.014  0.1715  0.1521 -0.0843
   78MOL0     C10647   3.090   8.940   3.976 -0.7999  0.1644  0.1936
   78MOL0     C10648   3.230   8.939   4.036  0.0386  0.6633 -0.7299
   78MOL0     C10649   3.299   9.073   4.031  0.5487 -0.3960  0.0436
   78MOL0     O10650   3.425   9.063   4.088 -0.5012 -0.7504  0.7924
   78MOL0     C10651   3.514   9.168   4.054  0.4879  0.1966 -0.3899
   78MOL0     C10652   3.483   9.302   4.033 -0.1593  0.4477  0.7772
   78MOL0     C10653   3.590   9.390   4.017 -0.6590  0.8242 -0.7473
   78MOL0     C10654   3.554   9.533   3.998  0.6661  0.0746 -0.1581
   78MOL0     C10655   3.729   9.352   4.032  1.2386 -0.3286 -0.1319
   78MOL0     C10656   3.854   9.445   4.033 -1.4313 -0.0299  0.5974
   78MOL0     O10657   3.976   9.385   4.057 -0.3490  0.1586  0.4309
   78MOL0     C10658   4.083   9.459   4.102  0.3854  0.2180 -0.9707
   78MOL0     C10659   4.177   9.382   4.182 -0.2337 -0.1732  1.1378
   78MOL0     C10660   4.292   9.435   4.239  0.1439 -0.5933 -0.3163
   78MOL0     C10661   4.317   9.568   4.214 -0.5195 -0.7640  0.8304
   78MOL0     O10662   4.427   9.624   4.274 -0.6835  0.0528  0.6982
   78MOL0     C10663   4.524   9.664   4.179 -0.0607 -0.3888  0.6195
   78MOL0     C10664   4.644   9.575   4.207  0.2510  0.9573 -0.3289
   78MOL0     C10665   4.761   9.628   4.127  0.5534  0.3845  0.8805
   78MOL0     C10666   4.838   9.729   4.214  0.0905  0.0666 -0.4325
   78MOL0     C10667   4.971   9.769   4.155  0.8092  0.1466 -0.6370
   78MOL0     C10668   4.991   9.911   4.158  0.2779 -0.3541 -0.3158
   78MOL0     C10669   5.129   9.947   4.101  0.0527  0.2395 -0.1895
   78MOL0     C10670   5.233   9.975   4.215  0.2916  0.1799 -0.2642
   78MOL0    Cl10671   5.376  10.035   4.144  0.1579  0.8008  0.3063
   78MOL0     C10672   4.237   9.647   4.131  1.3108  0.8601  0.6186
   78MOL0     C10673   4.122   9.586   4.074 -0.8021 -0.5132  0.5685
   78MOL0     O10674   3.834   9.568   4.042  0.2400 -0.5764 -0.2471
   78MOL0     C10675   3.751   9.224   4.058  0.1998  0.3382 -0.6834
   78MOL0     C10676   3.650   9.131   4.063 -0.2235  0.2842  0.8520
   78MOL0     N10677   2.754   9.108   3.983  0.0571  0.4232 -0.6359
   78MOL0     N10678   2.643   9.058   3.908  0.4542 -0.0122 -0.2481
   78MOL0     C10679   1.591   8.934   3.931  0.1638 -0.3592  0.4206
   78MOL0     C10680   1.467   8.972   3.979 -0.5252 -0.1445 -0.4192
   78MOL0     C10681   1.030   9.030   4.080 -0.2149  0.0306 -0.7256
   78MOL0     C10682   0.965   8.911   4.119 -0.5951  1.2436 -0.5006
   78MOL0     C10683   0.834   8.920   4.178 -0.4005 -0.1167  0.0810
   78MOL0     C10684   0.756   9.030   4.166 -0.0929  0.3085 -0.5209
   78MOL0     O10685   0.629   9.036   4.222  0.2106 -0.0996  0.6600
   78MOL0     C10686   0.554   8.914   4.233  0.1939  1.0098 -0.6718
   78MOL0     C10687   0.408   8.944   4.238  0.6844  0.1352  0.1431
   78MOL0     C10688   0.311   8.830   4.190  0.1554  0.5049 -0.6274
   78MOL0     C10689   0.286   8.714   4.292 -0.2793 -0.4362 -0.8667
   78MOL0     C10690   0.188   8.615   4.244 -0.3849 -0.0033 -0.9182
   78MOL0     C10691   0.109   8.541   4.194 -0.1096  0.6513  0.3198
   78MOL0     C10692   0.818   9.148   4.121 -0.0911  0.0467  0.4311
   78MOL0     C10693   0.946   9.147   4.082  0.1233  0.1536  0.9663
   78MOL0     C10694   0.996   9.288   4.036 -0.0031 -0.3652 -0.9592
   78MOL0     H10695   1.280   8.718   3.851 -0.5898 -0.2236 -1.6436
   78MOL0     H10696   1.487   8.635   3.790 -0.6512 -0.4832  1.3751
   78MOL0     H10697   1.690   8.610   3.725  1.6592 -1.7609 -1.4901
   78MOL0     H10698   1.779   8.580   3.880 -0.0902  0.3149  0.2312
   78MOL0     H10699   1.921   8.556   3.666  1.5270  0.7191 -1.2835
   78MOL0     H10700   1.880   8.718   3.615  1.2466  1.4478 -0.2708
   78MOL0     H10701   1.972   8.827   3.791 -2.1723 -0.5031  1.5219
   78MOL0     H10702   2.007   8.689   3.893 -2.5991  2.0264  0.6935
   78MOL0     H10703   2.179   8.624   3.717  1.6782 -0.2623 -1.4966
   78MOL0     H10704   2.115   8.763   3.613 -1.0269  2.3855  1.4747
   78MOL0     H10705   2.218   8.800   3.888 -0.8466  0.3683  0.1541
   78MOL0     H10706   2.192   8.924   3.756 -0.0567 -0.1529 -1.2664
   78MOL0     H10707   2.391   8.692   3.742  0.5004  0.0346  1.3699
   78MOL0     H10708   2.359   8.791   3.612  0.1866 -2.2897 -0.0793
   78MOL0     H10709   2.452   8.869   3.893  1.4343 -0.6290  0.1002
   78MOL0     H10710   2.425   8.993   3.764 -3.9541 -1.3821 -0.1253
   78MOL0     H10711   2.625   8.773   3.739 -3.4886 -1.0997 -0.8736
   78MOL0     H10712   2.611   8.920   3.635 -0.0604 -0.8032 -0.2618
   78MOL0     H10713   2.890   8.855   3.843  1.6738  0.8852  2.1077
   78MOL0     H10714   2.979   9.037   4.123 -1.0795  0.6365 -0.1314
   78MOL0     H10715   3.024   9.147   3.987 -3.5383  1.8327  0.6714
   78MOL0     H10716   3.056   8.838   3.996 -2.9077  0.6294 -0.7213
   78MOL0     H10717   3.103   8.957   3.868  2.2193 -1.7021  0.1356
   78MOL0     H10718   3.224   8.901   4.139 -3.9644 -0.3214 -1.1658
   78MOL0     H10719   3.291   8.866   3.982 -0.1238 -0.8167  0.9656
   78MOL0     H10720   3.316   9.105   3.928  1.5241  1.9784  0.8839
   78MOL0     H10721   3.245   9.150   4.087  1.0717 -0.8911  1.2646
   78MOL0     H10722   3.381   9.334   4.017 -1.3226 -3.3204 -0.4489
   78MOL0     H10723   3.617   9.581   3.923 -0.6322  2.6157  0.2559
   78MOL0     H10724   3.559   9.587   4.093 -0.1125  2.2237 -1.2825
   78MOL0     H10725   3.454   9.544   3.955  0.2186 -0.2067  0.7778
   78MOL0     H10726   4.170   9.273   4.185 -2.0638 -0.2165 -1.2499
   78MOL0     H10727   4.361   9.380   4.301 -1.6850 -0.8035  1.6617
   78MOL0     H10728   4.502   9.647   4.073 -0.8187  0.7556  0.5750
   78MOL0     H10729   4.555   9.768   4.191  1.1291 -0.4957 -1.2336
   78MOL0     H10730   4.663   9.577   4.315  2.0040  0.9476 -0.6061
   78MOL0     H10731   4.634   9.473   4.167  1.4543  1.4708 -2.0587
   78MOL0     H10732   4.712   9.685   4.048 -1.7109 -1.9640  0.4795
   78MOL0     H10733   4.828   9.546   4.097  0.0734  0.2464  0.1731
   78MOL0     H10734   4.862   9.676   4.306 -0.9982  0.8127  0.3093
   78MOL0     H10735   4.777   9.819   4.233 -2.3126 -0.9123 -2.8310
   78MOL0     H10736   5.051   9.711   4.203 -0.5277 -1.1838  0.0637
   78MOL0     H10737   4.965   9.749   4.047 -1.0399  0.0779 -0.5594
   78MOL0     H10738   4.982   9.953   4.259  0.7694 -1.4323  0.1872
   78MOL0     H10739   4.918   9.952   4.087 -0.9859 -0.3361  0.9274
   78MOL0     H10740   5.122  10.041   4.045 -1.7631 -0.2860 -0.8988
   78MOL0     H10741   5.171   9.866   4.040 -0.3611 -0.7205  0.7813
   78MOL0     H10742   5.258   9.887   4.275  1.0144  0.4146 -0.2099
   78MOL0     H10743   5.208  10.053   4.287  2.8030 -1.2187  2.3156
   78MOL0     H10744   4.254   9.749   4.098 -1.7969  1.3250  0.0972
   78MOL0     H10745   4.078   9.644   3.994  0.2980  1.3456  1.2396
   78MOL0     H10746   3.851   9.183   4.072  0.0700 -0.2766 -1.5108
   78MOL0     H10747   3.668   9.027   4.089  5.1404  1.3026  2.5028
   78MOL0     H10748   1.679   8.996   3.938  1.0242 -1.1791 -2.1251
   78MOL0     H10749   1.454   9.069   4.027 -0.7544 -0.2560 -0.2597
   78MOL0     H10750   1.017   8.816   4.106 -0.9948  1.0714 -0.8413
   78MOL0     H10751   0.785   8.826   4.198 -1.0003 -0.3017 -1.9883
   78MOL0     H10752   0.587   8.836   4.164  2.3912  2.0520 -0.8597
   78MOL0     H10753   0.576   8.885   4.336  0.5786  2.6034 -0.2801
   78MOL0     H10754   0.396   9.033   4.175 -0.6041  0.2750  0.5527
   78MOL0     H10755   0.376   8.977   4.337 -1.8001 -3.0100  0.5216
   78MOL0     H10756   0.215   8.878   4.169 -0.9945 -0.8601  1.2409
   78MOL0     H10757   0.362   8.789   4.102  0.8660  1.6706 -0.7861
   78MOL0     H10758   0.254   8.764   4.384 -3.0482  0.1868 -2.0519
   78MOL0     H10759   0.380   8.664   4.317 -0.9179 -0.8754  0.8333
   78MOL0     H10760   0.040   8.487   4.133  0.0114 -0.0354  0.7794
   78MOL0     H10761   0.752   9.231   4.101 -0.1824 -0.4988 -1.8314
   78MOL0     H10762   1.024   9.267   3.932  0.7032  4.1357 -1.8618
   78MOL0     H10763   0.918   9.362   4.054  1.4090  0.7767  0.8260
   78MOL0     H10764   1.084   9.325   4.089  0.4700 -1.1292 -1.1845
   79MOL0     O10765   3.762   8.369   0.369 -0.6432 -0.2553 -0.0052
   79MOL0     C10766   3.753   8.470   0.437 -0.1709  1.3311  0.6613
   79MOL0     O10767   3.857   8.542   0.477  0.4660 -0.5870 -0.1782
   79MOL0     C10768   3.972   8.531   0.404  0.2805  0.3722  0.6303
   79MOL0     C10769   3.974   8.518   0.261  0.1936 -0.5929 -0.2033
   79MOL0     C10770   4.088   8.514   0.194 -0.5728  0.6621  0.2795
   79MOL0     C10771   4.214   8.509   0.255  0.9452  0.0657 -0.1672
   79MOL0     O10772   4.329   8.484   0.194 -0.3814  0.2465  0.0870
   79MOL0     C10773   4.338   8.485   0.054  0.0529  0.3230  0.1210
   79MOL0     C10774   4.286   8.347  -0.001 -0.2959 -0.0365 -0.1229
   79MOL0     C10775   4.388   8.234   0.029  0.1644  0.1046 -0.2992
   79MOL0     C10776   4.513   8.253  -0.050 -0.0198 -0.3611  0.4315
   79MOL0     C10777   4.588   8.119  -0.048 -0.2077  0.6798  0.9217
   79MOL0     C10778   4.728   8.135  -0.111 -0.1502  0.9345  1.0833
   79MOL0     C10779   4.801   8.001  -0.146 -0.4640 -0.2496 -0.6266
   79MOL0     C10780   4.822   7.901  -0.033  0.7673  0.3859  1.0911
   79MOL0     N10781   4.946   7.906   0.045  0.3661 -0.2722  0.1206
   79MOL0     C10782   4.977   8.002   0.133  0.2522  0.2571  0.1410
   79MOL0     C10783   5.102   7.971   0.178  0.4770 -1.1117  0.0617
   79MOL0     C10784   5.181   8.059   0.267  0.1818  0.0275 -0.3905
   79MOL0     C10785   5.331   8.048   0.251 -0.7610 -0.0922 -0.6101
   79MOL0     C10786   5.396   8.151   0.342 -0.2263 -0.0550 -0.9463
   79MOL0     C10787   5.548   8.153   0.357 -0.4380  0.3397 -0.3613
   79MOL0     O10788   5.606   8.195   0.232 -0.0557  0.4331 -0.0650
   79MOL0     C10789   5.744   8.226   0.237  0.1113  0.8726  0.2338
   79MOL0     C10790   5.835   8.178   0.335 -0.3372  0.1657 -0.2509
   79MOL0     C10791   5.961   8.221   0.348  0.4933 -0.1372 -0.4681
   79MOL0     C10792   6.033   8.146   0.461  0.0008  0.2074  0.6162
   79MOL0     C10793   6.009   8.323   0.265  0.3478  0.6058 -0.4816
   79MOL0     C10794   6.141   8.379   0.283 -0.0725 -0.2777  0.0319
   79MOL0     O10795   6.194   8.460   0.184  0.6040  0.3967  0.0777
   79MOL0     C10796   6.327   8.511   0.204  0.9740 -0.5176  0.1689
   79MOL0     C10797   6.434   8.451   0.266  0.3288  0.1145 -0.0403
   79MOL0     C10798   6.556   8.509   0.245 -0.4118  1.1335 -0.6178
   79MOL0     C10799   6.576   8.625   0.170  0.3259  0.6511 -0.1900
   79MOL0     O10800   6.696   8.702   0.169  0.0579 -0.2346 -0.2213
   79MOL0     C10801   6.747   8.717   0.036  0.4748  0.5476 -0.4757
   79MOL0     C10802   6.897   8.747   0.047 -0.0791 -0.6265  0.1108
   79MOL0     C10803   6.955   8.866  -0.046 -0.4144 -0.1338  0.7551
   79MOL0     C10804   7.107   8.866  -0.031  0.1567  1.0159 -0.5326
   79MOL0     C10805   7.177   8.984  -0.078  0.3012  0.5651  0.9346
   79MOL0     C10806   7.168   9.003  -0.231 -0.1507 -1.4620 -0.4198
   79MOL0     C10807   7.260   9.114  -0.277 -0.5692 -0.3114 -0.1433
   79MOL0     C10808   7.247   9.250  -0.204 -0.0519  0.2268  0.0105
   79MOL0    Cl10809   7.096   9.331  -0.242  0.0766  0.2321  0.3733
   79MOL0     C10810   6.460   8.684   0.121  0.8747  0.2718 -0.2040
   79MOL0     C10811   6.340   8.631   0.138 -0.2782  0.0022  0.4974
   79MOL0     O10812   6.180   8.370   0.400  0.7020 -0.3185 -0.0607
   79MOL0     C10813   5.926   8.365   0.165  0.2324  0.0707  0.6891
   79MOL0     C10814   5.793   8.323   0.157  0.7489  0.2359  0.2895
   79MOL0     N10815   5.138   7.856   0.107 -0.5428  0.2139 -0.0658
   79MOL0     N10816   5.032   7.809   0.033 -0.5442  0.2749 -0.7112
   79MOL0     C10817   4.225   8.522   0.396 -0.5459  0.0048  0.0870
   79MOL0     C10818   4.101   8.536   0.465 -0.0171 -0.1742  0.7057
   79MOL0     C10819   3.624   8.498   0.498  0.3757  0.6649  0.0751
   79MOL0     C10820   3.508   8.444   0.432 -0.3931  0.6287 -0.6671
   79MOL0     C10821   3.375   8.470   0.480 -0.2123 -0.4841  0.1352
   79MOL0     C10822   3.354   8.554   0.593  0.4288  0.4065 -0.1154
   79MOL0     O10823   3.235   8.596   0.642  0.1016  0.6636  0.0522
   79MOL0     C10824   3.116   8.583   0.570 -0.4865  0.0647  0.1096
   79MOL0     C10825   3.006   8.681   0.599 -0.1093 -0.9023 -0.1928
   79MOL0     C10826   2.898   8.703   0.488  0.0748 -1.2436 -1.0108
   79MOL0     C10827   2.817   8.827   0.526 -0.0996  0.3442  0.8446
   79MOL0     C10828   2.725   8.855   0.420 -0.2810  0.5915 -0.9925
   79MOL0     C10829   2.646   8.901   0.336 -0.3987 -0.4423 -0.3846
   79MOL0     C10830   3.472   8.601   0.654 -0.2718 -1.0298  0.4050
   79MOL0     C10831   3.601   8.573   0.616 -0.0229 -0.6265  0.3818
   79MOL0     C10832   3.710   8.611   0.721  0.4028  0.2795  0.2904
   79MOL0     H10833   3.884   8.516   0.199  1.5465 -2.6162 -2.2550
   79MOL0     H10834   4.069   8.512   0.087  3.6974  2.7398 -0.7054
   79MOL0     H10835   4.443   8.502   0.031  0.1061  0.9307  0.7892
   79MOL0     H10836   4.275   8.562   0.009  2.9402  2.9471  0.3189
   79MOL0     H10837   4.199   8.324   0.060  0.9551 -3.1739  0.6402
   79MOL0     H10838   4.257   8.357  -0.106  2.1563  1.8951 -0.7279
   79MOL0     H10839   4.420   8.238   0.134  0.6089 -0.0339 -0.4251
   79MOL0     H10840   4.346   8.136   0.009 -0.0082  0.1416 -0.1133
   79MOL0     H10841   4.482   8.295  -0.146 -2.4795 -1.4332  0.6672
   79MOL0     H10842   4.575   8.328   0.000  0.6910 -1.2695  0.9298
   79MOL0     H10843   4.537   8.042  -0.107  0.3174  0.7909  0.3063
   79MOL0     H10844   4.593   8.093   0.058 -1.5408 -0.1055  0.8156
   79MOL0     H10845   4.703   8.185  -0.205  0.0084 -1.1781 -0.1649
   79MOL0     H10846   4.799   8.198  -0.056 -0.4899  0.1262  2.4982
   79MOL0     H10847   4.902   8.029  -0.179  0.5278 -0.8277  1.6780
   79MOL0     H10848   4.751   7.950  -0.228  1.9381  0.4638 -2.6682
   79MOL0     H10849   4.735   7.909   0.034  0.4583  0.5103  0.6793
   79MOL0     H10850   4.826   7.807  -0.088 -1.9515  0.8027  0.0396
   79MOL0     H10851   4.909   8.084   0.154  1.1421  1.0061  0.1407
   79MOL0     H10852   5.152   8.024   0.367 -0.5569  0.6038 -0.3918
   79MOL0     H10853   5.154   8.162   0.243 -0.3897  0.0919  0.4759
   79MOL0     H10854   5.368   7.950   0.282 -1.7844 -0.3976 -0.3404
   79MOL0     H10855   5.359   8.059   0.145  0.3779 -0.1568 -0.3275
   79MOL0     H10856   5.371   8.250   0.305  0.9537  0.4622 -0.4277
   79MOL0     H10857   5.356   8.146   0.444  1.7882 -1.1530 -0.1342
   79MOL0     H10858   5.585   8.225   0.430  0.8134 -1.6695  1.1041
   79MOL0     H10859   5.583   8.050   0.374 -1.3774  0.1953  0.9017
   79MOL0     H10860   5.809   8.092   0.396 -0.3909  1.4905  1.6544
   79MOL0     H10861   6.139   8.137   0.434  0.1057  3.6247 -0.5383
   79MOL0     H10862   5.999   8.043   0.478 -0.8686  0.4372  0.3065
   79MOL0     H10863   6.032   8.200   0.556 -1.0441  0.2240  0.6126
   79MOL0     H10864   6.427   8.355   0.316  2.8956 -0.3594 -0.4341
   79MOL0     H10865   6.633   8.463   0.307 -2.2893  2.1267  2.7485
   79MOL0     H10866   6.734   8.631  -0.030 -1.7952  0.0332  0.5564
   79MOL0     H10867   6.699   8.803  -0.012  2.3247  1.4810 -0.7352
   79MOL0     H10868   6.918   8.770   0.152 -2.1219 -1.5911  0.7701
   79MOL0     H10869   6.952   8.655   0.026  3.1543  1.0848  0.4882
   79MOL0     H10870   6.915   8.961  -0.008 -1.2720 -0.5692  0.9470
   79MOL0     H10871   6.928   8.852  -0.151 -1.9859  0.0996  1.1084
   79MOL0     H10872   7.142   8.772  -0.076 -4.2374 -1.1708  0.0747
   79MOL0     H10873   7.123   8.861   0.077  3.5136 -1.4055 -0.9989
   79MOL0     H10874   7.130   9.069  -0.027 -1.7285  0.4398 -0.5595
   79MOL0     H10875   7.281   8.968  -0.049  1.5406  0.6051 -2.9043
   79MOL0     H10876   7.068   9.041  -0.255  0.9534  2.2339  0.2056
   79MOL0     H10877   7.197   8.916  -0.291 -0.3185  0.2369 -3.1442
   79MOL0     H10878   7.251   9.137  -0.384 -0.4217 -0.5067 -0.2003
   79MOL0     H10879   7.363   9.078  -0.265 -0.2645  0.7076  0.4781
   79MOL0     H10880   7.324   9.314  -0.248 -2.1891  1.5866 -1.9683
   79MOL0     H10881   7.266   9.237  -0.097  0.3071  2.5218  0.2792
   79MOL0     H10882   6.465   8.781   0.073  2.4145 -0.5860 -1.9216
   79MOL0     H10883   6.253   8.666   0.083  0.7573  0.0924 -1.1597
   79MOL0     H10884   5.962   8.442   0.097  0.0650 -0.9660 -0.6114
   79MOL0     H10885   5.739   8.345   0.066  1.4308  1.9466  0.2556
   79MOL0     H10886   4.316   8.502   0.452 -1.6946 -4.6436  0.7332
   79MOL0     H10887   4.124   8.535   0.571  1.0969 -3.3912  0.5438
   79MOL0     H10888   3.509   8.374   0.349 -2.2647 -0.1047 -0.1304
   79MOL0     H10889   3.294   8.421   0.429 -1.1504  1.2478 -0.1361
   79MOL0     H10890   3.144   8.612   0.468  0.3754 -0.6808  0.1231
   79MOL0     H10891   3.082   8.479   0.568  0.9530 -0.4307 -0.7751
   79MOL0     H10892   3.053   8.775   0.629  1.4525 -1.2072 -1.5414
   79MOL0     H10893   2.962   8.650   0.694 -1.7360  1.1131 -0.2218
   79MOL0     H10894   2.951   8.727   0.396  0.3194 -1.3248 -0.8918
   79MOL0     H10895   2.836   8.616   0.463 -0.2699 -1.5048  0.6340
   79MOL0     H10896   2.889   8.904   0.555  1.9255 -1.1722  0.1062
   79MOL0     H10897   2.755   8.808   0.613 -1.0455  0.0903  0.1304
   79MOL0     H10898   2.596   8.964   0.265 -1.2026  1.7489  1.9738
   79MOL0     H10899   3.453   8.669   0.735  1.1486 -0.7844  0.5571
   79MOL0     H10900   3.676   8.617   0.824  2.8343 -1.8408  1.3148
   79MOL0     H10901   3.790   8.537   0.718 -0.3558 -0.5411 -1.1238
   79MOL0     H10902   3.755   8.708   0.696  2.5360 -1.2084 -2.1783
   80MOL0     O10903   7.418   3.135   5.307 -0.7480  0.7033 -0.1249
   80MOL0     C10904   7.360   3.056   5.388  0.0214 -0.2316  0.0065
   80MOL0     O10905   7.416   2.985   5.487  0.0083 -0.6798 -0.4105
   80MOL0     C10906   7.551   2.988   5.504  0.3112  0.2324 -0.6380
   80MOL0     C10907   7.588   3.005   5.639  1.0173  0.0035  0.0890
   80MOL0     C10908   7.718   3.029   5.677 -1.0523  0.6228 -0.3933
   80MOL0     C10909   7.815   3.005   5.580  0.0652  0.6726  0.3506
   80MOL0     O10910   7.950   3.006   5.598  1.1179  0.0491  0.4535
   80MOL0     C10911   8.000   3.035   5.723  0.0386  0.0388 -0.0411
   80MOL0     C10912   8.157   3.023   5.712  0.5190 -0.1214  0.7424
   80MOL0     C10913   8.218   3.052   5.847  0.2076  0.3674  0.5556
   80MOL0     C10914   8.367   3.026   5.848 -0.3388  0.6746  0.1586
   80MOL0     C10915   8.416   3.023   5.997 -0.0907  0.6196 -0.0017
   80MOL0     C10916   8.527   2.922   6.007 -0.3277  0.6400 -0.3813
   80MOL0     C10917   8.640   2.934   5.907 -0.6876 -0.1786  0.2042
   80MOL0     C10918   8.770   2.870   5.955 -0.6775  0.2226 -0.1275
   80MOL0     N10919   8.869   2.970   6.008  0.2651  0.0142 -0.0635
   80MOL0     C10920   8.992   3.016   5.954  1.0803  0.7801  0.5768
   80MOL0     C10921   9.052   3.085   6.051 -0.0503 -0.9158 -0.2903
   80MOL0     C10922   9.180   3.157   6.034 -0.1309 -0.0409 -0.3860
   80MOL0     C10923   9.152   3.296   5.969 -0.4718  0.4079  0.2746
   80MOL0     C10924   9.059   3.384   6.049  0.7010  0.9023 -0.4985
   80MOL0     C10925   9.053   3.519   5.976  0.2231 -0.2855  0.5276
   80MOL0     O10926   8.990   3.503   5.849  0.0127 -0.0635  0.1153
   80MOL0     C10927   8.853   3.502   5.850 -0.2078  0.1205  0.4826
   80MOL0     C10928   8.759   3.495   5.952  0.0315 -0.2788  0.4548
   80MOL0     C10929   8.627   3.484   5.939  0.3758  0.7429  0.4201
   80MOL0     C10930   8.552   3.481   6.070  0.3455  0.7888  0.7306
   80MOL0     C10931   8.576   3.491   5.804  0.6360  0.3695  0.2576
   80MOL0     C10932   8.420   3.483   5.774 -0.7555 -0.3003 -0.1033
   80MOL0     O10933   8.390   3.513   5.648  0.3922  0.0748 -0.0352
   80MOL0     C10934   8.254   3.512   5.615  0.0419  0.0496  1.1804
   80MOL0     C10935   8.174   3.626   5.635  0.1440 -0.7017  0.2138
   80MOL0     C10936   8.041   3.616   5.601  0.4970 -1.1705  0.2224
   80MOL0     C10937   7.990   3.505   5.532 -0.3685 -1.7283 -0.6493
   80MOL0     O10938   7.853   3.507   5.512 -0.0350  1.3019  0.1855
   80MOL0     C10939   7.782   3.383   5.504  0.7232  0.2501  0.1774
   80MOL0     C10940   7.632   3.427   5.503  0.7289  0.2450 -0.4667
   80MOL0     C10941   7.569   3.462   5.375  0.8567  0.6876  0.0251
   80MOL0     C10942   7.421   3.497   5.389  0.2514  0.2150 -0.3610
   80MOL0     C10943   7.336   3.548   5.268 -0.1733  0.0090  1.2141
   80MOL0     C10944   7.372   3.457   5.150 -0.9275  0.0388 -0.7576
   80MOL0     C10945   7.276   3.489   5.037  0.1982  0.2867 -0.3911
   80MOL0     C10946   7.342   3.436   4.908 -0.9711 -1.0668  0.1450
   80MOL0    Cl10947   7.217   3.455   4.776  0.2859 -0.2029 -0.1427
   80MOL0     C10948   8.071   3.400   5.507  0.2913 -0.4789  0.7148
   80MOL0     C10949   8.203   3.403   5.546 -0.9204  0.4170  0.1658
   80MOL0     O10950   8.339   3.466   5.865 -0.0756  0.3972  0.6036
   80MOL0     C10951   8.665   3.504   5.696 -0.2958 -0.2766  0.7635
   80MOL0     C10952   8.800   3.507   5.721 -0.3863 -0.0325  0.3819
   80MOL0     N10953   8.966   3.088   6.160 -0.1075  1.5702  0.1985
   80MOL0     N10954   8.869   3.014   6.131  0.5473  0.4952  0.7284
   80MOL0     C10955   7.776   2.971   5.447 -0.0975 -1.0971 -0.3556
   80MOL0     C10956   7.644   2.965   5.402  0.0785  0.3584 -0.3649
   80MOL0     C10957   7.214   3.047   5.360 -0.3774 -0.5942 -0.3770
   80MOL0     C10958   7.154   3.160   5.308  0.7664 -0.0360 -0.2595
   80MOL0     C10959   7.020   3.162   5.265  0.3291 -0.5988 -0.0331
   80MOL0     C10960   6.941   3.048   5.279  0.1915  0.4267  0.0844
   80MOL0     O10961   6.808   3.055   5.231  0.4758 -0.0104 -0.3463
   80MOL0     C10962   6.703   2.976   5.299  0.0952  0.2339 -0.0402
   80MOL0     C10963   6.679   3.018   5.445  0.6681  0.5137  1.0794
   80MOL0     C10964   6.683   3.175   5.468 -0.7571  0.7112 -0.2385
   80MOL0     C10965   6.632   3.215   5.613 -0.4310  0.3957  0.8758
   80MOL0     C10966   6.591   3.356   5.624 -0.2954  0.1791  0.4930
   80MOL0     C10967   6.581   3.480   5.630  0.2338 -0.0813 -0.4888
   80MOL0     C10968   7.002   2.932   5.337 -0.6570  0.2411 -0.1849
   80MOL0     C10969   7.139   2.924   5.370  0.4753 -0.8137 -0.4417
   80MOL0     C10970   7.193   2.791   5.415  0.5470  0.1482  0.7821
   80MOL0     H10971   7.516   3.007   5.719 -1.6085  0.6212 -2.1199
   80MOL0     H10972   7.743   3.063   5.776 -0.4346  0.1162 -0.3671
   80MOL0     H10973   7.955   2.954   5.781 -0.7509  1.2133  1.0438
   80MOL0     H10974   7.969   3.135   5.753  0.1996 -0.0415  0.3930
   80MOL0     H10975   8.190   2.928   5.669 -1.0201 -0.7306  0.8501
   80MOL0     H10976   8.191   3.097   5.639 -0.8750  0.0375  0.2247
   80MOL0     H10977   8.192   3.155   5.869 -0.5840  0.3821 -0.4111
   80MOL0     H10978   8.168   2.990   5.923  3.5416  0.1730  2.8519
   80MOL0     H10979   8.383   2.928   5.802  0.3979  0.5220  0.7124
   80MOL0     H10980   8.421   3.101   5.790 -1.1851  0.5117 -0.8706
   80MOL0     H10981   8.333   2.984   6.056  0.4678 -2.0937 -0.8677
   80MOL0     H10982   8.451   3.120   6.033 -1.9101  1.3053  0.0032
   80MOL0     H10983   8.556   2.934   6.112 -2.5767 -0.6297  0.4631
   80MOL0     H10984   8.483   2.822   6.002  0.6243  0.2551 -1.5844
   80MOL0     H10985   8.672   3.038   5.891  1.6422 -0.3789  2.7642
   80MOL0     H10986   8.606   2.894   5.811  0.4190  1.5348 -0.9792
   80MOL0     H10987   8.754   2.789   6.027 -0.1198  1.1904  1.1248
   80MOL0     H10988   8.814   2.821   5.868  0.6091  0.2734  0.4725
   80MOL0     H10989   9.041   3.007   5.857  0.9058 -1.1200  0.6224
   80MOL0     H10990   9.242   3.099   5.966 -1.4625 -1.4856 -0.4028
   80MOL0     H10991   9.234   3.166   6.129 -1.6893 -0.4313  0.5751
   80MOL0     H10992   9.246   3.348   5.946  0.8056 -1.6936  0.4706
   80MOL0     H10993   9.104   3.273   5.874 -0.1316  2.0662 -0.3334
   80MOL0     H10994   8.960   3.339   6.059  1.6122 -1.3608 -0.9219
   80MOL0     H10995   9.091   3.394   6.153  2.5971 -3.0649 -0.4974
   80MOL0     H10996   8.997   3.593   6.035 -2.3739 -2.1423  0.5688
   80MOL0     H10997   9.158   3.547   5.961  0.8626 -2.9039 -0.3003
   80MOL0     H10998   8.801   3.489   6.052 -0.6099 -0.1154  0.7356
   80MOL0     H10999   8.566   3.376   6.096  0.9694 -0.0944 -2.7112
   80MOL0     H11000   8.448   3.515   6.070  0.5819  1.6160  2.3252
   80MOL0     H11001   8.603   3.541   6.146 -1.8286  0.9443  2.1642
   80MOL0     H11002   8.219   3.708   5.691  0.6167 -2.1862  2.1447
   80MOL0     H11003   7.988   3.705   5.633  0.5697 -1.1207  0.2047
   80MOL0     H11004   7.811   3.332   5.412  2.5069  0.0518  0.7937
   80MOL0     H11005   7.809   3.317   5.588  1.5521 -2.5884 -2.1481
   80MOL0     H11006   7.574   3.342   5.541  1.4531 -0.0251  0.0511
   80MOL0     H11007   7.626   3.508   5.576  4.8506  0.5762 -0.2692
   80MOL0     H11008   7.573   3.372   5.312  0.8316 -0.1740  1.2115
   80MOL0     H11009   7.630   3.547   5.346 -0.9275  2.4189  1.1007
   80MOL0     H11010   7.420   3.565   5.475 -0.2385  0.2400 -0.3810
   80MOL0     H11011   7.376   3.402   5.418 -0.9682  1.0952  0.7793
   80MOL0     H11012   7.230   3.543   5.297  0.3357  0.3601  3.3484
   80MOL0     H11013   7.359   3.649   5.235 -1.1900 -0.3122 -0.5920
   80MOL0     H11014   7.371   3.353   5.186 -1.1195  0.1365 -0.4752
   80MOL0     H11015   7.476   3.474   5.123 -0.1279 -0.8544  1.5100
   80MOL0     H11016   7.264   3.596   5.018 -0.5547  0.2924  0.1123
   80MOL0     H11017   7.183   3.433   5.048  0.9622 -1.1658 -1.0588
   80MOL0     H11018   7.373   3.332   4.917  0.5153 -0.7261 -0.6039
   80MOL0     H11019   7.430   3.498   4.885 -2.6682  1.4754  0.1078
   80MOL0     H11020   8.028   3.315   5.455  1.0224 -0.1162 -0.5274
   80MOL0     H11021   8.276   3.323   5.533  0.2516  1.3765  0.6538
   80MOL0     H11022   8.626   3.504   5.595 -0.9002  0.4719  0.9884
   80MOL0     H11023   8.882   3.514   5.651  1.8506 -2.0165  2.5700
   80MOL0     H11024   7.856   2.962   5.375  0.6419  3.2239 -0.3470
   80MOL0     H11025   7.603   2.945   5.303 -1.9910  2.0120  0.0877
   80MOL0     H11026   7.214   3.249   5.289 -0.1191  0.8946  1.1760
   80MOL0     H11027   6.986   3.245   5.205  1.3749 -0.4963 -0.5164
   80MOL0     H11028   6.612   2.990   5.241 -0.3104  0.8706  0.7249
   80MOL0     H11029   6.729   2.869   5.293 -1.8483 -0.3243  0.6545
   80MOL0     H11030   6.758   2.969   5.502  1.0867 -1.8120 -1.2837
   80MOL0     H11031   6.584   2.971   5.473 -0.7270  2.4773 -0.0368
   80MOL0     H11032   6.784   3.212   5.446 -0.5939 -0.9232 -2.6054
   80MOL0     H11033   6.613   3.224   5.399 -1.4124  0.3307  0.1421
   80MOL0     H11034   6.709   3.181   5.684  0.1511 -0.4049 -0.1142
   80MOL0     H11035   6.537   3.164   5.630 -1.1296  1.8924  1.6984
   80MOL0     H11036   6.565   3.586   5.626  0.4808  0.0007  0.4821
   80MOL0     H11037   6.938   2.845   5.348  0.4094 -0.6462 -0.7479
   80MOL0     H11038   7.116   2.716   5.396 -0.7845  1.9146 -1.2568
   80MOL0     H11039   7.281   2.766   5.356  0.8751  2.5130  0.1584
   80MOL0     H11040   7.217   2.796   5.522 -1.2157  0.3268  1.2055
   81MOL0     O11041   5.094   7.626   0.736 -0.2253 -0.3715 -0.3859
   81MOL0     C11042   5.059   7.663   0.624 -1.1648  0.1524  0.0832
   81MOL0     O11043   5.137   7.737   0.539  0.2823  0.6844 -0.5249
   81MOL0     C11044   5.248   7.788   0.585  0.1436 -0.2859 -0.8965
   81MOL0     C11045   5.364   7.777   0.500  0.1278 -0.1919  0.3980
   81MOL0     C11046   5.490   7.831   0.539  1.0544  0.1391 -0.8241
   81MOL0     C11047   5.503   7.886   0.666  0.7315  0.9719  0.5364
   81MOL0     O11048   5.623   7.945   0.697  0.9432 -0.2443  0.2703
   81MOL0     C11049   5.618   8.077   0.743 -0.0493 -0.0310  0.0084
   81MOL0     C11050   5.761   8.134   0.766 -0.6470 -0.2135  0.9783
   81MOL0     C11051   5.845   8.059   0.871 -0.2122  0.2203  0.4170
   81MOL0     C11052   5.934   8.157   0.950  0.2923 -0.7927 -0.3961
   81MOL0     C11053   6.022   8.089   1.056 -0.7903 -1.0766 -0.4990
   81MOL0     C11054   6.131   8.176   1.110 -0.3302 -0.3362 -0.1168
   81MOL0     C11055   6.207   8.128   1.241 -1.1972 -0.5038  0.1193
   81MOL0     C11056   6.279   7.998   1.218 -0.6407  0.6436  0.0725
   81MOL0     N11057   6.404   7.998   1.143  0.1211 -0.2311 -0.2374
   81MOL0     C11058   6.508   8.082   1.162  0.2682  0.4010  0.2706
   81MOL0     C11059   6.587   8.072   1.056  0.0032 -0.3205  0.4590
   81MOL0     C11060   6.717   8.137   1.020 -0.5448  0.2328 -0.0195
   81MOL0     C11061   6.833   8.079   1.103 -0.5008 -0.3282  0.2059
   81MOL0     C11062   6.978   8.089   1.058 -0.4650 -0.1757  0.2928
   81MOL0     C11063   7.018   8.217   0.982 -0.2451  0.0569  0.4589
   81MOL0     O11064   7.145   8.198   0.922  0.4241  0.3783 -0.3810
   81MOL0     C11065   7.252   8.277   0.966  0.5753  0.0019  0.2452
   81MOL0     C11066   7.294   8.265   1.095 -0.5588 -0.4233 -0.2871
   81MOL0     C11067   7.412   8.328   1.142 -0.2919  0.8297  0.7542
   81MOL0     C11068   7.464   8.284   1.277  0.0899 -0.2146  0.9411
   81MOL0     C11069   7.483   8.399   1.050  0.1598  0.0599 -0.0206
   81MOL0     C11070   7.608   8.458   1.091 -1.0527  0.4777  0.5092
   81MOL0     O11071   7.605   8.552   1.188 -1.3826  0.1246 -0.8977
   81MOL0     C11072   7.728   8.610   1.228 -0.1979 -0.2405 -0.3913
   81MOL0     C11073   7.814   8.547   1.312 -0.2101  0.2588  0.2259
   81MOL0     C11074   7.936   8.600   1.352  0.2956 -0.5011  0.0386
   81MOL0     C11075   7.978   8.719   1.293  0.0788  0.2044  0.1974
   81MOL0     O11076   8.106   8.772   1.306 -0.9264  0.7056  0.1085
   81MOL0     C11077   8.194   8.709   1.398 -0.5175 -0.1673 -0.0483
   81MOL0     C11078   8.317   8.809   1.423 -0.1392  0.0756  0.2156
   81MOL0     C11079   8.392   8.748   1.542 -0.1015 -0.4218  0.1694
   81MOL0     C11080   8.452   8.845   1.643 -0.2534  0.7290  0.4277
   81MOL0     C11081   8.551   8.942   1.581  0.4653 -0.3944 -0.4866
   81MOL0     C11082   8.594   9.023   1.703  0.7826 -0.5572  1.0323
   81MOL0     C11083   8.648   9.142   1.635 -0.9537 -0.4530  0.9702
   81MOL0     C11084   8.697   9.241   1.742 -0.5512 -0.4140  0.6890
   81MOL0    Cl11085   8.847   9.164   1.813  0.4038  0.1656 -0.0829
   81MOL0     C11086   7.893   8.780   1.202  0.1757  0.6044  0.0443
   81MOL0     C11087   7.767   8.732   1.171 -1.0343  0.5987  0.1006
   81MOL0     O11088   7.709   8.422   1.028  0.0691  0.1275 -0.2811
   81MOL0     C11089   7.436   8.414   0.922  0.4704 -0.3928  0.6187
   81MOL0     C11090   7.323   8.357   0.875 -0.2831  1.1249  0.6914
   81MOL0     N11091   6.531   7.976   0.969  0.1521 -0.1795  0.1695
   81MOL0     N11092   6.426   7.933   1.023  0.1350 -0.6613 -0.0173
   81MOL0     C11093   5.386   7.892   0.752  0.1208  0.4079 -0.2686
   81MOL0     C11094   5.259   7.852   0.713 -0.0283 -0.1743 -0.2281
   81MOL0     C11095   4.928   7.615   0.584  0.3390 -0.2829 -1.0436
   81MOL0     C11096   4.857   7.517   0.662 -0.7182  0.8220 -0.0770
   81MOL0     C11097   4.730   7.467   0.622 -0.4098 -0.8738 -1.0267
   81MOL0     C11098   4.664   7.508   0.507 -0.1652  0.1764  0.0124
   81MOL0     O11099   4.545   7.464   0.471  0.8128  0.1285  0.4852
   81MOL0     C11100   4.543   7.377   0.351  0.2904 -0.2121  0.1880
   81MOL0     C11101   4.410   7.317   0.311  0.5405 -0.7945  0.3280
   81MOL0     C11102   4.431   7.217   0.201 -0.8029  0.5392 -0.4730
   81MOL0     C11103   4.311   7.130   0.186 -0.4094  0.2825 -0.0498
   81MOL0     C11104   4.194   7.202   0.128 -0.1098 -0.3802  0.2699
   81MOL0     C11105   4.111   7.263   0.065 -0.1573 -0.2928  0.4332
   81MOL0     C11106   4.729   7.596   0.428 -0.0057 -0.2510 -0.1083
   81MOL0     C11107   4.861   7.644   0.455 -0.8100  0.3767 -0.0550
   81MOL0     C11108   4.922   7.734   0.354 -0.3571  0.5641 -0.4621
   81MOL0     H11109   5.347   7.729   0.404 -3.2732 -0.5997  1.0779
   81MOL0     H11110   5.580   7.812   0.481  0.3228 -2.3567 -1.2439
   81MOL0     H11111   5.570   8.071   0.841 -1.2797 -0.6049 -0.6074
   81MOL0     H11112   5.576   8.154   0.678  1.4443  2.7670  2.1110
   81MOL0     H11113   5.803   8.140   0.666  0.0068 -1.8042  1.1414
   81MOL0     H11114   5.764   8.236   0.806 -0.5400 -0.2749  1.1269
   81MOL0     H11115   5.775   8.004   0.935 -0.4641 -1.1529 -0.9959
   81MOL0     H11116   5.908   7.984   0.823  1.8901  0.6008  2.3568
   81MOL0     H11117   6.007   8.208   0.886  0.5139 -0.3394  0.2064
   81MOL0     H11118   5.870   8.236   0.990 -1.7626 -1.8016 -1.5313
   81MOL0     H11119   6.067   7.994   1.026  1.5281 -0.6398  1.3266
   81MOL0     H11120   5.956   8.067   1.141  1.6415  0.4449  1.9444
   81MOL0     H11121   6.207   8.203   1.037 -0.0800  0.0243  0.2697
   81MOL0     H11122   6.083   8.270   1.140 -0.3089 -0.4759  0.3724
   81MOL0     H11123   6.135   8.097   1.318 -1.4017  0.0154  0.1475
   81MOL0     H11124   6.275   8.202   1.284  0.3762 -0.0856 -2.8266
   81MOL0     H11125   6.315   7.969   1.317  1.5997 -1.2739 -1.1923
   81MOL0     H11126   6.213   7.916   1.189 -2.3190  1.3359  1.7013
   81MOL0     H11127   6.528   8.140   1.252  1.1147  2.2025 -1.0240
   81MOL0     H11128   6.721   8.245   1.034  1.2565  0.1256  0.5059
   81MOL0     H11129   6.733   8.118   0.913  0.2746  0.6107  0.0261
   81MOL0     H11130   6.824   8.114   1.206 -0.1318 -0.8404  0.4152
   81MOL0     H11131   6.826   7.970   1.105  1.4801 -0.4834  1.1068
   81MOL0     H11132   7.036   8.082   1.151 -1.0805 -1.6495  0.6015
   81MOL0     H11133   6.997   8.000   0.997  1.3723 -1.4182  2.5376
   81MOL0     H11134   6.949   8.244   0.901 -3.1136 -0.4663  2.5918
   81MOL0     H11135   7.020   8.302   1.050  1.3424  1.2880 -1.0220
   81MOL0     H11136   7.249   8.190   1.159  0.0312 -0.2219  0.3812
   81MOL0     H11137   7.562   8.331   1.292  0.2520 -0.0908 -0.4060
   81MOL0     H11138   7.472   8.178   1.304 -1.7852  0.2336  3.7068
   81MOL0     H11139   7.395   8.328   1.350 -1.8543 -2.1554  0.3775
   81MOL0     H11140   7.776   8.457   1.361 -2.9229  1.6875  0.9909
   81MOL0     H11141   7.994   8.557   1.433 -0.4069  0.9081  1.3398
   81MOL0     H11142   8.135   8.688   1.487  0.9543 -2.7672  0.4243
   81MOL0     H11143   8.234   8.613   1.363 -2.6639 -2.5961  3.5490
   81MOL0     H11144   8.374   8.835   1.333 -1.2995 -0.2366 -0.6323
   81MOL0     H11145   8.288   8.912   1.448 -0.9825 -0.0144 -0.3478
   81MOL0     H11146   8.479   8.694   1.504  0.2357 -1.0586  1.7712
   81MOL0     H11147   8.324   8.677   1.589 -2.1852  0.3815 -1.4432
   81MOL0     H11148   8.503   8.777   1.712 -0.3635 -2.7682 -2.6166
   81MOL0     H11149   8.370   8.893   1.697 -0.3458  2.1907 -0.9141
   81MOL0     H11150   8.637   8.889   1.540 -0.5746 -1.8895 -0.8036
   81MOL0     H11151   8.495   8.998   1.506  0.4105 -1.2826 -1.1252
   81MOL0     H11152   8.663   8.957   1.757 -0.6723 -2.3503  0.8179
   81MOL0     H11153   8.509   9.053   1.765  0.7176  1.1733  0.1678
   81MOL0     H11154   8.572   9.190   1.573  1.3808  0.9601 -0.9650
   81MOL0     H11155   8.731   9.113   1.570  0.4144  0.5559  2.1983
   81MOL0     H11156   8.622   9.265   1.817 -2.7208  0.8470 -1.7324
   81MOL0     H11157   8.725   9.336   1.695  0.8292 -0.9718  0.3030
   81MOL0     H11158   7.928   8.861   1.139  1.1883 -0.8163 -1.2758
   81MOL0     H11159   7.706   8.788   1.101 -1.1486 -0.1242 -0.3827
   81MOL0     H11160   7.496   8.475   0.855  0.2116 -2.7902 -1.9975
   81MOL0     H11161   7.289   8.365   0.773  0.8819  1.2098  0.2983
   81MOL0     H11162   5.412   7.918   0.854  0.9233 -1.1003 -0.0630
   81MOL0     H11163   5.175   7.868   0.780 -1.1996 -2.0120 -1.1643
   81MOL0     H11164   4.902   7.480   0.753 -0.0740  1.7586 -0.0034
   81MOL0     H11165   4.671   7.397   0.680 -1.0985 -2.3848 -3.4198
   81MOL0     H11166   4.574   7.429   0.260 -0.3468 -1.3272 -0.7025
   81MOL0     H11167   4.601   7.290   0.384 -2.1001 -1.8701  0.2844
   81MOL0     H11168   4.346   7.399   0.276  1.3589  0.7171  2.1775
   81MOL0     H11169   4.359   7.269   0.396  0.1955 -0.7903  0.1284
   81MOL0     H11170   4.456   7.265   0.106  1.5795 -2.0027 -1.2722
   81MOL0     H11171   4.517   7.152   0.223  0.0843  1.8190 -0.0354
   81MOL0     H11172   4.282   7.093   0.284  0.0608  0.5768  0.2001
   81MOL0     H11173   4.347   7.061   0.109  0.4404  1.4569 -0.7418
   81MOL0     H11174   4.051   7.318  -0.005 -0.9616 -1.7739 -0.0905
   81MOL0     H11175   4.677   7.636   0.342 -1.9930  1.2652  1.6932
   81MOL0     H11176   4.861   7.758   0.266  0.9514 -1.2709 -1.9413
   81MOL0     H11177   4.946   7.836   0.385 -0.9287  0.8478 -0.9148
   81MOL0     H11178   5.016   7.689   0.321 -0.2808 -0.6488  1.2981
   82MOL0     O11179   8.693  10.759   3.799  0.2655  0.2207 -0.1760
   82MOL0     C11180   8.698  10.725   3.683 -0.4936  0.1366  0.5441
   82MOL0     O11181   8.620  10.636   3.611 -0.5330 -0.2345 -0.5246
   82MOL0     C11182   8.527  10.563   3.684  0.0824  0.2618  0.2519
   82MOL0     C11183   8.420  10.631   3.748 -0.4072 -1.1994 -0.6811
   82MOL0     C11184   8.328  10.548   3.820 -0.4458  0.1910 -0.0847
   82MOL0     C11185   8.347  10.406   3.837 -0.0460 -0.7278  0.3286
   82MOL0     O11186   8.272  10.321   3.913 -0.5394  0.1792  0.4180
   82MOL0     C11187   8.137  10.357   3.895  0.1073  0.5308 -0.3584
   82MOL0     C11188   8.047  10.230   3.914  0.0642  0.0313  0.3653
   82MOL0     C11189   7.897  10.273   3.934 -0.4718  0.9302  0.3355
   82MOL0     C11190   7.810  10.154   3.985  0.4668 -0.1167 -0.2180
   82MOL0     C11191   7.678  10.199   4.042 -1.3546 -0.1308 -0.4424
   82MOL0     C11192   7.583  10.241   3.926  0.6560 -0.3893 -0.2847
   82MOL0     C11193   7.438  10.253   3.976 -0.4333  0.0386 -0.4550
   82MOL0     C11194   7.338  10.331   3.891 -0.2426  0.3186  0.2289
   82MOL0     N11195   7.219  10.319   3.972  0.6586 -0.9267  0.4909
   82MOL0     C11196   7.140  10.202   3.992 -0.0002  0.3274 -0.2440
   82MOL0     C11197   7.039  10.242   4.073 -0.7095 -0.4817  0.8225
   82MOL0     C11198   6.940  10.150   4.121  0.1995 -0.1363 -0.7533
   82MOL0     C11199   6.986  10.066   4.245  0.5410  0.9186  0.1703
   82MOL0     C11200   7.003  10.144   4.387 -0.4785 -0.3157  0.0675
   82MOL0     C11201   7.099  10.261   4.391  0.7414  0.3312 -0.4251
   82MOL0     O11202   7.225  10.226   4.338  0.0240  0.1940 -0.3293
   82MOL0     C11203   7.318  10.324   4.347  0.2250  0.7106 -0.6503
   82MOL0     C11204   7.297  10.463   4.342 -0.1123 -0.0309 -0.2437
   82MOL0     C11205   7.407  10.554   4.352 -0.2814  0.1640 -0.2947
   82MOL0     C11206   7.374  10.706   4.342 -0.2502 -1.0402 -0.6319
   82MOL0     C11207   7.537  10.504   4.360  0.3064  1.0108  0.5863
   82MOL0     C11208   7.652  10.587   4.324  0.0867 -0.4061  0.6567
   82MOL0     O11209   7.661  10.696   4.405  0.7309 -0.6334  0.3896
   82MOL0     C11210   7.763  10.790   4.381  0.3754 -0.0875  0.7224
   82MOL0     C11211   7.722  10.924   4.352  1.1002 -0.4140 -0.0143
   82MOL0     C11212   7.811  11.033   4.358 -0.1017  0.0167 -0.2845
   82MOL0     C11213   7.946  11.002   4.375  0.1318  0.5586  0.0280
   82MOL0     O11214   8.030  11.113   4.373  0.3157 -0.2031  0.1170
   82MOL0     C11215   8.153  11.095   4.436  0.1697 -0.0272 -0.5255
   82MOL0     C11216   8.239  11.222   4.472  0.4235 -0.2419  0.6675
   82MOL0     C11217   8.341  11.253   4.354  0.2199  0.1363 -0.5260
   82MOL0     C11218   8.372  11.403   4.355 -0.1913  1.2169  0.0086
   82MOL0     C11219   8.498  11.445   4.259  0.4393  0.1936  0.0763
   82MOL0     C11220   8.626  11.383   4.307  0.2391  0.4696  0.1156
   82MOL0     C11221   8.742  11.457   4.246  0.1344 -0.5596  0.1448
   82MOL0     C11222   8.870  11.447   4.331  0.3161 -0.4680 -1.3239
   82MOL0    Cl11223   8.865  11.586   4.445 -0.4282  0.3744 -0.2870
   82MOL0     C11224   7.990  10.868   4.404  0.9061 -0.3811  0.6899
   82MOL0     C11225   7.892  10.766   4.404 -0.4164 -0.7441 -0.0180
   82MOL0     O11226   7.744  10.547   4.253  0.0999  0.1105  0.1105
   82MOL0     C11227   7.555  10.363   4.363  1.3149 -0.6959 -0.5949
   82MOL0     C11228   7.447  10.270   4.350  0.1453 -0.6980 -0.1026
   82MOL0     N11229   7.042  10.380   4.087 -0.1348  0.9034  0.4199
   82MOL0     N11230   7.151  10.423   4.026 -0.2400 -0.3429 -0.5355
   82MOL0     C11231   8.454  10.353   3.774  0.6528  0.1512  0.1416
   82MOL0     C11232   8.543  10.427   3.701 -0.4102 -0.6366  0.5510
   82MOL0     C11233   8.798  10.807   3.611  0.1048  0.2611 -0.7124
   82MOL0     C11234   8.767  10.833   3.476  0.3139 -0.3230 -0.0110
   82MOL0     C11235   8.851  10.897   3.393 -0.4981  0.0497 -0.1518
   82MOL0     C11236   8.976  10.945   3.437 -0.1753  0.8606 -0.7047
   82MOL0     O11237   9.052  11.013   3.356  0.6598  0.1079 -0.4658
   82MOL0     C11238   9.109  10.935   3.247  0.0594 -0.5899 -0.6714
   82MOL0     C11239   9.223  10.845   3.292 -0.1428 -0.1180  0.0180
   82MOL0     C11240   9.283  10.761   3.178  0.0360 -0.3308 -0.1566
   82MOL0     C11241   9.409  10.682   3.206 -1.5581  0.2772  0.2117
   82MOL0     C11242   9.395  10.575   3.304 -0.4900  0.3128 -0.5901
   82MOL0     C11243   9.384  10.493   3.386 -0.6594 -0.1386 -0.5316
   82MOL0     C11244   9.011  10.922   3.566  0.2539 -0.4617 -0.4706
   82MOL0     C11245   8.924  10.854   3.657  0.1780  0.6487  0.2382
   82MOL0     C11246   8.982  10.817   3.794 -0.5057 -0.0288 -0.4589
   82MOL0     H11247   8.392  10.736   3.736 -1.1541 -1.2622  0.3486
   82MOL0     H11248   8.249  10.592   3.880 -2.1241 -2.8499  0.1194
   82MOL0     H11249   8.110  10.403   3.799  0.2981  1.2462 -0.0718
   82MOL0     H11250   8.109  10.426   3.975 -0.5871 -1.4776  1.2013
   82MOL0     H11251   8.069  10.163   3.831  1.3100 -1.1234  1.5778
   82MOL0     H11252   8.068  10.181   4.010  1.2467 -2.5787 -1.1332
   82MOL0     H11253   7.898  10.355   4.006 -2.6052 -1.8869  3.8968
   82MOL0     H11254   7.844  10.309   3.845 -2.2876 -0.7609  0.6520
   82MOL0     H11255   7.795  10.078   3.908  4.9363 -0.5582 -0.9574
   82MOL0     H11256   7.870  10.112   4.067  1.7317  0.9783 -0.5422
   82MOL0     H11257   7.694  10.290   4.102 -2.0397 -0.2180 -0.1180
   82MOL0     H11258   7.641  10.120   4.108  2.0035 -0.3941  1.3361
   82MOL0     H11259   7.617  10.337   3.886 -2.1819  0.8391  0.0282
   82MOL0     H11260   7.596  10.180   3.836  2.6714  0.3739 -0.5757
   82MOL0     H11261   7.441  10.310   4.069 -1.7326  0.6975 -0.7830
   82MOL0     H11262   7.413  10.152   4.009 -0.2973  0.5263  1.2447
   82MOL0     H11263   7.349  10.440   3.892 -2.6693  0.6301  0.6436
   82MOL0     H11264   7.315  10.290   3.792  0.7611 -1.0762  0.5415
   82MOL0     H11265   7.160  10.101   3.958 -2.2018 -0.4562  0.6034
   82MOL0     H11266   6.903  10.084   4.042 -0.9690 -2.2480  1.4239
   82MOL0     H11267   6.864  10.218   4.161 -0.0049  1.2209 -3.3037
   82MOL0     H11268   6.906   9.994   4.265  1.5398 -1.1020 -2.5337
   82MOL0     H11269   7.072  10.001   4.226 -1.2079 -0.9745 -1.8564
   82MOL0     H11270   6.905  10.183   4.413 -0.1839 -0.3638  1.3029
   82MOL0     H11271   7.036  10.065   4.455  1.7065  1.1967  0.8898
   82MOL0     H11272   7.051  10.344   4.336  0.3429 -0.6246 -1.5717
   82MOL0     H11273   7.101  10.285   4.498 -0.4709  0.3951 -0.4039
   82MOL0     H11274   7.198  10.506   4.331 -1.2097 -0.9863  3.9741
   82MOL0     H11275   7.277  10.711   4.292 -0.0263  1.3620 -0.9148
   82MOL0     H11276   7.451  10.762   4.288 -0.6177 -2.2769 -2.5737
   82MOL0     H11277   7.358  10.755   4.438  1.8294  0.0937 -0.8071
   82MOL0     H11278   7.618  10.946   4.332  1.6577  2.5828 -0.0088
   82MOL0     H11279   7.775  11.132   4.334 -1.0179 -0.2862 -0.2050
   82MOL0     H11280   8.130  11.056   4.535 -0.0041 -0.2139 -0.6392
   82MOL0     H11281   8.224  11.029   4.385  1.9869  0.2763  1.4688
   82MOL0     H11282   8.175  11.311   4.478  0.2202 -0.1748 -1.5079
   82MOL0     H11283   8.282  11.196   4.569 -3.6254 -2.2963  2.1054
   82MOL0     H11284   8.288  11.220   4.265 -0.2654 -2.3679  0.6047
   82MOL0     H11285   8.435  11.199   4.365 -0.9704 -1.6721  1.4859
   82MOL0     H11286   8.392  11.436   4.457 -2.9541 -1.0517  1.4351
   82MOL0     H11287   8.282  11.463   4.339  0.1817  1.9280  0.5099
   82MOL0     H11288   8.479  11.409   4.157 -0.3221  0.6746  0.0431
   82MOL0     H11289   8.500  11.554   4.258  2.0473  0.2174  1.4356
   82MOL0     H11290   8.629  11.281   4.269  0.4229  0.8894 -1.0288
   82MOL0     H11291   8.626  11.382   4.416  0.0736  2.0060  0.1583
   82MOL0     H11292   8.723  11.563   4.225 -0.8732 -0.5643  0.9970
   82MOL0     H11293   8.761  11.421   4.144 -0.9974  2.8666 -1.4504
   82MOL0     H11294   8.953  11.468   4.262  2.8066 -0.6452  1.4318
   82MOL0     H11295   8.895  11.352   4.378 -1.3510 -0.9550 -1.3638
   82MOL0     H11296   8.091  10.838   4.427  0.5461 -1.8326  0.4651
   82MOL0     H11297   7.923  10.665   4.428 -1.4117 -0.3372  3.6012
   82MOL0     H11298   7.652  10.317   4.379 -0.1680 -3.0111  3.4071
   82MOL0     H11299   7.455  10.161   4.347  0.0755 -0.6893 -0.7866
   82MOL0     H11300   8.476  10.248   3.784 -1.9196 -0.9012 -3.3612
   82MOL0     H11301   8.633  10.384   3.659  1.5719  2.2796  1.5389
   82MOL0     H11302   8.684  10.784   3.426  0.0559 -2.4261  2.2609
   82MOL0     H11303   8.828  10.919   3.290  1.4353 -1.3653 -0.9299
   82MOL0     H11304   9.043  10.859   3.203  1.4062 -2.0224 -0.2852
   82MOL0     H11305   9.130  11.008   3.168  3.0799 -1.9359 -1.2459
   82MOL0     H11306   9.178  10.786   3.372 -2.1492  1.6374  0.2909
   82MOL0     H11307   9.310  10.899   3.332  0.9765 -1.1128 -0.9868
   82MOL0     H11308   9.215  10.691   3.128 -0.1970  0.7513 -1.4139
   82MOL0     H11309   9.305  10.827   3.093  1.0011  0.3520  0.5952
   82MOL0     H11310   9.485  10.753   3.240  0.8865 -1.7110 -0.7874
   82MOL0     H11311   9.453  10.644   3.114 -0.4187  0.1482  0.7917
   82MOL0     H11312   9.366  10.420   3.463  1.4643  1.1215  1.2505
   82MOL0     H11313   9.104  10.964   3.602 -0.9747 -0.6022  3.3427
   82MOL0     H11314   9.088  10.843   3.795 -0.0789 -1.5471 -1.9628
   82MOL0     H11315   8.926  10.866   3.874 -3.6946  1.4529 -3.3077
   82MOL0     H11316   8.972  10.709   3.808  3.0302 -0.5681 -1.1672
   83MOL0     O11317   8.277   3.862   8.202  0.0231  0.1709 -0.2994
   83MOL0     C11318   8.202   3.793   8.271 -0.4038  0.3126 -0.8368
   83MOL0     O11319   8.242   3.680   8.334  0.4103  0.2132 -0.1150
   83MOL0     C11320   8.377   3.646   8.356  0.6735 -0.4794 -0.1230
   83MOL0     C11321   8.488   3.738   8.367  0.4781  0.5426  0.1879
   83MOL0     C11322   8.617   3.688   8.372  0.3750 -0.7530  0.0100
   83MOL0     C11323   8.642   3.546   8.369  0.4535 -0.5330 -0.0328
   83MOL0     O11324   8.760   3.480   8.361 -0.4133 -0.4026  0.1157
   83MOL0     C11325   8.844   3.495   8.475 -0.9435  0.3375 -0.5129
   83MOL0     C11326   8.954   3.394   8.461  0.6771 -0.1702 -0.3650
   83MOL0     C11327   9.026   3.373   8.593 -0.5489 -0.1824 -1.0781
   83MOL0     C11328   9.150   3.299   8.578  0.8139  0.9067  0.0826
   83MOL0     C11329   9.263   3.373   8.504 -0.3316 -0.4973 -0.3940
   83MOL0     C11330   9.319   3.492   8.582  0.9743  1.1152  0.4268
   83MOL0     C11331   9.444   3.549   8.518  0.4090 -0.1069  0.0596
   83MOL0     C11332   9.401   3.673   8.429 -0.4012  0.6406  0.0447
   83MOL0     N11333   9.385   3.786   8.518 -0.5649 -0.9277  0.1167
   83MOL0     C11334   9.486   3.882   8.531 -0.4805 -0.1193 -0.2730
   83MOL0     C11335   9.432   3.983   8.599  0.7425  0.2999 -0.9333
   83MOL0     C11336   9.494   4.106   8.660  0.1296 -0.1482  0.3304
   83MOL0     C11337   9.504   4.087   8.810 -0.4090 -0.3517 -0.0321
   83MOL0     C11338   9.562   4.206   8.882  0.7354  0.0627 -0.4296
   83MOL0     C11339   9.620   4.158   9.021 -0.0383 -0.3349  0.6019
   83MOL0     O11340   9.672   4.258   9.109  0.1281 -0.3372  0.4029
   83MOL0     C11341   9.767   4.225   9.208 -0.0612  0.2914 -0.2506
   83MOL0     C11342   9.759   4.118   9.290  0.2758 -0.4568  0.1823
   83MOL0     C11343   9.857   4.083   9.383 -0.0272 -0.2663 -1.1118
   83MOL0     C11344   9.842   3.957   9.476 -0.6524  0.6200 -0.4336
   83MOL0     C11345   9.976   4.163   9.388 -0.1184  0.8433 -0.7890
   83MOL0     C11346  10.097   4.148   9.476  0.5322  0.7360 -0.4356
   83MOL0     O11347  10.078   4.084   9.594  0.7398 -0.0163 -1.0503
   83MOL0     C11348  10.178   4.108   9.689  0.4863 -0.2729 -0.6589
   83MOL0     C11349  10.253   3.995   9.737  0.1046 -0.2198  0.4679
   83MOL0     C11350  10.338   4.011   9.847 -0.3823 -0.6188  0.6023
   83MOL0     C11351  10.364   4.137   9.900 -0.1429 -0.5725 -0.9069
   83MOL0     O11352  10.449   4.154  10.008  0.1604  0.8830 -0.0427
   83MOL0     C11353  10.443   4.044  10.105  0.9236 -0.1520  0.1963
   83MOL0     C11354  10.504   4.071  10.239 -0.5771 -0.4234 -1.1282
   83MOL0     C11355  10.660   4.081  10.222  0.5324 -0.1779 -0.7431
   83MOL0     C11356  10.731   4.105  10.359 -0.2892 -0.3116  0.1685
   83MOL0     C11357  10.700   4.255  10.405 -0.8382  0.7604  0.1995
   83MOL0     C11358  10.601   4.255  10.526  0.3171  0.2547 -0.3128
   83MOL0     C11359  10.667   4.209  10.654 -0.5358 -1.2383  0.3959
   83MOL0     C11360  10.575   4.248  10.777  0.7532  0.0805 -0.3269
   83MOL0    Cl11361  10.444   4.131  10.775  0.8363 -0.3510 -0.2830
   83MOL0     C11362  10.299   4.243   9.847  0.0376  0.3263  0.4802
   83MOL0     C11363  10.203   4.231   9.748  0.6894  0.2719  0.6006
   83MOL0     O11364  10.206   4.194   9.437 -1.3895 -0.2871  0.9085
   83MOL0     C11365   9.978   4.279   9.311  0.2744 -0.0106  0.0267
   83MOL0     C11366   9.871   4.318   9.229  0.0835 -0.6891  0.6391
   83MOL0     N11367   9.295   3.955   8.619 -1.0636  0.1492 -0.3575
   83MOL0     N11368   9.270   3.838   8.573  0.1030  0.5112 -0.0286
   83MOL0     C11369   8.534   3.462   8.361  0.2213  0.2303  0.0276
   83MOL0     C11370   8.405   3.513   8.360 -0.3165  0.4091 -0.8511
   83MOL0     C11371   8.062   3.844   8.281  0.0423 -0.1508 -0.3869
   83MOL0     C11372   8.006   3.827   8.405  0.0348 -0.2553 -0.7893
   83MOL0     C11373   7.870   3.854   8.426  0.2637  0.0112 -0.8134
   83MOL0     C11374   7.785   3.902   8.323  0.5573 -0.0065 -0.4008
   83MOL0     O11375   7.651   3.932   8.350  0.5985  0.2812  0.5909
   83MOL0     C11376   7.551   3.923   8.249 -0.6517 -0.8314 -0.4470
   83MOL0     C11377   7.426   3.962   8.327 -0.3074 -0.1863  0.2510
   83MOL0     C11378   7.317   3.961   8.220  0.6641  0.2166 -0.0816
   83MOL0     C11379   7.169   3.970   8.274 -0.6376 -0.4740  0.0887
   83MOL0     C11380   7.123   4.106   8.299 -0.3805  0.1860 -0.2990
   83MOL0     C11381   7.094   4.222   8.318 -0.1970  0.2341  0.0129
   83MOL0     C11382   7.847   3.926   8.199  0.1447  0.0494  0.2859
   83MOL0     C11383   7.983   3.903   8.180  0.2518  0.2002 -0.8476
   83MOL0     C11384   8.036   3.923   8.040 -0.2224 -0.8341 -0.2819
   83MOL0     H11385   8.462   3.844   8.362 -1.1490  0.1068 -3.0300
   83MOL0     H11386   8.701   3.757   8.369  0.2242 -0.6091 -1.4956
   83MOL0     H11387   8.789   3.481   8.569 -0.6955  0.9836 -0.2671
   83MOL0     H11388   8.870   3.601   8.479 -1.9304  0.5526  1.7272
   83MOL0     H11389   8.911   3.300   8.426  3.4376 -1.7363  0.1615
   83MOL0     H11390   9.032   3.430   8.393  3.8457  0.3540  3.1866
   83MOL0     H11391   9.043   3.466   8.647 -1.1660 -0.8146  0.2479
   83MOL0     H11392   8.955   3.320   8.658  0.8667  0.0236  0.7061
   83MOL0     H11393   9.182   3.283   8.682 -0.4998  1.5088  0.6043
   83MOL0     H11394   9.136   3.209   8.518 -0.8751  2.5043 -2.0741
   83MOL0     H11395   9.230   3.418   8.410 -2.2850 -0.9420  0.0310
   83MOL0     H11396   9.346   3.303   8.493  2.0109  1.7829  1.5321
   83MOL0     H11397   9.238   3.565   8.575 -1.6093 -1.5975 -0.0746
   83MOL0     H11398   9.339   3.460   8.685 -2.0326  0.1193  0.7832
   83MOL0     H11399   9.488   3.475   8.451  4.0818 -1.1672  3.2545
   83MOL0     H11400   9.526   3.586   8.580  0.7499 -1.3596  0.3927
   83MOL0     H11401   9.479   3.693   8.355  2.3958 -1.0518  2.3075
   83MOL0     H11402   9.304   3.657   8.380 -1.4970  4.0843  0.7775
   83MOL0     H11403   9.589   3.876   8.496  0.4233  0.6328  2.0945
   83MOL0     H11404   9.433   4.193   8.632  0.4613 -0.1529 -0.4157
   83MOL0     H11405   9.595   4.120   8.621  0.4354 -0.5131  0.9826
   83MOL0     H11406   9.407   4.055   8.847 -0.2710  1.5999  2.2554
   83MOL0     H11407   9.573   4.002   8.819 -0.4746 -0.1917  2.7521
   83MOL0     H11408   9.645   4.247   8.823  1.0653 -0.6335 -0.4644
   83MOL0     H11409   9.484   4.281   8.895  1.1945  0.2556  1.5626
   83MOL0     H11410   9.537   4.100   9.064  1.1533 -1.3390  1.6134
   83MOL0     H11411   9.703   4.094   8.989  0.0285  0.5869 -1.2482
   83MOL0     H11412   9.691   4.036   9.267  2.0887 -1.6255 -1.3066
   83MOL0     H11413   9.859   3.995   9.577  4.7642  0.8994 -1.1393
   83MOL0     H11414   9.906   3.874   9.446  1.4853  0.6844  3.3148
   83MOL0     H11415   9.743   3.912   9.463 -1.8455  3.0635 -0.3917
   83MOL0     H11416  10.231   3.895   9.699  2.3697  0.3138 -2.6625
   83MOL0     H11417  10.393   3.924   9.881 -0.9038 -1.2206 -0.0761
   83MOL0     H11418  10.339   4.015  10.119  0.7801 -1.9717 -3.4908
   83MOL0     H11419  10.493   3.957  10.062  0.4056  0.5841 -2.0087
   83MOL0     H11420  10.469   4.168  10.275  0.4722 -0.6620  0.6413
   83MOL0     H11421  10.474   3.993  10.309  2.3965  0.1875  1.0325
   83MOL0     H11422  10.688   4.168  10.162 -0.2506  1.3441  0.9611
   83MOL0     H11423  10.693   3.989  10.174 -2.4867 -2.4144  1.1076
   83MOL0     H11424  10.838   4.091  10.346 -0.3702 -1.3566  0.5542
   83MOL0     H11425  10.692   4.032  10.430  2.5501 -1.1045  1.0290
   83MOL0     H11426  10.788   4.306  10.445 -2.7302  2.5823  2.4182
   83MOL0     H11427  10.669   4.304  10.312  0.7164 -2.4218 -2.1760
   83MOL0     H11428  10.511   4.195  10.507  0.6756 -1.0913  1.8206
   83MOL0     H11429  10.559   4.354  10.547  0.3873  0.6974 -2.1060
   83MOL0     H11430  10.763   4.261  10.656  1.5136 -4.7386 -0.1861
   83MOL0     H11431  10.686   4.102  10.660  0.2982 -1.0909  0.5112
   83MOL0     H11432  10.534   4.348  10.764  0.7684  0.3463  1.4779
   83MOL0     H11433  10.626   4.230  10.872  0.4882 -2.9205 -0.6485
   83MOL0     H11434  10.315   4.337   9.899  1.0616  0.5792 -0.2598
   83MOL0     H11435  10.154   4.324   9.721  1.8632  0.4317 -1.0560
   83MOL0     H11436  10.063   4.347   9.307  0.7648 -0.5337  1.2177
   83MOL0     H11437   9.868   4.405   9.165  2.3762 -0.6364  0.5195
   83MOL0     H11438   8.531   3.355   8.345 -0.1992  0.4797 -1.8633
   83MOL0     H11439   8.322   3.445   8.347 -1.1391  1.5094 -1.5831
   83MOL0     H11440   8.065   3.804   8.493 -1.1637 -1.1786 -0.1985
   83MOL0     H11441   7.834   3.833   8.526 -1.1319 -2.1831 -1.6982
   83MOL0     H11442   7.575   3.982   8.160 -2.7516 -2.5469 -2.2677
   83MOL0     H11443   7.547   3.820   8.213  1.0984 -1.1683  0.1797
   83MOL0     H11444   7.439   4.065   8.361 -0.5766  0.0968 -0.4789
   83MOL0     H11445   7.417   3.889   8.407  2.6697 -2.6394 -1.4188
   83MOL0     H11446   7.330   4.050   8.158  0.1954  0.6649  0.4435
   83MOL0     H11447   7.323   3.870   8.160 -0.1241  1.3152 -1.8986
   83MOL0     H11448   7.154   3.917   8.369 -2.2591  0.3154  0.3030
   83MOL0     H11449   7.093   3.929   8.207 -3.1792  1.0385  1.8866
   83MOL0     H11450   7.050   4.319   8.320 -0.9524 -0.1136  1.3397
   83MOL0     H11451   7.787   3.975   8.124  0.7314 -3.2690 -2.6089
   83MOL0     H11452   8.099   3.841   8.005 -0.3329  0.0012 -2.6563
   83MOL0     H11453   7.948   3.937   7.976  1.1912  0.2963 -2.0519
   83MOL0     H11454   8.091   4.016   8.026 -0.1483 -0.8395 -0.0370
   84MOL0     O11455   9.230   4.196   5.028  0.2562  0.4057 -1.0190
   84MOL0     C11456   9.147   4.147   5.112  0.9065 -0.0928  1.0350
   84MOL0     O11457   9.183   4.086   5.219  0.5817  0.3184 -0.3428
   84MOL0     C11458   9.317   4.094   5.250 -0.4871  0.3043  0.1199
   84MOL0     C11459   9.352   4.144   5.376  0.7855  0.0102 -0.1877
   84MOL0     C11460   9.481   4.145   5.425 -0.2623  0.1667  1.1471
   84MOL0     C11461   9.585   4.099   5.340 -0.0023  0.0916  0.7904
   84MOL0     O11462   9.718   4.091   5.376 -0.5880 -0.4733  1.0962
   84MOL0     C11463   9.772   4.215   5.413 -0.0151 -0.0211  0.4832
   84MOL0     C11464   9.904   4.184   5.474 -0.2704 -0.3791  0.2359
   84MOL0     C11465  10.015   4.169   5.364 -0.3515 -0.7150  0.1635
   84MOL0     C11466  10.162   4.178   5.414  0.5538  0.9657  0.6647
   84MOL0     C11467  10.270   4.129   5.320  1.1187  0.5411  0.3043
   84MOL0     C11468  10.408   4.130   5.390  0.7093 -0.2774  0.0183
   84MOL0     C11469  10.531   4.082   5.311  0.4449  0.0867 -0.3638
   84MOL0     C11470  10.514   3.945   5.244 -0.1553  0.6269 -0.6307
   84MOL0     N11471  10.644   3.887   5.203 -0.6052  0.2251 -0.1107
   84MOL0     C11472  10.759   3.960   5.164  0.5779 -0.1437 -0.4211
   84MOL0     C11473  10.828   3.875   5.087 -0.0464  0.0433 -0.0493
   84MOL0     C11474  10.948   3.911   4.997  1.0872  0.2869  0.2266
   84MOL0     C11475  11.076   3.906   5.082  0.6778 -0.2593 -0.5443
   84MOL0     C11476  11.196   3.924   4.996 -0.0001  0.3691  0.2437
   84MOL0     C11477  11.304   4.007   5.063  0.5832 -0.5244 -0.5721
   84MOL0     O11478  11.428   4.005   4.992 -0.2293  0.0770 -0.4630
   84MOL0     C11479  11.517   3.913   5.032 -0.5342 -0.7112  0.1869
   84MOL0     C11480  11.646   3.927   4.989 -0.7484 -0.1783  0.0994
   84MOL0     C11481  11.754   3.839   5.010  1.0680 -0.9355 -0.2192
   84MOL0     C11482  11.889   3.872   4.968  0.5576 -0.8575  0.9670
   84MOL0     C11483  11.719   3.717   5.075  0.7962 -0.2975  0.4107
   84MOL0     C11484  11.801   3.594   5.088 -0.1483 -0.4041 -0.5124
   84MOL0     O11485  11.759   3.493   5.165 -0.2587 -0.6626  0.1150
   84MOL0     C11486  11.854   3.391   5.175 -0.2466 -0.0071  0.6417
   84MOL0     C11487  11.957   3.402   5.264 -0.0125  0.0379  0.0046
   84MOL0     C11488  12.032   3.287   5.292 -0.1016 -0.2053 -0.2871
   84MOL0     C11489  12.000   3.157   5.238 -0.3811  0.6171 -0.0386
   84MOL0     O11490  12.063   3.044   5.277 -0.1186  0.6507 -0.7354
   84MOL0     C11491  12.197   3.056   5.323  0.1733 -0.2968  0.1456
   84MOL0     C11492  12.254   2.924   5.367  0.2640  0.3346 -0.1665
   84MOL0     C11493  12.409   2.926   5.384  0.4625  0.3082 -0.2359
   84MOL0     C11494  12.461   3.033   5.484 -0.6535  0.0554  0.1325
   84MOL0     C11495  12.611   3.029   5.492  0.6799 -1.0519 -0.9196
   84MOL0     C11496  12.677   3.148   5.574 -0.0863 -0.0378 -0.1645
   84MOL0     C11497  12.629   3.158   5.721 -0.0440  0.2247 -0.3533
   84MOL0     C11498  12.714   3.268   5.786 -0.1781  0.0046  0.3465
   84MOL0    Cl11499  12.876   3.225   5.834 -0.1959  0.1076 -0.2732
   84MOL0     C11500  11.894   3.153   5.146 -1.1113  0.2379 -0.4703
   84MOL0     C11501  11.816   3.266   5.118  0.1066  0.3568 -0.0113
   84MOL0     O11502  11.899   3.588   5.013  0.6910  0.8860 -0.7924
   84MOL0     C11503  11.584   3.700   5.120 -0.3421  0.1217  0.1770
   84MOL0     C11504  11.489   3.797   5.104  0.2494  0.8788 -0.0456
   84MOL0     N11505  10.765   3.752   5.089 -0.5538 -0.1974 -0.1086
   84MOL0     N11506  10.659   3.760   5.159 -0.4412 -0.3827  0.3372
   84MOL0     C11507   9.540   4.046   5.213 -0.3192 -0.0806 -0.4359
   84MOL0     C11508   9.417   4.035   5.171 -0.0573 -0.6947  0.4080
   84MOL0     C11509   9.011   4.163   5.055  0.3438  0.2715 -0.6880
   84MOL0     C11510   8.988   4.235   4.934 -0.8419 -0.0196 -0.6356
   84MOL0     C11511   8.851   4.249   4.886 -1.2024 -0.3353 -0.5495
   84MOL0     C11512   8.745   4.192   4.961  0.1159 -0.0241  0.7124
   84MOL0     O11513   8.612   4.210   4.917 -0.1125 -0.1255 -0.7466
   84MOL0     C11514   8.583   4.326   4.838  0.6115 -0.2252 -0.1875
   84MOL0     C11515   8.435   4.362   4.849 -0.0225 -0.8005 -0.2706
   84MOL0     C11516   8.353   4.250   4.782  0.4484  0.1417  0.7751
   84MOL0     C11517   8.205   4.291   4.771  0.2299  0.4217 -0.1404
   84MOL0     C11518   8.136   4.204   4.670 -0.2680  0.8195 -0.2945
   84MOL0     C11519   8.081   4.123   4.602 -0.0736  0.2907 -0.2111
   84MOL0     C11520   8.769   4.119   5.076  0.3191  0.0001  0.0036
   84MOL0     C11521   8.899   4.110   5.128 -0.1233 -0.0166 -0.0155
   84MOL0     C11522   8.912   4.027   5.255 -0.6314 -0.0592 -0.2915
   84MOL0     H11523   9.274   4.188   5.439 -0.2438 -0.7276 -0.9137
   84MOL0     H11524   9.496   4.171   5.530  0.4020  0.3502  1.0113
   84MOL0     H11525   9.716   4.266   5.492  1.9264  1.0700  1.2099
   84MOL0     H11526   9.776   4.280   5.326 -0.9774 -2.7485 -1.7728
   84MOL0     H11527   9.944   4.268   5.532  3.6731 -2.6295  1.1378
   84MOL0     H11528   9.913   4.102   5.546  1.5497  0.2817  0.8186
   84MOL0     H11529  10.002   4.075   5.309 -0.5213  1.4455 -3.9113
   84MOL0     H11530   9.996   4.243   5.285  0.8536 -2.2240 -1.6291
   84MOL0     H11531  10.186   4.278   5.451 -2.2370  2.0113 -0.0991
   84MOL0     H11532  10.157   4.107   5.496 -1.6097  0.3374  0.0416
   84MOL0     H11533  10.280   4.198   5.236  0.5142 -0.0588 -0.2710
   84MOL0     H11534  10.243   4.026   5.295  1.6118  0.4868 -0.0230
   84MOL0     H11535  10.423   4.233   5.424  0.9015 -0.2284 -0.2061
   84MOL0     H11536  10.407   4.062   5.475 -4.4759 -0.7901 -0.1044
   84MOL0     H11537  10.609   4.073   5.387 -2.3587  2.8225  3.1996
   84MOL0     H11538  10.560   4.157   5.236  1.1410  2.0062  1.7116
   84MOL0     H11539  10.457   3.879   5.309  0.0617  1.4514  0.4290
   84MOL0     H11540  10.454   3.959   5.154  1.9541  0.5446 -2.1174
   84MOL0     H11541  10.787   4.064   5.169  3.3162 -0.8694  2.6666
   84MOL0     H11542  10.923   4.012   4.965 -1.1797 -1.2308 -3.5229
   84MOL0     H11543  10.941   3.851   4.905  0.3796  1.0548 -0.2316
   84MOL0     H11544  11.086   3.968   5.172  2.2555 -1.6142  0.2732
   84MOL0     H11545  11.080   3.804   5.120  0.0685 -0.0081  0.2227
   84MOL0     H11546  11.237   3.829   4.961  3.4602  2.0889 -0.9394
   84MOL0     H11547  11.171   3.981   4.906  0.0660  0.1542  0.0874
   84MOL0     H11548  11.271   4.111   5.070  0.4796 -0.5265 -1.0584
   84MOL0     H11549  11.304   3.971   5.167 -0.6123 -0.8336 -0.6597
   84MOL0     H11550  11.667   4.009   4.921  1.3275 -0.5690  0.1873
   84MOL0     H11551  11.913   3.822   4.873 -3.0873  0.9399 -1.1236
   84MOL0     H11552  11.962   3.832   5.038  2.5012  1.0281  0.1572
   84MOL0     H11553  11.909   3.979   4.973  5.3198 -1.5007  0.1787
   84MOL0     H11554  11.973   3.485   5.331 -0.2686  2.1875 -2.4374
   84MOL0     H11555  12.111   3.300   5.364 -0.3434 -0.8606  0.1003
   84MOL0     H11556  12.246   3.103   5.238 -1.1443  2.3721  0.7592
   84MOL0     H11557  12.204   3.129   5.404  1.9514  0.0236 -0.2646
   84MOL0     H11558  12.208   2.898   5.463 -1.7754  0.2586 -1.1105
   84MOL0     H11559  12.227   2.846   5.296  1.0837 -1.7020  1.6635
   84MOL0     H11560  12.454   2.931   5.284 -0.8813  0.9449 -0.8429
   84MOL0     H11561  12.435   2.824   5.416  0.6073 -0.3687 -2.3093
   84MOL0     H11562  12.426   3.012   5.585 -0.4375  0.0544  0.2079
   84MOL0     H11563  12.412   3.128   5.464  0.9042  1.0687  0.9002
   84MOL0     H11564  12.644   2.933   5.533 -0.0312 -0.6977  0.5226
   84MOL0     H11565  12.650   3.029   5.389  1.9622 -1.3298 -0.4617
   84MOL0     H11566  12.660   3.239   5.516  3.5875  0.8831 -0.0287
   84MOL0     H11567  12.785   3.132   5.582  0.0297  0.5608 -0.4951
   84MOL0     H11568  12.647   3.063   5.771 -2.7443 -0.7717 -1.0928
   84MOL0     H11569  12.522   3.180   5.733 -0.3692 -1.2770 -0.4124
   84MOL0     H11570  12.658   3.310   5.870 -0.4060  0.8357 -0.2040
   84MOL0     H11571  12.724   3.353   5.718 -1.2534  0.3701  0.6401
   84MOL0     H11572  11.858   3.063   5.097  2.6708 -1.7550  0.0463
   84MOL0     H11573  11.722   3.254   5.065 -1.3985 -3.7068  3.0617
   84MOL0     H11574  11.555   3.609   5.172 -0.2384 -1.4573 -2.3448
   84MOL0     H11575  11.388   3.782   5.142  0.3059 -1.0030 -0.5171
   84MOL0     H11576   9.617   3.997   5.155 -2.0478 -1.8167 -1.3582
   84MOL0     H11577   9.400   3.988   5.075  2.7387  0.6046 -0.8417
   84MOL0     H11578   9.069   4.284   4.882  0.4234  1.2137  2.2908
   84MOL0     H11579   8.824   4.288   4.788 -0.7477  1.6957  0.0883
   84MOL0     H11580   8.652   4.407   4.863  1.0877 -0.6553 -0.1075
   84MOL0     H11581   8.600   4.301   4.733  0.9940  1.3223 -0.5138
   84MOL0     H11582   8.418   4.457   4.799 -0.0346  0.1015  1.3711
   84MOL0     H11583   8.412   4.375   4.956 -0.8259 -0.7580 -0.4439
   84MOL0     H11584   8.394   4.224   4.684 -0.1665  2.1094 -0.0460
   84MOL0     H11585   8.343   4.163   4.848 -0.7979 -0.2500  0.0917
   84MOL0     H11586   8.203   4.392   4.728  2.5092  0.0291 -1.3177
   84MOL0     H11587   8.157   4.292   4.869 -2.5938  0.3924 -1.4479
   84MOL0     H11588   8.033   4.056   4.534 -1.3263  1.2454 -0.3122
   84MOL0     H11589   8.693   4.058   5.125  0.5580 -1.5066 -1.3784
   84MOL0     H11590   8.947   4.085   5.341 -1.7855 -1.5292  1.2333
   84MOL0     H11591   8.821   3.977   5.287  0.0949 -1.6241 -0.5703
   84MOL0     H11592   8.984   3.947   5.237 -0.8148 -0.2799 -0.0487
   85MOL0     O11593   7.968   1.162   4.905 -0.5387  0.0593 -0.6018
   85MOL0     C11594   7.973   1.064   4.980 -0.2035 -0.1738  0.2697
   85MOL0     O11595   8.082   1.014   5.043 -0.1925  1.1546  0.3407
   85MOL0     C11596   8.204   1.033   4.989  0.3820  0.3252  0.0738
   85MOL0     C11597   8.309   1.041   5.077  0.3342  1.0382  0.3872
   85MOL0     C11598   8.441   1.053   5.021  0.3170  0.7271  0.6421
   85MOL0     C11599   8.464   1.079   4.883  0.4352 -0.2645 -0.5078
   85MOL0     O11600   8.594   1.100   4.826 -0.2698  0.0601 -0.6343
   85MOL0     C11601   8.589   1.158   4.693 -0.0703  0.6068 -0.2610
   85MOL0     C11602   8.728   1.216   4.670 -0.0980 -0.0144  0.1252
   85MOL0     C11603   8.821   1.098   4.649  0.1546 -0.2000 -0.7667
   85MOL0     C11604   8.949   1.148   4.587  0.5499 -0.2798 -0.1725
   85MOL0     C11605   9.072   1.054   4.600  0.4789 -0.4749 -0.5497
   85MOL0     C11606   9.204   1.131   4.557  0.2998 -0.2769 -0.2425
   85MOL0     C11607   9.330   1.051   4.543  1.0124 -0.1790 -0.0907
   85MOL0     C11608   9.374   0.995   4.680 -0.2989  0.6394  0.4354
   85MOL0     N11609   9.519   1.007   4.708  0.3472  0.2617  1.0013
   85MOL0     C11610   9.607   0.900   4.704 -0.2820 -0.2132  0.0713
   85MOL0     C11611   9.720   0.954   4.763  1.5462  1.0981 -1.1457
   85MOL0     C11612   9.838   0.867   4.809  0.0818  0.4042  0.4515
   85MOL0     C11613   9.962   0.870   4.721 -0.0378  0.3334  0.1209
   85MOL0     C11614  10.045   0.992   4.764 -0.0417  0.4575  0.5824
   85MOL0     C11615  10.172   0.988   4.674 -0.0443 -0.2701  0.1864
   85MOL0     O11616  10.259   1.094   4.705  0.3616 -0.3916 -0.1718
   85MOL0     C11617  10.386   1.063   4.668  0.3489  0.8088 -0.5601
   85MOL0     C11618  10.419   1.014   4.534 -0.4889  0.7420 -0.1915
   85MOL0     C11619  10.555   0.989   4.499  0.4619  0.4982  0.1759
   85MOL0     C11620  10.582   0.973   4.347  0.4578 -0.8809 -0.4195
   85MOL0     C11621  10.657   0.991   4.599  0.1439  0.1686 -0.3097
   85MOL0     C11622  10.804   0.966   4.589 -0.2622  0.6883 -0.1415
   85MOL0     O11623  10.877   0.945   4.708  0.4371  0.1848 -0.6539
   85MOL0     C11624  10.997   0.884   4.715  0.0072  0.5198  0.0761
   85MOL0     C11625  11.051   0.870   4.844  0.3865  0.1741 -0.1675
   85MOL0     C11626  11.183   0.838   4.866  0.6460  0.1190  0.1199
   85MOL0     C11627  11.275   0.811   4.766  0.0941 -0.0582  0.5100
   85MOL0     O11628  11.415   0.779   4.777 -0.5322 -0.2423 -0.0606
   85MOL0     C11629  11.477   0.818   4.906  0.1186 -0.2641  0.4201
   85MOL0     C11630  11.626   0.778   4.893 -0.3332 -0.0874  0.0001
   85MOL0     C11631  11.693   0.775   5.032 -0.1621 -0.0242  0.0329
   85MOL0     C11632  11.846   0.797   5.042  0.3243 -0.6665  0.4043
   85MOL0     C11633  11.910   0.670   4.979  0.4871 -0.4844  0.1311
   85MOL0     C11634  12.065   0.676   4.983 -0.1068 -0.3428 -0.0699
   85MOL0     C11635  12.116   0.580   5.090  0.4363 -0.0478  0.4105
   85MOL0     C11636  12.270   0.585   5.084  0.1746 -0.3598  0.0608
   85MOL0    Cl11637  12.332   0.743   5.145  0.1442  0.1391 -0.0054
   85MOL0     C11638  11.221   0.802   4.641 -0.2598 -0.1152 -0.3085
   85MOL0     C11639  11.085   0.838   4.618  0.2616 -0.8637 -0.6121
   85MOL0     O11640  10.848   0.953   4.480 -0.1450 -0.5945  0.3833
   85MOL0     C11641  10.618   1.030   4.729  0.0585 -0.1130  0.1142
   85MOL0     C11642  10.488   1.069   4.759  0.2260 -0.6269 -0.4628
   85MOL0     N11643   9.702   1.089   4.777 -0.0093  0.0539 -0.5696
   85MOL0     N11644   9.582   1.122   4.752  0.0247  0.5244 -0.5595
   85MOL0     C11645   8.352   1.068   4.802 -0.2237 -0.5938 -0.2930
   85MOL0     C11646   8.227   1.040   4.848  0.3497 -0.1289 -0.9782
   85MOL0     C11647   7.841   1.019   5.015 -0.3784 -0.1467 -0.0164
   85MOL0     C11648   7.765   1.097   5.099  1.5199 -0.9732 -0.1414
   85MOL0     C11649   7.645   1.050   5.148 -0.4388 -0.4331 -0.2159
   85MOL0     C11650   7.585   0.936   5.100 -0.4129  0.3672  0.7374
   85MOL0     O11651   7.465   0.893   5.161 -0.2733 -0.5803  0.1114
   85MOL0     C11652   7.446   0.879   5.302 -0.3270 -0.0729  0.3709
   85MOL0     C11653   7.356   0.755   5.321 -0.3900 -0.7225  0.2744
   85MOL0     C11654   7.294   0.731   5.455 -0.2827  0.1367  0.7772
   85MOL0     C11655   7.402   0.707   5.565  0.2425 -0.3475 -0.4404
   85MOL0     C11656   7.472   0.576   5.555  0.5314  0.2978 -0.0320
   85MOL0     C11657   7.537   0.481   5.529  0.5069 -0.3783  0.1968
   85MOL0     C11658   7.661   0.856   5.012 -0.5727  0.3762  0.8794
   85MOL0     C11659   7.791   0.894   4.975  0.3107 -0.5815  0.3152
   85MOL0     C11660   7.865   0.803   4.877  0.1005  0.6716 -0.3942
   85MOL0     H11661   8.304   1.045   5.185 -1.0482 -1.0051  0.4648
   85MOL0     H11662   8.525   1.055   5.090  0.3672  1.1530  0.5663
   85MOL0     H11663   8.514   1.237   4.685 -0.8549  0.4845  3.8365
   85MOL0     H11664   8.568   1.073   4.627 -0.2300 -0.8885  1.6017
   85MOL0     H11665   8.733   1.282   4.582 -0.0804  0.6154  0.5918
   85MOL0     H11666   8.761   1.267   4.761 -1.5578 -1.5489  1.5667
   85MOL0     H11667   8.847   1.065   4.749 -1.6767  4.0383  1.3618
   85MOL0     H11668   8.776   1.014   4.595  2.7460 -2.6500  0.6062
   85MOL0     H11669   8.930   1.162   4.480 -0.9613 -3.2367 -0.3841
   85MOL0     H11670   8.977   1.248   4.623  0.2043 -0.4698  0.6530
   85MOL0     H11671   9.049   0.974   4.529 -1.5184 -1.3903  1.0467
   85MOL0     H11672   9.076   1.009   4.699  1.5204  0.2136 -0.2632
   85MOL0     H11673   9.184   1.186   4.465 -0.4814  0.2509  0.2254
   85MOL0     H11674   9.227   1.209   4.630 -0.7987  1.5083 -1.7061
   85MOL0     H11675   9.409   1.111   4.497  1.1200  0.7424  1.2155
   85MOL0     H11676   9.325   0.968   4.473  1.6668 -0.2241 -0.0838
   85MOL0     H11677   9.322   1.049   4.759 -0.5232  0.6680  0.2715
   85MOL0     H11678   9.348   0.889   4.689 -0.3667  0.4905 -1.1706
   85MOL0     H11679   9.594   0.794   4.682  1.3031 -0.5032  0.4381
   85MOL0     H11680   9.808   0.762   4.805  1.9079 -0.1315 -2.7932
   85MOL0     H11681   9.863   0.891   4.912 -1.0774 -1.7636  1.2840
   85MOL0     H11682  10.019   0.786   4.760  1.3331  1.5347  0.8162
   85MOL0     H11683   9.937   0.868   4.614 -0.4230 -0.2691  0.2203
   85MOL0     H11684   9.980   1.079   4.752  1.2746  1.5208  0.8354
   85MOL0     H11685  10.070   0.990   4.870  1.8830  1.0679  0.1947
   85MOL0     H11686  10.231   0.896   4.676  0.7948  0.2481 -0.2347
   85MOL0     H11687  10.132   1.000   4.573  1.5705 -0.8559 -0.5412
   85MOL0     H11688  10.347   0.992   4.456  1.3015 -3.6368 -0.9158
   85MOL0     H11689  10.496   0.945   4.284 -0.2913  0.6358 -0.1326
   85MOL0     H11690  10.658   0.898   4.326  0.9960 -0.4155 -0.1451
   85MOL0     H11691  10.629   1.064   4.309  4.0361 -2.1485  0.5690
   85MOL0     H11692  11.004   0.886   4.940  1.4264 -3.6518  1.1476
   85MOL0     H11693  11.226   0.843   4.966  2.4892 -2.9377 -0.3899
   85MOL0     H11694  11.466   0.923   4.932  0.9420 -0.3430  1.0988
   85MOL0     H11695  11.435   0.757   4.986  0.7501  0.9173  1.6841
   85MOL0     H11696  11.632   0.678   4.849 -1.6872 -0.6962  1.0935
   85MOL0     H11697  11.677   0.847   4.826 -2.0305  1.4367  0.1837
   85MOL0     H11698  11.657   0.685   5.081 -0.6099  0.2300  0.1784
   85MOL0     H11699  11.656   0.858   5.093 -0.7198 -1.0117  1.0785
   85MOL0     H11700  11.875   0.813   5.146  1.7740 -1.2980  0.1219
   85MOL0     H11701  11.878   0.886   4.988  0.6408 -0.2065  1.3353
   85MOL0     H11702  11.880   0.586   5.042  2.5663 -0.6295  1.0292
   85MOL0     H11703  11.868   0.646   4.881  1.2036  1.3645 -0.6859
   85MOL0     H11704  12.112   0.773   4.996 -0.0809 -0.5548  1.6464
   85MOL0     H11705  12.090   0.650   4.879  2.4772 -2.7473  1.0128
   85MOL0     H11706  12.082   0.477   5.079  0.9982 -0.2799  0.7464
   85MOL0     H11707  12.086   0.608   5.192  0.1667  1.3263 -0.0340
   85MOL0     H11708  12.312   0.574   4.983  0.2203  1.6134 -0.1650
   85MOL0     H11709  12.304   0.503   5.149 -1.1189 -0.2590  0.8978
   85MOL0     H11710  11.282   0.774   4.557  2.1050  0.1816  1.2171
   85MOL0     H11711  11.043   0.827   4.519 -1.1727 -0.6691 -0.0487
   85MOL0     H11712  10.693   1.038   4.808  1.8529 -1.8599 -1.3106
   85MOL0     H11713  10.469   1.122   4.851  0.2840 -2.1232  0.4335
   85MOL0     H11714   8.369   1.080   4.696  2.4767  0.8841  0.2181
   85MOL0     H11715   8.150   1.023   4.774 -0.9870 -0.0332  0.3565
   85MOL0     H11716   7.783   1.199   5.131  1.3136 -1.5699  2.0225
   85MOL0     H11717   7.590   1.116   5.215 -2.0278 -0.8767 -1.0464
   85MOL0     H11718   7.548   0.871   5.342  0.2459  1.3780 -0.7068
   85MOL0     H11719   7.397   0.972   5.332 -4.6566 -2.3377  0.9894
   85MOL0     H11720   7.422   0.676   5.284  1.8579  1.5017 -0.8273
   85MOL0     H11721   7.270   0.769   5.254 -3.9705  0.6596  4.6819
   85MOL0     H11722   7.231   0.818   5.475  0.0454  0.2274  1.4291
   85MOL0     H11723   7.234   0.639   5.455  0.0740 -0.0967  0.5911
   85MOL0     H11724   7.352   0.714   5.662  1.5295 -0.2741  0.2332
   85MOL0     H11725   7.471   0.792   5.562 -1.7252  1.3390 -0.4616
   85MOL0     H11726   7.593   0.391   5.511  2.5076  0.3438  2.2632
   85MOL0     H11727   7.625   0.758   4.984  0.8316  0.5563 -1.8997
   85MOL0     H11728   7.971   0.794   4.904 -0.1256 -1.8615 -0.0520
   85MOL0     H11729   7.810   0.708   4.874  0.4070  0.4932 -0.4444
   85MOL0     H11730   7.853   0.857   4.783 -1.5524  0.9374 -0.0603
   86MOL0     O11731   5.419   6.408   0.115  0.5495  0.5633 -0.1511
   86MOL0     C11732   5.400   6.528   0.130  1.3806 -0.4297 -0.1081
   86MOL0     O11733   5.491   6.617   0.180 -0.1801 -0.1560  0.8500
   86MOL0     C11734   5.621   6.590   0.228  0.9461  0.0587 -0.2146
   86MOL0     C11735   5.693   6.477   0.216 -0.6666  0.4991 -0.2335
   86MOL0     C11736   5.827   6.468   0.258  0.0359  0.1521 -0.1907
   86MOL0     C11737   5.886   6.574   0.330 -0.3080  0.4569  0.7823
   86MOL0     O11738   6.013   6.558   0.372 -0.6679  0.1412 -0.6849
   86MOL0     C11739   6.108   6.657   0.339  0.6047  0.8790  0.2278
   86MOL0     C11740   6.137   6.664   0.190  0.5246 -0.7825  0.0756
   86MOL0     C11741   6.237   6.783   0.184 -0.2170 -0.0384 -0.6555
   86MOL0     C11742   6.263   6.826   0.038 -0.6943  0.9906  0.8135
   86MOL0     C11743   6.389   6.913   0.024 -0.6797  0.3615 -0.3044
   86MOL0     C11744   6.358   7.009  -0.096 -0.2870 -0.7511 -0.6048
   86MOL0     C11745   6.463   7.122  -0.108 -0.5797  0.1651  0.4903
   86MOL0     C11746   6.610   7.084  -0.085 -0.5608  0.3003 -0.1710
   86MOL0     N11747   6.664   7.007  -0.202  0.0365 -0.0635 -0.0716
   86MOL0     C11748   6.671   7.044  -0.334  0.7013  0.2529  0.0435
   86MOL0     C11749   6.733   6.936  -0.397  0.3138  1.2452  0.3068
   86MOL0     C11750   6.737   6.917  -0.546 -0.5862  0.7696 -0.6175
   86MOL0     C11751   6.866   6.979  -0.607 -0.4852 -0.3477 -1.1042
   86MOL0     C11752   6.874   6.980  -0.764  0.0918 -0.2705  0.7065
   86MOL0     C11753   6.978   7.079  -0.830 -0.0192 -0.3879 -0.7241
   86MOL0     O11754   7.093   7.060  -0.747  0.4581  0.0877  0.2826
   86MOL0     C11755   7.159   7.170  -0.714 -0.0742 -0.6361  0.3212
   86MOL0     C11756   7.129   7.250  -0.607 -1.3230 -1.0000 -0.1649
   86MOL0     C11757   7.214   7.355  -0.558 -0.8976 -0.7019 -0.0607
   86MOL0     C11758   7.172   7.421  -0.428  0.3551 -0.1142  0.3538
   86MOL0     C11759   7.327   7.380  -0.647  0.2975 -1.1911 -0.1190
   86MOL0     C11760   7.420   7.495  -0.607  0.2179 -0.8231  0.5796
   86MOL0     O11761   7.549   7.478  -0.653 -0.2457 -0.6451  0.6094
   86MOL0     C11762   7.650   7.551  -0.592 -0.1298 -0.1760 -0.3593
   86MOL0     C11763   7.729   7.634  -0.671  0.1974  0.4156 -0.1466
   86MOL0     C11764   7.832   7.717  -0.617  0.2493  0.2646 -0.3833
   86MOL0     C11765   7.862   7.705  -0.481  0.6808  0.1741 -0.6739
   86MOL0     O11766   7.960   7.777  -0.415  0.2831 -0.1648 -0.0082
   86MOL0     C11767   8.073   7.833  -0.482 -0.2366  0.6256 -0.7091
   86MOL0     C11768   8.157   7.902  -0.370  0.4983 -0.0346  0.5358
   86MOL0     C11769   8.284   7.969  -0.436 -0.6151 -0.6182 -0.4924
   86MOL0     C11770   8.391   8.009  -0.333 -0.3292  0.8244 -0.1060
   86MOL0     C11771   8.506   8.075  -0.406  0.0341  0.7269 -0.7101
   86MOL0     C11772   8.585   8.158  -0.296  0.0449 -0.4989  0.3040
   86MOL0     C11773   8.712   8.233  -0.354 -0.0968  0.0752 -0.7031
   86MOL0     C11774   8.827   8.128  -0.388 -0.2205 -0.2424  0.6944
   86MOL0    Cl11775   8.888   8.041  -0.253  0.0392  0.4243 -0.1188
   86MOL0     C11776   7.793   7.607  -0.404 -0.0685  1.0275 -0.6536
   86MOL0     C11777   7.681   7.531  -0.458 -0.4999 -0.0007 -0.5508
   86MOL0     O11778   7.379   7.591  -0.541  0.9604  0.0180 -0.9200
   86MOL0     C11779   7.361   7.301  -0.756 -0.0123  0.0897 -0.0819
   86MOL0     C11780   7.282   7.185  -0.783 -0.4785 -0.0661 -0.0890
   86MOL0     N11781   6.759   6.839  -0.303  0.5587 -0.4185 -0.4379
   86MOL0     N11782   6.717   6.884  -0.188  0.4157  0.0989  0.0587
   86MOL0     C11783   5.812   6.682   0.363  0.7321  0.2443  0.4117
   86MOL0     C11784   5.680   6.690   0.314  0.0235 -0.2314 -0.2518
   86MOL0     C11785   5.260   6.586   0.091 -0.1174 -1.4616 -0.4102
   86MOL0     C11786   5.246   6.726   0.108  0.5522 -0.2179  0.0201
   86MOL0     C11787   5.138   6.796   0.058 -0.4349  0.3463 -0.0807
   86MOL0     C11788   5.034   6.724   0.001 -0.7274  0.1863 -0.3051
   86MOL0     O11789   4.923   6.794  -0.043 -0.7033  0.4333  0.2586
   86MOL0     C11790   4.929   6.821  -0.187  0.3905  0.0161 -0.0365
   86MOL0     C11791   4.890   6.699  -0.276 -0.7895  0.4788  0.9097
   86MOL0     C11792   4.909   6.728  -0.427 -0.4713  0.8446 -0.1348
   86MOL0     C11793   4.863   6.599  -0.508 -0.4082 -0.0189 -0.4458
   86MOL0     C11794   4.719   6.575  -0.511 -0.5364  0.3508 -0.2600
   86MOL0     C11795   4.608   6.533  -0.493 -0.7959  0.1549 -0.0019
   86MOL0     C11796   5.042   6.577  -0.002 -0.1736 -0.4621  0.1566
   86MOL0     C11797   5.160   6.509   0.031 -0.3925 -0.3266 -0.2497
   86MOL0     C11798   5.160   6.344   0.014 -0.4188 -1.2570 -0.8882
   86MOL0     H11799   5.649   6.387   0.174  0.1245 -0.1758  0.3656
   86MOL0     H11800   5.885   6.379   0.236  0.4738  0.2983  0.3483
   86MOL0     H11801   6.203   6.637   0.389  0.4363  0.3087  0.3322
   86MOL0     H11802   6.089   6.758   0.377  2.9351  1.0335  1.0967
   86MOL0     H11803   6.192   6.575   0.158  0.5586 -1.6957  2.4501
   86MOL0     H11804   6.046   6.675   0.130  0.9358  0.2178 -0.3958
   86MOL0     H11805   6.196   6.868   0.238 -1.2966 -0.4688 -0.7617
   86MOL0     H11806   6.325   6.755   0.242 -0.9835 -1.4989 -0.1527
   86MOL0     H11807   6.280   6.733  -0.017  0.7286  0.8924  1.3725
   86MOL0     H11808   6.173   6.876   0.001 -0.5085  1.7893  1.4020
   86MOL0     H11809   6.473   6.846   0.007 -0.7598  0.6594 -2.0865
   86MOL0     H11810   6.402   6.967   0.118 -1.3455 -1.8198  1.1342
   86MOL0     H11811   6.359   6.953  -0.190 -0.2172  0.2179 -1.1971
   86MOL0     H11812   6.258   7.054  -0.095 -0.4555 -1.1294  0.7006
   86MOL0     H11813   6.431   7.204  -0.043 -0.1428  0.5698  0.1939
   86MOL0     H11814   6.454   7.165  -0.208 -0.8422 -3.0270 -0.9725
   86MOL0     H11815   6.675   7.172  -0.073 -0.9076  0.4280  0.9133
   86MOL0     H11816   6.620   7.024   0.006 -3.0911  0.9180  0.5947
   86MOL0     H11817   6.646   7.140  -0.378  1.2231  1.7956  2.8769
   86MOL0     H11818   6.663   6.986  -0.588 -0.1671  2.2410  0.9257
   86MOL0     H11819   6.723   6.812  -0.574  1.0939  0.0804  0.9238
   86MOL0     H11820   6.865   7.083  -0.573  1.4183 -0.7568  0.3353
   86MOL0     H11821   6.950   6.926  -0.561 -1.2793  0.1646  1.0405
   86MOL0     H11822   6.892   6.884  -0.813  1.3425  0.3411 -0.0923
   86MOL0     H11823   6.778   7.017  -0.800 -0.5639 -1.4123  1.2525
   86MOL0     H11824   6.994   7.040  -0.930 -1.5074 -1.7853 -0.4724
   86MOL0     H11825   6.936   7.180  -0.834  0.1499 -0.2008  1.1359
   86MOL0     H11826   7.047   7.215  -0.545  0.4709 -0.5344  2.6654
   86MOL0     H11827   7.183   7.529  -0.436  3.7119 -0.5118 -2.1920
   86MOL0     H11828   7.239   7.394  -0.346  1.3899  4.1878  1.1159
   86MOL0     H11829   7.065   7.404  -0.407 -0.4034  1.9974 -1.4319
   86MOL0     H11830   7.689   7.636  -0.772 -0.4184 -0.6159  0.0568
   86MOL0     H11831   7.887   7.785  -0.680 -1.1279  2.7858  0.9618
   86MOL0     H11832   8.132   7.757  -0.533  0.7599  2.4650 -2.4499
   86MOL0     H11833   8.044   7.908  -0.556  1.9984 -1.1251 -3.5626
   86MOL0     H11834   8.088   7.976  -0.329  1.3676 -0.2504  2.5112
   86MOL0     H11835   8.180   7.827  -0.294 -0.1543 -1.3178 -0.4807
   86MOL0     H11836   8.255   8.055  -0.496 -1.4865 -0.0694  0.6695
   86MOL0     H11837   8.335   7.890  -0.492  2.0427 -0.8527  2.0114
   86MOL0     H11838   8.423   7.924  -0.272 -1.2672 -0.4998 -1.3879
   86MOL0     H11839   8.350   8.077  -0.258 -1.8781 -0.5959  0.3821
   86MOL0     H11840   8.563   8.002  -0.464 -1.5086 -2.1821  1.1979
   86MOL0     H11841   8.465   8.141  -0.483  0.3108 -1.2299 -2.6267
   86MOL0     H11842   8.614   8.085  -0.219  0.5144  0.9856  1.5944
   86MOL0     H11843   8.522   8.234  -0.248 -0.6840  1.3392 -3.2317
   86MOL0     H11844   8.759   8.294  -0.277 -1.0852  4.3642 -3.2065
   86MOL0     H11845   8.680   8.296  -0.437  1.2282  0.9902 -0.5349
   86MOL0     H11846   8.914   8.180  -0.429  0.2332 -0.6981  1.0644
   86MOL0     H11847   8.802   8.052  -0.463 -0.0287 -1.0180  1.4020
   86MOL0     H11848   7.832   7.580  -0.307 -0.0804  1.2552 -0.5855
   86MOL0     H11849   7.635   7.456  -0.396 -0.6915  0.1926 -0.4576
   86MOL0     H11850   7.453   7.324  -0.808  1.8938 -3.4965  1.3366
   86MOL0     H11851   7.303   7.125  -0.871  0.4306 -0.7965  0.6017
   86MOL0     H11852   5.850   6.759   0.429  3.4250  0.9710 -1.7943
   86MOL0     H11853   5.628   6.782   0.340  0.9717  0.1886  0.1730
   86MOL0     H11854   5.316   6.791   0.159  2.6228 -2.8512  0.7771
   86MOL0     H11855   5.136   6.905   0.063  0.5607  0.3555  0.3033
   86MOL0     H11856   4.861   6.903  -0.212 -1.5338 -1.6651 -0.6345
   86MOL0     H11857   5.033   6.841  -0.213  0.4336  2.6745  1.7940
   86MOL0     H11858   4.785   6.682  -0.252 -0.8156  3.1913  3.1937
   86MOL0     H11859   4.950   6.609  -0.255  3.1221  2.5178 -0.5081
   86MOL0     H11860   4.853   6.814  -0.463 -0.6796 -0.8565 -4.5933
   86MOL0     H11861   5.015   6.752  -0.445 -0.0170 -1.8734 -1.7500
   86MOL0     H11862   4.911   6.509  -0.468 -0.1652  0.1622 -0.3253
   86MOL0     H11863   4.902   6.609  -0.610  2.3982  1.6728  0.6903
   86MOL0     H11864   4.513   6.504  -0.454 -0.4514  1.3873  1.8624
   86MOL0     H11865   4.961   6.527  -0.055 -0.7762  2.9827 -2.5370
   86MOL0     H11866   5.241   6.307  -0.049  1.0498  1.3094 -0.6406
   86MOL0     H11867   5.159   6.300   0.114 -4.6118  1.7044  0.6414
   86MOL0     H11868   5.068   6.297  -0.022 -0.6920 -0.9838 -0.5589
   87MOL0     O11869   5.359   4.573   9.294 -0.9766  0.1727  0.0828
   87MOL0     C11870   5.245   4.577   9.250 -0.3610  0.0524  0.1833
   87MOL0     O11871   5.176   4.684   9.215 -0.1347 -0.6314 -0.4127
   87MOL0     C11872   5.255   4.796   9.210  0.8245 -0.6963  0.7244
   87MOL0     C11873   5.215   4.912   9.285  0.1047  0.3250  0.1572
   87MOL0     C11874   5.283   5.031   9.265  0.0667  0.2819  0.3208
   87MOL0     C11875   5.390   5.036   9.173 -0.0595 -0.1432 -0.2687
   87MOL0     O11876   5.450   5.158   9.159  0.5728 -0.1659  0.1522
   87MOL0     C11877   5.595   5.144   9.184  0.6211 -0.2122 -0.3068
   87MOL0     C11878   5.684   5.262   9.116  0.2688 -0.2459  1.0089
   87MOL0     C11879   5.815   5.302   9.186 -0.1635 -0.1219 -0.3452
   87MOL0     C11880   5.899   5.394   9.088  0.2457  0.9377 -0.0702
   87MOL0     C11881   6.006   5.486   9.162  0.1776  0.0101 -0.2805
   87MOL0     C11882   6.067   5.415   9.278  0.0160  0.8798  0.6502
   87MOL0     C11883   6.197   5.495   9.316 -0.6440 -0.6047  0.8466
   87MOL0     C11884   6.254   5.439   9.456  0.3217 -0.2926  0.5882
   87MOL0     N11885   6.387   5.491   9.474 -0.6696  0.6456  0.5487
   87MOL0     C11886   6.457   5.577   9.398  0.0967  0.1373  0.2177
   87MOL0     C11887   6.574   5.566   9.459  0.3856  0.6856 -0.2684
   87MOL0     C11888   6.677   5.672   9.430  0.1319  0.3648  0.1677
   87MOL0     C11889   6.639   5.822   9.453  0.0799 -0.4247  0.0608
   87MOL0     C11890   6.747   5.921   9.403 -0.2142 -0.4915  0.6878
   87MOL0     C11891   6.888   5.894   9.480  0.0103 -0.3058  0.7536
   87MOL0     O11892   6.971   6.012   9.462  0.9181  0.4501 -0.3944
   87MOL0     C11893   7.089   6.017   9.533 -1.0896  0.1875 -0.8252
   87MOL0     C11894   7.164   5.905   9.571 -0.2169 -0.1437  0.5454
   87MOL0     C11895   7.286   5.921   9.652  0.9831  1.2635 -0.7703
   87MOL0     C11896   7.376   5.806   9.649 -1.1883 -0.6306  0.0996
   87MOL0     C11897   7.320   6.044   9.712  0.7393 -0.1651  0.2577
   87MOL0     C11898   7.425   6.066   9.818  0.0596  0.3153  0.3545
   87MOL0     O11899   7.466   6.194   9.845 -0.4952  0.4617 -0.4825
   87MOL0     C11900   7.568   6.208   9.931 -0.3324  0.0138  1.2008
   87MOL0     C11901   7.700   6.160   9.901 -0.1519 -0.8127  0.0359
   87MOL0     C11902   7.799   6.180   9.998 -0.3860 -0.7151  1.4399
   87MOL0     C11903   7.770   6.245  10.116 -0.3256 -0.2063  0.4299
   87MOL0     O11904   7.868   6.272  10.206  0.3461  0.1239 -0.4918
   87MOL0     C11905   7.930   6.157  10.273 -0.2453  0.5577  0.1237
   87MOL0     C11906   8.081   6.150  10.267  0.0533 -0.1732 -0.7628
   87MOL0     C11907   8.145   6.194  10.137 -0.4153  0.0498 -0.1344
   87MOL0     C11908   8.291   6.215  10.148 -0.1762  0.2084  0.3465
   87MOL0     C11909   8.364   6.084  10.161  0.2956  0.7054 -0.3003
   87MOL0     C11910   8.518   6.105  10.157 -0.1721  0.1537 -0.6449
   87MOL0     C11911   8.589   5.970  10.153  0.4560  0.7560  0.2409
   87MOL0     C11912   8.743   5.979  10.145  0.4577 -0.3696  0.2043
   87MOL0    Cl11913   8.787   6.047   9.977 -0.2086 -0.2657 -0.4283
   87MOL0     C11914   7.643   6.299  10.137  0.1839  0.0878 -0.0798
   87MOL0     C11915   7.542   6.283  10.045  0.2137 -0.0381  0.6538
   87MOL0     O11916   7.456   5.963   9.884  0.1058  0.8094  0.4223
   87MOL0     C11917   7.241   6.150   9.658 -0.0581  0.4181 -0.4090
   87MOL0     C11918   7.124   6.142   9.583 -0.3129 -0.9551  0.0369
   87MOL0     N11919   6.592   5.465   9.552  0.2888  0.6612 -0.4123
   87MOL0     N11920   6.471   5.417   9.561  0.6166  0.4409  0.2389
   87MOL0     C11921   5.417   4.931   9.090 -0.1838  0.5369  0.4189
   87MOL0     C11922   5.350   4.817   9.116 -0.5503  0.8508  0.0587
   87MOL0     C11923   5.163   4.453   9.244 -0.0461  0.0074 -0.2751
   87MOL0     C11924   5.017   4.460   9.234 -0.8714 -0.0985 -0.1422
   87MOL0     C11925   4.945   4.351   9.205  0.9201 -0.2606  0.1475
   87MOL0     C11926   4.991   4.228   9.183 -0.3026  0.5710  0.3856
   87MOL0     O11927   4.905   4.129   9.154 -0.6068  0.0476 -0.4917
   87MOL0     C11928   4.952   3.995   9.176 -0.9370 -0.4030  0.4768
   87MOL0     C11929   4.851   3.884   9.194 -0.2700 -0.4493 -0.2516
   87MOL0     C11930   4.760   3.905   9.316 -0.5794 -0.6696  0.8695
   87MOL0     C11931   4.677   3.778   9.338 -0.2184  0.8054  0.9888
   87MOL0     C11932   4.583   3.766   9.219  0.6732  1.0741 -0.0977
   87MOL0     C11933   4.513   3.769   9.119 -0.0088  0.3563 -0.0411
   87MOL0     C11934   5.130   4.218   9.189  0.3882  0.4051  0.2867
   87MOL0     C11935   5.220   4.329   9.213  0.0962  0.3259 -0.5081
   87MOL0     C11936   5.369   4.297   9.209  0.7833 -0.2863  0.4955
   87MOL0     H11937   5.135   4.914   9.358  0.3807  1.1085  0.4563
   87MOL0     H11938   5.240   5.125   9.298  1.5426  1.4284 -0.8589
   87MOL0     H11939   5.637   5.055   9.136  0.2006 -0.1372 -0.8214
   87MOL0     H11940   5.614   5.135   9.291 -0.6705 -2.4544 -0.2180
   87MOL0     H11941   5.710   5.219   9.018  3.9699  0.5857  1.4948
   87MOL0     H11942   5.624   5.352   9.100  0.3685 -0.5631 -1.7490
   87MOL0     H11943   5.789   5.364   9.272  3.7423  1.7602 -0.3137
   87MOL0     H11944   5.872   5.217   9.224 -1.3341 -0.3458  0.9850
   87MOL0     H11945   5.944   5.343   9.002  1.1449  2.1603 -0.3596
   87MOL0     H11946   5.834   5.472   9.047  1.9622  2.9827  0.9400
   87MOL0     H11947   5.965   5.578   9.206  0.6621  0.5184 -0.8728
   87MOL0     H11948   6.074   5.521   9.084 -0.0159 -1.9555 -1.4024
   87MOL0     H11949   5.997   5.402   9.361 -0.6275  0.5938  0.0674
   87MOL0     H11950   6.096   5.314   9.249 -0.9983  0.1368  2.1143
   87MOL0     H11951   6.177   5.600   9.339 -1.4745 -0.6704  0.4724
   87MOL0     H11952   6.273   5.477   9.239 -0.7702 -1.7522  0.9655
   87MOL0     H11953   6.193   5.456   9.545 -0.7992 -1.7390  0.1198
   87MOL0     H11954   6.254   5.331   9.437  2.2863  0.0470 -1.9455
   87MOL0     H11955   6.419   5.646   9.324  1.0049 -0.2389 -0.6319
   87MOL0     H11956   6.707   5.646   9.328  0.0968 -1.8091  0.6619
   87MOL0     H11957   6.765   5.663   9.493  2.4593 -1.2085 -3.0327
   87MOL0     H11958   6.552   5.850   9.393 -0.4728  0.8675  1.4172
   87MOL0     H11959   6.617   5.830   9.560  0.5572 -1.1678  0.2230
   87MOL0     H11960   6.747   5.923   9.293 -1.4405  2.6627  0.6306
   87MOL0     H11961   6.710   6.019   9.434  0.8983 -0.7616  3.0577
   87MOL0     H11962   6.854   5.894   9.584 -2.1935 -0.0241  0.1021
   87MOL0     H11963   6.933   5.801   9.446 -1.1117 -0.9521  0.9674
   87MOL0     H11964   7.139   5.810   9.525  0.2690 -0.3241  0.6479
   87MOL0     H11965   7.323   5.717   9.614 -2.3849 -0.0772  0.4501
   87MOL0     H11966   7.418   5.779   9.746  1.1155 -1.5722 -1.0878
   87MOL0     H11967   7.467   5.818   9.589 -0.0459 -0.1037  1.8634
   87MOL0     H11968   7.705   6.113   9.803  0.2960  2.1282 -1.4373
   87MOL0     H11969   7.903   6.152   9.985 -0.3336  0.1576 -0.3891
   87MOL0     H11970   7.899   6.157  10.378  0.5966 -1.0512  0.4043
   87MOL0     H11971   7.887   6.070  10.221  0.9307  1.0745 -1.8160
   87MOL0     H11972   8.115   6.222  10.342 -0.1077  2.2579 -2.8641
   87MOL0     H11973   8.107   6.047  10.290  0.8863 -0.1895 -1.7227
   87MOL0     H11974   8.097   6.287  10.106 -1.8265 -0.3241  0.8405
   87MOL0     H11975   8.123   6.117  10.062 -2.2749 -0.4703  0.9072
   87MOL0     H11976   8.306   6.264  10.245 -0.4059 -0.0348  0.5053
   87MOL0     H11977   8.338   6.280  10.074 -0.3526 -0.2780 -0.1915
   87MOL0     H11978   8.333   6.040  10.256 -2.2019  2.7959 -0.0227
   87MOL0     H11979   8.345   6.009  10.084  3.3489 -0.0136 -0.4888
   87MOL0     H11980   8.545   6.162  10.246 -1.4141  1.3781 -1.0028
   87MOL0     H11981   8.536   6.161  10.065 -2.6100 -1.0123 -1.9499
   87MOL0     H11982   8.548   5.914  10.069 -0.1986 -1.0426  1.6823
   87MOL0     H11983   8.563   5.906  10.238  0.8200  1.9745  1.2955
   87MOL0     H11984   8.788   5.880  10.158  1.9820  0.0576 -1.4227
   87MOL0     H11985   8.784   6.050  10.217  2.1533 -1.0373 -0.0428
   87MOL0     H11986   7.615   6.366  10.218 -0.6070 -0.0249 -0.2448
   87MOL0     H11987   7.446   6.330  10.061  1.0017  1.1076  2.2503
   87MOL0     H11988   7.270   6.247   9.697 -2.0558  1.0833 -0.4320
   87MOL0     H11989   7.080   6.238   9.555  2.1130 -0.0123 -0.8622
   87MOL0     H11990   5.487   4.938   9.007  2.2255  3.1876  2.4665
   87MOL0     H11991   5.378   4.729   9.059  3.6893  1.0008  1.5855
   87MOL0     H11992   4.970   4.553   9.264  0.4312  0.3403  0.6085
   87MOL0     H11993   4.839   4.365   9.185  1.1434 -2.9127 -4.2928
   87MOL0     H11994   5.016   3.969   9.091  0.1052  1.0169  0.7917
   87MOL0     H11995   5.013   3.992   9.266 -1.0788  1.2642  0.6685
   87MOL0     H11996   4.897   3.785   9.205 -2.3376 -1.4582 -0.2887
   87MOL0     H11997   4.782   3.884   9.109  1.5696  1.5384 -1.8904
   87MOL0     H11998   4.814   3.935   9.407 -1.7754 -0.0923  1.4040
   87MOL0     H11999   4.684   3.981   9.298  0.4855  0.1479 -0.3072
   87MOL0     H12000   4.629   3.773   9.436 -3.8819  1.3972 -0.6211
   87MOL0     H12001   4.751   3.698   9.333 -1.7660 -0.6940  0.9497
   87MOL0     H12002   4.433   3.763   9.047 -0.6924 -2.1381  0.8207
   87MOL0     H12003   5.174   4.120   9.171 -1.0440 -0.3244  0.5938
   87MOL0     H12004   5.409   4.332   9.305  0.4304  1.2337  0.1133
   87MOL0     H12005   5.395   4.191   9.200 -1.7252 -0.8330 -1.7358
   87MOL0     H12006   5.417   4.352   9.127  0.2547 -0.1380  0.2778
   88MOL0     O12007   6.106   3.012   6.531  0.3069 -1.3535  0.8383
   88MOL0     C12008   6.067   2.967   6.638  0.7249 -0.0756  0.4748
   88MOL0     O12009   6.148   2.916   6.741  0.2193  0.2150  0.4180
   88MOL0     C12010   6.281   2.900   6.736  0.4988  0.5781 -0.1962
   88MOL0     C12011   6.375   2.953   6.649  0.1608  0.0492 -0.3896
   88MOL0     C12012   6.514   2.927   6.660 -0.3267 -0.8086  0.5602
   88MOL0     C12013   6.563   2.844   6.765  0.1736  0.2547 -0.3230
   88MOL0     O12014   6.700   2.825   6.790 -0.1267 -0.1064  0.0689
   88MOL0     C12015   6.734   2.712   6.871 -0.1005  0.1967 -0.7183
   88MOL0     C12016   6.892   2.678   6.883 -0.0931 -1.3562 -0.0574
   88MOL0     C12017   6.957   2.790   6.956 -0.3894 -0.0845 -0.0213
   88MOL0     C12018   7.094   2.801   6.914 -0.0056 -1.0236  0.1555
   88MOL0     C12019   7.179   2.907   6.978  0.7127 -0.1417  0.8326
   88MOL0     C12020   7.314   2.923   6.908 -0.3374  0.2581 -0.0963
   88MOL0     C12021   7.427   3.004   6.978  0.4363  0.4513 -0.4151
   88MOL0     C12022   7.487   2.946   7.103  0.3882 -0.0764  0.8379
   88MOL0     N12023   7.600   3.030   7.153  0.4582 -0.2662 -0.4008
   88MOL0     C12024   7.584   3.118   7.261  0.5391 -0.1816  0.0793
   88MOL0     C12025   7.706   3.177   7.273 -0.0457  0.3283  0.4521
   88MOL0     C12026   7.740   3.265   7.391  0.0341  0.0052  0.2588
   88MOL0     C12027   7.892   3.261   7.430  0.0734  0.0376  0.2657
   88MOL0     C12028   7.935   3.132   7.491  0.2825 -0.5660  0.5096
   88MOL0     C12029   7.918   3.138   7.641 -0.5815 -0.4590  0.5699
   88MOL0     O12030   8.009   3.229   7.700 -0.1408  0.0708 -0.4651
   88MOL0     C12031   8.143   3.181   7.718  0.1415  0.0942  0.0160
   88MOL0     C12032   8.170   3.073   7.806  0.6129 -0.6778  0.0998
   88MOL0     C12033   8.293   3.009   7.793  0.3738  0.5230  0.1250
   88MOL0     C12034   8.309   2.870   7.852  0.6363 -0.1464  0.4740
   88MOL0     C12035   8.397   3.055   7.702  0.3124 -0.7767 -1.1736
   88MOL0     C12036   8.535   2.983   7.688  0.6875 -0.6902 -0.6958
   88MOL0     O12037   8.579   2.887   7.770  0.1148 -0.0422 -0.5410
   88MOL0     C12038   8.705   2.845   7.776 -0.3739  0.1302 -0.5282
   88MOL0     C12039   8.802   2.859   7.682  0.8133  0.6513  0.5896
   88MOL0     C12040   8.934   2.812   7.699  0.5778 -0.0399  0.4206
   88MOL0     C12041   8.974   2.749   7.817  0.1114  1.2744 -0.2636
   88MOL0     O12042   9.087   2.675   7.827 -0.6131 -0.1289 -0.4081
   88MOL0     C12043   9.191   2.716   7.921 -0.5369  0.5537 -0.0814
   88MOL0     C12044   9.327   2.651   7.886  0.0648  0.5183  0.1880
   88MOL0     C12045   9.426   2.704   7.990 -0.2605  0.0890  0.8732
   88MOL0     C12046   9.565   2.663   7.945  0.0481 -0.5866  0.2879
   88MOL0     C12047   9.671   2.697   8.067  0.4153  0.7937  0.0951
   88MOL0     C12048   9.694   2.846   8.097  0.1734 -0.4645  0.5880
   88MOL0     C12049   9.731   2.930   7.965  0.2016  0.1123  0.5476
   88MOL0     C12050   9.846   2.859   7.886  0.2481 -0.1937  0.0678
   88MOL0    Cl12051   9.987   2.850   7.987 -0.2531 -0.0994 -0.0582
   88MOL0     C12052   8.871   2.722   7.911 -0.5010  0.3536  0.6207
   88MOL0     C12053   8.740   2.771   7.889 -0.3246  0.4316  0.1958
   88MOL0     O12054   8.605   3.052   7.610  0.1717  0.4647 -0.5390
   88MOL0     C12055   8.368   3.178   7.637 -0.6005  0.4422  0.5859
   88MOL0     C12056   8.239   3.244   7.634 -1.2613  0.6139 -0.9446
   88MOL0     N12057   7.794   3.132   7.176  0.5023  0.2261  0.9467
   88MOL0     N12058   7.734   3.043   7.106 -0.1673  0.2268  0.2300
   88MOL0     C12059   6.468   2.801   6.860 -0.1597  0.0359  0.3265
   88MOL0     C12060   6.332   2.823   6.844  0.8743  0.1688  0.6476
   88MOL0     C12061   5.920   2.974   6.664  0.8071 -0.4702  0.3378
   88MOL0     C12062   5.868   2.914   6.781 -0.9998 -0.7123  0.0734
   88MOL0     C12063   5.739   2.926   6.825  0.0348  0.6661  1.4508
   88MOL0     C12064   5.648   2.996   6.746 -0.2773  0.0309 -0.2998
   88MOL0     O12065   5.522   3.000   6.787 -0.0800 -0.2962  0.3370
   88MOL0     C12066   5.421   3.099   6.746 -0.1787 -0.1169 -0.6540
   88MOL0     C12067   5.275   3.079   6.798 -0.8328  0.0322  0.1866
   88MOL0     C12068   5.192   3.204   6.760  0.0094  0.9581  0.3796
   88MOL0     C12069   5.038   3.169   6.764 -0.4171 -0.2356 -0.0454
   88MOL0     C12070   5.000   3.109   6.630  0.0696  0.1225  0.9366
   88MOL0     C12071   4.968   3.063   6.519 -0.5745 -0.0818  0.3136
   88MOL0     C12072   5.692   3.063   6.633  0.1849 -0.2369 -0.7034
   88MOL0     C12073   5.827   3.050   6.581  0.6490 -0.6763  0.7337
   88MOL0     C12074   5.856   3.123   6.451 -0.3104 -0.2118 -0.7464
   88MOL0     H12075   6.335   3.020   6.573 -1.0823  0.7911  0.8721
   88MOL0     H12076   6.579   2.956   6.578 -2.1025 -3.9693 -2.2261
   88MOL0     H12077   6.681   2.621   6.844  0.2449  0.1199 -1.1614
   88MOL0     H12078   6.711   2.726   6.977  2.1590 -0.0054 -0.1442
   88MOL0     H12079   6.897   2.582   6.936  2.2778 -1.2399  0.0348
   88MOL0     H12080   6.925   2.677   6.779 -0.2478  0.2180 -0.1395
   88MOL0     H12081   6.902   2.883   6.940  0.0964  0.0505 -0.9773
   88MOL0     H12082   6.960   2.757   7.060  2.6348  0.0457  0.0244
   88MOL0     H12083   7.151   2.708   6.913  0.3562 -0.8094  0.2777
   88MOL0     H12084   7.097   2.833   6.809  0.3838  0.2344  0.5226
   88MOL0     H12085   7.187   2.904   7.087  0.1856 -0.3631  0.8679
   88MOL0     H12086   7.134   3.006   6.964  0.8490 -0.2123 -0.1884
   88MOL0     H12087   7.353   2.822   6.892  1.2991  0.7859  0.3800
   88MOL0     H12088   7.304   2.974   6.812  1.8432 -2.3701 -1.8421
   88MOL0     H12089   7.393   3.102   7.014 -3.4107 -0.8966  0.0805
   88MOL0     H12090   7.510   3.011   6.907  0.5755  0.7930 -0.2234
   88MOL0     H12091   7.412   2.927   7.181 -0.3668  0.7353  0.3309
   88MOL0     H12092   7.528   2.849   7.074  2.3203  0.8139  0.4140
   88MOL0     H12093   7.496   3.124   7.324 -1.2343  0.6400 -2.2959
   88MOL0     H12094   7.681   3.247   7.481 -0.2960 -0.4328 -0.0459
   88MOL0     H12095   7.713   3.368   7.365  0.4303 -0.1103 -0.6649
   88MOL0     H12096   7.956   3.286   7.345  2.8570  0.9069  2.4622
   88MOL0     H12097   7.913   3.346   7.496 -0.3028  0.0414  0.3837
   88MOL0     H12098   7.874   3.056   7.442  1.8002 -0.9332 -0.8502
   88MOL0     H12099   8.040   3.114   7.469 -0.2657  0.6907 -4.0581
   88MOL0     H12100   7.816   3.168   7.663  0.1921  1.9984  1.1323
   88MOL0     H12101   7.942   3.036   7.674 -0.5761 -0.6400  0.0187
   88MOL0     H12102   8.087   3.030   7.861  0.0399  1.5283  1.0420
   88MOL0     H12103   8.319   2.799   7.769 -0.8716 -0.5354  0.5971
   88MOL0     H12104   8.226   2.831   7.912  0.7460 -1.0064  0.0918
   88MOL0     H12105   8.398   2.859   7.914  2.9533 -1.4824 -2.8016
   88MOL0     H12106   8.780   2.905   7.587  0.7578 -1.0142 -0.2496
   88MOL0     H12107   9.004   2.815   7.617  0.6172 -1.9334  0.3458
   88MOL0     H12108   9.203   2.823   7.940 -0.7357  0.7890 -1.2298
   88MOL0     H12109   9.161   2.678   8.019 -1.5149  0.3598 -0.4410
   88MOL0     H12110   9.325   2.542   7.872  2.2630  0.3657  0.7470
   88MOL0     H12111   9.362   2.700   7.795  2.7876  0.8737  1.3518
   88MOL0     H12112   9.408   2.658   8.087  0.8875  2.4132  2.2896
   88MOL0     H12113   9.423   2.813   7.999  0.4130  0.1503  0.4434
   88MOL0     H12114   9.596   2.716   7.855 -1.3921 -0.4370 -0.1492
   88MOL0     H12115   9.561   2.555   7.928 -0.3413 -0.8731  2.0539
   88MOL0     H12116   9.629   2.654   8.159 -1.1082  1.1305 -0.4168
   88MOL0     H12117   9.766   2.648   8.045  0.1495  0.1355  0.3852
   88MOL0     H12118   9.774   2.853   8.172  0.7396 -2.4216  0.2196
   88MOL0     H12119   9.600   2.883   8.141  1.9578  2.5290  2.1872
   88MOL0     H12120   9.768   3.025   8.004  1.1357 -0.9487  2.3498
   88MOL0     H12121   9.644   2.946   7.900  1.6412 -0.8442 -1.7416
   88MOL0     H12122   9.868   2.916   7.795  0.3592  0.8804  0.7489
   88MOL0     H12123   9.824   2.756   7.856 -0.8779  0.5293 -1.8142
   88MOL0     H12124   8.887   2.653   7.993 -3.3089 -0.6258  0.4594
   88MOL0     H12125   8.674   2.742   7.969 -1.7117  5.3554  1.1761
   88MOL0     H12126   8.441   3.226   7.572 -1.0879  0.0245 -0.3007
   88MOL0     H12127   8.229   3.337   7.580  0.7581  2.6435  1.8806
   88MOL0     H12128   6.490   2.745   6.950 -0.2817  1.8998  1.5500
   88MOL0     H12129   6.267   2.785   6.922  2.3536  1.6427  2.7292
   88MOL0     H12130   5.929   2.859   6.852  1.0535  0.4505 -0.6961
   88MOL0     H12131   5.712   2.890   6.924 -1.1328 -0.4810  0.7547
   88MOL0     H12132   5.463   3.197   6.772  2.0773 -1.3369  0.6089
   88MOL0     H12133   5.422   3.101   6.636 -0.3851  1.3304 -0.6430
   88MOL0     H12134   5.285   3.075   6.907  2.3181 -1.8026 -0.0317
   88MOL0     H12135   5.240   2.980   6.765  0.1455 -0.9888  2.0374
   88MOL0     H12136   5.225   3.282   6.829  2.2504 -0.3205  0.8432
   88MOL0     H12137   5.224   3.232   6.660  0.3748 -1.5069 -0.2654
   88MOL0     H12138   4.985   3.261   6.788  0.1874  0.5853 -1.7008
   88MOL0     H12139   5.022   3.092   6.840 -0.6596 -2.0261 -1.8000
   88MOL0     H12140   4.931   3.036   6.421 -1.7546  0.5294  0.5679
   88MOL0     H12141   5.619   3.124   6.581 -0.4224  0.3348  0.7684
   88MOL0     H12142   5.909   3.059   6.380 -0.0946 -0.9850  0.0956
   88MOL0     H12143   5.760   3.151   6.408 -1.6031 -0.4590  1.7918
   88MOL0     H12144   5.922   3.206   6.479  0.7195 -1.7873  1.8295
   89MOL0     O12145   3.326  11.353   7.812  0.0394 -0.1523  0.9368
   89MOL0     C12146   3.295  11.240   7.841  0.3169 -0.2252  0.0180
   89MOL0     O12147   3.381  11.128   7.836 -0.1764 -0.2515  0.1534
   89MOL0     C12148   3.511  11.153   7.855 -0.1088  0.2930  0.1557
   89MOL0     C12149   3.549  11.194   7.983 -0.1041  0.2441  0.9331
   89MOL0     C12150   3.682  11.213   8.015  0.0464  0.1114  0.1770
   89MOL0     C12151   3.779  11.183   7.918  0.6118  0.5790 -0.7327
   89MOL0     O12152   3.912  11.179   7.951  0.4015 -0.4008 -0.2173
   89MOL0     C12153   3.997  11.238   7.847  0.6432  0.3484  0.3605
   89MOL0     C12154   4.100  11.334   7.902  0.1986 -1.1339  0.4281
   89MOL0     C12155   4.213  11.265   7.976  0.1607  0.1408 -0.0309
   89MOL0     C12156   4.322  11.365   8.018  0.3220 -0.0933 -0.9251
   89MOL0     C12157   4.439  11.277   8.068  0.2965  0.8216  0.2017
   89MOL0     C12158   4.553  11.351   8.148  0.3278  0.4431  0.7387
   89MOL0     C12159   4.654  11.243   8.202  0.2621  0.4023 -0.3192
   89MOL0     C12160   4.755  11.206   8.088 -0.1865  0.8120  0.7852
   89MOL0     N12161   4.838  11.094   8.124  0.7455 -0.1041 -0.0170
   89MOL0     C12162   4.974  11.077   8.089 -0.4832  0.1248  0.0887
   89MOL0     C12163   4.997  10.940   8.115  0.3836  0.0960  0.0252
   89MOL0     C12164   5.133  10.882   8.107 -0.0328 -0.0269 -0.3093
   89MOL0     C12165   5.218  10.888   8.229  0.0433 -0.0025  0.0983
   89MOL0     C12166   5.362  10.834   8.213 -0.8495 -0.3650  0.4013
   89MOL0     C12167   5.448  10.916   8.125 -0.4516 -0.1126  0.2746
   89MOL0     O12168   5.580  10.869   8.136 -0.0986 -0.6136 -0.6739
   89MOL0     C12169   5.675  10.961   8.169 -0.4678 -0.3420 -0.0055
   89MOL0     C12170   5.683  11.107   8.160  0.4639 -0.2561 -0.3022
   89MOL0     C12171   5.801  11.177   8.190  0.7372  0.6606  0.2926
   89MOL0     C12172   5.798  11.320   8.174  0.4425  0.3175 -0.0373
   89MOL0     C12173   5.911  11.106   8.242 -0.0114 -0.1163  0.0081
   89MOL0     C12174   6.037  11.168   8.290  0.3927  0.4661  0.2752
   89MOL0     O12175   6.146  11.087   8.278  0.2419 -0.1692  0.0444
   89MOL0     C12176   6.264  11.102   8.345  0.1415 -0.2806 -0.4012
   89MOL0     C12177   6.363  11.017   8.294 -0.1481 -1.1322 -0.3661
   89MOL0     C12178   6.492  11.009   8.354 -0.5880  0.0951  0.5736
   89MOL0     C12179   6.526  11.093   8.460 -0.4502  0.1716 -0.2584
   89MOL0     O12180   6.664  11.086   8.502 -0.0020  0.2136  0.7293
   89MOL0     C12181   6.713  11.180   8.602 -0.3443  0.1362 -0.4194
   89MOL0     C12182   6.697  11.124   8.737 -0.4693  0.3233  0.5104
   89MOL0     C12183   6.768  11.215   8.833 -0.1673  0.0342 -0.2240
   89MOL0     C12184   6.729  11.161   8.977  0.6889 -1.1333 -0.8355
   89MOL0     C12185   6.774  11.240   9.098 -0.3802 -1.1973  0.0546
   89MOL0     C12186   6.685  11.200   9.219  0.2245 -0.5479  0.5512
   89MOL0     C12187   6.669  11.316   9.325 -0.1573 -0.2521  0.5696
   89MOL0     C12188   6.805  11.376   9.360  0.2016 -0.2020 -0.6069
   89MOL0    Cl12189   6.781  11.443   9.527 -0.1431 -0.2254 -0.0543
   89MOL0     C12190   6.421  11.169   8.512  0.1332  0.2582  0.0810
   89MOL0     C12191   6.292  11.177   8.456 -0.5215 -0.3533  0.8096
   89MOL0     O12192   6.038  11.278   8.348 -0.2840 -0.1395  0.2675
   89MOL0     C12193   5.906  10.967   8.252  0.0339 -0.5824 -0.1018
   89MOL0     C12194   5.790  10.897   8.210 -0.7402 -0.4266  0.7318
   89MOL0     N12195   4.879  10.886   8.158  0.1844 -0.8632  0.3185
   89MOL0     N12196   4.786  10.980   8.171 -0.3004  0.3911  0.3655
   89MOL0     C12197   3.738  11.144   7.790  0.5351 -0.4907 -0.0049
   89MOL0     C12198   3.604  11.119   7.750 -0.3806 -1.0101 -0.1886
   89MOL0     C12199   3.158  11.221   7.890  0.6294  0.2679 -0.2761
   89MOL0     C12200   3.062  11.319   7.838  0.5217  0.7641 -0.2946
   89MOL0     C12201   2.929  11.306   7.863 -0.1454 -0.2156  0.2612
   89MOL0     C12202   2.879  11.202   7.945 -0.3339  0.4991  0.1527
   89MOL0     O12203   2.745  11.181   7.969  0.4854  1.1704 -0.3331
   89MOL0     C12204   2.653  11.276   7.905  1.3803  0.1301  0.2203
   89MOL0     C12205   2.511  11.234   7.929 -0.2345  0.6307 -0.1020
   89MOL0     C12206   2.414  11.350   7.916 -0.0441  0.6169 -0.0876
   89MOL0     C12207   2.281  11.290   7.942  0.2462 -0.3333  0.4721
   89MOL0     C12208   2.239  11.196   7.842 -0.3653 -0.4151  1.2916
   89MOL0     C12209   2.200  11.117   7.762  0.0224  0.5469 -0.5617
   89MOL0     C12210   2.967  11.106   7.988 -0.9214  0.2775 -0.2817
   89MOL0     C12211   3.107  11.105   7.967 -0.5040 -0.6910  0.0025
   89MOL0     C12212   3.193  10.990   8.007  0.9339 -0.5900 -0.1250
   89MOL0     H12213   3.468  11.212   8.053 -1.6524 -0.1187 -0.6855
   89MOL0     H12214   3.712  11.246   8.114  1.0056 -1.5609  0.4853
   89MOL0     H12215   3.938  11.288   7.770 -1.9136 -0.3464  1.7425
   89MOL0     H12216   4.048  11.157   7.794 -2.0158 -1.1071 -0.1308
   89MOL0     H12217   4.129  11.389   7.812 -0.3585 -1.4168  0.0722
   89MOL0     H12218   4.062  11.408   7.973 -2.8304  0.0818 -2.1946
   89MOL0     H12219   4.166  11.220   8.064  0.7792 -1.1413 -0.3393
   89MOL0     H12220   4.258  11.187   7.914 -2.3574 -0.3482 -1.3866
   89MOL0     H12221   4.368  11.417   7.934  1.0726  0.3944 -0.2338
   89MOL0     H12222   4.290  11.430   8.100 -1.0751 -2.4939  0.5439
   89MOL0     H12223   4.486  11.225   7.984  1.2832  0.9417  0.6602
   89MOL0     H12224   4.400  11.192   8.124  0.0858  0.1259 -0.9678
   89MOL0     H12225   4.606  11.423   8.085 -1.9387  1.1237 -0.4956
   89MOL0     H12226   4.507  11.404   8.231 -1.0855 -0.7518  0.7553
   89MOL0     H12227   4.603  11.158   8.248  2.0889 -0.1151  0.8892
   89MOL0     H12228   4.701  11.286   8.291 -0.4644 -0.3896  0.4700
   89MOL0     H12229   4.704  11.182   7.994  0.8017  1.6453  0.0144
   89MOL0     H12230   4.818  11.294   8.077 -0.7815  1.1578 -0.0164
   89MOL0     H12231   5.034  11.161   8.059 -2.8318  3.1152  3.0204
   89MOL0     H12232   5.177  10.947   8.031 -2.2401  0.7473 -0.9929
   89MOL0     H12233   5.124  10.778   8.074 -1.5513 -0.0906  0.2477
   89MOL0     H12234   5.233  10.989   8.270 -0.7248 -0.1335  0.7282
   89MOL0     H12235   5.170  10.826   8.305 -1.7798  0.9362 -0.2320
   89MOL0     H12236   5.409  10.842   8.311  0.8199 -0.3801 -0.3646
   89MOL0     H12237   5.364  10.732   8.174  1.8130  0.2088 -1.2707
   89MOL0     H12238   5.411  10.916   8.022  1.6747 -2.2264 -0.5653
   89MOL0     H12239   5.436  11.013   8.174 -0.1266 -0.2357  0.6043
   89MOL0     H12240   5.596  11.161   8.125 -0.3946 -1.1955  0.3295
   89MOL0     H12241   5.895  11.351   8.132  1.0314  0.6629  1.5229
   89MOL0     H12242   5.784  11.378   8.266  2.5574 -0.5508  0.8780
   89MOL0     H12243   5.724  11.346   8.098 -1.1011 -1.4308  0.8003
   89MOL0     H12244   6.336  10.957   8.208  0.3667 -2.0061  0.0727
   89MOL0     H12245   6.562  10.937   8.313 -1.1626  0.7162 -1.6328
   89MOL0     H12246   6.819  11.193   8.581 -0.2722  0.6215  0.2170
   89MOL0     H12247   6.663  11.277   8.592  2.6015  2.0450  1.6817
   89MOL0     H12248   6.591  11.114   8.761 -0.3591  0.6803  1.1680
   89MOL0     H12249   6.737  11.023   8.741 -1.5243 -0.1205  0.1623
   89MOL0     H12250   6.734  11.317   8.814 -0.1179 -0.3581 -2.7867
   89MOL0     H12251   6.877  11.210   8.825 -0.0540  0.3161  1.0610
   89MOL0     H12252   6.754  11.056   8.997  0.6656 -1.0957 -0.6083
   89MOL0     H12253   6.620  11.166   8.980  0.6937 -0.5272  2.6738
   89MOL0     H12254   6.875  11.205   9.117  0.5560  0.9607 -0.5770
   89MOL0     H12255   6.778  11.348   9.077  1.8518 -1.2464  0.0723
   89MOL0     H12256   6.726  11.114   9.272  3.4597  0.5133  0.0194
   89MOL0     H12257   6.585  11.174   9.184  0.5007 -2.8457  1.3255
   89MOL0     H12258   6.626  11.275   9.416 -0.1089 -0.4627  0.5011
   89MOL0     H12259   6.606  11.398   9.290  0.6487  0.1350 -0.0259
   89MOL0     H12260   6.824  11.453   9.285 -1.4110  0.4913 -0.3402
   89MOL0     H12261   6.893  11.312   9.374 -0.9429 -1.6033  0.5945
   89MOL0     H12262   6.434  11.230   8.601 -0.4542  2.0709 -1.0364
   89MOL0     H12263   6.219  11.240   8.507 -0.0600  1.1890 -0.3601
   89MOL0     H12264   5.993  10.923   8.300  0.8926  1.9358  0.8474
   89MOL0     H12265   5.798  10.791   8.232  1.4397 -0.0058  2.2548
   89MOL0     H12266   3.798  11.119   7.703 -3.7280 -0.0700 -3.4181
   89MOL0     H12267   3.572  11.068   7.660 -1.4419 -0.9620  0.1440
   89MOL0     H12268   3.098  11.391   7.765 -1.5825 -0.5461 -2.7694
   89MOL0     H12269   2.871  11.392   7.829  1.4503  0.5315 -0.7236
   89MOL0     H12270   2.675  11.375   7.946  1.6370 -0.2725  1.0605
   89MOL0     H12271   2.663  11.282   7.796  3.5552 -1.3464  0.2815
   89MOL0     H12272   2.507  11.186   8.028  1.8627  0.4479 -0.0663
   89MOL0     H12273   2.489  11.160   7.852  1.0232  2.0294 -1.8760
   89MOL0     H12274   2.440  11.433   7.982  1.1358 -0.5897  1.0144
   89MOL0     H12275   2.409  11.402   7.820 -2.1611  2.6829  1.0385
   89MOL0     H12276   2.206  11.369   7.932 -0.3068 -1.1248 -3.1077
   89MOL0     H12277   2.264  11.247   8.042 -4.4502 -3.2757 -1.2351
   89MOL0     H12278   2.173  11.039   7.694  0.1072 -0.1103  0.1470
   89MOL0     H12279   2.927  11.024   8.046  0.5925  0.7395  1.5321
   89MOL0     H12280   3.260  11.017   8.089  2.0535  0.1538 -1.2411
   89MOL0     H12281   3.121  10.912   8.032  0.3557  0.4499  1.6610
   89MOL0     H12282   3.246  10.952   7.919 -1.6118 -0.0927 -1.9849
   90MOL0     O12283   9.468  11.305   3.623 -0.6619 -0.0072 -0.5277
   90MOL0     C12284   9.357  11.305   3.575  0.1767 -1.0256  0.6531
   90MOL0     O12285   9.243  11.252   3.628 -0.1290  0.8513 -0.3328
   90MOL0     C12286   9.228  11.232   3.769 -0.0861  0.3057 -1.1829
   90MOL0     C12287   9.328  11.259   3.863  0.4773  0.3648 -0.8425
   90MOL0     C12288   9.294  11.256   4.000  0.0359 -0.1716 -0.5720
   90MOL0     C12289   9.164  11.229   4.038  0.6439 -0.0205 -0.7461
   90MOL0     O12290   9.140  11.225   4.174  0.2541  0.4587  0.0309
   90MOL0     C12291   9.121  11.094   4.226 -0.0287 -0.4119  0.3217
   90MOL0     C12292   9.153  11.102   4.378  0.9695  0.3500  0.3616
   90MOL0     C12293   9.299  11.098   4.402  0.5990  0.1761 -0.2219
   90MOL0     C12294   9.321  11.156   4.541 -1.0982 -0.0624 -0.6354
   90MOL0     C12295   9.464  11.181   4.584 -1.1990 -0.5106  0.0511
   90MOL0     C12296   9.543  11.292   4.506 -0.4508  1.1879  0.0858
   90MOL0     C12297   9.667  11.329   4.580 -0.1590 -0.7036  0.5199
   90MOL0     C12298   9.758  11.418   4.495 -0.4740 -0.0601 -0.3360
   90MOL0     N12299   9.883  11.452   4.565 -0.3211 -0.3919 -0.4611
   90MOL0     C12300   9.982  11.539   4.521  0.1822  0.5365  0.2447
   90MOL0     C12301  10.098  11.512   4.601 -0.6658 -0.2151  0.5921
   90MOL0     C12302  10.236  11.578   4.596  0.9228  0.3678 -0.7882
   90MOL0     C12303  10.280  11.590   4.453  0.1049  0.1465 -0.4779
   90MOL0     C12304  10.411  11.660   4.438 -0.6490  0.1511  0.8357
   90MOL0     C12305  10.525  11.608   4.527  1.0202  0.3068  0.3188
   90MOL0     O12306  10.655  11.665   4.495 -0.5354 -0.1674 -0.3080
   90MOL0     C12307  10.766  11.603   4.555 -0.4226 -0.2526 -0.9593
   90MOL0     C12308  10.773  11.504   4.648 -0.7102  0.4555 -0.7031
   90MOL0     C12309  10.898  11.460   4.700 -0.1996  0.3624  0.3498
   90MOL0     C12310  10.886  11.350   4.806 -0.1567 -0.3185 -0.6868
   90MOL0     C12311  11.024  11.507   4.650  0.3198 -0.3628  0.6057
   90MOL0     C12312  11.162  11.454   4.674 -0.0719  0.8097  0.1137
   90MOL0     O12313  11.266  11.521   4.628 -0.0232  0.9301 -0.1724
   90MOL0     C12314  11.388  11.495   4.680  1.3085  1.0756 -0.3822
   90MOL0     C12315  11.415  11.485   4.819 -0.0867  0.1434 -0.0948
   90MOL0     C12316  11.544  11.462   4.863 -0.8598 -0.1571  0.6630
   90MOL0     C12317  11.657  11.445   4.785  0.1804 -0.7739 -0.6741
   90MOL0     O12318  11.779  11.452   4.854 -0.1911  0.2632  0.2124
   90MOL0     C12319  11.894  11.442   4.769  0.7088 -0.0669  0.5234
   90MOL0     C12320  12.017  11.462   4.856 -0.6049  0.0176  0.4052
   90MOL0     C12321  12.148  11.450   4.775 -0.2278 -0.0735 -0.9808
   90MOL0     C12322  12.269  11.470   4.860  0.1712  0.3224 -0.7398
   90MOL0     C12323  12.403  11.441   4.786  1.0959 -0.4350 -0.9011
   90MOL0     C12324  12.520  11.451   4.875  0.2400 -0.1091 -0.1572
   90MOL0     C12325  12.648  11.470   4.799 -0.5046 -0.0795 -0.2877
   90MOL0     C12326  12.668  11.344   4.712 -0.6148  0.4141 -0.0115
   90MOL0    Cl12327  12.829  11.344   4.630 -0.4110  0.0735 -0.2651
   90MOL0     C12328  11.632  11.465   4.652  0.5028  0.5221  0.3183
   90MOL0     C12329  11.499  11.484   4.595  0.3907  0.3846  0.0121
   90MOL0     O12330  11.174  11.342   4.734 -0.2820  0.0891  0.1183
   90MOL0     C12331  11.012  11.601   4.545 -0.1406  0.3755  0.5732
   90MOL0     C12332  10.884  11.644   4.503 -0.1788 -0.0940 -0.3775
   90MOL0     N12333  10.058  11.405   4.692 -0.0464 -0.1094 -0.9069
   90MOL0     N12334   9.932  11.380   4.669  0.2819  0.4115 -0.0939
   90MOL0     C12335   9.074  11.185   3.945  0.5871 -0.3893  0.0495
   90MOL0     C12336   9.097  11.198   3.812 -0.3370 -0.7545  0.8997
   90MOL0     C12337   9.341  11.349   3.435 -0.4833 -0.2271  0.3314
   90MOL0     C12338   9.247  11.277   3.358 -0.2928  0.5152 -1.0802
   90MOL0     C12339   9.236  11.299   3.224  0.9653 -1.0288  0.4481
   90MOL0     C12340   9.313  11.396   3.159 -1.0313 -0.7539 -0.0987
   90MOL0     O12341   9.292  11.404   3.021  0.2698 -0.2734  1.1741
   90MOL0     C12342   9.337  11.524   2.952  0.2495 -0.0486  1.1142
   90MOL0     C12343   9.318  11.503   2.796  0.2466 -0.0354  0.4072
   90MOL0     C12344   9.329  11.633   2.715 -0.2661 -0.5931 -1.1236
   90MOL0     C12345   9.327  11.601   2.564  0.1036 -0.5120  0.5311
   90MOL0     C12346   9.445  11.525   2.520  0.9246 -0.2580  0.3892
   90MOL0     C12347   9.547  11.495   2.470  0.9930 -0.4854  0.8800
   90MOL0     C12348   9.402  11.476   3.237 -1.0304  0.5605  0.3870
   90MOL0     C12349   9.409  11.453   3.378 -0.4105 -0.0368 -0.2563
   90MOL0     C12350   9.494  11.548   3.459 -0.4114  1.1564 -0.2964
   90MOL0     H12351   9.430  11.294   3.849  0.6557  0.8921  1.5176
   90MOL0     H12352   9.356  11.305   4.074 -0.4094  2.2874 -1.7186
   90MOL0     H12353   9.183  11.022   4.173  2.1050  0.0131  2.0552
   90MOL0     H12354   9.018  11.065   4.201  0.2516  0.1753 -1.6871
   90MOL0     H12355   9.101  11.188   4.422  1.1652 -0.0285  1.3625
   90MOL0     H12356   9.102  11.018   4.426  0.3051  1.9342  2.6457
   90MOL0     H12357   9.345  11.002   4.379 -1.3277 -0.3525 -2.2047
   90MOL0     H12358   9.352  11.165   4.333 -0.0201  3.4792  2.2071
   90MOL0     H12359   9.272  11.251   4.560  0.3856  0.7464 -0.6624
   90MOL0     H12360   9.292  11.081   4.615  0.3327  0.2064  0.2484
   90MOL0     H12361   9.522  11.089   4.567 -0.2345  0.2165 -0.6944
   90MOL0     H12362   9.469  11.213   4.688  0.0076  1.2900 -0.5053
   90MOL0     H12363   9.564  11.257   4.405 -0.2337  0.7744  0.2729
   90MOL0     H12364   9.478  11.378   4.485 -0.9634  1.1214  1.3384
   90MOL0     H12365   9.726  11.237   4.592  0.3492 -0.4703 -0.1406
   90MOL0     H12366   9.643  11.371   4.678 -0.2109 -0.3906  0.3730
   90MOL0     H12367   9.797  11.363   4.409  0.4102  0.8235 -0.5094
   90MOL0     H12368   9.701  11.507   4.468  1.2665  1.4082  0.6227
   90MOL0     H12369   9.972  11.612   4.441 -1.9071 -1.3038 -1.2966
   90MOL0     H12370  10.304  11.511   4.649 -0.2774 -0.8102 -0.7062
   90MOL0     H12371  10.228  11.673   4.650 -0.1617 -1.3834  2.3756
   90MOL0     H12372  10.283  11.490   4.409 -2.8965 -1.1864  1.9362
   90MOL0     H12373  10.210  11.649   4.393  0.1627  2.2428  1.3606
   90MOL0     H12374  10.436  11.652   4.331 -1.2562  0.5061  0.6621
   90MOL0     H12375  10.395  11.767   4.454  1.1079  0.1585  2.9047
   90MOL0     H12376  10.505  11.640   4.630 -1.4551 -2.5920  0.9023
   90MOL0     H12377  10.525  11.498   4.526  0.2104  0.3010 -0.8048
   90MOL0     H12378  10.683  11.458   4.688  0.9810 -1.6896  0.8774
   90MOL0     H12379  10.972  11.342   4.873 -1.2346 -3.9146  0.4925
   90MOL0     H12380  10.876  11.256   4.750 -0.4797 -1.1842  0.7617
   90MOL0     H12381  10.803  11.356   4.876 -0.3691 -0.6730 -0.9039
   90MOL0     H12382  11.342  11.497   4.899  1.1324  0.2613  1.0284
   90MOL0     H12383  11.558  11.460   4.970 -0.3320 -0.4632  0.5921
   90MOL0     H12384  11.892  11.343   4.723  0.5467  0.4414 -0.5865
   90MOL0     H12385  11.891  11.521   4.694 -2.9927 -0.5428 -0.0412
   90MOL0     H12386  12.015  11.563   4.898 -1.3759 -0.7889  2.4235
   90MOL0     H12387  12.022  11.389   4.937 -1.0072 -0.0068  0.4096
   90MOL0     H12388  12.141  11.512   4.685 -4.8444 -0.8188 -1.3805
   90MOL0     H12389  12.158  11.350   4.731 -2.5470 -0.9325  0.2519
   90MOL0     H12390  12.260  11.394   4.938 -0.4569  0.0036 -1.1136
   90MOL0     H12391  12.265  11.566   4.912 -0.5732 -0.8192  1.4452
   90MOL0     H12392  12.382  11.343   4.742 -3.8037 -0.2684  0.5599
   90MOL0     H12393  12.420  11.508   4.701 -0.4429 -0.1660 -1.0215
   90MOL0     H12394  12.521  11.365   4.942 -1.1329 -1.4511 -1.7742
   90MOL0     H12395  12.504  11.541   4.935  1.6171  0.0679 -0.0033
   90MOL0     H12396  12.734  11.468   4.867 -0.6504  2.8679  0.0988
   90MOL0     H12397  12.651  11.568   4.751 -0.3250  1.1370  2.1169
   90MOL0     H12398  12.596  11.350   4.630  1.4372  1.1562 -1.8547
   90MOL0     H12399  12.654  11.247   4.760 -2.0725 -1.0163 -3.0657
   90MOL0     H12400  11.717  11.451   4.585  0.3539 -0.1213  0.2514
   90MOL0     H12401  11.495  11.479   4.487  3.0949  0.2612 -0.1490
   90MOL0     H12402  11.101  11.647   4.504 -0.0534 -0.2361  0.0820
   90MOL0     H12403  10.883  11.719   4.424 -0.6309  2.5250  1.9430
   90MOL0     H12404   8.978  11.143   3.975  0.9189 -1.5995 -0.5381
   90MOL0     H12405   9.014  11.173   3.747 -0.1336 -1.7055  0.9784
   90MOL0     H12406   9.188  11.200   3.407  1.0260 -0.6300 -1.2569
   90MOL0     H12407   9.172  11.236   3.162  1.7373  0.4727 -1.9941
   90MOL0     H12408   9.294  11.620   2.981  1.1675  1.7460 -2.8380
   90MOL0     H12409   9.445  11.539   2.963  0.9419  0.2847 -3.9385
   90MOL0     H12410   9.213  11.473   2.786 -0.4880  2.4230  0.0690
   90MOL0     H12411   9.377  11.416   2.767 -0.3747 -0.7920  1.3507
   90MOL0     H12412   9.249  11.701   2.746 -0.3028  0.1188 -2.6586
   90MOL0     H12413   9.423  11.683   2.741  1.1342 -3.5631 -0.0306
   90MOL0     H12414   9.320  11.690   2.501 -0.5788 -1.1809 -0.3620
   90MOL0     H12415   9.243  11.537   2.535  2.1536 -2.6646 -1.0113
   90MOL0     H12416   9.642  11.462   2.433 -0.0858 -0.7511 -1.9860
   90MOL0     H12417   9.464  11.555   3.195  1.4927 -0.8292  1.2534
   90MOL0     H12418   9.439  11.575   3.549  1.9962 -0.8604  1.9599
   90MOL0     H12419   9.597  11.515   3.476  0.1580  2.3503 -1.2754
   90MOL0     H12420   9.518  11.645   3.414  1.4843  0.6525 -0.4799
   91MOL0     O12421   9.975   8.705   4.153  0.6314  0.7813 -0.0029
   91MOL0     C12422   9.990   8.679   4.273  0.8657 -0.7992  0.0916
   91MOL0     O12423  10.108   8.652   4.332  0.0959  0.6944 -0.5483
   91MOL0     C12424  10.222   8.633   4.264  0.6226 -0.0733 -0.3494
   91MOL0     C12425  10.340   8.699   4.307  0.8369  0.5936  0.1399
   91MOL0     C12426  10.465   8.668   4.247  0.2760 -0.4001 -0.2414
   91MOL0     C12427  10.468   8.574   4.139 -0.1056  0.2145  0.1784
   91MOL0     O12428  10.594   8.543   4.083  0.3369  0.0464  0.4206
   91MOL0     C12429  10.615   8.427   4.003 -0.0355 -0.2460  0.1741
   91MOL0     C12430  10.760   8.423   3.969 -0.2229 -0.9661  1.0793
   91MOL0     C12431  10.826   8.292   3.919  1.1583  0.5960 -0.6834
   91MOL0     C12432  10.970   8.263   3.962 -0.0706 -0.6389 -0.0431
   91MOL0     C12433  11.066   8.337   3.872  0.5231  0.1620 -0.2226
   91MOL0     C12434  11.209   8.327   3.925  0.1453  0.5679 -0.2786
   91MOL0     C12435  11.309   8.387   3.830 -0.3687 -0.0941 -0.7658
   91MOL0     C12436  11.442   8.323   3.852 -0.0476 -0.2819  0.0965
   91MOL0     N12437  11.541   8.361   3.753 -0.6246 -0.3463  0.2229
   91MOL0     C12438  11.625   8.277   3.679 -1.0498 -0.1607 -0.0104
   91MOL0     C12439  11.733   8.354   3.640 -1.1376  0.6903 -0.0182
   91MOL0     C12440  11.867   8.318   3.571  0.4979  0.0059 -0.6720
   91MOL0     C12441  11.851   8.303   3.411 -0.3482 -0.0972 -0.0503
   91MOL0     C12442  11.977   8.263   3.348  0.1752 -0.0810 -0.4339
   91MOL0     C12443  12.084   8.372   3.347  0.1029 -0.8590  0.0879
   91MOL0     O12444  12.191   8.318   3.276 -0.1981  0.8578  0.4581
   91MOL0     C12445  12.305   8.399   3.259 -0.8763  0.2166 -0.1523
   91MOL0     C12446  12.430   8.347   3.223 -0.2659  0.9326  0.0541
   91MOL0     C12447  12.545   8.418   3.204 -1.0668 -0.1366  0.7654
   91MOL0     C12448  12.675   8.349   3.165 -0.6832 -0.5778  0.1437
   91MOL0     C12449  12.534   8.559   3.215  0.1400  1.1491  0.4714
   91MOL0     C12450  12.642   8.659   3.208  0.5104  0.6018 -0.2923
   91MOL0     O12451  12.608   8.786   3.203 -0.3351 -0.7593  0.1041
   91MOL0     C12452  12.704   8.884   3.183  0.6896  0.2067 -0.1030
   91MOL0     C12453  12.793   8.877   3.079 -1.0095  1.3267 -0.1347
   91MOL0     C12454  12.886   8.982   3.059  0.4192 -0.0727 -0.1329
   91MOL0     C12455  12.887   9.094   3.143  0.1991 -0.1048  0.3549
   91MOL0     O12456  12.991   9.179   3.119 -0.1618 -0.4576 -0.0363
   91MOL0     C12457  13.022   9.286   3.215 -0.1143  0.5733  0.2294
   91MOL0     C12458  13.127   9.385   3.161  0.5157  0.6032 -0.3159
   91MOL0     C12459  13.188   9.458   3.275  0.0471  0.5769  0.0061
   91MOL0     C12460  13.286   9.554   3.212  0.0030 -0.0471 -0.8893
   91MOL0     C12461  13.347   9.644   3.318 -0.2273 -0.3471 -0.3207
   91MOL0     C12462  13.449   9.738   3.247  0.4276  0.7778 -0.3431
   91MOL0     C12463  13.547   9.791   3.354 -0.5511  0.0597 -0.4580
   91MOL0     C12464  13.483   9.898   3.438 -0.2646  0.6470 -0.2046
   91MOL0    Cl12465  13.610   9.973   3.536  0.0936 -0.0977 -0.5316
   91MOL0     C12466  12.789   9.099   3.247  0.6435 -1.0490 -0.2780
   91MOL0     C12467  12.698   9.000   3.265 -0.1395  0.3432  0.4032
   91MOL0     O12468  12.755   8.621   3.217 -0.9693  0.1878 -0.5334
   91MOL0     C12469  12.406   8.613   3.232 -0.0318 -0.3837  0.0336
   91MOL0     C12470  12.296   8.541   3.262  0.9950  0.5842  0.3059
   91MOL0     N12471  11.710   8.484   3.687 -0.2004  0.2464  0.3508
   91MOL0     N12472  11.603   8.483   3.753  0.8794 -0.1698  0.1233
   91MOL0     C12473  10.349   8.525   4.087 -0.7360  0.6434 -0.3858
   91MOL0     C12474  10.227   8.551   4.153  0.4800 -0.1176 -0.3259
   91MOL0     C12475   9.868   8.665   4.364 -0.7118 -0.6051 -0.1255
   91MOL0     C12476   9.883   8.605   4.491 -0.0048  0.2315  0.0951
   91MOL0     C12477   9.773   8.586   4.574 -0.2377  0.1665 -0.5174
   91MOL0     C12478   9.643   8.627   4.543  0.1376 -0.4689  0.6519
   91MOL0     O12479   9.523   8.592   4.602 -0.2050  0.5765  0.1182
   91MOL0     C12480   9.526   8.498   4.709 -0.7549 -0.4479 -0.8459
   91MOL0     C12481   9.385   8.448   4.710  0.4988 -0.4072  0.8151
   91MOL0     C12482   9.383   8.287   4.723  0.2864  0.5428 -0.7066
   91MOL0     C12483   9.469   8.236   4.845  0.5476 -0.0269 -0.5397
   91MOL0     C12484   9.411   8.255   4.980  0.4151  0.0503 -0.2416
   91MOL0     C12485   9.369   8.261   5.096  0.1002  0.0549  0.1920
   91MOL0     C12486   9.636   8.694   4.423 -0.3832  0.0386  0.1043
   91MOL0     C12487   9.736   8.713   4.329 -0.5085  0.4602 -0.1485
   91MOL0     C12488   9.715   8.783   4.205  0.4785  0.4612  0.0630
   91MOL0     H12489  10.336   8.780   4.379 -0.4591  1.6954 -1.0883
   91MOL0     H12490  10.553   8.731   4.263 -0.8953  1.5037 -0.9634
   91MOL0     H12491  10.554   8.440   3.913 -0.3783  3.2532  0.7632
   91MOL0     H12492  10.585   8.339   4.060 -0.1075 -0.8045 -0.6945
   91MOL0     H12493  10.765   8.490   3.882 -2.1603 -2.2278 -0.0611
   91MOL0     H12494  10.821   8.471   4.046 -0.0389  1.8573 -0.6402
   91MOL0     H12495  10.757   8.214   3.951 -0.8142  1.9776 -1.3753
   91MOL0     H12496  10.818   8.292   3.810  0.2469  2.4831 -0.6589
   91MOL0     H12497  10.989   8.280   4.068  2.7797 -0.6556 -0.4686
   91MOL0     H12498  10.982   8.155   3.949 -1.3470 -1.5778  4.7660
   91MOL0     H12499  11.056   8.446   3.866  2.4031  0.3715 -0.3665
   91MOL0     H12500  11.059   8.289   3.774 -0.0930 -0.0659 -0.0705
   91MOL0     H12501  11.230   8.381   4.017 -2.3821 -0.8573  1.2554
   91MOL0     H12502  11.235   8.223   3.945 -1.0268  0.4821  0.9468
   91MOL0     H12503  11.317   8.495   3.847 -3.2560  0.0025  0.8091
   91MOL0     H12504  11.272   8.375   3.728 -3.0292  4.2593 -0.5597
   91MOL0     H12505  11.471   8.348   3.954  1.7771  0.2454 -0.5185
   91MOL0     H12506  11.438   8.214   3.847 -1.7693 -0.3077  1.0764
   91MOL0     H12507  11.610   8.170   3.673 -0.8214 -0.1156 -3.1137
   91MOL0     H12508  11.896   8.218   3.606  0.3216  0.1946  0.0343
   91MOL0     H12509  11.947   8.388   3.596 -0.6113  1.5250 -1.2303
   91MOL0     H12510  11.786   8.214   3.405 -1.6197  0.7428  0.8507
   91MOL0     H12511  11.806   8.386   3.356  1.4322 -0.0118 -1.4635
   91MOL0     H12512  12.019   8.179   3.403 -1.2003  1.0039  2.4487
   91MOL0     H12513  11.960   8.230   3.245  0.2398 -1.8142  0.0949
   91MOL0     H12514  12.058   8.472   3.312  2.1803  0.3278  1.6485
   91MOL0     H12515  12.106   8.390   3.453 -0.4545  0.7539 -0.0527
   91MOL0     H12516  12.428   8.242   3.198 -0.2556  1.2203 -1.2139
   91MOL0     H12517  12.642   8.254   3.123 -0.7419  0.3293 -1.9479
   91MOL0     H12518  12.758   8.337   3.236  0.0786  1.5691 -0.3013
   91MOL0     H12519  12.726   8.391   3.079 -1.5947 -0.7861 -0.5113
   91MOL0     H12520  12.792   8.801   3.001  0.5787 -0.1937  1.2476
   91MOL0     H12521  12.960   8.979   2.979 -0.5847  2.2381 -1.2328
   91MOL0     H12522  12.927   9.339   3.229  0.4028  2.7027 -3.1302
   91MOL0     H12523  13.061   9.246   3.308 -1.7317 -0.3885  0.5265
   91MOL0     H12524  13.205   9.326   3.113 -0.6160 -0.4649 -0.8965
   91MOL0     H12525  13.073   9.454   3.095 -1.6560 -0.9264 -0.2463
   91MOL0     H12526  13.240   9.392   3.346 -1.9742 -1.3955 -0.2255
   91MOL0     H12527  13.110   9.510   3.330 -0.7332  0.3741 -0.8844
   91MOL0     H12528  13.251   9.632   3.144 -0.8463  0.8376  0.5044
   91MOL0     H12529  13.365   9.501   3.159  1.2784  1.7066 -0.8293
   91MOL0     H12530  13.274   9.698   3.378  0.9155  1.6422 -0.6384
   91MOL0     H12531  13.396   9.579   3.391 -0.0648  1.2749  1.0707
   91MOL0     H12532  13.398   9.819   3.195 -0.9933 -0.2256 -0.5617
   91MOL0     H12533  13.503   9.686   3.167  0.2445  0.6292 -0.3702
   91MOL0     H12534  13.622   9.841   3.293 -2.4619  1.2692 -1.9336
   91MOL0     H12535  13.599   9.712   3.410 -1.9152 -3.0413 -3.2073
   91MOL0     H12536  13.404   9.860   3.503  1.3673 -1.4362  0.6543
   91MOL0     H12537  13.423   9.968   3.378 -2.3583 -0.7848  0.1092
   91MOL0     H12538  12.789   9.193   3.302  1.6662  1.2166 -3.8026
   91MOL0     H12539  12.631   9.001   3.350 -1.4258 -0.6271 -0.5660
   91MOL0     H12540  12.388   8.720   3.234  0.5486 -0.2849  1.2982
   91MOL0     H12541  12.213   8.609   3.272  1.3407  1.4458 -2.0318
   91MOL0     H12542  10.346   8.450   4.009 -1.1340  0.5847 -0.3150
   91MOL0     H12543  10.147   8.493   4.108  0.8894 -0.1165 -1.0619
   91MOL0     H12544   9.983   8.577   4.523 -0.1375 -0.5246 -0.1201
   91MOL0     H12545   9.800   8.522   4.658 -0.8100  1.9898  1.1326
   91MOL0     H12546   9.595   8.416   4.687 -2.1623 -2.1308  0.6554
   91MOL0     H12547   9.556   8.545   4.803 -0.2649 -0.9763 -0.7321
   91MOL0     H12548   9.347   8.456   4.608  2.5667 -0.2337  0.0109
   91MOL0     H12549   9.316   8.506   4.771 -0.7272  0.0737 -0.9469
   91MOL0     H12550   9.286   8.244   4.751  1.0343 -0.7213  0.0340
   91MOL0     H12551   9.421   8.253   4.626  0.0116 -2.0400  0.0160
   91MOL0     H12552   9.566   8.286   4.842  0.7183 -0.3335 -0.1143
   91MOL0     H12553   9.492   8.130   4.833  2.4371  0.4192 -1.2809
   91MOL0     H12554   9.335   8.259   5.198  3.3295  2.3696  1.4795
   91MOL0     H12555   9.540   8.730   4.387  0.9640  0.9415 -2.8403
   91MOL0     H12556   9.740   8.714   4.123 -0.8215  0.9278 -0.7744
   91MOL0     H12557   9.609   8.809   4.196  0.2124 -0.6188 -0.1028
   91MOL0     H12558   9.759   8.883   4.200  0.8751  0.5246  3.2165
   92MOL0     O12559   3.006   9.996   3.811  0.4459  0.3560  0.9087
   92MOL0     C12560   2.912   9.949   3.749  0.5436 -0.1312  0.2086
   92MOL0     O12561   2.908   9.828   3.699  0.7585 -0.3893 -0.1469
   92MOL0     C12562   3.016   9.751   3.680 -0.1182 -0.0186 -0.4894
   92MOL0     C12563   3.030   9.694   3.548 -0.1592 -1.1730  0.6594
   92MOL0     C12564   3.132   9.607   3.526  0.9442  0.4766 -0.2216
   92MOL0     C12565   3.213   9.564   3.628  0.7773 -0.3053 -0.0608
   92MOL0     O12566   3.304   9.469   3.580  0.0991 -0.3923 -0.3202
   92MOL0     C12567   3.360   9.369   3.658 -0.4171 -0.0830 -0.1921
   92MOL0     C12568   3.252   9.272   3.703 -0.5650 -0.6371  0.0423
   92MOL0     C12569   3.164   9.216   3.590  0.2452  0.4207 -1.2309
   92MOL0     C12570   3.224   9.120   3.478 -0.5831  0.3039 -0.2708
   92MOL0     C12571   3.113   9.021   3.423  0.9645  0.2918 -0.0043
   92MOL0     C12572   3.056   8.918   3.525  0.5544  0.5482  0.1068
   92MOL0     C12573   2.952   8.824   3.437  0.2700 -0.2616 -0.1797
   92MOL0     C12574   2.865   8.719   3.519 -0.7919 -0.6008  0.7860
   92MOL0     N12575   2.869   8.582   3.471 -0.2380  0.2273 -0.1635
   92MOL0     C12576   2.774   8.486   3.487 -0.0244  0.0143 -0.4890
   92MOL0     C12577   2.821   8.375   3.434 -0.0396 -1.1622 -0.2985
   92MOL0     C12578   2.725   8.257   3.412 -0.7894 -0.1120  0.0867
   92MOL0     C12579   2.777   8.172   3.297 -0.3529 -0.7782 -0.1037
   92MOL0     C12580   2.754   8.026   3.319  0.3244  0.0614 -0.0379
   92MOL0     C12581   2.607   7.985   3.309  0.7446  0.5702 -0.5404
   92MOL0     O12582   2.609   7.845   3.282 -0.1230 -0.2394 -0.3431
   92MOL0     C12583   2.532   7.817   3.171  0.2143  0.2860  0.1515
   92MOL0     C12584   2.600   7.787   3.053  0.3224  1.1490  0.7263
   92MOL0     C12585   2.522   7.729   2.952  0.3362 -0.0051 -0.9951
   92MOL0     C12586   2.597   7.706   2.818  0.0776 -0.1232  0.0454
   92MOL0     C12587   2.380   7.717   2.953  0.7826  0.0247 -1.1152
   92MOL0     C12588   2.284   7.680   2.835  0.2196 -0.1218 -0.6369
   92MOL0     O12589   2.145   7.653   2.863  0.1058  0.5525  0.1005
   92MOL0     C12590   2.052   7.586   2.785 -0.4954  0.2393 -0.2094
   92MOL0     C12591   2.092   7.517   2.672 -0.0431 -0.5794  0.2778
   92MOL0     C12592   1.980   7.459   2.599 -1.2467  0.9915  0.0418
   92MOL0     C12593   1.844   7.467   2.638 -0.1241  1.5205  0.6335
   92MOL0     O12594   1.749   7.401   2.558 -0.1711 -0.2737  0.5248
   92MOL0     C12595   1.622   7.382   2.614  0.0788 -0.4032 -0.5133
   92MOL0     C12596   1.539   7.288   2.528  0.1881  0.0362 -0.8585
   92MOL0     C12597   1.500   7.331   2.382 -0.1245  1.3583  0.5505
   92MOL0     C12598   1.432   7.459   2.382 -0.3089  0.7447  0.3548
   92MOL0     C12599   1.398   7.499   2.234  0.0588  0.1149 -0.5733
   92MOL0     C12600   1.318   7.633   2.225 -0.5027  0.9087 -0.2796
   92MOL0     C12601   1.235   7.661   2.102 -0.5831 -0.1556  0.2721
   92MOL0     C12602   1.309   7.654   1.970 -0.1594  0.9611 -0.0641
   92MOL0    Cl12603   1.214   7.717   1.833  0.1685  0.0568 -0.2668
   92MOL0     C12604   1.820   7.546   2.746 -0.2244 -0.5100  0.1406
   92MOL0     C12605   1.925   7.598   2.822 -0.5751 -0.6744  0.4968
   92MOL0     O12606   2.332   7.687   2.726 -0.0191 -0.3452 -0.1816
   92MOL0     C12607   2.317   7.732   3.080  0.8221 -0.3829  0.0485
   92MOL0     C12608   2.397   7.780   3.182  0.0788  1.1467 -0.2786
   92MOL0     N12609   2.956   8.396   3.408  0.1481 -0.3358 -0.1746
   92MOL0     N12610   2.983   8.522   3.426  0.5612 -0.4495 -0.1773
   92MOL0     C12611   3.211   9.635   3.749 -0.3312  0.7494 -0.0667
   92MOL0     C12612   3.113   9.727   3.781  0.1211  0.1558 -0.6234
   92MOL0     C12613   2.780  10.036   3.740 -0.1346 -0.1901 -0.2652
   92MOL0     C12614   2.792  10.177   3.772  0.7438 -0.6682  0.0960
   92MOL0     C12615   2.678  10.256   3.775 -0.2349 -0.6376  0.9625
   92MOL0     C12616   2.555  10.208   3.733  0.3571  0.0851 -0.1438
   92MOL0     O12617   2.438  10.277   3.706  0.1083 -0.2054 -0.0930
   92MOL0     C12618   2.444  10.418   3.701 -0.3099 -0.3306 -0.4708
   92MOL0     C12619   2.342  10.481   3.605 -1.0123  0.4209 -0.6290
   92MOL0     C12620   2.201  10.462   3.651 -1.1925  0.0599 -0.1369
   92MOL0     C12621   2.143  10.323   3.602 -0.0212 -0.1507 -0.3190
   92MOL0     C12622   2.000  10.316   3.596 -0.9062  0.0564 -0.5683
   92MOL0     C12623   1.883  10.306   3.599  0.4202  0.7015  0.0520
   92MOL0     C12624   2.544  10.072   3.707 -0.0707  0.4920  0.7549
   92MOL0     C12625   2.656   9.983   3.706  0.2758 -0.3784  0.4074
   92MOL0     C12626   2.629   9.845   3.657 -0.5963  0.5053  0.4129
   92MOL0     H12627   2.963   9.726   3.469 -0.3371 -0.6345  1.0260
   92MOL0     H12628   3.140   9.561   3.428 -0.9508  1.0601 -0.6957
   92MOL0     H12629   3.421   9.410   3.738  2.0240  0.0125 -2.0008
   92MOL0     H12630   3.434   9.309   3.606  1.2230  1.3579  0.3856
   92MOL0     H12631   3.313   9.194   3.749 -0.4860  0.9726  2.9249
   92MOL0     H12632   3.181   9.321   3.769 -0.9892 -0.9343 -0.1922
   92MOL0     H12633   3.075   9.168   3.633 -1.0327  2.0455 -1.9635
   92MOL0     H12634   3.122   9.304   3.542  0.6269  1.5537  0.4120
   92MOL0     H12635   3.264   9.180   3.396 -0.0786 -0.3732 -0.5346
   92MOL0     H12636   3.309   9.059   3.512  0.0550  1.0844 -0.4480
   92MOL0     H12637   3.157   8.963   3.341 -0.5337 -1.6809  0.5140
   92MOL0     H12638   3.026   9.074   3.384 -1.7732 -1.7395  2.8492
   92MOL0     H12639   3.122   8.849   3.579 -1.2429 -0.6089  0.8978
   92MOL0     H12640   3.005   8.973   3.605  3.9205  3.5806  0.4312
   92MOL0     H12641   3.003   8.775   3.355 -0.1155  2.5973 -2.2951
   92MOL0     H12642   2.877   8.890   3.392  0.8719  0.0602 -0.7240
   92MOL0     H12643   2.915   8.719   3.616 -1.6811  2.7319  1.3891
   92MOL0     H12644   2.764   8.761   3.528 -0.9500 -0.6267 -0.6304
   92MOL0     H12645   2.670   8.498   3.517  0.0437  0.4208 -0.4132
   92MOL0     H12646   2.622   8.292   3.396  0.5905  4.6988  0.1702
   92MOL0     H12647   2.739   8.198   3.502  0.2553  1.3449  0.9244
   92MOL0     H12648   2.741   8.204   3.199  1.9830 -0.5678 -0.9388
   92MOL0     H12649   2.884   8.191   3.298 -0.4332 -0.1883  2.3038
   92MOL0     H12650   2.809   7.981   3.235  1.3743  3.1785 -1.1512
   92MOL0     H12651   2.804   7.998   3.412 -1.2849 -1.9217  0.3171
   92MOL0     H12652   2.546   8.010   3.396 -0.1468  0.2533 -1.0539
   92MOL0     H12653   2.574   8.049   3.226 -2.1317 -0.9197 -0.6912
   92MOL0     H12654   2.703   7.819   3.038  0.3865  0.7786  0.3658
   92MOL0     H12655   2.705   7.726   2.824  0.1449 -0.6802  1.0858
   92MOL0     H12656   2.567   7.768   2.734  1.5016  0.3985 -0.1095
   92MOL0     H12657   2.582   7.604   2.780 -1.9978  0.6836 -1.4312
   92MOL0     H12658   2.192   7.523   2.630  0.1364  0.5959  0.8276
   92MOL0     H12659   1.994   7.404   2.507 -2.8107 -0.0211  0.3661
   92MOL0     H12660   1.644   7.340   2.713  3.8037  2.3199  0.0548
   92MOL0     H12661   1.579   7.482   2.624  0.9114 -0.1817  1.4122
   92MOL0     H12662   1.591   7.193   2.514 -0.9318 -0.5989 -0.8440
   92MOL0     H12663   1.452   7.271   2.592  1.1846  1.3128  0.8972
   92MOL0     H12664   1.429   7.260   2.339  1.8102 -0.7203  0.6268
   92MOL0     H12665   1.595   7.335   2.326 -0.2363  0.0019  0.2256
   92MOL0     H12666   1.500   7.536   2.419 -0.5267  0.5265  1.2215
   92MOL0     H12667   1.342   7.460   2.444 -1.1802  0.0187 -0.8561
   92MOL0     H12668   1.494   7.500   2.182 -0.4840 -1.1666 -1.6647
   92MOL0     H12669   1.328   7.423   2.198 -0.7904  1.4307 -1.7869
   92MOL0     H12670   1.396   7.709   2.233 -0.2191  0.7762 -1.5896
   92MOL0     H12671   1.254   7.650   2.312 -0.1552 -0.0626  0.1764
   92MOL0     H12672   1.189   7.760   2.099 -1.9238 -0.7800 -1.7558
   92MOL0     H12673   1.153   7.589   2.108 -2.6455  2.0946  0.7106
   92MOL0     H12674   1.343   7.551   1.957 -0.7627  0.5846  1.1628
   92MOL0     H12675   1.403   7.708   1.981  0.4658 -0.2225  0.5701
   92MOL0     H12676   1.717   7.559   2.779  0.1134  1.0663  0.7161
   92MOL0     H12677   1.910   7.633   2.923  2.1314 -3.0680  1.8698
   92MOL0     H12678   2.217   7.694   3.094  0.7933 -0.3165  0.0212
   92MOL0     H12679   2.336   7.793   3.271 -0.6276  1.9790 -0.8650
   92MOL0     H12680   3.277   9.609   3.831  2.6834  0.8335 -2.3278
   92MOL0     H12681   3.104   9.775   3.878  3.2141 -0.2320 -0.0734
   92MOL0     H12682   2.888  10.222   3.793  0.7887  0.3208 -1.9619
   92MOL0     H12683   2.682  10.359   3.808  2.1467  0.3517 -1.9232
   92MOL0     H12684   2.445  10.459   3.802 -1.4280  0.8439 -0.9082
   92MOL0     H12685   2.540  10.447   3.656  0.2610  2.4453  2.2296
   92MOL0     H12686   2.370  10.458   3.502  1.6480  1.8321 -0.3121
   92MOL0     H12687   2.358  10.588   3.620  1.0890 -0.0528  1.0756
   92MOL0     H12688   2.200  10.470   3.760  0.2390  0.8489 -0.1536
   92MOL0     H12689   2.134  10.541   3.614 -0.0610  0.8502 -0.5630
   92MOL0     H12690   2.177  10.247   3.672  0.5317 -1.0259 -1.5073
   92MOL0     H12691   2.180  10.298   3.502  1.2591  0.1262  0.0641
   92MOL0     H12692   1.780  10.301   3.570  0.6717 -0.2825 -0.7193
   92MOL0     H12693   2.451  10.026   3.676  1.2840 -0.9969 -1.4853
   92MOL0     H12694   2.705   9.810   3.586 -0.7640  0.7989  0.0885
   92MOL0     H12695   2.631   9.772   3.738  0.1757  1.3262  1.1706
   92MOL0     H12696   2.530   9.845   3.610 -0.3269  0.5777 -0.1656
   93MOL0     O12697  11.184   2.183   8.734  0.7863  0.7726 -0.1976
   93MOL0     C12698  11.085   2.134   8.673 -0.1956 -0.1024 -0.2996
   93MOL0     O12699  11.078   2.015   8.622  0.2969  0.3678 -0.6240
   93MOL0     C12700  11.190   1.955   8.584 -0.2729  0.0460  0.3270
   93MOL0     C12701  11.209   1.929   8.448  0.7150  0.1789 -0.2161
   93MOL0     C12702  11.318   1.847   8.403  0.6485  0.7370 -0.3612
   93MOL0     C12703  11.400   1.788   8.490 -0.0465 -1.1369  0.1515
   93MOL0     O12704  11.503   1.713   8.435 -0.4592 -0.5587 -0.6048
   93MOL0     C12705  11.616   1.696   8.526 -0.0854 -1.1996  0.6054
   93MOL0     C12706  11.734   1.660   8.445  0.1061  0.0619 -0.4820
   93MOL0     C12707  11.784   1.786   8.380  0.7331 -0.0293 -0.3856
   93MOL0     C12708  11.926   1.760   8.319  1.1992  0.1395 -0.8437
   93MOL0     C12709  11.980   1.901   8.296 -0.0642  0.1285  0.1974
   93MOL0     C12710  12.106   1.898   8.217  0.0342 -0.2707 -0.3264
   93MOL0     C12711  12.227   1.852   8.293  0.3041 -0.0967  0.4042
   93MOL0     C12712  12.360   1.848   8.208 -0.7300  0.3341 -0.3290
   93MOL0     N12713  12.435   1.724   8.213 -0.0738  0.1809 -0.6425
   93MOL0     C12714  12.509   1.706   8.325  0.6304 -1.0304 -0.7314
   93MOL0     C12715  12.574   1.590   8.300 -0.0723 -0.6137 -0.3093
   93MOL0     C12716  12.675   1.530   8.401 -0.5262  0.5364  1.1989
   93MOL0     C12717  12.818   1.539   8.347  1.0365 -0.1663 -0.0605
   93MOL0     C12718  12.924   1.491   8.453  0.1134 -0.1925  0.3147
   93MOL0     C12719  13.071   1.474   8.396  0.4719 -0.7695 -0.7277
   93MOL0     O12720  13.106   1.590   8.315  0.1447  0.5170  0.5942
   93MOL0     C12721  13.240   1.610   8.276  0.1832  0.2572 -0.4640
   93MOL0     C12722  13.351   1.533   8.309  0.8898  0.4523 -0.0854
   93MOL0     C12723  13.475   1.577   8.282 -0.4706 -0.2165 -0.0076
   93MOL0     C12724  13.594   1.511   8.358  0.4615 -0.5262 -0.3883
   93MOL0     C12725  13.498   1.688   8.194 -0.0911 -0.3852 -0.3313
   93MOL0     C12726  13.627   1.734   8.147 -0.8544  0.2337  1.2546
   93MOL0     O12727  13.717   1.633   8.112  0.1279  0.3488 -0.4321
   93MOL0     C12728  13.837   1.664   8.058 -0.2346 -0.0583 -0.0864
   93MOL0     C12729  13.928   1.756   8.119  0.0022  0.6634 -0.4141
   93MOL0     C12730  14.050   1.776   8.045 -0.6999 -0.7487  0.1664
   93MOL0     C12731  14.079   1.700   7.925 -0.6341 -0.8140 -0.4819
   93MOL0     O12732  14.195   1.722   7.851  0.5308 -0.5793 -0.4737
   93MOL0     C12733  14.181   1.820   7.743  0.1250 -0.1657  0.5036
   93MOL0     C12734  14.269   1.781   7.628 -0.2963  0.7859 -0.1004
   93MOL0     C12735  14.216   1.641   7.575 -0.8009 -0.2349  0.2020
   93MOL0     C12736  14.088   1.668   7.484 -0.6180 -0.3879 -0.2962
   93MOL0     C12737  14.002   1.544   7.444  0.1886 -0.1876 -0.7550
   93MOL0     C12738  14.058   1.414   7.376  0.1389  0.0933 -0.5440
   93MOL0     C12739  13.966   1.297   7.392  0.0282 -0.2310 -0.7797
   93MOL0     C12740  13.966   1.216   7.531 -0.3370 -0.4557 -0.3706
   93MOL0    Cl12741  13.840   1.092   7.535  0.1477 -0.0539 -0.0966
   93MOL0     C12742  13.982   1.614   7.881  0.2304  0.5014  0.7807
   93MOL0     C12743  13.864   1.603   7.942 -0.1886  0.9219 -0.5042
   93MOL0     O12744  13.639   1.852   8.124  0.0113  0.4704  0.8059
   93MOL0     C12745  13.380   1.773   8.163 -0.1619 -0.0109  0.2200
   93MOL0     C12746  13.256   1.731   8.214  1.2783 -0.2480  0.2624
   93MOL0     N12747  12.524   1.536   8.181 -0.1878  0.9775 -0.4246
   93MOL0     N12748  12.438   1.617   8.132 -0.2949 -0.1016  0.2176
   93MOL0     C12749  11.385   1.813   8.628  0.5045  0.4058 -0.2646
   93MOL0     C12750  11.279   1.896   8.677  0.1468 -0.1900  0.0105
   93MOL0     C12751  10.955   2.211   8.664 -0.0887 -0.4550  0.0184
   93MOL0     C12752  10.929   2.302   8.772 -0.7153  0.3054  0.2935
   93MOL0     C12753  10.805   2.363   8.786  0.1167  0.0176 -0.4101
   93MOL0     C12754  10.710   2.358   8.679 -0.7752 -0.4221 -0.0661
   93MOL0     O12755  10.596   2.427   8.698  0.4356  0.3502  0.3002
   93MOL0     C12756  10.505   2.462   8.587 -0.5290 -0.0982 -0.1284
   93MOL0     C12757  10.391   2.361   8.575  0.0233 -0.9637  0.5732
   93MOL0     C12758  10.290   2.398   8.474 -0.0020 -0.1203 -0.1060
   93MOL0     C12759  10.351   2.427   8.336  0.7366  0.2687  0.1285
   93MOL0     C12760  10.242   2.475   8.240  0.9920  0.1777 -0.5063
   93MOL0     C12761  10.152   2.504   8.164 -0.2504 -0.0398  0.4218
   93MOL0     C12762  10.740   2.274   8.569  0.6684 -0.0131  0.1615
   93MOL0     C12763  10.853   2.189   8.573  0.5114 -0.5856  0.7796
   93MOL0     C12764  10.864   2.100   8.446 -0.4263 -0.4043 -0.6570
   93MOL0     H12765  11.140   1.970   8.375  0.5873 -4.6675 -3.2396
   93MOL0     H12766  11.312   1.821   8.298 -2.3665 -2.2214  0.3590
   93MOL0     H12767  11.594   1.611   8.591 -1.4393 -3.3871 -2.4630
   93MOL0     H12768  11.631   1.786   8.585  3.3909 -1.6388  0.6134
   93MOL0     H12769  11.806   1.616   8.515 -1.4435 -0.5834  0.7661
   93MOL0     H12770  11.706   1.585   8.372  0.7099 -2.3375  1.6088
   93MOL0     H12771  11.713   1.828   8.308  0.9653 -2.2496 -2.0431
   93MOL0     H12772  11.790   1.862   8.457  1.1307 -2.2826  1.9372
   93MOL0     H12773  11.984   1.702   8.392 -1.5234  0.4293  1.7641
   93MOL0     H12774  11.926   1.703   8.225  2.0202  1.5985 -1.7642
   93MOL0     H12775  12.006   1.948   8.391 -1.0875  1.8180 -0.3129
   93MOL0     H12776  11.904   1.968   8.255 -0.1675  3.0330  4.5124
   93MOL0     H12777  12.088   1.837   8.129  0.6275 -2.5638  1.0731
   93MOL0     H12778  12.119   2.001   8.180 -0.7212  0.0710  0.3242
   93MOL0     H12779  12.209   1.749   8.328  0.1390  0.6496  2.7081
   93MOL0     H12780  12.230   1.919   8.380  1.3961 -0.8873  1.0086
   93MOL0     H12781  12.333   1.857   8.103  1.3399  0.3337 -0.8997
   93MOL0     H12782  12.421   1.937   8.225 -1.8792  1.0413  0.2082
   93MOL0     H12783  12.522   1.774   8.408 -0.3429 -2.2131  0.4298
   93MOL0     H12784  12.653   1.424   8.418 -1.5700 -0.5057 -4.5035
   93MOL0     H12785  12.664   1.588   8.493  2.6320  0.5594  1.6549
   93MOL0     H12786  12.821   1.475   8.259 -3.8863 -3.9058  2.0634
   93MOL0     H12787  12.854   1.640   8.324 -0.7894  0.9532  1.7084
   93MOL0     H12788  12.922   1.567   8.532  0.5856 -0.2599  0.3951
   93MOL0     H12789  12.897   1.398   8.504 -1.0968 -1.1604 -1.9671
   93MOL0     H12790  13.137   1.470   8.483  2.0406  1.5794 -1.7001
   93MOL0     H12791  13.073   1.378   8.345  0.1518 -0.5370 -1.1817
   93MOL0     H12792  13.343   1.438   8.360  0.5975  1.0603  1.0529
   93MOL0     H12793  13.650   1.447   8.289  2.3417 -0.5258  1.0499
   93MOL0     H12794  13.560   1.448   8.441  1.2155  0.4095  0.6704
   93MOL0     H12795  13.670   1.581   8.394  1.5745 -1.2680 -1.2576
   93MOL0     H12796  13.895   1.814   8.205  0.6310  3.1910 -1.7598
   93MOL0     H12797  14.122   1.854   8.069 -0.2585 -1.6413  1.9139
   93MOL0     H12798  14.078   1.830   7.709 -1.0660  3.0174  4.2592
   93MOL0     H12799  14.209   1.913   7.794 -2.6935  0.2582  1.4560
   93MOL0     H12800  14.260   1.841   7.537 -0.7458  0.9568  0.0526
   93MOL0     H12801  14.375   1.772   7.653  0.4479 -0.5883 -3.1919
   93MOL0     H12802  14.192   1.575   7.659  2.1236 -1.3735  0.2561
   93MOL0     H12803  14.289   1.584   7.517 -3.5234 -3.0165 -0.7651
   93MOL0     H12804  14.126   1.706   7.389  2.4956  0.2265  1.0803
   93MOL0     H12805  14.032   1.759   7.508  0.1029  0.1266 -0.5344
   93MOL0     H12806  13.937   1.514   7.526 -0.0825 -0.4599 -1.0678
   93MOL0     H12807  13.936   1.596   7.375 -0.7782  0.7731  0.8336
   93MOL0     H12808  14.155   1.390   7.420 -0.4772  3.1755  2.9321
   93MOL0     H12809  14.069   1.430   7.268  0.0465 -1.4322 -0.7941
   93MOL0     H12810  13.999   1.225   7.317  0.5056 -0.1552 -0.6446
   93MOL0     H12811  13.865   1.334   7.368  0.3398  0.7416 -0.6624
   93MOL0     H12812  13.954   1.275   7.622 -0.8123 -3.2746  1.5202
   93MOL0     H12813  14.067   1.175   7.532  1.0140  2.6371 -0.2344
   93MOL0     H12814  13.989   1.558   7.788 -1.9366  1.6410 -0.1691
   93MOL0     H12815  13.793   1.528   7.908  0.3066 -0.1476  0.7003
   93MOL0     H12816  13.371   1.860   8.097 -2.3685  0.3052  0.8627
   93MOL0     H12817  13.166   1.787   8.191  1.8626 -0.3178 -2.5268
   93MOL0     H12818  11.458   1.769   8.695  1.6101 -0.2028 -1.8339
   93MOL0     H12819  11.265   1.905   8.785  1.3802  2.5208  0.0294
   93MOL0     H12820  10.992   2.318   8.859  0.4033  2.7019 -0.8549
   93MOL0     H12821  10.785   2.413   8.880 -0.4485 -2.2493  0.7317
   93MOL0     H12822  10.471   2.565   8.604  1.6713  1.0570 -2.1239
   93MOL0     H12823  10.573   2.470   8.502 -1.3245 -4.2093 -1.3730
   93MOL0     H12824  10.340   2.352   8.671 -1.0097  0.4361  0.1917
   93MOL0     H12825  10.448   2.273   8.544  1.8283  0.3827 -0.0778
   93MOL0     H12826  10.216   2.322   8.448  0.4938 -1.2088  1.5679
   93MOL0     H12827  10.233   2.485   8.509 -0.8751 -0.4774 -0.5915
   93MOL0     H12828  10.390   2.333   8.297 -3.9970 -2.6562  1.5374
   93MOL0     H12829  10.426   2.506   8.340  0.2316  0.7133  1.4954
   93MOL0     H12830  10.069   2.544   8.108 -0.0652  0.7956  0.7213
   93MOL0     H12831  10.650   2.266   8.508 -0.0059  0.4819  1.0700
   93MOL0     H12832  10.859   1.997   8.481  1.8945 -0.4729 -0.3653
   93MOL0     H12833  10.778   2.115   8.380 -2.3985  0.5254  1.9514
   93MOL0     H12834  10.959   2.119   8.395  1.7828 -0.4487  3.0866
   94MOL0     O12835   3.711   2.939   6.540  0.2114  0.5675  0.0798
   94MOL0     C12836   3.604   2.895   6.575 -0.4326  0.3414  0.2374
   94MOL0     O12837   3.551   2.774   6.526 -0.5518 -1.1205 -0.7346
   94MOL0     C12838   3.616   2.718   6.416  0.6703  0.3952  0.6603
   94MOL0     C12839   3.718   2.619   6.458 -0.1696 -0.1368  0.0446
   94MOL0     C12840   3.803   2.565   6.362  0.2742  0.2916 -0.0208
   94MOL0     C12841   3.796   2.602   6.229 -0.9084  0.0069 -0.3576
   94MOL0     O12842   3.889   2.534   6.146  0.6565 -0.0876  0.6408
   94MOL0     C12843   3.924   2.598   6.017 -0.2480  0.0429  0.0666
   94MOL0     C12844   4.017   2.504   5.950  0.3663  0.6187  0.9648
   94MOL0     C12845   4.138   2.468   6.048 -0.2869 -0.2082 -0.0757
   94MOL0     C12846   4.157   2.314   6.081 -0.0305 -0.0609  0.3536
   94MOL0     C12847   4.285   2.287   6.164  0.1587  0.3917  0.0923
   94MOL0     C12848   4.409   2.376   6.134 -0.6409 -0.2799  0.8620
   94MOL0     C12849   4.528   2.369   6.236  0.0246  0.7090  1.0588
   94MOL0     C12850   4.488   2.404   6.381 -0.9702 -0.1231  0.3876
   94MOL0     N12851   4.606   2.371   6.460 -0.1458 -0.4247  0.2127
   94MOL0     C12852   4.641   2.250   6.505  0.1042  0.4155  0.0319
   94MOL0     C12853   4.760   2.264   6.567  0.3470 -0.1823 -1.0553
   94MOL0     C12854   4.848   2.156   6.626  0.6171 -0.6134  0.2355
   94MOL0     C12855   4.965   2.143   6.519  0.0401  0.0396 -0.8676
   94MOL0     C12856   5.025   2.004   6.546  0.3264 -0.4046 -1.1256
   94MOL0     C12857   5.161   2.006   6.481  0.1390 -0.5275 -0.1649
   94MOL0     O12858   5.152   2.028   6.340 -0.0650  0.2677  0.4715
   94MOL0     C12859   5.260   2.043   6.263 -0.4975  1.1227  0.0886
   94MOL0     C12860   5.396   2.022   6.305 -0.1177  1.0071  0.4100
   94MOL0     C12861   5.507   2.017   6.212  0.4720  0.3096  0.3608
   94MOL0     C12862   5.645   1.984   6.264 -0.4605  0.1217 -0.5065
   94MOL0     C12863   5.466   2.045   6.077  0.3150  0.2398 -0.0829
   94MOL0     C12864   5.572   2.039   5.990 -0.3705 -0.6615 -0.4044
   94MOL0     O12865   5.659   2.145   5.984  0.4802 -0.2987 -0.5717
   94MOL0     C12866   5.790   2.140   5.944 -0.1766 -0.9641 -0.0127
   94MOL0     C12867   5.873   2.039   5.984 -0.9177  0.8293  0.1142
   94MOL0     C12868   6.016   2.055   5.970  1.0665  0.2593 -0.2953
   94MOL0     C12869   6.075   2.169   5.919 -0.5103 -0.6555 -0.7815
   94MOL0     O12870   6.205   2.194   5.932 -0.4647  0.3661  0.0481
   94MOL0     C12871   6.294   2.079   5.921  0.0403  0.1154 -0.2826
   94MOL0     C12872   6.440   2.119   5.900 -0.1270  0.1146 -0.2471
   94MOL0     C12873   6.527   1.996   5.907 -0.1298 -0.6224 -0.0934
   94MOL0     C12874   6.674   2.035   5.871 -0.4606  0.3814  0.4431
   94MOL0     C12875   6.769   1.910   5.866  0.4618 -0.6386 -1.0912
   94MOL0     C12876   6.783   1.836   5.992 -0.4239  0.1314  0.0644
   94MOL0     C12877   6.902   1.740   5.989  0.1088 -0.6865 -0.1214
   94MOL0     C12878   6.914   1.658   6.109  0.4844  0.6697 -0.8988
   94MOL0    Cl12879   7.039   1.529   6.077  0.0653  0.3000  0.4528
   94MOL0     C12880   5.990   2.269   5.881  0.1308 -0.0693  0.1535
   94MOL0     C12881   5.851   2.263   5.889  0.3739  0.4776  0.2799
   94MOL0     O12882   5.579   1.940   5.918 -0.4559 -0.1727  0.0085
   94MOL0     C12883   5.341   2.072   6.025 -0.4086  0.1157  0.4164
   94MOL0     C12884   5.243   2.065   6.125 -0.0785 -0.4924  0.0475
   94MOL0     N12885   4.790   2.398   6.562  0.4079 -0.7221 -0.3748
   94MOL0     N12886   4.701   2.461   6.489 -0.0347 -0.3714 -0.3466
   94MOL0     C12887   3.691   2.686   6.188 -0.4249  0.0201  0.1348
   94MOL0     C12888   3.600   2.741   6.279  0.8130  0.0174 -0.9950
   94MOL0     C12889   3.525   2.968   6.676 -0.3023 -0.2011 -0.6345
   94MOL0     C12890   3.386   2.946   6.698  0.7390 -0.3991  0.1411
   94MOL0     C12891   3.314   3.012   6.794  0.2246 -0.2065 -0.2728
   94MOL0     C12892   3.373   3.114   6.868 -0.1125 -0.2495  0.4303
   94MOL0     O12893   3.306   3.199   6.949 -0.0192 -0.2180 -0.2980
   94MOL0     C12894   3.324   3.179   7.091 -0.3233  0.4443  0.3026
   94MOL0     C12895   3.283   3.303   7.167 -0.3346  0.1321  0.5554
   94MOL0     C12896   3.140   3.361   7.135  1.2206  0.4041  0.1956
   94MOL0     C12897   3.025   3.261   7.169  0.2616  0.7664 -0.1263
   94MOL0     C12898   2.896   3.326   7.172 -0.1346  0.5525  0.2795
   94MOL0     C12899   2.790   3.384   7.157  0.5078  0.2873  0.7482
   94MOL0     C12900   3.509   3.130   6.857  0.2297  0.6421  0.2277
   94MOL0     C12901   3.587   3.063   6.763 -0.2024 -0.6892  0.9704
   94MOL0     C12902   3.735   3.101   6.778  0.9282  0.2733 -0.5875
   94MOL0     H12903   3.723   2.599   6.565  1.6271 -1.0122 -0.1732
   94MOL0     H12904   3.868   2.486   6.398  0.5442  0.8644  0.8077
   94MOL0     H12905   3.961   2.700   6.035 -3.8465  1.3588  0.8869
   94MOL0     H12906   3.827   2.607   5.966  0.5612 -0.8760 -1.6884
   94MOL0     H12907   3.958   2.413   5.938  0.1461  0.9311 -0.5889
   94MOL0     H12908   4.051   2.537   5.851  2.0604  0.8196  1.5755
   94MOL0     H12909   4.228   2.508   6.000 -0.0488  0.6028  1.0072
   94MOL0     H12910   4.118   2.522   6.141 -0.4849  1.1249 -0.8519
   94MOL0     H12911   4.073   2.266   6.134  0.4851 -1.8339 -0.3381
   94MOL0     H12912   4.170   2.254   5.990  4.3653 -1.4055  1.6383
   94MOL0     H12913   4.316   2.183   6.148  0.1304  0.1784  1.3020
   94MOL0     H12914   4.260   2.287   6.271  2.5298 -4.1320  0.9043
   94MOL0     H12915   4.447   2.345   6.037 -0.5854  1.9034  0.1380
   94MOL0     H12916   4.378   2.481   6.134 -0.1694 -0.1375  1.1298
   94MOL0     H12917   4.617   2.422   6.200  0.2837 -0.2778  0.1937
   94MOL0     H12918   4.558   2.264   6.241 -3.1437 -0.2361  1.8657
   94MOL0     H12919   4.476   2.512   6.386  0.1605  0.0107  0.5735
   94MOL0     H12920   4.398   2.360   6.425 -3.3649  2.9909 -1.0452
   94MOL0     H12921   4.577   2.162   6.506 -1.5288  1.5583  0.3881
   94MOL0     H12922   4.787   2.066   6.625  0.0788 -0.2555  0.2866
   94MOL0     H12923   4.877   2.176   6.730 -0.3532 -2.0600  0.8089
   94MOL0     H12924   4.928   2.153   6.416 -0.6056  2.5973 -0.4647
   94MOL0     H12925   5.039   2.219   6.545  1.5196 -0.8338 -2.3474
   94MOL0     H12926   5.040   1.989   6.653  0.4186  1.3690 -0.8672
   94MOL0     H12927   4.952   1.929   6.513 -0.1536 -1.9086  2.7746
   94MOL0     H12928   5.213   2.090   6.527 -0.4193  0.7905 -1.8412
   94MOL0     H12929   5.216   1.916   6.510 -0.6608 -1.0907 -0.3491
   94MOL0     H12930   5.416   1.991   6.407  0.4208 -1.3985 -0.3470
   94MOL0     H12931   5.632   1.916   6.348 -0.9312 -0.4661 -1.0449
   94MOL0     H12932   5.698   2.075   6.293 -0.7569  0.1585 -0.0662
   94MOL0     H12933   5.715   1.934   6.197  0.2030 -0.6598  0.7475
   94MOL0     H12934   5.835   1.943   6.018  0.8269 -0.3206 -1.0456
   94MOL0     H12935   6.072   1.974   6.017  1.9318  0.8023 -0.3576
   94MOL0     H12936   6.276   2.025   6.014 -0.4055  4.4881  2.4702
   94MOL0     H12937   6.267   2.023   5.831 -0.2571 -1.9526  1.0307
   94MOL0     H12938   6.452   2.172   5.806 -2.5248  1.5035  0.1532
   94MOL0     H12939   6.477   2.189   5.976  0.7748  2.0091 -2.3153
   94MOL0     H12940   6.487   1.918   5.842 -1.4320  0.7553 -1.0403
   94MOL0     H12941   6.502   1.960   6.007  1.2213 -0.4789  0.3088
   94MOL0     H12942   6.716   2.106   5.944  1.7900  0.5087 -0.8953
   94MOL0     H12943   6.673   2.098   5.782 -1.0477 -0.4383 -0.1391
   94MOL0     H12944   6.733   1.849   5.782 -0.2486  0.2391 -1.4394
   94MOL0     H12945   6.871   1.942   5.843  1.8842 -0.8261  3.8157
   94MOL0     H12946   6.689   1.783   6.006  0.4405 -2.2904 -2.3170
   94MOL0     H12947   6.804   1.903   6.076  0.2976  0.3279 -0.2632
   94MOL0     H12948   7.001   1.787   5.987  0.1841 -0.7992  0.6322
   94MOL0     H12949   6.891   1.682   5.896 -0.7875  1.0568 -1.1475
   94MOL0     H12950   6.819   1.615   6.143  0.5725  1.8800  1.0794
   94MOL0     H12951   6.945   1.726   6.189  3.2319 -0.2756 -1.0692
   94MOL0     H12952   6.042   2.358   5.847 -0.1923 -0.8166 -2.5033
   94MOL0     H12953   5.798   2.353   5.858  0.3900  0.2893 -0.3217
   94MOL0     H12954   5.330   2.091   5.918  0.1089  0.0818  0.3569
   94MOL0     H12955   5.139   2.080   6.098  0.4297  2.7066 -0.6210
   94MOL0     H12956   3.670   2.704   6.083 -0.8902 -0.3742  0.1569
   94MOL0     H12957   3.524   2.811   6.244  1.2030  0.7485 -0.4079
   94MOL0     H12958   3.327   2.884   6.631  1.7232 -0.2032 -0.9319
   94MOL0     H12959   3.206   3.011   6.788  0.2446 -1.3629 -0.7610
   94MOL0     H12960   3.264   3.092   7.120 -1.7010  1.0111 -0.7357
   94MOL0     H12961   3.428   3.160   7.119 -0.2018  2.1772  1.1631
   94MOL0     H12962   3.358   3.379   7.141  1.3018 -1.1386  1.4185
   94MOL0     H12963   3.291   3.299   7.276 -2.3684  2.2869  0.8861
   94MOL0     H12964   3.124   3.453   7.192 -0.3796 -0.1755  0.7422
   94MOL0     H12965   3.131   3.375   7.027  0.0468  0.3763  0.2751
   94MOL0     H12966   3.041   3.217   7.267 -0.3541  0.3494 -0.2047
   94MOL0     H12967   3.022   3.174   7.102 -2.0042  0.1113  0.7359
   94MOL0     H12968   2.701   3.444   7.148 -0.4056 -1.2088 -0.9690
   94MOL0     H12969   3.564   3.196   6.923 -2.3411 -0.7642  4.1677
   94MOL0     H12970   3.811   3.027   6.751 -0.0991 -1.5100  1.1052
   94MOL0     H12971   3.746   3.195   6.723  1.2446  1.6801  1.7456
   94MOL0     H12972   3.767   3.130   6.879  0.1473  2.6613 -0.9611
   95MOL0     O12973   8.255  11.194   1.489  0.6850  0.1763 -0.2402
   95MOL0     C12974   8.134  11.206   1.525  0.2241 -0.1439  0.1715
   95MOL0     O12975   8.079  11.153   1.644  0.9629 -0.0450 -0.3569
   95MOL0     C12976   8.143  11.072   1.734 -0.7656  0.9680 -0.1005
   95MOL0     C12977   8.275  11.095   1.767 -0.6188 -0.5673 -0.3333
   95MOL0     C12978   8.337  11.027   1.885 -0.1116 -0.4629 -0.6079
   95MOL0     C12979   8.273  10.918   1.949  1.4655 -0.5134  0.1199
   95MOL0     O12980   8.334  10.840   2.035 -0.5598  0.9967 -0.2166
   95MOL0     C12981   8.337  10.885   2.169 -0.3192 -0.5481  0.4267
   95MOL0     C12982   8.484  10.929   2.193 -0.2709  0.2655 -0.1467
   95MOL0     C12983   8.480  11.014   2.317 -0.3659  0.2654 -0.0826
   95MOL0     C12984   8.610  11.012   2.390 -0.3296 -0.4915 -0.5337
   95MOL0     C12985   8.623  11.104   2.506  0.0455  0.0108 -0.2732
   95MOL0     C12986   8.539  11.050   2.626 -0.1585 -0.5227 -0.6089
   95MOL0     C12987   8.518  11.155   2.738  0.9909 -0.5228 -0.2088
   95MOL0     C12988   8.402  11.242   2.687  0.4555  0.4829  0.2871
   95MOL0     N12989   8.405  11.379   2.751 -0.5426  0.7358  0.4029
   95MOL0     C12990   8.410  11.404   2.883 -0.3904 -1.2142  0.0810
   95MOL0     C12991   8.435  11.542   2.899 -1.0446  0.0996  0.0701
   95MOL0     C12992   8.450  11.608   3.031  0.0984  0.7833  0.8644
   95MOL0     C12993   8.307  11.662   3.065  0.1600  0.4409  0.0494
   95MOL0     C12994   8.323  11.742   3.202  0.0664 -0.6985 -0.5288
   95MOL0     C12995   8.192  11.748   3.283 -0.2805  0.2340  0.0822
   95MOL0     O12996   8.213  11.793   3.420  0.3890  0.0780  0.3243
   95MOL0     C12997   8.103  11.783   3.502 -0.2514 -0.3163  0.7655
   95MOL0     C12998   8.128  11.817   3.637  0.6546 -0.2149  0.7836
   95MOL0     C12999   8.026  11.824   3.732  0.5334  0.1410 -0.0974
   95MOL0     C13000   8.041  11.902   3.852 -0.2291 -0.1577 -0.0697
   95MOL0     C13001   7.890  11.781   3.687  0.2639  1.3202 -0.0070
   95MOL0     C13002   7.776  11.755   3.778  1.1954  0.3540  0.2733
   95MOL0     O13003   7.677  11.679   3.730  0.1432 -0.2877  0.7341
   95MOL0     C13004   7.540  11.685   3.782 -0.2295  0.1015  0.2118
   95MOL0     C13005   7.465  11.802   3.774  0.1320  0.2553 -0.0699
   95MOL0     C13006   7.343  11.806   3.824  0.4552 -0.0354 -0.6274
   95MOL0     C13007   7.276  11.691   3.884 -0.2638 -0.4690 -0.4421
   95MOL0     O13008   7.153  11.704   3.963 -0.3494 -0.5609  0.7739
   95MOL0     C13009   7.087  11.830   4.002  0.1808  0.2772 -0.4240
   95MOL0     C13010   7.162  11.900   4.112  0.5304 -0.2124  0.1080
   95MOL0     C13011   7.088  12.030   4.167  0.9648  0.5024 -0.0250
   95MOL0     C13012   6.990  11.999   4.275  0.1605  0.4239  0.0570
   95MOL0     C13013   6.862  12.076   4.273  0.5198  0.2637  0.4671
   95MOL0     C13014   6.894  12.221   4.252  0.0237 -0.6682 -0.8891
   95MOL0     C13015   6.995  12.276   4.357 -0.1609 -0.5504  0.9453
   95MOL0     C13016   6.996  12.425   4.348  0.2170 -0.5844 -0.0915
   95MOL0    Cl13017   6.845  12.517   4.359  0.2167 -0.1254  0.4272
   95MOL0     C13018   7.352  11.574   3.884 -0.1824  0.6197 -0.3176
   95MOL0     C13019   7.480  11.572   3.835 -0.0790  0.4387 -0.4746
   95MOL0     O13020   7.778  11.807   3.890  0.0381  0.0063 -0.4478
   95MOL0     C13021   7.870  11.745   3.557 -0.2701  0.2487  0.5972
   95MOL0     C13022   7.975  11.740   3.467  0.3334  0.4920  0.4942
   95MOL0     N13023   8.463  11.592   2.773 -0.9405  0.3005  0.6849
   95MOL0     N13024   8.449  11.496   2.686  0.2206  0.0575  0.7063
   95MOL0     C13025   8.139  10.887   1.905  0.8978 -0.3476 -0.4174
   95MOL0     C13026   8.074  10.968   1.803  0.0585  0.1144 -0.0212
   95MOL0     C13027   8.037  11.288   1.453 -0.1581 -0.7038  0.1963
   95MOL0     C13028   7.963  11.368   1.542  0.1202  0.4241 -0.6486
   95MOL0     C13029   7.856  11.446   1.497 -0.7495 -0.2550  0.0635
   95MOL0     C13030   7.828  11.451   1.360 -0.0397  0.1873  0.4361
   95MOL0     O13031   7.715  11.525   1.312 -0.9177  0.4532  0.7120
   95MOL0     C13032   7.635  11.593   1.402  0.8305  0.0633  0.2319
   95MOL0     C13033   7.685  11.727   1.449 -0.1122 -0.8975  0.3699
   95MOL0     C13034   7.741  11.822   1.335 -0.1933 -0.2022  0.0128
   95MOL0     C13035   7.642  11.835   1.213 -0.1700  0.4547 -0.0904
   95MOL0     C13036   7.704  11.924   1.110  0.3350 -0.3293  0.0570
   95MOL0     C13037   7.749  11.999   1.028 -0.2808  0.3375 -0.7943
   95MOL0     C13038   7.903  11.375   1.267 -0.2267  0.4272 -0.6653
   95MOL0     C13039   8.011  11.297   1.319  0.3648 -0.8863 -0.1563
   95MOL0     C13040   8.100  11.234   1.222  0.3885  0.1882  0.3159
   95MOL0     H13041   8.335  11.176   1.728  0.4799 -1.8570 -1.4087
   95MOL0     H13042   8.438  11.053   1.915  0.0951 -0.4260 -1.3249
   95MOL0     H13043   8.321  10.802   2.238 -0.0023  0.4971  1.8141
   95MOL0     H13044   8.261  10.962   2.190  0.1537 -1.0248  4.9033
   95MOL0     H13045   8.561  10.852   2.204  2.6718  2.8536 -1.2188
   95MOL0     H13046   8.517  11.000   2.116 -1.1641  2.2413  1.2218
   95MOL0     H13047   8.452  11.111   2.275  1.4355  0.4338 -1.0183
   95MOL0     H13048   8.397  10.995   2.386 -0.2438 -0.3958 -0.1054
   95MOL0     H13049   8.624  10.909   2.424  1.2573  0.0501  0.5894
   95MOL0     H13050   8.684  11.029   2.311  1.5492 -0.6232  1.1017
   95MOL0     H13051   8.580  11.198   2.469 -4.2263 -3.0489 -4.1635
   95MOL0     H13052   8.725  11.117   2.544 -0.2420 -1.7830  1.2322
   95MOL0     H13053   8.440  11.010   2.602 -0.9967  1.6317 -1.0187
   95MOL0     H13054   8.595  10.973   2.680  1.4153  0.7825 -0.2942
   95MOL0     H13055   8.608  11.216   2.750  0.1401  0.3190  2.4695
   95MOL0     H13056   8.482  11.126   2.836 -3.2670  2.4752 -0.6307
   95MOL0     H13057   8.402  11.256   2.579 -1.2388  2.6123  0.4776
   95MOL0     H13058   8.308  11.190   2.706 -1.1918  2.0689 -2.7711
   95MOL0     H13059   8.394  11.338   2.968  2.3733 -1.9947  0.0999
   95MOL0     H13060   8.528  11.685   3.033  2.0315 -1.0727  1.3009
   95MOL0     H13061   8.478  11.530   3.102 -0.2040 -0.2754 -0.1415
   95MOL0     H13062   8.281  11.734   2.986 -1.6012 -0.3052 -0.0946
   95MOL0     H13063   8.232  11.584   3.074 -0.5022  0.8366 -1.6834
   95MOL0     H13064   8.390  11.686   3.268 -0.2286 -1.4799 -0.8907
   95MOL0     H13065   8.370  11.838   3.178 -1.5947  0.3375  0.1635
   95MOL0     H13066   8.120  11.799   3.218 -1.0401 -1.8789 -0.8445
   95MOL0     H13067   8.161  11.643   3.291  1.3461 -0.3483 -0.6920
   95MOL0     H13068   8.226  11.839   3.679  0.9296 -2.6387  1.5624
   95MOL0     H13069   8.146  11.932   3.857 -0.2103 -0.3077  0.5909
   95MOL0     H13070   8.018  11.845   3.943  1.9308 -1.1964 -0.1186
   95MOL0     H13071   7.973  11.987   3.838 -1.3575 -1.2605 -1.5510
   95MOL0     H13072   7.521  11.886   3.734 -0.5424  0.2844 -0.9900
   95MOL0     H13073   7.291  11.900   3.810  0.1490 -0.1070  0.0041
   95MOL0     H13074   7.085  11.898   3.916 -0.0763  1.1662  0.2621
   95MOL0     H13075   6.990  11.795   4.037  0.9397 -0.7725  0.7021
   95MOL0     H13076   7.195  11.825   4.185  0.9015 -2.4452 -2.2125
   95MOL0     H13077   7.255  11.933   4.065  0.6881 -2.8508 -1.6005
   95MOL0     H13078   7.033  12.062   4.078  0.1961 -0.4361  0.0934
   95MOL0     H13079   7.159  12.102   4.209 -0.1147  0.5366  1.8916
   95MOL0     H13080   7.048  12.010   4.367  1.3112 -0.9904 -0.4451
   95MOL0     H13081   6.966  11.892   4.272  1.9524 -0.1123  2.1314
   95MOL0     H13082   6.780  12.044   4.209 -1.7611  2.8733  1.8665
   95MOL0     H13083   6.818  12.070   4.373 -0.0392  0.9729  0.2727
   95MOL0     H13084   6.801  12.270   4.283  0.0514 -1.7393  1.0605
   95MOL0     H13085   6.921  12.250   4.150  2.2277  0.7946  0.0549
   95MOL0     H13086   7.097  12.244   4.334 -0.0453  1.1152 -1.1587
   95MOL0     H13087   6.973  12.245   4.460 -2.5142  1.1517  1.0369
   95MOL0     H13088   7.032  12.457   4.249  2.4818  1.5284  1.3029
   95MOL0     H13089   7.069  12.455   4.424 -0.7175 -0.6390  0.8491
   95MOL0     H13090   7.294  11.492   3.924 -0.8266  2.0668  1.8816
   95MOL0     H13091   7.543  11.483   3.836  1.6547  1.5926 -0.9303
   95MOL0     H13092   7.769  11.733   3.519  0.4568 -0.6266 -1.2087
   95MOL0     H13093   7.963  11.714   3.362  0.2000 -0.5157  0.7445
   95MOL0     H13094   8.081  10.818   1.966 -1.0035  1.8154  0.3769
   95MOL0     H13095   7.968  10.952   1.786  0.1102 -2.9636  1.8695
   95MOL0     H13096   7.984  11.374   1.648 -1.8014  2.9992 -0.3183
   95MOL0     H13097   7.806  11.512   1.567 -0.7129 -0.8197  0.6332
   95MOL0     H13098   7.543  11.606   1.343  1.1667 -0.6535 -0.4633
   95MOL0     H13099   7.608  11.528   1.486 -0.4472  2.1098  1.4901
   95MOL0     H13100   7.768  11.705   1.516 -0.5761  2.0476  2.1335
   95MOL0     H13101   7.607  11.787   1.496  0.6475 -0.6575  1.3481
   95MOL0     H13102   7.758  11.920   1.380 -0.9106  0.8307 -1.8600
   95MOL0     H13103   7.836  11.782   1.298  0.0377  1.5585 -1.4237
   95MOL0     H13104   7.542  11.872   1.238 -0.7782 -0.7031 -0.7240
   95MOL0     H13105   7.630  11.734   1.173 -2.1200 -0.6788  3.0274
   95MOL0     H13106   7.801  12.065   0.962  3.5698 -1.3353  0.2836
   95MOL0     H13107   7.881  11.375   1.160  3.5937  2.6649 -1.6484
   95MOL0     H13108   8.077  11.128   1.233  0.3530  0.1775  0.1353
   95MOL0     H13109   8.071  11.262   1.120 -0.5683 -1.9256 -0.0392
   95MOL0     H13110   8.209  11.243   1.232  0.7489  2.3934 -3.4049
   96MOL0     O13111   7.974  10.901  10.334  0.1324 -1.1092  0.2345
   96MOL0     C13112   7.931  10.814  10.256 -0.2515 -0.3966  0.5902
   96MOL0     O13113   7.968  10.813  10.120 -0.3264 -0.2911 -0.1829
   96MOL0     C13114   8.052  10.916  10.073  0.2696 -0.5865 -0.1294
   96MOL0     C13115   8.189  10.894  10.033 -0.5144 -0.5156 -0.8693
   96MOL0     C13116   8.275  11.000  10.011 -0.5923  0.2730 -0.2232
   96MOL0     C13117   8.234  11.132  10.038 -0.3750 -0.0998  0.3243
   96MOL0     O13118   8.326  11.225  10.029 -0.5690 -0.0891  0.4749
   96MOL0     C13119   8.293  11.364  10.011  0.1251 -0.1480  0.0001
   96MOL0     C13120   8.416  11.442   9.996 -0.3005  0.1045 -0.2706
   96MOL0     C13121   8.501  11.441  10.124 -0.3183  0.3723 -0.4120
   96MOL0     C13122   8.606  11.344  10.124  0.6691  0.5377 -0.4222
   96MOL0     C13123   8.688  11.342  10.249  0.5757  1.1457  0.8535
   96MOL0     C13124   8.767  11.471  10.257  0.2539  0.3055  0.4428
   96MOL0     C13125   8.882  11.469  10.355 -1.3409  0.6514  0.6487
   96MOL0     C13126   8.991  11.364  10.317  0.4337 -0.4535  0.6357
   96MOL0     N13127   9.120  11.409  10.377 -0.3986  0.2250 -0.0283
   96MOL0     C13128   9.180  11.533  10.363 -0.0674 -0.2545  0.0894
   96MOL0     C13129   9.267  11.540  10.464 -0.9984 -0.2331 -0.7126
   96MOL0     C13130   9.359  11.654  10.516  1.0169  0.1783  0.4856
   96MOL0     C13131   9.507  11.647  10.485 -0.0353  0.9113  0.4090
   96MOL0     C13132   9.579  11.774  10.533  0.2674  0.1597 -0.1377
   96MOL0     C13133   9.732  11.747  10.535  0.0198 -0.3754  0.4108
   96MOL0     O13134   9.775  11.704  10.400  0.1749  0.0891 -0.1605
   96MOL0     C13135   9.910  11.716  10.373  0.5526  1.5268 -0.1684
   96MOL0     C13136  10.017  11.755  10.457  0.8776  0.1856 -0.2446
   96MOL0     C13137  10.149  11.756  10.421  0.3254  0.2500  0.7810
   96MOL0     C13138  10.250  11.825  10.501 -0.0903  0.5960  0.3936
   96MOL0     C13139  10.182  11.699  10.293  0.1724  0.3949  0.2580
   96MOL0     C13140  10.322  11.662  10.255  0.2833 -0.5357  0.7646
   96MOL0     O13141  10.411  11.642  10.356 -0.0606  0.7745  0.1882
   96MOL0     C13142  10.542  11.606  10.329 -0.7895 -0.2771  0.1055
   96MOL0     C13143  10.629  11.698  10.283 -0.6894  0.4237 -0.7078
   96MOL0     C13144  10.763  11.672  10.269 -0.7268  0.3077 -0.9816
   96MOL0     C13145  10.804  11.536  10.305 -0.2520  0.5393  0.1449
   96MOL0     O13146  10.928  11.496  10.280 -0.3349 -0.2960  0.0673
   96MOL0     C13147  11.044  11.577  10.313  0.3941 -0.4742  0.4308
   96MOL0     C13148  11.157  11.492  10.351  0.0777  0.5762  0.2146
   96MOL0     C13149  11.219  11.422  10.230 -0.3672 -0.6223 -0.1400
   96MOL0     C13150  11.328  11.511  10.169 -0.2236 -0.1894  0.4869
   96MOL0     C13151  11.422  11.439  10.064  0.6886 -0.3515 -0.2323
   96MOL0     C13152  11.535  11.520  10.000 -0.1017  0.3128 -0.3342
   96MOL0     C13153  11.627  11.452   9.905  0.4247  0.7026  0.2413
   96MOL0     C13154  11.753  11.536   9.888  0.5708 -0.3192 -0.1321
   96MOL0    Cl13155  11.872  11.445   9.786 -0.3601 -0.0151  0.6912
   96MOL0     C13156  10.707  11.443  10.343  0.0740 -0.6982  0.5398
   96MOL0     C13157  10.581  11.480  10.361  0.2234  0.8349  0.2557
   96MOL0     O13158  10.351  11.662  10.139  0.3776  0.3321 -0.0779
   96MOL0     C13159  10.080  11.655  10.204 -0.3875 -0.0512  0.3576
   96MOL0     C13160   9.944  11.673  10.246 -0.3159  0.2924 -0.3341
   96MOL0     N13161   9.279  11.416  10.523  0.3196  0.2474  0.2773
   96MOL0     N13162   9.180  11.345  10.478 -0.5357 -0.8461 -0.3045
   96MOL0     C13163   8.095  11.153  10.067 -0.0568 -0.0233  0.1107
   96MOL0     C13164   8.011  11.051  10.073  0.5274 -0.9635  0.1976
   96MOL0     C13165   7.826  10.709  10.297  0.0082  0.7437  0.2467
   96MOL0     C13166   7.735  10.746  10.392  0.0125  0.0981  1.3252
   96MOL0     C13167   7.626  10.669  10.424 -0.6866 -0.1555  0.1233
   96MOL0     C13168   7.608  10.554  10.348 -0.2455 -0.1236 -0.1698
   96MOL0     O13169   7.499  10.475  10.369 -0.4253 -0.1640  0.1367
   96MOL0     C13170   7.381  10.532  10.447 -0.0265 -0.0438  0.9202
   96MOL0     C13171   7.254  10.460  10.410  1.2217 -0.1405 -0.0243
   96MOL0     C13172   7.215  10.486  10.257  0.4276  0.1748 -0.7073
   96MOL0     C13173   7.077  10.426  10.222 -0.0556 -0.1127 -0.5158
   96MOL0     C13174   6.964  10.518  10.250 -1.0399  0.4590 -0.9683
   96MOL0     C13175   6.885  10.616  10.248  0.0326  0.1946 -0.0733
   96MOL0     C13176   7.703  10.511  10.256 -0.2284  0.5490  0.0808
   96MOL0     C13177   7.822  10.582  10.234  0.5869 -0.3919  0.5463
   96MOL0     C13178   7.923  10.524  10.143 -0.3402 -0.6220 -0.2517
   96MOL0     H13179   8.235  10.796  10.025 -0.4227 -0.3971 -2.0529
   96MOL0     H13180   8.376  10.979   9.977 -1.5260 -3.2667 -1.3067
   96MOL0     H13181   8.245  11.395  10.104  1.0253  1.8399 -0.1458
   96MOL0     H13182   8.214  11.379   9.937  0.6552  0.2031 -0.5045
   96MOL0     H13183   8.465  11.399   9.908  0.2629 -1.0666  0.5931
   96MOL0     H13184   8.401  11.545   9.963  1.6403  0.2500 -0.8427
   96MOL0     H13185   8.540  11.542  10.142  0.6972 -0.3926  2.1045
   96MOL0     H13186   8.439  11.418  10.211  0.0425  0.9508  0.0072
   96MOL0     H13187   8.558  11.248  10.103  1.4052  0.4987 -2.0880
   96MOL0     H13188   8.670  11.359  10.036  0.6081 -3.6501 -1.3749
   96MOL0     H13189   8.754  11.256  10.235 -1.8049 -0.6122 -0.3144
   96MOL0     H13190   8.625  11.323  10.336 -0.7976 -3.6154 -0.8487
   96MOL0     H13191   8.791  11.520  10.162  2.7256  0.2203  0.9654
   96MOL0     H13192   8.700  11.543  10.303 -0.3920 -0.7065  1.1259
   96MOL0     H13193   8.841  11.430  10.449 -1.5338  0.6534  0.5669
   96MOL0     H13194   8.930  11.565  10.376  0.9006 -0.5603  1.3851
   96MOL0     H13195   8.960  11.265  10.353 -1.6603  0.2214  0.8480
   96MOL0     H13196   8.991  11.354  10.208 -1.2514 -0.7967  0.6385
   96MOL0     H13197   9.163  11.612  10.290  1.7948  1.1958  1.1268
   96MOL0     H13198   9.333  11.673  10.621 -0.3939 -1.9516  0.5999
   96MOL0     H13199   9.321  11.748  10.476  3.6456  2.8886  3.6958
   96MOL0     H13200   9.557  11.561  10.531 -3.6841 -1.0386  1.1161
   96MOL0     H13201   9.517  11.631  10.377 -0.8201  2.0401  0.1540
   96MOL0     H13202   9.555  11.851  10.460  2.7578  0.5777 -0.6206
   96MOL0     H13203   9.542  11.804  10.632  0.0972 -0.1390 -0.1064
   96MOL0     H13204   9.778  11.841  10.569 -0.6736 -1.2398  4.1800
   96MOL0     H13205   9.767  11.665  10.598 -0.1560 -2.6642 -2.2721
   96MOL0     H13206   9.995  11.764  10.563  0.6163  0.6707 -0.3356
   96MOL0     H13207  10.309  11.884  10.431 -2.0509  0.8741 -1.1366
   96MOL0     H13208  10.306  11.752  10.560 -2.1999 -0.9269  0.6439
   96MOL0     H13209  10.202  11.890  10.575  1.4640  0.7576  1.2974
   96MOL0     H13210  10.592  11.798  10.265 -1.1342  0.0016 -2.3305
   96MOL0     H13211  10.829  11.752  10.236  0.4639 -0.1401  0.1838
   96MOL0     H13212  11.083  11.640  10.232  2.6215 -0.7892  1.1883
   96MOL0     H13213  11.015  11.639  10.399  2.3859  1.7653 -0.3818
   96MOL0     H13214  11.226  11.554  10.410 -0.9831  0.8924  1.1414
   96MOL0     H13215  11.113  11.424  10.424 -0.4363  0.3489 -0.3040
   96MOL0     H13216  11.137  11.408  10.159 -0.8424  2.6944 -0.4191
   96MOL0     H13217  11.257  11.323  10.257  1.6815 -0.4127 -1.9520
   96MOL0     H13218  11.392  11.555  10.246 -0.8992  0.0078  0.9441
   96MOL0     H13219  11.281  11.596  10.120  0.2770 -1.1987 -1.8755
   96MOL0     H13220  11.472  11.355  10.112 -0.1869 -1.0233 -0.4574
   96MOL0     H13221  11.368  11.390   9.983  1.0189 -1.9174  0.4490
   96MOL0     H13222  11.601  11.541  10.085  1.0570 -0.6985 -0.9609
   96MOL0     H13223  11.496  11.615   9.964 -3.8870  0.7236  3.9506
   96MOL0     H13224  11.574  11.440   9.810  2.7965  0.3397 -1.1415
   96MOL0     H13225  11.648  11.350   9.940 -3.2175  0.2712  1.5473
   96MOL0     H13226  11.796  11.549   9.987 -0.6325 -0.2214  0.3944
   96MOL0     H13227  11.745  11.630   9.832  4.2296  0.0291 -0.2488
   96MOL0     H13228  10.742  11.345  10.374  0.0457 -1.7379 -2.3956
   96MOL0     H13229  10.505  11.410  10.394  0.7084  0.4773  0.6158
   96MOL0     H13230  10.100  11.624  10.102 -3.7839 -2.0645  0.1572
   96MOL0     H13231   9.873  11.646  10.168  1.0067  0.3269 -1.5862
   96MOL0     H13232   8.060  11.255  10.081  1.8465  0.3861  2.4857
   96MOL0     H13233   7.908  11.074  10.101  0.6788 -0.9129  0.7116
   96MOL0     H13234   7.733  10.845  10.436 -1.4488  0.4266  0.6121
   96MOL0     H13235   7.560  10.697  10.506  0.6414  1.2320  0.7641
   96MOL0     H13236   7.402  10.519  10.553 -0.3566 -3.8641  0.6709
   96MOL0     H13237   7.367  10.640  10.436  0.8548  0.8246  5.9630
   96MOL0     H13238   7.173  10.504  10.469  0.7237  2.5347 -2.4848
   96MOL0     H13239   7.261  10.354  10.435 -0.2497 -0.4066 -0.6241
   96MOL0     H13240   7.217  10.594  10.243  1.8107 -0.1659 -4.0117
   96MOL0     H13241   7.289  10.437  10.192 -0.7400 -2.9922  0.1405
   96MOL0     H13242   7.073  10.333  10.280  2.3404 -0.4353 -0.7387
   96MOL0     H13243   7.079  10.413  10.114  0.8065 -1.6535 -0.3504
   96MOL0     H13244   6.815  10.696  10.254 -1.9845 -1.0306 -3.8137
   96MOL0     H13245   7.690  10.412  10.212  0.6490  0.2468  0.4713
   96MOL0     H13246   7.929  10.418  10.169  0.4937 -0.0163  2.2639
   96MOL0     H13247   7.898  10.532  10.036 -0.3654 -4.0102 -0.5935
   96MOL0     H13248   8.023  10.565  10.162 -0.1493 -0.1595 -2.0225
   97MOL0     O13249  10.890  10.206   5.291 -0.1348  0.4666  0.3450
   97MOL0     C13250  10.837  10.092   5.276  0.3106  0.0911 -0.4444
   97MOL0     O13251  10.887   9.974   5.325 -0.7052  0.5155  0.4384
   97MOL0     C13252  11.007   9.973   5.386 -0.2983  0.1824 -0.1190
   97MOL0     C13253  11.100   9.887   5.337  0.3286  0.6534 -0.3299
   97MOL0     C13254  11.231   9.879   5.388 -1.1786  0.1733  0.0354
   97MOL0     C13255  11.261   9.963   5.497 -0.6492 -0.8737 -0.2100
   97MOL0     O13256  11.390   9.956   5.543 -0.5229 -0.2435 -0.2889
   97MOL0     C13257  11.403   9.978   5.685 -0.9786 -0.6832  0.0687
   97MOL0     C13258  11.550   9.950   5.729  0.5682 -0.6255  0.7320
   97MOL0     C13259  11.652  10.047   5.686  0.6533  0.3968 -0.5157
   97MOL0     C13260  11.782   9.997   5.741 -0.4197  0.2735  0.6168
   97MOL0     C13261  11.898  10.084   5.688 -0.1881 -0.2151  0.8705
   97MOL0     C13262  11.919  10.053   5.534 -0.3951  0.4712 -1.0439
   97MOL0     C13263  12.038  10.117   5.485 -0.9075  0.0578  0.2967
   97MOL0     C13264  12.095  10.067   5.348 -0.3145 -0.8161  0.1448
   97MOL0     N13265  12.211  10.157   5.316  0.5490  0.2228 -0.6560
   97MOL0     C13266  12.202  10.287   5.276  0.1316  0.0038  0.3954
   97MOL0     C13267  12.326  10.337   5.265 -0.5176 -0.0465 -0.5971
   97MOL0     C13268  12.359  10.481   5.226 -0.2528 -0.4258 -0.0660
   97MOL0     C13269  12.487  10.482   5.135 -0.1164  1.0848  0.1307
   97MOL0     C13270  12.526  10.630   5.098 -0.4818 -0.1242  0.0165
   97MOL0     C13271  12.654  10.644   5.013  0.2020  0.0832 -0.3780
   97MOL0     O13272  12.769  10.577   5.079 -0.0622  0.2759  0.5563
   97MOL0     C13273  12.889  10.545   5.011  0.2931  0.6709 -0.0466
   97MOL0     C13274  12.998  10.507   5.093  0.3926  0.2591  0.4221
   97MOL0     C13275  13.128  10.501   5.047  0.1621 -0.0334 -0.7356
   97MOL0     C13276  13.233  10.474   5.150  0.8826  0.4545 -0.0830
   97MOL0     C13277  13.155  10.524   4.912 -0.2849  0.7036  0.2110
   97MOL0     C13278  13.292  10.526   4.844 -1.1279  0.2425 -0.8674
   97MOL0     O13279  13.293  10.591   4.718  1.0811  0.0856 -0.2017
   97MOL0     C13280  13.418  10.638   4.674 -0.2372  0.3308 -0.5804
   97MOL0     C13281  13.510  10.700   4.759 -0.2951 -0.3991  0.0201
   97MOL0     C13282  13.621  10.760   4.710  0.1782 -0.6199 -0.0637
   97MOL0     C13283  13.643  10.764   4.570  0.5282 -0.6785 -0.4038
   97MOL0     O13284  13.761  10.813   4.521 -0.0328 -0.4676 -0.1674
   97MOL0     C13285  13.824  10.940   4.580  0.1134  0.0474  0.3432
   97MOL0     C13286  13.939  11.005   4.498  1.4205  0.3141  0.0189
   97MOL0     C13287  14.032  10.895   4.450 -0.1222  0.1211 -0.3065
   97MOL0     C13288  14.169  10.950   4.483  0.3894 -0.1603  0.1524
   97MOL0     C13289  14.291  10.855   4.442 -0.0148  0.4525  0.3160
   97MOL0     C13290  14.298  10.847   4.287 -0.4353 -0.3107 -0.3281
   97MOL0     C13291  14.409  10.762   4.243  0.1223 -0.7081 -0.3070
   97MOL0     C13292  14.409  10.743   4.090  0.0193 -0.9188  0.1380
   97MOL0    Cl13293  14.439  10.889   3.998 -0.2044 -0.4554 -0.1862
   97MOL0     C13294  13.546  10.716   4.481 -0.1454  0.3193 -0.5851
   97MOL0     C13295  13.440  10.647   4.537 -0.1104  0.5049 -1.0805
   97MOL0     O13296  13.392  10.470   4.895 -0.5511  0.1833 -0.1716
   97MOL0     C13297  13.045  10.554   4.834  0.7226  1.0380  0.3995
   97MOL0     C13298  12.914  10.559   4.871  0.3872  0.4110 -0.3999
   97MOL0     N13299  12.408  10.232   5.300  0.1082  0.1782 -0.2733
   97MOL0     N13300  12.344  10.126   5.320  0.6046  0.2932 -0.3926
   97MOL0     C13301  11.163  10.052   5.550  0.4046  0.9196  0.1533
   97MOL0     C13302  11.037  10.057   5.490  0.0636  0.4686 -0.6512
   97MOL0     C13303  10.709  10.078   5.190 -0.4858  0.3184 -0.4382
   97MOL0     C13304  10.651  10.195   5.138  0.5110  0.0996  0.0346
   97MOL0     C13305  10.540  10.191   5.065 -0.3565  0.2255 -0.1366
   97MOL0     C13306  10.472  10.069   5.038 -0.7635  0.5064  0.9838
   97MOL0     O13307  10.361  10.066   4.955  0.3341 -0.3058 -0.1292
   97MOL0     C13308  10.309   9.939   4.911 -0.1862  0.2857  0.7331
   97MOL0     C13309  10.177   9.960   4.840 -0.5679  0.3300 -0.7006
   97MOL0     C13310  10.120   9.829   4.786 -0.5394 -0.7536 -0.3845
   97MOL0     C13311  10.008   9.848   4.690  0.5457  0.8957  0.2537
   97MOL0     C13312   9.885   9.876   4.765 -0.3461 -0.3242 -0.3814
   97MOL0     C13313   9.774   9.898   4.824  0.1555  0.7783  0.5048
   97MOL0     C13314  10.531   9.954   5.084  0.2925  0.2586  1.2013
   97MOL0     C13315  10.648   9.955   5.158 -0.1389  0.0758  0.1011
   97MOL0     C13316  10.701   9.815   5.193 -0.2448 -0.0885  0.2078
   97MOL0     H13317  11.070   9.828   5.252 -0.7067  2.5790 -1.3569
   97MOL0     H13318  11.310   9.817   5.349 -1.5936 -0.7166  0.5906
   97MOL0     H13319  11.352   9.902   5.745  3.0925 -3.7282  0.1657
   97MOL0     H13320  11.383  10.080   5.717 -2.0396 -0.9841  0.3949
   97MOL0     H13321  11.550   9.946   5.839  2.1659  0.5464  0.7980
   97MOL0     H13322  11.576   9.854   5.685 -1.5919  0.6137 -3.7719
   97MOL0     H13323  11.657  10.055   5.577  1.8974  2.1002 -0.3543
   97MOL0     H13324  11.619  10.142   5.729  0.6926 -0.4092  1.4028
   97MOL0     H13325  11.777  10.006   5.850 -1.4103  1.2583  0.5112
   97MOL0     H13326  11.797   9.893   5.712 -1.4886  0.4336 -0.6292
   97MOL0     H13327  11.984  10.050   5.747  1.7545 -1.1344 -2.2763
   97MOL0     H13328  11.884  10.191   5.703  1.5826  0.3741 -1.3153
   97MOL0     H13329  11.929   9.945   5.522  0.2051  0.6497 -2.3290
   97MOL0     H13330  11.838  10.092   5.472 -0.6509 -2.0540 -2.4445
   97MOL0     H13331  12.121  10.103   5.554 -1.4196 -1.2255  0.6796
   97MOL0     H13332  12.005  10.222   5.485  2.1639  1.1070  0.1122
   97MOL0     H13333  12.125   9.962   5.356  2.2678 -0.1600 -0.0770
   97MOL0     H13334  12.026  10.081   5.264  0.7881  2.1424 -0.3886
   97MOL0     H13335  12.112  10.343   5.253  0.2378  0.0160 -0.0091
   97MOL0     H13336  12.377  10.546   5.312 -2.6406 -0.3891  0.4730
   97MOL0     H13337  12.278  10.518   5.163 -0.5648 -3.9339 -1.9820
   97MOL0     H13338  12.573  10.447   5.193  1.4996  1.9504 -1.6506
   97MOL0     H13339  12.487  10.415   5.048  2.4191 -0.3513  1.1370
   97MOL0     H13340  12.444  10.683   5.051 -2.5095 -0.0755  3.3089
   97MOL0     H13341  12.550  10.690   5.187  0.5315 -0.1730 -0.2046
   97MOL0     H13342  12.621  10.590   4.923 -0.1378 -2.1524  1.0256
   97MOL0     H13343  12.690  10.744   4.988  2.1063 -0.4606  0.0508
   97MOL0     H13344  12.969  10.474   5.192 -1.1333  0.2324  0.0009
   97MOL0     H13345  13.187  10.476   5.250 -1.5431 -2.1906 -0.9835
   97MOL0     H13346  13.321  10.536   5.136 -1.1611  3.1622 -2.2056
   97MOL0     H13347  13.257  10.368   5.139 -2.9324 -0.4416 -1.6125
   97MOL0     H13348  13.493  10.707   4.866  0.0295  0.8240 -0.0007
   97MOL0     H13349  13.700  10.804   4.769  0.4662  1.4593 -1.8944
   97MOL0     H13350  13.747  11.018   4.577  0.7335  0.6964 -2.6489
   97MOL0     H13351  13.858  10.916   4.681 -1.8330  1.6025  1.4260
   97MOL0     H13352  13.888  11.055   4.416 -0.7033  0.4759  1.3561
   97MOL0     H13353  13.984  11.074   4.570  0.4578  0.0670  0.8781
   97MOL0     H13354  14.023  10.871   4.343  1.6448 -0.3112 -0.3956
   97MOL0     H13355  14.022  10.798   4.501 -1.1081 -0.7071 -1.9857
   97MOL0     H13356  14.167  10.963   4.591 -0.3594 -3.9807  0.7503
   97MOL0     H13357  14.181  11.046   4.433 -0.5186  0.2402  0.6816
   97MOL0     H13358  14.383  10.901   4.476 -1.1996  2.2438  1.2568
   97MOL0     H13359  14.279  10.761   4.497  0.8660  0.4789  0.5691
   97MOL0     H13360  14.317  10.950   4.255 -0.9259 -0.4263 -1.0209
   97MOL0     H13361  14.205  10.811   4.242 -1.7643  2.5287 -0.0750
   97MOL0     H13362  14.408  10.667   4.299  1.5217 -0.1836  0.6678
   97MOL0     H13363  14.501  10.817   4.266 -0.7304  0.5277  0.2447
   97MOL0     H13364  14.307  10.713   4.062 -0.5876  0.7950  0.3963
   97MOL0     H13365  14.475  10.663   4.055  0.0508 -0.4379 -0.9212
   97MOL0     H13366  13.551  10.727   4.373  0.3132  2.0255 -0.4151
   97MOL0     H13367  13.379  10.613   4.454  0.6790 -2.3623 -0.5899
   97MOL0     H13368  13.052  10.575   4.728 -0.7861  3.4503  0.6909
   97MOL0     H13369  12.838  10.601   4.805 -1.2208 -0.6039  0.7300
   97MOL0     H13370  11.191  10.125   5.625  1.6579  0.1983  0.4240
   97MOL0     H13371  10.971  10.138   5.517 -1.1097 -0.2959 -1.1437
   97MOL0     H13372  10.685  10.292   5.173 -0.1974  0.3791 -0.0276
   97MOL0     H13373  10.492  10.276   5.019  0.5279  1.9065  1.9120
   97MOL0     H13374  10.374   9.894   4.836  0.8735 -1.4159  2.5693
   97MOL0     H13375  10.298   9.868   4.994 -0.8230  1.0889  1.3562
   97MOL0     H13376  10.198  10.029   4.758 -0.4255 -0.5218 -1.4070
   97MOL0     H13377  10.104  10.001   4.910 -2.8215 -1.9952 -1.5293
   97MOL0     H13378  10.202   9.769   4.745 -0.8804 -0.8584 -0.9312
   97MOL0     H13379  10.084   9.761   4.863 -3.0349  0.0146 -0.7920
   97MOL0     H13380  10.000   9.758   4.628 -0.0088 -0.3867  2.1074
   97MOL0     H13381  10.023   9.930   4.620  1.1039  0.9635  0.4510
   97MOL0     H13382   9.680   9.924   4.868 -0.3442  1.0520 -0.6677
   97MOL0     H13383  10.485   9.858   5.058  0.2757  0.4790  0.4000
   97MOL0     H13384  10.617   9.745   5.183 -1.6561  1.4986  0.3659
   97MOL0     H13385  10.775   9.780   5.122 -0.7613  1.3934 -1.1310
   97MOL0     H13386  10.723   9.813   5.300 -4.9644  2.5232  1.5655
   98MOL0     O13387   4.004   9.707   5.900  0.0279 -0.4323  0.1671
   98MOL0     C13388   3.883   9.710   5.920  0.3620 -0.0353  0.3251
   98MOL0     O13389   3.816   9.634   6.004 -0.4140 -0.0053 -0.2682
   98MOL0     C13390   3.894   9.562   6.097  0.7709  0.4359 -0.1586
   98MOL0     C13391   3.967   9.631   6.194  0.1176  0.1233 -0.6618
   98MOL0     C13392   4.053   9.555   6.282 -0.0486 -0.1976  0.0191
   98MOL0     C13393   4.068   9.418   6.263 -0.3906 -0.4208  0.2422
   98MOL0     O13394   4.165   9.342   6.334  1.1175 -0.2548 -0.1739
   98MOL0     C13395   4.244   9.261   6.252 -0.3614  0.4985  0.3621
   98MOL0     C13396   4.364   9.228   6.340  0.3644  1.1069  0.4878
   98MOL0     C13397   4.473   9.335   6.350  0.1093 -1.0720 -0.7041
   98MOL0     C13398   4.619   9.278   6.354 -0.0050  0.0499  0.1686
   98MOL0     C13399   4.670   9.195   6.478 -0.7543 -0.5346  1.4753
   98MOL0     C13400   4.659   9.274   6.610 -0.7239 -0.0862 -0.0933
   98MOL0     C13401   4.735   9.211   6.729  0.1350 -0.2561  0.2478
   98MOL0     C13402   4.692   9.058   6.753 -0.5129 -0.1662 -0.2916
   98MOL0     N13403   4.550   9.028   6.786 -0.5070  0.1663  0.2931
   98MOL0     C13404   4.455   8.984   6.700  1.0165 -0.1402 -0.1950
   98MOL0     C13405   4.347   8.956   6.779  0.1570 -0.2797  0.7274
   98MOL0     C13406   4.220   8.881   6.725 -0.0068 -0.1921  0.4399
   98MOL0     C13407   4.092   8.961   6.733 -0.4451  0.3378  1.0211
   98MOL0     C13408   4.100   9.068   6.622 -0.5738 -0.2764  0.6729
   98MOL0     C13409   3.990   9.176   6.648 -0.7105  0.1500  0.0086
   98MOL0     O13410   3.863   9.118   6.625 -0.1030  0.7025  0.5986
   98MOL0     C13411   3.771   9.178   6.554  0.2872 -0.6011  0.1570
   98MOL0     C13412   3.651   9.227   6.613  0.2053 -0.2144 -0.5176
   98MOL0     C13413   3.556   9.303   6.542 -0.2692 -0.2148  0.1291
   98MOL0     C13414   3.427   9.326   6.616  0.1095  0.3436  0.2338
   98MOL0     C13415   3.574   9.334   6.404  0.1164  0.7650  0.5570
   98MOL0     C13416   3.491   9.420   6.312 -0.0073  0.0781 -0.4669
   98MOL0     O13417   3.380   9.461   6.374 -1.1096  0.3460  0.0088
   98MOL0     C13418   3.276   9.506   6.308 -0.0745 -0.8691 -0.5078
   98MOL0     C13419   3.149   9.466   6.344  0.1112 -0.3672  0.5718
   98MOL0     C13420   3.032   9.501   6.264 -0.7390  0.3144 -0.1134
   98MOL0     C13421   3.040   9.603   6.174 -0.2853  0.1455  0.5247
   98MOL0     O13422   2.932   9.641   6.102 -0.0977  0.0076 -0.1973
   98MOL0     C13423   2.894   9.779   6.127 -0.3400  0.0475  0.2091
   98MOL0     C13424   2.747   9.785   6.126  0.4182  0.2593 -0.1196
   98MOL0     C13425   2.709   9.914   6.197  0.4425  0.0354 -0.0579
   98MOL0     C13426   2.670   9.875   6.339 -0.6521 -0.7807 -0.0030
   98MOL0     C13427   2.631   9.992   6.423  0.3033 -0.7764 -0.2535
   98MOL0     C13428   2.695   9.994   6.564 -0.1233  0.6664  0.2897
   98MOL0     C13429   2.845  10.034   6.558 -0.2658  0.3739 -0.1133
   98MOL0     C13430   2.902  10.027   6.703 -0.0821 -0.0173 -0.0758
   98MOL0    Cl13431   2.816  10.161   6.779  0.1360  0.3823 -0.0531
   98MOL0     C13432   3.174   9.649   6.142  0.1068 -0.3174 -0.5978
   98MOL0     C13433   3.286   9.604   6.211 -0.6204  0.1241  0.6674
   98MOL0     O13434   3.527   9.451   6.206 -0.2807  0.5072  0.6242
   98MOL0     C13435   3.683   9.276   6.344 -0.8907 -0.2838 -1.0219
   98MOL0     C13436   3.784   9.205   6.416 -0.1358  0.0501 -0.5174
   98MOL0     N13437   4.374   8.985   6.914 -0.7282  0.7358 -0.0388
   98MOL0     N13438   4.496   9.036   6.909  0.3986  0.1948 -0.0984
   98MOL0     C13439   3.988   9.347   6.169  0.5409 -0.1057 -0.6307
   98MOL0     C13440   3.898   9.423   6.093  0.3486 -0.0928 -0.2395
   98MOL0     C13441   3.800   9.797   5.822 -0.4992 -0.5219  0.3686
   98MOL0     C13442   3.868   9.872   5.727  0.0726 -0.2954  1.4545
   98MOL0     C13443   3.795   9.950   5.628 -0.3040  0.1337 -0.2065
   98MOL0     C13444   3.661   9.967   5.632  0.0164 -0.1193  0.0767
   98MOL0     O13445   3.585  10.036   5.543  0.9759 -0.7226  0.3930
   98MOL0     C13446   3.644  10.122   5.438 -0.5063  0.0524  0.0275
   98MOL0     C13447   3.668  10.052   5.305 -0.3115  0.5622  0.1382
   98MOL0     C13448   3.539   9.975   5.254 -0.0752 -0.9730  0.2627
   98MOL0     C13449   3.550   9.919   5.112 -0.4722  0.9402  0.4762
   98MOL0     C13450   3.626   9.792   5.106  0.4200 -0.1294 -0.0846
   98MOL0     C13451   3.667   9.680   5.108  0.2014 -1.3376 -0.9330
   98MOL0     C13452   3.592   9.888   5.726 -0.1985  0.4649  0.2138
   98MOL0     C13453   3.659   9.802   5.808  0.3367 -0.0485 -0.8206
   98MOL0     C13454   3.565   9.710   5.889 -0.5436 -0.6951 -0.0777
   98MOL0     H13455   3.972   9.739   6.194 -1.9972  0.2642 -0.4273
   98MOL0     H13456   4.116   9.605   6.355 -0.8045 -2.4329  2.3696
   98MOL0     H13457   4.262   9.308   6.155  0.3498  1.7295  1.0524
   98MOL0     H13458   4.202   9.162   6.235 -2.5102  1.2477  1.0626
   98MOL0     H13459   4.324   9.185   6.432 -0.4448 -2.0479 -1.1685
   98MOL0     H13460   4.400   9.136   6.292  0.1298  1.1434  0.2415
   98MOL0     H13461   4.459   9.414   6.275 -0.8465 -0.6856 -0.1359
   98MOL0     H13462   4.460   9.393   6.441 -0.5626 -0.6310 -1.0686
   98MOL0     H13463   4.623   9.217   6.263  1.4831 -0.2639  0.4195
   98MOL0     H13464   4.688   9.361   6.340 -3.0248  2.3338 -3.3542
   98MOL0     H13465   4.776   9.177   6.459 -0.6928  1.5658 -0.6754
   98MOL0     H13466   4.614   9.102   6.489 -0.3901 -0.8917  0.4397
   98MOL0     H13467   4.705   9.372   6.593 -1.6586  0.5964  1.1546
   98MOL0     H13468   4.559   9.302   6.645 -0.1449  2.7277 -0.3879
   98MOL0     H13469   4.702   9.276   6.811  1.7082 -0.4800  1.0807
   98MOL0     H13470   4.841   9.206   6.703  0.1874 -0.2019  0.4500
   98MOL0     H13471   4.710   8.994   6.666  1.9449 -3.9511  2.6684
   98MOL0     H13472   4.769   9.013   6.816  2.9672  1.5053 -3.0261
   98MOL0     H13473   4.450   8.974   6.592 -0.8766 -1.0292 -0.0661
   98MOL0     H13474   4.193   8.796   6.789 -2.3390  0.8325  0.9122
   98MOL0     H13475   4.235   8.843   6.624  4.0136 -0.5320  1.0152
   98MOL0     H13476   4.011   8.889   6.718  0.7457 -1.0680  1.2266
   98MOL0     H13477   4.070   9.013   6.827  3.2326  0.3113  2.0547
   98MOL0     H13478   4.193   9.125   6.627 -0.8204  0.0799  1.5622
   98MOL0     H13479   4.086   9.032   6.520  0.7056  0.7278  0.1151
   98MOL0     H13480   4.002   9.214   6.750 -0.7402  0.3651 -0.0676
   98MOL0     H13481   4.022   9.258   6.583  1.9056 -1.3091 -0.7222
   98MOL0     H13482   3.643   9.210   6.719  3.4173  2.6978  0.3688
   98MOL0     H13483   3.350   9.266   6.567  0.7497 -0.0033 -0.3667
   98MOL0     H13484   3.394   9.430   6.604  2.9663  1.4067  0.6843
   98MOL0     H13485   3.432   9.308   6.724  3.0873 -0.8871  0.0093
   98MOL0     H13486   3.129   9.414   6.437 -0.2153 -1.7622 -0.2560
   98MOL0     H13487   2.930   9.465   6.277 -0.1832 -0.8197  1.2172
   98MOL0     H13488   2.930   9.820   6.222 -2.5212  2.3309  0.1669
   98MOL0     H13489   2.938   9.835   6.043  1.3947 -0.8711  0.4465
   98MOL0     H13490   2.728   9.783   6.018  0.9694 -1.2185 -0.2124
   98MOL0     H13491   2.714   9.691   6.171 -2.6611 -1.2197 -4.7122
   98MOL0     H13492   2.625   9.954   6.140  1.7843  1.2939 -1.2309
   98MOL0     H13493   2.789   9.989   6.191  0.1302  0.5162  1.3477
   98MOL0     H13494   2.752   9.817   6.382  0.4531 -2.4299 -3.9059
   98MOL0     H13495   2.580   9.814   6.340 -3.3899  2.9345  0.5076
   98MOL0     H13496   2.671  10.083   6.378 -0.9904  0.4547  0.9532
   98MOL0     H13497   2.522  10.005   6.429  0.3428 -0.6730  0.2282
   98MOL0     H13498   2.688   9.894   6.609  2.0806  0.8247  1.1314
   98MOL0     H13499   2.644  10.070   6.625  1.0201  0.6127  1.3693
   98MOL0     H13500   2.846  10.138   6.524  1.0907  0.9211  1.4644
   98MOL0     H13501   2.900   9.971   6.488 -0.2317  0.6527 -0.3377
   98MOL0     H13502   3.009  10.045   6.702  0.0733 -0.9029 -1.3622
   98MOL0     H13503   2.891   9.925   6.740 -3.2643  0.3613  0.3456
   98MOL0     H13504   3.178   9.726   6.066 -0.6223  0.3299 -0.0014
   98MOL0     H13505   3.379   9.647   6.176 -1.8076  2.8984  0.6772
   98MOL0     H13506   3.693   9.279   6.236  3.5118 -2.9869 -0.9087
   98MOL0     H13507   3.870   9.168   6.361 -1.0870  1.9990 -3.5634
   98MOL0     H13508   3.987   9.240   6.155  2.7813 -0.2487 -0.0357
   98MOL0     H13509   3.835   9.382   6.015  2.0540 -0.6820 -1.3483
   98MOL0     H13510   3.976   9.884   5.728  0.1672 -1.0920  3.4458
   98MOL0     H13511   3.856   9.994   5.550  2.7643  1.2379  2.6129
   98MOL0     H13512   3.570  10.201   5.421 -0.7962  0.5493  3.0670
   98MOL0     H13513   3.736  10.169   5.473 -0.1910 -0.9179  0.5532
   98MOL0     H13514   3.753   9.985   5.318  0.2445  1.3261  0.4715
   98MOL0     H13515   3.706  10.120   5.228 -0.2707 -1.7564 -2.0296
   98MOL0     H13516   3.500   9.897   5.322  1.5467  1.7028  4.6972
   98MOL0     H13517   3.456  10.046   5.246  1.6803  0.9739 -1.7347
   98MOL0     H13518   3.602   9.988   5.044  1.0726  0.5902  1.2616
   98MOL0     H13519   3.456   9.912   5.056  0.6141  2.4535 -1.6704
   98MOL0     H13520   3.698   9.579   5.126 -1.5793 -1.7108  0.3452
   98MOL0     H13521   3.484   9.889   5.730 -0.2129 -1.0501  1.0603
   98MOL0     H13522   3.591   9.604   5.888 -0.8691 -0.7754 -1.4699
   98MOL0     H13523   3.567   9.738   5.995  1.3619  1.7691 -0.6654
   98MOL0     H13524   3.463   9.712   5.852 -0.8010 -0.5487  0.6141
   99MOL0     O13525   4.789   2.176   5.823  1.0924  0.2297  0.0168
   99MOL0     C13526   4.820   2.174   5.940 -0.3132 -0.7357  0.0748
   99MOL0     O13527   4.940   2.233   5.986  0.4869 -0.3387 -0.4730
   99MOL0     C13528   5.045   2.260   5.898  0.2571  1.0577  0.4894
   99MOL0     C13529   5.133   2.359   5.926 -0.0621 -0.0378 -0.1069
   99MOL0     C13530   5.240   2.380   5.847 -0.6828  0.4127  0.6905
   99MOL0     C13531   5.275   2.302   5.733  0.8745 -1.1135  0.0007
   99MOL0     O13532   5.381   2.340   5.654  0.3372  0.0871 -0.6791
   99MOL0     C13533   5.474   2.230   5.641  0.4997 -0.3449 -0.5384
   99MOL0     C13534   5.592   2.297   5.568  0.6889 -0.0415 -0.0509
   99MOL0     C13535   5.689   2.200   5.525  0.0216  0.4589  0.8936
   99MOL0     C13536   5.801   2.279   5.445 -1.0193 -0.1778 -0.6603
   99MOL0     C13537   5.921   2.176   5.425  0.2248 -0.0205 -0.7085
   99MOL0     C13538   6.017   2.177   5.550 -0.1566  1.0878  0.3490
   99MOL0     C13539   6.131   2.070   5.535 -0.5773  0.0575  0.3203
   99MOL0     C13540   6.253   2.135   5.473  0.4492  0.0783 -0.4039
   99MOL0     N13541   6.374   2.055   5.473 -0.0383  0.6961 -0.1497
   99MOL0     C13542   6.422   1.985   5.368 -0.1908 -0.5944 -0.0705
   99MOL0     C13543   6.534   1.923   5.423 -0.7926  0.1631  0.2513
   99MOL0     C13544   6.633   1.843   5.334 -0.9460  0.3704  0.5145
   99MOL0     C13545   6.767   1.838   5.404  0.4484 -0.2889  0.3300
   99MOL0     C13546   6.884   1.767   5.317 -0.1646 -0.2381 -0.6805
   99MOL0     C13547   7.010   1.744   5.400 -0.4303  0.5360 -0.0028
   99MOL0     O13548   7.090   1.667   5.309 -0.3200 -0.1403  0.1908
   99MOL0     C13549   7.218   1.628   5.332 -0.8315  0.9597  0.1401
   99MOL0     C13550   7.272   1.536   5.246  0.0201  0.7984 -0.4159
   99MOL0     C13551   7.406   1.493   5.256  0.7852 -0.3796 -0.8035
   99MOL0     C13552   7.449   1.395   5.147 -0.3372 -0.3397 -0.4531
   99MOL0     C13553   7.489   1.536   5.365  0.1299  0.9367  0.6872
   99MOL0     C13554   7.635   1.499   5.373 -0.1757  0.0934 -0.7525
   99MOL0     O13555   7.704   1.570   5.465  0.2024  0.0416 -0.4592
   99MOL0     C13556   7.822   1.531   5.524 -0.9183  0.4444 -0.1928
   99MOL0     C13557   7.907   1.426   5.478  0.3563  0.1068 -0.2117
   99MOL0     C13558   8.023   1.404   5.546 -0.9843 -0.1182 -0.4778
   99MOL0     C13559   8.054   1.461   5.672 -0.4544  0.4543  0.4835
   99MOL0     O13560   8.170   1.427   5.742  0.2224 -0.4774  0.6031
   99MOL0     C13561   8.171   1.416   5.889 -0.5399 -0.7311  0.1282
   99MOL0     C13562   8.307   1.355   5.948  0.6629 -0.0782 -0.2572
   99MOL0     C13563   8.422   1.455   5.961  0.5487  0.0351 -0.1761
   99MOL0     C13564   8.468   1.500   5.820  0.3462 -0.0534 -0.3643
   99MOL0     C13565   8.609   1.558   5.822  0.8985  0.4987 -0.1735
   99MOL0     C13566   8.716   1.464   5.882  0.4043 -0.8253 -0.7254
   99MOL0     C13567   8.727   1.325   5.819  0.6152  0.2288 -0.0496
   99MOL0     C13568   8.849   1.252   5.874  0.2759 -1.3052  0.0514
   99MOL0    Cl13569   8.805   1.183   6.029  0.2731  0.2426 -0.4191
   99MOL0     C13570   7.970   1.557   5.718  0.0183  0.0692  0.5565
   99MOL0     C13571   7.847   1.591   5.647 -0.0064  0.1195 -0.0029
   99MOL0     O13572   7.681   1.407   5.311 -0.2122  0.6462 -0.5264
   99MOL0     C13573   7.432   1.620   5.453  0.3137 -0.0583  0.2008
   99MOL0     C13574   7.296   1.665   5.445 -0.6620 -0.2986  0.7373
   99MOL0     N13575   6.547   1.963   5.555 -0.0464  0.6780 -0.3941
   99MOL0     N13576   6.449   2.042   5.583  0.4006  0.1089 -0.4854
   99MOL0     C13577   5.176   2.203   5.693 -0.0243  1.2189 -0.1043
   99MOL0     C13578   5.072   2.177   5.782  0.1298  0.0967  0.1966
   99MOL0     C13579   4.742   2.107   6.032 -0.1033  0.6717 -1.1246
   99MOL0     C13580   4.810   2.058   6.154 -0.5698  0.4503  0.2382
   99MOL0     C13581   4.736   1.979   6.245 -0.0570 -0.5920 -0.8704
   99MOL0     C13582   4.602   1.949   6.224 -0.7269  0.6222  0.0579
   99MOL0     O13583   4.539   1.872   6.319 -0.1035 -0.3178 -0.4765
   99MOL0     C13584   4.399   1.907   6.328  0.6341  0.4799  0.6246
   99MOL0     C13585   4.349   1.872   6.474  0.1373 -0.4377  0.4811
   99MOL0     C13586   4.377   1.728   6.521 -0.5754  0.1678  0.1157
   99MOL0     C13587   4.294   1.686   6.647  0.6261  0.2951 -0.6307
   99MOL0     C13588   4.154   1.719   6.639  0.1406 -0.3396 -0.3103
   99MOL0     C13589   4.036   1.751   6.656 -0.2417  0.3638  0.0812
   99MOL0     C13590   4.545   1.982   6.103  0.0403  0.4375 -0.1442
   99MOL0     C13591   4.606   2.067   6.014  0.2768 -0.1236  0.4805
   99MOL0     C13592   4.524   2.092   5.889  0.0731 -0.6382 -0.6150
   99MOL0     H13593   5.110   2.421   6.012  0.3933 -1.7389  1.3039
   99MOL0     H13594   5.304   2.465   5.863  1.3061 -0.5514 -1.5302
   99MOL0     H13595   5.443   2.145   5.579  0.8551 -1.9345  1.3739
   99MOL0     H13596   5.498   2.178   5.734 -1.9497 -0.9288 -0.1625
   99MOL0     H13597   5.559   2.357   5.482 -2.0131  1.2350  1.7448
   99MOL0     H13598   5.635   2.363   5.643  0.4236  0.2324 -0.1373
   99MOL0     H13599   5.729   2.153   5.616  2.2767  0.3560 -0.0989
   99MOL0     H13600   5.651   2.121   5.459 -1.5676  0.4819  1.7082
   99MOL0     H13601   5.776   2.310   5.343  1.0154 -0.7877 -1.4019
   99MOL0     H13602   5.831   2.368   5.500 -3.2571 -1.5241  3.1008
   99MOL0     H13603   5.985   2.209   5.344  0.6020  2.4209  0.4936
   99MOL0     H13604   5.894   2.077   5.389 -1.5359  0.6879 -1.4641
   99MOL0     H13605   6.059   2.278   5.561 -1.0261  1.3885  0.9967
   99MOL0     H13606   5.963   2.142   5.639 -0.7362 -0.7492 -0.6758
   99MOL0     H13607   6.104   1.987   5.469  0.0920 -0.0900  0.2237
   99MOL0     H13608   6.149   2.029   5.634 -1.6910 -1.8535 -0.2231
   99MOL0     H13609   6.225   2.163   5.371 -0.0831  1.6161  0.1326
   99MOL0     H13610   6.279   2.232   5.517  0.3730  0.6711 -1.6222
   99MOL0     H13611   6.387   1.994   5.266 -0.9698  4.9303  0.3970
   99MOL0     H13612   6.647   1.895   5.238  1.0108 -0.0991  0.5023
   99MOL0     H13613   6.593   1.743   5.315  0.9334 -0.1075 -1.3801
   99MOL0     H13614   6.799   1.943   5.408 -0.4965  0.0267 -0.0620
   99MOL0     H13615   6.751   1.789   5.500 -1.6486 -3.3067 -1.3904
   99MOL0     H13616   6.844   1.676   5.272  0.2812 -0.6720 -0.2139
   99MOL0     H13617   6.905   1.839   5.237 -0.1533  0.9105  0.3199
   99MOL0     H13618   7.061   1.838   5.424 -0.0712  0.0912  1.0431
   99MOL0     H13619   6.984   1.680   5.485  0.7827 -0.7360 -0.5480
   99MOL0     H13620   7.216   1.507   5.157  2.5465 -1.1848 -1.4894
   99MOL0     H13621   7.537   1.425   5.088 -1.6336  0.0091 -2.3064
   99MOL0     H13622   7.362   1.374   5.085 -0.3827 -2.5371  0.2827
   99MOL0     H13623   7.462   1.296   5.191  1.6953  0.5839  1.2188
   99MOL0     H13624   7.893   1.372   5.385 -1.5335 -1.4600  0.9041
   99MOL0     H13625   8.105   1.340   5.514 -1.2743 -0.8312  0.1995
   99MOL0     H13626   8.155   1.511   5.940  0.4803 -0.1582 -0.5809
   99MOL0     H13627   8.090   1.352   5.924  2.0857 -4.5637 -0.2166
   99MOL0     H13628   8.289   1.320   6.051 -0.3415  1.5150  0.1573
   99MOL0     H13629   8.339   1.266   5.893  0.7321  0.8520 -1.7781
   99MOL0     H13630   8.501   1.405   6.018 -0.9169 -0.0773  1.8517
   99MOL0     H13631   8.397   1.543   6.020  0.7790 -1.0369  1.6070
   99MOL0     H13632   8.389   1.563   5.777 -0.0194 -1.3466 -1.6885
   99MOL0     H13633   8.464   1.421   5.744  2.4722  2.1285 -2.9698
   99MOL0     H13634   8.639   1.579   5.719 -0.4856 -0.5178 -0.8152
   99MOL0     H13635   8.610   1.649   5.884 -1.0766  1.4602 -1.4637
   99MOL0     H13636   8.690   1.455   5.988  1.0306 -0.3893 -0.5294
   99MOL0     H13637   8.817   1.505   5.874  0.6627 -1.2093  0.4199
   99MOL0     H13638   8.736   1.341   5.711  0.8259  0.2210 -0.0340
   99MOL0     H13639   8.638   1.262   5.831  1.2454 -0.6958 -0.1168
   99MOL0     H13640   8.938   1.314   5.881  0.3066 -0.5654 -4.2378
   99MOL0     H13641   8.875   1.168   5.809  0.6513 -1.5666  0.5287
   99MOL0     H13642   8.010   1.607   5.805  2.4567  1.2167 -1.0889
   99MOL0     H13643   7.779   1.670   5.676  0.2387 -0.2590  1.6805
   99MOL0     H13644   7.498   1.662   5.529 -1.5044  0.8104  1.3779
   99MOL0     H13645   7.258   1.731   5.523  1.6758  1.4700  0.5037
   99MOL0     H13646   5.180   2.139   5.606  0.4667  1.0521  0.0392
   99MOL0     H13647   5.012   2.092   5.750  2.3784 -1.0980 -1.0341
   99MOL0     H13648   4.909   2.097   6.178 -1.5149  2.7736  0.6143
   99MOL0     H13649   4.780   1.969   6.343  1.0512  3.8615 -0.7042
   99MOL0     H13650   4.389   2.015   6.313  2.8018  0.4987 -1.2180
   99MOL0     H13651   4.339   1.853   6.254  2.0563 -3.3106  2.0256
   99MOL0     H13652   4.244   1.903   6.470  0.5599  1.1797 -3.9554
   99MOL0     H13653   4.401   1.941   6.541  0.2195 -0.1039  0.0803
   99MOL0     H13654   4.360   1.652   6.444  1.4233  0.4122 -0.6127
   99MOL0     H13655   4.483   1.726   6.545 -0.5598  2.8872  0.5900
   99MOL0     H13656   4.343   1.733   6.733  2.4953 -0.1257 -1.4049
   99MOL0     H13657   4.309   1.580   6.667 -2.2945  0.1050  1.1031
   99MOL0     H13658   3.933   1.777   6.672 -0.2887  1.5093 -1.7303
   99MOL0     H13659   4.441   1.962   6.080 -0.2216  2.3657 -0.8398
   99MOL0     H13660   4.416   2.086   5.903 -0.2841  1.6374 -1.9093
   99MOL0     H13661   4.540   2.194   5.853 -1.6827  0.1116  0.6259
   99MOL0     H13662   4.566   2.023   5.814  0.0707  1.7710 -2.9787
  100MOL0     O13663  10.424   3.998   6.340 -0.3439  0.6850  0.2103
  100MOL0     C13664  10.303   3.974   6.350  1.1211  0.2040  0.0855
  100MOL0     O13665  10.242   3.853   6.312 -0.0219  0.3784 -0.0001
  100MOL0     C13666  10.332   3.758   6.265  0.0367  0.4019 -0.0462
  100MOL0     C13667  10.398   3.674   6.341  0.5311  1.2996 -0.0721
  100MOL0     C13668  10.488   3.587   6.287  0.1274 -0.3441  0.2858
  100MOL0     C13669  10.504   3.575   6.148 -0.3775 -0.3031 -0.2310
  100MOL0     O13670  10.617   3.499   6.119 -0.8189  0.3244  0.1535
  100MOL0     C13671  10.636   3.445   5.980  0.3206  0.1857  0.0956
  100MOL0     C13672  10.740   3.338   5.988  0.6751  0.2854 -0.2523
  100MOL0     C13673  10.876   3.398   6.024 -0.4017 -0.0806  0.3034
  100MOL0     C13674  10.976   3.285   6.060  1.1780  0.0574 -0.4748
  100MOL0     C13675  11.106   3.347   6.123  0.4317 -0.4030  0.1315
  100MOL0     C13676  11.181   3.238   6.208 -0.2743  0.2476  0.7318
  100MOL0     C13677  11.307   3.291   6.277 -0.3983 -0.2443 -0.2999
  100MOL0     C13678  11.349   3.183   6.377 -0.0572  0.0644  0.5094
  100MOL0     N13679  11.469   3.222   6.453  0.5874  0.3845  0.6337
  100MOL0     C13680  11.478   3.322   6.544  0.3038 -0.2049  0.0298
  100MOL0     C13681  11.596   3.299   6.604 -0.4123  0.0141 -0.5267
  100MOL0     C13682  11.651   3.407   6.702 -0.8277  0.2142  0.4579
  100MOL0     C13683  11.804   3.428   6.671  0.1029  0.0082  0.6075
  100MOL0     C13684  11.877   3.308   6.733 -0.1269  0.2260  0.7053
  100MOL0     C13685  12.029   3.310   6.695 -0.7292 -0.1033  0.0554
  100MOL0     O13686  12.084   3.175   6.696  0.0977 -0.5650 -0.1387
  100MOL0     C13687  12.212   3.166   6.715 -0.1658  0.2258  0.7318
  100MOL0     C13688  12.314   3.262   6.680  0.3250  0.6988 -0.7238
  100MOL0     C13689  12.447   3.228   6.688 -0.0444 -0.2677  0.3975
  100MOL0     C13690  12.554   3.335   6.671 -0.5179 -0.6604 -0.1681
  100MOL0     C13691  12.483   3.096   6.714 -0.5770 -0.3414 -0.3033
  100MOL0     C13692  12.625   3.047   6.724  0.0642  0.3375 -1.0262
  100MOL0     O13693  12.708   3.061   6.619 -0.1159 -0.4490 -0.2044
  100MOL0     C13694  12.828   3.013   6.615  0.0834  0.2659  0.0013
  100MOL0     C13695  12.935   3.085   6.662  0.4918  0.0417 -0.7929
  100MOL0     C13696  13.066   3.035   6.672  0.1177 -0.7324 -0.6544
  100MOL0     C13697  13.086   2.901   6.647 -0.4938 -0.0631  0.1937
  100MOL0     O13698  13.208   2.844   6.673  0.5082  0.7534  0.6148
  100MOL0     C13699  13.229   2.827   6.813  0.1559  0.3758 -0.2319
  100MOL0     C13700  13.311   2.691   6.841 -0.2429 -0.0733  1.1668
  100MOL0     C13701  13.386   2.693   6.979  1.1689 -0.0853 -0.4636
  100MOL0     C13702  13.475   2.568   6.974 -0.1342  0.3150  0.4023
  100MOL0     C13703  13.527   2.546   7.115  0.1391 -0.0014 -0.5016
  100MOL0     C13704  13.610   2.414   7.125  0.3679  0.3474 -0.1160
  100MOL0     C13705  13.673   2.386   7.271 -0.1646  0.2892  0.1265
  100MOL0     C13706  13.776   2.268   7.272 -0.4161  0.1102  0.3332
  100MOL0    Cl13707  13.874   2.250   7.418  0.2212  0.0702  0.1467
  100MOL0     C13708  12.977   2.826   6.600  0.6682  1.1144 -0.1412
  100MOL0     C13709  12.848   2.875   6.578 -0.2738 -0.1733  0.9118
  100MOL0     O13710  12.655   2.997   6.831 -0.4574 -0.4034 -0.2811
  100MOL0     C13711  12.379   3.005   6.744 -0.5963 -0.4354  0.1554
  100MOL0     C13712  12.249   3.037   6.745 -0.0563  0.6361  0.0879
  100MOL0     N13713  11.660   3.191   6.542  0.3343 -1.0601  0.6872
  100MOL0     N13714  11.579   3.139   6.452  0.3086 -0.7333  0.1874
  100MOL0     C13715  10.429   3.653   6.061  0.4914 -0.6977 -0.3937
  100MOL0     C13716  10.346   3.744   6.123  0.7181  0.5308  0.3937
  100MOL0     C13717  10.214   4.091   6.369  0.9125 -0.2336  0.3928
  100MOL0     C13718  10.075   4.065   6.360 -0.1098  0.3672  0.1882
  100MOL0     C13719   9.982   4.174   6.372 -1.2716  1.2387  1.0204
  100MOL0     C13720  10.028   4.303   6.405  0.1550 -1.0472  0.0352
  100MOL0     O13721   9.938   4.405   6.437 -0.1198 -0.3227 -0.4566
  100MOL0     C13722   9.854   4.381   6.558  0.2564  0.1918 -0.1844
  100MOL0     C13723   9.805   4.510   6.614 -0.5516  0.3743 -0.2436
  100MOL0     C13724   9.911   4.606   6.664  0.3260  0.5132  0.6416
  100MOL0     C13725   9.862   4.748   6.683 -0.6866 -0.1139 -0.1184
  100MOL0     C13726   9.977   4.838   6.673 -1.1283 -0.3129  0.4704
  100MOL0     C13727  10.072   4.915   6.674 -0.8042 -0.4020  0.0029
  100MOL0     C13728  10.164   4.322   6.420  0.7404 -0.1980 -0.3584
  100MOL0     C13729  10.260   4.223   6.403 -0.4238  0.1475  0.3721
  100MOL0     C13730  10.405   4.255   6.428 -0.1276 -0.2074 -1.3849
  100MOL0     H13731  10.377   3.684   6.447  1.4672 -0.5817  0.3453
  100MOL0     H13732  10.541   3.528   6.361 -2.6575 -0.6724  2.1937
  100MOL0     H13733  10.652   3.525   5.907 -0.3738  1.8710  1.7071
  100MOL0     H13734  10.539   3.402   5.954  0.6932 -0.2607 -0.5831
  100MOL0     H13735  10.709   3.270   6.067  5.5042 -1.6245  0.3440
  100MOL0     H13736  10.748   3.280   5.895  1.1497  2.4924 -1.6752
  100MOL0     H13737  10.922   3.464   5.950  0.3775 -1.2287 -0.2673
  100MOL0     H13738  10.851   3.460   6.110 -0.5660 -2.5348  2.1259
  100MOL0     H13739  10.927   3.215   6.129 -0.5044  0.6760 -1.0035
  100MOL0     H13740  10.995   3.232   5.967 -2.4787 -0.1923 -1.2345
  100MOL0     H13741  11.067   3.427   6.187 -0.6350 -1.1243  0.4136
  100MOL0     H13742  11.174   3.390   6.049  0.6158  0.3794  0.7357
  100MOL0     H13743  11.105   3.207   6.280 -2.4811 -1.1319 -1.9505
  100MOL0     H13744  11.212   3.155   6.143 -0.8468  0.4149  0.2287
  100MOL0     H13745  11.278   3.377   6.338  2.8435  1.3302 -0.7801
  100MOL0     H13746  11.383   3.319   6.204  1.1880 -0.0810  1.3203
  100MOL0     H13747  11.266   3.150   6.441 -1.1701 -2.0243 -1.8323
  100MOL0     H13748  11.368   3.089   6.324  0.6610 -1.3632  3.0864
  100MOL0     H13749  11.417   3.407   6.573  2.4671  0.6378  2.6021
  100MOL0     H13750  11.649   3.373   6.806  2.4484 -2.2738 -0.1122
  100MOL0     H13751  11.592   3.495   6.677 -1.2392 -0.4586 -1.0855
  100MOL0     H13752  11.822   3.438   6.564 -0.9810  1.4410  0.5325
  100MOL0     H13753  11.849   3.517   6.716  1.1450  0.2708 -0.8864
  100MOL0     H13754  11.874   3.335   6.839 -1.9310  0.4890  0.6117
  100MOL0     H13755  11.825   3.213   6.717 -2.4765  1.4362  0.6493
  100MOL0     H13756  12.037   3.357   6.596  1.8029 -1.3429 -0.4139
  100MOL0     H13757  12.077   3.376   6.768 -0.0534 -1.5777  0.9835
  100MOL0     H13758  12.277   3.355   6.637  2.1616  1.0142 -1.6986
  100MOL0     H13759  12.596   3.335   6.570 -2.8869  1.7460 -1.2977
  100MOL0     H13760  12.637   3.325   6.741 -0.2380  2.2057  0.0380
  100MOL0     H13761  12.513   3.433   6.700 -1.5645 -1.2341  0.3689
  100MOL0     H13762  12.912   3.189   6.683 -1.4400 -1.1588  4.6458
  100MOL0     H13763  13.152   3.097   6.698 -0.1453 -1.5763  2.7655
  100MOL0     H13764  13.279   2.917   6.850 -3.0577  2.3618 -0.3481
  100MOL0     H13765  13.137   2.825   6.872  1.0486 -0.1553  1.1854
  100MOL0     H13766  13.252   2.599   6.837 -0.6183  0.1958  0.4344
  100MOL0     H13767  13.387   2.690   6.763 -1.7441  0.1203 -0.3375
  100MOL0     H13768  13.313   2.686   7.060  0.2807 -1.1958 -1.3227
  100MOL0     H13769  13.441   2.785   7.001  0.1783  0.6102 -0.8558
  100MOL0     H13770  13.557   2.585   6.904 -0.8765  0.1887 -0.5164
  100MOL0     H13771  13.430   2.478   6.929  3.1027 -0.2517 -2.0309
  100MOL0     H13772  13.593   2.628   7.145 -0.1513 -0.4675  1.5172
  100MOL0     H13773  13.433   2.540   7.171 -0.4757  0.7476 -1.4147
  100MOL0     H13774  13.692   2.433   7.056  2.3374 -0.8807  1.7413
  100MOL0     H13775  13.546   2.329   7.101  0.0081  0.8123 -0.8478
  100MOL0     H13776  13.596   2.364   7.345 -0.1822 -1.2585 -0.3065
  100MOL0     H13777  13.727   2.474   7.307  0.3930 -1.0450  2.8590
  100MOL0     H13778  13.848   2.276   7.189  0.7391 -0.3681  1.2518
  100MOL0     H13779  13.724   2.173   7.254 -2.2678  1.3283 -1.1209
  100MOL0     H13780  13.000   2.720   6.602 -0.1506  0.8536 -2.0769
  100MOL0     H13781  12.771   2.810   6.538 -0.7874  0.3864  0.9726
  100MOL0     H13782  12.407   2.905   6.776 -1.0838 -0.5299  0.2863
  100MOL0     H13783  12.177   2.959   6.768 -1.5944  0.6184 -3.9338
  100MOL0     H13784  10.456   3.655   5.956  2.0868  1.4649 -0.0166
  100MOL0     H13785  10.293   3.811   6.057  0.6961  2.0453  1.8857
  100MOL0     H13786  10.036   3.967   6.334  0.5708 -0.0779  0.7973
  100MOL0     H13787   9.876   4.151   6.361 -1.2453  1.6850 -0.3279
  100MOL0     H13788   9.761   4.335   6.526 -0.9057  2.2281  0.1285
  100MOL0     H13789   9.909   4.327   6.636 -1.3051 -0.0902  0.7703
  100MOL0     H13790   9.753   4.489   6.707  0.5324 -5.2731 -0.5439
  100MOL0     H13791   9.742   4.555   6.537  2.9004  1.9326 -2.4363
  100MOL0     H13792   9.943   4.563   6.759  1.9990 -0.2607 -0.2207
  100MOL0     H13793   9.988   4.603   6.586 -1.3599 -0.3133 -1.0715
  100MOL0     H13794   9.821   4.754   6.784  1.8537  0.4010  0.9779
  100MOL0     H13795   9.787   4.783   6.612 -0.7891 -0.8080 -0.3640
  100MOL0     H13796  10.152   4.986   6.682 -2.1324  1.1393  0.1633
  100MOL0     H13797  10.186   4.425   6.444 -1.5353 -0.1186  1.8532
  100MOL0     H13798  10.423   4.360   6.457 -1.3149 -0.2794 -0.2735
  100MOL0     H13799  10.427   4.192   6.515 -0.6663 -3.8081 -3.6634
  100MOL0     H13800  10.466   4.226   6.342  0.4321  0.1125 -1.1092
  101MOL0     O13801   2.435   7.763   6.495 -0.3129  0.1141  0.0486
  101MOL0     C13802   2.396   7.868   6.448  0.5693  0.5685 -0.0830
  101MOL0     O13803   2.478   7.983   6.431  0.8087  0.2918  0.3940
  101MOL0     C13804   2.615   7.976   6.451  0.2724  0.3050 -1.0075
  101MOL0     C13805   2.663   7.918   6.563  0.0442 -1.1065  0.1654
  101MOL0     C13806   2.804   7.922   6.594 -0.2466  0.2344 -0.1139
  101MOL0     C13807   2.891   7.986   6.504 -0.0582  0.4522 -0.4385
  101MOL0     O13808   3.027   7.989   6.525 -0.1457 -0.8210 -0.4589
  101MOL0     C13809   3.097   7.899   6.615 -0.1798 -0.1718 -0.1962
  101MOL0     C13810   3.247   7.943   6.616  0.0745  0.3819 -0.3577
  101MOL0     C13811   3.331   7.860   6.711  0.5054 -0.1894 -0.4869
  101MOL0     C13812   3.249   7.842   6.849 -0.3464 -0.5466 -0.1956
  101MOL0     C13813   3.340   7.790   6.964  0.3752 -0.6336 -0.9024
  101MOL0     C13814   3.396   7.884   7.071 -0.0571  0.4136  0.2737
  101MOL0     C13815   3.506   7.834   7.178  0.1471 -0.1408  0.0100
  101MOL0     C13816   3.523   7.933   7.292 -0.0321  0.7223 -0.6093
  101MOL0     N13817   3.641   7.884   7.374 -0.2716  1.1153  0.8903
  101MOL0     C13818   3.644   7.769   7.453  0.0551  0.8762 -0.2988
  101MOL0     C13819   3.773   7.757   7.503 -0.2257 -0.6149  0.1639
  101MOL0     C13820   3.829   7.662   7.598 -0.6765  0.2560 -0.6976
  101MOL0     C13821   3.954   7.717   7.687 -0.1344 -0.7465 -0.1178
  101MOL0     C13822   3.909   7.807   7.797 -0.8458  0.4597  0.5607
  101MOL0     C13823   4.029   7.845   7.889 -0.3627 -0.3488 -0.6744
  101MOL0     O13824   4.144   7.889   7.815 -0.3022  0.6440  0.1165
  101MOL0     C13825   4.259   7.924   7.881 -0.0688 -0.9731  0.0765
  101MOL0     C13826   4.281   7.929   8.020 -0.6952 -0.2588 -0.5867
  101MOL0     C13827   4.400   7.988   8.079  0.5169 -0.2135 -0.1712
  101MOL0     C13828   4.409   8.006   8.225 -0.4006  0.2133  0.6750
  101MOL0     C13829   4.490   8.049   7.987  0.1915  0.3961 -0.5683
  101MOL0     C13830   4.617   8.122   8.016 -0.6060  0.4502  0.2654
  101MOL0     O13831   4.667   8.207   7.917  0.3119 -0.4325  0.4227
  101MOL0     C13832   4.802   8.259   7.938  1.2854  0.8763 -0.2704
  101MOL0     C13833   4.813   8.391   7.898  0.3984  0.5639 -0.6071
  101MOL0     C13834   4.930   8.459   7.927 -0.2559  0.3306 -0.2886
  101MOL0     C13835   5.038   8.392   7.980  0.1713 -0.2424 -0.1489
  101MOL0     O13836   5.144   8.472   7.988 -0.4010 -0.2725 -0.7991
  101MOL0     C13837   5.270   8.402   8.012  0.6872  0.2339 -0.0069
  101MOL0     C13838   5.318   8.422   8.156  0.3505 -0.7708 -0.7042
  101MOL0     C13839   5.449   8.349   8.191 -0.4310 -0.0982  0.6588
  101MOL0     C13840   5.566   8.380   8.087 -0.2220  0.9613 -0.4416
  101MOL0     C13841   5.700   8.304   8.125  0.3777 -0.1427  0.7520
  101MOL0     C13842   5.814   8.391   8.161  0.0842  0.3321  0.2823
  101MOL0     C13843   5.944   8.309   8.144 -0.8991 -0.5224 -0.6306
  101MOL0     C13844   6.055   8.387   8.213 -0.0218 -0.3510  0.1866
  101MOL0    Cl13845   6.035   8.382   8.390  0.3281  0.5591  0.1180
  101MOL0     C13846   5.025   8.268   8.038 -0.7861  0.5525 -0.2961
  101MOL0     C13847   4.909   8.198   8.004 -0.2186 -0.1606  0.2423
  101MOL0     O13848   4.669   8.101   8.123  0.2720  0.0834 -0.6456
  101MOL0     C13849   4.469   8.040   7.852  0.3668 -1.1094 -0.6255
  101MOL0     C13850   4.358   7.975   7.800 -0.4155  0.0112  0.5305
  101MOL0     N13851   3.833   7.873   7.450 -0.5281  0.5861 -0.8793
  101MOL0     N13852   3.753   7.945   7.386 -0.9190 -0.5833 -0.7640
  101MOL0     C13853   2.841   8.045   6.384  0.5262  0.2534 -0.2078
  101MOL0     C13854   2.700   8.051   6.370 -0.7525  0.6987  0.4649
  101MOL0     C13855   2.260   7.889   6.397  0.2439  0.0005  0.8758
  101MOL0     C13856   2.163   7.791   6.417  0.3244  0.9241  0.5177
  101MOL0     C13857   2.034   7.796   6.353 -0.2089 -0.3302 -0.1728
  101MOL0     C13858   2.003   7.907   6.280 -0.3989 -0.0354 -0.2235
  101MOL0     O13859   1.880   7.917   6.220 -0.8474  0.0039 -0.1693
  101MOL0     C13860   1.846   8.006   6.115 -0.0955 -0.6801  0.0528
  101MOL0     C13861   1.729   7.965   6.022 -0.7967 -1.4093 -0.7439
  101MOL0     C13862   1.735   7.823   5.973 -0.2237  0.7248  0.3348
  101MOL0     C13863   1.614   7.785   5.880  0.1092  0.1179 -0.3399
  101MOL0     C13864   1.525   7.893   5.836 -0.1933 -0.5809 -0.0282
  101MOL0     C13865   1.446   7.980   5.796 -1.1227  1.1084  0.6127
  101MOL0     C13866   2.095   8.010   6.275  0.3297 -0.4624 -0.5269
  101MOL0     C13867   2.216   8.012   6.348 -0.1341 -0.4535 -0.3325
  101MOL0     C13868   2.294   8.141   6.320  0.1269  0.0679 -0.4164
  101MOL0     H13869   2.599   7.868   6.636 -1.2198  2.3770  1.6574
  101MOL0     H13870   2.844   7.873   6.682  0.6205  0.9111 -0.1234
  101MOL0     H13871   3.095   7.798   6.573 -1.9284 -0.5750  0.7473
  101MOL0     H13872   3.050   7.894   6.714  0.1532 -2.2706 -0.0973
  101MOL0     H13873   3.285   7.942   6.513 -1.2270  2.6653 -0.9500
  101MOL0     H13874   3.258   8.046   6.651 -0.1537  0.9975 -2.0256
  101MOL0     H13875   3.351   7.761   6.668  0.9251 -1.1286  1.7545
  101MOL0     H13876   3.428   7.908   6.724  0.7492 -0.0823 -2.3553
  101MOL0     H13877   3.199   7.932   6.885  1.1677 -0.3570  1.5321
  101MOL0     H13878   3.179   7.759   6.830  0.9153 -1.4909 -0.8925
  101MOL0     H13879   3.419   7.728   6.919  1.7383  2.0693 -2.4546
  101MOL0     H13880   3.276   7.718   7.016 -2.2110 -0.3123 -3.3881
  101MOL0     H13881   3.434   7.974   7.021 -0.3825 -0.0062 -0.7682
  101MOL0     H13882   3.309   7.910   7.130 -1.9078 -2.1691 -1.0931
  101MOL0     H13883   3.604   7.819   7.134  0.5721 -0.4469  1.0240
  101MOL0     H13884   3.477   7.738   7.224  2.2127 -0.2287  1.2668
  101MOL0     H13885   3.551   8.031   7.252  1.2656 -0.3752 -2.5580
  101MOL0     H13886   3.431   7.937   7.351 -1.7163 -0.4986 -2.9692
  101MOL0     H13887   3.562   7.701   7.473  0.4836  1.3123  3.8221
  101MOL0     H13888   3.861   7.568   7.553  0.3646  0.4368 -0.3609
  101MOL0     H13889   3.748   7.624   7.661  1.3094 -0.0484  1.8457
  101MOL0     H13890   4.019   7.639   7.727  1.6403  1.5214  1.6777
  101MOL0     H13891   4.020   7.770   7.617  0.9382 -2.8601 -0.7712
  101MOL0     H13892   3.859   7.897   7.762  0.1186 -0.2137 -2.9019
  101MOL0     H13893   3.827   7.759   7.851 -2.8136  1.4207 -1.4446
  101MOL0     H13894   3.992   7.916   7.964 -1.5401 -0.6462 -0.9382
  101MOL0     H13895   4.060   7.760   7.951  1.5708  1.4654  0.9701
  101MOL0     H13896   4.193   7.890   8.070 -0.1997 -1.5885 -0.7259
  101MOL0     H13897   4.380   8.111   8.238 -0.9305  0.2575 -0.7177
  101MOL0     H13898   4.504   7.975   8.271 -0.6310 -2.0786 -0.2899
  101MOL0     H13899   4.334   7.957   8.287  0.2146  1.8961  2.9065
  101MOL0     H13900   4.722   8.442   7.869 -1.3342 -2.7973 -1.5514
  101MOL0     H13901   4.930   8.561   7.890 -0.9779 -0.0797 -1.4626
  101MOL0     H13902   5.269   8.295   7.991  1.1347 -0.4038  2.8272
  101MOL0     H13903   5.338   8.458   7.947  1.8844 -0.1487  0.8833
  101MOL0     H13904   5.338   8.529   8.159 -1.4554 -0.4060  2.2699
  101MOL0     H13905   5.234   8.402   8.222 -0.6595  1.7816 -1.1048
  101MOL0     H13906   5.435   8.242   8.211  2.3411 -0.4733  0.9470
  101MOL0     H13907   5.487   8.382   8.288  3.4593  0.6993 -0.9653
  101MOL0     H13908   5.583   8.483   8.054 -1.9915  0.8482 -1.8028
  101MOL0     H13909   5.530   8.327   7.999  0.8853 -0.6500  0.0326
  101MOL0     H13910   5.680   8.230   8.203 -0.8596  0.7096  1.2947
  101MOL0     H13911   5.721   8.246   8.035 -1.1312 -0.5013  0.5960
  101MOL0     H13912   5.799   8.424   8.264  0.0570 -3.4071  1.6330
  101MOL0     H13913   5.820   8.475   8.091 -2.4586  0.1105 -0.3072
  101MOL0     H13914   5.968   8.297   8.038  0.4026 -0.4235 -0.3552
  101MOL0     H13915   5.943   8.211   8.193  1.8081 -0.5847 -0.5610
  101MOL0     H13916   6.058   8.491   8.179  0.5467 -0.2736  0.4607
  101MOL0     H13917   6.147   8.335   8.185  1.8060  1.1141  2.9887
  101MOL0     H13918   5.086   8.237   8.122 -0.7895 -2.1516 -1.2127
  101MOL0     H13919   4.898   8.099   8.046 -0.1845 -0.6941 -0.9610
  101MOL0     H13920   4.546   8.070   7.781 -1.0980 -0.2960 -1.9289
  101MOL0     H13921   4.351   7.967   7.692 -0.3084 -0.0603  0.5286
  101MOL0     H13922   2.908   8.106   6.324  1.3345  2.8410  3.0033
  101MOL0     H13923   2.663   8.122   6.297  1.7362  0.1284 -1.4635
  101MOL0     H13924   2.189   7.700   6.470 -1.4951 -3.1878 -4.6719
  101MOL0     H13925   1.951   7.727   6.356 -0.7681  0.3336 -0.1176
  101MOL0     H13926   1.828   8.108   6.149 -2.4864 -0.9454 -0.2171
  101MOL0     H13927   1.931   8.013   6.047  0.6891 -3.9411  0.5407
  101MOL0     H13928   1.726   8.030   5.934  0.8653 -0.4963 -0.1791
  101MOL0     H13929   1.631   7.974   6.069 -0.8705  0.3678 -1.1609
  101MOL0     H13930   1.829   7.811   5.918  0.3749  0.8436  1.3269
  101MOL0     H13931   1.732   7.749   6.054 -2.9038 -0.3877 -0.6440
  101MOL0     H13932   1.558   7.703   5.925  2.4288  0.5493  3.8056
  101MOL0     H13933   1.649   7.743   5.786  2.8963 -1.3828  1.2510
  101MOL0     H13934   1.377   8.049   5.751  0.6948  3.1219  0.7779
  101MOL0     H13935   2.072   8.106   6.230  3.7297  1.5446  1.5980
  101MOL0     H13936   2.371   8.127   6.244 -0.2092  0.0998 -0.7661
  101MOL0     H13937   2.222   8.217   6.289  0.9881  0.1981 -2.2085
  101MOL0     H13938   2.337   8.164   6.417 -0.8815  0.0132  0.0640
  102MOL0     O13939   7.057   0.505   6.246 -0.7618  0.1412  0.0266
  102MOL0     C13940   7.096   0.583   6.335  0.7536 -0.5471 -0.3461
  102MOL0     O13941   7.206   0.670   6.324 -0.5877  0.2855  0.3179
  102MOL0     C13942   7.299   0.669   6.218  0.2550  0.2735 -0.1968
  102MOL0     C13943   7.378   0.780   6.208  0.4627  0.0496 -0.4625
  102MOL0     C13944   7.489   0.791   6.126  0.2127 -0.1250 -0.2862
  102MOL0     C13945   7.516   0.683   6.042  0.6991 -0.2695  1.2624
  102MOL0     O13946   7.632   0.702   5.967  0.0306  0.3763  0.2509
  102MOL0     C13947   7.659   0.609   5.868 -0.1579 -0.1711  0.0212
  102MOL0     C13948   7.782   0.632   5.773  0.7756  0.5318  0.7053
  102MOL0     C13949   7.915   0.624   5.848  0.5607  0.4561 -1.1307
  102MOL0     C13950   8.025   0.601   5.753  0.8437 -0.3045 -0.1057
  102MOL0     C13951   8.152   0.606   5.819 -0.2544  0.2090  0.6407
  102MOL0     C13952   8.255   0.614   5.709  0.7945 -0.8193 -0.4614
  102MOL0     C13953   8.392   0.568   5.754  0.8262  0.6288 -0.0754
  102MOL0     C13954   8.444   0.643   5.875 -0.3150  0.3884 -0.7116
  102MOL0     N13955   8.590   0.659   5.858  0.0518  0.2137 -0.1347
  102MOL0     C13956   8.647   0.781   5.888 -0.3813 -0.7952  0.4647
  102MOL0     C13957   8.773   0.752   5.925 -1.7192 -0.2433  0.3454
  102MOL0     C13958   8.867   0.850   5.995 -0.2771  0.4937 -0.0093
  102MOL0     C13959   8.948   0.789   6.106  0.4039  0.0570  0.2736
  102MOL0     C13960   9.034   0.894   6.170 -0.1773 -0.7046  0.5375
  102MOL0     C13961   9.137   0.947   6.065  0.2010  0.3795  0.1313
  102MOL0     O13962   9.211   1.061   6.123  0.1988  0.4001  0.0625
  102MOL0     C13963   9.333   1.104   6.076  0.1524  0.1911 -0.2405
  102MOL0     C13964   9.376   1.084   5.948  0.1538  0.4992  0.3981
  102MOL0     C13965   9.503   1.122   5.908  0.3292 -0.2356 -0.1181
  102MOL0     C13966   9.528   1.101   5.759 -0.5506 -0.6078 -0.4493
  102MOL0     C13967   9.601   1.159   6.012  0.1695  0.2678 -0.7373
  102MOL0     C13968   9.737   1.207   5.982 -0.3340 -0.1800  0.0508
  102MOL0     O13969   9.821   1.195   6.089 -0.3378 -0.3800 -0.3170
  102MOL0     C13970   9.948   1.236   6.094  0.5044 -0.0075 -0.1559
  102MOL0     C13971   9.988   1.292   6.209  0.7999 -0.8033 -0.1071
  102MOL0     C13972  10.119   1.325   6.220 -0.5681 -0.5710 -1.0440
  102MOL0     C13973  10.213   1.296   6.117  0.0924 -0.1783  0.5361
  102MOL0     O13974  10.346   1.333   6.114 -0.4581  0.1986 -0.1921
  102MOL0     C13975  10.386   1.442   6.204 -0.0196 -0.1200 -0.1080
  102MOL0     C13976  10.529   1.485   6.184  0.0081 -1.1675 -0.8601
  102MOL0     C13977  10.533   1.583   6.061  0.1507  0.1142  0.5069
  102MOL0     C13978  10.668   1.638   6.008 -0.8547 -0.4550  0.5931
  102MOL0     C13979  10.652   1.758   5.911 -0.0333  0.3096 -0.4863
  102MOL0     C13980  10.594   1.885   5.972  0.5062 -0.8479  0.1666
  102MOL0     C13981  10.711   1.993   6.003  0.6820  0.9354 -0.0640
  102MOL0     C13982  10.666   2.138   6.054 -0.7943  0.2157  0.5764
  102MOL0    Cl13983  10.639   2.125   6.232 -0.4119 -0.0690 -0.2242
  102MOL0     C13984  10.171   1.233   6.003  0.0547  0.6769  0.2407
  102MOL0     C13985  10.036   1.211   5.991  0.1410 -0.7995  0.3844
  102MOL0     O13986   9.761   1.256   5.877 -0.0982  0.8009  0.9242
  102MOL0     C13987   9.549   1.171   6.145 -1.2624  0.2252  0.1248
  102MOL0     C13988   9.418   1.141   6.172  0.0616  0.5800 -0.4093
  102MOL0     N13989   8.794   0.617   5.924 -0.1139  0.5596  0.0632
  102MOL0     N13990   8.679   0.564   5.886 -0.1334 -0.2255  0.5843
  102MOL0     C13991   7.426   0.569   6.038  0.3951 -0.8833  0.2416
  102MOL0     C13992   7.315   0.562   6.131  0.6156  0.1745  0.0556
  102MOL0     C13993   7.005   0.590   6.456  0.1506 -0.4071 -0.9211
  102MOL0     C13994   6.915   0.484   6.488  0.1594 -0.8840  0.5584
  102MOL0     C13995   6.833   0.487   6.597  0.9964 -0.1247 -0.2623
  102MOL0     C13996   6.828   0.597   6.676  1.1242 -0.8858 -1.1433
  102MOL0     O13997   6.733   0.606   6.769 -0.0304 -0.0079 -0.1697
  102MOL0     C13998   6.674   0.735   6.817  1.3434  0.9244  0.0031
  102MOL0     C13999   6.520   0.705   6.840  0.2564 -0.5921  0.5628
  102MOL0     C14000   6.443   0.698   6.709 -0.7181  0.1439  0.3055
  102MOL0     C14001   6.301   0.671   6.723 -0.6547  0.2854 -0.6510
  102MOL0     C14002   6.220   0.688   6.604 -0.4000 -0.6552 -0.6873
  102MOL0     C14003   6.139   0.684   6.521  0.0500  1.0539 -0.8911
  102MOL0     C14004   6.916   0.702   6.657 -0.2592 -0.1372 -0.3645
  102MOL0     C14005   7.003   0.713   6.542 -0.4118  0.5531  0.1418
  102MOL0     C14006   7.084   0.845   6.528  0.3528  0.6350 -0.1832
  102MOL0     H14007   7.345   0.871   6.255  1.3920  0.2052 -0.0891
  102MOL0     H14008   7.542   0.886   6.130 -0.6556  0.3562  0.1149
  102MOL0     H14009   7.575   0.616   5.798 -2.4047 -2.3936  2.2428
  102MOL0     H14010   7.667   0.508   5.910 -0.1755 -0.6036 -1.0016
  102MOL0     H14011   7.785   0.551   5.699  2.2634  2.3227 -1.3300
  102MOL0     H14012   7.776   0.729   5.723  3.0680  0.7523  0.7231
  102MOL0     H14013   7.928   0.722   5.894  0.7571  0.2143 -0.6710
  102MOL0     H14014   7.912   0.544   5.923  2.0921  1.2457 -0.1910
  102MOL0     H14015   8.016   0.507   5.697 -1.3577 -0.2052  0.0236
  102MOL0     H14016   8.009   0.664   5.666  3.6864 -0.8071 -1.1159
  102MOL0     H14017   8.150   0.511   5.873 -3.3296  0.0739  0.4389
  102MOL0     H14018   8.164   0.679   5.900 -1.0371 -2.4494  3.3302
  102MOL0     H14019   8.221   0.552   5.626 -0.7729  0.7392 -1.0504
  102MOL0     H14020   8.248   0.715   5.668 -1.4350 -1.6427 -2.3403
  102MOL0     H14021   8.460   0.589   5.671 -2.0402  2.2814 -2.1803
  102MOL0     H14022   8.384   0.459   5.750  0.1957  0.6846 -4.0186
  102MOL0     H14023   8.398   0.741   5.886 -3.1065 -1.1179  4.2144
  102MOL0     H14024   8.423   0.580   5.962 -1.3970 -1.5815 -2.3099
  102MOL0     H14025   8.600   0.879   5.897 -1.7234 -1.1092 -2.2397
  102MOL0     H14026   8.797   0.922   6.040 -1.2229 -0.1319 -0.4676
  102MOL0     H14027   8.924   0.904   5.918 -0.7792  2.9536  1.2422
  102MOL0     H14028   8.876   0.747   6.177  0.8573 -3.0982 -0.9930
  102MOL0     H14029   9.012   0.711   6.064  1.7406  0.7993  0.8388
  102MOL0     H14030   8.965   0.975   6.197 -1.0627 -0.9487 -0.8378
  102MOL0     H14031   9.089   0.854   6.255  1.1489  0.9047  0.4935
  102MOL0     H14032   9.204   0.864   6.039  0.8127  0.6127  0.9138
  102MOL0     H14033   9.092   0.986   5.973 -0.4631 -2.9154 -1.0583
  102MOL0     H14034   9.305   1.051   5.873  0.5410 -1.0412  0.6725
  102MOL0     H14035   9.626   1.054   5.748 -0.2549 -1.5606  4.1241
  102MOL0     H14036   9.538   1.199   5.712  0.0635 -0.5294 -0.1653
  102MOL0     H14037   9.456   1.047   5.696 -0.0987  1.8247 -3.2773
  102MOL0     H14038   9.922   1.315   6.292  2.1936  0.2467  0.7775
  102MOL0     H14039  10.147   1.377   6.311  0.3086 -1.1377 -0.9704
  102MOL0     H14040  10.321   1.529   6.199  2.1873  1.6511  0.1347
  102MOL0     H14041  10.376   1.414   6.310  0.1692  0.8010  0.1674
  102MOL0     H14042  10.563   1.536   6.275 -2.4144 -2.0301  0.6170
  102MOL0     H14043  10.601   1.403   6.176  1.2183 -0.1875 -0.4907
  102MOL0     H14044  10.469   1.665   6.095 -0.8600 -1.0962  1.6780
  102MOL0     H14045  10.481   1.538   5.976  1.4213 -1.9011  0.7125
  102MOL0     H14046  10.727   1.555   5.968 -0.3039 -0.3032  1.0801
  102MOL0     H14047  10.729   1.669   6.093  1.4802  1.7249 -1.7082
  102MOL0     H14048  10.749   1.779   5.864  2.0727 -0.6472  3.0286
  102MOL0     H14049  10.570   1.722   5.849 -1.3831  0.4178  1.1390
  102MOL0     H14050  10.531   1.866   6.060  0.5070  0.2269  0.4166
  102MOL0     H14051  10.529   1.930   5.897  0.1308  0.6227  1.3291
  102MOL0     H14052  10.765   2.004   5.908  2.8324  2.1538  1.2270
  102MOL0     H14053  10.771   1.938   6.076  1.6859  1.0288 -0.7941
  102MOL0     H14054  10.573   2.168   6.006 -1.1244 -0.5280  0.7316
  102MOL0     H14055  10.738   2.219   6.036  1.4165 -1.4538  1.4573
  102MOL0     H14056  10.239   1.210   5.922 -0.8674 -0.5542 -0.2258
  102MOL0     H14057  10.004   1.161   5.900  3.0961  1.3103 -2.0031
  102MOL0     H14058   9.609   1.217   6.223 -0.0449  1.5333 -1.5036
  102MOL0     H14059   9.378   1.168   6.269  1.5911 -1.9642  1.0371
  102MOL0     H14060   7.450   0.489   5.969  1.7548  1.5069 -2.2636
  102MOL0     H14061   7.277   0.461   6.121  0.7941  0.1881 -0.8201
  102MOL0     H14062   6.906   0.395   6.427  0.3589  0.1760 -1.1030
  102MOL0     H14063   6.769   0.403   6.622  0.9239  0.1125  0.3448
  102MOL0     H14064   6.729   0.758   6.909  0.5312 -0.0110  0.7495
  102MOL0     H14065   6.680   0.816   6.744 -5.1321  1.3500 -0.6361
  102MOL0     H14066   6.469   0.782   6.900  2.3859  1.0539  0.3867
  102MOL0     H14067   6.502   0.606   6.881  1.2372 -1.1060 -0.2217
  102MOL0     H14068   6.461   0.781   6.640  1.9071 -2.7703 -2.8910
  102MOL0     H14069   6.484   0.614   6.651  4.1671  3.5825 -1.9127
  102MOL0     H14070   6.253   0.735   6.797 -2.7108 -0.4843 -1.2567
  102MOL0     H14071   6.283   0.568   6.755  1.1809 -0.2595 -1.2621
  102MOL0     H14072   6.084   0.677   6.429  1.2892  0.2543 -1.5964
  102MOL0     H14073   6.909   0.795   6.713 -0.0270 -0.1675 -0.2798
  102MOL0     H14074   7.062   0.883   6.427  3.9228  0.2401 -1.2507
  102MOL0     H14075   7.052   0.911   6.609  0.2511 -1.6094  1.7216
  102MOL0     H14076   7.193   0.836   6.532  0.3359  0.6727  2.8074
  103MOL0     O14077   3.477   7.997   8.125 -0.6050  0.3491  0.3398
  103MOL0     C14078   3.501   7.916   8.033  0.8707 -0.6855  0.3037
  103MOL0     O14079   3.627   7.895   7.970 -0.0461  0.0965  0.5568
  103MOL0     C14080   3.728   7.953   8.045  0.1055  0.0825 -0.0552
  103MOL0     C14081   3.759   8.087   8.020 -0.1175  0.0269 -0.1804
  103MOL0     C14082   3.867   8.144   8.091  0.0390 -0.2347 -0.2865
  103MOL0     C14083   3.933   8.085   8.193  0.1662  0.2427 -0.1435
  103MOL0     O14084   4.052   8.127   8.246 -0.2567  1.0930  0.3077
  103MOL0     C14085   4.059   8.263   8.279 -0.5586  0.1830 -0.4822
  103MOL0     C14086   4.177   8.304   8.358  0.0797  0.8044 -0.1939
  103MOL0     C14087   4.170   8.251   8.501  0.8158 -0.8510 -0.2132
  103MOL0     C14088   4.303   8.262   8.577  0.4941  0.1298 -0.3630
  103MOL0     C14089   4.397   8.150   8.550  0.0665 -0.0495  0.0066
  103MOL0     C14090   4.510   8.150   8.648 -0.8860 -0.1660 -0.4205
  103MOL0     C14091   4.610   8.036   8.660  0.4198 -0.2852 -0.3244
  103MOL0     C14092   4.548   7.907   8.743 -0.6282 -0.4053 -0.2574
  103MOL0     N14093   4.650   7.805   8.750 -0.2382 -0.4129 -0.4141
  103MOL0     C14094   4.757   7.798   8.845  0.2462 -0.4634  0.3548
  103MOL0     C14095   4.838   7.705   8.793 -0.0121 -0.0581 -0.5354
  103MOL0     C14096   4.975   7.682   8.845  0.1317 -0.1886  0.6667
  103MOL0     C14097   5.073   7.603   8.754  0.4633 -0.2136  0.5856
  103MOL0     C14098   5.115   7.677   8.629 -0.3075 -0.0300 -0.3048
  103MOL0     C14099   5.237   7.621   8.561  0.2175 -0.2580 -0.0325
  103MOL0     O14100   5.347   7.625   8.653  0.4813  0.0158 -1.2310
  103MOL0     C14101   5.467   7.591   8.594 -0.3439 -0.4694 -0.0712
  103MOL0     C14102   5.479   7.505   8.486  0.0479 -1.2310  0.4506
  103MOL0     C14103   5.595   7.466   8.425 -0.4152 -0.0035 -0.2802
  103MOL0     C14104   5.592   7.365   8.311 -0.0800  0.4294  0.1495
  103MOL0     C14105   5.723   7.511   8.479 -0.8456  0.3732  0.0974
  103MOL0     C14106   5.859   7.478   8.422 -0.5601  0.0752  0.2413
  103MOL0     O14107   5.962   7.538   8.488  0.6088  0.0375 -0.5665
  103MOL0     C14108   6.096   7.528   8.457 -0.2133  0.3341 -0.5249
  103MOL0     C14109   6.150   7.404   8.418 -0.4725 -0.2439  0.5054
  103MOL0     C14110   6.283   7.388   8.377  0.1343  0.0008 -0.0590
  103MOL0     C14111   6.371   7.495   8.383  0.5169  0.1320 -0.1771
  103MOL0     O14112   6.501   7.468   8.340 -0.0151 -1.1320  0.1167
  103MOL0     C14113   6.606   7.574   8.346 -0.5549 -0.2932  0.0266
  103MOL0     C14114   6.648   7.587   8.485  0.1249  0.6052 -0.1122
  103MOL0     C14115   6.719   7.452   8.533 -0.2455  0.0472  0.0066
  103MOL0     C14116   6.623   7.378   8.623 -0.5018 -0.3385 -0.1166
  103MOL0     C14117   6.643   7.231   8.629  1.3105 -0.6542  0.0481
  103MOL0     C14118   6.781   7.175   8.631  0.1133 -0.0936 -0.0781
  103MOL0     C14119   6.862   7.216   8.749  0.4072  0.3585  0.8320
  103MOL0     C14120   7.000   7.249   8.706  0.0677 -0.0202  0.1242
  103MOL0    Cl14121   7.081   7.115   8.632  0.2769 -0.0997 -0.1303
  103MOL0     C14122   6.316   7.620   8.431 -0.4371 -0.0923 -0.6781
  103MOL0     C14123   6.186   7.634   8.470 -0.1712 -0.0689 -0.3735
  103MOL0     O14124   5.869   7.420   8.313 -0.6130  0.0452 -0.0873
  103MOL0     C14125   5.714   7.592   8.597 -1.2558  0.3405  0.1484
  103MOL0     C14126   5.590   7.622   8.652  0.2270 -0.0897 -0.3152
  103MOL0     N14127   4.781   7.642   8.692  0.6661  0.6056  0.7816
  103MOL0     N14128   4.666   7.707   8.654 -0.5727  0.6434 -0.9840
  103MOL0     C14129   3.899   7.955   8.219  0.1919 -0.7754  0.4957
  103MOL0     C14130   3.795   7.890   8.148 -0.5594 -0.1760  0.1263
  103MOL0     C14131   3.391   7.821   8.003 -0.4362  0.2715  0.1943
  103MOL0     C14132   3.290   7.807   8.100  0.7073  0.1147 -0.1729
  103MOL0     C14133   3.165   7.743   8.068  0.6231 -1.6972 -0.0764
  103MOL0     C14134   3.155   7.673   7.949 -0.4115 -0.3072  0.1384
  103MOL0     O14135   3.043   7.601   7.940  0.2520 -0.1810 -0.2214
  103MOL0     C14136   3.048   7.471   7.892 -0.1561  0.5326  0.2891
  103MOL0     C14137   2.911   7.417   7.885 -1.0116  0.3746  0.6274
  103MOL0     C14138   2.817   7.502   7.796  0.7264  0.2293 -0.2412
  103MOL0     C14139   2.688   7.423   7.756 -1.6491  0.6058 -0.0734
  103MOL0     C14140   2.637   7.483   7.630 -0.4820 -0.3304 -0.4164
  103MOL0     C14141   2.590   7.521   7.525 -0.2094  0.3472  0.4121
  103MOL0     C14142   3.258   7.671   7.857 -0.6725  0.0041  0.9140
  103MOL0     C14143   3.374   7.746   7.881 -0.0969 -0.9698 -0.1095
  103MOL0     C14144   3.471   7.756   7.764  0.2016 -0.0888 -0.2602
  103MOL0     H14145   3.698   8.140   7.947 -0.4907 -1.9391 -1.3906
  103MOL0     H14146   3.902   8.244   8.068 -0.8050  0.3136  0.7059
  103MOL0     H14147   3.966   8.305   8.318 -2.0319 -1.3836 -2.1971
  103MOL0     H14148   4.068   8.321   8.187  0.5452  1.3856  0.3456
  103MOL0     H14149   4.262   8.258   8.307 -0.8823 -1.3902  0.0714
  103MOL0     H14150   4.196   8.411   8.345  0.9940  0.6651 -0.0482
  103MOL0     H14151   4.093   8.299   8.562  0.0763  0.1037 -1.8220
  103MOL0     H14152   4.133   8.149   8.489 -0.0230 -0.4971 -0.7747
  103MOL0     H14153   4.362   8.348   8.543 -0.1493  0.0693 -1.7093
  103MOL0     H14154   4.279   8.266   8.683 -3.4709  2.9411 -1.1546
  103MOL0     H14155   4.435   8.152   8.448  0.4418 -3.0276 -0.0093
  103MOL0     H14156   4.345   8.056   8.572  1.4721 -0.5088  1.5988
  103MOL0     H14157   4.570   8.238   8.620  0.5985 -0.0224  2.7600
  103MOL0     H14158   4.474   8.180   8.747 -2.6842  2.6476 -1.7911
  103MOL0     H14159   4.697   8.074   8.715  0.1941 -0.3395  0.0796
  103MOL0     H14160   4.645   8.005   8.561 -1.8125 -1.6789 -0.7650
  103MOL0     H14161   4.505   7.932   8.841 -0.9296  2.3022 -0.9965
  103MOL0     H14162   4.466   7.867   8.682 -2.0346  1.5886  0.2069
  103MOL0     H14163   4.781   7.876   8.916 -1.0940  2.1559 -1.8851
  103MOL0     H14164   4.975   7.629   8.941 -2.1855 -1.3068  0.1297
  103MOL0     H14165   5.011   7.783   8.863 -1.1662  0.2812  0.7326
  103MOL0     H14166   5.154   7.593   8.826  0.5418 -0.2806  0.4902
  103MOL0     H14167   5.028   7.506   8.728 -0.1115  0.3262 -0.5296
  103MOL0     H14168   5.025   7.679   8.567 -0.7905  0.2590  0.3920
  103MOL0     H14169   5.140   7.778   8.662 -2.7835  1.0805 -1.5311
  103MOL0     H14170   5.213   7.518   8.532 -1.6815  0.3838 -0.8949
  103MOL0     H14171   5.259   7.686   8.476 -1.5174 -0.1210 -0.4088
  103MOL0     H14172   5.385   7.478   8.439 -0.9945  1.3122  0.8535
  103MOL0     H14173   5.487   7.336   8.298  0.2433 -0.0062 -1.7692
  103MOL0     H14174   5.648   7.271   8.319  1.3795  1.0803 -1.7707
  103MOL0     H14175   5.625   7.416   8.221  0.1615  2.1465  1.1625
  103MOL0     H14176   6.085   7.319   8.402  0.1601 -0.0214 -4.9488
  103MOL0     H14177   6.318   7.289   8.348  3.3990  0.7804  0.8482
  103MOL0     H14178   6.695   7.550   8.287 -1.0098 -0.7563 -0.4886
  103MOL0     H14179   6.570   7.669   8.304  3.2198  2.3692  2.1960
  103MOL0     H14180   6.725   7.664   8.497  1.9603 -1.5312  4.0291
  103MOL0     H14181   6.568   7.611   8.556 -0.0913  0.6331 -0.3677
  103MOL0     H14182   6.809   7.468   8.593 -0.3208  2.3996 -0.4175
  103MOL0     H14183   6.742   7.383   8.451 -0.6909 -3.2662  2.4863
  103MOL0     H14184   6.516   7.380   8.603 -0.7180 -3.7535  0.1078
  103MOL0     H14185   6.638   7.414   8.725 -2.2777  1.4617 -0.4322
  103MOL0     H14186   6.592   7.203   8.722  1.1607 -0.1051  0.1321
  103MOL0     H14187   6.588   7.181   8.548  1.5660 -3.7988  1.6361
  103MOL0     H14188   6.836   7.212   8.544  0.7033  1.0500  0.7450
  103MOL0     H14189   6.776   7.067   8.615  1.2368  0.0318 -1.5095
  103MOL0     H14190   6.867   7.125   8.810 -1.8740 -0.6873 -0.3934
  103MOL0     H14191   6.798   7.295   8.789 -2.2722 -1.3829  0.2707
  103MOL0     H14192   7.068   7.293   8.780  0.5738  2.0211 -1.4439
  103MOL0     H14193   6.992   7.332   8.636  0.1099  0.0052  0.1492
  103MOL0     H14194   6.373   7.710   8.416 -0.3488  0.0053  0.2312
  103MOL0     H14195   6.154   7.734   8.498 -1.2294 -1.1390  2.7241
  103MOL0     H14196   5.801   7.625   8.653 -0.2421 -2.1192  0.1273
  103MOL0     H14197   5.586   7.675   8.747 -0.5221 -2.7740  1.2415
  103MOL0     H14198   3.960   7.894   8.286 -0.9582 -1.0033  1.3506
  103MOL0     H14199   3.771   7.785   8.160  0.1720 -0.8504 -3.2465
  103MOL0     H14200   3.287   7.851   8.199  2.0162  1.2934 -0.6295
  103MOL0     H14201   3.084   7.731   8.140 -0.1107 -3.4563 -1.1306
  103MOL0     H14202   3.110   7.451   7.804  1.0408  1.4596  0.8891
  103MOL0     H14203   3.096   7.414   7.972  1.9354  0.0906 -1.1853
  103MOL0     H14204   2.867   7.414   7.985  1.9921 -1.7377  2.0077
  103MOL0     H14205   2.922   7.315   7.845  0.1163  0.2746  1.1635
  103MOL0     H14206   2.781   7.592   7.848  3.3030  1.1621  0.0800
  103MOL0     H14207   2.874   7.535   7.709  0.8794  1.3457  0.2536
  103MOL0     H14208   2.611   7.411   7.833 -1.3460 -1.1571  0.0032
  103MOL0     H14209   2.729   7.325   7.730  2.2650  1.3147  2.5601
  103MOL0     H14210   2.542   7.528   7.429 -1.5019 -0.5353  0.9568
  103MOL0     H14211   3.248   7.619   7.762  0.5572 -1.5511  1.5895
  103MOL0     H14212   3.557   7.696   7.794 -0.4039 -0.8882 -0.0953
  103MOL0     H14213   3.433   7.715   7.670  0.5914  1.2941 -1.0490
  103MOL0     H14214   3.495   7.862   7.757 -1.0153  0.1079 -2.5286
  104MOL0     O14215   5.464   1.269   5.543 -0.3080 -0.3294  0.5179
  104MOL0     C14216   5.449   1.282   5.660 -0.0454  0.1072 -1.6863
  104MOL0     O14217   5.547   1.291   5.754  0.2936 -0.8493 -0.0870
  104MOL0     C14218   5.674   1.274   5.710  0.0251  0.3608 -0.2727
  104MOL0     C14219   5.757   1.385   5.675  0.4780  0.1759  0.6142
  104MOL0     C14220   5.887   1.364   5.630  0.8910  0.5569  0.2924
  104MOL0     C14221   5.931   1.235   5.613 -0.0739  0.6985  0.0342
  104MOL0     O14222   6.055   1.210   5.559 -0.5805  0.0560  0.6108
  104MOL0     C14223   6.105   1.311   5.458 -0.5415  0.0911  0.8247
  104MOL0     C14224   6.217   1.240   5.377  0.6901 -0.1045  0.1260
  104MOL0     C14225   6.359   1.231   5.440  0.9160  0.7664  0.3506
  104MOL0     C14226   6.453   1.130   5.367 -0.8066 -0.0974  0.1061
  104MOL0     C14227   6.580   1.111   5.443 -0.0270  0.7385  0.9710
  104MOL0     C14228   6.674   1.006   5.377  0.4836  0.4203 -0.3357
  104MOL0     C14229   6.799   0.980   5.466  0.2485  0.6717 -0.0302
  104MOL0     C14230   6.895   0.876   5.401  0.2925 -0.1049 -1.2100
  104MOL0     N14231   6.944   0.922   5.276  0.6636 -1.0012  0.5979
  104MOL0     C14232   7.046   1.013   5.260 -0.1662  0.0598  0.8665
  104MOL0     C14233   7.067   1.017   5.122 -0.0542 -0.7315  0.0029
  104MOL0     C14234   7.162   1.118   5.056  0.9470 -0.0948 -0.4553
  104MOL0     C14235   7.265   1.038   4.971  0.0915 -0.8537 -0.3423
  104MOL0     C14236   7.232   1.075   4.824  0.4257 -0.8394 -0.1106
  104MOL0     C14237   7.348   1.034   4.730  0.2370  0.0256  0.0142
  104MOL0     O14238   7.473   1.090   4.778 -0.2947 -0.0155  0.1086
  104MOL0     C14239   7.577   1.095   4.694 -0.7288 -0.3059 -0.7948
  104MOL0     C14240   7.577   1.070   4.552  0.1657  1.2101  0.2809
  104MOL0     C14241   7.686   1.079   4.476  0.2507 -0.8343 -0.1700
  104MOL0     C14242   7.662   1.049   4.324  0.6104  0.4033 -0.5380
  104MOL0     C14243   7.813   1.124   4.531  0.0394  0.2066 -0.2036
  104MOL0     C14244   7.946   1.102   4.467 -0.4402  0.1130 -0.5815
  104MOL0     O14245   8.050   1.116   4.558  0.2567 -0.2116  0.3637
  104MOL0     C14246   8.171   1.100   4.500  0.1044 -0.8772 -0.3220
  104MOL0     C14247   8.228   0.977   4.481 -0.0905 -1.0827  0.8125
  104MOL0     C14248   8.355   0.959   4.427 -0.1344  0.5804 -0.0134
  104MOL0     C14249   8.427   1.066   4.373  0.0742 -0.4062 -0.9290
  104MOL0     O14250   8.545   1.055   4.307 -0.0412 -0.4592 -0.2818
  104MOL0     C14251   8.562   0.934   4.227  0.1779  0.4370 -0.1853
  104MOL0     C14252   8.658   0.970   4.111  0.6319 -0.8015 -1.1019
  104MOL0     C14253   8.795   1.021   4.160  0.1875  0.0314  0.6088
  104MOL0     C14254   8.874   1.084   4.036  0.0607 -0.5379  0.2848
  104MOL0     C14255   9.017   1.145   4.064  0.1736  0.9254  0.1055
  104MOL0     C14256   9.127   1.043   4.097 -0.2609  0.6445 -0.5648
  104MOL0     C14257   9.149   0.951   3.971  0.1352 -0.0356  0.7408
  104MOL0     C14258   9.255   0.838   3.988  0.6219 -0.9007 -0.2781
  104MOL0    Cl14259   9.391   0.929   4.030 -0.1850 -0.3102  0.2730
  104MOL0     C14260   8.369   1.200   4.388  0.5697 -0.0091 -0.0821
  104MOL0     C14261   8.248   1.208   4.455 -0.7346 -0.3247 -0.0715
  104MOL0     O14262   7.963   1.060   4.351 -0.0264 -0.0897 -0.4475
  104MOL0     C14263   7.808   1.168   4.662 -0.1313  0.6285 -1.3729
  104MOL0     C14264   7.693   1.151   4.739  0.2322  0.2069  0.2048
  104MOL0     N14265   6.975   0.942   5.058  0.4340 -0.1700 -0.2746
  104MOL0     N14266   6.908   0.878   5.149  0.4545 -0.5448  0.3087
  104MOL0     C14267   5.860   1.122   5.665 -0.1019 -0.3161  0.0625
  104MOL0     C14268   5.733   1.147   5.715  0.7278 -0.6488 -0.2465
  104MOL0     C14269   5.312   1.295   5.707 -0.8348 -0.1383 -0.2343
  104MOL0     C14270   5.281   1.417   5.779  0.6675  0.1074  1.0558
  104MOL0     C14271   5.153   1.438   5.826 -0.6841  0.5966  0.2297
  104MOL0     C14272   5.058   1.345   5.797  1.8208 -0.1475 -0.9338
  104MOL0     O14273   4.933   1.379   5.858  0.7704  0.7155 -0.3232
  104MOL0     C14274   4.834   1.277   5.864  0.7340 -0.6031  0.5766
  104MOL0     C14275   4.864   1.169   5.970  0.3088 -0.1221  0.0896
  104MOL0     C14276   4.740   1.092   5.998 -0.1665 -0.5229  0.1520
  104MOL0     C14277   4.754   0.989   6.104  0.3650 -0.0639 -0.7936
  104MOL0     C14278   4.626   0.978   6.174  1.0066  0.4486  0.3161
  104MOL0     C14279   4.517   0.962   6.225  0.0732  0.5320  0.2473
  104MOL0     C14280   5.079   1.237   5.710 -0.0575 -0.7995 -0.0139
  104MOL0     C14281   5.208   1.208   5.669 -1.1151 -0.6724  0.3491
  104MOL0     C14282   5.234   1.083   5.591 -0.4139 -0.3935  0.3260
  104MOL0     H14283   5.724   1.488   5.680 -1.7979 -0.4710  0.0318
  104MOL0     H14284   5.945   1.451   5.602 -0.1704  1.4794  0.8674
  104MOL0     H14285   6.144   1.404   5.500 -1.1613  0.4543  0.6066
  104MOL0     H14286   6.025   1.346   5.392 -1.0257  2.2504  2.4153
  104MOL0     H14287   6.187   1.136   5.365  1.4764 -0.1437 -1.7912
  104MOL0     H14288   6.207   1.273   5.273 -1.1974 -0.8556  0.0410
  104MOL0     H14289   6.405   1.330   5.435 -2.3088  2.4883  1.5872
  104MOL0     H14290   6.353   1.195   5.544 -0.8555 -1.1553 -0.3311
  104MOL0     H14291   6.400   1.036   5.352 -1.0675  0.0564  0.0397
  104MOL0     H14292   6.476   1.165   5.266 -0.4818 -1.5796 -0.3567
  104MOL0     H14293   6.553   1.064   5.538 -1.4541 -0.2242  0.1403
  104MOL0     H14294   6.643   1.198   5.461  1.6649 -0.5214  1.3076
  104MOL0     H14295   6.630   0.908   5.359  2.0195 -0.7809  1.9949
  104MOL0     H14296   6.698   1.057   5.283  1.5490  0.7951  0.1217
  104MOL0     H14297   6.764   0.946   5.564 -0.4998  0.8601 -0.2302
  104MOL0     H14298   6.852   1.073   5.488 -0.0853  0.6057  1.1242
  104MOL0     H14299   6.973   0.844   5.470 -0.0322 -3.0243 -2.0638
  104MOL0     H14300   6.836   0.785   5.383  0.2206 -0.0719 -1.1431
  104MOL0     H14301   7.098   1.065   5.340 -1.1620 -0.8276  2.1465
  104MOL0     H14302   7.218   1.168   5.136 -1.0787 -1.3978  1.9362
  104MOL0     H14303   7.103   1.192   5.002 -1.2549 -1.7038 -0.3962
  104MOL0     H14304   7.363   1.081   4.996 -0.2704  0.4963 -1.1126
  104MOL0     H14305   7.263   0.930   4.984 -2.2183 -1.3697 -3.6517
  104MOL0     H14306   7.138   1.025   4.799 -0.4688  0.9958 -0.6468
  104MOL0     H14307   7.216   1.183   4.813 -0.0601 -1.0071 -1.2546
  104MOL0     H14308   7.357   0.926   4.748 -0.9366 -0.0589  0.1765
  104MOL0     H14309   7.326   1.065   4.627  0.5836  2.1492  0.5266
  104MOL0     H14310   7.487   1.034   4.504 -0.7588  3.2878  0.3404
  104MOL0     H14311   7.722   1.109   4.255  1.3324 -0.4034 -0.6311
  104MOL0     H14312   7.557   1.069   4.305  0.3639 -1.6381 -1.5357
  104MOL0     H14313   7.688   0.944   4.313  0.3756  0.1914  0.7425
  104MOL0     H14314   8.169   0.895   4.520  0.2445 -0.8021  1.9351
  104MOL0     H14315   8.403   0.863   4.407  1.2510  1.5735 -1.8438
  104MOL0     H14316   8.601   0.846   4.278 -0.1640 -0.1921 -0.9865
  104MOL0     H14317   8.466   0.912   4.179  0.1653  0.8825 -0.3726
  104MOL0     H14318   8.666   0.888   4.039  1.1937 -0.4226 -1.4863
  104MOL0     H14319   8.615   1.054   4.057 -1.9126  0.0529  1.9570
  104MOL0     H14320   8.858   0.938   4.193 -1.8020 -1.6213  0.4275
  104MOL0     H14321   8.801   1.097   4.238 -1.0128  0.3152  0.4438
  104MOL0     H14322   8.818   1.170   3.997 -3.4288 -1.5951  2.5095
  104MOL0     H14323   8.873   1.012   3.953 -0.9919  0.6147 -0.7581
  104MOL0     H14324   9.050   1.204   3.978 -1.1459 -0.8466 -1.7108
  104MOL0     H14325   9.001   1.216   4.146  1.9225  0.8424  0.5539
  104MOL0     H14326   9.102   0.984   4.186  0.2893 -0.6090 -1.2103
  104MOL0     H14327   9.220   1.097   4.118 -0.9893  1.1813  1.5999
  104MOL0     H14328   9.174   1.011   3.882  2.9856 -0.0579  1.4217
  104MOL0     H14329   9.058   0.896   3.945 -1.2043 -0.3835  5.3595
  104MOL0     H14330   9.266   0.771   3.903 -1.8304  0.6228 -1.9084
  104MOL0     H14331   9.236   0.763   4.065  0.2814 -1.1143 -0.5658
  104MOL0     H14332   8.419   1.291   4.355  1.1742 -0.8357 -1.5120
  104MOL0     H14333   8.206   1.308   4.465  1.1341  0.3582  1.8217
  104MOL0     H14334   7.889   1.223   4.711 -1.5725 -0.8638  3.2544
  104MOL0     H14335   7.701   1.176   4.844  2.4194  0.9838 -0.0979
  104MOL0     H14336   5.915   1.029   5.661  2.3311  1.0552 -4.5865
  104MOL0     H14337   5.671   1.064   5.748 -1.5959  0.5708 -1.3149
  104MOL0     H14338   5.359   1.490   5.800  0.9776  0.1650 -0.1875
  104MOL0     H14339   5.125   1.533   5.872 -0.7639 -0.1110  1.7008
  104MOL0     H14340   4.742   1.327   5.897  2.2210  1.2358  2.1777
  104MOL0     H14341   4.813   1.244   5.762  4.0978 -0.7420 -0.1952
  104MOL0     H14342   4.902   1.218   6.059 -0.6424 -1.8523  1.5325
  104MOL0     H14343   4.949   1.103   5.948 -0.1916 -0.7004 -0.1747
  104MOL0     H14344   4.668   1.169   6.028  0.7088  0.2281  0.4041
  104MOL0     H14345   4.701   1.039   5.911  0.5246 -0.1800 -0.3750
  104MOL0     H14346   4.839   1.022   6.165 -0.5696  3.1050 -1.0011
  104MOL0     H14347   4.777   0.895   6.054  4.1141 -0.1977  0.8951
  104MOL0     H14348   4.420   0.943   6.266  0.5202  0.2214  1.2132
  104MOL0     H14349   4.996   1.169   5.692 -1.1889  0.3179  0.8032
  104MOL0     H14350   5.281   1.105   5.494 -0.2001 -3.5324 -0.4083
  104MOL0     H14351   5.311   1.017   5.632  0.3724  0.5594  0.4186
  104MOL0     H14352   5.139   1.031   5.573 -0.2194  0.0693 -2.6210
  105MOL0     O14353   6.339   5.405  11.066  0.2988 -0.2412 -0.1162
  105MOL0     C14354   6.335   5.384  10.946 -0.0536 -0.5465 -0.1279
  105MOL0     O14355   6.418   5.304  10.874 -0.0197  0.1946 -0.0783
  105MOL0     C14356   6.491   5.216  10.947  0.1982  0.5223 -0.3585
  105MOL0     C14357   6.629   5.234  10.961  0.0466  0.0122  0.0727
  105MOL0     C14358   6.704   5.135  11.022  1.1725  0.0651  0.7634
  105MOL0     C14359   6.636   5.027  11.097 -0.2155 -1.2241 -0.4687
  105MOL0     O14360   6.708   4.932  11.167 -0.3346  0.4848 -0.2816
  105MOL0     C14361   6.831   4.966  11.220  0.0771 -0.2731  0.1513
  105MOL0     C14362   6.913   4.861  11.288  0.1067  0.0532 -0.7419
  105MOL0     C14363   7.031   4.933  11.342 -1.0517  0.3981 -0.7633
  105MOL0     C14364   7.094   4.830  11.443  0.1700  0.6132  1.0314
  105MOL0     C14365   7.237   4.876  11.488  0.4182  0.8825 -0.5014
  105MOL0     C14366   7.291   4.767  11.575 -0.9301 -0.3740  0.0363
  105MOL0     C14367   7.397   4.830  11.673  0.0821 -1.1117  0.0923
  105MOL0     C14368   7.457   4.717  11.763  0.6868 -0.4128 -0.3559
  105MOL0     N14369   7.564   4.760  11.860  0.2473 -0.7288 -0.6502
  105MOL0     C14370   7.560   4.862  11.953 -0.8859 -0.4673 -0.2610
  105MOL0     C14371   7.686   4.839  12.006 -0.5880  0.4704 -0.1541
  105MOL0     C14372   7.748   4.924  12.107  0.4612 -0.8471 -0.4017
  105MOL0     C14373   7.718   4.876  12.248 -0.2896  0.3157  0.2248
  105MOL0     C14374   7.757   4.993  12.343  1.0723  0.6425 -0.6774
  105MOL0     C14375   7.895   5.058  12.310  0.5934  0.4457 -0.2609
  105MOL0     O14376   8.001   4.956  12.338  0.1282  0.3097 -0.0373
  105MOL0     C14377   8.129   4.999  12.363  0.5352 -0.2621 -0.7975
  105MOL0     C14378   8.180   5.128  12.372 -0.3243 -0.0385 -0.1882
  105MOL0     C14379   8.316   5.156  12.397 -0.4122  0.1316  0.2347
  105MOL0     C14380   8.363   5.301  12.388  0.2208  0.0350 -0.8953
  105MOL0     C14381   8.404   5.040  12.412  0.6248 -0.8615  0.0693
  105MOL0     C14382   8.542   5.053  12.448 -1.1929 -0.1260  0.2984
  105MOL0     O14383   8.612   4.940  12.408 -0.7871 -0.1752 -0.0593
  105MOL0     C14384   8.750   4.948  12.412 -0.8403  0.0501 -0.2821
  105MOL0     C14385   8.830   5.063  12.389  0.0717  0.4394  0.3854
  105MOL0     C14386   8.971   5.059  12.391 -0.2502  0.4264 -0.0417
  105MOL0     C14387   9.037   4.940  12.426  0.7287  1.3234  0.0604
  105MOL0     O14388   9.174   4.932  12.412 -0.1127 -0.6553  0.7352
  105MOL0     C14389   9.250   4.873  12.510 -0.4700  0.2527 -0.0667
  105MOL0     C14390   9.394   4.912  12.476 -0.5589  1.1562 -0.6311
  105MOL0     C14391   9.446   4.878  12.332 -0.3247  0.4435  0.9896
  105MOL0     C14392   9.578   4.933  12.300 -0.1930 -0.0649  0.1112
  105MOL0     C14393   9.654   4.852  12.194 -0.4841  0.1297 -0.2604
  105MOL0     C14394   9.773   4.920  12.153  0.7655  0.3809  1.0201
  105MOL0     C14395   9.845   4.830  12.055  0.4725  0.1110  0.0025
  105MOL0     C14396   9.985   4.896  12.016 -0.8337 -0.6138 -0.4611
  105MOL0    Cl14397  10.110   4.805  11.916 -0.0101 -0.4021  0.0609
  105MOL0     C14398   8.959   4.828  12.454 -0.2781 -0.2969  0.9685
  105MOL0     C14399   8.820   4.826  12.439 -0.0186 -0.8903 -0.1628
  105MOL0     O14400   8.579   5.132  12.533 -0.5721  0.1703  0.5960
  105MOL0     C14401   8.347   4.913  12.404  0.5694  0.0319  0.1431
  105MOL0     C14402   8.214   4.892  12.377 -0.5532  0.3655 -0.6079
  105MOL0     N14403   7.763   4.742  11.950 -0.6470  0.3355 -0.1697
  105MOL0     N14404   7.677   4.692  11.866 -0.0415 -0.8606 -0.1641
  105MOL0     C14405   6.499   5.019  11.087 -0.2361  0.8259  0.9468
  105MOL0     C14406   6.425   5.114  11.012  0.4383 -0.3257 -0.4142
  105MOL0     C14407   6.225   5.449  10.867  0.5634  0.3395 -0.2995
  105MOL0     C14408   6.187   5.389  10.750  0.4777  0.4734 -0.3189
  105MOL0     C14409   6.084   5.431  10.667  0.5941 -0.2556 -0.4642
  105MOL0     C14410   6.014   5.546  10.700  0.0030 -0.1940 -0.3060
  105MOL0     O14411   5.942   5.600  10.602 -0.1658 -0.2777 -0.4943
  105MOL0     C14412   5.821   5.518  10.586 -0.1673 -0.2851  0.2536
  105MOL0     C14413   5.709   5.624  10.591 -0.7810  0.0818  0.6166
  105MOL0     C14414   5.695   5.650  10.742  0.2774 -0.3512 -0.5718
  105MOL0     C14415   5.590   5.758  10.772 -0.5675  0.3261  0.9824
  105MOL0     C14416   5.461   5.700  10.741 -0.1463 -0.1903 -0.2058
  105MOL0     C14417   5.350   5.646  10.730 -0.1961 -0.5414  0.8535
  105MOL0     C14418   6.053   5.612  10.819 -0.2436 -0.1334  0.7159
  105MOL0     C14419   6.156   5.571  10.902 -0.6988  0.0895 -0.3046
  105MOL0     C14420   6.194   5.656  11.025  0.0848 -0.3190  0.7616
  105MOL0     H14421   6.688   5.313  10.915 -0.1583  0.6662  0.9028
  105MOL0     H14422   6.811   5.138  11.002  0.9121  0.2548 -0.7504
  105MOL0     H14423   6.806   5.042  11.294  0.5015  1.0809 -1.0301
  105MOL0     H14424   6.894   5.006  11.139  0.2652 -1.4739 -0.3134
  105MOL0     H14425   6.855   4.815  11.368 -0.4558  2.9817  0.6669
  105MOL0     H14426   6.950   4.791  11.212  1.3065  1.1090 -1.1639
  105MOL0     H14427   7.105   4.948  11.263 -0.7445 -0.1403 -0.5832
  105MOL0     H14428   7.004   5.028  11.390 -0.9852 -0.6452  1.4608
  105MOL0     H14429   7.027   4.813  11.528  1.2139  1.8436  2.1546
  105MOL0     H14430   7.118   4.742  11.383  0.9707  1.5414 -0.0568
  105MOL0     H14431   7.227   4.965  11.550 -3.4360  0.6851 -0.6266
  105MOL0     H14432   7.296   4.904  11.400 -0.3804  0.2061 -1.2682
  105MOL0     H14433   7.216   4.718  11.638 -2.1427 -0.3961 -1.3674
  105MOL0     H14434   7.327   4.681  11.518 -2.1002 -1.8939  1.4806
  105MOL0     H14435   7.344   4.904  11.733  1.1865 -1.4599  1.5418
  105MOL0     H14436   7.477   4.877  11.614 -1.2682  0.0655 -0.8580
  105MOL0     H14437   7.371   4.679  11.818  0.9837 -0.5831 -0.0085
  105MOL0     H14438   7.497   4.629  11.712 -1.1505 -1.1531 -0.6124
  105MOL0     H14439   7.485   4.934  11.984 -1.4500 -1.9037  1.9197
  105MOL0     H14440   7.715   5.027  12.088  3.2436  0.3200  0.5976
  105MOL0     H14441   7.854   4.928  12.079  0.1474  3.9017 -1.7678
  105MOL0     H14442   7.613   4.852  12.267  0.7234 -3.5110  1.8836
  105MOL0     H14443   7.779   4.789  12.272 -0.8069  0.2941  1.5553
  105MOL0     H14444   7.676   5.065  12.333  1.0217  0.3158 -2.9360
  105MOL0     H14445   7.759   4.951  12.444  1.3914 -1.2614 -1.4333
  105MOL0     H14446   7.906   5.089  12.205  1.9232  0.3132 -0.1779
  105MOL0     H14447   7.915   5.141  12.379  0.0563 -0.6301  1.2374
  105MOL0     H14448   8.117   5.216  12.357  1.5124  1.5900  1.0916
  105MOL0     H14449   8.317   5.356  12.306  0.0768  0.4853 -0.5148
  105MOL0     H14450   8.470   5.304  12.368  0.1188  2.1757 -1.2803
  105MOL0     H14451   8.347   5.353  12.483  0.1708 -0.9349 -0.3571
  105MOL0     H14452   8.780   5.157  12.367 -1.1148  0.2458  2.0657
  105MOL0     H14453   9.034   5.143  12.362  1.7205 -1.7247 -2.5666
  105MOL0     H14454   9.229   4.910  12.611 -2.5003  2.6981 -1.2628
  105MOL0     H14455   9.234   4.767  12.493 -0.0848  0.7375 -4.8413
  105MOL0     H14456   9.417   5.018  12.490  1.5954  0.7930 -1.0125
  105MOL0     H14457   9.451   4.856  12.551 -0.9445 -0.3199 -1.3987
  105MOL0     H14458   9.385   4.921  12.252  3.4793  1.4965 -1.6272
  105MOL0     H14459   9.453   4.769  12.326  2.0462  0.6059 -0.6242
  105MOL0     H14460   9.638   4.926  12.391 -0.0122 -2.2553 -0.1174
  105MOL0     H14461   9.582   5.038  12.269  2.5484 -0.3367 -0.6852
  105MOL0     H14462   9.682   4.758  12.243  0.3789  1.9117  2.9524
  105MOL0     H14463   9.590   4.841  12.106 -1.3489  0.3500  0.3355
  105MOL0     H14464   9.843   4.947  12.233  0.5272  0.1575  1.3091
  105MOL0     H14465   9.742   5.013  12.105 -1.4984 -0.1881  1.2641
  105MOL0     H14466   9.791   4.824  11.960 -0.3268 -1.7376  0.5305
  105MOL0     H14467   9.848   4.727  12.091 -3.4885 -1.4163 -3.2618
  105MOL0     H14468  10.044   4.924  12.103  0.0156  0.0894 -1.2322
  105MOL0     H14469   9.966   4.985  11.956 -1.8671 -1.6724 -1.7721
  105MOL0     H14470   9.011   4.733  12.464 -1.9400 -1.3189  0.3153
  105MOL0     H14471   8.764   4.735  12.458  0.0229 -0.6340  1.3401
  105MOL0     H14472   8.394   4.816  12.419 -1.3984 -1.5247 -2.9313
  105MOL0     H14473   8.185   4.790  12.358 -1.4207  0.1816  1.4459
  105MOL0     H14474   6.442   4.948  11.146 -3.6560  1.3430 -1.4363
  105MOL0     H14475   6.317   5.102  11.013  0.6368 -3.2440 -1.4429
  105MOL0     H14476   6.240   5.298  10.725  0.3292  0.2531  0.1558
  105MOL0     H14477   6.073   5.376  10.574  2.5169  0.2429 -1.0264
  105MOL0     H14478   5.819   5.477  10.484 -0.4386 -0.4106  0.3078
  105MOL0     H14479   5.810   5.443  10.665 -1.6295 -0.2866  0.0787
  105MOL0     H14480   5.613   5.594  10.550 -0.6686 -1.0235  1.1333
  105MOL0     H14481   5.740   5.716  10.540 -1.1677 -0.1367 -0.0219
  105MOL0     H14482   5.674   5.557  10.795 -2.7701 -0.7437 -2.2208
  105MOL0     H14483   5.788   5.688  10.785 -0.7629  2.0444 -0.2734
  105MOL0     H14484   5.599   5.847  10.708 -1.7422 -0.8413 -0.9050
  105MOL0     H14485   5.600   5.803  10.871  1.9529  4.0072 -0.7365
  105MOL0     H14486   5.263   5.583  10.719 -1.2848  0.8277  1.2825
  105MOL0     H14487   6.007   5.710  10.823  1.1621  0.7633 -1.9815
  105MOL0     H14488   6.297   5.691  11.029 -0.6663  2.9268 -2.7805
  105MOL0     H14489   6.140   5.751  11.018  2.5868  1.3200  2.2007
  105MOL0     H14490   6.168   5.588  11.107  0.1418 -0.2830  0.8100
  106MOL0     O14491   0.684   8.975   8.128 -0.0947  0.2565 -0.8688
  106MOL0     C14492   0.700   8.883   8.051 -0.4287 -0.1803 -0.3179
  106MOL0     O14493   0.814   8.827   8.009 -0.2894 -0.2496 -0.1672
  106MOL0     C14494   0.944   8.882   8.029  0.4423  0.5428  0.0878
  106MOL0     C14495   0.975   8.978   8.123  0.1179 -0.0351  0.9624
  106MOL0     C14496   1.111   9.014   8.135 -0.5631  0.2506  0.0063
  106MOL0     C14497   1.214   8.952   8.058 -0.5750 -0.3565  0.3096
  106MOL0     O14498   1.342   8.986   8.082 -0.2586 -0.0124  0.0747
  106MOL0     C14499   1.393   9.083   7.986 -0.0963  0.2431 -0.3353
  106MOL0     C14500   1.423   9.220   8.044  0.0140  0.5469 -0.4589
  106MOL0     C14501   1.545   9.204   8.149 -0.9653 -0.1759 -0.6538
  106MOL0     C14502   1.561   9.320   8.245  0.0924  0.6919  1.0394
  106MOL0     C14503   1.605   9.447   8.182  1.0394  0.2937  0.5678
  106MOL0     C14504   1.752   9.444   8.142  0.8512  0.1663 -0.5013
  106MOL0     C14505   1.835   9.503   8.251 -0.1894 -1.1526  0.2872
  106MOL0     C14506   1.977   9.554   8.206  0.1969  0.2378 -0.5767
  106MOL0     N14507   2.068   9.537   8.318  0.4164 -0.7400  0.5523
  106MOL0     C14508   2.107   9.647   8.398 -0.3398  0.8848  0.3511
  106MOL0     C14509   2.194   9.581   8.478  0.0809  0.1890 -0.1916
  106MOL0     C14510   2.271   9.646   8.592 -0.6577  0.6028 -0.3542
  106MOL0     C14511   2.408   9.679   8.544 -0.4400 -0.4698  0.6128
  106MOL0     C14512   2.498   9.743   8.652 -0.5151  0.8698 -0.4702
  106MOL0     C14513   2.630   9.793   8.604  0.6183 -0.1310 -0.6089
  106MOL0     O14514   2.709   9.675   8.556 -0.7825 -0.6048 -0.4250
  106MOL0     C14515   2.835   9.668   8.591  0.3819  0.2423  0.3933
  106MOL0     C14516   2.907   9.599   8.496  0.4011 -0.7367  0.0711
  106MOL0     C14517   3.043   9.572   8.509  1.2228 -0.1472 -0.7443
  106MOL0     C14518   3.107   9.512   8.390  0.7477  0.1296 -1.0264
  106MOL0     C14519   3.109   9.604   8.631  0.2490  0.7115 -0.8883
  106MOL0     C14520   3.252   9.592   8.647 -0.0140 -0.0457  0.0975
  106MOL0     O14521   3.292   9.573   8.773  1.0171  0.7980 -0.0563
  106MOL0     C14522   3.421   9.571   8.798 -1.0959  0.5101  0.6125
  106MOL0     C14523   3.478   9.699   8.818  0.2434  0.2968 -0.1242
  106MOL0     C14524   3.620   9.707   8.822  1.4432  0.1604 -0.0105
  106MOL0     C14525   3.700   9.602   8.829 -0.3353  0.2292 -0.2778
  106MOL0     O14526   3.843   9.608   8.839 -0.3874 -0.9169  0.1200
  106MOL0     C14527   3.901   9.727   8.766 -0.7004 -0.4904 -0.5545
  106MOL0     C14528   4.041   9.682   8.731  0.1114 -0.4376  0.0148
  106MOL0     C14529   4.103   9.791   8.641 -0.5626  0.0525  0.2886
  106MOL0     C14530   4.135   9.927   8.711 -0.5935 -0.2071  0.5242
  106MOL0     C14531   4.256   9.922   8.805 -1.0774 -0.5007  0.2458
  106MOL0     C14532   4.213   9.890   8.950 -1.2890  1.2319 -0.5423
  106MOL0     C14533   4.320   9.814   9.037  0.1851  0.5668 -0.1691
  106MOL0     C14534   4.324   9.663   9.011  0.3393  0.0804 -0.1914
  106MOL0    Cl14535   4.459   9.592   9.115 -0.0057 -0.2332  0.1926
  106MOL0     C14536   3.637   9.478   8.821  0.0848 -0.4737  0.0424
  106MOL0     C14537   3.497   9.459   8.811 -0.6992 -0.2048 -0.1248
  106MOL0     O14538   3.325   9.603   8.544 -0.0416  0.2372  0.5381
  106MOL0     C14539   3.024   9.663   8.736 -0.2084  0.5508  0.0302
  106MOL0     C14540   2.896   9.710   8.711 -0.2883  0.4364 -0.6951
  106MOL0     N14541   2.189   9.442   8.443 -1.8000  0.0338 -0.7636
  106MOL0     N14542   2.127   9.419   8.347  0.2687  0.4715 -0.4124
  106MOL0     C14543   1.179   8.857   7.964  0.1924  0.4846 -0.0673
  106MOL0     C14544   1.043   8.818   7.944  0.2795 -0.0318 -0.4308
  106MOL0     C14545   0.569   8.810   8.009 -0.4594  0.3400  0.5792
  106MOL0     C14546   0.568   8.717   7.908  0.4902  0.6034  0.7149
  106MOL0     C14547   0.454   8.637   7.864 -0.5191 -0.2309  0.1272
  106MOL0     C14548   0.337   8.661   7.926 -0.0432 -1.1716  0.5849
  106MOL0     O14549   0.223   8.586   7.893  0.0704 -0.0609 -0.2776
  106MOL0     C14550   0.195   8.485   7.997  0.0589  0.8365 -0.6291
  106MOL0     C14551   0.047   8.465   8.032 -0.1292 -0.0417 -0.6795
  106MOL0     C14552   0.003   8.331   8.095 -0.6105  1.1327 -0.6617
  106MOL0     C14553  -0.059   8.335   8.230 -0.3570  0.7618  0.0961
  106MOL0     C14554  -0.189   8.401   8.216 -0.5479  0.0633 -0.2114
  106MOL0     C14555  -0.282   8.478   8.216  0.7117 -0.2597 -0.6212
  106MOL0     C14556   0.328   8.759   8.026  1.1648 -0.1880  0.2975
  106MOL0     C14557   0.439   8.835   8.061  0.0168  0.3499  0.0762
  106MOL0     C14558   0.413   8.936   8.175  0.1824 -0.5229  0.2687
  106MOL0     H14559   0.906   9.017   8.197 -0.5047 -0.4273  0.5957
  106MOL0     H14560   1.149   9.088   8.204  0.7933  0.7825 -1.2494
  106MOL0     H14561   1.318   9.088   7.906 -0.6854  0.2029  0.2123
  106MOL0     H14562   1.479   9.038   7.935 -0.0530 -1.3533  1.0568
  106MOL0     H14563   1.460   9.290   7.969  1.7272  0.2290  0.0372
  106MOL0     H14564   1.332   9.261   8.090 -0.7145 -2.7843  1.3669
  106MOL0     H14565   1.538   9.114   8.211  0.5340  0.4910  0.5414
  106MOL0     H14566   1.641   9.197   8.098 -0.3918  0.2307  0.3477
  106MOL0     H14567   1.462   9.333   8.292 -1.1825 -1.2304 -0.9413
  106MOL0     H14568   1.627   9.293   8.328  0.3318 -0.7012  0.4183
  106MOL0     H14569   1.576   9.532   8.243  1.9314 -0.9971  2.9074
  106MOL0     H14570   1.540   9.456   8.094 -1.2617  2.6854  2.3579
  106MOL0     H14571   1.781   9.340   8.127 -0.5771 -0.0857 -1.6765
  106MOL0     H14572   1.769   9.492   8.045  1.2268 -1.6460 -1.3791
  106MOL0     H14573   1.855   9.442   8.340  0.5488 -0.1945  0.8096
  106MOL0     H14574   1.792   9.600   8.279 -0.5012 -0.1978 -3.0859
  106MOL0     H14575   2.014   9.508   8.114  1.5870 -2.0374  1.0058
  106MOL0     H14576   1.967   9.660   8.182 -0.0162  0.0708 -1.2504
  106MOL0     H14577   2.076   9.750   8.388  1.6569  1.3443 -1.8955
  106MOL0     H14578   2.280   9.583   8.680  0.1935 -2.3091 -2.3674
  106MOL0     H14579   2.225   9.732   8.640  0.1669 -0.7018  3.0672
  106MOL0     H14580   2.462   9.594   8.501 -0.4034  0.5990 -1.5689
  106MOL0     H14581   2.396   9.743   8.456  1.4856  0.0713  0.7011
  106MOL0     H14582   2.441   9.825   8.696  1.4052  2.3847 -0.6700
  106MOL0     H14583   2.522   9.666   8.726  2.8140  1.6940 -0.5349
  106MOL0     H14584   2.619   9.875   8.533  0.9350  1.9855  1.6186
  106MOL0     H14585   2.682   9.843   8.687  2.0342 -1.8201 -0.4432
  106MOL0     H14586   2.856   9.569   8.405  1.3673 -1.5973 -0.2235
  106MOL0     H14587   3.033   9.461   8.327 -0.4722 -1.2733  1.3917
  106MOL0     H14588   3.192   9.444   8.399  0.8049  0.3398  0.1425
  106MOL0     H14589   3.153   9.596   8.337  2.2303  1.0736  1.5954
  106MOL0     H14590   3.411   9.783   8.827  0.4046  0.4855 -0.6411
  106MOL0     H14591   3.661   9.807   8.831  1.0457  0.2718  0.5946
  106MOL0     H14592   3.847   9.755   8.675 -0.9821  1.2060  0.0827
  106MOL0     H14593   3.894   9.820   8.824 -0.4636 -1.3333  0.8814
  106MOL0     H14594   4.107   9.679   8.819  0.1136  2.5718  0.2321
  106MOL0     H14595   4.038   9.589   8.674 -1.7966  0.1015 -0.8400
  106MOL0     H14596   4.040   9.818   8.555  1.4550  1.4394 -0.8402
  106MOL0     H14597   4.191   9.740   8.603  1.8834  3.1012  1.4311
  106MOL0     H14598   4.043   9.967   8.755 -1.7968 -0.8061 -1.3384
  106MOL0     H14599   4.156  10.010   8.642  0.3449  0.0912  1.1550
  106MOL0     H14600   4.319   9.838   8.774 -1.5019 -0.0569 -1.9861
  106MOL0     H14601   4.311  10.016   8.805 -3.3207  0.8948  0.7625
  106MOL0     H14602   4.122   9.829   8.952 -0.5228  0.0652 -0.1631
  106MOL0     H14603   4.190   9.986   8.997 -2.7120  0.1592  1.0709
  106MOL0     H14604   4.288   9.836   9.139  1.1469  0.8554  0.0783
  106MOL0     H14605   4.423   9.848   9.026  0.3776  0.2967  0.6915
  106MOL0     H14606   4.343   9.633   8.908  3.6293  0.5926  0.1396
  106MOL0     H14607   4.228   9.624   9.044 -0.5624  0.1036 -2.6113
  106MOL0     H14608   3.701   9.391   8.821  0.1150 -0.4797  1.7496
  106MOL0     H14609   3.449   9.363   8.794  0.5630 -0.5929 -1.8975
  106MOL0     H14610   3.067   9.678   8.834  0.4553 -2.2020  0.2587
  106MOL0     H14611   2.858   9.782   8.783  0.0527 -0.2005  0.1363
  106MOL0     H14612   1.257   8.803   7.912  0.3543 -1.7182  2.2734
  106MOL0     H14613   1.010   8.735   7.883 -1.1857  2.0987 -2.7321
  106MOL0     H14614   0.664   8.697   7.860 -0.3777 -2.2640 -0.0118
  106MOL0     H14615   0.475   8.573   7.779 -0.2049  1.7051 -1.3129
  106MOL0     H14616   0.221   8.385   7.960 -2.4872 -1.2673  2.6184
  106MOL0     H14617   0.243   8.499   8.094 -1.2467 -0.8844  0.3092
  106MOL0     H14618  -0.001   8.472   7.934  2.0176 -0.2620 -1.7877
  106MOL0     H14619   0.018   8.548   8.097  3.4065  2.2591 -1.7638
  106MOL0     H14620  -0.055   8.271   8.024 -1.0404  0.4932  0.2168
  106MOL0     H14621   0.086   8.262   8.116 -1.0593  1.3241  1.9606
  106MOL0     H14622   0.010   8.391   8.293 -0.9326 -0.0056  1.4471
  106MOL0     H14623  -0.079   8.236   8.273  0.1136 -0.3782 -2.1546
  106MOL0     H14624  -0.363   8.548   8.218  1.3498  0.6571 -2.9159
  106MOL0     H14625   0.236   8.758   8.084 -0.2167 -0.1266 -1.7698
  106MOL0     H14626   0.445   8.890   8.269 -1.9466  0.0298  1.3158
  106MOL0     H14627   0.472   9.027   8.158  0.8499 -1.3667 -2.4871
  106MOL0     H14628   0.311   8.963   8.203  1.0815  0.4962  2.8658
  107MOL0     O14629   2.717   3.712   4.465  0.3131 -0.2276 -0.4283
  107MOL0     C14630   2.671   3.827   4.449 -1.0699  0.1319 -0.3325
  107MOL0     O14631   2.748   3.938   4.467  0.0788 -0.0146 -0.0978
  107MOL0     C14632   2.872   3.931   4.509 -0.1919 -0.3889  0.0767
  107MOL0     C14633   2.970   3.932   4.409 -0.5420  0.1348  0.3758
  107MOL0     C14634   3.098   3.892   4.443 -0.2174 -0.0257  1.2384
  107MOL0     C14635   3.130   3.881   4.580  0.4787 -0.7228  0.4886
  107MOL0     O14636   3.260   3.867   4.622  0.0829  0.8752 -0.2158
  107MOL0     C14637   3.366   3.835   4.528 -0.2950 -0.4671 -0.3264
  107MOL0     C14638   3.496   3.822   4.604  0.1087 -0.0390  0.7409
  107MOL0     C14639   3.619   3.783   4.524  0.1721 -0.1930  0.9578
  107MOL0     C14640   3.742   3.744   4.609  0.3597  0.5766  0.4172
  107MOL0     C14641   3.869   3.721   4.522 -0.0826 -0.4680  0.0165
  107MOL0     C14642   3.912   3.850   4.443 -0.7526  0.0748  0.8659
  107MOL0     C14643   4.039   3.839   4.365  0.4071 -0.2151 -1.0833
  107MOL0     C14644   4.163   3.852   4.451 -0.3256 -0.7270 -0.4229
  107MOL0     N14645   4.281   3.826   4.371  0.2343 -0.3834 -0.0717
  107MOL0     C14646   4.351   3.915   4.294  0.7757  0.0588 -0.0735
  107MOL0     C14647   4.435   3.847   4.201 -0.6171  0.1872 -0.6297
  107MOL0     C14648   4.543   3.907   4.112 -0.2776 -0.4510 -0.2077
  107MOL0     C14649   4.657   3.804   4.084  0.1597 -0.5940  1.0506
  107MOL0     C14650   4.633   3.702   3.984  0.0482 -0.7916  0.5806
  107MOL0     C14651   4.715   3.574   4.009  1.2508  0.2313  0.0264
  107MOL0     O14652   4.851   3.604   4.027  0.4001  0.4775 -0.2629
  107MOL0     C14653   4.927   3.500   3.989  0.7306  0.2245  0.1209
  107MOL0     C14654   5.000   3.506   3.872  0.1416  0.5044  0.7355
  107MOL0     C14655   5.088   3.413   3.822 -0.5222  0.5794 -0.1408
  107MOL0     C14656   5.184   3.447   3.713  0.1446 -0.3463  0.4388
  107MOL0     C14657   5.097   3.293   3.898 -0.0370  0.0662 -0.3815
  107MOL0     C14658   5.156   3.163   3.855  0.2530  0.0634 -0.1337
  107MOL0     O14659   5.104   3.051   3.910  0.5782  0.4774 -1.5742
  107MOL0     C14660   5.179   2.934   3.896  0.6421  1.1792 -1.4495
  107MOL0     C14661   5.227   2.876   4.013 -0.2838 -0.1762  0.4665
  107MOL0     C14662   5.301   2.763   4.007 -0.2831 -0.1950  0.4916
  107MOL0     C14663   5.350   2.709   3.879 -0.4852 -0.5769  0.2429
  107MOL0     O14664   5.422   2.596   3.899  0.1766 -0.4553 -0.0573
  107MOL0     C14665   5.458   2.513   3.782  0.6285 -0.7580 -0.9400
  107MOL0     C14666   5.543   2.406   3.838 -0.8600  0.3884  0.1236
  107MOL0     C14667   5.679   2.454   3.885 -0.2522  0.1852 -0.2520
  107MOL0     C14668   5.759   2.346   3.971  0.3408 -0.4270 -1.0618
  107MOL0     C14669   5.868   2.390   4.065  0.7146 -0.6117 -0.2126
  107MOL0     C14670   5.976   2.465   3.989  0.0366  0.2386 -0.2225
  107MOL0     C14671   6.092   2.508   4.076  0.2532 -0.2360 -0.7325
  107MOL0     C14672   6.203   2.579   4.000 -0.4556  0.1633  0.3033
  107MOL0    Cl14673   6.354   2.593   4.100  0.3658 -0.0492 -0.1449
  107MOL0     C14674   5.288   2.757   3.764 -0.3589 -1.0119  0.2231
  107MOL0     C14675   5.202   2.868   3.771  0.1174 -0.0553 -0.5631
  107MOL0     O14676   5.230   3.174   3.757  0.3340  0.5847  0.5579
  107MOL0     C14677   5.041   3.290   4.025  0.2952 -0.1122  0.1195
  107MOL0     C14678   4.956   3.393   4.068  0.3372  0.7363  0.1544
  107MOL0     N14679   4.433   3.713   4.253  0.0991  0.2052  0.1232
  107MOL0     N14680   4.345   3.701   4.347  0.3982  0.4662 -0.5022
  107MOL0     C14681   3.034   3.895   4.679 -0.9674  0.5979  0.3394
  107MOL0     C14682   2.905   3.920   4.646  0.5382  0.1661  0.3859
  107MOL0     C14683   2.537   3.826   4.411  0.3020  0.0326 -0.2876
  107MOL0     C14684   2.452   3.709   4.416 -0.0780 -0.3390  0.4806
  107MOL0     C14685   2.327   3.701   4.370 -0.1659  0.2630 -0.5907
  107MOL0     C14686   2.258   3.808   4.325 -0.7896 -0.0328 -0.1809
  107MOL0     O14687   2.129   3.798   4.286  0.1630 -0.0126 -0.4272
  107MOL0     C14688   2.063   3.891   4.192  0.7926  0.2143  0.2404
  107MOL0     C14689   1.917   3.830   4.177 -0.6167  0.1762 -0.2483
  107MOL0     C14690   1.917   3.682   4.139 -0.2640 -0.0580  0.4256
  107MOL0     C14691   1.784   3.640   4.077  0.0845  0.4001  0.2328
  107MOL0     C14692   1.668   3.676   4.168  0.3371  0.0827  0.2164
  107MOL0     C14693   1.579   3.694   4.249 -0.3536  0.4743 -0.0213
  107MOL0     C14694   2.335   3.927   4.312  0.0314 -0.3123  0.3834
  107MOL0     C14695   2.469   3.940   4.353 -0.6344  0.3241  0.6375
  107MOL0     C14696   2.538   4.069   4.328 -0.9135  0.2862  0.0347
  107MOL0     H14697   2.949   3.959   4.306  0.0657 -1.3887 -0.1749
  107MOL0     H14698   3.168   3.885   4.360  0.2465  0.3675  1.5928
  107MOL0     H14699   3.386   3.919   4.461 -1.7671 -0.1051 -0.3490
  107MOL0     H14700   3.343   3.744   4.472 -2.2751 -1.2054  1.5576
  107MOL0     H14701   3.526   3.914   4.655  3.4619 -0.4256 -0.3014
  107MOL0     H14702   3.488   3.744   4.680 -1.2735 -0.7390 -0.0778
  107MOL0     H14703   3.599   3.702   4.453  3.0814  0.6796 -1.0433
  107MOL0     H14704   3.652   3.875   4.473  1.9709 -0.6849  1.1851
  107MOL0     H14705   3.749   3.825   4.681  0.9786  0.3803  0.5883
  107MOL0     H14706   3.710   3.653   4.661 -0.2730  0.7586  0.3557
  107MOL0     H14707   3.847   3.642   4.450  0.5050  1.4197 -2.3880
  107MOL0     H14708   3.953   3.696   4.588 -0.9621  1.0061  1.7935
  107MOL0     H14709   3.837   3.870   4.367  0.2678 -1.5429 -0.6402
  107MOL0     H14710   3.916   3.935   4.512  0.0227  1.8771 -1.2774
  107MOL0     H14711   4.051   3.920   4.293  2.6278 -0.1292 -0.6729
  107MOL0     H14712   4.039   3.743   4.313  0.0584 -0.0878 -1.3244
  107MOL0     H14713   4.155   3.953   4.493 -1.7275 -0.5102 -1.1152
  107MOL0     H14714   4.165   3.783   4.535  1.7051  0.4800  0.6034
  107MOL0     H14715   4.353   4.022   4.308  1.1746 -0.1974  2.3234
  107MOL0     H14716   4.588   3.997   4.155  0.9876 -1.7461  1.2751
  107MOL0     H14717   4.516   3.923   4.007  0.0177 -1.6549 -0.4796
  107MOL0     H14718   4.743   3.865   4.055  0.3133  0.0842  2.7780
  107MOL0     H14719   4.686   3.754   4.176  0.3958  1.3564  2.1015
  107MOL0     H14720   4.532   3.662   3.994  0.2736 -0.9203  3.0535
  107MOL0     H14721   4.655   3.743   3.885  2.7528 -1.2643  0.9052
  107MOL0     H14722   4.671   3.520   4.093 -0.4034  1.6559  0.1477
  107MOL0     H14723   4.708   3.510   3.921  0.7808 -1.0412  0.9563
  107MOL0     H14724   5.003   3.603   3.825  2.3608  0.7238  1.2195
  107MOL0     H14725   5.169   3.551   3.682 -0.3980 -0.1413  1.3550
  107MOL0     H14726   5.165   3.384   3.625  0.7681 -2.3883  1.6971
  107MOL0     H14727   5.288   3.440   3.746  0.4618  0.4033 -0.3807
  107MOL0     H14728   5.213   2.922   4.110  1.2933 -0.9612  1.1046
  107MOL0     H14729   5.322   2.721   4.105  1.4586  1.9328  1.1103
  107MOL0     H14730   5.365   2.475   3.738 -1.8034  4.1257 -0.7297
  107MOL0     H14731   5.514   2.569   3.706  1.3347  0.9290  0.7640
  107MOL0     H14732   5.486   2.356   3.917  0.2710 -1.0957  0.0289
  107MOL0     H14733   5.558   2.337   3.755 -0.5919 -0.1802  0.6390
  107MOL0     H14734   5.657   2.546   3.940  2.4236  0.1350  1.0332
  107MOL0     H14735   5.738   2.484   3.798  1.7597 -0.5800  0.7822
  107MOL0     H14736   5.793   2.265   3.906 -0.5006  1.0683 -3.5144
  107MOL0     H14737   5.682   2.299   4.033  1.4130  0.0964  0.7499
  107MOL0     H14738   5.833   2.450   4.149  3.1563  1.4311 -0.5135
  107MOL0     H14739   5.922   2.307   4.110  3.1867  1.3751  0.7763
  107MOL0     H14740   5.934   2.552   3.938  2.7127  0.7502 -1.7793
  107MOL0     H14741   6.017   2.401   3.910 -1.4890 -1.2678  0.1492
  107MOL0     H14742   6.144   2.425   4.124 -1.9145 -1.3164 -0.0895
  107MOL0     H14743   6.058   2.582   4.149  2.7946 -2.4743  3.0089
  107MOL0     H14744   6.179   2.679   3.963  0.5087  1.1096  2.0578
  107MOL0     H14745   6.228   2.509   3.920  0.2244 -0.3548  0.9534
  107MOL0     H14746   5.309   2.711   3.669 -1.3943  0.3595 -0.7099
  107MOL0     H14747   5.164   2.925   3.686  0.4590  2.4606  0.8582
  107MOL0     H14748   5.055   3.207   4.093 -2.1186 -0.2827  0.5034
  107MOL0     H14749   4.919   3.376   4.168 -1.9054 -1.1231 -0.9125
  107MOL0     H14750   3.054   3.888   4.786  2.0215 -0.2394 -0.1827
  107MOL0     H14751   2.829   3.923   4.724 -0.4367  0.0026 -0.5389
  107MOL0     H14752   2.484   3.613   4.456 -1.9738 -1.3088 -0.2040
  107MOL0     H14753   2.282   3.603   4.385 -0.4310  0.5135  0.3276
  107MOL0     H14754   2.056   3.992   4.233 -1.2723  1.4972 -2.8680
  107MOL0     H14755   2.107   3.884   4.092  1.0204  1.3185  0.2559
  107MOL0     H14756   1.858   3.886   4.104 -2.3782 -0.8706  0.3031
  107MOL0     H14757   1.864   3.846   4.271  1.9338  0.5957  1.2126
  107MOL0     H14758   2.006   3.665   4.078 -0.8966 -2.8890  0.1782
  107MOL0     H14759   1.925   3.640   4.239 -2.2119  0.4079  0.8300
  107MOL0     H14760   1.788   3.531   4.074  2.3172  0.4411 -0.2165
  107MOL0     H14761   1.770   3.665   3.972  3.1826  0.9226 -0.1533
  107MOL0     H14762   1.497   3.722   4.313 -0.8591  0.3899 -0.6167
  107MOL0     H14763   2.289   4.018   4.277 -0.3893  0.0602  1.8172
  107MOL0     H14764   2.639   4.056   4.288 -0.5742  0.5466  0.8047
  107MOL0     H14765   2.479   4.127   4.256 -2.1990 -1.7760 -0.6537
  107MOL0     H14766   2.544   4.127   4.420 -2.3739 -1.8276  1.5451
  108MOL0     O14767   5.526   8.966   7.954 -0.2570  0.3913 -0.6870
  108MOL0     C14768   5.452   8.877   7.997  0.4649  0.4207 -0.4721
  108MOL0     O14769   5.487   8.784   8.087 -0.6998  0.3592 -0.1221
  108MOL0     C14770   5.616   8.771   8.147  0.0999 -0.2795 -0.5457
  108MOL0     C14771   5.622   8.714   8.280  0.5256 -0.7414 -0.3713
  108MOL0     C14772   5.750   8.714   8.346 -0.3137 -0.4080  0.6903
  108MOL0     C14773   5.866   8.765   8.285 -0.3750 -0.0587 -0.1401
  108MOL0     O14774   5.988   8.770   8.345  0.1335 -0.0538 -0.0925
  108MOL0     C14775   6.002   8.767   8.486  0.5608  0.8094 -1.1451
  108MOL0     C14776   6.142   8.813   8.539 -0.3636 -0.5343  0.5348
  108MOL0     C14777   6.266   8.733   8.485 -0.2396 -0.2144 -0.7534
  108MOL0     C14778   6.314   8.783   8.341 -0.0035 -0.0926 -0.7557
  108MOL0     C14779   6.443   8.705   8.299 -0.4082 -0.0103 -0.4598
  108MOL0     C14780   6.568   8.766   8.357  0.2114  0.4069  0.0594
  108MOL0     C14781   6.686   8.713   8.282  0.8823 -0.0574  0.6799
  108MOL0     C14782   6.813   8.756   8.354 -0.6004 -0.2474 -0.4115
  108MOL0     N14783   6.920   8.717   8.262 -0.0234 -1.1687 -0.3652
  108MOL0     C14784   7.004   8.809   8.212 -1.2583 -0.0297  0.2904
  108MOL0     C14785   7.115   8.736   8.186  0.2305  0.7323 -0.0896
  108MOL0     C14786   7.249   8.781   8.130 -0.1829  0.0735 -0.8376
  108MOL0     C14787   7.351   8.749   8.243 -0.1018 -0.5594 -0.1001
  108MOL0     C14788   7.491   8.780   8.188 -0.2059 -0.2876 -0.2643
  108MOL0     C14789   7.601   8.798   8.305  0.8174  1.3670  0.4341
  108MOL0     O14790   7.725   8.775   8.231 -0.4127  0.7883 -0.1409
  108MOL0     C14791   7.820   8.864   8.281 -0.1957  0.2176  0.0931
  108MOL0     C14792   7.852   8.981   8.226 -0.0298 -0.8403  0.0728
  108MOL0     C14793   7.957   9.057   8.267  0.3936  0.1200 -0.0159
  108MOL0     C14794   7.986   9.188   8.200  0.5367  0.2530 -1.2990
  108MOL0     C14795   8.036   9.008   8.375  0.0796 -0.1288 -0.3073
  108MOL0     C14796   8.174   9.058   8.417  0.3903 -0.1678 -0.2433
  108MOL0     O14797   8.220   8.990   8.531  0.5724  0.2643  0.6391
  108MOL0     C14798   8.334   9.014   8.604  0.5612  0.3995  0.0319
  108MOL0     C14799   8.355   8.933   8.707 -0.6206 -0.1253 -0.0704
  108MOL0     C14800   8.476   8.940   8.784  0.1107 -0.6934 -0.5694
  108MOL0     C14801   8.577   9.033   8.760 -0.4628 -0.0627  1.0372
  108MOL0     O14802   8.684   9.072   8.834  0.1172  0.2076 -0.2865
  108MOL0     C14803   8.705   9.022   8.968  0.2534  0.4337  0.5466
  108MOL0     C14804   8.836   9.056   9.022 -0.8034 -0.5792 -0.2772
  108MOL0     C14805   8.850   9.055   9.174  0.2142  0.0396  0.5899
  108MOL0     C14806   8.998   9.065   9.226  0.1491  0.5049 -0.0931
  108MOL0     C14807   9.053   9.206   9.234  0.0143 -0.2254  0.2830
  108MOL0     C14808   9.203   9.193   9.221  0.7630  0.2310 -0.0953
  108MOL0     C14809   9.263   9.331   9.255 -0.3391 -0.4777 -1.1385
  108MOL0     C14810   9.412   9.327   9.197  0.4409 -0.1851 -0.3886
  108MOL0    Cl14811   9.540   9.416   9.291 -0.4178 -0.0247 -0.2397
  108MOL0     C14812   8.558   9.107   8.638 -0.0957 -0.1792 -0.2104
  108MOL0     C14813   8.445   9.096   8.569  0.8405 -0.0705  0.5550
  108MOL0     O14814   8.237   9.133   8.348 -0.1415  0.6535  0.3578
  108MOL0     C14815   8.002   8.889   8.434 -0.1116  0.6652 -0.3539
  108MOL0     C14816   7.891   8.824   8.390  0.4733 -0.4950 -0.1332
  108MOL0     N14817   7.098   8.602   8.232 -0.6142 -0.7715 -0.5397
  108MOL0     N14818   6.980   8.594   8.273  0.7184  0.5587 -0.3753
  108MOL0     C14819   5.857   8.808   8.151  0.0066 -0.6142 -0.4161
  108MOL0     C14820   5.731   8.813   8.093 -0.1733  0.0659  0.9433
  108MOL0     C14821   5.319   8.865   7.947 -1.3039  0.5854 -0.2483
  108MOL0     C14822   5.278   8.758   7.868 -0.0516 -0.3476 -0.5635
  108MOL0     C14823   5.146   8.753   7.819  0.4007  0.0463  0.2490
  108MOL0     C14824   5.046   8.844   7.856 -0.0975 -0.3036 -0.5346
  108MOL0     O14825   4.916   8.835   7.815  0.3587  0.0527 -0.3004
  108MOL0     C14826   4.810   8.901   7.891  0.4375 -0.1114  0.2068
  108MOL0     C14827   4.687   8.883   7.799  0.3511  0.0078  0.8693
  108MOL0     C14828   4.683   8.741   7.737 -0.6569  0.0696 -0.2865
  108MOL0     C14829   4.539   8.700   7.693  0.1888  0.1462  0.0774
  108MOL0     C14830   4.529   8.561   7.662 -0.1523  0.7274  0.6688
  108MOL0     C14831   4.542   8.443   7.638  0.4672  0.4527  0.4872
  108MOL0     C14832   5.095   8.951   7.934 -0.0503  0.4132 -0.4490
  108MOL0     C14833   5.226   8.959   7.982 -0.0936 -1.1271  0.2992
  108MOL0     C14834   5.248   9.072   8.066 -0.5611 -0.2857  0.5456
  108MOL0     H14835   5.536   8.671   8.330  0.1220 -0.1749 -0.5605
  108MOL0     H14836   5.749   8.682   8.449 -2.3888 -3.0168 -0.0154
  108MOL0     H14837   5.973   8.668   8.522  0.2359  1.3709  0.2026
  108MOL0     H14838   5.941   8.841   8.539  2.6073  0.7350  1.5540
  108MOL0     H14839   6.139   8.920   8.513 -1.0040  0.3334  3.7863
  108MOL0     H14840   6.153   8.800   8.647 -0.1766 -1.7872  0.3754
  108MOL0     H14841   6.352   8.745   8.551 -1.7319  1.8151  0.9401
  108MOL0     H14842   6.232   8.629   8.486 -2.7495  0.4406  3.0018
  108MOL0     H14843   6.230   8.769   8.272 -0.0041 -2.0138 -0.4120
  108MOL0     H14844   6.345   8.886   8.357  3.1914 -1.2825  1.7585
  108MOL0     H14845   6.446   8.714   8.190  0.5624 -0.7925 -0.5086
  108MOL0     H14846   6.439   8.599   8.327  3.2644 -0.1585 -0.0063
  108MOL0     H14847   6.570   8.873   8.334 -0.1146  0.4039  0.0149
  108MOL0     H14848   6.586   8.751   8.464 -0.3622  2.2798  0.4513
  108MOL0     H14849   6.676   8.730   8.174 -2.4590 -1.2509  0.6833
  108MOL0     H14850   6.696   8.604   8.275  0.7436  0.0253 -1.5027
  108MOL0     H14851   6.821   8.865   8.361 -3.0953  0.3518 -3.8694
  108MOL0     H14852   6.819   8.698   8.446 -0.0338  0.6793  0.1465
  108MOL0     H14853   6.986   8.914   8.189  3.2998  0.5972 -1.3829
  108MOL0     H14854   7.251   8.886   8.099  0.1095 -0.3148 -2.2097
  108MOL0     H14855   7.273   8.724   8.040 -1.8400  0.1183 -1.3230
  108MOL0     H14856   7.340   8.798   8.341  1.4216  0.3967 -0.3721
  108MOL0     H14857   7.336   8.643   8.266  2.8270 -1.2929 -1.1304
  108MOL0     H14858   7.521   8.695   8.126  0.4821 -0.6369  0.5355
  108MOL0     H14859   7.474   8.873   8.133 -2.7084  0.0749  0.9712
  108MOL0     H14860   7.602   8.897   8.350  2.3834  0.6930  2.0158
  108MOL0     H14861   7.583   8.725   8.385  0.2525  1.1561  0.1246
  108MOL0     H14862   7.791   9.013   8.143 -1.4071  0.7060  1.5903
  108MOL0     H14863   8.007   9.260   8.279  0.1327  0.0221 -0.9747
  108MOL0     H14864   7.894   9.219   8.149 -1.0858 -1.4496  0.4011
  108MOL0     H14865   8.073   9.178   8.134 -0.1800  1.4302 -2.4815
  108MOL0     H14866   8.276   8.868   8.742  0.9072 -2.9741 -1.4936
  108MOL0     H14867   8.484   8.884   8.877 -2.5708  1.9274  1.4336
  108MOL0     H14868   8.623   9.063   9.028 -0.6213 -2.1618  1.2576
  108MOL0     H14869   8.690   8.914   8.979 -0.2733  0.2705 -1.4460
  108MOL0     H14870   8.905   8.976   8.992 -1.8000 -0.5699 -2.7950
  108MOL0     H14871   8.865   9.150   8.975  0.1788 -0.1728  1.0494
  108MOL0     H14872   8.811   8.958   9.206  0.6470 -0.5574 -0.6134
  108MOL0     H14873   8.790   9.134   9.219  0.9607  1.4655 -0.8020
  108MOL0     H14874   9.070   9.008   9.167  0.4849  1.9570 -1.1205
  108MOL0     H14875   8.999   9.019   9.326  1.4627 -1.0461 -0.7786
  108MOL0     H14876   9.008   9.264   9.153 -0.6793 -0.2895  0.6087
  108MOL0     H14877   9.032   9.259   9.328  1.4272  1.9199 -0.5373
  108MOL0     H14878   9.237   9.157   9.124 -0.1937  0.6889 -0.6128
  108MOL0     H14879   9.235   9.119   9.294  2.0682  1.2767  0.4431
  108MOL0     H14880   9.257   9.358   9.361 -1.2538 -0.2513 -1.2403
  108MOL0     H14881   9.197   9.407   9.212 -1.0228  0.0459  0.7263
  108MOL0     H14882   9.420   9.380   9.102 -0.0117  0.0234 -0.3174
  108MOL0     H14883   9.442   9.223   9.184 -2.6440 -1.1027 -0.9004
  108MOL0     H14884   8.625   9.186   8.607 -1.2038  0.5816 -0.7538
  108MOL0     H14885   8.441   9.150   8.475 -0.1295  0.7555  1.0479
  108MOL0     H14886   8.053   8.846   8.520  0.7144  1.0708 -0.6310
  108MOL0     H14887   7.849   8.734   8.434 -0.3372 -1.2252 -2.2626
  108MOL0     H14888   5.940   8.836   8.086  0.7795 -0.8472  0.4496
  108MOL0     H14889   5.717   8.867   8.000 -0.6580  0.7228  1.3834
  108MOL0     H14890   5.356   8.686   7.844 -2.0317 -2.0766 -2.1554
  108MOL0     H14891   5.128   8.681   7.739  2.2548  0.5087 -0.6554
  108MOL0     H14892   4.797   8.855   7.989  2.7311 -0.5871  0.3364
  108MOL0     H14893   4.828   9.006   7.914 -2.7052  0.5319  0.1658
  108MOL0     H14894   4.708   8.957   7.722 -0.7438  0.9534  1.4460
  108MOL0     H14895   4.592   8.902   7.850  0.2180 -3.5475  2.2315
  108MOL0     H14896   4.748   8.733   7.650 -0.8672  1.8890 -0.6409
  108MOL0     H14897   4.719   8.669   7.811  3.8803  1.0101 -1.2927
  108MOL0     H14898   4.513   8.753   7.601  0.3733  0.4041  0.1742
  108MOL0     H14899   4.467   8.727   7.771  0.1547  0.3971 -0.0398
  108MOL0     H14900   4.538   8.337   7.628  1.1294  0.6177 -2.3379
  108MOL0     H14901   5.022   9.031   7.946  0.5904  0.8124  0.8978
  108MOL0     H14902   5.338   9.126   8.035 -0.9877  0.3160  0.3499
  108MOL0     H14903   5.173   9.150   8.052  3.3781  3.5270 -2.0441
  108MOL0     H14904   5.256   9.045   8.172  0.4213  1.8413  1.0718
  109MOL0     O14905   3.294   3.138   5.573  0.8699 -0.7215 -0.1916
  109MOL0     C14906   3.246   3.120   5.465 -0.5495  0.2740  0.9601
  109MOL0     O14907   3.283   3.181   5.348  0.1977  0.2162 -0.0287
  109MOL0     C14908   3.398   3.244   5.334 -0.5505  0.0708 -0.4051
  109MOL0     C14909   3.462   3.330   5.425 -0.2031 -0.3262  0.4286
  109MOL0     C14910   3.589   3.391   5.403  0.3620 -0.1674  0.5532
  109MOL0     C14911   3.642   3.376   5.274  0.1065 -0.2468 -0.3719
  109MOL0     O14912   3.764   3.434   5.251 -0.3036  0.0443  0.5737
  109MOL0     C14913   3.878   3.387   5.324  0.1995 -0.4838  0.5880
  109MOL0     C14914   3.974   3.327   5.215  0.0899  0.2339 -0.4107
  109MOL0     C14915   4.068   3.421   5.141  0.2656 -0.3719  0.8426
  109MOL0     C14916   4.187   3.474   5.219 -0.5729 -0.0233 -0.3015
  109MOL0     C14917   4.299   3.512   5.113 -0.3408  0.0590  0.9201
  109MOL0     C14918   4.439   3.545   5.168  0.3148 -0.2658  0.3631
  109MOL0     C14919   4.432   3.677   5.247  0.0435 -0.0331  0.1081
  109MOL0     C14920   4.564   3.705   5.322  0.4067  0.3139 -0.0225
  109MOL0     N14921   4.662   3.765   5.227  0.1292 -0.2079 -0.5558
  109MOL0     C14922   4.666   3.907   5.196  0.4342 -0.8535 -0.2534
  109MOL0     C14923   4.769   3.917   5.114  0.1717 -0.3696  0.0009
  109MOL0     C14924   4.806   4.047   5.053 -0.1905  0.0415  0.1621
  109MOL0     C14925   4.958   4.059   5.020  0.4116 -0.3043 -0.2136
  109MOL0     C14926   4.997   4.147   4.897 -0.0736  0.4064 -0.0873
  109MOL0     C14927   4.973   4.077   4.762 -0.3555 -0.1240 -0.7187
  109MOL0     O14928   5.029   4.153   4.653 -0.6734  0.4310 -0.3906
  109MOL0     C14929   5.167   4.149   4.632  0.4012 -0.9165 -0.2971
  109MOL0     C14930   5.225   4.229   4.536  0.1306  0.1965  0.2209
  109MOL0     C14931   5.365   4.224   4.512 -0.4460 -0.3201  0.7425
  109MOL0     C14932   5.414   4.310   4.405  0.9818  0.7684  0.4261
  109MOL0     C14933   5.444   4.133   4.584 -1.0108 -0.0046 -0.1789
  109MOL0     C14934   5.591   4.114   4.561  0.1173 -0.1730 -0.0708
  109MOL0     O14935   5.659   4.035   4.653 -0.0006  0.2437  0.3703
  109MOL0     C14936   5.793   4.017   4.624  0.1410  0.2305  0.5222
  109MOL0     C14937   5.846   3.901   4.561 -0.2277  0.1386 -0.3949
  109MOL0     C14938   5.987   3.893   4.548  0.3406 -0.8479  0.0412
  109MOL0     C14939   6.074   3.992   4.583 -0.0583 -0.0165  0.5188
  109MOL0     O14940   6.206   3.962   4.567 -0.0623 -0.6485  0.0537
  109MOL0     C14941   6.289   4.081   4.552  0.0060 -0.0224  0.1427
  109MOL0     C14942   6.427   4.025   4.525 -0.9011  0.2425 -0.2880
  109MOL0     C14943   6.537   4.131   4.555 -0.8124  0.4192 -0.3162
  109MOL0     C14944   6.679   4.067   4.568  0.6838  0.0954  0.0821
  109MOL0     C14945   6.744   4.053   4.435  0.4598 -0.0058  0.5353
  109MOL0     C14946   6.809   4.182   4.382  1.0972 -0.0349 -0.3344
  109MOL0     C14947   6.861   4.180   4.230 -0.2054  0.1804 -0.2727
  109MOL0     C14948   6.895   4.320   4.183 -0.0831 -0.6927  1.0695
  109MOL0    Cl14949   6.929   4.318   4.001 -0.3523  0.6506 -0.1224
  109MOL0     C14950   6.020   4.103   4.641  0.1021 -0.7180  0.0132
  109MOL0     C14951   5.880   4.135   4.642 -0.2576 -0.0001 -0.7702
  109MOL0     O14952   5.642   4.171   4.467  0.0731 -0.0841 -0.3327
  109MOL0     C14953   5.388   4.062   4.685  0.1755  0.2108  0.4295
  109MOL0     C14954   5.248   4.058   4.704  0.0404  0.2076  0.0759
  109MOL0     N14955   4.828   3.792   5.093 -0.6637 -0.0728 -0.0367
  109MOL0     N14956   4.765   3.698   5.166 -0.8907 -0.4982  0.8141
  109MOL0     C14957   3.575   3.309   5.177  0.5314  0.7627 -0.0516
  109MOL0     C14958   3.449   3.250   5.206  0.1012  0.1967  0.1196
  109MOL0     C14959   3.149   3.008   5.458 -1.0107 -0.2316  0.1335
  109MOL0     C14960   3.155   2.926   5.340  0.4652  0.7203  0.1400
  109MOL0     C14961   3.079   2.810   5.336 -0.2068  0.5616  0.9850
  109MOL0     C14962   2.997   2.782   5.445  0.3323 -0.0955 -0.1286
  109MOL0     O14963   2.919   2.670   5.437 -0.5887 -0.2876  0.0639
  109MOL0     C14964   2.806   2.666   5.347  0.5239  0.6430  0.0170
  109MOL0     C14965   2.693   2.759   5.373 -0.2751  0.0921 -0.3735
  109MOL0     C14966   2.567   2.721   5.288  0.1337 -0.1073 -0.6499
  109MOL0     C14967   2.525   2.812   5.175 -0.0887 -0.0681 -0.6815
  109MOL0     C14968   2.585   2.792   5.043 -0.2039  0.4788 -0.1283
  109MOL0     C14969   2.642   2.784   4.937  0.5235 -0.5680 -0.2581
  109MOL0     C14970   2.982   2.867   5.549 -0.8683  0.1333 -0.6614
  109MOL0     C14971   3.059   2.975   5.561 -0.0268 -1.0622 -0.1382
  109MOL0     C14972   3.038   3.055   5.689 -0.3333  0.4212  0.8982
  109MOL0     H14973   3.425   3.346   5.526  4.7203  1.0041  2.3219
  109MOL0     H14974   3.638   3.450   5.479  1.7153  2.2153 -1.9913
  109MOL0     H14975   3.852   3.302   5.388 -0.1476 -0.7928  0.0470
  109MOL0     H14976   3.918   3.476   5.373  1.0020 -1.1269  1.1017
  109MOL0     H14977   4.034   3.253   5.269 -1.5083 -2.2012 -1.7214
  109MOL0     H14978   3.909   3.273   5.144 -0.1140 -0.6724  0.4409
  109MOL0     H14979   4.106   3.362   5.057 -1.1876 -2.1603  1.3602
  109MOL0     H14980   4.009   3.507   5.108 -1.8078 -1.1186  2.4186
  109MOL0     H14981   4.148   3.566   5.262 -0.5224  0.3089 -0.9552
  109MOL0     H14982   4.227   3.400   5.289  1.1503 -1.4284 -2.6274
  109MOL0     H14983   4.275   3.590   5.041  3.1067  2.3693  2.0350
  109MOL0     H14984   4.315   3.423   5.051  0.4161  1.0241 -0.2953
  109MOL0     H14985   4.471   3.468   5.239 -1.0206  1.2307  2.7557
  109MOL0     H14986   4.518   3.567   5.096 -0.4898  1.2145 -0.1012
  109MOL0     H14987   4.345   3.664   5.312  2.1838 -0.6831  3.0234
  109MOL0     H14988   4.420   3.759   5.176  2.7925 -2.0630 -3.0050
  109MOL0     H14989   4.536   3.781   5.395 -2.1539  0.8122 -1.4148
  109MOL0     H14990   4.615   3.619   5.366  2.1102  0.1581 -2.1409
  109MOL0     H14991   4.602   3.979   5.245 -0.8017 -1.9403 -0.2130
  109MOL0     H14992   4.788   4.129   5.123  0.4217  0.0879  0.2737
  109MOL0     H14993   4.752   4.058   4.958  1.3004 -1.4180 -0.9232
  109MOL0     H14994   5.005   4.103   5.108  0.1439 -0.6998  0.1359
  109MOL0     H14995   5.010   3.965   5.000  0.4981 -0.0188 -1.3693
  109MOL0     H14996   4.933   4.235   4.881 -1.2359 -0.7371 -2.2377
  109MOL0     H14997   5.101   4.177   4.906 -0.1519  0.6003  0.1861
  109MOL0     H14998   4.999   3.972   4.750  0.2344 -0.2091  1.0162
  109MOL0     H14999   4.866   4.089   4.742 -0.1695  1.1843 -1.0802
  109MOL0     H15000   5.168   4.302   4.480  3.0531  3.5648  1.2855
  109MOL0     H15001   5.498   4.376   4.428  0.7211  1.1414  0.3049
  109MOL0     H15002   5.332   4.367   4.362 -0.3439 -0.7672  0.8133
  109MOL0     H15003   5.452   4.239   4.331  0.7743 -1.3176  2.1842
  109MOL0     H15004   5.787   3.813   4.539  0.1027 -0.4321  0.9320
  109MOL0     H15005   6.022   3.801   4.501  2.9001  0.2739 -0.4045
  109MOL0     H15006   6.264   4.146   4.467  1.6666 -0.1732 -0.5000
  109MOL0     H15007   6.282   4.144   4.642 -3.2030  0.0184 -0.0350
  109MOL0     H15008   6.435   3.934   4.586 -0.1283 -1.3551 -2.6116
  109MOL0     H15009   6.440   3.977   4.427  2.6375 -0.1825  0.2599
  109MOL0     H15010   6.513   4.187   4.645  0.5231  1.0915 -0.3563
  109MOL0     H15011   6.539   4.195   4.466 -0.5065  1.0574  0.1525
  109MOL0     H15012   6.676   3.966   4.611 -1.7849 -0.6994 -1.6866
  109MOL0     H15013   6.731   4.125   4.644 -2.1028 -2.6466  4.5939
  109MOL0     H15014   6.829   3.988   4.454  0.3471  0.0092  1.1116
  109MOL0     H15015   6.677   4.011   4.359 -0.4465  0.2084  1.1974
  109MOL0     H15016   6.890   4.217   4.446  0.2325  2.1921 -0.3530
  109MOL0     H15017   6.726   4.253   4.386 -1.8456 -3.2130  0.3434
  109MOL0     H15018   6.789   4.135   4.161  1.7241  0.5896 -2.6767
  109MOL0     H15019   6.947   4.112   4.232  0.8214  1.4415 -0.7189
  109MOL0     H15020   6.978   4.369   4.235  0.5519  0.2101 -0.7096
  109MOL0     H15021   6.811   4.384   4.211  0.3508 -0.4758  1.9128
  109MOL0     H15022   6.075   4.187   4.682  1.0938  0.2464 -3.0070
  109MOL0     H15023   5.846   4.227   4.688 -0.8405 -0.2369 -0.7122
  109MOL0     H15024   5.450   3.999   4.749  1.8824  0.1709 -1.1806
  109MOL0     H15025   5.216   3.983   4.776  1.3828 -0.7623 -0.2997
  109MOL0     H15026   3.635   3.298   5.087 -1.6727 -0.5724 -1.4620
  109MOL0     H15027   3.412   3.193   5.121  0.9391 -1.2194  0.6666
  109MOL0     H15028   3.211   2.950   5.250  0.4475  2.5062  0.5620
  109MOL0     H15029   3.088   2.754   5.244  1.5410  2.6066 -0.1839
  109MOL0     H15030   2.843   2.681   5.245  1.1969 -0.2174  0.1204
  109MOL0     H15031   2.759   2.567   5.345  1.7133  0.0670 -0.4980
  109MOL0     H15032   2.714   2.866   5.363 -1.6148  0.4823  0.6240
  109MOL0     H15033   2.655   2.736   5.473 -0.5105 -0.3722 -0.5678
  109MOL0     H15034   2.561   2.617   5.254 -1.4650 -1.0889  2.2549
  109MOL0     H15035   2.476   2.720   5.349  0.9978 -4.3948  0.9600
  109MOL0     H15036   2.556   2.915   5.194 -1.7285 -0.1129  3.2309
  109MOL0     H15037   2.417   2.818   5.164 -0.1018  1.7407  0.0436
  109MOL0     H15038   2.686   2.773   4.840 -2.2750  1.2488 -1.8580
  109MOL0     H15039   2.918   2.843   5.633 -0.9364 -0.5686 -0.9138
  109MOL0     H15040   3.035   3.162   5.665  2.2599  0.7442  1.7243
  109MOL0     H15041   2.947   3.028   5.744 -0.7128 -0.7904 -0.2860
  109MOL0     H15042   3.128   3.051   5.751 -0.4257 -1.5414  0.9653
  110MOL0     O15043   4.290   4.559   1.466 -0.3158  0.3974  0.2017
  110MOL0     C15044   4.211   4.485   1.521 -0.2577  0.1725 -0.3621
  110MOL0     O15045   4.249   4.374   1.587  0.0274 -0.0229 -0.1388
  110MOL0     C15046   4.379   4.327   1.574 -0.4068  0.3725 -0.6667
  110MOL0     C15047   4.415   4.230   1.670  0.2033  0.6623  0.0289
  110MOL0     C15048   4.529   4.153   1.662 -0.3852  0.0999  0.2067
  110MOL0     C15049   4.633   4.188   1.571  0.2371  0.6707 -0.6416
  110MOL0     O15050   4.744   4.109   1.546  0.4085  0.5104 -1.0306
  110MOL0     C15051   4.769   3.998   1.635 -0.6610 -0.4026 -0.1193
  110MOL0     C15052   4.916   3.956   1.609 -0.0864  0.3673 -0.1016
  110MOL0     C15053   5.009   4.067   1.648 -0.3484 -0.0746 -0.4813
  110MOL0     C15054   5.033   4.046   1.800 -0.5870 -0.4655 -0.1020
  110MOL0     C15055   5.073   4.176   1.883 -0.2813  0.5445  0.3024
  110MOL0     C15056   5.210   4.233   1.845 -0.1708 -0.0668 -0.5463
  110MOL0     C15057   5.310   4.119   1.897 -0.2508 -0.3678 -0.1277
  110MOL0     C15058   5.436   4.180   1.968  0.6120  0.4748  0.5507
  110MOL0     N15059   5.518   4.269   1.890 -0.8083  0.1935  0.0230
  110MOL0     C15060   5.625   4.238   1.807  0.5969 -1.0048 -0.4826
  110MOL0     C15061   5.689   4.352   1.795  0.1028 -0.1353 -0.9610
  110MOL0     C15062   5.820   4.363   1.721  0.2904 -1.0674  0.0390
  110MOL0     C15063   5.934   4.397   1.811 -0.3907 -0.3502 -0.0582
  110MOL0     C15064   6.075   4.400   1.752  0.1224 -0.2350  0.2534
  110MOL0     C15065   6.135   4.258   1.747  0.2615 -0.5541 -0.9657
  110MOL0     O15066   6.272   4.261   1.696 -0.2975 -0.3330  0.2164
  110MOL0     C15067   6.296   4.270   1.562 -0.0416 -0.8179 -0.0789
  110MOL0     C15068   6.427   4.269   1.513  0.8562  0.3858  0.8096
  110MOL0     C15069   6.454   4.289   1.372 -0.3113  0.3930 -0.6893
  110MOL0     C15070   6.599   4.271   1.337 -0.1612 -0.3455  0.8368
  110MOL0     C15071   6.349   4.302   1.285 -0.1047  0.3916  0.3596
  110MOL0     C15072   6.358   4.324   1.136 -0.2196 -0.9271  1.0321
  110MOL0     O15073   6.254   4.304   1.053 -0.1858 -0.0842 -0.5836
  110MOL0     C15074   6.271   4.340   0.920  0.2005 -1.4738  0.8829
  110MOL0     C15075   6.205   4.455   0.883 -0.1744 -0.8073  0.2327
  110MOL0     C15076   6.211   4.501   0.748  0.0052  0.0145 -0.5052
  110MOL0     C15077   6.290   4.425   0.651 -0.0343 -0.0415  0.0229
  110MOL0     O15078   6.283   4.482   0.522 -0.5085  0.2507 -0.4065
  110MOL0     C15079   6.333   4.415   0.405  0.0201  0.4453  0.2245
  110MOL0     C15080   6.214   4.384   0.308 -0.0260  0.2165  0.6056
  110MOL0     C15081   6.099   4.289   0.355  0.3096 -1.5398  0.4370
  110MOL0     C15082   6.040   4.212   0.225 -0.8556 -0.4806 -0.3790
  110MOL0     C15083   5.923   4.125   0.251 -0.1035 -0.9190 -0.3162
  110MOL0     C15084   5.863   4.042   0.136  0.5033  0.7064 -0.1968
  110MOL0     C15085   5.972   3.967   0.052 -0.4008  0.3395  0.3220
  110MOL0     C15086   6.020   3.840   0.126 -0.7130  0.4341  0.0797
  110MOL0    Cl15087   6.138   3.747   0.028 -0.9823 -0.0440  0.1110
  110MOL0     C15088   6.346   4.298   0.692 -0.0450 -0.8497  0.2950
  110MOL0     C15089   6.328   4.249   0.827  0.6930 -0.0549 -0.3226
  110MOL0     O15090   6.470   4.373   1.092  0.9081 -0.2288  0.1274
  110MOL0     C15091   6.217   4.293   1.326  0.0193  0.2126 -0.9382
  110MOL0     C15092   6.195   4.290   1.466 -0.8400  0.4268  0.6540
  110MOL0     N15093   5.617   4.455   1.845 -0.0662  0.4353 -0.3785
  110MOL0     N15094   5.515   4.396   1.909 -1.3627 -0.4463 -0.0014
  110MOL0     C15095   4.590   4.279   1.468 -0.6913  0.8858  0.6768
  110MOL0     C15096   4.467   4.345   1.465  0.2880 -0.3592 -0.5354
  110MOL0     C15097   4.064   4.517   1.519 -0.1515 -0.2927  0.6769
  110MOL0     C15098   3.977   4.429   1.596  0.2656  0.4906 -0.1325
  110MOL0     C15099   3.837   4.429   1.592 -0.0835 -0.6771 -0.1519
  110MOL0     C15100   3.774   4.532   1.527  0.8627  0.3562  0.0345
  110MOL0     O15101   3.637   4.527   1.532 -0.9283  0.0953 -0.2400
  110MOL0     C15102   3.576   4.656   1.495  0.3781  0.5800 -0.4181
  110MOL0     C15103   3.423   4.656   1.517 -0.1483 -0.3165 -0.0215
  110MOL0     C15104   3.342   4.773   1.462 -0.3345  0.8715  0.2657
  110MOL0     C15105   3.205   4.768   1.540 -0.8381 -0.4094 -0.5885
  110MOL0     C15106   3.116   4.878   1.514  0.6111  0.8016 -0.5527
  110MOL0     C15107   3.025   4.957   1.508  1.1457 -0.1845  0.6309
  110MOL0     C15108   3.855   4.626   1.460 -0.2454 -0.5037 -0.2871
  110MOL0     C15109   4.001   4.627   1.456 -0.0140  0.6877 -0.0486
  110MOL0     C15110   4.077   4.733   1.383  0.4675  0.2320  0.0713
  110MOL0     H15111   4.343   4.205   1.747  2.9604  0.0481  2.5651
  110MOL0     H15112   4.544   4.071   1.731  1.0720  0.1430 -0.0305
  110MOL0     H15113   4.698   3.917   1.616 -2.2930  1.6425 -4.0386
  110MOL0     H15114   4.760   4.030   1.739  2.7618 -0.7952  0.4368
  110MOL0     H15115   4.935   3.864   1.665 -0.2547  0.7464  0.5832
  110MOL0     H15116   4.924   3.927   1.504  0.7387  1.6501 -0.4149
  110MOL0     H15117   5.104   4.038   1.601  0.5842  2.5765 -0.3767
  110MOL0     H15118   4.987   4.170   1.619  0.3974  0.1132 -0.3954
  110MOL0     H15119   4.947   4.009   1.857 -0.2593  0.4498  1.0320
  110MOL0     H15120   5.105   3.965   1.809  0.5588  0.5579  0.2265
  110MOL0     H15121   5.067   4.145   1.988  0.8752 -1.4797 -0.1634
  110MOL0     H15122   4.991   4.246   1.867 -2.2335 -1.5921  0.3670
  110MOL0     H15123   5.222   4.258   1.739  0.9713 -0.3726 -0.4993
  110MOL0     H15124   5.231   4.325   1.900  0.5435 -1.9592  2.5537
  110MOL0     H15125   5.350   4.054   1.818  0.5499 -0.1929  0.1296
  110MOL0     H15126   5.261   4.056   1.973 -0.0610  0.8503  1.0345
  110MOL0     H15127   5.395   4.213   2.064 -1.4847  2.8194 -1.0374
  110MOL0     H15128   5.491   4.095   2.010  0.2469 -0.0176  0.0545
  110MOL0     H15129   5.632   4.133   1.777 -3.5999 -1.2127 -1.4108
  110MOL0     H15130   5.804   4.453   1.661 -1.8358 -0.7830  0.9478
  110MOL0     H15131   5.834   4.269   1.668  1.8947 -0.6419 -0.3567
  110MOL0     H15132   5.920   4.496   1.856 -0.9926  0.2645 -1.5527
  110MOL0     H15133   5.925   4.330   1.898 -2.8222  3.5866  3.0867
  110MOL0     H15134   6.074   4.445   1.652  0.5605  0.5236  0.5737
  110MOL0     H15135   6.130   4.464   1.822 -1.1795  1.8677 -0.5571
  110MOL0     H15136   6.131   4.219   1.849 -4.3590 -2.3390 -1.5669
  110MOL0     H15137   6.068   4.196   1.686 -2.5019  2.5695 -1.3904
  110MOL0     H15138   6.508   4.254   1.584  0.4600  0.1493  1.2198
  110MOL0     H15139   6.605   4.224   1.239 -0.5322  0.7944  0.2615
  110MOL0     H15140   6.646   4.201   1.407 -0.6889  0.0807  1.6317
  110MOL0     H15141   6.648   4.368   1.345 -1.8051  0.5701  0.3817
  110MOL0     H15142   6.139   4.512   0.948 -0.4718  0.5114 -1.1452
  110MOL0     H15143   6.165   4.598   0.731 -0.1799 -0.2923 -1.8842
  110MOL0     H15144   6.388   4.499   0.362 -2.1206  1.8226  0.0074
  110MOL0     H15145   6.402   4.331   0.416  0.3721  0.7283  0.1748
  110MOL0     H15146   6.172   4.481   0.279 -0.7476 -0.8219 -2.2331
  110MOL0     H15147   6.252   4.345   0.213  0.0171 -1.4174  1.2618
  110MOL0     H15148   6.014   4.339   0.402  0.5264  0.6892 -1.3374
  110MOL0     H15149   6.140   4.219   0.428 -1.6661 -0.6760  2.4887
  110MOL0     H15150   6.124   4.159   0.180 -0.6525 -0.5526  0.0709
  110MOL0     H15151   6.006   4.295   0.163 -0.2366  0.6191  0.7165
  110MOL0     H15152   5.946   4.068   0.341  2.2988  0.3695 -0.0257
  110MOL0     H15153   5.843   4.194   0.282 -1.9701 -3.5410  1.0734
  110MOL0     H15154   5.802   4.099   0.065 -1.2689 -1.2966 -0.3659
  110MOL0     H15155   5.799   3.972   0.190  0.2211  0.5778 -0.6909
  110MOL0     H15156   6.056   4.029   0.020 -0.3089 -1.5520 -3.6401
  110MOL0     H15157   5.937   3.940  -0.048 -0.9492  4.0460 -0.6406
  110MOL0     H15158   5.935   3.773   0.141  0.5555 -1.0902  0.8873
  110MOL0     H15159   6.062   3.870   0.222  1.2140 -0.2271 -0.5016
  110MOL0     H15160   6.401   4.232   0.626 -2.5607 -0.5007 -2.3255
  110MOL0     H15161   6.373   4.158   0.865 -0.6129  0.2572  2.1846
  110MOL0     H15162   6.126   4.291   1.268 -2.0708 -1.5330  2.0680
  110MOL0     H15163   6.090   4.304   1.485 -0.7447  0.3454  1.2519
  110MOL0     H15164   4.646   4.293   1.376 -0.3669 -1.7940  0.3819
  110MOL0     H15165   4.446   4.420   1.389  0.0413  1.6176  1.3578
  110MOL0     H15166   4.014   4.335   1.635 -1.6332 -0.4299 -0.4244
  110MOL0     H15167   3.780   4.350   1.640 -0.5129 -0.3541 -0.1310
  110MOL0     H15168   3.608   4.723   1.575  0.3829  0.7293 -0.5475
  110MOL0     H15169   3.602   4.695   1.397  0.1135  2.4086  0.2110
  110MOL0     H15170   3.410   4.646   1.625  1.6230 -2.8794  0.0638
  110MOL0     H15171   3.379   4.565   1.475  2.1470 -0.5136 -2.2701
  110MOL0     H15172   3.395   4.867   1.480  0.6258  0.4582 -0.2892
  110MOL0     H15173   3.324   4.761   1.355 -3.0976  3.1183  0.3663
  110MOL0     H15174   3.217   4.753   1.647  1.2243 -0.4390 -0.7845
  110MOL0     H15175   3.151   4.674   1.522 -1.1746 -0.0445 -1.5348
  110MOL0     H15176   2.946   5.029   1.500  2.3818  1.2913  1.2304
  110MOL0     H15177   3.805   4.712   1.416 -1.3828 -1.2379 -0.4663
  110MOL0     H15178   4.022   4.822   1.351  2.8677  0.8417 -2.8172
  110MOL0     H15179   4.165   4.752   1.446 -0.4624  0.4813  1.3312
  110MOL0     H15180   4.115   4.684   1.293 -0.3268 -2.7538  1.2160
  111MOL0     O15181   5.821   4.377   8.668 -0.1211 -0.9196 -0.0675
  111MOL0     C15182   5.720   4.406   8.734  0.4732  0.1022  0.2620
  111MOL0     O15183   5.691   4.531   8.769 -0.2126  0.6857  0.3274
  111MOL0     C15184   5.775   4.636   8.783  0.7192 -0.4349 -0.1438
  111MOL0     C15185   5.723   4.769   8.785  0.0489 -0.3613 -0.1685
  111MOL0     C15186   5.799   4.875   8.825  0.2538 -0.4608  0.7934
  111MOL0     C15187   5.928   4.849   8.871  0.1782 -0.2851 -0.1423
  111MOL0     O15188   6.001   4.964   8.903 -0.0977 -0.1748  0.3161
  111MOL0     C15189   6.143   4.951   8.958  0.1806  0.0648 -0.2824
  111MOL0     C15190   6.191   5.096   8.990  0.5275  0.2432  0.2669
  111MOL0     C15191   6.338   5.095   9.033  0.5801  0.0955 -0.4950
  111MOL0     C15192   6.387   5.235   9.071  0.3209  0.7491  0.5004
  111MOL0     C15193   6.527   5.222   9.125  0.7247  0.2480 -0.0161
  111MOL0     C15194   6.603   5.350   9.103 -0.0042 -0.5267 -0.2975
  111MOL0     C15195   6.755   5.338   9.138  0.0605 -0.4481 -0.0918
  111MOL0     C15196   6.774   5.326   9.291 -0.0861  0.4806  0.1229
  111MOL0     N15197   6.899   5.388   9.328  0.2388 -0.1649 -0.6377
  111MOL0     C15198   7.022   5.366   9.267  0.2722  0.4679 -0.5469
  111MOL0     C15199   7.107   5.415   9.358 -0.9198  0.2254  0.2678
  111MOL0     C15200   7.258   5.404   9.338  0.2495 -0.0949  0.0298
  111MOL0     C15201   7.302   5.549   9.342 -1.1095  0.1380  0.3632
  111MOL0     C15202   7.451   5.564   9.304 -0.6780 -0.0210  0.0888
  111MOL0     C15203   7.535   5.494   9.405 -0.5433  0.5018 -0.4137
  111MOL0     O15204   7.501   5.538   9.540  0.4244  0.6282 -0.5303
  111MOL0     C15205   7.591   5.518   9.644  0.3536  0.3258 -0.0207
  111MOL0     C15206   7.541   5.533   9.770  0.5402 -0.3716 -0.4128
  111MOL0     C15207   7.619   5.535   9.883 -0.6011 -0.4206 -0.6508
  111MOL0     C15208   7.558   5.564  10.013  0.3977 -0.8070 -0.4111
  111MOL0     C15209   7.758   5.487   9.875  0.4129 -0.0847  0.2005
  111MOL0     C15210   7.844   5.439   9.995  0.3936  0.4036 -0.2377
  111MOL0     O15211   7.780   5.359  10.083  0.1047  0.6122  0.4536
  111MOL0     C15212   7.843   5.320  10.197  0.1005  0.0337 -0.6563
  111MOL0     C15213   7.813   5.194  10.249  0.1929 -0.2381  0.3797
  111MOL0     C15214   7.879   5.140  10.356 -0.1592 -0.5297 -0.0514
  111MOL0     C15215   7.975   5.214  10.426 -0.3969 -0.0631 -0.2168
  111MOL0     O15216   8.043   5.174  10.542  0.4452  0.4695  0.5650
  111MOL0     C15217   8.028   5.042  10.583 -0.9910  0.4328  0.5988
  111MOL0     C15218   8.094   4.943  10.492  0.1031  1.1560  0.6370
  111MOL0     C15219   8.238   4.952  10.511 -0.0451  0.3229 -0.6632
  111MOL0     C15220   8.278   4.829  10.595  0.5960 -0.0235 -0.1052
  111MOL0     C15221   8.421   4.823  10.633  0.2508  0.1662  0.1060
  111MOL0     C15222   8.519   4.820  10.520 -0.4899 -0.2807 -0.5024
  111MOL0     C15223   8.660   4.851  10.593  0.0405  0.3567  0.7073
  111MOL0     C15224   8.777   4.840  10.490 -0.8552 -0.1424 -0.3255
  111MOL0    Cl15225   8.922   4.880  10.584  0.1746 -0.1160 -0.3484
  111MOL0     C15226   8.012   5.344  10.374  0.9413 -0.2597  0.1132
  111MOL0     C15227   7.946   5.394  10.264  0.0504  0.3865 -0.4619
  111MOL0     O15228   7.964   5.444   9.983 -0.2242 -0.2385  0.2234
  111MOL0     C15229   7.819   5.485   9.741 -0.2046  0.1551 -0.8934
  111MOL0     C15230   7.730   5.498   9.633 -0.0056  0.0513 -1.0840
  111MOL0     N15231   7.042   5.449   9.473 -0.3760 -0.2038  0.7384
  111MOL0     N15232   6.922   5.433   9.457 -0.5401  0.1477  0.8112
  111MOL0     C15233   5.986   4.723   8.863 -0.0407 -0.1750 -0.2188
  111MOL0     C15234   5.905   4.613   8.831 -0.2334 -0.3737  0.3475
  111MOL0     C15235   5.623   4.295   8.765 -0.2971  0.3062  0.4497
  111MOL0     C15236   5.508   4.320   8.843 -0.8892 -0.1318 -0.5565
  111MOL0     C15237   5.413   4.222   8.859 -0.2134  0.5885 -0.0484
  111MOL0     C15238   5.421   4.100   8.795 -0.2399 -0.9793  0.8544
  111MOL0     O15239   5.313   4.009   8.824  0.1585 -0.0374  0.1276
  111MOL0     C15240   5.316   3.873   8.778  0.4509 -0.1435  1.2110
  111MOL0     C15241   5.230   3.853   8.660  0.5233  0.0006  0.5159
  111MOL0     C15242   5.095   3.912   8.665 -0.0956  0.5055 -0.5119
  111MOL0     C15243   5.011   3.865   8.786  0.6446  0.7165  0.1075
  111MOL0     C15244   4.863   3.892   8.794 -0.2999 -0.2515  0.3144
  111MOL0     C15245   4.740   3.896   8.800 -0.4366  0.4066 -0.1284
  111MOL0     C15246   5.525   4.070   8.709  0.1913 -0.2304 -0.8649
  111MOL0     C15247   5.629   4.165   8.703 -0.1086 -0.8412  0.5795
  111MOL0     C15248   5.735   4.124   8.595  0.1869  1.1559  0.2816
  111MOL0     H15249   5.617   4.788   8.770  0.6987  2.3752 -2.0041
  111MOL0     H15250   5.762   4.977   8.814  1.8363 -0.1702 -3.8141
  111MOL0     H15251   6.203   4.919   8.872 -2.6514 -1.1187 -1.9701
  111MOL0     H15252   6.159   4.893   9.049 -0.1935  2.6187  1.5061
  111MOL0     H15253   6.165   5.152   8.900 -0.1957 -0.9717 -0.3123
  111MOL0     H15254   6.129   5.139   9.069 -0.5986 -1.1876  0.2091
  111MOL0     H15255   6.357   5.028   9.117 -1.9161 -1.5672 -1.1361
  111MOL0     H15256   6.391   5.064   8.943  0.2589 -0.1220 -0.6138
  111MOL0     H15257   6.383   5.302   8.985 -0.8246 -2.3413 -2.0020
  111MOL0     H15258   6.315   5.273   9.145  1.3617  2.2522  0.8020
  111MOL0     H15259   6.571   5.137   9.071 -1.5644 -0.4080 -0.9597
  111MOL0     H15260   6.520   5.197   9.232 -0.0301  2.0779  0.3905
  111MOL0     H15261   6.605   5.378   8.997  0.5879  0.0138 -0.1474
  111MOL0     H15262   6.561   5.433   9.161  0.4598 -2.1616  2.5392
  111MOL0     H15263   6.799   5.431   9.103  0.5478  0.5608  2.9014
  111MOL0     H15264   6.799   5.249   9.093 -0.2775 -0.8019  0.2580
  111MOL0     H15265   6.692   5.378   9.341  1.4845  0.2143  3.2222
  111MOL0     H15266   6.774   5.220   9.317  0.2422  0.3651 -0.3428
  111MOL0     H15267   7.030   5.328   9.166 -0.3342  0.6445 -0.6679
  111MOL0     H15268   7.275   5.348   9.246 -1.7817 -0.2537 -0.3043
  111MOL0     H15269   7.304   5.352   9.422 -1.5923 -1.6302  0.1579
  111MOL0     H15270   7.245   5.609   9.270 -0.0824  0.9660  0.2215
  111MOL0     H15271   7.283   5.589   9.442  0.6603  0.6087  0.5410
  111MOL0     H15272   7.473   5.514   9.209  0.3514 -1.3068  0.9694
  111MOL0     H15273   7.480   5.668   9.283 -0.5816 -0.5147 -2.6949
  111MOL0     H15274   7.531   5.386   9.391  2.5715  0.4791 -1.7207
  111MOL0     H15275   7.640   5.515   9.388 -0.4257  0.7802  0.5498
  111MOL0     H15276   7.435   5.550   9.784  0.2759 -1.6733 -0.7392
  111MOL0     H15277   7.623   5.596  10.095 -3.1581  0.5363  2.1465
  111MOL0     H15278   7.490   5.491  10.059  0.4358 -0.6874 -0.1631
  111MOL0     H15279   7.494   5.652  10.006 -0.4289 -1.4139 -0.7762
  111MOL0     H15280   7.745   5.129  10.195 -1.7561  0.6699  1.6027
  111MOL0     H15281   7.848   5.042  10.391  0.2095 -0.5841  0.1293
  111MOL0     H15282   8.069   5.038  10.685 -2.0496  1.0373  1.0745
  111MOL0     H15283   7.922   5.018  10.597 -0.7519 -0.5210  0.8439
  111MOL0     H15284   8.061   4.841  10.514  0.8787  0.7575 -0.0192
  111MOL0     H15285   8.075   4.963  10.386 -0.9392  0.6760  0.7198
  111MOL0     H15286   8.269   5.041  10.566 -4.5428  2.5610 -1.3160
  111MOL0     H15287   8.294   4.955  10.417  0.0201  0.1827 -0.6306
  111MOL0     H15288   8.263   4.734  10.542 -1.9982 -0.2356  0.9027
  111MOL0     H15289   8.208   4.830  10.679  0.5584 -2.8089 -0.0258
  111MOL0     H15290   8.439   4.913  10.692  0.2332  1.9819 -2.4952
  111MOL0     H15291   8.442   4.740  10.700 -1.5923 -1.4196 -1.1512
  111MOL0     H15292   8.494   4.895  10.444 -0.8165  4.2304  3.5149
  111MOL0     H15293   8.521   4.719  10.480 -2.1714  0.4292 -2.5551
  111MOL0     H15294   8.677   4.773  10.668  0.5810  0.7595  1.0123
  111MOL0     H15295   8.667   4.948  10.644  0.1763  1.7861 -1.8595
  111MOL0     H15296   8.759   4.903  10.402 -3.1447  0.6251  0.6013
  111MOL0     H15297   8.767   4.736  10.459  0.1169 -0.0730 -0.9300
  111MOL0     H15298   8.080   5.406  10.431 -1.4828  0.6640  2.1805
  111MOL0     H15299   7.977   5.492  10.228  1.0437 -0.0260 -0.7539
  111MOL0     H15300   7.925   5.469   9.724  0.5030 -0.5789  3.1454
  111MOL0     H15301   7.769   5.484   9.533  1.4856  2.2357 -0.8924
  111MOL0     H15302   6.090   4.699   8.880 -0.2300 -0.4473  0.5827
  111MOL0     H15303   5.952   4.516   8.845  0.2442 -0.2287 -0.1987
  111MOL0     H15304   5.489   4.415   8.892 -4.4432  0.1426 -2.1850
  111MOL0     H15305   5.326   4.249   8.919  0.3951 -0.2163  1.2497
  111MOL0     H15306   5.418   3.845   8.750  1.7715  2.8151  2.5781
  111MOL0     H15307   5.279   3.803   8.854  1.4536 -1.0690  0.8721
  111MOL0     H15308   5.218   3.749   8.631 -2.9623  0.3773  0.2305
  111MOL0     H15309   5.278   3.903   8.575 -0.5317  2.8532  1.4646
  111MOL0     H15310   5.101   4.021   8.656 -0.1844  0.5453 -0.1295
  111MOL0     H15311   5.047   3.875   8.575 -1.0395 -1.0475  0.5848
  111MOL0     H15312   5.048   3.925   8.869  2.4391 -0.2967  0.0932
  111MOL0     H15313   5.028   3.757   8.794 -2.7791  0.0344 -0.4252
  111MOL0     H15314   4.634   3.885   8.800 -0.3411 -0.6548 -0.1226
  111MOL0     H15315   5.528   3.977   8.653  0.7511  0.6804 -2.4156
  111MOL0     H15316   5.749   4.208   8.526  1.7418  0.7604  0.0882
  111MOL0     H15317   5.832   4.096   8.635 -1.5056 -2.1989  2.5378
  111MOL0     H15318   5.700   4.040   8.535 -1.2507  1.6559  0.3622
  112MOL0     O15319   9.284   9.820   9.442  0.2989 -0.6497 -0.0351
  112MOL0     C15320   9.245   9.824   9.322 -0.6298  0.6748 -0.2287
  112MOL0     O15321   9.299   9.901   9.226  0.0370  1.0800 -0.1341
  112MOL0     C15322   9.435   9.939   9.245  0.1993  0.9193 -0.0401
  112MOL0     C15323   9.469  10.072   9.244  0.2255 -0.1360 -0.5404
  112MOL0     C15324   9.601  10.113   9.259 -0.3040 -0.9676 -0.2668
  112MOL0     C15325   9.697  10.014   9.263  0.1708  0.4626 -0.7704
  112MOL0     O15326   9.826  10.061   9.252  1.1250 -0.3915 -0.2342
  112MOL0     C15327   9.906   9.997   9.157  0.1505 -0.1536 -0.2862
  112MOL0     C15328  10.053   9.992   9.201  0.1396  0.6785 -0.3812
  112MOL0     C15329  10.118  10.115   9.258 -0.0052  0.1832  0.4015
  112MOL0     C15330  10.260  10.086   9.286 -0.3991  0.1656 -0.2956
  112MOL0     C15331  10.324  10.194   9.377 -0.2226 -0.5825  0.0792
  112MOL0     C15332  10.330  10.328   9.312 -0.6744 -0.3022 -0.0649
  112MOL0     C15333  10.402  10.428   9.414  0.9270 -1.2304 -0.0657
  112MOL0     C15334  10.452  10.565   9.353 -0.1261  0.8079 -0.2936
  112MOL0     N15335  10.546  10.642   9.435 -0.1613  0.0383  0.1757
  112MOL0     C15336  10.535  10.654   9.572  0.4784  0.2076 -0.1308
  112MOL0     C15337  10.639  10.740   9.607  0.4834  0.7723  0.9455
  112MOL0     C15338  10.669  10.783   9.748 -0.1722 -0.5395 -0.5472
  112MOL0     C15339  10.830  10.772   9.768 -0.4779 -0.7438  1.5737
  112MOL0     C15340  10.881  10.734   9.910 -1.2689 -0.0578  0.3479
  112MOL0     C15341  11.027  10.714   9.900 -0.6067  0.1630  0.5217
  112MOL0     O15342  11.063  10.694  10.034  0.5409 -0.3663 -0.2040
  112MOL0     C15343  11.199  10.696  10.057  0.0588 -0.3720  0.4462
  112MOL0     C15344  11.294  10.667   9.959 -0.3973  0.3958  0.0628
  112MOL0     C15345  11.430  10.652   9.986  1.2876 -0.1648 -0.3344
  112MOL0     C15346  11.526  10.611   9.874 -0.8310 -0.2384 -0.1285
  112MOL0     C15347  11.474  10.672  10.121  0.1176 -0.0540 -0.0121
  112MOL0     C15348  11.611  10.651  10.172 -0.5596  0.0010 -0.2145
  112MOL0     O15349  11.685  10.539  10.119 -0.2175 -0.4324 -0.1791
  112MOL0     C15350  11.818  10.541  10.156  0.4108  0.8628  0.4847
  112MOL0     C15351  11.909  10.620  10.086 -0.4509  0.4827 -0.7792
  112MOL0     C15352  12.047  10.620  10.115 -0.2390  0.0228  0.3771
  112MOL0     C15353  12.097  10.531  10.202 -0.7513 -0.0618 -0.3083
  112MOL0     O15354  12.232  10.508  10.216  0.2775 -0.0472  0.1036
  112MOL0     C15355  12.322  10.533  10.108  0.1952 -0.1365 -0.7286
  112MOL0     C15356  12.464  10.487  10.137  0.7422  0.2134  0.4296
  112MOL0     C15357  12.526  10.591  10.238 -0.1579  0.0790 -0.4025
  112MOL0     C15358  12.658  10.540  10.302 -0.4826 -0.8534 -0.3200
  112MOL0     C15359  12.766  10.496  10.208 -0.4122  0.7539  0.2444
  112MOL0     C15360  12.813  10.605  10.120  0.0354  0.3441 -0.1021
  112MOL0     C15361  12.917  10.582  10.001 -0.5984  1.1230  0.6653
  112MOL0     C15362  13.064  10.584  10.045  0.4583  0.8419  0.3995
  112MOL0    Cl15363  13.116  10.456  10.155  0.1412  0.1360  0.1276
  112MOL0     C15364  12.008  10.452  10.272  0.7056 -0.1342  0.0368
  112MOL0     C15365  11.869  10.460  10.253 -0.2996  0.0741  0.6587
  112MOL0     O15366  11.654  10.729  10.257 -0.7509 -0.0888  0.2061
  112MOL0     C15367  11.381  10.715  10.215  0.0967  0.6556  0.6277
  112MOL0     C15368  11.245  10.723  10.183  0.5184  0.9264  0.1411
  112MOL0     N15369  10.705  10.773   9.490 -0.5043  0.5026  0.1858
  112MOL0     N15370  10.646  10.720   9.392  0.2381 -0.6537 -0.2334
  112MOL0     C15371   9.659   9.875   9.260 -0.3265 -0.1887  0.3512
  112MOL0     C15372   9.526   9.838   9.260 -0.9697  0.2071 -0.2917
  112MOL0     C15373   9.118   9.755   9.298  0.4290  0.2628 -0.1452
  112MOL0     C15374   9.008   9.775   9.385  0.5359 -0.4703  0.8271
  112MOL0     C15375   8.887   9.708   9.360 -0.3400  0.0263  0.1317
  112MOL0     C15376   8.869   9.626   9.249 -0.1773 -0.3804  0.3006
  112MOL0     O15377   8.759   9.550   9.225  0.2551  0.2084  0.0273
  112MOL0     C15378   8.637   9.604   9.286  0.5189 -0.3782 -0.0524
  112MOL0     C15379   8.522   9.523   9.239  0.2559  0.4646 -0.3833
  112MOL0     C15380   8.542   9.368   9.266 -0.2217  0.6279  0.4995
  112MOL0     C15381   8.415   9.302   9.215 -0.1930 -0.0599 -0.9288
  112MOL0     C15382   8.408   9.292   9.069  0.6726 -0.0482  0.6547
  112MOL0     C15383   8.413   9.284   8.950  0.4161  0.4384 -1.0604
  112MOL0     C15384   8.982   9.613   9.156  0.6681 -0.0033 -0.1343
  112MOL0     C15385   9.097   9.686   9.181 -0.0254 -0.1783  0.2910
  112MOL0     C15386   9.200   9.667   9.075 -0.3423 -0.4820 -0.2623
  112MOL0     H15387   9.405  10.159   9.243 -0.0894 -0.3636 -0.4074
  112MOL0     H15388   9.643  10.212   9.247  1.7681 -1.9560 -1.8155
  112MOL0     H15389   9.907  10.055   9.065 -0.7988  1.2698  0.5543
  112MOL0     H15390   9.871   9.897   9.132  1.5147 -1.5032  2.6245
  112MOL0     H15391  10.057   9.917   9.281  1.0629  0.9894 -0.1196
  112MOL0     H15392  10.112   9.959   9.115  2.5981  2.0511  0.6855
  112MOL0     H15393  10.105  10.196   9.185  3.1808  0.7979  0.3766
  112MOL0     H15394  10.066  10.145   9.349  2.7030 -0.5404  2.3180
  112MOL0     H15395  10.272   9.990   9.336 -1.4445 -0.6680 -1.5643
  112MOL0     H15396  10.323  10.076   9.197  1.2124 -0.4028  0.8597
  112MOL0     H15397  10.428  10.176   9.407 -0.9570 -2.7014  1.5892
  112MOL0     H15398  10.262  10.213   9.465 -1.4179  3.4289 -1.3954
  112MOL0     H15399  10.384  10.321   9.218 -3.1654 -0.3580 -1.5775
  112MOL0     H15400  10.233  10.371   9.284 -0.5544 -0.1066 -0.1863
  112MOL0     H15401  10.489  10.373   9.451  0.9214 -0.3472  1.3322
  112MOL0     H15402  10.330  10.454   9.493 -1.3963  1.8853 -2.9422
  112MOL0     H15403  10.499  10.542   9.257 -0.7779  0.1916 -0.4755
  112MOL0     H15404  10.358  10.619   9.341 -0.5775  0.0073 -0.4374
  112MOL0     H15405  10.466  10.607   9.641  0.3329 -0.4090 -0.6794
  112MOL0     H15406  10.605  10.724   9.815 -1.0122  0.7168 -0.1885
  112MOL0     H15407  10.638  10.885   9.772 -1.6507 -1.1492  0.2930
  112MOL0     H15408  10.867  10.690   9.705  0.0652 -1.0024  2.2232
  112MOL0     H15409  10.879  10.867   9.744 -0.9850 -0.5838  1.1501
  112MOL0     H15410  10.852  10.806   9.987  0.3621  0.9156  0.1117
  112MOL0     H15411  10.834  10.637   9.930 -4.3445  0.6536 -2.4196
  112MOL0     H15412  11.058  10.632   9.834  1.2690  2.2548 -1.3997
  112MOL0     H15413  11.086  10.799   9.864  2.8634 -1.9593  0.7967
  112MOL0     H15414  11.271  10.657   9.853 -1.1579 -0.6850  0.3157
  112MOL0     H15415  11.490  10.638   9.774  2.0186 -1.6758 -1.6664
  112MOL0     H15416  11.523  10.502   9.871 -3.3098 -0.2595  0.6562
  112MOL0     H15417  11.622  10.661   9.894 -1.5695  0.4737  1.9496
  112MOL0     H15418  11.878  10.698  10.017 -0.4365 -0.6050 -2.0546
  112MOL0     H15419  12.107  10.679  10.048 -0.9116 -1.1942 -1.3611
  112MOL0     H15420  12.271  10.485  10.024 -0.5481  2.0799 -1.5994
  112MOL0     H15421  12.336  10.638  10.082 -1.1789 -0.2021 -1.8018
  112MOL0     H15422  12.461  10.388  10.183  1.3440  0.5638  1.2254
  112MOL0     H15423  12.520  10.471  10.044 -0.9705 -0.5200 -0.5145
  112MOL0     H15424  12.453  10.605  10.318 -0.5215  0.1555 -0.7447
  112MOL0     H15425  12.544  10.688  10.192 -2.1037 -0.2619 -2.0194
  112MOL0     H15426  12.632  10.459  10.371  1.2628  0.4037  1.9415
  112MOL0     H15427  12.698  10.619  10.366 -0.8573 -1.3439  0.5343
  112MOL0     H15428  12.852  10.461  10.265 -1.6431  0.4316  1.9924
  112MOL0     H15429  12.741  10.411  10.145  2.5540 -0.3915  0.4598
  112MOL0     H15430  12.858  10.683  10.182  0.5992 -1.9589  2.6230
  112MOL0     H15431  12.727  10.652  10.072  0.0647 -2.4751 -3.3144
  112MOL0     H15432  12.895  10.661   9.929  2.4984 -0.4462 -2.2927
  112MOL0     H15433  12.903  10.480   9.964  1.7940  0.9995 -0.0790
  112MOL0     H15434  13.092  10.684  10.080 -0.9283  1.2333  0.4837
  112MOL0     H15435  13.107  10.569   9.946  1.4107 -2.1623  1.1842
  112MOL0     H15436  12.056  10.378  10.335  0.7339  1.5391  2.0965
  112MOL0     H15437  11.795  10.400  10.305 -0.9957  0.8024  0.5101
  112MOL0     H15438  11.401  10.732  10.320 -1.2408  1.0527  0.8317
  112MOL0     H15439  11.174  10.751  10.261 -0.0597 -0.4839  0.1469
  112MOL0     H15440   9.736   9.799   9.256 -0.1468  0.0430 -1.3334
  112MOL0     H15441   9.497   9.734   9.253  0.2345 -0.1782  0.0412
  112MOL0     H15442   9.019   9.842   9.469 -3.4088  2.5453 -0.7063
  112MOL0     H15443   8.809   9.730   9.433 -3.7689 -1.6464 -2.7359
  112MOL0     H15444   8.647   9.605   9.395 -0.9534 -2.0434  0.1500
  112MOL0     H15445   8.617   9.707   9.257  1.8795  0.3767  1.5233
  112MOL0     H15446   8.512   9.552   9.134 -1.4924  2.1664  0.1790
  112MOL0     H15447   8.431   9.559   9.289  0.8740 -1.4922  2.3691
  112MOL0     H15448   8.620   9.336   9.196  0.5900  0.6468  1.3659
  112MOL0     H15449   8.558   9.340   9.370 -1.7279  0.0350  0.5902
  112MOL0     H15450   8.327   9.354   9.254 -0.6369 -1.1691 -0.4199
  112MOL0     H15451   8.408   9.204   9.262  1.8796  1.6928  3.6473
  112MOL0     H15452   8.414   9.280   8.843 -0.9403 -0.3842 -1.0626
  112MOL0     H15453   8.966   9.553   9.066  0.0273  1.5075 -1.0577
  112MOL0     H15454   9.201   9.750   9.004 -0.0668  2.1500  2.5946
  112MOL0     H15455   9.303   9.663   9.112 -1.1883  0.3316  2.4279
  112MOL0     H15456   9.183   9.566   9.036  0.9142 -0.5056 -0.8161
  113MOL0     O15457  10.269  10.391   1.945  0.2531  0.1343  0.6739
  113MOL0     C15458  10.152  10.377   1.966 -1.0441 -0.0290 -0.5655
  113MOL0     O15459  10.101  10.353   2.094 -0.1575  0.2344  0.2112
  113MOL0     C15460  10.182  10.321   2.201 -0.2655  0.4922  0.4685
  113MOL0     C15461  10.131  10.343   2.326  0.4082 -0.2992 -0.1100
  113MOL0     C15462  10.197  10.288   2.437 -0.0884 -0.2694 -0.5748
  113MOL0     C15463  10.327  10.232   2.433  0.7055  0.1950  0.5090
  113MOL0     O15464  10.380  10.180   2.550  0.1910  0.8446 -0.4951
  113MOL0     C15465  10.517  10.174   2.551 -0.2425  0.7456  0.9051
  113MOL0     C15466  10.555  10.026   2.544 -1.0396  0.3239  0.2643
  113MOL0     C15467  10.511   9.939   2.672 -0.0005  0.4563  0.9577
  113MOL0     C15468  10.466   9.801   2.639  0.5842  0.5236  0.1297
  113MOL0     C15469  10.332   9.789   2.575 -0.3197 -0.1303  0.4940
  113MOL0     C15470  10.298   9.633   2.571 -0.2813 -0.7308 -0.2671
  113MOL0     C15471  10.160   9.614   2.519  1.1096 -0.5684 -0.3301
  113MOL0     C15472  10.119   9.465   2.518 -0.3589 -0.0930  0.4765
  113MOL0     N15473  10.184   9.385   2.420  0.5362 -0.3777 -0.3843
  113MOL0     C15474  10.204   9.430   2.289 -0.1547  0.2234 -0.2506
  113MOL0     C15475  10.243   9.319   2.217  0.4447 -0.2250  0.2231
  113MOL0     C15476  10.288   9.323   2.077 -0.0734 -0.4273  0.8379
  113MOL0     C15477  10.258   9.189   2.008 -0.4105 -0.1997  0.4036
  113MOL0     C15478  10.318   9.171   1.866  0.2017  0.2452 -0.2775
  113MOL0     C15479  10.288   9.023   1.821 -0.4198  0.1894 -1.0101
  113MOL0     O15480  10.353   8.934   1.916 -0.4135 -0.2592 -0.0665
  113MOL0     C15481  10.477   8.882   1.889 -0.6478 -0.4427 -0.8179
  113MOL0     C15482  10.579   8.891   1.988  0.7873  0.2494 -0.6668
  113MOL0     C15483  10.686   8.813   1.970 -0.1480 -0.4777  0.2523
  113MOL0     C15484  10.796   8.810   2.080 -0.5091  0.0448 -0.5158
  113MOL0     C15485  10.708   8.740   1.844  0.0433  0.3048  0.1875
  113MOL0     C15486  10.828   8.672   1.796 -0.7418  0.8208 -0.8324
  113MOL0     O15487  10.826   8.599   1.684 -0.3279  0.2187 -0.3943
  113MOL0     C15488  10.938   8.535   1.638  0.3330  0.0758 -0.9577
  113MOL0     C15489  11.018   8.581   1.533 -0.5154  0.5756  0.4485
  113MOL0     C15490  11.108   8.496   1.470 -0.3497  0.1931 -0.2949
  113MOL0     C15491  11.130   8.363   1.532 -0.0939  0.9655 -0.8762
  113MOL0     O15492  11.215   8.272   1.485  0.1498 -0.3301  1.1365
  113MOL0     C15493  11.216   8.253   1.340 -0.3862  0.7857  0.1205
  113MOL0     C15494  11.306   8.125   1.312 -0.4029 -0.3207 -0.4877
  113MOL0     C15495  11.428   8.169   1.224 -0.3723 -0.3648  0.2008
  113MOL0     C15496  11.530   8.063   1.222  0.1373  0.2609  0.5603
  113MOL0     C15497  11.632   8.075   1.102 -0.9296  0.8513 -0.5707
  113MOL0     C15498  11.750   7.971   1.104 -0.2732  0.5181 -0.3077
  113MOL0     C15499  11.857   7.990   0.988  0.3307  0.4952 -0.4866
  113MOL0     C15500  11.939   7.863   0.964 -0.0047  0.4351  0.9086
  113MOL0    Cl15501  11.819   7.740   0.904  0.0901 -0.6136 -0.0620
  113MOL0     C15502  11.060   8.339   1.655 -1.1082  0.5867  0.0391
  113MOL0     C15503  10.962   8.412   1.703  0.4180  0.2655 -0.0241
  113MOL0     O15504  10.936   8.696   1.854 -0.1061 -0.4438  0.1472
  113MOL0     C15505  10.605   8.735   1.750  0.6974 -0.1215  1.2707
  113MOL0     C15506  10.486   8.805   1.772  0.1560 -0.7372 -0.1619
  113MOL0     N15507  10.249   9.214   2.305 -0.1680 -0.4532  0.6930
  113MOL0     N15508  10.216   9.254   2.423  0.1313  0.0958 -0.0152
  113MOL0     C15509  10.377  10.214   2.304 -0.1870 -0.4707 -0.0439
  113MOL0     C15510  10.306  10.246   2.191  0.4978 -0.5892  0.7068
  113MOL0     C15511  10.048  10.389   1.857 -0.0770 -0.7324 -0.2621
  113MOL0     C15512   9.909  10.389   1.898 -0.5731 -0.0078 -0.3802
  113MOL0     C15513   9.807  10.384   1.799 -0.2759 -0.5664 -0.6281
  113MOL0     C15514   9.831  10.389   1.669 -0.6387  0.0412  1.5021
  113MOL0     O15515   9.720  10.368   1.589 -0.4951 -0.3885 -0.0105
  113MOL0     C15516   9.717  10.393   1.447 -0.6659 -0.5678 -0.3549
  113MOL0     C15517   9.727  10.273   1.359  0.4851  0.5693 -0.1322
  113MOL0     C15518   9.630  10.160   1.389  0.4118  1.0435 -0.5600
  113MOL0     C15519   9.684  10.033   1.320  0.9925 -0.5214 -0.4367
  113MOL0     C15520   9.575   9.943   1.282  0.1884 -0.1764 -0.1850
  113MOL0     C15521   9.500   9.852   1.250 -0.7921 -0.8615  0.7431
  113MOL0     C15522   9.968  10.376   1.630  0.2442 -0.6261  0.5954
  113MOL0     C15523  10.079  10.392   1.721  0.5559  0.3731  0.1082
  113MOL0     C15524  10.215  10.392   1.655  0.2997 -0.1706 -0.0145
  113MOL0     H15525  10.036  10.394   2.335  1.1441  0.8064  1.9443
  113MOL0     H15526  10.140  10.293   2.530  0.7654 -2.6910  0.1569
  113MOL0     H15527  10.552  10.214   2.647 -1.1189  2.6331  0.4744
  113MOL0     H15528  10.569  10.225   2.470  0.0112 -1.4549 -0.3846
  113MOL0     H15529  10.520  10.000   2.443  2.5238  2.7833 -1.8276
  113MOL0     H15530  10.664  10.015   2.539 -0.8870  0.7942  1.9658
  113MOL0     H15531  10.595   9.932   2.742  0.8013 -3.0163 -0.1189
  113MOL0     H15532  10.443   9.996   2.735  2.5428  0.7438  3.6220
  113MOL0     H15533  10.540   9.756   2.573 -0.7807 -2.1517  0.2767
  113MOL0     H15534  10.465   9.749   2.736  0.2643  0.5074  0.1200
  113MOL0     H15535  10.332   9.836   2.477 -1.6287 -1.8514 -0.3869
  113MOL0     H15536  10.255   9.848   2.627  0.6614  3.4372 -1.7344
  113MOL0     H15537  10.366   9.575   2.508  2.0029  0.9080  0.5322
  113MOL0     H15538  10.314   9.593   2.672 -0.4359  1.5628  0.7405
  113MOL0     H15539  10.154   9.643   2.414 -0.9783 -2.7707 -0.9004
  113MOL0     H15540  10.083   9.665   2.578 -1.0489 -2.0781 -1.7038
  113MOL0     H15541  10.131   9.420   2.616 -0.8394 -3.3434 -0.8430
  113MOL0     H15542  10.012   9.462   2.495  0.3816 -2.5315 -3.8331
  113MOL0     H15543  10.194   9.531   2.252  0.9046  0.4726  0.1188
  113MOL0     H15544  10.395   9.346   2.072 -0.2408  0.0869 -1.0011
  113MOL0     H15545  10.230   9.403   2.030  2.2829 -0.3810 -2.3435
  113MOL0     H15546  10.297   9.113   2.076  1.2920  0.2600 -0.0108
  113MOL0     H15547  10.150   9.171   2.014 -0.7024  1.7854  2.5905
  113MOL0     H15548  10.272   9.242   1.795 -0.2113 -0.1738 -0.4304
  113MOL0     H15549  10.426   9.189   1.866  0.2025  0.3689  1.4806
  113MOL0     H15550  10.183   8.996   1.806 -0.3263 -0.9528  0.2323
  113MOL0     H15551  10.336   9.002   1.725  3.1764 -2.6183  1.1521
  113MOL0     H15552  10.566   8.935   2.086  1.8660  0.5358 -0.6393
  113MOL0     H15553  10.804   8.707   2.115 -1.2182 -0.0105 -0.5026
  113MOL0     H15554  10.771   8.874   2.166 -0.5267  0.6760 -0.9798
  113MOL0     H15555  10.894   8.843   2.047 -1.3408  0.9789 -2.1813
  113MOL0     H15556  10.994   8.684   1.508 -2.3525  0.1758  0.4061
  113MOL0     H15557  11.163   8.526   1.381 -1.0945  2.2680 -0.1200
  113MOL0     H15558  11.114   8.243   1.303  0.0893 -0.6019 -0.9203
  113MOL0     H15559  11.265   8.337   1.290 -0.9452  0.1555 -1.5543
  113MOL0     H15560  11.333   8.079   1.407  0.0503 -1.9118 -1.3525
  113MOL0     H15561  11.260   8.052   1.244  0.4031  0.0286 -1.4225
  113MOL0     H15562  11.468   8.259   1.273  0.1218  0.2597 -1.2906
  113MOL0     H15563  11.393   8.187   1.122  0.0791 -3.4470 -0.5983
  113MOL0     H15564  11.471   7.971   1.220 -0.0589  0.3926  0.2083
  113MOL0     H15565  11.599   8.072   1.306  1.4814 -0.6708 -0.3907
  113MOL0     H15566  11.572   8.072   1.011 -1.0595  4.0171 -0.6967
  113MOL0     H15567  11.679   8.173   1.099  0.1747  0.3581 -0.2281
  113MOL0     H15568  11.695   7.877   1.097  0.1605  0.0528  1.8743
  113MOL0     H15569  11.807   7.965   1.197  0.3209 -2.4095 -0.7719
  113MOL0     H15570  11.932   8.068   1.003 -1.2885  2.7800 -3.2311
  113MOL0     H15571  11.804   8.010   0.894 -0.5466 -0.9809 -0.3443
  113MOL0     H15572  12.001   7.832   1.049 -0.7012 -1.8112  0.6446
  113MOL0     H15573  12.006   7.873   0.878  0.1230 -3.4778  0.3888
  113MOL0     H15574  11.080   8.243   1.702 -0.9534 -0.7540 -2.5591
  113MOL0     H15575  10.895   8.386   1.784  2.2154 -0.1208  1.4186
  113MOL0     H15576  10.597   8.673   1.661 -1.1513  4.4680 -2.1636
  113MOL0     H15577  10.409   8.802   1.696  0.8824  1.4564 -1.0570
  113MOL0     H15578  10.466  10.158   2.278 -0.7895 -0.3713 -2.5941
  113MOL0     H15579  10.336  10.206   2.094  1.5102 -0.0024  0.7639
  113MOL0     H15580   9.880  10.381   2.002 -1.5514 -0.2897 -0.6681
  113MOL0     H15581   9.706  10.363   1.833 -0.4683  1.4524  0.1903
  113MOL0     H15582   9.617  10.436   1.435 -1.5120 -0.9555  3.7685
  113MOL0     H15583   9.790  10.469   1.416 -1.7632  0.3163 -0.8306
  113MOL0     H15584   9.830  10.240   1.378 -0.4598 -0.8311  3.3775
  113MOL0     H15585   9.723  10.305   1.254  4.3529  2.0466 -0.0196
  113MOL0     H15586   9.623  10.143   1.497 -0.3694 -0.5910 -0.8349
  113MOL0     H15587   9.529  10.181   1.354 -0.2366 -3.3530 -1.9950
  113MOL0     H15588   9.745   9.980   1.394 -0.4404 -0.5695  0.7627
  113MOL0     H15589   9.740  10.059   1.230 -1.6789 -1.9945 -2.6675
  113MOL0     H15590   9.421   9.788   1.215 -2.8747  2.0942 -0.3846
  113MOL0     H15591   9.978  10.379   1.522 -2.5101 -0.4730  0.2523
  113MOL0     H15592  10.199  10.362   1.551 -2.1765 -1.9003  0.7549
  113MOL0     H15593  10.265  10.488   1.648  0.7456 -0.3776  0.2665
  113MOL0     H15594  10.284  10.322   1.703 -0.2348 -1.1921 -0.6746
  114MOL0     O15595   3.225  10.750   2.466 -0.1232 -0.3311  0.7652
  114MOL0     C15596   3.178  10.804   2.569 -0.3084 -0.6636 -0.0719
  114MOL0     O15597   3.259  10.826   2.680  0.0049 -0.4178 -0.2745
  114MOL0     C15598   3.374  10.760   2.698  0.0011 -0.2315 -0.0974
  114MOL0     C15599   3.478  10.756   2.599  0.1223  0.5521 -0.2000
  114MOL0     C15600   3.594  10.689   2.622 -0.5596 -0.7085  0.2723
  114MOL0     C15601   3.627  10.630   2.744  0.5540 -0.0157 -0.7935
  114MOL0     O15602   3.748  10.560   2.771 -0.3443  0.4432 -0.5846
  114MOL0     C15603   3.835  10.533   2.658  0.1496 -0.7198 -0.2656
  114MOL0     C15604   3.770  10.442   2.552 -0.1716 -0.4832 -0.4463
  114MOL0     C15605   3.876  10.385   2.459 -0.3930  0.2689  0.1066
  114MOL0     C15606   3.818  10.283   2.362 -0.6662  0.9565 -0.2460
  114MOL0     C15607   3.750  10.158   2.421 -0.6981  0.0967 -0.3034
  114MOL0     C15608   3.762  10.039   2.320  0.1670  0.8956  0.3619
  114MOL0     C15609   3.694   9.915   2.375  0.1850 -0.5126  0.6840
  114MOL0     C15610   3.713   9.800   2.278 -0.2313  0.1550  0.6902
  114MOL0     N15611   3.685   9.672   2.341  0.2654 -0.2818  0.6659
  114MOL0     C15612   3.567   9.650   2.404 -0.5821  0.7107  0.4261
  114MOL0     C15613   3.587   9.533   2.469  0.2123 -0.4648 -0.3832
  114MOL0     C15614   3.494   9.465   2.569 -0.3235  0.3537 -0.0083
  114MOL0     C15615   3.352   9.436   2.508  0.3497 -0.3577 -0.1735
  114MOL0     C15616   3.350   9.336   2.394 -0.3822  0.2082  0.6027
  114MOL0     C15617   3.219   9.260   2.381 -0.7225  0.2680  0.8119
  114MOL0     O15618   3.238   9.172   2.268  0.5861 -0.2867  0.7210
  114MOL0     C15619   3.131   9.090   2.255  0.7172  0.5880  0.0907
  114MOL0     C15620   3.004   9.126   2.201 -0.1692 -0.7658 -0.8474
  114MOL0     C15621   2.908   9.036   2.172  0.4825 -0.0857  0.2711
  114MOL0     C15622   2.775   9.103   2.122  0.6835 -0.0350 -0.2550
  114MOL0     C15623   2.938   8.897   2.190 -0.5776  0.4230  0.8336
  114MOL0     C15624   2.841   8.790   2.152  0.1186  0.1355  0.7825
  114MOL0     O15625   2.894   8.689   2.073 -0.1913 -0.1882 -0.0060
  114MOL0     C15626   2.801   8.631   1.994  0.1764 -0.4256  0.3315
  114MOL0     C15627   2.726   8.516   2.017 -0.7400  0.7580 -0.3946
  114MOL0     C15628   2.639   8.458   1.928  0.0556  0.0300  0.3717
  114MOL0     C15629   2.622   8.517   1.801 -0.7289 -0.6943 -0.0496
  114MOL0     O15630   2.540   8.450   1.713 -0.4144 -0.1206 -0.0609
  114MOL0     C15631   2.462   8.527   1.617  0.1942 -0.9070 -0.6619
  114MOL0     C15632   2.368   8.431   1.552  1.0138 -0.3535  0.5931
  114MOL0     C15633   2.427   8.305   1.470  0.8263  0.4949  0.4635
  114MOL0     C15634   2.531   8.339   1.364 -0.2137 -0.7387 -1.1378
  114MOL0     C15635   2.627   8.224   1.335  0.6475  1.1466 -0.6122
  114MOL0     C15636   2.722   8.248   1.224  0.4476  0.2634  0.4341
  114MOL0     C15637   2.838   8.336   1.263 -0.1945 -0.3947  0.5748
  114MOL0     C15638   2.916   8.415   1.157 -0.2461 -0.2637  0.5888
  114MOL0    Cl15639   2.806   8.528   1.075  0.3012  0.5659  0.3679
  114MOL0     C15640   2.677   8.650   1.778 -0.6493 -0.2459 -0.5361
  114MOL0     C15641   2.771   8.700   1.876  0.7786 -0.1443  0.5108
  114MOL0     O15642   2.722   8.818   2.170  0.2754  0.3986  0.4995
  114MOL0     C15643   3.065   8.859   2.233 -0.0668  0.4718 -0.3318
  114MOL0     C15644   3.160   8.953   2.262 -0.3316  0.4533 -0.1462
  114MOL0     N15645   3.711   9.487   2.441 -0.4350  1.6125 -0.5149
  114MOL0     N15646   3.770   9.571   2.362 -0.8344 -0.0181  0.0929
  114MOL0     C15647   3.521  10.636   2.844  0.0393  0.4320  0.6248
  114MOL0     C15648   3.397  10.691   2.811 -0.7197 -0.9799 -0.7190
  114MOL0     C15649   3.047  10.865   2.565 -1.1472 -0.6193 -0.0376
  114MOL0     C15650   3.020  10.974   2.648 -0.3567  0.4542 -0.0910
  114MOL0     C15651   2.902  11.037   2.654  0.5416 -0.6033 -0.1208
  114MOL0     C15652   2.794  11.002   2.574  0.0081 -0.9968  0.5213
  114MOL0     O15653   2.674  11.069   2.579 -0.4994 -0.3425  0.1546
  114MOL0     C15654   2.550  10.998   2.537  0.1145  0.1184  0.2419
  114MOL0     C15655   2.531  10.847   2.566  0.1297 -0.5332 -0.5417
  114MOL0     C15656   2.389  10.827   2.613  0.7453  0.3297 -0.6523
  114MOL0     C15657   2.288  10.843   2.494  0.1538  0.2771  0.8494
  114MOL0     C15658   2.155  10.796   2.523  0.5934  0.2818 -0.5676
  114MOL0     C15659   2.039  10.771   2.540  0.2537  0.8096 -0.3177
  114MOL0     C15660   2.818  10.898   2.481  0.0883 -0.2021 -0.1916
  114MOL0     C15661   2.944  10.825   2.481  0.8894 -0.3687  0.8914
  114MOL0     C15662   2.959  10.715   2.374  0.6097 -0.9574 -0.5736
  114MOL0     H15663   3.466  10.802   2.501 -0.8419 -1.1409 -0.9144
  114MOL0     H15664   3.660  10.699   2.537 -2.1569  3.1347 -0.7151
  114MOL0     H15665   3.927  10.483   2.689 -0.0574 -0.0213  1.5907
  114MOL0     H15666   3.869  10.624   2.608 -1.1875 -0.7013 -1.2064
  114MOL0     H15667   3.716  10.367   2.610 -1.0817 -1.6129 -2.6277
  114MOL0     H15668   3.693  10.492   2.491 -0.6472 -2.5533 -1.6483
  114MOL0     H15669   3.929  10.466   2.409  0.9728  0.0652  1.1456
  114MOL0     H15670   3.952  10.333   2.520 -1.3063  0.8588  1.8289
  114MOL0     H15671   3.745  10.329   2.295 -1.8056  0.2506  0.4777
  114MOL0     H15672   3.906  10.257   2.302  0.3665  1.4134  1.0274
  114MOL0     H15673   3.645  10.179   2.440 -0.9684 -0.5012 -1.0581
  114MOL0     H15674   3.799  10.129   2.514 -2.3967 -2.0656  0.0141
  114MOL0     H15675   3.708  10.077   2.233  0.7959  1.2340  0.1087
  114MOL0     H15676   3.868  10.023   2.301  0.9798  1.6542  3.5170
  114MOL0     H15677   3.585   9.930   2.377  0.4736  1.8934  1.5450
  114MOL0     H15678   3.718   9.886   2.478  2.8499 -1.1769 -0.0487
  114MOL0     H15679   3.640   9.800   2.197  0.8102 -1.7994 -0.3278
  114MOL0     H15680   3.813   9.809   2.237 -1.0559 -0.2805 -1.5531
  114MOL0     H15681   3.487   9.724   2.405  0.9629  2.4531  1.5097
  114MOL0     H15682   3.485   9.530   2.657  3.2165  2.9399 -1.3360
  114MOL0     H15683   3.534   9.371   2.609 -0.8082 -1.2306 -2.9794
  114MOL0     H15684   3.286   9.400   2.588 -0.7019 -1.2318 -1.3892
  114MOL0     H15685   3.309   9.526   2.465  2.5593 -0.6140 -3.2577
  114MOL0     H15686   3.366   9.390   2.300  1.8767 -0.1915  0.7023
  114MOL0     H15687   3.429   9.261   2.395 -0.4657  0.0102 -2.0275
  114MOL0     H15688   3.194   9.206   2.473 -2.8358 -2.5645 -1.2214
  114MOL0     H15689   3.143   9.337   2.361 -0.1640  0.5401 -0.3722
  114MOL0     H15690   2.992   9.233   2.187  0.2655 -0.8940 -2.3030
  114MOL0     H15691   2.767   9.211   2.130 -0.9231 -0.0070 -1.6825
  114MOL0     H15692   2.696   9.060   2.185  0.8271 -0.0289 -0.0700
  114MOL0     H15693   2.748   9.077   2.019  1.8237 -1.1322 -0.3139
  114MOL0     H15694   2.757   8.458   2.104 -0.5221 -0.1841 -1.0768
  114MOL0     H15695   2.609   8.355   1.948  2.1456 -0.1916  3.0167
  114MOL0     H15696   2.413   8.603   1.678  3.2405  1.4226 -0.8593
  114MOL0     H15697   2.529   8.571   1.542 -0.5035 -0.1802 -0.8748
  114MOL0     H15698   2.292   8.402   1.625 -0.4557 -0.1445 -0.7835
  114MOL0     H15699   2.301   8.484   1.484  1.4959 -1.1824 -0.5662
  114MOL0     H15700   2.345   8.265   1.410  0.5867  1.8361 -0.1435
  114MOL0     H15701   2.455   8.233   1.547 -1.6735 -0.4581  0.5670
  114MOL0     H15702   2.586   8.426   1.404  0.2125 -1.2032 -0.6999
  114MOL0     H15703   2.488   8.377   1.271 -1.2091  1.5293  0.1570
  114MOL0     H15704   2.674   8.191   1.428 -1.3655  0.7004  0.3111
  114MOL0     H15705   2.564   8.141   1.301 -0.8930  2.3108 -0.7084
  114MOL0     H15706   2.663   8.291   1.142  1.5712  1.7383  0.3515
  114MOL0     H15707   2.750   8.151   1.180  2.9764  0.2388  1.9244
  114MOL0     H15708   2.913   8.273   1.312  1.3039 -0.6697 -1.9288
  114MOL0     H15709   2.803   8.416   1.329  0.3716 -0.2028  0.6439
  114MOL0     H15710   2.964   8.349   1.083 -0.1668 -1.5848  1.7710
  114MOL0     H15711   2.991   8.472   1.211 -2.6834  1.8375  1.9509
  114MOL0     H15712   2.667   8.704   1.685  1.0797 -2.2687 -1.9788
  114MOL0     H15713   2.823   8.794   1.863  2.6136 -0.7647  2.6250
  114MOL0     H15714   3.087   8.753   2.243 -2.0912 -0.0904 -1.3925
  114MOL0     H15715   3.259   8.916   2.288 -0.7227 -0.3921  0.1797
  114MOL0     H15716   3.538  10.581   2.936  4.8908  0.5295  0.0728
  114MOL0     H15717   3.324  10.692   2.891  0.9999  0.1612  0.9446
  114MOL0     H15718   3.095  11.014   2.715 -1.3630  1.1309  0.6729
  114MOL0     H15719   2.888  11.119   2.724 -2.5038  1.2914 -2.6339
  114MOL0     H15720   2.476  11.057   2.592  1.8075  0.1035  2.6568
  114MOL0     H15721   2.535  11.013   2.430 -3.3594 -0.0195  0.5817
  114MOL0     H15722   2.598  10.825   2.650 -0.9483  0.5886  0.6705
  114MOL0     H15723   2.552  10.784   2.479  0.8150 -0.4180 -0.4641
  114MOL0     H15724   2.383  10.720   2.633 -0.6652  0.2984 -1.1696
  114MOL0     H15725   2.359  10.896   2.693  1.6948  0.1234 -0.1005
  114MOL0     H15726   2.312  10.788   2.403 -2.4557 -1.4849  1.1287
  114MOL0     H15727   2.277  10.949   2.470  0.9846  0.2266  0.2152
  114MOL0     H15728   1.933  10.762   2.549  0.0394  0.7297 -2.4903
  114MOL0     H15729   2.738  10.874   2.412 -2.1666 -1.6859  2.6650
  114MOL0     H15730   2.870  10.709   2.311  1.1277 -0.3486 -1.3959
  114MOL0     H15731   3.039  10.731   2.301  1.5173  1.0416  0.7529
  114MOL0     H15732   2.973  10.620   2.426  1.0297 -1.0737 -0.8892
  115MOL0     O15733   4.508   9.407   2.149  0.0902 -0.3569 -0.1400
  115MOL0     C15734   4.497   9.529   2.148 -0.5799  0.4212 -0.3179
  115MOL0     O15735   4.601   9.620   2.145 -0.4378 -0.8384 -0.4989
  115MOL0     C15736   4.731   9.588   2.161 -0.4265 -0.8064  0.2244
  115MOL0     C15737   4.778   9.473   2.216 -0.2407  1.8237  0.8913
  115MOL0     C15738   4.916   9.457   2.246  0.0986  0.5514 -0.2170
  115MOL0     C15739   5.016   9.538   2.186 -0.0106  0.6630  0.3517
  115MOL0     O15740   5.144   9.494   2.206  0.4274  0.1738  0.7900
  115MOL0     C15741   5.241   9.544   2.116  0.7397 -0.3224  0.9177
  115MOL0     C15742   5.325   9.429   2.061  0.0208  0.1196 -0.6167
  115MOL0     C15743   5.399   9.378   2.179  0.0820 -0.0945  0.4616
  115MOL0     C15744   5.461   9.244   2.152 -0.0817 -0.2893 -0.6523
  115MOL0     C15745   5.551   9.199   2.275 -0.3115  0.5360  0.4271
  115MOL0     C15746   5.597   9.060   2.229 -0.6478  0.5446  0.3151
  115MOL0     C15747   5.721   9.011   2.308  0.6440 -0.7845  0.0790
  115MOL0     C15748   5.779   8.875   2.255 -0.1543  0.3335  0.4650
  115MOL0     N15749   5.921   8.866   2.295  0.1993 -0.6284  0.1236
  115MOL0     C15750   6.021   8.951   2.268  0.2559 -0.7448 -0.5048
  115MOL0     C15751   6.122   8.918   2.348 -0.1211 -0.4700 -0.2784
  115MOL0     C15752   6.253   8.990   2.376  0.0515 -0.3665 -1.3632
  115MOL0     C15753   6.376   8.903   2.341  0.1286 -0.3823 -0.1760
  115MOL0     C15754   6.365   8.857   2.194  0.3872 -0.6689  0.3488
  115MOL0     C15755   6.503   8.812   2.150  0.3512  0.0659 -0.3779
  115MOL0     O15756   6.530   8.689   2.218  0.4127 -0.2687 -0.5095
  115MOL0     C15757   6.657   8.636   2.202  0.0746  0.3477  1.1516
  115MOL0     C15758   6.687   8.525   2.282 -0.5977 -0.5492 -0.4404
  115MOL0     C15759   6.816   8.467   2.282  0.3872  0.3025  1.6836
  115MOL0     C15760   6.843   8.369   2.390  0.0178  0.2117 -1.1598
  115MOL0     C15761   6.914   8.512   2.189 -0.0158  0.2777 -0.4552
  115MOL0     C15762   7.059   8.481   2.194 -0.8705  0.3975 -0.1462
  115MOL0     O15763   7.133   8.522   2.086  0.1238 -0.2642 -0.0636
  115MOL0     C15764   7.265   8.513   2.114 -0.5347 -0.2102  0.2231
  115MOL0     C15765   7.327   8.395   2.076 -0.3764  0.0809  0.6179
  115MOL0     C15766   7.462   8.384   2.085  0.3178 -0.2457  0.5891
  115MOL0     C15767   7.535   8.490   2.138 -0.2407  0.2733  0.2282
  115MOL0     O15768   7.666   8.463   2.142  0.0905  0.5299 -0.5354
  115MOL0     C15769   7.743   8.513   2.257 -0.0712  0.5737  1.1644
  115MOL0     C15770   7.896   8.475   2.256  0.1835 -0.1095 -0.6309
  115MOL0     C15771   7.930   8.348   2.184  0.2305  0.0943 -0.3401
  115MOL0     C15772   8.084   8.319   2.200 -0.4347 -0.1013 -0.0288
  115MOL0     C15773   8.135   8.173   2.183  0.4190  0.2901 -0.5975
  115MOL0     C15774   8.149   8.135   2.044  0.1072  0.4285 -0.5702
  115MOL0     C15775   8.174   7.988   2.029  0.3560  0.6830  0.9948
  115MOL0     C15776   8.188   7.932   1.884  0.0681 -0.4002 -0.9111
  115MOL0    Cl15777   8.323   8.022   1.809 -0.1396  0.5366 -0.0467
  115MOL0     C15778   7.474   8.608   2.170  0.5965  0.3640 -0.2575
  115MOL0     C15779   7.341   8.620   2.152  0.3701 -0.3484  0.3596
  115MOL0     O15780   7.109   8.442   2.301 -0.5082  0.6614 -0.0891
  115MOL0     C15781   6.870   8.614   2.102 -1.0780  0.0509 -0.4095
  115MOL0     C15782   6.756   8.679   2.116 -0.8366 -0.4015  0.1450
  115MOL0     N15783   6.078   8.801   2.414  0.0582 -0.1036  0.1159
  115MOL0     N15784   5.954   8.782   2.390 -0.1700  0.0718  0.2411
  115MOL0     C15785   4.966   9.652   2.116 -0.5241  0.3647  0.1282
  115MOL0     C15786   4.829   9.677   2.111 -1.0027 -0.1134  0.1564
  115MOL0     C15787   4.367   9.582   2.132  0.4167  0.5009 -0.1139
  115MOL0     C15788   4.345   9.667   2.028 -0.2599 -0.1595 -0.2246
  115MOL0     C15789   4.219   9.712   2.000 -0.2238  0.0075 -1.2003
  115MOL0     C15790   4.112   9.678   2.082  0.2381 -0.4622  0.3967
  115MOL0     O15791   3.991   9.734   2.051  0.0773  0.6984  0.1271
  115MOL0     C15792   3.895   9.626   2.015  0.7483  0.4290 -0.8386
  115MOL0     C15793   3.879   9.604   1.870  0.9175  0.4705  0.2899
  115MOL0     C15794   3.758   9.513   1.848  0.0790  0.4625 -0.3615
  115MOL0     C15795   3.709   9.517   1.698 -0.1127 -0.1929 -0.2148
  115MOL0     C15796   3.651   9.646   1.662  0.4141  0.9403  0.3101
  115MOL0     C15797   3.575   9.740   1.647 -1.3374  0.3108  0.2229
  115MOL0     C15798   4.130   9.608   2.204  0.3158 -0.2722 -0.3355
  115MOL0     C15799   4.263   9.556   2.226 -0.2386 -0.1192 -0.1199
  115MOL0     C15800   4.270   9.457   2.336 -0.1290  0.1986  0.5848
  115MOL0     H15801   4.710   9.405   2.265  1.9510  0.1536  1.8234
  115MOL0     H15802   4.937   9.373   2.311  0.2205 -1.4982 -2.7264
  115MOL0     H15803   5.301   9.622   2.165 -0.0261  1.3594 -0.6729
  115MOL0     H15804   5.198   9.596   2.029 -2.5145 -0.2210  2.4305
  115MOL0     H15805   5.264   9.345   2.025 -0.8974  0.9505 -1.0348
  115MOL0     H15806   5.395   9.460   1.982  0.1490  2.0493  0.2092
  115MOL0     H15807   5.471   9.450   2.220 -0.8252 -0.9064  3.8323
  115MOL0     H15808   5.329   9.367   2.263 -0.6528 -0.2469 -0.1657
  115MOL0     H15809   5.381   9.171   2.132  0.9554 -1.1109 -1.9563
  115MOL0     H15810   5.516   9.254   2.058  3.0441 -1.7481  0.8598
  115MOL0     H15811   5.495   9.198   2.369 -1.2019  1.9613 -0.0518
  115MOL0     H15812   5.631   9.272   2.283 -0.6330  1.0694 -0.9887
  115MOL0     H15813   5.523   8.980   2.228 -0.1959 -0.1333  3.9877
  115MOL0     H15814   5.632   9.070   2.126 -1.0957 -2.2620 -0.1809
  115MOL0     H15815   5.689   8.992   2.411  1.2955 -1.6743  0.1282
  115MOL0     H15816   5.794   9.093   2.311  2.4824 -2.3190 -0.5486
  115MOL0     H15817   5.727   8.794   2.306 -2.3544 -0.0537 -2.1725
  115MOL0     H15818   5.774   8.867   2.146  2.2873 -1.1370  0.3667
  115MOL0     H15819   6.018   9.032   2.196  0.8249  0.2723  0.5823
  115MOL0     H15820   6.269   9.012   2.482  0.9978  1.3439 -1.8301
  115MOL0     H15821   6.239   9.089   2.332 -2.9193 -0.5120 -0.9531
  115MOL0     H15822   6.470   8.955   2.362  0.2943 -0.4253 -0.7895
  115MOL0     H15823   6.375   8.815   2.406 -1.3535  1.4038  2.3425
  115MOL0     H15824   6.293   8.776   2.180 -1.1236  1.0267 -2.6139
  115MOL0     H15825   6.320   8.930   2.126  2.3175 -1.8296 -2.3563
  115MOL0     H15826   6.504   8.801   2.041 -1.6008 -1.0587 -0.3263
  115MOL0     H15827   6.586   8.880   2.173 -0.7199  1.0090  0.8062
  115MOL0     H15828   6.606   8.480   2.339 -0.5820  1.1225  0.9693
  115MOL0     H15829   6.903   8.283   2.362  1.3845  0.6518  0.2888
  115MOL0     H15830   6.752   8.331   2.437  1.1987 -1.1693  0.1300
  115MOL0     H15831   6.901   8.417   2.470 -0.4836 -0.4331 -0.4005
  115MOL0     H15832   7.266   8.318   2.031 -0.3583  1.5506 -2.1510
  115MOL0     H15833   7.512   8.292   2.056 -0.2650 -0.5371  0.5104
  115MOL0     H15834   7.739   8.622   2.254 -1.7521  0.5188 -0.6998
  115MOL0     H15835   7.700   8.478   2.351  1.5949  2.9500  2.9267
  115MOL0     H15836   7.949   8.564   2.219 -1.7982  0.7493 -1.5907
  115MOL0     H15837   7.930   8.459   2.358  0.5277  0.5389 -0.6353
  115MOL0     H15838   7.900   8.349   2.079 -0.1875  1.6672 -0.2441
  115MOL0     H15839   7.865   8.271   2.226  0.5692 -1.1703 -2.0419
  115MOL0     H15840   8.121   8.351   2.298  1.3776  0.8945 -0.9746
  115MOL0     H15841   8.127   8.393   2.132 -0.2881  0.6837  0.8878
  115MOL0     H15842   8.226   8.150   2.239 -0.4160 -0.5875  0.4620
  115MOL0     H15843   8.063   8.107   2.233  1.6320  0.3291  1.3248
  115MOL0     H15844   8.234   8.189   2.001  0.8520 -2.1845 -2.6772
  115MOL0     H15845   8.061   8.168   1.987 -1.3704  0.3571  1.5794
  115MOL0     H15846   8.094   7.925   2.071  1.4873 -1.7447 -0.2899
  115MOL0     H15847   8.264   7.956   2.083  0.6016 -0.5634 -0.1153
  115MOL0     H15848   8.091   7.950   1.837 -3.0171 -4.7287  2.8174
  115MOL0     H15849   8.212   7.825   1.887 -3.0994 -1.2034 -0.9122
  115MOL0     H15850   7.536   8.690   2.206  0.8220  0.7343 -1.4423
  115MOL0     H15851   7.294   8.716   2.173  0.3188 -0.4073  0.5176
  115MOL0     H15852   6.942   8.651   2.030 -0.9703  0.5406 -0.0563
  115MOL0     H15853   6.739   8.757   2.042  1.0119 -0.4109 -0.3230
  115MOL0     H15854   5.035   9.708   2.054 -2.1195  0.5218 -1.5995
  115MOL0     H15855   4.793   9.761   2.052 -0.4388 -1.0433 -1.5624
  115MOL0     H15856   4.425   9.707   1.967 -0.1941 -0.4551 -0.3370
  115MOL0     H15857   4.216   9.765   1.905  0.0572 -1.2279 -1.9243
  115MOL0     H15858   3.922   9.536   2.071  0.8663  1.3685  0.6778
  115MOL0     H15859   3.802   9.651   2.066 -0.1785 -0.6259 -1.9436
  115MOL0     H15860   3.969   9.566   1.820  1.7582 -2.9633  3.9335
  115MOL0     H15861   3.852   9.700   1.825 -0.1276  0.3233  0.5904
  115MOL0     H15862   3.786   9.410   1.872 -2.7069 -0.0987  0.8776
  115MOL0     H15863   3.674   9.539   1.913  0.2262  2.3601 -0.8918
  115MOL0     H15864   3.636   9.435   1.696 -0.0075 -0.2893 -0.0789
  115MOL0     H15865   3.789   9.491   1.628  1.2360  1.3796  0.6845
  115MOL0     H15866   3.506   9.821   1.643  0.3463  1.7667 -2.9263
  115MOL0     H15867   4.041   9.588   2.263  0.7017 -0.6806  0.1208
  115MOL0     H15868   4.351   9.492   2.401 -1.3415 -1.5597  3.1887
  115MOL0     H15869   4.186   9.459   2.406  1.9924  0.8052  3.2974
  115MOL0     H15870   4.295   9.359   2.295 -0.8082  0.4878 -0.5687
  116MOL0     O15871   3.292   8.754   5.669  0.0430  0.1790 -0.8146
  116MOL0     C15872   3.274   8.863   5.715  0.8121 -0.1655  0.1922
  116MOL0     O15873   3.366   8.959   5.721  0.5971  0.1229 -0.4804
  116MOL0     C15874   3.487   8.943   5.663  0.2963 -0.4715  0.1733
  116MOL0     C15875   3.534   9.046   5.587  0.3328 -0.3679 -0.2463
  116MOL0     C15876   3.670   9.047   5.545  0.3216 -0.5008  0.2548
  116MOL0     C15877   3.757   8.951   5.586  0.0370 -0.5265 -0.8406
  116MOL0     O15878   3.891   8.965   5.555  0.0776  0.7439 -0.2322
  116MOL0     C15879   3.986   8.889   5.626  0.9641  0.2264  0.0291
  116MOL0     C15880   4.041   8.774   5.536 -0.1712  0.0186 -0.4876
  116MOL0     C15881   4.068   8.811   5.392 -0.1645  0.1309  0.6266
  116MOL0     C15882   4.206   8.744   5.346  0.5879 -0.8843  0.9554
  116MOL0     C15883   4.331   8.835   5.320  0.3318  0.1088  0.2532
  116MOL0     C15884   4.386   8.880   5.452  0.8621  1.0378 -0.1909
  116MOL0     C15885   4.513   8.967   5.447  0.6790 -0.1537 -1.1184
  116MOL0     C15886   4.632   8.881   5.417 -0.3056  0.0746 -0.3077
  116MOL0     N15887   4.762   8.939   5.453 -0.2006 -0.0931 -0.3976
  116MOL0     C15888   4.840   9.025   5.377 -0.4683  0.4881  0.4513
  116MOL0     C15889   4.931   9.069   5.477  0.5895  0.1009 -0.2612
  116MOL0     C15890   5.044   9.160   5.467  0.2763  0.4701 -0.0442
  116MOL0     C15891   5.007   9.301   5.410 -0.3122  0.1958 -0.4807
  116MOL0     C15892   5.124   9.413   5.430 -0.2768 -0.0552 -0.2272
  116MOL0     C15893   5.124   9.523   5.331 -0.3004 -0.4021 -0.3751
  116MOL0     O15894   5.169   9.471   5.201  0.2608  0.4858  0.5227
  116MOL0     C15895   5.209   9.559   5.110 -0.0071  0.7101  0.2318
  116MOL0     C15896   5.165   9.690   5.092 -0.7866 -0.6166 -0.3120
  116MOL0     C15897   5.234   9.781   4.999  0.3297 -0.3456 -0.5363
  116MOL0     C15898   5.155   9.913   4.966  0.2174 -0.7467 -0.3810
  116MOL0     C15899   5.345   9.736   4.932 -0.0001  0.1231 -0.7684
  116MOL0     C15900   5.424   9.816   4.840 -0.2556  0.6227 -0.8619
  116MOL0     O15901   5.401   9.952   4.837 -0.2481 -0.3006 -0.3611
  116MOL0     C15902   5.471  10.037   4.756 -0.0600  0.9460 -1.4491
  116MOL0     C15903   5.458  10.022   4.616  0.5293 -0.2699 -0.4206
  116MOL0     C15904   5.526  10.108   4.526 -0.0425 -0.7445 -1.0005
  116MOL0     C15905   5.616  10.201   4.584  0.1520  0.3617 -0.5461
  116MOL0     O15906   5.706  10.274   4.508  0.2349 -0.7491 -0.4360
  116MOL0     C15907   5.759  10.206   4.393  0.0807  0.2700 -0.5854
  116MOL0     C15908   5.886  10.281   4.345  0.6116 -0.4507 -0.4152
  116MOL0     C15909   6.009  10.279   4.440  1.1704 -0.8559  0.2078
  116MOL0     C15910   6.125  10.366   4.388  0.2269 -0.8173 -0.3400
  116MOL0     C15911   6.267  10.342   4.444  0.0002  0.2038  0.4150
  116MOL0     C15912   6.379  10.415   4.370  0.8238  0.7551  0.2806
  116MOL0     C15913   6.519  10.384   4.420  0.0005  0.2733 -0.4971
  116MOL0     C15914   6.618  10.441   4.318 -0.0419  0.2171  0.0771
  116MOL0    Cl15915   6.778  10.447   4.402 -0.5101  0.1195 -0.2619
  116MOL0     C15916   5.601  10.235   4.721 -0.0460 -0.2103  0.3848
  116MOL0     C15917   5.534  10.153   4.806 -0.2156 -0.5170  0.0339
  116MOL0     O15918   5.509   9.760   4.765  0.2886  0.0362  0.1034
  116MOL0     C15919   5.382   9.600   4.941  0.1683 -0.5623 -0.2198
  116MOL0     C15920   5.315   9.516   5.031  0.7115 -0.0904  0.6789
  116MOL0     N15921   4.903   9.017   5.598  0.1066  0.6730 -0.3416
  116MOL0     N15922   4.803   8.941   5.581 -0.6530  0.4911  0.4626
  116MOL0     C15923   3.707   8.848   5.666  0.2880 -0.6839 -0.7677
  116MOL0     C15924   3.572   8.846   5.701  0.3759  0.3111 -0.3718
  116MOL0     C15925   3.140   8.907   5.730  0.0141  0.2279 -0.0334
  116MOL0     C15926   3.109   9.009   5.634 -0.2515  0.3199  0.6876
  116MOL0     C15927   2.974   9.062   5.633  0.0572 -0.9669 -0.1985
  116MOL0     C15928   2.882   9.010   5.730 -1.1011  0.1434 -0.2232
  116MOL0     O15929   2.747   9.051   5.737 -0.5099  0.2607 -0.2268
  116MOL0     C15930   2.683   9.111   5.629 -0.5895 -1.0312 -0.3927
  116MOL0     C15931   2.683   9.018   5.513 -0.8849  0.5094  0.9247
  116MOL0     C15932   2.566   9.043   5.409  0.9891 -0.1506 -0.0832
  116MOL0     C15933   2.444   8.946   5.424 -0.0560  0.1506 -0.1504
  116MOL0     C15934   2.483   8.805   5.395  0.1376  0.5272 -1.0165
  116MOL0     C15935   2.512   8.688   5.399  0.2813 -0.4170 -1.2935
  116MOL0     C15936   2.918   8.911   5.825  0.9128 -0.2349 -0.1767
  116MOL0     C15937   3.044   8.844   5.816 -0.2896 -0.4244 -0.2697
  116MOL0     C15938   3.079   8.736   5.916  0.4418  0.2361  0.5275
  116MOL0     H15939   3.465   9.128   5.573  0.7597  0.1879  0.7632
  116MOL0     H15940   3.715   9.121   5.480  2.3288 -2.0466 -0.2027
  116MOL0     H15941   3.946   8.851   5.721 -1.9943  1.5396 -0.5718
  116MOL0     H15942   4.069   8.955   5.650  1.6656  0.1555 -2.0304
  116MOL0     H15943   4.127   8.726   5.584 -2.7494 -2.4620  2.1214
  116MOL0     H15944   3.958   8.702   5.541  0.6773 -0.9181  0.9511
  116MOL0     H15945   3.983   8.775   5.334  0.9902  0.3552 -1.3073
  116MOL0     H15946   4.077   8.920   5.393  2.2368 -0.0232  1.6783
  116MOL0     H15947   4.243   8.663   5.410  0.7941 -2.7035 -1.3212
  116MOL0     H15948   4.187   8.700   5.248 -0.9005  0.8836  0.3864
  116MOL0     H15949   4.311   8.924   5.260 -0.7435 -0.4059 -0.1775
  116MOL0     H15950   4.405   8.771   5.271 -0.9700  1.5062 -3.9779
  116MOL0     H15951   4.308   8.951   5.482 -1.9156 -1.2793 -1.4259
  116MOL0     H15952   4.397   8.802   5.528  0.7871  0.1123 -1.1161
  116MOL0     H15953   4.522   9.006   5.549  0.2143  0.1208 -1.1813
  116MOL0     H15954   4.501   9.053   5.379  0.3737  0.3967 -0.3872
  116MOL0     H15955   4.617   8.793   5.480 -3.2441 -2.2526 -3.8843
  116MOL0     H15956   4.637   8.859   5.310  3.4562 -0.6775 -0.1177
  116MOL0     H15957   4.831   9.052   5.272 -0.0585 -3.6281 -0.8297
  116MOL0     H15958   5.112   9.121   5.391  0.1083  0.4506 -0.1835
  116MOL0     H15959   5.103   9.165   5.559 -0.0409 -0.0843  0.1907
  116MOL0     H15960   4.991   9.282   5.304  1.5655 -3.0091 -0.3154
  116MOL0     H15961   4.914   9.332   5.460  1.3511  1.3704  2.1384
  116MOL0     H15962   5.117   9.446   5.534  0.1772 -0.7871  0.0423
  116MOL0     H15963   5.221   9.363   5.421  0.0371  0.4839  0.1097
  116MOL0     H15964   5.025   9.570   5.334  0.1283  0.5568 -0.7615
  116MOL0     H15965   5.192   9.601   5.366 -4.7568  3.0798  1.4946
  116MOL0     H15966   5.074   9.720   5.142  0.4425  1.3406  0.8736
  116MOL0     H15967   5.052   9.891   4.997 -0.2341  0.0252 -1.2790
  116MOL0     H15968   5.155   9.944   4.861 -0.5301 -1.4206 -0.5878
  116MOL0     H15969   5.183  10.000   5.026 -2.0510 -0.7512  0.8174
  116MOL0     H15970   5.406   9.939   4.568  1.2517 -0.9999  0.0315
  116MOL0     H15971   5.506  10.110   4.420 -1.1337  5.2758 -1.0634
  116MOL0     H15972   5.775  10.098   4.406 -1.4644 -0.1512 -1.9296
  116MOL0     H15973   5.691  10.210   4.308 -0.9838 -1.8867  0.0827
  116MOL0     H15974   5.910  10.234   4.249  0.8713  1.3531 -1.2625
  116MOL0     H15975   5.856  10.385   4.336  1.8951 -0.1329 -1.3542
  116MOL0     H15976   6.044  10.176   4.451  1.3823 -0.6319  1.8600
  116MOL0     H15977   5.982  10.317   4.539  0.7380 -1.0700  0.1717
  116MOL0     H15978   6.103  10.470   4.413 -2.4671 -0.9507 -1.7995
  116MOL0     H15979   6.131  10.368   4.279  0.5051  1.0191 -0.3105
  116MOL0     H15980   6.259  10.378   4.547 -1.2937  1.7244 -0.1651
  116MOL0     H15981   6.292  10.236   4.446  2.3158  0.6979  2.5049
  116MOL0     H15982   6.372  10.523   4.381  0.6144  0.5963  2.1077
  116MOL0     H15983   6.360  10.385   4.266 -1.5750  1.4976  0.4497
  116MOL0     H15984   6.533  10.278   4.441  2.8036  0.2139 -2.1829
  116MOL0     H15985   6.531  10.443   4.512  2.1767 -1.0360  0.1212
  116MOL0     H15986   6.590  10.545   4.296  1.0384  0.6665  0.7409
  116MOL0     H15987   6.611  10.377   4.229  1.5466  0.3320 -0.1467
  116MOL0     H15988   5.663  10.308   4.772 -1.0092 -0.3821  1.8405
  116MOL0     H15989   5.531  10.192   4.907  0.0542  3.4302 -1.3447
  116MOL0     H15990   5.461   9.558   4.880 -0.3608 -0.5198 -0.9367
  116MOL0     H15991   5.346   9.412   5.036  3.1519  0.1462 -3.9226
  116MOL0     H15992   3.766   8.758   5.683  0.0473 -0.7408 -0.2218
  116MOL0     H15993   3.541   8.759   5.759  1.0062 -1.2481 -2.2699
  116MOL0     H15994   3.171   9.055   5.557 -0.5591 -2.4163 -1.3598
  116MOL0     H15995   2.947   9.144   5.567  0.5623 -2.5742 -2.5346
  116MOL0     H15996   2.582   9.130   5.667  0.1497 -2.3520  2.4661
  116MOL0     H15997   2.732   9.205   5.601  0.7425 -2.0429 -1.6178
  116MOL0     H15998   2.687   8.917   5.553 -0.1323 -0.5476 -1.5972
  116MOL0     H15999   2.774   9.037   5.456 -0.9662 -1.6780 -0.0101
  116MOL0     H16000   2.540   9.149   5.422 -0.7399 -0.1515 -2.7152
  116MOL0     H16001   2.595   9.028   5.304  2.3951  1.4006  0.0276
  116MOL0     H16002   2.358   8.980   5.366 -0.2917  0.8272  0.5895
  116MOL0     H16003   2.411   8.947   5.528  1.4565 -1.2889  0.3828
  116MOL0     H16004   2.525   8.582   5.411  1.7706 -0.2117 -0.9801
  116MOL0     H16005   2.847   8.889   5.904  0.4592 -0.3489 -0.6090
  116MOL0     H16006   3.185   8.737   5.944  0.8715 -2.1954 -0.7367
  116MOL0     H16007   3.019   8.735   6.007  0.5121 -2.2862  0.6108
  116MOL0     H16008   3.065   8.644   5.857  0.9029  0.9708 -0.7813
  117MOL0     O16009   3.583   1.880   6.356  0.1165 -0.0163 -0.1548
  117MOL0     C16010   3.636   1.847   6.460  0.9638 -0.1050 -0.4767
  117MOL0     O16011   3.767   1.802   6.472  0.2911  0.2042 -0.5147
  117MOL0     C16012   3.850   1.793   6.365 -0.7719 -0.5104 -0.9025
  117MOL0     C16013   3.964   1.884   6.365 -0.2288 -0.2809 -0.0616
  117MOL0     C16014   4.062   1.889   6.264  0.5315  0.1605 -0.6371
  117MOL0     C16015   4.043   1.801   6.162 -0.6437 -1.0414  0.7283
  117MOL0     O16016   4.135   1.800   6.056 -0.1197  0.4787  0.0886
  117MOL0     C16017   4.087   1.826   5.920  0.0919 -0.1187  0.0759
  117MOL0     C16018   4.095   1.969   5.897  0.1747 -0.1486  1.2615
  117MOL0     C16019   4.036   2.019   5.755  0.0516  0.8248  0.3098
  117MOL0     C16020   4.037   2.168   5.729 -0.2204  0.6170  0.1311
  117MOL0     C16021   4.160   2.219   5.641 -0.1229  0.1983 -0.1513
  117MOL0     C16022   4.139   2.358   5.586  0.3501 -0.4384 -0.6486
  117MOL0     C16023   4.244   2.404   5.478 -0.0258 -0.4112 -0.0350
  117MOL0     C16024   4.393   2.394   5.513 -0.2183  0.3172  0.2725
  117MOL0     N16025   4.460   2.517   5.465 -1.2305 -0.5975 -1.0811
  117MOL0     C16026   4.433   2.639   5.510  0.0729 -0.6157  0.4855
  117MOL0     C16027   4.493   2.724   5.424 -1.0452 -0.4366 -0.6991
  117MOL0     C16028   4.501   2.869   5.433 -0.0219  0.3198  0.9695
  117MOL0     C16029   4.486   2.935   5.571  0.2073 -0.3683  0.3942
  117MOL0     C16030   4.567   2.877   5.684  0.8849 -0.0243 -0.3658
  117MOL0     C16031   4.711   2.885   5.645 -0.0866  0.3652 -0.9753
  117MOL0     O16032   4.802   2.850   5.750  0.9324  0.5120 -0.2006
  117MOL0     C16033   4.934   2.890   5.742  0.4745  0.4684  0.1025
  117MOL0     C16034   5.012   2.885   5.862 -0.7915  0.0995 -0.1423
  117MOL0     C16035   5.153   2.899   5.864  0.6461  0.5180  0.6006
  117MOL0     C16036   5.213   2.861   5.983 -0.9551 -0.1694  0.2525
  117MOL0     C16037   5.210   2.934   5.749 -0.4675 -1.1462  0.6979
  117MOL0     C16038   5.364   2.962   5.741 -0.0001  0.3378  0.6877
  117MOL0     O16039   5.415   2.971   5.620 -0.2910 -0.4108  0.0845
  117MOL0     C16040   5.549   3.012   5.596  0.1036 -0.1542  0.0489
  117MOL0     C16041   5.587   3.141   5.635  0.6539 -0.1438  1.0528
  117MOL0     C16042   5.720   3.181   5.623  0.8631  0.3881  1.0510
  117MOL0     C16043   5.812   3.103   5.556 -0.1163 -0.3691 -1.1921
  117MOL0     O16044   5.937   3.168   5.542  0.6299  0.5806 -0.1703
  117MOL0     C16045   6.032   3.103   5.464  0.5172 -0.0443 -0.0782
  117MOL0     C16046   6.146   3.194   5.420 -0.6413  0.5800  0.2115
  117MOL0     C16047   6.117   3.345   5.365 -0.4870 -0.5367 -0.6789
  117MOL0     C16048   6.231   3.424   5.301 -0.7392 -0.0700  0.5158
  117MOL0     C16049   6.188   3.567   5.266  0.3554 -0.7919 -0.3829
  117MOL0     C16050   6.210   3.668   5.376  0.3132 -0.5410 -0.2500
  117MOL0     C16051   6.240   3.813   5.327 -0.5785 -0.0662 -0.1636
  117MOL0     C16052   6.267   3.902   5.451  0.2146  0.3868  0.2211
  117MOL0    Cl16053   6.421   3.877   5.530 -0.0164  0.7924  0.2243
  117MOL0     C16054   5.774   2.977   5.513  0.8436  0.3363  0.3649
  117MOL0     C16055   5.642   2.923   5.538 -0.4272 -0.2361 -0.5969
  117MOL0     O16056   5.416   2.993   5.851 -0.4069 -0.0250 -0.2313
  117MOL0     C16057   5.135   2.953   5.628 -0.4568 -0.1281 -0.5184
  117MOL0     C16058   4.996   2.925   5.624  0.2590 -0.7647  0.0444
  117MOL0     N16059   4.544   2.649   5.321 -0.5031  0.8178  0.7086
  117MOL0     N16060   4.521   2.524   5.347  0.3991  0.2120  0.4086
  117MOL0     C16061   3.941   1.702   6.163 -0.0148 -0.1905  0.2872
  117MOL0     C16062   3.843   1.697   6.267  0.6764 -0.5726  0.5197
  117MOL0     C16063   3.555   1.854   6.587 -0.3969  0.7287  0.0674
  117MOL0     C16064   3.621   1.860   6.713  0.3594 -0.1555 -0.9239
  117MOL0     C16065   3.544   1.877   6.824  0.5677 -0.6212 -1.1745
  117MOL0     C16066   3.405   1.867   6.830  0.1848 -0.2880 -0.1236
  117MOL0     O16067   3.324   1.879   6.938  0.0501  0.2333  0.3531
  117MOL0     C16068   3.386   1.892   7.066  0.1961 -0.0760 -0.5299
  117MOL0     C16069   3.275   1.876   7.187  0.0499 -0.6308  1.0421
  117MOL0     C16070   3.171   1.986   7.185  0.3221 -0.5099  0.0839
  117MOL0     C16071   3.070   1.970   7.304 -0.5012 -0.0084 -0.2909
  117MOL0     C16072   2.960   2.063   7.302  0.0733 -0.2269  0.1024
  117MOL0     C16073   2.873   2.158   7.303  0.8749  1.1291 -0.9311
  117MOL0     C16074   3.338   1.861   6.708 -0.1567  0.0854 -0.3977
  117MOL0     C16075   3.410   1.864   6.589  0.3407 -0.5843  0.3498
  117MOL0     C16076   3.328   1.881   6.464  0.2251 -0.3126 -0.2654
  117MOL0     H16077   3.984   1.953   6.446  2.1009  0.1946 -0.9632
  117MOL0     H16078   4.134   1.970   6.260 -0.9447  1.7287  1.6170
  117MOL0     H16079   3.986   1.786   5.905 -0.3545  1.0736 -0.1586
  117MOL0     H16080   4.153   1.772   5.851  2.6949 -0.1555  2.3989
  117MOL0     H16081   4.044   2.033   5.971  0.1109  1.3442 -0.0170
  117MOL0     H16082   4.199   2.004   5.900 -0.9597  4.4090 -2.0416
  117MOL0     H16083   4.088   1.984   5.666 -1.9936  3.2650 -2.0388
  117MOL0     H16084   3.934   1.979   5.743  1.0476 -1.9752  0.4945
  117MOL0     H16085   3.947   2.201   5.677 -1.0052  1.6726  2.0630
  117MOL0     H16086   4.028   2.216   5.826  3.7374  1.2484  0.3314
  117MOL0     H16087   4.197   2.150   5.565  0.1484 -0.5980  0.6831
  117MOL0     H16088   4.246   2.221   5.708  0.7981  2.5484 -1.3210
  117MOL0     H16089   4.043   2.372   5.536  1.4260  0.9051 -2.4638
  117MOL0     H16090   4.136   2.429   5.669  0.0167  0.7297 -1.6336
  117MOL0     H16091   4.215   2.505   5.449 -0.9931 -0.6523  0.0760
  117MOL0     H16092   4.240   2.341   5.389 -1.1563  0.2217 -0.4474
  117MOL0     H16093   4.404   2.384   5.621  0.2174 -2.0419  0.0557
  117MOL0     H16094   4.449   2.319   5.457 -0.8291  1.2248 -1.6463
  117MOL0     H16095   4.369   2.645   5.597 -1.0199  1.1565 -0.3705
  117MOL0     H16096   4.422   2.912   5.370  0.9310  1.3739  0.4551
  117MOL0     H16097   4.593   2.901   5.383 -1.4641 -0.4651 -2.5529
  117MOL0     H16098   4.533   3.033   5.562 -1.1033  0.1397 -1.6188
  117MOL0     H16099   4.380   2.945   5.594 -0.0338 -0.2964 -0.6942
  117MOL0     H16100   4.553   2.941   5.772  1.4950  1.1081 -1.0778
  117MOL0     H16101   4.526   2.779   5.711 -1.3914  0.9744  0.0166
  117MOL0     H16102   4.720   2.813   5.564 -1.5565 -2.1863  0.9906
  117MOL0     H16103   4.731   2.991   5.623  2.6354  0.1962  0.1857
  117MOL0     H16104   4.959   2.843   5.947 -1.3441 -0.8777 -0.9494
  117MOL0     H16105   5.295   2.794   5.956 -0.8106 -0.3421  1.1092
  117MOL0     H16106   5.150   2.795   6.043  1.1069 -1.2781  1.2929
  117MOL0     H16107   5.257   2.943   6.040 -0.0555 -0.5272  0.0945
  117MOL0     H16108   5.519   3.207   5.688 -0.3729  0.6533 -1.1464
  117MOL0     H16109   5.749   3.277   5.664 -0.7793  0.2531  2.6754
  117MOL0     H16110   6.079   3.012   5.503  1.5787 -1.2139 -3.6784
  117MOL0     H16111   5.987   3.074   5.369  1.6313 -1.0494 -0.3276
  117MOL0     H16112   6.210   3.214   5.507 -1.7229  2.2462  0.6669
  117MOL0     H16113   6.203   3.146   5.340 -1.6930 -1.5930  0.6890
  117MOL0     H16114   6.091   3.409   5.449  3.0367 -1.6938  1.5258
  117MOL0     H16115   6.035   3.349   5.293 -2.6855  1.6374  1.7256
  117MOL0     H16116   6.259   3.375   5.207 -0.7974  2.9133 -1.1779
  117MOL0     H16117   6.321   3.426   5.362 -1.1920  0.5269  1.1880
  117MOL0     H16118   6.251   3.605   5.185  0.1639  1.6912  0.5432
  117MOL0     H16119   6.087   3.566   5.227 -0.3867 -1.1393  1.4171
  117MOL0     H16120   6.299   3.646   5.435 -1.0105 -0.5143  1.8323
  117MOL0     H16121   6.127   3.672   5.447 -0.4812  4.1462 -1.1317
  117MOL0     H16122   6.153   3.855   5.275 -0.3198 -1.0351 -1.4084
  117MOL0     H16123   6.326   3.810   5.259 -1.7773 -1.4421 -1.7007
  117MOL0     H16124   6.186   3.891   5.524  1.9268 -1.9697  1.9032
  117MOL0     H16125   6.261   4.007   5.421  1.3193  0.4629  0.2281
  117MOL0     H16126   5.852   2.918   5.468 -0.7330 -1.8648  0.3304
  117MOL0     H16127   5.609   2.823   5.512  1.8750 -1.7930  1.9713
  117MOL0     H16128   5.184   2.986   5.537 -3.7923 -0.2916 -2.5184
  117MOL0     H16129   4.950   2.931   5.526  0.2345 -2.2828 -0.0614
  117MOL0     H16130   3.936   1.636   6.077 -1.5885  1.1569 -0.7370
  117MOL0     H16131   3.757   1.632   6.257 -2.3014  3.2349 -1.2615
  117MOL0     H16132   3.725   1.889   6.718 -0.3001  2.2683  2.8571
  117MOL0     H16133   3.602   1.871   6.915  0.6155  1.3017 -1.0362
  117MOL0     H16134   3.466   1.819   7.076 -0.7893 -1.4043 -1.9683
  117MOL0     H16135   3.436   1.989   7.078 -0.2178 -0.0582  1.5888
  117MOL0     H16136   3.330   1.872   7.282  2.0206 -0.4339 -0.0356
  117MOL0     H16137   3.216   1.786   7.166 -0.1578 -0.1441 -0.5773
  117MOL0     H16138   3.223   2.082   7.195 -0.2611 -0.3613  2.0312
  117MOL0     H16139   3.115   1.999   7.091  3.2059  2.1667 -1.4331
  117MOL0     H16140   3.131   1.986   7.393  1.8028 -0.6381 -1.6466
  117MOL0     H16141   3.027   1.870   7.297 -1.7388  0.4867  0.0143
  117MOL0     H16142   2.783   2.216   7.293 -0.4325 -0.7785 -0.7934
  117MOL0     H16143   3.230   1.859   6.699 -0.1178 -4.1547 -2.6157
  117MOL0     H16144   3.225   1.844   6.473 -0.6875  2.0927 -0.1285
  117MOL0     H16145   3.333   1.988   6.441  1.6778  0.0593  1.5701
  117MOL0     H16146   3.359   1.815   6.383  2.1721 -0.6442  0.6966
  118MOL0     O16147   3.656   3.764  11.260 -0.2963  0.3562  0.4023
  118MOL0     C16148   3.701   3.775  11.373 -0.1637 -0.5312  0.4827
  118MOL0     O16149   3.639   3.833  11.475 -0.2241  0.8371  0.2221
  118MOL0     C16150   3.505   3.852  11.464 -0.2569 -0.7108  0.1420
  118MOL0     C16151   3.454   3.951  11.384  0.2616  0.8118  1.2526
  118MOL0     C16152   3.319   3.988  11.377  0.1357 -0.1378  0.2666
  118MOL0     C16153   3.231   3.905  11.452  0.0962 -0.0573  0.0544
  118MOL0     O16154   3.097   3.914  11.447  0.1717 -0.2820  0.4263
  118MOL0     C16155   3.027   3.899  11.316 -0.3475  0.0291 -0.2033
  118MOL0     C16156   3.083   3.789  11.226  0.4199 -0.6265  0.0180
  118MOL0     C16157   3.038   3.648  11.287  0.7641 -0.8403  0.0378
  118MOL0     C16158   3.129   3.534  11.236  0.0386  0.3143 -0.9503
  118MOL0     C16159   3.262   3.530  11.309 -0.6677  0.0023  0.1196
  118MOL0     C16160   3.349   3.414  11.255  0.9836  0.0038 -0.3783
  118MOL0     C16161   3.482   3.393  11.329  0.2503  0.1470 -0.0065
  118MOL0     C16162   3.536   3.257  11.289  0.0865  0.0921 -0.4315
  118MOL0     N16163   3.678   3.257  11.332 -0.3442  0.2635  0.5407
  118MOL0     C16164   3.773   3.169  11.286 -0.6788 -0.4219 -0.0251
  118MOL0     C16165   3.885   3.199  11.357  1.0283  0.0111  0.1072
  118MOL0     C16166   4.023   3.147  11.332  0.1246  0.0968  0.9587
  118MOL0     C16167   4.114   3.179  11.446  0.6732  0.1141 -0.3358
  118MOL0     C16168   4.251   3.125  11.434 -0.9435 -0.6767 -0.5728
  118MOL0     C16169   4.313   3.163  11.297 -0.1503  0.1053 -0.0529
  118MOL0     O16170   4.459   3.153  11.308  0.2769  0.0276  0.0459
  118MOL0     C16171   4.521   3.036  11.284  0.3563  0.3351  0.6840
  118MOL0     C16172   4.659   3.054  11.264 -0.0945  0.0021  0.0154
  118MOL0     C16173   4.738   2.943  11.239 -0.0303 -0.3945  0.7341
  118MOL0     C16174   4.888   2.982  11.227 -0.4006 -0.5129  0.7691
  118MOL0     C16175   4.689   2.808  11.240 -0.2363 -0.5610 -0.1915
  118MOL0     C16176   4.780   2.686  11.234 -0.5407 -0.3437  0.2989
  118MOL0     O16177   4.723   2.570  11.197  0.1381  0.3136  0.3693
  118MOL0     C16178   4.799   2.458  11.177  0.1066  0.6234 -0.3691
  118MOL0     C16179   4.766   2.337  11.247 -0.3476  0.0490 -0.4225
  118MOL0     C16180   4.842   2.220  11.245 -0.4880  0.0069  0.3246
  118MOL0     C16181   4.952   2.212  11.155 -0.0284 -0.0992 -0.1382
  118MOL0     O16182   5.010   2.086  11.154  0.0313  0.2329 -0.6149
  118MOL0     C16183   5.151   2.064  11.129 -0.5769  0.2770 -0.0561
  118MOL0     C16184   5.239   2.114  11.236  0.4202 -0.1437 -0.3058
  118MOL0     C16185   5.209   2.050  11.378 -0.4404  0.1441 -0.4586
  118MOL0     C16186   5.279   2.116  11.502 -0.0306  0.2252  0.1405
  118MOL0     C16187   5.248   2.041  11.635 -0.4584 -0.7366 -0.2562
  118MOL0     C16188   5.102   2.015  11.659  0.0905 -0.1814  0.0733
  118MOL0     C16189   5.014   2.135  11.653 -0.2049 -0.0264 -0.1163
  118MOL0     C16190   4.871   2.099  11.678  0.2827  0.5050  0.3424
  118MOL0    Cl16191   4.823   1.982  11.542  0.2144  0.2385 -0.0058
  118MOL0     C16192   4.992   2.330  11.087  0.0872  0.7096 -0.3224
  118MOL0     C16193   4.916   2.445  11.098 -0.2424 -0.3320  0.0725
  118MOL0     O16194   4.904   2.696  11.246  0.1140  0.4434  0.2311
  118MOL0     C16195   4.551   2.803  11.267 -0.9279  0.4446  0.5946
  118MOL0     C16196   4.468   2.909  11.286 -0.2872  0.3787  0.1716
  118MOL0     N16197   3.857   3.296  11.450  0.8214  0.0020  0.3573
  118MOL0     N16198   3.734   3.334  11.433  0.1945 -1.9250 -0.6342
  118MOL0     C16199   3.276   3.795  11.528 -0.4200  0.2880 -0.0816
  118MOL0     C16200   3.412   3.770  11.534  0.3693 -0.0725  0.6439
  118MOL0     C16201   3.824   3.701  11.397 -0.5318 -0.4079  0.8699
  118MOL0     C16202   3.866   3.597  11.308  0.4763  0.3751  0.2863
  118MOL0     C16203   3.991   3.543  11.310  0.1451 -0.2384  0.2823
  118MOL0     C16204   4.084   3.580  11.415  0.6917  0.3771 -0.6282
  118MOL0     O16205   4.210   3.525  11.392  0.8685 -0.6341  0.0010
  118MOL0     C16206   4.316   3.563  11.483 -0.7966  0.9713 -0.8526
  118MOL0     C16207   4.439   3.466  11.448  0.2362  0.2193 -0.5009
  118MOL0     C16208   4.568   3.492  11.511 -0.0162 -0.3706  0.0338
  118MOL0     C16209   4.656   3.364  11.524  0.2682 -0.0487  0.1358
  118MOL0     C16210   4.783   3.395  11.589  0.7494  0.1884 -0.3141
  118MOL0     C16211   4.892   3.427  11.646  0.9432 -0.4517 -0.5721
  118MOL0     C16212   4.041   3.683  11.508  0.4767  0.3818 -0.0914
  118MOL0     C16213   3.916   3.750  11.495 -0.5224  0.6330 -0.9339
  118MOL0     C16214   3.886   3.862  11.598 -0.2427  0.3650 -0.4094
  118MOL0     H16215   3.531   3.989  11.317  0.6087 -1.5629  0.2060
  118MOL0     H16216   3.284   4.073  11.320 -2.1867 -1.9795 -1.2563
  118MOL0     H16217   3.035   4.000  11.275  3.2822 -0.3268 -0.7254
  118MOL0     H16218   2.921   3.885  11.340 -0.8526  1.9591 -1.1099
  118MOL0     H16219   3.038   3.811  11.129  1.0724  5.4055  0.7041
  118MOL0     H16220   3.192   3.797  11.213  0.3749  1.3246  0.4663
  118MOL0     H16221   3.048   3.651  11.396 -0.9143  0.2409  0.1983
  118MOL0     H16222   2.937   3.622  11.255 -0.3865  1.2762  1.7006
  118MOL0     H16223   3.078   3.441  11.261  1.5780  0.1592  2.0280
  118MOL0     H16224   3.143   3.541  11.127 -2.0983 -0.5647 -1.3336
  118MOL0     H16225   3.241   3.511  11.414 -0.7804 -3.5364 -0.4373
  118MOL0     H16226   3.318   3.624  11.297  1.1675 -0.7048  2.4347
  118MOL0     H16227   3.295   3.320  11.265  0.8704  0.1745  0.6372
  118MOL0     H16228   3.351   3.432  11.147 -0.7269  2.3164 -0.0937
  118MOL0     H16229   3.458   3.390  11.436 -1.0492  0.5960 -0.2587
  118MOL0     H16230   3.557   3.469  11.304 -0.1497  0.0779 -1.5353
  118MOL0     H16231   3.481   3.184  11.348  0.0041  1.1860  0.9006
  118MOL0     H16232   3.532   3.231  11.183  0.4295 -1.7818 -0.0094
  118MOL0     H16233   3.776   3.107  11.197 -1.0381  0.9974 -1.0586
  118MOL0     H16234   4.057   3.191  11.238  0.7451 -0.6720  0.8192
  118MOL0     H16235   4.017   3.039  11.316  0.0575  0.0396  1.3586
  118MOL0     H16236   4.109   3.285  11.473  1.1535 -0.0745  0.5134
  118MOL0     H16237   4.076   3.120  11.530 -0.6060 -0.0018 -0.9673
  118MOL0     H16238   4.316   3.176  11.506  2.0537 -2.5066 -1.8040
  118MOL0     H16239   4.267   3.019  11.455  2.6685 -0.5273 -1.8815
  118MOL0     H16240   4.277   3.086  11.228  1.3038 -1.5938  1.0316
  118MOL0     H16241   4.284   3.264  11.263 -1.4722 -0.5126 -0.8593
  118MOL0     H16242   4.707   3.151  11.263 -0.6471  0.2950  0.8826
  118MOL0     H16243   4.895   3.091  11.225 -0.2856 -0.5269 -0.6586
  118MOL0     H16244   4.920   2.961  11.124  0.8139  2.6168  0.4099
  118MOL0     H16245   4.955   2.935  11.299  0.8968  3.3679  2.3828
  118MOL0     H16246   4.687   2.330  11.322  2.0738  1.9985  2.6012
  118MOL0     H16247   4.815   2.134  11.305 -0.5033 -0.0317  0.2616
  118MOL0     H16248   5.163   1.956  11.115 -1.3522  0.4754 -2.7451
  118MOL0     H16249   5.185   2.105  11.033  1.0930  0.9458  0.7751
  118MOL0     H16250   5.338   2.083  11.203 -0.1939 -2.1615 -0.3499
  118MOL0     H16251   5.241   2.224  11.244  1.3909 -0.1292 -0.5515
  118MOL0     H16252   5.235   1.944  11.375  0.9091  0.4718 -3.7522
  118MOL0     H16253   5.100   2.051  11.392 -0.4172 -0.0418 -0.2534
  118MOL0     H16254   5.238   2.218  11.498 -1.5750 -0.3645  0.5271
  118MOL0     H16255   5.388   2.122  11.495  0.0919  2.0632  2.2402
  118MOL0     H16256   5.294   1.942  11.629  0.7918 -0.3615  1.8993
  118MOL0     H16257   5.291   2.097  11.719  1.3667 -2.3737 -0.0079
  118MOL0     H16258   5.101   1.976  11.761  0.3243 -1.7757 -0.4999
  118MOL0     H16259   5.070   1.937  11.588  1.5335  1.9088 -3.1030
  118MOL0     H16260   5.016   2.166  11.548  2.2628  1.3647  0.2497
  118MOL0     H16261   5.050   2.215  11.719 -2.6157  2.3688 -1.5265
  118MOL0     H16262   4.806   2.186  11.672  0.9259  0.9538 -0.4473
  118MOL0     H16263   4.865   2.046  11.773  1.5018 -0.6188 -0.1605
  118MOL0     H16264   5.077   2.322  11.020  1.0105  1.5211  0.7312
  118MOL0     H16265   4.947   2.536  11.046 -0.3326 -0.5422 -0.3498
  118MOL0     H16266   4.501   2.706  11.265  1.6614 -1.0020  1.0869
  118MOL0     H16267   4.362   2.891  11.302 -0.7197  2.6298  0.1806
  118MOL0     H16268   3.216   3.736  11.596 -1.1374  2.3921  1.2053
  118MOL0     H16269   3.453   3.699  11.605  3.2581  2.9027  2.2582
  118MOL0     H16270   3.798   3.550  11.238  0.0324 -2.4662  2.4628
  118MOL0     H16271   4.026   3.474  11.234  1.6756  0.0166  0.7157
  118MOL0     H16272   4.345   3.668  11.482 -0.5358  1.0975  3.3718
  118MOL0     H16273   4.283   3.551  11.586 -0.6062  0.5839 -0.8322
  118MOL0     H16274   4.461   3.470  11.341  1.4535  5.7635 -0.2961
  118MOL0     H16275   4.408   3.368  11.487 -0.1440  0.2992 -0.6014
  118MOL0     H16276   4.615   3.561  11.440 -2.3549  0.0053 -1.2676
  118MOL0     H16277   4.551   3.547  11.604 -2.5620 -1.1028  0.0911
  118MOL0     H16278   4.680   3.314  11.429  2.9064  2.1874 -0.5189
  118MOL0     H16279   4.593   3.301  11.587 -0.7070  0.2683 -0.5008
  118MOL0     H16280   4.980   3.454  11.702 -0.2160  2.0521  0.1925
  118MOL0     H16281   4.106   3.706  11.591 -0.0432  0.4089  0.3143
  118MOL0     H16282   3.851   3.952  11.546  0.9578  0.9255 -0.2951
  118MOL0     H16283   3.815   3.832  11.675 -1.3605  4.4520  0.3794
  118MOL0     H16284   3.979   3.894  11.647 -0.9717  0.1162  1.1892
  119MOL0     O16285   9.924   6.655   4.015  0.9777 -0.1509 -0.5745
  119MOL0     C16286   9.841   6.634   3.922  0.8342  0.4653  0.0634
  119MOL0     O16287   9.877   6.589   3.796 -0.2155  0.1410 -0.6233
  119MOL0     C16288  10.014   6.571   3.761 -0.3882  0.3212  0.5340
  119MOL0     C16289  10.100   6.488   3.838  0.0575 -0.7291 -0.4258
  119MOL0     C16290  10.234   6.481   3.803  0.2017 -0.1661  0.6596
  119MOL0     C16291  10.287   6.532   3.681 -0.0177 -0.4377 -0.6892
  119MOL0     O16292  10.419   6.506   3.659 -0.8212 -0.2026  0.3077
  119MOL0     C16293  10.467   6.545   3.525 -0.0398  0.6950 -0.4863
  119MOL0     C16294  10.614   6.493   3.514  0.5386 -0.0139  0.2809
  119MOL0     C16295  10.706   6.549   3.623 -0.0402 -0.7224 -0.4675
  119MOL0     C16296  10.852   6.536   3.588 -0.7213 -0.3530 -0.0801
  119MOL0     C16297  10.962   6.581   3.687  0.8110  0.5593 -1.2378
  119MOL0     C16298  11.101   6.540   3.645 -0.2016  0.2547  0.3854
  119MOL0     C16299  11.125   6.390   3.614  0.7825  0.2651  0.5520
  119MOL0     C16300  11.259   6.358   3.554 -0.4901 -0.4433 -0.2640
  119MOL0     N16301  11.307   6.223   3.591 -0.0306 -0.2481  0.5988
  119MOL0     C16302  11.311   6.155   3.713 -0.2587 -0.7726 -0.5179
  119MOL0     C16303  11.337   6.025   3.686  0.4870 -0.8874 -0.0477
  119MOL0     C16304  11.352   5.906   3.778  0.1198 -0.5839  0.2103
  119MOL0     C16305  11.489   5.878   3.834  0.2498 -0.3170 -0.0032
  119MOL0     C16306  11.522   5.962   3.966 -0.5247 -0.7755  0.4608
  119MOL0     C16307  11.655   5.939   4.028 -0.8683 -0.9610  0.4196
  119MOL0     O16308  11.754   6.011   3.955  0.6468 -0.0786 -0.7820
  119MOL0     C16309  11.879   5.994   4.015  0.8430  0.8478 -0.1062
  119MOL0     C16310  11.907   6.041   4.146 -0.2059 -0.8787  0.2239
  119MOL0     C16311  12.039   6.051   4.200  0.1263  0.1165 -0.4969
  119MOL0     C16312  12.038   6.105   4.348 -0.0208  0.1457  0.5284
  119MOL0     C16313  12.152   6.025   4.121 -0.5129 -0.0194  0.6339
  119MOL0     C16314  12.297   6.026   4.166  0.3995  0.2262 -0.3050
  119MOL0     O16315  12.333   6.044   4.301  0.2517  0.2827  0.2603
  119MOL0     C16316  12.456   6.023   4.350 -0.4377 -0.5653  0.7538
  119MOL0     C16317  12.476   6.081   4.471 -0.0651  0.6036  0.8253
  119MOL0     C16318  12.598   6.054   4.542  0.6725  0.5133 -0.0414
  119MOL0     C16319  12.695   5.976   4.490 -0.4706 -0.3834  0.4900
  119MOL0     O16320  12.810   5.963   4.565 -0.8070  0.5193  0.3104
  119MOL0     C16321  12.891   6.083   4.572 -0.7819  0.0003 -0.9058
  119MOL0     C16322  13.005   6.065   4.675 -0.9191  0.1822 -0.2413
  119MOL0     C16323  13.093   5.937   4.649 -0.5689 -0.4400 -0.0626
  119MOL0     C16324  13.236   5.939   4.720 -0.1897  0.3406 -0.1602
  119MOL0     C16325  13.304   5.800   4.704 -0.3839  0.3515 -1.0410
  119MOL0     C16326  13.453   5.788   4.745  0.1943  0.0492  0.4755
  119MOL0     C16327  13.507   5.639   4.764 -0.3972  0.4594 -0.1059
  119MOL0     C16328  13.659   5.625   4.771 -0.0988 -0.2923 -0.1871
  119MOL0    Cl16329  13.713   5.701   4.917  0.0018 -0.3264 -0.0168
  119MOL0     C16330  12.684   5.939   4.359 -0.1818  0.1642  0.0708
  119MOL0     C16331  12.561   5.943   4.295  0.4538 -0.0347 -0.4204
  119MOL0     O16332  12.379   6.013   4.073 -0.3431 -0.1354 -0.4443
  119MOL0     C16333  12.127   5.982   3.986  0.8581 -0.8816 -0.0366
  119MOL0     C16334  11.995   5.964   3.943  0.4031 -0.4398 -0.2165
  119MOL0     N16335  11.354   6.017   3.550  0.6548 -0.2099 -0.0631
  119MOL0     N16336  11.326   6.130   3.495 -0.4475  0.6128  0.5299
  119MOL0     C16337  10.199   6.611   3.607  0.6117 -0.9363 -0.1374
  119MOL0     C16338  10.066   6.640   3.654 -0.0146  0.0374 -0.4265
  119MOL0     C16339   9.696   6.671   3.944 -1.0895 -0.5057  0.3335
  119MOL0     C16340   9.613   6.687   3.823  0.3831  0.3484  0.0004
  119MOL0     C16341   9.480   6.728   3.825  0.8985 -0.1385 -0.0057
  119MOL0     C16342   9.422   6.758   3.951 -0.3447  0.2788  0.3876
  119MOL0     O16343   9.298   6.812   3.968 -0.0948 -0.2151  0.3277
  119MOL0     C16344   9.224   6.874   3.860 -0.1443 -0.5259 -0.2921
  119MOL0     C16345   9.088   6.924   3.909  0.4830 -0.4576  0.4137
  119MOL0     C16346   8.993   6.808   3.933 -0.2984  0.4754  0.2762
  119MOL0     C16347   8.869   6.848   4.009  0.3701 -1.0391 -0.0268
  119MOL0     C16348   8.775   6.740   4.031  0.2904  0.8095  0.4255
  119MOL0     C16349   8.680   6.671   4.068 -0.6392  0.5196  0.7557
  119MOL0     C16350   9.492   6.725   4.069  0.3827  0.4332  0.3473
  119MOL0     C16351   9.630   6.681   4.065  0.1883 -0.4450  0.0334
  119MOL0     C16352   9.697   6.631   4.192  0.1499 -0.0100 -0.6437
  119MOL0     H16353  10.056   6.441   3.925 -1.7832 -0.6784 -1.2862
  119MOL0     H16354  10.294   6.414   3.865 -1.9017 -1.6489  1.2298
  119MOL0     H16355  10.481   6.653   3.514  1.8319  0.3221 -2.6051
  119MOL0     H16356  10.409   6.500   3.443  2.2574 -1.4876 -1.0492
  119MOL0     H16357  10.617   6.386   3.537  1.1344  0.0056  0.2911
  119MOL0     H16358  10.647   6.521   3.414 -1.5653  0.6147 -0.2799
  119MOL0     H16359  10.694   6.657   3.633  1.6792 -0.3521 -1.9790
  119MOL0     H16360  10.688   6.485   3.710 -3.0389 -0.1072 -0.5090
  119MOL0     H16361  10.861   6.432   3.557  0.2675  0.3274 -2.2478
  119MOL0     H16362  10.867   6.595   3.498 -1.9305 -1.9454 -1.3770
  119MOL0     H16363  10.927   6.534   3.780  1.8556 -2.2159 -2.1427
  119MOL0     H16364  10.965   6.689   3.703  2.2435  0.5518 -1.3985
  119MOL0     H16365  11.116   6.583   3.545  0.0337 -0.7496 -0.0268
  119MOL0     H16366  11.181   6.575   3.711  2.7900 -0.9669 -2.3320
  119MOL0     H16367  11.048   6.358   3.543 -0.1544 -0.0898  1.7031
  119MOL0     H16368  11.108   6.338   3.709 -2.7597  1.3089  0.6032
  119MOL0     H16369  11.241   6.374   3.447  1.3976  2.0388 -0.2946
  119MOL0     H16370  11.335   6.430   3.585  1.5467 -1.6663 -2.1591
  119MOL0     H16371  11.302   6.193   3.814 -2.5769 -0.7522 -0.6828
  119MOL0     H16372  11.316   5.821   3.719  1.4629 -0.1949 -1.2559
  119MOL0     H16373  11.277   5.916   3.856 -0.3169  3.6591 -0.5135
  119MOL0     H16374  11.492   5.772   3.863 -3.1923  0.0120  2.1124
  119MOL0     H16375  11.560   5.908   3.756  0.7571  1.2107  1.0097
  119MOL0     H16376  11.522   6.068   3.936 -1.9823 -0.3187  1.9102
  119MOL0     H16377  11.441   5.945   4.037 -0.9913  0.0183  0.1330
  119MOL0     H16378  11.649   5.991   4.124  1.2428  2.6235 -1.1577
  119MOL0     H16379  11.679   5.833   4.040  2.8249 -0.2893  0.3110
  119MOL0     H16380  11.825   6.083   4.203  0.1962 -0.0834  0.2355
  119MOL0     H16381  11.948   6.079   4.404 -2.1282  1.7417 -1.8488
  119MOL0     H16382  12.038   6.214   4.336 -1.6843  0.0251 -1.1695
  119MOL0     H16383  12.116   6.072   4.417 -0.3430  1.3016  1.4832
  119MOL0     H16384  12.398   6.137   4.520 -1.2451 -0.1604 -0.1265
  119MOL0     H16385  12.605   6.106   4.638 -2.3095  2.6451 -0.8035
  119MOL0     H16386  12.930   6.092   4.470 -2.3097  0.5657 -1.4663
  119MOL0     H16387  12.839   6.178   4.585 -0.9386  0.0068 -1.5411
  119MOL0     H16388  13.072   6.152   4.667  0.4409 -0.8422 -0.5241
  119MOL0     H16389  12.974   6.064   4.779 -1.0637 -0.7790 -0.2875
  119MOL0     H16390  13.108   5.933   4.540 -3.4536 -2.4474 -0.5074
  119MOL0     H16391  13.032   5.852   4.679  2.1162 -2.5434 -0.1858
  119MOL0     H16392  13.231   5.970   4.825  0.1964  0.9380 -0.3185
  119MOL0     H16393  13.285   6.019   4.664 -1.2754 -0.1364 -1.8925
  119MOL0     H16394  13.247   5.726   4.759 -0.2181 -0.3804 -1.8290
  119MOL0     H16395  13.303   5.762   4.601  1.4112 -1.9853 -0.2770
  119MOL0     H16396  13.463   5.847   4.837  1.5788  3.5332 -1.7128
  119MOL0     H16397  13.509   5.842   4.668  0.1470  0.8642  1.0050
  119MOL0     H16398  13.480   5.584   4.673  1.6389  1.6787 -1.5469
  119MOL0     H16399  13.450   5.596   4.846 -1.5573  1.6275 -0.2732
  119MOL0     H16400  13.700   5.698   4.701 -0.0701  2.4372  2.4347
  119MOL0     H16401  13.692   5.522   4.756 -0.2704 -0.2993 -0.5050
  119MOL0     H16402  12.767   5.886   4.314  2.2907  0.5465  3.7028
  119MOL0     H16403  12.552   5.902   4.195  3.7371 -2.4381  0.1158
  119MOL0     H16404  12.215   5.959   3.926 -0.0091  2.0216 -2.7409
  119MOL0     H16405  11.964   5.930   3.844 -2.4148  2.9680 -0.6970
  119MOL0     H16406  10.231   6.676   3.526  1.1910 -0.3735  0.5384
  119MOL0     H16407   9.999   6.699   3.593  0.6565  1.2909  0.0224
  119MOL0     H16408   9.645   6.669   3.721 -1.8038  2.2319 -1.0921
  119MOL0     H16409   9.433   6.738   3.727 -0.1476  0.7768  0.5639
  119MOL0     H16410   9.276   6.963   3.824 -0.9776  0.3933  0.7046
  119MOL0     H16411   9.203   6.803   3.779 -0.4586  0.8453 -1.4508
  119MOL0     H16412   9.047   6.993   3.834  2.1668  0.7165  0.5026
  119MOL0     H16413   9.097   6.990   3.996 -2.6367  0.2158  0.3363
  119MOL0     H16414   8.957   6.768   3.838  1.1611 -0.7750  0.2184
  119MOL0     H16415   9.039   6.722   3.981 -2.2387  0.2192  1.7713
  119MOL0     H16416   8.822   6.933   3.959  0.1879 -1.1551 -0.0541
  119MOL0     H16417   8.899   6.878   4.110 -1.7451 -0.0080  0.3378
  119MOL0     H16418   8.605   6.595   4.069 -0.3624  0.1281 -1.7386
  119MOL0     H16419   9.437   6.737   4.162 -0.8585 -0.6890 -0.2078
  119MOL0     H16420   9.741   6.532   4.177  0.4143 -0.0662  0.3688
  119MOL0     H16421   9.766   6.707   4.231 -0.6032  0.3745 -0.0052
  119MOL0     H16422   9.627   6.628   4.276  1.0264  3.4186  0.4122
  120MOL0     O16423   1.521   0.263   7.694  0.0420  0.4638  0.0506
  120MOL0     C16424   1.519   0.160   7.621  0.6771  0.2273  0.4095
  120MOL0     O16425   1.632   0.102   7.571  0.1888 -0.1906  0.0455
  120MOL0     C16426   1.758   0.160   7.565 -0.1669  0.2502  0.2652
  120MOL0     C16427   1.870   0.077   7.559  0.1626  0.9740  0.3087
  120MOL0     C16428   2.005   0.132   7.540  0.5604  0.3954  0.4635
  120MOL0     C16429   2.024   0.272   7.521 -0.4163  0.1478  0.5689
  120MOL0     O16430   2.147   0.325   7.478  0.4015 -0.2494 -0.0279
  120MOL0     C16431   2.233   0.243   7.395  0.5886 -0.4355 -0.9826
  120MOL0     C16432   2.334   0.339   7.336  0.2265 -0.8211 -0.0566
  120MOL0     C16433   2.447   0.253   7.277  1.1129 -0.4481  0.6567
  120MOL0     C16434   2.543   0.342   7.203  0.2491 -0.0750  0.3915
  120MOL0     C16435   2.652   0.249   7.149 -0.1252 -0.3295  0.5972
  120MOL0     C16436   2.755   0.332   7.079 -0.6492  1.2376 -0.2658
  120MOL0     C16437   2.891   0.257   7.096  0.1863 -0.2292  0.1510
  120MOL0     C16438   2.977   0.280   6.972  0.0478 -0.0520 -0.2269
  120MOL0     N16439   3.110   0.228   6.999 -0.3474  0.0236 -0.2270
  120MOL0     C16440   3.137   0.097   7.028  0.5703  0.7537  0.6052
  120MOL0     C16441   3.275   0.071   7.002  0.3414 -0.2722  0.1531
  120MOL0     C16442   3.353  -0.052   7.037 -0.3958  0.0266  1.0845
  120MOL0     C16443   3.416  -0.116   6.912 -0.0465  0.3480  0.3804
  120MOL0     C16444   3.499  -0.241   6.957 -0.2541  0.2159 -0.1204
  120MOL0     C16445   3.544  -0.330   6.838  0.6109 -0.8086  0.1774
  120MOL0     O16446   3.593  -0.455   6.881  0.5223 -0.0250  0.3296
  120MOL0     C16447   3.728  -0.456   6.907 -0.6822  0.4261 -0.2571
  120MOL0     C16448   3.816  -0.426   6.802  0.2860  0.1738 -0.3746
  120MOL0     C16449   3.951  -0.424   6.832 -0.0391  0.8823  0.0220
  120MOL0     C16450   4.036  -0.409   6.713 -0.6082  0.3194  0.2532
  120MOL0     C16451   4.002  -0.424   6.966 -0.3368 -0.7732  0.7502
  120MOL0     C16452   4.139  -0.398   7.003 -0.7343 -0.6547  0.3005
  120MOL0     O16453   4.168  -0.339   7.122  0.5369  0.9434 -0.3874
  120MOL0     C16454   4.291  -0.363   7.180 -1.0759 -0.5470  0.7455
  120MOL0     C16455   4.350  -0.266   7.266 -0.3733  0.6081  0.0433
  120MOL0     C16456   4.484  -0.284   7.324  0.1176 -0.2404  0.7118
  120MOL0     C16457   4.552  -0.408   7.300 -0.4561 -1.4077  0.4248
  120MOL0     O16458   4.680  -0.409   7.349 -0.0937 -0.3831 -0.7628
  120MOL0     C16459   4.757  -0.531   7.331  0.4015  0.0240  0.3365
  120MOL0     C16460   4.907  -0.516   7.381  0.6788 -0.1432  0.9227
  120MOL0     C16461   4.989  -0.435   7.278  0.3249  0.6767  0.3588
  120MOL0     C16462   4.953  -0.284   7.265  0.2058 -0.3782 -0.7004
  120MOL0     C16463   5.037  -0.206   7.159 -0.2874  0.5768  0.0125
  120MOL0     C16464   5.189  -0.206   7.181 -0.5089 -0.2227 -0.0989
  120MOL0     C16465   5.253  -0.101   7.094  0.6355  0.1469  0.6041
  120MOL0     C16466   5.401  -0.084   7.130 -0.0296  0.3400  0.2182
  120MOL0    Cl16467   5.446   0.012   6.987  0.3691  0.2350  0.1809
  120MOL0     C16468   4.486  -0.502   7.224 -0.5335  0.4875  0.0713
  120MOL0     C16469   4.365  -0.482   7.161 -1.0136 -0.1221 -0.1462
  120MOL0     O16470   4.219  -0.441   6.920  0.3053  0.3532  0.0136
  120MOL0     C16471   3.904  -0.443   7.068  0.7043 -0.3334  0.3444
  120MOL0     C16472   3.769  -0.460   7.042 -0.6199  0.4417 -1.0525
  120MOL0     N16473   3.332   0.199   6.970 -0.0904 -0.3170  0.3919
  120MOL0     N16474   3.233   0.281   6.973 -0.4820 -0.5893 -0.6373
  120MOL0     C16475   1.910   0.354   7.552  0.3832 -0.0487 -0.1098
  120MOL0     C16476   1.782   0.294   7.569 -0.3625  0.4167 -0.0587
  120MOL0     C16477   1.388   0.097   7.583  0.2140 -0.1013 -0.0956
  120MOL0     C16478   1.270   0.145   7.653 -0.9866 -0.1018  0.5171
  120MOL0     C16479   1.144   0.082   7.627 -0.6130 -0.1297  0.1463
  120MOL0     C16480   1.124  -0.013   7.528  0.3012 -0.2342 -0.3338
  120MOL0     O16481   0.989  -0.050   7.507 -0.0824  0.3333  0.4730
  120MOL0     C16482   0.965  -0.149   7.406  0.2100  0.9041  0.2421
  120MOL0     C16483   0.815  -0.192   7.415 -0.3641 -0.1365 -0.0854
  120MOL0     C16484   0.782  -0.274   7.536  0.2529  0.7859 -0.2200
  120MOL0     C16485   0.635  -0.260   7.593  0.1989 -0.1979 -0.2989
  120MOL0     C16486   0.530  -0.244   7.498  0.1868  0.2166 -0.4649
  120MOL0     C16487   0.432  -0.241   7.434  1.0752  0.6496  0.8920
  120MOL0     C16488   1.241  -0.056   7.459 -0.8288  0.4605  0.6713
  120MOL0     C16489   1.365  -0.000   7.480 -0.4833 -0.5347  0.2931
  120MOL0     C16490   1.471  -0.056   7.389 -0.5314  0.2615  1.0846
  120MOL0     H16491   1.858  -0.031   7.555 -2.4447  1.2589 -2.4306
  120MOL0     H16492   2.086   0.061   7.527  0.3862  0.2638  0.0921
  120MOL0     H16493   2.179   0.186   7.319 -1.9856 -0.3496  0.6589
  120MOL0     H16494   2.289   0.180   7.464  1.4958  1.4425  0.0869
  120MOL0     H16495   2.285   0.396   7.257  0.0902 -1.9491 -0.8188
  120MOL0     H16496   2.377   0.409   7.409 -0.4172  1.9448 -2.1797
  120MOL0     H16497   2.502   0.200   7.356 -0.0732 -0.3332  1.5735
  120MOL0     H16498   2.399   0.188   7.203  0.9533  0.5660 -0.1469
  120MOL0     H16499   2.490   0.398   7.125 -1.4979  0.1040  1.6551
  120MOL0     H16500   2.584   0.411   7.277 -2.2975 -0.4969  2.3552
  120MOL0     H16501   2.614   0.166   7.090  0.4297 -1.0600  1.2424
  120MOL0     H16502   2.694   0.188   7.230 -0.7049 -1.2566  0.2110
  120MOL0     H16503   2.733   0.371   6.979  2.8041  2.4428 -0.7142
  120MOL0     H16504   2.769   0.419   7.143 -1.8888  2.2853 -1.3633
  120MOL0     H16505   2.881   0.153   7.127 -0.1608  0.7075  3.5536
  120MOL0     H16506   2.937   0.306   7.182  0.7380  0.6582 -0.6180
  120MOL0     H16507   2.935   0.224   6.888 -1.3529  0.7206 -0.0660
  120MOL0     H16508   2.979   0.389   6.959 -1.7525  0.3344  2.1683
  120MOL0     H16509   3.073   0.018   7.065  0.5740  0.6729  0.4392
  120MOL0     H16510   3.288  -0.128   7.082  0.2128  0.0619  2.0522
  120MOL0     H16511   3.432  -0.045   7.112  0.6623 -1.6907  0.2015
  120MOL0     H16512   3.341  -0.146   6.838  1.1407  1.4797 -1.3606
  120MOL0     H16513   3.489  -0.048   6.866 -0.3673  1.5953  1.6502
  120MOL0     H16514   3.586  -0.203   7.012  0.3198  2.0562 -2.1582
  120MOL0     H16515   3.435  -0.302   7.022 -2.2877  1.5755 -0.7363
  120MOL0     H16516   3.459  -0.354   6.774  0.2385 -0.5897  0.5794
  120MOL0     H16517   3.615  -0.277   6.774  0.9732  2.0930  2.7354
  120MOL0     H16518   3.777  -0.423   6.700  4.0073  0.7863 -1.9422
  120MOL0     H16519   4.091  -0.315   6.720  2.2704 -1.1820 -0.5911
  120MOL0     H16520   3.979  -0.397   6.621  0.0804 -1.4034 -0.4462
  120MOL0     H16521   4.103  -0.493   6.690  0.5283  1.3002 -0.1359
  120MOL0     H16522   4.292  -0.176   7.284 -0.9308  0.6942 -1.9724
  120MOL0     H16523   4.531  -0.210   7.388  0.2868  0.7237 -0.4982
  120MOL0     H16524   4.705  -0.616   7.376  0.4998  1.0389  2.4565
  120MOL0     H16525   4.760  -0.552   7.223 -0.4054  0.0245  0.3082
  120MOL0     H16526   4.925  -0.472   7.479  2.0526  0.7158  0.3138
  120MOL0     H16527   4.937  -0.622   7.383  0.0424 -0.5238 -2.5637
  120MOL0     H16528   4.980  -0.473   7.175  0.2201  0.1262  0.5700
  120MOL0     H16529   5.092  -0.460   7.305 -0.2609 -0.3241  1.7904
  120MOL0     H16530   4.963  -0.224   7.355  0.2230 -0.6140 -0.5429
  120MOL0     H16531   4.851  -0.277   7.224 -0.1129  0.9196  0.2498
  120MOL0     H16532   5.011  -0.234   7.057  1.1758 -2.7696  0.4326
  120MOL0     H16533   5.008  -0.101   7.168 -0.6974  0.5290 -0.7277
  120MOL0     H16534   5.234  -0.304   7.163 -1.0569 -1.7524  5.2830
  120MOL0     H16535   5.211  -0.200   7.288  0.9337 -2.8426 -0.1541
  120MOL0     H16536   5.203  -0.003   7.095  2.4963  1.1716  2.7767
  120MOL0     H16537   5.248  -0.146   6.995  0.2168  4.4857 -1.6008
  120MOL0     H16538   5.461  -0.175   7.134  2.8630  2.1200  0.6999
  120MOL0     H16539   5.424  -0.034   7.225  1.9519  0.6395 -0.3706
  120MOL0     H16540   4.537  -0.597   7.213 -1.4404  0.0665 -0.6788
  120MOL0     H16541   4.318  -0.557   7.098 -2.4259  2.7686 -2.8396
  120MOL0     H16542   3.936  -0.439   7.171  0.2135  3.2576  0.4534
  120MOL0     H16543   3.691  -0.463   7.118  0.0633 -0.6086 -0.3592
  120MOL0     H16544   1.922   0.461   7.564 -1.9095  0.1870  0.3666
  120MOL0     H16545   1.704   0.369   7.576  0.8528  1.5169  3.4516
  120MOL0     H16546   1.272   0.227   7.723 -3.4870 -0.9931  1.7815
  120MOL0     H16547   1.063   0.123   7.686  1.0148  2.1964  0.9494
  120MOL0     H16548   0.993  -0.113   7.306  0.0523  3.1263  0.9583
  120MOL0     H16549   1.032  -0.234   7.422  2.8213  2.7176 -0.4410
  120MOL0     H16550   0.787  -0.254   7.329 -0.0559 -1.9913  1.0807
  120MOL0     H16551   0.767  -0.095   7.417 -0.6506 -0.2534 -0.9312
  120MOL0     H16552   0.793  -0.377   7.503 -0.7622  0.6273 -0.0964
  120MOL0     H16553   0.858  -0.262   7.614  1.1030  0.0413 -0.9074
  120MOL0     H16554   0.614  -0.180   7.664 -2.3996 -1.7094  0.7585
  120MOL0     H16555   0.607  -0.351   7.648 -1.0132  0.2383 -0.1641
  120MOL0     H16556   0.344  -0.258   7.374  1.7094  1.5130 -0.3326
  120MOL0     H16557   1.236  -0.140   7.390  1.7477  1.2022 -0.5672
  120MOL0     H16558   1.533   0.026   7.353 -0.6076  0.7239  1.9817
  120MOL0     H16559   1.531  -0.136   7.434  1.2286 -0.0271 -1.5943
  120MOL0     H16560   1.425  -0.093   7.297  0.5119  4.4608 -1.3472
  121MOL0     O16561   0.437   0.803   1.884 -0.4171 -0.4425  0.5273
  121MOL0     C16562   0.422   0.752   1.996 -1.5219  0.9402 -0.1010
  121MOL0     O16563   0.522   0.743   2.100  0.5072  0.6970  0.4678
  121MOL0     C16564   0.649   0.767   2.059 -0.1867 -0.5813  0.3676
  121MOL0     C16565   0.719   0.711   1.946  0.1129 -0.0279  0.6560
  121MOL0     C16566   0.849   0.747   1.911  0.2675 -0.8171 -0.2077
  121MOL0     C16567   0.912   0.851   1.981  0.3000 -0.1788  0.3781
  121MOL0     O16568   1.036   0.878   1.934 -0.1195 -0.6544  0.1802
  121MOL0     C16569   1.101   1.006   1.961 -0.5081 -0.4847 -0.5117
  121MOL0     C16570   1.180   1.063   1.844 -0.1748 -0.6184  0.5369
  121MOL0     C16571   1.322   1.003   1.841 -0.7230  0.2163 -0.6268
  121MOL0     C16572   1.321   0.862   1.794  0.9615  0.4864 -0.6102
  121MOL0     C16573   1.469   0.797   1.784 -0.9095 -0.5159 -0.5434
  121MOL0     C16574   1.471   0.654   1.724  0.9180 -0.1873 -0.9417
  121MOL0     C16575   1.601   0.573   1.731  0.0729 -0.3071 -0.1061
  121MOL0     C16576   1.719   0.667   1.677 -0.1982 -0.3349  0.0905
  121MOL0     N16577   1.848   0.594   1.696 -0.3849 -0.0854 -0.4137
  121MOL0     C16578   1.900   0.501   1.608  0.5362 -0.0554  0.6934
  121MOL0     C16579   2.013   0.465   1.672 -0.2032 -0.2435 -0.5656
  121MOL0     C16580   2.113   0.372   1.598  0.1330 -0.1801 -0.2010
  121MOL0     C16581   2.245   0.453   1.575 -0.0676  0.2028 -0.1516
  121MOL0     C16582   2.364   0.376   1.528 -0.3635  0.6551 -0.9279
  121MOL0     C16583   2.482   0.456   1.485 -1.1387 -0.1284 -0.0098
  121MOL0     O16584   2.524   0.540   1.592 -0.5237 -0.1070  0.5074
  121MOL0     C16585   2.649   0.603   1.595  0.5896  0.1164  0.1902
  121MOL0     C16586   2.719   0.621   1.477 -1.1637 -1.2635 -0.3247
  121MOL0     C16587   2.834   0.696   1.483  0.3511 -0.4197 -0.0126
  121MOL0     C16588   2.918   0.673   1.355 -0.0361 -0.6165 -0.3082
  121MOL0     C16589   2.882   0.764   1.602 -0.3591 -0.3232  0.0201
  121MOL0     C16590   3.007   0.845   1.611 -0.2266 -0.3173 -0.5410
  121MOL0     O16591   3.072   0.865   1.496  0.0168  0.6680 -0.7627
  121MOL0     C16592   3.206   0.887   1.492  0.1124 -0.0882  0.3713
  121MOL0     C16593   3.256   0.943   1.379  0.2510  0.2170 -0.0248
  121MOL0     C16594   3.395   0.954   1.348 -0.0065 -1.2187 -0.9370
  121MOL0     C16595   3.490   0.904   1.435  0.0687  0.4466 -1.0019
  121MOL0     O16596   3.618   0.903   1.398 -0.6812 -0.1562 -0.2409
  121MOL0     C16597   3.721   0.904   1.497  0.9803  0.4979 -0.2806
  121MOL0     C16598   3.857   0.924   1.442 -0.1146  0.7069  0.2559
  121MOL0     C16599   3.925   0.801   1.375  0.7778  0.0110  0.5464
  121MOL0     C16600   4.058   0.844   1.315 -0.3525  0.8533  0.3349
  121MOL0     C16601   4.113   0.740   1.224 -0.2260  0.1325 -0.2956
  121MOL0     C16602   4.258   0.785   1.191 -0.0731 -0.4475 -0.4716
  121MOL0     C16603   4.337   0.669   1.125 -0.5065  0.2570 -0.0403
  121MOL0     C16604   4.252   0.593   1.026  0.3773  0.0946  0.7457
  121MOL0    Cl16605   4.366   0.490   0.927 -0.5704 -0.3826 -0.3260
  121MOL0     C16606   3.436   0.839   1.553  0.1568 -0.1026  0.0053
  121MOL0     C16607   3.300   0.842   1.586  0.7732  1.0177 -0.4685
  121MOL0     O16608   3.029   0.905   1.717  0.0760  0.2204 -0.1250
  121MOL0     C16609   2.803   0.744   1.718  0.1324 -0.0878  0.0611
  121MOL0     C16610   2.700   0.659   1.712 -0.3207 -0.3046 -0.2135
  121MOL0     N16611   2.015   0.519   1.794 -0.2534 -0.8196  0.1495
  121MOL0     N16612   1.919   0.599   1.808  0.1472  0.1057 -0.3249
  121MOL0     C16613   0.850   0.903   2.097  0.3073 -0.8040 -0.4369
  121MOL0     C16614   0.720   0.863   2.133 -0.1395  0.6174  0.3112
  121MOL0     C16615   0.300   0.684   2.036  0.2815 -0.7745  0.5015
  121MOL0     C16616   0.310   0.556   2.095 -0.5812 -0.0900  0.0364
  121MOL0     C16617   0.198   0.482   2.131 -0.6671  0.1990  0.3043
  121MOL0     C16618   0.071   0.535   2.104  0.1938  0.2216  0.2006
  121MOL0     O16619  -0.055   0.470   2.130 -0.7339 -0.3043 -0.0808
  121MOL0     C16620  -0.056   0.330   2.150 -0.3501  0.8288 -0.5575
  121MOL0     C16621  -0.188   0.279   2.207  0.0609 -1.5157 -0.3783
  121MOL0     C16622  -0.206   0.310   2.354  0.6378  0.1255  0.1371
  121MOL0     C16623  -0.338   0.251   2.416  0.3588  1.1111 -0.3733
  121MOL0     C16624  -0.331   0.111   2.444 -0.4390  0.0453  0.1892
  121MOL0     C16625  -0.324  -0.003   2.470 -1.0604  0.6610 -0.2404
  121MOL0     C16626   0.059   0.663   2.052  0.2889  0.0943  0.8974
  121MOL0     C16627   0.168   0.744   2.026  0.2038  0.8551  0.2946
  121MOL0     C16628   0.156   0.882   1.996 -0.0456  0.1915 -0.1983
  121MOL0     H16629   0.674   0.626   1.897  0.7921 -0.6937  1.1750
  121MOL0     H16630   0.890   0.714   1.816 -2.7743  0.1125 -1.9904
  121MOL0     H16631   1.160   1.002   2.054  0.2861  0.1868 -0.9694
  121MOL0     H16632   1.025   1.083   1.977  0.0298 -0.1925  0.8305
  121MOL0     H16633   1.123   1.040   1.754  1.4903 -1.2747 -0.4039
  121MOL0     H16634   1.183   1.172   1.841  0.3979 -0.5143  3.0192
  121MOL0     H16635   1.374   1.054   1.760 -1.1378  2.7964  0.6130
  121MOL0     H16636   1.366   1.021   1.940  1.2626  2.1636 -1.7810
  121MOL0     H16637   1.265   0.806   1.870 -1.3028 -0.0414 -2.5421
  121MOL0     H16638   1.277   0.851   1.694 -3.3505  1.1709  0.9866
  121MOL0     H16639   1.504   0.791   1.887 -1.5114 -1.2633 -0.3697
  121MOL0     H16640   1.542   0.858   1.729  0.1981 -1.5606 -0.2584
  121MOL0     H16641   1.385   0.600   1.766  0.3935 -0.3674 -2.2099
  121MOL0     H16642   1.419   0.652   1.628 -0.2708 -3.5150 -0.3629
  121MOL0     H16643   1.594   0.491   1.660  0.4992 -1.7158  1.4251
  121MOL0     H16644   1.627   0.544   1.833  0.7274 -1.9548 -0.7067
  121MOL0     H16645   1.709   0.695   1.572  3.0781 -1.9599 -0.7831
  121MOL0     H16646   1.729   0.760   1.734  0.6458  0.2543 -0.9666
  121MOL0     H16647   1.861   0.473   1.510  0.4196  2.3351 -0.0022
  121MOL0     H16648   2.073   0.346   1.500  0.4399  1.6045 -0.8325
  121MOL0     H16649   2.134   0.273   1.641  0.5911 -0.2548 -0.5839
  121MOL0     H16650   2.224   0.529   1.500  2.2501  0.8425 -0.1988
  121MOL0     H16651   2.262   0.499   1.673 -2.4278 -0.8371  0.8460
  121MOL0     H16652   2.396   0.302   1.602 -1.9141 -2.2027 -2.8725
  121MOL0     H16653   2.346   0.313   1.440  1.6383 -2.2485  0.5408
  121MOL0     H16654   2.566   0.394   1.450  0.1366  0.7284  1.4272
  121MOL0     H16655   2.448   0.511   1.397  2.7720 -0.4551 -1.9445
  121MOL0     H16656   2.681   0.579   1.385 -0.3255 -0.8928 -0.8489
  121MOL0     H16657   2.877   0.602   1.282 -1.5066  1.1629 -1.3168
  121MOL0     H16658   3.022   0.651   1.379 -0.4651 -0.8772  1.3812
  121MOL0     H16659   2.924   0.767   1.298 -1.0777 -0.8635 -0.8549
  121MOL0     H16660   3.182   0.971   1.305 -0.8110  1.6327  1.4831
  121MOL0     H16661   3.414   0.985   1.246 -2.9741 -0.9166 -1.4919
  121MOL0     H16662   3.697   0.987   1.563 -1.2653  0.5277 -1.0678
  121MOL0     H16663   3.717   0.813   1.557  0.3955  1.6792  1.5621
  121MOL0     H16664   3.865   1.012   1.378  1.1126  0.4680  0.0544
  121MOL0     H16665   3.921   0.934   1.530  0.9347  0.4132 -0.4562
  121MOL0     H16666   3.860   0.760   1.297 -0.4353  1.5323  0.7178
  121MOL0     H16667   3.946   0.729   1.455  4.1065  1.3252  0.9982
  121MOL0     H16668   4.131   0.850   1.396 -1.2388 -2.0885  1.4557
  121MOL0     H16669   4.045   0.939   1.262 -1.5239  1.3418  1.4457
  121MOL0     H16670   4.128   0.647   1.279 -2.0542 -0.5343 -0.8356
  121MOL0     H16671   4.048   0.722   1.138 -3.4740  0.2012  1.9666
  121MOL0     H16672   4.308   0.798   1.288 -1.1956 -4.8545  0.9006
  121MOL0     H16673   4.266   0.871   1.124 -0.0675 -3.4504 -4.6540
  121MOL0     H16674   4.368   0.598   1.202 -0.0185 -1.9647 -2.1879
  121MOL0     H16675   4.431   0.697   1.077 -0.3724 -1.2607 -0.6999
  121MOL0     H16676   4.186   0.657   0.966 -1.4208 -1.5424  0.8795
  121MOL0     H16677   4.186   0.522   1.077 -0.6720  0.1963 -0.4033
  121MOL0     H16678   3.503   0.785   1.618  1.6959 -0.8983 -2.1230
  121MOL0     H16679   3.258   0.804   1.679  0.6278  3.4111  0.5280
  121MOL0     H16680   2.817   0.777   1.821 -0.6243 -0.3034  0.2388
  121MOL0     H16681   2.639   0.651   1.802  1.9914 -0.4465  1.4337
  121MOL0     H16682   0.900   0.977   2.158 -0.9483 -1.3760  1.3527
  121MOL0     H16683   0.679   0.901   2.227  3.3643  0.1183  2.2205
  121MOL0     H16684   0.407   0.511   2.113  0.7711  2.4097 -0.5509
  121MOL0     H16685   0.215   0.381   2.167  1.8186  2.0765  5.3787
  121MOL0     H16686  -0.019   0.273   2.064  0.9703 -0.8661  1.0628
  121MOL0     H16687   0.020   0.305   2.224  1.6617  3.4823 -1.5560
  121MOL0     H16688  -0.193   0.171   2.194  1.8910 -1.5276 -1.3735
  121MOL0     H16689  -0.259   0.331   2.143 -0.4607 -0.9137  0.6509
  121MOL0     H16690  -0.119   0.276   2.411  0.4460  2.4654  1.9985
  121MOL0     H16691  -0.222   0.418   2.359  0.7790  0.2680 -1.9090
  121MOL0     H16692  -0.422   0.275   2.350 -2.7974 -1.4221  2.3531
  121MOL0     H16693  -0.356   0.300   2.513 -0.3776  2.6373 -1.2410
  121MOL0     H16694  -0.322  -0.108   2.489 -1.8086  1.0638  2.4998
  121MOL0     H16695  -0.037   0.713   2.050 -0.4644 -1.3126  0.9038
  121MOL0     H16696   0.052   0.915   2.009 -0.5350 -1.6642  1.0145
  121MOL0     H16697   0.224   0.945   2.054  2.7360 -1.3796 -1.5541
  121MOL0     H16698   0.174   0.889   1.889 -1.8373  0.5356 -0.5138
  122MOL0     O16699   4.489   0.262  10.090 -0.4610 -0.0689 -0.3644
  122MOL0     C16700   4.555   0.340  10.023  0.0114  0.7941 -0.7033
  122MOL0     O16701   4.636   0.443  10.082  0.2313  0.4762 -0.7593
  122MOL0     C16702   4.623   0.455  10.218  0.4235  0.0253  0.3492
  122MOL0     C16703   4.738   0.447  10.300  0.5162  0.5818 -0.0017
  122MOL0     C16704   4.723   0.453  10.437 -0.6588  0.4745  0.2806
  122MOL0     C16705   4.594   0.465  10.498  0.2843  0.1251 -0.6978
  122MOL0     O16706   4.582   0.466  10.636 -0.1229  0.2890 -0.0286
  122MOL0     C16707   4.670   0.392  10.726  0.6248 -0.1108  0.9879
  122MOL0     C16708   4.704   0.471  10.853 -0.5945 -0.4867 -0.0637
  122MOL0     C16709   4.598   0.463  10.963  0.3050  0.4292  0.5332
  122MOL0     C16710   4.630   0.556  11.083 -0.4162  0.3029 -0.0005
  122MOL0     C16711   4.737   0.497  11.172  0.3388 -0.0145  0.4046
  122MOL0     C16712   4.782   0.607  11.262 -0.3749  0.3131 -0.0628
  122MOL0     C16713   4.895   0.561  11.353 -0.4627  0.0518 -0.4729
  122MOL0     C16714   4.969   0.669  11.439  0.0957  0.3021 -0.7778
  122MOL0     N16715   5.049   0.608  11.542  0.3188 -0.2617  0.0202
  122MOL0     C16716   5.170   0.546  11.539  0.1982 -0.5564  0.2457
  122MOL0     C16717   5.198   0.512  11.668 -0.1815 -0.0902 -0.0368
  122MOL0     C16718   5.327   0.437  11.706  0.8532  0.2826 -0.0143
  122MOL0     C16719   5.437   0.544  11.719 -0.3336  0.3429  0.3364
  122MOL0     C16720   5.576   0.474  11.747 -0.0896 -0.6061 -0.5956
  122MOL0     C16721   5.693   0.573  11.737 -0.2600  0.6020 -1.1986
  122MOL0     O16722   5.827   0.508  11.722  0.2498 -0.0797  0.9798
  122MOL0     C16723   5.941   0.582  11.702 -0.1905 -0.0501  0.0322
  122MOL0     C16724   5.951   0.721  11.710 -0.7383 -0.8424  0.1444
  122MOL0     C16725   6.073   0.794  11.689  0.7218  1.0153 -0.3881
  122MOL0     C16726   6.060   0.940  11.710  0.3660 -1.2500 -0.1456
  122MOL0     C16727   6.187   0.713  11.667 -0.7895 -0.9449 -0.4414
  122MOL0     C16728   6.328   0.765  11.645  0.3438  0.6154  0.2710
  122MOL0     O16729   6.339   0.896  11.619  0.2205  0.0333  0.9054
  122MOL0     C16730   6.460   0.940  11.571  0.4763 -0.6324 -0.2356
  122MOL0     C16731   6.502   0.922  11.440  0.2302 -0.0805  0.4318
  122MOL0     C16732   6.623   0.973  11.393 -0.6332  0.1361 -0.3413
  122MOL0     C16733   6.712   1.019  11.483 -0.2429  0.0096  0.4780
  122MOL0     O16734   6.828   1.069  11.436 -0.1886  0.5850 -0.0090
  122MOL0     C16735   6.949   0.992  11.446 -0.5890  0.1509 -0.7346
  122MOL0     C16736   7.048   1.071  11.530  0.2083 -0.1111 -0.0070
  122MOL0     C16737   7.190   1.011  11.500  0.2539  0.2878 -0.0958
  122MOL0     C16738   7.227   0.896  11.597 -0.0954  0.0213 -0.7215
  122MOL0     C16739   7.381   0.877  11.589 -0.0373 -0.4609  0.0333
  122MOL0     C16740   7.447   0.801  11.466 -0.4743  1.0043  0.1020
  122MOL0     C16741   7.583   0.754  11.522 -0.1116 -0.1847  0.0077
  122MOL0     C16742   7.669   0.702  11.414  0.0696  0.6093  0.6231
  122MOL0    Cl16743   7.598   0.555  11.367 -0.4968  0.0218  0.1735
  122MOL0     C16744   6.674   1.034  11.621 -0.2301  0.0862  0.2837
  122MOL0     C16745   6.542   1.002  11.662 -0.4611 -0.8495 -0.7439
  122MOL0     O16746   6.415   0.685  11.622  0.5406 -0.1523  0.1962
  122MOL0     C16747   6.181   0.571  11.672  0.7761  0.1590 -0.5401
  122MOL0     C16748   6.057   0.512  11.689  1.0446 -0.1918  0.0013
  122MOL0     N16749   5.093   0.538  11.747 -0.1268  0.2167 -0.2095
  122MOL0     N16750   5.006   0.584  11.673  0.1003  0.0782 -0.9463
  122MOL0     C16751   4.488   0.478  10.417 -0.1979  0.0486  0.2778
  122MOL0     C16752   4.499   0.473  10.275 -0.0361  0.2034 -0.1805
  122MOL0     C16753   4.543   0.334   9.868 -0.3176  0.8961  0.4843
  122MOL0     C16754   4.560   0.457   9.807 -0.0156  0.8193  0.0598
  122MOL0     C16755   4.535   0.479   9.670 -0.0350  0.3137  0.1156
  122MOL0     C16756   4.490   0.370   9.591 -0.2280 -0.5862 -1.2153
  122MOL0     O16757   4.460   0.395   9.459  0.1466  0.0974 -0.2440
  122MOL0     C16758   4.426   0.283   9.379  0.7560 -0.7193  0.2975
  122MOL0     C16759   4.358   0.324   9.252 -0.0702 -0.3903  0.2727
  122MOL0     C16760   4.210   0.376   9.280  0.3834 -0.0070 -0.1062
  122MOL0     C16761   4.121   0.359   9.164 -0.3657 -0.0253 -0.2614
  122MOL0     C16762   3.990   0.422   9.187 -0.5567  0.5294  1.0112
  122MOL0     C16763   3.880   0.474   9.192 -0.1591  0.1423  0.1754
  122MOL0     C16764   4.477   0.240   9.651  0.0413  0.0898  0.7244
  122MOL0     C16765   4.497   0.222   9.788 -0.0717 -0.0919 -0.4735
  122MOL0     C16766   4.460   0.090   9.853  0.5931  0.4551  0.1884
  122MOL0     H16767   4.839   0.434  10.262  1.1400  3.2279  0.5347
  122MOL0     H16768   4.818   0.447  10.490  0.0060 -2.0752 -1.0141
  122MOL0     H16769   4.762   0.353  10.681  1.2449  3.7866 -1.6334
  122MOL0     H16770   4.607   0.310  10.761 -1.4456 -1.1130 -4.1554
  122MOL0     H16771   4.793   0.424  10.897 -1.3899 -2.9494 -0.9497
  122MOL0     H16772   4.738   0.574  10.836 -1.0343 -0.3374 -0.0306
  122MOL0     H16773   4.500   0.490  10.921  0.0459 -2.1317 -0.7215
  122MOL0     H16774   4.596   0.359  10.998  2.6106 -0.3054 -1.2138
  122MOL0     H16775   4.660   0.651  11.038  0.6982  0.1422  0.3722
  122MOL0     H16776   4.548   0.576  11.153  0.1157 -0.4246  0.8667
  122MOL0     H16777   4.820   0.462  11.110 -1.5166 -0.8288 -1.7683
  122MOL0     H16778   4.711   0.413  11.238  2.5887  1.6647  3.7287
  122MOL0     H16779   4.806   0.696  11.202 -0.1543  0.6402  0.5036
  122MOL0     H16780   4.697   0.629  11.328 -0.5684 -0.6431  0.0111
  122MOL0     H16781   4.963   0.514  11.281  1.9403  0.8635  1.1180
  122MOL0     H16782   4.859   0.484  11.422  1.0948  0.4151  0.8000
  122MOL0     H16783   5.017   0.734  11.365 -0.8882  2.9568  0.7586
  122MOL0     H16784   4.882   0.725  11.477 -2.9555 -2.0213 -3.6680
  122MOL0     H16785   5.240   0.532  11.458 -2.1854  1.9998 -2.5291
  122MOL0     H16786   5.357   0.367  11.628 -0.2675  0.3583 -0.5276
  122MOL0     H16787   5.314   0.378  11.796 -1.1926  0.0563 -0.4267
  122MOL0     H16788   5.453   0.593  11.623  0.2017 -3.1219 -1.5204
  122MOL0     H16789   5.408   0.615  11.797 -1.0490  0.8437 -0.3736
  122MOL0     H16790   5.569   0.432  11.848 -3.2624  0.4676 -0.2589
  122MOL0     H16791   5.581   0.386  11.682  2.9028  0.8753 -2.5639
  122MOL0     H16792   5.675   0.645  11.657  1.6572  1.7824 -0.6414
  122MOL0     H16793   5.688   0.624  11.833 -0.1249  2.3072 -2.0587
  122MOL0     H16794   5.865   0.778  11.741 -0.1108 -1.3288  3.0514
  122MOL0     H16795   6.061   0.996  11.616  0.3779 -0.1187  0.5058
  122MOL0     H16796   6.133   0.986  11.778 -0.8986  0.2702  0.2387
  122MOL0     H16797   5.962   0.964  11.752  2.0167 -0.7981  3.8968
  122MOL0     H16798   6.427   0.866  11.384 -0.5569 -1.2533  2.5585
  122MOL0     H16799   6.652   0.963  11.288 -0.3954  1.9795 -0.4697
  122MOL0     H16800   6.932   0.891  11.483 -1.7314 -0.0628 -1.7690
  122MOL0     H16801   6.987   0.984  11.344  1.8321  2.5734 -0.1484
  122MOL0     H16802   7.047   1.179  11.510 -0.6552  0.4952  2.7738
  122MOL0     H16803   7.024   1.069  11.637  1.7091  3.8918  0.5722
  122MOL0     H16804   7.265   1.091  11.509 -1.9534  2.3366  1.0011
  122MOL0     H16805   7.200   0.971  11.399  1.1202 -0.2029  0.1694
  122MOL0     H16806   7.171   0.808  11.565 -1.0261  0.5116 -0.4631
  122MOL0     H16807   7.207   0.938  11.696 -0.1770  1.6773 -1.4121
  122MOL0     H16808   7.435   0.972  11.598 -1.5070  0.3869  0.3116
  122MOL0     H16809   7.406   0.811  11.673 -0.7706 -1.1314 -0.2590
  122MOL0     H16810   7.452   0.868  11.379  2.8719  0.6604 -0.0901
  122MOL0     H16811   7.394   0.712  11.430  1.1709 -0.2164  0.5948
  122MOL0     H16812   7.572   0.683  11.604  0.0537  0.2731  0.4325
  122MOL0     H16813   7.640   0.837  11.564  1.0417 -0.2499 -1.3428
  122MOL0     H16814   7.770   0.687  11.453 -0.7961 -0.4414  2.6117
  122MOL0     H16815   7.668   0.760  11.321 -0.4021 -2.9648 -1.8020
  122MOL0     H16816   6.746   1.064  11.696  0.3706 -0.0870 -0.2106
  122MOL0     H16817   6.524   1.000  11.770  0.6987  0.7769 -0.4908
  122MOL0     H16818   6.267   0.505  11.660  0.7305 -0.1322  0.6401
  122MOL0     H16819   6.048   0.404  11.681  2.0100 -0.1479 -2.8337
  122MOL0     H16820   4.395   0.499  10.469  0.4012  1.8446  0.6992
  122MOL0     H16821   4.408   0.475  10.216 -0.4739 -1.1407  0.4135
  122MOL0     H16822   4.581   0.546   9.866 -1.5205 -0.2105  2.2843
  122MOL0     H16823   4.531   0.581   9.634 -5.1485  0.3932  0.1541
  122MOL0     H16824   4.517   0.228   9.350  1.2483  0.5109 -0.5884
  122MOL0     H16825   4.344   0.220   9.415  0.4662 -0.7706 -0.4253
  122MOL0     H16826   4.361   0.243   9.179  0.7006 -1.4586  1.4420
  122MOL0     H16827   4.419   0.402   9.207  0.6301 -0.2773  1.3725
  122MOL0     H16828   4.170   0.319   9.364  0.3798  0.2421  0.0603
  122MOL0     H16829   4.224   0.481   9.304 -1.3946  0.6674 -1.7272
  122MOL0     H16830   4.102   0.253   9.144 -2.5072 -0.2082  2.3069
  122MOL0     H16831   4.158   0.409   9.074 -3.4006 -1.3450 -2.4245
  122MOL0     H16832   3.782   0.517   9.188  0.0105  0.5203  0.0654
  122MOL0     H16833   4.441   0.161   9.586 -1.2385 -0.5190  2.1090
  122MOL0     H16834   4.445   0.012   9.777  0.2659 -1.6633  2.3077
  122MOL0     H16835   4.540   0.054   9.919  1.9380  2.7554 -0.0640
  122MOL0     H16836   4.365   0.099   9.906  1.4982 -2.1095  2.5069
  123MOL0     O16837   0.652  11.180   5.082  0.2805  0.6169 -0.4493
  123MOL0     C16838   0.626  11.059   5.067 -0.4004 -0.1078  0.2960
  123MOL0     O16839   0.690  10.956   5.133 -0.9924  0.1648  0.1425
  123MOL0     C16840   0.812  10.963   5.190 -0.6898 -1.1611 -0.1309
  123MOL0     C16841   0.905  11.048   5.126 -0.6090  0.1893  0.4716
  123MOL0     C16842   1.036  11.052   5.186 -0.0568 -0.1036  0.5214
  123MOL0     C16843   1.068  10.982   5.298 -0.3913 -0.0636 -0.6709
  123MOL0     O16844   1.193  11.005   5.351 -0.1493 -0.3101  0.6517
  123MOL0     C16845   1.245  10.918   5.452 -0.4760  0.3454 -0.9876
  123MOL0     C16846   1.392  10.961   5.467  0.2867  0.6150 -0.1474
  123MOL0     C16847   1.477  10.886   5.363  0.6405 -0.2783  0.4333
  123MOL0     C16848   1.611  10.953   5.339 -0.2290  0.2490 -0.0465
  123MOL0     C16849   1.702  10.855   5.261 -0.5721  0.5197 -0.4031
  123MOL0     C16850   1.837  10.930   5.248 -0.3846 -0.1958  0.0836
  123MOL0     C16851   1.954  10.856   5.177 -0.1009 -0.0333  0.7831
  123MOL0     C16852   2.087  10.925   5.187  0.1640 -0.2014 -0.2220
  123MOL0     N16853   2.192  10.849   5.119  0.6562 -1.3387  0.0199
  123MOL0     C16854   2.203  10.715   5.113  0.8951 -1.6224  1.1827
  123MOL0     C16855   2.315  10.690   5.029  0.8346  0.1031 -0.0097
  123MOL0     C16856   2.364  10.554   5.001 -0.7117 -0.5401  0.9501
  123MOL0     C16857   2.462  10.537   4.881 -0.1769 -0.4156  0.5628
  123MOL0     C16858   2.594  10.611   4.900 -0.5481 -0.6841 -0.4472
  123MOL0     C16859   2.657  10.638   4.767  0.3175  1.1080 -0.5752
  123MOL0     O16860   2.784  10.700   4.780  0.2816  0.3577  0.5087
  123MOL0     C16861   2.896  10.619   4.751  0.2661 -1.1917  0.0751
  123MOL0     C16862   3.018  10.687   4.752  0.0675  0.5216  0.0371
  123MOL0     C16863   3.146  10.629   4.729 -0.2616 -0.0346 -0.2721
  123MOL0     C16864   3.254  10.725   4.716 -0.0786  0.6132  0.5490
  123MOL0     C16865   3.155  10.493   4.697  1.0730  0.6184 -0.3917
  123MOL0     C16866   3.281  10.420   4.662  0.1039  0.1016  0.9665
  123MOL0     O16867   3.263  10.292   4.628  0.2927 -0.0116  0.0518
  123MOL0     C16868   3.381  10.230   4.582 -0.9870 -0.6323  0.4918
  123MOL0     C16869   3.388  10.175   4.453 -0.2623  0.3237 -0.6356
  123MOL0     C16870   3.497  10.101   4.409  0.2214  0.4696  0.1158
  123MOL0     C16871   3.610  10.087   4.491 -0.2440  0.2433  0.0929
  123MOL0     O16872   3.718  10.006   4.463  0.9717  0.0495  0.6187
  123MOL0     C16873   3.727   9.931   4.341 -0.0889  0.0102  0.0767
  123MOL0     C16874   3.866   9.871   4.327  0.4313 -0.5844  0.7719
  123MOL0     C16875   3.964   9.988   4.302 -0.7402 -0.3713 -1.0547
  123MOL0     C16876   4.091   9.930   4.228  0.2467 -0.1595  0.7063
  123MOL0     C16877   4.198  10.038   4.214 -0.1057  0.1798  0.4967
  123MOL0     C16878   4.334   9.996   4.275 -0.2041  0.3266 -0.7881
  123MOL0     C16879   4.427  10.113   4.286  1.2231 -0.3392  0.0700
  123MOL0     C16880   4.567  10.078   4.235 -0.2419 -1.0305  0.2418
  123MOL0    Cl16881   4.573  10.022   4.065 -0.2836  0.3907  0.1032
  123MOL0     C16882   3.609  10.146   4.613 -0.1498 -0.3822 -0.0799
  123MOL0     C16883   3.493  10.201   4.665 -0.4429 -0.4309 -0.0489
  123MOL0     O16884   3.391  10.475   4.678 -0.3014 -0.4933 -0.5410
  123MOL0     C16885   3.030  10.424   4.710 -0.2727 -0.5134 -0.0335
  123MOL0     C16886   2.906  10.483   4.739  0.1020  0.8922  0.1899
  123MOL0     N16887   2.372  10.815   4.997 -0.2504  0.1926 -0.5744
  123MOL0     N16888   2.294  10.908   5.050 -0.6467  0.7062  0.0562
  123MOL0     C16889   0.967  10.901   5.359  0.6734  1.1352 -0.7092
  123MOL0     C16890   0.839  10.893   5.311  1.1259 -0.0255  0.4204
  123MOL0     C16891   0.519  11.017   4.976  1.0861  0.0360  0.2428
  123MOL0     C16892   0.409  11.101   4.950 -0.4056 -0.1124  0.1148
  123MOL0     C16893   0.296  11.065   4.873 -0.2039 -0.2245  0.5577
  123MOL0     C16894   0.295  10.941   4.811 -0.1107  0.6074 -0.8132
  123MOL0     O16895   0.192  10.889   4.736 -0.1223 -0.2961 -0.4407
  123MOL0     C16896   0.069  10.954   4.714 -0.2880  0.4824 -1.1288
  123MOL0     C16897   0.072  11.059   4.606 -0.1513 -0.6722 -0.9910
  123MOL0     C16898  -0.080  11.076   4.561  0.0133 -0.2669  0.4713
  123MOL0     C16899  -0.132  10.968   4.467 -0.0361 -0.6983  0.2865
  123MOL0     C16900  -0.261  10.915   4.518  0.2582  0.2948 -0.1016
  123MOL0     C16901  -0.353  10.873   4.581  0.5553  1.0301  0.3216
  123MOL0     C16902   0.409  10.863   4.817 -0.8687 -0.4075  0.2088
  123MOL0     C16903   0.525  10.895   4.904  0.9375 -0.1325 -0.3654
  123MOL0     C16904   0.651  10.820   4.880 -0.0404  0.7602 -0.4979
  123MOL0     H16905   0.891  11.095   5.029  1.2462  1.7171  0.8788
  123MOL0     H16906   1.113  11.108   5.133  0.4290 -0.9935  0.2655
  123MOL0     H16907   1.235  10.813   5.423  0.1871  0.8514 -3.3275
  123MOL0     H16908   1.181  10.941   5.538 -0.8281  0.3253 -1.2427
  123MOL0     H16909   1.399  11.069   5.450 -1.3078  0.6901 -0.5077
  123MOL0     H16910   1.431  10.935   5.566 -1.0189 -0.2588  0.1596
  123MOL0     H16911   1.490  10.785   5.404  3.8140  1.1775  3.5848
  123MOL0     H16912   1.426  10.881   5.267 -1.4348  0.7933  1.3984
  123MOL0     H16913   1.605  11.046   5.281  0.5613 -1.6337 -3.4299
  123MOL0     H16914   1.660  10.982   5.432  1.8505  1.7219 -1.5066
  123MOL0     H16915   1.658  10.849   5.161  0.7747  1.7983 -1.1135
  123MOL0     H16916   1.710  10.758   5.310  1.2049 -0.4462 -2.4487
  123MOL0     H16917   1.819  11.024   5.195  1.3136  0.3177  0.3706
  123MOL0     H16918   1.884  10.955   5.343  1.7960  0.1061 -1.0014
  123MOL0     H16919   1.916  10.833   5.077 -1.4445  0.1123  1.2420
  123MOL0     H16920   1.956  10.765   5.238 -1.1067 -0.6285 -0.0517
  123MOL0     H16921   2.093  11.024   5.140  1.4616  0.2361  0.8098
  123MOL0     H16922   2.122  10.932   5.290  0.7223  0.8307 -0.4623
  123MOL0     H16923   2.135  10.645   5.161 -0.2906 -0.5333  1.1457
  123MOL0     H16924   2.274  10.494   4.981 -0.4686 -0.5170 -0.3349
  123MOL0     H16925   2.416  10.522   5.092 -0.9284 -1.3438  0.8051
  123MOL0     H16926   2.484  10.430   4.872 -2.8834 -1.0400  0.5344
  123MOL0     H16927   2.417  10.560   4.784 -1.3079 -1.4863  0.8107
  123MOL0     H16928   2.565  10.703   4.949 -0.2961 -1.3418  0.9728
  123MOL0     H16929   2.663  10.551   4.960 -0.4877  0.8205  1.0553
  123MOL0     H16930   2.662  10.547   4.708 -1.9535  0.7623 -0.3123
  123MOL0     H16931   2.594  10.706   4.709  1.1609  1.3833 -1.1937
  123MOL0     H16932   3.009  10.793   4.772 -1.2477  0.3841  0.2107
  123MOL0     H16933   3.270  10.753   4.611 -4.3854  1.6340 -0.0315
  123MOL0     H16934   3.345  10.675   4.751 -1.2936 -3.4692 -1.4817
  123MOL0     H16935   3.239  10.817   4.773 -0.1719 -0.0387  1.6131
  123MOL0     H16936   3.307  10.196   4.384  0.9805  1.2560 -1.8439
  123MOL0     H16937   3.497  10.053   4.312 -1.0780 -0.9375  0.7653
  123MOL0     H16938   3.657   9.847   4.356 -0.3166 -0.1580 -1.6997
  123MOL0     H16939   3.699   9.979   4.247 -3.2415 -0.3135  0.7372
  123MOL0     H16940   3.893   9.812   4.415  0.1893 -1.5619  0.2046
  123MOL0     H16941   3.873   9.800   4.244  3.5244  1.2486 -0.7213
  123MOL0     H16942   3.990  10.037   4.396 -0.3347  0.3047 -1.5048
  123MOL0     H16943   3.920  10.068   4.241 -3.7410  0.0818  1.4506
  123MOL0     H16944   4.061   9.895   4.128  0.2468  1.5513  0.0708
  123MOL0     H16945   4.124   9.853   4.298 -0.9084  1.0510  2.6393
  123MOL0     H16946   4.219  10.065   4.111  2.7501 -1.8838  0.4062
  123MOL0     H16947   4.169  10.130   4.265  0.1650  0.7530 -0.3721
  123MOL0     H16948   4.375   9.921   4.207 -0.5681  0.4001 -1.0906
  123MOL0     H16949   4.324   9.953   4.375  1.3688  0.9559 -0.3257
  123MOL0     H16950   4.428  10.137   4.393 -1.4268  1.2798 -0.1848
  123MOL0     H16951   4.387  10.203   4.240  0.4074  0.6148  2.4671
  123MOL0     H16952   4.612   9.997   4.292  2.6889  0.0478 -0.3709
  123MOL0     H16953   4.629  10.168   4.235 -1.0894 -0.4319  0.3922
  123MOL0     H16954   3.687  10.122   4.684 -1.8292  0.5054  2.2021
  123MOL0     H16955   3.502  10.243   4.764  1.4338  0.7949 -0.6932
  123MOL0     H16956   3.031  10.315   4.707 -0.2713 -0.4975 -2.1056
  123MOL0     H16957   2.823  10.415   4.751  0.5824 -0.3005 -2.4508
  123MOL0     H16958   0.986  10.855   5.456  0.9797  2.5936 -0.0482
  123MOL0     H16959   0.766  10.835   5.366 -0.1870  0.7078 -0.5032
  123MOL0     H16960   0.409  11.198   5.000  1.3384  1.4899 -2.7826
  123MOL0     H16961   0.209  11.129   4.870  0.2824  0.5313 -3.1328
  123MOL0     H16962  -0.001  10.879   4.677  1.3753 -0.2218 -3.0382
  123MOL0     H16963   0.032  10.997   4.808  3.0143 -1.0121  1.0575
  123MOL0     H16964   0.143  11.029   4.528  0.8236 -0.5639 -0.1743
  123MOL0     H16965   0.095  11.154   4.654 -0.1960 -1.0678 -0.1686
  123MOL0     H16966  -0.133  11.074   4.656 -1.7531  0.8482 -0.4460
  123MOL0     H16967  -0.091  11.177   4.520  1.1054 -0.0163  0.7434
  123MOL0     H16968  -0.056  10.890   4.461  0.5592 -0.1004 -0.1378
  123MOL0     H16969  -0.147  11.009   4.367  0.5553 -1.0924  0.0310
  123MOL0     H16970  -0.431  10.839   4.645  1.2387 -1.4025 -0.0344
  123MOL0     H16971   0.424  10.774   4.756  3.5036  1.1515 -1.3892
  123MOL0     H16972   0.660  10.759   4.790 -1.0460  0.8413 -0.6642
  123MOL0     H16973   0.733  10.892   4.869  2.6852 -2.0849 -0.1497
  123MOL0     H16974   0.672  10.758   4.968  3.0893  2.0398 -0.2042
  124MOL0     O16975   7.108   2.089   5.552 -0.1226  0.4481  0.7659
  124MOL0     C16976   7.110   2.164   5.645 -0.2878  0.3358  0.2266
  124MOL0     O16977   7.203   2.159   5.748 -0.4455 -0.5037  0.1394
  124MOL0     C16978   7.269   2.042   5.757  0.5224  0.1850  0.1197
  124MOL0     C16979   7.202   1.923   5.795 -0.4216 -0.2697 -0.2126
  124MOL0     C16980   7.271   1.803   5.805 -0.5579  0.5919  0.7214
  124MOL0     C16981   7.415   1.797   5.784  0.1787 -0.4711 -0.7694
  124MOL0     O16982   7.502   1.685   5.781  0.0491  0.3798 -0.2594
  124MOL0     C16983   7.447   1.560   5.815  0.0643 -0.2371  0.2752
  124MOL0     C16984   7.559   1.457   5.840 -0.9642 -0.1646 -0.7452
  124MOL0     C16985   7.687   1.504   5.917  0.1701  0.3337 -0.3146
  124MOL0     C16986   7.650   1.544   6.065  0.7329  0.5506  0.1962
  124MOL0     C16987   7.779   1.593   6.138 -0.0442 -0.6057  0.3709
  124MOL0     C16988   7.745   1.623   6.280 -0.5018  0.2888  0.0999
  124MOL0     C16989   7.858   1.677   6.359 -0.3394 -0.1425 -0.1558
  124MOL0     C16990   7.848   1.645   6.508  0.1817 -0.4966  0.3082
  124MOL0     N16991   7.752   1.732   6.579  0.0621 -0.2990  0.1461
  124MOL0     C16992   7.614   1.727   6.561  0.0998 -0.2877 -0.4528
  124MOL0     C16993   7.565   1.798   6.675  0.3863 -0.2606  0.4683
  124MOL0     C16994   7.426   1.831   6.723 -0.1366  0.3845 -0.6267
  124MOL0     C16995   7.354   1.931   6.634  0.4641 -0.4875  0.4289
  124MOL0     C16996   7.205   1.945   6.675  0.0251 -0.2567 -0.0925
  124MOL0     C16997   7.105   1.840   6.623  0.1174  0.5489 -0.3850
  124MOL0     O16998   6.976   1.881   6.675 -0.2834 -0.8198  0.0426
  124MOL0     C16999   6.873   1.842   6.592 -0.4675  0.2076  0.7723
  124MOL0     C17000   6.786   1.927   6.524 -0.0220  0.2430  0.8538
  124MOL0     C17001   6.686   1.882   6.436 -0.2095 -0.0894  0.1020
  124MOL0     C17002   6.595   1.996   6.364  0.2809 -0.8140 -0.3831
  124MOL0     C17003   6.671   1.744   6.408 -0.7093 -0.3869 -0.7485
  124MOL0     C17004   6.578   1.674   6.311  0.2036  0.1536 -0.1995
  124MOL0     O17005   6.574   1.536   6.315 -0.5101  0.1990 -0.2129
  124MOL0     C17006   6.491   1.462   6.236 -0.7754  0.8533  0.2021
  124MOL0     C17007   6.357   1.484   6.243 -0.1460  0.6806 -0.2484
  124MOL0     C17008   6.269   1.404   6.175  0.0378  0.5125  0.0290
  124MOL0     C17009   6.321   1.286   6.113 -0.2441  0.1219 -0.5329
  124MOL0     O17010   6.242   1.191   6.052 -0.6739 -0.5390  0.4773
  124MOL0     C17011   6.125   1.233   5.986  0.1249 -0.5288  0.0751
  124MOL0     C17012   5.992   1.188   6.067 -0.2459  0.1169 -0.8571
  124MOL0     C17013   5.971   1.036   6.054  0.5799  0.8257 -0.1353
  124MOL0     C17014   5.842   0.973   6.105  0.6564  0.7661 -0.6694
  124MOL0     C17015   5.840   0.988   6.263  0.1327 -0.5196 -0.1576
  124MOL0     C17016   5.706   0.940   6.322  0.0959  0.1793 -0.7817
  124MOL0     C17017   5.720   0.977   6.467 -0.4411 -0.4785  0.1260
  124MOL0     C17018   5.604   0.929   6.547 -0.3614 -0.9095 -0.3287
  124MOL0    Cl17019   5.449   1.001   6.486  0.0894 -0.0890 -0.1910
  124MOL0     C17020   6.462   1.266   6.110 -0.1489 -0.2515 -0.2069
  124MOL0     C17021   6.546   1.358   6.155 -0.2010  0.1947 -0.3097
  124MOL0     O17022   6.508   1.742   6.236 -1.0105  0.4509 -0.3232
  124MOL0     C17023   6.758   1.655   6.484 -0.1296 -0.0699  0.1239
  124MOL0     C17024   6.852   1.702   6.575  0.2888 -0.2560  0.2433
  124MOL0     N17025   7.679   1.837   6.749 -0.0279 -0.1036  0.1333
  124MOL0     N17026   7.789   1.798   6.693  0.6052  0.7896 -0.1913
  124MOL0     C17027   7.475   1.924   5.758  0.3041 -0.9037 -0.2721
  124MOL0     C17028   7.408   2.045   5.752  0.2483  0.5324 -0.2062
  124MOL0     C17029   7.012   2.272   5.643 -0.3535  0.2785  0.2158
  124MOL0     C17030   6.877   2.242   5.632 -0.2123  0.7815  0.0937
  124MOL0     C17031   6.785   2.349   5.663  2.0237  0.1428  0.1321
  124MOL0     C17032   6.827   2.479   5.681  0.0744  0.2198  0.1824
  124MOL0     O17033   6.730   2.578   5.689 -0.5682  0.1139 -0.0974
  124MOL0     C17034   6.734   2.681   5.792 -0.5480 -0.1586 -0.0643
  124MOL0     C17035   6.674   2.628   5.921 -0.8135  0.2603 -0.6448
  124MOL0     C17036   6.537   2.566   5.902  0.3177 -0.3442  0.0231
  124MOL0     C17037   6.472   2.489   6.016 -0.7603  0.4731 -0.3464
  124MOL0     C17038   6.326   2.507   6.015 -0.2788  0.6595  0.4091
  124MOL0     C17039   6.215   2.538   6.007 -0.6437 -0.7299  1.2058
  124MOL0     C17040   6.963   2.508   5.665  0.1324  0.2153  0.4996
  124MOL0     C17041   7.052   2.406   5.663 -0.3360  0.2109 -0.1015
  124MOL0     C17042   7.197   2.443   5.665 -0.0945 -0.1408  0.3906
  124MOL0     H17043   7.094   1.930   5.806 -0.3450 -0.6808  0.9399
  124MOL0     H17044   7.227   1.704   5.798 -0.0113  0.3545  0.5346
  124MOL0     H17045   7.396   1.520   5.726  0.6415  1.3834 -0.8273
  124MOL0     H17046   7.388   1.566   5.907 -1.1523  0.6847 -0.5218
  124MOL0     H17047   7.512   1.369   5.884 -0.9400  0.5921  0.8629
  124MOL0     H17048   7.594   1.419   5.743 -0.3511 -2.8261  0.4237
  124MOL0     H17049   7.763   1.427   5.910 -0.8943 -0.7258 -0.4807
  124MOL0     H17050   7.721   1.594   5.865 -0.8292  0.0460 -1.5356
  124MOL0     H17051   7.566   1.612   6.079 -0.4016 -0.7542 -0.0947
  124MOL0     H17052   7.615   1.448   6.102  2.7587 -1.6029 -2.9799
  124MOL0     H17053   7.819   1.675   6.077 -1.2913 -2.5377 -3.3910
  124MOL0     H17054   7.855   1.514   6.138  0.4548 -0.1356  0.0007
  124MOL0     H17055   7.659   1.689   6.280 -2.0927 -1.6448 -1.7358
  124MOL0     H17056   7.714   1.528   6.325  0.1377 -0.2230 -0.4973
  124MOL0     H17057   7.881   1.783   6.346  1.3835 -0.6195 -1.2238
  124MOL0     H17058   7.948   1.628   6.321 -1.0356 -1.2152 -0.4741
  124MOL0     H17059   7.808   1.544   6.519  0.5362 -0.6681  0.0322
  124MOL0     H17060   7.946   1.646   6.557 -0.1288 -0.9079  0.9620
  124MOL0     H17061   7.560   1.668   6.487  0.9055  0.0601 -1.3461
  124MOL0     H17062   7.427   1.868   6.826  1.1348  0.0172 -0.4918
  124MOL0     H17063   7.363   1.742   6.719  2.3554 -1.5655  0.8989
  124MOL0     H17064   7.405   2.027   6.640  0.9787 -0.7789  0.7197
  124MOL0     H17065   7.368   1.907   6.528  0.8914  1.9556 -0.1384
  124MOL0     H17066   7.197   1.953   6.784  0.8628 -0.9538  0.0261
  124MOL0     H17067   7.174   2.042   6.634 -2.8622 -0.6534  0.8970
  124MOL0     H17068   7.108   1.826   6.515  1.3174 -1.3535 -0.1477
  124MOL0     H17069   7.133   1.742   6.664  1.1015  0.7905 -0.4435
  124MOL0     H17070   6.809   2.033   6.530  4.2926 -0.4260 -0.4481
  124MOL0     H17071   6.593   1.993   6.255  3.7666  0.6379 -0.6125
  124MOL0     H17072   6.632   2.093   6.398 -1.4988 -0.4349  0.6161
  124MOL0     H17073   6.493   1.990   6.404 -0.1295 -0.6087 -1.3674
  124MOL0     H17074   6.309   1.565   6.299  1.3454  3.0599 -2.2213
  124MOL0     H17075   6.163   1.428   6.169 -0.1466 -0.3505 -0.2895
  124MOL0     H17076   6.136   1.340   5.968 -0.1426 -0.7707 -1.7900
  124MOL0     H17077   6.123   1.200   5.882  0.0429 -0.1029 -0.0611
  124MOL0     H17078   6.000   1.221   6.171 -0.4760  1.4454 -1.2488
  124MOL0     H17079   5.909   1.243   6.022  0.0396  2.7457  1.5716
  124MOL0     H17080   6.053   0.985   6.106  1.2892  1.1417 -0.9187
  124MOL0     H17081   5.998   1.019   5.949  0.4292  0.2703 -0.0851
  124MOL0     H17082   5.844   0.864   6.088  1.2975  0.7449 -0.4610
  124MOL0     H17083   5.745   1.002   6.062 -1.5291 -2.0806  1.8613
  124MOL0     H17084   5.916   0.918   6.298  0.8420  0.4247  0.2278
  124MOL0     H17085   5.856   1.091   6.297  0.5191 -0.5568 -0.2268
  124MOL0     H17086   5.693   0.833   6.307  0.2933 -0.1710  1.1791
  124MOL0     H17087   5.622   0.997   6.281 -2.3059  0.3202  3.6242
  124MOL0     H17088   5.732   1.085   6.478  1.2140 -0.8961  4.2646
  124MOL0     H17089   5.807   0.929   6.514  0.8301 -3.2842 -4.3681
  124MOL0     H17090   5.623   0.970   6.647 -0.7673 -0.2089 -0.5274
  124MOL0     H17091   5.601   0.820   6.544 -0.1424 -0.9059 -0.7399
  124MOL0     H17092   6.497   1.180   6.053 -1.1325 -1.1056  0.4408
  124MOL0     H17093   6.653   1.346   6.155 -0.3260 -1.0571 -0.5005
  124MOL0     H17094   6.758   1.547   6.470  1.1566  0.0059 -0.5616
  124MOL0     H17095   6.919   1.631   6.622  0.0836 -2.2284 -2.1990
  124MOL0     H17096   7.582   1.939   5.743 -0.1749  4.6103 -0.1161
  124MOL0     H17097   7.462   2.135   5.723 -0.2846  1.0404  0.3647
  124MOL0     H17098   6.844   2.139   5.628  1.5022  0.2341 -1.4663
  124MOL0     H17099   6.678   2.333   5.653  1.7368  1.8252  0.2256
  124MOL0     H17100   6.836   2.714   5.810 -0.2649  1.1591 -3.3189
  124MOL0     H17101   6.679   2.771   5.764  2.6708  1.7608 -0.7137
  124MOL0     H17102   6.662   2.701   6.000 -3.1842 -0.1214 -0.5802
  124MOL0     H17103   6.745   2.549   5.948 -0.4441  0.1640 -1.8171
  124MOL0     H17104   6.474   2.652   5.876  2.9072  1.4407 -0.7140
  124MOL0     H17105   6.539   2.486   5.827  0.7070 -1.3627  1.0947
  124MOL0     H17106   6.497   2.533   6.113 -0.4903 -0.6792  0.1244
  124MOL0     H17107   6.500   2.383   6.016  0.4471  0.7286 -2.4942
  124MOL0     H17108   6.109   2.557   6.000 -1.1966 -3.4861  1.0726
  124MOL0     H17109   6.998   2.611   5.666  0.0054  0.2655  0.0412
  124MOL0     H17110   7.199   2.544   5.623  4.6032 -0.2417 -0.1749
  124MOL0     H17111   7.235   2.439   5.767  1.1317 -1.6259 -0.0903
  124MOL0     H17112   7.267   2.380   5.609  1.1329 -0.3398  2.1088
  125MOL0     O17113   1.014   7.176   0.248  0.8584 -0.0421  0.5607
  125MOL0     C17114   0.898   7.228   0.241 -0.3692 -0.6071 -0.1637
  125MOL0     O17115   0.834   7.302   0.338  0.3657 -0.1464  0.2182
  125MOL0     C17116   0.910   7.351   0.447 -0.3910 -0.4337  0.7438
  125MOL0     C17117   1.046   7.384   0.442  0.2736 -0.6815  0.0473
  125MOL0     C17118   1.106   7.450   0.556  0.0541  0.0322  0.0471
  125MOL0     C17119   1.037   7.468   0.677 -0.4334 -0.5014  0.5639
  125MOL0     O17120   1.100   7.506   0.795  0.5532  0.2189  0.0999
  125MOL0     C17121   1.188   7.617   0.805  0.1746  0.7262  0.8338
  125MOL0     C17122   1.316   7.548   0.857  0.1638  0.0751 -0.1877
  125MOL0     C17123   1.427   7.642   0.902  0.4204 -0.1815 -0.7270
  125MOL0     C17124   1.544   7.567   0.957 -0.7360  0.1583 -0.8260
  125MOL0     C17125   1.677   7.634   0.973  0.3434  0.1679 -0.1395
  125MOL0     C17126   1.682   7.750   1.082 -0.4380  0.3453 -0.7012
  125MOL0     C17127   1.827   7.766   1.135 -0.4037 -0.7803 -0.8533
  125MOL0     C17128   1.827   7.708   1.286 -0.6457 -0.4426  0.3899
  125MOL0     N17129   1.933   7.771   1.372 -0.1980 -0.4510 -1.1609
  125MOL0     C17130   2.046   7.842   1.331  0.2538  0.0592  0.4704
  125MOL0     C17131   2.131   7.838   1.434 -0.2005  0.3571  0.9449
  125MOL0     C17132   2.265   7.917   1.450  0.1919  1.3010  0.1654
  125MOL0     C17133   2.388   7.817   1.447  0.1818 -0.8330 -0.3261
  125MOL0     C17134   2.519   7.898   1.436 -0.3957  0.1664  0.5696
  125MOL0     C17135   2.639   7.812   1.464 -0.4365  0.1445  0.3597
  125MOL0     O17136   2.754   7.884   1.400 -0.3789 -0.2866  0.3046
  125MOL0     C17137   2.873   7.859   1.456  0.1173  0.7433 -0.2343
  125MOL0     C17138   2.956   7.965   1.501 -0.2920  0.0686  0.5187
  125MOL0     C17139   3.074   7.941   1.572  0.8941 -0.5349 -0.1448
  125MOL0     C17140   3.154   8.071   1.606 -0.5542 -0.0355  0.2717
  125MOL0     C17141   3.127   7.815   1.591  0.4479  0.5366  0.9680
  125MOL0     C17142   3.258   7.787   1.653 -0.2761  0.4831  1.0101
  125MOL0     O17143   3.317   7.662   1.614 -0.8727 -0.1493 -0.7629
  125MOL0     C17144   3.435   7.617   1.673  0.3230 -0.0414  0.5382
  125MOL0     C17145   3.454   7.489   1.709  0.5267 -0.6624 -0.1964
  125MOL0     C17146   3.561   7.446   1.794  0.2789 -0.0077 -0.1514
  125MOL0     C17147   3.673   7.528   1.802  1.1853  0.6071 -0.3789
  125MOL0     O17148   3.782   7.485   1.875  0.4547 -0.2675  0.2836
  125MOL0     C17149   3.902   7.567   1.880 -0.3026 -0.9654  0.1983
  125MOL0     C17150   4.023   7.504   1.955  0.1287  0.1799 -0.0155
  125MOL0     C17151   4.106   7.399   1.872 -0.3027 -1.1056  0.6295
  125MOL0     C17152   4.244   7.379   1.928  0.9223 -0.1058  0.3880
  125MOL0     C17153   4.317   7.280   1.829  1.0484  0.6463 -0.1134
  125MOL0     C17154   4.475   7.305   1.856  0.2965 -0.0447  0.1227
  125MOL0     C17155   4.559   7.221   1.755 -0.4524  0.9176 -0.1925
  125MOL0     C17156   4.564   7.074   1.786  0.5718  0.5804 -0.3784
  125MOL0    Cl17157   4.614   7.047   1.953 -0.1136  0.1849  0.1767
  125MOL0     C17158   3.660   7.662   1.755 -0.1258  0.5984 -0.0390
  125MOL0     C17159   3.534   7.706   1.702 -0.7723  0.4205  0.0798
  125MOL0     O17160   3.296   7.859   1.742 -0.5958  0.2270 -0.6506
  125MOL0     C17161   3.046   7.709   1.535 -0.2743 -0.2822  0.3689
  125MOL0     C17162   2.923   7.727   1.470  0.6296  0.2644  0.2605
  125MOL0     N17163   2.072   7.760   1.533  0.6208 -0.4944 -0.5899
  125MOL0     N17164   1.958   7.720   1.497 -0.7876  0.3775 -0.2197
  125MOL0     C17165   0.904   7.434   0.684  0.8168  0.2028  0.0770
  125MOL0     C17166   0.842   7.380   0.566  0.3685  0.2527 -0.3364
  125MOL0     C17167   0.821   7.205   0.112 -0.4683  0.5043 -0.5841
  125MOL0     C17168   0.682   7.203   0.113  0.2775 -0.5507  0.2954
  125MOL0     C17169   0.601   7.165   0.013 -0.2431 -1.0649  0.0304
  125MOL0     C17170   0.662   7.149  -0.110 -0.3267 -0.5584 -0.2325
  125MOL0     O17171   0.590   7.104  -0.214  0.4206 -0.1914  0.1004
  125MOL0     C17172   0.578   7.195  -0.320  0.5971  0.5769 -0.2953
  125MOL0     C17173   0.457   7.295  -0.291 -0.1292  0.0442  0.4392
  125MOL0     C17174   0.450   7.403  -0.397 -0.1505 -0.3833  0.2224
  125MOL0     C17175   0.355   7.510  -0.375  0.6353 -0.2472  0.3812
  125MOL0     C17176   0.220   7.465  -0.371 -0.3192 -0.5806 -0.6208
  125MOL0     C17177   0.104   7.437  -0.377  0.5493  0.7561  1.1068
  125MOL0     C17178   0.802   7.160  -0.131 -0.3841 -0.2593  1.0384
  125MOL0     C17179   0.884   7.190  -0.018  0.5688  0.4794  0.4045
  125MOL0     C17180   1.035   7.193  -0.049 -0.1373 -0.3747  0.7160
  125MOL0     H17181   1.094   7.369   0.346 -0.5887 -0.9932 -0.3476
  125MOL0     H17182   1.212   7.472   0.546  0.8341 -2.9964  0.8087
  125MOL0     H17183   1.144   7.701   0.860 -2.1786  2.0581 -2.6527
  125MOL0     H17184   1.209   7.655   0.705  0.3789 -1.9536 -0.2257
  125MOL0     H17185   1.283   7.486   0.941 -3.4413 -1.1890 -2.3079
  125MOL0     H17186   1.352   7.480   0.780  0.9941  1.1635 -0.7811
  125MOL0     H17187   1.463   7.685   0.808  3.0060 -3.1471 -1.2703
  125MOL0     H17188   1.395   7.720   0.972  0.0658 -1.1104  0.1753
  125MOL0     H17189   1.516   7.534   1.058  1.3467  0.8019  0.0098
  125MOL0     H17190   1.559   7.472   0.905 -1.0310 -2.2929  3.1034
  125MOL0     H17191   1.715   7.687   0.885 -2.6412  2.8707  0.0195
  125MOL0     H17192   1.746   7.556   1.006  0.7206  1.1627  1.5947
  125MOL0     H17193   1.652   7.840   1.029 -2.9667  0.5255  0.8606
  125MOL0     H17194   1.609   7.742   1.163  1.6899 -0.8615  1.2490
  125MOL0     H17195   1.853   7.872   1.143 -0.4894 -0.7636 -0.7853
  125MOL0     H17196   1.905   7.716   1.078  1.5485 -0.7313  1.6151
  125MOL0     H17197   1.730   7.709   1.336 -0.4977 -0.8787  0.6956
  125MOL0     H17198   1.847   7.600   1.280  0.6947 -0.4291  3.2125
  125MOL0     H17199   2.054   7.895   1.236 -1.4804 -0.6122 -0.0910
  125MOL0     H17200   2.260   7.974   1.544 -2.1047 -0.4784  1.2135
  125MOL0     H17201   2.277   7.988   1.368 -2.4178  0.3390 -1.1447
  125MOL0     H17202   2.383   7.756   1.538 -0.9355  0.7450  0.7428
  125MOL0     H17203   2.390   7.756   1.357 -1.9304 -2.1549  0.4434
  125MOL0     H17204   2.521   7.950   1.339 -2.3121  0.6604  0.7671
  125MOL0     H17205   2.510   7.973   1.515 -1.2281 -0.3442  0.9655
  125MOL0     H17206   2.644   7.812   1.573 -0.9791 -2.8215  0.4700
  125MOL0     H17207   2.629   7.711   1.423  1.3221 -0.1478  0.5716
  125MOL0     H17208   2.923   8.068   1.488  0.5878  0.1504 -1.4397
  125MOL0     H17209   3.252   8.054   1.561 -1.1306 -1.5437 -0.4910
  125MOL0     H17210   3.171   8.085   1.713 -1.6707 -1.8197  0.7327
  125MOL0     H17211   3.112   8.162   1.563 -0.2269  0.6265  1.3229
  125MOL0     H17212   3.370   7.428   1.680 -0.0883 -0.1426  0.4455
  125MOL0     H17213   3.565   7.349   1.841  0.6501  0.1348  0.1182
  125MOL0     H17214   3.940   7.595   1.781  1.3723  0.3724  1.1681
  125MOL0     H17215   3.880   7.658   1.936  0.2244 -1.8583  1.9159
  125MOL0     H17216   4.085   7.590   1.982 -2.1170  2.1954 -0.9033
  125MOL0     H17217   3.984   7.450   2.042 -0.0670  0.1018 -0.1500
  125MOL0     H17218   4.126   7.453   1.778  1.3204 -2.2506  0.2737
  125MOL0     H17219   4.052   7.306   1.857 -2.0849 -0.2055  1.1417
  125MOL0     H17220   4.248   7.339   2.030  1.9890  1.0504  0.8211
  125MOL0     H17221   4.301   7.472   1.927 -1.0413  1.1514 -0.9949
  125MOL0     H17222   4.280   7.178   1.846 -2.9637  1.9130 -0.0980
  125MOL0     H17223   4.289   7.318   1.730  1.3296  2.9926  0.6611
  125MOL0     H17224   4.486   7.272   1.959 -0.4165 -2.1752 -0.4462
  125MOL0     H17225   4.502   7.411   1.851 -1.9349  0.7117  2.1611
  125MOL0     H17226   4.663   7.254   1.757  0.5940 -2.0955  1.5301
  125MOL0     H17227   4.518   7.233   1.654 -0.2331  1.5471 -0.2095
  125MOL0     H17228   4.626   7.026   1.709 -1.6534 -1.5108 -0.9926
  125MOL0     H17229   4.464   7.032   1.773  0.4189  1.2769 -1.6172
  125MOL0     H17230   3.745   7.731   1.756 -0.2878  0.8252  1.7550
  125MOL0     H17231   3.531   7.810   1.671  3.4889  0.7038 -0.0733
  125MOL0     H17232   3.094   7.612   1.531 -0.6927 -0.5004  0.5782
  125MOL0     H17233   2.873   7.637   1.436  1.0887  0.3862 -0.7440
  125MOL0     H17234   0.846   7.444   0.776  0.6284 -0.0157 -0.0201
  125MOL0     H17235   0.739   7.350   0.552  0.1729  1.5031 -1.7621
  125MOL0     H17236   0.629   7.222   0.206 -0.2368 -1.9073  0.2912
  125MOL0     H17237   0.494   7.162   0.026 -0.2094 -0.5090  0.4693
  125MOL0     H17238   0.676   7.243  -0.331  2.5222 -2.0881  3.1452
  125MOL0     H17239   0.554   7.139  -0.411  3.2728 -1.5677  0.1836
  125MOL0     H17240   0.475   7.338  -0.192  2.2726  1.0732 -0.3648
  125MOL0     H17241   0.360   7.244  -0.297  0.1086 -0.4355  0.5922
  125MOL0     H17242   0.549   7.450  -0.400  0.0858 -0.8706  0.3944
  125MOL0     H17243   0.445   7.359  -0.497  1.4507 -2.1458  0.8533
  125MOL0     H17244   0.366   7.580  -0.459  2.6502 -1.1645 -0.1991
  125MOL0     H17245   0.382   7.554  -0.279 -1.3525 -0.6226  1.1472
  125MOL0     H17246  -0.003   7.438  -0.375  0.4040 -0.4139 -1.7211
  125MOL0     H17247   0.846   7.149  -0.229 -2.5437  1.9296 -0.2891
  125MOL0     H17248   1.078   7.291  -0.024 -0.5063 -0.5739  2.1848
  125MOL0     H17249   1.104   7.122  -0.002  2.2377  1.9856  1.0336
  125MOL0     H17250   1.056   7.178  -0.156  2.2820 -1.9878  1.3245
  126MOL0     O17251   2.078   7.767   5.919 -0.2508  0.3819  0.3613
  126MOL0     C17252   2.177   7.732   5.985  0.1723  0.1631 -0.7721
  126MOL0     O17253   2.175   7.637   6.091  0.5226 -0.1515 -0.0026
  126MOL0     C17254   2.125   7.513   6.075  0.9214 -0.0789  0.0363
  126MOL0     C17255   2.107   7.443   6.199  0.9689  0.2662  0.0353
  126MOL0     C17256   2.054   7.319   6.200 -0.4996 -0.1025  0.4356
  126MOL0     C17257   2.025   7.258   6.077  0.2959 -0.0943 -0.3518
  126MOL0     O17258   1.972   7.130   6.081 -0.2843 -0.3270 -0.2670
  126MOL0     C17259   2.005   7.029   5.988 -1.0175  0.6014  0.4375
  126MOL0     C17260   2.027   6.895   6.059  0.3221 -0.6435 -0.0098
  126MOL0     C17261   2.099   6.794   5.977 -0.3116  0.1441  0.0318
  126MOL0     C17262   2.053   6.782   5.836  0.6467  0.6982 -0.5139
  126MOL0     C17263   2.106   6.661   5.763 -0.1566 -0.1162  0.4521
  126MOL0     C17264   2.266   6.653   5.759  0.7072 -0.9338 -0.4758
  126MOL0     C17265   2.341   6.771   5.692  1.0606 -0.0878 -0.3246
  126MOL0     C17266   2.489   6.755   5.706  0.6770 -0.6033  0.0875
  126MOL0     N17267   2.551   6.861   5.625  0.0582  0.5767 -0.2637
  126MOL0     C17268   2.539   6.998   5.635  0.1143  0.3600  0.0944
  126MOL0     C17269   2.602   7.060   5.530  0.5113  0.8033 -0.0140
  126MOL0     C17270   2.614   7.209   5.506  0.4280  0.3464 -0.1954
  126MOL0     C17271   2.734   7.263   5.593  0.0050  0.4184 -0.5781
  126MOL0     C17272   2.750   7.415   5.554  0.0955  0.2528 -0.3044
  126MOL0     C17273   2.857   7.483   5.636 -0.3371  0.0203  0.3100
  126MOL0     O17274   2.987   7.431   5.603 -0.1929 -0.6240 -0.4518
  126MOL0     C17275   3.092   7.506   5.650  0.2944  0.0902  0.0574
  126MOL0     C17276   3.215   7.445   5.639  0.3151 -0.3191  0.4401
  126MOL0     C17277   3.334   7.516   5.647 -0.1425  0.2905 -0.5717
  126MOL0     C17278   3.447   7.450   5.577 -0.4303 -0.4403 -0.5841
  126MOL0     C17279   3.333   7.646   5.702 -0.9430  0.9169  0.7387
  126MOL0     C17280   3.452   7.737   5.727 -0.3416 -0.0646  0.8399
  126MOL0     O17281   3.431   7.850   5.802 -0.3101 -0.4950 -0.9650
  126MOL0     C17282   3.515   7.943   5.849 -0.1733 -0.0063  0.6528
  126MOL0     C17283   3.470   8.025   5.955  0.6321 -0.5425  0.5644
  126MOL0     C17284   3.553   8.115   6.015  0.3850  0.2223  0.0146
  126MOL0     C17285   3.678   8.138   5.969 -0.6879 -0.3237 -0.1401
  126MOL0     O17286   3.756   8.239   6.032  0.0720 -0.0586  0.1111
  126MOL0     C17287   3.715   8.374   6.013  0.7737 -0.9686 -0.5929
  126MOL0     C17288   3.718   8.417   5.867  0.6835  0.1349  0.3172
  126MOL0     C17289   3.846   8.422   5.793 -0.4140 -0.2557 -0.0599
  126MOL0     C17290   3.958   8.490   5.874 -0.7527  0.1170  0.1620
  126MOL0     C17291   4.091   8.485   5.795  0.2136  0.1795  0.2356
  126MOL0     C17292   4.197   8.530   5.896  0.7927 -0.1379 -0.3802
  126MOL0     C17293   4.341   8.533   5.845 -0.0699  0.4212 -1.2070
  126MOL0     C17294   4.375   8.641   5.741 -0.8421  0.8698  0.4224
  126MOL0    Cl17295   4.353   8.796   5.816  0.3568  0.2381  0.3253
  126MOL0     C17296   3.723   8.069   5.852  0.3002 -0.2595  0.0969
  126MOL0     C17297   3.640   7.974   5.795  1.0718  0.2332 -0.1008
  126MOL0     O17298   3.558   7.702   5.677  0.8309  0.3278 -0.0875
  126MOL0     C17299   3.204   7.706   5.728  0.5463  0.2035  0.1549
  126MOL0     C17300   3.083   7.640   5.701  0.7079  0.9615  0.0855
  126MOL0     N17301   2.663   6.957   5.459 -0.5965  0.2936  0.3598
  126MOL0     N17302   2.631   6.836   5.512 -0.2884  0.5976  0.1739
  126MOL0     C17303   2.040   7.319   5.954 -0.9537  0.1713 -0.1274
  126MOL0     C17304   2.089   7.451   5.948  0.1970 -0.4000 -0.2686
  126MOL0     C17305   2.300   7.816   5.973 -0.6640 -0.0955  0.0713
  126MOL0     C17306   2.396   7.802   6.079  0.3097 -0.0180 -0.0854
  126MOL0     C17307   2.512   7.887   6.083 -0.3409  0.3033 -0.0757
  126MOL0     C17308   2.536   7.974   5.979  0.2017 -0.5585 -0.3771
  126MOL0     O17309   2.658   8.044   5.979 -0.1186  0.0951  0.3460
  126MOL0     C17310   2.706   8.132   5.872  0.4232 -0.3488 -0.5186
  126MOL0     C17311   2.618   8.255   5.882 -0.2207 -0.5260  0.2889
  126MOL0     C17312   2.665   8.385   5.808 -0.1924 -0.4876 -0.0945
  126MOL0     C17313   2.751   8.342   5.679  1.0914 -0.9618  0.4738
  126MOL0     C17314   2.668   8.293   5.569 -0.0206 -0.3246 -0.1525
  126MOL0     C17315   2.597   8.247   5.481 -0.3978 -0.2873 -0.1036
  126MOL0     C17316   2.444   7.982   5.868 -0.3659 -0.3552 -0.6061
  126MOL0     C17317   2.323   7.910   5.864  0.6312 -0.6592  0.0719
  126MOL0     C17318   2.238   7.905   5.738  0.1296 -0.5460 -0.3584
  126MOL0     H17319   2.136   7.496   6.289  2.1580 -0.3717  0.0434
  126MOL0     H17320   2.026   7.265   6.291 -1.3913  0.5860  0.5854
  126MOL0     H17321   2.099   7.062   5.943 -0.9150  0.6602  0.6958
  126MOL0     H17322   1.933   7.027   5.906 -1.5794 -1.5072  0.9153
  126MOL0     H17323   2.078   6.912   6.155 -0.1579  0.9200 -0.0041
  126MOL0     H17324   1.930   6.854   6.087 -0.1179  1.4892  1.9067
  126MOL0     H17325   2.206   6.819   5.972 -1.0992  3.8121 -2.4116
  126MOL0     H17326   2.089   6.698   6.029  0.2418  0.6272  1.0624
  126MOL0     H17327   1.944   6.771   5.842  0.4735  1.2413 -2.2044
  126MOL0     H17328   2.067   6.865   5.767  1.9715  0.2991 -0.7502
  126MOL0     H17329   2.067   6.653   5.661 -1.2246 -1.5446  0.9349
  126MOL0     H17330   2.074   6.572   5.817 -1.7136  1.4012  2.1580
  126MOL0     H17331   2.289   6.646   5.866 -0.8096  1.7532  0.1106
  126MOL0     H17332   2.300   6.561   5.711  0.9648 -0.5571 -1.0147
  126MOL0     H17333   2.301   6.865   5.732 -0.7493  0.7742 -3.7745
  126MOL0     H17334   2.310   6.756   5.588  0.5439  0.3541 -0.2420
  126MOL0     H17335   2.529   6.763   5.807  1.7836  1.1680 -0.4496
  126MOL0     H17336   2.505   6.655   5.663  0.0606 -0.6686  0.0088
  126MOL0     H17337   2.496   7.049   5.721 -0.7423 -2.9183  1.7546
  126MOL0     H17338   2.518   7.252   5.538 -0.6532 -0.4985 -2.1151
  126MOL0     H17339   2.624   7.239   5.401 -1.8745  0.7679 -0.3476
  126MOL0     H17340   2.714   7.253   5.700  1.3975  0.2270 -0.3199
  126MOL0     H17341   2.823   7.203   5.573  0.7325  1.6714 -1.1902
  126MOL0     H17342   2.772   7.435   5.449 -1.0489  1.0332 -0.4095
  126MOL0     H17343   2.655   7.465   5.577 -0.0053  0.4930 -1.1979
  126MOL0     H17344   2.856   7.585   5.597  0.5562  0.1675  0.6381
  126MOL0     H17345   2.834   7.475   5.742  2.3808 -0.2045  0.9624
  126MOL0     H17346   3.209   7.344   5.600 -1.7307  0.3828 -1.2644
  126MOL0     H17347   3.494   7.523   5.512 -2.1258  2.3615  1.1217
  126MOL0     H17348   3.427   7.354   5.529 -1.6989 -2.0581  2.8074
  126MOL0     H17349   3.521   7.418   5.652 -0.9330  3.1554  1.6681
  126MOL0     H17350   3.372   8.022   6.000 -0.2573  4.1723 -0.4857
  126MOL0     H17351   3.515   8.184   6.090  1.5461  3.4154 -2.1338
  126MOL0     H17352   3.615   8.380   6.057  1.2624  0.7130  0.3904
  126MOL0     H17353   3.784   8.432   6.074 -0.9780 -1.1247  1.7024
  126MOL0     H17354   3.645   8.368   5.803  1.9861  1.2793 -2.2237
  126MOL0     H17355   3.676   8.518   5.876 -1.9339 -0.7451 -1.0001
  126MOL0     H17356   3.834   8.469   5.696 -0.3208 -1.7038 -0.8065
  126MOL0     H17357   3.886   8.323   5.768 -0.2615  0.3200 -2.2374
  126MOL0     H17358   3.973   8.451   5.975  0.6626  2.5901  0.9989
  126MOL0     H17359   3.940   8.594   5.902 -0.0519  0.5186 -0.7919
  126MOL0     H17360   4.112   8.385   5.755 -1.4535 -0.7759  1.5963
  126MOL0     H17361   4.090   8.560   5.716  2.1589 -0.5872 -0.5719
  126MOL0     H17362   4.189   8.460   5.980 -1.9509 -0.0308 -0.4682
  126MOL0     H17363   4.173   8.630   5.935 -3.0023 -0.6526 -0.9749
  126MOL0     H17364   4.375   8.440   5.799  1.1303 -1.0233  2.2625
  126MOL0     H17365   4.412   8.555   5.926  2.6645  0.6906 -3.5080
  126MOL0     H17366   4.318   8.644   5.648  1.1770 -0.3446 -0.9126
  126MOL0     H17367   4.480   8.635   5.714 -0.6557  0.0128  1.2822
  126MOL0     H17368   3.820   8.094   5.811 -0.0269 -1.4734 -1.5281
  126MOL0     H17369   3.688   7.919   5.715 -1.7117 -2.2162 -0.2510
  126MOL0     H17370   3.193   7.803   5.775  3.8723 -0.7027  3.2932
  126MOL0     H17371   2.984   7.680   5.722 -1.1350 -2.5004 -1.2287
  126MOL0     H17372   2.018   7.261   5.865  2.2299  0.2168 -1.0422
  126MOL0     H17373   2.088   7.502   5.852 -1.7128 -1.7290 -1.0082
  126MOL0     H17374   2.378   7.735   6.162 -0.6813 -0.7264 -0.8510
  126MOL0     H17375   2.586   7.882   6.162  0.1285  1.5582 -0.4146
  126MOL0     H17376   2.811   8.161   5.887  0.2081  0.2244 -0.1053
  126MOL0     H17377   2.703   8.077   5.778  0.5141 -0.2046 -0.6067
  126MOL0     H17378   2.610   8.288   5.986  0.2225  0.2997  0.0662
  126MOL0     H17379   2.516   8.233   5.850 -0.5722  0.7406  0.5141
  126MOL0     H17380   2.572   8.438   5.784 -1.8260 -2.1069  2.1275
  126MOL0     H17381   2.735   8.440   5.870  0.3516 -0.6559 -0.5527
  126MOL0     H17382   2.824   8.267   5.712  1.8645  0.0723  1.1820
  126MOL0     H17383   2.809   8.431   5.655 -0.8684  0.0844 -0.6560
  126MOL0     H17384   2.526   8.192   5.422 -0.7431  0.3166 -0.2627
  126MOL0     H17385   2.469   8.042   5.781 -0.8716 -0.2059 -0.6499
  126MOL0     H17386   2.137   7.945   5.756  0.1110 -0.2430 -1.0720
  126MOL0     H17387   2.294   7.948   5.654  1.9998 -1.7312  0.2321
  126MOL0     H17388   2.217   7.801   5.713 -0.0993 -0.4004 -0.8032
  127MOL0     O17389   8.693   7.041   1.986 -0.5448 -0.4411  0.5563
  127MOL0     C17390   8.628   7.054   1.885  0.1455  0.4502  0.0609
  127MOL0     O17391   8.675   7.103   1.766  1.0009  0.1482 -0.0770
  127MOL0     C17392   8.810   7.127   1.750 -0.2282 -0.4018  0.8882
  127MOL0     C17393   8.877   7.232   1.817 -0.0939  0.2000  0.4053
  127MOL0     C17394   9.019   7.246   1.807  0.1617  0.2486  0.5155
  127MOL0     C17395   9.085   7.156   1.725  0.3710  0.1797 -0.0162
  127MOL0     O17396   9.220   7.170   1.728 -0.1864  0.0050  1.1029
  127MOL0     C17397   9.294   7.045   1.706  0.5201 -0.6881  0.4477
  127MOL0     C17398   9.442   7.051   1.752 -1.3163  0.1312  0.0713
  127MOL0     C17399   9.523   7.143   1.659  0.1777  0.1129 -0.4525
  127MOL0     C17400   9.677   7.130   1.706  0.2274  0.4659 -0.5085
  127MOL0     C17401   9.769   7.231   1.629 -0.2087  0.0329 -0.1008
  127MOL0     C17402   9.744   7.253   1.475  0.4643 -0.2294 -0.2073
  127MOL0     C17403   9.849   7.330   1.404  0.6603 -0.2239 -0.1942
  127MOL0     C17404   9.817   7.343   1.254  1.1147 -0.2399 -0.6056
  127MOL0     N17405   9.916   7.437   1.204 -0.0059  0.6874  0.8085
  127MOL0     C17406  10.023   7.404   1.121  0.9151  0.5220 -0.4216
  127MOL0     C17407  10.078   7.514   1.091 -0.0590 -0.3571  0.5797
  127MOL0     C17408  10.196   7.520   1.006  0.3114 -0.6277 -0.5083
  127MOL0     C17409  10.322   7.456   1.078 -0.1864 -0.3948  0.2317
  127MOL0     C17410  10.440   7.442   0.983  0.5764  0.0926  0.0023
  127MOL0     C17411  10.484   7.588   0.954 -0.4470 -0.6171  0.8145
  127MOL0     O17412  10.622   7.609   0.912  1.1287 -0.2465 -0.2680
  127MOL0     C17413  10.722   7.590   1.001  0.1831 -0.0664  0.4258
  127MOL0     C17414  10.709   7.593   1.139  0.5444  0.1704 -0.8130
  127MOL0     C17415  10.826   7.596   1.221  0.1753  0.0567  0.5969
  127MOL0     C17416  10.807   7.606   1.374  0.3362  0.4803 -0.4035
  127MOL0     C17417  10.953   7.574   1.155 -0.0328 -0.2689 -0.1606
  127MOL0     C17418  11.082   7.551   1.222  0.5747 -0.3590 -0.0307
  127MOL0     O17419  11.197   7.576   1.149 -0.6153  0.4735  0.7495
  127MOL0     C17420  11.311   7.615   1.216 -0.2370 -0.9324 -0.7756
  127MOL0     C17421  11.310   7.676   1.345  0.3996 -1.1047 -0.9757
  127MOL0     C17422  11.429   7.721   1.400  0.5518 -0.0999  0.4543
  127MOL0     C17423  11.549   7.706   1.333  0.0073 -0.2118  1.2594
  127MOL0     O17424  11.664   7.764   1.383 -0.1292 -0.0931 -0.3721
  127MOL0     C17425  11.791   7.694   1.354  0.8037 -0.4417 -0.4164
  127MOL0     C17426  11.787   7.553   1.421 -0.0255  0.6692 -0.3117
  127MOL0     C17427  11.935   7.510   1.440 -0.8938  0.6820 -0.3657
  127MOL0     C17428  11.957   7.379   1.518  0.6461  0.3413 -0.0732
  127MOL0     C17429  12.100   7.330   1.511  0.3274  0.4078 -0.1175
  127MOL0     C17430  12.129   7.260   1.378  0.6863  0.1842  0.1048
  127MOL0     C17431  12.279   7.248   1.350  0.5963 -0.7097 -0.0150
  127MOL0     C17432  12.364   7.181   1.460  0.1348 -0.0690 -0.4074
  127MOL0    Cl17433  12.532   7.183   1.407 -0.3345 -0.1853  0.1352
  127MOL0     C17434  11.549   7.648   1.207  0.7236  0.7155  0.1064
  127MOL0     C17435  11.433   7.600   1.149 -0.1575 -0.6079  0.2851
  127MOL0     O17436  11.076   7.509   1.342  0.1911  0.1202  0.8592
  127MOL0     C17437  10.960   7.577   1.011  0.0848  1.5293 -0.4011
  127MOL0     C17438  10.839   7.582   0.941 -0.5728 -0.5780 -0.8322
  127MOL0     N17439  10.013   7.619   1.152  0.6186  0.1377  0.3684
  127MOL0     N17440   9.916   7.568   1.220  0.3024 -0.5055 -0.2741
  127MOL0     C17441   9.015   7.065   1.642  0.1577 -0.3659  0.7487
  127MOL0     C17442   8.875   7.048   1.652 -0.2631  0.4607 -0.5762
  127MOL0     C17443   8.481   7.037   1.891 -0.2035  0.0042 -1.5538
  127MOL0     C17444   8.433   6.967   2.006  0.1330  0.0296  0.9566
  127MOL0     C17445   8.302   6.938   2.028  0.4051  0.1562  0.9102
  127MOL0     C17446   8.210   6.980   1.934 -0.4423 -1.1762 -0.5777
  127MOL0     O17447   8.088   6.956   1.971  0.6532  0.1550  0.2680
  127MOL0     C17448   8.041   7.070   2.043  0.8972  0.1955  0.2599
  127MOL0     C17449   7.886   7.061   2.046  0.0832 -0.1062 -0.2740
  127MOL0     C17450   7.841   6.924   2.105  0.2001 -0.4357  0.0443
  127MOL0     C17451   7.706   6.927   2.178 -0.1315  0.3390  0.8177
  127MOL0     C17452   7.643   6.798   2.197 -0.9165 -0.5862  0.8796
  127MOL0     C17453   7.604   6.684   2.209  0.3560  0.1396 -0.4870
  127MOL0     C17454   8.244   7.046   1.823  0.0547 -0.4115 -0.0777
  127MOL0     C17455   8.382   7.071   1.799  0.0296 -0.7008 -0.3564
  127MOL0     C17456   8.410   7.114   1.655  0.3795  0.5609  0.7158
  127MOL0     H17457   8.824   7.297   1.886 -0.2176  1.3719 -0.7572
  127MOL0     H17458   9.072   7.322   1.864  0.4204 -1.4781  2.7217
  127MOL0     H17459   9.295   7.026   1.598  2.2683  0.4974  0.2003
  127MOL0     H17460   9.245   6.959   1.752  0.2322 -0.0177  1.4205
  127MOL0     H17461   9.457   7.086   1.855 -1.1441  1.4997 -0.4012
  127MOL0     H17462   9.491   6.954   1.741  1.1043  0.8968  2.7226
  127MOL0     H17463   9.506   7.122   1.552 -0.6310 -4.2155  0.3118
  127MOL0     H17464   9.476   7.239   1.681 -1.4226 -1.2122  2.3369
  127MOL0     H17465   9.686   7.150   1.813  0.1715  3.3300 -0.9632
  127MOL0     H17466   9.717   7.034   1.670 -2.3144 -2.2685  3.1847
  127MOL0     H17467   9.872   7.195   1.632  0.1631  1.1335  1.6240
  127MOL0     H17468   9.757   7.317   1.694 -1.5546 -1.5782  1.9217
  127MOL0     H17469   9.730   7.155   1.429 -3.8321 -1.3379  2.8352
  127MOL0     H17470   9.647   7.304   1.464  0.9624  0.4527 -1.6796
  127MOL0     H17471   9.943   7.275   1.396  1.3883  1.1912 -3.0256
  127MOL0     H17472   9.847   7.423   1.461 -2.0002 -1.1520  1.3904
  127MOL0     H17473   9.824   7.251   1.195  2.0505 -0.0733 -0.7688
  127MOL0     H17474   9.721   7.395   1.243  0.6390 -1.0062 -0.1573
  127MOL0     H17475  10.039   7.300   1.094 -2.1763 -1.2613  3.4187
  127MOL0     H17476  10.215   7.623   0.975 -1.1686 -0.1215  0.1891
  127MOL0     H17477  10.179   7.459   0.916  0.7552 -3.7000  1.3333
  127MOL0     H17478  10.355   7.517   1.162 -0.5204  0.4761 -0.2593
  127MOL0     H17479  10.302   7.356   1.119  2.8101 -1.0707  0.2893
  127MOL0     H17480  10.518   7.398   1.047  0.3550  0.3940  0.4901
  127MOL0     H17481  10.429   7.396   0.885  0.8804  0.2430 -0.1008
  127MOL0     H17482  10.438   7.638   0.869  0.7491  1.7707  1.4885
  127MOL0     H17483  10.460   7.653   1.038 -2.1374  1.9807 -1.5244
  127MOL0     H17484  10.608   7.592   1.179  0.4075 -2.9793 -0.9401
  127MOL0     H17485  10.705   7.633   1.399 -0.3454 -2.6511  0.6158
  127MOL0     H17486  10.875   7.683   1.410  0.2550  1.5624 -2.4201
  127MOL0     H17487  10.823   7.503   1.408 -2.7329 -0.1931 -0.6792
  127MOL0     H17488  11.223   7.701   1.404  1.7095  1.6903 -0.0722
  127MOL0     H17489  11.428   7.769   1.498 -2.0075  0.2277  0.3370
  127MOL0     H17490  11.818   7.692   1.248 -1.6113  0.2760 -1.1222
  127MOL0     H17491  11.871   7.752   1.400 -0.3355 -1.0144  2.5071
  127MOL0     H17492  11.735   7.554   1.517 -0.0193 -3.1088 -0.1371
  127MOL0     H17493  11.743   7.480   1.352  2.4404 -1.8702  0.5943
  127MOL0     H17494  11.996   7.588   1.488  0.3146 -0.2577 -0.3427
  127MOL0     H17495  11.970   7.489   1.339  0.3156  0.9573 -0.0296
  127MOL0     H17496  11.895   7.302   1.471  1.3386  0.4458 -1.2022
  127MOL0     H17497  11.925   7.390   1.622  0.8998 -0.9884  0.1670
  127MOL0     H17498  12.176   7.406   1.531 -0.8966  1.5952  0.1363
  127MOL0     H17499  12.101   7.265   1.598  1.5054  0.9605  0.3005
  127MOL0     H17500  12.090   7.319   1.294  0.4461 -2.1774 -1.5397
  127MOL0     H17501  12.086   7.160   1.371  1.3603 -0.0027 -2.7574
  127MOL0     H17502  12.322   7.347   1.334  2.0625 -0.5205  3.9056
  127MOL0     H17503  12.285   7.184   1.262 -0.9367  2.1117 -2.3369
  127MOL0     H17504  12.317   7.083   1.467  0.0399 -0.0357 -0.5793
  127MOL0     H17505  12.340   7.234   1.553 -0.3480 -0.0118 -0.5623
  127MOL0     H17506  11.638   7.652   1.145 -1.4011 -0.5134 -3.3288
  127MOL0     H17507  11.438   7.559   1.049 -1.6085 -0.0372 -0.0475
  127MOL0     H17508  11.053   7.560   0.958 -0.0808 -2.0273  0.2053
  127MOL0     H17509  10.841   7.580   0.833  0.8998  3.1087 -0.9961
  127MOL0     H17510   9.071   7.005   1.570 -0.0162  2.2882 -1.8057
  127MOL0     H17511   8.816   6.971   1.601 -1.4449 -0.0399  1.4510
  127MOL0     H17512   8.505   6.933   2.080  1.4224 -0.2930 -0.3899
  127MOL0     H17513   8.270   6.896   2.123 -0.1271  2.5866  1.8775
  127MOL0     H17514   8.073   7.075   2.147 -2.0560 -2.0551  1.4318
  127MOL0     H17515   8.076   7.166   2.005  3.0312 -0.3385  0.7361
  127MOL0     H17516   7.846   7.061   1.945 -0.4090  1.6675 -0.1123
  127MOL0     H17517   7.846   7.146   2.103  0.4190 -0.8101  1.0630
  127MOL0     H17518   7.832   6.856   2.020  0.2612  2.1737 -2.1739
  127MOL0     H17519   7.916   6.891   2.178  0.8184 -1.3208 -0.9587
  127MOL0     H17520   7.635   6.977   2.112  1.3485  0.3385 -0.8431
  127MOL0     H17521   7.694   6.990   2.267 -4.5793 -1.0935  1.5073
  127MOL0     H17522   7.537   6.600   2.207 -1.6282  1.6563 -1.3784
  127MOL0     H17523   8.169   7.067   1.747  0.7518 -0.1561 -0.7096
  127MOL0     H17524   8.458   7.212   1.652  6.4438 -1.9596 -2.5557
  127MOL0     H17525   8.479   7.039   1.614  0.2390  0.0024  1.4800
  127MOL0     H17526   8.322   7.119   1.590  0.4862  1.3765  0.6249
  128MOL0     O17527   8.440   0.944  10.002  1.0258  0.3802  0.0699
  128MOL0     C17528   8.427   0.829  10.044  0.0450  0.3694 -0.7953
  128MOL0     O17529   8.528   0.744  10.080  0.1697  1.2666 -0.0729
  128MOL0     C17530   8.647   0.789  10.123 -0.8756  0.3956  0.7855
  128MOL0     C17531   8.763   0.717  10.095 -0.5851 -0.5684 -0.0146
  128MOL0     C17532   8.891   0.770  10.125 -0.4921  0.2493 -0.1791
  128MOL0     C17533   8.904   0.892  10.188 -0.4421  0.3510  0.3682
  128MOL0     O17534   9.033   0.942  10.212  0.0778  0.0101  0.4408
  128MOL0     C17535   9.045   1.042  10.312 -0.3752 -0.1677 -0.1168
  128MOL0     C17536   9.186   1.112  10.297 -0.1146 -0.7368  0.4826
  128MOL0     C17537   9.202   1.192  10.170  0.6263  0.1242  0.1937
  128MOL0     C17538   9.343   1.236  10.155  0.1187 -0.4909 -0.3321
  128MOL0     C17539   9.351   1.353  10.050 -0.5927  0.3459  0.3286
  128MOL0     C17540   9.488   1.414  10.036 -0.8853  0.1015 -0.3652
  128MOL0     C17541   9.597   1.309  10.006  0.4900 -0.4972  0.4849
  128MOL0     C17542   9.738   1.353   9.983  0.7617 -0.1284  0.6988
  128MOL0     N17543   9.837   1.267  10.050 -0.7211  0.0663  0.5021
  128MOL0     C17544   9.883   1.267  10.180  0.3712 -0.3366  0.4808
  128MOL0     C17545   9.974   1.167  10.190 -0.7832  0.3687 -0.3932
  128MOL0     C17546  10.054   1.121  10.310  0.3399 -0.3480 -0.0909
  128MOL0     C17547  10.204   1.092  10.277  0.7381  0.9545 -0.7804
  128MOL0     C17548  10.303   1.154  10.386  0.5901  0.0248 -0.6446
  128MOL0     C17549  10.439   1.091  10.358 -0.0685  0.5522 -0.2256
  128MOL0     O17550  10.524   1.150  10.450 -0.1661  1.1272  0.2727
  128MOL0     C17551  10.661   1.130  10.429  0.5794  0.3641  0.3211
  128MOL0     C17552  10.705   1.040  10.339 -0.3338 -0.1327  0.1367
  128MOL0     C17553  10.838   1.017  10.311 -0.6621  0.1864 -0.0004
  128MOL0     C17554  10.893   0.910  10.219  1.1515  0.0340  0.1976
  128MOL0     C17555  10.939   1.085  10.383  1.0127 -0.1250 -0.2655
  128MOL0     C17556  11.089   1.075  10.361  0.2092 -0.3242  0.1439
  128MOL0     O17557  11.142   0.946  10.356  0.8487  0.1680 -0.9026
  128MOL0     C17558  11.276   0.938  10.330  0.6507  0.5003 -0.6284
  128MOL0     C17559  11.373   0.951  10.431 -0.6016 -0.6815 -0.0079
  128MOL0     C17560  11.508   0.945  10.401 -0.5487 -0.3017  0.1845
  128MOL0     C17561  11.547   0.918  10.272  0.6805  0.2550 -0.6825
  128MOL0     O17562  11.682   0.910  10.249  0.4774 -0.0130  0.5710
  128MOL0     C17563  11.727   0.886  10.117 -0.5547  0.3684 -0.4581
  128MOL0     C17564  11.873   0.919  10.105  0.3980  0.0712 -0.4773
  128MOL0     C17565  11.949   0.817  10.190  0.1747  0.0103  0.6739
  128MOL0     C17566  12.097   0.857  10.209  0.3268  0.4650 -0.2314
  128MOL0     C17567  12.126   0.954  10.322 -0.9086 -0.2382  0.1040
  128MOL0     C17568  12.273   0.988  10.337 -0.3553 -0.4802  0.1510
  128MOL0     C17569  12.334   1.051  10.206  0.6223  0.4274 -0.4000
  128MOL0     C17570  12.459   1.130  10.240  0.0585  0.3140  0.3203
  128MOL0    Cl17571  12.430   1.291  10.309 -0.1190  0.0832  0.1156
  128MOL0     C17572  11.450   0.905  10.171 -0.4451  0.2825  0.0728
  128MOL0     C17573  11.313   0.907  10.198 -0.5278  0.1436  0.8313
  128MOL0     O17574  11.161   1.174  10.362 -0.4886 -0.1340 -0.1388
  128MOL0     C17575  10.887   1.180  10.477  0.2384  0.4610  0.2711
  128MOL0     C17576  10.751   1.200  10.504 -1.3896  0.7415  0.2869
  128MOL0     N17577   9.963   1.099  10.072  0.1715  0.9546 -0.1464
  128MOL0     N17578   9.893   1.162   9.986 -0.0405 -0.2127 -0.0382
  128MOL0     C17579   8.784   0.958  10.229  1.0055  0.4575 -0.1184
  128MOL0     C17580   8.660   0.905  10.198 -0.1304 -0.0410  0.1850
  128MOL0     C17581   8.294   0.782  10.013 -0.1511  0.4370  1.3502
  128MOL0     C17582   8.290   0.653   9.954 -0.6691 -0.8002  0.0670
  128MOL0     C17583   8.172   0.595   9.926  0.5385 -0.4884  0.1801
  128MOL0     C17584   8.045   0.652   9.957 -0.3208  0.3583 -0.2746
  128MOL0     O17585   7.925   0.600   9.916  0.1019 -0.3325 -0.3731
  128MOL0     C17586   7.918   0.469   9.859  0.1119 -0.7700  0.3554
  128MOL0     C17587   7.773   0.443   9.805  1.3166  0.4199  0.3028
  128MOL0     C17588   7.751   0.303   9.739  0.0942 -0.0396  0.8468
  128MOL0     C17589   7.790   0.183   9.835 -0.3207  0.0968 -0.8207
  128MOL0     C17590   7.765   0.055   9.782 -0.2064  0.6702 -0.5949
  128MOL0     C17591   7.731  -0.064   9.757  0.8595  0.0510 -0.1638
  128MOL0     C17592   8.052   0.780  10.018  0.4602 -0.2998  0.9148
  128MOL0     C17593   8.170   0.850  10.033 -0.5746 -0.2231  0.2646
  128MOL0     C17594   8.151   0.988  10.082 -0.8065 -0.0116  0.4371
  128MOL0     H17595   8.754   0.633  10.027  3.6143 -1.4385  0.2126
  128MOL0     H17596   8.975   0.703  10.109 -0.8550 -0.1773 -0.3196
  128MOL0     H17597   9.031   1.008  10.415  3.2702 -0.5906  0.3762
  128MOL0     H17598   8.977   1.122  10.284 -0.2919  0.2390  0.7922
  128MOL0     H17599   9.211   1.163  10.391  2.5695 -1.5364  0.2639
  128MOL0     H17600   9.258   1.030  10.295  1.9335  0.9842 -0.6739
  128MOL0     H17601   9.179   1.126  10.085  1.1614 -0.4295  0.4694
  128MOL0     H17602   9.141   1.283  10.176  2.4550  1.3833  0.5433
  128MOL0     H17603   9.389   1.254  10.252 -2.8641 -3.3391  1.8300
  128MOL0     H17604   9.395   1.150  10.112 -1.1886 -0.9431 -1.0634
  128MOL0     H17605   9.281   1.429  10.087  0.4823  0.6386  1.8974
  128MOL0     H17606   9.317   1.317   9.953 -1.6824  2.1516  0.0037
  128MOL0     H17607   9.495   1.484   9.951 -0.3162  1.7378  0.9665
  128MOL0     H17608   9.516   1.477  10.121  1.4701  0.4791 -1.3342
  128MOL0     H17609   9.548   1.251   9.927  1.5767 -0.9265  0.1085
  128MOL0     H17610   9.601   1.258  10.102  0.8813  2.4084  2.1506
  128MOL0     H17611   9.754   1.357   9.875 -3.3764 -3.5820 -0.3311
  128MOL0     H17612   9.742   1.457  10.017 -3.4156  1.4194 -2.6005
  128MOL0     H17613   9.871   1.341  10.259  2.0878 -0.6220  1.0649
  128MOL0     H17614  10.001   1.030  10.341 -1.2586  0.4424 -0.3893
  128MOL0     H17615  10.049   1.186  10.397  1.4293  0.0896 -0.3495
  128MOL0     H17616  10.220   0.984  10.283  1.4771  1.1034  0.2360
  128MOL0     H17617  10.232   1.118  10.175  2.0624 -0.0751 -0.7092
  128MOL0     H17618  10.315   1.261  10.367  2.4513  0.4911  2.4862
  128MOL0     H17619  10.260   1.140  10.486 -0.1238 -1.4118 -1.1232
  128MOL0     H17620  10.421   0.983  10.358 -4.4755  1.0863 -2.0497
  128MOL0     H17621  10.454   1.118  10.253  2.8346  3.8797  0.8525
  128MOL0     H17622  10.656   0.968  10.273  1.1973 -1.0882  0.0024
  128MOL0     H17623  10.952   0.965  10.146 -0.5683 -0.2857 -1.5266
  128MOL0     H17624  10.807   0.866  10.168  1.2182  0.7989 -0.5902
  128MOL0     H17625  10.946   0.827  10.267 -1.0861 -0.7405  1.5239
  128MOL0     H17626  11.333   0.981  10.527 -0.4057 -0.2439 -0.0586
  128MOL0     H17627  11.586   0.947  10.477 -0.9875 -1.3659  0.6818
  128MOL0     H17628  11.703   0.782  10.091 -0.2688  0.4792 -1.1937
  128MOL0     H17629  11.675   0.947  10.043 -0.7761 -2.3645 -2.7320
  128MOL0     H17630  11.913   0.909  10.003  2.3724  0.3224  0.2392
  128MOL0     H17631  11.901   1.018  10.143  1.1349  1.1198 -3.4520
  128MOL0     H17632  11.959   0.730  10.124  2.6105  1.1705 -0.6407
  128MOL0     H17633  11.902   0.798  10.287  2.5139  1.5636  2.2215
  128MOL0     H17634  12.136   0.887  10.110 -1.7098 -0.9444 -1.5256
  128MOL0     H17635  12.144   0.759  10.220 -0.9556  0.1397  3.7229
  128MOL0     H17636  12.076   1.048  10.297 -0.6433 -0.4578 -1.3470
  128MOL0     H17637  12.094   0.911  10.417  0.1548 -2.0774 -0.3086
  128MOL0     H17638  12.324   0.897  10.368 -0.1154 -1.0227 -1.7101
  128MOL0     H17639  12.295   1.063  10.413 -0.1990  2.3122 -2.4751
  128MOL0     H17640  12.263   1.117  10.155 -0.8081 -0.2828  0.6184
  128MOL0     H17641  12.362   0.974  10.134  2.4614  1.4210 -0.8219
  128MOL0     H17642  12.510   1.141  10.144 -0.1080 -0.3303  0.1570
  128MOL0     H17643  12.516   1.074  10.316 -1.1661 -1.5674 -0.0762
  128MOL0     H17644  11.468   0.874  10.069 -3.1406  1.5892 -0.8958
  128MOL0     H17645  11.242   0.908  10.116 -1.1421  0.4598  1.3642
  128MOL0     H17646  10.954   1.239  10.540  2.6112  0.2480 -1.8822
  128MOL0     H17647  10.709   1.276  10.570  1.4602  3.8586 -1.1703
  128MOL0     H17648   8.786   1.050  10.286 -1.0646 -0.9074  2.3459
  128MOL0     H17649   8.579   0.966  10.237 -0.5399  0.3590 -1.2404
  128MOL0     H17650   8.381   0.599   9.932  0.6425  0.8181  1.3050
  128MOL0     H17651   8.166   0.491   9.894 -2.5454 -1.0989  2.2657
  128MOL0     H17652   7.984   0.476   9.772 -3.1617  0.3605 -2.2325
  128MOL0     H17653   7.949   0.401   9.938 -2.1727 -0.1929  1.8549
  128MOL0     H17654   7.765   0.512   9.720  1.9212  1.2017  0.8688
  128MOL0     H17655   7.700   0.461   9.885  1.0843 -1.9983  0.7079
  128MOL0     H17656   7.653   0.297   9.692  0.9196  0.2548 -0.9836
  128MOL0     H17657   7.812   0.309   9.649 -2.2556  2.0261 -0.7195
  128MOL0     H17658   7.735   0.192   9.929  0.7360  2.0747 -0.3368
  128MOL0     H17659   7.897   0.186   9.855 -0.6505  2.5334  1.0294
  128MOL0     H17660   7.699  -0.161   9.723 -1.9248  2.0562 -3.9751
  128MOL0     H17661   7.957   0.817  10.054 -0.0137 -1.0775  0.4834
  128MOL0     H17662   8.214   1.017  10.167 -0.2704 -1.6493  0.6354
  128MOL0     H17663   8.195   1.038   9.995 -0.5926  3.8836  2.5423
  128MOL0     H17664   8.046   1.019  10.091 -0.9873 -1.0917  2.7760
  129MOL0     O17665  10.809   9.723  10.220  0.1377  0.5827  0.1162
  129MOL0     C17666  10.846   9.701  10.105  0.2498 -0.7850  0.9472
  129MOL0     O17667  10.980   9.714  10.063  0.0801 -0.5306  0.9304
  129MOL0     C17668  11.089   9.765  10.132  0.2184 -0.1569 -0.3896
  129MOL0     C17669  11.217   9.751  10.082 -1.2401 -0.3564 -0.1492
  129MOL0     C17670  11.333   9.796  10.140  0.2617  0.2832 -0.1678
  129MOL0     C17671  11.320   9.866  10.263  0.0560  0.7682  0.7705
  129MOL0     O17672  11.433   9.916  10.312 -0.1450 -0.1447 -0.1373
  129MOL0     C17673  11.437   9.994  10.428 -0.2806  0.1567 -0.5105
  129MOL0     C17674  11.585  10.033  10.465 -0.6351 -0.4769  0.4176
  129MOL0     C17675  11.661   9.912  10.504 -0.5551 -0.0617  0.2604
  129MOL0     C17676  11.803   9.944  10.547 -0.1615 -0.0554  0.0294
  129MOL0     C17677  11.894   9.827  10.552 -0.2109 -0.2886  0.2348
  129MOL0     C17678  12.025   9.863  10.616  0.7006 -0.6343  0.5374
  129MOL0     C17679  12.133   9.759  10.605 -0.2956 -0.2986 -0.2431
  129MOL0     C17680  12.261   9.828  10.653 -0.0517  0.2449 -1.0149
  129MOL0     N17681  12.379   9.735  10.672  0.5141  0.3485 -0.6005
  129MOL0     C17682  12.377   9.630  10.758 -0.1488 -0.4457 -0.2092
  129MOL0     C17683  12.508   9.579  10.749  0.2331 -0.7163 -0.0330
  129MOL0     C17684  12.562   9.450  10.803  0.8852 -0.2575 -0.2894
  129MOL0     C17685  12.641   9.363  10.712 -0.6707 -0.1841 -0.3212
  129MOL0     C17686  12.689   9.227  10.776 -0.5700  0.0983 -0.8868
  129MOL0     C17687  12.810   9.177  10.697 -0.1439  0.0765 -0.4814
  129MOL0     O17688  12.934   9.244  10.737 -0.0398  0.0203  0.5004
  129MOL0     C17689  13.062   9.192  10.717  0.5213  0.8146  0.2026
  129MOL0     C17690  13.085   9.082  10.637  0.6635  0.4479 -0.0983
  129MOL0     C17691  13.206   9.018  10.624 -0.3754  0.2019 -0.2108
  129MOL0     C17692  13.213   8.892  10.543  0.7901 -0.0195 -0.1291
  129MOL0     C17693  13.319   9.087  10.674 -0.3188 -0.1714  0.2977
  129MOL0     C17694  13.464   9.042  10.654 -0.0546 -0.3296 -0.5477
  129MOL0     O17695  13.555   9.102  10.738 -0.5198 -0.2151 -0.0977
  129MOL0     C17696  13.686   9.075  10.714  0.3524 -0.6867 -0.5179
  129MOL0     C17697  13.759   9.015  10.810 -0.0436 -0.0170  0.1401
  129MOL0     C17698  13.893   8.998  10.797 -1.1462 -0.1715 -0.4699
  129MOL0     C17699  13.966   9.029  10.679 -0.1541 -1.1449 -0.5633
  129MOL0     O17700  14.100   9.018  10.653 -0.0515  0.5751  0.0501
  129MOL0     C17701  14.195   8.992  10.757 -0.0664  0.0219 -0.6098
  129MOL0     C17702  14.334   9.058  10.718 -0.8012  0.6623 -0.0875
  129MOL0     C17703  14.449   8.997  10.795  0.0357  0.0339  0.8780
  129MOL0     C17704  14.498   8.865  10.738 -0.4545  0.3996  0.5170
  129MOL0     C17705  14.634   8.832  10.800 -0.7608  0.4450  0.2561
  129MOL0     C17706  14.622   8.813  10.955 -0.0989 -0.1626  0.1733
  129MOL0     C17707  14.508   8.719  11.009  0.0253  0.1688 -0.3204
  129MOL0     C17708  14.520   8.568  10.963 -0.6536  0.2637 -0.3040
  129MOL0    Cl17709  14.693   8.519  10.979  0.1146  0.1075  0.2126
  129MOL0     C17710  13.885   9.097  10.583 -0.2577  0.3242 -0.2933
  129MOL0     C17711  13.751   9.129  10.603  0.5341  0.1577  0.1340
  129MOL0     O17712  13.492   8.963  10.567  0.1346 -0.1025  0.2290
  129MOL0     C17713  13.301   9.211  10.744  0.1329  0.1951 -0.2911
  129MOL0     C17714  13.172   9.263  10.763 -0.3741  0.4795  0.7878
  129MOL0     N17715  12.577   9.671  10.664 -0.3734 -0.1571 -0.0128
  129MOL0     N17716  12.497   9.762  10.615 -0.8666 -0.2172 -0.4998
  129MOL0     C17717  11.193   9.891  10.317  0.0028 -0.0955 -0.4138
  129MOL0     C17718  11.087   9.841  10.250  0.5849 -0.0906 -0.2457
  129MOL0     C17719  10.733   9.652  10.009 -0.6171  0.2425 -0.1779
  129MOL0     C17720  10.599   9.623  10.060 -0.5570 -0.3813 -0.2669
  129MOL0     C17721  10.496   9.562   9.981  0.3162  0.9453  0.7507
  129MOL0     C17722  10.535   9.523   9.847 -0.4885  0.4099 -0.3404
  129MOL0     O17723  10.453   9.455   9.760 -0.0087 -0.5409 -0.0062
  129MOL0     C17724  10.313   9.451   9.774 -0.1763 -0.2580  0.6523
  129MOL0     C17725  10.266   9.387   9.644 -0.0475  0.0887  0.7648
  129MOL0     C17726  10.112   9.387   9.642 -0.0121  0.8843 -0.1231
  129MOL0     C17727  10.065   9.314   9.527 -0.5417  0.0528  0.1041
  129MOL0     C17728   9.928   9.274   9.536  0.2222 -0.1447  0.3883
  129MOL0     C17729   9.815   9.246   9.543 -1.2345 -0.0307 -0.1950
  129MOL0     C17730  10.666   9.551   9.798  0.1206  0.1280  0.4739
  129MOL0     C17731  10.765   9.620   9.869  0.2935  0.0945 -0.3186
  129MOL0     C17732  10.890   9.658   9.794 -1.0506  0.7591 -0.7534
  129MOL0     H17733  11.224   9.701   9.986  1.6353  0.4162 -0.4312
  129MOL0     H17734  11.424   9.791  10.080  0.3925  3.6871 -0.4383
  129MOL0     H17735  11.404   9.924  10.506  0.8627  0.9206  0.7006
  129MOL0     H17736  11.377  10.084  10.445 -0.4948 -0.4613  2.7414
  129MOL0     H17737  11.633  10.080  10.379  0.8173 -1.3503  0.7264
  129MOL0     H17738  11.591  10.102  10.550  2.5242  0.5626 -0.5099
  129MOL0     H17739  11.613   9.855  10.583  1.3840 -0.8509  0.9284
  129MOL0     H17740  11.677   9.846  10.418  0.8168  0.5927 -0.0296
  129MOL0     H17741  11.851  10.022  10.486  2.0557 -0.6785  0.9031
  129MOL0     H17742  11.798   9.991  10.646 -0.6342  0.0004 -0.0170
  129MOL0     H17743  11.908   9.789  10.451  0.3981 -2.0795  0.9476
  129MOL0     H17744  11.846   9.744  10.605  3.5036 -2.5242  0.4443
  129MOL0     H17745  12.057   9.958  10.570 -2.0286  0.3729  0.5522
  129MOL0     H17746  12.009   9.878  10.723  0.2632 -0.4026  0.4435
  129MOL0     H17747  12.146   9.712  10.507  2.3832 -1.2586  0.4762
  129MOL0     H17748  12.110   9.673  10.669  1.7902 -1.4786 -0.9762
  129MOL0     H17749  12.294   9.907  10.586  2.7093  1.6257  1.7225
  129MOL0     H17750  12.240   9.877  10.749  0.6223 -0.9885 -0.2075
  129MOL0     H17751  12.296   9.595  10.821  0.9848 -1.1444  0.9176
  129MOL0     H17752  12.475   9.390  10.830 -0.0809  0.4109 -1.8461
  129MOL0     H17753  12.623   9.470  10.892 -0.2730 -0.6823  0.6294
  129MOL0     H17754  12.581   9.345  10.623  0.0626  2.1528 -1.3943
  129MOL0     H17755  12.728   9.422  10.680  0.3912 -1.1420  0.7093
  129MOL0     H17756  12.724   9.247  10.878 -2.5012 -0.3102 -0.1140
  129MOL0     H17757  12.609   9.154  10.763  1.8896 -2.7184 -1.2193
  129MOL0     H17758  12.818   9.071  10.723  2.6410  0.3392  0.0754
  129MOL0     H17759  12.782   9.177  10.591 -0.1042 -1.3512 -0.5115
  129MOL0     H17760  13.001   9.028  10.594 -2.3682  4.1954  0.5907
  129MOL0     H17761  13.266   8.916  10.450  2.3328 -0.5686  0.5835
  129MOL0     H17762  13.115   8.847  10.523  0.6163  0.0107  0.6235
  129MOL0     H17763  13.265   8.816  10.600 -2.4469 -3.1641 -0.9941
  129MOL0     H17764  13.710   8.996  10.905  2.4651 -0.7895  1.3576
  129MOL0     H17765  13.942   8.953  10.883  0.5589  1.1283 -0.7077
  129MOL0     H17766  14.162   9.027  10.855 -0.5398 -0.6487 -0.5234
  129MOL0     H17767  14.207   8.884  10.766 -1.0605 -0.0366  0.2950
  129MOL0     H17768  14.366   9.043  10.614 -1.2329 -1.0125  0.0052
  129MOL0     H17769  14.320   9.164  10.741 -0.6685  0.5447  0.5510
  129MOL0     H17770  14.433   9.000  10.904 -2.4671 -0.3888  0.5918
  129MOL0     H17771  14.529   9.070  10.784 -2.1891  3.2873  3.7516
  129MOL0     H17772  14.521   8.876  10.632  0.9394  0.5686  0.8227
  129MOL0     H17773  14.431   8.780  10.755  0.9562 -0.8569  0.0194
  129MOL0     H17774  14.655   8.731  10.761  0.7475  0.6407  0.5032
  129MOL0     H17775  14.710   8.908  10.782 -0.7660  0.4230  0.1429
  129MOL0     H17776  14.622   8.907  11.011 -2.4549 -0.1063  0.1816
  129MOL0     H17777  14.714   8.767  10.990 -0.1165 -1.3538 -1.2452
  129MOL0     H17778  14.413   8.764  10.980 -0.1430  0.2913  0.3962
  129MOL0     H17779  14.509   8.717  11.119 -1.6428 -1.9449 -0.2892
  129MOL0     H17780  14.477   8.558  10.863 -0.0069  0.2222 -0.5857
  129MOL0     H17781  14.458   8.503  11.025 -0.0100  0.7629  0.8908
  129MOL0     H17782  13.926   9.134  10.490 -0.8107  0.9922 -0.2818
  129MOL0     H17783  13.700   9.172  10.517 -1.8233 -1.9657  0.3443
  129MOL0     H17784  13.380   9.272  10.788 -2.7880  2.9328  1.6209
  129MOL0     H17785  13.172   9.359  10.812  0.6221 -0.6199  3.1000
  129MOL0     H17786  11.182   9.955  10.404 -0.6524 -1.5013  0.5715
  129MOL0     H17787  10.989   9.864  10.291  0.5218 -2.0871  0.8598
  129MOL0     H17788  10.582   9.660  10.160  1.2157  1.4502 -0.5779
  129MOL0     H17789  10.396   9.545  10.019  0.4881  0.0824  0.8378
  129MOL0     H17790  10.297   9.392   9.865 -0.6974 -0.1772  0.6155
  129MOL0     H17791  10.279   9.554   9.787  0.2307  0.2949 -2.1750
  129MOL0     H17792  10.309   9.287   9.640 -0.1935  0.0222 -2.9898
  129MOL0     H17793  10.299   9.438   9.553  0.5568 -0.6351  0.5678
  129MOL0     H17794  10.083   9.334   9.734 -1.0424  0.4559 -0.6794
  129MOL0     H17795  10.065   9.485   9.656 -0.4557  0.2237  4.8218
  129MOL0     H17796  10.129   9.227   9.507 -0.0488  0.4624 -0.1213
  129MOL0     H17797  10.068   9.380   9.440  0.2337 -0.8905 -0.6013
  129MOL0     H17798   9.713   9.211   9.542 -0.9815 -0.8829 -2.3054
  129MOL0     H17799  10.689   9.515   9.698 -0.4364  1.7235 -0.2661
  129MOL0     H17800  10.872   9.653   9.686 -0.5653  0.5796 -0.8305
  129MOL0     H17801  10.940   9.751   9.822 -0.2097 -0.1784  0.9782
  129MOL0     H17802  10.962   9.576   9.807 -0.7196  0.6903 -2.7293
  130MOL0     O17803   0.803  11.343   8.491 -0.4912  0.9735 -0.5372
  130MOL0     C17804   0.780  11.433   8.409 -1.1924  0.3262  0.4861
  130MOL0     O17805   0.870  11.526   8.371  0.0431 -0.1937 -0.4862
  130MOL0     C17806   1.003  11.501   8.378  0.2116 -0.5767  0.1021
  130MOL0     C17807   1.057  11.385   8.339  0.1162  0.3337 -0.2715
  130MOL0     C17808   1.194  11.354   8.366 -0.1243 -0.1146 -0.1099
  130MOL0     C17809   1.277  11.459   8.425  0.2066  0.3423 -0.3987
  130MOL0     O17810   1.410  11.452   8.450 -0.0929 -0.2047  0.3816
  130MOL0     C17811   1.493  11.357   8.388 -0.3559  0.0046  0.7075
  130MOL0     C17812   1.635  11.380   8.435 -0.2859 -0.3063 -0.7940
  130MOL0     C17813   1.650  11.384   8.590 -0.7957  0.2964 -0.7012
  130MOL0     C17814   1.793  11.339   8.627  0.6508 -0.8603 -0.0845
  130MOL0     C17815   1.838  11.399   8.761 -0.3626  1.2998  0.0594
  130MOL0     C17816   1.991  11.375   8.788  0.2380 -0.9948  0.2937
  130MOL0     C17817   2.013  11.239   8.847  0.0196  1.1685  0.2762
  130MOL0     C17818   2.166  11.209   8.867  0.0244  0.9615 -0.7601
  130MOL0     N17819   2.236  11.183   8.738 -0.1175  0.5289  0.5259
  130MOL0     C17820   2.263  11.067   8.681 -0.4506 -0.3731 -0.2103
  130MOL0     C17821   2.339  11.099   8.576 -0.0731 -1.2989 -0.1083
  130MOL0     C17822   2.388  10.999   8.479 -0.5884 -0.2887 -0.4970
  130MOL0     C17823   2.526  11.034   8.425 -0.4306  0.1147 -0.0932
  130MOL0     C17824   2.579  10.952   8.302  0.2448  0.0742 -0.2913
  130MOL0     C17825   2.687  11.024   8.227  0.5354 -0.8467  1.2558
  130MOL0     O17826   2.797  11.042   8.302  0.0953 -0.4150 -0.7550
  130MOL0     C17827   2.903  10.957   8.287  0.6910 -0.3971  0.2076
  130MOL0     C17828   2.899  10.833   8.223 -1.0222 -0.1152  0.1286
  130MOL0     C17829   3.007  10.742   8.226 -0.1631  0.0334 -0.8243
  130MOL0     C17830   2.984  10.609   8.165  0.5052  0.6245  0.2066
  130MOL0     C17831   3.134  10.785   8.282 -0.6091 -0.2316  0.4097
  130MOL0     C17832   3.259  10.704   8.278 -0.1757  0.6152 -0.0402
  130MOL0     O17833   3.382  10.758   8.322  0.1584 -0.8619  0.3436
  130MOL0     C17834   3.499  10.691   8.302 -0.5083  0.0875  0.1243
  130MOL0     C17835   3.539  10.673   8.171  0.2196 -0.3556 -0.4423
  130MOL0     C17836   3.659  10.604   8.146 -0.4010  0.6273  0.2122
  130MOL0     C17837   3.749  10.572   8.252 -0.4547  0.3750 -0.1286
  130MOL0     O17838   3.871  10.508   8.222  0.5543 -0.4259  0.2474
  130MOL0     C17839   3.878  10.371   8.193  0.0141  0.2285  0.4883
  130MOL0     C17840   3.965  10.352   8.075 -0.8641 -0.5798  0.0890
  130MOL0     C17841   3.893  10.373   7.938 -0.4971 -0.1689  0.2364
  130MOL0     C17842   4.000  10.354   7.818  0.5639 -0.1698 -0.6361
  130MOL0     C17843   3.925  10.282   7.702  0.2237 -0.5303  0.0698
  130MOL0     C17844   3.997  10.295   7.567  0.2323 -0.2156 -0.0025
  130MOL0     C17845   4.141  10.243   7.566  0.4794 -0.6058 -0.3526
  130MOL0     C17846   4.212  10.273   7.436 -0.5345  0.4002  0.6319
  130MOL0    Cl17847   4.373  10.173   7.433  0.1584 -0.5973 -0.0777
  130MOL0     C17848   3.707  10.588   8.382 -0.8487  0.5269  0.2073
  130MOL0     C17849   3.583  10.645   8.409 -0.5143  0.5208  0.4469
  130MOL0     O17850   3.252  10.572   8.254 -0.1263  0.2785  0.0698
  130MOL0     C17851   3.139  10.919   8.334  0.9559 -0.3368  0.6792
  130MOL0     C17852   3.028  11.004   8.335 -0.7416 -0.3723  0.0792
  130MOL0     N17853   2.355  11.235   8.561  0.5556  0.0406  0.8891
  130MOL0     N17854   2.289  11.282   8.663  0.0585 -0.4365  0.1060
  130MOL0     C17855   1.219  11.587   8.454 -1.1486  0.5814 -0.3954
  130MOL0     C17856   1.078  11.608   8.431 -0.5491 -0.3878  0.6389
  130MOL0     C17857   0.639  11.449   8.365 -0.0508  0.2814  0.8119
  130MOL0     C17858   0.556  11.333   8.372  0.1828 -0.2175 -0.1470
  130MOL0     C17859   0.429  11.334   8.313 -0.2568 -0.2241  0.4691
  130MOL0     C17860   0.387  11.448   8.248  0.8215  0.2993 -1.0499
  130MOL0     O17861   0.261  11.454   8.202 -0.7609 -0.0483 -0.0946
  130MOL0     C17862   0.211  11.559   8.122  0.5023 -0.1528 -0.0693
  130MOL0     C17863   0.063  11.524   8.080 -0.4463  0.0421 -1.0175
  130MOL0     C17864   0.039  11.383   8.031 -1.0432  0.5386 -0.4442
  130MOL0     C17865  -0.105  11.348   8.013  1.2742 -0.3753 -0.5012
  130MOL0     C17866  -0.129  11.250   7.909 -0.5916 -0.5019 -0.0310
  130MOL0     C17867  -0.158  11.154   7.836 -0.0913 -0.8946  0.0502
  130MOL0     C17868   0.462  11.562   8.256 -0.5195  0.1471  0.1185
  130MOL0     C17869   0.587  11.568   8.305  0.7649  0.1530 -0.0554
  130MOL0     C17870   0.652  11.706   8.299 -0.0689  0.3508 -0.6434
  130MOL0     H17871   0.984  11.311   8.308 -3.1703  2.9477  0.4945
  130MOL0     H17872   1.241  11.258   8.349 -1.6419 -0.6761 -1.3962
  130MOL0     H17873   1.488  11.364   8.278 -1.6893 -1.7668  0.6231
  130MOL0     H17874   1.469  11.253   8.409 -0.5350  0.1014  0.9793
  130MOL0     H17875   1.698  11.303   8.388  2.6834  2.0750 -0.9830
  130MOL0     H17876   1.676  11.472   8.393 -0.0760 -1.9754 -4.6710
  130MOL0     H17877   1.639  11.487   8.625  4.3891  0.7625  0.3830
  130MOL0     H17878   1.577  11.320   8.639 -1.6557  0.0158 -2.2752
  130MOL0     H17879   1.783  11.231   8.637 -1.2339 -0.9422 -2.0905
  130MOL0     H17880   1.864  11.365   8.548 -1.7347  2.0187 -1.4815
  130MOL0     H17881   1.776  11.352   8.838 -0.5791  0.2645 -0.7199
  130MOL0     H17882   1.823  11.507   8.759 -0.0323  1.3432 -0.2712
  130MOL0     H17883   2.043  11.376   8.691 -2.7349 -3.2835 -1.4853
  130MOL0     H17884   2.035  11.448   8.856 -0.7098 -0.1281  0.0030
  130MOL0     H17885   1.978  11.153   8.790  2.4457 -0.3645  0.9251
  130MOL0     H17886   1.971  11.248   8.947  1.0005  1.8268  0.6503
  130MOL0     H17887   2.226  11.280   8.924 -0.8018  2.5949 -1.8384
  130MOL0     H17888   2.156  11.110   8.911 -2.5481  1.0789 -0.9635
  130MOL0     H17889   2.217  10.976   8.716 -1.2483  0.0706 -0.0836
  130MOL0     H17890   2.309  10.998   8.403 -1.6254  2.9779  0.3758
  130MOL0     H17891   2.405  10.903   8.528  0.2729 -0.8450 -1.8428
  130MOL0     H17892   2.524  11.133   8.378  0.5720  0.2194  0.0599
  130MOL0     H17893   2.597  11.045   8.508 -2.1919  1.3314  1.3143
  130MOL0     H17894   2.613  10.854   8.335  0.4819  0.5329  0.8907
  130MOL0     H17895   2.492  10.930   8.239  0.1320 -0.7281  0.1347
  130MOL0     H17896   2.695  10.986   8.124 -3.0650 -0.8243  0.8173
  130MOL0     H17897   2.644  11.123   8.206  0.0213 -0.6782  2.9467
  130MOL0     H17898   2.810  10.792   8.175  0.0126 -1.6742 -0.5677
  130MOL0     H17899   2.879  10.600   8.137  0.0856 -0.4238  1.9773
  130MOL0     H17900   3.003  10.526   8.234 -0.9907  0.3492  0.3256
  130MOL0     H17901   3.036  10.588   8.070  0.3037  2.8215 -0.4434
  130MOL0     H17902   3.481  10.713   8.089  0.7216  1.7255  0.1529
  130MOL0     H17903   3.687  10.574   8.045  0.2261  1.6936  0.0571
  130MOL0     H17904   3.915  10.314   8.279  0.4084 -0.8506 -0.3713
  130MOL0     H17905   3.780  10.328   8.168  1.8427 -2.9325 -2.0885
  130MOL0     H17906   4.041  10.430   8.086 -0.2352 -1.4509  2.4916
  130MOL0     H17907   4.023  10.259   8.083 -1.2633 -0.8569 -0.1889
  130MOL0     H17908   3.850  10.473   7.930  0.4436  0.0973 -2.4456
  130MOL0     H17909   3.814  10.298   7.928  0.5385 -1.0961 -1.5621
  130MOL0     H17910   4.082  10.296   7.862 -0.1762 -1.6594 -1.1436
  130MOL0     H17911   4.034  10.457   7.800 -1.9986  1.7139  3.7264
  130MOL0     H17912   3.914  10.181   7.745  1.7603 -0.6133  0.3509
  130MOL0     H17913   3.824  10.322   7.696  0.2704 -0.5632 -0.9922
  130MOL0     H17914   3.996  10.399   7.534  0.9814 -0.2839 -0.2508
  130MOL0     H17915   3.930  10.244   7.497 -0.9263  0.1456  0.8099
  130MOL0     H17916   4.130  10.135   7.575  1.3118 -0.6075  0.9311
  130MOL0     H17917   4.202  10.279   7.649 -1.7349  0.3576  0.9639
  130MOL0     H17918   4.236  10.378   7.415  0.6702 -0.2314 -1.4462
  130MOL0     H17919   4.139  10.234   7.364 -2.0078 -1.5070  2.9872
  130MOL0     H17920   3.769  10.555   8.464 -0.6735 -0.3060 -0.2485
  130MOL0     H17921   3.550  10.641   8.513  1.9506 -1.5793  1.2763
  130MOL0     H17922   3.232  10.945   8.382  1.7273 -1.1641 -0.3329
  130MOL0     H17923   3.034  11.104   8.378 -2.3095  0.4746 -1.5193
  130MOL0     H17924   1.272  11.676   8.487 -1.7639  2.3363 -3.7475
  130MOL0     H17925   1.032  11.699   8.467  0.3491 -0.0067  0.8389
  130MOL0     H17926   0.584  11.238   8.417 -0.2410  0.1393  0.9173
  130MOL0     H17927   0.364  11.248   8.328 -1.8985  0.0965 -3.5713
  130MOL0     H17928   0.216  11.649   8.183  1.2493 -0.6227  0.5802
  130MOL0     H17929   0.271  11.571   8.031 -3.8230 -1.6987 -3.5580
  130MOL0     H17930   0.038  11.605   8.011 -0.3209  1.2838  0.3377
  130MOL0     H17931  -0.001  11.545   8.166  0.9724 -0.7571  0.2991
  130MOL0     H17932   0.092  11.365   7.937 -2.3951 -1.2067 -0.9238
  130MOL0     H17933   0.073  11.314   8.109 -3.3609 -0.2558 -0.0652
  130MOL0     H17934  -0.157  11.441   7.989  3.3739  1.0515  0.1771
  130MOL0     H17935  -0.147  11.299   8.101  0.5832  1.1990  0.0893
  130MOL0     H17936  -0.175  11.071   7.770  0.5559  0.4079 -1.8385
  130MOL0     H17937   0.415  11.654   8.222 -0.8752 -0.1556 -0.2154
  130MOL0     H17938   0.574  11.782   8.304 -0.5510 -0.2362  1.7940
  130MOL0     H17939   0.719  11.728   8.383 -0.5340  0.3952 -0.2842
  130MOL0     H17940   0.699  11.707   8.200  0.3682 -1.1194 -0.4801
  131MOL0     O17941   8.599   5.968   7.185  0.0744  0.0858  0.1528
  131MOL0     C17942   8.534   6.073   7.175 -0.2593  0.4038 -0.4126
  131MOL0     O17943   8.574   6.193   7.231 -0.7404 -0.2945 -0.1981
  131MOL0     C17944   8.689   6.198   7.312 -0.0728 -0.5342 -0.6066
  131MOL0     C17945   8.817   6.181   7.262  0.7032 -0.4516 -0.7197
  131MOL0     C17946   8.928   6.203   7.348  0.5768  0.2169  0.6525
  131MOL0     C17947   8.916   6.238   7.485  0.1944  0.7354 -0.0331
  131MOL0     O17948   9.022   6.262   7.565  0.1803 -0.3576  0.0323
  131MOL0     C17949   9.142   6.296   7.498 -1.0581 -0.4672  0.0632
  131MOL0     C17950   9.236   6.387   7.586 -0.3511 -0.1215  0.0588
  131MOL0     C17951   9.360   6.443   7.522  0.3552 -0.3492  0.1711
  131MOL0     C17952   9.416   6.576   7.569  0.0736  0.3673 -0.4662
  131MOL0     C17953   9.547   6.606   7.495 -0.0438  0.0716 -0.0704
  131MOL0     C17954   9.616   6.733   7.552  1.4068  0.8123 -0.2186
  131MOL0     C17955   9.746   6.763   7.489 -1.3082  1.5883  0.3988
  131MOL0     C17956   9.742   6.734   7.338 -0.4497 -0.1134 -0.7636
  131MOL0     N17957   9.842   6.814   7.269 -0.5968 -0.1910  0.0377
  131MOL0     C17958   9.972   6.768   7.246  0.5455 -0.6650  0.3684
  131MOL0     C17959  10.037   6.878   7.208  0.6248  0.0549 -0.3745
  131MOL0     C17960  10.160   6.868   7.120  0.7071  0.6991  0.8309
  131MOL0     C17961  10.288   6.942   7.170 -0.3401  0.8948 -0.1445
  131MOL0     C17962  10.266   7.088   7.198  0.6272 -0.6676 -0.1635
  131MOL0     C17963  10.399   7.156   7.235  0.4403 -0.2734 -0.5227
  131MOL0     O17964  10.451   7.100   7.357 -0.2249  0.2514  0.2104
  131MOL0     C17965  10.585   7.110   7.373  0.6799  0.1429 -0.0875
  131MOL0     C17966  10.664   7.215   7.338  0.3316 -0.6503 -0.9198
  131MOL0     C17967  10.804   7.212   7.368 -0.4147  0.8567  0.5751
  131MOL0     C17968  10.886   7.342   7.345 -0.3495  0.3981  1.0366
  131MOL0     C17969  10.865   7.080   7.398 -0.2208 -0.3790 -0.5112
  131MOL0     C17970  11.008   7.053   7.382 -0.3542  0.2642 -0.5697
  131MOL0     O17971  11.060   6.957   7.460 -0.6447  1.0165  0.3477
  131MOL0     C17972  11.184   6.907   7.426 -0.2589  0.1706 -0.4978
  131MOL0     C17973  11.293   6.908   7.520 -0.7179  0.6752 -0.3340
  131MOL0     C17974  11.425   6.873   7.477  0.3771 -0.7827 -0.4678
  131MOL0     C17975  11.453   6.825   7.353 -0.5541 -0.0848  1.0759
  131MOL0     O17976  11.581   6.802   7.319  0.7132 -0.6085  0.4472
  131MOL0     C17977  11.598   6.716   7.210 -0.3960  0.4865 -0.1268
  131MOL0     C17978  11.745   6.676   7.223  0.4780  0.1309 -1.3279
  131MOL0     C17979  11.788   6.581   7.113  0.2690 -0.4390  0.1426
  131MOL0     C17980  11.939   6.614   7.079  0.1053  0.3903  0.3236
  131MOL0     C17981  11.996   6.522   6.972  0.4024 -0.2669 -1.0774
  131MOL0     C17982  12.148   6.557   6.964 -0.2581  0.4468  0.1086
  131MOL0     C17983  12.171   6.706   6.928 -0.1753 -0.0343 -0.4242
  131MOL0     C17984  12.294   6.735   6.850 -0.1395  0.0509  0.0397
  131MOL0    Cl17985  12.295   6.915   6.797 -0.0689  0.0129 -0.4293
  131MOL0     C17986  11.344   6.817   7.263  0.6301  0.3912 -0.0490
  131MOL0     C17987  11.212   6.855   7.299 -0.3467  0.0198 -0.5435
  131MOL0     O17988  11.071   7.112   7.291  0.5381 -0.0206 -0.8667
  131MOL0     C17989  10.775   6.978   7.445  0.2399  0.1457  0.0937
  131MOL0     C17990  10.640   6.995   7.431  0.8264 -0.8468 -0.3003
  131MOL0     N17991   9.954   6.989   7.213 -0.0892 -0.3364  0.4696
  131MOL0     N17992   9.838   6.949   7.239  0.9998 -0.8687 -0.0988
  131MOL0     C17993   8.789   6.242   7.539 -0.1867  0.7955 -0.4910
  131MOL0     C17994   8.674   6.219   7.453 -0.5215  0.1999  1.0877
  131MOL0     C17995   8.411   6.085   7.092  0.0840 -0.1801 -0.0076
  131MOL0     C17996   8.335   6.204   7.105  0.5963  0.0399 -0.0514
  131MOL0     C17997   8.214   6.222   7.031 -0.4068 -0.6836  0.2970
  131MOL0     C17998   8.172   6.123   6.941  0.3546  0.9645 -0.8132
  131MOL0     O17999   8.055   6.147   6.867 -0.1403  0.3029 -0.2632
  131MOL0     C18000   7.978   6.035   6.812 -0.6346  0.1262  0.1297
  131MOL0     C18001   7.845   6.106   6.769 -0.7386 -0.5455  0.2796
  131MOL0     C18002   7.736   5.998   6.745 -0.6095  0.2725  0.8785
  131MOL0     C18003   7.722   5.941   6.602 -0.0484 -0.0378 -0.2046
  131MOL0     C18004   7.638   5.821   6.597  0.4395 -0.0825 -0.0773
  131MOL0     C18005   7.586   5.714   6.589  0.0103  0.2366 -0.3831
  131MOL0     C18006   8.248   6.004   6.932 -0.2601 -0.3859 -0.0751
  131MOL0     C18007   8.371   5.984   7.001 -0.0259 -0.7210  0.1544
  131MOL0     C18008   8.450   5.849   6.970  0.0853 -1.2329 -0.3692
  131MOL0     H18009   8.828   6.146   7.160 -3.5591 -0.0991 -1.4816
  131MOL0     H18010   9.021   6.205   7.291  0.9545  3.1724  1.1916
  131MOL0     H18011   9.121   6.363   7.413  1.4101 -1.0427 -1.0924
  131MOL0     H18012   9.192   6.204   7.467  1.9015  2.0194 -3.4833
  131MOL0     H18013   9.175   6.472   7.619  0.2311 -0.0045  0.8662
  131MOL0     H18014   9.264   6.328   7.673 -0.7947  2.0765  1.8033
  131MOL0     H18015   9.433   6.364   7.542  0.1155 -0.0834  2.4086
  131MOL0     H18016   9.354   6.458   7.414  0.9343 -0.5070  0.1150
  131MOL0     H18017   9.342   6.652   7.545 -0.7863 -0.7835 -1.5765
  131MOL0     H18018   9.435   6.575   7.677  0.3744  0.8826 -0.5124
  131MOL0     H18019   9.524   6.618   7.388  0.1321 -0.5104 -0.1770
  131MOL0     H18020   9.617   6.523   7.515  1.8634  1.2466 -1.5109
  131MOL0     H18021   9.551   6.818   7.530  0.1201 -0.7656 -3.0758
  131MOL0     H18022   9.635   6.722   7.659 -1.6047 -1.2870  0.2102
  131MOL0     H18023   9.834   6.713   7.531 -1.0283  1.7067 -0.0358
  131MOL0     H18024   9.760   6.871   7.499  1.1563  1.3096  0.6007
  131MOL0     H18025   9.760   6.627   7.326  0.5381 -0.3973  2.3680
  131MOL0     H18026   9.643   6.768   7.307 -0.9805 -0.1231  0.8569
  131MOL0     H18027   9.988   6.661   7.236 -0.9175 -0.8905  0.2655
  131MOL0     H18028  10.144   6.921   7.025 -1.3271  2.3209  1.9857
  131MOL0     H18029  10.183   6.763   7.099  1.3068  0.8022  0.9533
  131MOL0     H18030  10.323   6.891   7.260 -3.3328  2.1210  1.9062
  131MOL0     H18031  10.368   6.936   7.096 -0.1779  2.8570 -0.1738
  131MOL0     H18032  10.224   7.147   7.116 -2.3334 -1.4144  0.6955
  131MOL0     H18033  10.192   7.109   7.275  0.3669  1.1075 -0.8716
  131MOL0     H18034  10.471   7.149   7.154  2.0338  3.9483  0.2749
  131MOL0     H18035  10.389   7.263   7.256  3.5228  0.0434 -0.1993
  131MOL0     H18036  10.619   7.306   7.301  0.9542  1.5368  3.1068
  131MOL0     H18037  10.935   7.362   7.441 -1.3717 -1.6599  2.0572
  131MOL0     H18038  10.828   7.425   7.304  1.2942  0.8774 -0.3982
  131MOL0     H18039  10.955   7.325   7.262 -3.5533 -3.0174 -1.2585
  131MOL0     H18040  11.283   6.947   7.621 -2.9601  0.9667 -0.6184
  131MOL0     H18041  11.502   6.897   7.550  0.3034 -0.3101 -0.5421
  131MOL0     H18042  11.532   6.629   7.203  0.9647 -0.5512 -0.5857
  131MOL0     H18043  11.569   6.779   7.125 -1.1193  1.3196  0.7184
  131MOL0     H18044  11.806   6.767   7.219  2.7998 -1.3020 -0.5603
  131MOL0     H18045  11.759   6.626   7.319 -1.8015  1.9941  0.0896
  131MOL0     H18046  11.720   6.595   7.029  0.9173 -0.6374 -0.4168
  131MOL0     H18047  11.776   6.480   7.153 -0.8749 -0.4017 -0.0734
  131MOL0     H18048  11.999   6.603   7.170 -0.1455 -0.7507  0.3629
  131MOL0     H18049  11.936   6.717   7.041 -0.7731 -0.3359 -1.7225
  131MOL0     H18050  11.980   6.419   7.004  0.4509  0.5287  1.7723
  131MOL0     H18051  11.951   6.538   6.874  0.0818  2.5233 -0.5552
  131MOL0     H18052  12.191   6.492   6.887  1.4128  2.3864 -0.6712
  131MOL0     H18053  12.197   6.542   7.061  0.2899  1.3333 -0.0243
  131MOL0     H18054  12.162   6.757   7.024  0.2932  0.6776 -0.7498
  131MOL0     H18055  12.078   6.729   6.874 -0.4308  0.9304  0.3953
  131MOL0     H18056  12.296   6.663   6.768 -0.1369  0.3381 -0.2118
  131MOL0     H18057  12.391   6.719   6.897 -0.1382 -1.6950 -0.4753
  131MOL0     H18058  11.359   6.771   7.166 -0.3468 -0.6026  0.2467
  131MOL0     H18059  11.133   6.834   7.227  0.4514 -1.3502 -1.0560
  131MOL0     H18060  10.804   6.889   7.499 -1.7099  0.6562  2.1226
  131MOL0     H18061  10.572   6.917   7.463  2.0945 -1.0128  2.2432
  131MOL0     H18062   8.781   6.269   7.643 -1.3836 -1.1822 -0.0153
  131MOL0     H18063   8.573   6.215   7.492 -1.1006  0.3297 -0.3472
  131MOL0     H18064   8.373   6.284   7.169  0.2210 -0.1615  0.4289
  131MOL0     H18065   8.154   6.308   7.060  0.6009 -0.2368  1.1170
  131MOL0     H18066   8.034   5.985   6.733 -2.4752 -1.6935 -0.1253
  131MOL0     H18067   7.961   5.957   6.887  2.0405  0.0119  0.7223
  131MOL0     H18068   7.857   6.177   6.687  0.3397  1.4067  2.0058
  131MOL0     H18069   7.812   6.173   6.849 -3.1729 -1.2138 -0.0694
  131MOL0     H18070   7.747   5.911   6.811  4.5629 -1.4910 -1.7164
  131MOL0     H18071   7.643   6.049   6.771 -2.5021 -3.3276  1.9331
  131MOL0     H18072   7.824   5.918   6.568  1.3340  2.1069  2.0781
  131MOL0     H18073   7.682   6.019   6.537  1.5486  0.4399 -0.6646
  131MOL0     H18074   7.547   5.614   6.580  3.1705 -1.4210  2.0853
  131MOL0     H18075   8.203   5.925   6.872 -2.9473  1.1811 -0.3194
  131MOL0     H18076   8.471   5.790   7.059  1.6231 -0.0673  0.0906
  131MOL0     H18077   8.403   5.789   6.892  0.4447  0.6751 -2.1754
  131MOL0     H18078   8.547   5.869   6.922  0.5226 -0.7730  0.6757
  132MOL0     O18079   3.900   1.340  10.367 -0.2707 -0.4459  0.3809
  132MOL0     C18080   3.938   1.227  10.391 -0.5433  0.9089 -0.6029
  132MOL0     O18081   4.037   1.195  10.489 -0.4724 -0.8483  0.1220
  132MOL0     C18082   4.136   1.291  10.519 -0.1888 -0.5019 -0.2584
  132MOL0     C18083   4.268   1.247  10.509  0.0076  0.4788 -0.2460
  132MOL0     C18084   4.370   1.332  10.533 -0.1827  0.1457 -0.6638
  132MOL0     C18085   4.345   1.463  10.582  0.4799 -0.1023  0.2001
  132MOL0     O18086   4.434   1.565  10.599 -0.0550 -0.9099 -0.1817
  132MOL0     C18087   4.577   1.539  10.574 -0.4911 -0.3974  0.1528
  132MOL0     C18088   4.664   1.660  10.598 -0.0396  0.4056 -0.2171
  132MOL0     C18089   4.807   1.640  10.544 -0.2461 -0.0459 -0.1187
  132MOL0     C18090   4.896   1.548  10.631 -0.0732 -0.1268 -0.7330
  132MOL0     C18091   5.046   1.541  10.581  0.6258 -0.1277  0.3788
  132MOL0     C18092   5.116   1.438  10.665  0.5450 -0.4177 -0.2941
  132MOL0     C18093   5.247   1.402  10.595 -0.3090 -0.2113  0.4597
  132MOL0     C18094   5.351   1.500  10.647 -0.3734  0.2869 -0.0151
  132MOL0     N18095   5.485   1.490  10.588  0.4801  0.6370  0.6920
  132MOL0     C18096   5.526   1.534  10.467  0.0471 -0.1965  0.1472
  132MOL0     C18097   5.650   1.485  10.451 -0.4006 -0.0307  0.4929
  132MOL0     C18098   5.724   1.514  10.321 -0.2186 -0.0162  0.1097
  132MOL0     C18099   5.688   1.645  10.239  0.0026  0.1038  0.3844
  132MOL0     C18100   5.797   1.690  10.142 -0.0758 -1.3972 -1.0502
  132MOL0     C18101   5.928   1.716  10.204  0.8093 -0.4012  0.4877
  132MOL0     O18102   5.917   1.805  10.322  0.5231  0.2981  1.2428
  132MOL0     C18103   6.035   1.843  10.385  0.1114 -0.2063  1.0635
  132MOL0     C18104   6.034   1.958  10.454 -0.2427  0.0073 -0.0957
  132MOL0     C18105   6.147   2.005  10.529 -0.4838 -0.0122 -0.4904
  132MOL0     C18106   6.119   2.125  10.622 -0.2921 -0.8683  0.3903
  132MOL0     C18107   6.269   1.944  10.526 -0.7300 -0.5804  0.0049
  132MOL0     C18108   6.398   1.983  10.583 -0.0163 -0.1451 -0.2155
  132MOL0     O18109   6.392   2.042  10.707  0.0389  0.3145 -0.2789
  132MOL0     C18110   6.508   2.074  10.767 -1.5087  0.4573 -0.5258
  132MOL0     C18111   6.568   1.997  10.869 -0.7951 -0.2863 -0.0693
  132MOL0     C18112   6.698   2.025  10.909  0.4372 -0.8453 -0.5859
  132MOL0     C18113   6.766   2.141  10.857  0.2068  0.0890  0.2583
  132MOL0     O18114   6.890   2.195  10.894  0.0819 -0.4295 -0.4508
  132MOL0     C18115   6.950   2.153  11.021  1.0350  0.4282 -0.1553
  132MOL0     C18116   7.047   2.268  11.067  0.0489  0.4141 -0.1966
  132MOL0     C18117   7.063   2.266  11.222  0.1368 -1.1212 -0.0517
  132MOL0     C18118   7.161   2.379  11.261 -0.2381 -0.3894  0.8002
  132MOL0     C18119   7.102   2.524  11.244 -0.7301  0.5189 -0.2247
  132MOL0     C18120   7.181   2.627  11.336  0.3730  0.2504 -0.1627
  132MOL0     C18121   7.134   2.774  11.320 -0.4284 -0.2328  0.2779
  132MOL0     C18122   6.988   2.799  11.368 -0.2334 -0.1185  0.2575
  132MOL0    Cl18123   6.899   2.802  11.212 -0.1187  0.3877  0.2953
  132MOL0     C18124   6.698   2.222  10.781 -1.3925  0.7527  0.2526
  132MOL0     C18125   6.568   2.191  10.734  0.6768 -0.4662  0.2004
  132MOL0     O18126   6.504   1.950  10.527  0.5495  1.0583  0.1806
  132MOL0     C18127   6.275   1.819  10.454  0.2866 -0.6796  0.4808
  132MOL0     C18128   6.161   1.776  10.379 -0.2208  0.2830  0.0852
  132MOL0     N18129   5.689   1.403  10.567  0.9376 -0.7291 -0.2238
  132MOL0     N18130   5.577   1.409  10.643 -0.0561 -0.0748 -0.6910
  132MOL0     C18131   4.211   1.505  10.602  1.2417  0.2310  0.5260
  132MOL0     C18132   4.109   1.422  10.567  0.5453  0.0558  0.4198
  132MOL0     C18133   3.873   1.098  10.337  0.5029  0.7169 -0.2150
  132MOL0     C18134   3.943   0.976  10.348 -0.1587 -0.6082  0.1310
  132MOL0     C18135   3.888   0.858  10.320 -0.0520  0.2055  0.3938
  132MOL0     C18136   3.755   0.849  10.271 -0.7617  0.5571 -0.1062
  132MOL0     O18137   3.720   0.734  10.204  0.1350  0.1997 -0.5671
  132MOL0     C18138   3.753   0.599  10.255  0.4060  0.0902  0.3275
  132MOL0     C18139   3.676   0.488  10.187  0.4746  0.2132  0.5655
  132MOL0     C18140   3.527   0.511  10.156  0.5606 -0.3858  0.3278
  132MOL0     C18141   3.456   0.383  10.137 -0.8116  0.0456 -0.8542
  132MOL0     C18142   3.333   0.396  10.061 -0.4579 -0.6660 -1.1809
  132MOL0     C18143   3.225   0.396  10.010  0.3568  0.0548  0.0120
  132MOL0     C18144   3.684   0.964  10.258  1.0186  0.5843  0.0004
  132MOL0     C18145   3.743   1.092  10.281 -0.0417 -0.2609 -0.5940
  132MOL0     C18146   3.665   1.215  10.247 -0.0577 -0.4753 -0.2121
  132MOL0     H18147   4.302   1.149  10.475  1.5709  1.0909 -0.5640
  132MOL0     H18148   4.466   1.292  10.501  0.7616  1.3497  0.5060
  132MOL0     H18149   4.583   1.495  10.474 -4.0048 -0.9302  0.0286
  132MOL0     H18150   4.608   1.458  10.641  3.5274  0.9932  0.2258
  132MOL0     H18151   4.624   1.746  10.543 -2.7006 -0.5691  0.0538
  132MOL0     H18152   4.661   1.678  10.705 -0.4002  2.3152 -0.5098
  132MOL0     H18153   4.810   1.606  10.440 -2.8588 -0.3084 -0.1757
  132MOL0     H18154   4.846   1.742  10.539  2.4176 -1.0461 -1.9353
  132MOL0     H18155   4.884   1.584  10.733  0.1317 -1.4270 -0.2341
  132MOL0     H18156   4.857   1.446  10.635  1.3373 -0.7458 -1.9728
  132MOL0     H18157   5.100   1.633  10.604 -0.5642  0.0916  2.6049
  132MOL0     H18158   5.047   1.523  10.473 -0.7608 -1.3733  0.5323
  132MOL0     H18159   5.128   1.470  10.769 -0.7611 -0.7188 -0.0398
  132MOL0     H18160   5.055   1.348  10.670  1.1408 -1.1775 -3.8798
  132MOL0     H18161   5.230   1.417  10.488  5.4813  1.6046 -0.5561
  132MOL0     H18162   5.290   1.307  10.626  0.3323  0.1802  0.7790
  132MOL0     H18163   5.310   1.597  10.617  1.5032  1.5992  1.4930
  132MOL0     H18164   5.368   1.488  10.754  0.0757 -0.7355 -0.1872
  132MOL0     H18165   5.474   1.597  10.395 -2.4004 -1.8029  0.3770
  132MOL0     H18166   5.708   1.427  10.256 -1.4211 -2.8604  3.8552
  132MOL0     H18167   5.828   1.510  10.354 -0.5070  0.3853  1.0964
  132MOL0     H18168   5.596   1.623  10.183  1.0451 -0.0180 -1.3629
  132MOL0     H18169   5.672   1.726  10.310  0.1501  1.1048 -0.6970
  132MOL0     H18170   5.803   1.621  10.057 -2.1238 -0.6391 -1.8601
  132MOL0     H18171   5.778   1.785  10.092  1.9212  0.3159  1.2298
  132MOL0     H18172   5.983   1.623  10.218 -1.2041 -1.6070  0.8246
  132MOL0     H18173   5.989   1.768  10.129 -2.3475  1.3948 -1.0369
  132MOL0     H18174   5.940   2.012  10.457 -1.4042 -1.9020 -0.3670
  132MOL0     H18175   6.027   2.175  10.589  0.0957 -0.9264 -0.7971
  132MOL0     H18176   6.203   2.195  10.619 -1.2833  0.3281 -0.2246
  132MOL0     H18177   6.113   2.110  10.731  2.8533 -1.9137  0.5210
  132MOL0     H18178   6.517   1.910  10.909 -0.1757 -0.9805 -0.7659
  132MOL0     H18179   6.760   1.972  10.981  2.2498 -0.1595 -1.5939
  132MOL0     H18180   6.864   2.149  11.089  1.4869 -1.3450  0.3522
  132MOL0     H18181   6.998   2.055  11.022 -0.7988 -0.5252 -0.3550
  132MOL0     H18182   7.144   2.249  11.020 -0.1046 -0.0799 -0.3269
  132MOL0     H18183   7.000   2.354  11.018 -0.3365  0.0546 -0.4650
  132MOL0     H18184   7.109   2.177  11.266  1.7016 -0.4717 -0.3285
  132MOL0     H18185   6.964   2.276  11.268 -1.8251  0.2725 -4.0726
  132MOL0     H18186   7.261   2.373  11.217  0.8953  0.4173  3.0898
  132MOL0     H18187   7.179   2.372  11.369  0.1539  1.8889  0.9424
  132MOL0     H18188   7.111   2.550  11.138 -0.1974  0.7021 -0.1406
  132MOL0     H18189   6.998   2.529  11.275 -0.8241 -1.3529 -0.1105
  132MOL0     H18190   7.286   2.635  11.308  0.2397 -0.1980 -0.8137
  132MOL0     H18191   7.169   2.593  11.440 -1.5439  1.8408  0.1921
  132MOL0     H18192   7.155   2.795  11.215 -3.3849  1.2046 -0.1334
  132MOL0     H18193   7.199   2.834  11.384  0.6306  0.7455 -1.6482
  132MOL0     H18194   6.986   2.897  11.417 -0.0448 -0.5873  1.2355
  132MOL0     H18195   6.954   2.717  11.432  0.7913 -1.6756 -1.1186
  132MOL0     H18196   6.737   2.311  10.731 -1.4907 -0.5354 -2.2962
  132MOL0     H18197   6.521   2.258  10.663  2.6041  1.4669  0.6275
  132MOL0     H18198   6.360   1.751  10.457  0.5472 -0.4414 -0.9499
  132MOL0     H18199   6.175   1.697  10.306 -0.3740  2.7411 -2.8284
  132MOL0     H18200   4.180   1.605  10.631 -0.6922  0.1214 -1.0190
  132MOL0     H18201   4.004   1.445  10.576  0.3375 -1.3555  1.9911
  132MOL0     H18202   4.049   0.973  10.370 -0.1770  0.2296  0.3681
  132MOL0     H18203   3.959   0.776  10.331  0.5326  0.7417  0.6338
  132MOL0     H18204   3.859   0.574  10.241 -0.0506 -0.8734 -1.9141
  132MOL0     H18205   3.753   0.596  10.364  3.0156 -0.7341  0.3854
  132MOL0     H18206   3.693   0.398  10.245  0.8376 -0.0874  0.0059
  132MOL0     H18207   3.728   0.470  10.092 -0.1425  0.2749  0.2029
  132MOL0     H18208   3.481   0.571  10.235  1.5495 -0.2706  0.8368
  132MOL0     H18209   3.516   0.564  10.061 -0.0761 -1.5696 -0.2737
  132MOL0     H18210   3.442   0.335  10.234  0.7503  1.3617  0.0520
  132MOL0     H18211   3.513   0.317  10.070  0.0257 -1.4215  1.1996
  132MOL0     H18212   3.131   0.383   9.959 -0.1608  3.5552 -0.1645
  132MOL0     H18213   3.580   0.962  10.227  1.1156  2.5072 -0.5698
  132MOL0     H18214   3.632   1.265  10.338  1.2951 -3.2023  1.9467
  132MOL0     H18215   3.739   1.271  10.189  0.8657 -0.7212  0.6836
  132MOL0     H18216   3.578   1.190  10.186 -1.5658  1.7253  0.9327
  133MOL0     O18217   9.013   5.344  10.928 -0.5420 -0.1859 -0.3187
  133MOL0     C18218   8.901   5.361  10.981  0.7228  0.1339  0.5013
  133MOL0     O18219   8.884   5.398  11.107  0.4778  0.7709  0.3812
  133MOL0     C18220   9.001   5.425  11.176 -0.2668 -1.1039  0.4387
  133MOL0     C18221   9.091   5.336  11.244  0.6954  0.0373  0.3403
  133MOL0     C18222   9.191   5.385  11.323 -0.9282  0.1671  0.6170
  133MOL0     C18223   9.210   5.520  11.344  1.0463  0.0724  0.0424
  133MOL0     O18224   9.303   5.580  11.427  0.2337  0.2069 -0.0190
  133MOL0     C18225   9.422   5.515  11.468  0.3685  0.1209  0.2993
  133MOL0     C18226   9.473   5.588  11.596 -0.0117  0.4455  0.0475
  133MOL0     C18227   9.597   5.528  11.661  0.0646 -0.9722 -0.0404
  133MOL0     C18228   9.590   5.383  11.703  0.1731 -0.3970  0.4424
  133MOL0     C18229   9.703   5.318  11.781  0.8817 -0.1591  0.4397
  133MOL0     C18230   9.748   5.410  11.893  0.6841  0.2810  0.2616
  133MOL0     C18231   9.831   5.319  11.991  1.2886 -0.4326  0.3017
  133MOL0     C18232   9.858   5.408  12.113 -0.0759  0.1573  0.3814
  133MOL0     N18233   9.917   5.316  12.212 -0.8999  0.5404 -0.3821
  133MOL0     C18234  10.046   5.303  12.228  0.0529  0.3023  0.7879
  133MOL0     C18235  10.050   5.214  12.333 -0.0315 -1.1419  0.4627
  133MOL0     C18236  10.180   5.167  12.394  0.2633  0.7024 -0.6117
  133MOL0     C18237  10.172   5.016  12.437  0.4627  0.0631 -0.2975
  133MOL0     C18238  10.310   4.945  12.449  0.8528 -0.3256 -0.6490
  133MOL0     C18239  10.291   4.814  12.525  0.0790  0.0702 -0.0714
  133MOL0     O18240  10.415   4.798  12.596 -0.3167  0.5348 -0.0067
  133MOL0     C18241  10.527   4.754  12.532  0.5109  0.5066 -0.3680
  133MOL0     C18242  10.525   4.636  12.450 -0.0160  0.2047  0.3329
  133MOL0     C18243  10.639   4.603  12.364 -0.3417 -0.4057 -0.4427
  133MOL0     C18244  10.602   4.495  12.265 -0.7016 -0.6209  0.3011
  133MOL0     C18245  10.759   4.675  12.380 -0.6331 -0.2993  0.1187
  133MOL0     C18246  10.891   4.652  12.309  0.1923 -0.1410  0.1723
  133MOL0     O18247  10.999   4.737  12.331 -0.4642 -0.1450 -0.0939
  133MOL0     C18248  11.115   4.728  12.250 -0.3467 -0.0582 -0.7559
  133MOL0     C18249  11.121   4.838  12.162  0.0406  0.0454 -0.4105
  133MOL0     C18250  11.198   4.821  12.048  0.7454 -0.4894  0.3807
  133MOL0     C18251  11.294   4.719  12.037 -0.3311  0.2843 -0.4485
  133MOL0     O18252  11.395   4.710  11.944 -0.1771 -0.0742  0.1882
  133MOL0     C18253  11.460   4.828  11.899  0.1480 -0.1208 -0.2774
  133MOL0     C18254  11.599   4.800  11.868 -0.1587  1.2306 -0.9399
  133MOL0     C18255  11.664   4.927  11.813  0.5997 -0.7535 -0.2087
  133MOL0     C18256  11.802   4.901  11.756 -0.0810  0.3406 -0.1862
  133MOL0     C18257  11.851   5.032  11.702  0.0637 -0.0431 -0.3732
  133MOL0     C18258  11.945   5.002  11.588  0.0982 -0.2384  1.0095
  133MOL0     C18259  12.028   5.122  11.536  1.1751 -0.0616  0.7263
  133MOL0     C18260  12.119   5.089  11.416 -0.2525 -0.4636  0.1196
  133MOL0    Cl18261  12.224   5.218  11.398 -0.2160 -0.2832 -0.1778
  133MOL0     C18262  11.294   4.622  12.131  0.2220 -0.0235 -0.2408
  133MOL0     C18263  11.198   4.621  12.233 -0.5865 -0.3405 -0.5283
  133MOL0     O18264  10.891   4.556  12.229  0.2981  0.2453 -0.7026
  133MOL0     C18265  10.760   4.782  12.479  0.4161  0.8663  0.4780
  133MOL0     C18266  10.643   4.828  12.543 -0.2750  0.1303  0.8140
  133MOL0     N18267   9.929   5.180  12.373  0.3580 -0.3257 -1.0593
  133MOL0     N18268   9.843   5.248  12.306 -0.1721 -0.1076  0.2033
  133MOL0     C18269   9.124   5.610  11.281  0.0203 -0.2438 -0.6995
  133MOL0     C18270   9.017   5.564  11.205 -0.0929  0.1293  0.1203
  133MOL0     C18271   8.789   5.337  10.893  0.3785  0.2322 -0.1973
  133MOL0     C18272   8.666   5.392  10.945  0.7558 -0.3437 -0.1070
  133MOL0     C18273   8.550   5.376  10.880  0.0204  0.1033 -0.1083
  133MOL0     C18274   8.540   5.310  10.757  0.7094 -0.3098 -0.2331
  133MOL0     O18275   8.415   5.282  10.701 -0.3862 -0.1238 -0.2293
  133MOL0     C18276   8.293   5.330  10.755 -0.4509  0.5346  0.0357
  133MOL0     C18277   8.264   5.460  10.686  0.0598  0.6648 -0.2309
  133MOL0     C18278   8.121   5.498  10.732  0.1920 -0.5555 -0.5650
  133MOL0     C18279   8.115   5.632  10.653  0.3410 -0.9314 -0.0006
  133MOL0     C18280   7.982   5.700  10.646  0.0585 -0.3529  0.4935
  133MOL0     C18281   7.872   5.755  10.642 -1.3821 -0.1164  0.5104
  133MOL0     C18282   8.658   5.248  10.709 -0.2162 -0.0890  0.3269
  133MOL0     C18283   8.789   5.274  10.764  0.4527  0.4953 -0.2401
  133MOL0     C18284   8.912   5.215  10.695  0.3609 -0.3246 -0.5644
  133MOL0     H18285   9.075   5.228  11.240 -0.9411  0.2268  0.9257
  133MOL0     H18286   9.267   5.320  11.367 -3.0233 -2.7449  0.2420
  133MOL0     H18287   9.489   5.540  11.386  1.7056 -1.7764  0.7466
  133MOL0     H18288   9.407   5.408  11.486 -1.2617  0.6043  2.1833
  133MOL0     H18289   9.515   5.685  11.567  0.4614  0.9015  2.1538
  133MOL0     H18290   9.391   5.607  11.665  0.2027  0.0664  0.4130
  133MOL0     H18291   9.685   5.554  11.603 -1.1452 -0.0354 -1.5402
  133MOL0     H18292   9.602   5.589  11.752 -0.4578 -0.6633 -0.2086
  133MOL0     H18293   9.500   5.364  11.763  1.0486 -3.1162  0.9912
  133MOL0     H18294   9.574   5.329  11.609 -2.1622 -0.9545  1.0953
  133MOL0     H18295   9.795   5.297  11.725  0.5427 -0.7559  0.1005
  133MOL0     H18296   9.676   5.217  11.812  0.5995  0.1458  1.2094
  133MOL0     H18297   9.814   5.492  11.864 -0.7056  1.6311  0.7995
  133MOL0     H18298   9.661   5.441  11.952  2.6997 -0.0442  3.6907
  133MOL0     H18299   9.929   5.291  11.952  1.9979  2.5291 -0.3185
  133MOL0     H18300   9.760   5.243  12.024  0.4914 -0.4875 -1.4290
  133MOL0     H18301   9.921   5.493  12.084 -0.3501  0.8840  1.8456
  133MOL0     H18302   9.763   5.449  12.147  1.4919  2.8295  1.9063
  133MOL0     H18303  10.131   5.350  12.178 -0.1279  1.5934  1.6381
  133MOL0     H18304  10.206   5.219  12.487 -0.1655  1.7965 -1.0769
  133MOL0     H18305  10.270   5.178  12.332  1.2721 -2.6306  0.0931
  133MOL0     H18306  10.131   5.024  12.539  3.0106  0.2336  0.7873
  133MOL0     H18307  10.109   4.950  12.376  2.1634 -2.0516  0.0945
  133MOL0     H18308  10.340   4.917  12.348  3.0209  0.4551 -0.2626
  133MOL0     H18309  10.385   5.006  12.500 -1.6742  0.0045  3.0222
  133MOL0     H18310  10.214   4.808  12.602 -0.5063 -0.5086 -0.6895
  133MOL0     H18311  10.278   4.735  12.449  2.0921  1.9695 -2.5698
  133MOL0     H18312  10.444   4.564  12.446  2.3231 -2.8392  2.4513
  133MOL0     H18313  10.499   4.462  12.252 -0.8125 -0.7584  1.3714
  133MOL0     H18314  10.657   4.402  12.286  2.0269  1.1862  1.8562
  133MOL0     H18315  10.643   4.534  12.171  3.1595 -1.4174  1.4399
  133MOL0     H18316  11.053   4.920  12.182  0.8716  0.2714  1.6662
  133MOL0     H18317  11.199   4.905  11.978  1.8988  0.9031  1.9877
  133MOL0     H18318  11.413   4.875  11.812 -1.3832  0.0803  0.6273
  133MOL0     H18319  11.457   4.908  11.974  3.2062 -0.7154  0.6425
  133MOL0     H18320  11.659   4.760  11.950  1.0826 -3.8452 -3.8219
  133MOL0     H18321  11.610   4.730  11.784 -2.8000  0.2751 -0.5776
  133MOL0     H18322  11.663   5.011  11.883 -0.2027 -0.5341 -0.4743
  133MOL0     H18323  11.604   4.957  11.727 -3.1884 -0.5813  2.2312
  133MOL0     H18324  11.801   4.827  11.676  0.2001  0.7753 -0.5947
  133MOL0     H18325  11.871   4.872  11.836 -0.3808 -1.8241 -0.6537
  133MOL0     H18326  11.766   5.090  11.665 -1.0989 -0.9577  0.7719
  133MOL0     H18327  11.892   5.090  11.785 -2.4344 -1.2747  1.8848
  133MOL0     H18328  11.898   4.952  11.504 -3.0376 -0.2236  2.5940
  133MOL0     H18329  12.022   4.931  11.619  0.1561 -2.0161 -2.6865
  133MOL0     H18330  12.099   5.153  11.614  1.9393  0.6677 -0.2315
  133MOL0     H18331  11.958   5.203  11.512  1.6444  1.3288  3.5727
  133MOL0     H18332  12.075   5.074  11.317  0.2502  2.5165 -0.6490
  133MOL0     H18333  12.165   4.992  11.436 -1.3030 -0.6443  1.8383
  133MOL0     H18334  11.372   4.547  12.128  1.1171  0.6062  3.1441
  133MOL0     H18335  11.199   4.539  12.303  0.5424  1.5502  1.8056
  133MOL0     H18336  10.839   4.855  12.492 -0.6882  2.1546  0.1850
  133MOL0     H18337  10.627   4.924  12.591  2.0405  0.1815  1.6080
  133MOL0     H18338   9.134   5.716  11.301  2.3319 -0.8726  2.0909
  133MOL0     H18339   8.949   5.638  11.163 -0.6486 -1.7224 -2.5245
  133MOL0     H18340   8.669   5.443  11.041 -3.4656  2.4329 -1.2011
  133MOL0     H18341   8.471   5.412  10.944 -0.6963 -1.9232  0.2235
  133MOL0     H18342   8.214   5.262  10.724  0.1508 -0.6693  1.0735
  133MOL0     H18343   8.291   5.335  10.864  0.1631  1.4990  0.0194
  133MOL0     H18344   8.265   5.451  10.577  0.8632  0.5925 -0.2193
  133MOL0     H18345   8.337   5.538  10.707  1.2081 -0.5091  0.3001
  133MOL0     H18346   8.042   5.426  10.709 -1.9834  1.7314 -0.6842
  133MOL0     H18347   8.129   5.524  10.838 -1.5998 -0.3373 -0.4505
  133MOL0     H18348   8.146   5.619  10.549  1.3846  0.4106  0.1046
  133MOL0     H18349   8.183   5.701  10.703 -0.3757 -2.2701  3.0410
  133MOL0     H18350   7.780   5.803  10.613 -0.5720  0.8150 -0.6287
  133MOL0     H18351   8.644   5.194  10.616 -1.1609 -0.5379  0.7175
  133MOL0     H18352   8.891   5.203  10.588  2.1395 -1.1935 -0.8646
  133MOL0     H18353   9.005   5.271  10.702 -0.2046  1.0097 -2.6644
  133MOL0     H18354   8.931   5.115  10.736 -2.4426 -0.2982  1.0323
  134MOL0     O18355   7.438   2.010   3.215  0.2077 -0.4342 -0.2363
  134MOL0     C18356   7.407   1.982   3.327  0.3489 -0.0384  0.6281
  134MOL0     O18357   7.497   1.962   3.434 -0.8253  0.1617  0.3370
  134MOL0     C18358   7.618   2.025   3.406  0.2238 -0.6032 -0.6034
  134MOL0     C18359   7.730   1.957   3.362 -0.8185  0.1083  0.2279
  134MOL0     C18360   7.851   2.022   3.352 -0.3533 -0.3051  0.7790
  134MOL0     C18361   7.873   2.151   3.395 -0.6236 -0.0739 -0.2222
  134MOL0     O18362   7.992   2.215   3.377  0.3350  0.2993 -0.1947
  134MOL0     C18363   8.107   2.143   3.344 -0.2312 -0.3552  0.2228
  134MOL0     C18364   8.161   2.058   3.462  0.5231 -0.5531  0.5844
  134MOL0     C18365   8.298   2.005   3.428  0.4084 -0.3710  0.4859
  134MOL0     C18366   8.347   1.897   3.523  0.8564 -0.4624 -0.0333
  134MOL0     C18367   8.483   1.835   3.469  0.0162 -0.0157  0.6937
  134MOL0     C18368   8.537   1.710   3.554  0.8108 -0.3500  0.0205
  134MOL0     C18369   8.665   1.670   3.495  0.3283 -0.0180  0.6138
  134MOL0     C18370   8.698   1.534   3.525  0.3808 -0.1551  0.2221
  134MOL0     N18371   8.818   1.478   3.461 -0.3702 -0.2512  0.7299
  134MOL0     C18372   8.952   1.511   3.486  0.2766  0.3304  0.4247
  134MOL0     C18373   9.034   1.429   3.405  0.1661  0.4296  0.1641
  134MOL0     C18374   9.181   1.440   3.393 -0.3602  0.2098 -0.8626
  134MOL0     C18375   9.254   1.395   3.525  0.5261  0.7363 -0.8596
  134MOL0     C18376   9.404   1.396   3.520 -0.2924 -0.0512 -0.2007
  134MOL0     C18377   9.477   1.323   3.410  1.0258  1.3617 -0.0825
  134MOL0     O18378   9.614   1.303   3.442 -0.6444  0.7129  0.1340
  134MOL0     C18379   9.675   1.201   3.374 -0.0678 -0.5238  0.5787
  134MOL0     C18380   9.806   1.191   3.392 -0.3810  0.0661  0.4271
  134MOL0     C18381   9.892   1.091   3.344 -0.2561  0.3954 -0.3198
  134MOL0     C18382  10.031   1.103   3.387 -0.3673  0.0780 -0.1586
  134MOL0     C18383   9.836   0.984   3.259  0.0536  0.6859  1.5255
  134MOL0     C18384   9.903   0.865   3.215 -0.3830  0.3435 -0.0199
  134MOL0     O18385   9.841   0.786   3.124  0.0921 -0.0862 -0.4330
  134MOL0     C18386   9.886   0.657   3.094  0.4527  0.5671 -0.3908
  134MOL0     C18387  10.016   0.606   3.083 -0.4758  0.2187 -0.0131
  134MOL0     C18388  10.035   0.469   3.063 -0.1572 -1.0345 -0.4092
  134MOL0     C18389   9.922   0.387   3.050 -0.2728 -0.2733 -0.6639
  134MOL0     O18390   9.942   0.259   3.005 -0.0938 -0.3704 -0.3277
  134MOL0     C18391   9.841   0.181   2.934 -0.0769  0.1568  0.4727
  134MOL0     C18392   9.767   0.236   2.807  0.7224 -0.8978  0.2775
  134MOL0     C18393   9.868   0.310   2.720 -0.1967  0.6614 -0.7183
  134MOL0     C18394   9.795   0.380   2.601  0.3641  0.0133 -0.3166
  134MOL0     C18395   9.892   0.419   2.485 -0.0354  0.5834 -0.1382
  134MOL0     C18396   9.827   0.490   2.365  0.8284  0.1182 -0.0721
  134MOL0     C18397   9.932   0.544   2.265 -0.3512 -0.6688  0.2989
  134MOL0     C18398   9.881   0.665   2.173 -0.2156 -0.4957 -0.3043
  134MOL0    Cl18399   9.729   0.632   2.086 -0.2257  0.0541 -0.0347
  134MOL0     C18400   9.790   0.435   3.067 -0.2064  0.1386 -0.3014
  134MOL0     C18401   9.778   0.575   3.084 -0.0812  0.1542 -0.1633
  134MOL0     O18402  10.022   0.844   3.252  0.3686  0.1636  0.5640
  134MOL0     C18403   9.701   1.010   3.220  0.3227 -0.6665 -0.9310
  134MOL0     C18404   9.624   1.117   3.272  0.0721 -0.4514 -0.3479
  134MOL0     N18405   8.943   1.358   3.329 -0.2459 -0.0114 -1.0245
  134MOL0     N18406   8.822   1.390   3.362 -0.0292  0.2828  0.9720
  134MOL0     C18407   7.766   2.218   3.444  0.2624  0.5106 -1.5727
  134MOL0     C18408   7.642   2.155   3.450 -0.2587 -0.3469 -0.2303
  134MOL0     C18409   7.257   1.955   3.345 -0.3765  0.5337 -0.2627
  134MOL0     C18410   7.162   1.990   3.246 -0.2337 -0.5956 -0.2937
  134MOL0     C18411   7.029   1.956   3.264  0.1573 -0.5036 -0.3769
  134MOL0     C18412   6.970   1.905   3.381  0.1020 -0.2242 -0.1201
  134MOL0     O18413   6.836   1.892   3.407 -0.8233 -0.1914 -0.3949
  134MOL0     C18414   6.740   1.946   3.313 -0.6309  0.0564  0.0714
  134MOL0     C18415   6.716   1.834   3.208  0.2404  0.0892 -0.5111
  134MOL0     C18416   6.602   1.739   3.244  0.0630 -0.4161  0.1963
  134MOL0     C18417   6.614   1.604   3.156 -0.2059 -1.3921 -0.2333
  134MOL0     C18418   6.532   1.504   3.214  0.3791  0.5610 -0.3632
  134MOL0     C18419   6.466   1.409   3.262 -1.1338 -0.8254  0.3540
  134MOL0     C18420   7.063   1.863   3.469 -0.3148  0.1334  0.1416
  134MOL0     C18421   7.201   1.890   3.460 -0.8368 -0.4008  0.1128
  134MOL0     C18422   7.283   1.851   3.577  0.4928  0.3560  0.8936
  134MOL0     H18423   7.706   1.852   3.350 -0.5037  0.3249 -3.0835
  134MOL0     H18424   7.933   1.959   3.319 -0.6318 -0.5186  0.4863
  134MOL0     H18425   8.180   2.220   3.317  0.7354 -0.6012  1.9743
  134MOL0     H18426   8.095   2.084   3.253 -0.8389 -0.0976  0.1305
  134MOL0     H18427   8.161   2.121   3.552  0.3613  0.8948 -0.4011
  134MOL0     H18428   8.092   1.975   3.480  1.5149 -1.4127  0.4656
  134MOL0     H18429   8.298   1.958   3.330 -1.6860 -1.8934  1.1320
  134MOL0     H18430   8.368   2.089   3.434  0.1107 -0.2122  2.5045
  134MOL0     H18431   8.363   1.931   3.626 -0.8109  0.1515  0.0553
  134MOL0     H18432   8.276   1.815   3.535 -0.9243  0.6202 -2.3170
  134MOL0     H18433   8.566   1.906   3.464  0.3699 -0.5008 -2.8016
  134MOL0     H18434   8.461   1.801   3.368  0.1931 -0.0988  0.6827
  134MOL0     H18435   8.551   1.744   3.658  3.1304 -3.4647  0.8850
  134MOL0     H18436   8.464   1.630   3.539  1.6200 -1.6954  2.5306
  134MOL0     H18437   8.745   1.730   3.541  0.0852  0.2921  0.6440
  134MOL0     H18438   8.664   1.690   3.388 -1.9145  3.0441  1.0593
  134MOL0     H18439   8.712   1.530   3.634  0.6737  6.4717  0.8110
  134MOL0     H18440   8.618   1.468   3.490  0.5920 -1.4150  1.9541
  134MOL0     H18441   8.993   1.590   3.548  0.3416 -0.0249  0.8426
  134MOL0     H18442   9.220   1.541   3.375  4.5806 -0.6598  2.5795
  134MOL0     H18443   9.225   1.380   3.313 -1.7975 -0.7318 -0.9800
  134MOL0     H18444   9.221   1.452   3.612 -3.2365 -2.5859  0.1957
  134MOL0     H18445   9.225   1.292   3.546  0.5198  0.6759 -1.1618
  134MOL0     H18446   9.437   1.497   3.492 -0.7229 -0.6609 -3.2162
  134MOL0     H18447   9.447   1.364   3.615  0.3548 -1.3799 -0.9078
  134MOL0     H18448   9.424   1.228   3.402  0.4957  1.3606  2.5743
  134MOL0     H18449   9.469   1.375   3.314 -1.2951 -1.7851 -1.7552
  134MOL0     H18450   9.848   1.269   3.454 -3.2083  0.5349  1.9039
  134MOL0     H18451  10.069   1.006   3.419  1.5856  0.4277 -1.2567
  134MOL0     H18452  10.041   1.180   3.464 -3.1008  2.0890 -1.6291
  134MOL0     H18453  10.090   1.126   3.298  1.7561 -4.8104 -0.2922
  134MOL0     H18454  10.102   0.673   3.087 -1.0684  0.9737  0.4816
  134MOL0     H18455  10.134   0.429   3.045 -0.4537 -2.3238  0.5810
  134MOL0     H18456   9.908   0.101   2.900  1.6233  1.1558  1.3338
  134MOL0     H18457   9.765   0.140   3.002  0.2060 -1.3140 -0.0426
  134MOL0     H18458   9.722   0.148   2.759 -2.4677  0.5096  0.4669
  134MOL0     H18459   9.692   0.310   2.834 -0.1512 -1.3133 -0.9581
  134MOL0     H18460   9.951   0.245   2.689 -0.7641 -0.2635 -0.3434
  134MOL0     H18461   9.907   0.383   2.792 -1.7929 -1.1783  2.2025
  134MOL0     H18462   9.732   0.463   2.634  0.4959  1.3203 -2.9932
  134MOL0     H18463   9.735   0.303   2.552 -0.9161  1.8978 -1.8468
  134MOL0     H18464   9.972   0.476   2.534  0.6716  0.1186 -0.7475
  134MOL0     H18465   9.943   0.333   2.441 -0.3653  0.8031 -0.9585
  134MOL0     H18466   9.762   0.572   2.396 -2.3702 -2.4465  0.6468
  134MOL0     H18467   9.747   0.426   2.325  0.6256  0.8251 -0.8089
  134MOL0     H18468   9.957   0.465   2.194 -1.0712 -0.6475  0.0190
  134MOL0     H18469  10.017   0.589   2.318 -1.3831  0.9333  0.6542
  134MOL0     H18470   9.957   0.678   2.096  0.4343  2.7464  0.7139
  134MOL0     H18471   9.866   0.759   2.226 -1.5383 -0.2060 -1.1438
  134MOL0     H18472   9.702   0.373   3.050 -0.1683  0.1576 -0.5679
  134MOL0     H18473   9.680   0.621   3.092 -0.5767 -0.8363 -0.3908
  134MOL0     H18474   9.670   0.953   3.133 -0.9086 -1.4946 -0.0050
  134MOL0     H18475   9.521   1.129   3.238  0.2591 -1.6496 -1.3972
  134MOL0     H18476   7.784   2.322   3.472  0.8824  0.9694 -3.5289
  134MOL0     H18477   7.565   2.221   3.488 -0.6952 -0.7323 -0.4439
  134MOL0     H18478   7.180   2.048   3.157  0.0741  0.6981  0.5904
  134MOL0     H18479   6.974   1.992   3.178  0.9149  2.6710  0.3412
  134MOL0     H18480   6.649   1.979   3.365 -1.7389  0.0148 -1.7238
  134MOL0     H18481   6.782   2.035   3.266  0.1197  0.2209  1.0386
  134MOL0     H18482   6.810   1.779   3.204 -0.1006 -0.9730  3.0477
  134MOL0     H18483   6.691   1.886   3.114  0.0522 -1.4009 -1.3134
  134MOL0     H18484   6.601   1.713   3.350  0.6415  0.5266  0.4488
  134MOL0     H18485   6.509   1.793   3.221 -0.0990 -1.8840 -3.1377
  134MOL0     H18486   6.717   1.567   3.150 -0.5000 -2.1482 -0.8194
  134MOL0     H18487   6.583   1.643   3.059 -0.4836  0.4859  0.5828
  134MOL0     H18488   6.398   1.332   3.296 -2.3142 -0.1836 -0.4876
  134MOL0     H18489   7.030   1.801   3.552 -2.0698 -0.6397 -1.0756
  134MOL0     H18490   7.333   1.940   3.617  2.6611  0.8222 -2.4050
  134MOL0     H18491   7.215   1.807   3.651  1.6553 -2.5819  0.3259
  134MOL0     H18492   7.352   1.772   3.547 -1.4021 -0.6116 -1.1993
  135MOL0     O18493   5.574   9.988   9.633  0.5249  0.4571 -0.1429
  135MOL0     C18494   5.549   9.996   9.516  0.1880  0.2010  0.4987
  135MOL0     O18495   5.640   9.972   9.419 -0.0133 -0.1948  0.1909
  135MOL0     C18496   5.761   9.913   9.447 -1.0200 -0.8442  0.1388
  135MOL0     C18497   5.870   9.958   9.375  0.1511 -0.0941 -0.2743
  135MOL0     C18498   5.988   9.884   9.377  0.1257  0.5144  0.2773
  135MOL0     C18499   5.998   9.777   9.470 -0.5358 -0.4680 -0.0466
  135MOL0     O18500   6.103   9.685   9.489  0.3152  0.2869  0.0434
  135MOL0     C18501   6.233   9.745   9.469 -0.1034 -0.4379 -0.1542
  135MOL0     C18502   6.338   9.632   9.489 -0.2383 -1.0216 -0.7796
  135MOL0     C18503   6.481   9.683   9.476  0.4534  0.8898 -0.4969
  135MOL0     C18504   6.569   9.564   9.512 -0.0534 -0.4780 -0.6057
  135MOL0     C18505   6.705   9.618   9.570 -0.2377  0.1318  0.2896
  135MOL0     C18506   6.766   9.492   9.629  0.4294 -0.6727 -0.3401
  135MOL0     C18507   6.814   9.394   9.534 -0.3186  0.7832 -0.3056
  135MOL0     C18508   6.901   9.281   9.595  0.1277  0.3600  0.3051
  135MOL0     N18509   7.036   9.318   9.622 -0.1235  0.5510 -0.2230
  135MOL0     C18510   7.144   9.240   9.587 -0.3129  0.4428  0.4399
  135MOL0     C18511   7.251   9.319   9.615 -0.1620 -0.7637 -0.6656
  135MOL0     C18512   7.391   9.280   9.580  0.6126  0.1011  0.6280
  135MOL0     C18513   7.488   9.392   9.534  0.4843 -0.0297 -0.1887
  135MOL0     C18514   7.445   9.474   9.413  0.9597  0.4422  0.0898
  135MOL0     C18515   7.555   9.554   9.359 -0.2172  0.2114  0.2849
  135MOL0     O18516   7.665   9.471   9.309  0.9391 -0.3735  0.4275
  135MOL0     C18517   7.772   9.538   9.259  0.2544 -0.5233 -0.2126
  135MOL0     C18518   7.881   9.466   9.212 -0.3457 -0.3498 -0.0909
  135MOL0     C18519   7.997   9.526   9.150  0.4799  0.5205  0.0181
  135MOL0     C18520   8.087   9.428   9.078  0.3251  0.1415  0.2665
  135MOL0     C18521   8.009   9.669   9.149 -0.7638 -0.2648  0.1490
  135MOL0     C18522   8.133   9.743   9.118  0.2722 -1.0196 -0.0394
  135MOL0     O18523   8.111   9.876   9.089  1.1418 -0.1103 -1.0357
  135MOL0     C18524   8.221   9.946   9.068  0.4783 -0.1375  1.0890
  135MOL0     C18525   8.281  10.040   9.154  0.5949 -0.3324 -0.7384
  135MOL0     C18526   8.393  10.120   9.125  0.4182  0.5046 -0.0229
  135MOL0     C18527   8.465  10.092   9.000 -0.3180  0.4201 -0.0059
  135MOL0     O18528   8.580  10.156   8.949  0.5165 -0.1461  0.1324
  135MOL0     C18529   8.643  10.260   9.026 -0.7093 -0.7156  0.2820
  135MOL0     C18530   8.758  10.293   8.937 -0.2634  0.9864 -0.1456
  135MOL0     C18531   8.864  10.359   9.021  0.0760  0.3615  0.4529
  135MOL0     C18532   8.959  10.467   8.950  0.8398  0.6662  0.0525
  135MOL0     C18533   9.026  10.549   9.061 -0.3711  0.1514  0.1902
  135MOL0     C18534   9.112  10.676   9.002  0.8089 -0.2197 -0.4145
  135MOL0     C18535   9.224  10.641   8.913 -1.4137 -1.0523 -0.8399
  135MOL0     C18536   9.276  10.772   8.858  0.4127  0.2538 -0.3216
  135MOL0    Cl18537   9.418  10.730   8.742 -0.2535 -0.4517 -0.2475
  135MOL0     C18538   8.413   9.987   8.921 -0.6049  0.2215  0.7878
  135MOL0     C18539   8.296   9.924   8.947  0.1509 -0.1155  0.4178
  135MOL0     O18540   8.246   9.690   9.124 -0.0838 -0.1625  0.0758
  135MOL0     C18541   7.897   9.745   9.183 -0.4339  0.4520  0.8069
  135MOL0     C18542   7.780   9.681   9.235 -0.8181  0.0410  0.1621
  135MOL0     N18543   7.204   9.430   9.673  0.3638 -0.0941 -0.2451
  135MOL0     N18544   7.075   9.422   9.697  0.5091 -0.4883  0.0855
  135MOL0     C18545   5.892   9.744   9.554 -0.0837  0.6782  0.2795
  135MOL0     C18546   5.768   9.803   9.537  1.0864 -0.6737 -0.0437
  135MOL0     C18547   5.427  10.062   9.470 -0.7653  0.6082 -0.4592
  135MOL0     C18548   5.436  10.154   9.366 -0.1486  0.8561  0.2768
  135MOL0     C18549   5.325  10.228   9.330 -0.4705  0.0729  0.4138
  135MOL0     C18550   5.195  10.213   9.391  0.3194  0.1123  0.1466
  135MOL0     O18551   5.086  10.267   9.324  0.2738 -0.7266 -0.5375
  135MOL0     C18552   4.953  10.230   9.374 -0.5816 -1.3496  0.0818
  135MOL0     C18553   4.834  10.313   9.310 -0.1751  0.3641  0.8685
  135MOL0     C18554   4.711  10.276   9.378  0.6794  0.2784  1.3634
  135MOL0     C18555   4.596  10.359   9.317 -0.4356  0.1828  0.8369
  135MOL0     C18556   4.481  10.277   9.322  0.4875  0.3561 -0.1957
  135MOL0     C18557   4.368  10.225   9.316 -0.5768 -0.3238  0.6456
  135MOL0     C18558   5.185  10.110   9.482  0.2452  0.1637 -0.7301
  135MOL0     C18559   5.299  10.045   9.534  0.0281  0.2226  0.3911
  135MOL0     C18560   5.289   9.931   9.630  0.2870  0.1926 -0.0054
  135MOL0     H18561   5.870  10.046   9.312  3.1206 -0.3604 -0.8040
  135MOL0     H18562   6.066   9.917   9.309 -0.1939  2.7441  0.9280
  135MOL0     H18563   6.245   9.818   9.550 -0.7804 -1.7906  1.2146
  135MOL0     H18564   6.234   9.794   9.372 -0.4621 -1.6082 -0.7660
  135MOL0     H18565   6.329   9.613   9.597  3.9858 -0.9328 -0.2518
  135MOL0     H18566   6.306   9.545   9.431 -1.9671 -1.1743  0.3192
  135MOL0     H18567   6.510   9.719   9.377  3.7582 -2.5891 -1.0483
  135MOL0     H18568   6.486   9.754   9.559 -3.4668 -1.4397  2.0586
  135MOL0     H18569   6.519   9.494   9.581  0.2915  1.5474  1.8738
  135MOL0     H18570   6.582   9.520   9.413  0.8293  1.8624 -1.5992
  135MOL0     H18571   6.683   9.696   9.644 -0.2181  2.4104 -1.9696
  135MOL0     H18572   6.768   9.661   9.492  1.0936 -1.5470  0.3844
  135MOL0     H18573   6.848   9.530   9.691  0.3961 -0.4978 -0.4011
  135MOL0     H18574   6.701   9.457   9.709 -0.4907  0.0886 -0.7367
  135MOL0     H18575   6.876   9.442   9.458  0.0361 -0.2011 -0.6571
  135MOL0     H18576   6.736   9.344   9.474 -0.2503  2.0097 -1.4651
  135MOL0     H18577   6.857   9.239   9.686  1.6011  2.2390  1.9864
  135MOL0     H18578   6.901   9.191   9.533 -3.2163 -0.6289  1.5086
  135MOL0     H18579   7.140   9.143   9.539  0.9363  1.3725 -1.6808
  135MOL0     H18580   7.381   9.207   9.499  0.9798  1.1913 -0.4435
  135MOL0     H18581   7.442   9.237   9.666  0.8461 -1.3143 -0.1849
  135MOL0     H18582   7.505   9.451   9.624  1.5666 -0.3062 -0.1975
  135MOL0     H18583   7.583   9.346   9.508  1.7966  1.3367  1.8852
  135MOL0     H18584   7.412   9.403   9.336 -3.1175 -0.6800  2.5620
  135MOL0     H18585   7.364   9.545   9.435  0.0307  0.4309 -2.8492
  135MOL0     H18586   7.523   9.618   9.276 -2.1030 -0.3531  0.5148
  135MOL0     H18587   7.595   9.633   9.423 -2.1185  2.0465 -0.7001
  135MOL0     H18588   7.886   9.358   9.206  2.5224 -0.3122  0.2153
  135MOL0     H18589   8.101   9.342   9.144  0.1908  0.9219  1.3411
  135MOL0     H18590   8.181   9.476   9.047  0.7080  0.5345  1.9436
  135MOL0     H18591   8.040   9.399   8.984  0.1487 -2.0474  0.9827
  135MOL0     H18592   8.223  10.049   9.245  0.8115 -0.3430 -0.5996
  135MOL0     H18593   8.414  10.202   9.192  1.3004 -1.1736  1.8737
  135MOL0     H18594   8.577  10.346   9.043  0.8223  0.6520 -0.4905
  135MOL0     H18595   8.673  10.225   9.126  2.6014 -1.0400 -0.6971
  135MOL0     H18596   8.792  10.204   8.882  2.8750 -0.1056  3.1592
  135MOL0     H18597   8.715  10.354   8.857 -0.6624 -0.4309 -1.0523
  135MOL0     H18598   8.929  10.293   9.079 -0.3385  0.9386  1.6096
  135MOL0     H18599   8.800  10.417   9.088  0.4174  0.4789  0.6832
  135MOL0     H18600   8.898  10.534   8.888 -1.8830  0.5049  2.3318
  135MOL0     H18601   9.031  10.409   8.893 -1.7268 -1.9518 -0.7695
  135MOL0     H18602   8.950  10.601   9.120  0.0511 -0.8083  1.6506
  135MOL0     H18603   9.088  10.483   9.122 -0.3223 -2.8840 -2.8379
  135MOL0     H18604   9.143  10.736   9.089  0.9566 -0.1192 -0.5368
  135MOL0     H18605   9.040  10.740   8.950  1.9988  0.8859 -0.7480
  135MOL0     H18606   9.189  10.593   8.821  0.8395  0.4757 -2.6277
  135MOL0     H18607   9.307  10.593   8.965  0.1332 -0.2778 -2.4695
  135MOL0     H18608   9.315  10.840   8.934  2.0823  1.0271 -1.7755
  135MOL0     H18609   9.199  10.823   8.799 -0.1013 -0.7727 -0.5532
  135MOL0     H18610   8.468   9.966   8.830 -0.3308 -1.1148  1.2314
  135MOL0     H18611   8.272   9.855   8.867  1.4249 -0.0100 -0.0817
  135MOL0     H18612   7.897   9.852   9.164  0.9469  0.3308 -0.0342
  135MOL0     H18613   7.691   9.740   9.257  0.3833  1.6070  0.9598
  135MOL0     H18614   5.894   9.657   9.620  1.3017  0.0734 -0.5119
  135MOL0     H18615   5.686   9.770   9.599 -0.0823 -2.0262 -2.1649
  135MOL0     H18616   5.529  10.184   9.318 -0.0696  1.1285  0.5923
  135MOL0     H18617   5.328  10.307   9.256  0.8614  0.9192  1.3226
  135MOL0     H18618   4.934  10.123   9.363  1.5066 -1.9328  1.4227
  135MOL0     H18619   4.953  10.263   9.479 -0.5010 -1.1934  0.0346
  135MOL0     H18620   4.835  10.279   9.206  2.7358 -1.5515  1.4050
  135MOL0     H18621   4.845  10.421   9.318 -2.7552  0.8374 -0.8307
  135MOL0     H18622   4.692  10.168   9.369 -0.7611  0.4527  2.0164
  135MOL0     H18623   4.714  10.288   9.486 -1.9522  1.9910  1.3302
  135MOL0     H18624   4.605  10.380   9.210 -1.4441 -2.2602  0.2055
  135MOL0     H18625   4.574  10.456   9.365  1.0225  0.3398  1.2442
  135MOL0     H18626   4.272  10.180   9.297  0.1317 -1.1275 -1.3057
  135MOL0     H18627   5.091  10.067   9.515  0.3884 -1.4671 -2.2820
  135MOL0     H18628   5.331   9.843   9.581  0.8992  0.5167 -0.0774
  135MOL0     H18629   5.345   9.944   9.723 -0.6464 -0.7100  0.7020
  135MOL0     H18630   5.184   9.911   9.651  0.6121 -1.9096 -0.1884
  136MOL0     O18631  11.338   9.145  10.886 -0.4817 -0.4499  0.3575
  136MOL0     C18632  11.265   9.207  10.953 -0.3854 -0.4768 -0.0722
  136MOL0     O18633  11.132   9.223  10.925 -0.2230 -0.1728 -0.2716
  136MOL0     C18634  11.083   9.153  10.813 -0.1965 -0.4606 -0.4384
  136MOL0     C18635  11.001   9.048  10.838  0.6226 -0.6309  0.7301
  136MOL0     C18636  10.945   8.973  10.734 -0.2096  0.5898  0.2706
  136MOL0     C18637  10.965   9.003  10.601  0.6298 -0.1475  0.3690
  136MOL0     O18638  10.917   8.936  10.491  0.0679 -0.7000 -0.0248
  136MOL0     C18639  10.786   8.889  10.490 -0.7244 -0.3547 -0.7011
  136MOL0     C18640  10.746   8.861  10.342 -0.2687 -0.5172 -0.4089
  136MOL0     C18641  10.593   8.843  10.343  0.7828  0.1063 -0.7738
  136MOL0     C18642  10.551   8.857  10.198  0.0808 -0.2331 -0.2594
  136MOL0     C18643  10.392   8.859  10.187  0.5894 -0.1849  0.1353
  136MOL0     C18644  10.337   8.719  10.232  0.4338  0.2255 -0.2376
  136MOL0     C18645  10.185   8.710  10.183  0.1422  0.4084 -0.2595
  136MOL0     C18646  10.137   8.562  10.204  0.0656 -0.6785 -0.7420
  136MOL0     N18647   9.989   8.552  10.178 -0.3340  1.0033 -0.0824
  136MOL0     C18648   9.917   8.639  10.091  0.5499  0.3378 -0.8839
  136MOL0     C18649   9.790   8.625  10.138 -0.6387 -1.3961  0.5815
  136MOL0     C18650   9.678   8.689  10.062  0.1127 -0.2461  0.5762
  136MOL0     C18651   9.690   8.840  10.047 -0.4221 -0.6525  0.7719
  136MOL0     C18652   9.576   8.900   9.979 -0.2063 -0.4290 -0.2209
  136MOL0     C18653   9.587   9.053   9.988  0.1345 -0.0464 -0.0072
  136MOL0     O18654   9.686   9.103   9.903  0.2059  0.1524 -0.1026
  136MOL0     C18655   9.768   9.194   9.964  0.7313 -0.0419  0.0757
  136MOL0     C18656   9.838   9.165  10.085 -0.4805 -0.1242 -0.1994
  136MOL0     C18657   9.952   9.251  10.128  0.4435  0.1379 -0.2829
  136MOL0     C18658  10.022   9.215  10.252  0.3774  0.5216 -0.0648
  136MOL0     C18659   9.989   9.368  10.055  0.8165 -0.1079  0.1209
  136MOL0     C18660  10.092   9.467  10.094 -0.2644 -1.0454  0.5683
  136MOL0     O18661  10.098   9.579  10.012 -0.7029 -0.2320  0.0420
  136MOL0     C18662  10.175   9.694  10.030 -0.6170  0.7925 -0.2378
  136MOL0     C18663  10.213   9.743  10.162 -0.3512 -0.1334  0.7434
  136MOL0     C18664  10.283   9.862  10.178 -0.3464  0.5972 -0.5038
  136MOL0     C18665  10.324   9.935  10.065 -0.2038 -0.0405 -0.2555
  136MOL0     O18666  10.409  10.047  10.077 -0.3128  0.9848  1.1915
  136MOL0     C18667  10.523  10.038  10.161 -0.2642 -0.2455  0.1000
  136MOL0     C18668  10.630  10.144  10.121  0.3708  0.2784 -1.0719
  136MOL0     C18669  10.764  10.107  10.190 -0.1121  0.2917 -0.6402
  136MOL0     C18670  10.881  10.214  10.181  0.0963 -0.1631 -0.0268
  136MOL0     C18671  10.965  10.206  10.308  0.3586 -0.9767  0.8530
  136MOL0     C18672  11.099  10.261  10.270  1.1366  0.4274 -0.0612
  136MOL0     C18673  11.195  10.309  10.379  0.3492  0.0620  0.2948
  136MOL0     C18674  11.337  10.342  10.323  0.4320  0.3087  0.3126
  136MOL0    Cl18675  11.444  10.395  10.454 -0.1352  0.1573  0.2815
  136MOL0     C18676  10.299   9.885   9.934  1.0047 -1.0391 -0.4173
  136MOL0     C18677  10.211   9.777   9.916  0.6411  0.7534  0.2176
  136MOL0     O18678  10.178   9.439  10.173  0.5578  0.5220 -0.1511
  136MOL0     C18679   9.913   9.388   9.938 -0.0602  0.3386  0.6718
  136MOL0     C18680   9.808   9.304   9.894 -0.4573  0.3841 -0.1481
  136MOL0     N18681   9.785   8.531  10.242 -0.1886 -0.6233 -0.1215
  136MOL0     N18682   9.903   8.487  10.264  0.3773 -0.9280 -0.0740
  136MOL0     C18683  11.051   9.112  10.573 -1.0898 -0.4453 -0.4404
  136MOL0     C18684  11.106   9.185  10.677 -0.3683 -0.1428  0.2506
  136MOL0     C18685  11.323   9.249  11.090  0.2439 -0.8922  0.1251
  136MOL0     C18686  11.236   9.317  11.177 -0.4230 -0.0682 -0.6157
  136MOL0     C18687  11.280   9.345  11.307 -0.6558 -0.1839  0.0919
  136MOL0     C18688  11.411   9.339  11.345 -0.2665  0.3561  0.3247
  136MOL0     O18689  11.453   9.400  11.457  0.1402  0.0127  0.5897
  136MOL0     C18690  11.586   9.392  11.502  0.1451  0.2672 -0.1836
  136MOL0     C18691  11.585   9.446  11.647 -0.0789  0.1752 -0.5207
  136MOL0     C18692  11.515   9.353  11.754 -0.0049 -0.0110 -0.1468
  136MOL0     C18693  11.545   9.198  11.755 -0.0043  0.1708  0.8545
  136MOL0     C18694  11.691   9.171  11.770 -0.2419  0.2715  0.0095
  136MOL0     C18695  11.804   9.128  11.793  0.6162 -0.8817  0.2431
  136MOL0     C18696  11.501   9.276  11.259 -0.3037 -0.4471 -0.4762
  136MOL0     C18697  11.457   9.226  11.134  0.3522 -0.6052 -0.2859
  136MOL0     C18698  11.560   9.140  11.053  0.3911 -0.5048  0.1728
  136MOL0     H18699  10.972   9.032  10.941 -1.2260 -1.0267  0.1900
  136MOL0     H18700  10.890   8.883  10.759 -1.3240  1.0107 -0.5997
  136MOL0     H18701  10.722   8.963  10.538  0.7617  0.3243  0.3201
  136MOL0     H18702  10.780   8.793  10.543  1.8747  0.3120  0.9950
  136MOL0     H18703  10.777   8.951  10.289  1.1952  0.0557  1.3071
  136MOL0     H18704  10.799   8.775  10.302  1.2006  0.3386 -0.3792
  136MOL0     H18705  10.570   8.745  10.386  1.7956  0.1936  0.0102
  136MOL0     H18706  10.537   8.901  10.417 -0.7491 -0.2778 -1.5919
  136MOL0     H18707  10.589   8.949  10.151 -0.1724  0.9944  1.7949
  136MOL0     H18708  10.588   8.773  10.139 -1.4200  0.9719 -3.1951
  136MOL0     H18709  10.375   8.886  10.082 -2.7552 -1.1320  0.3104
  136MOL0     H18710  10.347   8.941  10.243  1.6855 -1.1408  2.5219
  136MOL0     H18711  10.392   8.639  10.181  0.1182 -0.7276  0.8877
  136MOL0     H18712  10.340   8.705  10.340  2.2860 -2.5249 -0.5487
  136MOL0     H18713  10.174   8.746  10.080  0.4905 -1.4098 -0.9829
  136MOL0     H18714  10.131   8.782  10.244 -0.3780 -0.3882  0.2445
  136MOL0     H18715  10.192   8.495  10.137  0.2955 -1.8494  0.5722
  136MOL0     H18716  10.154   8.526  10.306  0.0407 -2.2961 -1.2790
  136MOL0     H18717   9.940   8.684   9.995 -2.3322  1.8275 -1.0027
  136MOL0     H18718   9.584   8.660  10.109 -1.5761  0.8094 -1.9241
  136MOL0     H18719   9.666   8.642   9.964  0.2357 -2.0056  1.3630
  136MOL0     H18720   9.704   8.887  10.145 -0.6066 -0.8485  0.8926
  136MOL0     H18721   9.782   8.855   9.989 -1.1894  0.2803 -0.2400
  136MOL0     H18722   9.561   8.872   9.874  0.2915  0.5915 -0.5740
  136MOL0     H18723   9.487   8.874  10.036 -0.7205 -0.3403 -0.9618
  136MOL0     H18724   9.497   9.092   9.939  0.1993 -1.6373 -1.5238
  136MOL0     H18725   9.598   9.085  10.091 -0.8765 -3.0198  1.1309
  136MOL0     H18726   9.815   9.079  10.146 -0.1364  0.3068  0.5615
  136MOL0     H18727  10.010   9.280  10.339 -0.3797  0.5988 -0.2237
  136MOL0     H18728  10.127   9.193  10.228 -0.8662 -2.1934 -3.8538
  136MOL0     H18729   9.984   9.122  10.294  2.0500  0.1901  0.7811
  136MOL0     H18730  10.200   9.684  10.252  0.3721  0.2150  1.0864
  136MOL0     H18731  10.319   9.889  10.277  1.0332 -0.0463 -0.8091
  136MOL0     H18732  10.504  10.054  10.267 -0.6714 -0.3014  0.0390
  136MOL0     H18733  10.571   9.941  10.142  0.8085  0.3097 -0.0644
  136MOL0     H18734  10.641  10.131  10.013  0.6919 -2.4385 -0.7971
  136MOL0     H18735  10.596  10.244  10.149  3.7808  1.6655 -1.4519
  136MOL0     H18736  10.805  10.013  10.152  0.9733  0.9890 -1.2509
  136MOL0     H18737  10.744  10.095  10.297 -1.5376 -0.2988 -0.9544
  136MOL0     H18738  10.835  10.312  10.166 -2.6344 -1.4936 -1.0714
  136MOL0     H18739  10.936  10.196  10.088 -0.3901  0.0763 -0.3630
  136MOL0     H18740  10.911  10.271  10.377 -2.4268  0.8739 -2.7326
  136MOL0     H18741  10.950  10.101  10.336 -0.6869 -2.9127 -5.3612
  136MOL0     H18742  11.071  10.346  10.206 -3.4847 -0.0082  1.0117
  136MOL0     H18743  11.146  10.180  10.214  1.2472  0.7075 -0.3802
  136MOL0     H18744  11.209  10.227  10.451 -4.5938 -0.8047  0.5866
  136MOL0     H18745  11.146  10.392  10.430  2.4096  1.7883 -0.4184
  136MOL0     H18746  11.338  10.413  10.240  1.7988  0.0691  0.1065
  136MOL0     H18747  11.380  10.251  10.282 -0.5183 -0.4753  0.9963
  136MOL0     H18748  10.343   9.955   9.864 -2.0050  3.4234  1.7025
  136MOL0     H18749  10.191   9.744   9.814  1.8405  0.7723 -0.0402
  136MOL0     H18750   9.920   9.476   9.876 -0.6162  1.6449  2.3845
  136MOL0     H18751   9.782   9.327   9.791  0.6235  1.1765 -0.2490
  136MOL0     H18752  11.069   9.142  10.470 -1.2095 -1.2691 -0.7113
  136MOL0     H18753  11.179   9.262  10.658  1.8595 -1.9298  1.1026
  136MOL0     H18754  11.133   9.341  11.157 -0.3996  0.4947 -0.0832
  136MOL0     H18755  11.211   9.381  11.383 -0.1626 -0.5610  0.7348
  136MOL0     H18756  11.623   9.289  11.506 -1.9388 -0.5648 -1.1008
  136MOL0     H18757  11.645   9.466  11.445 -0.4954  2.8189  2.2578
  136MOL0     H18758  11.542   9.546  11.645  0.2148  0.3590  1.0242
  136MOL0     H18759  11.689   9.461  11.678  0.3759 -0.4895 -1.6433
  136MOL0     H18760  11.554   9.399  11.845  0.2962  1.6922 -1.1025
  136MOL0     H18761  11.408   9.374  11.751  0.1181  0.7190  0.5501
  136MOL0     H18762  11.506   9.155  11.662  1.4645  2.0209 -0.6853
  136MOL0     H18763  11.503   9.145  11.841  1.3974 -1.4467  0.6008
  136MOL0     H18764  11.905   9.102  11.819  0.7951 -0.6011 -0.1626
  136MOL0     H18765  11.602   9.250  11.291 -0.1785 -1.2365 -1.4433
  136MOL0     H18766  11.632   9.097  11.123  1.0954 -3.0555 -1.9568
  136MOL0     H18767  11.516   9.046  11.018 -0.6611 -0.7517  2.0474
  136MOL0     H18768  11.615   9.195  10.976  0.4920  2.2188  2.0333
  137MOL0     O18769   5.679   2.163   9.642 -0.4239  0.4327 -0.4068
  137MOL0     C18770   5.596   2.196   9.728  0.4568  0.5160  0.3071
  137MOL0     O18771   5.618   2.171   9.858 -0.1494 -0.2029 -0.1241
  137MOL0     C18772   5.747   2.181   9.905  1.2046 -0.3128  0.7231
  137MOL0     C18773   5.849   2.258   9.850  1.0364 -0.9140  0.3311
  137MOL0     C18774   5.975   2.259   9.904 -0.5682  0.5006  0.1652
  137MOL0     C18775   6.000   2.199  10.024 -1.0659 -1.0949  0.8432
  137MOL0     O18776   6.132   2.217  10.070  0.5174 -0.4156 -0.0746
  137MOL0     C18777   6.170   2.141  10.187 -0.1649 -0.0421  0.4619
  137MOL0     C18778   6.321   2.145  10.196 -0.0857  0.1633  0.2935
  137MOL0     C18779   6.377   2.289  10.210 -0.2270  0.4097  0.2761
  137MOL0     C18780   6.518   2.300  10.270  0.4345 -0.0270 -0.1558
  137MOL0     C18781   6.580   2.444  10.267  1.2516 -0.0700  0.4591
  137MOL0     C18782   6.713   2.451  10.339  0.4660  0.6798  0.2001
  137MOL0     C18783   6.764   2.592  10.342  0.1943 -0.5719  0.5768
  137MOL0     C18784   6.907   2.607  10.414 -0.5083  0.0649 -0.1818
  137MOL0     N18785   7.017   2.533  10.334  0.5020 -0.4392 -0.2613
  137MOL0     C18786   7.061   2.407  10.362  0.1694  0.6715  1.1516
  137MOL0     C18787   7.182   2.401  10.300  1.6068 -0.0653  0.5058
  137MOL0     C18788   7.267   2.280  10.297  0.3336 -0.1147  0.1400
  137MOL0     C18789   7.261   2.204  10.162  0.4451  0.1880  1.1099
  137MOL0     C18790   7.310   2.298  10.041  0.0689  0.1022 -0.2606
  137MOL0     C18791   7.455   2.347  10.067 -0.7826  0.1036 -0.4768
  137MOL0     O18792   7.557   2.245  10.060 -0.2805 -0.9169  0.0340
  137MOL0     C18793   7.692   2.274  10.060  0.2031 -0.2141  0.1435
  137MOL0     C18794   7.747   2.388   9.993  0.3174  0.6567  0.2570
  137MOL0     C18795   7.886   2.404   9.975 -0.2164 -0.4220  0.5141
  137MOL0     C18796   7.932   2.530   9.888 -0.2300  0.0653 -0.0451
  137MOL0     C18797   7.971   2.308  10.026  0.9070  1.1395 -0.8121
  137MOL0     C18798   8.117   2.317  10.024 -0.6859 -0.1399 -0.2947
  137MOL0     O18799   8.180   2.225  10.100 -0.2192  0.3726 -0.6052
  137MOL0     C18800   8.307   2.225  10.141 -0.0864  0.0879  0.6569
  137MOL0     C18801   8.345   2.104  10.187  0.2573  0.1361  0.0904
  137MOL0     C18802   8.475   2.068  10.238  0.3490 -0.3700 -0.2442
  137MOL0     C18803   8.569   2.171  10.240 -0.0960 -0.5330  0.0729
  137MOL0     O18804   8.685   2.144  10.300  0.1617  0.7071 -0.1738
  137MOL0     C18805   8.754   2.255  10.367 -0.9617  0.7328  0.2312
  137MOL0     C18806   8.880   2.306  10.293  0.5993  0.9936 -0.2842
  137MOL0     C18807   8.973   2.190  10.254  0.1016 -0.2618  0.1012
  137MOL0     C18808   9.109   2.245  10.207 -0.2978  0.1038  0.7887
  137MOL0     C18809   9.203   2.149  10.129 -0.5533  0.2385  0.0562
  137MOL0     C18810   9.257   2.031  10.207  0.4812  0.1630 -1.1951
  137MOL0     C18811   9.342   2.060  10.334  0.4641  0.6821 -0.4582
  137MOL0     C18812   9.357   1.931  10.408  0.3068  0.5882  0.1625
  137MOL0    Cl18813   9.460   1.962  10.547 -0.1927 -0.1011  0.1624
  137MOL0     C18814   8.541   2.295  10.191  0.6317 -1.1428 -0.4095
  137MOL0     C18815   8.407   2.325  10.139 -0.1939 -0.2771  0.0548
  137MOL0     O18816   8.174   2.399   9.955 -0.0701 -0.0896  0.3593
  137MOL0     C18817   7.916   2.195  10.100  0.5545 -1.4403 -0.0601
  137MOL0     C18818   7.778   2.176  10.101  0.8375  0.4504  0.5154
  137MOL0     N18819   7.206   2.526  10.245  0.4137 -0.0373 -0.2176
  137MOL0     N18820   7.110   2.609  10.264  0.2815  0.0315  0.8116
  137MOL0     C18821   5.899   2.125  10.079  0.8674 -0.2506 -0.6953
  137MOL0     C18822   5.776   2.108  10.019  0.9757  0.0903 -0.0212
  137MOL0     C18823   5.468   2.244   9.680 -0.0372 -0.1562  0.2893
  137MOL0     C18824   5.370   2.265   9.780  0.1081  0.2352 -0.5356
  137MOL0     C18825   5.244   2.309   9.751  0.5237 -0.0380  0.2007
  137MOL0     C18826   5.201   2.328   9.618  0.9568 -0.4959 -0.6649
  137MOL0     O18827   5.072   2.365   9.584  0.9090  0.0671  0.1984
  137MOL0     C18828   4.992   2.424   9.689  0.2757 -0.0407  0.2347
  137MOL0     C18829   4.862   2.440   9.609 -0.6175 -0.2708 -0.6458
  137MOL0     C18830   4.745   2.498   9.684 -0.5310 -0.5861  0.0796
  137MOL0     C18831   4.613   2.467   9.602  0.3456 -0.4674  0.6616
  137MOL0     C18832   4.583   2.332   9.631  0.9523 -0.3903  1.1096
  137MOL0     C18833   4.552   2.220   9.656 -0.4339  0.2961  0.1148
  137MOL0     C18834   5.290   2.295   9.520  0.2072 -0.2439  0.1134
  137MOL0     C18835   5.423   2.268   9.544  0.2743 -0.2918 -0.0639
  137MOL0     C18836   5.528   2.262   9.427 -0.1673  0.5333 -0.5736
  137MOL0     H18837   5.832   2.317   9.760  2.7712  0.5803  0.9122
  137MOL0     H18838   6.061   2.308   9.861  1.0678 -0.3993  2.2088
  137MOL0     H18839   6.137   2.038  10.174 -0.1194 -0.1241  0.9696
  137MOL0     H18840   6.130   2.179  10.282 -1.6024  0.5570 -0.3476
  137MOL0     H18841   6.350   2.084  10.282 -0.6513  0.3404  0.6173
  137MOL0     H18842   6.371   2.102  10.109  0.7775  0.3945  0.6548
  137MOL0     H18843   6.362   2.335  10.112 -3.3293 -0.1355  0.3983
  137MOL0     H18844   6.306   2.336  10.279 -0.6940 -1.1255  0.8669
  137MOL0     H18845   6.500   2.277  10.376  0.6244  4.9406  1.2231
  137MOL0     H18846   6.578   2.223  10.220 -2.5573 -1.8495 -1.2156
  137MOL0     H18847   6.504   2.504  10.318  0.0479 -1.6724  0.5973
  137MOL0     H18848   6.576   2.477  10.163 -4.8485 -2.4779 -0.4838
  137MOL0     H18849   6.713   2.405  10.438  3.9945  1.6657  0.8151
  137MOL0     H18850   6.776   2.396  10.268 -0.0438  3.2097 -2.4128
  137MOL0     H18851   6.686   2.653  10.388  1.0086  0.3725  0.7461
  137MOL0     H18852   6.772   2.624  10.237  1.9226 -1.5690  0.3718
  137MOL0     H18853   6.936   2.712  10.426  0.7895 -0.2438 -0.3977
  137MOL0     H18854   6.904   2.568  10.516 -1.1361 -2.1715 -0.9945
  137MOL0     H18855   7.000   2.330  10.408  1.0891 -1.1821 -0.5781
  137MOL0     H18856   7.239   2.218  10.384  1.8591  0.0058  0.7502
  137MOL0     H18857   7.365   2.321  10.320 -0.3568  1.4286  0.4238
  137MOL0     H18858   7.337   2.125  10.164 -0.9296 -1.2119  0.3968
  137MOL0     H18859   7.161   2.167  10.140  0.3245  0.7990  0.5961
  137MOL0     H18860   7.315   2.245   9.945 -1.2585 -0.0348 -0.2734
  137MOL0     H18861   7.253   2.391  10.031  2.5976  1.6538 -1.1570
  137MOL0     H18862   7.486   2.424   9.996  2.8300 -0.6322  0.1282
  137MOL0     H18863   7.471   2.399  10.162 -0.0429  1.6327 -1.4018
  137MOL0     H18864   7.691   2.467   9.945  2.3665 -0.6030 -4.9111
  137MOL0     H18865   7.992   2.603   9.943  1.2080 -0.0789 -1.3573
  137MOL0     H18866   7.845   2.583   9.848  0.5301  1.2510 -0.1656
  137MOL0     H18867   7.986   2.488   9.803 -0.3920  0.9605 -0.5999
  137MOL0     H18868   8.270   2.026  10.190 -0.5822  0.8678 -0.9429
  137MOL0     H18869   8.492   1.970  10.280 -0.3514 -0.0712  0.7731
  137MOL0     H18870   8.687   2.337  10.394 -0.3522  1.0965  0.6701
  137MOL0     H18871   8.786   2.211  10.462 -3.0172 -0.8848  0.2522
  137MOL0     H18872   8.858   2.365  10.203  0.4550 -0.0180 -0.9324
  137MOL0     H18873   8.930   2.368  10.368  1.3272  0.8278 -0.6280
  137MOL0     H18874   8.915   2.141  10.175  0.7980 -0.3944 -0.3375
  137MOL0     H18875   8.999   2.124  10.338 -2.2534 -3.9413 -1.8171
  137MOL0     H18876   9.162   2.312  10.275 -1.3389  1.0061  0.7259
  137MOL0     H18877   9.092   2.319  10.128 -3.4986 -2.7722 -1.5390
  137MOL0     H18878   9.145   2.099  10.051 -1.9268  0.4616  0.8979
  137MOL0     H18879   9.283   2.201  10.077  1.5897  1.0564  3.7726
  137MOL0     H18880   9.308   1.965  10.136  1.0859 -1.9984  1.1011
  137MOL0     H18881   9.166   1.979  10.238  0.2640  0.4018 -1.4246
  137MOL0     H18882   9.281   2.129  10.392 -1.2498 -0.5834 -0.6630
  137MOL0     H18883   9.446   2.086  10.316  1.1999 -1.7175  0.0366
  137MOL0     H18884   9.393   1.843  10.354 -0.2948  0.6261 -0.3101
  137MOL0     H18885   9.259   1.907  10.451 -1.3020  1.9706 -2.4834
  137MOL0     H18886   8.615   2.373  10.181 -1.6645  1.6279  2.0472
  137MOL0     H18887   8.385   2.421  10.095  2.8914  0.7145  0.4146
  137MOL0     H18888   7.985   2.118  10.133  3.1268  0.7224 -0.0198
  137MOL0     H18889   7.735   2.084  10.141  0.8122 -0.2760 -1.1007
  137MOL0     H18890   5.920   2.082  10.176  1.3080 -1.7838 -1.4438
  137MOL0     H18891   5.700   2.047  10.067 -0.5204  1.8853 -0.0155
  137MOL0     H18892   5.395   2.267   9.886 -1.7248  0.9597 -0.0809
  137MOL0     H18893   5.169   2.324   9.829 -2.6699  5.4976 -3.3040
  137MOL0     H18894   4.976   2.361   9.777 -0.4070 -1.2484 -0.7236
  137MOL0     H18895   5.017   2.523   9.729  0.7639 -0.6798  1.5824
  137MOL0     H18896   4.823   2.346   9.569  0.3639 -0.3671 -1.4202
  137MOL0     H18897   4.876   2.504   9.522  0.0796 -0.5741 -0.7602
  137MOL0     H18898   4.735   2.452   9.782 -0.8875  1.7887  1.2254
  137MOL0     H18899   4.758   2.606   9.697 -0.1907 -0.3942 -1.6183
  137MOL0     H18900   4.619   2.484   9.494 -1.0424  1.3544  0.8150
  137MOL0     H18901   4.536   2.539   9.632 -0.3278 -1.1686  0.6449
  137MOL0     H18902   4.521   2.119   9.677  0.2799  0.2021  0.7652
  137MOL0     H18903   5.263   2.309   9.416  0.5139  1.4110  0.2236
  137MOL0     H18904   5.600   2.342   9.444  0.3430 -0.2958  1.4446
  137MOL0     H18905   5.581   2.167   9.432  0.1601  0.7952  1.8041
  137MOL0     H18906   5.476   2.264   9.330 -2.7959 -0.3063  0.7259
  138MOL0     O18907   0.856   9.348   5.364 -0.6392 -0.2618 -0.0912
  138MOL0     C18908   0.742   9.323   5.403 -0.1936  0.2361 -0.1979
  138MOL0     O18909   0.636   9.312   5.320 -0.2428  0.4113 -0.6279
  138MOL0     C18910   0.663   9.310   5.185 -0.3656 -0.5628  0.8404
  138MOL0     C18911   0.682   9.190   5.116 -0.0932 -0.5185  0.1383
  138MOL0     C18912   0.714   9.188   4.976  0.8227  0.4436 -0.5357
  138MOL0     C18913   0.717   9.307   4.904  0.8667  0.6183  0.9925
  138MOL0     O18914   0.751   9.303   4.769  0.1953 -0.2489 -0.4172
  138MOL0     C18915   0.677   9.211   4.700 -0.2191  0.3408  0.1767
  138MOL0     C18916   0.702   9.230   4.549  0.2774  0.7663 -0.2388
  138MOL0     C18917   0.855   9.229   4.510 -0.3026  0.3795 -0.2464
  138MOL0     C18918   0.912   9.089   4.527 -0.5495  0.4819 -0.8077
  138MOL0     C18919   1.058   9.084   4.488  0.6251 -0.9681  0.1864
  138MOL0     C18920   1.128   8.955   4.530 -0.4487 -0.6746  0.4470
  138MOL0     C18921   1.276   8.944   4.487  0.0148 -0.3501  0.4171
  138MOL0     C18922   1.302   8.961   4.341  0.8291 -0.1248  1.0216
  138MOL0     N18923   1.441   8.921   4.319  0.5130  0.1631 -0.5367
  138MOL0     C18924   1.478   8.805   4.259 -0.2798  0.2499  0.0392
  138MOL0     C18925   1.610   8.806   4.261 -0.3310 -0.6988  0.1959
  138MOL0     C18926   1.688   8.676   4.223 -0.3108 -0.6478  0.1769
  138MOL0     C18927   1.834   8.693   4.215 -0.0988 -0.7479  0.0809
  138MOL0     C18928   1.893   8.559   4.178 -0.2547 -0.1938 -0.1692
  138MOL0     C18929   1.911   8.462   4.294 -0.0007  0.7470 -0.0988
  138MOL0     O18930   1.951   8.333   4.234  0.9330 -0.6104  0.5519
  138MOL0     C18931   2.081   8.299   4.237 -0.1594  0.4476  1.1036
  138MOL0     C18932   2.105   8.165   4.214 -0.3081 -1.0369  0.4003
  138MOL0     C18933   2.233   8.109   4.203 -0.7399 -0.6525  1.2778
  138MOL0     C18934   2.233   7.957   4.163  0.3951 -0.8290 -0.6091
  138MOL0     C18935   2.346   8.197   4.210  0.3060 -0.3808 -0.1469
  138MOL0     C18936   2.496   8.160   4.211  0.0079  0.1512  0.7358
  138MOL0     O18937   2.588   8.250   4.255  0.4415 -0.0699 -0.2412
  138MOL0     C18938   2.724   8.223   4.255  0.9421  0.3903  0.3273
  138MOL0     C18939   2.793   8.125   4.183 -0.9128 -0.1852 -0.7775
  138MOL0     C18940   2.931   8.116   4.179  0.4721 -0.0299  0.0357
  138MOL0     C18941   3.011   8.211   4.239  0.2442  1.3671 -0.2028
  138MOL0     O18942   3.148   8.197   4.231 -0.2874  0.2458  0.6968
  138MOL0     C18943   3.238   8.210   4.337 -0.9489 -0.0919 -0.3610
  138MOL0     C18944   3.216   8.096   4.434 -0.1050  0.0003 -0.6374
  138MOL0     C18945   3.339   8.079   4.527  0.3297 -0.2899 -0.4128
  138MOL0     C18946   3.347   7.928   4.579 -0.6364 -0.0047 -0.1219
  138MOL0     C18947   3.471   7.904   4.661 -0.1447  0.0382 -0.0547
  138MOL0     C18948   3.497   7.760   4.688  0.0044 -0.9587 -0.7509
  138MOL0     C18949   3.575   7.741   4.825 -0.0164 -0.1673  0.7243
  138MOL0     C18950   3.591   7.588   4.864 -0.0980 -0.0800  0.2898
  138MOL0    Cl18951   3.443   7.524   4.948 -0.2773  0.1133  0.0847
  138MOL0     C18952   2.943   8.314   4.315 -0.0545  0.3404  0.9580
  138MOL0     C18953   2.806   8.319   4.313  0.1738  0.8435  0.3618
  138MOL0     O18954   2.524   8.052   4.158  0.1107  0.2005 -0.5604
  138MOL0     C18955   2.316   8.334   4.236 -0.7646  0.8868  0.4530
  138MOL0     C18956   2.193   8.384   4.249 -0.1546  0.1729  0.0516
  138MOL0     N18957   1.652   8.925   4.320 -0.6683 -0.2917  0.3079
  138MOL0     N18958   1.546   8.981   4.368 -0.1617  0.3073 -0.7010
  138MOL0     C18959   0.703   9.423   4.979 -0.6166 -0.5056  0.3630
  138MOL0     C18960   0.659   9.426   5.111 -0.2792 -0.6766 -0.8016
  138MOL0     C18961   0.724   9.296   5.548  0.1723 -0.2821  0.5213
  138MOL0     C18962   0.599   9.236   5.585 -0.1541  0.0708  0.4943
  138MOL0     C18963   0.577   9.204   5.722  0.3273  0.2814  0.7197
  138MOL0     C18964   0.663   9.244   5.823 -0.8042 -0.6317  0.2226
  138MOL0     O18965   0.631   9.219   5.957 -0.1387 -0.7018 -0.2493
  138MOL0     C18966   0.573   9.340   6.017  0.1748  0.2800  0.5151
  138MOL0     C18967   0.574   9.316   6.173  0.4935 -0.1528 -0.4545
  138MOL0     C18968   0.718   9.334   6.233 -0.9164 -0.1898  0.3952
  138MOL0     C18969   0.743   9.481   6.275  0.0231 -0.7369 -0.2636
  138MOL0     C18970   0.884   9.488   6.316 -0.1897 -0.2241  0.3641
  138MOL0     C18971   1.005   9.493   6.354  0.7548  0.3356 -0.0173
  138MOL0     C18972   0.782   9.316   5.783  0.1597  0.7291 -0.1295
  138MOL0     C18973   0.817   9.344   5.646  0.3594 -0.7039 -0.0694
  138MOL0     C18974   0.942   9.419   5.629  0.5869 -0.0435 -0.7769
  138MOL0     H18975   0.651   9.100   5.169  0.1357  0.0093  1.1869
  138MOL0     H18976   0.725   9.087   4.937 -1.8439  0.0609 -0.4944
  138MOL0     H18977   0.572   9.221   4.730 -0.2701 -0.6041  0.3396
  138MOL0     H18978   0.705   9.108   4.723 -3.7002 -1.0821 -1.2044
  138MOL0     H18979   0.653   9.151   4.492 -1.6436  0.0483  2.2450
  138MOL0     H18980   0.656   9.326   4.522 -2.1342 -0.1950  0.2122
  138MOL0     H18981   0.858   9.263   4.407 -2.6510  0.9033 -0.1966
  138MOL0     H18982   0.906   9.301   4.575 -0.3437 -1.5975  2.1779
  138MOL0     H18983   0.905   9.048   4.628  0.0558  1.4652 -0.3520
  138MOL0     H18984   0.863   9.017   4.461 -0.1327 -0.4434 -0.1275
  138MOL0     H18985   1.109   9.164   4.544 -1.1132  0.4502 -0.1433
  138MOL0     H18986   1.068   9.112   4.383 -1.1363  0.5520  0.3731
  138MOL0     H18987   1.118   8.935   4.637 -0.0607 -1.8483  0.2915
  138MOL0     H18988   1.075   8.875   4.478 -1.1308  0.8136 -1.2501
  138MOL0     H18989   1.306   8.843   4.516 -0.8942  0.0114  2.8267
  138MOL0     H18990   1.335   9.015   4.545 -0.3180 -0.9863  1.5662
  138MOL0     H18991   1.232   8.905   4.279  1.1258 -0.1785  0.7252
  138MOL0     H18992   1.284   9.067   4.321 -0.9038 -0.8112 -1.5959
  138MOL0     H18993   1.415   8.721   4.231 -1.1192  0.4375  1.2930
  138MOL0     H18994   1.644   8.656   4.125 -0.2113  3.6256 -0.9238
  138MOL0     H18995   1.668   8.595   4.293 -1.8931 -2.1345 -1.8702
  138MOL0     H18996   1.855   8.768   4.139  0.2060  0.8413  1.6617
  138MOL0     H18997   1.888   8.725   4.304  0.4578  0.0751 -0.5411
  138MOL0     H18998   1.846   8.502   4.097  2.4122 -0.9942 -1.2641
  138MOL0     H18999   1.995   8.574   4.142 -0.4541  2.0356  0.0410
  138MOL0     H19000   1.984   8.502   4.365  1.0237  0.8107 -1.1566
  138MOL0     H19001   1.815   8.440   4.340  0.9262 -2.0485  0.7023
  138MOL0     H19002   2.023   8.098   4.193 -0.7630 -1.0695  2.1446
  138MOL0     H19003   2.319   7.930   4.101  1.7972  2.7658 -0.4635
  138MOL0     H19004   2.139   7.937   4.111  0.5363  0.7077 -1.5092
  138MOL0     H19005   2.238   7.906   4.260 -0.2862  1.2019  0.5389
  138MOL0     H19006   2.755   8.046   4.118  2.4841 -0.5829 -2.4990
  138MOL0     H19007   2.979   8.046   4.112 -0.3829 -1.0508  0.4651
  138MOL0     H19008   3.343   8.208   4.307 -1.2613 -1.1214 -1.4666
  138MOL0     H19009   3.221   8.301   4.396 -5.1556 -1.5051  0.9375
  138MOL0     H19010   3.124   8.104   4.491 -0.1051 -1.9954 -0.2993
  138MOL0     H19011   3.195   8.002   4.382 -1.0694 -0.3166  0.3007
  138MOL0     H19012   3.324   8.155   4.604 -1.0104 -1.8614  0.9313
  138MOL0     H19013   3.431   8.108   4.474  1.3082 -0.9526  0.8927
  138MOL0     H19014   3.338   7.860   4.493  1.4125  1.6610 -1.7672
  138MOL0     H19015   3.264   7.895   4.642 -0.9631  0.4287 -0.3258
  138MOL0     H19016   3.561   7.949   4.618  1.3070  0.0674  2.7555
  138MOL0     H19017   3.462   7.953   4.759 -2.3464 -0.8702  0.2419
  138MOL0     H19018   3.547   7.704   4.608  1.2998 -0.4460 -0.3206
  138MOL0     H19019   3.398   7.714   4.700 -0.9010  0.5991 -1.8899
  138MOL0     H19020   3.520   7.792   4.904 -1.3515 -0.1567 -0.1901
  138MOL0     H19021   3.671   7.792   4.813  1.1791 -1.9508  2.1746
  138MOL0     H19022   3.681   7.570   4.923 -0.4986 -0.0114  0.9387
  138MOL0     H19023   3.612   7.511   4.790  1.0773 -1.9648  2.4639
  138MOL0     H19024   3.001   8.387   4.371 -0.0133  1.1257 -0.0746
  138MOL0     H19025   2.761   8.410   4.351  0.1443  2.1526 -2.5323
  138MOL0     H19026   2.399   8.403   4.247  0.8397 -0.8307 -0.3301
  138MOL0     H19027   2.190   8.491   4.267 -0.0806  0.2609 -0.4603
  138MOL0     H19028   0.717   9.517   4.926 -0.1996 -1.6644 -1.7054
  138MOL0     H19029   0.643   9.513   5.174 -0.0672 -1.5871  0.5785
  138MOL0     H19030   0.530   9.222   5.503  1.0589 -0.6613 -0.4389
  138MOL0     H19031   0.482   9.163   5.754 -0.0593  0.4970 -0.1406
  138MOL0     H19032   0.632   9.431   5.998 -0.7871  0.6776 -0.6996
  138MOL0     H19033   0.478   9.363   5.969  0.0027 -2.0390 -0.3749
  138MOL0     H19034   0.534   9.215   6.187 -0.4482  0.1462 -0.9371
  138MOL0     H19035   0.502   9.376   6.229 -0.7230  1.3926 -3.4505
  138MOL0     H19036   0.728   9.261   6.314  1.3611 -0.9704 -0.5172
  138MOL0     H19037   0.799   9.312   6.163 -1.3406  0.7083 -0.4016
  138MOL0     H19038   0.671   9.501   6.354 -1.4444 -2.7257 -0.9970
  138MOL0     H19039   0.727   9.558   6.199 -0.6095  2.7285  3.0910
  138MOL0     H19040   1.102   9.474   6.394  0.7949  1.4200  0.4342
  138MOL0     H19041   0.849   9.348   5.862  1.0420 -0.0674 -0.5420
  138MOL0     H19042   0.923   9.503   5.562  0.0728  2.0879  1.8543
  138MOL0     H19043   0.972   9.473   5.719  1.1890  2.7940 -2.5678
  138MOL0     H19044   1.010   9.350   5.577  4.6245  2.5651  0.5142
  139MOL0     O19045   7.942   7.502   0.356 -0.5694  0.0635  0.0861
  139MOL0     C19046   7.955   7.380   0.364 -0.1830 -0.6894 -0.1670
  139MOL0     O19047   8.069   7.307   0.359  0.2485  0.0575  0.3004
  139MOL0     C19048   8.175   7.371   0.305  0.2463 -0.0071 -0.1214
  139MOL0     C19049   8.170   7.447   0.189  0.0548 -0.9626 -0.1408
  139MOL0     C19050   8.285   7.501   0.139 -0.1111 -0.5984  0.3497
  139MOL0     C19051   8.418   7.490   0.201  0.5457  0.1459 -0.0608
  139MOL0     O19052   8.537   7.534   0.153 -0.7337  0.5164 -0.0034
  139MOL0     C19053   8.530   7.653   0.071  0.0965 -0.7663 -0.4663
  139MOL0     C19054   8.657   7.741   0.090  0.2664  0.0779 -0.2176
  139MOL0     C19055   8.770   7.647   0.042  0.0504  0.1052  0.1459
  139MOL0     C19056   8.905   7.722   0.035  0.0547  0.3380  0.0635
  139MOL0     C19057   9.019   7.618   0.056 -0.1666 -0.4363  0.2965
  139MOL0     C19058   9.151   7.696   0.074 -0.4006 -0.1214 -0.9773
  139MOL0     C19059   9.279   7.603   0.075  0.4779  0.1498  0.2152
  139MOL0     C19060   9.405   7.681   0.124  0.5184  0.2526  0.2508
  139MOL0     N19061   9.533   7.627   0.074 -0.2294  0.0714  0.4609
  139MOL0     C19062   9.616   7.556   0.158  0.5429 -0.3650 -0.0796
  139MOL0     C19063   9.725   7.531   0.088 -0.2526 -1.3606  0.3781
  139MOL0     C19064   9.849   7.449   0.126  0.4844  0.6756 -0.1552
  139MOL0     C19065   9.919   7.396   0.004 -0.2947  0.2041 -0.0218
  139MOL0     C19066  10.024   7.297   0.055 -0.2358  0.5677  0.8610
  139MOL0     C19067  10.124   7.256  -0.057  0.1627  0.3027 -0.5829
  139MOL0     O19068  10.233   7.353  -0.070 -0.0923  0.1570  0.1492
  139MOL0     C19069  10.334   7.307  -0.154  0.3828 -0.2071  0.0468
  139MOL0     C19070  10.328   7.197  -0.246  0.3976 -0.1225 -0.0183
  139MOL0     C19071  10.433   7.174  -0.336 -1.0096  0.4098  0.4243
  139MOL0     C19072  10.432   7.050  -0.418 -0.6435  0.1183  0.6480
  139MOL0     C19073  10.545   7.263  -0.343  0.4054  1.1640 -0.5691
  139MOL0     C19074  10.654   7.240  -0.443  0.2194  0.6981  0.3626
  139MOL0     O19075  10.628   7.184  -0.564  0.5517 -0.2417 -0.3755
  139MOL0     C19076  10.743   7.156  -0.641  0.7665 -0.1712 -0.1082
  139MOL0     C19077  10.760   7.226  -0.758 -0.2204  0.4001  0.5785
  139MOL0     C19078  10.871   7.200  -0.843  0.6327 -0.0455 -0.8410
  139MOL0     C19079  10.973   7.109  -0.806  0.0587  0.0684 -0.4387
  139MOL0     O19080  11.068   7.072  -0.895 -0.2999 -0.4985  1.0171
  139MOL0     C19081  11.167   6.974  -0.854 -0.2090 -0.0905  0.2563
  139MOL0     C19082  11.281   6.968  -0.962  0.0741  0.0147 -1.0452
  139MOL0     C19083  11.383   6.856  -0.919  0.0720 -1.2653 -0.1389
  139MOL0     C19084  11.496   6.867  -1.025  0.7146  0.1871 -0.1298
  139MOL0     C19085  11.605   6.760  -1.008  0.4431 -0.1307 -0.1414
  139MOL0     C19086  11.696   6.737  -1.118 -0.0460 -0.0008 -1.0767
  139MOL0     C19087  11.638   6.626  -1.210 -0.0910 -0.0542  0.4151
  139MOL0     C19088  11.733   6.574  -1.313 -0.8171  0.6138  0.7014
  139MOL0    Cl19089  11.878   6.501  -1.245 -0.5373 -0.0163  0.0480
  139MOL0     C19090  10.957   7.046  -0.684 -0.4869  1.2634  0.0062
  139MOL0     C19091  10.844   7.069  -0.601 -0.0102 -0.3592  0.2661
  139MOL0     O19092  10.768   7.289  -0.412 -0.1828 -0.0792  0.1367
  139MOL0     C19093  10.559   7.358  -0.236  0.3202 -0.4598  0.5036
  139MOL0     C19094  10.453   7.381  -0.146 -0.0690 -0.1004  0.1572
  139MOL0     N19095   9.704   7.581  -0.045 -0.2282  0.4681 -0.7454
  139MOL0     N19096   9.591   7.643  -0.050  0.2440  0.0037  0.3195
  139MOL0     C19097   8.415   7.412   0.319  0.1014  1.1050  0.6230
  139MOL0     C19098   8.300   7.344   0.365  0.1248  0.4029  0.2086
  139MOL0     C19099   7.826   7.318   0.405 -0.0096  0.6309  0.1241
  139MOL0     C19100   7.824   7.203   0.476  0.7439  0.3860  0.5441
  139MOL0     C19101   7.704   7.145   0.521  0.3534 -0.2921  1.1878
  139MOL0     C19102   7.584   7.200   0.488 -0.3917 -0.2390 -0.1890
  139MOL0     O19103   7.477   7.137   0.554  0.1085 -0.0082  0.0571
  139MOL0     C19104   7.344   7.198   0.553 -0.4866  0.8128  0.1383
  139MOL0     C19105   7.238   7.105   0.629  0.1948 -0.2492 -0.5895
  139MOL0     C19106   7.287   7.117   0.773  0.9195 -0.6366 -0.0320
  139MOL0     C19107   7.195   7.028   0.853 -0.2342 -0.5272  1.2549
  139MOL0     C19108   7.066   7.099   0.875  0.5972  0.8326  0.6412
  139MOL0     C19109   6.944   7.122   0.892 -0.6067  0.1216 -0.3548
  139MOL0     C19110   7.585   7.314   0.415  0.0588 -0.0793  0.1660
  139MOL0     C19111   7.699   7.368   0.356 -0.5223 -0.1702 -0.6544
  139MOL0     C19112   7.676   7.494   0.266  0.4464 -0.0115 -0.2373
  139MOL0     H19113   8.079   7.461   0.132 -0.1055 -3.7205 -0.6881
  139MOL0     H19114   8.286   7.555   0.045  1.7172  0.3946  0.8927
  139MOL0     H19115   8.452   7.718   0.111 -0.0016 -0.9951 -0.2744
  139MOL0     H19116   8.515   7.617  -0.031  2.8243  1.3646 -1.7213
  139MOL0     H19117   8.660   7.822   0.016  1.8147 -0.0925 -0.3758
  139MOL0     H19118   8.682   7.784   0.187 -0.1243  0.1036 -0.1262
  139MOL0     H19119   8.784   7.563   0.111 -2.8205 -1.1621 -0.6762
  139MOL0     H19120   8.735   7.607  -0.053 -2.3428  1.2648  0.4754
  139MOL0     H19121   8.910   7.773  -0.062 -2.4614  0.2676 -0.1628
  139MOL0     H19122   8.915   7.791   0.119  2.0802 -0.1745  0.2871
  139MOL0     H19123   9.022   7.562  -0.038 -0.4278 -0.4249  0.2793
  139MOL0     H19124   9.003   7.546   0.137 -2.0551 -1.3789 -0.8404
  139MOL0     H19125   9.161   7.759  -0.015 -0.1707  1.0618 -0.1475
  139MOL0     H19126   9.148   7.755   0.166 -1.3733 -2.7939  0.8189
  139MOL0     H19127   9.293   7.570  -0.029 -1.1935 -1.1771  0.3540
  139MOL0     H19128   9.268   7.517   0.142  1.8372  1.2290  1.8874
  139MOL0     H19129   9.397   7.782   0.082 -0.4812 -0.3317 -1.0195
  139MOL0     H19130   9.401   7.698   0.232 -1.2942  2.3656 -0.0644
  139MOL0     H19131   9.606   7.529   0.263  0.8192 -1.8124 -0.4070
  139MOL0     H19132   9.815   7.364   0.187 -2.2445  0.7517 -1.4084
  139MOL0     H19133   9.923   7.505   0.183  2.3530 -0.2216 -1.5935
  139MOL0     H19134   9.855   7.341  -0.065 -1.9561  4.8044 -2.5456
  139MOL0     H19135   9.949   7.489  -0.046 -2.4265  3.6225  4.3498
  139MOL0     H19136  10.072   7.332   0.147  0.1123  1.3261  0.4050
  139MOL0     H19137   9.985   7.198   0.084  1.3277  0.2894  2.2066
  139MOL0     H19138  10.165   7.159  -0.028  1.0916  1.6857  3.4123
  139MOL0     H19139  10.062   7.244  -0.146 -0.6680 -0.2747  0.0621
  139MOL0     H19140  10.238   7.136  -0.244 -2.0872  3.2417  0.3127
  139MOL0     H19141  10.354   6.978  -0.394  1.1533 -1.9146  0.7517
  139MOL0     H19142  10.528   6.998  -0.405  1.8207  3.4503 -2.2639
  139MOL0     H19143  10.417   7.081  -0.522  1.0019 -1.4274 -0.1219
  139MOL0     H19144  10.677   7.285  -0.797  0.3619  0.9038  0.0588
  139MOL0     H19145  10.873   7.261  -0.933  1.9637  1.3087  0.0562
  139MOL0     H19146  11.199   6.996  -0.752 -1.6656  3.5109  0.0858
  139MOL0     H19147  11.121   6.875  -0.852 -2.0556  0.6940 -0.9070
  139MOL0     H19148  11.242   6.955  -1.063 -1.4876  1.8165 -0.7249
  139MOL0     H19149  11.344   7.058  -0.969  1.2797 -0.9079 -2.5970
  139MOL0     H19150  11.331   6.760  -0.928 -1.4101 -0.5630  0.6867
  139MOL0     H19151  11.430   6.885  -0.825  1.8505 -0.0481 -1.3373
  139MOL0     H19152  11.543   6.966  -1.034 -1.1920  1.1422 -0.1753
  139MOL0     H19153  11.442   6.849  -1.118  0.4248  1.0194 -0.1366
  139MOL0     H19154  11.660   6.788  -0.918 -0.1353  2.3068 -0.4673
  139MOL0     H19155  11.546   6.671  -0.984 -1.4956 -0.0440 -3.7648
  139MOL0     H19156  11.785   6.701  -1.067 -2.1103 -1.5256  1.6882
  139MOL0     H19157  11.724   6.828  -1.172  0.0191  0.8564  0.3489
  139MOL0     H19158  11.554   6.672  -1.263 -0.6731 -2.5442 -0.9775
  139MOL0     H19159  11.603   6.541  -1.151  0.7524 -0.9899 -0.4010
  139MOL0     H19160  11.761   6.654  -1.383  0.9556 -0.1193  0.5126
  139MOL0     H19161  11.676   6.504  -1.376  0.7411  1.6829 -2.1011
  139MOL0     H19162  11.035   6.980  -0.649 -0.2431  1.1643 -0.6999
  139MOL0     H19163  10.827   7.010  -0.512 -2.7692  0.8830  0.6812
  139MOL0     H19164  10.645   7.424  -0.231  0.0574 -0.0823  0.1327
  139MOL0     H19165  10.467   7.456  -0.068  1.6951  0.2707 -0.4656
  139MOL0     H19166   8.516   7.391   0.354  0.0069 -1.0956 -0.2214
  139MOL0     H19167   8.327   7.277   0.446  1.3298  1.9423  1.1462
  139MOL0     H19168   7.919   7.162   0.509  0.5072  0.2002  1.0027
  139MOL0     H19169   7.716   7.057   0.583  1.9746 -0.0153  1.3191
  139MOL0     H19170   7.345   7.296   0.603  1.8176  1.3722 -0.8425
  139MOL0     H19171   7.304   7.231   0.457 -0.8068  1.5982  0.5305
  139MOL0     H19172   7.241   7.000   0.599  4.5088  0.2038 -2.4805
  139MOL0     H19173   7.140   7.151   0.614  0.5357  0.9537  0.6241
  139MOL0     H19174   7.388   7.076   0.778  0.8024 -0.7542  2.3347
  139MOL0     H19175   7.280   7.221   0.805  0.4238 -0.6306 -0.1430
  139MOL0     H19176   7.235   7.002   0.951 -0.6335  1.6200  2.0546
  139MOL0     H19177   7.171   6.930   0.810  1.3918 -0.6817  0.6471
  139MOL0     H19178   6.838   7.132   0.907 -1.1224 -1.2783 -2.5086
  139MOL0     H19179   7.493   7.371   0.403 -0.1283 -0.4114 -0.0052
  139MOL0     H19180   7.701   7.591   0.309  2.1148  1.2076 -3.5854
  139MOL0     H19181   7.746   7.489   0.182 -0.7340 -1.3171 -1.2028
  139MOL0     H19182   7.573   7.497   0.229  0.2676 -0.9175  0.1692
  140MOL0     O19183   4.469   2.201   6.759 -0.8030  0.0116 -0.0052
  140MOL0     C19184   4.460   2.307   6.815  0.2812 -0.3295 -0.3315
  140MOL0     O19185   4.511   2.343   6.934  0.5379 -0.0642  0.1126
  140MOL0     C19186   4.586   2.252   6.994 -0.0129  0.3054 -0.5798
  140MOL0     C19187   4.541   2.189   7.109  0.1833  0.6013  0.2874
  140MOL0     C19188   4.630   2.094   7.178  0.3164 -0.3832  0.6651
  140MOL0     C19189   4.752   2.064   7.127 -0.1477  0.5516  0.1693
  140MOL0     O19190   4.843   1.976   7.189  0.6866 -0.0089  0.5662
  140MOL0     C19191   4.790   1.849   7.225 -0.0777 -0.3356  0.6306
  140MOL0     C19192   4.901   1.759   7.271  0.6377 -0.2559 -0.3034
  140MOL0     C19193   4.946   1.804   7.402  0.4769  0.0967 -0.3340
  140MOL0     C19194   5.042   1.703   7.451 -1.1017  0.2052 -0.7587
  140MOL0     C19195   5.113   1.745   7.583  0.0588 -0.4296  0.0047
  140MOL0     C19196   5.163   1.630   7.666 -0.0318 -1.0092  0.7592
  140MOL0     C19197   5.273   1.547   7.596 -0.2889  0.1318  0.9047
  140MOL0     C19198   5.411   1.609   7.610 -0.1451  0.5729 -0.6190
  140MOL0     N19199   5.507   1.560   7.508 -0.1437  0.4767 -0.7041
  140MOL0     C19200   5.503   1.602   7.381 -0.4170 -0.0463 -0.3144
  140MOL0     C19201   5.619   1.562   7.328  0.2837  0.0944  0.0252
  140MOL0     C19202   5.677   1.593   7.191 -0.0986 -0.1507  0.2849
  140MOL0     C19203   5.797   1.499   7.166  0.1491 -0.6303  0.6681
  140MOL0     C19204   5.830   1.475   7.017  0.2512 -0.5078  0.0620
  140MOL0     C19205   5.948   1.377   6.980  0.7402 -0.8978 -0.3613
  140MOL0     O19206   6.069   1.441   7.026  0.0214  0.4814  0.2778
  140MOL0     C19207   6.168   1.354   7.063 -0.0567 -0.3627 -0.5886
  140MOL0     C19208   6.183   1.221   7.042  0.0651 -0.3004 -0.4380
  140MOL0     C19209   6.295   1.143   7.084 -0.1116  0.0584  0.2456
  140MOL0     C19210   6.296   0.998   7.043  0.1678  0.0101 -0.6881
  140MOL0     C19211   6.386   1.208   7.170  0.9155 -0.2763  1.4670
  140MOL0     C19212   6.504   1.138   7.226  0.6411  0.6072 -0.5086
  140MOL0     O19213   6.556   1.187   7.347  0.2819  0.6138 -0.2319
  140MOL0     C19214   6.684   1.148   7.372 -0.3235 -0.7195 -1.0052
  140MOL0     C19215   6.711   1.036   7.458 -0.0829  0.4455  0.0984
  140MOL0     C19216   6.842   0.996   7.473  0.3499 -0.1141 -0.4058
  140MOL0     C19217   6.951   1.058   7.421  0.0394 -0.1676  0.5721
  140MOL0     O19218   7.069   0.992   7.441  0.3462  0.2636  0.4621
  140MOL0     C19219   7.151   1.082   7.520 -0.5706 -0.4910 -0.4227
  140MOL0     C19220   7.306   1.076   7.487 -0.0812  0.7139  0.0829
  140MOL0     C19221   7.371   0.938   7.537  0.9556 -0.6643 -0.2375
  140MOL0     C19222   7.510   0.905   7.484  0.3907 -0.1359 -0.3475
  140MOL0     C19223   7.562   0.767   7.537 -0.7495 -0.3087  0.5694
  140MOL0     C19224   7.698   0.746   7.476 -0.9154  0.0857 -0.1793
  140MOL0     C19225   7.803   0.850   7.516  0.0330  0.3251 -0.9530
  140MOL0     C19226   7.950   0.813   7.513 -0.3177 -0.2134 -1.0563
  140MOL0    Cl19227   8.009   0.797   7.340  0.2455 -0.0780  0.3758
  140MOL0     C19228   6.929   1.155   7.328 -0.5436  1.1249  0.2503
  140MOL0     C19229   6.802   1.211   7.314 -0.2848 -0.5794  1.2459
  140MOL0     O19230   6.549   1.037   7.171  0.7525  0.5116  0.0640
  140MOL0     C19231   6.362   1.342   7.199 -0.3693 -0.0755 -0.4869
  140MOL0     C19232   6.257   1.412   7.145 -0.6538  0.5220 -0.6550
  140MOL0     N19233   5.684   1.484   7.429  0.4640  0.6016 -0.2911
  140MOL0     N19234   5.616   1.485   7.542  0.0443  0.1450  0.5005
  140MOL0     C19235   4.797   2.131   7.018 -0.3173 -0.2331 -0.2086
  140MOL0     C19236   4.713   2.221   6.945  0.0827  1.0447 -0.3642
  140MOL0     C19237   4.378   2.418   6.755  0.5418  0.2056 -0.6624
  140MOL0     C19238   4.435   2.552   6.763 -1.1753  1.3553  0.0482
  140MOL0     C19239   4.380   2.655   6.688  0.2266  1.0288 -0.0120
  140MOL0     C19240   4.277   2.629   6.604 -0.2844 -0.1771 -0.3168
  140MOL0     O19241   4.241   2.732   6.530 -0.1592 -0.4160 -0.6745
  140MOL0     C19242   4.124   2.726   6.447 -0.4264  0.5770  0.4977
  140MOL0     C19243   4.115   2.844   6.347  0.0366 -0.4190  0.0500
  140MOL0     C19244   4.068   2.974   6.427  0.7557  1.2225 -0.7080
  140MOL0     C19245   4.135   3.098   6.368 -0.9577 -0.1278 -0.7408
  140MOL0     C19246   4.088   3.232   6.409  0.2065 -0.4087  0.3172
  140MOL0     C19247   4.037   3.341   6.433 -0.0282 -1.0569  0.3132
  140MOL0     C19248   4.207   2.503   6.618 -0.0162 -1.3276 -0.3744
  140MOL0     C19249   4.259   2.397   6.689 -1.1230 -0.0107  0.0189
  140MOL0     C19250   4.205   2.258   6.669  1.3155 -0.5903 -0.1965
  140MOL0     H19251   4.449   2.223   7.156  0.6115  1.0791  0.7920
  140MOL0     H19252   4.597   2.046   7.270 -0.6427 -0.3117  0.3684
  140MOL0     H19253   4.757   1.820   7.125 -0.8298  3.7737 -0.5345
  140MOL0     H19254   4.705   1.863   7.294 -0.9591  3.2195 -0.9434
  140MOL0     H19255   4.855   1.661   7.285 -1.7353  0.9580  1.3042
  140MOL0     H19256   4.989   1.761   7.207  0.3451 -1.4319 -0.7695
  140MOL0     H19257   5.001   1.898   7.396 -0.4865  0.6029 -2.1399
  140MOL0     H19258   4.862   1.818   7.471  1.0038  2.4991 -0.0912
  140MOL0     H19259   5.006   1.600   7.460 -0.6202 -0.0673 -1.8358
  140MOL0     H19260   5.121   1.691   7.377 -1.9766  0.6537 -1.7883
  140MOL0     H19261   5.042   1.805   7.642  0.9480  0.9464 -0.2711
  140MOL0     H19262   5.201   1.807   7.564 -1.2575  1.3531 -0.6637
  140MOL0     H19263   5.198   1.671   7.761  1.2056  1.7698 -0.7807
  140MOL0     H19264   5.075   1.567   7.681  0.1224 -1.8075 -1.3394
  140MOL0     H19265   5.244   1.530   7.492 -1.3914 -1.5296  1.4398
  140MOL0     H19266   5.287   1.451   7.647 -1.8061 -0.3081  0.5247
  140MOL0     H19267   5.397   1.715   7.588  2.5875  1.1133 -0.1994
  140MOL0     H19268   5.453   1.604   7.711  1.9419  0.9323 -1.4082
  140MOL0     H19269   5.435   1.672   7.332 -0.4731 -1.1030 -1.8267
  140MOL0     H19270   5.710   1.697   7.188  0.2050 -0.2598 -1.7952
  140MOL0     H19271   5.599   1.581   7.116 -0.3040  0.4735  0.3948
  140MOL0     H19272   5.891   1.531   7.213  1.0027 -2.8587  0.6056
  140MOL0     H19273   5.773   1.402   7.208 -0.5655 -0.9564 -0.4521
  140MOL0     H19274   5.746   1.424   6.968 -0.7096  2.0514 -1.1199
  140MOL0     H19275   5.854   1.572   6.973  0.2198 -0.3283  0.4333
  140MOL0     H19276   5.930   1.282   7.032 -0.9715  0.5926  1.9496
  140MOL0     H19277   5.957   1.368   6.872 -0.3442 -2.1783 -0.3644
  140MOL0     H19278   6.111   1.177   6.973 -2.9284  0.6001  1.9148
  140MOL0     H19279   6.308   0.934   7.131 -0.2179  0.8733  0.0025
  140MOL0     H19280   6.368   0.972   6.964  1.3455  2.8168 -0.6499
  140MOL0     H19281   6.200   0.974   6.998  0.1455 -0.1714 -0.5448
  140MOL0     H19282   6.631   0.976   7.500 -0.8023  1.6451  0.5189
  140MOL0     H19283   6.853   0.914   7.544  0.6611 -0.6089 -1.0116
  140MOL0     H19284   7.134   1.187   7.496  2.6733  0.7737  2.0216
  140MOL0     H19285   7.141   1.062   7.627  1.5906  0.0003 -0.0768
  140MOL0     H19286   7.311   1.073   7.378 -0.1412 -2.9079  0.0513
  140MOL0     H19287   7.358   1.161   7.531 -1.5439  0.6117  2.1706
  140MOL0     H19288   7.309   0.854   7.503 -1.1533  0.4942  0.5646
  140MOL0     H19289   7.373   0.947   7.646 -0.4088 -1.5347 -0.1180
  140MOL0     H19290   7.582   0.985   7.504 -0.0218  0.3819 -0.9202
  140MOL0     H19291   7.501   0.901   7.376  0.1843  1.7749 -0.4206
  140MOL0     H19292   7.564   0.760   7.646  0.0673 -1.5190  0.4904
  140MOL0     H19293   7.493   0.688   7.505 -0.8092 -0.0604  0.0712
  140MOL0     H19294   7.689   0.732   7.368  0.1270  1.0041 -0.3880
  140MOL0     H19295   7.747   0.657   7.517  1.4640  1.0322 -0.8213
  140MOL0     H19296   7.787   0.869   7.623  0.3750 -0.5629 -0.7353
  140MOL0     H19297   7.792   0.940   7.455 -1.4053 -0.1888 -1.4904
  140MOL0     H19298   7.961   0.726   7.578 -0.7430  1.1997  1.0160
  140MOL0     H19299   8.011   0.892   7.558 -3.1466 -0.2149  3.3814
  140MOL0     H19300   7.011   1.202   7.273 -0.8564 -0.0076 -1.2599
  140MOL0     H19301   6.786   1.295   7.247  1.1859 -0.8503  0.5175
  140MOL0     H19302   6.433   1.398   7.259  2.9130 -1.2539 -2.9747
  140MOL0     H19303   6.241   1.517   7.170  0.6945  0.5196  0.3282
  140MOL0     H19304   4.894   2.106   6.977 -1.2562 -0.2877 -2.5388
  140MOL0     H19305   4.742   2.273   6.855  3.1586  0.7202  0.3369
  140MOL0     H19306   4.524   2.576   6.820 -0.2035  0.4089 -1.0393
  140MOL0     H19307   4.409   2.759   6.696 -0.7906  1.4533 -1.4568
  140MOL0     H19308   4.138   2.634   6.390 -2.4622 -0.2102  1.1647
  140MOL0     H19309   4.031   2.713   6.504  0.4366  0.5774  1.9604
  140MOL0     H19310   4.049   2.817   6.265 -2.1602 -0.0255  1.5842
  140MOL0     H19311   4.220   2.857   6.317 -0.5361  0.7873 -1.5483
  140MOL0     H19312   3.959   2.975   6.428  0.7289  0.0546  0.1061
  140MOL0     H19313   4.104   2.951   6.528  2.2406  1.1840 -1.2174
  140MOL0     H19314   4.135   3.084   6.259 -2.0579  1.4311 -0.9821
  140MOL0     H19315   4.240   3.112   6.393 -1.3219  0.5512  0.4796
  140MOL0     H19316   3.986   3.435   6.443 -1.3008 -1.3860 -2.2898
  140MOL0     H19317   4.105   2.495   6.582 -0.3192  0.7655 -0.1335
  140MOL0     H19318   4.096   2.268   6.663  1.3030 -1.2375 -1.3224
  140MOL0     H19319   4.237   2.206   6.579  0.7117  1.4928 -1.7002
  140MOL0     H19320   4.208   2.195   6.759 -0.0914  0.0552  0.3322
  141MOL0     O19321   0.733   8.839   3.278  0.2423 -0.7398 -0.1052
  141MOL0     C19322   0.636   8.828   3.203  0.2547  0.4618 -0.0674
  141MOL0     O19323   0.640   8.826   3.068 -0.0953  0.0725  0.5466
  141MOL0     C19324   0.753   8.867   3.007  0.0635  0.2652 -0.2103
  141MOL0     C19325   0.779   9.001   2.967 -0.2493 -0.2937  0.0149
  141MOL0     C19326   0.902   9.025   2.909 -0.5320 -0.1373  0.3935
  141MOL0     C19327   0.999   8.915   2.893  0.8719 -0.6729 -0.1669
  141MOL0     O19328   1.111   8.925   2.822 -0.3334  0.9800 -0.0010
  141MOL0     C19329   1.171   9.057   2.809 -0.8717  0.2468 -0.1953
  141MOL0     C19330   1.310   9.044   2.755  0.9839 -0.3368 -0.3911
  141MOL0     C19331   1.385   9.176   2.717  0.0807 -1.0582  0.6890
  141MOL0     C19332   1.540   9.141   2.695 -0.0154 -0.2466  0.3307
  141MOL0     C19333   1.629   9.267   2.672 -0.4437  0.5134 -0.2188
  141MOL0     C19334   1.659   9.342   2.796 -0.0822 -0.2062  0.5259
  141MOL0     C19335   1.721   9.481   2.778 -0.2674 -0.2550  0.2287
  141MOL0     C19336   1.856   9.474   2.695 -0.3631 -0.5117 -0.8575
  141MOL0     N19337   1.908   9.611   2.710 -0.3578  0.9505  0.0665
  141MOL0     C19338   1.989   9.650   2.814  0.7292  0.1970 -0.1440
  141MOL0     C19339   2.007   9.778   2.787 -0.1876 -0.3309 -0.0423
  141MOL0     C19340   2.090   9.869   2.872 -0.1407 -0.1269  0.2420
  141MOL0     C19341   2.075  10.018   2.824 -0.0817 -0.1195  0.7094
  141MOL0     C19342   2.128  10.120   2.931 -0.4851 -0.8300 -0.2461
  141MOL0     C19343   2.282  10.118   2.924  0.2312  0.6391 -0.8911
  141MOL0     O19344   2.336  10.121   2.793 -0.0982 -0.3077 -0.4356
  141MOL0     C19345   2.469  10.099   2.775  0.4146  0.0452  0.2349
  141MOL0     C19346   2.507  10.104   2.640 -0.0998  0.1334 -0.2965
  141MOL0     C19347   2.643  10.079   2.604  0.4229 -0.8357  0.8276
  141MOL0     C19348   2.679  10.067   2.458  0.3237  0.4160 -0.5923
  141MOL0     C19349   2.733  10.039   2.701  0.4914  0.1303 -0.2745
  141MOL0     C19350   2.863   9.982   2.671 -1.5880  1.1899  0.2571
  141MOL0     O19351   2.961  10.004   2.769 -0.5899  0.3802 -0.3567
  141MOL0     C19352   3.087   9.956   2.759  0.4567 -0.2021 -0.7961
  141MOL0     C19353   3.163   9.970   2.643  0.1136 -0.0957  0.5130
  141MOL0     C19354   3.291   9.919   2.651 -0.9529  0.2912  0.0806
  141MOL0     C19355   3.353   9.889   2.769  0.2618  0.5376  0.3082
  141MOL0     O19356   3.485   9.864   2.768 -0.0972  0.8042  0.3005
  141MOL0     C19357   3.570   9.860   2.879  0.2663  0.3156 -0.4335
  141MOL0     C19358   3.720   9.864   2.844  0.1359 -0.5075  0.6567
  141MOL0     C19359   3.820   9.840   2.956  0.3074  0.2517 -1.1659
  141MOL0     C19360   3.796   9.698   3.006  0.0224 -0.0687 -0.0513
  141MOL0     C19361   3.907   9.653   3.096 -0.6958  0.1167 -0.5894
  141MOL0     C19362   4.050   9.655   3.033  0.4686 -0.5800 -0.2867
  141MOL0     C19363   4.146   9.559   3.112  0.0744  0.9391  0.1813
  141MOL0     C19364   4.296   9.577   3.071 -0.0308  0.0454 -0.1013
  141MOL0    Cl19365   4.342   9.758   3.080 -0.0978 -0.6138  0.2600
  141MOL0     C19366   3.273   9.876   2.885 -0.4697 -0.3246 -1.0667
  141MOL0     C19367   3.137   9.919   2.884 -0.1601  0.2291  0.2554
  141MOL0     O19368   2.882   9.900   2.575 -0.4086 -0.9160  0.0246
  141MOL0     C19369   2.688  10.037   2.833  0.3480 -0.7036 -0.0317
  141MOL0     C19370   2.560  10.069   2.877 -0.2670  0.6308 -0.8623
  141MOL0     N19371   1.955   9.820   2.666  0.1821 -0.3629  0.1677
  141MOL0     N19372   1.895   9.721   2.620 -0.7092  0.3448 -0.1403
  141MOL0     C19373   0.966   8.792   2.937 -0.6785  0.5227  0.1666
  141MOL0     C19374   0.849   8.770   2.989  0.3911 -0.0535  0.0676
  141MOL0     C19375   0.501   8.798   3.247  0.0181 -1.1871 -0.8629
  141MOL0     C19376   0.392   8.824   3.159 -0.2793 -0.0125 -0.7955
  141MOL0     C19377   0.255   8.795   3.195  0.7909  0.7809 -0.4262
  141MOL0     C19378   0.225   8.740   3.319  0.4191 -0.6116 -0.1183
  141MOL0     O19379   0.098   8.694   3.328 -0.4191 -0.7335 -0.3160
  141MOL0     C19380   0.074   8.610   3.445  0.1920 -0.5634  0.4354
  141MOL0     C19381  -0.061   8.535   3.445 -0.2324 -1.3079  0.4597
  141MOL0     C19382  -0.179   8.630   3.447 -1.0102 -1.1438 -0.4236
  141MOL0     C19383  -0.308   8.574   3.409  0.5899 -0.0216  0.4524
  141MOL0     C19384  -0.332   8.449   3.481 -0.1782 -0.1447 -0.8255
  141MOL0     C19385  -0.363   8.335   3.525  0.0346 -0.6805 -0.9721
  141MOL0     C19386   0.332   8.726   3.414  0.1487  0.5643 -0.3076
  141MOL0     C19387   0.465   8.752   3.380 -0.4193 -0.3008 -0.0292
  141MOL0     C19388   0.571   8.718   3.482 -0.2917 -0.9262 -0.6657
  141MOL0     H19389   0.707   9.082   2.974  1.0672  0.8753  0.6316
  141MOL0     H19390   0.934   9.116   2.860  2.8965 -1.1359  0.5181
  141MOL0     H19391   1.177   9.112   2.904  3.5508  1.0858 -0.7500
  141MOL0     H19392   1.116   9.113   2.732  2.6332  1.4491 -2.0525
  141MOL0     H19393   1.369   8.987   2.827  0.9612  0.1339  0.0024
  141MOL0     H19394   1.303   8.993   2.659  0.0274  0.0680 -0.5521
  141MOL0     H19395   1.336   9.225   2.633  1.8504  0.0032  0.2215
  141MOL0     H19396   1.374   9.247   2.799 -0.7037  1.1244 -1.2096
  141MOL0     H19397   1.577   9.073   2.772 -2.0507 -0.9127  0.8056
  141MOL0     H19398   1.550   9.081   2.604 -4.7251  0.0322 -0.6379
  141MOL0     H19399   1.577   9.340   2.608  1.4150  2.1942  0.1062
  141MOL0     H19400   1.719   9.238   2.618  0.8116  0.1384  1.9883
  141MOL0     H19401   1.565   9.360   2.849 -3.2786 -1.5098 -4.1146
  141MOL0     H19402   1.724   9.273   2.852  2.1394 -2.3441 -4.0810
  141MOL0     H19403   1.729   9.540   2.870  3.7429 -2.8627  1.8679
  141MOL0     H19404   1.655   9.533   2.709 -0.2153 -0.9547 -0.3603
  141MOL0     H19405   1.924   9.397   2.734  0.8971  0.6198 -0.7712
  141MOL0     H19406   1.841   9.455   2.589 -2.0728  1.2001 -0.9723
  141MOL0     H19407   2.013   9.595   2.904 -0.5475 -0.9142 -0.4589
  141MOL0     H19408   2.194   9.835   2.872  0.6053  1.8835 -1.4794
  141MOL0     H19409   2.052   9.858   2.974 -0.9150 -1.6752 -0.1783
  141MOL0     H19410   2.120  10.041   2.727 -2.6458  4.1875  0.2692
  141MOL0     H19411   1.968  10.042   2.816 -0.4438 -1.6590  0.6717
  141MOL0     H19412   2.089  10.220   2.911  1.9952  0.9688  2.8741
  141MOL0     H19413   2.090  10.096   3.031 -1.0093 -1.8782 -0.6823
  141MOL0     H19414   2.327  10.197   2.985 -1.7355 -0.4655  2.2532
  141MOL0     H19415   2.300  10.019   2.967  2.8178  0.7850 -1.4855
  141MOL0     H19416   2.423  10.129   2.576 -2.8119  3.2980  3.9985
  141MOL0     H19417   2.668   9.961   2.433  0.6236  0.2991 -0.2464
  141MOL0     H19418   2.778  10.111   2.443  0.3602  2.0588  3.3101
  141MOL0     H19419   2.614  10.130   2.397 -0.9225 -0.1918  0.0838
  141MOL0     H19420   3.115   9.993   2.548 -0.5343  0.9500  1.0757
  141MOL0     H19421   3.360   9.929   2.567 -1.9149 -0.5122 -0.8436
  141MOL0     H19422   3.548   9.947   2.942  3.1707  0.9589 -0.1945
  141MOL0     H19423   3.554   9.771   2.941  4.8174 -1.2665 -1.1649
  141MOL0     H19424   3.737   9.794   2.762  0.2312  0.8778 -0.5366
  141MOL0     H19425   3.739   9.965   2.807 -0.6835  1.0936  4.1823
  141MOL0     H19426   3.814   9.908   3.041 -2.3636 -0.4081 -0.7268
  141MOL0     H19427   3.923   9.847   2.919  1.6655  0.2109  2.2627
  141MOL0     H19428   3.779   9.628   2.924 -0.0273  2.7252 -2.5788
  141MOL0     H19429   3.702   9.677   3.057  0.5197 -2.0531  0.1539
  141MOL0     H19430   3.899   9.715   3.186 -0.0263 -0.5644 -0.0465
  141MOL0     H19431   3.882   9.553   3.131  0.4980  0.9378  2.9653
  141MOL0     H19432   4.084   9.759   3.031 -1.3688  0.0586 -3.0947
  141MOL0     H19433   4.043   9.626   2.928 -2.6339 -1.4643  0.0691
  141MOL0     H19434   4.127   9.460   3.069  1.2748  1.5226 -1.8498
  141MOL0     H19435   4.120   9.551   3.218 -2.1802  3.2915 -0.0703
  141MOL0     H19436   4.315   9.542   2.969 -2.4121  3.6724 -2.0206
  141MOL0     H19437   4.363   9.539   3.148 -0.4419  1.5283  1.0338
  141MOL0     H19438   3.315   9.845   2.980  0.8123  6.2786  1.0407
  141MOL0     H19439   3.077   9.926   2.974 -3.0707  0.1431 -1.5547
  141MOL0     H19440   2.760  10.011   2.909  1.2464  0.5726 -0.4024
  141MOL0     H19441   2.531  10.064   2.981  1.2791  0.9230 -0.3886
  141MOL0     H19442   1.040   8.713   2.944 -1.3082 -0.2457 -1.3253
  141MOL0     H19443   0.844   8.669   3.028 -0.6077 -0.2520 -0.5363
  141MOL0     H19444   0.423   8.880   3.071  0.3461 -0.5262 -0.9074
  141MOL0     H19445   0.177   8.809   3.121  2.7738  0.5365 -2.6985
  141MOL0     H19446   0.148   8.530   3.454 -0.7920 -1.5248  0.2175
  141MOL0     H19447   0.088   8.675   3.533 -0.4718 -0.4965  0.4919
  141MOL0     H19448  -0.083   8.463   3.524 -0.0011  0.0196  1.7611
  141MOL0     H19449  -0.071   8.481   3.350  1.3778  1.1361 -1.2132
  141MOL0     H19450  -0.195   8.666   3.549 -2.2120 -2.4050 -0.1405
  141MOL0     H19451  -0.158   8.722   3.391 -2.7970 -0.8390 -0.6483
  141MOL0     H19452  -0.311   8.543   3.304  0.3970 -2.5622  1.1551
  141MOL0     H19453  -0.392   8.639   3.434 -0.1423 -0.8532  0.2112
  141MOL0     H19454  -0.388   8.251   3.586  0.6019  1.3761  2.3412
  141MOL0     H19455   0.311   8.675   3.507  0.2659 -0.3735 -0.7771
  141MOL0     H19456   0.641   8.799   3.503 -1.1795 -0.2456 -0.2619
  141MOL0     H19457   0.525   8.685   3.575  0.7712  1.3774  0.7574
  141MOL0     H19458   0.625   8.630   3.447  0.3621 -0.2013 -1.5526
  142MOL0     O19459   9.327   7.227   1.313  0.0742  0.4473  0.2562
  142MOL0     C19460   9.219   7.262   1.262  0.3520  0.3610 -0.1653
  142MOL0     O19461   9.200   7.387   1.213  0.7632 -0.3531  0.4551
  142MOL0     C19462   9.303   7.482   1.204 -0.7474  0.6288 -0.1815
  142MOL0     C19463   9.406   7.512   1.298 -0.0795  0.1829  0.1743
  142MOL0     C19464   9.483   7.628   1.277  0.2581 -0.1216 -0.4044
  142MOL0     C19465   9.476   7.698   1.152  0.2136 -0.1868  0.2896
  142MOL0     O19466   9.550   7.814   1.138  0.4379 -0.1568 -0.0903
  142MOL0     C19467   9.689   7.805   1.101 -0.4842  0.4122  0.4319
  142MOL0     C19468   9.760   7.905   1.179 -0.7213  0.3601  0.4230
  142MOL0     C19469   9.755   7.878   1.326  0.3910  0.7022  0.5030
  142MOL0     C19470   9.828   7.990   1.411  1.2314 -0.3688 -0.1195
  142MOL0     C19471   9.858   7.943   1.558  0.0774  0.4206 -0.3407
  142MOL0     C19472   9.972   7.841   1.566 -0.4964 -0.0705  0.2501
  142MOL0     C19473   9.979   7.767   1.698  0.5940  0.3618 -0.5725
  142MOL0     C19474   9.888   7.643   1.695 -0.8030  0.0121 -0.4964
  142MOL0     N19475   9.899   7.564   1.816  0.1154  0.6059 -0.6738
  142MOL0     C19476   9.971   7.442   1.827  0.2982 -0.8863 -0.4956
  142MOL0     C19477   9.937   7.394   1.953 -0.3899  0.3634  0.4430
  142MOL0     C19478  10.000   7.270   2.007  1.4387 -0.4370  0.0599
  142MOL0     C19479  10.154   7.273   2.011  0.0598 -0.0128 -0.7230
  142MOL0     C19480  10.205   7.129   2.065  0.6910  0.2732  0.3435
  142MOL0     C19481  10.354   7.130   2.095 -0.2887 -0.2451 -0.5635
  142MOL0     O19482  10.431   7.159   1.981 -0.4099  0.6770 -0.0462
  142MOL0     C19483  10.565   7.175   2.007  0.1982  0.9436  0.3721
  142MOL0     C19484  10.656   7.086   1.953  0.5446 -0.4029  0.2840
  142MOL0     C19485  10.791   7.095   1.978 -0.3942 -0.4380 -0.5512
  142MOL0     C19486  10.890   6.993   1.923  0.4692 -0.3643 -0.5253
  142MOL0     C19487  10.841   7.195   2.063 -0.0487 -1.8869 -0.2851
  142MOL0     C19488  10.979   7.217   2.108  0.5516 -0.1713  0.3299
  142MOL0     O19489  11.077   7.218   2.007  0.1964  0.7531 -0.1686
  142MOL0     C19490  11.199   7.269   2.042 -0.1521  0.6546 -0.2170
  142MOL0     C19491  11.228   7.368   2.138 -0.3173 -0.5721 -0.3964
  142MOL0     C19492  11.359   7.392   2.174  0.0771  0.3113 -0.5314
  142MOL0     C19493  11.466   7.342   2.113  0.9306  0.0190  0.3839
  142MOL0     O19494  11.597   7.363   2.144 -0.4487  0.2534 -0.5352
  142MOL0     C19495  11.636   7.450   2.253  0.1962 -0.4511 -0.3298
  142MOL0     C19496  11.779   7.498   2.238 -0.4305  0.7943  0.2258
  142MOL0     C19497  11.864   7.381   2.290 -0.0938  0.1537  1.0321
  142MOL0     C19498  12.010   7.416   2.266  0.5210 -0.5630 -0.0230
  142MOL0     C19499  12.114   7.311   2.320 -0.6110  0.1558 -0.6047
  142MOL0     C19500  12.265   7.353   2.318  0.0693  0.0819 -0.3174
  142MOL0     C19501  12.350   7.262   2.404  0.1935 -0.8008 -0.1950
  142MOL0     C19502  12.488   7.328   2.424  0.1919 -0.4056 -0.4143
  142MOL0    Cl19503  12.600   7.224   2.520  0.1838 -0.1336 -0.0816
  142MOL0     C19504  11.445   7.254   2.005 -0.9800 -1.0539 -0.1053
  142MOL0     C19505  11.315   7.210   1.978  0.7616 -0.0248 -0.1138
  142MOL0     O19506  10.997   7.233   2.228  0.2641 -0.7229  0.4561
  142MOL0     C19507  10.752   7.295   2.105  0.7126 -0.0246  0.1644
  142MOL0     C19508  10.607   7.284   2.084  0.3470 -0.6692  0.3054
  142MOL0     N19509   9.851   7.490   2.012 -0.6562  0.2485 -0.4592
  142MOL0     N19510   9.822   7.583   1.933  0.2554  0.4538  0.1867
  142MOL0     C19511   9.382   7.663   1.059  0.3948 -0.2734 -0.4406
  142MOL0     C19512   9.297   7.556   1.083 -0.1063  0.3283 -0.1193
  142MOL0     C19513   9.097   7.180   1.275  0.6615  0.1238  0.9185
  142MOL0     C19514   8.978   7.243   1.314  0.0478  0.5221  0.5378
  142MOL0     C19515   8.864   7.162   1.334 -0.7979 -0.7926  0.1029
  142MOL0     C19516   8.862   7.022   1.320 -0.3376  0.3563  0.1698
  142MOL0     O19517   8.756   6.947   1.352  0.1455 -0.2129  0.1322
  142MOL0     C19518   8.628   7.009   1.323  0.3940 -0.4574  0.5884
  142MOL0     C19519   8.528   6.908   1.269  0.5786  0.1117  0.0069
  142MOL0     C19520   8.384   6.945   1.264  0.1093  0.3138 -0.0178
  142MOL0     C19521   8.308   6.835   1.200 -0.6196 -0.2313  0.1761
  142MOL0     C19522   8.164   6.854   1.229 -0.4453  0.6882 -0.7002
  142MOL0     C19523   8.049   6.885   1.259 -0.2121 -0.0215 -0.6421
  142MOL0     C19524   8.984   6.964   1.285  0.5919 -0.1766 -0.1609
  142MOL0     C19525   9.096   7.040   1.250  0.2026  0.0505 -0.1929
  142MOL0     C19526   9.220   6.969   1.198  0.5757  0.1128 -0.0535
  142MOL0     H19527   9.419   7.450   1.386  1.5551  1.2260  0.7321
  142MOL0     H19528   9.553   7.657   1.355 -1.8566  0.6813  1.3374
  142MOL0     H19529   9.697   7.823   0.994  2.6346 -3.4811 -0.1975
  142MOL0     H19530   9.726   7.703   1.115 -0.4601  0.0783 -1.7811
  142MOL0     H19531   9.865   7.922   1.155 -0.6347 -1.7328 -1.0165
  142MOL0     H19532   9.713   8.001   1.154 -4.1083 -0.4045  3.0878
  142MOL0     H19533   9.653   7.884   1.366 -0.1367  1.8668 -0.9514
  142MOL0     H19534   9.800   7.779   1.333 -1.2382  0.0164  2.1461
  142MOL0     H19535   9.918   8.029   1.362 -1.2241  3.6052 -1.9018
  142MOL0     H19536   9.769   8.081   1.418  2.1925  0.4718 -2.2005
  142MOL0     H19537   9.768   7.886   1.583 -0.9841  2.6171  1.1828
  142MOL0     H19538   9.881   8.020   1.633 -0.0516 -2.3736  2.8128
  142MOL0     H19539   9.962   7.770   1.483  0.4205  1.5738 -1.3369
  142MOL0     H19540  10.064   7.897   1.551 -0.4442 -0.2657 -0.1455
  142MOL0     H19541   9.948   7.828   1.783 -2.7960 -1.2831 -0.4656
  142MOL0     H19542  10.084   7.738   1.710  1.3163  2.5214 -1.1932
  142MOL0     H19543   9.789   7.688   1.688 -0.7059  0.0296 -2.3729
  142MOL0     H19544   9.900   7.578   1.607 -2.9161  0.6484 -1.3148
  142MOL0     H19545  10.035   7.402   1.748  0.1389 -1.1990 -0.4664
  142MOL0     H19546   9.960   7.185   1.950  1.2273 -0.6831  0.5672
  142MOL0     H19547   9.958   7.256   2.107  1.6988 -1.2415  0.0678
  142MOL0     H19548  10.181   7.290   1.907  1.7917  0.3999 -0.2307
  142MOL0     H19549  10.190   7.355   2.074  1.4436 -0.4251 -0.9336
  142MOL0     H19550  10.155   7.115   2.162  0.2339  0.5212  0.1453
  142MOL0     H19551  10.172   7.047   2.000 -2.0168 -0.1885  2.1444
  142MOL0     H19552  10.363   7.213   2.165 -0.4701 -1.0832  0.4728
  142MOL0     H19553  10.380   7.037   2.146  1.7342  2.0534  3.0265
  142MOL0     H19554  10.608   7.020   1.881  1.0216  1.6514 -2.0557
  142MOL0     H19555  10.929   6.929   2.002  1.0820  1.3060  0.5753
  142MOL0     H19556  10.969   7.054   1.878 -1.1559  2.1236 -0.1924
  142MOL0     H19557  10.837   6.936   1.846  1.9309 -3.0848  0.3577
  142MOL0     H19558  11.149   7.411   2.200 -1.5327 -0.2145 -2.1323
  142MOL0     H19559  11.377   7.464   2.253  1.7063 -1.8668  1.2374
  142MOL0     H19560  11.581   7.545   2.253 -0.3068 -0.7410 -0.0299
  142MOL0     H19561  11.606   7.402   2.346  0.0198 -0.6688 -0.4965
  142MOL0     H19562  11.797   7.513   2.131 -1.3161  0.1598 -0.0179
  142MOL0     H19563  11.795   7.590   2.296 -0.4918  0.3232  1.0103
  142MOL0     H19564  11.833   7.291   2.236 -2.4697  1.2305  0.4600
  142MOL0     H19565  11.844   7.372   2.398  0.2985 -1.7161  0.9797
  142MOL0     H19566  12.022   7.511   2.319  1.0568 -0.4010 -0.4306
  142MOL0     H19567  12.030   7.438   2.161 -1.0339  2.0508  0.1363
  142MOL0     H19568  12.098   7.304   2.428  1.3773 -0.2662 -0.3037
  142MOL0     H19569  12.102   7.215   2.269 -1.9363  1.2739 -2.5837
  142MOL0     H19570  12.281   7.461   2.328 -0.1220  0.0482  0.4087
  142MOL0     H19571  12.301   7.329   2.217 -1.7098 -0.2123 -0.9227
  142MOL0     H19572  12.360   7.166   2.352  0.6264 -1.0033  0.2444
  142MOL0     H19573  12.315   7.225   2.501  1.2615 -2.2723 -0.3227
  142MOL0     H19574  12.482   7.428   2.467 -1.0395 -1.2532  1.5714
  142MOL0     H19575  12.528   7.339   2.323 -0.2403 -0.0211 -0.5452
  142MOL0     H19576  11.529   7.206   1.957  1.1349  0.5332  1.8268
  142MOL0     H19577  11.289   7.133   1.906 -1.1830 -0.2743  0.7909
  142MOL0     H19578  10.789   7.387   2.149 -0.8817  0.3100  0.8724
  142MOL0     H19579  10.537   7.359   2.120  0.6493 -0.1096 -0.2524
  142MOL0     H19580   9.379   7.719   0.967  0.5510  2.2354  0.9852
  142MOL0     H19581   9.226   7.524   1.007  1.8119 -0.3939 -1.7027
  142MOL0     H19582   8.970   7.351   1.322 -1.0027  0.3449  2.6422
  142MOL0     H19583   8.775   7.216   1.365 -0.7118 -0.2177 -0.6183
  142MOL0     H19584   8.598   7.055   1.417 -2.1310  1.5905 -1.1171
  142MOL0     H19585   8.639   7.092   1.252  2.8786 -1.3318 -0.1925
  142MOL0     H19586   8.530   6.818   1.331 -4.0609 -1.4652 -1.6559
  142MOL0     H19587   8.567   6.892   1.168  4.2262  4.2204  0.4490
  142MOL0     H19588   8.349   6.942   1.368  1.4444 -3.0311  0.4544
  142MOL0     H19589   8.364   7.043   1.220 -1.6861 -0.2567 -0.5374
  142MOL0     H19590   8.322   6.735   1.241  0.5968 -0.3075 -0.3748
  142MOL0     H19591   8.325   6.826   1.092  0.0634 -0.3302  0.2867
  142MOL0     H19592   7.944   6.899   1.270 -0.2101 -0.7200  0.3691
  142MOL0     H19593   8.984   6.859   1.260 -1.8310  0.1576 -1.9494
  142MOL0     H19594   9.210   6.880   1.136  0.0724  0.0413  0.1216
  142MOL0     H19595   9.281   7.033   1.134 -1.7803  1.1158 -1.4221
  142MOL0     H19596   9.284   6.940   1.282  1.8146  1.4341 -0.4973
  143MOL0     O19597   6.804   0.843   8.677  0.2576  0.1863  0.3063
  143MOL0     C19598   6.718   0.766   8.726 -0.1829 -0.3634 -0.2706
  143MOL0     O19599   6.746   0.630   8.755  0.4963 -0.1271 -0.1344
  143MOL0     C19600   6.867   0.592   8.707  0.0670  0.3196 -0.6483
  143MOL0     C19601   6.894   0.582   8.565  0.3483 -0.6267  0.6624
  143MOL0     C19602   7.014   0.537   8.519  0.0890 -0.4018 -0.3435
  143MOL0     C19603   7.115   0.505   8.610  0.8803  0.3602 -0.7362
  143MOL0     O19604   7.232   0.450   8.568 -0.5918  0.0145 -0.0329
  143MOL0     C19605   7.253   0.401   8.438  0.4953 -0.9252  0.6255
  143MOL0     C19606   7.385   0.314   8.426 -0.0538 -0.1214  0.7100
  143MOL0     C19607   7.428   0.281   8.282  0.2791  0.0998  1.5373
  143MOL0     C19608   7.566   0.203   8.271  0.2857 -0.4537 -0.0445
  143MOL0     C19609   7.679   0.293   8.224  0.1789 -0.3557  0.5979
  143MOL0     C19610   7.719   0.390   8.336 -0.4331 -0.0123 -0.1839
  143MOL0     C19611   7.846   0.465   8.307 -0.7156  0.6181 -0.6573
  143MOL0     C19612   7.969   0.370   8.323 -0.6903  0.5243  0.4340
  143MOL0     N19613   8.087   0.448   8.322  0.3260 -0.2080  0.2241
  143MOL0     C19614   8.159   0.484   8.428 -0.4530 -0.0810 -0.2138
  143MOL0     C19615   8.285   0.498   8.376  0.7962  0.2210  0.2186
  143MOL0     C19616   8.418   0.497   8.452  0.0671 -0.4037 -0.4107
  143MOL0     C19617   8.489   0.632   8.423  0.1251 -0.1699 -1.2093
  143MOL0     C19618   8.630   0.622   8.487 -0.0602  0.1958  0.2188
  143MOL0     C19619   8.702   0.755   8.461  0.3702 -0.3951 -0.2194
  143MOL0     O19620   8.833   0.764   8.506 -0.6458 -0.3573 -0.3174
  143MOL0     C19621   8.942   0.712   8.428 -0.1343 -0.5767 -0.3007
  143MOL0     C19622   9.072   0.726   8.471 -0.2351 -0.3119  0.2634
  143MOL0     C19623   9.184   0.664   8.409  1.0792 -1.5282 -0.7787
  143MOL0     C19624   9.317   0.702   8.459 -0.8609  0.3138 -0.5863
  143MOL0     C19625   9.155   0.595   8.286  0.3925  0.3060  0.6607
  143MOL0     C19626   9.266   0.539   8.201  0.0489  0.6224 -0.1607
  143MOL0     O19627   9.239   0.449   8.107 -0.0830  0.6784  0.0992
  143MOL0     C19628   9.351   0.389   8.051 -0.2305 -0.5609  0.1511
  143MOL0     C19629   9.356   0.406   7.910 -0.2885 -0.1853  1.1189
  143MOL0     C19630   9.471   0.361   7.842  0.0618 -0.8128 -0.2448
  143MOL0     C19631   9.575   0.300   7.906 -0.1939 -0.2460 -0.7411
  143MOL0     O19632   9.687   0.265   7.835 -0.2296 -0.1676  1.4820
  143MOL0     C19633   9.760   0.144   7.870 -0.4820  0.0929 -1.0592
  143MOL0     C19634   9.887   0.122   7.780 -0.1700  0.1480  1.0477
  143MOL0     C19635   9.964  -0.007   7.815  0.8116  0.3247 -0.0453
  143MOL0     C19636  10.085  -0.038   7.719 -0.1932 -1.0944 -0.4753
  143MOL0     C19637  10.165  -0.155   7.785  0.7553  0.2551  0.5037
  143MOL0     C19638  10.296  -0.184   7.716  0.2817 -0.3569  0.2206
  143MOL0     C19639  10.380  -0.278   7.794 -0.5179  0.4140  0.4542
  143MOL0     C19640  10.511  -0.288   7.715  0.1043  0.6303 -0.7497
  143MOL0    Cl19641  10.633  -0.391   7.801 -0.5427 -0.2159  0.3573
  143MOL0     C19642   9.573   0.294   8.048 -0.4954  0.0544  0.6627
  143MOL0     C19643   9.456   0.330   8.123 -0.7667  0.7036  0.3446
  143MOL0     O19644   9.368   0.606   8.203  0.1484 -0.1790 -0.6212
  143MOL0     C19645   9.023   0.585   8.237  0.1913  0.3130 -0.5867
  143MOL0     C19646   8.919   0.648   8.305  0.2155  0.4186  0.1790
  143MOL0     N19647   8.264   0.486   8.242 -0.0004 -0.3221  0.1745
  143MOL0     N19648   8.151   0.460   8.210  0.1364  0.5592  0.5977
  143MOL0     C19649   7.094   0.511   8.753  0.2253  0.6616  0.4755
  143MOL0     C19650   6.971   0.559   8.798 -0.1797  0.2334 -0.0046
  143MOL0     C19651   6.601   0.821   8.802 -1.1795 -0.1973 -0.0343
  143MOL0     C19652   6.546   0.746   8.908 -1.2182 -0.2634 -0.4486
  143MOL0     C19653   6.431   0.788   8.977 -0.8270 -0.1627  0.4636
  143MOL0     C19654   6.375   0.910   8.955  1.4112  0.5519  0.2169
  143MOL0     O19655   6.265   0.935   9.037 -0.4613  0.5264 -0.7993
  143MOL0     C19656   6.209   1.067   9.031  0.7432 -1.1079  0.3098
  143MOL0     C19657   6.089   1.080   9.131 -0.9344  0.2150 -0.9665
  143MOL0     C19658   5.995   0.958   9.131 -0.8480  0.1009 -0.0939
  143MOL0     C19659   5.871   0.970   9.224 -0.2154 -0.0860 -0.3645
  143MOL0     C19660   5.785   0.856   9.200 -0.0494  0.8832  0.6621
  143MOL0     C19661   5.707   0.769   9.175  0.5274  0.2910 -0.9431
  143MOL0     C19662   6.418   0.976   8.839 -0.6438 -1.0294  0.2882
  143MOL0     C19663   6.535   0.943   8.769 -0.4918  0.7406  0.6135
  143MOL0     C19664   6.578   1.045   8.661 -0.1039 -0.2154  0.1084
  143MOL0     H19665   6.818   0.593   8.489  0.3642 -1.4964  0.5177
  143MOL0     H19666   7.033   0.519   8.413  3.3644 -2.9716  0.5309
  143MOL0     H19667   7.272   0.491   8.380 -0.3286 -0.9946  0.2325
  143MOL0     H19668   7.163   0.355   8.395  0.2098  1.5096 -1.6141
  143MOL0     H19669   7.464   0.377   8.467  2.0696 -1.8320 -0.5203
  143MOL0     H19670   7.382   0.229   8.494  0.9740  0.6805  1.8030
  143MOL0     H19671   7.361   0.204   8.243 -1.4915  1.7643  1.1346
  143MOL0     H19672   7.430   0.371   8.220 -0.8888 -1.2017 -0.5391
  143MOL0     H19673   7.590   0.163   8.370 -0.3621 -2.3721 -0.6309
  143MOL0     H19674   7.552   0.122   8.200 -0.2096 -2.0511  1.7922
  143MOL0     H19675   7.637   0.347   8.139 -0.6656 -1.3073  0.3902
  143MOL0     H19676   7.762   0.236   8.183 -0.0225 -1.0136  1.0883
  143MOL0     H19677   7.644   0.470   8.345  0.8996  1.3732 -1.0015
  143MOL0     H19678   7.722   0.347   8.437  0.6521 -1.8428 -0.9637
  143MOL0     H19679   7.853   0.556   8.369 -0.9201  0.0507  0.2168
  143MOL0     H19680   7.849   0.500   8.203  0.3193 -0.1138 -0.8850
  143MOL0     H19681   7.955   0.321   8.420 -1.9294 -1.8146 -0.8469
  143MOL0     H19682   7.973   0.294   8.245 -0.2379  1.2362 -0.2503
  143MOL0     H19683   8.136   0.471   8.533  1.5741  0.9873  0.4250
  143MOL0     H19684   8.478   0.416   8.411 -0.1970  0.1175 -1.8676
  143MOL0     H19685   8.411   0.476   8.559 -0.3505  4.1618  0.6672
  143MOL0     H19686   8.490   0.663   8.319  0.4352  1.4317 -0.7538
  143MOL0     H19687   8.439   0.710   8.481  1.5565  0.6450 -1.0317
  143MOL0     H19688   8.628   0.603   8.595 -1.5937  0.1500  0.2062
  143MOL0     H19689   8.689   0.540   8.447  1.2350  1.1136  0.1750
  143MOL0     H19690   8.697   0.777   8.354 -2.5177  0.2589 -0.0295
  143MOL0     H19691   8.646   0.828   8.519  1.1054 -0.5070  0.6525
  143MOL0     H19692   9.097   0.778   8.563  0.3330  1.2480 -0.7214
  143MOL0     H19693   9.363   0.767   8.384 -2.2530  0.1264 -1.6340
  143MOL0     H19694   9.373   0.608   8.474 -1.7045 -0.0202  0.5603
  143MOL0     H19695   9.314   0.754   8.555  1.8474  0.6245 -0.5840
  143MOL0     H19696   9.274   0.450   7.853 -1.4423  0.6895  3.3300
  143MOL0     H19697   9.478   0.369   7.734  2.5366  0.0444 -0.0755
  143MOL0     H19698   9.798   0.150   7.972 -0.0521  0.2888 -1.2273
  143MOL0     H19699   9.693   0.057   7.867  0.6992 -0.8643 -0.5251
  143MOL0     H19700   9.842   0.117   7.680 -0.4459 -0.6678  1.2089
  143MOL0     H19701   9.954   0.208   7.783 -0.7234  0.6051  0.5707
  143MOL0     H19702   9.889  -0.087   7.818  0.2643  0.8343  0.1556
  143MOL0     H19703   9.994   0.008   7.919 -2.5328  2.2056  0.8005
  143MOL0     H19704  10.151   0.048   7.712  0.2389 -1.2687  1.0865
  143MOL0     H19705  10.049  -0.066   7.619 -0.5460  2.3931 -1.4415
  143MOL0     H19706  10.175  -0.127   7.891 -3.1634  0.5194  0.9769
  143MOL0     H19707  10.102  -0.244   7.776  1.9834 -0.5706 -0.1960
  143MOL0     H19708  10.342  -0.085   7.702  0.5837 -0.0983  2.7172
  143MOL0     H19709  10.268  -0.234   7.623  0.9114 -1.9976  0.8783
  143MOL0     H19710  10.332  -0.376   7.801  2.1455 -0.9047  1.6524
  143MOL0     H19711  10.385  -0.246   7.898  1.5404 -0.1848  0.5857
  143MOL0     H19712  10.556  -0.190   7.698  0.8458  0.9483  2.4389
  143MOL0     H19713  10.476  -0.329   7.620  1.6636  0.2421 -1.1883
  143MOL0     H19714   9.650   0.258   8.116 -2.3554 -1.0409  2.3017
  143MOL0     H19715   9.458   0.324   8.231 -0.3892 -2.1903  0.2505
  143MOL0     H19716   9.006   0.532   8.144  1.8930  0.9752 -1.3226
  143MOL0     H19717   8.817   0.637   8.270  1.1662 -0.3928 -2.5559
  143MOL0     H19718   7.174   0.481   8.820  0.5161 -3.5306 -1.4177
  143MOL0     H19719   6.957   0.559   8.905 -1.5221 -1.0597 -0.1503
  143MOL0     H19720   6.600   0.654   8.929  0.2478  0.8381  0.8323
  143MOL0     H19721   6.395   0.739   9.066  1.4784 -2.3677  0.3100
  143MOL0     H19722   6.279   1.143   9.065  2.7965 -1.8982 -1.8186
  143MOL0     H19723   6.171   1.095   8.932 -2.7736 -0.4880  1.6988
  143MOL0     H19724   6.034   1.175   9.122 -3.8297 -1.3966 -1.3408
  143MOL0     H19725   6.133   1.075   9.231  0.0266 -0.6511 -1.4086
  143MOL0     H19726   5.956   0.933   9.032 -0.9654 -2.6440  0.5550
  143MOL0     H19727   6.053   0.872   9.166  0.3379  1.6986  2.1408
  143MOL0     H19728   5.810   1.060   9.214  0.2528  0.3895  0.8534
  143MOL0     H19729   5.894   0.960   9.330 -0.3330  0.8540 -0.2450
  143MOL0     H19730   5.644   0.693   9.133  1.7555 -1.5978  0.4758
  143MOL0     H19731   6.383   1.078   8.823  0.8338 -0.5001  0.2985
  143MOL0     H19732   6.515   1.131   8.683 -0.6893 -0.2855 -1.1612
  143MOL0     H19733   6.685   1.062   8.666 -0.0847 -0.6082  1.4599
  143MOL0     H19734   6.560   0.997   8.564  1.6437  0.0515 -0.3733
  144MOL0     O19735   9.236   2.433   0.831  0.0101  0.2281  0.3305
  144MOL0     C19736   9.201   2.499   0.928  0.7596 -0.1801  0.6824
  144MOL0     O19737   9.275   2.529   1.032 -0.1534 -0.8823  0.0921
  144MOL0     C19738   9.409   2.506   1.028 -0.3358 -0.9576 -0.6562
  144MOL0     C19739   9.492   2.615   1.018 -0.1646 -0.2966  0.2979
  144MOL0     C19740   9.627   2.597   1.013  0.2546  0.1442 -0.0937
  144MOL0     C19741   9.681   2.470   1.023  0.2780  0.1194  0.7996
  144MOL0     O19742   9.816   2.465   1.029 -0.2463  0.2341  1.2247
  144MOL0     C19743   9.873   2.497   1.152 -0.5521 -0.2782  0.6045
  144MOL0     C19744  10.029   2.478   1.151 -0.2060  0.3572  0.0424
  144MOL0     C19745  10.105   2.548   1.038 -0.5867  0.0109  0.1821
  144MOL0     C19746  10.253   2.521   1.027  1.1655 -0.5520 -0.4278
  144MOL0     C19747  10.320   2.597   0.913  0.0150 -0.0369 -0.6631
  144MOL0     C19748  10.460   2.533   0.882  0.1885 -0.0787 -0.0234
  144MOL0     C19749  10.539   2.641   0.814  0.1698  0.3884  0.3383
  144MOL0     C19750  10.688   2.601   0.805  0.1123 -0.1665  0.4056
  144MOL0     N19751  10.779   2.699   0.756  1.0107  0.4811 -0.3291
  144MOL0     C19752  10.852   2.777   0.834  0.4195  0.4359 -0.1867
  144MOL0     C19753  10.944   2.837   0.755  0.0776 -0.1051  0.7137
  144MOL0     C19754  11.026   2.955   0.781 -0.0040 -0.4222 -0.2476
  144MOL0     C19755  11.148   2.915   0.866  0.3035 -0.6595  0.6983
  144MOL0     C19756  11.235   3.045   0.894  0.1920  1.1941  0.6149
  144MOL0     C19757  11.349   3.023   0.990 -0.4320  0.3349  0.0322
  144MOL0     O19758  11.425   2.910   0.948 -0.0794  0.1075 -0.8009
  144MOL0     C19759  11.532   2.866   1.025 -0.1641  0.0820 -0.2642
  144MOL0     C19760  11.617   2.770   0.971 -0.0748 -0.5756 -0.2487
  144MOL0     C19761  11.733   2.720   1.033  0.7658 -0.0307 -0.1963
  144MOL0     C19762  11.820   2.618   0.962 -0.1260  0.1358  0.0634
  144MOL0     C19763  11.768   2.772   1.159  0.4148 -0.7616 -0.0577
  144MOL0     C19764  11.891   2.720   1.231  0.3127  0.3841 -0.0731
  144MOL0     O19765  11.965   2.816   1.287  0.1059 -0.1829  0.5206
  144MOL0     C19766  12.075   2.769   1.343 -0.4673 -0.5269  0.4066
  144MOL0     C19767  12.180   2.722   1.258  0.2069 -0.7115  0.0863
  144MOL0     C19768  12.305   2.702   1.313 -0.8152 -0.4774  0.2116
  144MOL0     C19769  12.343   2.747   1.444  0.3667  1.0744  0.9332
  144MOL0     O19770  12.468   2.735   1.499 -0.1763  0.8185 -0.5802
  144MOL0     C19771  12.583   2.727   1.413  1.0742  0.0687 -0.2724
  144MOL0     C19772  12.701   2.772   1.497 -0.3524  0.1436 -0.2959
  144MOL0     C19773  12.835   2.809   1.434  0.4621 -0.0871 -0.0794
  144MOL0     C19774  12.921   2.906   1.518  0.9285  0.1921  0.3454
  144MOL0     C19775  13.025   2.966   1.432 -1.4047  0.5798 -0.1547
  144MOL0     C19776  13.092   3.076   1.508  0.4811 -0.5380  0.6422
  144MOL0     C19777  13.205   3.142   1.428 -0.2065 -0.6664  0.3911
  144MOL0     C19778  13.331   3.059   1.408  0.3277 -0.1308  0.2548
  144MOL0    Cl19779  13.472   3.172   1.361 -0.1579 -0.0425  0.4785
  144MOL0     C19780  12.239   2.784   1.523 -0.9063  0.4606  0.1893
  144MOL0     C19781  12.108   2.794   1.478  0.2383 -0.4831 -0.5760
  144MOL0     O19782  11.906   2.602   1.250  0.4928 -0.6540  0.2109
  144MOL0     C19783  11.685   2.868   1.223 -0.0711  0.1575  0.4312
  144MOL0     C19784  11.572   2.915   1.153  0.7104 -0.1424  0.3744
  144MOL0     N19785  10.930   2.793   0.627 -0.2025  0.8549 -0.1080
  144MOL0     N19786  10.826   2.716   0.625  0.4302  1.1207  0.0331
  144MOL0     C19787   9.598   2.360   1.049  0.7774 -0.6573  0.1294
  144MOL0     C19788   9.461   2.381   1.048 -0.7762  0.5933  0.1897
  144MOL0     C19789   9.053   2.544   0.924 -0.0703  0.3305  0.0848
  144MOL0     C19790   9.004   2.625   1.034  0.5373 -0.6023  0.3024
  144MOL0     C19791   8.870   2.663   1.026 -0.7056  0.1067  0.0965
  144MOL0     C19792   8.791   2.648   0.916 -0.3097 -0.0595 -0.0696
  144MOL0     O19793   8.667   2.702   0.933  0.0365  0.2079 -0.8307
  144MOL0     C19794   8.583   2.698   0.814 -0.7595 -0.8120  0.2466
  144MOL0     C19795   8.513   2.565   0.810  0.5908 -0.3270 -0.0992
  144MOL0     C19796   8.400   2.563   0.917 -0.4812 -0.2758 -0.5312
  144MOL0     C19797   8.312   2.436   0.882 -1.0771  0.2474 -0.9934
  144MOL0     C19798   8.324   2.321   0.967  0.7441  0.2336 -0.5164
  144MOL0     C19799   8.349   2.214   1.029  0.3537  0.6187 -0.5123
  144MOL0     C19800   8.835   2.569   0.813 -0.0688 -0.0666  0.4317
  144MOL0     C19801   8.965   2.517   0.819  0.3961  0.6727 -0.4111
  144MOL0     C19802   8.999   2.432   0.700 -0.2717  0.5420 -0.1189
  144MOL0     H19803   9.457   2.717   1.027  1.1670  0.5443 -2.9559
  144MOL0     H19804   9.695   2.681   1.015 -0.4649  0.7295  1.6458
  144MOL0     H19805   9.839   2.433   1.233  2.6930 -1.3425  1.2755
  144MOL0     H19806   9.841   2.599   1.171  0.0308 -0.6036  3.8266
  144MOL0     H19807  10.067   2.521   1.244 -0.2242 -0.7392  0.5772
  144MOL0     H19808  10.046   2.370   1.154 -0.6152  0.3066  0.6753
  144MOL0     H19809  10.061   2.508   0.946 -2.0099  1.8767  0.0127
  144MOL0     H19810  10.079   2.654   1.040 -0.7815 -0.0199 -0.5410
  144MOL0     H19811  10.309   2.546   1.118  1.4961 -0.9830 -0.5105
  144MOL0     H19812  10.260   2.414   1.004  0.1658 -0.9458  0.9740
  144MOL0     H19813  10.320   2.704   0.938 -1.4822 -0.4379  1.2954
  144MOL0     H19814  10.262   2.583   0.821 -1.9229  0.8100  0.3557
  144MOL0     H19815  10.511   2.489   0.969 -3.3236 -1.0840  1.6944
  144MOL0     H19816  10.448   2.443   0.822 -1.6498 -2.3361  3.3885
  144MOL0     H19817  10.527   2.736   0.866 -1.6523  0.0397  0.6486
  144MOL0     H19818  10.492   2.660   0.717  1.8282  2.3769 -0.1390
  144MOL0     H19819  10.720   2.565   0.903  0.7364 -2.1565 -0.4680
  144MOL0     H19820  10.698   2.509   0.747  2.9393  0.9522 -1.0571
  144MOL0     H19821  10.836   2.797   0.939 -1.1802  2.2330 -0.7181
  144MOL0     H19822  10.973   3.028   0.843  4.0741  0.8504  2.0744
  144MOL0     H19823  11.058   3.001   0.687  0.2173  0.5616  0.2971
  144MOL0     H19824  11.115   2.866   0.958  0.8034 -0.8063  0.8001
  144MOL0     H19825  11.204   2.846   0.802  1.4442 -0.2870  1.2624
  144MOL0     H19826  11.270   3.078   0.796  0.6902 -1.8442 -0.3276
  144MOL0     H19827  11.173   3.124   0.938 -0.1375  1.0305  0.4523
  144MOL0     H19828  11.420   3.107   0.997  1.7936 -1.2511 -1.7697
  144MOL0     H19829  11.305   3.010   1.089 -1.1367 -3.0963 -0.6063
  144MOL0     H19830  11.599   2.728   0.872 -1.4082  0.8692 -0.6743
  144MOL0     H19831  11.925   2.648   0.971 -0.6873  2.2692 -0.0043
  144MOL0     H19832  11.804   2.618   0.853 -0.9091  3.8337  0.0551
  144MOL0     H19833  11.807   2.519   1.005  1.5054 -0.4232 -0.6429
  144MOL0     H19834  12.160   2.701   1.153 -1.0929  3.4584 -0.7115
  144MOL0     H19835  12.383   2.657   1.253 -1.5690  1.6730 -2.6203
  144MOL0     H19836  12.582   2.626   1.370 -1.0473  0.2098 -0.6128
  144MOL0     H19837  12.568   2.796   1.330 -0.6481  1.7813  1.3742
  144MOL0     H19838  12.660   2.861   1.545 -2.2810 -0.9990  0.2585
  144MOL0     H19839  12.726   2.690   1.564  0.5596 -1.0341 -1.9943
  144MOL0     H19840  12.813   2.866   1.344  0.5498 -1.3412 -0.9189
  144MOL0     H19841  12.901   2.724   1.416 -0.2819 -1.2547  2.3107
  144MOL0     H19842  12.968   2.854   1.603 -1.6784 -1.5913  0.8246
  144MOL0     H19843  12.850   2.978   1.561 -1.8452 -1.7725 -0.6786
  144MOL0     H19844  13.099   2.892   1.398 -1.6460 -0.5631  1.6898
  144MOL0     H19845  12.985   3.005   1.338 -2.5936  0.7753  0.4166
  144MOL0     H19846  13.138   3.045   1.603  2.8134 -4.5570 -1.5262
  144MOL0     H19847  13.014   3.150   1.527 -3.4278 -3.2024 -3.1267
  144MOL0     H19848  13.234   3.223   1.495 -3.1370  0.3705  0.5415
  144MOL0     H19849  13.179   3.190   1.333  0.8726 -2.2763 -0.7867
  144MOL0     H19850  13.316   2.987   1.328 -0.1695 -0.3597  0.5489
  144MOL0     H19851  13.355   3.007   1.501  1.6983  1.0373  0.5865
  144MOL0     H19852  12.272   2.808   1.624  0.9617 -2.8792  0.5236
  144MOL0     H19853  12.029   2.829   1.543  0.2942 -0.6660 -0.4087
  144MOL0     H19854  11.706   2.913   1.319 -0.0537 -0.5703  0.7756
  144MOL0     H19855  11.525   3.000   1.201  0.1459 -1.1608  1.7030
  144MOL0     H19856   9.638   2.260   1.061  0.8834 -0.7456 -0.8506
  144MOL0     H19857   9.390   2.299   1.056  0.7051 -0.7741 -0.1912
  144MOL0     H19858   9.076   2.650   1.111  0.9418  0.2796 -0.3410
  144MOL0     H19859   8.834   2.712   1.116 -0.6847 -0.8487  0.6356
  144MOL0     H19860   8.510   2.780   0.809  2.8720  2.6522 -2.8767
  144MOL0     H19861   8.646   2.708   0.725 -0.8039  0.2458  0.3191
  144MOL0     H19862   8.580   2.479   0.819  0.0853 -1.0705 -2.6312
  144MOL0     H19863   8.471   2.550   0.710 -0.9805 -1.1077  0.6306
  144MOL0     H19864   8.444   2.564   1.017 -1.1862  0.2343 -0.2133
  144MOL0     H19865   8.333   2.649   0.908  1.1335  1.0921  0.0751
  144MOL0     H19866   8.335   2.392   0.784 -0.5667 -4.2310  0.8974
  144MOL0     H19867   8.212   2.478   0.887 -1.0104  0.2441  0.6825
  144MOL0     H19868   8.379   2.140   1.100 -0.1320 -0.5935 -1.5261
  144MOL0     H19869   8.761   2.542   0.738 -1.0611 -0.9931  1.6784
  144MOL0     H19870   9.045   2.340   0.737 -1.3576  0.2206  0.4612
  144MOL0     H19871   8.913   2.394   0.645 -1.8101  0.1683  2.4002
  144MOL0     H19872   9.070   2.471   0.626 -0.2614  0.3219 -0.2237
  145MOL0     O19873   4.850   7.358   6.798 -0.8928  0.2087  0.2192
  145MOL0     C19874   4.773   7.429   6.865 -0.5374 -0.3095  0.2647
  145MOL0     O19875   4.814   7.535   6.946 -0.2728 -0.6179 -0.5985
  145MOL0     C19876   4.950   7.553   6.955 -0.7084 -0.1464  0.2455
  145MOL0     C19877   5.019   7.649   6.879  0.2000  1.0466 -0.2578
  145MOL0     C19878   5.158   7.662   6.877  0.5393  0.2984  0.8472
  145MOL0     C19879   5.232   7.587   6.963 -0.4140 -0.0393  0.2697
  145MOL0     O19880   5.372   7.602   6.954  0.7369 -0.3555 -0.0279
  145MOL0     C19881   5.443   7.498   7.026  0.1760  0.2310 -0.1824
  145MOL0     C19882   5.588   7.539   7.013  0.7231 -0.1989 -0.7074
  145MOL0     C19883   5.623   7.644   7.116  0.5034 -0.2128 -0.4073
  145MOL0     C19884   5.774   7.673   7.125  0.0408  0.8989  0.7875
  145MOL0     C19885   5.806   7.802   7.201 -0.5348  0.1977 -0.6327
  145MOL0     C19886   5.946   7.848   7.182  0.0435  0.3100  0.1007
  145MOL0     C19887   5.967   7.993   7.219 -0.2504  0.3200  0.4419
  145MOL0     C19888   5.947   8.019   7.373 -0.2559 -0.7866  0.1894
  145MOL0     N19889   5.994   8.161   7.405  0.2689  0.8005 -0.1691
  145MOL0     C19890   5.921   8.277   7.391  0.0947 -0.8687 -0.5029
  145MOL0     C19891   5.992   8.365   7.469  0.0788 -0.1861 -0.1171
  145MOL0     C19892   5.978   8.518   7.481 -0.9600 -0.0718  0.4722
  145MOL0     C19893   5.888   8.583   7.364 -0.4407  0.0657  0.5688
  145MOL0     C19894   5.961   8.584   7.225  0.4208 -0.8188  0.6301
  145MOL0     C19895   6.106   8.630   7.223 -0.0997  0.7281 -0.6290
  145MOL0     O19896   6.132   8.768   7.276 -0.4813 -0.4013  0.0070
  145MOL0     C19897   6.250   8.827   7.246 -0.1841 -1.1870 -0.2736
  145MOL0     C19898   6.282   8.947   7.308 -0.8610  0.4891 -0.4548
  145MOL0     C19899   6.388   9.029   7.282 -0.5402 -0.5066  0.4261
  145MOL0     C19900   6.381   9.161   7.345 -0.3220 -0.2053  0.0688
  145MOL0     C19901   6.486   8.981   7.192 -0.0580  0.0688 -0.3394
  145MOL0     C19902   6.613   9.053   7.154  0.1429  0.1555 -0.2139
  145MOL0     O19903   6.679   9.008   7.046  0.3287 -0.1233  0.0901
  145MOL0     C19904   6.801   9.056   6.999  0.1488  0.3289  0.0676
  145MOL0     C19905   6.832   9.194   7.001  0.7359 -0.2322 -0.4003
  145MOL0     C19906   6.960   9.232   6.956 -0.0548 -0.3695 -0.4336
  145MOL0     C19907   7.039   9.148   6.883  0.0519  0.2023  0.3992
  145MOL0     O19908   7.165   9.178   6.840  0.1863 -0.2541  0.3453
  145MOL0     C19909   7.213   9.315   6.866  0.4404  0.4535  0.6107
  145MOL0     C19910   7.349   9.328   6.806 -0.5398 -0.7342  0.1728
  145MOL0     C19911   7.457   9.262   6.877 -0.4408  0.1233  0.4689
  145MOL0     C19912   7.598   9.300   6.827 -0.5986  0.3389  0.9217
  145MOL0     C19913   7.700   9.208   6.885  0.0982  0.6833  0.5444
  145MOL0     C19914   7.841   9.249   6.838  0.5157  0.3046 -0.1875
  145MOL0     C19915   7.939   9.144   6.869 -0.4226 -0.2526  0.6878
  145MOL0     C19916   8.076   9.167   6.799 -0.3252 -0.7704 -0.0437
  145MOL0    Cl19917   8.163   9.313   6.867 -0.4285  0.2377  0.0107
  145MOL0     C19918   6.998   9.013   6.863 -1.0047  0.1531  0.2322
  145MOL0     C19919   6.887   8.968   6.925  0.0490 -0.4788 -0.1852
  145MOL0     O19920   6.667   9.127   7.243 -0.9677  0.3987 -0.3361
  145MOL0     C19921   6.459   8.858   7.128 -0.2571 -0.6198  0.9719
  145MOL0     C19922   6.350   8.781   7.152  0.1361 -0.6309  0.0312
  145MOL0     N19923   6.095   8.302   7.526  0.0958  0.7729 -0.3892
  145MOL0     N19924   6.105   8.183   7.482 -0.4644  0.1593  0.1822
  145MOL0     C19925   5.166   7.491   7.044 -0.7144 -0.0535  0.9271
  145MOL0     C19926   5.029   7.471   7.036 -0.5023 -0.0664 -0.3877
  145MOL0     C19927   4.631   7.390   6.875 -0.1980  0.1115 -0.2196
  145MOL0     C19928   4.552   7.449   6.977  0.0657  0.4229 -0.0682
  145MOL0     C19929   4.427   7.399   7.014  0.5256  0.9634  0.1086
  145MOL0     C19930   4.361   7.301   6.942 -0.1023  0.0942 -0.4266
  145MOL0     O19931   4.254   7.241   6.994 -0.0036 -0.1417 -0.0574
  145MOL0     C19932   4.193   7.139   6.919 -0.6714  1.6421  0.4369
  145MOL0     C19933   4.057   7.119   6.979 -0.4197  0.3111  0.1087
  145MOL0     C19934   3.941   7.216   6.936 -0.8894 -0.6669 -0.0550
  145MOL0     C19935   3.819   7.146   6.885  0.0625  0.1942 -0.3212
  145MOL0     C19936   3.747   7.046   6.968  0.8474 -0.2323 -0.2168
  145MOL0     C19937   3.677   6.978   7.036 -0.6663  0.0836 -0.5944
  145MOL0     C19938   4.432   7.254   6.825  0.5708  0.0727  0.7388
  145MOL0     C19939   4.563   7.294   6.792 -0.8954  0.3719  0.1891
  145MOL0     C19940   4.617   7.255   6.658  0.5560 -0.1475 -0.0639
  145MOL0     H19941   4.955   7.711   6.817 -0.8671 -0.0038 -0.2400
  145MOL0     H19942   5.216   7.728   6.814 -1.3127  2.6088  1.4116
  145MOL0     H19943   5.429   7.407   6.967 -1.0717  1.5730 -2.1042
  145MOL0     H19944   5.419   7.493   7.133  1.7570  0.2953  0.2019
  145MOL0     H19945   5.642   7.443   7.018 -1.8712 -1.7544 -0.8559
  145MOL0     H19946   5.605   7.579   6.913 -0.1466  2.5263  0.1669
  145MOL0     H19947   5.580   7.742   7.092 -0.4700 -0.7129 -0.7672
  145MOL0     H19948   5.584   7.612   7.213 -2.6045 -1.3370 -1.8951
  145MOL0     H19949   5.820   7.589   7.179  1.1586  0.9702 -0.0295
  145MOL0     H19950   5.823   7.680   7.028  0.5321  0.4154  0.9943
  145MOL0     H19951   5.772   7.802   7.305 -0.6220  4.2361 -0.5236
  145MOL0     H19952   5.750   7.883   7.154  0.4096  0.5522 -1.1899
  145MOL0     H19953   6.019   7.798   7.247  0.0220  1.3842  0.9664
  145MOL0     H19954   5.976   7.826   7.079 -1.7568  2.9803 -1.0919
  145MOL0     H19955   5.904   8.053   7.152 -1.1801 -1.3599 -0.2671
  145MOL0     H19956   6.071   8.005   7.188 -0.2911 -0.8017 -0.1989
  145MOL0     H19957   5.842   8.017   7.403  0.2817  1.7378  2.7119
  145MOL0     H19958   6.006   7.954   7.438  2.2562  1.7635  0.7056
  145MOL0     H19959   5.840   8.305   7.324 -1.1446  0.6351  1.5292
  145MOL0     H19960   6.074   8.570   7.483  0.1291 -2.0342  0.9468
  145MOL0     H19961   5.930   8.542   7.576  1.2470 -0.5922  1.7843
  145MOL0     H19962   5.792   8.532   7.353 -1.0709  1.0031  1.4604
  145MOL0     H19963   5.845   8.681   7.387 -1.2887 -0.5025  1.4587
  145MOL0     H19964   5.948   8.482   7.188 -0.2967  0.1888 -2.1418
  145MOL0     H19965   5.910   8.653   7.157  1.2605 -3.4099 -2.8918
  145MOL0     H19966   6.158   8.547   7.273 -2.1799 -0.9401 -1.0694
  145MOL0     H19967   6.126   8.621   7.116  0.8217 -1.0369 -0.3546
  145MOL0     H19968   6.204   8.979   7.377  1.9685 -0.3266  3.5385
  145MOL0     H19969   6.416   9.244   7.282  1.7651  0.6316  2.1974
  145MOL0     H19970   6.444   9.152   7.434 -0.5444 -3.0947  0.0386
  145MOL0     H19971   6.281   9.189   7.380 -0.6733 -2.9223  1.4940
  145MOL0     H19972   6.761   9.258   7.051  0.3919 -1.3326  0.5581
  145MOL0     H19973   6.986   9.336   6.968  2.5313 -0.8104 -1.6611
  145MOL0     H19974   7.142   9.388   6.828 -0.4424 -2.0599 -3.1239
  145MOL0     H19975   7.223   9.343   6.971 -1.9433  2.9858  0.2755
  145MOL0     H19976   7.353   9.292   6.703  2.6422  2.4895 -1.0233
  145MOL0     H19977   7.378   9.433   6.799 -1.2502 -0.6054 -1.6251
  145MOL0     H19978   7.453   9.152   6.870  3.0460 -0.0627 -0.0659
  145MOL0     H19979   7.470   9.293   6.981  1.0682  1.9547 -0.2272
  145MOL0     H19980   7.619   9.403   6.857  1.2072  0.5351 -0.8100
  145MOL0     H19981   7.593   9.307   6.718 -0.6823 -1.1506  0.8025
  145MOL0     H19982   7.703   9.221   6.994 -0.7221 -1.1140  0.8149
  145MOL0     H19983   7.670   9.108   6.853 -2.3551  1.7770 -0.8859
  145MOL0     H19984   7.867   9.349   6.871 -1.9573  0.6217  1.0415
  145MOL0     H19985   7.830   9.256   6.729 -0.1783  0.9753 -0.0826
  145MOL0     H19986   7.894   9.052   6.831 -2.0455  0.5272  0.6262
  145MOL0     H19987   7.962   9.135   6.975 -0.9336 -1.5876  0.7075
  145MOL0     H19988   8.074   9.193   6.692  1.4345  1.3261  0.3549
  145MOL0     H19989   8.143   9.080   6.803  3.5687  2.0215  1.4902
  145MOL0     H19990   7.067   8.940   6.821 -1.1816  0.0237  0.1664
  145MOL0     H19991   6.848   8.867   6.913 -2.5259  0.5726 -1.4892
  145MOL0     H19992   6.525   8.823   7.048 -2.2911 -0.8788 -0.6626
  145MOL0     H19993   6.331   8.692   7.093 -0.3815 -0.4723 -0.0495
  145MOL0     H19994   5.217   7.426   7.115 -1.2608 -0.6531  0.7767
  145MOL0     H19995   4.975   7.401   7.099  1.1693 -0.9506  0.1471
  145MOL0     H19996   4.583   7.539   7.029 -0.0037  2.5620 -3.3768
  145MOL0     H19997   4.370   7.420   7.103 -0.9460 -2.5065  0.1424
  145MOL0     H19998   4.187   7.182   6.818  3.7849  2.9998  0.5429
  145MOL0     H19999   4.259   7.053   6.911 -0.2920  2.0504 -1.3940
  145MOL0     H20000   4.051   7.099   7.086 -1.4305  0.0634  0.0144
  145MOL0     H20001   4.021   7.025   6.938 -2.4197 -0.1079  2.5674
  145MOL0     H20002   3.911   7.279   7.020 -0.0040  0.3734 -0.4977
  145MOL0     H20003   3.983   7.281   6.859 -2.8908 -0.3411 -0.9237
  145MOL0     H20004   3.832   7.103   6.785 -4.8347  0.0566 -1.1368
  145MOL0     H20005   3.751   7.231   6.876 -2.8628 -1.9674  0.0963
  145MOL0     H20006   3.625   6.903   7.091 -2.9915  1.9722 -0.0600
  145MOL0     H20007   4.383   7.184   6.759 -0.7314 -1.7607  3.4524
  145MOL0     H20008   4.689   7.175   6.675  0.8915  0.1765  0.0558
  145MOL0     H20009   4.530   7.220   6.602 -1.3599 -2.0590  3.7653
  145MOL0     H20010   4.677   7.334   6.611  1.0951 -1.2159 -1.2217
  146MOL0     O20011   0.385  10.966  10.102  0.1275  0.3066  0.1175
  146MOL0     C20012   0.307  10.954  10.004  0.0046 -1.0343 -0.5488
  146MOL0     O20013   0.344  10.905   9.877  0.8029 -0.1932 -1.0025
  146MOL0     C20014   0.476  10.911   9.831 -0.0504 -0.4269  0.1610
  146MOL0     C20015   0.578  10.990   9.892 -0.3356 -0.4198 -0.2415
  146MOL0     C20016   0.706  10.985   9.838  0.2106 -0.1954 -0.3947
  146MOL0     C20017   0.744  10.897   9.736 -0.4841  0.4137  0.3301
  146MOL0     O20018   0.874  10.897   9.676 -0.7076  0.0628  0.0599
  146MOL0     C20019   0.987  10.946   9.742 -0.2578 -0.0575  0.4808
  146MOL0     C20020   1.120  10.895   9.682  0.8484 -0.3432  1.4460
  146MOL0     C20021   1.138  10.750   9.704 -0.6046 -0.1015 -0.3864
  146MOL0     C20022   1.274  10.693   9.671  0.5933  0.5984 -0.3347
  146MOL0     C20023   1.275  10.539   9.693  0.2957  0.1397 -0.5462
  146MOL0     C20024   1.395  10.483   9.623  0.0604 -0.7623 -1.0228
  146MOL0     C20025   1.399  10.332   9.634 -0.2906 -0.1627 -0.4841
  146MOL0     C20026   1.527  10.271   9.564 -0.5585 -1.1689 -0.3414
  146MOL0     N20027   1.659  10.318   9.618 -0.9708  0.5246  0.8583
  146MOL0     C20028   1.749  10.235   9.668  0.1663 -0.1748 -0.7334
  146MOL0     C20029   1.858  10.306   9.683 -1.0318 -0.2828  0.1417
  146MOL0     C20030   1.987  10.256   9.744 -0.6292 -0.7053 -0.3270
  146MOL0     C20031   2.014  10.324   9.877 -1.0211 -0.3632 -0.7135
  146MOL0     C20032   2.134  10.249   9.942  0.2531 -0.5475 -0.1049
  146MOL0     C20033   2.159  10.277  10.094  0.0407  0.3520  0.1218
  146MOL0     O20034   2.207  10.411  10.108  0.6891 -0.1933  0.0685
  146MOL0     C20035   2.341  10.425  10.117  0.8134 -0.5411 -1.0330
  146MOL0     C20036   2.394  10.550  10.170 -0.7655  0.1370  0.3420
  146MOL0     C20037   2.528  10.564  10.196 -1.0447 -0.6316  0.0849
  146MOL0     C20038   2.578  10.697  10.251 -0.2709  0.5542  0.1374
  146MOL0     C20039   2.616  10.458  10.161  0.6450  0.4855  0.4216
  146MOL0     C20040   2.768  10.457  10.166 -0.1600  0.1419  0.3954
  146MOL0     O20041   2.830  10.348  10.108 -0.4769  0.2013  0.3334
  146MOL0     C20042   2.968  10.362  10.074  0.1533 -0.0368  0.2011
  146MOL0     C20043   3.067  10.266  10.089  0.4037  0.4864 -0.5091
  146MOL0     C20044   3.203  10.274  10.049  0.6733  0.1576 -0.4426
  146MOL0     C20045   3.235  10.394   9.984 -0.3302  0.4042 -0.3240
  146MOL0     O20046   3.368  10.415   9.945 -0.1996  0.3695  0.3979
  146MOL0     C20047   3.413  10.546   9.919 -0.3778 -0.6238 -0.3824
  146MOL0     C20048   3.560  10.539   9.868 -0.2196 -0.0267 -0.0643
  146MOL0     C20049   3.671  10.506   9.973 -0.4426 -0.3816  0.2977
  146MOL0     C20050   3.815  10.518   9.895 -0.0098  0.0002  0.6159
  146MOL0     C20051   3.922  10.499  10.003 -0.4756 -0.7207  0.4402
  146MOL0     C20052   4.059  10.529   9.948 -0.5697  0.8138  0.2822
  146MOL0     C20053   4.180  10.512  10.050  0.2624 -0.8996  0.4053
  146MOL0     C20054   4.299  10.541   9.953 -0.4120  0.9287 -0.3693
  146MOL0    Cl20055   4.328  10.728   9.937 -0.1175  0.3439  0.0347
  146MOL0     C20056   3.131  10.488   9.957  1.0506  0.3488 -0.1406
  146MOL0     C20057   2.999  10.474   9.996 -0.4695 -0.1329 -0.5886
  146MOL0     O20058   2.823  10.549  10.226 -0.7479  0.1400 -0.4368
  146MOL0     C20059   2.565  10.341  10.102  0.1406  0.8041  0.1206
  146MOL0     C20060   2.430  10.327  10.072 -0.2900  0.4727 -0.2764
  146MOL0     N20061   1.836  10.428   9.638 -0.6115 -0.9874 -0.2955
  146MOL0     N20062   1.712  10.445   9.602 -0.4095 -0.0413  0.3141
  146MOL0     C20063   0.652  10.809   9.686  0.2736  0.5659  0.4788
  146MOL0     C20064   0.517  10.814   9.733  0.1598 -0.6164  1.0140
  146MOL0     C20065   0.163  10.998  10.039  0.0463  0.0119  0.1633
  146MOL0     C20066   0.131  11.016  10.175  0.2365 -0.5259  0.3693
  146MOL0     C20067  -0.003  11.051  10.217 -0.4213  0.2802  0.1780
  146MOL0     C20068  -0.104  11.065  10.126  0.3207  0.1996 -0.2785
  146MOL0     O20069  -0.228  11.090  10.176 -0.1914  0.0446 -0.2881
  146MOL0     C20070  -0.345  11.089  10.086  0.3496 -0.1461 -0.0347
  146MOL0     C20071  -0.472  11.028  10.146 -0.1075 -0.8634 -0.3511
  146MOL0     C20072  -0.541  11.105  10.251 -0.2418 -0.8444  0.3003
  146MOL0     C20073  -0.686  11.064  10.271 -0.4247  0.2946 -0.3810
  146MOL0     C20074  -0.759  11.114  10.156 -0.2665 -0.5629  0.0801
  146MOL0     C20075  -0.830  11.156  10.066  0.7186 -0.5498 -0.4940
  146MOL0     C20076  -0.070  11.040   9.984  0.1038  0.3641 -0.4620
  146MOL0     C20077   0.061  11.004   9.947 -0.3820 -1.0248 -0.2941
  146MOL0     C20078   0.085  10.998   9.794 -0.1044  0.8745 -0.7283
  146MOL0     H20079   0.552  11.056   9.974 -0.4002 -1.5112  0.6296
  146MOL0     H20080   0.785  11.044   9.884  0.4566 -0.2564 -0.7409
  146MOL0     H20081   0.975  10.917   9.847  2.7759 -1.1416  0.6472
  146MOL0     H20082   0.987  11.055   9.743  1.5724 -0.0012 -0.1394
  146MOL0     H20083   1.124  10.902   9.573 -1.3770  4.0383  1.4250
  146MOL0     H20084   1.201  10.957   9.720  1.3653 -0.5379  0.6903
  146MOL0     H20085   1.108  10.733   9.808 -0.4516 -3.9060 -0.8223
  146MOL0     H20086   1.073  10.686   9.643  0.6759 -1.7621 -0.0800
  146MOL0     H20087   1.304  10.717   9.568  0.2008  0.5735 -0.4583
  146MOL0     H20088   1.351  10.742   9.731  1.5851  0.2293 -1.2601
  146MOL0     H20089   1.186  10.492   9.649  0.4287 -0.2028 -0.4546
  146MOL0     H20090   1.263  10.510   9.797 -0.3796  2.6957  0.1592
  146MOL0     H20091   1.406  10.516   9.519  1.2713 -0.0088 -0.6838
  146MOL0     H20092   1.481  10.517   9.683 -1.3302 -1.0896  1.2718
  146MOL0     H20093   1.310  10.297   9.583 -1.1174  3.0081 -1.4526
  146MOL0     H20094   1.406  10.316   9.742  1.6092  1.8608 -0.2245
  146MOL0     H20095   1.531  10.164   9.585  4.8962 -0.8353  1.8478
  146MOL0     H20096   1.534  10.307   9.461  3.2220  2.4218  0.9079
  146MOL0     H20097   1.728  10.134   9.703 -0.5976  0.3542  0.4046
  146MOL0     H20098   2.069  10.274   9.674 -0.1929  2.6783  0.8568
  146MOL0     H20099   1.979  10.151   9.774 -0.2477 -0.2151  1.6843
  146MOL0     H20100   2.026  10.431   9.857  4.3396 -0.2004  1.6403
  146MOL0     H20101   1.922  10.304   9.933 -1.3107  0.3790 -0.9178
  146MOL0     H20102   2.114  10.142   9.932 -3.2646  0.0739 -1.4807
  146MOL0     H20103   2.222  10.284   9.887  0.5278 -1.6536 -0.3924
  146MOL0     H20104   2.059  10.265  10.137 -1.1414 -0.0153 -2.5159
  146MOL0     H20105   2.218  10.197  10.140 -0.6600 -0.3038 -0.1044
  146MOL0     H20106   2.324  10.633  10.182 -0.0571  1.1803 -2.0094
  146MOL0     H20107   2.656  10.741  10.188  0.2434 -0.6041 -0.0532
  146MOL0     H20108   2.614  10.684  10.353 -0.3661 -2.8292 -0.1432
  146MOL0     H20109   2.498  10.772  10.254 -1.5806 -0.7170 -1.2764
  146MOL0     H20110   3.035  10.186  10.156  1.7198  0.7157  0.4356
  146MOL0     H20111   3.275  10.200  10.083  1.5535  1.7799  1.3981
  146MOL0     H20112   3.347  10.593   9.846 -0.4866  0.7879  0.5961
  146MOL0     H20113   3.420  10.605  10.011 -1.2883 -3.6558  1.8182
  146MOL0     H20114   3.548  10.462   9.791  2.5971  0.3239 -0.9581
  146MOL0     H20115   3.589  10.629   9.813 -2.2149  0.3544 -0.5868
  146MOL0     H20116   3.650  10.409  10.019  0.6874  0.0553  1.7849
  146MOL0     H20117   3.665  10.576  10.056  0.9731 -1.7900  1.6457
  146MOL0     H20118   3.828  10.614   9.843 -3.0964  0.2178  0.0665
  146MOL0     H20119   3.821  10.443   9.816 -2.2517  1.6258 -1.2550
  146MOL0     H20120   3.892  10.553  10.093 -3.2199  0.7677 -1.2227
  146MOL0     H20121   3.918  10.392  10.027  1.0843 -1.6294 -2.7566
  146MOL0     H20122   4.059  10.633   9.914 -1.6290  0.3661 -1.1770
  146MOL0     H20123   4.065  10.459   9.864 -0.3163 -0.9224  1.6952
  146MOL0     H20124   4.190  10.408  10.082 -0.4528 -1.3636 -0.8114
  146MOL0     H20125   4.160  10.578  10.135  0.9891  0.6049 -0.5377
  146MOL0     H20126   4.268  10.496   9.858 -3.0272  0.3919  0.6564
  146MOL0     H20127   4.383  10.498  10.007 -1.1779  1.3666  1.2371
  146MOL0     H20128   3.159  10.579   9.905  4.2527 -1.5986 -2.1429
  146MOL0     H20129   2.920  10.543   9.969 -1.2731 -0.5785  0.5408
  146MOL0     H20130   2.611  10.255  10.054 -2.9627 -0.3593 -1.0473
  146MOL0     H20131   2.411  10.226  10.036 -0.5498  0.3668  0.1505
  146MOL0     H20132   0.676  10.743   9.603 -1.4860  0.4643  0.0060
  146MOL0     H20133   0.447  10.751   9.678 -0.0358  1.5415 -1.3902
  146MOL0     H20134   0.211  11.001  10.248  1.6208 -1.5783 -1.2793
  146MOL0     H20135  -0.023  11.075  10.321 -0.3762  1.4569 -0.0700
  146MOL0     H20136  -0.365  11.188  10.045  0.7422 -0.6744 -1.5893
  146MOL0     H20137  -0.331  11.021  10.001 -3.8549 -1.4122  0.0884
  146MOL0     H20138  -0.459  10.923  10.171 -0.1998 -0.3960  1.8831
  146MOL0     H20139  -0.539  11.021  10.060 -0.4822 -0.3610 -0.1094
  146MOL0     H20140  -0.485  11.104  10.345  1.5120 -3.7001 -0.6399
  146MOL0     H20141  -0.539  11.209  10.217  1.3206 -0.6768  0.8123
  146MOL0     H20142  -0.735  11.115  10.355  1.3037 -2.7353  2.7511
  146MOL0     H20143  -0.703  10.957  10.285  2.1343  0.0226  1.4367
  146MOL0     H20144  -0.882  11.207   9.987  2.5657 -0.6491 -1.8414
  146MOL0     H20145  -0.145  11.038   9.905  0.8174  0.7056 -1.1594
  146MOL0     H20146  -0.002  11.026   9.734 -2.0100  0.4227  1.6905
  146MOL0     H20147   0.172  11.054   9.757  1.5952 -1.4708 -0.5160
  146MOL0     H20148   0.125  10.897   9.780  0.0093  0.7230  0.5647
  147MOL0     O20149   1.889   7.598  11.003  0.0746 -0.4613  0.0928
  147MOL0     C20150   1.865   7.476  11.014 -0.2529 -0.2601  0.6220
  147MOL0     O20151   1.743   7.414  10.988  0.2582 -0.7366  1.2152
  147MOL0     C20152   1.646   7.498  10.932 -0.0045 -0.2487  0.0731
  147MOL0     C20153   1.625   7.489  10.794 -0.1411 -0.0478  0.5388
  147MOL0     C20154   1.519   7.563  10.735  0.5141  0.0788 -0.2082
  147MOL0     C20155   1.440   7.641  10.814  0.1501 -0.4353  0.3836
  147MOL0     O20156   1.351   7.725  10.754  0.2783 -0.3818 -0.1367
  147MOL0     C20157   1.213   7.690  10.796 -0.4906  0.7926  0.3505
  147MOL0     C20158   1.135   7.698  10.660 -0.7217  0.6254 -0.2764
  147MOL0     C20159   1.066   7.833  10.635  0.4488 -0.1665 -0.8514
  147MOL0     C20160   0.976   7.831  10.516  0.2563 -0.2055  0.1164
  147MOL0     C20161   0.911   7.964  10.489 -0.7410 -0.2962 -0.6950
  147MOL0     C20162   0.813   7.936  10.373  0.0891 -0.1521 -1.1168
  147MOL0     C20163   0.751   8.068  10.320  0.2200  0.6647 -0.4539
  147MOL0     C20164   0.658   8.060  10.202 -0.3618  0.1987  0.2725
  147MOL0     N20165   0.715   7.990  10.084  0.3364  0.2711 -0.2872
  147MOL0     C20166   0.655   7.875  10.033  0.0548  0.9549  1.3482
  147MOL0     C20167   0.730   7.846   9.919  0.4754 -0.1652  0.0752
  147MOL0     C20168   0.682   7.745   9.817  0.7384  0.2953  0.0453
  147MOL0     C20169   0.793   7.645   9.790  0.6372 -0.0588  0.0046
  147MOL0     C20170   0.752   7.554   9.665 -0.7635  0.0494 -0.6377
  147MOL0     C20171   0.857   7.450   9.621 -0.3012 -0.6650  0.4418
  147MOL0     O20172   0.962   7.517   9.543 -0.5868 -0.4438 -0.4805
  147MOL0     C20173   1.087   7.465   9.549 -0.1185 -0.1202  0.6768
  147MOL0     C20174   1.183   7.540   9.475 -0.2697 -0.0508 -0.1282
  147MOL0     C20175   1.317   7.502   9.468 -0.6307  0.6224 -0.0231
  147MOL0     C20176   1.413   7.591   9.388  0.3317  1.0055 -0.2106
  147MOL0     C20177   1.365   7.380   9.540 -0.3775 -0.6222  0.2991
  147MOL0     C20178   1.508   7.333   9.565  0.3913 -1.1454 -0.1760
  147MOL0     O20179   1.528   7.211   9.632  0.3042 -0.4353  0.3811
  147MOL0     C20180   1.648   7.189   9.682 -0.1331  0.9059  0.8233
  147MOL0     C20181   1.696   7.256   9.793  0.5110 -0.1213 -0.0154
  147MOL0     C20182   1.820   7.227   9.840 -0.8150  0.6518 -0.3928
  147MOL0     C20183   1.905   7.130   9.781  0.1118 -0.1891 -0.6082
  147MOL0     O20184   2.019   7.078   9.844 -0.4524  0.4969  0.5248
  147MOL0     C20185   2.031   7.092   9.982 -0.9110  0.7003 -1.3999
  147MOL0     C20186   2.152   7.011  10.035 -0.3886  0.1003  0.8893
  147MOL0     C20187   2.290   7.084  10.003  0.3475 -0.2115  0.2418
  147MOL0     C20188   2.416   6.996  10.014  0.5587  0.5308  0.1981
  147MOL0     C20189   2.552   7.063  10.013  1.1982  0.0376 -0.4101
  147MOL0     C20190   2.650   6.981  10.091  0.0415 -0.3420  0.5854
  147MOL0     C20191   2.785   7.047  10.064  0.6425  1.1293 -1.5061
  147MOL0     C20192   2.901   6.969  10.138 -1.4084  0.0942 -0.6271
  147MOL0    Cl20193   2.897   7.006  10.314  0.1737  0.2111  0.3527
  147MOL0     C20194   1.860   7.072   9.660  0.3547 -0.6202 -0.1041
  147MOL0     C20195   1.725   7.099   9.614 -0.3582 -0.3452  0.0536
  147MOL0     O20196   1.594   7.414   9.529  0.2853 -0.2418 -0.0436
  147MOL0     C20197   1.268   7.313   9.625  0.3363 -0.0426 -0.1830
  147MOL0     C20198   1.133   7.355   9.625  0.4860  0.5681 -0.1073
  147MOL0     N20199   0.822   7.944   9.900  0.4483  0.1025 -0.2855
  147MOL0     N20200   0.815   8.027  10.000  0.3703  0.5641 -0.0950
  147MOL0     C20201   1.456   7.650  10.946 -0.2469  0.0623  0.5804
  147MOL0     C20202   1.552   7.572  11.007  0.3483 -0.4066  0.3097
  147MOL0     C20203   1.978   7.386  11.050 -0.1043  0.2101 -0.0254
  147MOL0     C20204   2.039   7.385  11.178 -0.2390  0.1278  0.2062
  147MOL0     C20205   2.139   7.305  11.216  0.4982  0.3915 -0.4903
  147MOL0     C20206   2.204   7.225  11.120  0.8118  1.3426 -1.1544
  147MOL0     O20207   2.306   7.144  11.159 -0.0029 -0.3608 -0.1277
  147MOL0     C20208   2.385   7.058  11.073  0.0480  0.6234  0.4456
  147MOL0     C20209   2.536   7.066  11.104 -0.1489 -0.4255 -0.1593
  147MOL0     C20210   2.594   7.212  11.102 -1.1213  0.5383  0.7615
  147MOL0     C20211   2.571   7.287  11.240  0.0774  0.4603  0.1102
  147MOL0     C20212   2.661   7.396  11.248  1.0665 -0.1021 -0.0015
  147MOL0     C20213   2.704   7.512  11.266  0.5523 -0.2567 -0.2746
  147MOL0     C20214   2.146   7.217  10.997  0.8439  0.0598  0.1992
  147MOL0     C20215   2.041   7.299  10.960  0.0067 -0.3304 -0.5226
  147MOL0     C20216   2.004   7.288  10.815  0.2102 -0.2935 -0.0158
  147MOL0     H20217   1.697   7.438  10.730 -2.3087 -3.5113  0.5934
  147MOL0     H20218   1.511   7.556  10.627 -0.7135  2.5635 -0.3513
  147MOL0     H20219   1.167   7.760  10.867 -2.6817 -0.5390  0.3306
  147MOL0     H20220   1.195   7.586  10.824  0.3125 -0.4195 -3.1270
  147MOL0     H20221   1.205   7.678  10.579 -0.2901 -3.7712  0.9284
  147MOL0     H20222   1.054   7.625  10.660  0.8469 -1.4787 -4.5701
  147MOL0     H20223   1.010   7.847  10.728  1.9684  1.7675 -0.1485
  147MOL0     H20224   1.126   7.924  10.623 -0.8665  1.3007  2.4065
  147MOL0     H20225   1.034   7.788  10.434 -0.6356 -0.3396 -0.4598
  147MOL0     H20226   0.890   7.765  10.532  0.0567 -0.2704 -1.1196
  147MOL0     H20227   0.991   8.034  10.464  1.0076 -0.8867  2.5655
  147MOL0     H20228   0.854   8.010  10.570 -1.2761 -2.2282  0.0745
  147MOL0     H20229   0.871   7.883  10.297  3.5909  1.2126  0.3764
  147MOL0     H20230   0.727   7.877  10.406  1.8743 -2.0347  0.4632
  147MOL0     H20231   0.840   8.128  10.300  1.0951  0.4942  2.4843
  147MOL0     H20232   0.697   8.129  10.394  2.2322  1.4797  0.4240
  147MOL0     H20233   0.564   8.015  10.236  0.1794 -0.4627  0.9313
  147MOL0     H20234   0.635   8.161  10.169 -5.1391 -0.5582  0.6439
  147MOL0     H20235   0.563   7.822  10.056  0.0169  0.8399  0.9405
  147MOL0     H20236   0.656   7.796   9.724 -1.3748  3.4000  2.1470
  147MOL0     H20237   0.589   7.702   9.856  1.4960 -1.8936 -0.4215
  147MOL0     H20238   0.887   7.698   9.774  1.4624 -1.5108 -0.1464
  147MOL0     H20239   0.801   7.588   9.883 -1.0474  0.8231  0.7374
  147MOL0     H20240   0.661   7.496   9.685 -0.8300  0.9881  2.1115
  147MOL0     H20241   0.731   7.626   9.585 -0.9666 -0.6580 -1.2392
  147MOL0     H20242   0.902   7.406   9.711  3.4779  0.2274 -0.8012
  147MOL0     H20243   0.820   7.378   9.548  0.7237  0.1568 -0.9533
  147MOL0     H20244   1.152   7.636   9.435  0.6383  0.9723  1.5096
  147MOL0     H20245   1.476   7.535   9.318  0.5650  1.3636 -0.2891
  147MOL0     H20246   1.479   7.634   9.463  0.6582  1.0078 -0.4981
  147MOL0     H20247   1.361   7.666   9.329  0.9517  0.4465 -1.5223
  147MOL0     H20248   1.633   7.331   9.839 -1.4569  0.5039 -3.4002
  147MOL0     H20249   1.863   7.276   9.927  3.5752 -1.5975 -0.9575
  147MOL0     H20250   2.055   7.194  10.014  1.5949 -0.1759 -0.2370
  147MOL0     H20251   1.944   7.051  10.036  0.1559  2.3979  1.8740
  147MOL0     H20252   2.149   7.008  10.144 -2.5225 -1.9282  0.8557
  147MOL0     H20253   2.152   6.908   9.999  0.4900 -0.2552  1.8793
  147MOL0     H20254   2.303   7.171  10.068 -1.2415  0.0937  0.1883
  147MOL0     H20255   2.286   7.103   9.896  0.4833 -1.4356  0.0011
  147MOL0     H20256   2.422   6.923   9.932 -2.2092 -0.9087  1.1694
  147MOL0     H20257   2.410   6.939  10.107 -1.7617  3.9736  2.3615
  147MOL0     H20258   2.597   7.082   9.915  1.4959  1.5517 -0.0117
  147MOL0     H20259   2.550   7.164  10.055  2.2799 -0.6010  1.2700
  147MOL0     H20260   2.650   6.884  10.041 -1.1690  0.3712 -0.8760
  147MOL0     H20261   2.615   6.990  10.194 -0.1578  0.3176  0.4643
  147MOL0     H20262   2.788   7.152  10.096  1.5360  0.6638  0.0669
  147MOL0     H20263   2.804   7.050   9.956 -0.8275 -4.8342 -2.2746
  147MOL0     H20264   2.997   6.988  10.089 -1.8628 -0.0319 -1.5994
  147MOL0     H20265   2.907   6.860  10.132  4.7686  0.0733 -0.2283
  147MOL0     H20266   1.919   6.994   9.612  0.0930 -0.5253 -0.5896
  147MOL0     H20267   1.691   7.054   9.522 -0.8056  0.3485 -0.1252
  147MOL0     H20268   1.287   7.224   9.685  0.2057 -0.2105 -0.3906
  147MOL0     H20269   1.062   7.294   9.678  0.4534  0.7347  0.0419
  147MOL0     H20270   1.394   7.721  11.001 -2.4010  0.0417 -1.6174
  147MOL0     H20271   1.551   7.577  11.115  1.7589 -0.1493  0.3403
  147MOL0     H20272   1.995   7.459  11.244 -0.6962  0.4887 -0.4835
  147MOL0     H20273   2.162   7.297  11.321 -1.9508  0.0491  0.0748
  147MOL0     H20274   2.357   6.954  11.091  0.9955  0.2740 -0.0161
  147MOL0     H20275   2.375   7.075  10.966 -0.1631  2.1364  0.6903
  147MOL0     H20276   2.592   7.014  11.025  1.4778  2.5417 -1.1427
  147MOL0     H20277   2.540   7.017  11.201 -2.3824  0.2025  0.2982
  147MOL0     H20278   2.701   7.208  11.079 -0.9615 -2.3146  1.6233
  147MOL0     H20279   2.544   7.276  11.029 -0.5037  2.0675  1.6296
  147MOL0     H20280   2.583   7.214  11.320  0.5931 -1.0705 -1.3095
  147MOL0     H20281   2.467   7.323  11.238 -0.7467 -1.7309  0.3313
  147MOL0     H20282   2.741   7.608  11.296 -2.9724  1.7822 -1.7694
  147MOL0     H20283   2.175   7.139  10.927  0.4820  0.4503 -0.3937
  147MOL0     H20284   1.896   7.275  10.805  0.1812 -0.6539  0.7376
  147MOL0     H20285   2.040   7.385  10.779 -1.7976  0.7577  0.6300
  147MOL0     H20286   2.048   7.201  10.765 -0.0854 -1.2321  1.3087
  148MOL0     O20287   8.219   7.518   1.290 -0.3955 -0.1488 -0.8047
  148MOL0     C20288   8.193   7.410   1.350 -0.5435  0.2182 -0.3300
  148MOL0     O20289   8.295   7.320   1.380 -0.0976  0.5514 -0.8669
  148MOL0     C20290   8.415   7.362   1.337  0.5232 -0.2014 -0.3113
  148MOL0     C20291   8.460   7.369   1.203  0.1711 -0.1294 -0.1111
  148MOL0     C20292   8.569   7.434   1.169 -0.1471 -1.0188 -0.0320
  148MOL0     C20293   8.651   7.493   1.270 -0.0465 -0.0695 -0.3232
  148MOL0     O20294   8.764   7.556   1.218 -0.2398  0.0546  0.0460
  148MOL0     C20295   8.830   7.645   1.305  0.9378  0.4020  0.0924
  148MOL0     C20296   8.932   7.734   1.227  0.5070 -0.1208 -0.2911
  148MOL0     C20297   9.029   7.806   1.324 -0.0062 -0.2980 -0.0233
  148MOL0     C20298   9.074   7.939   1.246 -1.0348  0.2092  0.5132
  148MOL0     C20299   9.179   8.019   1.331  0.7449  0.2859  0.0390
  148MOL0     C20300   9.329   7.985   1.302  0.0877  0.1283  0.2874
  148MOL0     C20301   9.425   8.059   1.389 -0.4048 -0.3224 -1.0011
  148MOL0     C20302   9.418   8.026   1.536 -0.1655  0.0382 -0.0200
  148MOL0     N20303   9.518   8.095   1.620 -0.4458  0.8444 -0.1127
  148MOL0     C20304   9.575   8.029   1.735 -0.2818  0.6058  0.2937
  148MOL0     C20305   9.663   8.115   1.792  0.4664  0.2694 -0.6554
  148MOL0     C20306   9.745   8.115   1.925  0.4182  0.1593 -0.5558
  148MOL0     C20307   9.683   8.018   2.026  0.0932 -1.1845  0.2191
  148MOL0     C20308   9.759   8.001   2.160 -0.2232  0.2586  0.9581
  148MOL0     C20309   9.892   7.919   2.132  0.3071  0.0631 -0.1528
  148MOL0     O20310   9.970   7.927   2.252 -0.2866  0.4472 -0.0407
  148MOL0     C20311  10.089   7.850   2.261  0.0852  0.2647  0.5063
  148MOL0     C20312  10.149   7.774   2.156 -0.1054 -0.3277 -0.3042
  148MOL0     C20313  10.278   7.715   2.163  0.2074 -0.0896  0.3100
  148MOL0     C20314  10.314   7.634   2.047  0.0122  0.8029  0.1221
  148MOL0     C20315  10.350   7.737   2.283 -0.4418  0.8185 -0.4338
  148MOL0     C20316  10.491   7.677   2.308 -0.2230  0.7306 -0.3461
  148MOL0     O20317  10.567   7.730   2.419  0.4230  0.4161 -0.2992
  148MOL0     C20318  10.700   7.708   2.447 -0.2205 -0.3845  0.1577
  148MOL0     C20319  10.793   7.646   2.366  0.6960 -0.1459  0.1877
  148MOL0     C20320  10.911   7.608   2.418  0.4812  0.1090  0.0878
  148MOL0     C20321  10.955   7.638   2.547  0.3781 -0.3811 -0.2476
  148MOL0     O20322  11.080   7.609   2.595  0.8198  0.8024 -0.4517
  148MOL0     C20323  11.151   7.496   2.535 -0.5517 -0.4696 -0.2072
  148MOL0     C20324  11.282   7.460   2.609  0.1951 -0.5609 -0.8684
  148MOL0     C20325  11.384   7.564   2.594  0.0724 -0.3748  0.0242
  148MOL0     C20326  11.516   7.545   2.675  0.1420  0.9303  0.1321
  148MOL0     C20327  11.619   7.630   2.612  0.4239 -0.3353 -0.2125
  148MOL0     C20328  11.748   7.631   2.684 -0.4397 -1.0874  0.4522
  148MOL0     C20329  11.849   7.714   2.606  0.1713 -0.2330  1.1526
  148MOL0     C20330  11.996   7.692   2.642  0.1916 -0.6475 -0.1643
  148MOL0    Cl20331  12.062   7.538   2.587 -0.2387 -0.0098  0.4466
  148MOL0     C20332  10.873   7.716   2.620  0.3211 -0.5914 -0.6642
  148MOL0     C20333  10.745   7.757   2.573 -0.4632 -0.2394  0.6443
  148MOL0     O20334  10.526   7.581   2.236  0.0930 -0.4751 -0.3384
  148MOL0     C20335  10.287   7.801   2.389  0.6243 -0.2397 -1.1900
  148MOL0     C20336  10.161   7.864   2.375 -0.5068  0.4066 -0.0007
  148MOL0     N20337   9.657   8.230   1.715  0.2723  0.0289 -0.6194
  148MOL0     N20338   9.570   8.222   1.611 -0.8218 -0.1752 -0.7124
  148MOL0     C20339   8.618   7.478   1.400 -1.3147  0.3840  0.7487
  148MOL0     C20340   8.489   7.427   1.440  0.1214 -0.0399 -0.2054
  148MOL0     C20341   8.061   7.376   1.388 -0.3224  0.4532  0.3524
  148MOL0     C20342   8.039   7.238   1.425  0.2920  0.1515  0.4289
  148MOL0     C20343   7.926   7.191   1.490 -0.3700  0.2540 -0.4189
  148MOL0     C20344   7.828   7.282   1.522  0.1457  0.0061 -0.1264
  148MOL0     O20345   7.708   7.245   1.597  0.1388  0.7629 -0.9473
  148MOL0     C20346   7.702   7.107   1.664  0.4508 -0.8939  0.5658
  148MOL0     C20347   7.608   7.105   1.769  0.1512 -0.1883 -0.3375
  148MOL0     C20348   7.460   7.114   1.724 -0.4427 -0.0907  0.1013
  148MOL0     C20349   7.409   7.254   1.686  0.4406 -0.1716 -0.1320
  148MOL0     C20350   7.269   7.242   1.643  0.5240 -0.3930 -0.3838
  148MOL0     C20351   7.156   7.243   1.592  0.8573  0.1859 -0.2195
  148MOL0     C20352   7.844   7.416   1.482 -0.0973  0.4542 -0.7039
  148MOL0     C20353   7.955   7.461   1.411  0.0750  0.1484  0.0341
  148MOL0     C20354   7.968   7.606   1.368  0.0331  0.3588 -0.2744
  148MOL0     H20355   8.392   7.321   1.133 -1.6995 -0.6602  1.9509
  148MOL0     H20356   8.595   7.460   1.066 -1.0627  0.8458  0.1653
  148MOL0     H20357   8.885   7.584   1.377 -0.4890 -2.5425 -1.1625
  148MOL0     H20358   8.753   7.707   1.353 -2.7317 -1.2599 -3.0653
  148MOL0     H20359   8.985   7.675   1.151  0.8005 -0.9085  0.5153
  148MOL0     H20360   8.869   7.805   1.172  0.0144  0.2592  0.7463
  148MOL0     H20361   8.986   7.830   1.421  0.7478  0.3936  0.1523
  148MOL0     H20362   9.109   7.737   1.352 -2.3817 -2.0604  2.9731
  148MOL0     H20363   9.113   7.904   1.149 -0.4169 -2.1492  1.5439
  148MOL0     H20364   8.995   8.013   1.236 -0.1227  1.0123 -1.3436
  148MOL0     H20365   9.158   7.997   1.436 -0.6783  1.8893  0.1418
  148MOL0     H20366   9.159   8.126   1.322  0.3952  0.1853 -0.4547
  148MOL0     H20367   9.347   7.880   1.327 -1.4308 -0.2422 -0.0274
  148MOL0     H20368   9.361   8.008   1.200 -0.6375  1.3178  0.3130
  148MOL0     H20369   9.407   8.166   1.375 -0.4534  0.0350  1.3696
  148MOL0     H20370   9.526   8.037   1.352  0.6210  1.4809  0.5280
  148MOL0     H20371   9.326   8.064   1.580 -1.3580 -2.1896 -0.4220
  148MOL0     H20372   9.435   7.919   1.550  0.5272  0.0716 -0.5259
  148MOL0     H20373   9.538   7.939   1.783  0.5595  1.5742  2.9599
  148MOL0     H20374   9.733   8.216   1.965 -0.7417  1.2787 -3.4395
  148MOL0     H20375   9.850   8.106   1.897  0.7434  1.1051  0.2895
  148MOL0     H20376   9.580   8.050   2.045 -0.0617 -0.2484 -1.9920
  148MOL0     H20377   9.666   7.916   1.990 -0.0907  0.0241 -3.5596
  148MOL0     H20378   9.787   8.097   2.204 -0.6109  0.5031  0.6808
  148MOL0     H20379   9.693   7.945   2.227 -1.8814  3.3660  2.1269
  148MOL0     H20380   9.865   7.816   2.110  0.7704 -0.6085  2.0970
  148MOL0     H20381   9.947   7.961   2.047  1.1554 -2.2371 -0.7932
  148MOL0     H20382  10.094   7.774   2.063 -1.1712  0.8348  0.2986
  148MOL0     H20383  10.316   7.531   2.082 -1.0063  0.8307  0.2952
  148MOL0     H20384  10.412   7.660   2.006 -0.5273  0.2122 -1.6301
  148MOL0     H20385  10.246   7.634   1.961 -0.9641 -1.1009  0.8405
  148MOL0     H20386  10.789   7.616   2.261  0.7351 -0.5178  0.2924
  148MOL0     H20387  10.979   7.549   2.358  1.6373  0.7914  0.6934
  148MOL0     H20388  11.099   7.400   2.531  1.5560 -1.7271  0.8009
  148MOL0     H20389  11.180   7.526   2.434 -0.2873 -0.8138 -0.2340
  148MOL0     H20390  11.249   7.440   2.711  0.0954 -0.3661 -0.8619
  148MOL0     H20391  11.331   7.374   2.561  3.9014  1.3942 -0.9775
  148MOL0     H20392  11.338   7.653   2.639 -1.3677  0.4963 -2.9665
  148MOL0     H20393  11.402   7.586   2.489  1.5132 -3.6859 -0.5512
  148MOL0     H20394  11.540   7.438   2.673 -2.3399  0.2754 -3.2342
  148MOL0     H20395  11.493   7.568   2.780 -2.6040 -1.3891  0.1590
  148MOL0     H20396  11.631   7.591   2.510  0.2862  1.0334 -0.7856
  148MOL0     H20397  11.570   7.728   2.612 -0.6661 -0.8217  1.9488
  148MOL0     H20398  11.790   7.531   2.699  2.5006 -0.3323 -1.6338
  148MOL0     H20399  11.719   7.675   2.780 -0.2718  0.2335 -0.0736
  148MOL0     H20400  11.830   7.821   2.615 -1.3454 -0.3924  0.2034
  148MOL0     H20401  11.843   7.700   2.497 -0.0061  1.9927  0.8456
  148MOL0     H20402  12.004   7.702   2.750 -0.1610 -3.1282  0.1500
  148MOL0     H20403  12.042   7.784   2.604 -1.7034  1.1441  1.6040
  148MOL0     H20404  10.896   7.739   2.723 -0.4353  0.4347 -0.7052
  148MOL0     H20405  10.677   7.814   2.636 -2.2738 -1.4347 -0.1500
  148MOL0     H20406  10.334   7.804   2.487  1.2762  2.1824 -1.5267
  148MOL0     H20407  10.118   7.923   2.455  1.4104  3.7095 -1.2046
  148MOL0     H20408   8.687   7.518   1.473 -0.5054 -0.1649  0.3003
  148MOL0     H20409   8.453   7.423   1.542 -0.1668  0.2033 -0.2942
  148MOL0     H20410   8.111   7.159   1.407 -0.2497  0.1710 -2.1877
  148MOL0     H20411   7.896   7.087   1.505 -1.4841  0.5185 -0.7687
  148MOL0     H20412   7.670   7.034   1.589  1.7373  1.0624 -2.0514
  148MOL0     H20413   7.799   7.075   1.705  1.0960  0.4251  0.1479
  148MOL0     H20414   7.630   7.187   1.838 -2.6927  0.1784  0.2425
  148MOL0     H20415   7.618   7.006   1.814 -2.2878  0.5201  2.0049
  148MOL0     H20416   7.449   7.046   1.638 -1.1206 -0.0592  0.1641
  148MOL0     H20417   7.391   7.076   1.800 -2.4651  1.7296 -0.7149
  148MOL0     H20418   7.469   7.295   1.605  0.8728  0.1420  0.3375
  148MOL0     H20419   7.417   7.321   1.773  1.1408  1.1019 -1.1454
  148MOL0     H20420   7.055   7.245   1.555  0.9582  0.3889 -0.4852
  148MOL0     H20421   7.760   7.485   1.492  0.0633  0.6922 -0.9807
  148MOL0     H20422   7.963   7.612   1.259  1.3129  1.5600 -0.2887
  148MOL0     H20423   7.888   7.669   1.408  1.0080  1.4040  0.0572
  148MOL0     H20424   8.059   7.649   1.409  0.3375 -1.0391  0.5883
  149MOL0     O20425   9.193   7.495   5.759 -0.5700  0.0227 -0.2311
  149MOL0     C20426   9.305   7.482   5.708  0.3508 -0.0835  0.4288
  149MOL0     O20427   9.333   7.419   5.583 -0.3536  0.8708  0.6426
  149MOL0     C20428   9.229   7.364   5.502 -1.4601  0.0414  0.8449
  149MOL0     C20429   9.271   7.247   5.441 -0.3083  0.0047 -0.3361
  149MOL0     C20430   9.180   7.173   5.359  0.0019  0.4553 -1.1206
  149MOL0     C20431   9.043   7.222   5.336 -1.8106  0.0502 -1.2208
  149MOL0     O20432   8.970   7.144   5.249 -0.1039  0.3687 -0.8919
  149MOL0     C20433   8.847   7.091   5.294  0.1734  0.1587 -0.8195
  149MOL0     C20434   8.769   7.065   5.172  0.6376  0.7476 -0.2545
  149MOL0     C20435   8.835   6.964   5.076 -0.4605  0.0781 -0.0058
  149MOL0     C20436   8.739   6.929   4.960 -0.2095 -0.0802 -0.2286
  149MOL0     C20437   8.780   6.803   4.885  0.3649  0.8837 -0.5026
  149MOL0     C20438   8.930   6.787   4.853  0.2318 -0.0976  0.1998
  149MOL0     C20439   8.972   6.661   4.788 -0.2272 -0.4455 -0.3144
  149MOL0     C20440   8.978   6.533   4.873 -0.3545 -0.2138  0.4048
  149MOL0     N20441   9.036   6.430   4.782 -0.8894 -0.0093 -0.4550
  149MOL0     C20442   8.963   6.366   4.683  0.7206  0.2175 -0.3803
  149MOL0     C20443   9.029   6.249   4.668  0.1895  0.1502 -0.1472
  149MOL0     C20444   8.971   6.150   4.571 -0.4003 -0.1297 -0.1710
  149MOL0     C20445   8.992   6.195   4.424 -0.1530 -0.4903  0.2896
  149MOL0     C20446   8.866   6.243   4.349 -0.1714 -0.2412  0.2126
  149MOL0     C20447   8.906   6.307   4.213  0.4386  0.6355 -0.1300
  149MOL0     O20448   8.931   6.228   4.095 -1.1275 -0.4721 -0.4962
  149MOL0     C20449   9.053   6.232   4.029  1.1874  0.5076 -0.1601
  149MOL0     C20450   9.101   6.331   3.936 -0.6449  0.1742 -0.0674
  149MOL0     C20451   9.223   6.318   3.868 -0.7044 -0.6480  0.1624
  149MOL0     C20452   9.264   6.437   3.781 -0.1746 -0.9204 -0.8123
  149MOL0     C20453   9.304   6.201   3.891 -0.1930 -0.2807 -0.9393
  149MOL0     C20454   9.440   6.179   3.828 -0.6412 -0.6636 -0.2982
  149MOL0     O20455   9.517   6.082   3.870  0.1492  0.0917 -0.1131
  149MOL0     C20456   9.653   6.087   3.843 -0.0977  0.4248 -0.0704
  149MOL0     C20457   9.723   5.969   3.845  0.7434 -1.2773 -0.4677
  149MOL0     C20458   9.858   5.954   3.819  0.1058  0.5076 -0.4828
  149MOL0     C20459   9.941   6.065   3.799  0.2829  0.1317 -1.1932
  149MOL0     O20460  10.077   6.047   3.779 -0.0392  0.4027 -0.2726
  149MOL0     C20461  10.152   6.159   3.736 -0.5004 -0.2648 -0.2846
  149MOL0     C20462  10.289   6.118   3.672 -0.6117  0.0079  0.9050
  149MOL0     C20463  10.394   6.090   3.778 -0.2097 -0.9034  0.6117
  149MOL0     C20464  10.526   6.107   3.705 -0.3688 -0.0878 -0.1825
  149MOL0     C20465  10.635   6.093   3.812 -0.8657  0.0523  0.3496
  149MOL0     C20466  10.758   6.013   3.769 -0.0087  0.9569 -0.5207
  149MOL0     C20467  10.840   6.095   3.673  0.2587  0.0324  0.8140
  149MOL0     C20468  10.987   6.046   3.660 -0.2737 -0.0961  0.8642
  149MOL0    Cl20469  10.997   5.874   3.644 -0.2646  0.3474  0.2570
  149MOL0     C20470   9.871   6.194   3.802 -0.7949 -0.2862 -1.1338
  149MOL0     C20471   9.729   6.201   3.809 -0.6019  0.8725  0.3211
  149MOL0     O20472   9.471   6.251   3.740  0.0168 -0.3029  0.6631
  149MOL0     C20473   9.248   6.100   3.966  0.6750 -0.1724  0.3634
  149MOL0     C20474   9.127   6.117   4.039  0.4157 -0.4567  0.1355
  149MOL0     N20475   9.141   6.247   4.755  0.5422 -0.7680  0.3209
  149MOL0     N20476   9.139   6.351   4.823 -0.6339  0.3162  0.3413
  149MOL0     C20477   9.007   7.341   5.409  0.4309 -0.5282  0.6317
  149MOL0     C20478   9.100   7.410   5.480  0.8242  0.2148  0.1763
  149MOL0     C20479   9.412   7.563   5.766 -0.3998 -0.0218  0.3834
  149MOL0     C20480   9.510   7.619   5.682  0.1014  0.2023  0.3552
  149MOL0     C20481   9.611   7.709   5.727 -0.0044  0.0021 -0.6407
  149MOL0     C20482   9.620   7.733   5.872 -0.6972  0.3981  0.7493
  149MOL0     O20483   9.705   7.829   5.917 -0.2678 -0.1675 -0.1654
  149MOL0     C20484   9.806   7.899   5.833 -0.0599 -0.3881 -0.0701
  149MOL0     C20485   9.916   7.798   5.800 -0.2172  0.9435  0.6990
  149MOL0     C20486  10.014   7.845   5.698  0.2746 -0.1427 -0.1875
  149MOL0     C20487  10.116   7.743   5.642 -0.3014  0.2403 -0.0454
  149MOL0     C20488  10.173   7.660   5.752  0.4484 -0.3007 -0.0870
  149MOL0     C20489  10.216   7.588   5.839  0.2729 -0.0222 -0.4851
  149MOL0     C20490   9.530   7.662   5.957  0.1889  0.1030 -0.6261
  149MOL0     C20491   9.429   7.581   5.903 -0.1873  1.0997 -0.5373
  149MOL0     C20492   9.349   7.514   6.002  0.1561 -0.0893 -0.0495
  149MOL0     H20493   9.376   7.219   5.446 -0.3019  0.2133  1.0487
  149MOL0     H20494   9.215   7.079   5.319  1.6231  0.2097  0.7636
  149MOL0     H20495   8.791   7.165   5.351  0.7782 -0.3114  0.4151
  149MOL0     H20496   8.850   6.999   5.354 -2.1139 -0.6348 -1.8190
  149MOL0     H20497   8.675   7.017   5.203  1.1094  1.0312  1.7546
  149MOL0     H20498   8.747   7.161   5.126 -0.2767  1.4278  1.4970
  149MOL0     H20499   8.933   7.004   5.048 -0.4009 -0.7267 -0.9934
  149MOL0     H20500   8.856   6.871   5.130  0.1033 -0.1427 -0.5905
  149MOL0     H20501   8.641   6.911   5.006 -0.3628 -1.7583 -1.1803
  149MOL0     H20502   8.745   7.003   4.880  3.3712 -1.4434 -1.3892
  149MOL0     H20503   8.727   6.789   4.791 -0.9962 -5.1917  0.7379
  149MOL0     H20504   8.744   6.719   4.946  1.8279 -0.4224 -1.3762
  149MOL0     H20505   8.968   6.876   4.802  0.8234  1.2767  2.8470
  149MOL0     H20506   8.984   6.786   4.948 -0.2336 -1.4352  0.4814
  149MOL0     H20507   9.071   6.682   4.747 -0.0702  0.4396  0.4810
  149MOL0     H20508   8.892   6.637   4.716 -2.1482  0.9320  1.2428
  149MOL0     H20509   9.049   6.552   4.954  0.4721 -0.1359 -0.3209
  149MOL0     H20510   8.884   6.496   4.913 -0.1608 -0.9192  0.2202
  149MOL0     H20511   8.871   6.399   4.635  0.8570 -0.8595 -1.4621
  149MOL0     H20512   8.865   6.143   4.596 -1.3872  1.8741 -3.2895
  149MOL0     H20513   9.020   6.053   4.586 -0.9558  0.0284  3.7474
  149MOL0     H20514   9.067   6.274   4.425  0.2835 -0.8980  0.0025
  149MOL0     H20515   9.031   6.109   4.369  1.6302  0.6805 -0.3479
  149MOL0     H20516   8.807   6.154   4.326 -1.0841  0.5951 -0.8074
  149MOL0     H20517   8.794   6.308   4.401  1.0291  1.4036 -0.1249
  149MOL0     H20518   8.816   6.360   4.180  0.2162 -1.1002 -2.6003
  149MOL0     H20519   8.978   6.389   4.219  0.9927  0.3403 -2.1235
  149MOL0     H20520   9.040   6.417   3.911  1.3925  1.7857  0.2126
  149MOL0     H20521   9.307   6.403   3.686  3.7218  0.5400  0.2366
  149MOL0     H20522   9.343   6.488   3.838  1.8367 -3.0211 -1.5487
  149MOL0     H20523   9.173   6.495   3.767  0.3569 -0.2278 -1.5147
  149MOL0     H20524   9.663   5.879   3.847 -1.6471  0.2565  0.4443
  149MOL0     H20525   9.892   5.851   3.807 -2.6228 -0.1911 -5.5093
  149MOL0     H20526  10.095   6.207   3.656 -0.1425 -1.2659 -1.1637
  149MOL0     H20527  10.160   6.220   3.826  2.1484 -0.5381 -0.2598
  149MOL0     H20528  10.277   6.032   3.605 -0.7079 -1.2999  2.5395
  149MOL0     H20529  10.321   6.199   3.606  0.7091 -0.8768  0.4159
  149MOL0     H20530  10.387   5.989   3.820  1.1345 -0.8134  1.1115
  149MOL0     H20531  10.394   6.167   3.856  0.9561  0.0351 -0.2838
  149MOL0     H20532  10.548   6.204   3.659  1.8956 -0.0212  0.9280
  149MOL0     H20533  10.535   6.020   3.639  0.3856 -1.0232  1.1046
  149MOL0     H20534  10.656   6.196   3.841  1.0140 -0.3203  0.4433
  149MOL0     H20535  10.594   6.051   3.905 -3.2918  1.4179 -0.0098
  149MOL0     H20536  10.727   5.916   3.731 -1.2087  0.8893  0.5570
  149MOL0     H20537  10.814   5.989   3.860  0.4264 -1.1119 -1.2873
  149MOL0     H20538  10.835   6.199   3.704  0.6103 -0.7206  3.6529
  149MOL0     H20539  10.785   6.081   3.580 -2.6979  3.1578  1.8850
  149MOL0     H20540  11.039   6.072   3.752 -3.3210  2.1999  2.1299
  149MOL0     H20541  11.036   6.088   3.572  2.2091 -2.1298  1.1648
  149MOL0     H20542   9.917   6.290   3.778 -0.9353 -0.2289 -1.1735
  149MOL0     H20543   9.690   6.303   3.812  3.1259  2.4353  0.9974
  149MOL0     H20544   9.301   6.007   3.985 -2.7576 -2.5507 -0.7703
  149MOL0     H20545   9.107   6.043   4.116 -0.9818 -1.3187 -1.0078
  149MOL0     H20546   8.903   7.372   5.411 -0.1130 -2.2041  0.0479
  149MOL0     H20547   9.057   7.495   5.532  1.0114 -1.0737  2.5402
  149MOL0     H20548   9.496   7.601   5.575 -2.5992 -2.3302  0.9833
  149MOL0     H20549   9.676   7.766   5.661 -0.6409  0.5611 -0.7851
  149MOL0     H20550   9.763   7.946   5.744  0.2930 -0.5916 -0.3503
  149MOL0     H20551   9.846   7.981   5.893  0.7620  0.4220 -1.6727
  149MOL0     H20552   9.876   7.708   5.753  1.5483  0.6898 -0.3971
  149MOL0     H20553   9.965   7.769   5.894 -0.3797  0.5702  0.6698
  149MOL0     H20554   9.969   7.910   5.621 -0.6064 -0.4264  0.0775
  149MOL0     H20555  10.078   7.914   5.754 -2.0899  1.5413  0.6337
  149MOL0     H20556  10.201   7.789   5.590 -0.2230 -0.8481 -0.9164
  149MOL0     H20557  10.072   7.671   5.573  0.3336 -0.1140 -0.0947
  149MOL0     H20558  10.265   7.525   5.911  0.1275  0.9427  0.4953
  149MOL0     H20559   9.530   7.682   6.063 -1.9750 -0.4161 -0.4669
  149MOL0     H20560   9.249   7.558   6.012  1.1261  2.4581 -0.7103
  149MOL0     H20561   9.328   7.414   5.964 -1.7564  0.9610 -2.0212
  149MOL0     H20562   9.402   7.491   6.095  1.9086  2.0999 -0.4332
  150MOL0     O20563   5.326   6.682   8.139  0.0293  0.8166  0.2231
  150MOL0     C20564   5.271   6.730   8.239  0.2770  0.4654  0.4672
  150MOL0     O20565   5.299   6.854   8.296  0.2282 -0.4009  0.0070
  150MOL0     C20566   5.399   6.925   8.239  0.8660 -0.4540  0.9491
  150MOL0     C20567   5.365   7.028   8.143  0.4154  0.9162 -0.9437
  150MOL0     C20568   5.463   7.108   8.083  0.1559 -0.5418  0.1289
  150MOL0     C20569   5.600   7.086   8.121 -0.4983 -0.0953  0.3181
  150MOL0     O20570   5.684   7.174   8.071  0.6536  1.2769  0.3679
  150MOL0     C20571   5.820   7.159   8.103 -0.3030 -0.1349  0.9534
  150MOL0     C20572   5.891   7.272   8.026 -0.6552  0.6579  0.2505
  150MOL0     C20573   6.047   7.256   8.054  0.2280  0.0930 -0.3023
  150MOL0     C20574   6.120   7.357   7.969  1.0590  0.0859  0.1777
  150MOL0     C20575   6.263   7.342   8.006 -0.4360 -0.3287  0.4418
  150MOL0     C20576   6.359   7.423   7.920  0.0341 -0.4585  0.1026
  150MOL0     C20577   6.497   7.436   7.989 -0.8563 -0.6396 -0.0810
  150MOL0     C20578   6.587   7.326   7.938  0.0502 -0.3186  0.3517
  150MOL0     N20579   6.729   7.355   8.000 -0.2001  0.0611  0.0590
  150MOL0     C20580   6.775   7.309   8.113  0.2472 -0.1060 -1.2906
  150MOL0     C20581   6.892   7.359   8.140 -0.6199  0.5248 -0.0203
  150MOL0     C20582   6.980   7.327   8.259 -0.3373 -0.0505  0.8355
  150MOL0     C20583   7.070   7.450   8.294 -0.3562 -0.1382  0.0470
  150MOL0     C20584   7.206   7.458   8.211  0.6961 -0.0212  0.0236
  150MOL0     C20585   7.272   7.594   8.231  1.1710 -0.0259  0.2604
  150MOL0     O20586   7.355   7.620   8.120  0.3836  0.2580 -0.4110
  150MOL0     C20587   7.484   7.567   8.120 -0.2339  0.5845  0.6257
  150MOL0     C20588   7.544   7.463   8.200 -0.3807  0.0046 -0.8201
  150MOL0     C20589   7.670   7.419   8.175 -0.2986 -0.3198  0.6500
  150MOL0     C20590   7.735   7.332   8.289  0.6514  0.1460  0.5645
  150MOL0     C20591   7.743   7.468   8.062 -1.0336 -0.0330  0.2275
  150MOL0     C20592   7.886   7.431   8.018 -0.0264  1.3324 -0.1978
  150MOL0     O20593   7.976   7.394   8.113  0.4356  0.7299 -0.9367
  150MOL0     C20594   8.103   7.360   8.075  0.3831 -0.6138  0.1870
  150MOL0     C20595   8.136   7.264   7.976  1.1712 -0.8788 -0.0230
  150MOL0     C20596   8.264   7.223   7.964  0.0192 -0.4580 -0.4178
  150MOL0     C20597   8.371   7.289   8.030 -0.3869 -0.7043  0.2779
  150MOL0     O20598   8.509   7.268   8.007  0.0261 -0.0137  0.2412
  150MOL0     C20599   8.546   7.194   7.891 -0.4787  0.3142 -0.9643
  150MOL0     C20600   8.560   7.294   7.780 -0.1291 -0.7022 -0.1529
  150MOL0     C20601   8.693   7.363   7.806  0.2486 -0.3969  0.2203
  150MOL0     C20602   8.720   7.464   7.690 -0.1465 -0.3400 -0.7923
  150MOL0     C20603   8.856   7.523   7.700 -0.2631 -0.0416  0.4502
  150MOL0     C20604   8.881   7.628   7.584 -0.7034  0.5138 -0.7947
  150MOL0     C20605   9.017   7.700   7.578 -0.4356 -1.0844  0.4659
  150MOL0     C20606   9.059   7.783   7.694 -0.3043  0.2242 -0.8783
  150MOL0    Cl20607   9.173   7.914   7.639  0.1569  0.0637 -0.3554
  150MOL0     C20608   8.343   7.383   8.131  0.4794 -0.5324  0.4569
  150MOL0     C20609   8.208   7.414   8.151  1.0732 -0.5126 -0.0246
  150MOL0     O20610   7.901   7.431   7.891  0.0423 -0.6099 -0.5430
  150MOL0     C20611   7.690   7.575   7.987  0.0759  0.7100 -0.5235
  150MOL0     C20612   7.556   7.619   8.012 -0.5880 -0.3659 -0.0699
  150MOL0     N20613   6.928   7.448   8.038  0.2199 -0.2441  0.1374
  150MOL0     N20614   6.821   7.448   7.956 -0.3532 -0.0036  0.1573
  150MOL0     C20615   5.630   6.986   8.218  0.7678  0.0107 -0.1421
  150MOL0     C20616   5.530   6.911   8.275  0.8566 -0.0920 -0.0514
  150MOL0     C20617   5.147   6.662   8.296  1.1364  0.4861 -0.0945
  150MOL0     C20618   5.095   6.706   8.417 -0.3837 -0.5410 -0.1998
  150MOL0     C20619   4.983   6.656   8.479  0.6035  0.8897 -0.3381
  150MOL0     C20620   4.916   6.554   8.419 -0.0156  0.2710  0.8326
  150MOL0     O20621   4.809   6.514   8.495 -0.2440  0.2358  0.4457
  150MOL0     C20622   4.707   6.447   8.422 -0.3104 -0.2958  0.7605
  150MOL0     C20623   4.573   6.502   8.479 -0.2136  0.8420  0.1522
  150MOL0     C20624   4.530   6.410   8.600 -0.5467  0.1015 -0.3443
  150MOL0     C20625   4.628   6.421   8.717 -0.2005  0.3194 -0.9250
  150MOL0     C20626   4.549   6.404   8.840 -0.0350 -0.0143  0.3924
  150MOL0     C20627   4.492   6.389   8.948  0.5282 -0.4059  0.2371
  150MOL0     C20628   4.954   6.502   8.293 -0.0492 -0.3158  0.4210
  150MOL0     C20629   5.064   6.565   8.224  1.0437  0.4412  0.4974
  150MOL0     C20630   5.089   6.507   8.083  0.2678  0.0389 -0.1917
  150MOL0     H20631   5.260   7.041   8.119  0.5113 -1.2374 -2.8307
  150MOL0     H20632   5.435   7.189   8.017 -0.3972  0.2821  1.3340
  150MOL0     H20633   5.857   7.060   8.077 -1.2698  0.0654 -1.5045
  150MOL0     H20634   5.836   7.191   8.206  0.8139  0.6330  0.5598
  150MOL0     H20635   5.863   7.267   7.920 -1.0127 -2.7615  0.4057
  150MOL0     H20636   5.867   7.367   8.073 -1.1278  1.1463 -0.9307
  150MOL0     H20637   6.069   7.255   8.161 -0.1826 -3.2200 -0.1274
  150MOL0     H20638   6.074   7.151   8.037 -3.7461 -1.6283  2.4725
  150MOL0     H20639   6.091   7.338   7.865 -1.5714  0.1843  0.8294
  150MOL0     H20640   6.097   7.464   7.980  0.7065  0.0185  0.1250
  150MOL0     H20641   6.295   7.238   8.007 -0.9406 -0.4804  0.9843
  150MOL0     H20642   6.275   7.386   8.105  0.0195  0.1159  0.1958
  150MOL0     H20643   6.366   7.378   7.820 -0.3540 -1.7369  0.6319
  150MOL0     H20644   6.329   7.528   7.915  3.3554  0.6425  0.7235
  150MOL0     H20645   6.509   7.439   8.097 -1.3227 -2.3298  0.0597
  150MOL0     H20646   6.532   7.536   7.962 -4.6795  0.7991 -0.3427
  150MOL0     H20647   6.543   7.232   7.971  1.1531 -0.9341  0.1221
  150MOL0     H20648   6.592   7.340   7.830 -0.0605  2.1487  0.6099
  150MOL0     H20649   6.722   7.244   8.182  0.3967 -2.4996 -3.3217
  150MOL0     H20650   7.035   7.235   8.237 -0.5966  0.0233 -0.2126
  150MOL0     H20651   6.917   7.310   8.346 -1.1215  1.2306  0.5458
  150MOL0     H20652   7.011   7.541   8.286 -2.7396 -1.4342  1.7336
  150MOL0     H20653   7.079   7.446   8.403 -0.8435  0.5508  0.1172
  150MOL0     H20654   7.276   7.385   8.252  1.7630 -0.7635 -2.9097
  150MOL0     H20655   7.191   7.437   8.105  1.5702  1.3213 -0.3868
  150MOL0     H20656   7.190   7.665   8.226  0.0067 -1.4037 -2.2577
  150MOL0     H20657   7.329   7.600   8.324 -0.2378  0.6518  1.0981
  150MOL0     H20658   7.491   7.429   8.288  3.2203 -0.4739  1.3823
  150MOL0     H20659   7.742   7.228   8.256  2.5654 -0.2941  2.1962
  150MOL0     H20660   7.675   7.350   8.378 -0.0498  1.7834 -0.2022
  150MOL0     H20661   7.834   7.372   8.311  0.5358 -0.2255  1.8119
  150MOL0     H20662   8.058   7.220   7.915 -0.5799 -0.4305  1.7924
  150MOL0     H20663   8.289   7.144   7.894  3.5426  0.9613 -0.9703
  150MOL0     H20664   8.648   7.157   7.906  0.2155  2.0476 -1.0577
  150MOL0     H20665   8.489   7.104   7.865 -1.9625  0.9129  0.1060
  150MOL0     H20666   8.557   7.235   7.687 -0.2829 -4.5343  2.0657
  150MOL0     H20667   8.475   7.361   7.773 -1.0242 -1.7667  0.2190
  150MOL0     H20668   8.774   7.289   7.809 -0.1235 -0.8203 -0.0662
  150MOL0     H20669   8.691   7.405   7.907  1.7430 -0.5408  0.3363
  150MOL0     H20670   8.637   7.533   7.675 -0.8013 -0.9760 -0.1865
  150MOL0     H20671   8.717   7.400   7.601 -0.6352 -1.1702 -0.1957
  150MOL0     H20672   8.844   7.574   7.796 -0.0426  0.2101  0.3450
  150MOL0     H20673   8.941   7.453   7.703  0.2868  0.6525  1.4684
  150MOL0     H20674   8.799   7.701   7.582  1.0564  2.5982 -0.5680
  150MOL0     H20675   8.872   7.562   7.497  0.2756  2.0195 -2.0914
  150MOL0     H20676   9.009   7.753   7.483 -1.2991 -0.7759  0.7047
  150MOL0     H20677   9.094   7.627   7.552 -2.8214 -2.9523 -1.8419
  150MOL0     H20678   9.112   7.724   7.769  0.4642 -0.7007 -2.1152
  150MOL0     H20679   8.971   7.823   7.744 -0.3079  0.0177 -0.7175
  150MOL0     H20680   8.422   7.429   8.190  1.4857 -2.3301  0.5934
  150MOL0     H20681   8.182   7.484   8.230  2.0667  0.3791 -0.4614
  150MOL0     H20682   7.728   7.630   7.902 -0.2738 -0.2578 -1.3210
  150MOL0     H20683   7.520   7.700   7.949 -0.1687 -0.1123  0.0085
  150MOL0     H20684   5.731   6.967   8.253  1.1053  0.4787 -0.8392
  150MOL0     H20685   5.563   6.836   8.346  0.9172 -0.1003 -0.0885
  150MOL0     H20686   5.140   6.782   8.480 -1.3080  0.7842 -1.0853
  150MOL0     H20687   4.959   6.690   8.579  1.7792 -0.9870  0.6392
  150MOL0     H20688   4.702   6.469   8.314 -0.3180  3.1776  1.3310
  150MOL0     H20689   4.717   6.339   8.430  1.9356 -0.7818 -4.2292
  150MOL0     H20690   4.500   6.475   8.402 -2.1324 -2.6131  2.8891
  150MOL0     H20691   4.567   6.609   8.501 -0.7437  1.1952 -1.5590
  150MOL0     H20692   4.445   6.462   8.646  0.8428  1.1929  1.1305
  150MOL0     H20693   4.512   6.307   8.569  0.5766  0.3590 -1.9578
  150MOL0     H20694   4.672   6.521   8.727  1.8173 -0.7438  2.7768
  150MOL0     H20695   4.703   6.342   8.704 -1.8471 -1.7018  1.0875
  150MOL0     H20696   4.457   6.368   9.047  3.2825 -1.0226  1.1706
  150MOL0     H20697   4.894   6.428   8.241 -1.4998  1.0444  0.0685
  150MOL0     H20698   5.003   6.450   8.046 -1.3585  2.4082 -0.2710
  150MOL0     H20699   5.123   6.577   8.006 -1.8553 -0.5238 -1.7338
  150MOL0     H20700   5.171   6.435   8.099  1.4102  1.1196 -1.0143
  151MOL0     O20701   5.597   9.719  10.169  0.4238 -0.6723  0.4821
  151MOL0     C20702   5.570   9.702  10.051  0.1015  0.6577 -0.1850
  151MOL0     O20703   5.655   9.735   9.948 -0.0216 -0.4185 -0.1813
  151MOL0     C20704   5.790   9.723   9.971  0.1104  0.5493  0.1489
  151MOL0     C20705   5.854   9.630  10.058  0.0118  0.0809  0.1225
  151MOL0     C20706   5.992   9.614  10.053  0.4614  0.4370  0.2774
  151MOL0     C20707   6.064   9.690   9.964 -0.5765 -0.8698  0.7478
  151MOL0     O20708   6.205   9.649   9.960  0.4797  0.0504 -0.6227
  151MOL0     C20709   6.301   9.742   9.896  0.2937  0.4240 -0.6494
  151MOL0     C20710   6.440   9.670   9.900 -0.0376  0.0420 -0.0710
  151MOL0     C20711   6.542   9.754   9.978  1.3397 -0.0736  0.0399
  151MOL0     C20712   6.668   9.673   9.997 -0.2232 -0.5811  0.1318
  151MOL0     C20713   6.764   9.758  10.086 -0.0679  0.4138 -0.5332
  151MOL0     C20714   6.908   9.712  10.071 -0.4809  1.2221 -1.0027
  151MOL0     C20715   7.007   9.766  10.170 -0.2580 -0.5366 -0.3085
  151MOL0     C20716   7.143   9.695  10.172 -0.5131 -0.8490 -0.4621
  151MOL0     N20717   7.234   9.737  10.065  0.3927 -0.1658 -0.1901
  151MOL0     C20718   7.234   9.684   9.937  0.8045 -0.1177  0.0624
  151MOL0     C20719   7.291   9.768   9.858  0.4900 -0.2823  0.1295
  151MOL0     C20720   7.305   9.745   9.709 -0.1053 -0.0463  0.6325
  151MOL0     C20721   7.381   9.852   9.643 -0.0861 -0.3051  0.3406
  151MOL0     C20722   7.361   9.858   9.492 -0.6455  0.0653 -0.0139
  151MOL0     C20723   7.452   9.966   9.424 -0.2275 -0.5370  0.3053
  151MOL0     O20724   7.586   9.927   9.399  0.3979 -0.4048 -0.7315
  151MOL0     C20725   7.686  10.023   9.395  0.0650 -0.0852  0.7139
  151MOL0     C20726   7.668  10.162   9.385 -0.0692 -0.0371  0.0135
  151MOL0     C20727   7.780  10.250   9.384 -0.8701 -0.1334  0.2886
  151MOL0     C20728   7.734  10.394   9.376 -0.0765  0.5831  0.0110
  151MOL0     C20729   7.913  10.204   9.394  0.6316  0.3398  0.3063
  151MOL0     C20730   8.026  10.295   9.395 -0.1379 -0.0364 -1.2608
  151MOL0     O20731   8.151  10.240   9.364  0.2085 -0.0133 -0.7003
  151MOL0     C20732   8.266  10.308   9.404  0.2634  0.0422  0.0075
  151MOL0     C20733   8.359  10.228   9.471  0.2430  0.3359 -0.4602
  151MOL0     C20734   8.485  10.280   9.480 -0.5920  0.0533 -0.0545
  151MOL0     C20735   8.523  10.406   9.423  0.3025  0.2412 -0.2473
  151MOL0     O20736   8.651  10.448   9.438 -0.1804  0.4559 -0.6134
  151MOL0     C20737   8.676  10.583   9.389  0.4258  0.0048 -0.8043
  151MOL0     C20738   8.824  10.607   9.407 -0.1574 -0.1154  0.0732
  151MOL0     C20739   8.864  10.756   9.407 -0.7503  0.1235  0.0732
  151MOL0     C20740   9.012  10.773   9.431 -0.0408  0.2914 -0.0588
  151MOL0     C20741   9.062  10.922   9.457  0.0886  0.0931  0.0503
  151MOL0     C20742   9.053  11.002   9.333 -1.1897 -0.3866 -0.0748
  151MOL0     C20743   9.055  11.152   9.342 -0.6954 -0.0184  0.2427
  151MOL0     C20744   9.180  11.214   9.405  0.1395  0.6548  0.4347
  151MOL0    Cl20745   9.131  11.369   9.466 -0.3307 -0.1150 -0.3877
  151MOL0     C20746   8.420  10.480   9.360  0.4384  0.4125 -0.9456
  151MOL0     C20747   8.296  10.431   9.350 -0.2753 -0.7391 -0.1233
  151MOL0     O20748   8.014  10.413   9.415 -1.1976  0.6467 -0.2872
  151MOL0     C20749   7.926  10.066   9.422  0.4728 -0.0335  0.0574
  151MOL0     C20750   7.816   9.983   9.413 -0.7577 -0.1585 -0.2087
  151MOL0     N20751   7.336   9.877   9.937 -0.4949  0.0963  0.4088
  151MOL0     N20752   7.294   9.858  10.054 -0.3485  0.6229 -0.1457
  151MOL0     C20753   6.006   9.788   9.887  0.4131 -0.4149  0.2578
  151MOL0     C20754   5.870   9.808   9.885 -0.5669  0.8795 -0.5537
  151MOL0     C20755   5.432   9.664  10.023 -0.7152 -0.5221  0.1859
  151MOL0     C20756   5.379   9.685   9.889 -0.1205 -0.5619  0.9614
  151MOL0     C20757   5.250   9.650   9.857 -0.0213 -0.1226  0.1929
  151MOL0     C20758   5.164   9.592   9.952 -0.1060 -0.6342  0.0512
  151MOL0     O20759   5.037   9.566   9.930  0.5620  0.4405  0.3217
  151MOL0     C20760   4.971   9.619   9.813 -0.5492 -0.0747  0.0571
  151MOL0     C20761   4.823   9.583   9.821  0.6876  0.3925  0.0892
  151MOL0     C20762   4.758   9.653   9.944  0.2024 -0.1635 -0.3011
  151MOL0     C20763   4.696   9.565  10.049 -0.5513  0.2381 -0.2860
  151MOL0     C20764   4.669   9.654  10.163 -0.6940  1.1504  0.6320
  151MOL0     C20765   4.635   9.733  10.248 -0.5627 -0.4229  0.1415
  151MOL0     C20766   5.211   9.577  10.081 -0.0065 -0.4164 -0.3850
  151MOL0     C20767   5.344   9.611  10.122  0.1952  0.1802  1.1012
  151MOL0     C20768   5.372   9.590  10.264 -0.0995  0.2532 -0.7358
  151MOL0     H20769   5.819   9.565  10.138  0.4731 -0.5630 -0.1839
  151MOL0     H20770   6.044   9.538  10.112  1.2961  0.1997 -0.7441
  151MOL0     H20771   6.305   9.831   9.959  1.0276 -1.0850  1.5609
  151MOL0     H20772   6.273   9.761   9.792 -1.7140  0.0297 -0.2066
  151MOL0     H20773   6.428   9.564   9.925 -0.0351  0.2816  1.0101
  151MOL0     H20774   6.471   9.671   9.795 -0.5693 -2.3893 -0.3071
  151MOL0     H20775   6.564   9.841   9.914 -0.1944 -0.9435 -1.7977
  151MOL0     H20776   6.502   9.778  10.076 -1.7335 -1.3304 -0.7966
  151MOL0     H20777   6.639   9.573  10.029 -1.7452 -0.1856  0.0740
  151MOL0     H20778   6.720   9.658   9.902  0.4578  0.9004  0.2385
  151MOL0     H20779   6.733   9.734  10.188  2.0622  2.5571  0.7276
  151MOL0     H20780   6.750   9.865  10.071  0.9523  0.4843 -1.0277
  151MOL0     H20781   6.904   9.604  10.084  3.4194  0.9361 -0.9686
  151MOL0     H20782   6.935   9.732   9.966 -1.0245 -2.1692 -1.9043
  151MOL0     H20783   6.983   9.757  10.276  0.3255  1.3710  0.0192
  151MOL0     H20784   7.012   9.875  10.157 -0.3406 -0.6935 -1.8496
  151MOL0     H20785   7.188   9.715  10.270 -0.1854 -0.7174 -0.6370
  151MOL0     H20786   7.120   9.589  10.162  2.8074 -1.7881  0.6766
  151MOL0     H20787   7.200   9.587   9.901  0.9061 -0.4481  0.8250
  151MOL0     H20788   7.202   9.736   9.674  0.1980  1.9562 -0.9366
  151MOL0     H20789   7.351   9.651   9.678 -1.9896  0.3124 -4.1833
  151MOL0     H20790   7.336   9.944   9.682 -4.0747 -1.8467 -0.0999
  151MOL0     H20791   7.483   9.870   9.677 -1.3560  2.7171  3.1669
  151MOL0     H20792   7.387   9.763   9.445  2.4137  1.1410 -0.6987
  151MOL0     H20793   7.256   9.886   9.476 -0.9592 -1.9400 -2.0431
  151MOL0     H20794   7.417   9.983   9.322  1.5051 -1.2891 -0.4589
  151MOL0     H20795   7.449  10.061   9.478  0.5032 -0.3922  0.0975
  151MOL0     H20796   7.570  10.208   9.379 -0.0283 -0.0787 -1.0080
  151MOL0     H20797   7.763  10.448   9.467  1.2728  0.7445 -0.5019
  151MOL0     H20798   7.625  10.405   9.365  0.2105  1.2288 -2.9279
  151MOL0     H20799   7.763  10.443   9.283 -1.0847  0.2501 -0.4943
  151MOL0     H20800   8.348  10.136   9.529  1.5247  2.7580  4.1072
  151MOL0     H20801   8.558  10.225   9.539 -1.2577 -1.3983 -0.5340
  151MOL0     H20802   8.644  10.596   9.285 -0.9371  2.5606 -0.1471
  151MOL0     H20803   8.608  10.652   9.439 -1.5187 -2.0592 -0.4043
  151MOL0     H20804   8.868  10.569   9.500 -0.7995  2.5335  1.5599
  151MOL0     H20805   8.883  10.564   9.326 -1.5116 -1.9441 -0.0051
  151MOL0     H20806   8.810  10.804   9.490  0.5276 -0.4286  1.2569
  151MOL0     H20807   8.835  10.815   9.320 -0.9605  0.1094  0.1323
  151MOL0     H20808   9.069  10.750   9.341  1.5067 -1.3395  1.2541
  151MOL0     H20809   9.045  10.704   9.509 -1.1943  0.9967  1.0999
  151MOL0     H20810   9.000  10.957   9.540 -2.0291 -1.5077 -0.7618
  151MOL0     H20811   9.167  10.924   9.487  0.4413 -2.1157 -0.8659
  151MOL0     H20812   8.968  10.977   9.268 -1.8714  0.4038  0.4885
  151MOL0     H20813   9.137  10.969   9.271 -1.5486  4.3123 -3.6318
  151MOL0     H20814   8.968  11.172   9.405 -1.3844 -3.2029  0.4983
  151MOL0     H20815   9.049  11.203   9.246 -0.4519  4.7855  2.5228
  151MOL0     H20816   9.258  11.220   9.328  1.2049 -1.9598  1.2093
  151MOL0     H20817   9.216  11.151   9.487  0.6780  0.2466 -0.1058
  151MOL0     H20818   8.439  10.577   9.313  1.5597  0.9126  0.4765
  151MOL0     H20819   8.219  10.486   9.296  0.9242  0.9990 -0.1693
  151MOL0     H20820   8.025  10.031   9.448  0.4540 -0.4742 -0.4389
  151MOL0     H20821   7.827   9.876   9.429 -2.7835 -0.4025 -0.1385
  151MOL0     H20822   6.063   9.856   9.825  0.9499  1.2540  2.4341
  151MOL0     H20823   5.825   9.887   9.826 -1.6805 -2.3083 -4.4081
  151MOL0     H20824   5.441   9.721   9.808 -1.8086 -0.7277 -0.4666
  151MOL0     H20825   5.212   9.665   9.757 -6.5926 -3.7885  1.5795
  151MOL0     H20826   4.991   9.726   9.804 -2.2662  0.5415  2.5739
  151MOL0     H20827   5.011   9.570   9.724  0.6329 -0.3969  0.7488
  151MOL0     H20828   4.814   9.474   9.825  0.6002  0.2555 -2.3665
  151MOL0     H20829   4.770   9.606   9.728 -0.9015  0.1703  0.8990
  151MOL0     H20830   4.845   9.702   9.988  3.3334 -2.4529 -3.3463
  151MOL0     H20831   4.675   9.717   9.914 -0.4163 -1.0971 -0.6009
  151MOL0     H20832   4.762   9.483  10.080  1.6472  2.6778  1.8888
  151MOL0     H20833   4.598   9.525  10.019 -1.0153  1.4512 -0.4629
  151MOL0     H20834   4.601   9.793  10.330  1.9326  0.1810  0.8137
  151MOL0     H20835   5.138   9.538  10.152  2.4199 -3.0486  0.8594
  151MOL0     H20836   5.282   9.570  10.324 -0.4877  0.9523 -1.0715
  151MOL0     H20837   5.452   9.523  10.296  0.4118  1.0609 -0.2887
  151MOL0     H20838   5.403   9.681  10.316  1.3499 -1.9089  2.5651
  152MOL0     O20839   5.869   8.149  10.182  0.6616  0.0527 -0.1388
  152MOL0     C20840   5.789   8.228  10.139  0.3295 -0.6990  0.2255
  152MOL0     O20841   5.807   8.312  10.035  0.5984 -0.3532  0.5021
  152MOL0     C20842   5.923   8.326   9.971  0.2547  1.1744  0.3312
  152MOL0     C20843   6.054   8.345  10.036  0.1666  0.4584 -0.1922
  152MOL0     C20844   6.163   8.376   9.951  0.8677 -0.3490 -0.7984
  152MOL0     C20845   6.148   8.380   9.813 -0.6373  0.1502 -0.1730
  152MOL0     O20846   6.247   8.403   9.718  0.6089 -0.5647  0.7010
  152MOL0     C20847   6.380   8.364   9.753 -0.3268 -0.6181  0.0131
  152MOL0     C20848   6.458   8.332   9.626 -0.0111  0.1828 -0.4539
  152MOL0     C20849   6.464   8.442   9.516 -0.1572 -0.8202 -0.1468
  152MOL0     C20850   6.592   8.529   9.529  0.8171  0.4027  0.0651
  152MOL0     C20851   6.613   8.617   9.400  0.4760 -0.2158 -0.8154
  152MOL0     C20852   6.693   8.745   9.431 -0.0708  1.4710  0.5074
  152MOL0     C20853   6.697   8.840   9.300  0.1012 -0.0500  0.2314
  152MOL0     C20854   6.734   8.983   9.343  1.2989 -0.5406 -0.3993
  152MOL0     N20855   6.631   9.060   9.419 -0.0634  0.8142  0.4728
  152MOL0     C20856   6.516   9.108   9.367 -0.3224 -0.1306  0.9795
  152MOL0     C20857   6.462   9.176   9.470 -0.4631 -0.3156  0.5160
  152MOL0     C20858   6.323   9.233   9.463 -0.8756  0.5901 -0.1726
  152MOL0     C20859   6.220   9.129   9.518 -0.1341  2.1634  0.4729
  152MOL0     C20860   6.113   9.210   9.574  0.4786 -0.0538 -0.5472
  152MOL0     C20861   5.972   9.139   9.568 -0.6277 -0.3227  0.4295
  152MOL0     O20862   5.891   9.211   9.661  0.5248 -0.4304  0.4446
  152MOL0     C20863   5.759   9.195   9.656 -0.2391  0.6936 -0.6445
  152MOL0     C20864   5.702   9.315   9.679 -0.7976 -0.2968  0.6278
  152MOL0     C20865   5.566   9.326   9.682  0.4043 -0.5578 -0.3302
  152MOL0     C20866   5.512   9.465   9.700 -0.0445 -0.9797 -0.7456
  152MOL0     C20867   5.489   9.217   9.623  0.9370 -0.4510 -0.4223
  152MOL0     C20868   5.336   9.228   9.595 -0.6818 -0.9003  0.3620
  152MOL0     O20869   5.263   9.324   9.659 -0.0862 -0.0717 -0.1130
  152MOL0     C20870   5.135   9.336   9.616 -0.1455 -0.1679 -0.5334
  152MOL0     C20871   5.034   9.277   9.701 -0.6493  0.0705 -0.0460
  152MOL0     C20872   4.903   9.285   9.658  0.6520 -0.0990  0.5466
  152MOL0     C20873   4.873   9.353   9.538 -0.4120  0.0303 -0.5513
  152MOL0     O20874   4.748   9.359   9.487 -0.2210  0.2360  0.3276
  152MOL0     C20875   4.624   9.351   9.565  0.6280  0.1258 -0.3985
  152MOL0     C20876   4.522   9.368   9.460 -0.3562  0.2152  0.2554
  152MOL0     C20877   4.385   9.390   9.514  0.6310 -0.2262 -0.1985
  152MOL0     C20878   4.277   9.435   9.408 -0.3402 -1.4103 -0.7956
  152MOL0     C20879   4.147   9.452   9.481  0.6492  0.2213 -0.1831
  152MOL0     C20880   4.051   9.530   9.392  0.8996 -0.8597  0.1698
  152MOL0     C20881   3.907   9.530   9.444  0.6305 -0.2915  0.5617
  152MOL0     C20882   3.805   9.595   9.341 -0.3171 -0.5617  0.3576
  152MOL0    Cl20883   3.784   9.488   9.200  0.0645 -0.3585  0.2757
  152MOL0     C20884   4.974   9.408   9.469 -0.6137 -0.5480 -0.4702
  152MOL0     C20885   5.101   9.395   9.497 -0.7498  0.3898 -0.8498
  152MOL0     O20886   5.292   9.150   9.504  0.4362  0.1369  0.1792
  152MOL0     C20887   5.548   9.085   9.598 -0.4713 -0.4713  0.2140
  152MOL0     C20888   5.687   9.078   9.617 -0.2989  0.0178 -0.6085
  152MOL0     N20889   6.545   9.169   9.582 -0.1172  0.3857 -0.2641
  152MOL0     N20890   6.649   9.103   9.543  0.3544  0.0243 -0.0395
  152MOL0     C20891   6.026   8.356   9.755  0.0894  0.2436  0.7382
  152MOL0     C20892   5.916   8.330   9.832  0.3344  0.0158  1.1880
  152MOL0     C20893   5.659   8.247  10.213 -0.8675 -0.4147  0.1726
  152MOL0     C20894   5.549   8.281  10.128  0.1134  0.3540  0.3139
  152MOL0     C20895   5.421   8.289  10.184 -0.0527  0.4130  0.4238
  152MOL0     C20896   5.400   8.264  10.314  0.5442 -0.8044  0.2523
  152MOL0     O20897   5.281   8.258  10.381  0.1244 -0.3855  0.1167
  152MOL0     C20898   5.159   8.282  10.300  0.3362  0.7604  0.3223
  152MOL0     C20899   5.041   8.283  10.396 -0.1513 -0.2324 -0.6965
  152MOL0     C20900   5.005   8.150  10.453  0.3737  0.1009  0.1795
  152MOL0     C20901   4.854   8.155  10.476 -0.0102 -0.0449 -0.0463
  152MOL0     C20902   4.776   8.122  10.354  0.5058  0.5938  0.3534
  152MOL0     C20903   4.703   8.092  10.266  0.9482  0.6482 -0.2085
  152MOL0     C20904   5.508   8.243  10.398 -0.0283  0.4582 -0.4217
  152MOL0     C20905   5.635   8.237  10.355  0.3261 -0.7520 -0.6344
  152MOL0     C20906   5.739   8.215  10.460 -0.2941  0.3459  0.0403
  152MOL0     H20907   6.070   8.328  10.141 -1.5333  1.0438  0.2055
  152MOL0     H20908   6.259   8.401   9.996  0.0829  2.4649 -0.5096
  152MOL0     H20909   6.387   8.282   9.825  2.3012 -0.8799 -0.4589
  152MOL0     H20910   6.443   8.441   9.798  0.6373 -2.1384  1.3857
  152MOL0     H20911   6.555   8.318   9.676  0.1772  0.0904 -0.8469
  152MOL0     H20912   6.418   8.236   9.592  1.6557 -1.7951  2.6170
  152MOL0     H20913   6.473   8.390   9.420 -1.2422 -2.3574  0.5196
  152MOL0     H20914   6.369   8.497   9.522 -0.1136 -0.6668 -0.8461
  152MOL0     H20915   6.570   8.587   9.619 -0.9079  1.9948 -1.3065
  152MOL0     H20916   6.674   8.456   9.535 -0.3229 -1.0972 -1.6236
  152MOL0     H20917   6.515   8.646   9.362  0.9914  2.4568 -0.3253
  152MOL0     H20918   6.658   8.551   9.325  1.3689 -0.4404 -0.1017
  152MOL0     H20919   6.645   8.794   9.516 -0.7316  2.3519 -0.3423
  152MOL0     H20920   6.797   8.728   9.459 -0.2403 -1.5355 -0.3878
  152MOL0     H20921   6.597   8.838   9.254  0.6865  1.2385 -1.1461
  152MOL0     H20922   6.774   8.795   9.237  0.6308 -3.0665  2.7244
  152MOL0     H20923   6.830   8.986   9.395  0.9595  3.6588  0.3401
  152MOL0     H20924   6.744   9.054   9.261 -1.9670  0.8357  0.2293
  152MOL0     H20925   6.473   9.089   9.269  1.4291  1.1926 -0.0963
  152MOL0     H20926   6.288   9.241   9.360 -2.6540  2.2321  0.4793
  152MOL0     H20927   6.320   9.331   9.512 -0.1712  0.2082  0.6627
  152MOL0     H20928   6.188   9.061   9.438 -0.1017  2.6254  0.0634
  152MOL0     H20929   6.256   9.063   9.598 -0.2866 -1.0059 -1.8765
  152MOL0     H20930   6.130   9.221   9.681 -2.5679 -1.9621  0.2483
  152MOL0     H20931   6.101   9.306   9.522 -1.6260 -0.1864 -0.3897
  152MOL0     H20932   5.930   9.139   9.467 -1.1252 -1.8618  0.6124
  152MOL0     H20933   5.987   9.033   9.591  1.4838 -0.4458 -1.1508
  152MOL0     H20934   5.765   9.404   9.686 -0.0894 -0.6776 -0.5987
  152MOL0     H20935   5.580   9.549   9.711 -0.3276 -0.8837  0.5002
  152MOL0     H20936   5.454   9.455   9.793  0.2264 -0.3579 -0.5102
  152MOL0     H20937   5.437   9.493   9.626  0.2360  0.9927 -0.3379
  152MOL0     H20938   5.076   9.224   9.785  2.3496 -0.9483 -2.0283
  152MOL0     H20939   4.828   9.233   9.718 -0.6604 -0.2656 -1.1671
  152MOL0     H20940   4.614   9.254   9.615 -0.8887 -0.3964 -1.6317
  152MOL0     H20941   4.623   9.435   9.634  1.3324  0.4537 -0.7816
  152MOL0     H20942   4.549   9.450   9.393 -1.2392 -0.4879 -0.9786
  152MOL0     H20943   4.521   9.278   9.399  1.3927  0.6986 -0.5587
  152MOL0     H20944   4.397   9.469   9.589 -0.2682 -0.2893  0.0249
  152MOL0     H20945   4.353   9.306   9.575  1.7599  0.1183  0.9277
  152MOL0     H20946   4.261   9.371   9.321  1.0346 -0.8652 -1.4773
  152MOL0     H20947   4.305   9.534   9.371 -1.9126 -0.5720  0.1242
  152MOL0     H20948   4.107   9.351   9.486 -0.6370  0.7267  0.2790
  152MOL0     H20949   4.156   9.507   9.575  0.0676  0.4319 -0.2439
  152MOL0     H20950   4.045   9.486   9.292 -1.3108  1.2719 -0.7414
  152MOL0     H20951   4.075   9.637   9.384 -0.1777 -0.2879  3.2882
  152MOL0     H20952   3.910   9.591   9.535 -1.4223  0.3610  0.2307
  152MOL0     H20953   3.882   9.429   9.476 -0.8991 -0.0579  0.1947
  152MOL0     H20954   3.842   9.692   9.308 -1.8495  0.1645  0.7176
  152MOL0     H20955   3.709   9.608   9.391  0.0880 -1.3606  1.4042
  152MOL0     H20956   4.951   9.453   9.373  2.8816 -2.5975 -2.4772
  152MOL0     H20957   5.189   9.428   9.443 -1.4194  0.7182 -1.7509
  152MOL0     H20958   5.501   8.996   9.559 -1.6384 -0.9836  2.5767
  152MOL0     H20959   5.747   8.989   9.600  0.1586 -0.6484  3.5964
  152MOL0     H20960   6.023   8.361   9.647 -0.9905 -1.9069  0.6254
  152MOL0     H20961   5.820   8.319   9.783  0.6153 -1.1619  0.8703
  152MOL0     H20962   5.575   8.298  10.024 -2.5968 -0.1475 -0.5225
  152MOL0     H20963   5.336   8.310  10.119  0.2248  2.7137  0.7133
  152MOL0     H20964   5.165   8.373  10.240  1.6185 -0.1995 -1.0673
  152MOL0     H20965   5.141   8.204  10.226  2.6624  0.9673 -0.5384
  152MOL0     H20966   4.959   8.332  10.343 -1.6872  0.8045  2.4195
  152MOL0     H20967   5.071   8.349  10.478  0.2965 -2.0715  0.6816
  152MOL0     H20968   5.032   8.073  10.379 -2.2329  0.5299 -1.3471
  152MOL0     H20969   5.055   8.134  10.549  0.7390 -0.8440 -0.1501
  152MOL0     H20970   4.819   8.244  10.529 -0.0231  0.4272 -0.8256
  152MOL0     H20971   4.829   8.074  10.545  0.8966 -0.9358 -0.7339
  152MOL0     H20972   4.627   8.070  10.193 -0.7020  0.2990  1.5356
  152MOL0     H20973   5.494   8.245  10.505 -0.0199 -0.1488 -0.4013
  152MOL0     H20974   5.691   8.156  10.538 -3.3909 -0.8350 -2.5490
  152MOL0     H20975   5.819   8.157  10.411  0.8506  0.5794  1.5601
  152MOL0     H20976   5.797   8.304  10.487 -0.2105  0.2172  0.2895
  153MOL0     O20977   0.354  11.322   1.661  0.0484 -0.0221 -0.4625
  153MOL0     C20978   0.304  11.218   1.706  0.6571  0.0338  0.5934
  153MOL0     O20979   0.372  11.124   1.778  0.3116  0.7967 -0.0689
  153MOL0     C20980   0.506  11.162   1.804  0.6141  0.7360 -0.5669
  153MOL0     C20981   0.606  11.136   1.714 -0.4982  0.3118  0.0775
  153MOL0     C20982   0.738  11.161   1.755  0.4229 -0.1834  0.0199
  153MOL0     C20983   0.763  11.234   1.873  0.3274 -0.1456  0.2784
  153MOL0     O20984   0.895  11.260   1.910  0.0206 -0.2276 -0.2987
  153MOL0     C20985   0.998  11.177   1.842  0.4336 -0.1749 -0.4877
  153MOL0     C20986   1.139  11.209   1.884  0.1061  0.0051  0.0101
  153MOL0     C20987   1.228  11.174   1.769 -0.3595  0.1151  0.1265
  153MOL0     C20988   1.370  11.232   1.805  1.2039  0.0587 -0.8098
  153MOL0     C20989   1.460  11.215   1.686 -0.8438 -0.3024  0.5128
  153MOL0     C20990   1.583  11.305   1.673 -0.1421  0.0254 -0.3192
  153MOL0     C20991   1.556  11.447   1.628  0.5034 -0.0855 -0.2753
  153MOL0     C20992   1.675  11.545   1.619 -0.1570  0.0197  0.5369
  153MOL0     N20993   1.765  11.503   1.509  0.0312 -0.0104 -0.1908
  153MOL0     C20994   1.865  11.418   1.525 -0.2333  0.3005 -0.5879
  153MOL0     C20995   1.940  11.437   1.408  0.3817 -0.8142  0.0947
  153MOL0     C20996   2.067  11.366   1.382 -0.1366 -0.1302  0.8751
  153MOL0     C20997   2.185  11.457   1.371  0.1626  0.0192 -0.1260
  153MOL0     C20998   2.317  11.371   1.349 -0.8725  0.2903  0.5245
  153MOL0     C20999   2.460  11.444   1.343  0.3028  0.3888  0.6110
  153MOL0     O21000   2.464  11.560   1.264 -0.3259  0.7091 -0.1010
  153MOL0     C21001   2.588  11.617   1.238 -0.1716  0.3416  0.2126
  153MOL0     C21002   2.595  11.739   1.171 -0.5105  0.3779 -0.2790
  153MOL0     C21003   2.714  11.792   1.131  0.1947 -0.5334 -0.3891
  153MOL0     C21004   2.713  11.925   1.076  0.1849  0.4003 -0.4187
  153MOL0     C21005   2.837  11.726   1.160 -0.4675  0.1330  0.4799
  153MOL0     C21006   2.976  11.760   1.101 -0.2462  0.3435  0.1179
  153MOL0     O21007   3.046  11.651   1.055 -0.1432 -0.0759  0.2850
  153MOL0     C21008   3.179  11.654   1.033  0.6517 -0.0198  0.4238
  153MOL0     C21009   3.245  11.697   0.918  0.2717  0.3078 -0.2046
  153MOL0     C21010   3.389  11.704   0.916  0.0579 -0.5912 -0.0944
  153MOL0     C21011   3.466  11.670   1.031  0.4127 -0.3935  0.6659
  153MOL0     O21012   3.604  11.674   1.028  1.0313 -0.3554  0.1022
  153MOL0     C21013   3.681  11.638   1.148  0.5179 -0.4665  0.5795
  153MOL0     C21014   3.824  11.667   1.118 -0.8158 -0.2800 -0.2755
  153MOL0     C21015   3.907  11.561   1.046 -0.1808 -0.2976  0.0611
  153MOL0     C21016   4.050  11.598   1.028  0.3863 -0.1443  0.1121
  153MOL0     C21017   4.135  11.473   0.993  0.1302  0.1264  0.7605
  153MOL0     C21018   4.284  11.512   0.961 -0.2800 -0.7460 -0.7347
  153MOL0     C21019   4.311  11.584   0.828 -0.0662  0.7362  0.4577
  153MOL0     C21020   4.280  11.488   0.707  0.3539  0.3063  0.2744
  153MOL0    Cl21021   4.382  11.346   0.702  0.3506 -0.2517 -0.1060
  153MOL0     C21022   3.397  11.629   1.148  0.4092 -0.0441 -0.2147
  153MOL0     C21023   3.262  11.617   1.146  0.0155 -0.2416  0.0600
  153MOL0     O21024   3.018  11.874   1.097 -0.3379  0.0761 -0.5496
  153MOL0     C21025   2.828  11.615   1.238 -0.3504 -0.1567  1.0063
  153MOL0     C21026   2.708  11.560   1.281 -0.8078  0.0411 -0.0583
  153MOL0     N21027   1.864  11.513   1.321 -0.4739  0.3825  0.2223
  153MOL0     N21028   1.752  11.555   1.389 -0.2744 -0.0504 -0.1118
  153MOL0     C21029   0.661  11.270   1.954  0.3737 -0.1561 -0.9970
  153MOL0     C21030   0.534  11.234   1.927  0.2518  0.1039 -0.5316
  153MOL0     C21031   0.163  11.183   1.679  0.0767  0.5960 -0.3537
  153MOL0     C21032   0.099  11.102   1.774 -0.1402  0.1250  0.4162
  153MOL0     C21033  -0.038  11.063   1.765  0.2797  0.0845 -0.0540
  153MOL0     C21034  -0.105  11.101   1.645 -0.2322 -0.0096  0.0764
  153MOL0     O21035  -0.237  11.076   1.612  0.0586  0.3191  0.4673
  153MOL0     C21036  -0.333  11.014   1.701  0.2714  0.0307 -0.2929
  153MOL0     C21037  -0.458  11.098   1.719  0.2822  0.2489  0.5159
  153MOL0     C21038  -0.539  11.106   1.584  0.8103  0.0360 -0.2326
  153MOL0     C21039  -0.583  11.246   1.547  0.0863  0.3232  0.2269
  153MOL0     C21040  -0.468  11.328   1.517 -0.2374  0.1883 -0.7814
  153MOL0     C21041  -0.365  11.390   1.498  0.6069  0.5344  1.5056
  153MOL0     C21042  -0.046  11.191   1.553  0.3734 -0.4001 -0.4892
  153MOL0     C21043   0.091  11.236   1.570 -0.2261  1.1379 -0.1327
  153MOL0     C21044   0.164  11.311   1.464 -0.1698 -0.5148 -0.0466
  153MOL0     H21045   0.590  11.101   1.612  2.2628  0.0759 -0.3377
  153MOL0     H21046   0.809  11.133   1.678 -0.8892 -1.2232 -0.8615
  153MOL0     H21047   0.993  11.202   1.735  0.9466  2.6491  0.0698
  153MOL0     H21048   0.978  11.071   1.860  1.7615 -0.6806 -1.6874
  153MOL0     H21049   1.153  11.315   1.905  1.9006 -0.1347 -0.3282
  153MOL0     H21050   1.171  11.148   1.970  0.1485  0.7489  0.5285
  153MOL0     H21051   1.239  11.068   1.743 -1.9779  0.4665 -2.3188
  153MOL0     H21052   1.189  11.220   1.678  1.2565  0.3125 -0.5051
  153MOL0     H21053   1.366  11.337   1.835  2.4581 -0.4541  1.3490
  153MOL0     H21054   1.407  11.188   1.899  0.2211  0.5145 -0.1904
  153MOL0     H21055   1.395  11.237   1.601  1.3649 -0.4860 -1.2904
  153MOL0     H21056   1.491  11.111   1.678 -0.6143 -0.2400  0.5927
  153MOL0     H21057   1.638  11.313   1.768  2.4409 -0.6565 -1.6534
  153MOL0     H21058   1.654  11.258   1.604  1.5200  1.3224  0.4426
  153MOL0     H21059   1.484  11.491   1.697 -1.0811 -1.4062 -1.0083
  153MOL0     H21060   1.512  11.435   1.528  2.3125  0.8187 -1.2316
  153MOL0     H21061   1.633  11.645   1.606 -0.5547 -0.3879 -1.8770
  153MOL0     H21062   1.736  11.564   1.708  0.7641 -0.5984  0.0539
  153MOL0     H21063   1.895  11.355   1.608 -1.2650 -0.4847 -0.7986
  153MOL0     H21064   2.067  11.322   1.282  0.2605  0.4289  0.6180
  153MOL0     H21065   2.074  11.280   1.448 -0.6650 -1.2868 -0.5419
  153MOL0     H21066   2.155  11.521   1.288 -1.4528 -2.1976 -1.3239
  153MOL0     H21067   2.193  11.515   1.464  0.5877 -0.4272  0.1231
  153MOL0     H21068   2.318  11.300   1.432  1.1217 -1.5348 -0.9440
  153MOL0     H21069   2.301  11.319   1.254 -1.4947  0.4656  0.5323
  153MOL0     H21070   2.508  11.465   1.439  4.4781 -0.5884 -1.0218
  153MOL0     H21071   2.533  11.370   1.308  0.4334  0.4737  0.7015
  153MOL0     H21072   2.496  11.780   1.153 -2.6803 -4.3458 -0.6171
  153MOL0     H21073   2.691  11.914   0.970  0.0422  1.7504 -0.5421
  153MOL0     H21074   2.804  11.985   1.087 -1.3365  2.7172  0.1646
  153MOL0     H21075   2.636  11.985   1.125  0.6739  0.4612  0.2996
  153MOL0     H21076   3.170  11.710   0.840 -3.4701 -0.9080  2.8487
  153MOL0     H21077   3.433  11.736   0.823 -0.6763  1.7142  0.2933
  153MOL0     H21078   3.659  11.702   1.234  1.7400 -0.6949  1.0842
  153MOL0     H21079   3.660  11.535   1.180  5.2630 -0.9205  3.0746
  153MOL0     H21080   3.826  11.754   1.053  0.5916 -2.0306 -2.7172
  153MOL0     H21081   3.874  11.690   1.213 -1.5584  0.5019 -0.0672
  153MOL0     H21082   3.851  11.547   0.954 -1.8793  4.1467  0.1486
  153MOL0     H21083   3.896  11.479   1.118  0.6631  0.7198  1.4283
  153MOL0     H21084   4.095  11.641   1.118 -1.2125 -0.9590  1.3441
  153MOL0     H21085   4.065  11.669   0.947  2.8887 -3.2101 -2.3909
  153MOL0     H21086   4.136  11.395   1.070 -1.3512 -2.9817 -2.1161
  153MOL0     H21087   4.084  11.434   0.904  1.1050  0.6273 -0.0406
  153MOL0     H21088   4.335  11.415   0.966 -1.1636 -1.1653  0.3370
  153MOL0     H21089   4.319  11.576   1.042 -1.5654  2.8248 -2.7622
  153MOL0     H21090   4.413  11.623   0.824  0.7132 -1.2683 -0.2161
  153MOL0     H21091   4.243  11.669   0.812  0.9449  1.2711 -1.2131
  153MOL0     H21092   4.288  11.545   0.614  0.0828 -1.0172 -0.5787
  153MOL0     H21093   4.173  11.462   0.708  0.3404  0.2840 -0.7493
  153MOL0     H21094   3.450  11.582   1.230 -2.0196 -0.5635  1.1765
  153MOL0     H21095   3.220  11.581   1.239  1.8306 -0.3281  0.9020
  153MOL0     H21096   2.924  11.574   1.271 -0.2784  0.4456  1.5622
  153MOL0     H21097   2.719  11.471   1.343 -0.4061  1.4040  1.9524
  153MOL0     H21098   0.699  11.310   2.047 -2.2575 -0.9342  0.5206
  153MOL0     H21099   0.462  11.255   2.006 -0.5786 -0.6516 -1.0672
  153MOL0     H21100   0.149  11.066   1.863 -0.4056  0.4726  0.7078
  153MOL0     H21101  -0.091  11.011   1.844 -1.1000  0.1989 -0.8736
  153MOL0     H21102  -0.363  10.916   1.663 -4.8138  1.3110 -0.3088
  153MOL0     H21103  -0.285  11.002   1.799 -2.4444 -1.1560  1.0042
  153MOL0     H21104  -0.432  11.197   1.755 -2.2865  1.4665 -0.6342
  153MOL0     H21105  -0.510  11.054   1.805  1.8862 -2.1054  0.3646
  153MOL0     H21106  -0.477  11.069   1.502  0.7544  1.3181 -0.8775
  153MOL0     H21107  -0.632  11.048   1.589  1.4530 -0.9629  0.6391
  153MOL0     H21108  -0.641  11.290   1.629 -2.1633  0.0416 -1.1292
  153MOL0     H21109  -0.642  11.239   1.455 -0.3386  1.2448  0.4231
  153MOL0     H21110  -0.263  11.420   1.486  0.9854 -0.7157  1.4591
  153MOL0     H21111  -0.084  11.221   1.456 -1.4479 -2.9800 -0.6862
  153MOL0     H21112   0.245  11.246   1.430  0.6724 -0.5505  1.8780
  153MOL0     H21113   0.097  11.330   1.379 -0.4343  0.0995  0.2879
  153MOL0     H21114   0.203  11.403   1.509  1.7028 -0.8783 -0.8137
  154MOL0     O21115   0.188   5.935   7.963  0.1981  0.1290 -0.0548
  154MOL0     C21116   0.156   6.055   7.948  0.4585 -0.0607 -0.2372
  154MOL0     O21117   0.245   6.156   7.917  0.0071 -0.1956  0.0589
  154MOL0     C21118   0.374   6.130   7.867  0.6256  0.0670  0.2576
  154MOL0     C21119   0.415   6.008   7.805 -0.5651  0.3829  1.0525
  154MOL0     C21120   0.542   6.003   7.750 -0.1252  0.4534  0.3317
  154MOL0     C21121   0.639   6.105   7.763  0.8222  0.1474 -0.6070
  154MOL0     O21122   0.772   6.102   7.724 -0.3085  0.0565  0.4504
  154MOL0     C21123   0.793   6.039   7.599 -0.7398  0.2074 -1.0508
  154MOL0     C21124   0.872   5.906   7.614  0.0412 -0.3658 -0.3304
  154MOL0     C21125   1.015   5.946   7.660  0.8142  0.1847 -0.3009
  154MOL0     C21126   1.108   5.824   7.641 -0.1894 -0.2506 -0.4362
  154MOL0     C21127   1.248   5.833   7.715 -0.1581 -0.1039  0.1849
  154MOL0     C21128   1.334   5.929   7.627 -1.0374 -0.7400  0.1291
  154MOL0     C21129   1.469   5.969   7.693  0.2903  0.2723  0.4730
  154MOL0     C21130   1.569   5.847   7.708 -0.8318 -0.3799 -0.0159
  154MOL0     N21131   1.699   5.891   7.760 -0.0673  0.6615 -0.1649
  154MOL0     C21132   1.766   6.002   7.723  0.0686  0.1091  0.4832
  154MOL0     C21133   1.875   6.011   7.804  0.5888  0.5188 -0.2875
  154MOL0     C21134   1.989   6.105   7.823 -0.1293  0.0830 -0.0850
  154MOL0     C21135   2.082   6.128   7.708  0.2823 -0.2215  0.0518
  154MOL0     C21136   2.191   6.234   7.748 -0.4738 -0.2986  0.0395
  154MOL0     C21137   2.298   6.260   7.637 -0.5185 -0.0278  0.7021
  154MOL0     O21138   2.397   6.354   7.676  0.2760  0.0708 -0.8145
  154MOL0     C21139   2.509   6.307   7.744 -0.1778 -1.1439  1.0161
  154MOL0     C21140   2.605   6.231   7.685  0.1231  0.9080  0.3856
  154MOL0     C21141   2.721   6.196   7.759 -0.3675  0.6357 -0.4425
  154MOL0     C21142   2.805   6.086   7.698 -0.3923  1.0237 -0.3100
  154MOL0     C21143   2.752   6.266   7.879  0.4623 -0.4991 -0.2056
  154MOL0     C21144   2.885   6.243   7.946 -0.4158 -0.0258 -0.0516
  154MOL0     O21145   2.931   6.352   8.008 -0.1639  0.2043 -0.8092
  154MOL0     C21146   3.051   6.361   8.067 -0.8099  0.6014 -0.6467
  154MOL0     C21147   3.132   6.453   8.001  0.0025 -0.2646 -0.0975
  154MOL0     C21148   3.257   6.467   8.054  0.2869 -0.2688 -0.4543
  154MOL0     C21149   3.297   6.404   8.169 -0.0138  0.5674  0.1086
  154MOL0     O21150   3.402   6.440   8.242  0.6084  0.0009 -0.2408
  154MOL0     C21151   3.506   6.532   8.199 -0.6035  0.1774  0.8445
  154MOL0     C21152   3.603   6.544   8.309 -0.3196 -0.7219 -0.1147
  154MOL0     C21153   3.549   6.623   8.438  0.0333 -0.1851  0.3756
  154MOL0     C21154   3.673   6.652   8.524  0.3355 -0.0795  0.2317
  154MOL0     C21155   3.607   6.708   8.655 -0.1834 -0.0473 -0.8558
  154MOL0     C21156   3.692   6.800   8.729 -0.0975 -0.1071  0.5020
  154MOL0     C21157   3.684   6.940   8.660  0.3457 -0.6294 -0.7334
  154MOL0     C21158   3.792   7.036   8.720 -0.0937  0.2572  0.7344
  154MOL0    Cl21159   3.730   7.110   8.876 -0.2743  0.2780 -0.3602
  154MOL0     C21160   3.221   6.304   8.221 -0.0936 -0.2243 -0.5513
  154MOL0     C21161   3.099   6.280   8.171  0.5368  0.2488  0.6373
  154MOL0     O21162   2.936   6.132   7.947  0.2563 -0.1671 -0.7235
  154MOL0     C21163   2.652   6.344   7.940 -0.6594  0.3901 -0.2476
  154MOL0     C21164   2.525   6.357   7.873 -0.5845 -0.1093 -0.2022
  154MOL0     N21165   1.870   5.898   7.880  0.2518 -0.8231 -0.3828
  154MOL0     N21166   1.773   5.827   7.848  0.0915 -0.1787 -0.6549
  154MOL0     C21167   0.594   6.219   7.821 -0.2123  0.0789  0.7147
  154MOL0     C21168   0.465   6.233   7.870 -0.1138  0.1385 -0.0782
  154MOL0     C21169   0.014   6.077   7.970  0.2992 -0.7292  0.3063
  154MOL0     C21170  -0.023   6.194   8.044  0.9665  0.7934 -0.0593
  154MOL0     C21171  -0.155   6.225   8.079 -0.3545 -0.2430 -0.0532
  154MOL0     C21172  -0.257   6.132   8.050 -0.4434  0.5256  0.3824
  154MOL0     O21173  -0.392   6.144   8.080 -0.2507 -0.3749  0.6859
  154MOL0     C21174  -0.433   6.263   8.143 -1.4063  0.4009 -0.2683
  154MOL0     C21175  -0.489   6.363   8.046  0.4006 -0.1533 -0.2692
  154MOL0     C21176  -0.613   6.297   7.975  0.1791 -0.0011  0.2724
  154MOL0     C21177  -0.660   6.387   7.861 -0.3912 -0.0214  0.1931
  154MOL0     C21178  -0.772   6.339   7.785  0.2152 -0.4439 -0.0295
  154MOL0     C21179  -0.877   6.297   7.730 -0.4198 -0.6064  0.0391
  154MOL0     C21180  -0.217   6.014   7.969 -0.1293 -0.2093 -0.4698
  154MOL0     C21181  -0.085   5.988   7.924 -0.6555 -0.3740  0.0400
  154MOL0     C21182  -0.054   5.876   7.830 -0.2129 -0.0668  0.4392
  154MOL0     H21183   0.345   5.926   7.795  0.5642 -0.4386 -0.3871
  154MOL0     H21184   0.561   5.909   7.699 -1.3716 -0.1233  0.8835
  154MOL0     H21185   0.847   6.114   7.541 -1.1417  1.3722  0.0346
  154MOL0     H21186   0.700   6.029   7.543 -0.1095  2.1297 -2.5934
  154MOL0     H21187   0.816   5.848   7.687 -0.4586  0.5484  0.0364
  154MOL0     H21188   0.886   5.851   7.521  3.0469 -0.0010 -0.1882
  154MOL0     H21189   1.054   6.028   7.599  0.9326 -0.9151 -1.7352
  154MOL0     H21190   1.005   5.975   7.766  0.0795 -1.5514  0.1299
  154MOL0     H21191   1.058   5.738   7.687 -0.2889  1.0938  2.1778
  154MOL0     H21192   1.127   5.804   7.535 -2.0461 -0.8355 -0.7025
  154MOL0     H21193   1.294   5.735   7.727 -0.8003 -0.7553 -2.1609
  154MOL0     H21194   1.224   5.881   7.810 -1.5001 -0.6907  0.1639
  154MOL0     H21195   1.358   5.900   7.524  0.7173  1.3944 -0.1388
  154MOL0     H21196   1.293   6.029   7.612 -0.3488 -0.7331 -2.1336
  154MOL0     H21197   1.463   6.021   7.789  3.4403  1.9195 -0.0840
  154MOL0     H21198   1.521   6.044   7.632 -0.2749 -0.0671 -0.4424
  154MOL0     H21199   1.528   5.765   7.768  1.2939 -2.0264 -0.7006
  154MOL0     H21200   1.581   5.806   7.608 -1.3119 -1.8625  0.5017
  154MOL0     H21201   1.735   6.071   7.646 -0.9810 -1.2288 -0.3324
  154MOL0     H21202   2.050   6.088   7.912 -0.5078  0.1056  0.1837
  154MOL0     H21203   1.945   6.203   7.845 -3.1515 -1.3341  0.8698
  154MOL0     H21204   2.128   6.035   7.675  0.1796  0.5281 -2.4294
  154MOL0     H21205   2.020   6.165   7.626 -0.4447 -1.7888 -0.1331
  154MOL0     H21206   2.152   6.333   7.774 -0.0366 -0.5569  1.7484
  154MOL0     H21207   2.235   6.192   7.838 -0.0821  0.5240  0.2419
  154MOL0     H21208   2.348   6.164   7.621  1.5634  0.4972  3.1997
  154MOL0     H21209   2.251   6.296   7.546  0.0139 -0.2512  0.3335
  154MOL0     H21210   2.582   6.187   7.588 -0.2140  0.2955  0.7380
  154MOL0     H21211   2.902   6.127   7.669 -0.5095  0.7529 -1.1158
  154MOL0     H21212   2.752   6.044   7.612 -3.1495 -0.4457  1.9014
  154MOL0     H21213   2.816   5.997   7.760  2.0779 -0.5619 -2.7900
  154MOL0     H21214   3.107   6.503   7.908 -0.2787  2.3543  1.2822
  154MOL0     H21215   3.329   6.539   8.017  1.3564  0.5244  2.7697
  154MOL0     H21216   3.558   6.494   8.110  0.3501  0.3463  1.3187
  154MOL0     H21217   3.479   6.637   8.188 -1.1461  0.0070  0.5139
  154MOL0     H21218   3.632   6.443   8.339 -2.5722 -1.7069 -1.0550
  154MOL0     H21219   3.689   6.587   8.259 -0.1903 -1.5814 -0.6491
  154MOL0     H21220   3.472   6.569   8.494  0.1724 -2.2345 -1.2755
  154MOL0     H21221   3.508   6.717   8.400  0.4750 -0.3570 -0.5350
  154MOL0     H21222   3.746   6.724   8.484  1.8174 -0.1919  2.5110
  154MOL0     H21223   3.727   6.559   8.543 -1.5379 -0.6821  3.2633
  154MOL0     H21224   3.509   6.755   8.641 -0.1191  0.6815  0.9422
  154MOL0     H21225   3.566   6.624   8.711  0.4705  0.6680  0.7488
  154MOL0     H21226   3.797   6.769   8.729  0.3652  1.3652  1.7431
  154MOL0     H21227   3.652   6.812   8.830 -1.4135  0.0666 -0.0069
  154MOL0     H21228   3.584   6.983   8.670 -0.0205 -1.2921 -1.4838
  154MOL0     H21229   3.702   6.935   8.552 -2.3815 -0.7867 -1.2437
  154MOL0     H21230   3.819   7.108   8.642  0.1773  0.8875  1.3968
  154MOL0     H21231   3.885   6.979   8.730  2.6154  4.0428 -0.4533
  154MOL0     H21232   3.245   6.245   8.309 -2.5059 -2.1004 -1.0325
  154MOL0     H21233   3.035   6.202   8.212 -0.0554 -1.0268 -2.4550
  154MOL0     H21234   2.662   6.392   8.037  1.3607  0.3953 -0.4153
  154MOL0     H21235   2.457   6.426   7.921 -0.1713  0.6024 -0.6182
  154MOL0     H21236   0.666   6.298   7.806 -0.8249  1.2312  3.3765
  154MOL0     H21237   0.432   6.333   7.898  0.6461 -0.2492  2.4531
  154MOL0     H21238   0.059   6.258   8.072  0.1002  2.7035 -1.6469
  154MOL0     H21239  -0.175   6.322   8.125 -2.4196  0.8556 -2.9965
  154MOL0     H21240  -0.499   6.234   8.225  1.9256 -0.5562  2.2706
  154MOL0     H21241  -0.353   6.308   8.201  1.9072 -4.3812 -0.6150
  154MOL0     H21242  -0.413   6.391   7.973 -0.8176  0.0918 -1.4810
  154MOL0     H21243  -0.523   6.458   8.090 -0.7484 -1.7017  2.4512
  154MOL0     H21244  -0.585   6.198   7.935 -1.6048 -0.6393  0.5211
  154MOL0     H21245  -0.697   6.282   8.042  0.3457 -0.9390  0.2918
  154MOL0     H21246  -0.582   6.417   7.790 -0.5948 -1.0157 -0.4665
  154MOL0     H21247  -0.695   6.479   7.909  0.4276 -0.0294  0.8307
  154MOL0     H21248  -0.960   6.267   7.670 -1.8994  0.2998  1.5339
  154MOL0     H21249  -0.296   5.948   7.934  2.6040 -3.0687 -1.6794
  154MOL0     H21250   0.001   5.796   7.881  1.9242 -0.7529 -2.6633
  154MOL0     H21251  -0.143   5.833   7.784  1.5438 -1.1273 -2.1576
  154MOL0     H21252   0.014   5.904   7.749 -0.4804 -1.6972 -0.3756
  155MOL0     O21253  10.186   7.303   6.690  0.2036 -0.2635  0.3748
  155MOL0     C21254  10.140   7.290   6.805 -0.2093  0.3567  0.4083
  155MOL0     O21255  10.203   7.307   6.924 -0.5125  0.5404 -0.1524
  155MOL0     C21256  10.340   7.336   6.921 -0.1491 -0.1656 -0.3500
  155MOL0     C21257  10.377   7.453   6.991 -0.0832  0.5628  0.2072
  155MOL0     C21258  10.513   7.471   7.015 -0.3073  0.1337 -0.3313
  155MOL0     C21259  10.614   7.383   6.959  0.9853 -0.2030 -1.0425
  155MOL0     O21260  10.749   7.409   6.991  0.0756 -0.4069  0.4508
  155MOL0     C21261  10.850   7.435   6.889  0.2266  0.5202 -0.1881
  155MOL0     C21262  10.960   7.518   6.960 -0.4188 -0.0028  0.0658
  155MOL0     C21263  11.042   7.589   6.862 -0.1988  0.2240  0.3002
  155MOL0     C21264  11.171   7.515   6.829 -0.0981 -0.1116 -0.2991
  155MOL0     C21265  11.269   7.596   6.744  0.0458  0.4251  0.1049
  155MOL0     C21266  11.401   7.530   6.719 -0.9005 -1.3903 -0.6213
  155MOL0     C21267  11.490   7.623   6.632 -0.7696  0.5435  0.0276
  155MOL0     C21268  11.617   7.547   6.605 -1.1571  0.0951 -0.2059
  155MOL0     N21269  11.605   7.406   6.566 -0.4839 -0.2427  0.0767
  155MOL0     C21270  11.526   7.346   6.467 -0.5762 -0.9177 -0.6243
  155MOL0     C21271  11.569   7.211   6.460  0.1324 -0.5827 -0.4677
  155MOL0     C21272  11.518   7.099   6.373  0.8771  0.7124 -0.0433
  155MOL0     C21273  11.492   6.969   6.460 -0.0825  0.7461  0.9897
  155MOL0     C21274  11.463   6.853   6.366 -0.3909 -0.0639 -0.0703
  155MOL0     C21275  11.436   6.727   6.437  0.0242  0.4855  0.6223
  155MOL0     O21276  11.404   6.626   6.328  0.3576 -1.0345  0.1423
  155MOL0     C21277  11.383   6.496   6.360  0.3311  0.8689 -0.0347
  155MOL0     C21278  11.412   6.443   6.482  1.3833 -1.1461  0.1297
  155MOL0     C21279  11.400   6.312   6.516  0.1667  0.1157  0.3468
  155MOL0     C21280  11.437   6.266   6.657  0.2922  0.0767 -0.3573
  155MOL0     C21281  11.354   6.222   6.411 -0.7580  0.0097 -0.7468
  155MOL0     C21282  11.340   6.073   6.433  0.1409  0.7905  0.3531
  155MOL0     O21283  11.399   5.998   6.340 -0.0512 -0.4107  0.2570
  155MOL0     C21284  11.431   5.868   6.368  0.7665 -0.4204 -0.1465
  155MOL0     C21285  11.445   5.794   6.484  0.1379  0.4318  0.4200
  155MOL0     C21286  11.496   5.666   6.492 -1.3034  0.6412 -1.1090
  155MOL0     C21287  11.538   5.607   6.378 -0.0423 -0.0211  0.2875
  155MOL0     O21288  11.593   5.480   6.362 -0.2694 -0.0606 -0.1489
  155MOL0     C21289  11.657   5.424   6.476  0.0603  0.5396  0.3692
  155MOL0     C21290  11.732   5.302   6.423  0.2516  0.0823  0.1740
  155MOL0     C21291  11.819   5.229   6.512 -0.1616 -1.1181  1.0243
  155MOL0     C21292  11.970   5.275   6.523  0.0471  0.2255  0.5768
  155MOL0     C21293  12.061   5.196   6.610 -0.5444  0.2243  0.1054
  155MOL0     C21294  12.194   5.262   6.640  0.8351 -0.0579  0.5778
  155MOL0     C21295  12.283   5.155   6.702 -0.5213  0.1105  0.0482
  155MOL0     C21296  12.424   5.203   6.745 -0.2240  0.7255 -0.2092
  155MOL0    Cl21297  12.524   5.069   6.811  0.1130 -0.6599 -0.6578
  155MOL0     C21298  11.510   5.668   6.255 -0.2164 -0.1856 -0.3905
  155MOL0     C21299  11.467   5.798   6.257 -0.3604 -0.7396 -0.4879
  155MOL0     O21300  11.276   6.033   6.527  1.7769  0.3993  0.0268
  155MOL0     C21301  11.325   6.269   6.278  0.2959 -0.1411 -0.1127
  155MOL0     C21302  11.332   6.408   6.265 -0.2639 -1.2046  1.0461
  155MOL0     N21303  11.675   7.204   6.554  0.1924  0.2239  0.0222
  155MOL0     N21304  11.689   7.316   6.616 -0.1431  0.5791 -0.1948
  155MOL0     C21305  10.574   7.278   6.871  0.8611 -0.8268 -0.0075
  155MOL0     C21306  10.435   7.259   6.853  0.5674 -0.0085 -0.1645
  155MOL0     C21307   9.996   7.245   6.818  0.3351  0.8653 -0.9621
  155MOL0     C21308   9.940   7.233   6.944  0.8537 -0.2542 -0.0211
  155MOL0     C21309   9.817   7.172   6.962 -0.3217 -0.5792 -0.1829
  155MOL0     C21310   9.734   7.135   6.852  0.1271  0.7499 -0.3627
  155MOL0     O21311   9.601   7.098   6.867 -0.9423 -0.3714  0.2444
  155MOL0     C21312   9.535   7.125   6.992  0.4315  0.3054 -0.0464
  155MOL0     C21313   9.390   7.073   6.982 -0.9036  0.1033 -0.4573
  155MOL0     C21314   9.327   7.142   6.864 -0.7648 -0.2967 -0.1152
  155MOL0     C21315   9.196   7.067   6.839 -0.6084  0.3931  0.5912
  155MOL0     C21316   9.148   7.123   6.709 -0.8873 -0.6731 -0.4539
  155MOL0     C21317   9.116   7.173   6.605  0.3331 -0.1423 -1.2776
  155MOL0     C21318   9.794   7.131   6.731  0.9681 -0.3252 -0.8312
  155MOL0     C21319   9.927   7.173   6.715  0.8440 -0.3759  0.6769
  155MOL0     C21320   9.990   7.152   6.577  0.7439 -0.6167 -0.2065
  155MOL0     H21321  10.295   7.509   7.035  0.5686  1.2337  0.5882
  155MOL0     H21322  10.554   7.550   7.076 -0.4435  0.6148 -0.8550
  155MOL0     H21323  10.809   7.496   6.809 -2.8253  1.2663  1.7951
  155MOL0     H21324  10.891   7.338   6.857 -0.4526  0.4157 -0.7640
  155MOL0     H21325  10.906   7.588   7.025 -1.9813 -1.4509  0.4175
  155MOL0     H21326  11.023   7.458   7.027 -0.1943  0.4538  0.2667
  155MOL0     H21327  10.986   7.615   6.772 -0.7505 -2.6142 -0.2731
  155MOL0     H21328  11.074   7.676   6.920 -3.9852  0.2651  2.6689
  155MOL0     H21329  11.222   7.478   6.918 -0.2677 -0.2319 -0.2510
  155MOL0     H21330  11.140   7.429   6.770  1.0814  0.5202 -1.9355
  155MOL0     H21331  11.279   7.702   6.770 -0.6985  0.6666 -0.5587
  155MOL0     H21332  11.226   7.600   6.644  1.1027 -0.0918 -0.3873
  155MOL0     H21333  11.448   7.514   6.817 -0.3753  3.4816  0.1509
  155MOL0     H21334  11.393   7.433   6.669  1.5888 -3.1144  2.0054
  155MOL0     H21335  11.517   7.722   6.671 -0.9029  0.9998 -0.9987
  155MOL0     H21336  11.453   7.633   6.529  2.9911  3.1183 -1.2963
  155MOL0     H21337  11.671   7.606   6.531 -0.9727  0.2226  0.0273
  155MOL0     H21338  11.683   7.547   6.692 -1.4958  2.0800  0.1178
  155MOL0     H21339  11.450   7.403   6.414  0.4446  4.3896  2.8018
  155MOL0     H21340  11.589   7.094   6.290  1.1507  1.0422  0.1668
  155MOL0     H21341  11.425   7.138   6.329  0.7163  0.9162  0.4680
  155MOL0     H21342  11.583   6.948   6.518 -1.0896  0.9242  2.6907
  155MOL0     H21343  11.410   6.988   6.529 -0.1604  1.2936  0.7544
  155MOL0     H21344  11.382   6.883   6.299 -0.4530  0.4956  0.2490
  155MOL0     H21345  11.543   6.840   6.293 -2.7973 -0.0620 -2.8909
  155MOL0     H21346  11.524   6.699   6.495  0.0192  1.9941  1.3828
  155MOL0     H21347  11.350   6.733   6.504 -2.0850  0.2529 -1.8838
  155MOL0     H21348  11.463   6.502   6.557  0.2324  0.4183 -0.2786
  155MOL0     H21349  11.356   6.308   6.717 -0.6445  0.7487 -2.0453
  155MOL0     H21350  11.533   6.308   6.690 -0.5044  3.0242 -1.5198
  155MOL0     H21351  11.442   6.157   6.669  0.3485  0.1063 -0.0928
  155MOL0     H21352  11.423   5.834   6.583  1.2819 -0.4711  1.0710
  155MOL0     H21353  11.507   5.616   6.587 -0.4110  0.0183 -1.5242
  155MOL0     H21354  11.726   5.488   6.532  2.3400 -1.1832 -0.3295
  155MOL0     H21355  11.576   5.396   6.544  2.2765  0.0453  3.0086
  155MOL0     H21356  11.654   5.236   6.384  0.7186  0.8292 -2.2199
  155MOL0     H21357  11.790   5.339   6.338 -1.0857  0.2317 -0.7068
  155MOL0     H21358  11.812   5.122   6.489 -0.3019 -1.0357  0.6710
  155MOL0     H21359  11.778   5.222   6.613 -1.0990  1.6217  0.9072
  155MOL0     H21360  11.963   5.377   6.565  1.6074  1.8472 -2.7265
  155MOL0     H21361  12.015   5.283   6.424  1.5741  3.3835  1.3704
  155MOL0     H21362  12.006   5.183   6.703 -0.9895 -3.9404 -0.5267
  155MOL0     H21363  12.073   5.096   6.568  0.9854  0.0227  0.9291
  155MOL0     H21364  12.178   5.352   6.701 -1.1427  1.5898 -2.1150
  155MOL0     H21365  12.248   5.311   6.558  1.7077 -0.1684  1.0692
  155MOL0     H21366  12.304   5.078   6.627  0.2223  1.4789 -1.1974
  155MOL0     H21367  12.220   5.110   6.780  0.0154  2.3731  1.8681
  155MOL0     H21368  12.414   5.273   6.829 -0.2294 -1.3060  1.5862
  155MOL0     H21369  12.475   5.249   6.660  2.6894 -2.4206 -0.3816
  155MOL0     H21370  11.533   5.623   6.159 -1.7374  2.1393 -1.9402
  155MOL0     H21371  11.483   5.846   6.162  3.3641  0.1845  0.4634
  155MOL0     H21372  11.291   6.205   6.198  1.5077 -0.4753 -0.3734
  155MOL0     H21373  11.316   6.452   6.167  1.5636 -0.8667  0.8547
  155MOL0     H21374  10.639   7.227   6.800 -0.1379 -0.4295 -1.2454
  155MOL0     H21375  10.394   7.192   6.777  0.1876  0.8020 -0.6827
  155MOL0     H21376   9.979   7.288   7.030 -3.3756 -0.1972  2.1172
  155MOL0     H21377   9.774   7.167   7.062 -0.3112 -1.9185 -0.2189
  155MOL0     H21378   9.590   7.093   7.080  1.3715  1.5036 -0.1719
  155MOL0     H21379   9.528   7.230   7.022  0.6196 -0.0353  1.2210
  155MOL0     H21380   9.326   7.093   7.069  0.7251  1.3431  0.5102
  155MOL0     H21381   9.394   6.964   6.977 -1.7893 -0.0283  1.1453
  155MOL0     H21382   9.315   7.243   6.904  0.4028 -0.9436  2.0420
  155MOL0     H21383   9.387   7.145   6.772  0.6121 -0.9035  0.7381
  155MOL0     H21384   9.122   7.095   6.914 -2.6878 -1.1178 -0.7660
  155MOL0     H21385   9.200   6.957   6.843  0.3317  0.4591  3.2958
  155MOL0     H21386   9.068   7.219   6.521 -2.5614  0.1069  0.3696
  155MOL0     H21387   9.736   7.100   6.645  1.2714 -1.2775 -0.6989
  155MOL0     H21388  10.008   7.250   6.532 -0.5028  0.1072  0.8165
  155MOL0     H21389  10.090   7.108   6.586  0.5284 -0.8411  1.3001
  155MOL0     H21390   9.928   7.086   6.516 -0.5622  0.4479 -0.0764
  156MOL0     O21391   2.305   9.014   8.853  0.2917  0.7570  0.0180
  156MOL0     C21392   2.280   9.085   8.755  0.3669 -0.1953  0.4715
  156MOL0     O21393   2.360   9.194   8.711  0.1052 -0.0709 -0.0061
  156MOL0     C21394   2.482   9.225   8.775 -0.1965  0.2171 -0.2328
  156MOL0     C21395   2.547   9.325   8.720 -0.2923  0.4368 -0.3032
  156MOL0     C21396   2.680   9.359   8.765  0.6725 -0.4262 -0.7724
  156MOL0     C21397   2.738   9.284   8.869  0.1799 -0.0532  1.1256
  156MOL0     O21398   2.858   9.321   8.920  0.5203  0.2130  0.3455
  156MOL0     C21399   2.964   9.231   8.877 -0.5998  0.1388  0.0988
  156MOL0     C21400   3.101   9.275   8.936  0.1478  0.5701  0.1815
  156MOL0     C21401   3.207   9.166   8.920  0.1132  0.2883 -0.5847
  156MOL0     C21402   3.224   9.113   8.772  0.3794  0.6844 -0.4973
  156MOL0     C21403   3.356   9.025   8.759  0.5190 -0.5547  0.3205
  156MOL0     C21404   3.366   8.903   8.857  0.1432  0.5337  0.4087
  156MOL0     C21405   3.483   8.804   8.830  1.0782  0.6330 -0.2034
  156MOL0     C21406   3.619   8.879   8.843  0.4985  0.0863 -0.0553
  156MOL0     N21407   3.723   8.789   8.879  0.0543  0.5085  0.1238
  156MOL0     C21408   3.737   8.758   9.010 -1.0386 -0.6592  0.2896
  156MOL0     C21409   3.858   8.696   9.022 -0.9245  0.1098  0.1347
  156MOL0     C21410   3.925   8.630   9.137  0.2177  0.0877  0.0637
  156MOL0     C21411   3.886   8.685   9.274  0.5247  0.6422 -0.2525
  156MOL0     C21412   3.994   8.649   9.381 -0.0680 -0.3104 -0.2395
  156MOL0     C21413   3.989   8.504   9.414 -0.0342  0.0426 -0.5244
  156MOL0     O21414   4.077   8.481   9.519  0.2414  0.0456  0.1914
  156MOL0     C21415   4.174   8.383   9.499  0.3498 -0.0934  0.0056
  156MOL0     C21416   4.146   8.254   9.460 -0.6528 -0.3071 -0.7186
  156MOL0     C21417   4.248   8.154   9.449  0.9703 -0.2216  0.4999
  156MOL0     C21418   4.198   8.016   9.402  0.1354 -0.3386  0.7964
  156MOL0     C21419   4.376   8.184   9.484 -0.5002 -0.8042  0.5768
  156MOL0     C21420   4.497   8.100   9.470  0.1090  0.5374  0.1757
  156MOL0     O21421   4.605   8.142   9.534  1.0393 -0.4948 -0.6256
  156MOL0     C21422   4.721   8.067   9.532 -0.6213 -0.4626 -0.1342
  156MOL0     C21423   4.728   7.947   9.598  0.9382  0.4254  0.8776
  156MOL0     C21424   4.842   7.868   9.599 -0.1429 -0.4862  0.0725
  156MOL0     C21425   4.960   7.905   9.528  0.9424  0.5347 -0.2059
  156MOL0     O21426   5.083   7.832   9.533 -0.0075 -0.3436 -0.4757
  156MOL0     C21427   5.083   7.723   9.625 -0.3521  0.4838 -0.5175
  156MOL0     C21428   5.229   7.658   9.629  0.0303  0.2926 -0.5003
  156MOL0     C21429   5.259   7.562   9.512  0.5562 -0.1919 -0.3211
  156MOL0     C21430   5.405   7.518   9.499  0.0846 -0.0714 -1.3086
  156MOL0     C21431   5.517   7.617   9.472 -0.3786  0.0043  0.7165
  156MOL0     C21432   5.471   7.701   9.347 -0.2534 -0.5582  0.3819
  156MOL0     C21433   5.587   7.780   9.279  0.2309  0.6828 -0.0641
  156MOL0     C21434   5.698   7.695   9.225 -0.8261  0.4480  0.0511
  156MOL0    Cl21435   5.814   7.811   9.142 -0.3740  0.2360  0.1192
  156MOL0     C21436   4.952   8.024   9.457 -0.4802 -0.5915 -0.1362
  156MOL0     C21437   4.839   8.100   9.454 -0.4686  0.2681  0.3882
  156MOL0     O21438   4.487   7.990   9.418 -1.1040 -0.0789 -0.5333
  156MOL0     C21439   4.402   8.319   9.516  0.3725  0.1189  0.1247
  156MOL0     C21440   4.305   8.424   9.526 -0.2954 -0.0991  0.1431
  156MOL0     N21441   3.915   8.685   8.891 -0.5037  0.2397  0.3705
  156MOL0     N21442   3.834   8.743   8.806  0.0906 -0.1894 -0.1888
  156MOL0     C21443   2.667   9.177   8.921 -0.5319  0.0036  0.0723
  156MOL0     C21444   2.534   9.155   8.887 -0.8321 -0.4887 -0.4563
  156MOL0     C21445   2.149   9.042   8.685  0.7335 -1.2673  0.0528
  156MOL0     C21446   2.126   9.108   8.564 -0.0103  0.0110 -0.1341
  156MOL0     C21447   2.005   9.092   8.493 -0.0880  0.3027  0.1535
  156MOL0     C21448   1.899   9.013   8.543  0.8591 -0.1161 -0.4592
  156MOL0     O21449   1.776   9.006   8.487 -0.0959  0.0366 -0.2639
  156MOL0     C21450   1.663   8.954   8.540 -0.2407  0.6267 -0.5051
  156MOL0     C21451   1.546   8.981   8.454  0.1425 -0.4705  0.0191
  156MOL0     C21452   1.414   8.913   8.496 -0.7253  0.3140  1.0013
  156MOL0     C21453   1.333   8.886   8.371  0.5952  0.1316  0.0276
  156MOL0     C21454   1.223   8.794   8.391  1.0514  0.3595 -0.0495
  156MOL0     C21455   1.121   8.722   8.391 -0.0920 -0.4921 -0.4536
  156MOL0     C21456   1.918   8.958   8.674  0.3912 -0.0408  0.7834
  156MOL0     C21457   2.044   8.969   8.745  0.5087  0.0558 -0.3725
  156MOL0     C21458   2.048   8.911   8.885  0.8045  0.1653 -0.3139
  156MOL0     H21459   2.506   9.380   8.636 -2.0029 -0.0944  0.1436
  156MOL0     H21460   2.735   9.442   8.721 -0.9630  1.2204  0.1336
  156MOL0     H21461   2.965   9.242   8.768  0.7679  2.2379  0.2683
  156MOL0     H21462   2.941   9.129   8.907 -1.7477 -0.0696 -1.3608
  156MOL0     H21463   3.143   9.362   8.886  0.3687  2.2349  3.0699
  156MOL0     H21464   3.086   9.308   9.039  0.3899  0.9400  0.1013
  156MOL0     H21465   3.306   9.202   8.951  1.8764 -2.2246 -2.8609
  156MOL0     H21466   3.173   9.080   8.979 -1.6269  0.5932 -1.1018
  156MOL0     H21467   3.143   9.045   8.746  1.5582 -0.4800 -1.2530
  156MOL0     H21468   3.233   9.194   8.699  1.6726  1.3774  0.3915
  156MOL0     H21469   3.435   9.096   8.783  0.2549 -0.9795  2.7240
  156MOL0     H21470   3.364   8.981   8.659  0.7158  2.0921 -0.9000
  156MOL0     H21471   3.388   8.944   8.956  0.9307  1.3273 -0.0723
  156MOL0     H21472   3.275   8.844   8.858  0.1478  0.5325  0.9056
  156MOL0     H21473   3.462   8.766   8.729  1.3764 -2.8402  0.9152
  156MOL0     H21474   3.475   8.715   8.892  1.9416  0.0781 -0.8689
  156MOL0     H21475   3.643   8.915   8.743 -2.8236 -1.0147 -1.3597
  156MOL0     H21476   3.611   8.959   8.918  0.3691  0.5655 -0.5772
  156MOL0     H21477   3.678   8.777   9.099  1.3110 -0.4635  1.9043
  156MOL0     H21478   4.033   8.636   9.117  0.0908 -2.0372 -1.6515
  156MOL0     H21479   3.895   8.525   9.132 -2.6308  0.8570 -0.4427
  156MOL0     H21480   3.882   8.794   9.263 -0.1814  0.3888 -3.6870
  156MOL0     H21481   3.787   8.647   9.300  1.0612  0.1488  1.1163
  156MOL0     H21482   4.092   8.684   9.346 -0.8411  0.8067 -1.4016
  156MOL0     H21483   3.980   8.701   9.476  2.1594  1.5907 -0.8467
  156MOL0     H21484   3.887   8.481   9.445  1.2395 -2.4030  2.3229
  156MOL0     H21485   4.020   8.448   9.325  4.5126  0.0539  0.7978
  156MOL0     H21486   4.042   8.226   9.446 -1.2633  1.3185  0.1953
  156MOL0     H21487   4.251   7.998   9.308  0.0158 -1.2568  0.8930
  156MOL0     H21488   4.089   8.015   9.390  0.1141  3.0427 -0.0378
  156MOL0     H21489   4.234   7.935   9.466 -0.0029 -0.4047  0.7897
  156MOL0     H21490   4.643   7.896   9.641  1.2381 -1.7501 -0.9259
  156MOL0     H21491   4.848   7.784   9.668 -1.8536 -0.9733 -0.3348
  156MOL0     H21492   5.046   7.747   9.725 -2.0855 -1.4920 -0.6331
  156MOL0     H21493   5.014   7.646   9.591 -0.3813 -0.0160  0.6219
  156MOL0     H21494   5.312   7.728   9.641  0.1629  0.3122 -1.4881
  156MOL0     H21495   5.230   7.601   9.723 -0.5212  0.0902 -0.6142
  156MOL0     H21496   5.221   7.613   9.423  1.1854 -2.0170 -1.6968
  156MOL0     H21497   5.198   7.471   9.521 -0.7795  0.7437  0.4368
  156MOL0     H21498   5.407   7.449   9.414  1.6584 -0.6897 -0.8156
  156MOL0     H21499   5.417   7.475   9.599 -1.9909  0.1391 -0.9356
  156MOL0     H21500   5.530   7.679   9.562 -0.1320 -0.7014  1.1798
  156MOL0     H21501   5.612   7.566   9.451 -0.8153 -0.6378  0.2933
  156MOL0     H21502   5.386   7.764   9.373 -2.1223 -3.7275  2.7187
  156MOL0     H21503   5.426   7.632   9.274 -0.2898  0.8716 -1.0060
  156MOL0     H21504   5.639   7.843   9.352  0.7544  2.8608 -2.2168
  156MOL0     H21505   5.552   7.853   9.206 -0.2247  1.8921  1.3033
  156MOL0     H21506   5.668   7.621   9.149 -1.7864  0.7274  0.1412
  156MOL0     H21507   5.745   7.642   9.309  0.1847  1.6196  0.2472
  156MOL0     H21508   5.044   8.066   9.419 -1.7561  2.3268 -0.2720
  156MOL0     H21509   4.842   8.193   9.397  1.7132  0.0817  0.1278
  156MOL0     H21510   4.501   8.339   9.553 -0.1137  1.2086  0.8957
  156MOL0     H21511   4.329   8.521   9.570 -2.8999  1.1632 -0.9749
  156MOL0     H21512   2.714   9.119   9.000  2.1471  1.3030 -0.4395
  156MOL0     H21513   2.485   9.075   8.942  0.0938 -1.7890 -1.4358
  156MOL0     H21514   2.202   9.169   8.517 -0.9845 -0.1035 -1.9475
  156MOL0     H21515   1.998   9.131   8.392 -1.3100 -0.4264 -0.0515
  156MOL0     H21516   1.661   8.845   8.549  0.9328  0.3670 -2.7124
  156MOL0     H21517   1.641   8.999   8.638 -1.7223  0.5402 -0.7694
  156MOL0     H21518   1.574   8.942   8.355 -0.0369 -0.3604 -0.0770
  156MOL0     H21519   1.523   9.087   8.437 -1.5910 -0.7872  0.1515
  156MOL0     H21520   1.438   8.824   8.555  0.8972 -1.1590 -1.6685
  156MOL0     H21521   1.360   8.976   8.567  0.1299  1.0518  1.0185
  156MOL0     H21522   1.399   8.856   8.289 -0.7067  1.3239 -1.5050
  156MOL0     H21523   1.277   8.976   8.343 -1.8088 -0.9713  0.9899
  156MOL0     H21524   1.047   8.644   8.390 -1.0165  0.3305  0.7344
  156MOL0     H21525   1.832   8.900   8.706  1.6498 -2.3855  0.2219
  156MOL0     H21526   1.948   8.878   8.912  0.9220  1.1529  1.4624
  156MOL0     H21527   2.120   8.829   8.891  0.6657  0.0141 -0.6836
  156MOL0     H21528   2.072   8.992   8.955 -2.0667  0.2933  0.6427
  157MOL0     O21529   9.076   7.078   6.217 -0.4600 -0.3595 -0.0672
  157MOL0     C21530   9.123   7.129   6.113 -1.1158 -0.2810 -0.4732
  157MOL0     O21531   9.241   7.205   6.109  0.8187  0.4744  0.4396
  157MOL0     C21532   9.277   7.260   6.227 -0.1703 -0.1559 -0.1086
  157MOL0     C21533   9.366   7.181   6.307 -0.4461  0.4338 -0.3825
  157MOL0     C21534   9.413   7.229   6.427 -0.5019  0.2101 -0.5980
  157MOL0     C21535   9.385   7.357   6.474 -0.1456  0.3702  0.3614
  157MOL0     O21536   9.450   7.389   6.583 -0.2221  0.6936  0.2396
  157MOL0     C21537   9.380   7.476   6.685  0.4534  0.0587  1.0723
  157MOL0     C21538   9.474   7.490   6.805  1.4960 -0.6317  0.3768
  157MOL0     C21539   9.613   7.531   6.760 -0.0874 -0.9220 -0.5749
  157MOL0     C21540   9.693   7.581   6.886 -0.0597 -0.3906  0.9366
  157MOL0     C21541   9.815   7.661   6.852 -0.6206 -0.8632  0.3815
  157MOL0     C21542   9.896   7.718   6.986 -0.4406 -0.0568 -0.3120
  157MOL0     C21543  10.034   7.761   6.945  0.7158 -0.3457  0.2459
  157MOL0     C21544  10.112   7.858   7.029 -0.1105  0.1988 -0.3521
  157MOL0     N21545  10.238   7.895   6.958  0.2253 -0.1175 -0.2252
  157MOL0     C21546  10.358   7.818   6.950 -0.0685  0.5420 -0.2998
  157MOL0     C21547  10.442   7.883   6.869 -0.7587  0.1918 -0.1589
  157MOL0     C21548  10.566   7.819   6.802 -0.0020 -0.3599  0.0980
  157MOL0     C21549  10.528   7.696   6.722  0.1695 -0.4532 -0.3293
  157MOL0     C21550  10.638   7.665   6.613  0.4144 -0.1678 -0.4842
  157MOL0     C21551  10.627   7.519   6.564  0.2159 -0.5779 -0.3578
  157MOL0     O21552  10.761   7.491   6.524 -0.5079  0.0491 -0.0208
  157MOL0     C21553  10.796   7.364   6.492  0.1978  0.1054 -0.0454
  157MOL0     C21554  10.929   7.339   6.485  0.2534 -0.1359 -0.2725
  157MOL0     C21555  10.983   7.210   6.466 -0.0434 -0.3127  1.2126
  157MOL0     C21556  11.120   7.191   6.509  0.3905  0.0482 -0.1109
  157MOL0     C21557  10.896   7.102   6.420 -0.1420  0.1232 -0.3213
  157MOL0     C21558  10.944   6.963   6.397 -0.6073  0.1390  0.2006
  157MOL0     O21559  10.853   6.870   6.415  0.0620 -0.4338  0.3058
  157MOL0     C21560  10.880   6.735   6.437  0.1914 -0.4489  0.2975
  157MOL0     C21561  10.787   6.642   6.407  0.1303  0.1881  0.3386
  157MOL0     C21562  10.793   6.508   6.443  0.1008 -0.5996 -0.0771
  157MOL0     C21563  10.909   6.458   6.507  0.3358  0.3407  0.2506
  157MOL0     O21564  10.898   6.326   6.543  0.1089  0.2716  0.0469
  157MOL0     C21565  10.939   6.300   6.672 -0.0753  0.5575 -0.9865
  157MOL0     C21566  10.949   6.147   6.694  0.1450  0.3547 -0.9646
  157MOL0     C21567  10.816   6.069   6.675  0.5407  0.5386 -0.3114
  157MOL0     C21568  10.725   6.056   6.808 -0.4462  0.0696 -0.2735
  157MOL0     C21569  10.585   5.997   6.776  0.8693  0.0381 -0.1610
  157MOL0     C21570  10.488   5.993   6.904 -0.6407 -0.2101  0.5091
  157MOL0     C21571  10.348   5.979   6.855  0.2336  0.2882  0.7651
  157MOL0     C21572  10.251   6.012   6.969  0.7789 -0.9380 -0.1927
  157MOL0    Cl21573  10.271   5.885   7.086  0.1702 -0.0921 -0.1370
  157MOL0     C21574  11.013   6.546   6.535  0.3164  0.2328 -0.1692
  157MOL0     C21575  10.998   6.685   6.508 -0.0742  0.0137  0.7372
  157MOL0     O21576  11.058   6.946   6.352 -0.0428 -0.1391 -0.4931
  157MOL0     C21577  10.759   7.130   6.425  0.3967 -0.1487  0.4217
  157MOL0     C21578  10.712   7.258   6.468  0.5527 -0.2194  0.3518
  157MOL0     N21579  10.375   7.996   6.832 -0.0142 -0.7993 -0.4021
  157MOL0     N21580  10.256   8.011   6.895 -0.2902 -0.5178  0.5449
  157MOL0     C21581   9.295   7.438   6.400 -0.2145 -0.4947 -0.1820
  157MOL0     C21582   9.236   7.386   6.278 -1.0296 -0.0982 -0.2384
  157MOL0     C21583   9.046   7.129   5.987  0.3216  0.8821 -0.5368
  157MOL0     C21584   9.073   7.225   5.891 -0.2407 -0.0471  0.5081
  157MOL0     C21585   8.985   7.245   5.782  0.3666 -0.1624  0.3060
  157MOL0     C21586   8.870   7.172   5.766 -0.1658  1.1826 -0.1201
  157MOL0     O21587   8.778   7.190   5.664 -0.2743  0.1107  0.1241
  157MOL0     C21588   8.644   7.160   5.693  0.8925  0.1006  0.1382
  157MOL0     C21589   8.545   7.243   5.600  0.5902 -0.3512  0.0295
  157MOL0     C21590   8.394   7.202   5.644 -0.3464  0.9955  0.4781
  157MOL0     C21591   8.355   7.082   5.567  0.0100 -0.7909 -0.1347
  157MOL0     C21592   8.217   7.063   5.608  0.4015  0.2047  0.5302
  157MOL0     C21593   8.100   7.043   5.639 -0.6232 -0.6848  0.7418
  157MOL0     C21594   8.846   7.067   5.861  0.7981 -0.3223  0.4388
  157MOL0     C21595   8.932   7.044   5.972  0.0325 -0.6512 -0.0069
  157MOL0     C21596   8.900   6.935   6.069  0.0269 -1.0021  0.7029
  157MOL0     H21597   9.407   7.083   6.282 -0.0464  0.8004 -1.1705
  157MOL0     H21598   9.484   7.162   6.474 -1.7640 -2.5344 -2.3653
  157MOL0     H21599   9.285   7.436   6.721  0.5675 -1.0838  0.1467
  157MOL0     H21600   9.349   7.574   6.645 -0.5897 -0.2319  1.1343
  157MOL0     H21601   9.430   7.571   6.865  2.6889  1.1920 -1.0933
  157MOL0     H21602   9.474   7.403   6.871  0.4475  0.6459  2.1547
  157MOL0     H21603   9.663   7.446   6.714  1.2276 -0.7627  0.5124
  157MOL0     H21604   9.614   7.609   6.683  0.4865  0.2134  0.5357
  157MOL0     H21605   9.633   7.656   6.938  0.5151  1.1441 -0.5141
  157MOL0     H21606   9.712   7.490   6.944 -1.3970 -1.5765 -0.4011
  157MOL0     H21607   9.792   7.736   6.776  1.5549 -3.5151 -3.2729
  157MOL0     H21608   9.883   7.589   6.804 -2.5706 -0.3967 -3.4706
  157MOL0     H21609   9.847   7.810   7.020 -1.1821  0.4380 -2.5378
  157MOL0     H21610   9.900   7.639   7.062  1.9062  0.3329  0.0388
  157MOL0     H21611  10.028   7.819   6.852 -1.5871  2.3493  1.8949
  157MOL0     H21612  10.093   7.673   6.917  0.1247 -0.7403  0.2330
  157MOL0     H21613  10.061   7.954   7.044  1.5360  1.3041 -1.3810
  157MOL0     H21614  10.156   7.825   7.124 -2.4803 -1.3226  0.2870
  157MOL0     H21615  10.372   7.724   7.003  2.3602  1.2113  0.3896
  157MOL0     H21616  10.633   7.790   6.883  0.2542 -1.4988 -0.5004
  157MOL0     H21617  10.615   7.890   6.735  1.8901  0.2252  1.9823
  157MOL0     H21618  10.505   7.609   6.784  0.1528 -1.2729 -1.4467
  157MOL0     H21619  10.444   7.719   6.655  0.3678  0.6010 -0.2405
  157MOL0     H21620  10.637   7.731   6.527 -2.1149 -1.3965 -1.5090
  157MOL0     H21621  10.731   7.668   6.671 -0.1142  4.0538  0.4623
  157MOL0     H21622  10.608   7.450   6.647  0.6998  1.6386  1.7100
  157MOL0     H21623  10.557   7.515   6.481 -0.3503 -2.3432  0.1666
  157MOL0     H21624  10.990   7.415   6.533  2.4065 -1.8629 -0.1320
  157MOL0     H21625  11.194   7.250   6.455  1.1064 -2.6280 -2.2685
  157MOL0     H21626  11.160   7.089   6.515 -2.4097 -1.4470 -3.0811
  157MOL0     H21627  11.124   7.230   6.611 -0.4181 -1.4711  0.5363
  157MOL0     H21628  10.694   6.671   6.359 -0.0164 -0.8963 -0.0659
  157MOL0     H21629  10.704   6.446   6.436  0.2485 -0.6492 -2.1589
  157MOL0     H21630  11.040   6.337   6.691 -1.0211  3.1357 -0.5052
  157MOL0     H21631  10.872   6.351   6.742  2.1344  0.1199  1.6387
  157MOL0     H21632  11.013   6.107   6.615  1.1039 -2.1302  0.9461
  157MOL0     H21633  11.000   6.119   6.787 -0.0218  0.6592 -0.7777
  157MOL0     H21634  10.844   5.969   6.640 -2.7326  0.1337 -2.2348
  157MOL0     H21635  10.749   6.107   6.598 -0.9706  1.4947  1.3804
  157MOL0     H21636  10.708   6.157   6.849 -0.9264  1.3450 -3.3532
  157MOL0     H21637  10.771   5.992   6.884  0.8533  2.0683  0.7041
  157MOL0     H21638  10.532   6.047   6.695 -0.9078  3.1982  2.7095
  157MOL0     H21639  10.598   5.891   6.752 -1.4623 -0.8291  1.9791
  157MOL0     H21640  10.490   6.093   6.947 -0.9805  0.9527 -1.9957
  157MOL0     H21641  10.516   5.918   6.979 -0.8241 -0.2472  0.5424
  157MOL0     H21642  10.337   5.878   6.815  0.8070  0.2252  0.7505
  157MOL0     H21643  10.325   6.047   6.772 -0.9515  1.8218  2.2701
  157MOL0     H21644  10.147   6.030   6.939  1.0001  1.0156  0.0791
  157MOL0     H21645  10.288   6.109   7.004 -0.8791 -0.2010 -0.3755
  157MOL0     H21646  11.099   6.503   6.586 -0.4888 -2.3273 -0.8354
  157MOL0     H21647  11.079   6.754   6.532 -0.8151  1.0219  0.4008
  157MOL0     H21648  10.695   7.044   6.407  0.1003  0.2304 -0.3829
  157MOL0     H21649  10.605   7.269   6.471  0.6924  1.9334 -0.9760
  157MOL0     H21650   9.273   7.538   6.433  0.3871 -0.3146 -0.3207
  157MOL0     H21651   9.165   7.442   6.218 -1.2039 -0.8346 -0.7284
  157MOL0     H21652   9.161   7.288   5.886  0.2921 -0.8240 -3.2046
  157MOL0     H21653   8.988   7.326   5.710  1.1544 -1.9195 -1.7632
  157MOL0     H21654   8.617   7.055   5.676  2.0587 -0.3776  1.1042
  157MOL0     H21655   8.617   7.181   5.797 -3.6414 -0.5161 -0.7197
  157MOL0     H21656   8.559   7.227   5.493 -2.8597  1.9849 -0.9390
  157MOL0     H21657   8.556   7.349   5.623 -0.7341 -0.0666 -0.5726
  157MOL0     H21658   8.391   7.175   5.749  1.6804  1.1021  0.6032
  157MOL0     H21659   8.328   7.287   5.623  0.0941  0.8647 -1.7516
  157MOL0     H21660   8.423   7.007   5.608  1.4040 -0.5187 -1.8386
  157MOL0     H21661   8.369   7.098   5.459 -0.5545 -0.4466 -0.1650
  157MOL0     H21662   8.004   7.032   5.686 -1.3745 -0.0313 -0.5892
  157MOL0     H21663   8.763   6.999   5.842  0.3895  0.6512 -1.5040
  157MOL0     H21664   8.991   6.879   6.093  0.6123 -0.7327 -0.7735
  157MOL0     H21665   8.851   6.970   6.160  0.9237 -0.0928  0.8470
  157MOL0     H21666   8.832   6.869   6.014 -1.7492  1.8596 -0.7497
  158MOL0     O21667   0.242   6.729   5.575 -0.1394 -0.5649 -0.7728
  158MOL0     C21668   0.215   6.705   5.695  0.3975 -0.4907 -0.2503
  158MOL0     O21669   0.302   6.655   5.785  0.6379 -0.1976  0.6160
  158MOL0     C21670   0.425   6.622   5.749  0.1018 -0.5591 -0.0674
  158MOL0     C21671   0.456   6.486   5.745 -0.5938 -0.1267 -0.3496
  158MOL0     C21672   0.587   6.449   5.722 -0.4170 -0.0128  0.0995
  158MOL0     C21673   0.687   6.548   5.711 -0.1895  0.4116  0.4519
  158MOL0     O21674   0.813   6.504   5.689 -0.1765  0.2188  0.1223
  158MOL0     C21675   0.921   6.563   5.768  0.8531 -0.2208  0.2658
  158MOL0     C21676   0.989   6.668   5.692  0.2909  0.6599  0.4733
  158MOL0     C21677   1.129   6.704   5.747  0.4821 -0.2515 -0.4100
  158MOL0     C21678   1.200   6.802   5.651  0.1964 -0.4864 -0.2125
  158MOL0     C21679   1.349   6.828   5.699 -1.0313  0.2146  0.6965
  158MOL0     C21680   1.409   6.945   5.627 -0.0103 -0.6194 -0.2987
  158MOL0     C21681   1.557   6.952   5.635  0.6626 -0.4652 -0.2722
  158MOL0     C21682   1.612   7.093   5.572  0.0179 -0.4401  0.1825
  158MOL0     N21683   1.758   7.091   5.580  0.8194 -0.3121 -0.1763
  158MOL0     C21684   1.843   7.112   5.478  0.4092 -0.6195 -0.8215
  158MOL0     C21685   1.964   7.112   5.530 -0.0496  0.0084 -0.5666
  158MOL0     C21686   2.091   7.117   5.448  0.0349  0.8664  0.4173
  158MOL0     C21687   2.183   7.222   5.489 -0.0112 -0.5584  0.4232
  158MOL0     C21688   2.139   7.369   5.458  0.7466  0.2070  0.9465
  158MOL0     C21689   2.250   7.463   5.485  0.2588 -0.5308 -0.5953
  158MOL0     O21690   2.278   7.448   5.627 -0.0668  0.1219 -0.2752
  158MOL0     C21691   2.383   7.529   5.680 -0.1828 -0.1349  1.0172
  158MOL0     C21692   2.460   7.629   5.613  0.1732  1.5090 -0.4691
  158MOL0     C21693   2.568   7.692   5.672 -0.3272 -0.3903  0.1884
  158MOL0     C21694   2.640   7.799   5.583 -0.1277 -0.0228  0.5004
  158MOL0     C21695   2.614   7.648   5.797 -0.8558 -0.1681 -0.9207
  158MOL0     C21696   2.725   7.710   5.876  0.5133  0.2203 -0.2305
  158MOL0     O21697   2.771   7.644   5.987 -1.1674 -0.6197 -0.4521
  158MOL0     C21698   2.895   7.678   6.045 -0.0651 -0.0984 -1.1371
  158MOL0     C21699   2.908   7.791   6.131 -0.8633 -0.8674 -0.6625
  158MOL0     C21700   3.034   7.822   6.184  0.4163 -0.2504 -0.5492
  158MOL0     C21701   3.150   7.751   6.146 -1.0073 -0.4022 -0.0666
  158MOL0     O21702   3.266   7.805   6.197 -0.0866 -0.0958 -0.2882
  158MOL0     C21703   3.389   7.741   6.168  0.9878  0.2979  0.2729
  158MOL0     C21704   3.487   7.819   6.256 -0.2410 -0.5425 -0.6592
  158MOL0     C21705   3.636   7.754   6.267 -0.6879  0.9353 -0.3711
  158MOL0     C21706   3.652   7.616   6.202  0.6038  0.0854  0.7668
  158MOL0     C21707   3.782   7.556   6.258  0.8437 -0.0580 -0.0335
  158MOL0     C21708   3.909   7.632   6.217  0.8451  0.3482 -0.0892
  158MOL0     C21709   4.027   7.543   6.266  0.5283  0.8301  0.1486
  158MOL0     C21710   4.037   7.549   6.421  1.1982  0.4779  0.2885
  158MOL0    Cl21711   4.031   7.722   6.503  0.2988  0.4923 -0.0796
  158MOL0     C21712   3.130   7.633   6.066 -0.4308  0.0917  0.0104
  158MOL0     C21713   3.003   7.599   6.018 -0.6468 -0.0297 -0.9436
  158MOL0     O21714   2.779   7.812   5.834 -0.5148  0.2382 -0.4602
  158MOL0     C21715   2.536   7.543   5.863 -0.8857 -0.7142  0.5931
  158MOL0     C21716   2.426   7.484   5.797 -0.4806 -1.1713 -0.6696
  158MOL0     N21717   1.951   7.110   5.675  0.4852  0.7333  0.3293
  158MOL0     N21718   1.824   7.098   5.700  0.8037 -1.2519 -0.8928
  158MOL0     C21719   0.648   6.680   5.714 -0.3579 -0.3180  0.3392
  158MOL0     C21720   0.520   6.721   5.735 -0.4136 -0.5438 -0.0029
  158MOL0     C21721   0.079   6.735   5.751 -0.2686 -0.1884 -0.8784
  158MOL0     C21722  -0.023   6.718   5.662  0.4910  0.4714  0.3683
  158MOL0     C21723  -0.147   6.755   5.698  0.7763 -0.2780  0.7022
  158MOL0     C21724  -0.182   6.795   5.830  0.1912 -1.1126  1.1477
  158MOL0     O21725  -0.306   6.848   5.842 -0.7279  0.3240 -0.6691
  158MOL0     C21726  -0.349   6.876   5.977  0.4385 -1.0262  0.3164
  158MOL0     C21727  -0.497   6.854   5.996 -0.0849  0.2909 -0.0547
  158MOL0     C21728  -0.528   6.704   6.006  0.7656 -0.2597 -0.1612
  158MOL0     C21729  -0.660   6.660   5.934 -0.1000 -0.1922  0.2892
  158MOL0     C21730  -0.713   6.531   5.981  1.0443  0.8630 -0.4704
  158MOL0     C21731  -0.759   6.425   6.008 -1.0011 -0.0026  0.0196
  158MOL0     C21732  -0.082   6.821   5.917 -0.1480 -0.1042 -0.5337
  158MOL0     C21733   0.052   6.792   5.885  0.2431  0.7138 -1.1330
  158MOL0     C21734   0.163   6.822   5.980  0.1252  0.3813 -0.3783
  158MOL0     H21735   0.383   6.406   5.746  2.7579 -3.4573  0.2433
  158MOL0     H21736   0.606   6.342   5.712  1.2788 -0.0924  3.1218
  158MOL0     H21737   1.004   6.492   5.768  1.6969  0.7330 -0.4880
  158MOL0     H21738   0.894   6.581   5.872  0.4489  0.7838 -0.0020
  158MOL0     H21739   0.997   6.620   5.594  0.0927  0.4586  0.5564
  158MOL0     H21740   0.926   6.758   5.689  0.3592  0.7381  1.2074
  158MOL0     H21741   1.125   6.740   5.850 -1.6114 -1.0972 -0.1438
  158MOL0     H21742   1.185   6.610   5.754  1.4209  0.3086 -0.1797
  158MOL0     H21743   1.199   6.750   5.554 -1.4844  2.2768 -1.8170
  158MOL0     H21744   1.149   6.897   5.636 -2.7563 -1.3435  3.0641
  158MOL0     H21745   1.407   6.737   5.682 -0.9058  0.2170  1.1004
  158MOL0     H21746   1.352   6.835   5.809  1.4737 -1.1985  0.7935
  158MOL0     H21747   1.380   6.943   5.522 -2.3255  0.1133  0.2744
  158MOL0     H21748   1.362   7.035   5.668 -0.4736 -0.9627 -0.0643
  158MOL0     H21749   1.594   6.864   5.581 -1.7341 -3.2204  2.2163
  158MOL0     H21750   1.587   6.936   5.738 -0.3531 -0.9694 -0.0429
  158MOL0     H21751   1.579   7.111   5.469  0.8379 -1.0772 -0.2049
  158MOL0     H21752   1.573   7.174   5.633  1.0200  1.2962 -1.3763
  158MOL0     H21753   1.800   7.141   5.383  3.1164 -0.8460 -2.2174
  158MOL0     H21754   2.071   7.123   5.341 -1.3760  1.3669  0.6868
  158MOL0     H21755   2.139   7.021   5.470  0.8452  0.3661 -2.9681
  158MOL0     H21756   2.209   7.217   5.595  0.3888  2.5605  0.5685
  158MOL0     H21757   2.277   7.210   5.434  0.7921  4.4459  0.2342
  158MOL0     H21758   2.099   7.377   5.357  2.0883 -0.3771  0.3477
  158MOL0     H21759   2.062   7.390   5.534  0.8148 -0.2748  1.1529
  158MOL0     H21760   2.333   7.444   5.416  0.6988  0.8174 -0.4529
  158MOL0     H21761   2.218   7.563   5.453  1.6396 -0.5684 -2.2701
  158MOL0     H21762   2.424   7.659   5.515 -1.3016 -1.0263 -0.7955
  158MOL0     H21763   2.733   7.757   5.544 -0.9430 -0.7553 -0.7136
  158MOL0     H21764   2.652   7.894   5.636 -4.8463  0.7303  0.6761
  158MOL0     H21765   2.587   7.833   5.493  1.0615 -1.7474 -0.9178
  158MOL0     H21766   2.818   7.849   6.148 -1.4947 -2.6399  3.1576
  158MOL0     H21767   3.046   7.908   6.249  1.2811 -1.5894  1.1169
  158MOL0     H21768   3.383   7.634   6.191  0.9726  0.7106  2.3023
  158MOL0     H21769   3.423   7.747   6.064 -1.3635 -1.3463 -0.6808
  158MOL0     H21770   3.487   7.924   6.224 -1.8119 -0.3479 -0.0840
  158MOL0     H21771   3.442   7.807   6.355  2.0276 -1.6381  0.3203
  158MOL0     H21772   3.666   7.745   6.371  1.3763  2.7688 -0.7387
  158MOL0     H21773   3.700   7.821   6.209  0.3405  0.3043  0.0089
  158MOL0     H21774   3.667   7.630   6.095  1.2743 -1.3368  0.6507
  158MOL0     H21775   3.563   7.552   6.202  1.3435 -0.9773  0.4693
  158MOL0     H21776   3.786   7.547   6.367 -0.7876 -1.2046 -0.0287
  158MOL0     H21777   3.792   7.451   6.230  2.2229 -0.5747  2.1028
  158MOL0     H21778   3.910   7.728   6.270 -2.4920 -0.1637  1.1051
  158MOL0     H21779   3.917   7.649   6.109  1.4684 -0.1978 -0.1345
  158MOL0     H21780   4.117   7.581   6.216  0.3627  0.2540 -0.6146
  158MOL0     H21781   4.015   7.440   6.232 -2.5217  1.0259  0.4130
  158MOL0     H21782   4.130   7.494   6.440  1.0935  0.7974  1.8141
  158MOL0     H21783   3.958   7.485   6.461 -1.0632  1.0643 -2.8606
  158MOL0     H21784   3.221   7.577   6.051  0.2113  0.4027  2.3287
  158MOL0     H21785   3.005   7.513   5.952  1.8619  0.7668 -2.0279
  158MOL0     H21786   2.567   7.506   5.960 -0.2831 -0.8828  0.3449
  158MOL0     H21787   2.375   7.403   5.848 -1.6588 -0.0737 -0.0480
  158MOL0     H21788   0.719   6.760   5.699 -0.6843 -0.0665  0.1474
  158MOL0     H21789   0.496   6.826   5.726 -0.5230 -0.7345 -3.4377
  158MOL0     H21790   0.001   6.668   5.569 -0.4780 -3.5584  2.0565
  158MOL0     H21791  -0.230   6.749   5.629  1.4510 -0.3157 -0.1122
  158MOL0     H21792  -0.300   6.812   6.051  0.4569 -0.3494  0.8972
  158MOL0     H21793  -0.316   6.976   6.006  1.1188 -0.8713 -0.9122
  158MOL0     H21794  -0.541   6.910   5.913  1.7532 -1.5576 -2.4070
  158MOL0     H21795  -0.516   6.906   6.090 -0.8728  0.8144 -0.4876
  158MOL0     H21796  -0.460   6.642   5.947 -0.5010  0.3085 -2.3693
  158MOL0     H21797  -0.531   6.665   6.107 -0.0031 -0.0863 -0.1099
  158MOL0     H21798  -0.643   6.664   5.826 -1.1019 -0.4092  0.1156
  158MOL0     H21799  -0.739   6.734   5.950  1.0191  1.2066 -0.3810
  158MOL0     H21800  -0.798   6.332   6.043  1.0159 -0.5749  0.8877
  158MOL0     H21801  -0.100   6.883   6.005  0.8593 -1.5364  0.7387
  158MOL0     H21802   0.114   6.866   6.067 -0.4216 -1.0808  0.0784
  158MOL0     H21803   0.213   6.729   6.008  3.5597  1.8144 -1.2620
  158MOL0     H21804   0.240   6.890   5.943  0.6433 -0.8984 -1.7169
  159MOL0     O21805   8.833   1.939   9.149  0.0136 -0.5514  0.5853
  159MOL0     C21806   8.737   1.868   9.174 -0.0478  0.4868  0.3656
  159MOL0     O21807   8.733   1.774   9.276  0.2508  0.4624  0.7467
  159MOL0     C21808   8.848   1.733   9.343 -0.7131 -0.8609 -0.1975
  159MOL0     C21809   8.832   1.702   9.472 -0.2081  0.1785  0.3402
  159MOL0     C21810   8.930   1.632   9.544 -0.2063 -0.3633  0.4286
  159MOL0     C21811   9.057   1.604   9.489 -0.1381  0.1587  0.5069
  159MOL0     O21812   9.140   1.535   9.572 -0.1029  0.3557  0.2181
  159MOL0     C21813   9.268   1.501   9.524 -0.5336  0.1218 -0.2370
  159MOL0     C21814   9.350   1.407   9.612  0.3032  0.9091 -0.4169
  159MOL0     C21815   9.454   1.338   9.532 -0.1521 -0.1262 -0.1976
  159MOL0     C21816   9.549   1.260   9.630 -0.1107 -0.0814 -0.4481
  159MOL0     C21817   9.675   1.203   9.557  0.3149 -0.0223 -0.3468
  159MOL0     C21818   9.741   1.082   9.623 -0.3841 -0.4142  0.4159
  159MOL0     C21819   9.879   1.061   9.569  0.5546  0.4812 -0.1069
  159MOL0     C21820   9.903   1.042   9.415  0.7589  0.0457 -0.0124
  159MOL0     N21821   9.834   0.922   9.367  0.0629 -0.0154 -0.9163
  159MOL0     C21822   9.830   0.804   9.438 -0.5723 -0.5417 -0.4363
  159MOL0     C21823   9.757   0.723   9.372  0.0061  0.4957  1.3347
  159MOL0     C21824   9.728   0.581   9.406 -0.1820  0.4545 -0.0200
  159MOL0     C21825   9.854   0.486   9.376 -0.5832  0.2731  0.3583
  159MOL0     C21826   9.895   0.467   9.228 -0.7372  0.1160  0.6609
  159MOL0     C21827   9.955   0.325   9.207  0.2873  0.1953  0.9874
  159MOL0     O21828  10.001   0.299   9.072 -0.1742 -0.1503  0.0080
  159MOL0     C21829  10.111   0.363   9.021  0.0509  0.5653 -0.4050
  159MOL0     C21830  10.134   0.352   8.890 -0.0435  0.2439  0.0488
  159MOL0     C21831  10.253   0.395   8.819  0.5056  0.6325 -0.1106
  159MOL0     C21832  10.241   0.397   8.663  0.7214 -0.1792 -0.6436
  159MOL0     C21833  10.355   0.457   8.897 -1.5412 -0.0706 -0.2449
  159MOL0     C21834  10.499   0.482   8.849 -1.2226  0.9289  0.0309
  159MOL0     O21835  10.579   0.557   8.931 -0.2921 -0.1344 -0.0063
  159MOL0     C21836  10.712   0.532   8.926  0.3015  0.7907  0.0049
  159MOL0     C21837  10.795   0.593   8.828 -0.2816 -0.3120  0.1835
  159MOL0     C21838  10.937   0.577   8.831  0.0242 -0.6493 -0.1458
  159MOL0     C21839  11.003   0.494   8.923 -0.0906 -0.2613  0.6653
  159MOL0     O21840  11.141   0.481   8.909  0.0117  0.3405  0.6851
  159MOL0     C21841  11.220   0.488   9.027 -0.4032  0.0259 -0.3391
  159MOL0     C21842  11.376   0.476   9.005  0.5020  0.3055 -0.4649
  159MOL0     C21843  11.459   0.523   9.123 -0.1495  0.3831 -0.0806
  159MOL0     C21844  11.601   0.477   9.098  0.4133 -0.6629  0.0127
  159MOL0     C21845  11.657   0.556   8.978 -0.6602 -0.7730 -0.0429
  159MOL0     C21846  11.810   0.576   8.994 -0.5129  0.4631 -0.6424
  159MOL0     C21847  11.860   0.636   8.858 -0.0006 -0.1864 -0.3501
  159MOL0     C21848  11.974   0.732   8.910 -0.7807 -0.6013  0.7405
  159MOL0    Cl21849  12.052   0.824   8.777  0.3027  0.2204  0.2268
  159MOL0     C21850  10.924   0.419   9.004 -0.5809 -0.3844  0.3895
  159MOL0     C21851  10.786   0.438   9.014  0.5366 -0.3635  0.3815
  159MOL0     O21852  10.546   0.410   8.762 -0.1304  0.1513 -0.3722
  159MOL0     C21853  10.324   0.479   9.030  0.4762 -0.2662  0.3137
  159MOL0     C21854  10.207   0.441   9.093  0.2710  0.0601  0.0690
  159MOL0     N21855   9.705   0.792   9.258 -0.1776  0.3367  0.2448
  159MOL0     N21856   9.761   0.908   9.257  0.8813  0.1099  0.0174
  159MOL0     C21857   9.067   1.629   9.350 -0.2402  0.1051 -0.4500
  159MOL0     C21858   8.969   1.696   9.279  0.5343  1.2240 -0.3748
  159MOL0     C21859   8.603   1.885   9.104  0.4327 -0.7360 -0.2696
  159MOL0     C21860   8.509   1.783   9.105  0.3451 -0.5818 -0.3723
  159MOL0     C21861   8.381   1.805   9.038  0.4903  0.4473 -0.5882
  159MOL0     C21862   8.353   1.929   8.982  0.6438 -0.1749  0.2468
  159MOL0     O21863   8.223   1.950   8.928 -0.3568  0.9847  0.0344
  159MOL0     C21864   8.127   1.937   9.027  1.2500 -0.7670 -1.0198
  159MOL0     C21865   8.023   2.051   9.018 -0.9626  0.1443  0.1218
  159MOL0     C21866   7.887   2.025   9.089 -0.7234 -0.2864  0.5378
  159MOL0     C21867   7.891   2.047   9.238 -0.6038 -0.5671  0.5669
  159MOL0     C21868   7.767   2.025   9.318  0.1536 -0.2647  0.6632
  159MOL0     C21869   7.656   2.007   9.360 -0.3616  0.5255 -0.1595
  159MOL0     C21870   8.439   2.027   8.992  0.0215 -0.6367 -1.2382
  159MOL0     C21871   8.564   2.018   9.046 -0.1723  0.6102 -0.6174
  159MOL0     C21872   8.642   2.147   9.049  0.1095 -0.5476  0.2116
  159MOL0     H21873   8.732   1.702   9.514  0.1949 -0.0067  1.3423
  159MOL0     H21874   8.909   1.590   9.642  2.4474 -0.9942  0.8240
  159MOL0     H21875   9.331   1.590   9.519  0.8303 -0.5599  2.6953
  159MOL0     H21876   9.260   1.453   9.426  2.7265 -1.3293  0.0811
  159MOL0     H21877   9.394   1.459   9.698  0.4507 -1.0614  0.7557
  159MOL0     H21878   9.287   1.323   9.643  0.1393 -0.7338 -4.5739
  159MOL0     H21879   9.413   1.277   9.451 -1.1248  0.0751  0.1254
  159MOL0     H21880   9.517   1.418   9.492 -2.4837  1.0862 -1.7164
  159MOL0     H21881   9.566   1.322   9.718 -0.7868 -0.7870  0.1948
  159MOL0     H21882   9.490   1.173   9.661 -1.3517  1.2379  1.0993
  159MOL0     H21883   9.749   1.283   9.559  0.1685  0.1141 -0.3439
  159MOL0     H21884   9.670   1.192   9.449  2.7463 -0.6073 -0.4717
  159MOL0     H21885   9.753   1.085   9.732  0.2534 -0.7390  0.3624
  159MOL0     H21886   9.685   0.991   9.599  1.8111 -2.8976  3.7134
  159MOL0     H21887   9.918   0.970   9.615 -0.2703 -1.0216 -2.2466
  159MOL0     H21888   9.941   1.141   9.612  1.1079 -0.2464  0.4944
  159MOL0     H21889   9.883   1.136   9.362 -0.2896  0.6064  1.2940
  159MOL0     H21890  10.008   1.015   9.404  0.3996 -1.1766 -0.5498
  159MOL0     H21891   9.884   0.790   9.531  1.4034  2.6283 -0.9202
  159MOL0     H21892   9.638   0.545   9.355  0.2911  0.6564 -1.0140
  159MOL0     H21893   9.718   0.567   9.514 -2.7784 -0.3663 -0.3016
  159MOL0     H21894   9.942   0.504   9.438 -0.2897 -0.9395  0.3146
  159MOL0     H21895   9.817   0.393   9.419  0.1676  0.9393  2.5664
  159MOL0     H21896   9.814   0.485   9.157  0.2225  0.0067 -0.4754
  159MOL0     H21897   9.975   0.541   9.216 -1.1747  0.6701  1.0339
  159MOL0     H21898  10.035   0.316   9.281  1.3475 -1.2630 -0.2698
  159MOL0     H21899   9.882   0.248   9.234  0.6813  0.0579  1.6925
  159MOL0     H21900  10.048   0.310   8.839 -0.5149  1.3992 -0.1501
  159MOL0     H21901  10.298   0.481   8.621  3.3209 -0.6477  1.7162
  159MOL0     H21902  10.135   0.408   8.638  0.8419 -3.0507 -2.8098
  159MOL0     H21903  10.275   0.301   8.625 -0.2802 -2.2098  3.1217
  159MOL0     H21904  10.744   0.666   8.766  4.0570  0.9334 -2.3516
  159MOL0     H21905  10.985   0.639   8.757 -4.6137 -0.9172 -3.8793
  159MOL0     H21906  11.199   0.589   9.064 -2.1397  0.1434 -1.5566
  159MOL0     H21907  11.184   0.406   9.090  0.0665 -0.8481 -1.1875
  159MOL0     H21908  11.402   0.370   8.995 -0.4098  0.1226 -1.0751
  159MOL0     H21909  11.420   0.531   8.921  5.0228  2.8161  3.1003
  159MOL0     H21910  11.414   0.491   9.217 -0.7343  0.3434 -0.3725
  159MOL0     H21911  11.452   0.632   9.131  2.0980  0.6205 -0.5711
  159MOL0     H21912  11.594   0.368   9.088 -5.3871 -0.8033  1.8136
  159MOL0     H21913  11.651   0.504   9.191 -1.7974  1.1335  0.7582
  159MOL0     H21914  11.633   0.491   8.894 -3.5570  1.0586 -0.7990
  159MOL0     H21915  11.610   0.654   8.968  2.4231  0.7887 -0.2161
  159MOL0     H21916  11.868   0.486   9.015 -1.3965  0.6813  3.5432
  159MOL0     H21917  11.825   0.647   9.076  1.6494  1.9818 -2.2307
  159MOL0     H21918  11.788   0.684   8.792  1.5512  0.9825 -1.2558
  159MOL0     H21919  11.907   0.556   8.800 -3.5141 -2.5539 -0.2278
  159MOL0     H21920  12.049   0.674   8.965  0.3054  0.3697  0.3375
  159MOL0     H21921  11.934   0.802   8.984 -1.4213  1.0809 -1.1082
  159MOL0     H21922  10.973   0.358   9.079  0.3687  0.1760  0.2344
  159MOL0     H21923  10.722   0.380   9.080 -0.5924  0.3499 -0.0511
  159MOL0     H21924  10.392   0.521   9.104  1.2767 -1.4821  0.2872
  159MOL0     H21925  10.204   0.466   9.198  1.3473 -1.6852  0.5614
  159MOL0     H21926   9.153   1.604   9.289 -1.9132 -2.4668 -1.9801
  159MOL0     H21927   8.975   1.706   9.171  3.8697  2.3719 -0.2094
  159MOL0     H21928   8.536   1.685   9.142 -1.8919 -0.7905  0.9044
  159MOL0     H21929   8.317   1.718   9.025  2.6748 -1.6174  1.5174
  159MOL0     H21930   8.080   1.838   9.030  0.6101 -0.4875 -1.5734
  159MOL0     H21931   8.174   1.944   9.125 -1.4585 -2.6924  0.5716
  159MOL0     H21932   8.010   2.055   8.910  2.1645 -1.9389 -0.4533
  159MOL0     H21933   8.058   2.150   9.049  1.6055 -0.6224 -0.0835
  159MOL0     H21934   7.801   2.073   9.041  1.9381  2.7735 -1.5733
  159MOL0     H21935   7.867   1.918   9.080 -1.4830 -0.1511  0.5847
  159MOL0     H21936   7.902   2.155   9.246 -0.5553 -0.3326 -1.8290
  159MOL0     H21937   7.978   1.991   9.277  1.9950  2.5171 -0.3847
  159MOL0     H21938   7.558   1.981   9.393 -0.1169  0.6436  0.7002
  159MOL0     H21939   8.407   2.120   8.947  1.7814  0.1595 -0.9136
  159MOL0     H21940   8.583   2.234   9.076  3.2143  1.3554  1.4337
  159MOL0     H21941   8.722   2.144   9.124  0.2654  2.2744  0.2731
  159MOL0     H21942   8.692   2.161   8.952 -1.2780  0.1911 -0.4200
  160MOL0     O21943   1.422   7.251   7.097  0.8736 -0.3528  0.4577
  160MOL0     C21944   1.362   7.265   7.205 -0.2256  0.3991 -0.1366
  160MOL0     O21945   1.418   7.289   7.332 -0.3121  0.6262  0.7752
  160MOL0     C21946   1.538   7.241   7.363 -0.8938  0.4311 -0.0739
  160MOL0     C21947   1.657   7.318   7.357 -0.3890  0.3000  0.4696
  160MOL0     C21948   1.775   7.250   7.376  0.1272 -0.4914  0.2082
  160MOL0     C21949   1.789   7.111   7.407  0.3140  0.3665  0.7672
  160MOL0     O21950   1.913   7.049   7.431 -0.6685 -0.5200 -0.4454
  160MOL0     C21951   1.927   6.912   7.401  0.2663  0.1915 -0.0087
  160MOL0     C21952   2.070   6.875   7.373  0.2120  0.1884 -0.4396
  160MOL0     C21953   2.115   6.917   7.231  0.4323 -1.4020 -0.1775
  160MOL0     C21954   2.270   6.945   7.228 -0.2146  0.7154  0.6126
  160MOL0     C21955   2.319   6.924   7.082 -0.6529 -1.1929 -0.2822
  160MOL0     C21956   2.463   6.965   7.060 -0.8728 -0.0821 -0.0212
  160MOL0     C21957   2.499   6.935   6.913  0.3511  0.1976  0.1718
  160MOL0     C21958   2.639   6.974   6.893 -0.5671  0.8441 -0.3697
  160MOL0     N21959   2.663   6.966   6.742  0.5516 -0.3188 -0.2302
  160MOL0     C21960   2.704   7.071   6.662  0.1863  0.3241 -0.2628
  160MOL0     C21961   2.716   7.013   6.538 -0.0285 -0.2277 -0.3742
  160MOL0     C21962   2.772   7.083   6.418 -0.3629  0.0821 -0.6228
  160MOL0     C21963   2.935   7.087   6.449 -0.5739  0.3695 -0.5562
  160MOL0     C21964   3.017   6.958   6.392 -0.2698 -0.1862 -0.2528
  160MOL0     C21965   3.164   6.983   6.360  0.4466  0.8801  0.0999
  160MOL0     O21966   3.238   7.017   6.477  0.5160 -0.6327 -0.3341
  160MOL0     C21967   3.370   7.040   6.464 -0.3194 -0.1084  0.2757
  160MOL0     C21968   3.454   7.012   6.353 -0.0958  1.0669  0.3075
  160MOL0     C21969   3.593   7.057   6.352  1.2623 -0.2471  0.1434
  160MOL0     C21970   3.670   7.018   6.231 -0.3280  0.5245  0.1821
  160MOL0     C21971   3.643   7.124   6.466 -0.2703  0.5476 -0.9166
  160MOL0     C21972   3.780   7.172   6.469  0.4788 -0.3944  0.4991
  160MOL0     O21973   3.870   7.099   6.405  0.4827 -0.2084  0.2272
  160MOL0     C21974   4.000   7.144   6.397 -0.3368 -0.3868  0.2610
  160MOL0     C21975   4.053   7.151   6.272 -0.3779 -0.6884 -0.0799
  160MOL0     C21976   4.185   7.194   6.244  0.2950  0.0935 -0.1074
  160MOL0     C21977   4.274   7.221   6.342  0.7393 -0.2759 -0.5735
  160MOL0     O21978   4.395   7.271   6.309  0.2110 -0.4768 -0.3356
  160MOL0     C21979   4.378   7.404   6.271  0.7529 -0.1057  0.1678
  160MOL0     C21980   4.515   7.471   6.296 -0.0274 -1.0417 -0.5563
  160MOL0     C21981   4.498   7.623   6.280  0.7016 -0.1098 -0.5189
  160MOL0     C21982   4.627   7.688   6.235  0.0712  0.8585  0.0911
  160MOL0     C21983   4.716   7.694   6.364 -0.4821 -0.4622 -0.3692
  160MOL0     C21984   4.857   7.732   6.329 -0.0511 -0.5366 -1.0166
  160MOL0     C21985   4.917   7.784   6.467  0.3708  0.2650 -0.5677
  160MOL0     C21986   5.067   7.778   6.455 -0.6063  0.8801 -0.8082
  160MOL0    Cl21987   5.144   7.890   6.336  0.1814 -0.3007 -0.1441
  160MOL0     C21988   4.233   7.213   6.478 -0.3679  0.0804 -0.2688
  160MOL0     C21989   4.095   7.189   6.503 -0.6133 -0.1606 -0.5944
  160MOL0     O21990   3.802   7.278   6.524 -0.7297  0.1536 -0.2701
  160MOL0     C21991   3.551   7.165   6.561  0.0487 -0.2347  0.4038
  160MOL0     C21992   3.424   7.115   6.569 -0.2766 -0.5786  0.4192
  160MOL0     N21993   2.687   6.881   6.547  0.5142  0.6299 -0.3195
  160MOL0     N21994   2.655   6.856   6.674 -0.5625  0.4709  0.3516
  160MOL0     C21995   1.662   7.045   7.433  0.0470 -0.1084 -0.8210
  160MOL0     C21996   1.537   7.108   7.398 -0.6071 -0.1964  0.0876
  160MOL0     C21997   1.214   7.255   7.201  0.1564  0.1020  0.8880
  160MOL0     C21998   1.148   7.288   7.315  0.2880 -0.2420  0.3227
  160MOL0     C21999   1.010   7.297   7.316  0.1512 -0.6897 -0.5729
  160MOL0     C22000   0.932   7.257   7.210  0.4713 -0.7938  0.0462
  160MOL0     O22001   0.786   7.246   7.216 -0.2774 -0.7727 -1.0757
  160MOL0     C22002   0.715   7.286   7.336  0.6709 -0.0919  0.3318
  160MOL0     C22003   0.662   7.430   7.329  0.2452 -0.9803 -0.1117
  160MOL0     C22004   0.535   7.453   7.254  0.4840  0.3421 -0.9940
  160MOL0     C22005   0.539   7.424   7.110 -0.7381 -0.4393  0.6715
  160MOL0     C22006   0.416   7.459   7.044  0.0239 -0.7867  1.0476
  160MOL0     C22007   0.311   7.475   6.989 -0.0095 -0.1099  0.2593
  160MOL0     C22008   0.995   7.214   7.099 -0.5538  0.0245  0.9766
  160MOL0     C22009   1.137   7.216   7.090  0.5125  0.1632  0.7122
  160MOL0     C22010   1.190   7.178   6.949 -0.4776 -0.1152 -0.1613
  160MOL0     H22011   1.656   7.425   7.338 -0.6732  0.0955 -0.7582
  160MOL0     H22012   1.868   7.305   7.363  0.8837 -1.8124 -0.1058
  160MOL0     H22013   1.858   6.881   7.322 -1.8641  2.2849  0.9018
  160MOL0     H22014   1.901   6.859   7.494  2.9579 -0.5332  0.4151
  160MOL0     H22015   2.125   6.901   7.464 -1.7458  2.1620  0.2531
  160MOL0     H22016   2.077   6.767   7.359  1.2063  0.5189 -2.9740
  160MOL0     H22017   2.076   6.849   7.154 -0.1081  0.8503 -2.0177
  160MOL0     H22018   2.064   7.011   7.207 -0.1266 -1.5872  0.2632
  160MOL0     H22019   2.302   7.045   7.260  1.5395  1.1408 -2.0806
  160MOL0     H22020   2.316   6.866   7.289  1.8831  2.0066  0.8008
  160MOL0     H22021   2.259   6.978   7.009  0.7170 -0.7269 -1.0845
  160MOL0     H22022   2.306   6.818   7.059  1.3626 -1.3891 -0.7523
  160MOL0     H22023   2.487   7.068   7.091 -0.0751  0.3211 -1.8197
  160MOL0     H22024   2.524   6.897   7.119 -0.8452  0.0727  0.1272
  160MOL0     H22025   2.437   6.991   6.843 -0.5043 -1.5781 -0.5348
  160MOL0     H22026   2.490   6.829   6.890 -3.1689  0.7306 -1.5970
  160MOL0     H22027   2.656   7.072   6.938  2.0831  0.5080 -0.4610
  160MOL0     H22028   2.703   6.896   6.937 -1.4205  0.9473  1.1120
  160MOL0     H22029   2.725   7.174   6.689 -0.5060 -0.2004  2.6233
  160MOL0     H22030   2.745   7.186   6.393 -0.2980 -0.5858 -3.8923
  160MOL0     H22031   2.746   7.020   6.333 -1.5281  0.6738 -0.7335
  160MOL0     H22032   2.976   7.176   6.399  1.3947  0.1544  0.5674
  160MOL0     H22033   2.967   7.108   6.551  2.2087 -0.3469 -1.1977
  160MOL0     H22034   3.007   6.880   6.469 -0.2610  1.5861  1.6344
  160MOL0     H22035   2.980   6.909   6.302 -0.3077 -0.4744 -0.0822
  160MOL0     H22036   3.216   6.899   6.313 -2.3514  0.3137 -2.2359
  160MOL0     H22037   3.165   7.067   6.290 -0.4455 -0.1103 -1.1558
  160MOL0     H22038   3.417   6.955   6.269 -3.5776 -2.4125  3.7730
  160MOL0     H22039   3.737   7.096   6.194  0.0314  0.3496  0.4450
  160MOL0     H22040   3.597   6.996   6.153 -1.0587 -2.5335  1.5960
  160MOL0     H22041   3.720   6.921   6.244 -0.6258 -0.0004 -2.1320
  160MOL0     H22042   3.985   7.118   6.194  0.0418 -1.5061 -0.1146
  160MOL0     H22043   4.207   7.198   6.138 -2.7981 -0.3842 -0.8618
  160MOL0     H22044   4.339   7.418   6.170 -3.0881  0.7989  1.6172
  160MOL0     H22045   4.297   7.453   6.325  1.4290  0.5780  0.5944
  160MOL0     H22046   4.548   7.441   6.396 -1.4763  1.9971  0.9689
  160MOL0     H22047   4.591   7.441   6.223 -0.4053  1.3646 -2.0638
  160MOL0     H22048   4.467   7.660   6.378 -1.9278 -0.3669 -1.1900
  160MOL0     H22049   4.425   7.645   6.201 -2.3025 -1.9983  1.5564
  160MOL0     H22050   4.610   7.789   6.198  1.6623  0.5170 -1.7331
  160MOL0     H22051   4.674   7.626   6.158 -1.1261  2.2965 -1.9030
  160MOL0     H22052   4.685   7.772   6.433  1.7500  2.7208 -2.7011
  160MOL0     H22053   4.727   7.597   6.415 -0.8672  0.4322  1.4878
  160MOL0     H22054   4.860   7.806   6.249  0.7203 -0.1051 -0.6063
  160MOL0     H22055   4.908   7.637   6.312  0.7923 -0.8690  2.5327
  160MOL0     H22056   4.896   7.713   6.547  1.2949  0.1715 -0.4075
  160MOL0     H22057   4.897   7.889   6.489  2.7197  0.5219  0.6537
  160MOL0     H22058   5.090   7.676   6.423 -0.0196  1.1177 -1.1525
  160MOL0     H22059   5.109   7.801   6.553 -3.1956  1.5519  0.2317
  160MOL0     H22060   4.309   7.236   6.551  1.1577 -0.1088 -1.7169
  160MOL0     H22061   4.053   7.189   6.603 -2.1763 -2.0126 -1.2069
  160MOL0     H22062   3.582   7.238   6.635  0.9048 -1.5442  1.4058
  160MOL0     H22063   3.361   7.154   6.648  1.3591 -3.0015  3.1494
  160MOL0     H22064   1.665   6.944   7.473  2.3167 -0.4541 -1.6914
  160MOL0     H22065   1.445   7.052   7.409  0.1754 -1.1192  2.9899
  160MOL0     H22066   1.206   7.319   7.401 -2.2328 -1.2812  2.5425
  160MOL0     H22067   0.973   7.328   7.413 -2.4683 -2.2725 -0.9637
  160MOL0     H22068   0.622   7.227   7.340 -0.3156  1.4763  1.4890
  160MOL0     H22069   0.769   7.253   7.426  0.8477 -2.5678 -0.5962
  160MOL0     H22070   0.738   7.498   7.289  0.2576 -0.2280  1.1460
  160MOL0     H22071   0.638   7.462   7.430 -1.2602 -3.0427  0.2383
  160MOL0     H22072   0.454   7.397   7.303  2.0322  0.2126  1.6189
  160MOL0     H22073   0.508   7.557   7.274  3.0734  1.2353 -1.8271
  160MOL0     H22074   0.564   7.317   7.106  1.9642  0.0709  1.6459
  160MOL0     H22075   0.627   7.480   7.076  0.8335 -1.6005  2.5389
  160MOL0     H22076   0.234   7.498   6.919  0.4572 -1.9113 -0.9379
  160MOL0     H22077   0.938   7.193   7.009 -2.0729  1.1160  1.6272
  160MOL0     H22078   1.119   7.208   6.871  0.4164 -2.2963 -1.9297
  160MOL0     H22079   1.282   7.232   6.923  0.0865 -0.6807  0.6302
  160MOL0     H22080   1.211   7.071   6.942 -0.9547 -0.1159 -3.2118
  161MOL0     O22081   6.972   4.835   2.486  0.6627  0.4785 -0.0867
  161MOL0     C22082   6.970   4.890   2.595  0.1200  0.0751 -0.0703
  161MOL0     O22083   7.063   4.857   2.690  0.4082 -0.4683  0.1276
  161MOL0     C22084   7.152   4.751   2.678 -0.7859 -0.6858  0.3687
  161MOL0     C22085   7.283   4.765   2.738  0.5012 -0.0513  0.4511
  161MOL0     C22086   7.375   4.658   2.735 -0.3152  0.5240  1.5557
  161MOL0     C22087   7.336   4.536   2.672  0.0413 -0.2267 -0.0487
  161MOL0     O22088   7.429   4.429   2.686 -0.3978 -0.8062  0.1916
  161MOL0     C22089   7.378   4.298   2.652 -0.0645  0.1934 -0.1817
  161MOL0     C22090   7.285   4.258   2.773  0.5218 -0.2733 -0.8344
  161MOL0     C22091   7.353   4.228   2.910  0.5309 -0.1760 -0.0820
  161MOL0     C22092   7.341   4.078   2.951 -0.5332 -0.3636 -0.5503
  161MOL0     C22093   7.208   4.058   3.030 -0.6731 -0.8644 -0.2943
  161MOL0     C22094   7.079   4.101   2.967  0.4010 -0.4016  0.2383
  161MOL0     C22095   6.958   4.054   3.053  0.4386  0.3384  0.6106
  161MOL0     C22096   6.936   3.898   3.029  0.3041  0.4038  0.2357
  161MOL0     N22097   6.897   3.868   2.890 -0.8262 -0.3719  0.2381
  161MOL0     C22098   6.959   3.787   2.802 -0.2718  1.0357 -0.0641
  161MOL0     C22099   6.876   3.796   2.692 -0.3099  0.2462 -0.2524
  161MOL0     C22100   6.898   3.712   2.560 -0.5058 -0.9125 -0.2502
  161MOL0     C22101   6.909   3.786   2.425  0.0560  0.6625  0.0643
  161MOL0     C22102   6.989   3.919   2.428 -0.5900  0.0294 -0.4216
  161MOL0     C22103   7.130   3.886   2.473 -0.1646  0.0960 -0.1328
  161MOL0     O22104   7.217   3.996   2.452 -0.3253 -0.3575  0.3124
  161MOL0     C22105   7.349   3.972   2.462 -0.6824 -0.2006  0.0878
  161MOL0     C22106   7.440   4.022   2.376 -0.2727 -0.4510  0.0048
  161MOL0     C22107   7.586   4.007   2.399  0.4442  0.2544  0.3461
  161MOL0     C22108   7.672   4.060   2.284  0.0839 -0.1947  0.2303
  161MOL0     C22109   7.631   3.926   2.507  0.1594 -0.0432  0.7925
  161MOL0     C22110   7.773   3.908   2.547  0.2417 -0.2743  0.2452
  161MOL0     O22111   7.873   3.962   2.472  0.2115  0.2040  0.1360
  161MOL0     C22112   8.009   3.946   2.505  0.6833 -0.4187 -0.0724
  161MOL0     C22113   8.089   4.040   2.435  0.8932  0.3301 -0.4419
  161MOL0     C22114   8.230   4.034   2.440 -0.5021  0.0333  0.1513
  161MOL0     C22115   8.293   3.916   2.494  0.2446 -0.7992  0.3146
  161MOL0     O22116   8.437   3.906   2.486  0.1068  0.8963  0.4256
  161MOL0     C22117   8.508   3.783   2.506  0.0401  0.3831  0.2147
  161MOL0     C22118   8.663   3.790   2.487  0.1592 -1.1883  0.5524
  161MOL0     C22119   8.746   3.710   2.595 -0.2138  0.3026  0.2734
  161MOL0     C22120   8.900   3.715   2.569 -0.2901 -0.0793  0.1737
  161MOL0     C22121   8.976   3.641   2.670  0.8167  0.7725  0.2092
  161MOL0     C22122   9.004   3.710   2.807 -0.3812 -0.3901  0.6229
  161MOL0     C22123   9.118   3.660   2.888 -0.7499  0.6885  0.5411
  161MOL0     C22124   9.105   3.510   2.930  1.3662 -0.2418  0.4368
  161MOL0    Cl22125   8.987   3.506   3.069  0.1012  0.0960 -0.2539
  161MOL0     C22126   8.210   3.815   2.559  0.0385  0.4767 -0.0568
  161MOL0     C22127   8.068   3.838   2.567  0.5784 -0.1595  0.6863
  161MOL0     O22128   7.784   3.860   2.662  0.3674 -0.2996  0.1961
  161MOL0     C22129   7.530   3.879   2.600 -0.1786 -0.5033  1.2589
  161MOL0     C22130   7.397   3.901   2.568  0.1228  0.0839 -0.1150
  161MOL0     N22131   6.759   3.859   2.729 -0.7414  0.2358  0.4468
  161MOL0     N22132   6.781   3.906   2.847 -0.0321  0.9068  0.9668
  161MOL0     C22133   7.215   4.528   2.611  0.7114  0.8145  0.8960
  161MOL0     C22134   7.126   4.635   2.603 -0.6967 -0.1235 -0.6683
  161MOL0     C22135   6.866   4.987   2.636  0.5574 -0.9969 -0.2456
  161MOL0     C22136   6.883   5.061   2.757  0.1426 -0.1581 -0.4477
  161MOL0     C22137   6.802   5.164   2.796  0.2885  0.2199 -0.7698
  161MOL0     C22138   6.688   5.190   2.717 -0.6411 -0.9107 -0.2737
  161MOL0     O22139   6.595   5.283   2.750  1.1715 -0.1006 -0.2758
  161MOL0     C22140   6.592   5.340   2.880  0.3045  0.2633 -0.1282
  161MOL0     C22141   6.465   5.428   2.904  0.7786  0.5741 -0.9979
  161MOL0     C22142   6.473   5.549   2.815  0.9039  0.0129 -0.4026
  161MOL0     C22143   6.330   5.609   2.784 -0.0720 -0.1774 -0.3635
  161MOL0     C22144   6.283   5.695   2.901  0.3061  0.1260  0.2369
  161MOL0     C22145   6.236   5.763   2.998 -0.7000  0.1343  0.5595
  161MOL0     C22146   6.678   5.128   2.594 -0.2695 -0.0393  0.1369
  161MOL0     C22147   6.768   5.027   2.547  0.5704 -0.4950 -0.7393
  161MOL0     C22148   6.749   4.968   2.411 -0.5606  0.0981 -0.4466
  161MOL0     H22149   7.302   4.855   2.795 -1.3462 -1.3535  3.3577
  161MOL0     H22150   7.473   4.671   2.782  1.4284  0.8847 -1.8606
  161MOL0     H22151   7.460   4.228   2.634 -1.8365 -2.1991  0.5793
  161MOL0     H22152   7.308   4.299   2.568 -1.5337  1.6739  0.9884
  161MOL0     H22153   7.209   4.336   2.784 -0.5024 -1.1507 -1.4084
  161MOL0     H22154   7.237   4.164   2.744 -0.7075 -0.4973  1.6502
  161MOL0     H22155   7.460   4.247   2.904  0.8571 -1.6349  0.5694
  161MOL0     H22156   7.307   4.290   2.987  1.3961 -0.3204  0.5621
  161MOL0     H22157   7.362   4.009   2.869  2.3078 -2.1413  1.4852
  161MOL0     H22158   7.421   4.064   3.025  1.5731  3.6292 -1.7344
  161MOL0     H22159   7.216   4.090   3.134  5.1602 -1.4055 -0.2888
  161MOL0     H22160   7.200   3.949   3.040 -4.9600 -0.5988  1.4286
  161MOL0     H22161   7.072   4.210   2.962  2.9161 -0.1902  0.1258
  161MOL0     H22162   7.083   4.070   2.862  1.3474 -1.9573  0.6958
  161MOL0     H22163   6.869   4.111   3.023 -0.2403  1.2908  3.9692
  161MOL0     H22164   6.979   4.071   3.159  1.4607  4.4717 -0.0850
  161MOL0     H22165   7.030   3.844   3.047 -1.2315 -2.3602  0.5948
  161MOL0     H22166   6.856   3.861   3.093  0.2002 -0.3827 -0.3314
  161MOL0     H22167   7.049   3.729   2.817 -0.6893 -0.1430 -1.7758
  161MOL0     H22168   6.822   3.634   2.557  1.4772 -2.9819  0.4370
  161MOL0     H22169   6.988   3.650   2.566  0.5169  0.5111 -0.1274
  161MOL0     H22170   6.964   3.720   2.357 -1.1222  0.9230 -1.1973
  161MOL0     H22171   6.813   3.810   2.378  0.2491 -0.3524 -0.8691
  161MOL0     H22172   6.984   3.953   2.324 -1.8387 -3.3193 -1.5986
  161MOL0     H22173   6.941   3.997   2.488 -0.7094  0.3900 -0.9718
  161MOL0     H22174   7.118   3.862   2.579  0.2814  1.0717  0.1585
  161MOL0     H22175   7.169   3.800   2.419  1.9387  0.0086  1.3546
  161MOL0     H22176   7.407   4.097   2.306 -0.8381  1.2712  2.0404
  161MOL0     H22177   7.612   4.111   2.209  1.9855  0.9875 -0.5786
  161MOL0     H22178   7.713   3.970   2.236  1.3663 -0.0931  1.0819
  161MOL0     H22179   7.746   4.137   2.308 -0.8476  1.6404 -2.4004
  161MOL0     H22180   8.039   4.115   2.374 -0.2023 -0.4679 -0.5493
  161MOL0     H22181   8.284   4.110   2.385 -0.7038 -0.3214 -0.5426
  161MOL0     H22182   8.490   3.745   2.607  4.0162 -3.5538 -0.2238
  161MOL0     H22183   8.476   3.700   2.443  0.8656  0.4508 -0.3162
  161MOL0     H22184   8.690   3.749   2.388  1.9239 -1.2267  1.0149
  161MOL0     H22185   8.699   3.892   2.496 -0.9896 -0.9547  3.3305
  161MOL0     H22186   8.718   3.606   2.580 -0.4105  0.3317  0.4359
  161MOL0     H22187   8.725   3.739   2.699  2.5112  0.0623  0.9882
  161MOL0     H22188   8.933   3.819   2.559  1.6601 -0.6943 -0.1054
  161MOL0     H22189   8.926   3.664   2.476 -1.8661 -1.1207  0.2670
  161MOL0     H22190   8.943   3.538   2.686  0.9871  0.9046  1.5428
  161MOL0     H22191   9.080   3.655   2.638  0.2471  0.8870 -1.7066
  161MOL0     H22192   8.919   3.697   2.874  0.3976  0.2482  1.7708
  161MOL0     H22193   9.015   3.819   2.797  1.1787 -0.2884  2.7538
  161MOL0     H22194   9.136   3.724   2.974 -0.4174  2.2429 -0.6386
  161MOL0     H22195   9.202   3.652   2.818 -1.3652 -2.7297  0.0198
  161MOL0     H22196   9.197   3.474   2.977  1.3059  0.7718  1.3569
  161MOL0     H22197   9.070   3.450   2.845  0.1011  2.5237 -1.1432
  161MOL0     H22198   8.249   3.726   2.608 -2.7442 -1.3256 -0.8632
  161MOL0     H22199   7.999   3.764   2.607  0.5316 -1.4125 -1.5110
  161MOL0     H22200   7.549   3.841   2.700 -1.4949 -0.5738  1.5037
  161MOL0     H22201   7.330   3.866   2.646  0.1948 -1.2170 -0.6016
  161MOL0     H22202   7.169   4.432   2.588 -1.5026  1.7538  1.2124
  161MOL0     H22203   7.027   4.617   2.563 -0.3704 -1.4857 -0.8994
  161MOL0     H22204   6.967   5.040   2.823  1.5366  3.0537 -1.0117
  161MOL0     H22205   6.819   5.208   2.894 -0.2385  1.8105 -1.3666
  161MOL0     H22206   6.592   5.260   2.955  0.0917  1.9190  1.7117
  161MOL0     H22207   6.684   5.396   2.902 -0.4438  1.2160  0.6696
  161MOL0     H22208   6.462   5.454   3.011  0.1376  0.6062 -1.0213
  161MOL0     H22209   6.375   5.368   2.884  0.8139 -0.4651  1.5327
  161MOL0     H22210   6.525   5.625   2.875 -1.6547  2.1344 -0.6679
  161MOL0     H22211   6.527   5.527   2.722  0.2995  0.6623 -0.9194
  161MOL0     H22212   6.254   5.532   2.776 -0.0634 -0.4072  1.4369
  161MOL0     H22213   6.339   5.671   2.694 -2.3671  2.9296  1.3241
  161MOL0     H22214   6.187   5.830   3.065  0.8543  0.9616  0.9157
  161MOL0     H22215   6.594   5.148   2.528  1.2167  0.0113 -1.8461
  161MOL0     H22216   6.839   4.990   2.352 -1.3082  2.1392 -0.9229
  161MOL0     H22217   6.741   4.860   2.421  4.2005 -0.5549 -1.2238
  161MOL0     H22218   6.660   5.002   2.357 -1.2942  1.4113  1.4376
  162MOL0     O22219   2.850  11.032   6.380  0.4767  0.1173  0.6894
  162MOL0     C22220   2.780  11.091   6.298 -0.5203  0.3556 -0.1199
  162MOL0     O22221   2.827  11.156   6.189  0.1650  0.4343  0.5926
  162MOL0     C22222   2.961  11.166   6.156 -0.0931  0.3164  0.9262
  162MOL0     C22223   3.057  11.067   6.183  0.5734  0.5283  0.0915
  162MOL0     C22224   3.188  11.096   6.160  0.0824 -0.6067  0.9507
  162MOL0     C22225   3.236  11.211   6.094 -0.5015 -0.1948  0.2465
  162MOL0     O22226   3.367  11.230   6.052 -0.8771 -0.0657  1.2560
  162MOL0     C22227   3.476  11.163   6.119  0.2774 -0.1143  0.6848
  162MOL0     C22228   3.604  11.199   6.044 -0.3020  0.1939  0.3199
  162MOL0     C22229   3.723  11.110   6.077  0.3616  0.0682 -0.0031
  162MOL0     C22230   3.823  11.120   5.960  0.4562 -0.3737  0.2769
  162MOL0     C22231   3.955  11.046   5.990 -0.0470 -0.5735 -0.4277
  162MOL0     C22232   4.086  11.078   5.910 -0.0390  0.0327  0.1740
  162MOL0     C22233   4.213  11.002   5.962 -0.9088 -0.0315  0.6905
  162MOL0     C22234   4.328  11.042   5.869  0.2634 -0.4046  0.2798
  162MOL0     N22235   4.455  10.972   5.884  0.3531  0.0289 -0.1108
  162MOL0     C22236   4.472  10.845   5.829  0.2124  0.0782 -0.8609
  162MOL0     C22237   4.597  10.803   5.868  0.4806 -0.4078  0.0740
  162MOL0     C22238   4.653  10.667   5.825 -0.1743  0.1790  0.3832
  162MOL0     C22239   4.803  10.674   5.850 -0.5832 -0.8130  0.7323
  162MOL0     C22240   4.891  10.552   5.830  0.6064  0.4591  0.0325
  162MOL0     C22241   5.033  10.602   5.822 -0.2140 -0.1659  0.1046
  162MOL0     O22242   5.039  10.663   5.693  0.3141 -0.1210 -0.3399
  162MOL0     C22243   5.160  10.714   5.663  0.1079  1.3455  0.2068
  162MOL0     C22244   5.191  10.844   5.707 -0.0060 -0.1191  0.3381
  162MOL0     C22245   5.321  10.898   5.712  0.6133  0.7302 -1.0813
  162MOL0     C22246   5.337  11.035   5.790  0.5275 -0.0338 -0.4558
  162MOL0     C22247   5.426  10.811   5.674  0.5003 -0.2843  0.0883
  162MOL0     C22248   5.573  10.850   5.655  0.8366 -0.3086 -0.6288
  162MOL0     O22249   5.667  10.747   5.663  0.1436 -0.7069 -0.3459
  162MOL0     C22250   5.784  10.791   5.719 -0.1649  0.1856 -1.0389
  162MOL0     C22251   5.912  10.783   5.657  0.2455 -0.8871 -0.3600
  162MOL0     C22252   6.027  10.811   5.726  0.2126 -0.0957 -0.3089
  162MOL0     C22253   6.024  10.851   5.866  0.4350  0.1979 -0.6430
  162MOL0     O22254   6.140  10.877   5.935  0.3330  0.1720  0.1019
  162MOL0     C22255   6.257  10.936   5.869 -0.2537 -0.5636 -0.2238
  162MOL0     C22256   6.383  10.895   5.950  0.5949  0.2519 -1.1837
  162MOL0     C22257   6.373  10.955   6.092 -0.3909 -0.5758 -1.1046
  162MOL0     C22258   6.493  10.918   6.179  0.8406 -0.1594 -0.1219
  162MOL0     C22259   6.619  10.985   6.115 -0.9198 -0.2535 -0.9046
  162MOL0     C22260   6.724  10.987   6.213 -1.0648  0.5839 -0.2318
  162MOL0     C22261   6.846  11.062   6.164  0.0047  0.3840 -0.1306
  162MOL0     C22262   6.979  11.021   6.219 -0.0399  0.6372  0.1778
  162MOL0    Cl22263   7.111  11.147   6.210  0.1540  0.2929  0.0576
  162MOL0     C22264   5.899  10.843   5.934 -0.5058  0.1482  0.3752
  162MOL0     C22265   5.785  10.817   5.860  0.3399 -0.4982 -0.9128
  162MOL0     O22266   5.599  10.973   5.638  0.1371 -0.1859 -0.4015
  162MOL0     C22267   5.395  10.677   5.641 -0.1754 -0.5514  0.6332
  162MOL0     C22268   5.266  10.631   5.637 -0.3905 -0.4314  0.0142
  162MOL0     N22269   4.646  10.893   5.959  0.2129  0.0309  0.0959
  162MOL0     N22270   4.565  10.997   5.961  0.3734  0.1116  0.0212
  162MOL0     C22271   3.141  11.304   6.061 -0.6401 -0.7870  0.5625
  162MOL0     C22272   3.002  11.274   6.087 -0.7959 -1.3289 -0.2237
  162MOL0     C22273   2.636  11.104   6.318  0.4434 -0.0107 -0.0107
  162MOL0     C22274   2.564  11.195   6.246 -0.3706 -0.2369  0.4500
  162MOL0     C22275   2.426  11.213   6.248 -0.2475 -0.1779 -0.0795
  162MOL0     C22276   2.353  11.131   6.331  0.2101  0.0572 -0.2049
  162MOL0     O22277   2.219  11.137   6.354 -0.0941 -0.3459 -1.3632
  162MOL0     C22278   2.142  11.205   6.254  0.4478  0.9504  0.5697
  162MOL0     C22279   1.988  11.203   6.271  0.7479  0.0716 -0.5092
  162MOL0     C22280   1.925  11.291   6.167  0.2306 -0.4754  0.2807
  162MOL0     C22281   1.768  11.290   6.166 -0.4526  0.3590  0.5263
  162MOL0     C22282   1.701  11.338   6.284  0.1746  0.1178 -0.9354
  162MOL0     C22283   1.663  11.392   6.381  0.3777 -0.4148 -0.4690
  162MOL0     C22284   2.422  11.041   6.407 -0.3084 -0.3968  0.3616
  162MOL0     C22285   2.560  11.026   6.405  0.7893  0.8008 -0.2748
  162MOL0     C22286   2.616  10.936   6.505 -0.0605  0.2587 -0.0609
  162MOL0     H22287   3.031  10.973   6.231 -1.2136  0.2513 -1.2943
  162MOL0     H22288   3.256  11.021   6.198  0.0724 -0.7977  0.5999
  162MOL0     H22289   3.469  11.055   6.105 -1.7833  0.0504  0.1526
  162MOL0     H22290   3.475  11.181   6.227  1.1744  1.1212  0.5044
  162MOL0     H22291   3.583  11.190   5.937 -0.6852  3.6029  0.0168
  162MOL0     H22292   3.637  11.302   6.061  0.8230  0.6359 -3.4201
  162MOL0     H22293   3.760  11.152   6.171 -3.5167  2.3321  0.7000
  162MOL0     H22294   3.698  11.004   6.092 -0.0756 -0.0433 -1.4305
  162MOL0     H22295   3.773  11.084   5.870  0.0159  1.2217 -0.1558
  162MOL0     H22296   3.838  11.226   5.939 -0.3155  0.0606  1.7478
  162MOL0     H22297   3.918  10.945   5.968  1.1248 -0.9216 -0.8700
  162MOL0     H22298   3.983  11.050   6.096 -1.8674 -1.2537  0.1279
  162MOL0     H22299   4.064  11.062   5.804 -1.2856  2.1296  0.0713
  162MOL0     H22300   4.113  11.183   5.921 -0.9393  0.0597  2.8685
  162MOL0     H22301   4.213  10.894   5.950 -0.0296  0.1946 -2.3077
  162MOL0     H22302   4.228  11.037   6.064 -1.6127  0.2844  0.6934
  162MOL0     H22303   4.295  11.027   5.765  0.1700  0.7311  0.1373
  162MOL0     H22304   4.350  11.148   5.882  0.9177 -0.4836 -0.1243
  162MOL0     H22305   4.410  10.782   5.766  0.3887  0.7634 -1.7489
  162MOL0     H22306   4.634  10.660   5.718 -0.2808  0.1307  0.4056
  162MOL0     H22307   4.608  10.596   5.896  1.1047  0.0791  1.1148
  162MOL0     H22308   4.834  10.754   5.782 -2.4941  1.2626  2.1494
  162MOL0     H22309   4.826  10.700   5.954  1.7161 -0.6699  0.2455
  162MOL0     H22310   4.874  10.475   5.906  0.6079  2.7191  2.4611
  162MOL0     H22311   4.870  10.501   5.736  0.1807  2.3028 -0.9232
  162MOL0     H22312   5.058  10.678   5.897 -1.0201  0.3094 -0.0925
  162MOL0     H22313   5.111  10.525   5.828  0.7137  0.6354 -1.2378
  162MOL0     H22314   5.113  10.905   5.750  0.0096 -1.0361  1.7175
  162MOL0     H22315   5.258  11.050   5.865 -1.0158 -1.3696 -1.7438
  162MOL0     H22316   5.337  11.106   5.707 -0.2260 -0.8324 -1.1534
  162MOL0     H22317   5.437  11.034   5.834  0.9479 -2.0376 -1.3359
  162MOL0     H22318   5.908  10.744   5.556  0.1140 -0.5521 -0.4842
  162MOL0     H22319   6.122  10.793   5.677 -0.9547 -3.4946 -1.5705
  162MOL0     H22320   6.263  10.893   5.769 -1.3539 -0.1001 -0.4962
  162MOL0     H22321   6.246  11.044   5.861  3.4621  0.0568  0.8814
  162MOL0     H22322   6.387  10.786   5.958 -4.1974 -0.0540  0.0087
  162MOL0     H22323   6.459  10.951   5.893 -0.8573  1.5023 -1.9538
  162MOL0     H22324   6.278  10.918   6.131 -1.4997  2.7503 -0.3299
  162MOL0     H22325   6.365  11.064   6.080 -0.8784 -0.3626  0.8821
  162MOL0     H22326   6.506  10.809   6.174 -2.4195 -0.5888 -3.0767
  162MOL0     H22327   6.469  10.946   6.282  0.8381  0.5149 -0.3045
  162MOL0     H22328   6.645  10.928   6.025 -0.5250 -1.5995  0.0330
  162MOL0     H22329   6.597  11.090   6.090  3.3818  1.3685  1.0070
  162MOL0     H22330   6.757  10.885   6.232  4.0513  1.2312 -3.6522
  162MOL0     H22331   6.681  11.026   6.305 -0.0668 -1.5201  1.2126
  162MOL0     H22332   6.830  11.167   6.192  2.3097  0.0568  2.9547
  162MOL0     H22333   6.857  11.054   6.055  0.1061 -3.5040  0.0354
  162MOL0     H22334   7.001  10.931   6.160  1.8906  0.7267  0.6990
  162MOL0     H22335   6.977  10.995   6.325  3.3021 -0.1042  0.1862
  162MOL0     H22336   5.890  10.859   6.041 -0.9554  0.6593  0.2718
  162MOL0     H22337   5.699  10.832   5.923  0.3469  0.7862 -1.1715
  162MOL0     H22338   5.476  10.611   5.615  1.3178  1.9241 -1.5081
  162MOL0     H22339   5.239  10.529   5.611  0.4557 -1.0454  1.4218
  162MOL0     H22340   3.171  11.391   6.004  0.2570 -1.5090 -0.0947
  162MOL0     H22341   2.928  11.348   6.059 -0.8700 -1.9003 -1.6718
  162MOL0     H22342   2.618  11.260   6.178  2.7368 -2.6126  0.4327
  162MOL0     H22343   2.394  11.303   6.198  0.1764  0.5254  0.8901
  162MOL0     H22344   2.178  11.307   6.244  1.8008  0.5811  1.4450
  162MOL0     H22345   2.164  11.173   6.152 -1.2297 -0.5644  0.6214
  162MOL0     H22346   1.963  11.250   6.366 -1.5890 -1.3558 -0.3556
  162MOL0     H22347   1.945  11.102   6.270  1.0375 -0.0941 -2.7308
  162MOL0     H22348   1.959  11.394   6.180 -1.0344 -0.2472  2.2270
  162MOL0     H22349   1.954  11.245   6.072 -2.4795 -2.9567  0.5051
  162MOL0     H22350   1.740  11.186   6.147  0.2966 -0.2636  2.5646
  162MOL0     H22351   1.743  11.357   6.083  1.8012  1.8166  0.9252
  162MOL0     H22352   1.618  11.437   6.468  0.5835  0.4101 -0.7834
  162MOL0     H22353   2.362  10.969   6.461  0.8451 -1.0538  0.8127
  162MOL0     H22354   2.539  10.866   6.540 -2.3854  2.4723 -0.4413
  162MOL0     H22355   2.696  10.871   6.469  0.4994 -1.0765  3.2108
  162MOL0     H22356   2.657  11.003   6.581  0.6972 -1.9241  1.5847
  163MOL0     O22357   1.637   3.659   9.992 -0.0601  0.2474 -0.2151
  163MOL0     C22358   1.733   3.593  10.041 -0.1904  0.6635  0.1392
  163MOL0     O22359   1.827   3.520   9.972  0.6191  0.0279 -0.3100
  163MOL0     C22360   1.815   3.518   9.832  0.0754 -1.3208 -1.0525
  163MOL0     C22361   1.897   3.603   9.747  0.5584 -0.2383 -0.2195
  163MOL0     C22362   1.895   3.575   9.607  0.8883  0.1774  0.3489
  163MOL0     C22363   1.818   3.474   9.555 -0.5837  0.6807 -0.0533
  163MOL0     O22364   1.841   3.448   9.421  0.0766  0.0945  0.5127
  163MOL0     C22365   1.936   3.350   9.401  0.4052  0.6194  0.6904
  163MOL0     C22366   2.013   3.360   9.266  0.5692  0.7695 -0.5464
  163MOL0     C22367   1.921   3.353   9.142 -0.1569 -0.2567 -0.8903
  163MOL0     C22368   1.990   3.359   9.013 -0.4665  0.2632 -0.4745
  163MOL0     C22369   2.033   3.496   8.969  0.9808 -0.3182 -0.2367
  163MOL0     C22370   2.112   3.494   8.832  0.1972 -0.6947 -0.2212
  163MOL0     C22371   2.162   3.643   8.792  0.1434  1.1074  0.1414
  163MOL0     C22372   2.296   3.674   8.869  0.1796 -0.0515  0.0132
  163MOL0     N22373   2.409   3.595   8.831  0.3876 -0.0889 -0.2700
  163MOL0     C22374   2.458   3.575   8.706  0.7483 -0.1344  0.5275
  163MOL0     C22375   2.556   3.482   8.711 -0.6939 -0.3144 -0.7624
  163MOL0     C22376   2.621   3.404   8.605 -0.3021 -0.1318 -0.4153
  163MOL0     C22377   2.677   3.498   8.488 -0.8198  0.7606 -0.2514
  163MOL0     C22378   2.768   3.612   8.537 -0.3393  0.3803  0.1263
  163MOL0     C22379   2.896   3.567   8.601  0.5209  0.5294  0.8206
  163MOL0     O22380   2.974   3.686   8.608 -0.1763 -0.9303 -0.6945
  163MOL0     C22381   2.991   3.748   8.733  0.3649  0.4613  0.3907
  163MOL0     C22382   3.093   3.834   8.739  0.0900 -0.3396  0.1811
  163MOL0     C22383   3.132   3.909   8.852  0.8199 -0.2421 -0.0750
  163MOL0     C22384   3.253   3.988   8.828  0.3786  0.1759 -0.3838
  163MOL0     C22385   3.058   3.889   8.975  0.6561 -0.3650  0.1951
  163MOL0     C22386   3.099   3.947   9.099 -0.7213 -0.8444 -0.3388
  163MOL0     O22387   3.028   3.903   9.209 -0.6593  0.1714 -0.1139
  163MOL0     C22388   3.036   3.981   9.318  0.1592 -0.1277  0.2551
  163MOL0     C22389   3.080   3.925   9.439  0.0778 -0.7189  0.2397
  163MOL0     C22390   3.104   4.010   9.553  0.0210 -0.5717 -0.5920
  163MOL0     C22391   3.110   4.156   9.538 -0.0659  0.1766  0.6434
  163MOL0     O22392   3.147   4.229   9.646  0.6500  0.3249  0.0819
  163MOL0     C22393   3.163   4.372   9.625  0.0230 -0.4748 -0.3229
  163MOL0     C22394   3.240   4.441   9.748  0.9189  0.0838  0.6779
  163MOL0     C22395   3.393   4.404   9.747  0.5288  0.2122  0.3857
  163MOL0     C22396   3.465   4.470   9.630 -0.5024 -0.3797  0.3614
  163MOL0     C22397   3.617   4.447   9.619 -0.0598 -0.5016 -0.4454
  163MOL0     C22398   3.702   4.510   9.744 -0.2489  0.3171 -0.4451
  163MOL0     C22399   3.856   4.521   9.711 -0.1539 -0.1134 -0.2348
  163MOL0     C22400   3.926   4.599   9.819  1.0744  0.0429  0.8930
  163MOL0    Cl22401   4.103   4.607   9.787 -0.1132  0.1316 -0.8086
  163MOL0     C22402   3.069   4.207   9.412 -1.0169  0.2835  0.2018
  163MOL0     C22403   3.027   4.120   9.310  0.0019  0.1213 -0.2179
  163MOL0     O22404   3.198   4.021   9.098 -0.4554  0.2573  0.9359
  163MOL0     C22405   2.939   3.809   8.969  0.3764 -0.3834 -0.1189
  163MOL0     C22406   2.906   3.749   8.848 -0.1508  0.2017 -0.1010
  163MOL0     N22407   2.568   3.445   8.841  0.7834  0.6657 -0.1740
  163MOL0     N22408   2.480   3.520   8.910  0.8702 -0.0709 -0.0978
  163MOL0     C22409   1.742   3.389   9.640 -0.5340  0.3458  0.0755
  163MOL0     C22410   1.746   3.411   9.782 -0.4354 -0.2574  0.8353
  163MOL0     C22411   1.743   3.586  10.193 -0.5757  0.0124  0.1273
  163MOL0     C22412   1.808   3.464  10.244  0.6236  0.0637 -0.5616
  163MOL0     C22413   1.826   3.460  10.381  0.4639  0.3251  0.2029
  163MOL0     C22414   1.771   3.553  10.474 -0.6042 -0.2078  0.0613
  163MOL0     O22415   1.777   3.551  10.612 -0.1528  0.1471  0.4901
  163MOL0     C22416   1.872   3.461  10.673 -0.1748 -0.2185 -0.1937
  163MOL0     C22417   2.014   3.512  10.665 -0.5763  0.6450 -1.1240
  163MOL0     C22418   2.032   3.614  10.776  0.2338  0.2406  0.0914
  163MOL0     C22419   2.176   3.648  10.815 -0.2558  0.2070 -0.0349
  163MOL0     C22420   2.265   3.539  10.863  0.1218  0.9317  0.2813
  163MOL0     C22421   2.337   3.441  10.895  0.5466 -0.3605  0.2689
  163MOL0     C22422   1.701   3.659  10.417  0.1823  0.5003 -0.1918
  163MOL0     C22423   1.693   3.684  10.281  0.0510  0.3759  0.9814
  163MOL0     C22424   1.645   3.820  10.234 -0.0873  0.0298  0.7804
  163MOL0     H22425   1.946   3.685   9.798 -0.7067 -0.2670  1.1201
  163MOL0     H22426   1.945   3.634   9.531 -0.0119 -2.3288 -2.3864
  163MOL0     H22427   1.902   3.246   9.408 -0.9055  1.0664  1.1571
  163MOL0     H22428   2.012   3.361   9.479  1.0543 -1.6044  0.4610
  163MOL0     H22429   2.076   3.449   9.265  1.6491  0.1618  2.2435
  163MOL0     H22430   2.086   3.278   9.271  1.6142  1.7276  0.6182
  163MOL0     H22431   1.889   3.249   9.147  0.1905 -0.3540 -0.7077
  163MOL0     H22432   1.831   3.416   9.142  0.2420  0.3305 -1.0489
  163MOL0     H22433   2.081   3.299   9.016 -0.4305  0.2888  2.9515
  163MOL0     H22434   1.936   3.304   8.935  0.5930  0.6360 -1.5110
  163MOL0     H22435   2.106   3.544   9.035  0.6363  1.0892 -0.8369
  163MOL0     H22436   1.947   3.560   8.950  1.7123  0.0170 -2.9265
  163MOL0     H22437   2.200   3.429   8.834  1.5465  1.0495  1.7916
  163MOL0     H22438   2.056   3.456   8.746  1.7569 -2.3726 -0.5357
  163MOL0     H22439   2.094   3.722   8.825 -1.2425 -0.7707  2.0355
  163MOL0     H22440   2.182   3.656   8.685  0.5483 -1.7841 -0.1958
  163MOL0     H22441   2.328   3.778   8.873  0.2166 -0.0352 -0.6375
  163MOL0     H22442   2.272   3.661   8.975 -0.6732  2.4900  0.2097
  163MOL0     H22443   2.423   3.620   8.613 -0.1747  1.9470  1.8186
  163MOL0     H22444   2.539   3.345   8.564 -0.9131  1.0190 -0.8861
  163MOL0     H22445   2.693   3.349   8.666 -2.0504  0.7712  2.7307
  163MOL0     H22446   2.732   3.443   8.411 -0.0191  0.2046  0.6845
  163MOL0     H22447   2.585   3.546   8.453 -0.0562  1.9368 -0.7205
  163MOL0     H22448   2.782   3.670   8.446  2.1355 -2.8247 -1.7208
  163MOL0     H22449   2.707   3.668   8.609  1.4088 -0.0998  2.0568
  163MOL0     H22450   2.871   3.529   8.701  1.8556  0.7226  1.2539
  163MOL0     H22451   2.944   3.489   8.541 -0.3978  0.7865 -0.2720
  163MOL0     H22452   3.149   3.859   8.649 -0.5670 -2.2474 -0.8214
  163MOL0     H22453   3.255   4.090   8.868 -1.4777  0.4440 -0.8848
  163MOL0     H22454   3.283   3.994   8.723 -1.9307  1.1188 -1.0393
  163MOL0     H22455   3.332   3.932   8.879 -3.3186 -3.9912  1.3939
  163MOL0     H22456   3.104   3.821   9.459 -3.6367 -1.8807 -0.6233
  163MOL0     H22457   3.146   3.971   9.645  1.6989  0.7541 -0.7578
  163MOL0     H22458   3.229   4.383   9.538  1.2503 -0.7580  0.5529
  163MOL0     H22459   3.063   4.414   9.612 -1.6085 -2.1799  4.5418
  163MOL0     H22460   3.227   4.550   9.742  1.8040  0.1524 -0.2627
  163MOL0     H22461   3.191   4.406   9.839 -1.1964  1.2273  0.0565
  163MOL0     H22462   3.399   4.295   9.737 -1.9171 -0.1294  1.9351
  163MOL0     H22463   3.428   4.439   9.845 -1.4409  2.4777  0.3677
  163MOL0     H22464   3.451   4.579   9.623 -2.3761 -0.5980  0.3245
  163MOL0     H22465   3.419   4.430   9.540  0.4142  1.7059 -1.1404
  163MOL0     H22466   3.638   4.340   9.626 -1.5128 -0.7839 -0.1575
  163MOL0     H22467   3.655   4.466   9.518  0.4633 -2.3341 -0.6323
  163MOL0     H22468   3.678   4.465   9.840 -0.2254  0.7872 -0.2169
  163MOL0     H22469   3.671   4.614   9.758  0.2810  0.2839  1.1243
  163MOL0     H22470   3.859   4.579   9.619  0.3433  0.2378 -0.0042
  163MOL0     H22471   3.901   4.423   9.696  1.4530  0.8841 -2.5619
  163MOL0     H22472   3.904   4.557   9.918 -1.5443 -0.2383  0.2658
  163MOL0     H22473   3.883   4.700   9.811  2.6594  0.7448  0.9288
  163MOL0     H22474   3.064   4.313   9.389 -2.8594  0.6012  1.8266
  163MOL0     H22475   2.991   4.173   9.222  0.7731  2.3055  0.7425
  163MOL0     H22476   2.877   3.813   9.058  2.9844 -1.1729  1.8314
  163MOL0     H22477   2.806   3.708   8.848 -0.4341  0.7659  2.5509
  163MOL0     H22478   1.669   3.321   9.596 -0.5530 -0.0483  0.6969
  163MOL0     H22479   1.684   3.344   9.840 -1.5931 -1.1201 -1.2700
  163MOL0     H22480   1.842   3.381  10.183 -2.8938 -0.7543 -1.6729
  163MOL0     H22481   1.893   3.381  10.415  0.5076  0.3059  0.0735
  163MOL0     H22482   1.846   3.454  10.779 -0.8944  1.4162 -0.2145
  163MOL0     H22483   1.871   3.360  10.633  1.2750  0.7484 -2.9401
  163MOL0     H22484   2.042   3.549  10.567 -0.3180  3.0382 -0.2212
  163MOL0     H22485   2.080   3.427  10.682  0.9231  1.8904 -0.4312
  163MOL0     H22486   1.982   3.705  10.741 -1.6723 -0.8646 -0.2122
  163MOL0     H22487   1.995   3.567  10.868 -0.0576  1.0566  0.4004
  163MOL0     H22488   2.187   3.730  10.886  1.6157  0.0795 -0.1377
  163MOL0     H22489   2.223   3.695  10.728  0.2141 -0.3751 -0.1054
  163MOL0     H22490   2.404   3.362  10.926  0.7632 -1.0164 -1.7094
  163MOL0     H22491   1.652   3.724  10.490  0.1925 -0.5707  0.8014
  163MOL0     H22492   1.718   3.872  10.171 -1.0043  0.1007 -0.2537
  163MOL0     H22493   1.554   3.805  10.175  0.0899  2.4482 -0.2292
  163MOL0     H22494   1.604   3.882  10.314 -0.8841  0.5378 -0.0090
  164MOL0     O22495   6.552  10.380   7.911  0.0345 -0.2455  0.1434
  164MOL0     C22496   6.585  10.294   7.828 -0.3968 -0.6964 -0.0202
  164MOL0     O22497   6.709  10.277   7.771 -0.4683 -0.2356 -0.7257
  164MOL0     C22498   6.815  10.356   7.818  0.1383 -0.0962  0.7691
  164MOL0     C22499   6.883  10.442   7.724 -1.4312  0.2935  0.6514
  164MOL0     C22500   7.016  10.487   7.752 -0.5726 -0.6404  0.6143
  164MOL0     C22501   7.079  10.456   7.878  0.5483 -0.3944 -0.5349
  164MOL0     O22502   7.204  10.497   7.902 -0.0010  0.1016 -0.5300
  164MOL0     C22503   7.222  10.637   7.909  0.3122  0.0188 -0.5150
  164MOL0     C22504   7.368  10.659   7.950 -0.1980  0.5562  0.0915
  164MOL0     C22505   7.393  10.643   8.106 -0.6276 -0.1694  0.7280
  164MOL0     C22506   7.391  10.782   8.181  0.3820  0.1779 -0.4020
  164MOL0     C22507   7.454  10.761   8.317  0.3379 -0.1867 -0.2156
  164MOL0     C22508   7.610  10.759   8.305 -0.2242  0.3239 -0.4100
  164MOL0     C22509   7.679  10.769   8.441  0.3195  0.3288  0.5087
  164MOL0     C22510   7.815  10.710   8.427  0.2975 -0.0781 -0.7652
  164MOL0     N22511   7.895  10.756   8.314  0.3322 -0.9165 -1.1164
  164MOL0     C22512   7.941  10.882   8.290 -0.4402 -0.3363  0.4418
  164MOL0     C22513   7.992  10.877   8.161 -1.0523 -0.3803 -1.0598
  164MOL0     C22514   8.071  10.982   8.088 -1.0981 -0.1574 -0.3159
  164MOL0     C22515   8.225  10.982   8.122 -0.2944 -0.2331 -0.4782
  164MOL0     C22516   8.295  10.854   8.081  0.1486  0.0537  0.8953
  164MOL0     C22517   8.447  10.866   8.115 -0.5003  0.6089  0.2539
  164MOL0     O22518   8.506  10.978   8.052  0.3740 -0.7647  0.6725
  164MOL0     C22519   8.636  11.007   8.084  0.6223 -0.4080 -0.5101
  164MOL0     C22520   8.711  11.093   8.004  0.5753  0.3543 -0.0653
  164MOL0     C22521   8.839  11.137   8.034  0.5307 -0.5855  0.0126
  164MOL0     C22522   8.904  11.232   7.935 -0.1517  0.5316 -0.1528
  164MOL0     C22523   8.901  11.100   8.161  0.3506 -0.3893  0.1615
  164MOL0     C22524   9.035  11.134   8.210 -0.5035 -0.2434  0.7778
  164MOL0     O22525   9.096  11.236   8.143  0.0545 -0.3883  0.3857
  164MOL0     C22526   9.232  11.226   8.130  0.6552 -0.4942 -0.4581
  164MOL0     C22527   9.290  11.116   8.071  0.0498  0.5626  0.0311
  164MOL0     C22528   9.431  11.105   8.081 -0.6496 -0.7050 -0.0759
  164MOL0     C22529   9.508  11.221   8.097  0.2859 -0.7125 -0.6055
  164MOL0     O22530   9.647  11.240   8.080 -0.1984 -0.8980 -0.1830
  164MOL0     C22531   9.725  11.134   8.133  0.5085 -0.8839  0.0120
  164MOL0     C22532   9.862  11.169   8.096  0.4733 -0.5666 -0.2098
  164MOL0     C22533   9.946  11.058   8.163 -0.0258 -0.6088  0.3804
  164MOL0     C22534  10.098  11.076   8.137  0.3228  0.7280 -0.4763
  164MOL0     C22535  10.184  10.985   8.230 -0.3704 -0.3566  1.0269
  164MOL0     C22536  10.337  10.979   8.193 -0.1134 -0.1076 -0.2154
  164MOL0     C22537  10.407  11.111   8.217  0.2618 -0.9078  0.3842
  164MOL0     C22538  10.434  11.150   8.364  0.4127  0.1426  0.0182
  164MOL0    Cl22539  10.529  11.299   8.380  0.0365 -0.3613 -0.2032
  164MOL0     C22540   9.446  11.338   8.147  0.3392  0.4821 -0.2431
  164MOL0     C22541   9.305  11.339   8.156 -0.2443 -0.0628 -0.5798
  164MOL0     O22542   9.084  11.073   8.301 -0.4123 -0.6160 -0.0489
  164MOL0     C22543   8.824  11.006   8.231 -0.1902  0.1287 -0.3219
  164MOL0     C22544   8.701  10.957   8.197 -0.6632  0.1388  0.6620
  164MOL0     N22545   7.972  10.748   8.118  0.0879 -1.1806 -0.5526
  164MOL0     N22546   7.908  10.681   8.209 -0.4460 -0.7185 -0.0604
  164MOL0     C22547   7.012  10.369   7.960 -0.7574 -0.8652  0.8234
  164MOL0     C22548   6.882  10.322   7.930 -0.3577  0.6620 -0.6264
  164MOL0     C22549   6.481  10.199   7.773  0.4372 -0.6243  0.4165
  164MOL0     C22550   6.515  10.104   7.676 -0.2420 -0.4605  0.5282
  164MOL0     C22551   6.431  10.017   7.618  0.2422 -0.6791  0.3728
  164MOL0     C22552   6.297  10.022   7.647 -0.3197  0.2787  0.4649
  164MOL0     O22553   6.223   9.926   7.579  0.1420  0.4269  0.5342
  164MOL0     C22554   6.075   9.936   7.578 -0.8815 -0.5234  0.0853
  164MOL0     C22555   6.020  10.032   7.463  0.1218  1.0177  0.0959
  164MOL0     C22556   6.057   9.970   7.331  0.0495 -0.3194  0.6688
  164MOL0     C22557   6.013  10.046   7.206  0.0431  0.5217  0.6520
  164MOL0     C22558   5.864  10.056   7.195 -0.0280  0.9357  0.4087
  164MOL0     C22559   5.743  10.066   7.207  0.3057  0.6710  0.0730
  164MOL0     C22560   6.255  10.116   7.738 -0.0570  0.0482  0.4868
  164MOL0     C22561   6.345  10.199   7.806  0.1971 -0.1826 -0.5895
  164MOL0     C22562   6.275  10.298   7.901  0.1898 -0.9902  0.7417
  164MOL0     H22563   6.831  10.476   7.635  2.4856  0.6759 -1.6963
  164MOL0     H22564   7.070  10.550   7.682 -0.5782 -1.3314 -0.0218
  164MOL0     H22565   7.160  10.688   7.983  0.8556 -0.4781  0.3088
  164MOL0     H22566   7.198  10.679   7.811  2.3063  2.9221  0.1148
  164MOL0     H22567   7.420  10.577   7.901  1.9670  0.6890  1.9716
  164MOL0     H22568   7.410  10.754   7.913 -0.0303  0.0142 -1.1640
  164MOL0     H22569   7.319  10.569   8.138  0.1764 -1.1068  0.5016
  164MOL0     H22570   7.491  10.595   8.122 -1.2704 -1.7058  0.2516
  164MOL0     H22571   7.440  10.858   8.120  0.3822 -0.6814 -1.4879
  164MOL0     H22572   7.284  10.801   8.193  0.1772 -1.7491  1.6828
  164MOL0     H22573   7.425  10.663   8.356 -0.4550  0.6466  1.3906
  164MOL0     H22574   7.439  10.847   8.382 -2.0946  1.7406 -3.0609
  164MOL0     H22575   7.639  10.662   8.265  2.2011  1.4847 -1.6635
  164MOL0     H22576   7.636  10.840   8.236 -3.9007  0.3412 -2.0015
  164MOL0     H22577   7.617  10.724   8.519 -1.2686  2.2515  0.4327
  164MOL0     H22578   7.700  10.874   8.466 -0.9311  0.3726  1.4820
  164MOL0     H22579   7.867  10.731   8.521 -2.3423  1.4117  0.4720
  164MOL0     H22580   7.817  10.601   8.436  2.4965  0.0291  0.8338
  164MOL0     H22581   7.935  10.966   8.359 -0.4323  0.4962 -0.5546
  164MOL0     H22582   8.041  11.081   8.124  0.5914  0.4891 -0.6047
  164MOL0     H22583   8.047  10.970   7.982  0.9559 -0.2235 -0.8116
  164MOL0     H22584   8.265  11.068   8.068 -0.6075 -0.6110 -1.3304
  164MOL0     H22585   8.241  10.996   8.229  1.2797 -1.2971 -0.5430
  164MOL0     H22586   8.257  10.768   8.136 -0.9624 -0.0073  0.0715
  164MOL0     H22587   8.274  10.852   7.973 -0.6145 -0.2279  1.0460
  164MOL0     H22588   8.460  10.867   8.224 -1.4936 -1.8128  0.4575
  164MOL0     H22589   8.503  10.780   8.078  0.8160  1.7403 -0.4539
  164MOL0     H22590   8.665  11.128   7.912  0.2038 -1.3704 -0.5666
  164MOL0     H22591   8.934  11.324   7.985  2.0652 -0.2556  0.0683
  164MOL0     H22592   8.825  11.258   7.864 -1.8643 -0.4425  1.3150
  164MOL0     H22593   8.986  11.196   7.873 -1.2062 -1.8185 -0.3167
  164MOL0     H22594   9.228  11.033   8.039 -2.0489 -0.0842  4.8239
  164MOL0     H22595   9.482  11.019   8.041  0.7677 -0.6767  1.5139
  164MOL0     H22596   9.719  11.139   8.242  1.7729 -0.8779  0.0901
  164MOL0     H22597   9.695  11.043   8.080 -3.4752 -0.0899  0.5774
  164MOL0     H22598   9.885  11.167   7.989 -0.7975  1.6038 -0.5801
  164MOL0     H22599   9.886  11.271   8.125 -1.0026  0.5205 -2.5227
  164MOL0     H22600   9.915  10.965   8.115 -1.5707 -1.2067  2.4336
  164MOL0     H22601   9.919  11.052   8.268 -4.1817  1.3910 -0.3436
  164MOL0     H22602  10.121  11.182   8.150 -2.8784  1.3135  1.6256
  164MOL0     H22603  10.122  11.040   8.037  0.2348 -2.6533  0.5776
  164MOL0     H22604  10.166  11.023   8.331  0.3157 -0.0312  1.0285
  164MOL0     H22605  10.142  10.884   8.225 -0.3078 -0.3435 -0.0365
  164MOL0     H22606  10.348  10.939   8.092  1.3692 -0.2679 -0.0186
  164MOL0     H22607  10.383  10.901   8.255 -0.9700 -3.4521 -3.4273
  164MOL0     H22608  10.362  11.185   8.150 -1.1610 -2.1354 -0.0496
  164MOL0     H22609  10.504  11.103   8.166 -0.5485 -3.5909 -0.8946
  164MOL0     H22610  10.483  11.061   8.405 -0.9569  0.2385  1.9818
  164MOL0     H22611  10.345  11.156   8.428  1.3216  0.2732  1.3096
  164MOL0     H22612   9.501  11.425   8.182 -0.7790  1.8558 -1.7338
  164MOL0     H22613   9.256  11.424   8.202  1.2575  1.0888 -1.0405
  164MOL0     H22614   8.856  10.961   8.325 -1.5155  1.8207  1.0201
  164MOL0     H22615   8.663  10.885   8.269  0.0672  0.0404  0.9547
  164MOL0     H22616   7.069  10.341   8.049  1.1543 -0.4283 -0.2218
  164MOL0     H22617   6.848  10.248   8.003  1.1200  0.0809 -0.5026
  164MOL0     H22618   6.620  10.085   7.658 -0.1116 -3.3063  3.3073
  164MOL0     H22619   6.480   9.963   7.537  4.1127  2.0368  0.6673
  164MOL0     H22620   6.047   9.832   7.560  1.9800 -2.0833  3.3827
  164MOL0     H22621   6.045   9.957   7.680 -0.2030  0.6281  0.0677
  164MOL0     H22622   6.050  10.136   7.469 -0.6790  1.4957 -2.8924
  164MOL0     H22623   5.911  10.025   7.472 -0.2284  2.4142 -2.2978
  164MOL0     H22624   6.166   9.966   7.325  0.3455  4.5095 -1.1357
  164MOL0     H22625   6.013   9.869   7.332  0.9167 -0.7114  0.3468
  164MOL0     H22626   6.046   9.996   7.115  2.7420  2.0893  0.6561
  164MOL0     H22627   6.049  10.150   7.200 -1.1109  0.8594 -0.9214
  164MOL0     H22628   5.636  10.071   7.200  0.1305  1.0159  2.2047
  164MOL0     H22629   6.147  10.130   7.746  0.0333 -0.1915  2.9418
  164MOL0     H22630   6.261  10.387   7.839 -1.4836 -2.3340 -0.9200
  164MOL0     H22631   6.184  10.262   7.949 -3.3767  4.7412 -0.7974
  164MOL0     H22632   6.330  10.329   7.990  1.5992  2.3826 -1.1052
  165MOL0     O22633   3.771   4.365   3.117  0.4155  0.7119 -0.2011
  165MOL0     C22634   3.876   4.392   3.058 -0.2759 -0.1883  0.4978
  165MOL0     O22635   3.993   4.445   3.114  0.2992  0.8595  0.6175
  165MOL0     C22636   3.985   4.485   3.248 -0.5264  0.7949  0.2061
  165MOL0     C22637   3.883   4.553   3.314 -0.4204 -1.0556 -0.0084
  165MOL0     C22638   3.871   4.585   3.445  0.0088 -0.4740 -1.0496
  165MOL0     C22639   3.982   4.546   3.518 -0.0962  0.6072 -0.3073
  165MOL0     O22640   3.985   4.558   3.656  0.5235  0.5395  0.4187
  165MOL0     C22641   4.004   4.695   3.696 -0.1911 -0.2545 -0.0376
  165MOL0     C22642   4.153   4.740   3.694 -0.3005  0.1085 -0.3253
  165MOL0     C22643   4.257   4.656   3.777  0.3588  0.0878 -0.8501
  165MOL0     C22644   4.374   4.734   3.827  0.2546 -0.2234  0.5288
  165MOL0     C22645   4.482   4.640   3.881 -0.4924  0.3894  0.7921
  165MOL0     C22646   4.618   4.703   3.929 -0.6288 -0.6974  0.5151
  165MOL0     C22647   4.698   4.773   3.817 -0.5570  0.2402 -0.0773
  165MOL0     C22648   4.736   4.690   3.693 -0.4243  0.7103 -0.7447
  165MOL0     N22649   4.805   4.560   3.722 -0.1014 -0.8030 -0.5171
  165MOL0     C22650   4.939   4.539   3.720  1.4949 -0.2185  0.7597
  165MOL0     C22651   4.957   4.409   3.747  0.1624 -0.1700 -1.2512
  165MOL0     C22652   5.085   4.334   3.754  0.0219  0.3835  0.4367
  165MOL0     C22653   5.125   4.331   3.901  0.2105 -0.9267  0.0851
  165MOL0     C22654   5.209   4.210   3.928  0.0700  0.2807 -0.2460
  165MOL0     C22655   5.267   4.202   4.072 -0.0646 -0.3678 -0.3814
  165MOL0     O22656   5.344   4.319   4.101 -1.1095 -0.8602  0.8945
  165MOL0     C22657   5.479   4.323   4.063 -0.3357  0.1737  0.2636
  165MOL0     C22658   5.538   4.254   3.956 -1.5649  0.4398 -0.3740
  165MOL0     C22659   5.667   4.289   3.917  0.5426 -0.1064  0.2628
  165MOL0     C22660   5.730   4.213   3.803  0.3156  0.6400 -0.9102
  165MOL0     C22661   5.744   4.385   3.990  0.1854 -0.9660 -0.4166
  165MOL0     C22662   5.881   4.423   3.952  0.1548 -0.1594 -0.3549
  165MOL0     O22663   5.953   4.487   4.053  0.0004  0.3781  0.4736
  165MOL0     C22664   6.015   4.603   4.008 -0.8079 -0.0414  0.3254
  165MOL0     C22665   6.151   4.623   4.038  0.1694 -0.0579  0.1577
  165MOL0     C22666   6.224   4.718   3.972 -0.0057 -0.0728 -0.5839
  165MOL0     C22667   6.159   4.805   3.877  0.5644  0.5475  0.3443
  165MOL0     O22668   6.246   4.891   3.818  0.2615 -0.4342  0.4949
  165MOL0     C22669   6.180   4.982   3.725 -0.4693 -0.1919  0.2628
  165MOL0     C22670   6.168   4.902   3.591  0.2366 -0.4402 -0.4680
  165MOL0     C22671   6.067   4.953   3.479  0.1541  0.1516 -0.1072
  165MOL0     C22672   5.921   4.976   3.518 -0.0764  0.2032  1.0282
  165MOL0     C22673   5.837   4.835   3.525 -0.9659 -0.7726 -0.0323
  165MOL0     C22674   5.690   4.863   3.531  0.4836 -0.0742  0.1861
  165MOL0     C22675   5.643   4.954   3.410 -0.1524 -0.1206  0.5171
  165MOL0     C22676   5.491   4.940   3.391  0.2054  0.3991  0.5216
  165MOL0    Cl22677   5.410   4.973   3.554 -0.0787 -0.0220  0.2723
  165MOL0     C22678   6.015   4.791   3.860 -0.5697 -0.4078 -0.1184
  165MOL0     C22679   5.948   4.691   3.921  0.6791  0.1691 -0.4471
  165MOL0     O22680   5.930   4.413   3.842  0.2515  0.1769 -0.6088
  165MOL0     C22681   5.677   4.455   4.094  0.0125  0.5587  0.2647
  165MOL0     C22682   5.545   4.427   4.122 -1.2231  0.1695 -0.4456
  165MOL0     N22683   4.832   4.354   3.767 -0.4289  0.0639 -0.8332
  165MOL0     N22684   4.746   4.448   3.765 -0.8753  0.2365  0.1348
  165MOL0     C22685   4.093   4.475   3.462  0.7554 -0.0681 -0.4929
  165MOL0     C22686   4.093   4.451   3.326  0.4202  0.4280  0.0492
  165MOL0     C22687   3.893   4.373   2.916 -0.9796  0.2794  0.7895
  165MOL0     C22688   3.962   4.472   2.839  0.1734  0.1173  0.2260
  165MOL0     C22689   3.971   4.456   2.698 -0.2103 -1.4616 -0.2955
  165MOL0     C22690   3.942   4.334   2.638  0.3050 -0.2603 -0.4586
  165MOL0     O22691   3.987   4.308   2.511 -0.6615 -0.0734  0.3209
  165MOL0     C22692   4.010   4.171   2.466 -0.3377  0.1075  0.2120
  165MOL0     C22693   4.114   4.100   2.547 -0.3858 -0.1259 -0.2274
  165MOL0     C22694   4.143   3.962   2.488  0.0706  0.3700 -0.6428
  165MOL0     C22695   4.280   3.912   2.523  0.5959 -1.0158 -0.0877
  165MOL0     C22696   4.270   3.872   2.663 -0.3252  0.2886 -0.4944
  165MOL0     C22697   4.261   3.823   2.776 -0.5563 -0.4013  0.6949
  165MOL0     C22698   3.871   4.240   2.717  1.0150  0.4671 -0.2183
  165MOL0     C22699   3.837   4.257   2.853 -1.0424 -0.6417  0.4824
  165MOL0     C22700   3.760   4.144   2.917  0.5856 -0.0205  0.6874
  165MOL0     H22701   3.797   4.581   3.254  0.1236  0.7847  0.0023
  165MOL0     H22702   3.802   4.643   3.505 -1.4482 -0.5789 -2.5525
  165MOL0     H22703   3.962   4.713   3.795 -2.1587  2.2855 -1.2332
  165MOL0     H22704   3.949   4.759   3.627  0.4609  0.0140 -0.3173
  165MOL0     H22705   4.189   4.757   3.592 -0.7988 -0.8432 -0.6754
  165MOL0     H22706   4.154   4.843   3.731 -1.4285  0.0826 -0.2125
  165MOL0     H22707   4.219   4.602   3.864 -0.2692 -0.0658 -1.2127
  165MOL0     H22708   4.298   4.579   3.710 -0.0225 -1.3912  0.5491
  165MOL0     H22709   4.406   4.786   3.736 -3.1763  2.3762  0.6094
  165MOL0     H22710   4.338   4.810   3.896 -1.2053  1.4984 -1.9348
  165MOL0     H22711   4.505   4.555   3.816 -1.3879  1.3690 -0.8504
  165MOL0     H22712   4.436   4.585   3.963  0.9805  2.6193  3.2746
  165MOL0     H22713   4.594   4.774   4.009  2.2441 -0.6136  1.4301
  165MOL0     H22714   4.687   4.628   3.970  0.5962  0.2062  0.1891
  165MOL0     H22715   4.787   4.813   3.865 -0.5778 -0.5056  0.6233
  165MOL0     H22716   4.645   4.862   3.783  0.9076  2.1784  2.4081
  165MOL0     H22717   4.644   4.678   3.635 -1.7479  2.3585  0.9021
  165MOL0     H22718   4.800   4.752   3.630 -0.5778  0.3680 -1.2452
  165MOL0     H22719   5.010   4.618   3.700  0.0377  0.6205 -1.5353
  165MOL0     H22720   5.163   4.385   3.698  0.3926 -3.1920 -2.6853
  165MOL0     H22721   5.082   4.234   3.709  3.0200  0.7461 -0.8288
  165MOL0     H22722   5.176   4.426   3.919 -3.2853  1.3634 -1.0249
  165MOL0     H22723   5.035   4.335   3.963  0.1034 -1.1347 -0.0578
  165MOL0     H22724   5.138   4.127   3.917 -0.1555  0.3447  0.6549
  165MOL0     H22725   5.288   4.195   3.854  1.4895  2.3839  0.7557
  165MOL0     H22726   5.185   4.181   4.142  0.0927 -2.7850 -0.8082
  165MOL0     H22727   5.332   4.115   4.088  0.7248  0.4171  0.7870
  165MOL0     H22728   5.493   4.173   3.899  0.1045 -0.4436 -0.4825
  165MOL0     H22729   5.655   4.147   3.759  0.8373 -1.5063  1.1924
  165MOL0     H22730   5.808   4.144   3.836 -2.7857 -2.4467  0.6003
  165MOL0     H22731   5.769   4.288   3.734  2.1284  1.0373  0.4858
  165MOL0     H22732   6.210   4.567   4.109  0.6279  0.8593  0.5125
  165MOL0     H22733   6.328   4.731   4.001 -0.1769 -1.7585  0.9519
  165MOL0     H22734   6.081   5.013   3.762 -0.7966 -0.6270 -0.2339
  165MOL0     H22735   6.238   5.074   3.727 -0.7316  0.0464 -1.5450
  165MOL0     H22736   6.271   4.906   3.555  0.5279  1.2691  0.4369
  165MOL0     H22737   6.147   4.796   3.608 -0.7632 -0.2440 -0.4072
  165MOL0     H22738   6.085   4.891   3.390  1.2266  1.0641 -0.5452
  165MOL0     H22739   6.101   5.052   3.450  0.9223  0.1232  0.6733
  165MOL0     H22740   5.901   5.043   3.434  2.1891  0.4022  0.5955
  165MOL0     H22741   5.915   5.033   3.611 -2.4826 -1.5151  2.0572
  165MOL0     H22742   5.862   4.793   3.427 -0.8244  1.4970 -1.0498
  165MOL0     H22743   5.871   4.768   3.604  0.3150 -0.6801 -0.4706
  165MOL0     H22744   5.672   4.927   3.618  0.8171 -2.7056  2.3327
  165MOL0     H22745   5.629   4.773   3.540 -0.0935  0.4768  2.8567
  165MOL0     H22746   5.695   4.934   3.316  0.7322  0.3777  0.8851
  165MOL0     H22747   5.664   5.060   3.429  1.1556 -0.0059 -1.3024
  165MOL0     H22748   5.461   4.840   3.360  0.6940 -0.0968  1.5651
  165MOL0     H22749   5.447   5.006   3.316 -0.0637 -2.4691 -1.9847
  165MOL0     H22750   5.953   4.843   3.787 -2.2740 -3.2115 -0.8125
  165MOL0     H22751   5.846   4.675   3.890  0.4130  0.1915  0.3852
  165MOL0     H22752   5.718   4.532   4.157  2.0756 -0.6586  0.5096
  165MOL0     H22753   5.494   4.477   4.204 -3.4357 -1.3185 -0.8176
  165MOL0     H22754   4.169   4.438   3.530 -1.7092 -2.3861  1.2196
  165MOL0     H22755   4.182   4.398   3.295  0.8029  1.3325 -0.4451
  165MOL0     H22756   3.993   4.564   2.887 -1.8721  0.0839  1.7723
  165MOL0     H22757   4.012   4.535   2.635 -0.1808 -1.2323  0.0051
  165MOL0     H22758   3.917   4.115   2.455 -1.2925  1.7110 -0.2284
  165MOL0     H22759   4.058   4.184   2.368  3.1610  0.4975  1.8104
  165MOL0     H22760   4.082   4.090   2.651  1.8919  0.9220  0.6209
  165MOL0     H22761   4.209   4.154   2.545 -1.5161  1.9967 -2.2021
  165MOL0     H22762   4.063   3.887   2.491  0.8492 -0.4964 -0.9417
  165MOL0     H22763   4.148   3.972   2.379 -1.5778 -1.6487 -0.9741
  165MOL0     H22764   4.354   3.992   2.524  0.4866 -0.9130  0.6883
  165MOL0     H22765   4.306   3.821   2.468  2.3546 -0.9055  0.4995
  165MOL0     H22766   4.263   3.786   2.876  0.9800  1.3606  1.3886
  165MOL0     H22767   3.844   4.142   2.681  0.5070  0.3114  0.5709
  165MOL0     H22768   3.804   4.046   2.897 -2.1945 -1.0255 -1.1426
  165MOL0     H22769   3.762   4.146   3.027 -1.0470 -0.1922  0.7504
  165MOL0     H22770   3.657   4.142   2.879  0.5782  0.3355  0.6858
  166MOL0     O22771   0.781   9.413   2.645 -0.3049 -0.2097 -0.6612
  166MOL0     C22772   0.802   9.445   2.762  0.5943 -0.5232  0.0373
  166MOL0     O22773   0.920   9.504   2.813 -0.1177 -0.2264 -0.5060
  166MOL0     C22774   1.017   9.534   2.719 -0.5285 -0.4992  1.1041
  166MOL0     C22775   1.015   9.669   2.671  0.5510 -0.2703 -1.2438
  166MOL0     C22776   1.111   9.706   2.580  0.3334  0.5357  0.4737
  166MOL0     C22777   1.198   9.604   2.523 -0.3538  0.0896  0.5598
  166MOL0     O22778   1.275   9.665   2.426 -0.6057  0.1508 -0.0807
  166MOL0     C22779   1.414   9.632   2.434 -0.3915 -0.3531  0.2591
  166MOL0     C22780   1.452   9.508   2.353  0.8501  0.7118 -0.4602
  166MOL0     C22781   1.599   9.492   2.332 -0.2926 -0.4017  0.9314
  166MOL0     C22782   1.630   9.356   2.272 -0.3534 -0.1034  0.8352
  166MOL0     C22783   1.756   9.349   2.187  0.4732  1.1809 -0.8735
  166MOL0     C22784   1.880   9.324   2.272 -0.7516 -0.7599  0.4280
  166MOL0     C22785   1.948   9.452   2.316 -0.4808 -0.1850  0.0495
  166MOL0     C22786   2.080   9.421   2.401  0.0393  0.4377  1.0856
  166MOL0     N22787   2.190   9.376   2.307 -0.1112 -0.3337  0.2757
  166MOL0     C22788   2.235   9.438   2.196 -0.4308  0.5187  0.1312
  166MOL0     C22789   2.350   9.375   2.164 -0.1608  0.4007 -0.7496
  166MOL0     C22790   2.435   9.424   2.058  0.2944 -1.0404  0.4669
  166MOL0     C22791   2.522   9.526   2.109 -0.4868 -0.2012 -0.3534
  166MOL0     C22792   2.648   9.447   2.158  0.3587  0.5654  0.4710
  166MOL0     C22793   2.735   9.542   2.250 -0.4217  1.5359  0.7307
  166MOL0     O22794   2.864   9.484   2.250  0.0573 -0.3673  0.3763
  166MOL0     C22795   2.968   9.570   2.249  0.3117 -0.3999  0.2295
  166MOL0     C22796   3.074   9.551   2.164 -0.3309  0.4244 -0.5905
  166MOL0     C22797   3.180   9.642   2.143  0.2261  0.0190 -1.1673
  166MOL0     C22798   3.270   9.619   2.032  0.2844 -0.8792  0.3387
  166MOL0     C22799   3.185   9.758   2.227  0.0942 -0.4621  0.0220
  166MOL0     C22800   3.287   9.872   2.226 -1.0689  0.6647  0.1429
  166MOL0     O22801   3.257  10.001   2.278 -0.7290  0.6829  0.0272
  166MOL0     C22802   3.319  10.118   2.252 -0.1934 -0.2599 -0.2435
  166MOL0     C22803   3.260  10.227   2.325  0.0556  0.0399 -0.0062
  166MOL0     C22804   3.310  10.359   2.306  0.2798  0.2385  0.3124
  166MOL0     C22805   3.412  10.379   2.208 -0.2258  0.2830 -0.3654
  166MOL0     O22806   3.485  10.493   2.183  0.2244  0.3192  0.5854
  166MOL0     C22807   3.432  10.618   2.221  0.0863 -0.6859  0.1456
  166MOL0     C22808   3.520  10.721   2.157  0.3565  0.2859  0.3922
  166MOL0     C22809   3.663  10.717   2.219 -0.4382  1.0021  0.2394
  166MOL0     C22810   3.756  10.813   2.152 -0.7198  1.1993 -1.1041
  166MOL0     C22811   3.903  10.821   2.211  0.3125 -0.1481 -0.5401
  166MOL0     C22812   3.921  10.859   2.361  1.3205 -0.0308 -1.3505
  166MOL0     C22813   4.061  10.860   2.405 -0.4680  0.2190  0.4996
  166MOL0     C22814   4.129  10.997   2.380 -1.2745 -0.2528  0.5360
  166MOL0    Cl22815   4.305  10.967   2.381  0.2803 -0.0214 -0.3646
  166MOL0     C22816   3.467  10.267   2.144  0.0905 -0.9800  0.0359
  166MOL0     C22817   3.427  10.133   2.164  1.0583  0.3675  0.0011
  166MOL0     O22818   3.399   9.831   2.205 -0.0337  0.5782 -0.0941
  166MOL0     C22819   3.083   9.770   2.325 -0.4953  0.0671 -0.5523
  166MOL0     C22820   2.972   9.680   2.340  0.2905 -0.3293  0.4798
  166MOL0     N22821   2.369   9.267   2.247  0.3350  0.5799  0.0190
  166MOL0     N22822   2.261   9.261   2.324  0.0814 -0.1199 -0.5918
  166MOL0     C22823   1.211   9.481   2.588  0.0086  0.2781  0.4315
  166MOL0     C22824   1.125   9.448   2.685 -0.3937  0.9498 -0.4252
  166MOL0     C22825   0.691   9.421   2.863  0.7216 -1.0440 -0.6017
  166MOL0     C22826   0.729   9.396   2.990  0.6077 -0.1189  0.4247
  166MOL0     C22827   0.643   9.363   3.090 -0.3274  0.3787 -0.1305
  166MOL0     C22828   0.504   9.348   3.067 -0.6929 -1.1994 -0.1961
  166MOL0     O22829   0.405   9.317   3.155 -0.1458  0.3055  0.4837
  166MOL0     C22830   0.433   9.306   3.294  0.5149 -0.9376  0.9465
  166MOL0     C22831   0.302   9.270   3.375 -0.4416 -0.3979  1.1793
  166MOL0     C22832   0.262   9.122   3.338 -0.0082  0.8031  0.1902
  166MOL0     C22833   0.153   9.084   3.431 -0.3802 -0.0323  0.0042
  166MOL0     C22834   0.018   9.115   3.391 -0.3980 -0.4020  0.2999
  166MOL0     C22835  -0.093   9.156   3.370  0.0505 -1.2361  0.2944
  166MOL0     C22836   0.462   9.366   2.935 -0.1331  0.0368  0.5812
  166MOL0     C22837   0.554   9.405   2.832 -0.4183  0.3476 -0.7423
  166MOL0     C22838   0.496   9.431   2.694  0.0395 -0.6615 -0.4232
  166MOL0     H22839   0.959   9.750   2.715  1.2883 -0.6096  0.3879
  166MOL0     H22840   1.117   9.809   2.547 -0.5518 -0.0675 -1.6831
  166MOL0     H22841   1.442   9.623   2.539 -2.6067 -0.7184  0.8599
  166MOL0     H22842   1.481   9.714   2.405  3.0551 -2.2694  2.2402
  166MOL0     H22843   1.420   9.415   2.399 -1.6490  0.3967 -2.5821
  166MOL0     H22844   1.403   9.521   2.256  2.2909  1.8087 -1.0738
  166MOL0     H22845   1.638   9.568   2.264 -2.0299  0.5344  0.9307
  166MOL0     H22846   1.640   9.505   2.433 -0.5123  1.3790  0.8164
  166MOL0     H22847   1.631   9.281   2.352  1.6818  1.5917  2.5288
  166MOL0     H22848   1.545   9.341   2.205 -0.3723 -1.1708  1.0796
  166MOL0     H22849   1.774   9.443   2.135 -1.3995  1.4421 -1.0991
  166MOL0     H22850   1.739   9.273   2.109 -1.1200 -0.2211  0.7556
  166MOL0     H22851   1.859   9.261   2.359  3.9372 -1.6585  1.1657
  166MOL0     H22852   1.960   9.271   2.220  0.5547  0.2466  1.3289
  166MOL0     H22853   1.877   9.516   2.369 -1.8280 -1.0216 -0.6708
  166MOL0     H22854   1.972   9.498   2.220  0.1915 -0.0802  0.2640
  166MOL0     H22855   2.101   9.508   2.464 -0.8979  1.0920  0.5110
  166MOL0     H22856   2.072   9.344   2.478 -0.4571  0.0089  0.6144
  166MOL0     H22857   2.189   9.526   2.151 -2.3173 -1.7998 -2.8822
  166MOL0     H22858   2.366   9.471   1.988  0.8660 -0.6414  0.1649
  166MOL0     H22859   2.491   9.348   2.003  2.0928  0.5514  0.0172
  166MOL0     H22860   2.543   9.599   2.031  1.0295 -0.3037 -0.0798
  166MOL0     H22861   2.481   9.577   2.197  1.0070  0.8312 -0.2143
  166MOL0     H22862   2.620   9.365   2.224  3.2254 -1.6740 -0.8261
  166MOL0     H22863   2.712   9.410   2.077  0.8012  1.2583  0.4870
  166MOL0     H22864   2.748   9.644   2.212  1.7950  0.2960 -2.2649
  166MOL0     H22865   2.706   9.552   2.355 -0.7750  0.4646  0.7376
  166MOL0     H22866   3.065   9.468   2.095 -2.6887  0.0214  0.1206
  166MOL0     H22867   3.244   9.524   1.984  0.5482 -1.0001  0.4373
  166MOL0     H22868   3.372   9.632   2.069 -0.1576  1.2644  0.9273
  166MOL0     H22869   3.258   9.693   1.952 -1.8043 -2.4463 -0.9365
  166MOL0     H22870   3.182  10.201   2.395  1.0666 -1.1115  0.7296
  166MOL0     H22871   3.249  10.426   2.365 -3.1784 -2.2387 -0.1571
  166MOL0     H22872   3.326  10.626   2.194  0.4048 -1.1731 -1.3445
  166MOL0     H22873   3.433  10.632   2.329  0.1325 -0.9003  0.1718
  166MOL0     H22874   3.522  10.694   2.051 -1.1578  1.2071  0.0992
  166MOL0     H22875   3.480  10.822   2.165  2.4444  1.0915  1.1585
  166MOL0     H22876   3.716  10.622   2.206 -1.4778  0.6770 -2.0402
  166MOL0     H22877   3.653  10.740   2.325  0.0742 -1.3465  0.8507
  166MOL0     H22878   3.710  10.912   2.156 -2.8747  0.2277  3.2910
  166MOL0     H22879   3.760  10.807   2.042 -2.5502  2.7968 -1.3039
  166MOL0     H22880   3.960  10.735   2.174  2.7101  0.6445  1.0933
  166MOL0     H22881   3.942  10.909   2.158 -0.7700  0.3811 -0.4896
  166MOL0     H22882   3.868  10.792   2.428 -0.7464  0.2044 -2.6450
  166MOL0     H22883   3.870  10.952   2.388 -0.8478 -1.1384 -1.4013
  166MOL0     H22884   4.118  10.780   2.356  1.2614 -0.0266  2.7364
  166MOL0     H22885   4.060  10.837   2.512 -0.0366 -2.0343  0.0822
  166MOL0     H22886   4.110  11.065   2.463 -2.7736  1.5823 -1.1964
  166MOL0     H22887   4.108  11.036   2.280  2.9583 -0.5608 -0.6865
  166MOL0     H22888   3.547  10.279   2.072 -0.9010  0.2785 -0.9038
  166MOL0     H22889   3.466  10.055   2.099 -0.5284  0.2940 -0.9473
  166MOL0     H22890   3.088   9.861   2.386  1.3441  0.0267 -0.5652
  166MOL0     H22891   2.899   9.718   2.411  2.0250 -0.0710  2.2114
  166MOL0     H22892   1.290   9.411   2.560 -2.3299 -1.7478 -1.5173
  166MOL0     H22893   1.130   9.349   2.730  0.9977 -0.1562 -2.8335
  166MOL0     H22894   0.834   9.405   3.017  0.2435  2.6153  1.3354
  166MOL0     H22895   0.687   9.354   3.190  0.7473 -1.8324 -0.7176
  166MOL0     H22896   0.516   9.237   3.311  2.2350  0.5631 -0.8399
  166MOL0     H22897   0.458   9.408   3.325  2.7761 -0.7710 -1.1446
  166MOL0     H22898   0.222   9.341   3.355 -0.8830 -0.3544  2.9447
  166MOL0     H22899   0.320   9.275   3.483 -2.2713  1.6594  1.4525
  166MOL0     H22900   0.233   9.106   3.234  2.2079 -0.2958 -0.3275
  166MOL0     H22901   0.352   9.064   3.363 -0.2852  0.7563  1.1012
  166MOL0     H22902   0.171   9.105   3.537 -1.1570 -4.1920  1.1206
  166MOL0     H22903   0.154   8.978   3.455 -1.6859 -0.0261  0.1731
  166MOL0     H22904  -0.189   9.196   3.345  1.3465  1.2449 -1.1562
  166MOL0     H22905   0.356   9.359   2.912 -0.2548  2.3879  0.2481
  166MOL0     H22906   0.546   9.372   2.617  0.0636 -0.6167 -0.4412
  166MOL0     H22907   0.388   9.420   2.706  0.2820  0.0534  3.9662
  166MOL0     H22908   0.515   9.534   2.662  0.8647 -0.1491  1.5778
  167MOL0     O22909   9.859   9.487  10.642  0.2095  0.6621 -0.5345
  167MOL0     C22910   9.833   9.479  10.522  0.6086 -0.0896 -0.3136
  167MOL0     O22911   9.919   9.517  10.423  0.3478  0.1748 -0.6160
  167MOL0     C22912  10.018   9.604  10.466 -0.3984  0.8660  0.6416
  167MOL0     C22913  10.002   9.743  10.449  0.1327 -0.6062  0.4201
  167MOL0     C22914  10.108   9.831  10.469  0.5481 -0.4434 -0.2400
  167MOL0     C22915  10.239   9.787  10.510  0.6664 -0.0068  0.5590
  167MOL0     O22916  10.336   9.888  10.528  0.1592 -0.3846  0.1289
  167MOL0     C22917  10.466   9.845  10.566  0.9239  0.0319 -0.7941
  167MOL0     C22918  10.560   9.956  10.583  0.2125 -0.6105 -0.0833
  167MOL0     C22919  10.702   9.906  10.600 -0.3058 -0.4318 -0.2954
  167MOL0     C22920  10.789  10.038  10.625  0.2034  0.3519  0.3110
  167MOL0     C22921  10.933  10.000  10.651  0.1226 -0.1880  0.6071
  167MOL0     C22922  11.024  10.114  10.700  0.8516 -0.1328  0.5406
  167MOL0     C22923  11.156  10.063  10.748 -0.5396  0.9064 -0.0694
  167MOL0     C22924  11.225  10.179  10.799  0.5706 -0.1028 -0.5490
  167MOL0     N22925  11.355  10.144  10.851 -0.0270  0.0651  0.1611
  167MOL0     C22926  11.479  10.196  10.805 -0.1032 -0.9670  0.0315
  167MOL0     C22927  11.564  10.134  10.888 -0.0999 -0.1236 -0.1078
  167MOL0     C22928  11.716  10.149  10.898  0.3510 -0.2510  0.5241
  167MOL0     C22929  11.758  10.185  11.035  0.9232  0.0942  0.2791
  167MOL0     C22930  11.884  10.267  11.058 -0.1522 -0.7508  0.5574
  167MOL0     C22931  12.008  10.208  11.031  0.1016  0.8205  0.1164
  167MOL0     O22932  12.004  10.173  10.894  0.3588  0.1736 -0.6786
  167MOL0     C22933  12.125  10.169  10.832 -1.6639 -0.0914 -0.4995
  167MOL0     C22934  12.122  10.181  10.698  0.1022  0.3854  0.8141
  167MOL0     C22935  12.243  10.199  10.620 -0.5647  0.4288  0.1791
  167MOL0     C22936  12.225  10.217  10.475  0.1365  0.1163  0.4810
  167MOL0     C22937  12.368  10.206  10.694  0.0112 -0.3009 -0.1490
  167MOL0     C22938  12.501  10.224  10.629  0.2051 -0.6337 -0.3980
  167MOL0     O22939  12.604  10.213  10.716 -0.2729  0.4079 -0.0156
  167MOL0     C22940  12.726  10.246  10.668  0.0100 -0.0318 -0.5907
  167MOL0     C22941  12.766  10.386  10.640 -0.3285 -0.2106 -0.9438
  167MOL0     C22942  12.891  10.415  10.577 -0.1533 -0.0815  0.1700
  167MOL0     C22943  12.987  10.314  10.573  0.1197 -0.0368  0.7149
  167MOL0     O22944  13.117  10.347  10.542 -0.1210 -0.6811  0.6020
  167MOL0     C22945  13.181  10.250  10.458 -0.6329 -0.5249 -0.4310
  167MOL0     C22946  13.318  10.287  10.398 -0.7605  0.7813  0.4368
  167MOL0     C22947  13.425  10.342  10.510 -0.1160 -0.4325  0.0739
  167MOL0     C22948  13.570  10.315  10.474 -0.6382 -0.2064  0.3337
  167MOL0     C22949  13.660  10.368  10.582 -0.8415 -0.3088 -0.4629
  167MOL0     C22950  13.816  10.342  10.549  0.6628  0.3424 -0.0246
  167MOL0     C22951  13.899  10.410  10.658 -0.9540  0.8304 -0.6735
  167MOL0     C22952  14.046  10.382  10.625  0.2619 -0.3247  0.2856
  167MOL0    Cl22953  14.134  10.460  10.769 -0.2223  0.4071  0.3679
  167MOL0     C22954  12.957  10.189  10.600 -0.1388  0.4400  0.8581
  167MOL0     C22955  12.822  10.149  10.633  0.0647 -0.5874  0.2521
  167MOL0     O22956  12.506  10.257  10.509 -0.1831 -0.1285  0.3428
  167MOL0     C22957  12.361  10.173  10.827 -0.0373  0.0865  0.0834
  167MOL0     C22958  12.248  10.153  10.901  0.0976 -0.3070  0.6039
  167MOL0     N22959  11.492  10.046  10.979 -0.3184  0.0029 -0.1623
  167MOL0     N22960  11.368  10.068  10.962  0.3478 -0.2624 -0.0509
  167MOL0     C22961  10.255   9.647  10.538  0.9321 -0.4883  0.1285
  167MOL0     C22962  10.146   9.557  10.504  0.3663 -0.3096  0.1772
  167MOL0     C22963   9.697   9.412  10.483  0.0116  0.2134  0.1260
  167MOL0     C22964   9.692   9.369  10.354 -0.5792  0.5701 -0.6704
  167MOL0     C22965   9.583   9.298  10.320 -0.5926  0.2370 -0.3468
  167MOL0     C22966   9.486   9.264  10.408  0.6748 -0.0112  0.5588
  167MOL0     O22967   9.382   9.196  10.353  0.0499 -0.1665  0.5950
  167MOL0     C22968   9.372   9.066  10.409  0.3358  0.5975  0.5330
  167MOL0     C22969   9.376   8.952  10.307 -0.0969  0.6589  0.7588
  167MOL0     C22970   9.344   8.812  10.351 -0.4557 -1.1540 -0.0969
  167MOL0     C22971   9.452   8.734  10.422 -0.1219 -0.3543 -0.1885
  167MOL0     C22972   9.407   8.594  10.437 -0.1526 -0.0916  0.4553
  167MOL0     C22973   9.396   8.473  10.427  0.3569  0.8081  0.0863
  167MOL0     C22974   9.489   9.310  10.533 -0.0744 -0.5766 -0.1971
  167MOL0     C22975   9.597   9.382  10.580 -0.1881 -0.2224  1.0261
  167MOL0     C22976   9.590   9.428  10.718  0.3418 -0.2628 -1.1783
  167MOL0     H22977   9.909   9.784  10.411  1.7485  1.0453 -2.0806
  167MOL0     H22978  10.094   9.936  10.443  1.4481 -0.8661 -2.6044
  167MOL0     H22979  10.495   9.773  10.489  1.0503  1.2407 -1.9218
  167MOL0     H22980  10.460   9.799  10.665  0.5432  3.4327  0.9094
  167MOL0     H22981  10.551  10.017  10.492  0.3554  1.2239  1.0674
  167MOL0     H22982  10.529  10.028  10.660 -0.2165  0.0949 -0.8965
  167MOL0     H22983  10.702   9.836  10.684 -3.4555  0.9392  1.0129
  167MOL0     H22984  10.735   9.860  10.507 -1.0684  0.5543 -1.0705
  167MOL0     H22985  10.788  10.112  10.545 -1.5348  0.5944  0.5209
  167MOL0     H22986  10.747  10.096  10.708  4.3320  0.7150  2.4104
  167MOL0     H22987  10.973   9.957  10.559  2.3544  2.0387  0.4167
  167MOL0     H22988  10.920   9.924  10.728  0.6266 -1.1805 -0.2708
  167MOL0     H22989  11.031  10.181  10.614 -0.3320 -1.2036 -0.4383
  167MOL0     H22990  10.968  10.157  10.783 -0.7859 -0.3480 -0.3996
  167MOL0     H22991  11.218  10.015  10.671 -0.6222 -0.5158  0.7303
  167MOL0     H22992  11.133   9.997  10.831 -1.2072  2.7345  1.2796
  167MOL0     H22993  11.229  10.257  10.723  1.4845  0.0026 -0.3960
  167MOL0     H22994  11.176  10.226  10.885  1.0590  1.2664 -0.9946
  167MOL0     H22995  11.490  10.280  10.736 -4.8537  1.4933  1.8171
  167MOL0     H22996  11.747  10.226  10.826  1.3773  0.5028  1.7312
  167MOL0     H22997  11.766  10.055  10.872 -1.4099 -1.2699  0.6662
  167MOL0     H22998  11.677  10.241  11.084  0.2150 -2.3741  2.1404
  167MOL0     H22999  11.767  10.101  11.105 -0.5636  1.1109  1.7695
  167MOL0     H23000  11.874  10.363  11.006 -0.3011  0.0804  2.0625
  167MOL0     H23001  11.876  10.300  11.162 -1.5724 -0.8605  0.5035
  167MOL0     H23002  12.092  10.275  11.046  0.9105 -0.8033  4.0504
  167MOL0     H23003  12.027  10.116  11.088  0.7639  0.1827 -1.1088
  167MOL0     H23004  12.028  10.177  10.644  0.8170  2.9457 -0.7594
  167MOL0     H23005  12.276  10.144  10.412 -3.1346 -0.3321 -1.9091
  167MOL0     H23006  12.259  10.318  10.448 -1.1818  0.8743  1.4814
  167MOL0     H23007  12.118  10.216  10.451  0.5804 -0.5639 -1.6501
  167MOL0     H23008  12.704  10.474  10.648  0.2072 -0.0073  2.1521
  167MOL0     H23009  12.918  10.515  10.546 -0.6748 -0.4790 -1.6607
  167MOL0     H23010  13.199  10.158  10.514  0.7173 -0.5121 -0.8089
  167MOL0     H23011  13.108  10.226  10.380 -1.5164  1.0729 -0.1311
  167MOL0     H23012  13.353  10.194  10.352  1.7121  1.5767  0.5161
  167MOL0     H23013  13.316  10.369  10.326 -3.0375  0.6642  0.3018
  167MOL0     H23014  13.402  10.277  10.595 -3.5758 -0.7113 -0.9355
  167MOL0     H23015  13.422  10.447  10.541  6.7710  0.0377  0.6578
  167MOL0     H23016  13.591  10.376  10.386 -0.3497 -1.3526 -0.4144
  167MOL0     H23017  13.579  10.209  10.449  0.3973 -0.4343  1.5505
  167MOL0     H23018  13.646  10.476  10.591  2.4333  0.2359 -0.6525
  167MOL0     H23019  13.636  10.325  10.680  0.4053  1.8815  0.8946
  167MOL0     H23020  13.846  10.375  10.449 -2.8287 -1.6058 -1.9016
  167MOL0     H23021  13.835  10.235  10.549 -0.0574  0.1432 -2.7324
  167MOL0     H23022  13.868  10.378  10.758 -1.3534 -0.0042 -1.0537
  167MOL0     H23023  13.887  10.519  10.651 -2.9016  0.6261 -1.0665
  167MOL0     H23024  14.073  10.435  10.532  1.1749 -1.6087 -0.2030
  167MOL0     H23025  14.077  10.278  10.623  0.9878 -0.1208  0.6816
  167MOL0     H23026  13.032  10.111  10.603 -2.1285 -1.5871 -0.0395
  167MOL0     H23027  12.801  10.045  10.659 -0.9675 -0.1819  1.1282
  167MOL0     H23028  12.452  10.178  10.885  0.7508 -1.1909 -1.0075
  167MOL0     H23029  12.240  10.137  11.008 -0.6483 -2.2423  0.3115
  167MOL0     H23030  10.350   9.615  10.577  0.0783 -1.0583  1.8468
  167MOL0     H23031  10.171   9.452  10.512  1.1074 -0.3255 -1.8653
  167MOL0     H23032   9.765   9.398  10.279 -1.7451  0.9141 -1.7192
  167MOL0     H23033   9.574   9.271  10.215  0.7058  1.3520 -0.7888
  167MOL0     H23034   9.445   9.042  10.487  0.1990  0.4406  0.6115
  167MOL0     H23035   9.274   9.056  10.456  0.7381  3.7310  2.2977
  167MOL0     H23036   9.473   8.951  10.257 -0.1223  1.3718  0.6818
  167MOL0     H23037   9.303   8.966  10.226  1.8487  0.1581 -1.1650
  167MOL0     H23038   9.263   8.814  10.424  1.5321 -0.8646  2.2054
  167MOL0     H23039   9.321   8.768  10.253  3.4156 -1.5385 -0.9968
  167MOL0     H23040   9.479   8.761  10.524  0.3405 -2.7457  0.4022
  167MOL0     H23041   9.546   8.741  10.365  0.3574  2.3834  0.8175
  167MOL0     H23042   9.384   8.366  10.424  1.9178  0.4510  2.8501
  167MOL0     H23043   9.401   9.284  10.592 -0.7795  0.1129 -0.9228
  167MOL0     H23044   9.670   9.390  10.783 -0.0669  1.6769  0.5799
  167MOL0     H23045   9.586   9.536  10.733  4.3517 -0.2752  2.0921
  167MOL0     H23046   9.501   9.393  10.770  0.1811  0.2826 -1.0790
  168MOL0     O23047   5.435   9.010   0.848 -0.1151 -0.5490  0.0385
  168MOL0     C23048   5.427   8.945   0.746 -0.7686  0.0463 -0.3489
  168MOL0     O23049   5.530   8.930   0.663 -0.1460  0.2699  0.6466
  168MOL0     C23050   5.664   8.951   0.696  0.2997 -0.5617 -0.1765
  168MOL0     C23051   5.747   8.984   0.602 -0.2526 -0.4603 -0.1294
  168MOL0     C23052   5.885   9.006   0.618 -0.4304  0.6495 -0.6885
  168MOL0     C23053   5.936   8.987   0.747 -0.6045 -0.0508 -0.9700
  168MOL0     O23054   6.067   9.004   0.785 -0.0527 -0.0593  0.2143
  168MOL0     C23055   6.169   8.981   0.684  0.0008  0.1185 -0.3173
  168MOL0     C23056   6.307   9.056   0.712 -0.7682 -0.5466  0.6189
  168MOL0     C23057   6.292   9.208   0.729  0.2437  0.9725 -0.3093
  168MOL0     C23058   6.416   9.267   0.782 -0.5413 -0.0556 -0.7270
  168MOL0     C23059   6.398   9.418   0.801  0.6630  0.7819  0.7098
  168MOL0     C23060   6.516   9.483   0.874  0.3542 -0.3091 -0.4754
  168MOL0     C23061   6.530   9.424   1.013  0.5308  0.5073 -0.2552
  168MOL0     C23062   6.628   9.489   1.110  1.1544 -0.2008  0.3414
  168MOL0     N23063   6.758   9.484   1.056 -0.4809  0.0689  0.2469
  168MOL0     C23064   6.849   9.379   1.082  0.1152 -0.0559  0.1406
  168MOL0     C23065   6.970   9.432   1.066  0.2801 -0.4549  0.2783
  168MOL0     C23066   7.103   9.361   1.087 -0.1911 -0.1679  0.9017
  168MOL0     C23067   7.223   9.459   1.076  0.5945  0.4789 -0.8467
  168MOL0     C23068   7.245   9.554   1.200  0.2790 -0.2814 -0.3909
  168MOL0     C23069   7.371   9.624   1.180 -0.4125 -0.0310 -1.2533
  168MOL0     O23070   7.495   9.552   1.190  0.0808 -0.1522 -0.1934
  168MOL0     C23071   7.611   9.633   1.194  0.0607  0.0143  0.2702
  168MOL0     C23072   7.729   9.556   1.187 -0.9454  0.3408  0.5946
  168MOL0     C23073   7.856   9.610   1.181 -0.7261  0.0140 -0.4561
  168MOL0     C23074   7.981   9.519   1.184 -0.1657  0.6564 -1.4527
  168MOL0     C23075   7.861   9.751   1.182  0.4243  0.3978 -0.0083
  168MOL0     C23076   7.991   9.825   1.153  0.1277 -0.2276  0.9059
  168MOL0     O23077   8.015   9.947   1.208 -0.5746  0.4791 -0.0449
  168MOL0     C23078   8.118  10.007   1.132 -0.2595 -0.0997 -0.5699
  168MOL0     C23079   8.235  10.041   1.200  0.8443  0.0737 -1.0126
  168MOL0     C23080   8.334  10.100   1.132  0.7708 -0.3047 -0.3876
  168MOL0     C23081   8.328  10.140   1.002  0.0403 -0.5090  0.2302
  168MOL0     O23082   8.430  10.194   0.929  0.9913  0.2000  0.8669
  168MOL0     C23083   8.560  10.199   0.994  0.6521  0.4048  0.9145
  168MOL0     C23084   8.667  10.228   0.886  0.1469  0.2332 -1.0690
  168MOL0     C23085   8.808  10.186   0.947  0.1767 -0.3571  0.2533
  168MOL0     C23086   8.916  10.253   0.854 -0.1016 -0.7429  0.1486
  168MOL0     C23087   8.934  10.185   0.724  1.2778  0.7688  0.6429
  168MOL0     C23088   9.030  10.251   0.630  0.1409  0.2456  0.2189
  168MOL0     C23089   9.054  10.141   0.525 -0.1461 -0.3398 -0.2587
  168MOL0     C23090   9.168  10.175   0.425  0.5278 -0.5972  0.6555
  168MOL0    Cl23091   9.319  10.193   0.522 -0.3248 -0.1935 -0.2661
  168MOL0     C23092   8.201  10.124   0.933  0.4103 -0.3433 -0.8088
  168MOL0     C23093   8.100  10.059   1.000  0.9677 -0.6459 -0.5005
  168MOL0     O23094   8.070   9.763   1.085 -0.0640 -0.7183  0.4254
  168MOL0     C23095   7.740   9.828   1.183 -0.6482  0.6816  0.7294
  168MOL0     C23096   7.618   9.768   1.190 -0.6217 -0.0714  0.5216
  168MOL0     N23097   6.953   9.565   1.015  0.2668 -0.0446  0.2166
  168MOL0     N23098   6.821   9.597   1.013  0.4301  0.3787  0.1828
  168MOL0     C23099   5.854   8.944   0.851 -0.9815  0.0891  0.2802
  168MOL0     C23100   5.718   8.920   0.825 -0.3705 -0.9681 -0.5759
  168MOL0     C23101   5.296   8.900   0.707  0.7217 -0.1009 -0.2513
  168MOL0     C23102   5.214   8.848   0.806 -0.1440  0.8637 -0.7423
  168MOL0     C23103   5.084   8.809   0.777 -0.7215  0.2557 -0.1502
  168MOL0     C23104   5.041   8.809   0.643 -0.0618 -0.4137 -0.4040
  168MOL0     O23105   4.924   8.752   0.602  0.6608  0.3058  0.6806
  168MOL0     C23106   4.800   8.820   0.639 -0.4154  0.2120  0.0929
  168MOL0     C23107   4.752   8.805   0.783 -0.0102 -0.0154 -0.2469
  168MOL0     C23108   4.752   8.654   0.814  0.0870 -0.1482  0.6229
  168MOL0     C23109   4.638   8.629   0.914 -0.7511  0.0510 -0.4922
  168MOL0     C23110   4.672   8.511   0.994 -0.1990  0.3173 -0.0782
  168MOL0     C23111   4.695   8.421   1.072  0.2050  0.5413  0.3551
  168MOL0     C23112   5.120   8.855   0.548  0.3144  0.2918  0.4499
  168MOL0     C23113   5.244   8.908   0.579 -0.0830  0.4941 -0.3714
  168MOL0     C23114   5.317   8.972   0.464  0.0117  0.1321 -0.3167
  168MOL0     H23115   5.702   9.007   0.506  1.3167  0.2510 -0.7311
  168MOL0     H23116   5.944   9.041   0.535 -3.3200  1.8601 -2.3814
  168MOL0     H23117   6.132   9.030   0.594 -1.1362  3.0062  1.5955
  168MOL0     H23118   6.168   8.872   0.675 -3.0325 -0.1560  1.8036
  168MOL0     H23119   6.354   9.006   0.797  0.1220 -1.4016 -0.3446
  168MOL0     H23120   6.380   9.047   0.631 -0.4382  2.1023  0.5288
  168MOL0     H23121   6.263   9.266   0.641 -2.4987  1.9923  1.1722
  168MOL0     H23122   6.208   9.227   0.795 -2.5614  1.0304 -3.6012
  168MOL0     H23123   6.432   9.214   0.876  2.4852 -1.1403 -1.7492
  168MOL0     H23124   6.502   9.248   0.718 -0.1154 -1.1637  0.1453
  168MOL0     H23125   6.306   9.446   0.854  1.3922 -1.3827  3.3635
  168MOL0     H23126   6.394   9.450   0.697 -1.0580  1.3936  0.9323
  168MOL0     H23127   6.607   9.467   0.817  0.2533 -0.9308 -0.4652
  168MOL0     H23128   6.496   9.591   0.877 -3.3627 -0.8668 -0.2688
  168MOL0     H23129   6.561   9.319   1.014  0.6370  0.5289  1.2866
  168MOL0     H23130   6.434   9.428   1.065  0.8335  2.8536  0.2147
  168MOL0     H23131   6.591   9.592   1.119 -1.3502 -1.0242  0.2718
  168MOL0     H23132   6.615   9.427   1.199 -0.6683  0.5918  0.6656
  168MOL0     H23133   6.820   9.278   1.109 -2.0134  0.5556  0.3681
  168MOL0     H23134   7.115   9.284   1.011  1.3337 -1.6194  2.5070
  168MOL0     H23135   7.097   9.307   1.183 -0.0868  0.8029  1.4696
  168MOL0     H23136   7.316   9.402   1.074 -0.1399 -1.0028  2.0414
  168MOL0     H23137   7.210   9.517   0.985 -0.3709  0.0594 -0.9905
  168MOL0     H23138   7.164   9.627   1.189 -1.0465 -1.4322  1.1538
  168MOL0     H23139   7.237   9.510   1.300 -0.5347 -2.9714 -1.5380
  168MOL0     H23140   7.368   9.677   1.084 -0.0562 -0.2992 -1.4152
  168MOL0     H23141   7.366   9.697   1.262 -1.6860  0.1075 -1.4252
  168MOL0     H23142   7.724   9.448   1.185  2.7519 -0.1002  3.4814
  168MOL0     H23143   8.031   9.515   1.087 -0.4508  0.5252 -1.5968
  168MOL0     H23144   7.959   9.417   1.215 -1.2854  1.6653  1.3498
  168MOL0     H23145   8.051   9.569   1.251 -0.0728  0.0248 -1.0694
  168MOL0     H23146   8.247  10.011   1.304  0.1365  0.4557 -0.8170
  168MOL0     H23147   8.429  10.114   1.183  1.5788  1.3609 -2.2412
  168MOL0     H23148   8.564  10.286   1.060  1.1445  2.3494 -1.5233
  168MOL0     H23149   8.582  10.114   1.058 -1.3891  1.1486  2.7358
  168MOL0     H23150   8.652  10.169   0.795  3.5972 -1.8117 -0.4875
  168MOL0     H23151   8.666  10.336   0.874  0.8981  0.6882  2.0706
  168MOL0     H23152   8.820  10.078   0.948 -0.7648 -0.4711  1.2730
  168MOL0     H23153   8.801  10.220   1.051 -0.6852  2.8916 -0.7187
  168MOL0     H23154   9.011  10.236   0.904 -0.2975 -2.4915 -0.0246
  168MOL0     H23155   8.900  10.361   0.840 -2.0387 -0.7740  1.6296
  168MOL0     H23156   8.970  10.091   0.766 -0.0224  1.6480  4.1105
  168MOL0     H23157   8.839  10.168   0.672  1.0827 -2.3623  1.7948
  168MOL0     H23158   9.123  10.280   0.679  1.9084 -1.6283 -1.8326
  168MOL0     H23159   8.988  10.340   0.583  0.1065 -1.0622 -2.4304
  168MOL0     H23160   8.964  10.128   0.464 -0.6686  0.1701  0.3806
  168MOL0     H23161   9.080  10.046   0.574 -2.4810 -1.0687 -0.3165
  168MOL0     H23162   9.137  10.265   0.370 -1.0504 -1.4958  0.0072
  168MOL0     H23163   9.169  10.090   0.357 -0.2945 -0.7938  0.8738
  168MOL0     H23164   8.189  10.149   0.828  1.5360  1.6836 -0.5177
  168MOL0     H23165   8.010  10.042   0.942  1.0514  0.6221 -1.0270
  168MOL0     H23166   7.742   9.934   1.203 -0.6502  0.7600  0.3222
  168MOL0     H23167   7.535   9.838   1.196 -0.1368  0.5855 -0.2228
  168MOL0     H23168   5.897   8.916   0.946 -2.3061  0.7492  1.0997
  168MOL0     H23169   5.645   8.883   0.897  0.1946 -0.4884  0.2547
  168MOL0     H23170   5.248   8.831   0.908  0.8849 -0.9385 -1.3326
  168MOL0     H23171   5.019   8.766   0.852 -1.6897 -1.4292 -1.8804
  168MOL0     H23172   4.801   8.927   0.619 -2.5447 -0.0675 -1.8673
  168MOL0     H23173   4.726   8.781   0.568 -1.1195  0.1176  0.8700
  168MOL0     H23174   4.650   8.843   0.790  0.9302  2.9537 -1.4362
  168MOL0     H23175   4.810   8.862   0.856 -0.1349  0.4810 -0.5360
  168MOL0     H23176   4.742   8.591   0.726  3.7141 -1.1492  0.7692
  168MOL0     H23177   4.848   8.626   0.858 -0.3464 -0.9930  1.0514
  168MOL0     H23178   4.546   8.606   0.860  0.0886 -0.4287 -1.7461
  168MOL0     H23179   4.620   8.713   0.983 -2.8650 -0.9713  0.3045
  168MOL0     H23180   4.721   8.335   1.131 -0.6042 -0.5832 -0.8654
  168MOL0     H23181   5.093   8.846   0.443  1.8206 -1.7495  0.1672
  168MOL0     H23182   5.406   8.914   0.439  0.4381  0.2888  0.7908
  168MOL0     H23183   5.244   8.979   0.382 -2.1942  3.7822  1.6953
  168MOL0     H23184   5.350   9.074   0.486  0.4162 -0.3249  1.3777
  169MOL0     O23185   0.593   9.506  10.257 -0.0938  0.2494 -0.8430
  169MOL0     C23186   0.649   9.614  10.234 -0.3657  0.1396 -0.6405
  169MOL0     O23187   0.784   9.637  10.235  0.0837  0.1161 -0.2872
  169MOL0     C23188   0.860   9.525  10.246  0.2799 -0.4978  0.3314
  169MOL0     C23189   0.851   9.396  10.196  0.3607  0.0939  0.1083
  169MOL0     C23190   0.945   9.289  10.216  0.3517 -0.0025  0.3580
  169MOL0     C23191   1.055   9.318  10.301 -0.3469 -0.9946 -0.1348
  169MOL0     O23192   1.155   9.221  10.306 -0.1733 -0.0259  0.3920
  169MOL0     C23193   1.290   9.281  10.288 -0.0396  0.0892 -0.5019
  169MOL0     C23194   1.392   9.172  10.268  0.2088  0.1853  0.4255
  169MOL0     C23195   1.529   9.238  10.233  0.3032  0.0584 -0.5708
  169MOL0     C23196   1.626   9.130  10.177  0.3008 -0.0639 -0.6682
  169MOL0     C23197   1.770   9.174  10.172  0.1428  0.1835 -0.1576
  169MOL0     C23198   1.850   9.057  10.121  0.5581 -0.1244 -0.2368
  169MOL0     C23199   1.981   9.093  10.057 -0.0430  0.2925  0.2842
  169MOL0     C23200   2.087   9.140  10.164 -0.0590  0.2179 -0.3520
  169MOL0     N23201   2.226   9.144  10.114  0.5664 -0.4374  0.8430
  169MOL0     C23202   2.305   9.029  10.102  0.2034  0.3687  0.2496
  169MOL0     C23203   2.425   9.078  10.067  0.3636  0.8271 -0.0986
  169MOL0     C23204   2.532   8.977  10.039 -1.1476  0.6698 -0.1136
  169MOL0     C23205   2.672   9.020  10.079  0.5014  0.1910  0.1295
  169MOL0     C23206   2.676   9.046  10.229  0.6280  1.1359 -0.0771
  169MOL0     C23207   2.823   9.052  10.282 -0.9786  0.1595  0.0303
  169MOL0     O23208   2.897   9.150  10.205  0.0428 -0.3159  0.9681
  169MOL0     C23209   3.029   9.181  10.238 -0.1140 -0.0444  0.6489
  169MOL0     C23210   3.101   9.123  10.345  0.6724 -0.7771 -0.3853
  169MOL0     C23211   3.229   9.161  10.384 -0.0857 -0.1303  0.7889
  169MOL0     C23212   3.313   9.078  10.480  0.0300  1.2629  0.3382
  169MOL0     C23213   3.278   9.279  10.316 -0.2160 -0.2785  0.2919
  169MOL0     C23214   3.416   9.326  10.316 -0.0873  0.3104  0.2635
  169MOL0     O23215   3.453   9.422  10.219  0.2517 -0.5210  0.8821
  169MOL0     C23216   3.579   9.487  10.206  0.0361  0.7974 -1.0721
  169MOL0     C23217   3.570   9.615  10.153  0.0120 -0.1293  0.2868
  169MOL0     C23218   3.676   9.698  10.140  0.8515 -0.8568  0.5626
  169MOL0     C23219   3.801   9.648  10.175  0.2547 -0.1873  0.0716
  169MOL0     O23220   3.906   9.736  10.163  0.5636  0.3310 -0.5875
  169MOL0     C23221   4.023   9.678  10.099 -0.4472  0.4713 -0.3696
  169MOL0     C23222   4.142   9.675  10.205  0.9662  0.3233  0.2340
  169MOL0     C23223   4.159   9.811  10.274 -0.6086  0.2540 -0.6390
  169MOL0     C23224   4.286   9.797  10.365  0.3745 -0.3051  0.1183
  169MOL0     C23225   4.310   9.921  10.455  0.3606  1.1470 -0.9004
  169MOL0     C23226   4.343  10.040  10.376 -0.3938 -0.0141 -0.6267
  169MOL0     C23227   4.406  10.150  10.464  0.1723 -0.7537 -0.2698
  169MOL0     C23228   4.442  10.281  10.386 -0.4214  0.0830  0.3842
  169MOL0    Cl23229   4.520  10.401  10.494  0.4099  0.4473  0.0204
  169MOL0     C23230   3.818   9.516  10.226 -0.1928 -0.4150  0.3182
  169MOL0     C23231   3.702   9.436  10.241  0.1938 -0.4716 -1.0431
  169MOL0     O23232   3.484   9.290  10.404  0.2202 -0.0558 -0.7105
  169MOL0     C23233   3.206   9.340  10.218  0.7227  0.3049 -0.7466
  169MOL0     C23234   3.082   9.289  10.173  0.4833 -0.0044 -0.0741
  169MOL0     N23235   2.427   9.215  10.071  0.0650 -1.1353 -0.0985
  169MOL0     N23236   2.304   9.257  10.094  0.4673 -0.3115 -0.0490
  169MOL0     C23237   1.068   9.449  10.352 -0.5255 -0.3809 -0.1927
  169MOL0     C23238   0.979   9.546  10.323  0.6539  0.3994  0.2852
  169MOL0     C23239   0.558   9.727  10.201 -0.1571  0.0513 -0.0851
  169MOL0     C23240   0.608   9.857  10.212 -0.1049  0.6586  0.4204
  169MOL0     C23241   0.527   9.971  10.201 -0.8079 -0.0286  0.0392
  169MOL0     C23242   0.402   9.959  10.153  0.8270 -0.5828  0.1942
  169MOL0     O23243   0.334  10.084  10.139 -0.5094 -0.0144  0.1714
  169MOL0     C23244   0.227  10.084  10.046 -0.3150  0.4798 -0.5788
  169MOL0     C23245   0.280  10.085   9.901  0.7006  0.0354  0.0523
  169MOL0     C23246   0.340  10.219   9.851 -0.2012 -0.2208 -0.2883
  169MOL0     C23247   0.380  10.206   9.707 -0.1315 -0.8621  0.3204
  169MOL0     C23248   0.418  10.340   9.650 -0.0204  0.0048  0.0507
  169MOL0     C23249   0.439  10.456   9.630 -0.5221  0.0942  0.5073
  169MOL0     C23250   0.346   9.830  10.134 -0.2747 -0.1422 -0.6223
  169MOL0     C23251   0.423   9.715  10.155  0.9195 -0.4457  0.1376
  169MOL0     C23252   0.359   9.583  10.125  0.2185 -0.4486  0.6186
  169MOL0     H23253   0.768   9.380  10.128  0.3685 -0.1853  0.1608
  169MOL0     H23254   0.939   9.195  10.163 -1.0810  0.6944 -0.8069
  169MOL0     H23255   1.315   9.326  10.385 -1.3650 -0.3542  0.0705
  169MOL0     H23256   1.302   9.353  10.207  1.6892  0.6836  0.2197
  169MOL0     H23257   1.403   9.120  10.364  2.4041  1.7256  1.1222
  169MOL0     H23258   1.355   9.113  10.184  0.5612 -0.6530  0.8505
  169MOL0     H23259   1.514   9.321  10.164 -1.2062  1.3078  1.1656
  169MOL0     H23260   1.590   9.276  10.315 -0.6614 -0.2695  0.3207
  169MOL0     H23261   1.611   9.044  10.243  1.0756 -1.0687 -1.7696
  169MOL0     H23262   1.591   9.095  10.079 -0.5534  0.2235 -0.4771
  169MOL0     H23263   1.802   9.196  10.274  2.5008 -1.6306 -0.4329
  169MOL0     H23264   1.788   9.253  10.098 -0.1864 -1.5447 -2.1658
  169MOL0     H23265   1.865   8.979  10.196  0.1944 -0.2081 -0.2471
  169MOL0     H23266   1.790   9.007  10.044  1.2079 -0.1134 -0.7589
  169MOL0     H23267   1.969   9.168   9.978 -5.4457 -1.1169 -0.6376
  169MOL0     H23268   2.016   8.997  10.017  0.3304  0.5332  0.0242
  169MOL0     H23269   2.059   9.237  10.204  0.3072 -0.3586  1.3983
  169MOL0     H23270   2.081   9.070  10.248  2.5820  0.0579 -0.2102
  169MOL0     H23271   2.278   8.924  10.106 -1.3616  0.7061 -0.8249
  169MOL0     H23272   2.531   8.947   9.934  1.4771 -0.6149  0.1667
  169MOL0     H23273   2.514   8.885  10.095  0.1876  0.6257  0.2710
  169MOL0     H23274   2.748   8.944  10.062  0.4710 -0.1711  1.4948
  169MOL0     H23275   2.694   9.107  10.017  0.0909  0.4464  0.3408
  169MOL0     H23276   2.628   9.141  10.255  1.2121  0.8699  2.1566
  169MOL0     H23277   2.612   8.970  10.276  1.6452 -0.4021 -1.0924
  169MOL0     H23278   2.825   9.073  10.389  0.2856 -0.1936  0.0830
  169MOL0     H23279   2.862   8.951  10.270 -2.9102 -0.9799  2.3435
  169MOL0     H23280   3.049   9.038  10.388 -0.8184 -0.1878 -0.9551
  169MOL0     H23281   3.256   8.988  10.505 -2.7007  2.7272 -0.2670
  169MOL0     H23282   3.319   9.130  10.576 -0.5045 -2.3917  2.5553
  169MOL0     H23283   3.411   9.042  10.447 -0.6497 -1.2201  0.8324
  169MOL0     H23284   3.470   9.642  10.121  0.8873  1.3194 -1.3986
  169MOL0     H23285   3.652   9.799  10.109  0.8831 -0.7397  0.9168
  169MOL0     H23286   4.019   9.583  10.045 -1.4235  1.5511 -2.3121
  169MOL0     H23287   4.046   9.755  10.025  1.1813  0.7880  0.4292
  169MOL0     H23288   4.112   9.603  10.282  0.0884  0.2777 -0.1334
  169MOL0     H23289   4.236   9.646  10.157  0.8545 -0.1170  0.2781
  169MOL0     H23290   4.072   9.819  10.339  0.8568 -4.0312  2.2729
  169MOL0     H23291   4.165   9.901  10.212 -1.2427  1.2781  0.7465
  169MOL0     H23292   4.382   9.780  10.315  0.8916  0.1794  0.9243
  169MOL0     H23293   4.268   9.713  10.432 -2.0337 -0.7030 -0.9363
  169MOL0     H23294   4.230   9.936  10.528  1.6284 -1.0472  1.0509
  169MOL0     H23295   4.398   9.896  10.513 -1.7830 -2.6091  1.1300
  169MOL0     H23296   4.251  10.087  10.339 -1.3545 -0.4306  1.1287
  169MOL0     H23297   4.410  10.023  10.291  1.4634 -0.7528  0.9264
  169MOL0     H23298   4.501  10.121  10.511 -0.6249 -1.6827  0.8354
  169MOL0     H23299   4.336  10.174  10.544 -1.1072 -2.4990 -0.8178
  169MOL0     H23300   4.359  10.322  10.327  0.6697 -1.0897 -2.1185
  169MOL0     H23301   4.520  10.267  10.310 -2.7185 -0.9092 -1.9723
  169MOL0     H23302   3.918   9.482  10.252 -0.7675 -2.5654 -0.0842
  169MOL0     H23303   3.711   9.333  10.272 -0.3208  0.0283  0.9374
  169MOL0     H23304   3.236   9.436  10.176  0.0426 -0.0897 -2.1805
  169MOL0     H23305   3.035   9.345  10.093  0.3604  1.8533  1.2045
  169MOL0     H23306   1.155   9.475  10.411  0.0022 -1.5966 -0.3969
  169MOL0     H23307   0.980   9.644  10.369 -0.5529  0.3747  0.4084
  169MOL0     H23308   0.706   9.861  10.258  0.9688 -1.6679 -1.4045
  169MOL0     H23309   0.559  10.071  10.230  0.5717 -0.3016 -0.4431
  169MOL0     H23310   0.157  10.001  10.057  0.7642 -0.7000 -2.2878
  169MOL0     H23311   0.173  10.178  10.061  0.6833  1.2359 -1.5424
  169MOL0     H23312   0.200  10.051   9.834  0.5569  0.2460  0.1126
  169MOL0     H23313   0.350  10.002   9.895  1.9691  0.8203  2.5415
  169MOL0     H23314   0.259  10.292   9.859  1.0347  1.0636  0.9823
  169MOL0     H23315   0.425  10.241   9.916 -1.6636 -0.7303  1.8989
  169MOL0     H23316   0.286  10.182   9.658  0.1314  1.2651 -1.3722
  169MOL0     H23317   0.457  10.130   9.689 -0.9926 -2.3452  2.4707
  169MOL0     H23318   0.439  10.563   9.623 -3.5017  0.2732  1.6682
  169MOL0     H23319   0.242   9.822  10.103 -1.3314  2.1973  1.9803
  169MOL0     H23320   0.265   9.606  10.074  1.6919  2.1220 -1.1730
  169MOL0     H23321   0.420   9.527  10.054  0.0698 -0.7875  0.7563
  169MOL0     H23322   0.355   9.518  10.213 -0.8157 -2.0037 -0.5279
  170MOL0     O23323   9.501   1.881   1.225  0.0472  0.2739 -1.0588
  170MOL0     C23324   9.550   1.919   1.121 -0.0539 -0.2164  0.0369
  170MOL0     O23325   9.674   1.971   1.106  0.3733  0.4483  0.6098
  170MOL0     C23326   9.770   1.965   1.198 -0.4617  0.6943  0.2622
  170MOL0     C23327   9.852   2.073   1.215  1.0499  1.2508  0.4916
  170MOL0     C23328   9.957   2.068   1.306 -0.0901  0.1137 -0.1682
  170MOL0     C23329   9.973   1.963   1.396  0.7572 -0.5003  0.3239
  170MOL0     O23330  10.059   1.966   1.500 -0.4214  1.0062  0.4058
  170MOL0     C23331  10.196   1.979   1.459  0.1989 -0.9122  0.6165
  170MOL0     C23332  10.277   2.007   1.589 -0.3976  0.8697  0.3000
  170MOL0     C23333  10.429   1.994   1.575 -0.6263 -0.4270  0.2247
  170MOL0     C23334  10.509   1.953   1.702 -0.5170  0.3081  0.0294
  170MOL0     C23335  10.660   1.962   1.673 -0.8835 -0.7997  0.7086
  170MOL0     C23336  10.732   1.881   1.773  0.3813 -0.0461 -0.3218
  170MOL0     C23337  10.887   1.904   1.753  0.2664  0.3596 -0.0743
  170MOL0     C23338  10.970   1.829   1.858  0.6210 -1.3344 -0.3658
  170MOL0     N23339  11.113   1.834   1.821  0.1580 -0.1237 -0.0237
  170MOL0     C23340  11.206   1.913   1.876  0.7276 -0.3589  0.0167
  170MOL0     C23341  11.320   1.882   1.821  0.4061 -0.2243  0.1392
  170MOL0     C23342  11.449   1.945   1.836  0.4161 -0.0601  0.3236
  170MOL0     C23343  11.570   1.845   1.834  0.0500  0.9788 -0.4774
  170MOL0     C23344  11.605   1.779   1.972  0.5145  0.9045 -1.3426
  170MOL0     C23345  11.724   1.688   1.981 -0.2918  0.0881 -0.0500
  170MOL0     O23346  11.728   1.604   2.093 -0.2097  0.1504 -1.2577
  170MOL0     C23347  11.845   1.539   2.123 -0.0411  0.3615  0.0719
  170MOL0     C23348  11.836   1.399   2.148  0.2419  0.7540 -0.1311
  170MOL0     C23349  11.953   1.325   2.185 -0.1917  0.3883 -0.1468
  170MOL0     C23350  11.940   1.170   2.203 -0.0493  0.5583 -0.1015
  170MOL0     C23351  12.077   1.389   2.186  0.0766 -0.6645  0.3578
  170MOL0     C23352  12.202   1.323   2.193 -0.1172  0.6611  0.4585
  170MOL0     O23353  12.302   1.377   2.270 -0.0581  0.5758 -0.1503
  170MOL0     C23354  12.415   1.298   2.285  0.4726 -1.0566 -0.1149
  170MOL0     C23355  12.540   1.336   2.229  0.6015 -0.8200  0.2120
  170MOL0     C23356  12.650   1.264   2.263  0.3083  0.3691  0.2152
  170MOL0     C23357  12.650   1.145   2.333  0.5305  0.0477  0.7060
  170MOL0     O23358  12.776   1.082   2.340  0.0028 -0.3418  0.5492
  170MOL0     C23359  12.774   0.954   2.401 -0.8891  0.0027  0.6857
  170MOL0     C23360  12.905   0.874   2.420 -1.3106 -0.1031 -0.0079
  170MOL0     C23361  13.008   0.937   2.499 -0.3747 -0.2429  0.7222
  170MOL0     C23362  13.102   1.024   2.412 -0.6472  0.6913 -0.8026
  170MOL0     C23363  13.206   1.083   2.504  0.2431 -0.6627 -0.0169
  170MOL0     C23364  13.164   1.163   2.620 -0.3850 -0.1245  0.1095
  170MOL0     C23365  13.280   1.205   2.707  0.6150  0.6132 -0.5787
  170MOL0     C23366  13.227   1.257   2.845 -0.0957 -0.2591 -0.0337
  170MOL0    Cl23367  13.346   1.291   2.970  0.4187 -0.3677  0.0015
  170MOL0     C23368  12.522   1.099   2.376 -0.3541 -1.0388 -0.1869
  170MOL0     C23369  12.406   1.181   2.349  0.1850  0.1680 -0.3738
  170MOL0     O23370  12.218   1.234   2.109  0.3076  0.2774  0.4643
  170MOL0     C23371  12.083   1.535   2.161  0.0051  0.5545  0.4685
  170MOL0     C23372  11.969   1.599   2.137 -0.6351  0.2412  0.2477
  170MOL0     N23373  11.292   1.786   1.729 -0.0505  0.8826  0.8397
  170MOL0     N23374  11.171   1.757   1.727 -0.3172  0.1875 -0.0601
  170MOL0     C23375   9.882   1.854   1.382  0.9782  0.2520 -0.3232
  170MOL0     C23376   9.787   1.852   1.283  0.5293 -0.0949 -0.9830
  170MOL0     C23377   9.453   1.935   1.009 -0.9350 -0.4087 -0.2661
  170MOL0     C23378   9.474   2.041   0.919  0.8337  0.5744  0.2703
  170MOL0     C23379   9.383   2.066   0.825 -0.1984 -0.5022 -0.2565
  170MOL0     C23380   9.271   1.972   0.793 -0.2833 -0.2227 -0.2102
  170MOL0     O23381   9.170   1.997   0.704  0.3166  0.1182  1.3239
  170MOL0     C23382   9.202   2.102   0.605  0.2931 -0.3826  0.0193
  170MOL0     C23383   9.087   2.096   0.496 -0.5299  0.1544  1.7855
  170MOL0     C23384   9.100   2.198   0.383  0.5091 -0.6674 -0.2906
  170MOL0     C23385   8.995   2.182   0.286  0.7298  0.0252 -0.8427
  170MOL0     C23386   9.013   2.259   0.162  0.1829 -0.9953 -0.2025
  170MOL0     C23387   9.031   2.320   0.058 -0.2427  1.0714 -0.7851
  170MOL0     C23388   9.258   1.866   0.881 -0.1828 -0.3001  0.4129
  170MOL0     C23389   9.346   1.842   0.987 -0.6569  0.6350  0.6135
  170MOL0     C23390   9.327   1.705   1.061 -1.4273 -0.2856  0.2678
  170MOL0     H23391   9.831   2.157   1.150 -1.5852 -0.8209 -1.5840
  170MOL0     H23392  10.025   2.152   1.311 -0.6498  0.5926 -0.4480
  170MOL0     H23393  10.219   2.049   1.379  0.3078 -3.0170 -1.2745
  170MOL0     H23394  10.228   1.883   1.419  0.5895  0.0290 -1.4504
  170MOL0     H23395  10.248   2.107   1.623  0.1462  2.1915 -2.7989
  170MOL0     H23396  10.263   1.930   1.665 -0.3603 -3.1380 -3.3786
  170MOL0     H23397  10.464   1.920   1.503 -1.6201 -1.2136  0.5181
  170MOL0     H23398  10.473   2.088   1.541 -2.8668 -0.4253 -3.2756
  170MOL0     H23399  10.476   2.017   1.785 -2.7244 -1.9046  0.9888
  170MOL0     H23400  10.481   1.849   1.722  0.7924 -0.1554 -0.4842
  170MOL0     H23401  10.699   2.065   1.677 -2.4366 -0.1918  1.1593
  170MOL0     H23402  10.694   1.927   1.576  1.6799  0.9988  0.8686
  170MOL0     H23403  10.698   1.909   1.874  4.3271  0.3339  1.1089
  170MOL0     H23404  10.702   1.778   1.754 -1.6691  0.5130 -0.3735
  170MOL0     H23405  10.899   2.013   1.758 -0.9784  0.4314  2.9071
  170MOL0     H23406  10.912   1.859   1.656 -2.2224 -2.1312  0.3172
  170MOL0     H23407  10.943   1.866   1.957  0.1546 -2.3895 -0.0848
  170MOL0     H23408  10.940   1.724   1.854 -1.0746 -1.0368  2.1479
  170MOL0     H23409  11.196   1.992   1.950 -1.2873 -0.4204 -0.1199
  170MOL0     H23410  11.455   2.013   1.922 -0.1275  0.8518 -0.3454
  170MOL0     H23411  11.456   2.017   1.754  0.3530  0.4005  0.7199
  170MOL0     H23412  11.554   1.756   1.772  1.0823  0.1199  0.4303
  170MOL0     H23413  11.660   1.899   1.803  0.2998  0.4109 -0.7510
  170MOL0     H23414  11.629   1.850   2.052  2.0617 -2.6452  1.6658
  170MOL0     H23415  11.517   1.721   2.001  2.6263 -0.6649  2.8453
  170MOL0     H23416  11.727   1.629   1.888  1.4971  3.4490 -2.3242
  170MOL0     H23417  11.817   1.744   1.974  0.5429 -1.1050  1.0643
  170MOL0     H23418  11.742   1.346   2.141  0.4442  0.5512 -1.6563
  170MOL0     H23419  11.994   1.139   2.293 -1.0093 -2.5642 -0.4601
  170MOL0     H23420  11.986   1.115   2.120 -1.5568  0.2367 -0.7490
  170MOL0     H23421  11.839   1.131   2.217  0.1635 -0.0839 -0.3128
  170MOL0     H23422  12.553   1.430   2.177 -1.7065  0.0769  1.1169
  170MOL0     H23423  12.748   1.292   2.226  1.1373 -1.5980  0.7975
  170MOL0     H23424  12.741   0.970   2.504  2.3115  1.1555  1.6645
  170MOL0     H23425  12.713   0.886   2.341  1.5357 -2.2843  0.6465
  170MOL0     H23426  12.890   0.786   2.483  1.5851  0.8502  2.2224
  170MOL0     H23427  12.936   0.831   2.325 -1.0490  2.0084 -0.9446
  170MOL0     H23428  13.067   0.862   2.552  0.2910  1.0106  1.8083
  170MOL0     H23429  12.954   0.996   2.574  1.6174 -2.5621  4.2247
  170MOL0     H23430  13.040   1.098   2.361  0.8096 -0.0185 -3.7995
  170MOL0     H23431  13.153   0.960   2.340  0.4323  0.7572 -0.1266
  170MOL0     H23432  13.270   0.998   2.529 -0.4999 -2.7044 -4.2529
  170MOL0     H23433  13.260   1.143   2.431 -0.5136 -3.4939 -3.1641
  170MOL0     H23434  13.102   1.104   2.687  2.1430  0.6496  3.3968
  170MOL0     H23435  13.110   1.252   2.588  1.4732  1.0429  0.0322
  170MOL0     H23436  13.337   1.284   2.657 -2.1580  2.7055 -0.6781
  170MOL0     H23437  13.331   1.112   2.734  2.1390  1.2597 -1.1227
  170MOL0     H23438  13.145   1.197   2.884 -1.8381 -0.1016 -3.1099
  170MOL0     H23439  13.181   1.353   2.819  0.2132 -0.3060 -0.8015
  170MOL0     H23440  12.525   1.003   2.428  2.3564 -1.1190 -0.3021
  170MOL0     H23441  12.311   1.144   2.385 -0.2249 -1.5339 -2.9973
  170MOL0     H23442  12.183   1.577   2.167  0.7981 -0.9559 -1.2189
  170MOL0     H23443  11.963   1.707   2.122  0.6905  0.1230 -1.3814
  170MOL0     H23444   9.895   1.772   1.452  2.3847  0.2389 -0.5842
  170MOL0     H23445   9.719   1.767   1.281  2.1074 -1.5752  1.6690
  170MOL0     H23446   9.563   2.103   0.925 -0.0490  1.8319  0.9698
  170MOL0     H23447   9.387   2.161   0.772  1.2738 -1.4750 -1.9855
  170MOL0     H23448   9.218   2.202   0.646  2.6069 -1.1545  1.1759
  170MOL0     H23449   9.292   2.077   0.549 -0.6916  2.7855 -3.3537
  170MOL0     H23450   8.999   2.107   0.560  0.4262 -0.8098  3.3100
  170MOL0     H23451   9.070   1.993   0.461  0.1316  1.0158 -1.4490
  170MOL0     H23452   9.087   2.295   0.431  1.0355 -2.6796  4.5130
  170MOL0     H23453   9.198   2.194   0.335  0.1261  1.4966 -1.3595
  170MOL0     H23454   8.902   2.209   0.337 -0.4544 -0.4602 -2.6325
  170MOL0     H23455   8.977   2.075   0.269 -1.8247 -0.1002  1.7618
  170MOL0     H23456   9.053   2.357  -0.040  0.5540 -0.6977 -1.3120
  170MOL0     H23457   9.176   1.800   0.855  0.7939 -0.6838 -1.9575
  170MOL0     H23458   9.275   1.624   1.009  1.7639 -1.3007 -1.6705
  170MOL0     H23459   9.427   1.666   1.081 -0.6845  0.9845 -0.8324
  170MOL0     H23460   9.288   1.731   1.159 -0.4757  0.2427  0.5190
  171MOL0     O23461   0.443  10.838   3.108  0.0793  0.3615 -0.5645
  171MOL0     C23462   0.467  10.885   3.219  0.4929  0.9674 -0.0871
  171MOL0     O23463   0.578  10.861   3.291  0.2666  0.5899 -1.4018
  171MOL0     C23464   0.672  10.759   3.279 -0.0371 -0.3693 -0.0330
  171MOL0     C23465   0.664  10.651   3.194 -0.1745 -0.0291 -0.5707
  171MOL0     C23466   0.770  10.554   3.190  0.0347 -0.3541 -0.3343
  171MOL0     C23467   0.880  10.567   3.284  0.5513 -0.0981 -0.0541
  171MOL0     O23468   0.980  10.472   3.299 -0.6689 -0.6058 -0.4726
  171MOL0     C23469   1.015  10.397   3.192 -0.1670  0.6036 -0.1519
  171MOL0     C23470   1.144  10.316   3.216  0.7330 -0.4391 -0.1942
  171MOL0     C23471   1.258  10.408   3.252  0.1378  0.2832 -0.7789
  171MOL0     C23472   1.386  10.327   3.252 -0.5858  0.1568  0.0776
  171MOL0     C23473   1.503  10.408   3.328  0.8127 -0.0897 -0.0958
  171MOL0     C23474   1.565  10.535   3.250 -0.3676  0.8716 -0.1197
  171MOL0     C23475   1.682  10.574   3.332  0.1235 -0.2017 -0.1071
  171MOL0     C23476   1.738  10.705   3.286  0.0841 -0.2163  0.2584
  171MOL0     N23477   1.823  10.756   3.386 -0.9040  0.1740 -0.1425
  171MOL0     C23478   1.775  10.809   3.509 -0.0896  0.6252  0.4621
  171MOL0     C23479   1.881  10.862   3.577  0.2127 -0.0975 -0.1640
  171MOL0     C23480   1.887  10.930   3.714  0.0458 -0.0209  1.6512
  171MOL0     C23481   1.891  10.832   3.834  0.6151 -0.3215 -0.6437
  171MOL0     C23482   1.994  10.723   3.821  0.2205 -0.9287 -0.7873
  171MOL0     C23483   2.134  10.781   3.841  0.0888 -0.0567 -0.6085
  171MOL0     O23484   2.152  10.829   3.971 -0.6381 -0.2146  0.1272
  171MOL0     C23485   2.261  10.913   4.004  0.3107  0.1693  0.7457
  171MOL0     C23486   2.380  10.918   3.937 -0.5312 -0.7179 -0.3943
  171MOL0     C23487   2.476  11.015   3.972 -0.2795 -0.0810  0.6756
  171MOL0     C23488   2.608  11.016   3.897 -0.6314 -0.2806  0.4940
  171MOL0     C23489   2.448  11.111   4.077  0.2185  0.0555 -0.2228
  171MOL0     C23490   2.538  11.215   4.131 -1.0113 -0.9187 -0.7361
  171MOL0     O23491   2.481  11.309   4.223  0.1274  0.8402  0.3963
  171MOL0     C23492   2.563  11.409   4.267 -0.1627 -0.2613  0.0880
  171MOL0     C23493   2.574  11.529   4.202  0.0882  0.0366 -0.0834
  171MOL0     C23494   2.659  11.630   4.256  0.4982  0.0686 -0.3660
  171MOL0     C23495   2.739  11.604   4.373 -0.3452  0.4351  0.1512
  171MOL0     O23496   2.838  11.697   4.394 -0.0365 -0.6439  0.1503
  171MOL0     C23497   2.953  11.697   4.308 -0.1263 -0.4679 -0.3675
  171MOL0     C23498   3.083  11.656   4.386 -0.9102 -0.7748 -0.3051
  171MOL0     C23499   3.198  11.650   4.290 -0.3471  0.4933 -0.3928
  171MOL0     C23500   3.255  11.780   4.263 -0.7878  0.0002 -0.0951
  171MOL0     C23501   3.347  11.791   4.139 -0.1619 -0.1223  0.2527
  171MOL0     C23502   3.479  11.736   4.160  0.3530  0.2912 -0.1669
  171MOL0     C23503   3.551  11.687   4.032  0.0803 -0.2071 -0.7283
  171MOL0     C23504   3.696  11.652   4.056  0.2831  0.2543  0.7084
  171MOL0    Cl23505   3.782  11.802   4.097  0.0216  0.2821 -0.2960
  171MOL0     C23506   2.723  11.484   4.438  1.0518  0.2662 -0.8281
  171MOL0     C23507   2.635  11.386   4.386 -0.3902  0.5628  0.2970
  171MOL0     O23508   2.657  11.201   4.105 -0.0661  0.0695 -0.3212
  171MOL0     C23509   2.326  11.094   4.148  0.3581 -0.8506 -0.3343
  171MOL0     C23510   2.246  10.991   4.114  0.6460  0.5208 -0.1059
  171MOL0     N23511   1.986  10.852   3.485  0.8715 -0.0110  0.0092
  171MOL0     N23512   1.950  10.788   3.375 -0.2274 -0.2781 -0.2269
  171MOL0     C23513   0.883  10.673   3.362 -0.7207 -0.6821 -0.1471
  171MOL0     C23514   0.787  10.772   3.365 -0.5228  0.6918 -0.6612
  171MOL0     C23515   0.389  10.997   3.253  1.0114 -0.0921  0.2315
  171MOL0     C23516   0.245  10.987   3.244  0.2960  0.3275  0.8337
  171MOL0     C23517   0.165  11.093   3.296 -0.1896  1.4931  0.6487
  171MOL0     C23518   0.222  11.211   3.344  0.6371 -0.5212  0.1803
  171MOL0     O23519   0.151  11.319   3.392  0.7462  0.4304 -0.9802
  171MOL0     C23520   0.011  11.317   3.417  0.6238  0.2138 -0.5279
  171MOL0     C23521  -0.087  11.321   3.294 -0.8021  0.7001  0.0363
  171MOL0     C23522  -0.226  11.294   3.361 -0.0579 -1.4509  0.6640
  171MOL0     C23523  -0.303  11.433   3.395  1.0720  0.2702 -0.1944
  171MOL0     C23524  -0.427  11.402   3.462  0.3949 -0.7360  0.5566
  171MOL0     C23525  -0.534  11.367   3.501  0.2276 -0.3621 -0.6365
  171MOL0     C23526   0.360  11.225   3.328 -0.4636 -0.5561  0.7010
  171MOL0     C23527   0.445  11.118   3.293  0.7798  0.3220  0.1319
  171MOL0     C23528   0.599  11.146   3.287  0.1722 -0.3524 -0.1184
  171MOL0     H23529   0.587  10.646   3.118 -1.1016  0.4792  0.3052
  171MOL0     H23530   0.758  10.466   3.128 -0.9936  0.8950 -1.9811
  171MOL0     H23531   1.036  10.463   3.107 -2.5227  0.6422 -0.7769
  171MOL0     H23532   0.928  10.344   3.151  0.5242  0.5408 -1.5795
  171MOL0     H23533   1.132  10.246   3.299 -1.6634 -0.7734 -0.7597
  171MOL0     H23534   1.167  10.258   3.126  0.5484 -1.3712  0.3555
  171MOL0     H23535   1.276  10.486   3.177 -0.2763  1.4222  0.2750
  171MOL0     H23536   1.239  10.466   3.343 -2.2629 -0.3021 -0.8342
  171MOL0     H23537   1.378  10.231   3.303  2.5153  0.0175  0.5086
  171MOL0     H23538   1.430  10.302   3.155 -0.6329  0.6061 -0.0606
  171MOL0     H23539   1.580  10.332   3.346 -0.9336 -1.9227  0.0848
  171MOL0     H23540   1.460  10.435   3.425 -1.0552  0.3763 -1.0020
  171MOL0     H23541   1.595  10.487   3.156  1.0785  0.0932  0.7038
  171MOL0     H23542   1.490  10.614   3.247  0.0057  1.3945  2.3382
  171MOL0     H23543   1.763  10.500   3.337 -1.2143 -1.6043  2.1247
  171MOL0     H23544   1.648  10.578   3.436  0.3933 -2.1511  0.1058
  171MOL0     H23545   1.783  10.685   3.189 -2.9375  1.0131 -1.5196
  171MOL0     H23546   1.654  10.773   3.269 -1.7179 -3.0725 -4.0314
  171MOL0     H23547   1.670  10.796   3.535  0.0766 -2.3602 -0.0465
  171MOL0     H23548   1.792  10.986   3.716  1.7901  3.5666 -1.8085
  171MOL0     H23549   1.971  11.000   3.714  1.7206 -1.8702 -0.9739
  171MOL0     H23550   1.907  10.893   3.924  0.8634 -1.6328  0.2257
  171MOL0     H23551   1.791  10.788   3.846  0.9907 -0.8001  0.9853
  171MOL0     H23552   1.970  10.648   3.898 -1.8859  0.5876  0.1219
  171MOL0     H23553   1.986  10.667   3.727 -1.0416  1.2918 -2.0613
  171MOL0     H23554   2.203  10.696   3.837 -0.5469 -0.6084 -0.1208
  171MOL0     H23555   2.166  10.857   3.769  0.1634 -0.2763 -0.8067
  171MOL0     H23556   2.398  10.856   3.850  1.9994 -2.2372  1.0622
  171MOL0     H23557   2.689  10.982   3.962  0.3760  0.5126 -0.3193
  171MOL0     H23558   2.640  11.118   3.878 -1.8374  0.1963  0.9199
  171MOL0     H23559   2.613  10.954   3.807  1.1550 -0.9966  1.0306
  171MOL0     H23560   2.525  11.532   4.105  0.6112 -1.3870 -0.4209
  171MOL0     H23561   2.668  11.729   4.212 -1.1090 -0.2857 -1.5566
  171MOL0     H23562   2.935  11.625   4.227  1.2416  0.2700 -1.3578
  171MOL0     H23563   2.964  11.795   4.262  2.6691  1.0177  3.0424
  171MOL0     H23564   3.090  11.711   4.480  0.2264 -2.3314  0.5789
  171MOL0     H23565   3.074  11.552   4.419  2.6348 -1.5748 -1.4347
  171MOL0     H23566   3.171  11.596   4.199 -1.5420 -0.9064  0.7372
  171MOL0     H23567   3.277  11.589   4.336  1.2526 -1.5663 -5.2096
  171MOL0     H23568   3.307  11.811   4.355 -2.1426 -0.1281  0.7526
  171MOL0     H23569   3.191  11.869   4.259  0.4351  0.8496 -2.2843
  171MOL0     H23570   3.291  11.751   4.054 -0.8554  1.4821 -0.0828
  171MOL0     H23571   3.359  11.898   4.118  0.2408 -0.3159 -0.5319
  171MOL0     H23572   3.472  11.657   4.235  0.8882  0.0759 -0.3332
  171MOL0     H23573   3.527  11.823   4.206 -0.7453  0.8396 -0.0357
  171MOL0     H23574   3.546  11.763   3.952 -1.9232 -0.0802 -0.5392
  171MOL0     H23575   3.500  11.593   4.006  2.5452 -2.4353  1.8596
  171MOL0     H23576   3.739  11.612   3.964  1.8765  0.9223  1.1187
  171MOL0     H23577   3.707  11.586   4.143  0.1649 -2.8639 -1.4872
  171MOL0     H23578   2.774  11.438   4.522 -2.6778 -5.0632 -0.9753
  171MOL0     H23579   2.613  11.297   4.443  2.2425 -1.3728 -1.5153
  171MOL0     H23580   2.313  11.146   4.243  0.6940 -4.3192  1.8090
  171MOL0     H23581   2.159  10.980   4.177  1.2663  0.9635  0.8561
  171MOL0     H23582   0.963  10.668   3.435 -0.5145 -3.0907 -0.4694
  171MOL0     H23583   0.795  10.851   3.438 -0.3379  1.2614 -1.2907
  171MOL0     H23584   0.192  10.899   3.212  0.1185  0.4124  0.8966
  171MOL0     H23585   0.060  11.065   3.304  0.2356 -0.0974  0.9571
  171MOL0     H23586  -0.018  11.233   3.480 -0.6496 -0.0227 -1.4103
  171MOL0     H23587  -0.013  11.406   3.476 -0.5025 -1.3404  1.4714
  171MOL0     H23588  -0.065  11.244   3.219 -2.9185  1.3531 -1.3594
  171MOL0     H23589  -0.072  11.419   3.247 -0.6462  0.7534  0.1921
  171MOL0     H23590  -0.287  11.239   3.288  0.8035  0.3993 -1.5574
  171MOL0     H23591  -0.227  11.235   3.454 -1.2022  1.5962  2.7245
  171MOL0     H23592  -0.322  11.485   3.300  0.5568  1.4783  0.5474
  171MOL0     H23593  -0.248  11.497   3.465  1.7692 -0.9426  0.4029
  171MOL0     H23594  -0.629  11.333   3.535 -0.4112  0.8275 -1.1746
  171MOL0     H23595   0.409  11.319   3.349  0.9732 -1.1323  0.1117
  171MOL0     H23596   0.625  11.252   3.280  1.4638 -0.6256  0.3091
  171MOL0     H23597   0.656  11.094   3.364  2.2584  0.9172 -0.7443
  171MOL0     H23598   0.643  11.111   3.194 -0.6673 -1.4837 -0.1236
  172MOL0     O23599   9.405   2.483   1.499  0.6988  0.1738 -0.8467
  172MOL0     C23600   9.414   2.381   1.430  0.1204 -1.0302 -0.7358
  172MOL0     O23601   9.535   2.312   1.415  0.0476 -0.1551  0.6173
  172MOL0     C23602   9.649   2.349   1.482 -0.4794 -0.4833  0.3893
  172MOL0     C23603   9.742   2.242   1.513 -0.0951  0.0631  0.2577
  172MOL0     C23604   9.869   2.265   1.558 -0.1607  0.1937  0.0082
  172MOL0     C23605   9.907   2.398   1.591  1.4397 -0.4326  0.4921
  172MOL0     O23606  10.010   2.449   1.661 -0.0155 -0.2103 -0.0375
  172MOL0     C23607  10.121   2.360   1.670 -0.2613 -0.5649  1.1325
  172MOL0     C23608  10.245   2.444   1.713  1.0883  0.0941  0.1991
  172MOL0     C23609  10.369   2.370   1.708 -0.3978 -0.2021  0.2442
  172MOL0     C23610  10.478   2.443   1.786  0.1741  0.2401  0.3690
  172MOL0     C23611  10.615   2.375   1.764 -0.2280  0.1626 -0.2965
  172MOL0     C23612  10.729   2.450   1.830 -0.8336  0.6020 -0.6747
  172MOL0     C23613  10.861   2.409   1.764 -0.8102  0.0240  0.2939
  172MOL0     C23614  10.981   2.448   1.845 -0.5289 -0.6341  0.1706
  172MOL0     N23615  10.996   2.350   1.953 -0.0136  0.1000 -0.0203
  172MOL0     C23616  11.009   2.379   2.086 -0.6617  0.3770  0.6705
  172MOL0     C23617  11.041   2.263   2.143  0.4048  0.4425  0.7852
  172MOL0     C23618  11.076   2.256   2.284 -0.3762  0.6292 -0.5695
  172MOL0     C23619  11.212   2.178   2.303  0.4384 -0.3642 -0.1113
  172MOL0     C23620  11.339   2.259   2.273  0.0677 -0.4332 -0.3120
  172MOL0     C23621  11.461   2.203   2.356  0.0091  0.3246  0.0714
  172MOL0     O23622  11.476   2.061   2.333 -0.8302  0.0289  0.3878
  172MOL0     C23623  11.578   1.990   2.397  1.5106  0.0023  0.1011
  172MOL0     C23624  11.674   2.056   2.472  0.0632 -0.8370 -0.1354
  172MOL0     C23625  11.786   1.987   2.515 -0.3373 -0.0025 -0.0577
  172MOL0     C23626  11.897   2.064   2.584 -0.2839  0.1347  0.2583
  172MOL0     C23627  11.795   1.847   2.498 -0.5005  0.4384 -0.6395
  172MOL0     C23628  11.913   1.762   2.555 -0.0092 -0.4118  0.4332
  172MOL0     O23629  11.877   1.633   2.571  0.0299  0.4548  0.2690
  172MOL0     C23630  11.976   1.533   2.582  1.3848  1.0012 -0.4346
  172MOL0     C23631  12.071   1.538   2.684 -0.1260  0.9261  0.3934
  172MOL0     C23632  12.162   1.440   2.705 -0.4745 -0.4684  0.3095
  172MOL0     C23633  12.166   1.320   2.632 -0.0529 -0.7241 -0.0786
  172MOL0     O23634  12.250   1.215   2.646 -0.4170  0.5320  0.3769
  172MOL0     C23635  12.360   1.226   2.738 -0.8560  0.5123 -0.8237
  172MOL0     C23636  12.454   1.104   2.728 -0.5558 -0.0231  0.0969
  172MOL0     C23637  12.571   1.103   2.833  0.9267  0.4029 -0.5740
  172MOL0     C23638  12.685   1.189   2.803 -0.3275 -0.9420 -0.7750
  172MOL0     C23639  12.812   1.152   2.880 -0.1240 -0.1236  0.1315
  172MOL0     C23640  12.786   1.112   3.030  0.7022  0.5070 -0.2317
  172MOL0     C23641  12.910   1.058   3.102  0.4395  0.0017  0.3212
  172MOL0     C23642  12.996   1.174   3.162  0.7697 -0.3281 -0.3872
  172MOL0    Cl23643  13.143   1.107   3.220  0.1192  0.2127  0.2137
  172MOL0     C23644  12.071   1.317   2.533 -0.0913  0.2857  0.2392
  172MOL0     C23645  11.979   1.416   2.505  0.5225 -0.1851 -0.1152
  172MOL0     O23646  12.031   1.802   2.572  0.1390 -0.2364 -0.0743
  172MOL0     C23647  11.692   1.778   2.435 -0.1465 -0.2855 -0.3527
  172MOL0     C23648  11.594   1.856   2.379  0.3168 -0.1647  0.7630
  172MOL0     N23649  11.046   2.166   2.047  0.1644 -0.1976 -0.3976
  172MOL0     N23650  11.018   2.221   1.933 -0.0994  0.1422  0.6176
  172MOL0     C23651   9.820   2.499   1.564  0.3033 -0.4438  0.4482
  172MOL0     C23652   9.693   2.479   1.510 -0.2604 -0.2348  0.6588
  172MOL0     C23653   9.300   2.318   1.353  0.4417  0.1353  0.0732
  172MOL0     C23654   9.326   2.187   1.307 -0.4427 -0.0421 -1.0312
  172MOL0     C23655   9.239   2.125   1.221  0.0345 -0.2987  0.6568
  172MOL0     C23656   9.125   2.186   1.180  0.2777 -1.1791  0.4492
  172MOL0     O23657   9.057   2.114   1.089  0.2836  0.5403 -0.3714
  172MOL0     C23658   8.932   2.157   1.046  0.1681  0.1416 -0.0512
  172MOL0     C23659   8.884   2.052   0.946  0.0263  0.4484 -0.1433
  172MOL0     C23660   8.826   2.109   0.819  0.3293  0.0990  1.0317
  172MOL0     C23661   8.697   2.193   0.848  0.1830  0.2416  0.3485
  172MOL0     C23662   8.630   2.238   0.728  0.2461  0.4778 -0.3949
  172MOL0     C23663   8.565   2.290   0.637 -0.2860  0.1583  0.2017
  172MOL0     C23664   9.092   2.313   1.238  0.2119 -0.1266  0.0137
  172MOL0     C23665   9.175   2.380   1.328  0.2186  0.0199  0.2011
  172MOL0     C23666   9.131   2.518   1.371  0.1970 -0.1652 -0.1836
  172MOL0     H23667   9.714   2.139   1.492  0.5239  0.1259 -0.9887
  172MOL0     H23668   9.940   2.184   1.568 -0.8259 -0.5683 -1.2246
  172MOL0     H23669  10.139   2.327   1.567 -1.2764  0.2135  0.6959
  172MOL0     H23670  10.106   2.274   1.735 -1.1375  0.7911  2.8244
  172MOL0     H23671  10.254   2.528   1.644 -0.9661  0.5686  0.4429
  172MOL0     H23672  10.238   2.482   1.816  2.2974  0.9479 -0.0111
  172MOL0     H23673  10.367   2.271   1.754 -3.0527  0.9401  2.9204
  172MOL0     H23674  10.396   2.367   1.602 -0.8629  1.1570  0.0692
  172MOL0     H23675  10.494   2.544   1.749  0.5467  0.1969  0.4136
  172MOL0     H23676  10.445   2.449   1.890  0.3772 -1.1280  0.5366
  172MOL0     H23677  10.650   2.372   1.661  0.4830  2.7577 -0.1945
  172MOL0     H23678  10.609   2.272   1.802 -0.6723  0.7663  1.4040
  172MOL0     H23679  10.724   2.559   1.831 -0.2680  0.6524 -1.9301
  172MOL0     H23680  10.740   2.418   1.934  0.6506 -0.1521 -1.0296
  172MOL0     H23681  10.868   2.463   1.670 -0.8699 -0.7518 -0.1644
  172MOL0     H23682  10.861   2.303   1.738 -1.9045  0.3540 -1.1944
  172MOL0     H23683  11.070   2.443   1.782  0.9531 -1.2739  2.2143
  172MOL0     H23684  10.975   2.553   1.875 -0.6633  0.5793 -3.5982
  172MOL0     H23685  10.998   2.484   2.112  1.0754  0.3926  1.4675
  172MOL0     H23686  10.992   2.206   2.333 -1.4684 -1.1007 -3.9373
  172MOL0     H23687  11.081   2.356   2.330 -0.0985  0.5133 -0.3444
  172MOL0     H23688  11.210   2.148   2.408  2.0617  2.2504  0.7604
  172MOL0     H23689  11.204   2.084   2.247 -2.2631 -0.2427 -0.0590
  172MOL0     H23690  11.368   2.249   2.168 -0.6241 -0.7515 -0.4790
  172MOL0     H23691  11.323   2.365   2.299  1.6388 -0.6925  1.9723
  172MOL0     H23692  11.543   2.259   2.311 -0.2989  2.1616  1.6555
  172MOL0     H23693  11.455   2.226   2.462  0.7153  0.9973 -0.0243
  172MOL0     H23694  11.660   2.162   2.489  1.4327 -0.6849  0.1970
  172MOL0     H23695  11.977   2.089   2.514  2.7576  1.4145  3.8607
  172MOL0     H23696  11.936   2.017   2.675 -2.1425 -1.3052  0.3922
  172MOL0     H23697  11.869   2.166   2.612  0.2632  1.0902 -2.4077
  172MOL0     H23698  12.057   1.618   2.756 -0.7417  0.4025  0.8688
  172MOL0     H23699  12.228   1.450   2.790  1.5700 -0.3235 -1.2323
  172MOL0     H23700  12.429   1.307   2.713  1.0395 -0.9802 -0.6802
  172MOL0     H23701  12.321   1.242   2.839 -1.8285 -2.0123 -0.7304
  172MOL0     H23702  12.392   1.014   2.723 -4.2240  2.2351  0.8649
  172MOL0     H23703  12.497   1.115   2.628  0.7835  1.1227  0.7701
  172MOL0     H23704  12.613   1.002   2.826  0.4699  0.0976  0.7473
  172MOL0     H23705  12.524   1.124   2.929  0.0607  0.1829 -0.9361
  172MOL0     H23706  12.649   1.289   2.827 -1.8522 -1.4628 -0.8191
  172MOL0     H23707  12.712   1.178   2.698  1.3904  1.7783 -0.7236
  172MOL0     H23708  12.857   1.063   2.836 -2.8224 -1.9864  0.9044
  172MOL0     H23709  12.885   1.233   2.873 -0.7381  1.1142  4.8380
  172MOL0     H23710  12.705   1.042   3.048  0.3099  1.3357  1.4329
  172MOL0     H23711  12.742   1.200   3.077 -0.4670  1.4173 -2.8835
  172MOL0     H23712  12.960   1.008   3.019 -0.6077  1.9851 -1.6359
  172MOL0     H23713  12.877   0.994   3.184 -2.0992  0.3579 -0.3072
  172MOL0     H23714  12.941   1.223   3.244  0.2048 -1.5564 -0.0097
  172MOL0     H23715  13.018   1.245   3.082 -0.1283 -0.7869 -1.0586
  172MOL0     H23716  12.080   1.241   2.457  5.7498  0.9345 -0.1985
  172MOL0     H23717  11.905   1.415   2.426  0.1975  1.6395  0.1308
  172MOL0     H23718  11.693   1.671   2.415  1.1825  0.0210 -2.2456
  172MOL0     H23719  11.514   1.807   2.325  2.5183 -2.5628 -0.6020
  172MOL0     H23720   9.846   2.603   1.581 -1.5681  0.1844 -0.2486
  172MOL0     H23721   9.628   2.564   1.491 -0.8959 -0.6149  1.0958
  172MOL0     H23722   9.410   2.121   1.328  0.3132  1.1191 -0.3092
  172MOL0     H23723   9.244   2.026   1.177 -1.2004  0.5369 -1.4980
  172MOL0     H23724   8.876   2.166   1.140  1.4553  4.3779  0.5379
  172MOL0     H23725   8.931   2.253   0.994 -0.0916 -0.3518 -0.9838
  172MOL0     H23726   8.813   1.991   1.003 -0.0561  0.1025 -0.6082
  172MOL0     H23727   8.959   1.977   0.918  0.7503  0.9431  0.4407
  172MOL0     H23728   8.899   2.169   0.763  1.8261 -0.8949  1.8408
  172MOL0     H23729   8.802   2.027   0.751  0.6137  0.8600 -0.0075
  172MOL0     H23730   8.716   2.287   0.901 -1.1100 -0.2459  1.7423
  172MOL0     H23731   8.627   2.137   0.910  1.6884  1.0874  2.9891
  172MOL0     H23732   8.505   2.338   0.561 -1.8950 -0.2123  1.1873
  172MOL0     H23733   8.998   2.363   1.218  0.5806  1.7141  2.5157
  172MOL0     H23734   9.022   2.525   1.378  0.3976  1.2117  3.2342
  172MOL0     H23735   9.160   2.521   1.476 -0.4721 -0.9789  0.0352
  172MOL0     H23736   9.179   2.596   1.311 -0.0736  0.3908  0.3060
  173MOL0     O23737   8.584   3.439   7.214  0.1752 -0.6416 -0.4476
  173MOL0     C23738   8.512   3.387   7.298 -0.3629 -0.4983  0.0200
  173MOL0     O23739   8.505   3.427   7.429  0.0379  0.0933  0.1782
  173MOL0     C23740   8.613   3.496   7.478 -0.3677 -1.2851  0.1989
  173MOL0     C23741   8.613   3.638   7.490 -0.1195  0.3379 -0.1694
  173MOL0     C23742   8.715   3.706   7.553 -0.0134 -0.1313  0.4007
  173MOL0     C23743   8.827   3.634   7.584 -0.1411 -1.3842 -0.0043
  173MOL0     O23744   8.946   3.683   7.647  0.1439  0.0017 -0.4532
  173MOL0     C23745   8.987   3.816   7.607 -0.5031  0.5477 -0.0897
  173MOL0     C23746   9.137   3.833   7.627  0.4695 -0.4461 -0.7114
  173MOL0     C23747   9.187   3.820   7.772  0.0566  0.3795 -0.0223
  173MOL0     C23748   9.326   3.886   7.780  0.1775 -0.2331  0.1803
  173MOL0     C23749   9.367   3.876   7.932 -0.0968 -0.4518 -0.8104
  173MOL0     C23750   9.504   3.938   7.957 -0.4259  0.7577 -0.1522
  173MOL0     C23751   9.523   3.942   8.104 -0.6729  0.2638 -0.4034
  173MOL0     C23752   9.660   3.989   8.143 -0.0517 -0.4723 -0.6670
  173MOL0     N23753   9.761   3.890   8.095 -0.2974 -0.4779 -0.6057
  173MOL0     C23754   9.898   3.907   8.085 -0.3446 -0.6975 -0.3843
  173MOL0     C23755   9.956   3.794   8.042  0.5355  0.6103  0.6718
  173MOL0     C23756  10.101   3.759   8.031 -0.4168 -0.5127 -0.2107
  173MOL0     C23757  10.176   3.731   8.164  0.8139 -0.2031 -0.6960
  173MOL0     C23758  10.323   3.702   8.141  0.2933  0.5968  0.7565
  173MOL0     C23759  10.409   3.732   8.261 -0.4975  0.3124 -0.3083
  173MOL0     O23760  10.548   3.706   8.229 -0.1036  0.1952  0.0191
  173MOL0     C23761  10.638   3.749   8.328  0.4434 -0.3157 -0.2174
  173MOL0     C23762  10.596   3.795   8.455 -0.1745  0.1486  0.2744
  173MOL0     C23763  10.703   3.807   8.553  0.4981 -0.2230  0.0194
  173MOL0     C23764  10.664   3.866   8.692  0.1302 -0.1137 -0.9126
  173MOL0     C23765  10.843   3.778   8.533  0.5832  0.3291  0.8295
  173MOL0     C23766  10.951   3.779   8.636  0.0113  0.1953 -0.1497
  173MOL0     O23767  11.062   3.710   8.599  0.1205 -0.5030  0.0304
  173MOL0     C23768  11.156   3.680   8.698  0.0727  0.2529 -0.2427
  173MOL0     C23769  11.290   3.673   8.658  0.8905  0.2700  0.0447
  173MOL0     C23770  11.380   3.652   8.756 -0.8317  0.2583 -0.4884
  173MOL0     C23771  11.354   3.643   8.888  0.5767 -0.1297  0.8920
  173MOL0     O23772  11.470   3.625   8.967  0.2483 -0.1516 -0.1694
  173MOL0     C23773  11.444   3.585   9.099 -0.3527 -0.2005 -0.7050
  173MOL0     C23774  11.585   3.551   9.167  0.8247 -0.8597 -0.6591
  173MOL0     C23775  11.670   3.672   9.191  0.7889 -0.4206 -0.4143
  173MOL0     C23776  11.800   3.632   9.248 -0.1914 -0.2804 -0.1039
  173MOL0     C23777  11.895   3.742   9.269 -0.7994 -0.6170 -0.1517
  173MOL0     C23778  12.015   3.697   9.358  0.2173  0.0376 -0.4024
  173MOL0     C23779  12.114   3.810   9.361 -0.4353 -0.1443 -0.7946
  173MOL0     C23780  12.244   3.788   9.449  0.0487  0.0431 -0.6323
  173MOL0    Cl23781  12.228   3.763   9.623  0.1225  0.3994 -0.4935
  173MOL0     C23782  11.214   3.650   8.927 -0.0168 -0.0862 -0.0939
  173MOL0     C23783  11.118   3.671   8.836  0.1336 -0.6301  0.2877
  173MOL0     O23784  10.940   3.867   8.726  0.2439  0.3078 -0.1366
  173MOL0     C23785  10.878   3.745   8.402 -0.4191 -0.3270 -0.0015
  173MOL0     C23786  10.775   3.734   8.309  0.1747  0.7111 -0.2207
  173MOL0     N23787   9.853   3.697   8.034 -0.0146  0.8602 -0.0892
  173MOL0     N23788   9.747   3.758   8.062  1.0248 -0.3782  0.5182
  173MOL0     C23789   8.833   3.499   7.561 -0.0079 -0.6260  0.0616
  173MOL0     C23790   8.727   3.423   7.510  0.7455 -0.9656 -0.0944
  173MOL0     C23791   8.435   3.268   7.263 -1.1264  0.6853  0.0941
  173MOL0     C23792   8.295   3.271   7.270  0.2252  0.2780 -0.2307
  173MOL0     C23793   8.217   3.159   7.255  0.3952  0.2170 -0.5512
  173MOL0     C23794   8.271   3.031   7.222 -0.2968  0.0694  0.1273
  173MOL0     O23795   8.198   2.919   7.191 -0.5575  0.0246  0.0718
  173MOL0     C23796   8.068   2.930   7.149 -0.6539 -0.1162 -0.5109
  173MOL0     C23797   8.024   2.789   7.122  0.6839 -0.3329  0.0819
  173MOL0     C23798   7.879   2.785   7.050  0.8913  0.0764 -0.2954
  173MOL0     C23799   7.863   2.663   6.960 -0.1383 -0.3629 -0.7777
  173MOL0     C23800   7.723   2.627   6.936  0.1995 -0.7250  0.8689
  173MOL0     C23801   7.609   2.598   6.912 -0.1728  0.3726  0.2011
  173MOL0     C23802   8.409   3.024   7.224 -0.2731  0.1432  0.3262
  173MOL0     C23803   8.498   3.139   7.248  0.4341  0.3801 -0.5877
  173MOL0     C23804   8.646   3.124   7.248 -0.2845 -0.3526  0.3861
  173MOL0     H23805   8.524   3.692   7.459  0.4846  0.2554 -2.1797
  173MOL0     H23806   8.709   3.811   7.579 -2.0995 -0.1490  0.1387
  173MOL0     H23807   8.921   3.890   7.653  1.6853  1.9156  1.0855
  173MOL0     H23808   8.971   3.826   7.500 -0.7318 -0.3683 -0.1524
  173MOL0     H23809   9.177   3.751   7.567 -1.3422 -0.3549 -2.1044
  173MOL0     H23810   9.161   3.925   7.573 -4.0299  0.3317 -1.7386
  173MOL0     H23811   9.131   3.878   7.846  1.2718  1.8942 -0.2337
  173MOL0     H23812   9.186   3.718   7.811 -0.9590 -0.3624 -1.8447
  173MOL0     H23813   9.393   3.836   7.709 -0.1234 -0.4098  0.0224
  173MOL0     H23814   9.323   3.990   7.748  1.4911  0.8810  3.2987
  173MOL0     H23815   9.371   3.771   7.965 -1.7503 -0.1521  0.4952
  173MOL0     H23816   9.287   3.931   7.983  1.7638  1.0445  0.6571
  173MOL0     H23817   9.583   3.880   7.909 -2.3991 -2.4262  0.2108
  173MOL0     H23818   9.502   4.035   7.906 -2.9681 -0.0159 -1.6815
  173MOL0     H23819   9.519   3.837   8.135 -0.6554  0.2103 -0.5805
  173MOL0     H23820   9.451   4.000   8.161  0.6046  3.6353 -1.9548
  173MOL0     H23821   9.677   4.086   8.096 -0.2050 -1.4708 -2.9388
  173MOL0     H23822   9.679   4.004   8.249 -1.1223 -2.2750 -0.1822
  173MOL0     H23823   9.943   4.003   8.108 -1.1530 -0.5475  0.5922
  173MOL0     H23824  10.156   3.835   7.974  1.8173 -2.1090 -0.3300
  173MOL0     H23825  10.115   3.672   7.965  0.3439  0.3012 -1.1652
  173MOL0     H23826  10.165   3.811   8.237  0.1279 -2.1298  1.4364
  173MOL0     H23827  10.138   3.636   8.205  3.6508 -1.8718 -1.6657
  173MOL0     H23828  10.345   3.601   8.105  3.3062  0.8646  1.5574
  173MOL0     H23829  10.357   3.774   8.066 -1.9773  1.5062  0.5268
  173MOL0     H23830  10.388   3.832   8.298  1.6107  0.6406  0.0971
  173MOL0     H23831  10.389   3.669   8.348 -1.9866 -1.8909 -2.1040
  173MOL0     H23832  10.494   3.817   8.487 -0.1926  0.8015 -0.1952
  173MOL0     H23833  10.690   3.793   8.769 -1.2550  0.5239  0.2086
  173MOL0     H23834  10.556   3.874   8.711 -0.0330 -1.9256 -0.9134
  173MOL0     H23835  10.708   3.962   8.719  1.2818 -0.8695  0.0246
  173MOL0     H23836  11.313   3.672   8.552 -4.3816  1.3111 -1.4025
  173MOL0     H23837  11.482   3.656   8.717 -1.9567  1.9472 -3.6146
  173MOL0     H23838  11.394   3.663   9.157 -1.8821 -1.3963 -0.3682
  173MOL0     H23839  11.385   3.494   9.109  2.2106 -1.7978  1.4202
  173MOL0     H23840  11.570   3.510   9.267 -0.3140  1.0966  0.0140
  173MOL0     H23841  11.643   3.485   9.102  2.8441  0.2277 -0.0395
  173MOL0     H23842  11.625   3.753   9.249  2.7415 -0.0073  0.6041
  173MOL0     H23843  11.689   3.712   9.091 -0.5613  0.0656 -0.4914
  173MOL0     H23844  11.849   3.564   9.178  2.8996  0.1700  1.4329
  173MOL0     H23845  11.791   3.586   9.347 -1.3527  1.9394  0.9081
  173MOL0     H23846  11.916   3.784   9.170  0.4246 -0.6294  0.0869
  173MOL0     H23847  11.828   3.810   9.324  0.2013  0.6761 -0.4879
  173MOL0     H23848  12.060   3.607   9.314 -0.0405  0.1256 -0.8437
  173MOL0     H23849  11.969   3.679   9.456 -0.8343 -2.2652 -1.2605
  173MOL0     H23850  12.076   3.907   9.394  2.1544  0.6351  0.1332
  173MOL0     H23851  12.149   3.817   9.257 -1.2987 -0.4437 -1.1114
  173MOL0     H23852  12.314   3.866   9.418 -1.1170  0.6169 -1.9178
  173MOL0     H23853  12.289   3.695   9.413  2.4382  1.4390 -1.5075
  173MOL0     H23854  11.195   3.649   9.033 -1.7140 -0.9162 -0.3774
  173MOL0     H23855  11.014   3.677   8.864  0.3874 -0.5326  1.2632
  173MOL0     H23856  10.983   3.736   8.378 -0.6686 -2.1447 -0.5244
  173MOL0     H23857  10.799   3.700   8.209 -2.4686 -0.7343 -0.4492
  173MOL0     H23858   8.930   3.455   7.582 -0.8656 -1.8731  1.6165
  173MOL0     H23859   8.738   3.315   7.504  2.4195 -0.7837 -0.7203
  173MOL0     H23860   8.255   3.369   7.293  3.0934  1.4842  0.0594
  173MOL0     H23861   8.110   3.177   7.260 -0.2091 -3.1618  1.5742
  173MOL0     H23862   8.013   2.993   7.219  1.7956 -0.3067  1.7322
  173MOL0     H23863   8.059   2.987   7.056  1.0551 -0.7658 -1.1138
  173MOL0     H23864   8.020   2.724   7.210 -2.4700  0.5933  0.7414
  173MOL0     H23865   8.097   2.754   7.049  0.7600 -0.0976  0.0447
  173MOL0     H23866   7.802   2.786   7.128  2.8801  0.2155  1.8121
  173MOL0     H23867   7.871   2.875   6.988 -0.6461  1.8225  2.2359
  173MOL0     H23868   7.923   2.586   7.007 -1.4530 -0.5700  0.6534
  173MOL0     H23869   7.918   2.680   6.867  1.3606 -0.6251  0.0400
  173MOL0     H23870   7.507   2.580   6.883  0.7931 -3.9426 -1.3623
  173MOL0     H23871   8.461   2.935   7.187  0.6615  0.0612  1.7875
  173MOL0     H23872   8.698   3.137   7.344 -0.5535  1.1555  0.3626
  173MOL0     H23873   8.677   3.032   7.199  0.6639 -0.1919  0.6605
  173MOL0     H23874   8.694   3.204   7.189  2.7785 -1.6199  0.9437
  174MOL0     O23875   8.683   0.376   3.665 -0.5366 -0.8020  0.0269
  174MOL0     C23876   8.582   0.311   3.627 -0.1747  0.0639  0.0761
  174MOL0     O23877   8.554   0.272   3.495 -0.3089 -0.1586  0.2549
  174MOL0     C23878   8.638   0.314   3.394 -0.6507  0.2532  0.1841
  174MOL0     C23879   8.699   0.221   3.309 -0.5002  0.2597 -0.0217
  174MOL0     C23880   8.781   0.264   3.197  0.0701 -0.0691 -0.9645
  174MOL0     C23881   8.802   0.404   3.175 -0.7745  0.5738 -0.5079
  174MOL0     O23882   8.876   0.444   3.061  0.3859  0.1304 -0.0844
  174MOL0     C23883   8.839   0.568   3.000  0.7508  0.0231 -0.3408
  174MOL0     C23884   8.705   0.554   2.914 -0.6819 -1.0089 -0.7079
  174MOL0     C23885   8.585   0.626   2.984  0.0996 -0.0058 -0.0304
  174MOL0     C23886   8.459   0.630   2.907  0.1702 -0.0276  0.1439
  174MOL0     C23887   8.372   0.746   2.955 -0.4246 -0.0965  0.3037
  174MOL0     C23888   8.232   0.737   2.894  0.6307  0.1082  0.1004
  174MOL0     C23889   8.129   0.830   2.940  0.0238  0.0125 -0.5105
  174MOL0     C23890   8.162   0.974   2.919 -0.6254  1.0297  0.0030
  174MOL0     N23891   8.050   1.056   2.955 -0.0642  0.1799 -1.2524
  174MOL0     C23892   8.003   1.069   3.080 -0.2913  1.4921 -0.2646
  174MOL0     C23893   7.893   1.146   3.073  0.3519  0.0207 -0.4055
  174MOL0     C23894   7.832   1.208   3.186 -0.3207 -0.0297 -0.0391
  174MOL0     C23895   7.703   1.276   3.143 -0.8987 -0.1168  0.0818
  174MOL0     C23896   7.703   1.431   3.092 -0.3605  0.5317 -0.2149
  174MOL0     C23897   7.741   1.531   3.202  0.3107 -0.1640  0.2485
  174MOL0     O23898   7.773   1.662   3.147 -0.1180 -0.2320  0.1757
  174MOL0     C23899   7.902   1.702   3.124 -0.7977  0.1813 -0.0081
  174MOL0     C23900   7.923   1.836   3.087 -0.2980  0.2507  0.6587
  174MOL0     C23901   8.047   1.889   3.070 -0.5707 -0.1967 -0.0155
  174MOL0     C23902   8.050   2.027   3.006 -0.2756  0.1541  0.5711
  174MOL0     C23903   8.157   1.809   3.093  0.1151  0.8052 -0.2939
  174MOL0     C23904   8.296   1.854   3.069  0.8457  0.5184 -0.4012
  174MOL0     O23905   8.380   1.756   3.027 -0.5690  0.4694 -0.4940
  174MOL0     C23906   8.505   1.798   2.970  0.6218  0.2909 -0.1830
  174MOL0     C23907   8.518   1.781   2.838 -0.9028  0.0023 -0.2288
  174MOL0     C23908   8.632   1.816   2.771  0.3301  0.2267  0.4549
  174MOL0     C23909   8.745   1.871   2.833  0.7858  0.6689  0.1348
  174MOL0     O23910   8.862   1.903   2.766 -0.0960 -0.0897 -0.2833
  174MOL0     C23911   8.839   2.010   2.681 -0.4397  0.5198  0.8060
  174MOL0     C23912   8.975   2.041   2.623  0.8486  0.4226 -1.1366
  174MOL0     C23913   9.064   2.116   2.725 -0.8672  0.5047 -0.1241
  174MOL0     C23914   9.209   2.124   2.677 -0.3718  0.4792  0.3344
  174MOL0     C23915   9.304   2.182   2.787  0.0035 -0.9886 -0.8331
  174MOL0     C23916   9.439   2.216   2.732  0.4233  0.0035  0.1274
  174MOL0     C23917   9.508   2.310   2.834 -0.5395 -0.8702 -0.0834
  174MOL0     C23918   9.515   2.251   2.972 -0.7433 -0.9085  0.8596
  174MOL0    Cl23919   9.610   2.096   2.970  0.2922  0.1783  0.0337
  174MOL0     C23920   8.740   1.882   2.974  0.4054  0.4006 -0.1954
  174MOL0     C23921   8.620   1.838   3.041  0.5894  0.5755  0.2472
  174MOL0     O23922   8.329   1.967   3.098 -0.2449 -0.3782 -0.0208
  174MOL0     C23923   8.138   1.665   3.121  0.7178 -0.6363  0.3708
  174MOL0     C23924   8.011   1.614   3.131 -0.4940  0.9511  0.1850
  174MOL0     N23925   7.870   1.177   2.942 -0.1877  0.7773  0.1084
  174MOL0     N23926   7.963   1.116   2.875  0.1138 -0.7415 -0.1895
  174MOL0     C23927   8.737   0.493   3.265 -0.1148 -0.1761 -0.4292
  174MOL0     C23928   8.655   0.451   3.371 -0.0488  0.9805  0.4468
  174MOL0     C23929   8.488   0.269   3.729 -0.1978 -0.0775  0.6253
  174MOL0     C23930   8.459   0.136   3.719 -0.1455  0.4182  0.3635
  174MOL0     C23931   8.365   0.071   3.797 -0.1239 -0.1277 -0.3700
  174MOL0     C23932   8.317   0.144   3.905 -0.8950 -0.5470  0.4199
  174MOL0     O23933   8.234   0.094   4.000  0.0819  0.3221 -0.4277
  174MOL0     C23934   8.193  -0.045   4.002  0.1349 -0.0215  0.2435
  174MOL0     C23935   8.093  -0.069   3.889 -0.1912 -0.7720  0.2447
  174MOL0     C23936   7.990   0.042   3.885 -0.5629 -0.3855  0.4637
  174MOL0     C23937   7.868   0.021   3.985 -0.6208 -0.1115  0.9358
  174MOL0     C23938   7.783  -0.092   3.943 -1.0909  0.1887 -0.2636
  174MOL0     C23939   7.721  -0.196   3.910 -0.0275 -0.0297  0.4030
  174MOL0     C23940   8.344   0.284   3.924 -0.0327 -0.0482  0.8003
  174MOL0     C23941   8.438   0.346   3.833 -0.1557  0.6410  0.2184
  174MOL0     C23942   8.464   0.489   3.851  0.6096 -0.8469  0.9412
  174MOL0     H23943   8.690   0.113   3.315  1.3889  0.0165 -1.0032
  174MOL0     H23944   8.821   0.185   3.134  1.9252 -2.1028  2.4979
  174MOL0     H23945   8.926   0.577   2.934  1.6579  2.6362  1.0619
  174MOL0     H23946   8.826   0.652   3.070 -3.2165  1.4306 -2.4137
  174MOL0     H23947   8.712   0.590   2.811  0.3186 -1.4612 -0.8035
  174MOL0     H23948   8.677   0.449   2.901 -0.0289 -1.1242 -1.1653
  174MOL0     H23949   8.548   0.585   3.078 -2.0485  2.9620  0.5738
  174MOL0     H23950   8.614   0.729   3.007  2.1548 -1.0161  2.3238
  174MOL0     H23951   8.486   0.629   2.801 -0.0905 -2.0822  0.0610
  174MOL0     H23952   8.410   0.533   2.916  1.2862 -0.5184  1.2081
  174MOL0     H23953   8.428   0.835   2.925  0.2826  0.8292  3.8710
  174MOL0     H23954   8.366   0.740   3.064 -0.0718 -2.9541  0.2337
  174MOL0     H23955   8.245   0.746   2.786  0.4630  2.1469  0.2060
  174MOL0     H23956   8.189   0.637   2.901  0.2799  0.3332  1.7696
  174MOL0     H23957   8.096   0.823   3.044 -2.5804  1.3763 -1.1429
  174MOL0     H23958   8.038   0.801   2.887  0.7621 -2.3941 -0.6118
  174MOL0     H23959   8.237   1.004   2.993 -1.5330 -0.0218  1.4034
  174MOL0     H23960   8.193   0.990   2.815  0.9160 -0.9525  0.0737
  174MOL0     H23961   8.059   1.024   3.162  0.2371 -1.6369 -2.1928
  174MOL0     H23962   7.890   1.292   3.226 -0.0050  0.8555 -2.2165
  174MOL0     H23963   7.797   1.137   3.261 -1.7408  1.4360  0.7443
  174MOL0     H23964   7.648   1.208   3.077 -0.8817 -0.0209 -0.0311
  174MOL0     H23965   7.637   1.270   3.231 -0.0752  0.0649  0.7212
  174MOL0     H23966   7.766   1.450   3.005 -1.1502 -1.5676 -1.3028
  174MOL0     H23967   7.602   1.460   3.062 -0.7358 -3.3873 -3.4692
  174MOL0     H23968   7.654   1.543   3.266  0.1318  2.1430 -0.3292
  174MOL0     H23969   7.829   1.498   3.257  1.6177 -3.1272 -3.1995
  174MOL0     H23970   7.838   1.903   3.073 -1.8220 -1.3556  1.8260
  174MOL0     H23971   8.134   2.094   3.024  1.3701 -0.0531 -4.6330
  174MOL0     H23972   7.959   2.082   3.032 -0.3562  1.5799 -2.3349
  174MOL0     H23973   8.050   2.014   2.897  2.5836  4.0112 -0.0818
  174MOL0     H23974   8.437   1.741   2.777 -1.2470 -2.7066  1.8361
  174MOL0     H23975   8.632   1.791   2.665 -1.3140 -2.0664  0.9257
  174MOL0     H23976   8.767   1.969   2.610 -0.4110 -0.8056  1.5008
  174MOL0     H23977   8.796   2.099   2.729 -2.3401  1.1012 -1.7756
  174MOL0     H23978   9.019   1.948   2.586  3.9926  1.4327 -0.1936
  174MOL0     H23979   8.961   2.110   2.539 -1.5183  1.2846 -0.1334
  174MOL0     H23980   9.059   2.069   2.823 -0.0519  3.6859  1.6016
  174MOL0     H23981   9.032   2.221   2.736  2.4474  1.4069  2.7838
  174MOL0     H23982   9.223   2.177   2.582  0.3662  0.3220  0.3499
  174MOL0     H23983   9.248   2.025   2.652  1.2125  1.3907 -1.0328
  174MOL0     H23984   9.261   2.274   2.828  0.7570 -0.9123 -0.1813
  174MOL0     H23985   9.316   2.121   2.877  1.7264 -0.2234 -0.4816
  174MOL0     H23986   9.422   2.265   2.636 -2.9455  0.8188  1.0059
  174MOL0     H23987   9.493   2.124   2.709 -1.3248 -0.6619 -1.5333
  174MOL0     H23988   9.453   2.404   2.837  1.6652  0.4696  0.1971
  174MOL0     H23989   9.609   2.341   2.808 -1.2695  4.0708  1.8331
  174MOL0     H23990   9.413   2.245   3.012 -0.5169  2.5394  2.3381
  174MOL0     H23991   9.568   2.322   3.036 -0.5588 -0.7657  0.5496
  174MOL0     H23992   8.823   1.933   3.021  0.5554  4.4860 -4.2472
  174MOL0     H23993   8.620   1.837   3.150 -0.5411  1.2362  0.2695
  174MOL0     H23994   8.221   1.597   3.110  1.1113  0.0459 -1.1811
  174MOL0     H23995   7.995   1.508   3.143 -1.0129  1.2262  2.1597
  174MOL0     H23996   8.758   0.599   3.263  1.7868 -0.4623  1.1624
  174MOL0     H23997   8.620   0.511   3.453  1.0908  1.1814  0.8097
  174MOL0     H23998   8.507   0.069   3.648  3.3763  0.0543  2.7839
  174MOL0     H23999   8.350  -0.035   3.780 -1.2543 -0.4475  2.1948
  174MOL0     H24000   8.278  -0.113   3.994 -0.1753 -0.7586  2.5601
  174MOL0     H24001   8.149  -0.069   4.099  1.1521  0.8438  0.9454
  174MOL0     H24002   8.042  -0.162   3.916  1.3078 -1.5485  0.4455
  174MOL0     H24003   8.139  -0.080   3.791 -0.0154  0.0668  0.2281
  174MOL0     H24004   8.030   0.137   3.919 -1.7859 -0.0436  0.9870
  174MOL0     H24005   7.956   0.062   3.783  0.8120 -0.6064 -0.0599
  174MOL0     H24006   7.808   0.111   4.001  0.8311  0.6687  2.2624
  174MOL0     H24007   7.896   0.002   4.089 -1.4510  1.0586  1.3902
  174MOL0     H24008   7.647  -0.270   3.886 -2.6051  1.8391  2.0266
  174MOL0     H24009   8.293   0.342   4.000 -0.2112  1.8503 -0.6694
  174MOL0     H24010   8.374   0.548   3.831  1.5359 -0.0430 -1.1833
  174MOL0     H24011   8.487   0.517   3.954  0.2272  3.1093  0.1235
  174MOL0     H24012   8.546   0.520   3.785 -1.2500  0.3662 -0.9534
  175MOL0     O24013   5.598  11.148   4.198  0.0143  0.2995 -0.3554
  175MOL0     C24014   5.561  11.125   4.312 -0.6509 -0.2848 -0.8103
  175MOL0     O24015   5.631  11.164   4.425 -0.0295 -0.0587 -0.3136
  175MOL0     C24016   5.756  11.223   4.416  0.2259  0.1291 -0.0841
  175MOL0     C24017   5.869  11.159   4.365  0.6516  0.3953 -0.5055
  175MOL0     C24018   5.988  11.231   4.353  1.0084  0.6879  0.5248
  175MOL0     C24019   6.003  11.358   4.408 -0.1644 -0.7994  0.5354
  175MOL0     O24020   6.126  11.414   4.432  0.0747  0.1563 -0.5074
  175MOL0     C24021   6.233  11.318   4.431 -0.1360 -0.1033  0.2946
  175MOL0     C24022   6.364  11.385   4.486  0.2726  0.6008 -0.1962
  175MOL0     C24023   6.403  11.509   4.403  0.3182  0.1113 -0.1812
  175MOL0     C24024   6.464  11.475   4.270  0.2328  0.3914 -0.0626
  175MOL0     C24025   6.520  11.593   4.193 -0.3308 -0.3906 -0.0710
  175MOL0     C24026   6.660  11.566   4.142  0.9904  0.3803  0.0633
  175MOL0     C24027   6.715  11.660   4.044  0.6531  0.5739 -0.9268
  175MOL0     C24028   6.640  11.710   3.921 -0.0746  0.0566 -0.0803
  175MOL0     N24029   6.740  11.742   3.813  0.9181  0.4783  0.1857
  175MOL0     C24030   6.776  11.643   3.729  0.7448 -0.5457 -0.0104
  175MOL0     C24031   6.864  11.707   3.645 -0.4646 -0.0190  0.4760
  175MOL0     C24032   6.932  11.653   3.526 -0.8062 -0.1112 -0.2844
  175MOL0     C24033   7.083  11.658   3.553  0.5929 -1.0199 -0.6960
  175MOL0     C24034   7.161  11.591   3.429 -0.4576 -0.1032 -0.4509
  175MOL0     C24035   7.309  11.605   3.453 -0.2733  0.3317  0.4274
  175MOL0     O24036   7.378  11.600   3.333  0.4217 -0.0024  0.3135
  175MOL0     C24037   7.510  11.555   3.324 -0.0353 -0.2825  0.3257
  175MOL0     C24038   7.589  11.522   3.427  0.3012  0.0451 -0.1593
  175MOL0     C24039   7.715  11.476   3.420 -1.1275  0.8429  0.8466
  175MOL0     C24040   7.790  11.431   3.546  0.1192  0.5390 -0.6823
  175MOL0     C24041   7.775  11.473   3.289 -0.4418 -0.4392  0.9911
  175MOL0     C24042   7.920  11.434   3.257 -0.0420 -0.4415  0.5377
  175MOL0     O24043   7.990  11.370   3.347 -0.0135 -0.1057 -0.7606
  175MOL0     C24044   8.118  11.332   3.317  0.1770  0.3174  0.2729
  175MOL0     C24045   8.154  11.229   3.230  0.5658 -1.0912 -0.7730
  175MOL0     C24046   8.286  11.212   3.203 -0.6160 -0.4366 -0.0126
  175MOL0     C24047   8.392  11.282   3.268  0.1939  1.2471  0.0994
  175MOL0     O24048   8.526  11.264   3.252 -0.0081  0.5009 -0.1877
  175MOL0     C24049   8.567  11.157   3.170 -0.0700 -0.3752 -0.2394
  175MOL0     C24050   8.720  11.140   3.174 -0.2201 -0.7418  0.0841
  175MOL0     C24051   8.798  11.256   3.106 -1.3385 -0.7617 -0.2305
  175MOL0     C24052   8.771  11.265   2.955 -0.5088 -0.2796  0.8266
  175MOL0     C24053   8.876  11.345   2.878 -0.1709 -0.2431 -0.3034
  175MOL0     C24054   8.836  11.377   2.732  0.6218 -0.5344  0.8211
  175MOL0     C24055   8.923  11.488   2.676  0.2947 -0.0458  0.0671
  175MOL0     C24056   8.837  11.616   2.642 -0.4398  0.6692  1.0444
  175MOL0    Cl24057   8.951  11.742   2.613  0.2012  0.1972 -0.1169
  175MOL0     C24058   8.351  11.385   3.358 -0.4133  0.8547  0.6359
  175MOL0     C24059   8.214  11.412   3.379 -0.0425  0.6659 -1.0312
  175MOL0     O24060   7.964  11.478   3.151 -0.0923  0.8530  0.3089
  175MOL0     C24061   7.689  11.503   3.182  0.1375 -1.2014 -0.0335
  175MOL0     C24062   7.556  11.540   3.199 -0.9492  0.6609 -0.6148
  175MOL0     N24063   6.880  11.836   3.678 -0.2122 -0.4688 -0.1371
  175MOL0     N24064   6.805  11.857   3.791 -0.3815 -0.6740 -0.0483
  175MOL0     C24065   5.889  11.417   4.457  0.0823  0.0330 -0.4031
  175MOL0     C24066   5.764  11.353   4.463  0.7483 -0.5208 -0.0803
  175MOL0     C24067   5.437  11.057   4.339 -0.2537 -0.7118 -0.2939
  175MOL0     C24068   5.420  10.992   4.465  0.6568 -0.5574 -0.2690
  175MOL0     C24069   5.303  10.921   4.500  0.2100  0.0012  0.3755
  175MOL0     C24070   5.193  10.921   4.409 -0.3204  0.1946  0.1884
  175MOL0     O24071   5.072  10.863   4.439  0.1584 -0.0452  0.7645
  175MOL0     C24072   5.045  10.821   4.567 -0.0531 -0.9686  0.0909
  175MOL0     C24073   4.891  10.812   4.594  0.6146 -0.1406  0.1608
  175MOL0     C24074   4.823  10.952   4.594  0.0441  0.1695  0.1807
  175MOL0     C24075   4.669  10.940   4.612  0.7598 -0.3835 -0.0149
  175MOL0     C24076   4.597  11.069   4.608 -0.2039 -0.2547  0.1433
  175MOL0     C24077   4.546  11.175   4.599  0.3030  0.0753 -0.8586
  175MOL0     C24078   5.212  10.977   4.281  0.3250  0.1332 -0.5805
  175MOL0     C24079   5.333  11.033   4.242 -0.3987 -0.4633  0.1033
  175MOL0     C24080   5.347  11.072   4.091  0.2687 -0.8299 -0.8852
  175MOL0     H24081   5.861  11.055   4.334 -2.9016  0.0006  1.2692
  175MOL0     H24082   6.078  11.182   4.317  0.7275 -1.4931  2.5849
  175MOL0     H24083   6.256  11.291   4.328 -0.3102  0.8136  0.0083
  175MOL0     H24084   6.208  11.231   4.493  0.8721  0.2389  1.2012
  175MOL0     H24085   6.347  11.418   4.589  3.1640  1.2581  0.1623
  175MOL0     H24086   6.455  11.324   4.485 -0.2097 -0.2940 -3.6618
  175MOL0     H24087   6.313  11.571   4.394  0.4430  0.1219 -1.6332
  175MOL0     H24088   6.479  11.557   4.465  1.4494 -1.7933 -0.0463
  175MOL0     H24089   6.546  11.406   4.290 -1.1108 -1.0351  0.8172
  175MOL0     H24090   6.399  11.414   4.206 -0.0362 -0.9734  1.4473
  175MOL0     H24091   6.521  11.681   4.258 -3.4105  0.0495 -0.4649
  175MOL0     H24092   6.465  11.623   4.103  2.3931  2.1378 -1.0579
  175MOL0     H24093   6.727  11.555   4.228  2.1776  1.5282 -0.6958
  175MOL0     H24094   6.644  11.470   4.092 -1.4480  1.2683 -1.0191
  175MOL0     H24095   6.811  11.618   4.013  1.5640 -0.1020  2.4726
  175MOL0     H24096   6.742  11.751   4.097  0.5898 -1.7046  3.4908
  175MOL0     H24097   6.584  11.626   3.879  0.0490  0.0845 -0.3054
  175MOL0     H24098   6.573  11.796   3.935 -0.7503 -0.2682 -1.2223
  175MOL0     H24099   6.744  11.539   3.736  1.4802 -0.6650  3.0546
  175MOL0     H24100   6.905  11.707   3.434  0.2898 -1.5645 -1.5154
  175MOL0     H24101   6.906  11.548   3.511  1.3224 -0.3641 -3.0833
  175MOL0     H24102   7.116  11.762   3.553 -0.9537 -0.4971 -1.8254
  175MOL0     H24103   7.104  11.603   3.646 -1.9152  2.2952  2.1381
  175MOL0     H24104   7.121  11.490   3.421 -1.3195 -0.1115  2.6541
  175MOL0     H24105   7.147  11.650   3.338 -0.6562  0.1741 -0.2417
  175MOL0     H24106   7.331  11.706   3.488  0.5744  2.0147 -4.2072
  175MOL0     H24107   7.333  11.523   3.521 -3.3842  1.2590  2.8521
  175MOL0     H24108   7.552  11.532   3.529 -1.8065  1.7245 -1.0027
  175MOL0     H24109   7.887  11.477   3.568  0.7167 -1.2277  0.5702
  175MOL0     H24110   7.820  11.326   3.536  0.3484  0.6941 -1.7502
  175MOL0     H24111   7.727  11.436   3.635  0.6234  0.1579 -0.2989
  175MOL0     H24112   8.071  11.171   3.191 -1.1855  0.5412  0.3142
  175MOL0     H24113   8.307  11.132   3.132 -2.0477 -0.6806 -0.1847
  175MOL0     H24114   8.521  11.064   3.207 -0.9614  0.5550  1.0988
  175MOL0     H24115   8.538  11.173   3.066  2.1013  1.0260 -0.6844
  175MOL0     H24116   8.744  11.138   3.281 -2.0169 -2.0237  0.5193
  175MOL0     H24117   8.743  11.041   3.131  1.5947 -0.1215 -0.4553
  175MOL0     H24118   8.905  11.245   3.125 -1.0714 -1.1382 -1.8273
  175MOL0     H24119   8.761  11.355   3.134  1.1153  0.3511 -0.7084
  175MOL0     H24120   8.672  11.305   2.935  0.2197  2.2387  1.9121
  175MOL0     H24121   8.777  11.167   2.906  0.0120  0.1570 -0.0106
  175MOL0     H24122   8.881  11.437   2.937  0.9371 -0.1175 -0.5637
  175MOL0     H24123   8.975  11.298   2.885  0.0086  0.1811  0.0930
  175MOL0     H24124   8.730  11.398   2.712  1.3775  2.7661 -0.4015
  175MOL0     H24125   8.849  11.287   2.671  1.7001 -0.0947  0.3757
  175MOL0     H24126   8.973  11.445   2.590 -0.7571 -2.1979  0.4753
  175MOL0     H24127   9.004  11.513   2.745  0.7336  0.3618 -0.5860
  175MOL0     H24128   8.769  11.638   2.725 -0.8084  1.3830  0.5597
  175MOL0     H24129   8.786  11.599   2.547  0.2685 -0.6360  0.8714
  175MOL0     H24130   8.427  11.453   3.395 -0.0892  0.6831  0.2898
  175MOL0     H24131   8.186  11.487   3.452 -0.4909 -0.7058  0.2595
  175MOL0     H24132   7.724  11.499   3.079 -0.7297  0.2251 -0.4154
  175MOL0     H24133   7.486  11.553   3.118 -0.4652  0.3655 -1.0910
  175MOL0     H24134   5.893  11.516   4.503 -2.0054  0.1739 -0.3980
  175MOL0     H24135   5.683  11.406   4.512  1.4517  0.7451 -0.2625
  175MOL0     H24136   5.491  10.993   4.546 -0.5730  0.4421  0.8440
  175MOL0     H24137   5.306  10.885   4.602  0.8316  2.5470  1.3518
  175MOL0     H24138   5.077  10.717   4.565  3.2910 -0.1222  1.3518
  175MOL0     H24139   5.096  10.875   4.648  1.3289 -2.3770  0.2200
  175MOL0     H24140   4.861  10.756   4.683 -1.6529  1.2962  0.3916
  175MOL0     H24141   4.849  10.755   4.511  2.4473 -0.3067 -0.6911
  175MOL0     H24142   4.865  11.006   4.680  3.2178  0.5623 -1.4453
  175MOL0     H24143   4.861  11.000   4.503  2.3071 -0.9961  0.4404
  175MOL0     H24144   4.638  10.892   4.706 -2.5596  0.3486 -0.6221
  175MOL0     H24145   4.627  10.878   4.532 -0.8428  2.5564 -1.5943
  175MOL0     H24146   4.506  11.273   4.584 -3.0257 -1.3832 -2.6712
  175MOL0     H24147   5.129  10.963   4.212 -0.1217 -1.6267  0.2681
  175MOL0     H24148   5.441  11.032   4.054  0.5243 -1.8654  0.8092
  175MOL0     H24149   5.262  11.030   4.036 -0.9205 -1.5054  1.3151
  175MOL0     H24150   5.354  11.181   4.081  0.5329 -0.8054 -0.4383
  176MOL0     O24151   8.377   6.089   0.243 -1.3890  0.4158  0.6431
  176MOL0     C24152   8.339   6.007   0.166  0.7754 -0.5810 -0.0014
  176MOL0     O24153   8.411   5.930   0.079  0.1337 -0.1906 -0.1378
  176MOL0     C24154   8.545   5.934   0.097 -0.9315  0.0870  0.5479
  176MOL0     C24155   8.610   5.940   0.223  0.0784 -0.7554  0.0866
  176MOL0     C24156   8.753   5.936   0.222  0.9271  0.3920 -0.4107
  176MOL0     C24157   8.833   5.907   0.110  0.1821  1.2609  0.3146
  176MOL0     O24158   8.971   5.920   0.099  0.0019 -0.1572 -0.7095
  176MOL0     C24159   9.047   5.918   0.226 -0.3116 -0.0127  0.3319
  176MOL0     C24160   9.196   5.925   0.182 -0.1724  0.0445 -0.3168
  176MOL0     C24161   9.287   5.916   0.309  0.0985  0.1212 -0.5125
  176MOL0     C24162   9.236   6.008   0.421  0.3773  0.0388 -1.1257
  176MOL0     C24163   9.340   6.033   0.534  0.3695 -0.2815  0.3455
  176MOL0     C24164   9.387   5.904   0.603 -0.3108  0.4669 -0.3497
  176MOL0     C24165   9.518   5.897   0.674 -0.1436 -0.3221 -1.0457
  176MOL0     C24166   9.548   5.755   0.739 -0.6403 -0.3870  0.4435
  176MOL0     N24167   9.675   5.755   0.807  0.3144 -0.5071 -0.8200
  176MOL0     C24168   9.705   5.732   0.943  0.2697 -0.2912 -0.3561
  176MOL0     C24169   9.839   5.764   0.949  0.9398  0.3690 -0.4716
  176MOL0     C24170   9.930   5.753   1.069  0.8154 -0.1002  0.9320
  176MOL0     C24171  10.024   5.632   1.049 -0.2970  0.1820 -0.5065
  176MOL0     C24172  10.137   5.658   1.147  0.9675 -0.5854 -0.8806
  176MOL0     C24173  10.240   5.547   1.156  0.0877 -0.2322 -0.2111
  176MOL0     O24174  10.349   5.599   1.239  0.1623 -0.8032  0.0403
  176MOL0     C24175  10.468   5.534   1.251 -0.3645 -0.2622  0.1693
  176MOL0     C24176  10.497   5.401   1.204  0.5923 -0.6232  0.7376
  176MOL0     C24177  10.625   5.345   1.226  0.1660 -0.1010 -0.1781
  176MOL0     C24178  10.650   5.198   1.205 -0.0023 -0.4626 -0.3328
  176MOL0     C24179  10.726   5.427   1.273 -0.4179 -0.0406  0.3858
  176MOL0     C24180  10.865   5.380   1.308 -0.3452 -1.4461 -0.7747
  176MOL0     O24181  10.948   5.466   1.379  0.0638 -0.1799 -0.3300
  176MOL0     C24182  11.078   5.438   1.371 -0.2566 -0.2225 -0.5566
  176MOL0     C24183  11.133   5.336   1.453  0.7858 -0.5050 -0.9973
  176MOL0     C24184  11.272   5.316   1.453 -0.2759 -0.5187 -0.6934
  176MOL0     C24185  11.353   5.395   1.370 -0.3475 -0.0266  0.5683
  176MOL0     O24186  11.482   5.392   1.361  0.3900 -0.1154  0.0401
  176MOL0     C24187  11.556   5.272   1.390 -0.1249  0.5410  0.2375
  176MOL0     C24188  11.653   5.240   1.271  0.2363  0.0602 -0.1916
  176MOL0     C24189  11.718   5.369   1.209 -0.7336 -1.2551  0.5290
  176MOL0     C24190  11.832   5.349   1.106 -0.5268 -0.2580  0.1456
  176MOL0     C24191  11.904   5.480   1.060  0.2140 -0.6685  0.4629
  176MOL0     C24192  12.039   5.465   0.982 -0.3043  0.2542 -1.0060
  176MOL0     C24193  12.162   5.423   1.074  0.0939  0.3455  0.2824
  176MOL0     C24194  12.187   5.269   1.098 -0.6058  0.1706  0.8308
  176MOL0    Cl24195  12.329   5.260   1.209  0.2794  0.1319  0.3224
  176MOL0     C24196  11.299   5.496   1.287 -0.0735  0.8479  0.1402
  176MOL0     C24197  11.157   5.511   1.286  0.6315 -0.7648  0.0899
  176MOL0     O24198  10.913   5.280   1.244  0.3439 -0.7924 -0.7809
  176MOL0     C24199  10.696   5.558   1.315 -0.2360  0.4346 -0.0271
  176MOL0     C24200  10.572   5.608   1.308  0.4105 -0.8051  0.2284
  176MOL0     N24201   9.880   5.801   0.824  0.1091 -0.2909 -0.2422
  176MOL0     N24202   9.788   5.794   0.742  0.0987  0.2796 -0.1380
  176MOL0     C24203   8.759   5.905  -0.012 -0.2774 -0.4307 -0.8568
  176MOL0     C24204   8.624   5.926  -0.017 -0.0622  0.1311 -0.5901
  176MOL0     C24205   8.185   5.988   0.156  0.1045 -0.5093 -0.0791
  176MOL0     C24206   8.130   5.921   0.036  0.7597  0.6005 -0.4335
  176MOL0     C24207   7.999   5.923   0.002  0.8489  0.9458  0.2408
  176MOL0     C24208   7.904   5.973   0.090  0.7534  0.0358 -0.3288
  176MOL0     O24209   7.771   5.956   0.062 -0.0375 -0.2630  0.0501
  176MOL0     C24210   7.667   5.994   0.152 -0.3697  0.5455  0.7897
  176MOL0     C24211   7.540   5.918   0.105 -0.0505 -0.2392 -0.8925
  176MOL0     C24212   7.408   5.959   0.186 -0.5493 -0.3479  0.1649
  176MOL0     C24213   7.282   5.880   0.145  0.0090 -0.5299 -0.3677
  176MOL0     C24214   7.304   5.747   0.198  0.2193 -0.0318 -0.0503
  176MOL0     C24215   7.310   5.636   0.238 -0.2282  0.4868 -0.3504
  176MOL0     C24216   7.942   6.024   0.209 -0.4101 -0.7636 -0.3738
  176MOL0     C24217   8.078   6.034   0.244 -0.4714  0.5450  0.9524
  176MOL0     C24218   8.112   6.098   0.370 -0.4197 -0.2117  0.7374
  176MOL0     H24219   8.559   5.954   0.317 -0.0150 -1.4991  0.1513
  176MOL0     H24220   8.793   5.958   0.320  1.2252 -1.0818 -0.1737
  176MOL0     H24221   9.019   5.830   0.284 -0.6753  0.2113  0.4977
  176MOL0     H24222   9.017   5.996   0.296  1.0974  0.0281  0.9338
  176MOL0     H24223   9.213   5.828   0.134  2.7196  0.2415  0.1477
  176MOL0     H24224   9.229   6.009   0.121  1.6416  0.3104  0.9370
  176MOL0     H24225   9.291   5.814   0.347 -1.0256  1.0777  2.4162
  176MOL0     H24226   9.389   5.949   0.289  0.6230  0.3363  2.2242
  176MOL0     H24227   9.222   6.108   0.378 -2.4787  1.1767  1.9945
  176MOL0     H24228   9.139   5.975   0.458  0.4567  0.3213 -0.6506
  176MOL0     H24229   9.299   6.107   0.603  0.6169  1.6260 -1.4743
  176MOL0     H24230   9.420   6.096   0.492 -2.7488  2.5942 -1.7848
  176MOL0     H24231   9.313   5.881   0.680 -0.1117  0.8919 -0.0242
  176MOL0     H24232   9.381   5.823   0.530  1.5958  0.2765 -0.3652
  176MOL0     H24233   9.516   5.963   0.761 -0.6937 -3.0130  1.1449
  176MOL0     H24234   9.594   5.925   0.601  0.5939  1.0794  0.2155
  176MOL0     H24235   9.466   5.731   0.808 -0.7134  2.3119  1.4037
  176MOL0     H24236   9.558   5.682   0.659 -0.6067  2.1895 -2.0519
  176MOL0     H24237   9.638   5.698   1.020  2.7104 -1.5642  1.3284
  176MOL0     H24238   9.868   5.752   1.159  1.0762  0.2565  1.1192
  176MOL0     H24239   9.999   5.838   1.069 -0.0763  0.6551 -0.5240
  176MOL0     H24240   9.975   5.543   1.088 -0.0642  1.3406  2.7612
  176MOL0     H24241  10.062   5.626   0.947  0.7731 -2.2102 -0.0166
  176MOL0     H24242  10.192   5.748   1.119 -1.6934  0.6306 -2.5591
  176MOL0     H24243  10.101   5.672   1.249 -1.0573  0.6567 -1.6998
  176MOL0     H24244  10.188   5.461   1.198 -0.0772 -1.6258 -3.0242
  176MOL0     H24245  10.274   5.521   1.055  0.9975 -3.6316  0.8396
  176MOL0     H24246  10.422   5.337   1.160 -0.3103  0.6569  0.3669
  176MOL0     H24247  10.574   5.155   1.139  0.9923 -3.9635  0.5736
  176MOL0     H24248  10.650   5.136   1.296 -0.9820 -1.3435 -0.9012
  176MOL0     H24249  10.735   5.177   1.140  1.3104 -0.5313  1.3516
  176MOL0     H24250  11.075   5.274   1.520 -0.9588  1.3125 -0.7247
  176MOL0     H24251  11.317   5.241   1.517 -1.5686 -1.1395 -0.4900
  176MOL0     H24252  11.620   5.305   1.472  0.4652 -0.3838  0.1652
  176MOL0     H24253  11.506   5.176   1.401  2.4241 -1.2152 -1.9726
  176MOL0     H24254  11.725   5.172   1.318 -1.6227 -0.5125  2.0257
  176MOL0     H24255  11.610   5.185   1.186  3.4164  1.5276 -2.9937
  176MOL0     H24256  11.763   5.426   1.290 -0.9563 -1.2758  0.6664
  176MOL0     H24257  11.638   5.437   1.177  2.1753  2.6158  0.8015
  176MOL0     H24258  11.792   5.291   1.022  0.2504 -1.5160  0.6133
  176MOL0     H24259  11.911   5.285   1.145 -0.3172  0.6793  1.3204
  176MOL0     H24260  11.840   5.544   0.998  0.2220  1.0600  2.1505
  176MOL0     H24261  11.923   5.551   1.141 -0.4212 -0.8754  0.8034
  176MOL0     H24262  12.059   5.567   0.948  1.9336  0.4523  0.6390
  176MOL0     H24263  12.023   5.394   0.901 -1.5136 -3.1124  1.8853
  176MOL0     H24264  12.148   5.473   1.170  1.9777  0.6392  0.4518
  176MOL0     H24265  12.255   5.462   1.030  1.2020  0.6419  2.7241
  176MOL0     H24266  12.206   5.220   1.002 -0.1703 -0.6717  1.3335
  176MOL0     H24267  12.107   5.211   1.145 -0.2291 -0.6225  0.5236
  176MOL0     H24268  11.371   5.561   1.240  1.4135  1.4205  3.0193
  176MOL0     H24269  11.105   5.579   1.219  0.3469 -1.3313 -0.2768
  176MOL0     H24270  10.776   5.618   1.356  0.1262  0.5121 -0.8205
  176MOL0     H24271  10.560   5.708   1.349 -1.3347 -0.2161 -1.5454
  176MOL0     H24272   8.800   5.880  -0.109 -1.4579  1.3468 -1.8556
  176MOL0     H24273   8.574   5.942  -0.112 -0.5579  1.5650 -0.1159
  176MOL0     H24274   8.196   5.868  -0.033 -0.4414 -1.0070 -0.4039
  176MOL0     H24275   7.959   5.872  -0.085 -2.0744 -1.1222  2.5770
  176MOL0     H24276   7.679   5.950   0.252  1.9464  0.1792  0.4042
  176MOL0     H24277   7.651   6.102   0.151  0.0318  0.7185 -3.1412
  176MOL0     H24278   7.555   5.812   0.128  1.8042 -0.0876 -1.2812
  176MOL0     H24279   7.520   5.940  -0.000 -1.5025 -1.0644 -0.8223
  176MOL0     H24280   7.435   5.939   0.290  0.2777  1.8603  0.4209
  176MOL0     H24281   7.397   6.067   0.187  2.7352  0.2112 -2.7659
  176MOL0     H24282   7.266   5.867   0.037 -1.8752 -2.7351  0.1066
  176MOL0     H24283   7.193   5.922   0.192 -0.1957  0.7207 -1.7918
  176MOL0     H24284   7.282   5.534   0.259 -1.8671  0.4300 -2.4479
  176MOL0     H24285   7.875   6.060   0.287  1.6103 -1.6288  1.8770
  176MOL0     H24286   8.022   6.103   0.432 -1.9152  0.8173 -1.4118
  176MOL0     H24287   8.187   6.040   0.425 -0.5706  0.3193  1.5173
  176MOL0     H24288   8.155   6.197   0.349  0.2985 -0.0748  2.6470
  177MOL0     O24289   9.500   4.831   3.121 -0.0507 -0.8542  0.2677
  177MOL0     C24290   9.435   4.764   3.043  1.2899 -0.3356 -0.2854
  177MOL0     O24291   9.388   4.634   3.078 -0.2606 -1.0234  0.7692
  177MOL0     C24292   9.386   4.580   3.200 -0.1484  0.3783 -0.0213
  177MOL0     C24293   9.270   4.513   3.246  0.0613  0.8706  0.6963
  177MOL0     C24294   9.262   4.462   3.374 -0.3811  1.3043 -0.2168
  177MOL0     C24295   9.363   4.490   3.480 -0.8933 -0.1422  0.2399
  177MOL0     O24296   9.332   4.456   3.608  0.2887 -0.9062 -0.2244
  177MOL0     C24297   9.425   4.490   3.717  0.0421 -0.3653  0.6611
  177MOL0     C24298   9.359   4.475   3.845  0.8700 -0.1684  0.1227
  177MOL0     C24299   9.221   4.544   3.866 -0.1998  0.3045  0.0325
  177MOL0     C24300   9.183   4.559   4.012  0.2641  0.0304 -0.2878
  177MOL0     C24301   9.038   4.605   4.013  0.0162  0.2992 -0.4763
  177MOL0     C24302   9.004   4.745   3.945  0.0714  0.5174 -0.3530
  177MOL0     C24303   8.882   4.808   4.010  0.0531 -0.3747  0.1018
  177MOL0     C24304   8.817   4.930   3.932 -0.1843  0.2424 -0.2704
  177MOL0     N24305   8.902   5.047   3.926 -0.0425  0.4109  0.6849
  177MOL0     C24306   8.994   5.067   3.835  0.0421  0.2933  0.1514
  177MOL0     C24307   9.036   5.195   3.833 -0.1235  0.0791  0.1583
  177MOL0     C24308   9.126   5.261   3.730 -1.1228 -0.6686 -0.7860
  177MOL0     C24309   9.269   5.285   3.796  0.3490  0.3184 -0.3231
  177MOL0     C24310   9.377   5.360   3.722 -0.4630 -0.1101  0.3425
  177MOL0     C24311   9.386   5.297   3.575 -0.3360 -0.8839 -0.7796
  177MOL0     O24312   9.504   5.350   3.498  0.3901  0.1070 -0.1708
  177MOL0     C24313   9.623   5.310   3.530  0.1852  0.5250 -0.0184
  177MOL0     C24314   9.726   5.365   3.451  0.2339  0.8523  0.1913
  177MOL0     C24315   9.864   5.336   3.469  0.1003  0.0274  0.0009
  177MOL0     C24316   9.960   5.402   3.373 -0.7589 -0.7343  0.3245
  177MOL0     C24317   9.905   5.256   3.580 -0.2774  0.3756  0.1492
  177MOL0     C24318  10.045   5.212   3.609  0.1821  0.3190 -0.3117
  177MOL0     O24319  10.072   5.155   3.732  0.5996 -0.5242 -0.3013
  177MOL0     C24320  10.202   5.121   3.769  0.6684 -0.2199 -0.1422
  177MOL0     C24321  10.307   5.213   3.745  0.3692  0.1200 -0.6169
  177MOL0     C24322  10.436   5.185   3.788  0.1589  0.6595  0.1184
  177MOL0     C24323  10.462   5.053   3.842 -0.2908  0.7809 -0.2732
  177MOL0     O24324  10.588   5.001   3.873 -0.6612  0.3060  0.6363
  177MOL0     C24325  10.691   5.088   3.896  0.0733  0.0897 -0.1196
  177MOL0     C24326  10.815   5.001   3.895  0.3030  0.2915 -1.0842
  177MOL0     C24327  10.843   4.906   4.014  0.3953 -0.1480 -0.3287
  177MOL0     C24328  10.984   4.853   4.020  0.0807 -0.0786  0.0917
  177MOL0     C24329  11.015   4.772   4.149 -0.8577 -0.3305  1.3031
  177MOL0     C24330  11.152   4.705   4.141 -0.6208 -1.1498  0.1421
  177MOL0     C24331  11.181   4.613   4.260  0.3107 -0.3475  0.0231
  177MOL0     C24332  11.177   4.676   4.397 -0.0719  0.0035  1.0299
  177MOL0    Cl24333  11.273   4.828   4.415 -0.1135 -0.3844  0.3420
  177MOL0     C24334  10.366   4.959   3.852  1.0504  0.4131 -0.0456
  177MOL0     C24335  10.232   4.996   3.823 -0.0876 -0.0417 -0.2000
  177MOL0     O24336  10.127   5.217   3.516  0.4465  0.1202  0.2788
  177MOL0     C24337   9.803   5.211   3.668 -0.5117 -0.2294  0.0943
  177MOL0     C24338   9.670   5.235   3.642 -0.3098  0.1456  0.4234
  177MOL0     N24339   8.976   5.257   3.941 -0.0584  0.6057  0.0248
  177MOL0     N24340   8.898   5.166   3.995  0.7199 -0.1917 -1.2346
  177MOL0     C24341   9.480   4.555   3.432 -0.2172  0.2447  0.5199
  177MOL0     C24342   9.494   4.596   3.296 -0.1006  0.2420 -0.8815
  177MOL0     C24343   9.416   4.823   2.901 -1.0896  0.0578  0.0799
  177MOL0     C24344   9.401   4.732   2.799 -0.5920 -0.3231  0.1768
  177MOL0     C24345   9.380   4.771   2.669 -0.2994 -0.3274 -0.3558
  177MOL0     C24346   9.392   4.902   2.633 -0.1186 -0.1012 -0.3481
  177MOL0     O24347   9.393   4.943   2.501 -0.0796 -0.2211  0.5529
  177MOL0     C24348   9.329   4.864   2.401 -0.7768  0.4881 -0.0497
  177MOL0     C24349   9.342   4.925   2.260  0.0039  0.9684 -0.8090
  177MOL0     C24350   9.269   5.053   2.259  0.6548 -1.2851 -0.1673
  177MOL0     C24351   9.237   5.087   2.114 -0.2553  0.1841 -0.3251
  177MOL0     C24352   9.144   5.195   2.097 -0.6135 -0.8159 -0.3229
  177MOL0     C24353   9.058   5.284   2.091 -0.4918 -0.4652 -0.4178
  177MOL0     C24354   9.412   4.998   2.733 -0.5211 -0.0925  0.2666
  177MOL0     C24355   9.421   4.959   2.868 -0.7473 -0.6208 -0.0787
  177MOL0     C24356   9.431   5.075   2.967 -0.1177  0.0812 -0.1172
  177MOL0     H24357   9.184   4.496   3.182  2.4360 -0.3806 -2.4018
  177MOL0     H24358   9.176   4.401   3.397  0.1572  1.1705  1.5444
  177MOL0     H24359   9.455   4.594   3.702 -4.4734  1.2473  1.0677
  177MOL0     H24360   9.506   4.417   3.710 -0.7883 -1.7045  3.3752
  177MOL0     H24361   9.333   4.370   3.863 -0.5824  0.0051 -0.7894
  177MOL0     H24362   9.431   4.494   3.925 -0.2062 -0.3896  1.1913
  177MOL0     H24363   9.222   4.647   3.830 -1.6318  0.4833  0.4472
  177MOL0     H24364   9.139   4.509   3.802  0.4087  0.3204 -0.7666
  177MOL0     H24365   9.195   4.460   4.059  2.5101  0.1136 -0.5743
  177MOL0     H24366   9.254   4.622   4.067 -0.6874  0.0165  1.0134
  177MOL0     H24367   9.016   4.618   4.119  0.8005  1.7248 -0.4559
  177MOL0     H24368   8.981   4.519   3.979  0.8119  0.0981 -1.3475
  177MOL0     H24369   9.094   4.806   3.956  0.0931  1.0862 -2.9649
  177MOL0     H24370   9.001   4.737   3.836 -1.7998 -0.1361 -0.2903
  177MOL0     H24371   8.894   4.828   4.117 -0.5866  2.1966 -0.2506
  177MOL0     H24372   8.806   4.731   4.003  1.8278 -2.2627  0.5119
  177MOL0     H24373   8.799   4.893   3.831 -0.0545  2.0205 -0.9714
  177MOL0     H24374   8.727   4.964   3.984  0.6663 -1.0645  2.2368
  177MOL0     H24375   9.009   4.993   3.757  0.1450 -1.6706  1.9559
  177MOL0     H24376   9.088   5.359   3.698  3.7106  1.6930 -0.2140
  177MOL0     H24377   9.118   5.199   3.640 -2.5345  1.3700 -2.1548
  177MOL0     H24378   9.257   5.339   3.891 -0.9734  0.4360 -0.5247
  177MOL0     H24379   9.311   5.185   3.808 -0.2670 -0.1491 -1.7479
  177MOL0     H24380   9.348   5.465   3.722  0.6912  0.2419 -1.0155
  177MOL0     H24381   9.465   5.345   3.785 -2.4528 -1.1604  3.0669
  177MOL0     H24382   9.379   5.188   3.585  0.3746 -1.0345 -1.7318
  177MOL0     H24383   9.296   5.328   3.520 -0.0958 -0.2642 -0.8282
  177MOL0     H24384   9.702   5.425   3.364 -0.9090 -0.0620 -0.1477
  177MOL0     H24385  10.008   5.487   3.421  2.1268  1.5944 -5.6984
  177MOL0     H24386   9.907   5.453   3.292  1.3898  3.7245  1.4497
  177MOL0     H24387  10.039   5.340   3.330  1.5836  1.7819  0.7534
  177MOL0     H24388  10.283   5.308   3.699  0.6295  1.3192  1.5951
  177MOL0     H24389  10.521   5.245   3.757  0.0076  0.6607 -0.3038
  177MOL0     H24390  10.711   5.158   3.814  0.6313 -0.4408 -0.4456
  177MOL0     H24391  10.686   5.153   3.984  0.8158  0.2371 -0.1786
  177MOL0     H24392  10.813   4.944   3.801 -4.8400 -0.9568 -0.5052
  177MOL0     H24393  10.902   5.067   3.888  1.8088 -1.4696  0.2457
  177MOL0     H24394  10.779   4.817   4.011 -2.0274  1.5195 -0.9653
  177MOL0     H24395  10.821   4.955   4.109  0.2206  1.3215 -1.0971
  177MOL0     H24396  11.056   4.935   4.007 -0.3871  0.0968 -1.6876
  177MOL0     H24397  10.995   4.791   3.931  3.4806  1.1819 -0.5117
  177MOL0     H24398  11.010   4.837   4.237 -2.6238 -0.2829  1.1918
  177MOL0     H24399  10.944   4.690   4.158 -1.1268 -0.2311  0.2413
  177MOL0     H24400  11.235   4.771   4.115 -0.1719 -2.4486 -1.9547
  177MOL0     H24401  11.158   4.645   4.050 -0.2367  1.9915 -2.0809
  177MOL0     H24402  11.277   4.562   4.249 -0.7712 -2.7702  0.8440
  177MOL0     H24403  11.103   4.535   4.256  0.4716 -0.7314  2.5472
  177MOL0     H24404  11.209   4.594   4.462  1.6006 -0.1284  0.0935
  177MOL0     H24405  11.073   4.701   4.419 -0.4997 -0.4480 -0.4000
  177MOL0     H24406  10.394   4.859   3.881 -0.1366  0.2555  0.6383
  177MOL0     H24407  10.146   4.931   3.834 -0.0945  0.1774  1.1799
  177MOL0     H24408   9.835   5.158   3.758  0.7290 -0.9196 -0.7258
  177MOL0     H24409   9.608   5.198   3.723 -1.2538 -2.2462 -1.2693
  177MOL0     H24410   9.566   4.565   3.497  0.3025 -0.9607  0.0468
  177MOL0     H24411   9.586   4.647   3.271  1.4782 -1.4973  0.9705
  177MOL0     H24412   9.412   4.624   2.808 -0.0943 -0.3187 -0.3034
  177MOL0     H24413   9.375   4.691   2.596 -1.0321 -0.3314 -0.3147
  177MOL0     H24414   9.381   4.768   2.391 -1.9793 -0.2322  0.3092
  177MOL0     H24415   9.223   4.848   2.426 -1.4109  1.0098 -2.1777
  177MOL0     H24416   9.311   4.851   2.186  0.9850  0.0200 -0.2962
  177MOL0     H24417   9.449   4.927   2.237  0.4962 -0.3779  1.1176
  177MOL0     H24418   9.168   5.040   2.299  0.4872 -0.0854 -0.1544
  177MOL0     H24419   9.324   5.129   2.316  0.0048 -1.1740  0.3228
  177MOL0     H24420   9.194   4.993   2.078 -1.2516  1.3059 -2.2513
  177MOL0     H24421   9.320   5.108   2.047 -0.7331  0.7281 -0.7553
  177MOL0     H24422   8.970   5.343   2.109 -0.2875 -0.2630 -0.0787
  177MOL0     H24423   9.418   5.103   2.704 -1.5778  0.1663  0.9538
  177MOL0     H24424   9.424   5.174   2.922  1.4480 -0.5512 -1.8528
  177MOL0     H24425   9.346   5.062   3.034  0.4075  0.7684  0.7176
  177MOL0     H24426   9.526   5.086   3.022  0.0117 -0.2944 -0.2654
  178MOL0     O24427   9.838   1.119   1.333  0.9110 -0.5725  0.5128
  178MOL0     C24428   9.869   1.003   1.314  0.0715 -1.0769 -0.0329
  178MOL0     O24429  10.003   0.965   1.307 -0.2546  0.3952  0.4508
  178MOL0     C24430  10.103   1.045   1.354  0.0738  0.2937  0.4438
  178MOL0     C24431  10.148   1.028   1.487  0.0295  0.3414 -0.2865
  178MOL0     C24432  10.246   1.117   1.540 -1.0118 -0.4350  0.3196
  178MOL0     C24433  10.302   1.210   1.453  0.3789 -0.8023  0.9424
  178MOL0     O24434  10.396   1.300   1.497 -0.3455  0.2053 -0.0174
  178MOL0     C24435  10.510   1.237   1.564  0.2140  0.3801  0.3224
  178MOL0     C24436  10.618   1.339   1.590 -1.3177 -0.0300 -0.4071
  178MOL0     C24437  10.745   1.264   1.625 -0.7324  0.5497  1.0045
  178MOL0     C24438  10.857   1.361   1.677 -0.2544 -0.4861 -0.0998
  178MOL0     C24439  10.993   1.293   1.687  0.7349 -0.0185 -0.5609
  178MOL0     C24440  11.100   1.398   1.721 -0.1285  0.5882  0.0983
  178MOL0     C24441  11.238   1.331   1.730  0.1663  0.8622 -0.6844
  178MOL0     C24442  11.344   1.424   1.779 -0.4439 -0.3689 -0.2466
  178MOL0     N24443  11.464   1.351   1.816 -0.2426  0.5733 -0.8712
  178MOL0     C24444  11.560   1.318   1.723 -0.0456  0.4818  0.5673
  178MOL0     C24445  11.639   1.242   1.803  0.0466 -0.5376  1.2767
  178MOL0     C24446  11.761   1.162   1.750  0.4196  0.0969  0.0322
  178MOL0     C24447  11.892   1.198   1.803  0.2617 -0.2832  0.5940
  178MOL0     C24448  11.914   1.352   1.777 -0.3066  0.5370 -0.2663
  178MOL0     C24449  12.061   1.383   1.781  0.4366  0.2960 -0.1886
  178MOL0     O24450  12.072   1.517   1.752 -0.9528  0.2007 -0.3958
  178MOL0     C24451  12.191   1.580   1.779 -0.0861  1.3013 -0.6712
  178MOL0     C24452  12.317   1.512   1.801 -0.3583  0.1656  0.7744
  178MOL0     C24453  12.429   1.584   1.837 -0.2401  0.6546  0.0779
  178MOL0     C24454  12.558   1.509   1.866  0.3071  0.5118  0.2230
  178MOL0     C24455  12.425   1.727   1.846  0.0491  0.5423 -0.2226
  178MOL0     C24456  12.543   1.813   1.864  0.6533 -0.1165  0.6210
  178MOL0     O24457  12.652   1.776   1.799  0.6701 -0.4112  0.1592
  178MOL0     C24458  12.775   1.788   1.852 -0.2537 -0.2828  0.4240
  178MOL0     C24459  12.887   1.757   1.772 -0.0452  0.2984 -0.3084
  178MOL0     C24460  13.017   1.762   1.816 -0.1728  0.7881 -1.0326
  178MOL0     C24461  13.039   1.785   1.952 -0.7357  0.3590 -0.8624
  178MOL0     O24462  13.163   1.793   2.006  0.3783  0.6367  0.1008
  178MOL0     C24463  13.273   1.834   1.923 -0.6066  1.0874  0.3045
  178MOL0     C24464  13.399   1.775   1.984  0.5000  0.3120 -0.0850
  178MOL0     C24465  13.446   1.871   2.086 -0.6688 -0.2144  0.5651
  178MOL0     C24466  13.563   1.823   2.174 -0.3861  0.1653  0.1114
  178MOL0     C24467  13.652   1.941   2.229  0.4978  0.0499  0.5635
  178MOL0     C24468  13.580   2.035   2.334  0.6862 -0.5671 -0.1891
  178MOL0     C24469  13.515   1.958   2.449  0.0595 -0.3841 -0.3461
  178MOL0     C24470  13.466   2.061   2.548 -0.3656 -0.7906 -0.7812
  178MOL0    Cl24471  13.361   2.190   2.478 -0.0791  0.0139  0.5333
  178MOL0     C24472  12.931   1.809   2.034  0.8185 -0.1958  0.2987
  178MOL0     C24473  12.798   1.812   1.985 -0.4984 -0.0645  0.1341
  178MOL0     O24474  12.522   1.918   1.925 -0.0224  0.3032 -0.1567
  178MOL0     C24475  12.298   1.787   1.827  0.3054  0.3046 -0.0248
  178MOL0     C24476  12.182   1.713   1.807 -0.7158  0.0122  0.7535
  178MOL0     N24477  11.594   1.236   1.931  0.3815 -0.3621 -0.0033
  178MOL0     N24478  11.490   1.318   1.946  0.0298  0.1016  0.2015
  178MOL0     C24479  10.258   1.225   1.328  0.6038 -0.2054 -0.1108
  178MOL0     C24480  10.155   1.147   1.276 -0.3924  0.2687  0.1068
  178MOL0     C24481   9.763   0.902   1.291 -0.2347 -0.0000  0.0702
  178MOL0     C24482   9.645   0.950   1.228  0.6174 -0.2944 -0.1885
  178MOL0     C24483   9.531   0.865   1.225  0.0915  0.8019  0.0119
  178MOL0     C24484   9.535   0.739   1.281 -0.1896  0.2005  0.2857
  178MOL0     O24485   9.430   0.655   1.270 -0.2947  0.7127  0.5207
  178MOL0     C24486   9.372   0.612   1.392  0.2574  0.4593  0.4754
  178MOL0     C24487   9.268   0.716   1.430  0.5072 -0.8576  0.3170
  178MOL0     C24488   9.320   0.832   1.524 -0.9423  0.4698 -0.0125
  178MOL0     C24489   9.214   0.930   1.578  0.4900 -0.5549  0.5509
  178MOL0     C24490   9.116   0.967   1.466  0.9222 -0.2547 -0.6412
  178MOL0     C24491   9.037   0.987   1.374  0.3240  0.8427 -0.3222
  178MOL0     C24492   9.651   0.700   1.346 -0.5449  0.1187  0.2858
  178MOL0     C24493   9.759   0.776   1.356  0.0043 -0.4291  0.4213
  178MOL0     C24494   9.872   0.743   1.447  0.2081 -0.2636  0.3783
  178MOL0     H24495  10.114   0.948   1.552 -0.5046  1.2494  0.5979
  178MOL0     H24496  10.270   1.115   1.646 -1.7634  1.4207  0.5463
  178MOL0     H24497  10.548   1.158   1.499 -1.9833  0.1359 -0.7783
  178MOL0     H24498  10.470   1.198   1.658  3.7936 -0.2537  1.7143
  178MOL0     H24499  10.628   1.410   1.508 -1.9219  0.3024 -0.2013
  178MOL0     H24500  10.597   1.402   1.677 -3.0966 -3.0168  1.5473
  178MOL0     H24501  10.732   1.196   1.710 -0.9014 -2.7849 -1.5101
  178MOL0     H24502  10.786   1.199   1.547 -0.1270  0.9930  0.9472
  178MOL0     H24503  10.866   1.439   1.601  0.2159 -1.0573 -0.6346
  178MOL0     H24504  10.827   1.415   1.768 -1.2135  2.3605 -1.9620
  178MOL0     H24505  11.010   1.245   1.590 -1.0818  0.5024 -1.1778
  178MOL0     H24506  10.978   1.222   1.768 -0.7088  1.2422  0.3307
  178MOL0     H24507  11.103   1.470   1.639 -1.9685  1.3010  0.6169
  178MOL0     H24508  11.072   1.450   1.813  1.2246 -1.3936  1.6994
  178MOL0     H24509  11.272   1.305   1.630  0.2286 -2.5350  0.0904
  178MOL0     H24510  11.241   1.243   1.795 -1.8875  2.3049  1.5377
  178MOL0     H24511  11.372   1.493   1.699 -0.1709 -0.2852 -0.0789
  178MOL0     H24512  11.301   1.485   1.859  1.0403  0.2188  0.1284
  178MOL0     H24513  11.574   1.349   1.620 -0.4927  0.5346  0.5200
  178MOL0     H24514  11.775   1.178   1.643 -1.6037 -1.8281 -0.6138
  178MOL0     H24515  11.742   1.056   1.770  5.0428 -0.7355  0.9291
  178MOL0     H24516  11.884   1.181   1.911 -1.2203  1.7741  0.8657
  178MOL0     H24517  11.964   1.126   1.764  0.3577 -1.0564  2.1093
  178MOL0     H24518  11.868   1.385   1.683 -0.5381  0.0398 -0.3334
  178MOL0     H24519  11.872   1.408   1.861  1.7184 -0.5516  1.5730
  178MOL0     H24520  12.093   1.357   1.882 -0.6057 -1.8149 -0.3426
  178MOL0     H24521  12.103   1.329   1.696 -2.5491 -2.0743 -0.3287
  178MOL0     H24522  12.323   1.404   1.796  0.5039  0.2456 -0.5380
  178MOL0     H24523  12.603   1.543   1.960  2.1899  1.1527 -0.8659
  178MOL0     H24524  12.625   1.540   1.785 -0.1440 -0.4129 -0.5271
  178MOL0     H24525  12.546   1.400   1.868 -0.0539  0.5097  3.5696
  178MOL0     H24526  12.874   1.735   1.667  1.6390 -1.4798 -0.2030
  178MOL0     H24527  13.100   1.746   1.747  2.3462 -0.9840  2.1288
  178MOL0     H24528  13.271   1.796   1.820  1.5841  2.2611 -0.2371
  178MOL0     H24529  13.287   1.941   1.908  2.1005  0.5251 -2.0281
  178MOL0     H24530  13.372   1.683   2.036 -0.1433  0.3188 -0.4044
  178MOL0     H24531  13.475   1.759   1.907 -0.6336 -2.0586 -0.7890
  178MOL0     H24532  13.365   1.895   2.154 -0.4889  0.5532  0.5122
  178MOL0     H24533  13.473   1.962   2.033  0.4757  0.1103  1.6478
  178MOL0     H24534  13.633   1.767   2.111  0.2479 -1.2563  1.9632
  178MOL0     H24535  13.537   1.752   2.253  0.8688  1.3942  1.7163
  178MOL0     H24536  13.736   1.901   2.286  0.5315  0.6692  0.9678
  178MOL0     H24537  13.694   2.004   2.150  0.4569  1.0370  1.3027
  178MOL0     H24538  13.515   2.092   2.267  2.0799  0.5641 -0.6258
  178MOL0     H24539  13.653   2.108   2.372  0.8170 -0.4699 -0.6181
  178MOL0     H24540  13.585   1.881   2.482  1.4757  1.4608  1.1674
  178MOL0     H24541  13.418   1.911   2.427 -1.2671  1.0599  1.9840
  178MOL0     H24542  13.559   2.106   2.586  1.0588 -2.0759 -2.5618
  178MOL0     H24543  13.415   2.003   2.625 -2.4037  1.2358 -0.5116
  178MOL0     H24544  12.943   1.814   2.142  3.7655  0.3950  0.0500
  178MOL0     H24545  12.719   1.827   2.058 -1.0978 -3.2673  0.2563
  178MOL0     H24546  12.284   1.894   1.833 -0.4571  0.1756  0.6116
  178MOL0     H24547  12.085   1.760   1.789 -0.3328 -0.2260 -2.6782
  178MOL0     H24548  10.303   1.305   1.270 -0.7637  0.1393 -0.7239
  178MOL0     H24549  10.120   1.171   1.176  2.3093  1.6118 -0.6258
  178MOL0     H24550   9.643   1.048   1.183  0.9057 -0.7500 -1.2287
  178MOL0     H24551   9.437   0.890   1.177 -1.2780 -2.8830  0.4414
  178MOL0     H24552   9.320   0.518   1.369 -1.3090  1.5595 -0.7676
  178MOL0     H24553   9.448   0.588   1.467 -1.1526 -0.8380  1.5775
  178MOL0     H24554   9.187   0.665   1.483 -1.7094  2.7553  0.7238
  178MOL0     H24555   9.226   0.754   1.337 -1.4684 -1.1320  1.0600
  178MOL0     H24556   9.370   0.792   1.613  1.9080  3.1082 -0.2592
  178MOL0     H24557   9.387   0.904   1.477 -1.2916 -0.6432 -2.3750
  178MOL0     H24558   9.274   1.018   1.605 -1.2511  0.0667  2.6812
  178MOL0     H24559   9.155   0.887   1.660  2.1288 -2.8400  0.5987
  178MOL0     H24560   8.968   0.993   1.292  1.2622 -0.5207 -1.2771
  178MOL0     H24561   9.666   0.614   1.411  2.5440  0.8700  0.7327
  178MOL0     H24562   9.896   0.812   1.528  1.8080  1.0289 -1.1399
  178MOL0     H24563   9.851   0.652   1.505  3.4854 -1.2692  0.1783
  178MOL0     H24564   9.968   0.717   1.402  1.5215 -1.4279  3.5514
  179MOL0     O24565   7.270   9.351   8.604 -0.3253 -0.1912  0.2877
  179MOL0     C24566   7.272   9.419   8.500  0.4912 -0.6665  0.3880
  179MOL0     O24567   7.383   9.431   8.424 -1.0668 -0.0209  0.1200
  179MOL0     C24568   7.508   9.400   8.483  0.3342 -0.6496 -0.1437
  179MOL0     C24569   7.568   9.486   8.581 -0.0844 -0.4460 -1.2323
  179MOL0     C24570   7.680   9.446   8.656  0.0494  0.3320  0.3053
  179MOL0     C24571   7.757   9.335   8.613  0.6777  0.4446 -0.1753
  179MOL0     O24572   7.858   9.290   8.687 -0.2105  0.5049 -0.4068
  179MOL0     C24573   7.891   9.153   8.681  0.0858  0.2473  1.2873
  179MOL0     C24574   7.974   9.108   8.792 -0.1414 -0.0459  0.3929
  179MOL0     C24575   7.892   9.129   8.929 -1.1743  0.3840 -0.4324
  179MOL0     C24576   7.962   9.056   9.035  0.4218  0.1801  0.1497
  179MOL0     C24577   7.917   9.075   9.182 -0.4863 -0.1128  0.2385
  179MOL0     C24578   7.764   9.093   9.196  0.1093  0.2358 -0.3411
  179MOL0     C24579   7.714   9.097   9.340 -0.3127  0.5201  0.3465
  179MOL0     C24580   7.739   8.973   9.424 -1.1067  0.3652 -0.2594
  179MOL0     N24581   7.666   8.980   9.548 -0.1846  0.2082  0.0077
  179MOL0     C24582   7.694   9.059   9.661  0.4070  0.6399 -1.0120
  179MOL0     C24583   7.599   9.031   9.754 -0.2893  0.5686  0.0343
  179MOL0     C24584   7.586   9.076   9.893 -0.1629 -0.2883 -0.8047
  179MOL0     C24585   7.657   9.206   9.923 -0.9792 -0.1244 -0.5224
  179MOL0     C24586   7.654   9.243  10.074 -0.1764 -0.0612  0.4837
  179MOL0     C24587   7.513   9.220  10.137  0.0919 -0.6610  0.3633
  179MOL0     O24588   7.409   9.277  10.058 -0.7240 -0.0903  0.5411
  179MOL0     C24589   7.281   9.242  10.074 -0.0385 -0.2355 -0.5840
  179MOL0     C24590   7.230   9.140  10.153 -0.4936 -0.5442 -0.3524
  179MOL0     C24591   7.086   9.116  10.171  0.8963  0.3682  0.9233
  179MOL0     C24592   7.047   8.995  10.263  1.2354 -0.4742 -0.2808
  179MOL0     C24593   6.988   9.198  10.107 -0.9786 -1.7709 -0.0062
  179MOL0     C24594   6.838   9.193  10.119 -0.5453 -0.1128  0.4332
  179MOL0     O24595   6.766   9.289  10.061  0.2748 -0.4890  0.5412
  179MOL0     C24596   6.635   9.290  10.062  0.1086 -0.5311 -0.0384
  179MOL0     C24597   6.564   9.280  10.179 -0.0622 -0.1710  0.1831
  179MOL0     C24598   6.419   9.273  10.178  0.3782  0.1896 -0.0582
  179MOL0     C24599   6.352   9.283  10.060  1.1540 -0.1833  0.6069
  179MOL0     O24600   6.214   9.274  10.033  0.3273  0.6534 -0.4674
  179MOL0     C24601   6.119   9.232  10.137 -0.1549  0.1916  0.3192
  179MOL0     C24602   5.983   9.198  10.077 -0.4132  0.0717 -0.3224
  179MOL0     C24603   5.944   9.051  10.048 -0.5661 -0.7947 -0.0551
  179MOL0     C24604   5.797   9.028  10.044  0.4435 -0.2357  0.1846
  179MOL0     C24605   5.752   8.882  10.064  0.0062 -0.0185  0.3453
  179MOL0     C24606   5.767   8.834  10.205 -0.2485  0.1839  0.7499
  179MOL0     C24607   5.718   8.686  10.208  0.1657  0.4979 -1.0061
  179MOL0     C24608   5.729   8.624  10.347 -0.2345  0.0715  0.0856
  179MOL0    Cl24609   5.898   8.641  10.420  0.1767 -0.2742  0.5403
  179MOL0     C24610   6.423   9.293   9.942  0.1534  0.3267 -0.0031
  179MOL0     C24611   6.565   9.301   9.941 -0.3743 -0.1471 -0.4157
  179MOL0     O24612   6.790   9.097  10.186 -0.1178 -0.1932 -0.3103
  179MOL0     C24613   7.048   9.302  10.033 -0.1756 -0.1385  0.1970
  179MOL0     C24614   7.189   9.325  10.018 -0.7590  0.3345 -0.4429
  179MOL0     N24615   7.528   8.923   9.704  0.3844 -0.9761 -0.8193
  179MOL0     N24616   7.571   8.892   9.585  0.2287  0.4466 -0.0568
  179MOL0     C24617   7.709   9.261   8.504 -0.1683  0.2528  0.3840
  179MOL0     C24618   7.587   9.295   8.443  0.3217  0.1103  0.4229
  179MOL0     C24619   7.150   9.491   8.439  0.0607  0.6110  0.4901
  179MOL0     C24620   7.166   9.541   8.306  0.0472  0.7797  0.2194
  179MOL0     C24621   7.066   9.588   8.230 -0.0901  0.5906  1.0030
  179MOL0     C24622   6.935   9.580   8.287 -0.1578 -0.4526  0.2754
  179MOL0     O24623   6.822   9.617   8.224 -0.0374  0.1045 -0.0661
  179MOL0     C24624   6.810   9.584   8.084 -0.3066 -0.1940  1.3303
  179MOL0     C24625   6.790   9.704   7.997  0.4647 -1.1235 -0.0190
  179MOL0     C24626   6.731   9.675   7.858 -0.3824 -0.4202 -0.2336
  179MOL0     C24627   6.683   9.805   7.799 -0.2461  0.3826 -0.0229
  179MOL0     C24628   6.788   9.890   7.739  0.8841  0.3393  0.0525
  179MOL0     C24629   6.864   9.975   7.706 -0.4831 -0.5760  0.0500
  179MOL0     C24630   6.922   9.540   8.423 -0.0220 -0.2463  0.0021
  179MOL0     C24631   7.026   9.486   8.501  0.2015  0.5077  0.2838
  179MOL0     C24632   7.001   9.425   8.633  0.2815  0.1031 -0.3137
  179MOL0     H24633   7.518   9.579   8.608  0.9141 -0.7508  2.2141
  179MOL0     H24634   7.712   9.502   8.743  1.6142 -0.9741  0.6403
  179MOL0     H24635   7.940   9.125   8.587 -2.0601 -6.2846  1.5855
  179MOL0     H24636   7.797   9.096   8.682  0.4175 -0.2884  1.9294
  179MOL0     H24637   7.999   9.001   8.786  2.7049  0.5716 -0.6135
  179MOL0     H24638   8.069   9.162   8.785 -0.1860  0.3274  2.1659
  179MOL0     H24639   7.896   9.233   8.962 -1.6842  1.1233 -2.5387
  179MOL0     H24640   7.787   9.100   8.921 -0.5378 -1.8861 -1.2536
  179MOL0     H24641   7.961   8.951   9.004  2.5481  0.5122 -1.2048
  179MOL0     H24642   8.068   9.079   9.028  0.5772  0.0725  1.8014
  179MOL0     H24643   7.969   9.169   9.203 -0.6297  0.1402 -0.5119
  179MOL0     H24644   7.949   8.990   9.244 -0.4182 -1.4215 -1.5341
  179MOL0     H24645   7.726   9.178   9.138 -1.5304 -0.7920 -0.8217
  179MOL0     H24646   7.724   9.004   9.147  0.8330 -0.4393  0.2822
  179MOL0     H24647   7.609   9.126   9.335 -0.2905  0.4413 -1.4076
  179MOL0     H24648   7.772   9.177   9.386  1.4275  0.1097 -1.0095
  179MOL0     H24649   7.716   8.885   9.363  0.9060 -0.2404 -0.2167
  179MOL0     H24650   7.847   8.964   9.439 -0.6220 -0.1964 -3.3946
  179MOL0     H24651   7.776   9.127   9.684  0.8466 -0.8673  2.5827
  179MOL0     H24652   7.619   8.998   9.962  2.7180  0.4468 -1.2201
  179MOL0     H24653   7.478   9.075   9.905  0.0354 -1.6742  1.4920
  179MOL0     H24654   7.764   9.203   9.898 -1.0679  0.6971 -1.0257
  179MOL0     H24655   7.613   9.292   9.872  2.0842  1.1509 -1.2222
  179MOL0     H24656   7.729   9.180  10.122 -0.1635  0.0564  0.6180
  179MOL0     H24657   7.677   9.349  10.090  0.8807 -0.5100  2.2375
  179MOL0     H24658   7.503   9.113  10.154  1.8890 -0.7608  1.0552
  179MOL0     H24659   7.507   9.262  10.238 -1.5617 -1.3108  0.5558
  179MOL0     H24660   7.309   9.080  10.197  0.5445 -0.5232 -2.0926
  179MOL0     H24661   6.984   8.923  10.210 -2.1516  1.2588  1.1435
  179MOL0     H24662   6.987   9.027  10.348 -0.5568  1.0928 -2.0291
  179MOL0     H24663   7.133   8.944  10.308  0.7044 -0.3409  0.9133
  179MOL0     H24664   6.624   9.265  10.268 -0.2405 -1.4174  0.1227
  179MOL0     H24665   6.353   9.267  10.264 -1.1027 -1.9108 -1.2584
  179MOL0     H24666   6.160   9.152  10.198  1.6912  0.6651 -0.2294
  179MOL0     H24667   6.106   9.312  10.210  2.6776  2.0186 -0.9989
  179MOL0     H24668   5.907   9.221  10.153 -1.5431  1.1245 -1.7295
  179MOL0     H24669   5.963   9.249   9.983 -1.1254 -1.9553 -1.3360
  179MOL0     H24670   5.981   8.997  10.135  1.0904 -1.4430 -1.1208
  179MOL0     H24671   5.991   9.018   9.955  0.3654  0.1512  0.0651
  179MOL0     H24672   5.760   9.067   9.949  0.1386  1.4322  0.9627
  179MOL0     H24673   5.747   9.088  10.121 -0.9107 -2.0139  0.7597
  179MOL0     H24674   5.651   8.865  10.024  0.5554 -0.4209 -0.9029
  179MOL0     H24675   5.813   8.815  10.004  1.8275  1.4109  0.5143
  179MOL0     H24676   5.709   8.912  10.256  1.0341  3.8684 -2.8912
  179MOL0     H24677   5.871   8.836  10.238 -0.0940 -2.4938  0.6442
  179MOL0     H24678   5.778   8.625  10.140 -0.7491 -2.2525  0.4877
  179MOL0     H24679   5.616   8.670  10.170  0.3823 -1.6692 -0.8088
  179MOL0     H24680   5.706   8.517  10.343  0.3059  0.0068 -2.6278
  179MOL0     H24681   5.665   8.665  10.426  0.1256 -1.4141  1.1867
  179MOL0     H24682   6.367   9.308   9.850  0.4752 -1.1274 -0.4509
  179MOL0     H24683   6.633   9.306   9.856  1.2236  1.6258  0.9009
  179MOL0     H24684   6.980   9.362   9.973 -1.8415 -0.8720  1.2700
  179MOL0     H24685   7.234   9.403   9.957  3.7233 -1.2759  0.3882
  179MOL0     H24686   7.766   9.178   8.463 -1.2378 -0.5700  0.5311
  179MOL0     H24687   7.558   9.227   8.364 -0.9009  0.4368  0.5661
  179MOL0     H24688   7.268   9.558   8.274 -0.1313  0.8515 -0.3250
  179MOL0     H24689   7.086   9.633   8.133  3.2177 -1.5641  0.5137
  179MOL0     H24690   6.893   9.527   8.041 -2.0446 -0.4262 -2.0201
  179MOL0     H24691   6.725   9.518   8.068  1.0611 -2.3560  2.5136
  179MOL0     H24692   6.893   9.738   7.985  0.2097 -1.2186 -3.6064
  179MOL0     H24693   6.734   9.775   8.058  3.0662  0.0941  1.1173
  179MOL0     H24694   6.813   9.634   7.799  3.2497  0.5405  3.6676
  179MOL0     H24695   6.650   9.602   7.867  0.5086 -1.7229 -2.2073
  179MOL0     H24696   6.626   9.867   7.869  0.8608  3.5930 -1.7478
  179MOL0     H24697   6.613   9.770   7.723 -2.3728  1.9997  1.0933
  179MOL0     H24698   6.934  10.055   7.690 -1.0510  0.3312  1.8164
  179MOL0     H24699   6.819   9.542   8.458 -0.2399 -0.2894 -0.6163
  179MOL0     H24700   6.896   9.445   8.658 -0.0511  1.4397 -2.4459
  179MOL0     H24701   7.032   9.321   8.640 -1.0580 -0.2911  0.1701
  179MOL0     H24702   7.070   9.480   8.697 -2.0561  0.4361  2.1133
  180MOL0     O24703  10.037   0.919   7.621 -0.9232  0.4280 -0.2067
  180MOL0     C24704   9.976   0.851   7.698 -0.5726 -0.2450 -0.2431
  180MOL0     O24705  10.034   0.777   7.802  0.1093  0.1918  0.2943
  180MOL0     C24706  10.177   0.763   7.818  0.8711 -1.0039  0.6209
  180MOL0     C24707  10.224   0.704   7.939  0.1580 -0.5355  0.1839
  180MOL0     C24708  10.366   0.677   7.965  0.2818  0.4705  0.2347
  180MOL0     C24709  10.463   0.722   7.879 -0.3716 -0.6584  0.1900
  180MOL0     O24710  10.597   0.699   7.909 -0.9323 -0.3501  0.0194
  180MOL0     C24711  10.691   0.681   7.800 -0.7667 -0.2819  0.4456
  180MOL0     C24712  10.833   0.692   7.862  1.0269 -0.2224  0.1699
  180MOL0     C24713  10.940   0.678   7.753  0.0713  0.0193  0.4950
  180MOL0     C24714  10.965   0.806   7.658  0.4866  0.5371  0.6427
  180MOL0     C24715  11.063   0.773   7.540 -1.3391 -0.3805 -0.5027
  180MOL0     C24716  11.211   0.720   7.578 -0.3766 -0.4330  0.3918
  180MOL0     C24717  11.295   0.833   7.627 -0.7763 -0.1697  0.3162
  180MOL0     C24718  11.412   0.764   7.695 -0.4444  0.3134  0.1507
  180MOL0     N24719  11.515   0.854   7.753 -0.4241 -0.0805  0.3646
  180MOL0     C24720  11.627   0.803   7.818 -0.4267 -0.3082 -0.3363
  180MOL0     C24721  11.711   0.906   7.840  0.3512 -0.2929  0.9185
  180MOL0     C24722  11.854   0.907   7.903 -0.4082 -0.0216 -0.5994
  180MOL0     C24723  11.970   0.859   7.800 -0.1072  0.5626 -0.2143
  180MOL0     C24724  11.962   0.931   7.664 -0.0295  0.7007  0.2151
  180MOL0     C24725  12.075   0.876   7.583 -0.4517 -0.3182 -0.3896
  180MOL0     O24726  12.203   0.901   7.647  0.0865  0.4945 -0.6712
  180MOL0     C24727  12.313   0.903   7.574 -0.4063  0.6228  0.3018
  180MOL0     C24728  12.422   0.976   7.625  1.0401  0.7118  0.8261
  180MOL0     C24729  12.549   0.964   7.568 -0.6604 -0.6802 -0.2490
  180MOL0     C24730  12.646   1.064   7.632 -0.4933 -0.1481  0.6214
  180MOL0     C24731  12.566   0.886   7.457  1.1672  0.5144  0.5012
  180MOL0     C24732  12.697   0.854   7.399 -0.5644 -0.5278  0.7592
  180MOL0     O24733  12.803   0.900   7.459 -0.8070 -0.0735  0.0797
  180MOL0     C24734  12.934   0.875   7.417  0.8992  0.2561 -0.3587
  180MOL0     C24735  13.008   0.975   7.359  0.4171 -0.1694 -0.0728
  180MOL0     C24736  13.141   0.953   7.312  0.1025  0.1456 -0.1806
  180MOL0     C24737  13.195   0.826   7.324 -1.1879  0.8629 -0.0218
  180MOL0     O24738  13.323   0.803   7.277 -0.8049 -0.1710 -0.7287
  180MOL0     C24739  13.363   0.666   7.256 -0.8724 -0.4181  0.0554
  180MOL0     C24740  13.500   0.665   7.200 -0.6478  0.8261 -0.0023
  180MOL0     C24741  13.618   0.726   7.288  0.1234 -0.7149  0.0071
  180MOL0     C24742  13.754   0.714   7.212  0.2511 -0.9615  0.2873
  180MOL0     C24743  13.872   0.770   7.288  0.0367 -0.9913 -0.7597
  180MOL0     C24744  14.006   0.744   7.207  0.4981  0.4510 -0.1788
  180MOL0     C24745  14.134   0.820   7.243 -1.2069 -0.0046 -0.0525
  180MOL0     C24746  14.187   0.774   7.378  0.6371 -0.4295 -0.3195
  180MOL0    Cl24747  14.103   0.856   7.513 -0.1881 -0.2728 -0.4757
  180MOL0     C24748  13.112   0.722   7.378 -0.6589  0.5677  0.2553
  180MOL0     C24749  12.987   0.752   7.427  0.1206 -0.1051 -0.6909
  180MOL0     O24750  12.704   0.784   7.299 -0.3263 -0.2113  0.2115
  180MOL0     C24751  12.453   0.809   7.406 -0.0613  0.7005  0.2020
  180MOL0     C24752  12.332   0.817   7.463  0.3765 -0.2652  0.2639
  180MOL0     N24753  11.643   1.015   7.804  0.3131  0.6577 -0.3551
  180MOL0     N24754  11.529   0.985   7.745  0.2346  0.8369 -0.4620
  180MOL0     C24755  10.418   0.786   7.761  0.0245 -0.5319 -0.2005
  180MOL0     C24756  10.281   0.809   7.734  0.0514 -0.0776  0.0015
  180MOL0     C24757   9.832   0.849   7.690 -0.4355 -0.7110  0.2034
  180MOL0     C24758   9.772   0.913   7.581  0.0268  0.2285  0.1723
  180MOL0     C24759   9.632   0.913   7.561 -0.4995 -0.0097 -0.8891
  180MOL0     C24760   9.540   0.845   7.646 -0.1688 -0.9916  0.3466
  180MOL0     O24761   9.407   0.850   7.608 -0.0559  0.5159  0.0674
  180MOL0     C24762   9.305   0.856   7.714  0.3054  0.3259 -0.1494
  180MOL0     C24763   9.246   0.713   7.736  0.4290 -0.5935  0.8735
  180MOL0     C24764   9.141   0.681   7.631  0.1306 -1.1904  0.7616
  180MOL0     C24765   8.996   0.723   7.666  0.4233 -0.0586 -0.7558
  180MOL0     C24766   8.937   0.672   7.791  0.4372 -0.3415 -0.5728
  180MOL0     C24767   8.883   0.633   7.891 -0.0609  0.1805 -0.0387
  180MOL0     C24768   9.603   0.779   7.753 -1.0719  0.7597 -0.3278
  180MOL0     C24769   9.744   0.780   7.776 -0.0231 -0.8471  0.4205
  180MOL0     C24770   9.777   0.699   7.892  0.3034  1.0470  0.0204
  180MOL0     H24771  10.151   0.689   8.018 -0.6302 -0.0971 -0.4382
  180MOL0     H24772  10.391   0.636   8.063 -1.8086 -0.4233  0.4560
  180MOL0     H24773  10.677   0.756   7.722  0.1902  0.6249  1.1242
  180MOL0     H24774  10.683   0.581   7.757  6.4708 -1.3297  0.2567
  180MOL0     H24775  10.854   0.791   7.903 -1.4411  0.3439  0.2620
  180MOL0     H24776  10.838   0.611   7.935 -1.3386 -0.0736  0.5789
  180MOL0     H24777  11.032   0.641   7.798 -0.1180  0.2547  1.0836
  180MOL0     H24778  10.919   0.593   7.687 -1.2617  0.8022 -0.1411
  180MOL0     H24779  10.873   0.837   7.608  1.6043  1.7628 -0.7410
  180MOL0     H24780  11.000   0.891   7.718  0.1617  1.3651 -0.3103
  180MOL0     H24781  11.077   0.867   7.486  1.2250 -0.7707 -0.6329
  180MOL0     H24782  11.023   0.696   7.473 -0.3203 -3.1545  1.8712
  180MOL0     H24783  11.210   0.633   7.645  0.6490 -0.9380 -0.2090
  180MOL0     H24784  11.249   0.690   7.480 -2.1712  1.9350 -1.1379
  180MOL0     H24785  11.247   0.902   7.697 -0.9938  1.7306 -1.6062
  180MOL0     H24786  11.325   0.887   7.537  0.0277 -0.6703  0.2729
  180MOL0     H24787  11.368   0.706   7.777 -0.3327 -0.1814 -0.1339
  180MOL0     H24788  11.466   0.697   7.627  1.3681 -0.2724  2.0546
  180MOL0     H24789  11.664   0.704   7.843  1.8071  0.1354 -1.5881
  180MOL0     H24790  11.862   0.844   7.993  0.4882  1.8293  0.6969
  180MOL0     H24791  11.875   1.007   7.941  0.7718 -1.5964  3.4343
  180MOL0     H24792  12.068   0.855   7.848  0.2237 -1.0310 -0.9633
  180MOL0     H24793  11.952   0.755   7.771 -1.0758  0.3908  0.9040
  180MOL0     H24794  11.871   0.916   7.605 -0.1144 -1.8505  0.8781
  180MOL0     H24795  11.980   1.036   7.688  1.0125  0.7453 -0.6790
  180MOL0     H24796  12.069   0.769   7.565  2.7030 -0.7839  0.7447
  180MOL0     H24797  12.070   0.932   7.489  4.1450 -0.4087 -0.8800
  180MOL0     H24798  12.398   1.037   7.711  1.9226 -1.0376  2.3695
  180MOL0     H24799  12.609   1.117   7.721 -2.8236  3.9999 -2.4307
  180MOL0     H24800  12.665   1.146   7.562  0.0664 -1.3281 -0.6570
  180MOL0     H24801  12.747   1.027   7.652  0.0816  0.7864 -0.4474
  180MOL0     H24802  12.958   1.070   7.340 -0.8720 -0.6320  0.8871
  180MOL0     H24803  13.188   1.044   7.276 -0.6968  0.8953  0.6191
  180MOL0     H24804  13.368   0.625   7.357  1.3409  0.0077  0.1474
  180MOL0     H24805  13.289   0.605   7.202  0.0253  0.5932 -2.4634
  180MOL0     H24806  13.543   0.568   7.175  2.2798  1.8799  0.4756
  180MOL0     H24807  13.504   0.718   7.104  1.2578  0.2600 -0.2710
  180MOL0     H24808  13.631   0.672   7.382 -0.3822  0.9229  1.0607
  180MOL0     H24809  13.597   0.833   7.300 -0.6657 -0.8429 -0.1388
  180MOL0     H24810  13.745   0.754   7.111 -0.1939 -0.0199  0.6979
  180MOL0     H24811  13.776   0.608   7.194 -0.1408 -0.7366 -1.8594
  180MOL0     H24812  13.861   0.875   7.315  1.6344 -1.5945  2.8154
  180MOL0     H24813  13.879   0.723   7.386 -1.9682 -3.7037 -1.7941
  180MOL0     H24814  13.985   0.767   7.102  2.1277 -1.7648 -1.0557
  180MOL0     H24815  14.017   0.635   7.214 -1.4151  0.2192 -0.1883
  180MOL0     H24816  14.108   0.925   7.232 -1.1546  0.0375  0.2332
  180MOL0     H24817  14.208   0.794   7.166 -1.2267 -2.8952  0.7849
  180MOL0     H24818  14.292   0.808   7.382  1.4796 -2.7391 -1.2465
  180MOL0     H24819  14.187   0.666   7.389 -0.7095 -0.3580  0.5251
  180MOL0     H24820  13.158   0.624   7.384 -2.5528 -0.7513 -3.2336
  180MOL0     H24821  12.923   0.677   7.472 -1.7403  0.8168 -1.6722
  180MOL0     H24822  12.464   0.745   7.319 -0.5986  0.5079  0.2723
  180MOL0     H24823  12.247   0.763   7.425 -1.5138  1.2738  2.0628
  180MOL0     H24824  10.486   0.820   7.683  0.4933 -1.4389 -0.2026
  180MOL0     H24825  10.261   0.861   7.640  0.2818  0.3280  0.1753
  180MOL0     H24826   9.839   0.959   7.509 -0.8699  1.4911  0.1092
  180MOL0     H24827   9.599   0.960   7.470 -1.5607 -0.2084 -0.6168
  180MOL0     H24828   9.344   0.900   7.807  1.5846  0.2263 -0.6151
  180MOL0     H24829   9.228   0.925   7.678 -0.1141 -0.4196 -0.7094
  180MOL0     H24830   9.199   0.692   7.833 -2.5204 -2.9504 -0.8889
  180MOL0     H24831   9.325   0.641   7.716  0.3842 -0.3060 -0.3864
  180MOL0     H24832   9.169   0.725   7.535  1.8359 -3.0051  0.3325
  180MOL0     H24833   9.154   0.572   7.623  4.5543 -0.9465  1.8990
  180MOL0     H24834   8.936   0.694   7.579  0.4647 -0.8229 -0.5366
  180MOL0     H24835   8.983   0.832   7.667 -0.1042  0.0375  4.0651
  180MOL0     H24836   8.831   0.587   7.972  1.0176 -0.1277  0.4981
  180MOL0     H24837   9.553   0.717   7.826  0.3694 -1.4112 -1.0593
  180MOL0     H24838   9.847   0.619   7.867 -1.3875 -0.8328  1.0775
  180MOL0     H24839   9.826   0.758   7.970  2.5507  0.5111 -0.9116
  180MOL0     H24840   9.692   0.649   7.939  0.3354  0.4425 -0.5536
  181MOL0     O24841   5.219   2.553  10.891  0.7974 -0.6207 -0.3909
  181MOL0     C24842   5.309   2.535  10.810  0.3170  0.2876 -0.5528
  181MOL0     O24843   5.306   2.451  10.703 -0.1462  0.5798 -0.2582
  181MOL0     C24844   5.190   2.375  10.672  0.6287 -0.7931  0.1737
  181MOL0     C24845   5.139   2.262  10.740  0.8402 -0.2513 -0.0220
  181MOL0     C24846   5.033   2.186  10.699 -0.5530  0.3606 -0.3274
  181MOL0     C24847   4.969   2.212  10.576 -0.4029 -0.5577  0.0375
  181MOL0     O24848   4.860   2.137  10.550 -0.0986 -0.6397 -0.3080
  181MOL0     C24849   4.762   2.162  10.448  0.7310  0.8807 -0.2071
  181MOL0     C24850   4.645   2.079  10.491 -0.0106  0.3676 -1.1935
  181MOL0     C24851   4.537   2.079  10.379  0.6083 -0.0584 -0.3786
  181MOL0     C24852   4.420   1.994  10.431  0.1130 -0.3386  0.2230
  181MOL0     C24853   4.311   1.951  10.325 -0.1399  0.0761 -0.9087
  181MOL0     C24854   4.218   1.845  10.392 -0.4464 -0.0809  0.2286
  181MOL0     C24855   4.110   1.814  10.284 -0.4360 -0.5054 -0.2903
  181MOL0     C24856   3.979   1.747  10.332 -0.3863  0.6344  0.6555
  181MOL0     N24857   3.890   1.717  10.213 -0.0909  0.1500 -0.0009
  181MOL0     C24858   3.903   1.601  10.144 -0.3860  0.5450 -0.2238
  181MOL0     C24859   3.803   1.606  10.056  0.1184 -0.5084  0.5011
  181MOL0     C24860   3.779   1.489   9.968 -1.0530  0.0859  0.6611
  181MOL0     C24861   3.634   1.441   9.974  1.0354  0.4900 -0.0958
  181MOL0     C24862   3.590   1.316   9.895 -0.4581  0.3478 -0.1352
  181MOL0     C24863   3.614   1.319   9.741  0.6617 -0.3825  0.1397
  181MOL0     O24864   3.530   1.410   9.680 -0.2317  0.4259  0.6648
  181MOL0     C24865   3.525   1.408   9.544 -0.2564  0.4595 -1.0151
  181MOL0     C24866   3.604   1.330   9.463 -0.3503  0.3230 -0.2937
  181MOL0     C24867   3.587   1.335   9.321  0.8700  0.2851  0.3150
  181MOL0     C24868   3.654   1.226   9.239 -0.4515  1.0066  0.5956
  181MOL0     C24869   3.500   1.432   9.265 -0.4929  0.2324 -0.1597
  181MOL0     C24870   3.487   1.457   9.121 -0.3013  0.2926 -0.1556
  181MOL0     O24871   3.555   1.389   9.023  0.0821 -0.2462 -0.0321
  181MOL0     C24872   3.530   1.419   8.893 -1.6174 -0.4371  0.2127
  181MOL0     C24873   3.444   1.337   8.817  0.3060  0.1197  0.2762
  181MOL0     C24874   3.410   1.347   8.678 -0.4581  1.0410 -0.8691
  181MOL0     C24875   3.464   1.460   8.620  0.0460 -0.1705 -0.5883
  181MOL0     O24876   3.445   1.482   8.486  0.0418 -0.5161 -0.1196
  181MOL0     C24877   3.495   1.386   8.394  0.6517  0.1141 -0.1613
  181MOL0     C24878   3.433   1.408   8.252 -0.3285 -0.5796 -0.1342
  181MOL0     C24879   3.490   1.532   8.178  0.1403  0.0851  0.4656
  181MOL0     C24880   3.632   1.519   8.126 -0.3463 -0.0156 -1.0251
  181MOL0     C24881   3.684   1.664   8.085  0.3651  0.2388  0.1345
  181MOL0     C24882   3.833   1.674   8.057 -0.8233  0.0994  0.0969
  181MOL0     C24883   3.877   1.822   8.033  0.4345 -0.0250 -0.3807
  181MOL0     C24884   4.030   1.831   8.054  0.0533  0.2514  0.2701
  181MOL0    Cl24885   4.121   1.730   7.943  0.0893 -0.2656 -0.0545
  181MOL0     C24886   3.528   1.558   8.704  0.3999  0.3882  0.2741
  181MOL0     C24887   3.570   1.533   8.833  0.1453 -1.4014  0.3014
  181MOL0     O24888   3.389   1.523   9.090  0.6701 -0.0165 -0.6264
  181MOL0     C24889   3.421   1.510   9.355  1.0610 -0.4678  1.0025
  181MOL0     C24890   3.432   1.499   9.494 -0.7537 -0.3609 -0.1334
  181MOL0     N24891   3.732   1.719  10.065  0.5818 -0.0030  0.8329
  181MOL0     N24892   3.786   1.793  10.155 -0.6792  0.0588 -0.2544
  181MOL0     C24893   5.022   2.317  10.493  0.5128 -0.2942 -0.8315
  181MOL0     C24894   5.125   2.399  10.554  1.0251 -0.2889 -0.2010
  181MOL0     C24895   5.435   2.610  10.821 -0.1183  0.6689 -0.1842
  181MOL0     C24896   5.525   2.614  10.716 -0.5711  0.2924 -0.7148
  181MOL0     C24897   5.654   2.667  10.739  0.8678 -0.2296  0.0958
  181MOL0     C24898   5.693   2.714  10.861  0.0748  0.0540  0.1939
  181MOL0     O24899   5.826   2.744  10.868 -0.5711  0.1075  0.5500
  181MOL0     C24900   5.876   2.760  10.998  0.2937  0.2793 -0.4979
  181MOL0     C24901   6.022   2.785  10.978  0.4029  0.0059  0.3936
  181MOL0     C24902   6.080   2.823  11.112  0.3723 -0.0894 -0.0976
  181MOL0     C24903   6.224   2.861  11.088  0.7681  0.3540  0.6781
  181MOL0     C24904   6.292   2.895  11.206  1.0540 -0.1782  0.2342
  181MOL0     C24905   6.344   2.926  11.309  0.3665 -0.4937 -0.4601
  181MOL0     C24906   5.599   2.708  10.964 -0.7777  0.0927  0.5209
  181MOL0     C24907   5.472   2.660  10.952 -0.5350  1.1907  0.0779
  181MOL0     C24908   5.387   2.667  11.074  0.7969  0.7862  0.3728
  181MOL0     H24909   5.188   2.221  10.828 -2.4752 -1.3273  1.4696
  181MOL0     H24910   4.994   2.115  10.771  2.6701 -0.4632  0.7781
  181MOL0     H24911   4.798   2.144  10.347  1.4072  1.1528 -0.0200
  181MOL0     H24912   4.735   2.267  10.462 -0.4100  0.7181 -1.0538
  181MOL0     H24913   4.671   1.977  10.520 -4.7706 -0.3834  1.4631
  181MOL0     H24914   4.608   2.127  10.581  0.7689 -0.8912 -0.1680
  181MOL0     H24915   4.507   2.181  10.358  0.0376 -0.7146 -3.0696
  181MOL0     H24916   4.590   2.038  10.293 -0.4388  2.4289 -2.3175
  181MOL0     H24917   4.460   1.919  10.500 -0.6241  1.1747  2.4095
  181MOL0     H24918   4.373   2.059  10.505  1.4762  2.9187 -1.5466
  181MOL0     H24919   4.363   1.918  10.236 -0.3254  1.2547 -1.4732
  181MOL0     H24920   4.246   2.035  10.299 -1.2969  0.0914  1.7249
  181MOL0     H24921   4.261   1.745  10.403  0.1554  0.0227 -1.0461
  181MOL0     H24922   4.172   1.872  10.487 -0.3164  1.7582 -0.2048
  181MOL0     H24923   4.158   1.748  10.211  0.3114  0.5565 -0.7789
  181MOL0     H24924   4.075   1.910  10.248  0.1800  2.4686  5.7970
  181MOL0     H24925   4.012   1.660  10.389  0.4982  0.5122 -0.0233
  181MOL0     H24926   3.919   1.806  10.402 -1.7352 -0.7043  0.6888
  181MOL0     H24927   3.968   1.516  10.161 -1.6970 -0.0481  2.1705
  181MOL0     H24928   3.856   1.412   9.976  0.5255  1.4490 -0.4733
  181MOL0     H24929   3.803   1.523   9.866 -0.7540  0.9982  1.0188
  181MOL0     H24930   3.610   1.445  10.080  1.3384  1.1605 -0.0506
  181MOL0     H24931   3.572   1.521   9.931  1.0194 -0.4717 -1.9863
  181MOL0     H24932   3.639   1.228   9.938 -0.2966 -0.0906 -1.1677
  181MOL0     H24933   3.484   1.312   9.921 -0.1008  1.0032  1.5034
  181MOL0     H24934   3.718   1.341   9.714  0.2614  3.0403  0.9128
  181MOL0     H24935   3.583   1.218   9.711 -1.3311  0.2614 -0.0425
  181MOL0     H24936   3.677   1.261   9.505 -1.1195 -0.5851 -0.4094
  181MOL0     H24937   3.581   1.173   9.177  1.9513  0.2085 -1.7251
  181MOL0     H24938   3.702   1.149   9.299  3.0490  2.4154 -0.1351
  181MOL0     H24939   3.741   1.269   9.188  0.0771  0.9134  1.4095
  181MOL0     H24940   3.415   1.247   8.870  2.2508  0.7395  2.5798
  181MOL0     H24941   3.369   1.259   8.629 -0.4906 -1.5825  3.3487
  181MOL0     H24942   3.602   1.405   8.391  0.3519  1.9341 -2.6780
  181MOL0     H24943   3.473   1.282   8.421  0.5077 -0.2673 -1.6510
  181MOL0     H24944   3.454   1.318   8.192  0.5675 -0.8781  0.6081
  181MOL0     H24945   3.324   1.411   8.254 -0.4355  1.7724 -2.9654
  181MOL0     H24946   3.497   1.620   8.243 -0.6253 -1.3467  2.6175
  181MOL0     H24947   3.429   1.569   8.096  0.5876  2.6771  1.2151
  181MOL0     H24948   3.633   1.440   8.050 -1.8144  0.2174 -1.3165
  181MOL0     H24949   3.695   1.483   8.207 -0.8796  0.3297 -0.4485
  181MOL0     H24950   3.634   1.678   7.989 -0.1727 -1.8048  0.0693
  181MOL0     H24951   3.659   1.742   8.157  2.6186  1.1269  0.0330
  181MOL0     H24952   3.856   1.618   7.966 -2.8219 -0.2019 -0.2544
  181MOL0     H24953   3.885   1.643   8.148 -2.7923  0.5967  1.4650
  181MOL0     H24954   3.831   1.893   8.102  2.4329 -0.3235  1.3738
  181MOL0     H24955   3.855   1.858   7.932 -1.1286 -0.9725 -0.3940
  181MOL0     H24956   4.040   1.803   8.160 -1.3089  2.5549  1.0785
  181MOL0     H24957   4.054   1.937   8.046 -1.3108  0.4997 -0.8934
  181MOL0     H24958   3.571   1.643   8.652  0.9653 -0.2901 -0.3966
  181MOL0     H24959   3.636   1.606   8.878  1.3296 -0.4274 -2.7314
  181MOL0     H24960   3.355   1.586   9.314 -2.2310 -2.3879  2.4020
  181MOL0     H24961   3.389   1.575   9.557 -0.4017  1.6746 -2.1946
  181MOL0     H24962   4.981   2.332  10.393 -0.2879 -0.6193 -0.5570
  181MOL0     H24963   5.165   2.486  10.503  2.9888 -0.3047  1.1927
  181MOL0     H24964   5.499   2.564  10.623 -3.3850 -1.2905  0.7901
  181MOL0     H24965   5.719   2.657  10.653  0.4094  0.5340 -0.3505
  181MOL0     H24966   5.834   2.839  11.061 -0.2236  0.0275 -0.5257
  181MOL0     H24967   5.870   2.664  11.050  0.3490 -0.0578 -1.0995
  181MOL0     H24968   6.034   2.865  10.905 -0.5969 -0.6845 -0.5561
  181MOL0     H24969   6.052   2.690  10.934 -2.5891 -0.2497 -1.4020
  181MOL0     H24970   6.030   2.893  11.179  1.3626 -2.6972  3.7201
  181MOL0     H24971   6.080   2.734  11.175 -1.5866 -0.5100 -0.6087
  181MOL0     H24972   6.226   2.942  11.015  1.6960 -1.3719 -1.3294
  181MOL0     H24973   6.284   2.788  11.033  0.9206  1.9266 -1.3641
  181MOL0     H24974   6.390   2.962  11.399  1.9892 -0.0870 -1.4143
  181MOL0     H24975   5.635   2.746  11.059 -3.6770  3.2854  0.5258
  181MOL0     H24976   5.366   2.564  11.105 -1.1285  0.4977 -1.6397
  181MOL0     H24977   5.443   2.708  11.158  0.6359 -0.6608  1.2266
  181MOL0     H24978   5.296   2.728  11.064  0.5162  0.1203 -1.4223
  182MOL0     O24979  10.958   0.778   5.577  0.4204  0.4471 -0.3452
  182MOL0     C24980  10.912   0.669   5.614 -1.0246 -0.4969 -0.0843
  182MOL0     O24981  10.953   0.615   5.733  0.0307  0.1604  0.1292
  182MOL0     C24982  11.080   0.657   5.768  0.5457 -0.7509  0.0629
  182MOL0     C24983  11.092   0.762   5.862  0.1848 -0.0128  0.6011
  182MOL0     C24984  11.217   0.805   5.901 -0.1782  0.1097  0.6634
  182MOL0     C24985  11.329   0.750   5.857 -0.5348  1.1049  0.5892
  182MOL0     O24986  11.453   0.780   5.905  0.3255  0.2243 -0.7288
  182MOL0     C24987  11.490   0.739   6.042  0.1498 -0.1050  0.0858
  182MOL0     C24988  11.592   0.624   6.035  0.0601  0.2899 -0.0064
  182MOL0     C24989  11.712   0.666   5.955  0.7405  0.0433  0.3298
  182MOL0     C24990  11.821   0.565   5.950 -0.7553 -0.6060 -0.4331
  182MOL0     C24991  11.931   0.610   5.853  0.2367  0.0291 -0.3367
  182MOL0     C24992  12.003   0.735   5.900 -0.3274  0.4178  0.3049
  182MOL0     C24993  12.088   0.716   6.026  0.2233 -0.2812 -0.0507
  182MOL0     C24994  12.014   0.763   6.151 -0.8438 -0.0717  0.7092
  182MOL0     N24995  11.988   0.649   6.236  0.1861  0.5555 -0.9050
  182MOL0     C24996  11.877   0.635   6.317  0.4235 -0.4742  0.0321
  182MOL0     C24997  11.893   0.512   6.379 -0.2855  0.1119 -0.2539
  182MOL0     C24998  11.804   0.429   6.461  1.0364 -0.9441  0.5236
  182MOL0     C24999  11.688   0.366   6.378  0.3099  0.1653  0.6245
  182MOL0     C25000  11.730   0.259   6.279 -0.8363 -0.3299  1.6528
  182MOL0     C25001  11.619   0.190   6.195  0.3609  0.0436 -0.8019
  182MOL0     O25002  11.530   0.275   6.118  0.2729  1.0796  0.6836
  182MOL0     C25003  11.421   0.221   6.053  0.1403 -0.0332 -0.5466
  182MOL0     C25004  11.385   0.084   6.056 -0.0327  1.2256 -0.4564
  182MOL0     C25005  11.284   0.029   5.974 -0.2388 -0.6343  0.7915
  182MOL0     C25006  11.273  -0.122   5.983 -0.7568 -0.2186  0.0618
  182MOL0     C25007  11.202   0.106   5.892  0.5530 -0.2424  0.6075
  182MOL0     C25008  11.084   0.065   5.813 -1.0452  0.2022  0.1914
  182MOL0     O25009  11.010   0.165   5.756  0.5123 -0.1709  0.2202
  182MOL0     C25010  10.908   0.133   5.669 -0.4002 -0.2429  0.1758
  182MOL0     C25011  10.788   0.199   5.676  0.6455 -0.4968 -0.1693
  182MOL0     C25012  10.686   0.171   5.586  0.2681 -0.0456 -0.2350
  182MOL0     C25013  10.695   0.079   5.478 -0.2720  0.5449 -0.2625
  182MOL0     O25014  10.591   0.081   5.389 -0.5000  0.3952 -0.4397
  182MOL0     C25015  10.572  -0.026   5.296 -0.1454 -0.1394  0.2174
  182MOL0     C25016  10.557  -0.165   5.360 -0.5362  1.2207  0.1227
  182MOL0     C25017  10.415  -0.174   5.413 -0.5043  0.6135 -0.1119
  182MOL0     C25018  10.294  -0.173   5.321  0.4187  0.4964  0.5634
  182MOL0     C25019  10.290  -0.278   5.213  0.7747  0.7320  0.3747
  182MOL0     C25020  10.177  -0.263   5.111  0.1234 -0.2541  0.3118
  182MOL0     C25021  10.193  -0.361   4.993  0.1093 -0.4651  0.3245
  182MOL0     C25022  10.087  -0.329   4.880  0.2167 -0.6839 -0.1570
  182MOL0    Cl25023  10.142  -0.398   4.733  0.2289 -0.0719  0.4361
  182MOL0     C25024  10.825   0.023   5.465  0.3476  0.6384  0.0570
  182MOL0     C25025  10.928   0.041   5.562  1.2380 -0.2449  0.0564
  182MOL0     O25026  11.059  -0.058   5.797 -0.6323 -0.3966  0.4712
  182MOL0     C25027  11.231   0.246   5.897  0.1583 -0.6308  0.1249
  182MOL0     C25028  11.335   0.302   5.971 -1.0560 -0.2479 -0.0113
  182MOL0     N25029  12.022   0.465   6.353 -0.3322 -0.5068  0.1747
  182MOL0     N25030  12.075   0.551   6.277 -0.3900  0.1563 -0.7904
  182MOL0     C25031  11.321   0.653   5.755 -0.5381  0.4116  0.1436
  182MOL0     C25032  11.194   0.608   5.714 -0.4698  0.1032  0.2078
  182MOL0     C25033  10.802   0.623   5.537  0.2236  0.3017 -0.5009
  182MOL0     C25034  10.696   0.566   5.603  0.2111  0.0748 -1.2248
  182MOL0     C25035  10.584   0.516   5.535  0.2763  1.0715 -0.0064
  182MOL0     C25036  10.581   0.517   5.401  0.0834 -0.2126  0.4123
  182MOL0     O25037  10.485   0.467   5.313 -0.1637  0.3788  0.4387
  182MOL0     C25038  10.384   0.379   5.365 -1.2095 -0.1002  0.0048
  182MOL0     C25039  10.274   0.351   5.269  0.0248  0.7351  0.2314
  182MOL0     C25040  10.196   0.217   5.279  0.5304 -0.4558 -0.5512
  182MOL0     C25041  10.143   0.189   5.415 -0.1869  0.9598  0.3499
  182MOL0     C25042  10.053   0.289   5.469  0.0433 -0.6489 -0.1557
  182MOL0     C25043   9.962   0.360   5.497  0.5149  0.2402 -0.0243
  182MOL0     C25044  10.684   0.570   5.328  0.7813 -1.3413 -0.2328
  182MOL0     C25045  10.798   0.630   5.391 -0.5178 -0.5394 -0.0126
  182MOL0     C25046  10.914   0.669   5.308  0.8016 -0.2344 -0.1201
  182MOL0     H25047  11.001   0.802   5.907  0.8162  3.0228 -0.5810
  182MOL0     H25048  11.221   0.898   5.957 -1.8854  2.1236 -2.2613
  182MOL0     H25049  11.401   0.714   6.100  0.4064 -1.1288  0.0625
  182MOL0     H25050  11.528   0.819   6.106 -0.4578 -1.3014  2.0256
  182MOL0     H25051  11.624   0.593   6.135  0.4937 -2.9686 -1.0509
  182MOL0     H25052  11.544   0.539   5.986  0.5772 -1.8790  2.9609
  182MOL0     H25053  11.689   0.683   5.849  0.1293 -0.0362  0.4453
  182MOL0     H25054  11.748   0.760   5.998  2.9119 -0.1751 -0.8957
  182MOL0     H25055  11.857   0.554   6.053 -1.6733  0.6014  0.0383
  182MOL0     H25056  11.781   0.471   5.911 -3.0038  1.7092 -4.3810
  182MOL0     H25057  11.879   0.638   5.761 -1.6728  1.9850  1.2321
  182MOL0     H25058  11.998   0.527   5.830  0.0593  0.0201 -0.8275
  182MOL0     H25059  12.068   0.770   5.819  1.5364 -0.3596  1.3865
  182MOL0     H25060  11.927   0.811   5.919 -1.3056  0.2705 -2.4861
  182MOL0     H25061  12.175   0.782   6.023 -1.3745  1.9028 -1.8046
  182MOL0     H25062  12.117   0.611   6.040 -1.3745 -0.5029  2.0492
  182MOL0     H25063  12.088   0.827   6.201 -1.8216  1.8710 -0.2186
  182MOL0     H25064  11.925   0.822   6.129 -0.0076  0.8410 -0.3702
  182MOL0     H25065  11.785   0.693   6.319  1.7451  1.7599 -0.2164
  182MOL0     H25066  11.762   0.496   6.537  3.3546  3.0665 -1.4061
  182MOL0     H25067  11.857   0.350   6.516  0.7531 -2.8126 -1.7290
  182MOL0     H25068  11.632   0.316   6.457 -0.7733  1.0374  0.4413
  182MOL0     H25069  11.631   0.448   6.334  1.7232  1.6486  1.4569
  182MOL0     H25070  11.789   0.308   6.201 -3.6044 -0.5680 -0.7655
  182MOL0     H25071  11.777   0.175   6.331  0.1239 -0.8372  0.0715
  182MOL0     H25072  11.678   0.125   6.131 -2.5963 -3.2289 -0.4852
  182MOL0     H25073  11.567   0.126   6.267 -2.0027  2.6767  0.0107
  182MOL0     H25074  11.449   0.025   6.120 -0.7732  2.9109  2.0096
  182MOL0     H25075  11.357  -0.163   6.039  2.1543  0.1164 -3.7058
  182MOL0     H25076  11.286  -0.162   5.883  0.4924 -1.8157  0.8185
  182MOL0     H25077  11.173  -0.134   6.026 -2.0288 -0.5896 -2.8303
  182MOL0     H25078  10.768   0.272   5.753 -0.0161 -3.2976  2.4891
  182MOL0     H25079  10.597   0.234   5.583  1.6843  2.2678  2.0773
  182MOL0     H25080  10.480  -0.005   5.241  1.4320 -2.4191 -3.7189
  182MOL0     H25081  10.654  -0.025   5.225  2.2060 -0.5820  2.7696
  182MOL0     H25082  10.581  -0.243   5.288 -1.8795 -0.4815  1.4407
  182MOL0     H25083  10.626  -0.183   5.443 -1.1137  1.1897  0.6020
  182MOL0     H25084  10.393  -0.095   5.486  1.7104  2.9365 -1.7924
  182MOL0     H25085  10.410  -0.272   5.461  2.3812 -0.8502 -2.4467
  182MOL0     H25086  10.282  -0.070   5.286  0.0291  1.0976  2.3851
  182MOL0     H25087  10.205  -0.188   5.383  0.1265  1.1678  0.3133
  182MOL0     H25088  10.383  -0.284   5.156 -0.1525 -5.2687 -1.1426
  182MOL0     H25089  10.274  -0.381   5.246  2.4306 -0.5403 -2.4692
  182MOL0     H25090  10.172  -0.162   5.070 -4.2532  0.0135  1.0253
  182MOL0     H25091  10.087  -0.284   5.169  0.4499  0.4218  1.0935
  182MOL0     H25092  10.180  -0.462   5.032 -1.3238  0.0376  1.2532
  182MOL0     H25093  10.291  -0.362   4.945 -0.7748  0.6202 -1.6287
  182MOL0     H25094  10.088  -0.222   4.858 -1.3881 -0.4158  0.9189
  182MOL0     H25095   9.985  -0.358   4.909  0.4571 -0.5229  0.8952
  182MOL0     H25096  10.847  -0.036   5.377  4.2987  1.6948  0.1531
  182MOL0     H25097  11.027   0.000   5.546  2.5358  2.8557 -0.4868
  182MOL0     H25098  11.182   0.318   5.832 -0.1960 -0.4770  0.5555
  182MOL0     H25099  11.352   0.409   5.968  1.4001 -0.6103 -1.9509
  182MOL0     H25100  11.413   0.617   5.710 -0.7764  0.2554 -0.2255
  182MOL0     H25101  11.189   0.545   5.626  0.0806 -3.3611  2.4784
  182MOL0     H25102  10.711   0.556   5.711 -1.4494 -2.9012 -1.1565
  182MOL0     H25103  10.502   0.466   5.587 -0.1787 -0.0939 -1.7690
  182MOL0     H25104  10.438   0.287   5.393  2.6587  1.9836  0.0171
  182MOL0     H25105  10.346   0.423   5.458 -0.7715  0.6166 -0.1482
  182MOL0     H25106  10.316   0.339   5.169 -1.5743  0.1662 -0.4126
  182MOL0     H25107  10.205   0.435   5.268 -2.4611 -1.1821  0.4846
  182MOL0     H25108  10.112   0.219   5.209  0.7682 -0.5899 -0.8394
  182MOL0     H25109  10.254   0.132   5.243 -0.4130 -1.1034 -0.5719
  182MOL0     H25110  10.226   0.175   5.485 -0.1742 -0.0508  0.1507
  182MOL0     H25111  10.092   0.093   5.403  1.6274 -0.0580  0.3486
  182MOL0     H25112   9.875   0.418   5.523 -1.9814 -2.0887 -2.5217
  182MOL0     H25113  10.687   0.556   5.220  2.5937 -0.0665 -0.3933
  182MOL0     H25114  10.950   0.772   5.317  0.3464 -0.1380  0.6903
  182MOL0     H25115  11.001   0.606   5.331  1.1438  0.4357  0.4559
  182MOL0     H25116  10.883   0.659   5.203 -1.3841 -0.1153  0.4710
  183MOL0     O25117   3.814   7.350  11.209  1.0020  0.7974 -0.5353
  183MOL0     C25118   3.728   7.353  11.117  0.3267  0.6504 -0.5246
  183MOL0     O25119   3.755   7.326  10.984 -0.2753 -0.4626  0.5971
  183MOL0     C25120   3.883   7.319  10.937  0.8717 -0.6293  0.5369
  183MOL0     C25121   3.988   7.244  11.000 -0.5571  0.1003  0.7367
  183MOL0     C25122   4.112   7.224  10.933 -0.5675  0.1670 -0.0055
  183MOL0     C25123   4.132   7.278  10.801 -0.1972 -0.2532 -0.1080
  183MOL0     O25124   4.251   7.249  10.736 -0.3705 -0.5791  0.0647
  183MOL0     C25125   4.279   7.298  10.608  0.0847 -0.6206  0.7221
  183MOL0     C25126   4.423   7.257  10.565 -0.3982  0.5225 -0.6889
  183MOL0     C25127   4.521   7.261  10.673 -0.0500 -1.1525 -0.1504
  183MOL0     C25128   4.658   7.233  10.617  0.2339 -0.4482  0.4736
  183MOL0     C25129   4.773   7.208  10.718  0.7894  0.2861 -0.8708
  183MOL0     C25130   4.906   7.169  10.669 -0.0573  1.0148 -0.2715
  183MOL0     C25131   4.986   7.263  10.577  0.2240  0.1645  0.0203
  183MOL0     C25132   5.014   7.398  10.642  0.3049 -0.1408 -0.4742
  183MOL0     N25133   5.095   7.382  10.762  0.2458  0.5997 -0.0834
  183MOL0     C25134   5.047   7.347  10.883 -0.1167 -0.6685  0.4003
  183MOL0     C25135   5.153   7.348  10.966 -0.6472 -0.3915  0.6626
  183MOL0     C25136   5.149   7.316  11.114 -1.1347  0.2340  0.3404
  183MOL0     C25137   5.209   7.173  11.143  0.4473 -0.4120 -0.5226
  183MOL0     C25138   5.353   7.158  11.104 -0.6059  0.3742 -0.1310
  183MOL0     C25139   5.445   7.265  11.150  0.0927 -0.2097  0.2723
  183MOL0     O25140   5.574   7.214  11.117 -0.4592 -0.2474 -0.4000
  183MOL0     C25141   5.685   7.278  11.167  0.4156 -0.2700  0.6006
  183MOL0     C25142   5.689   7.421  11.193 -0.0063  0.4556  0.0790
  183MOL0     C25143   5.807   7.480  11.232  0.5648 -0.3285  0.0275
  183MOL0     C25144   5.804   7.631  11.255  0.5248  0.6204 -0.3294
  183MOL0     C25145   5.925   7.402  11.245  0.5162  0.7597 -0.0805
  183MOL0     C25146   6.058   7.463  11.273 -0.6768 -0.5848  0.0069
  183MOL0     O25147   6.075   7.597  11.251 -0.1942 -0.4996 -0.1974
  183MOL0     C25148   6.203   7.647  11.257 -0.4372 -0.0565  1.5261
  183MOL0     C25149   6.273   7.672  11.371  0.2130  0.5460  0.2448
  183MOL0     C25150   6.398   7.731  11.372 -0.3346 -0.0545  0.3755
  183MOL0     C25151   6.477   7.744  11.256 -0.0714  0.1735  0.2016
  183MOL0     O25152   6.610   7.784  11.265  0.2051  0.3695 -0.8070
  183MOL0     C25153   6.676   7.831  11.149  0.5954 -0.1195 -0.3752
  183MOL0     C25154   6.809   7.891  11.189  0.2210 -0.3901 -0.6117
  183MOL0     C25155   6.907   7.784  11.232 -0.2816  0.2521 -0.2431
  183MOL0     C25156   7.041   7.849  11.255  0.4989  0.2801 -0.0066
  183MOL0     C25157   7.160   7.771  11.321  0.2211  0.0530 -0.6697
  183MOL0     C25158   7.244   7.698  11.216  0.0422  0.3126  0.5686
  183MOL0     C25159   7.354   7.616  11.281  0.3172 -0.5753 -0.4059
  183MOL0     C25160   7.461   7.573  11.182  0.0845 -1.0036 -0.6725
  183MOL0    Cl25161   7.612   7.522  11.271 -0.5879  0.7110  0.1070
  183MOL0     C25162   6.409   7.712  11.133 -1.1314 -0.2440 -0.5451
  183MOL0     C25163   6.277   7.669  11.140  0.3749  0.7919 -0.3627
  183MOL0     O25164   6.152   7.383  11.297  1.0125  0.1678  0.9056
  183MOL0     C25165   5.921   7.265  11.209  0.0366 -0.4475 -0.7709
  183MOL0     C25166   5.801   7.207  11.173 -0.1932 -0.3606 -0.1368
  183MOL0     N25167   5.267   7.382  10.892  0.2986 -0.1184  0.7894
  183MOL0     N25168   5.230   7.384  10.766  0.0503 -1.0576 -0.5115
  183MOL0     C25169   4.023   7.350  10.740  0.2090  0.4826 -0.1195
  183MOL0     C25170   3.902   7.374  10.810 -0.0838 -0.0794 -0.1413
  183MOL0     C25171   3.586   7.387  11.152 -0.0551 -0.1115  0.3847
  183MOL0     C25172   3.522   7.307  11.247 -0.0400  0.7125  0.0044
  183MOL0     C25173   3.392   7.340  11.285  0.4100 -0.1819  0.7121
  183MOL0     C25174   3.319   7.443  11.218 -0.9550 -0.6407 -0.2755
  183MOL0     O25175   3.187   7.480  11.230 -0.6673  0.7133 -0.0227
  183MOL0     C25176   3.113   7.419  11.339 -0.8418  0.3362 -0.1614
  183MOL0     C25177   3.065   7.279  11.297 -0.2618 -0.9691 -0.2803
  183MOL0     C25178   2.959   7.224  11.382  0.4921  0.8609 -0.2014
  183MOL0     C25179   2.959   7.069  11.356  0.7589  0.1747 -0.4904
  183MOL0     C25180   2.840   7.002  11.413 -0.8828 -0.8975  0.3751
  183MOL0     C25181   2.749   6.955  11.475  0.3716  0.0074 -0.6310
  183MOL0     C25182   3.384   7.522  11.116 -0.7781  0.2675  0.0531
  183MOL0     C25183   3.521   7.495  11.085  0.3004  0.2065 -0.4060
  183MOL0     C25184   3.594   7.573  10.977 -0.2862 -0.4618  0.0995
  183MOL0     H25185   3.964   7.187  11.089 -1.0113  0.3200  0.7622
  183MOL0     H25186   4.176   7.153  10.985 -3.0158 -2.5655 -0.4896
  183MOL0     H25187   4.267   7.407  10.609 -3.3489 -0.8350 -0.9215
  183MOL0     H25188   4.203   7.271  10.534 -0.1546 -0.1061  0.7808
  183MOL0     H25189   4.433   7.156  10.524 -0.5931 -0.7721  2.2402
  183MOL0     H25190   4.454   7.325  10.485 -1.0748  2.3545  0.5446
  183MOL0     H25191   4.514   7.355  10.729 -2.1594 -0.8883 -0.7546
  183MOL0     H25192   4.492   7.182  10.743 -0.3285  0.1301  1.2547
  183MOL0     H25193   4.653   7.143  10.556  3.1273  0.7505 -1.8231
  183MOL0     H25194   4.692   7.319  10.557  2.7221 -3.5274 -2.9991
  183MOL0     H25195   4.738   7.128  10.784 -0.7442  0.1424 -1.8181
  183MOL0     H25196   4.785   7.296  10.781 -1.9007 -0.9028  1.5090
  183MOL0     H25197   4.968   7.153  10.757  2.5325  0.3660 -2.0908
  183MOL0     H25198   4.896   7.073  10.618  1.2694  2.1958 -3.0000
  183MOL0     H25199   4.941   7.284  10.480 -1.3470  0.9479  0.8877
  183MOL0     H25200   5.081   7.221  10.543  1.4246 -0.8134  4.0062
  183MOL0     H25201   5.071   7.459  10.572 -0.0696 -0.1465 -0.7854
  183MOL0     H25202   4.926   7.449  10.682  3.0333  2.3346  3.0325
  183MOL0     H25203   4.949   7.321  10.921 -1.0275 -1.5523 -2.3307
  183MOL0     H25204   5.047   7.325  11.150 -1.2791 -0.6737  0.1954
  183MOL0     H25205   5.206   7.395  11.164  1.2655 -1.3235  0.2551
  183MOL0     H25206   5.185   7.142  11.245 -4.0371  1.2840 -0.8413
  183MOL0     H25207   5.147   7.109  11.079 -1.3504 -1.2284  1.8843
  183MOL0     H25208   5.396   7.075  11.161 -0.2023  2.2014  2.3797
  183MOL0     H25209   5.369   7.126  11.000  0.6751  1.1536 -0.1975
  183MOL0     H25210   5.424   7.357  11.095  1.0754 -0.4783 -0.5771
  183MOL0     H25211   5.424   7.280  11.257  1.7627 -0.1198  0.6170
  183MOL0     H25212   5.602   7.486  11.186  1.6973  3.0468  1.3640
  183MOL0     H25213   5.705   7.675  11.269  0.2203 -0.2081  0.1439
  183MOL0     H25214   5.848   7.677  11.166 -0.6558  3.6453  0.5059
  183MOL0     H25215   5.855   7.640  11.352 -1.8140 -2.4811  1.3489
  183MOL0     H25216   6.225   7.661  11.467 -0.9087  0.5101 -0.2993
  183MOL0     H25217   6.443   7.759  11.466  0.2863  1.9056 -0.4432
  183MOL0     H25218   6.688   7.751  11.074  0.9056 -0.0029 -0.4499
  183MOL0     H25219   6.609   7.906  11.105 -1.0859 -0.1208  2.0175
  183MOL0     H25220   6.846   7.952  11.106  1.1880  0.4220  0.3813
  183MOL0     H25221   6.792   7.964  11.269  3.4223 -1.0985  0.8853
  183MOL0     H25222   6.919   7.703  11.159  2.1861 -0.3009  0.6594
  183MOL0     H25223   6.882   7.749  11.333  0.1661 -0.0345 -0.2259
  183MOL0     H25224   7.023   7.935  11.320 -1.7900  0.7941 -1.2177
  183MOL0     H25225   7.073   7.901  11.164  1.7023  2.0039  1.3249
  183MOL0     H25226   7.216   7.845  11.379 -0.9451 -0.8567  1.7580
  183MOL0     H25227   7.119   7.695  11.388 -0.8890  1.7725  0.6939
  183MOL0     H25228   7.298   7.767  11.150 -0.8578  0.3944 -0.0999
  183MOL0     H25229   7.180   7.632  11.158 -1.1606  1.6989  0.2567
  183MOL0     H25230   7.312   7.521  11.312  0.3111 -0.6183 -0.5435
  183MOL0     H25231   7.406   7.667  11.363 -0.3120 -0.5828 -0.0036
  183MOL0     H25232   7.482   7.666  11.128 -2.4049  2.2556  3.3855
  183MOL0     H25233   7.427   7.497  11.110 -0.1614 -1.7866  0.2509
  183MOL0     H25234   6.462   7.720  11.038 -2.7449 -2.0392 -1.6824
  183MOL0     H25235   6.227   7.641  11.047 -0.1576  0.3470  0.0501
  183MOL0     H25236   6.010   7.204  11.224 -0.0270  0.0594  2.3540
  183MOL0     H25237   5.796   7.102  11.146 -0.3085 -0.4201  0.1182
  183MOL0     H25238   4.036   7.390  10.640 -0.4234  3.6286  0.9522
  183MOL0     H25239   3.824   7.435  10.767 -2.1660 -1.9499  0.7616
  183MOL0     H25240   3.579   7.231  11.300 -0.6727 -0.5104 -1.0362
  183MOL0     H25241   3.347   7.272  11.356  0.2006  1.2920  2.0525
  183MOL0     H25242   3.165   7.418  11.435 -2.5719 -1.5281  0.8486
  183MOL0     H25243   3.029   7.489  11.343 -0.4336  0.7509  2.3707
  183MOL0     H25244   3.152   7.215  11.281 -0.4672 -0.9155 -1.7514
  183MOL0     H25245   3.028   7.298  11.196  0.3743 -1.4463 -0.6140
  183MOL0     H25246   2.982   7.243  11.487  0.1778 -0.8161  0.2144
  183MOL0     H25247   2.858   7.257  11.357 -0.4141 -2.3697 -1.4212
  183MOL0     H25248   3.052   7.030  11.399 -0.1412  0.8353  2.2795
  183MOL0     H25249   2.964   7.049  11.249  0.5922 -3.4209  0.0800
  183MOL0     H25250   2.665   6.905  11.519  1.6016 -0.4217  1.3388
  183MOL0     H25251   3.336   7.602  11.060  1.7930  2.5548  0.8793
  183MOL0     H25252   3.703   7.574  10.986  0.1948  1.2520 -3.7341
  183MOL0     H25253   3.569   7.526  10.881 -0.9625 -0.5201  0.3004
  183MOL0     H25254   3.558   7.675  10.968 -1.4762 -1.0566 -3.3627
  184MOL0     O25255   8.519   2.567   5.873 -0.1197 -0.7932  0.0282
  184MOL0     C25256   8.463   2.468   5.919 -0.0061  0.7085  0.9497
  184MOL0     O25257   8.518   2.361   5.978  0.1008  0.4606  0.5414
  184MOL0     C25258   8.644   2.369   6.022 -0.3923 -0.1172 -0.0534
  184MOL0     C25259   8.721   2.267   5.986 -0.1178  0.6245 -0.9191
  184MOL0     C25260   8.855   2.274   6.007 -0.4302  0.5404 -1.1839
  184MOL0     C25261   8.917   2.373   6.081  0.1125  0.7555 -0.2719
  184MOL0     O25262   9.050   2.382   6.098  0.1963  0.1087  0.1898
  184MOL0     C25263   9.149   2.301   6.023  0.3769 -0.2976 -0.0749
  184MOL0     C25264   9.281   2.318   6.095  0.3808 -0.3783 -0.1582
  184MOL0     C25265   9.381   2.214   6.058  0.0124 -0.0652 -0.9008
  184MOL0     C25266   9.474   2.220   5.937 -0.1443 -0.3073 -0.1128
  184MOL0     C25267   9.574   2.105   5.943 -0.2042  0.2905 -0.1591
  184MOL0     C25268   9.654   2.088   5.820  0.3927  0.0798  0.1543
  184MOL0     C25269   9.791   2.024   5.832  0.1054 -0.0950  0.4656
  184MOL0     C25270   9.880   2.028   5.708  0.3157 -0.9947 -0.2582
  184MOL0     N25271   9.812   1.986   5.584  0.1406 -0.4791 -0.2789
  184MOL0     C25272   9.775   1.854   5.556  0.1241  0.2280  0.4425
  184MOL0     C25273   9.758   1.859   5.414 -0.8150  0.1225  0.3374
  184MOL0     C25274   9.760   1.735   5.331  0.4684  1.4603  0.6999
  184MOL0     C25275   9.884   1.730   5.253 -0.1315  0.6007  0.3941
  184MOL0     C25276   9.909   1.589   5.199  0.0002 -0.3778  0.2204
  184MOL0     C25277  10.022   1.568   5.099 -0.1419 -0.0841  0.0983
  184MOL0     O25278  10.146   1.587   5.172  0.5724 -0.3768  0.2855
  184MOL0     C25279  10.258   1.573   5.101  0.4626 -0.2464 -0.2590
  184MOL0     C25280  10.276   1.514   4.975  0.0144  0.3558  0.4740
  184MOL0     C25281  10.398   1.506   4.912 -0.4357  1.9554 -0.6724
  184MOL0     C25282  10.412   1.450   4.764 -0.2532 -0.2388 -0.3385
  184MOL0     C25283  10.513   1.533   4.984 -0.5773  0.2656 -0.0930
  184MOL0     C25284  10.644   1.520   4.930 -0.0977  0.2587  0.4031
  184MOL0     O25285  10.734   1.467   5.016  0.6000  0.1466  0.1143
  184MOL0     C25286  10.852   1.433   4.956 -0.4054  0.2971  0.1160
  184MOL0     C25287  10.862   1.321   4.877  0.2880  0.2977 -0.0132
  184MOL0     C25288  10.985   1.281   4.830  0.2476  0.6341  0.3419
  184MOL0     C25289  11.103   1.346   4.869 -0.1647  0.5350  0.2547
  184MOL0     O25290  11.233   1.316   4.819  0.3115 -1.0447 -0.0049
  184MOL0     C25291  11.260   1.185   4.771  0.1113  0.8096 -0.0740
  184MOL0     C25292  11.365   1.181   4.662  0.9613 -1.4095 -0.2097
  184MOL0     C25293  11.489   1.270   4.705  0.3590 -0.7322 -0.1876
  184MOL0     C25294  11.538   1.213   4.834 -0.1027  0.2943  0.6692
  184MOL0     C25295  11.665   1.292   4.891  0.4886  0.1096  0.6022
  184MOL0     C25296  11.745   1.216   4.990 -0.6500 -0.0999 -0.2644
  184MOL0     C25297  11.862   1.295   5.022 -0.0008 -0.9923 -0.6166
  184MOL0     C25298  11.935   1.227   5.133 -0.0007 -0.2480 -0.1223
  184MOL0    Cl25299  11.815   1.188   5.255 -0.3161  0.2030 -0.1358
  184MOL0     C25300  11.095   1.446   4.960  0.1672 -0.6163  0.2188
  184MOL0     C25301  10.971   1.496   4.995  0.2163 -0.2982 -0.1068
  184MOL0     O25302  10.667   1.563   4.815 -0.2854 -0.0223 -0.3533
  184MOL0     C25303  10.499   1.590   5.111  0.3346 -0.0213  0.0755
  184MOL0     C25304  10.374   1.609   5.166  0.5535 -0.0556  0.5175
  184MOL0     N25305   9.786   1.991   5.373  0.8511 -0.2107  0.5629
  184MOL0     N25306   9.817   2.066   5.472 -1.0895  0.1012 -0.3607
  184MOL0     C25307   8.833   2.483   6.131 -1.2781 -0.0221  0.8358
  184MOL0     C25308   8.700   2.480   6.091 -0.6258 -0.2274  0.0462
  184MOL0     C25309   8.317   2.454   5.888  0.6069  0.0671  0.1128
  184MOL0     C25310   8.264   2.324   5.920  0.8303 -0.4077 -0.5451
  184MOL0     C25311   8.121   2.303   5.899  0.0662  0.3955  0.1000
  184MOL0     C25312   8.030   2.401   5.857 -0.5105  0.0309 -0.1798
  184MOL0     O25313   7.895   2.393   5.844  0.1040 -0.0785  0.2606
  184MOL0     C25314   7.828   2.284   5.913  0.3122  0.1219  0.1193
  184MOL0     C25315   7.673   2.278   5.897  0.8166 -0.0867  0.4891
  184MOL0     C25316   7.602   2.377   5.988  0.5191  0.8442 -0.7009
  184MOL0     C25317   7.449   2.381   5.952 -0.2613  0.2877  0.5082
  184MOL0     C25318   7.368   2.436   6.066 -0.2151 -0.2071 -0.2333
  184MOL0     C25319   7.290   2.471   6.149  0.0095  0.6578 -0.2602
  184MOL0     C25320   8.087   2.525   5.826  0.7059 -0.3395 -0.1260
  184MOL0     C25321   8.224   2.551   5.845 -0.2002 -1.0387  1.0246
  184MOL0     C25322   8.262   2.691   5.837 -0.0302  0.1552 -0.6574
  184MOL0     H25323   8.689   2.173   5.942 -2.1306  1.4639 -1.3729
  184MOL0     H25324   8.917   2.199   5.959 -0.3782  1.2697 -2.3095
  184MOL0     H25325   9.163   2.325   5.917  0.2930  1.4310  0.2811
  184MOL0     H25326   9.124   2.195   6.029  1.5639 -0.5094  2.3448
  184MOL0     H25327   9.326   2.416   6.077  1.2072 -0.3157  1.9876
  184MOL0     H25328   9.257   2.299   6.200 -0.5357  0.6003 -0.1877
  184MOL0     H25329   9.454   2.220   6.140 -2.0215  3.1435  0.8833
  184MOL0     H25330   9.325   2.121   6.068  2.4355 -1.4020  1.6492
  184MOL0     H25331   9.416   2.227   5.844 -1.6926  0.3579  0.8504
  184MOL0     H25332   9.525   2.317   5.944 -2.0479  0.7975 -0.8048
  184MOL0     H25333   9.518   2.015   5.966 -0.3885  0.2813 -0.6301
  184MOL0     H25334   9.642   2.123   6.028 -0.3396  0.8076 -0.1536
  184MOL0     H25335   9.594   2.031   5.748  1.4946 -1.3086  0.2864
  184MOL0     H25336   9.653   2.190   5.781  0.2168 -0.6281 -1.8132
  184MOL0     H25337   9.775   1.921   5.865  0.6419  0.2652  1.9273
  184MOL0     H25338   9.850   2.076   5.907  3.1014 -1.0695 -1.0766
  184MOL0     H25339   9.907   2.132   5.687  1.1157 -1.1555 -0.0786
  184MOL0     H25340   9.976   1.978   5.721  0.8838  0.2313  0.4643
  184MOL0     H25341   9.785   1.760   5.609  2.6786 -0.0239 -0.3733
  184MOL0     H25342   9.673   1.728   5.265  0.7105 -1.8267  0.5811
  184MOL0     H25343   9.761   1.651   5.400 -1.6624  1.3567  0.6734
  184MOL0     H25344   9.876   1.812   5.180 -0.6300  0.6565  0.5122
  184MOL0     H25345   9.971   1.739   5.318 -0.8768  1.3860  1.3093
  184MOL0     H25346   9.937   1.531   5.288 -0.8538 -1.0385  0.0775
  184MOL0     H25347   9.821   1.554   5.145  0.4196 -2.7636  0.9786
  184MOL0     H25348  10.010   1.475   5.043  0.5550 -0.4970  0.6091
  184MOL0     H25349  10.030   1.646   5.023  3.0251  1.9493  2.2508
  184MOL0     H25350  10.190   1.484   4.916 -0.1446 -0.4445  1.0980
  184MOL0     H25351  10.438   1.533   4.697  2.3011 -1.8540 -1.4994
  184MOL0     H25352  10.322   1.405   4.724 -0.7161  1.0157 -0.7566
  184MOL0     H25353  10.498   1.382   4.757 -0.1985 -0.3235  0.9228
  184MOL0     H25354  10.783   1.257   4.839 -0.7728 -0.2549  2.8506
  184MOL0     H25355  10.989   1.194   4.767  2.6267 -2.0892  3.8294
  184MOL0     H25356  11.293   1.133   4.861  0.3153  0.2484 -0.4615
  184MOL0     H25357  11.172   1.131   4.734 -1.1763  3.4910 -1.1665
  184MOL0     H25358  11.410   1.085   4.637  3.1960 -0.3769 -0.4253
  184MOL0     H25359  11.313   1.225   4.576  0.8488 -1.3210 -0.0960
  184MOL0     H25360  11.463   1.376   4.714 -1.2897 -0.9223 -2.0398
  184MOL0     H25361  11.564   1.263   4.626 -0.3023  0.1662 -0.9282
  184MOL0     H25362  11.561   1.108   4.813 -0.5807  0.5927 -1.6794
  184MOL0     H25363  11.469   1.227   4.917  0.1893  0.8719  0.8152
  184MOL0     H25364  11.719   1.317   4.799 -2.8846 -2.9682 -2.5681
  184MOL0     H25365  11.631   1.380   4.946  2.7431 -0.2357  2.7463
  184MOL0     H25366  11.768   1.119   4.945  2.2528 -0.2310  1.2773
  184MOL0     H25367  11.669   1.186   5.062  0.3390 -4.8149 -0.8606
  184MOL0     H25368  11.844   1.394   5.064  0.5266 -0.8954 -0.6150
  184MOL0     H25369  11.924   1.312   4.933  0.4627  0.0484 -0.1109
  184MOL0     H25370  12.008   1.297   5.175 -1.1337  0.8850  0.0423
  184MOL0     H25371  11.980   1.138   5.088 -1.8602 -0.4794 -1.6792
  184MOL0     H25372  11.189   1.492   4.989 -0.3843  0.8295 -0.2114
  184MOL0     H25373  10.979   1.576   5.068  0.5705 -0.1272 -0.3272
  184MOL0     H25374  10.590   1.607   5.169 -0.4080  0.1340  1.2182
  184MOL0     H25375  10.368   1.653   5.265 -3.7120  0.1746  0.3213
  184MOL0     H25376   8.871   2.567   6.189 -6.7194  3.0041  0.7162
  184MOL0     H25377   8.634   2.564   6.110 -1.0395 -0.5089 -0.1122
  184MOL0     H25378   8.326   2.244   5.959  0.9267 -0.6686 -1.2232
  184MOL0     H25379   8.085   2.208   5.936  2.2070 -0.0708  1.1008
  184MOL0     H25380   7.866   2.191   5.870 -0.1623  0.9485 -2.2381
  184MOL0     H25381   7.858   2.296   6.017  0.8308 -1.2790  0.1520
  184MOL0     H25382   7.655   2.175   5.929  0.8073 -0.2341  0.0233
  184MOL0     H25383   7.648   2.290   5.791  3.3547 -1.8798 -0.4078
  184MOL0     H25384   7.618   2.348   6.092  1.1958 -0.0513 -1.0427
  184MOL0     H25385   7.639   2.479   5.973  0.3858  1.1157  0.6966
  184MOL0     H25386   7.424   2.275   5.942  0.1933  0.3762 -2.9278
  184MOL0     H25387   7.438   2.432   5.855 -2.5330 -1.9013 -0.4905
  184MOL0     H25388   7.219   2.509   6.221 -0.4687  1.3315 -1.0669
  184MOL0     H25389   8.020   2.603   5.789  0.6112  0.2392  1.1879
  184MOL0     H25390   8.353   2.712   5.780  1.6142 -0.9057  1.4175
  184MOL0     H25391   8.181   2.752   5.795 -2.2420 -0.5867  2.2342
  184MOL0     H25392   8.272   2.721   5.942 -1.9514 -0.1114 -0.3523
  185MOL0     O25393   7.803  11.370   9.356  0.2100 -0.0624  0.0409
  185MOL0     C25394   7.734  11.295   9.287  0.4006  0.3200  0.1893
  185MOL0     O25395   7.785  11.207   9.195  0.2262  0.3088 -0.3118
  185MOL0     C25396   7.916  11.231   9.153  0.1025 -0.0668  0.6776
  185MOL0     C25397   7.968  11.339   9.083  0.3176 -0.2667  1.0698
  185MOL0     C25398   8.106  11.360   9.057 -0.8314 -0.7181 -0.1998
  185MOL0     C25399   8.196  11.262   9.082  0.3656 -0.4408 -0.3317
  185MOL0     O25400   8.332  11.267   9.073 -0.2629 -0.4704  0.5477
  185MOL0     C25401   8.402  11.389   9.103 -0.0034  0.3717  0.2940
  185MOL0     C25402   8.385  11.440   9.248  0.4841  0.1341 -0.1629
  185MOL0     C25403   8.447  11.363   9.365 -0.9721  0.0172 -0.5899
  185MOL0     C25404   8.595  11.398   9.390 -0.3328  0.6817  0.0294
  185MOL0     C25405   8.651  11.336   9.516 -0.1383 -0.3625  0.5790
  185MOL0     C25406   8.688  11.190   9.497 -0.4079  0.9732  0.2116
  185MOL0     C25407   8.754  11.128   9.618  0.2478 -0.5091 -0.4092
  185MOL0     C25408   8.676  11.164   9.747 -0.7707  0.5957  0.0255
  185MOL0     N25409   8.712  11.075   9.861  0.2469 -0.2596  1.0683
  185MOL0     C25410   8.837  11.046   9.901 -0.0270 -0.0834 -0.4999
  185MOL0     C25411   8.816  10.984  10.023  0.3591  0.2046 -0.3716
  185MOL0     C25412   8.917  10.927  10.122 -0.7041  0.4571 -0.1455
  185MOL0     C25413   9.029  11.033  10.145  0.0701  0.3464 -0.6765
  185MOL0     C25414   9.119  11.010  10.267  1.5043 -0.1347  0.2088
  185MOL0     C25415   9.241  11.094  10.257  0.6295 -0.2916 -0.3513
  185MOL0     O25416   9.334  11.054  10.163 -0.4311 -0.9342  0.6233
  185MOL0     C25417   9.450  11.120  10.132 -0.3281 -0.3958  0.2030
  185MOL0     C25418   9.490  11.243  10.188  0.0040 -0.6224  0.2405
  185MOL0     C25419   9.598  11.315  10.128 -0.7651  0.1984  0.0100
  185MOL0     C25420   9.636  11.440  10.196 -0.5709  0.0566  0.3533
  185MOL0     C25421   9.668  11.260  10.018 -0.3820 -0.1190 -0.6263
  185MOL0     C25422   9.787  11.330   9.954  0.3025  0.4566 -0.7059
  185MOL0     O25423   9.892  11.256   9.924 -0.7054 -0.3469 -0.3072
  185MOL0     C25424  10.007  11.318   9.879 -0.1512  0.5794 -0.3108
  185MOL0     C25425  10.057  11.291   9.750  0.0266 -0.0622 -0.2091
  185MOL0     C25426  10.180  11.346   9.719  0.1922  0.7866  0.1897
  185MOL0     C25427  10.261  11.417   9.810 -0.2440  0.2886  0.5469
  185MOL0     O25428  10.387  11.442   9.772 -0.3360  0.3676  0.0357
  185MOL0     C25429  10.455  11.545   9.847 -0.4334  0.8343 -0.2782
  185MOL0     C25430  10.591  11.577   9.770 -0.0320 -0.6889  0.0977
  185MOL0     C25431  10.709  11.615   9.870 -0.1967 -0.0043  0.1292
  185MOL0     C25432  10.756  11.480   9.942  0.0644  0.5066  0.7123
  185MOL0     C25433  10.826  11.382   9.856  0.0068  0.3690 -0.1613
  185MOL0     C25434  10.969  11.427   9.837 -0.2505 -0.5325 -0.2895
  185MOL0     C25435  11.044  11.370   9.713 -0.4017  0.4947 -0.1253
  185MOL0     C25436  11.083  11.225   9.732  1.0100  0.2382  0.8571
  185MOL0    Cl25437  11.188  11.174   9.599 -0.0710  0.3776  0.1587
  185MOL0     C25438  10.214  11.434   9.937 -0.8073 -0.3790  0.1854
  185MOL0     C25439  10.098  11.374   9.977 -0.4626 -0.2966  0.0041
  185MOL0     O25440   9.768  11.450   9.927  0.0417  0.2698 -0.4475
  185MOL0     C25441   9.636  11.131   9.981 -0.6324  0.5633  1.2223
  185MOL0     C25442   9.530  11.064  10.034  0.0155 -0.3389 -0.3889
  185MOL0     N25443   8.685  10.970  10.049  0.3283  0.1046  0.2850
  185MOL0     N25444   8.622  11.032   9.952  0.7771 -0.0536  0.2910
  185MOL0     C25445   8.143  11.144   9.131  0.0341  1.1703 -0.0329
  185MOL0     C25446   8.009  11.127   9.170 -0.2194  0.0881 -0.5894
  185MOL0     C25447   7.590  11.275   9.318 -0.1389  0.3255 -0.0817
  185MOL0     C25448   7.521  11.164   9.265 -0.5462 -0.5363 -0.2018
  185MOL0     C25449   7.386  11.146   9.289 -0.6548 -0.2043  0.5531
  185MOL0     C25450   7.311  11.240   9.352 -0.1468 -0.2063 -0.5004
  185MOL0     O25451   7.175  11.221   9.374 -0.6825 -0.3014 -0.3712
  185MOL0     C25452   7.146  11.209   9.508 -0.1013 -0.6589 -0.2468
  185MOL0     C25453   7.189  11.070   9.568  0.3250 -0.0932  0.0368
  185MOL0     C25454   7.079  10.961   9.545 -0.0664 -0.9214 -0.1272
  185MOL0     C25455   7.015  10.904   9.670 -0.7761  0.2438 -1.0097
  185MOL0     C25456   6.940  11.005   9.745 -0.7858 -0.8217 -0.4437
  185MOL0     C25457   6.882  11.090   9.800 -0.2636  0.6903  0.0863
  185MOL0     C25458   7.378  11.354   9.401  0.3177  0.4132 -0.4953
  185MOL0     C25459   7.517  11.370   9.396 -0.1269  0.3433 -0.0854
  185MOL0     C25460   7.575  11.496   9.466 -0.1825 -0.1887  0.3652
  185MOL0     H25461   7.899  11.420   9.065  0.8755 -0.0806 -0.4737
  185MOL0     H25462   8.145  11.453   9.015 -0.6831 -0.7762 -0.1876
  185MOL0     H25463   8.381  11.471   9.035  0.7813  2.2457  2.2029
  185MOL0     H25464   8.508  11.362   9.096  0.1072  0.4272  1.4862
  185MOL0     H25465   8.426  11.542   9.245  1.6242 -0.3289 -0.9329
  185MOL0     H25466   8.278  11.449   9.270  0.4381 -0.8493  0.0489
  185MOL0     H25467   8.403  11.385   9.462 -1.8675 -0.1425 -0.9518
  185MOL0     H25468   8.423  11.258   9.348  0.6179 -0.9823  2.6385
  185MOL0     H25469   8.658  11.370   9.305 -0.0705  1.8963 -0.1911
  185MOL0     H25470   8.600  11.507   9.399  1.4014  0.4928  2.3559
  185MOL0     H25471   8.585  11.356   9.601 -0.4222 -0.0776  0.2917
  185MOL0     H25472   8.742  11.393   9.538 -1.3681  1.5733  0.9534
  185MOL0     H25473   8.604  11.130   9.460  1.9731 -2.5310 -0.0313
  185MOL0     H25474   8.752  11.189   9.408 -1.7501  2.9513 -0.8318
  185MOL0     H25475   8.855  11.170   9.626 -0.0290  0.8066 -2.9732
  185MOL0     H25476   8.758  11.020   9.604  1.3735 -0.5011 -0.2064
  185MOL0     H25477   8.706  11.263   9.780  2.5065 -0.0543 -0.6085
  185MOL0     H25478   8.570  11.170   9.722 -1.5125  0.7326  2.9048
  185MOL0     H25479   8.925  11.074   9.845 -0.6162  1.4452 -0.7354
  185MOL0     H25480   8.963  10.837  10.080 -0.0438 -0.3358  2.1742
  185MOL0     H25481   8.857  10.895  10.207 -0.7403  1.6249  0.2776
  185MOL0     H25482   9.095  11.027  10.057 -0.8343  2.0468 -1.5184
  185MOL0     H25483   8.982  11.131  10.145 -2.6614 -0.8599  0.0778
  185MOL0     H25484   9.071  11.018  10.365  0.1781 -1.0211 -0.3438
  185MOL0     H25485   9.141  10.903  10.265 -3.3462 -1.3528  0.1655
  185MOL0     H25486   9.212  11.199  10.250 -1.8033 -0.9641 -1.3743
  185MOL0     H25487   9.288  11.079  10.354 -0.4519  0.2751  0.2674
  185MOL0     H25488   9.449  11.282  10.280  1.9170 -0.5715  1.1187
  185MOL0     H25489   9.698  11.504  10.131 -0.9570 -0.0872 -0.1560
  185MOL0     H25490   9.698  11.403  10.278 -0.7688 -2.8480 -0.6956
  185MOL0     H25491   9.552  11.506  10.219 -2.1187 -0.9621 -2.0344
  185MOL0     H25492   9.985  11.237   9.689 -3.9775  3.4311  0.9245
  185MOL0     H25493  10.225  11.336   9.621  3.4130  1.0555  1.5427
  185MOL0     H25494  10.391  11.633   9.831 -0.9412  0.2433 -1.6626
  185MOL0     H25495  10.485  11.521   9.949  0.0026 -1.3890 -0.8756
  185MOL0     H25496  10.633  11.498   9.707 -1.6674  0.1583 -2.1625
  185MOL0     H25497  10.570  11.661   9.704 -1.1219 -2.5621 -2.1041
  185MOL0     H25498  10.674  11.691   9.940  4.1043  1.2181  1.2487
  185MOL0     H25499  10.799  11.653   9.822  1.0327  1.2520  3.1663
  185MOL0     H25500  10.674  11.422   9.985  0.9970  0.0644  1.9570
  185MOL0     H25501  10.828  11.505  10.020  1.5968  2.1147 -1.0994
  185MOL0     H25502  10.838  11.298   9.924 -0.2884  1.0429  0.7501
  185MOL0     H25503  10.780  11.357   9.761  2.1028  2.2875 -1.8122
  185MOL0     H25504  11.021  11.431   9.933  0.5636  4.0819 -0.6725
  185MOL0     H25505  10.963  11.533   9.810 -2.5899 -0.3491  0.7039
  185MOL0     H25506  11.138  11.425   9.706 -0.3044  0.4205  0.4955
  185MOL0     H25507  10.987  11.392   9.622  1.4604 -2.5949 -2.1982
  185MOL0     H25508  10.990  11.168   9.725  1.3854 -0.1838 -1.4582
  185MOL0     H25509  11.136  11.202   9.825 -0.0730 -1.4166  1.1102
  185MOL0     H25510  10.269  11.494  10.008 -0.8823  2.6827 -2.1368
  185MOL0     H25511  10.060  11.376  10.079  1.2552 -1.2688  0.7118
  185MOL0     H25512   9.688  11.074   9.904 -2.3185 -0.5146  0.8242
  185MOL0     H25513   9.491  10.972   9.992  3.2713 -2.3934  0.7021
  185MOL0     H25514   8.218  11.067   9.139  0.1967  1.4913  2.2517
  185MOL0     H25515   7.980  11.026   9.194 -1.1343  0.7165  1.1689
  185MOL0     H25516   7.565  11.085   9.205 -0.8594 -1.4862  0.7851
  185MOL0     H25517   7.348  11.048   9.265  0.8710 -0.4309 -1.1394
  185MOL0     H25518   7.187  11.296   9.559 -1.3355  0.2757 -0.7969
  185MOL0     H25519   7.039  11.223   9.520  0.2863  1.0635  1.7401
  185MOL0     H25520   7.205  11.092   9.674 -2.5678 -0.2292  0.5900
  185MOL0     H25521   7.287  11.033   9.536  1.7130  3.3751 -0.0762
  185MOL0     H25522   6.996  10.998   9.484  0.9846  1.7934 -0.0470
  185MOL0     H25523   7.133  10.877   9.500 -0.8556 -1.6834  0.3216
  185MOL0     H25524   7.091  10.863   9.738 -0.7015 -0.6551 -1.6164
  185MOL0     H25525   6.946  10.821   9.655  1.3516 -1.5149 -1.6707
  185MOL0     H25526   6.841  11.179   9.844 -0.4638  0.2293  0.8686
  185MOL0     H25527   7.315  11.424   9.456  0.2774 -1.1279  1.5353
  185MOL0     H25528   7.671  11.483   9.516 -0.0501  0.7789  0.3867
  185MOL0     H25529   7.578  11.585   9.402 -0.8460  0.5604  1.3480
  185MOL0     H25530   7.505  11.503   9.549  0.0260  0.9044  0.4616
  186MOL0     O25531   9.559   5.476   8.615  0.3438  0.2132  0.1606
  186MOL0     C25532   9.516   5.589   8.644 -0.8291  0.0054 -0.0106
  186MOL0     O25533   9.594   5.684   8.700  0.3612 -0.8465 -1.0858
  186MOL0     C25534   9.716   5.653   8.751  0.6329  0.0144 -0.3141
  186MOL0     C25535   9.739   5.560   8.852  0.1173  0.7416 -0.1897
  186MOL0     C25536   9.875   5.555   8.891 -0.9911  1.0993  0.2175
  186MOL0     C25537   9.988   5.629   8.836  0.4400 -0.4525  1.2487
  186MOL0     O25538  10.120   5.609   8.874  0.6313 -0.2076 -0.4458
  186MOL0     C25539  10.214   5.717   8.888  0.2211 -0.1195  0.8114
  186MOL0     C25540  10.359   5.672   8.889  0.1867 -0.0191  0.0172
  186MOL0     C25541  10.460   5.782   8.861 -0.5729  0.6667 -0.4514
  186MOL0     C25542  10.608   5.729   8.838  0.1127  0.4115  0.0985
  186MOL0     C25543  10.692   5.854   8.832  0.0906 -0.3979 -1.0656
  186MOL0     C25544  10.834   5.829   8.799 -0.1374 -0.2972 -0.0122
  186MOL0     C25545  10.940   5.932   8.846  0.5236  0.1374  1.0008
  186MOL0     C25546  10.931   6.070   8.767  0.3243  0.6491  0.3465
  186MOL0     N25547  11.057   6.141   8.779 -0.4503  0.3140  0.7654
  186MOL0     C25548  11.091   6.232   8.873 -1.0417  0.3721  0.0205
  186MOL0     C25549  11.202   6.293   8.824  0.0426  0.8563 -0.4545
  186MOL0     C25550  11.290   6.380   8.909  0.0427  0.2885  0.1011
  186MOL0     C25551  11.430   6.392   8.859 -0.0447 -0.6139 -0.4074
  186MOL0     C25552  11.510   6.290   8.934  0.2160  0.4468  0.0008
  186MOL0     C25553  11.649   6.300   8.872 -0.5982 -1.0169 -0.0794
  186MOL0     O25554  11.716   6.420   8.913 -0.6276  0.5330  0.3539
  186MOL0     C25555  11.847   6.427   8.871 -0.9390  0.3267 -0.0786
  186MOL0     C25556  11.931   6.500   8.959  0.2865  0.0066  0.3990
  186MOL0     C25557  12.073   6.502   8.946 -0.2903  0.0651  0.3987
  186MOL0     C25558  12.146   6.604   9.022  0.7008 -0.1077 -0.7250
  186MOL0     C25559  12.132   6.416   8.850  0.1743  0.7480  0.0036
  186MOL0     C25560  12.281   6.395   8.840 -0.0625  0.6065  0.4939
  186MOL0     O25561  12.323   6.309   8.743  0.3618 -0.1540 -0.3638
  186MOL0     C25562  12.451   6.305   8.693 -0.8273 -0.4785  0.4487
  186MOL0     C25563  12.546   6.409   8.694  1.6316 -0.1628 -0.0703
  186MOL0     C25564  12.656   6.402   8.612  0.2175 -1.3429 -0.0412
  186MOL0     C25565  12.678   6.294   8.531  0.4463  1.1246 -0.8795
  186MOL0     O25566  12.801   6.304   8.468  0.1930  0.2034 -1.2948
  186MOL0     C25567  12.866   6.170   8.470  0.2855 -0.6419 -0.7673
  186MOL0     C25568  13.018   6.186   8.441 -0.7704  0.7171 -0.0712
  186MOL0     C25569  13.114   6.232   8.544  0.1080 -1.0618 -0.6263
  186MOL0     C25570  13.082   6.192   8.688 -0.2648 -0.6152 -0.5170
  186MOL0     C25571  13.201   6.218   8.785  0.6993  0.7964  0.0120
  186MOL0     C25572  13.168   6.195   8.933 -0.1226  1.1932 -0.0673
  186MOL0     C25573  13.288   6.223   9.020 -0.2581  0.5184 -0.3503
  186MOL0     C25574  13.261   6.222   9.172  0.7703 -0.4772  0.6901
  186MOL0    Cl25575  13.122   6.341   9.226  0.0862 -0.0214  0.1108
  186MOL0     C25576  12.592   6.190   8.529  0.1265 -0.8057 -0.0153
  186MOL0     C25577  12.475   6.201   8.611  0.1268  0.3754  0.2641
  186MOL0     O25578  12.360   6.473   8.898  0.1561 -0.1337  0.0426
  186MOL0     C25579  12.046   6.340   8.760  0.9749  0.2947  0.0650
  186MOL0     C25580  11.909   6.354   8.768 -0.2878  0.2521  0.3096
  186MOL0     N25581  11.245   6.226   8.710  0.1469  0.0400 -0.0525
  186MOL0     N25582  11.148   6.150   8.675 -0.4409  0.5454 -0.0673
  186MOL0     C25583   9.947   5.724   8.735  0.6458  0.3767  0.1148
  186MOL0     C25584   9.818   5.736   8.694  0.6132  0.2802 -0.4502
  186MOL0     C25585   9.373   5.634   8.605  0.1359 -0.5355  0.2967
  186MOL0     C25586   9.336   5.766   8.618 -0.1998 -0.1794 -1.0298
  186MOL0     C25587   9.204   5.819   8.577 -0.5062  0.4240 -0.6276
  186MOL0     C25588   9.104   5.731   8.538 -0.1699 -0.7356 -0.7239
  186MOL0     O25589   8.976   5.787   8.521  0.4299 -0.2384 -0.4548
  186MOL0     C25590   8.886   5.737   8.625 -0.3390 -0.1065 -0.1240
  186MOL0     C25591   8.896   5.819   8.756 -0.5839  0.5678  0.2168
  186MOL0     C25592   8.805   5.772   8.869  0.1321 -1.1051 -0.2406
  186MOL0     C25593   8.830   5.865   8.987  0.2413 -0.0149 -0.6100
  186MOL0     C25594   8.940   5.815   9.074  1.2526 -0.1580 -0.9545
  186MOL0     C25595   9.009   5.762   9.155 -1.8904  0.1364 -0.0299
  186MOL0     C25596   9.140   5.599   8.520 -0.0308 -0.5512  0.2032
  186MOL0     C25597   9.273   5.548   8.551 -0.0964 -0.8837 -0.1794
  186MOL0     C25598   9.306   5.413   8.511 -0.3154 -0.9529  0.6880
  186MOL0     H25599   9.653   5.504   8.889  0.5418  1.0814  1.3854
  186MOL0     H25600   9.910   5.478   8.960  0.9849  2.1317  0.4280
  186MOL0     H25601  10.195   5.785   8.972 -0.5706 -1.2766  1.6133
  186MOL0     H25602  10.208   5.785   8.803  1.8919 -0.1383  0.6503
  186MOL0     H25603  10.374   5.625   8.987 -2.6242 -0.7881  0.1522
  186MOL0     H25604  10.371   5.600   8.807 -0.2152  2.5182 -2.4056
  186MOL0     H25605  10.418   5.836   8.775  1.0439 -0.2496 -1.8795
  186MOL0     H25606  10.475   5.855   8.941  0.7406 -0.4617  0.3872
  186MOL0     H25607  10.641   5.670   8.924 -1.0297  2.2500  1.8861
  186MOL0     H25608  10.613   5.666   8.749 -0.5469 -1.5533  1.3870
  186MOL0     H25609  10.683   5.886   8.936 -6.2739  1.5802 -1.8075
  186MOL0     H25610  10.650   5.934   8.771 -0.0082  0.7163  0.4291
  186MOL0     H25611  10.862   5.739   8.856 -1.0585  1.0432  2.7384
  186MOL0     H25612  10.854   5.789   8.699 -0.7725  0.4591 -0.4497
  186MOL0     H25613  11.031   5.880   8.816 -1.5529 -2.5910 -1.0999
  186MOL0     H25614  10.940   5.947   8.955 -0.4172 -0.1595  1.0529
  186MOL0     H25615  10.912   6.034   8.665 -0.7286  2.4064 -0.1189
  186MOL0     H25616  10.849   6.138   8.791 -0.5128  0.4093 -1.5984
  186MOL0     H25617  11.043   6.238   8.970  2.9092 -2.3771  2.4476
  186MOL0     H25618  11.286   6.355   9.016  0.3129  0.7623  0.2269
  186MOL0     H25619  11.245   6.480   8.916 -2.8976 -0.8978 -0.1880
  186MOL0     H25620  11.442   6.381   8.750  1.6618 -0.5192 -0.2518
  186MOL0     H25621  11.471   6.492   8.878  0.0429 -0.5893 -0.7157
  186MOL0     H25622  11.510   6.309   9.042 -1.0379  1.6153 -0.1745
  186MOL0     H25623  11.458   6.193   8.929  2.4429 -0.8730  1.0952
  186MOL0     H25624  11.723   6.223   8.897  0.8302  0.2603 -0.2497
  186MOL0     H25625  11.630   6.294   8.764  3.7374 -1.9135 -0.9836
  186MOL0     H25626  11.886   6.552   9.043 -0.7261 -1.0676  0.5494
  186MOL0     H25627  12.077   6.680   9.061  0.9053 -1.3264  2.2809
  186MOL0     H25628  12.227   6.651   8.966  0.1005  0.2501 -1.2951
  186MOL0     H25629  12.188   6.548   9.106 -0.1007 -0.4105 -0.5192
  186MOL0     H25630  12.547   6.493   8.763 -1.1445 -1.6700  1.9924
  186MOL0     H25631  12.726   6.483   8.621 -1.3090 -0.0480  0.6354
  186MOL0     H25632  12.857   6.110   8.561  4.4432  1.5061  1.3521
  186MOL0     H25633  12.814   6.118   8.389  0.4539  0.4802 -1.6244
  186MOL0     H25634  13.039   6.083   8.412 -1.8381  1.3934 -3.8416
  186MOL0     H25635  13.028   6.242   8.348 -0.7463 -0.7443 -0.9849
  186MOL0     H25636  13.121   6.341   8.542 -3.3192 -0.7327 -0.4104
  186MOL0     H25637  13.211   6.192   8.514 -1.0937 -5.0064  0.1868
  186MOL0     H25638  13.052   6.087   8.686  0.6838 -0.9026 -1.9209
  186MOL0     H25639  12.995   6.249   8.720 -0.1388  0.5636 -2.1602
  186MOL0     H25640  13.283   6.152   8.756  1.6135  1.4672  0.9684
  186MOL0     H25641  13.245   6.318   8.783 -1.3622  1.8487  2.1105
  186MOL0     H25642  13.135   6.091   8.940  0.9369  0.5895 -2.8870
  186MOL0     H25643  13.077   6.243   8.971 -3.0089 -1.0730 -3.4182
  186MOL0     H25644  13.303   6.330   9.000 -2.4768  1.0747  0.5620
  186MOL0     H25645  13.374   6.158   9.002 -1.7488 -2.0842  1.2377
  186MOL0     H25646  13.354   6.241   9.227  1.7052 -1.7993 -0.3613
  186MOL0     H25647  13.223   6.122   9.194 -1.9134  0.2455 -0.3357
  186MOL0     H25648  12.608   6.102   8.469  0.8795  0.6584 -2.0594
  186MOL0     H25649  12.399   6.125   8.595 -0.2180  1.0651 -1.5600
  186MOL0     H25650  12.082   6.267   8.689  4.8345 -0.0649  2.1283
  186MOL0     H25651  11.844   6.292   8.707  0.2102 -0.8987  0.9067
  186MOL0     H25652  10.016   5.780   8.671  2.9933 -4.3036 -1.9343
  186MOL0     H25653   9.790   5.810   8.619 -2.3248 -1.9539 -1.7787
  186MOL0     H25654   9.417   5.831   8.649 -0.7746  1.1101 -2.1223
  186MOL0     H25655   9.171   5.922   8.574  2.1068  1.3397 -0.1188
  186MOL0     H25656   8.786   5.761   8.587 -0.5690  1.0264  1.1251
  186MOL0     H25657   8.892   5.630   8.644 -1.3998 -0.4873 -1.7003
  186MOL0     H25658   8.882   5.924   8.728 -0.6955 -0.2417 -3.2958
  186MOL0     H25659   8.998   5.806   8.795 -0.6317  1.1380  0.5487
  186MOL0     H25660   8.700   5.770   8.838  0.5568 -0.5903 -1.8140
  186MOL0     H25661   8.827   5.673   8.908  2.6077 -0.5158  0.0562
  186MOL0     H25662   8.734   5.861   9.039 -0.0593  1.9883 -0.9168
  186MOL0     H25663   8.862   5.966   8.960 -0.2680  0.9208  1.9898
  186MOL0     H25664   9.070   5.715   9.228 -0.7466  0.6035 -0.6571
  186MOL0     H25665   9.066   5.525   8.489 -0.7357 -0.0281  0.5953
  186MOL0     H25666   9.325   5.354   8.601  0.3586  0.3876  1.4563
  186MOL0     H25667   9.224   5.363   8.459  1.8812 -1.8950 -2.0911
  186MOL0     H25668   9.380   5.414   8.431 -0.9935  1.0680  0.0310
  187MOL0     O25669   3.256   2.983  10.744  1.2063 -0.3576  0.2723
  187MOL0     C25670   3.215   2.986  10.626 -0.6072  0.5445 -0.5631
  187MOL0     O25671   3.247   3.081  10.544  0.2746  0.3218 -0.2793
  187MOL0     C25672   3.385   3.105  10.529  0.2244  0.2964  0.9025
  187MOL0     C25673   3.417   3.228  10.464 -0.2090  0.0287  0.3202
  187MOL0     C25674   3.545   3.255  10.419 -0.1676  0.9867 -0.9428
  187MOL0     C25675   3.656   3.180  10.471  0.8579  0.3654  0.0788
  187MOL0     O25676   3.784   3.200  10.429 -0.7730  0.2625  0.2088
  187MOL0     C25677   3.833   3.333  10.391 -0.0869  0.4570  0.1250
  187MOL0     C25678   3.977   3.313  10.349  0.7479 -0.7307 -1.2021
  187MOL0     C25679   4.041   3.444  10.291  0.2682 -0.0077 -0.0941
  187MOL0     C25680   4.190   3.442  10.316  0.6198  0.5392  0.0715
  187MOL0     C25681   4.260   3.567  10.259 -0.1200  0.2493  0.0781
  187MOL0     C25682   4.419   3.569  10.267 -0.9225  0.8298  0.5617
  187MOL0     C25683   4.465   3.704  10.209  1.0949  0.1853  0.0789
  187MOL0     C25684   4.615   3.712  10.215  0.7192  0.0285  0.2263
  187MOL0     N25685   4.688   3.626  10.113  0.2110  0.2396  0.0146
  187MOL0     C25686   4.668   3.628   9.975  0.0756 -0.1197  0.0853
  187MOL0     C25687   4.773   3.568   9.909  0.6232 -0.0664  0.0398
  187MOL0     C25688   4.779   3.512   9.767 -0.3906 -0.3054 -0.6611
  187MOL0     C25689   4.905   3.539   9.690 -0.3579 -0.4504  0.3327
  187MOL0     C25690   4.913   3.469   9.554 -0.5842 -0.2867 -1.2046
  187MOL0     C25691   5.058   3.469   9.502 -0.1380  0.0631 -0.6199
  187MOL0     O25692   5.088   3.590   9.452  0.0034 -0.2774 -0.0764
  187MOL0     C25693   5.190   3.673   9.496 -0.3262 -0.0770  0.2847
  187MOL0     C25694   5.228   3.787   9.425 -0.1161 -0.5659  0.3026
  187MOL0     C25695   5.332   3.871   9.466 -0.2682 -0.9559  0.3795
  187MOL0     C25696   5.363   4.005   9.395 -0.5544 -0.4257  0.3872
  187MOL0     C25697   5.398   3.840   9.588 -0.8666  0.0482 -0.2500
  187MOL0     C25698   5.510   3.921   9.650  0.1861  0.1781  0.0822
  187MOL0     O25699   5.550   3.876   9.777  0.0249 -0.1207  0.2827
  187MOL0     C25700   5.673   3.923   9.813 -0.1279 -0.2670 -0.3484
  187MOL0     C25701   5.770   3.854   9.752 -0.4613  0.4724  0.0847
  187MOL0     C25702   5.905   3.885   9.778  0.3645  0.4439  0.1886
  187MOL0     C25703   5.936   3.982   9.874  0.6211 -0.4111  0.5023
  187MOL0     O25704   6.066   3.995   9.912 -0.0936  0.2808 -0.7065
  187MOL0     C25705   6.089   4.050  10.042 -0.7923  0.5121  0.0008
  187MOL0     C25706   6.240   4.034  10.071  0.1403  0.4541 -0.1462
  187MOL0     C25707   6.313   4.140   9.982  0.4727 -0.4816 -0.2018
  187MOL0     C25708   6.455   4.128  10.006 -0.2648  0.2842  0.7281
  187MOL0     C25709   6.537   4.227   9.921  0.5570  0.3505 -0.2253
  187MOL0     C25710   6.686   4.211   9.947 -0.1626 -0.1555  0.0355
  187MOL0     C25711   6.767   4.326   9.888  0.2698  0.0791  0.9789
  187MOL0     C25712   6.917   4.304   9.910  0.3037  0.2315 -0.2767
  187MOL0    Cl25713   7.003   4.444   9.856  0.0303  0.5136  0.3552
  187MOL0     C25714   5.831   4.050   9.937  0.5272  0.7334  0.5036
  187MOL0     C25715   5.697   4.022   9.900  0.4176 -0.0083 -1.5013
  187MOL0     O25716   5.571   4.009   9.585  0.5141  0.1592  0.4239
  187MOL0     C25717   5.372   3.717   9.653  0.4907 -0.8061  0.7150
  187MOL0     C25718   5.275   3.638   9.606 -0.5912  0.3324 -0.4515
  187MOL0     N25719   4.850   3.528  10.016 -0.2620  0.4064 -0.1527
  187MOL0     N25720   4.811   3.571  10.131 -0.5109 -0.4361  0.4931
  187MOL0     C25721   3.630   3.056  10.539  0.0072 -0.3003  0.4011
  187MOL0     C25722   3.497   3.019  10.561  1.4464 -0.3827 -0.3097
  187MOL0     C25723   3.126   2.873  10.582 -0.2287  0.2467 -0.0506
  187MOL0     C25724   3.092   2.872  10.445  0.4488 -0.6554  0.7290
  187MOL0     C25725   3.019   2.768  10.394 -0.1438 -0.4209  0.5216
  187MOL0     C25726   2.966   2.659  10.474 -0.0754 -1.6566 -1.1122
  187MOL0     O25727   2.891   2.550  10.451 -0.4629 -0.2388 -0.2165
  187MOL0     C25728   2.854   2.530  10.312 -0.3462  0.6286 -0.2956
  187MOL0     C25729   2.801   2.390  10.290 -1.0167  0.5400  0.4014
  187MOL0     C25730   2.669   2.353  10.362  0.2673 -0.6114 -0.4206
  187MOL0     C25731   2.535   2.412  10.311  0.6653 -0.9372 -0.2671
  187MOL0     C25732   2.488   2.353  10.185  0.1624  0.5768  0.6058
  187MOL0     C25733   2.449   2.328  10.070  0.8253  0.8352  0.0961
  187MOL0     C25734   2.993   2.681  10.617 -0.5209 -0.1714 -0.0116
  187MOL0     C25735   3.080   2.773  10.666 -0.1260 -0.2071  0.0463
  187MOL0     C25736   3.094   2.772  10.821  0.4607 -0.0210  0.1285
  187MOL0     H25737   3.333   3.285  10.425 -0.2456  0.3857  0.9110
  187MOL0     H25738   3.568   3.334  10.348 -1.8856  3.1370  0.7245
  187MOL0     H25739   3.830   3.407  10.472  1.3371  0.8109 -0.1173
  187MOL0     H25740   3.777   3.367  10.304  0.0900 -0.0249 -0.1823
  187MOL0     H25741   4.039   3.297  10.437  3.4416  2.9187 -2.1724
  187MOL0     H25742   3.978   3.234  10.273 -2.7291  1.1615 -3.5054
  187MOL0     H25743   4.012   3.464  10.187 -0.1954 -1.6454 -0.3223
  187MOL0     H25744   4.007   3.530  10.349  3.3520  1.5835 -0.4578
  187MOL0     H25745   4.211   3.427  10.422  0.7827 -1.9969 -0.2606
  187MOL0     H25746   4.219   3.343  10.278 -5.3425 -1.5639  0.0887
  187MOL0     H25747   4.212   3.654  10.303 -1.3555  1.1160 -2.7367
  187MOL0     H25748   4.244   3.571  10.151  1.2672  1.0884 -0.1157
  187MOL0     H25749   4.451   3.551  10.371  3.2798 -1.9266 -0.9544
  187MOL0     H25750   4.462   3.486  10.210 -0.4902  2.3515 -1.4288
  187MOL0     H25751   4.417   3.790  10.258 -0.3824 -1.3715  1.4995
  187MOL0     H25752   4.436   3.704  10.104 -1.4107 -0.6674  0.7068
  187MOL0     H25753   4.649   3.814  10.192  0.6352 -0.4295 -2.0996
  187MOL0     H25754   4.648   3.684  10.316  0.3991 -0.4390  0.2047
  187MOL0     H25755   4.579   3.662   9.923  0.2122 -1.1127 -0.8278
  187MOL0     H25756   4.696   3.548   9.706 -1.4223 -1.6769 -0.1350
  187MOL0     H25757   4.775   3.405   9.786  0.6100 -0.3645 -0.7246
  187MOL0     H25758   4.915   3.647   9.676  0.3632 -0.7169 -1.5385
  187MOL0     H25759   4.986   3.520   9.762 -0.3613 -0.0895  0.4365
  187MOL0     H25760   4.871   3.368   9.551  0.1114 -0.5687 -1.7791
  187MOL0     H25761   4.855   3.528   9.483 -1.0572  0.3278 -0.3146
  187MOL0     H25762   5.128   3.440   9.582  0.7559 -0.6158 -1.6315
  187MOL0     H25763   5.070   3.387   9.431 -1.4239 -2.5172  1.8987
  187MOL0     H25764   5.177   3.824   9.336  1.0299  0.1024 -0.1021
  187MOL0     H25765   5.285   4.015   9.320 -1.3832 -1.7929  1.0225
  187MOL0     H25766   5.458   4.007   9.341 -1.2135  0.3492 -0.7843
  187MOL0     H25767   5.362   4.097   9.454  0.5523  0.0756 -0.3403
  187MOL0     H25768   5.725   3.783   9.683 -0.7351 -0.3481  1.0762
  187MOL0     H25769   5.988   3.834   9.731 -0.6930  2.0387 -3.8411
  187MOL0     H25770   6.059   4.155  10.043 -0.3081  0.7040  3.0312
  187MOL0     H25771   6.029   4.003  10.120 -0.0095  0.7909  0.7915
  187MOL0     H25772   6.252   4.059  10.176  0.6169  2.7398 -0.6974
  187MOL0     H25773   6.273   3.931  10.056  0.1585  0.4942 -0.3845
  187MOL0     H25774   6.286   4.240  10.016 -0.1704 -1.1285  1.3260
  187MOL0     H25775   6.279   4.126   9.879 -3.8673  5.9758 -0.2561
  187MOL0     H25776   6.491   4.027   9.982  0.3365  0.2693  1.6245
  187MOL0     H25777   6.487   4.148  10.108  0.5889 -0.3865  0.6036
  187MOL0     H25778   6.507   4.213   9.817  3.4109 -1.7963 -0.8829
  187MOL0     H25779   6.503   4.330   9.939  1.0556  0.5527 -0.4354
  187MOL0     H25780   6.707   4.112   9.905 -1.0086  0.0235 -0.8490
  187MOL0     H25781   6.703   4.193  10.053 -2.0510 -1.1783  0.2136
  187MOL0     H25782   6.734   4.415   9.942 -0.6842 -0.5712  1.4909
  187MOL0     H25783   6.755   4.324   9.779  2.2315 -2.2521  0.7183
  187MOL0     H25784   6.947   4.212   9.859 -0.9541 -0.6828  0.5716
  187MOL0     H25785   6.923   4.289  10.018 -2.0615  3.4874  0.4568
  187MOL0     H25786   5.855   4.111  10.023 -1.6696  2.2155  0.1610
  187MOL0     H25787   5.621   4.074   9.957  1.4483  0.3942 -0.4445
  187MOL0     H25788   5.423   3.682   9.743 -2.7208 -0.7755  2.7106
  187MOL0     H25789   5.275   3.546   9.663  1.4960  0.0495 -0.8086
  187MOL0     H25790   3.720   2.997  10.555 -0.6857 -1.1038  1.3812
  187MOL0     H25791   3.475   2.921  10.601  1.7916 -0.6948 -0.8838
  187MOL0     H25792   3.136   2.942  10.375 -0.3999  0.6577  1.4578
  187MOL0     H25793   3.011   2.772  10.286  1.5725  0.3795  0.3993
  187MOL0     H25794   2.774   2.599  10.283 -1.0739 -0.0146  0.1515
  187MOL0     H25795   2.934   2.552  10.240 -2.1067  0.5119 -2.3677
  187MOL0     H25796   2.881   2.320  10.315  1.0558  2.0079 -1.6654
  187MOL0     H25797   2.781   2.379  10.183 -2.1554  1.7309  0.4710
  187MOL0     H25798   2.654   2.246  10.351 -0.7170 -0.7109  1.4728
  187MOL0     H25799   2.677   2.369  10.470 -1.6115  3.4811 -0.6896
  187MOL0     H25800   2.546   2.518  10.291 -3.0008 -0.3839 -0.0065
  187MOL0     H25801   2.461   2.391  10.389 -0.7063  0.3598 -1.1661
  187MOL0     H25802   2.416   2.324   9.968  1.2995 -1.4759 -0.0032
  187MOL0     H25803   2.957   2.614  10.694  0.5631  0.8890  1.4954
  187MOL0     H25804   3.201   2.763  10.842  1.3829  1.2100 -3.3761
  187MOL0     H25805   3.053   2.860  10.871 -2.0481 -1.3019  0.4921
  187MOL0     H25806   3.042   2.685  10.862 -0.0405 -0.2204 -0.8944
  188MOL0     O25807  10.554   4.856   2.522 -0.1824  0.4087 -0.0308
  188MOL0     C25808  10.522   4.970   2.524  0.0952 -0.3437 -0.4217
  188MOL0     O25809  10.608   5.077   2.543 -0.0191 -0.0082 -0.6791
  188MOL0     C25810  10.741   5.048   2.555 -0.3446 -0.4689 -0.2359
  188MOL0     C25811  10.819   5.052   2.434  0.6557  0.3093 -0.2658
  188MOL0     C25812  10.951   5.012   2.437  0.2872  0.4479  0.6711
  188MOL0     C25813  11.011   4.981   2.564  0.3146 -0.2899  0.3525
  188MOL0     O25814  11.154   4.963   2.586  0.1753 -0.0920  0.8199
  188MOL0     C25815  11.236   4.949   2.470 -0.2600 -0.1551 -0.1667
  188MOL0     C25816  11.377   4.937   2.530 -0.2226  0.0750  0.0374
  188MOL0     C25817  11.491   4.952   2.425 -0.3310  0.3162 -0.9085
  188MOL0     C25818  11.538   4.821   2.358 -0.2465 -0.1393  0.0891
  188MOL0     C25819  11.649   4.845   2.247 -0.3813 -0.0195  0.1778
  188MOL0     C25820  11.782   4.870   2.310 -0.4670 -0.0873 -0.4320
  188MOL0     C25821  11.892   4.855   2.209  0.1879  0.1891 -1.1438
  188MOL0     C25822  12.029   4.895   2.272 -0.0144  0.6073 -0.1284
  188MOL0     N25823  12.064   4.814   2.385 -0.1094 -0.6517 -0.2480
  188MOL0     C25824  12.126   4.694   2.370  0.7063 -0.2149 -0.7918
  188MOL0     C25825  12.154   4.653   2.497  0.2390 -0.0248  0.4432
  188MOL0     C25826  12.199   4.523   2.549 -0.2686  0.0372  0.3410
  188MOL0     C25827  12.350   4.528   2.575  0.0950  0.7026 -0.2519
  188MOL0     C25828  12.393   4.389   2.633 -0.0990  0.9494  0.5889
  188MOL0     C25829  12.526   4.377   2.708  0.0490 -0.3434  0.4287
  188MOL0     O25830  12.518   4.433   2.841 -0.3946  0.5287  0.0257
  188MOL0     C25831  12.634   4.447   2.909  0.3215 -0.1663 -0.4414
  188MOL0     C25832  12.656   4.562   2.978  0.5797 -0.1546  0.9831
  188MOL0     C25833  12.747   4.576   3.079  0.1781 -0.2669  0.0064
  188MOL0     C25834  12.748   4.707   3.151 -0.5459  0.5743 -0.7864
  188MOL0     C25835  12.854   4.474   3.080 -0.1968 -0.0597  0.0116
  188MOL0     C25836  12.967   4.471   3.186  0.0380  0.0746  0.5425
  188MOL0     O25837  12.996   4.572   3.269  0.2940 -0.6087 -0.8499
  188MOL0     C25838  13.103   4.568   3.357  0.3193 -0.1987  0.2775
  188MOL0     C25839  13.205   4.657   3.338  0.3338 -0.7894  0.2149
  188MOL0     C25840  13.324   4.653   3.405  0.0517  0.2321  0.2400
  188MOL0     C25841  13.344   4.562   3.509  0.0695  0.8366  0.5932
  188MOL0     O25842  13.456   4.561   3.586 -0.5887  0.1150  0.2501
  188MOL0     C25843  13.492   4.446   3.663  0.1445  0.2333  0.3413
  188MOL0     C25844  13.626   4.468   3.726 -0.1147  0.0408 -0.5204
  188MOL0     C25845  13.742   4.493   3.631  1.3295 -0.1192  0.0087
  188MOL0     C25846  13.871   4.515   3.717 -0.8583 -0.1943  0.0300
  188MOL0     C25847  13.990   4.521   3.638  0.1000  0.3367 -0.3176
  188MOL0     C25848  14.073   4.396   3.639 -0.0875  0.1161 -0.0379
  188MOL0     C25849  14.219   4.422   3.587 -0.4204  0.7057  0.0353
  188MOL0     C25850  14.296   4.301   3.541  0.1133  0.1471  0.6265
  188MOL0    Cl25851  14.244   4.234   3.372  0.0707  0.0378 -0.5262
  188MOL0     C25852  13.237   4.475   3.535 -0.7552  0.7635 -0.6699
  188MOL0     C25853  13.116   4.470   3.458 -0.3155  0.2599  0.4455
  188MOL0     O25854  13.032   4.365   3.185  1.0368 -0.6215 -0.2249
  188MOL0     C25855  12.837   4.358   2.999 -0.3028 -0.4518  0.0305
  188MOL0     C25856  12.734   4.354   2.906  0.0317  0.2924 -1.0274
  188MOL0     N25857  12.098   4.742   2.585  0.6750 -0.7882  0.4091
  188MOL0     N25858  12.037   4.830   2.512  0.1532  0.4953  0.2792
  188MOL0     C25859  10.939   4.985   2.685  0.2759  0.3227  1.2264
  188MOL0     C25860  10.801   5.012   2.674  0.4248  0.6358 -1.4353
  188MOL0     C25861  10.379   5.008   2.518  0.4689  0.0845  1.3252
  188MOL0     C25862  10.329   5.136   2.467  0.0905  0.2156 -0.6551
  188MOL0     C25863  10.193   5.168   2.484  0.2644  0.9919 -0.7860
  188MOL0     C25864  10.101   5.074   2.534 -0.1754  0.3908  1.0433
  188MOL0     O25865   9.969   5.117   2.549  0.7039 -0.1063  0.2229
  188MOL0     C25866   9.904   5.084   2.675 -0.0897 -0.2801 -0.6150
  188MOL0     C25867   9.759   5.129   2.681  0.0286  0.4765  0.1406
  188MOL0     C25868   9.734   5.266   2.745 -0.1902 -0.4851 -0.0572
  188MOL0     C25869   9.748   5.392   2.654  0.0100 -0.0284  1.1433
  188MOL0     C25870   9.641   5.410   2.571  0.2286 -0.6270  0.8410
  188MOL0     C25871   9.555   5.427   2.491 -0.4576  0.8124  0.0195
  188MOL0     C25872  10.144   4.947   2.573 -0.4393  0.1025  0.1876
  188MOL0     C25873  10.282   4.910   2.565  0.4180 -0.9941  0.1272
  188MOL0     C25874  10.315   4.775   2.613 -0.2257 -0.7084  0.3391
  188MOL0     H25875  10.774   5.085   2.341  0.8759  1.5120  0.0410
  188MOL0     H25876  11.019   5.008   2.352  1.0285 -0.4041  1.2833
  188MOL0     H25877  11.227   5.034   2.402 -0.3539  1.7745  2.1214
  188MOL0     H25878  11.217   4.855   2.417 -0.9119  1.1344 -2.3740
  188MOL0     H25879  11.386   5.021   2.598  0.1409  1.3304 -1.5020
  188MOL0     H25880  11.386   4.844   2.587  0.3612 -0.8245 -1.4540
  188MOL0     H25881  11.462   5.016   2.341  0.8586  0.5803 -1.1293
  188MOL0     H25882  11.575   5.002   2.474 -1.4277  0.3858  0.9904
  188MOL0     H25883  11.575   4.757   2.438  3.0121  1.4138 -0.0068
  188MOL0     H25884  11.442   4.784   2.323 -0.8906  0.3438  1.3180
  188MOL0     H25885  11.624   4.920   2.171 -1.2736  0.4803  0.9493
  188MOL0     H25886  11.648   4.749   2.195 -1.7667 -0.4030  0.8675
  188MOL0     H25887  11.781   4.969   2.357 -1.6656 -0.4973  0.4934
  188MOL0     H25888  11.793   4.794   2.388 -0.6432 -0.8594 -1.1415
  188MOL0     H25889  11.867   4.910   2.118 -0.8019  1.0849 -0.3566
  188MOL0     H25890  11.891   4.752   2.170 -1.0544 -0.8926  1.4604
  188MOL0     H25891  12.107   4.888   2.196  2.5192  2.4899  2.1167
  188MOL0     H25892  12.030   4.997   2.311 -3.0241  0.9201 -0.5928
  188MOL0     H25893  12.148   4.643   2.277 -0.9189  1.5490 -2.2229
  188MOL0     H25894  12.183   4.436   2.484  0.2432 -1.3391  1.9895
  188MOL0     H25895  12.140   4.509   2.640 -1.4458 -1.8513 -0.6557
  188MOL0     H25896  12.406   4.534   2.481 -1.3239 -3.2956 -1.5719
  188MOL0     H25897  12.378   4.607   2.645 -0.1319 -1.0643  1.9542
  188MOL0     H25898  12.316   4.343   2.695  1.3860  0.9606  2.5460
  188MOL0     H25899  12.406   4.318   2.550 -0.1864  1.3016  0.2702
  188MOL0     H25900  12.549   4.271   2.725  0.4296  0.2093  4.0161
  188MOL0     H25901  12.604   4.422   2.647  1.0832  0.5806  2.3422
  188MOL0     H25902  12.586   4.644   2.969 -1.5866 -1.9949  0.0171
  188MOL0     H25903  12.790   4.698   3.252 -3.1198 -0.5814  0.2535
  188MOL0     H25904  12.649   4.752   3.163 -1.0492  0.2105 -3.0519
  188MOL0     H25905  12.811   4.774   3.092  1.9378 -2.2570 -1.5836
  188MOL0     H25906  13.182   4.729   3.260 -0.2197  0.9984  1.9546
  188MOL0     H25907  13.397   4.731   3.384 -0.3914  1.7408  3.7211
  188MOL0     H25908  13.429   4.421   3.749  2.3911  0.7247  2.2535
  188MOL0     H25909  13.487   4.357   3.600 -1.5363 -0.6971  1.7024
  188MOL0     H25910  13.605   4.543   3.804 -0.7917 -0.4863 -0.1821
  188MOL0     H25911  13.648   4.382   3.790  2.0624  2.3578  2.1263
  188MOL0     H25912  13.723   4.574   3.559  0.6645 -1.5278 -1.4755
  188MOL0     H25913  13.761   4.402   3.574  2.1568  1.6989 -2.8456
  188MOL0     H25914  13.882   4.436   3.792 -0.6824  0.9865  1.2890
  188MOL0     H25915  13.846   4.606   3.771 -0.0290 -0.0574  0.1970
  188MOL0     H25916  13.963   4.557   3.539  2.2176  3.2139  0.0447
  188MOL0     H25917  14.052   4.599   3.683 -1.0660  2.8494 -2.7686
  188MOL0     H25918  14.027   4.315   3.582  2.9604 -2.6138  1.0606
  188MOL0     H25919  14.087   4.355   3.740 -0.6578  2.8259  1.2486
  188MOL0     H25920  14.271   4.475   3.667  0.2590  0.1332 -0.0081
  188MOL0     H25921  14.212   4.488   3.500  0.3865  0.5768 -0.1366
  188MOL0     H25922  14.280   4.232   3.623 -1.1767  0.1440  0.3959
  188MOL0     H25923  14.403   4.324   3.531 -0.2720  1.6794 -0.4467
  188MOL0     H25924  13.245   4.410   3.622 -2.2033  1.4163 -0.0237
  188MOL0     H25925  13.036   4.401   3.484  2.0776 -2.4886  1.0728
  188MOL0     H25926  12.906   4.276   2.987 -0.7651 -0.9296  0.5364
  188MOL0     H25927  12.733   4.275   2.831  0.5722 -0.2773 -0.4434
  188MOL0     H25928  10.976   4.966   2.785 -0.4744  0.8074  1.6072
  188MOL0     H25929  10.737   5.037   2.758 -2.3551  0.1182 -3.2598
  188MOL0     H25930  10.400   5.213   2.440  1.2454 -0.9601 -1.0543
  188MOL0     H25931  10.157   5.270   2.477 -0.8851  0.5947 -0.9378
  188MOL0     H25932   9.906   4.977   2.695  0.9854 -0.3257 -0.8979
  188MOL0     H25933   9.964   5.132   2.753  1.1773 -3.0186  0.2066
  188MOL0     H25934   9.706   5.051   2.737 -0.7942  1.2049  0.3945
  188MOL0     H25935   9.711   5.130   2.582 -0.5666 -3.1234  0.2485
  188MOL0     H25936   9.629   5.269   2.777 -0.4183 -0.6781 -0.7683
  188MOL0     H25937   9.799   5.282   2.831 -1.7570 -1.2166  1.3112
  188MOL0     H25938   9.841   5.381   2.597  2.1258  0.3739  4.2564
  188MOL0     H25939   9.751   5.488   2.706 -2.8102  1.2688 -0.8341
  188MOL0     H25940   9.472   5.451   2.427 -2.3055 -0.5757  1.7644
  188MOL0     H25941  10.078   4.875   2.620 -0.0150 -0.5007 -0.1263
  188MOL0     H25942  10.362   4.732   2.523 -0.8660  0.5306 -0.6245
  188MOL0     H25943  10.383   4.774   2.698  0.0926  0.6629  0.1196
  188MOL0     H25944  10.231   4.708   2.635  0.4237 -1.2029  1.4070
  189MOL0     O25945  11.126   2.178  10.217 -0.5539 -0.0542  0.2092
  189MOL0     C25946  11.176   2.263  10.140 -0.0581 -0.1205 -0.2829
  189MOL0     O25947  11.101   2.334  10.061  0.1124  0.6468 -0.3431
  189MOL0     C25948  10.962   2.338  10.085  0.2170 -0.4600 -0.5700
  189MOL0     C25949  10.893   2.356  10.211 -0.4899  0.3442 -0.4560
  189MOL0     C25950  10.751   2.376  10.211 -0.7468 -0.1000  0.0318
  189MOL0     C25951  10.676   2.351  10.092  0.3310 -0.3481  0.2167
  189MOL0     O25952  10.542   2.357  10.077  0.0817  0.6729  0.1214
  189MOL0     C25953  10.459   2.418  10.178 -0.0951  0.7349  0.2736
  189MOL0     C25954  10.314   2.381  10.154 -0.9728  1.1303  0.6015
  189MOL0     C25955  10.273   2.464  10.030  0.2769  0.4945 -0.1338
  189MOL0     C25956  10.133   2.435   9.989 -0.5696  0.2686 -0.1232
  189MOL0     C25957  10.104   2.514   9.856 -0.0894  0.2258 -0.4959
  189MOL0     C25958   9.955   2.532   9.842  1.2582 -0.3627  0.5541
  189MOL0     C25959   9.908   2.593   9.713 -0.1577 -0.5623 -0.5666
  189MOL0     C25960   9.753   2.610   9.721 -0.2581  0.4203  0.1182
  189MOL0     N25961   9.690   2.736   9.682  0.3022  0.0614 -0.1788
  189MOL0     C25962   9.600   2.806   9.765  0.5114  0.4064  0.3969
  189MOL0     C25963   9.566   2.911   9.693  0.1579  0.9102  1.0884
  189MOL0     C25964   9.497   3.035   9.745 -0.3806 -0.0385  0.1490
  189MOL0     C25965   9.562   3.089   9.872  0.0564 -1.0325  0.5168
  189MOL0     C25966   9.658   3.207   9.848  0.0669  0.1674 -0.1887
  189MOL0     C25967   9.788   3.157   9.800 -0.9235  0.2780  0.4344
  189MOL0     O25968   9.862   3.108   9.915 -0.9985 -0.9397 -0.3507
  189MOL0     C25969   9.982   3.041   9.886  0.6739 -0.6490  0.3209
  189MOL0     C25970  10.029   3.005   9.761  0.9843  0.1249  0.3805
  189MOL0     C25971  10.144   2.943   9.744 -0.4339  0.3194  0.2327
  189MOL0     C25972  10.175   2.889   9.606 -0.0834 -0.5078  0.6263
  189MOL0     C25973  10.239   2.928   9.843  0.0862 -0.3822 -0.7018
  189MOL0     C25974  10.374   2.868   9.836  0.6535 -0.5330  0.0846
  189MOL0     O25975  10.435   2.844   9.954 -0.1682 -0.2324  0.1971
  189MOL0     C25976  10.569   2.826   9.946  0.0360  0.0897 -0.5139
  189MOL0     C25977  10.661   2.914   9.879  0.3928  0.0817 -0.4335
  189MOL0     C25978  10.797   2.880   9.867  0.3983 -0.2821 -0.2371
  189MOL0     C25979  10.854   2.775   9.952 -0.1698 -0.0924  0.4196
  189MOL0     O25980  10.987   2.748   9.956 -0.2219 -0.7639 -0.0898
  189MOL0     C25981  11.075   2.851   9.905  0.3906 -0.7291  0.2151
  189MOL0     C25982  11.225   2.846   9.938 -0.7368  0.2476  0.2807
  189MOL0     C25983  11.290   2.727   9.878  0.2949  0.3902 -0.1420
  189MOL0     C25984  11.447   2.747   9.867 -0.8961 -1.1681 -0.0762
  189MOL0     C25985  11.521   2.653   9.775  0.0740  0.0179  0.2076
  189MOL0     C25986  11.659   2.718   9.760 -0.0489  0.3491  0.5979
  189MOL0     C25987  11.753   2.644   9.668  0.0663 -0.2893 -1.0767
  189MOL0     C25988  11.901   2.704   9.677 -0.3265 -0.2482 -0.3187
  189MOL0    Cl25989  11.960   2.703   9.848  0.4601  0.0207  0.4661
  189MOL0     C25990  10.764   2.690  10.016  0.7555 -0.2671  0.5643
  189MOL0     C25991  10.625   2.720  10.024  0.4715  0.4513  0.1056
  189MOL0     O25992  10.426   2.848   9.724 -0.2722 -0.4258  0.1551
  189MOL0     C25993  10.197   2.966   9.976  1.0067 -0.2941 -0.1454
  189MOL0     C25994  10.065   3.016   9.998  0.4941  0.9969 -0.2016
  189MOL0     N25995   9.615   2.907   9.565 -0.9501 -0.1196 -0.0024
  189MOL0     N25996   9.679   2.793   9.558 -0.1974 -0.1276 -0.5499
  189MOL0     C25997  10.754   2.324   9.978  0.2771  0.6115  0.1280
  189MOL0     C25998  10.890   2.327   9.973  0.4025  0.0378 -0.2208
  189MOL0     C25999  11.320   2.266  10.114  0.1815  0.2026  0.7003
  189MOL0     C26000  11.381   2.395  10.134  0.4451  0.1647 -1.1451
  189MOL0     C26001  11.515   2.411  10.103 -0.4336  0.3144  0.1811
  189MOL0     C26002  11.596   2.302  10.064  0.4823 -0.0527  0.3835
  189MOL0     O26003  11.730   2.312  10.047  0.7319 -0.2304 -0.2389
  189MOL0     C26004  11.797   2.426  10.099  0.5068  0.1516 -0.8772
  189MOL0     C26005  11.940   2.397  10.134  0.7118 -0.6087  0.2536
  189MOL0     C26006  12.015   2.514  10.189  0.5427  0.2034 -0.5814
  189MOL0     C26007  12.152   2.478  10.252 -0.3218  0.6050 -0.0111
  189MOL0     C26008  12.261   2.479  10.151  0.2991  0.2753 -0.4268
  189MOL0     C26009  12.353   2.486  10.074 -0.0410 -0.0591 -0.2063
  189MOL0     C26010  11.531   2.177  10.033  0.0418 -0.5335  0.2225
  189MOL0     C26011  11.398   2.157  10.069 -1.0297 -0.2657  0.4811
  189MOL0     C26012  11.345   2.024  10.055 -0.2510 -0.0631 -0.3928
  189MOL0     H26013  10.948   2.360  10.305 -1.5665 -1.3570  0.2892
  189MOL0     H26014  10.697   2.412  10.298 -0.4516  0.4419 -0.0056
  189MOL0     H26015  10.474   2.526  10.190  2.2640  0.4426  0.4189
  189MOL0     H26016  10.473   2.377  10.278 -4.9397 -0.2758  0.7725
  189MOL0     H26017  10.300   2.274  10.137 -0.1318  1.3615 -1.8289
  189MOL0     H26018  10.256   2.412  10.241 -0.8467  0.6629  0.8584
  189MOL0     H26019  10.287   2.570  10.053 -0.8832  0.4163  1.0581
  189MOL0     H26020  10.341   2.430   9.951  0.2640  0.4015 -0.1041
  189MOL0     H26021  10.112   2.329   9.971  0.7327 -0.2124  1.0357
  189MOL0     H26022  10.075   2.465  10.076 -1.8888 -0.7295 -0.6299
  189MOL0     H26023  10.156   2.465   9.773  2.6104  0.1568  1.1376
  189MOL0     H26024  10.148   2.614   9.861  2.6601 -0.9567  0.4276
  189MOL0     H26025   9.918   2.429   9.848 -1.6370  0.5796  0.3700
  189MOL0     H26026   9.905   2.595   9.916  0.7324  1.3147 -1.1411
  189MOL0     H26027   9.941   2.531   9.629 -1.5827  0.1203 -1.6766
  189MOL0     H26028   9.956   2.690   9.703  0.4615 -0.9571 -1.5227
  189MOL0     H26029   9.704   2.535   9.658 -0.3317  1.2719 -0.8824
  189MOL0     H26030   9.720   2.570   9.817  1.3677  0.0340  0.5459
  189MOL0     H26031   9.560   2.786   9.864 -1.2016  0.8616 -0.1580
  189MOL0     H26032   9.398   2.996   9.772  0.3431 -2.3451 -0.3206
  189MOL0     H26033   9.484   3.114   9.670 -1.7956  0.4262  0.8431
  189MOL0     H26034   9.474   3.119   9.930 -1.3903 -1.5576 -1.3170
  189MOL0     H26035   9.608   3.018   9.941  0.8532 -1.5666 -0.5433
  189MOL0     H26036   9.609   3.269   9.773 -2.0554 -1.4438 -0.2405
  189MOL0     H26037   9.677   3.272   9.934 -0.1143  0.2585 -0.2170
  189MOL0     H26038   9.773   3.072   9.733 -0.1368 -0.0198  0.6300
  189MOL0     H26039   9.840   3.239   9.750  0.8649  0.1359  1.9858
  189MOL0     H26040   9.958   3.013   9.679  0.4426 -1.0449  0.7116
  189MOL0     H26041  10.101   2.916   9.530  1.7488  3.6646  0.0368
  189MOL0     H26042  10.187   2.781   9.595  2.0709 -0.3256  0.7547
  189MOL0     H26043  10.269   2.936   9.574  0.0804  0.3000  2.1619
  189MOL0     H26044  10.626   2.997   9.817  1.2933  0.3620 -0.5867
  189MOL0     H26045  10.861   2.941   9.804  0.2925 -0.1790 -0.2447
  189MOL0     H26046  11.061   2.858   9.797 -1.9664  2.5824  0.5886
  189MOL0     H26047  11.048   2.949   9.947  0.6121  0.6135 -2.5534
  189MOL0     H26048  11.276   2.938   9.905 -1.1135  0.5485  0.5258
  189MOL0     H26049  11.237   2.831  10.046  3.1313 -1.0434 -0.1802
  189MOL0     H26050  11.245   2.703   9.782  2.8700 -1.1457 -1.0562
  189MOL0     H26051  11.254   2.644   9.940 -1.0759  0.2629 -1.0757
  189MOL0     H26052  11.492   2.735   9.965  0.4311 -0.7417 -0.6005
  189MOL0     H26053  11.470   2.852   9.843  4.6005 -2.1225 -0.3246
  189MOL0     H26054  11.541   2.549   9.802  3.4418 -0.6091 -3.6463
  189MOL0     H26055  11.470   2.651   9.678 -3.4619  0.4982  1.8839
  189MOL0     H26056  11.702   2.723   9.860  1.2646 -0.0910  0.0693
  189MOL0     H26057  11.640   2.817   9.718 -1.0942  0.3370  0.9983
  189MOL0     H26058  11.725   2.664   9.564  2.8600 -0.0564 -1.8420
  189MOL0     H26059  11.749   2.538   9.694 -2.4877  0.0464  0.2404
  189MOL0     H26060  11.900   2.810   9.652  1.7246  0.5338  2.5021
  189MOL0     H26061  11.973   2.651   9.614  3.2353  1.8079  1.7003
  189MOL0     H26062  10.808   2.611  10.076  1.0715  0.0211  0.7180
  189MOL0     H26063  10.559   2.650  10.075  1.5026 -0.8834 -0.3114
  189MOL0     H26064  10.259   2.967  10.065 -0.4261 -2.3196  0.9524
  189MOL0     H26065  10.039   3.037  10.101 -0.6321  1.5386 -0.5782
  189MOL0     H26066  10.705   2.316   9.881  1.1360 -1.9515 -0.1718
  189MOL0     H26067  10.938   2.330   9.875  0.7334  0.6975 -0.0466
  189MOL0     H26068  11.325   2.479  10.173 -1.9054 -1.3181 -1.0836
  189MOL0     H26069  11.557   2.510  10.115  0.7120 -0.1424  0.1423
  189MOL0     H26070  11.777   2.515  10.039  1.0433  0.8146 -0.0916
  189MOL0     H26071  11.761   2.457  10.198  0.1915 -3.0288  0.1072
  189MOL0     H26072  12.003   2.355  10.055  0.2859 -1.6724  0.4585
  189MOL0     H26073  11.941   2.317  10.209 -2.3181 -0.1426  0.9226
  189MOL0     H26074  12.028   2.588  10.110 -1.2235  2.3972  1.0510
  189MOL0     H26075  11.967   2.560  10.276  0.2099  0.2356 -0.7801
  189MOL0     H26076  12.142   2.376  10.289  2.1321 -0.1545 -1.2552
  189MOL0     H26077  12.181   2.546  10.333  0.8463 -3.6986  3.5593
  189MOL0     H26078  12.423   2.500   9.995  0.6155 -0.3481  0.3176
  189MOL0     H26079  11.600   2.101   9.999  0.1035 -0.2671 -0.2537
  189MOL0     H26080  11.393   1.963   9.978  0.0161 -0.6777  0.2508
  189MOL0     H26081  11.355   1.956  10.141  0.0470 -2.3297 -2.1414
  189MOL0     H26082  11.237   2.028  10.035 -0.2325  3.3741 -0.3367
  190MOL0     O26083   3.860   6.042   4.060  0.6203 -0.2428  0.0489
  190MOL0     C26084   3.776   6.057   3.970 -0.9266  0.1126 -0.3108
  190MOL0     O26085   3.799   6.137   3.861 -0.5582  0.3226 -0.6173
  190MOL0     C26086   3.919   6.213   3.870  0.4232 -0.4099 -0.2449
  190MOL0     C26087   3.911   6.351   3.898 -0.1899 -0.7707 -0.0924
  190MOL0     C26088   4.019   6.441   3.900  0.0015 -0.5219  1.2855
  190MOL0     C26089   4.147   6.382   3.859 -0.4211 -0.2863  0.2655
  190MOL0     O26090   4.260   6.459   3.860  0.3903  0.0762 -0.8434
  190MOL0     C26091   4.260   6.605   3.845  0.7907  0.0593 -0.6000
  190MOL0     C26092   4.383   6.672   3.904 -0.4829 -0.0005 -0.9564
  190MOL0     C26093   4.417   6.642   4.054 -0.6920  0.5461  0.0619
  190MOL0     C26094   4.546   6.710   4.109 -0.5895  0.4141 -0.6551
  190MOL0     C26095   4.578   6.682   4.253  0.3132 -0.4412 -0.6744
  190MOL0     C26096   4.477   6.754   4.346  0.3029  0.1529 -0.0157
  190MOL0     C26097   4.515   6.743   4.492  0.4003  0.0253  0.1242
  190MOL0     C26098   4.548   6.883   4.553  0.5550 -0.3252 -0.2629
  190MOL0     N26099   4.667   6.945   4.499 -0.0207 -0.0710 -0.7540
  190MOL0     C26100   4.787   6.893   4.523  0.3274 -0.5484 -0.5453
  190MOL0     C26101   4.862   6.946   4.421 -1.1750 -0.2662  0.3619
  190MOL0     C26102   5.006   6.918   4.391  0.5679  0.5834  0.3083
  190MOL0     C26103   5.030   6.817   4.281  0.3998  0.0568 -0.3113
  190MOL0     C26104   5.175   6.780   4.260 -0.3154  0.6748  0.0093
  190MOL0     C26105   5.268   6.890   4.237  1.1731  0.1985  0.1594
  190MOL0     O26106   5.399   6.844   4.215 -0.8092 -0.3289  0.1923
  190MOL0     C26107   5.490   6.820   4.316  0.7903 -0.2432 -0.2332
  190MOL0     C26108   5.461   6.832   4.451 -0.5863 -0.3361 -0.2829
  190MOL0     C26109   5.552   6.795   4.545 -0.2448 -0.0758 -0.4265
  190MOL0     C26110   5.493   6.782   4.682 -0.0654  0.0580  0.3513
  190MOL0     C26111   5.687   6.783   4.506 -0.1241 -0.8019 -0.4422
  190MOL0     C26112   5.802   6.747   4.599 -0.1490 -0.8342 -0.4358
  190MOL0     O26113   5.915   6.734   4.533  0.1804  1.2100 -0.3880
  190MOL0     C26114   6.027   6.665   4.587 -0.2095  1.3697  0.4681
  190MOL0     C26115   6.035   6.552   4.662  0.1019  0.4166  0.4117
  190MOL0     C26116   6.161   6.502   4.709 -0.0978  0.0137  0.1828
  190MOL0     C26117   6.279   6.573   4.681  0.7511  0.1614 -0.2435
  190MOL0     O26118   6.401   6.532   4.722 -0.1074  0.2850  0.2501
  190MOL0     C26119   6.421   6.406   4.775 -0.0994  0.5262 -0.2143
  190MOL0     C26120   6.573   6.387   4.798 -0.2385  0.1343  0.0095
  190MOL0     C26121   6.610   6.249   4.849 -0.0556  0.0679  0.5232
  190MOL0     C26122   6.760   6.226   4.823 -0.5532  0.5109  0.7626
  190MOL0     C26123   6.795   6.082   4.863 -0.1144  0.2894 -0.2260
  190MOL0     C26124   6.945   6.054   4.886 -0.2194 -0.4073 -0.5266
  190MOL0     C26125   7.019   6.058   4.754  0.1114 -0.4200 -0.2377
  190MOL0     C26126   7.161   6.011   4.763 -0.8806  0.5178  0.3511
  190MOL0    Cl26127   7.254   6.029   4.618 -0.0311  0.2291  0.1423
  190MOL0     C26128   6.271   6.694   4.617  0.6337  0.7135 -0.6793
  190MOL0     C26129   6.149   6.736   4.564  0.1127 -1.0155  0.6470
  190MOL0     O26130   5.782   6.735   4.714  0.4819  0.3045  0.3638
  190MOL0     C26131   5.721   6.805   4.368 -0.0190  0.4005  1.0685
  190MOL0     C26132   5.618   6.807   4.274 -0.0971  0.4672 -0.9032
  190MOL0     N26133   4.785   7.038   4.349  0.6624  0.1437  0.4150
  190MOL0     N26134   4.662   7.019   4.389 -0.8323  0.1894  0.7650
  190MOL0     C26135   4.160   6.242   3.844  0.2631  0.0673  0.3647
  190MOL0     C26136   4.044   6.158   3.842 -0.4556 -0.1097 -0.4274
  190MOL0     C26137   3.633   5.999   3.979 -0.3051 -0.6709 -0.3517
  190MOL0     C26138   3.553   6.017   3.860  0.4111  0.5067  0.9124
  190MOL0     C26139   3.425   5.966   3.854  0.6387  0.1865 -0.5830
  190MOL0     C26140   3.369   5.883   3.959  0.6450  0.0354  0.1440
  190MOL0     O26141   3.241   5.832   3.942  0.1132 -0.3996  0.2138
  190MOL0     C26142   3.202   5.724   4.022  0.8995 -0.0176 -0.0984
  190MOL0     C26143   3.272   5.587   3.979 -0.3426 -0.3537  0.2520
  190MOL0     C26144   3.245   5.478   4.082 -0.4489  0.8517  0.2416
  190MOL0     C26145   3.266   5.343   4.027  0.1750  0.0172 -0.0462
  190MOL0     C26146   3.405   5.326   3.982 -0.5001  0.2255  0.7036
  190MOL0     C26147   3.520   5.313   3.925  1.1169  0.1969 -0.3897
  190MOL0     C26148   3.442   5.872   4.076 -0.1671 -0.0037 -0.1244
  190MOL0     C26149   3.575   5.927   4.082  0.3356  0.4289 -0.4631
  190MOL0     C26150   3.640   5.912   4.222  0.3176 -1.0103  1.4358
  190MOL0     H26151   3.812   6.394   3.904 -0.0757 -0.2141 -1.6710
  190MOL0     H26152   3.999   6.547   3.918 -1.1730 -0.1359 -1.6856
  190MOL0     H26153   4.172   6.654   3.888  1.4667  1.9374 -1.2417
  190MOL0     H26154   4.260   6.626   3.738 -0.0778  0.8532 -0.4589
  190MOL0     H26155   4.467   6.629   3.849 -2.3494 -0.9646 -3.2387
  190MOL0     H26156   4.356   6.776   3.882 -0.8798 -0.0724 -0.8179
  190MOL0     H26157   4.329   6.658   4.118 -0.2336  1.6106  0.4427
  190MOL0     H26158   4.434   6.534   4.049  0.6716  0.7938 -1.2935
  190MOL0     H26159   4.627   6.658   4.059  3.8621  0.2331  5.6145
  190MOL0     H26160   4.555   6.818   4.094  2.8766  0.4030  0.3799
  190MOL0     H26161   4.675   6.730   4.269 -1.6040  3.2145  1.1803
  190MOL0     H26162   4.573   6.575   4.275 -0.0987 -1.1267 -3.6727
  190MOL0     H26163   4.466   6.860   4.319 -1.7609 -0.1752 -0.6040
  190MOL0     H26164   4.376   6.717   4.328 -0.5366  1.1591  2.2391
  190MOL0     H26165   4.589   6.668   4.520  0.6496  0.7534  1.4783
  190MOL0     H26166   4.431   6.713   4.555  0.1510 -2.6264 -1.3066
  190MOL0     H26167   4.463   6.950   4.540  1.6670  1.7239  2.1193
  190MOL0     H26168   4.572   6.866   4.658 -0.5772 -0.8891 -0.0793
  190MOL0     H26169   4.813   6.802   4.577 -0.2215  0.3872  1.4139
  190MOL0     H26170   5.041   6.878   4.487 -0.2124  0.2778  0.4677
  190MOL0     H26171   5.057   7.013   4.369 -3.0466  2.6165  0.0281
  190MOL0     H26172   4.968   6.729   4.302  0.9105 -0.2161  0.0458
  190MOL0     H26173   4.999   6.851   4.181  2.2278 -0.2783 -1.0292
  190MOL0     H26174   5.205   6.727   4.352  1.1150  0.1319 -0.7258
  190MOL0     H26175   5.187   6.712   4.175 -1.1873 -0.8786  1.0594
  190MOL0     H26176   5.225   6.933   4.146 -5.2804  1.0462  3.0680
  190MOL0     H26177   5.267   6.960   4.321  1.5700 -3.1792  3.2085
  190MOL0     H26178   5.355   6.832   4.477 -0.1806 -1.2869  1.5697
  190MOL0     H26179   5.384   6.784   4.683 -0.0785 -0.5937  0.7127
  190MOL0     H26180   5.534   6.865   4.741  0.9072 -1.7706  2.3644
  190MOL0     H26181   5.529   6.689   4.727  1.4581 -0.1848 -1.2273
  190MOL0     H26182   5.945   6.494   4.682 -0.2199 -0.2054 -2.4103
  190MOL0     H26183   6.160   6.407   4.763  0.5757 -0.0797  0.0391
  190MOL0     H26184   6.357   6.387   4.862  1.4529  1.7763  1.2774
  190MOL0     H26185   6.388   6.335   4.699  2.3682 -0.8258 -0.1404
  190MOL0     H26186   6.627   6.413   4.707 -3.3490  2.4578 -1.3346
  190MOL0     H26187   6.600   6.465   4.870 -0.4642 -0.7897  1.1211
  190MOL0     H26188   6.556   6.170   4.797  2.0712 -2.2623  1.6140
  190MOL0     H26189   6.596   6.246   4.957  2.5373  0.0715  0.9211
  190MOL0     H26190   6.820   6.298   4.880 -2.5150  0.9957  2.3167
  190MOL0     H26191   6.789   6.228   4.717  2.5366  1.2950  1.5119
  190MOL0     H26192   6.751   6.073   4.963 -1.1372 -0.4573 -0.7269
  190MOL0     H26193   6.749   6.015   4.790  0.1136  0.1963 -0.2826
  190MOL0     H26194   6.972   5.964   4.941  2.3333 -0.2865 -1.4429
  190MOL0     H26195   6.989   6.134   4.946 -0.2475 -0.1207 -0.8812
  190MOL0     H26196   7.024   6.161   4.718 -1.8641 -0.5239 -0.9334
  190MOL0     H26197   6.950   6.009   4.685 -1.2398  0.1267  0.6728
  190MOL0     H26198   7.160   5.903   4.782  1.9023  0.3426 -0.0466
  190MOL0     H26199   7.216   6.062   4.842  0.8875 -0.7592  0.0036
  190MOL0     H26200   6.366   6.745   4.616  1.0345  0.3536  3.2896
  190MOL0     H26201   6.137   6.834   4.518  0.5007 -0.6983  1.2156
  190MOL0     H26202   5.822   6.803   4.330 -1.2112  0.2197 -2.4422
  190MOL0     H26203   5.652   6.819   4.171  0.5822  1.1808 -0.6143
  190MOL0     H26204   4.250   6.184   3.821  0.2208  1.6019 -4.9979
  190MOL0     H26205   4.051   6.051   3.826 -0.5132 -0.4556  1.5846
  190MOL0     H26206   3.583   6.078   3.775 -1.5442  1.1511  0.6290
  190MOL0     H26207   3.356   5.991   3.774  0.3816 -0.3632 -0.5344
  190MOL0     H26208   3.217   5.738   4.130  2.1839 -0.3608 -0.2068
  190MOL0     H26209   3.094   5.709   4.014  0.7016  1.4551 -0.5414
  190MOL0     H26210   3.381   5.596   3.983 -0.1156 -2.7979  0.6974
  190MOL0     H26211   3.230   5.557   3.883 -2.0527  1.2326  0.4488
  190MOL0     H26212   3.295   5.501   4.177 -0.6417 -0.2936  0.6291
  190MOL0     H26213   3.138   5.484   4.102 -0.5131  0.4448  0.0171
  190MOL0     H26214   3.202   5.321   3.940  2.4355 -5.9513 -0.6854
  190MOL0     H26215   3.235   5.267   4.099 -2.1051  1.0143  0.1068
  190MOL0     H26216   3.615   5.299   3.878  1.9006 -0.8138  1.4028
  190MOL0     H26217   3.396   5.830   4.164  0.1856 -0.3601 -0.1111
  190MOL0     H26218   3.579   5.843   4.281 -3.9910  0.2425 -1.0973
  190MOL0     H26219   3.739   5.872   4.199  0.2149 -1.2088  1.3374
  190MOL0     H26220   3.656   6.008   4.272 -0.9554  0.1207 -0.2042
  191MOL0     O26221   7.565   3.842   2.975 -0.4560  0.2099  0.0171
  191MOL0     C26222   7.685   3.857   3.014  0.2558  0.8363 -0.5689
  191MOL0     O26223   7.754   3.762   3.081 -0.4791  0.2746  0.3013
  191MOL0     C26224   7.707   3.635   3.079 -0.6919  0.0405  0.5931
  191MOL0     C26225   7.711   3.567   2.957  0.4861 -0.6020  1.0269
  191MOL0     C26226   7.667   3.438   2.946 -0.2463  0.5900 -0.7192
  191MOL0     C26227   7.623   3.369   3.063 -0.2445  0.4527 -1.1510
  191MOL0     O26228   7.601   3.231   3.057 -0.4605  0.8497  0.2659
  191MOL0     C26229   7.466   3.183   3.043 -0.3514 -0.7714 -0.3256
  191MOL0     C26230   7.470   3.040   3.002 -0.5150  0.1437 -0.4996
  191MOL0     C26231   7.558   3.021   2.872  0.3881  0.4381 -0.5662
  191MOL0     C26232   7.533   2.879   2.809 -0.4912 -0.7578 -0.1307
  191MOL0     C26233   7.641   2.847   2.702  0.3182  0.0752  0.5475
  191MOL0     C26234   7.771   2.788   2.768  0.9631  0.1214  0.6741
  191MOL0     C26235   7.843   2.695   2.670 -0.5268  0.0881  0.1412
  191MOL0     C26236   7.980   2.635   2.718  0.9327  0.2643  0.8707
  191MOL0     N26237   8.075   2.740   2.743 -0.5561 -0.4236 -0.1431
  191MOL0     C26238   8.172   2.772   2.655  0.0687  0.4601  0.4748
  191MOL0     C26239   8.246   2.866   2.717 -0.6107 -0.3936  0.0778
  191MOL0     C26240   8.361   2.928   2.647  0.5804 -0.1404  0.0189
  191MOL0     C26241   8.473   2.968   2.748  0.2876  0.0513  0.3679
  191MOL0     C26242   8.497   2.864   2.852  0.0777  0.7764 -0.3807
  191MOL0     C26243   8.633   2.873   2.915  0.3477  0.5094 -0.3757
  191MOL0     O26244   8.632   2.789   3.029 -0.1097 -0.1156 -0.1335
  191MOL0     C26245   8.742   2.788   3.105 -0.1331 -0.8048 -1.2685
  191MOL0     C26246   8.797   2.901   3.161  0.0499  0.1010  0.2830
  191MOL0     C26247   8.897   2.893   3.261  0.8063  0.2548  0.1128
  191MOL0     C26248   8.930   3.028   3.324 -0.5155 -0.2700  0.0154
  191MOL0     C26249   8.950   2.768   3.295  0.8038 -0.7336 -0.3432
  191MOL0     C26250   9.060   2.743   3.393  0.5122  0.1037 -0.0324
  191MOL0     O26251   9.058   2.823   3.506 -0.1999 -0.1286  0.2886
  191MOL0     C26252   9.170   2.812   3.583 -0.1273 -0.9432  0.0887
  191MOL0     C26253   9.155   2.787   3.726  0.0552 -0.5111 -0.1768
  191MOL0     C26254   9.264   2.777   3.807 -0.8881 -0.2073  0.0695
  191MOL0     C26255   9.386   2.789   3.758 -0.1615 -0.0858  0.0427
  191MOL0     O26256   9.498   2.778   3.841 -0.1359 -0.2169  0.1020
  191MOL0     C26257   9.487   2.685   3.950 -0.3543 -0.2040 -0.9055
  191MOL0     C26258   9.623   2.667   4.032 -0.7922  0.6616  0.4835
  191MOL0     C26259   9.613   2.563   4.148  1.1387  0.6100 -0.1178
  191MOL0     C26260   9.748   2.559   4.219  0.1267  0.5540  0.6018
  191MOL0     C26261   9.744   2.461   4.349  0.3795 -0.2132 -0.6813
  191MOL0     C26262   9.873   2.451   4.420 -0.3847  0.4106 -0.4432
  191MOL0     C26263   9.863   2.360   4.542  0.2469 -0.3520 -0.4661
  191MOL0     C26264   9.981   2.381   4.640  0.1449 -0.4974 -0.6358
  191MOL0    Cl26265  10.135   2.357   4.581 -0.0250  0.0901  0.0271
  191MOL0     C26266   9.403   2.818   3.622 -0.1600 -0.7596 -0.4705
  191MOL0     C26267   9.300   2.832   3.536  0.6447 -0.2869  0.3108
  191MOL0     O26268   9.134   2.653   3.375  0.1326 -0.2452  0.7363
  191MOL0     C26269   8.896   2.652   3.228  0.3045  0.0246 -0.4904
  191MOL0     C26270   8.794   2.663   3.131  0.2217  0.4885  0.3708
  191MOL0     N26271   8.192   2.885   2.842 -1.0538 -0.2148  0.0128
  191MOL0     N26272   8.093   2.808   2.858 -0.5012 -0.7980 -0.2450
  191MOL0     C26273   7.608   3.437   3.179 -0.8542 -0.0572 -0.3987
  191MOL0     C26274   7.652   3.569   3.187 -0.5774 -0.8926 -0.0441
  191MOL0     C26275   7.728   3.993   3.011 -0.0046 -0.0007 -0.3590
  191MOL0     C26276   7.675   4.070   2.909  0.2354 -0.9486  0.1242
  191MOL0     C26277   7.717   4.202   2.882 -0.8759  0.9221  1.0727
  191MOL0     C26278   7.833   4.247   2.949  0.1777  0.3932  0.3542
  191MOL0     O26279   7.889   4.372   2.930 -0.3346 -0.1048 -0.2075
  191MOL0     C26280   7.859   4.441   2.810 -0.3327  0.3366 -0.2169
  191MOL0     C26281   7.744   4.543   2.830 -0.2928 -0.2783 -0.2971
  191MOL0     C26282   7.779   4.632   2.953  0.4099  0.3334 -0.1689
  191MOL0     C26283   7.873   4.740   2.915 -0.6201  0.2203 -0.1738
  191MOL0     C26284   7.810   4.848   2.844 -0.1812 -0.8888  0.5888
  191MOL0     C26285   7.766   4.929   2.764 -0.3396 -0.1780  0.2647
  191MOL0     C26286   7.891   4.165   3.051  0.5981 -0.3396 -0.2952
  191MOL0     C26287   7.832   4.046   3.091 -0.6310  0.9972  0.4354
  191MOL0     C26288   7.888   3.982   3.220 -0.5329 -0.0834 -0.3093
  191MOL0     H26289   7.748   3.619   2.870  0.8922 -0.6553  1.1689
  191MOL0     H26290   7.661   3.395   2.846 -1.9513 -1.2654  0.1180
  191MOL0     H26291   7.414   3.235   2.962  1.2466  2.0002  0.2661
  191MOL0     H26292   7.410   3.201   3.135  1.4815 -1.8217  1.0542
  191MOL0     H26293   7.508   2.979   3.085 -2.4114  0.1097  0.4124
  191MOL0     H26294   7.365   3.020   2.978 -0.3336 -0.6842 -0.6180
  191MOL0     H26295   7.530   3.097   2.798 -0.5800 -0.1546 -0.8282
  191MOL0     H26296   7.663   3.040   2.898 -0.1769  1.0376  1.4498
  191MOL0     H26297   7.515   2.798   2.879 -0.6479 -0.1212  0.5827
  191MOL0     H26298   7.441   2.880   2.751 -0.5643 -3.6091 -0.2019
  191MOL0     H26299   7.669   2.932   2.638 -0.5455  1.2568  1.6944
  191MOL0     H26300   7.590   2.770   2.643 -3.2805  1.9963  0.8325
  191MOL0     H26301   7.842   2.857   2.815  1.5766 -1.3133  1.9260
  191MOL0     H26302   7.735   2.723   2.848 -0.7035 -0.5466 -0.5525
  191MOL0     H26303   7.864   2.762   2.586  0.7663  0.1219  0.4779
  191MOL0     H26304   7.774   2.617   2.635 -0.9561  0.8110 -0.6534
  191MOL0     H26305   7.953   2.564   2.796  1.3440 -1.4013 -0.4292
  191MOL0     H26306   8.033   2.576   2.641  3.2853  1.6084  1.3611
  191MOL0     H26307   8.181   2.737   2.553  1.3492  1.1411  0.3298
  191MOL0     H26308   8.313   3.013   2.595  0.4516  0.2221  0.7176
  191MOL0     H26309   8.395   2.850   2.579  0.0127 -0.0120 -0.4230
  191MOL0     H26310   8.569   2.976   2.698  0.7473 -2.0967  0.8084
  191MOL0     H26311   8.450   3.067   2.788  1.6010  1.8976 -3.0933
  191MOL0     H26312   8.428   2.872   2.936 -1.4845 -0.9102 -1.4195
  191MOL0     H26313   8.479   2.766   2.807 -0.9986  1.3762 -1.3075
  191MOL0     H26314   8.712   2.845   2.845  0.8879 -2.9700  1.4366
  191MOL0     H26315   8.638   2.980   2.939 -0.9807  1.2797 -3.0498
  191MOL0     H26316   8.749   2.997   3.147 -0.7411 -0.0420  1.7772
  191MOL0     H26317   9.039   3.037   3.333 -0.4176  0.5951 -1.7586
  191MOL0     H26318   8.895   3.034   3.428 -0.1106  0.6685  0.1058
  191MOL0     H26319   8.891   3.113   3.268  4.2506  2.6653  0.5753
  191MOL0     H26320   9.060   2.774   3.778  1.6195 -1.6943  2.6474
  191MOL0     H26321   9.250   2.758   3.913  0.0329  1.1916  0.4663
  191MOL0     H26322   9.412   2.726   4.019 -0.6429  0.9364 -1.8596
  191MOL0     H26323   9.464   2.585   3.913 -1.0196  1.0310 -4.0931
  191MOL0     H26324   9.694   2.638   3.954 -1.8975  1.8006 -1.0066
  191MOL0     H26325   9.661   2.759   4.078 -0.3317  1.7290 -1.8922
  191MOL0     H26326   9.580   2.464   4.114  0.0751  1.2831 -1.1523
  191MOL0     H26327   9.539   2.599   4.220 -1.7250 -0.9897 -2.0416
  191MOL0     H26328   9.775   2.659   4.254  1.7061  0.8970 -1.4087
  191MOL0     H26329   9.824   2.519   4.151 -1.2168  1.0266 -1.2977
  191MOL0     H26330   9.661   2.496   4.412  1.0134  1.0085 -0.4897
  191MOL0     H26331   9.720   2.360   4.314  1.5073 -0.1898 -1.5614
  191MOL0     H26332   9.908   2.549   4.452  4.5549 -1.3796  0.4014
  191MOL0     H26333   9.941   2.405   4.348  1.1759 -0.9787  1.7769
  191MOL0     H26334   9.865   2.253   4.518 -0.4021 -0.6985  0.9108
  191MOL0     H26335   9.771   2.381   4.598  1.4718 -0.3815  1.6877
  191MOL0     H26336   9.963   2.306   4.717 -1.9189  0.0264 -0.5450
  191MOL0     H26337   9.976   2.477   4.692  0.1697  0.6160 -2.5916
  191MOL0     H26338   9.505   2.840   3.591  0.7989 -1.6377  1.8512
  191MOL0     H26339   9.318   2.861   3.432  2.2072 -0.3354  0.5508
  191MOL0     H26340   8.939   2.560   3.264 -0.1921  0.1522  0.4550
  191MOL0     H26341   8.747   2.582   3.077  0.8232  0.6529 -0.4334
  191MOL0     H26342   7.569   3.398   3.273  2.7575  0.7585  1.6504
  191MOL0     H26343   7.633   3.621   3.280 -2.4267 -0.2298 -0.7360
  191MOL0     H26344   7.591   4.049   2.843 -0.8289 -0.7363  1.3613
  191MOL0     H26345   7.670   4.247   2.795  0.0209  0.4209  0.3087
  191MOL0     H26346   7.956   4.483   2.785  1.1014 -1.6951  1.5684
  191MOL0     H26347   7.843   4.371   2.727  0.5050  1.3405 -1.2622
  191MOL0     H26348   7.648   4.493   2.847 -0.1871 -0.9372 -1.4937
  191MOL0     H26349   7.720   4.606   2.744 -0.3998  0.6264  0.3852
  191MOL0     H26350   7.688   4.680   2.992  0.0042 -0.2323 -0.4015
  191MOL0     H26351   7.819   4.581   3.041 -2.0964  0.4264  1.1344
  191MOL0     H26352   7.962   4.700   2.865  1.2474  1.7434  1.7169
  191MOL0     H26353   7.904   4.786   3.009 -5.5430  3.6280  0.1729
  191MOL0     H26354   7.725   4.999   2.694  1.5643  3.4827  2.4946
  191MOL0     H26355   7.980   4.197   3.103 -0.3525 -2.2920  2.7846
  191MOL0     H26356   7.813   3.928   3.280 -0.6130  0.7319  0.3380
  191MOL0     H26357   7.975   3.920   3.197  0.5740  0.9256  0.9834
  191MOL0     H26358   7.938   4.059   3.279  0.5219 -1.5003  0.7277
  192MOL0     O26359   9.209   4.882   1.568  0.1700 -0.6291 -0.5077
  192MOL0     C26360   9.162   4.934   1.672  1.3397 -0.0418  0.8393
  192MOL0     O26361   9.209   4.922   1.799 -0.0773  0.1750  0.7351
  192MOL0     C26362   9.317   4.838   1.808 -0.6838  0.0432  0.4813
  192MOL0     C26363   9.302   4.695   1.831 -1.1304  0.0796  0.2350
  192MOL0     C26364   9.422   4.619   1.845  0.2003 -0.7461  0.4983
  192MOL0     C26365   9.551   4.676   1.841 -0.0513 -0.3275  0.8083
  192MOL0     O26366   9.653   4.581   1.849  0.3724 -0.1581 -0.2590
  192MOL0     C26367   9.783   4.629   1.822  0.4744  0.6224  0.5253
  192MOL0     C26368   9.869   4.502   1.839 -0.2734  0.2714 -0.1561
  192MOL0     C26369  10.007   4.527   1.776  0.5852  0.0618  0.1490
  192MOL0     C26370  10.100   4.415   1.815 -0.4896 -0.4452  0.0379
  192MOL0     C26371  10.240   4.437   1.753 -0.2460  0.1612  0.2776
  192MOL0     C26372  10.255   4.403   1.613 -0.6058 -0.4072  0.7488
  192MOL0     C26373  10.393   4.444   1.572 -0.0322  0.4187 -0.5876
  192MOL0     C26374  10.403   4.452   1.417  0.1324  1.0220 -0.0025
  192MOL0     N26375  10.539   4.481   1.383 -0.7397  0.5523  0.7535
  192MOL0     C26376  10.621   4.402   1.300  0.1577 -0.7448 -0.3395
  192MOL0     C26377  10.735   4.474   1.293 -0.7097  0.2994  0.2878
  192MOL0     C26378  10.866   4.433   1.219 -0.2328 -0.4965  0.1520
  192MOL0     C26379  10.980   4.530   1.253  0.2610 -0.5720 -0.6225
  192MOL0     C26380  11.110   4.468   1.212  0.2461  0.1007 -0.8803
  192MOL0     C26381  11.224   4.569   1.232 -0.4694  0.2719 -0.5543
  192MOL0     O26382  11.350   4.505   1.214  0.0214 -0.0728 -0.0799
  192MOL0     C26383  11.438   4.609   1.179 -0.8426 -0.6741 -0.0689
  192MOL0     C26384  11.514   4.674   1.270 -0.1410 -0.6385  0.4566
  192MOL0     C26385  11.617   4.769   1.230 -0.4201  0.0326 -0.7308
  192MOL0     C26386  11.691   4.855   1.333  0.0763  0.0745  0.1777
  192MOL0     C26387  11.650   4.780   1.091 -0.5301  0.7076 -0.0032
  192MOL0     C26388  11.762   4.868   1.037  0.1490 -0.2663 -0.6739
  192MOL0     O26389  11.886   4.824   1.042 -0.0134 -0.0672 -0.2690
  192MOL0     C26390  11.984   4.883   0.956  1.4568 -0.2747 -0.6766
  192MOL0     C26391  11.974   4.889   0.819  0.8666 -0.2340 -0.8042
  192MOL0     C26392  12.078   4.958   0.751 -0.1362  0.5931  0.5952
  192MOL0     C26393  12.190   5.010   0.814 -0.6704 -0.5321  0.2749
  192MOL0     O26394  12.297   5.074   0.742  0.8793  0.2808  0.3190
  192MOL0     C26395  12.262   5.203   0.694 -0.6268  0.3138 -0.1251
  192MOL0     C26396  12.374   5.274   0.618  0.0255  0.0593  0.4331
  192MOL0     C26397  12.499   5.277   0.710  0.5471 -0.3878 -0.3547
  192MOL0     C26398  12.611   5.365   0.662 -0.1542 -0.8907 -0.5737
  192MOL0     C26399  12.683   5.318   0.539 -0.6453 -0.9372 -0.6515
  192MOL0     C26400  12.806   5.403   0.516 -0.6457  0.1488  0.6578
  192MOL0     C26401  12.919   5.320   0.450  0.4739 -0.0797 -0.8314
  192MOL0     C26402  13.023   5.400   0.389 -0.6881 -0.1270 -0.0244
  192MOL0    Cl26403  13.128   5.464   0.521 -0.2580 -0.4081  0.1230
  192MOL0     C26404  12.203   4.965   0.948 -1.2809 -0.7413 -0.2244
  192MOL0     C26405  12.099   4.910   1.020  0.3700  0.5246 -0.5547
  192MOL0     O26406  11.731   4.984   1.000 -0.5497 -0.3593  0.1480
  192MOL0     C26407  11.571   4.717   0.999  0.2942 -0.2360 -0.1198
  192MOL0     C26408  11.473   4.632   1.045  0.8093  0.0940 -0.9026
  192MOL0     N26409  10.723   4.596   1.357 -0.7001  0.6200  0.4701
  192MOL0     N26410  10.600   4.599   1.413 -0.3209 -0.4673  0.2731
  192MOL0     C26411   9.564   4.818   1.810 -0.3995 -0.7304  0.1199
  192MOL0     C26412   9.440   4.894   1.794 -0.6546  0.8999  0.0092
  192MOL0     C26413   9.054   5.035   1.636  0.0655  0.3701  0.2310
  192MOL0     C26414   9.034   5.133   1.730 -0.2050 -0.5778  0.0609
  192MOL0     C26415   8.948   5.239   1.701  0.3138 -0.3610 -0.0069
  192MOL0     C26416   8.882   5.257   1.580 -0.7927 -0.2179 -0.0542
  192MOL0     O26417   8.811   5.375   1.555  0.7189  0.1136 -1.2482
  192MOL0     C26418   8.728   5.393   1.431  0.6089  0.1641 -0.5401
  192MOL0     C26419   8.591   5.324   1.457  0.2163 -0.7292 -0.5646
  192MOL0     C26420   8.512   5.421   1.536 -0.1146 -0.5247  0.2211
  192MOL0     C26421   8.394   5.353   1.592 -0.8021 -0.6742  0.4311
  192MOL0     C26422   8.300   5.318   1.484 -0.5977  0.0217  0.1848
  192MOL0     C26423   8.230   5.278   1.394  0.0444  0.3449  0.0484
  192MOL0     C26424   8.897   5.151   1.492  0.1676 -0.4117 -0.4342
  192MOL0     C26425   8.975   5.039   1.514 -0.1400  1.3725 -0.1607
  192MOL0     C26426   8.974   4.924   1.411  0.2595  0.5914 -0.6792
  192MOL0     H26427   9.206   4.645   1.821 -0.4119 -1.5281  1.1153
  192MOL0     H26428   9.406   4.512   1.854 -1.4952 -0.5119  0.5274
  192MOL0     H26429   9.824   4.710   1.884 -1.9199  3.2136 -1.0179
  192MOL0     H26430   9.800   4.663   1.719  0.8033  1.2115  0.7677
  192MOL0     H26431   9.888   4.484   1.945  1.5368  0.0832 -0.4767
  192MOL0     H26432   9.816   4.420   1.789  0.6930  0.0985 -0.9237
  192MOL0     H26433   9.988   4.523   1.668  1.3893 -0.6523  0.0255
  192MOL0     H26434  10.052   4.622   1.805 -3.0219  1.8064  0.5751
  192MOL0     H26435  10.118   4.408   1.922 -0.9401  2.2111  0.3515
  192MOL0     H26436  10.063   4.316   1.786  1.3074 -2.5845  4.1357
  192MOL0     H26437  10.311   4.369   1.801 -1.0682 -1.5513 -0.8553
  192MOL0     H26438  10.267   4.540   1.777  0.6578  0.3916 -1.5638
  192MOL0     H26439  10.239   4.298   1.587  1.1258 -0.2816 -1.0463
  192MOL0     H26440  10.192   4.464   1.548  1.4643  0.5752 -0.4347
  192MOL0     H26441  10.455   4.362   1.611 -0.8451 -1.4148 -2.9048
  192MOL0     H26442  10.421   4.539   1.619  1.4259 -0.1794 -0.1879
  192MOL0     H26443  10.363   4.358   1.379 -0.1254  0.7384  0.9349
  192MOL0     H26444  10.341   4.532   1.376  1.2668  2.6838  1.3456
  192MOL0     H26445  10.596   4.309   1.249 -1.9537 -0.2903 -0.2516
  192MOL0     H26446  10.848   4.441   1.112 -1.3064  0.8339  0.4126
  192MOL0     H26447  10.899   4.329   1.233  0.2453 -0.3557  0.0887
  192MOL0     H26448  10.959   4.628   1.208 -3.7723 -0.1476  1.7388
  192MOL0     H26449  10.977   4.550   1.360  2.2697  1.8380 -0.9177
  192MOL0     H26450  11.137   4.372   1.257  1.7991  1.3723  1.0631
  192MOL0     H26451  11.121   4.441   1.106  1.9438 -2.8561 -0.0687
  192MOL0     H26452  11.201   4.657   1.171  1.0066 -0.4795 -2.2947
  192MOL0     H26453  11.228   4.593   1.339  2.4157 -0.2145 -0.4635
  192MOL0     H26454  11.495   4.667   1.377 -0.5642  0.7100  0.4838
  192MOL0     H26455  11.614   4.902   1.395  1.6996 -0.3176  2.5910
  192MOL0     H26456  11.756   4.930   1.286  0.0754  0.7453  1.2112
  192MOL0     H26457  11.758   4.801   1.400  0.3959  2.5055  1.9411
  192MOL0     H26458  11.882   4.869   0.766 -0.3353  1.2856  0.5730
  192MOL0     H26459  12.076   4.980   0.645  0.7463 -0.6140  0.3103
  192MOL0     H26460  12.184   5.200   0.617 -0.4226  0.1396 -0.3262
  192MOL0     H26461  12.223   5.260   0.779 -1.7439  0.8392 -0.9672
  192MOL0     H26462  12.402   5.221   0.527  0.2364 -0.6485  0.8937
  192MOL0     H26463  12.347   5.376   0.590  1.7381  0.7237  1.0168
  192MOL0     H26464  12.546   5.180   0.724 -0.1905 -0.8390 -0.9010
  192MOL0     H26465  12.467   5.315   0.808 -2.9488 -2.5395 -0.4799
  192MOL0     H26466  12.679   5.381   0.746 -1.7943  1.1106  0.4534
  192MOL0     H26467  12.562   5.460   0.639  1.1973  0.3629  1.4417
  192MOL0     H26468  12.705   5.212   0.555  0.7014 -0.5132  0.5565
  192MOL0     H26469  12.626   5.315   0.446 -0.8483 -1.0729 -0.5234
  192MOL0     H26470  12.830   5.440   0.616 -0.1475  1.8240 -0.0460
  192MOL0     H26471  12.791   5.494   0.456  1.3620  0.0947 -0.0063
  192MOL0     H26472  12.877   5.260   0.369  1.7329 -0.6543 -1.0842
  192MOL0     H26473  12.963   5.256   0.527 -2.3848 -1.5505 -0.2550
  192MOL0     H26474  12.981   5.476   0.323  2.0116 -0.4470 -2.3292
  192MOL0     H26475  13.087   5.336   0.326  1.1448  0.4873  1.1435
  192MOL0     H26476  12.295   4.994   0.998 -1.4087  1.4762 -1.1916
  192MOL0     H26477  12.113   4.901   1.127 -2.2028  4.8115  0.3676
  192MOL0     H26478  11.584   4.720   0.892 -1.2293  1.8027 -0.3139
  192MOL0     H26479  11.420   4.584   0.963  1.2321 -0.3370 -0.9264
  192MOL0     H26480   9.660   4.865   1.794 -0.3774 -0.4438  1.0419
  192MOL0     H26481   9.449   4.999   1.770 -1.2391  1.3004  1.4579
  192MOL0     H26482   9.083   5.138   1.826 -1.0733  3.1372  0.4911
  192MOL0     H26483   8.929   5.301   1.788  1.9182 -2.3078  1.8749
  192MOL0     H26484   8.724   5.498   1.399 -0.1117  1.1007  2.3364
  192MOL0     H26485   8.788   5.342   1.355 -0.4342 -3.7633  1.0439
  192MOL0     H26486   8.594   5.237   1.522 -3.1292  1.5546  3.1107
  192MOL0     H26487   8.550   5.294   1.360  1.3643  0.2333 -1.3849
  192MOL0     H26488   8.580   5.453   1.614 -0.6281 -1.9812  1.3101
  192MOL0     H26489   8.480   5.508   1.477 -2.4500 -1.0402  0.6107
  192MOL0     H26490   8.354   5.441   1.643  0.3197  1.0987 -1.5610
  192MOL0     H26491   8.415   5.266   1.655  1.5624 -2.0489 -2.0506
  192MOL0     H26492   8.153   5.233   1.334  0.6601 -2.9948  1.5145
  192MOL0     H26493   8.851   5.152   1.394 -1.4970 -2.2708  0.2701
  192MOL0     H26494   9.059   4.953   1.350  1.1674  0.1120  0.3212
  192MOL0     H26495   8.986   4.825   1.457 -2.4048  0.3704 -0.2976
  192MOL0     H26496   8.884   4.912   1.350 -0.4529  0.4078  0.3626
  193MOL0     O26497  10.880   3.437   9.404  0.1638  0.3253  0.0625
  193MOL0     C26498  10.897   3.491   9.297  0.2076 -0.0264 -0.8917
  193MOL0     O26499  11.021   3.526   9.252 -0.6320 -0.5676 -0.6859
  193MOL0     C26500  11.123   3.480   9.326  0.6981 -0.2953 -1.1179
  193MOL0     C26501  11.204   3.573   9.388 -0.8468 -0.0224 -0.4361
  193MOL0     C26502  11.327   3.538   9.441 -0.7848 -0.3956 -0.2427
  193MOL0     C26503  11.360   3.406   9.442 -0.9091 -0.1225  0.2411
  193MOL0     O26504  11.485   3.383   9.502 -0.4417  0.3579  0.2064
  193MOL0     C26505  11.535   3.246   9.500  0.4010  0.5303  0.2123
  193MOL0     C26506  11.683   3.261   9.533 -0.0006  0.3094  0.7394
  193MOL0     C26507  11.705   3.277   9.688 -0.3435  0.7565  0.7020
  193MOL0     C26508  11.725   3.139   9.754 -0.3069 -0.4119  0.2893
  193MOL0     C26509  11.805   3.156   9.885 -0.0081 -0.8376 -0.3770
  193MOL0     C26510  11.825   3.020   9.954  0.2199 -0.1177 -0.5258
  193MOL0     C26511  11.887   3.028  10.092  0.0227 -0.2676 -0.5289
  193MOL0     C26512  11.902   2.890  10.165  1.0720 -0.0843  0.3434
  193MOL0     N26513  11.776   2.847  10.227  0.5519 -0.8915  0.1508
  193MOL0     C26514  11.701   2.918  10.324  0.1440 -0.3013 -1.3972
  193MOL0     C26515  11.591   2.839  10.341 -0.4166 -0.0643 -0.3675
  193MOL0     C26516  11.463   2.871  10.424  0.2321 -0.0830 -0.4377
  193MOL0     C26517  11.339   2.838  10.343  0.7309 -0.3940  0.1181
  193MOL0     C26518  11.220   2.795  10.427 -0.0673  0.9631  0.0617
  193MOL0     C26519  11.090   2.828  10.361 -0.5707  0.5630  1.3568
  193MOL0     O26520  11.070   2.969  10.379  0.1091  0.4862  0.3988
  193MOL0     C26521  10.951   3.021  10.350  0.0645  0.1653  0.2387
  193MOL0     C26522  10.931   3.147  10.408 -0.3607 -0.2300  0.2248
  193MOL0     C26523  10.813   3.221  10.372 -0.3056  0.4785 -0.0512
  193MOL0     C26524  10.808   3.362  10.430  0.8643  0.2692 -0.2388
  193MOL0     C26525  10.712   3.164  10.297 -0.6238  0.4138 -0.3227
  193MOL0     C26526  10.572   3.218  10.275  0.9024  1.0483 -0.0701
  193MOL0     O26527  10.484   3.139  10.207  0.3470 -0.9859  0.4242
  193MOL0     C26528  10.354   3.188  10.203 -1.2255 -0.4779  0.7671
  193MOL0     C26529  10.267   3.139  10.294 -0.3184 -0.2319 -1.0052
  193MOL0     C26530  10.137   3.193  10.295 -0.0041  0.4645  0.3118
  193MOL0     C26531  10.095   3.290  10.212  0.3035 -0.1631 -0.2553
  193MOL0     O26532   9.971   3.339  10.232 -0.1523  0.1512 -0.4507
  193MOL0     C26533   9.888   3.392  10.135 -0.1455 -0.0907  0.7149
  193MOL0     C26534   9.847   3.532  10.182 -0.2560 -0.2395  0.4267
  193MOL0     C26535   9.959   3.639  10.174 -0.4001  0.2842 -0.1220
  193MOL0     C26536  10.065   3.639  10.280  0.2483 -0.6951 -0.8262
  193MOL0     C26537  10.163   3.753  10.268 -0.1487  0.0972 -0.3579
  193MOL0     C26538  10.281   3.748  10.366 -0.5503 -0.1640 -0.4882
  193MOL0     C26539  10.392   3.646  10.329 -0.7115 -0.0190  0.0663
  193MOL0     C26540  10.510   3.651  10.425 -0.8469 -0.5518 -0.6419
  193MOL0    Cl26541  10.474   3.586  10.592 -0.0578  0.7035  0.3187
  193MOL0     C26542  10.186   3.331  10.112  0.7664 -0.4377  0.4135
  193MOL0     C26543  10.314   3.283  10.116  0.2852 -0.1660  0.4100
  193MOL0     O26544  10.549   3.334  10.322 -0.0069 -0.1655 -0.4182
  193MOL0     C26545  10.745   3.040  10.244  0.2355 -0.5995 -0.6403
  193MOL0     C26546  10.863   2.964  10.260  1.3307  0.2161  0.1938
  193MOL0     N26547  11.609   2.715  10.275 -0.1195 -0.3947  0.4645
  193MOL0     N26548  11.717   2.731  10.204  0.1987  0.4720  0.6858
  193MOL0     C26549  11.272   3.309   9.385 -0.5162 -0.4933 -0.0611
  193MOL0     C26550  11.152   3.347   9.324  0.1519 -0.4296  0.2610
  193MOL0     C26551  10.776   3.524   9.211 -0.6638  0.3812  0.8790
  193MOL0     C26552  10.794   3.535   9.076 -0.1546  0.0764  0.2077
  193MOL0     C26553  10.691   3.572   8.989  0.0075  0.9338 -0.6121
  193MOL0     C26554  10.572   3.607   9.052 -0.2797 -0.0747  0.9122
  193MOL0     O26555  10.472   3.632   8.962  0.2436 -0.0639  1.0185
  193MOL0     C26556  10.361   3.532   8.967  0.0461 -0.0897  0.5777
  193MOL0     C26557  10.275   3.572   8.846  0.4045 -0.1287 -0.7938
  193MOL0     C26558  10.192   3.699   8.884  0.1917 -0.2870  1.3938
  193MOL0     C26559  10.223   3.830   8.804  0.1318  0.6294 -0.2655
  193MOL0     C26560  10.323   3.913   8.871 -0.5127  0.5026 -0.8624
  193MOL0     C26561  10.403   3.970   8.942  0.0762 -0.4356  0.3157
  193MOL0     C26562  10.555   3.615   9.184 -0.1104 -0.0100 -0.0587
  193MOL0     C26563  10.655   3.565   9.270  0.1742 -0.1104  0.5070
  193MOL0     C26564  10.621   3.565   9.417 -0.0085  0.0118  0.2249
  193MOL0     H26565  11.173   3.676   9.381 -4.8394 -1.1419 -2.3835
  193MOL0     H26566  11.403   3.603   9.484 -2.6802  0.3809  2.1531
  193MOL0     H26567  11.518   3.198   9.403  2.1519  0.2331  0.0149
  193MOL0     H26568  11.487   3.185   9.577  0.0430 -0.5638 -0.8386
  193MOL0     H26569  11.732   3.169   9.500  1.0615  0.2564  2.3508
  193MOL0     H26570  11.714   3.351   9.480 -1.8643  0.3390 -0.3939
  193MOL0     H26571  11.788   3.347   9.702  1.1909 -0.6338 -1.0031
  193MOL0     H26572  11.607   3.303   9.731 -2.1958 -1.9255 -1.5094
  193MOL0     H26573  11.627   3.091   9.767 -0.0987 -0.6568  0.9599
  193MOL0     H26574  11.783   3.071   9.691 -0.8525 -2.5530  1.9795
  193MOL0     H26575  11.739   3.221   9.944 -3.0880  0.4421 -4.7388
  193MOL0     H26576  11.903   3.196   9.858  1.2867 -4.3708 -1.4615
  193MOL0     H26577  11.728   2.973   9.971  0.3230  0.3942  1.9189
  193MOL0     H26578  11.874   2.951   9.886 -1.4589 -1.8593 -0.0590
  193MOL0     H26579  11.831   3.104  10.148  1.7838 -0.2110  1.2657
  193MOL0     H26580  11.989   3.067  10.081 -0.3488  1.8974  2.3424
  193MOL0     H26581  11.943   2.827  10.086  0.0168  1.1895 -1.3019
  193MOL0     H26582  11.971   2.904  10.249  2.6344  0.6761 -1.0082
  193MOL0     H26583  11.719   3.017  10.365  0.6792 -0.6010 -0.8871
  193MOL0     H26584  11.460   2.977  10.451 -0.8630 -0.3530  0.5584
  193MOL0     H26585  11.472   2.807  10.513 -2.0952  0.1536  0.0303
  193MOL0     H26586  11.313   2.925  10.282 -0.4310 -0.3197  0.6849
  193MOL0     H26587  11.361   2.756  10.274 -1.7309 -0.4725 -0.6619
  193MOL0     H26588  11.230   2.689  10.452  0.9684  1.0929  0.2278
  193MOL0     H26589  11.222   2.844  10.524  0.3446 -1.2758  1.2361
  193MOL0     H26590  11.096   2.800  10.256  1.9627  1.4343  1.1971
  193MOL0     H26591  11.008   2.764  10.396 -2.0951  0.1395 -2.5768
  193MOL0     H26592  11.005   3.203  10.463  0.7974  2.1166 -3.3390
  193MOL0     H26593  10.905   3.404  10.460 -0.7686  2.8456  1.9072
  193MOL0     H26594  10.736   3.369  10.512  1.8766 -0.5106  0.7580
  193MOL0     H26595  10.775   3.435  10.356  0.6934  0.2098 -0.2192
  193MOL0     H26596  10.301   3.069  10.370  1.1469 -0.9545 -2.2599
  193MOL0     H26597  10.078   3.165  10.381  1.9767  1.5481  2.1154
  193MOL0     H26598   9.945   3.395  10.041 -0.3585  3.6945  0.5832
  193MOL0     H26599   9.795   3.334  10.141  1.2480 -2.4423  0.9194
  193MOL0     H26600   9.771   3.565  10.110  1.4982  0.0554 -1.3614
  193MOL0     H26601   9.796   3.524  10.278 -3.9737  2.0853 -1.0902
  193MOL0     H26602   9.918   3.740  10.170  1.0680  0.9292  0.3791
  193MOL0     H26603  10.006   3.624  10.077 -1.9159  1.7492 -1.1304
  193MOL0     H26604  10.113   3.541  10.276 -0.4804 -1.0510 -1.1274
  193MOL0     H26605  10.020   3.639  10.380  0.9898 -2.6933 -0.4425
  193MOL0     H26606  10.205   3.759  10.167  0.1390  2.8247 -0.1437
  193MOL0     H26607  10.100   3.842  10.274 -1.4087 -0.7275 -1.0396
  193MOL0     H26608  10.237   3.714  10.460  1.3733  0.0420  0.5413
  193MOL0     H26609  10.315   3.850  10.384  1.4404 -0.3730 -2.5258
  193MOL0     H26610  10.423   3.669  10.226 -3.5637 -0.8623 -1.0863
  193MOL0     H26611  10.360   3.542  10.317  1.5876 -1.0122  1.8613
  193MOL0     H26612  10.558   3.750  10.428  0.9318 -1.2891 -2.5864
  193MOL0     H26613  10.591   3.586  10.391  0.5316  0.6888  0.1129
  193MOL0     H26614  10.156   3.400  10.033  3.3184  1.4861  1.0137
  193MOL0     H26615  10.393   3.310  10.045  0.2168  0.2048  0.4739
  193MOL0     H26616  10.672   2.995  10.177  0.5017 -0.7496 -0.8283
  193MOL0     H26617  10.872   2.866  10.214  0.8197  0.5166 -0.5533
  193MOL0     H26618  11.287   3.202   9.389 -1.4474 -0.5989  1.8880
  193MOL0     H26619  11.088   3.286   9.260 -1.1821  1.4728 -0.2854
  193MOL0     H26620  10.893   3.514   9.035  0.4088  0.2526  1.4329
  193MOL0     H26621  10.696   3.575   8.880 -1.0272  2.9192 -0.6627
  193MOL0     H26622  10.397   3.430   8.949 -0.4074  0.2647 -3.0360
  193MOL0     H26623  10.301   3.543   9.057 -0.4892 -1.2071  0.3688
  193MOL0     H26624  10.206   3.491   8.819 -0.3203  0.4127 -0.6022
  193MOL0     H26625  10.345   3.583   8.763  0.6287  1.0635 -0.4696
  193MOL0     H26626  10.087   3.678   8.863 -0.8645  1.9196  3.9242
  193MOL0     H26627  10.202   3.728   8.989  3.1677  3.7109  0.2795
  193MOL0     H26628  10.130   3.886   8.790  0.0625  0.8683  1.0618
  193MOL0     H26629  10.266   3.809   8.705  2.1790  2.7313  0.0782
  193MOL0     H26630  10.488   4.019   8.985  0.3740 -1.6218  1.1403
  193MOL0     H26631  10.458   3.636   9.228 -0.7376  0.9754 -1.7874
  193MOL0     H26632  10.540   3.621   9.465 -1.0033 -2.4893  1.6788
  193MOL0     H26633  10.597   3.460   9.438 -1.1724  0.4286  1.0892
  193MOL0     H26634  10.712   3.591   9.470 -0.1548  1.2721 -0.1057
  194MOL0     O26635   5.255   8.192   6.625 -0.1406  0.3561  0.6255
  194MOL0     C26636   5.188   8.290   6.612  0.0133  0.1088 -0.2913
  194MOL0     O26637   5.238   8.415   6.576  0.2236  0.0783 -0.6362
  194MOL0     C26638   5.377   8.426   6.558 -0.2038 -0.3203 -0.5026
  194MOL0     C26639   5.470   8.375   6.655 -0.2676  0.4686  0.2552
  194MOL0     C26640   5.606   8.390   6.619 -0.3527 -0.1261 -1.3542
  194MOL0     C26641   5.648   8.449   6.504 -1.0303 -0.8919  0.5003
  194MOL0     O26642   5.783   8.458   6.468 -0.7777 -0.1995  0.1749
  194MOL0     C26643   5.869   8.370   6.531 -0.5961 -0.2452  0.4970
  194MOL0     C26644   6.003   8.353   6.459  0.3223 -0.0935  0.8102
  194MOL0     C26645   6.078   8.486   6.460  0.1994  0.7207 -0.0655
  194MOL0     C26646   6.231   8.468   6.447  0.3581 -0.2683  0.4887
  194MOL0     C26647   6.288   8.521   6.318  1.4752  0.3427 -0.8276
  194MOL0     C26648   6.233   8.446   6.195 -0.1142  0.0920 -0.0159
  194MOL0     C26649   6.296   8.471   6.071 -0.2939 -0.3779  0.4468
  194MOL0     C26650   6.286   8.620   6.030  0.3159 -0.3465 -0.3427
  194MOL0     N26651   6.305   8.648   5.887  0.0636 -0.0074 -0.2559
  194MOL0     C26652   6.214   8.609   5.788 -0.1147 -0.1103  0.2031
  194MOL0     C26653   6.287   8.647   5.673 -0.1960 -0.8749 -0.5021
  194MOL0     C26654   6.223   8.639   5.534 -0.2039 -0.1276 -0.4488
  194MOL0     C26655   6.118   8.746   5.495 -0.3335 -1.1137 -0.2088
  194MOL0     C26656   6.166   8.897   5.513  0.2550  0.1559 -0.5674
  194MOL0     C26657   6.057   8.997   5.497 -0.1232 -0.1439  0.7157
  194MOL0     O26658   5.941   8.978   5.588  0.4827  0.6560 -0.1258
  194MOL0     C26659   5.829   8.907   5.562  0.2977  0.9744 -0.4698
  194MOL0     C26660   5.807   8.829   5.449  0.5579  0.2053  0.2743
  194MOL0     C26661   5.690   8.744   5.434  1.0513  0.3684 -0.3691
  194MOL0     C26662   5.669   8.678   5.304  0.6782 -0.4940  0.7813
  194MOL0     C26663   5.590   8.747   5.541 -0.1775  0.2427 -0.9318
  194MOL0     C26664   5.467   8.663   5.544  0.4290  0.4275  1.7351
  194MOL0     O26665   5.370   8.695   5.634 -0.3320 -0.3180 -0.0001
  194MOL0     C26666   5.257   8.617   5.645 -1.1509 -0.2112  0.0548
  194MOL0     C26667   5.146   8.701   5.643  0.0375 -0.1065  0.0953
  194MOL0     C26668   5.013   8.650   5.657  0.2365 -0.0121  0.4130
  194MOL0     C26669   5.001   8.509   5.658  0.3310  0.0584  0.3421
  194MOL0     O26670   4.878   8.459   5.674 -0.7293  0.1718  0.5156
  194MOL0     C26671   4.860   8.322   5.709 -0.5827  0.6965  0.2438
  194MOL0     C26672   4.708   8.297   5.692  0.2202 -0.3017 -0.7948
  194MOL0     C26673   4.661   8.168   5.752  0.5722 -0.3474 -0.0358
  194MOL0     C26674   4.514   8.144   5.733  0.6290 -0.0764  0.9444
  194MOL0     C26675   4.462   8.004   5.780  0.4090 -0.7427 -0.4751
  194MOL0     C26676   4.309   8.007   5.782 -0.2576  1.0086 -0.2528
  194MOL0     C26677   4.251   8.087   5.903  0.0486  0.4132 -0.3161
  194MOL0     C26678   4.097   8.091   5.912  0.3771  0.9882 -0.9700
  194MOL0    Cl26679   4.029   7.920   5.912  0.3980  0.2758  0.2788
  194MOL0     C26680   5.121   8.431   5.653 -0.0516  0.1385 -0.4227
  194MOL0     C26681   5.245   8.477   5.649 -0.3826  0.4997 -0.3709
  194MOL0     O26682   5.463   8.562   5.467 -1.0195 -0.3040 -0.4332
  194MOL0     C26683   5.610   8.842   5.645  0.0700  0.4148 -0.2392
  194MOL0     C26684   5.719   8.929   5.649  0.3544 -1.0031 -0.2977
  194MOL0     N26685   6.408   8.702   5.711  0.5361 -0.3812 -0.0665
  194MOL0     N26686   6.408   8.702   5.835 -0.3561 -1.0327  0.4913
  194MOL0     C26687   5.560   8.510   6.418  0.3671  0.4640  1.1958
  194MOL0     C26688   5.420   8.497   6.444 -0.1277  0.6363 -0.0955
  194MOL0     C26689   5.042   8.283   6.624  0.1517 -0.3816 -0.2312
  194MOL0     C26690   4.972   8.385   6.561  0.2290 -0.2714 -0.0260
  194MOL0     C26691   4.833   8.385   6.549  0.4993  0.4147 -0.2469
  194MOL0     C26692   4.758   8.281   6.591  0.2824 -0.3049 -0.3079
  194MOL0     O26693   4.623   8.294   6.565 -0.0694 -0.1113 -0.6768
  194MOL0     C26694   4.535   8.194   6.619 -0.7624  0.3738 -0.3785
  194MOL0     C26695   4.397   8.241   6.597  0.1806 -0.7489 -1.0298
  194MOL0     C26696   4.289   8.127   6.614  0.4081 -0.1544  0.1702
  194MOL0     C26697   4.274   8.058   6.742  0.1689  0.8944 -0.8883
  194MOL0     C26698   4.244   8.144   6.868 -0.3438  0.6434  0.1972
  194MOL0     C26699   4.196   8.188   6.971 -0.5406 -0.9546 -0.1731
  194MOL0     C26700   4.826   8.177   6.652 -0.2154  0.3666 -0.0961
  194MOL0     C26701   4.961   8.173   6.667 -0.6055 -0.1852  0.2935
  194MOL0     C26702   5.029   8.062   6.751  0.4031  0.2761  0.7547
  194MOL0     H26703   5.431   8.319   6.739  0.3668 -0.9189 -0.3511
  194MOL0     H26704   5.676   8.348   6.690 -1.0297 -1.6134 -1.5281
  194MOL0     H26705   5.835   8.266   6.529 -0.2343 -0.3619  0.2096
  194MOL0     H26706   5.880   8.396   6.636  2.3263 -2.2257  0.7912
  194MOL0     H26707   6.060   8.279   6.516 -1.8889  0.4836  4.0064
  194MOL0     H26708   5.985   8.330   6.354  0.5279 -0.6080  0.8878
  194MOL0     H26709   6.038   8.549   6.379  3.5316  0.0455 -2.4472
  194MOL0     H26710   6.059   8.532   6.558  1.8589 -0.2412  0.7569
  194MOL0     H26711   6.266   8.519   6.537 -1.3514  2.1912 -0.1229
  194MOL0     H26712   6.258   8.362   6.452 -0.4754 -0.4426  1.8067
  194MOL0     H26713   6.397   8.520   6.331  1.5653 -3.3906 -0.9465
  194MOL0     H26714   6.261   8.627   6.306  2.2097  0.5415 -0.7711
  194MOL0     H26715   6.258   8.342   6.217 -1.8999 -0.5805 -1.0408
  194MOL0     H26716   6.127   8.469   6.179  0.1501  1.1875 -0.3039
  194MOL0     H26717   6.248   8.409   5.994 -0.5225 -0.1586  0.4107
  194MOL0     H26718   6.403   8.453   6.083 -0.7216 -1.9032  2.6319
  194MOL0     H26719   6.189   8.649   6.071 -0.0460  2.5257 -2.9228
  194MOL0     H26720   6.372   8.666   6.080  0.6690 -1.5270  0.1813
  194MOL0     H26721   6.119   8.560   5.776 -0.0109  0.1958 -2.2605
  194MOL0     H26722   6.180   8.540   5.520 -0.6384 -0.1391  0.8652
  194MOL0     H26723   6.298   8.648   5.454  0.0820 -2.6045 -0.5293
  194MOL0     H26724   6.104   8.727   5.388 -0.1834 -0.3178 -0.3733
  194MOL0     H26725   6.031   8.732   5.560 -0.4706  0.5608  0.0154
  194MOL0     H26726   6.207   8.902   5.614  2.3122  2.2159 -1.4443
  194MOL0     H26727   6.247   8.923   5.445  0.6110  0.7060  0.0608
  194MOL0     H26728   6.088   9.099   5.520  0.1793  0.3095 -1.4888
  194MOL0     H26729   6.021   9.014   5.395 -0.3773 -3.2187  0.2013
  194MOL0     H26730   5.878   8.811   5.368 -0.5701  0.6730 -0.8525
  194MOL0     H26731   5.730   8.722   5.225 -0.0918 -1.9110 -0.6506
  194MOL0     H26732   5.564   8.681   5.273  0.2012 -0.4895  2.3109
  194MOL0     H26733   5.697   8.573   5.318  1.7527 -0.3384 -0.0962
  194MOL0     H26734   5.144   8.809   5.642 -2.6936 -0.0505 -1.6241
  194MOL0     H26735   4.927   8.716   5.664 -0.6659 -1.0491 -0.5549
  194MOL0     H26736   4.916   8.251   5.648  0.2837  1.4884  0.0946
  194MOL0     H26737   4.895   8.308   5.811  3.0928  2.3164 -0.6580
  194MOL0     H26738   4.664   8.383   5.743  1.0950  0.2190 -0.9023
  194MOL0     H26739   4.655   8.297   5.596 -0.6166 -0.5897 -0.3477
  194MOL0     H26740   4.682   8.156   5.859  1.6888  1.6270  0.0056
  194MOL0     H26741   4.714   8.083   5.709 -0.1464  0.5990 -2.9688
  194MOL0     H26742   4.480   8.156   5.629 -1.7577 -1.5283  1.4691
  194MOL0     H26743   4.457   8.225   5.781  0.4111  0.6672 -0.4944
  194MOL0     H26744   4.495   7.926   5.712  1.2976  1.7649 -3.1198
  194MOL0     H26745   4.524   7.996   5.870  2.7444  0.5327 -1.8707
  194MOL0     H26746   4.282   7.901   5.788  1.4899  0.4434 -1.4979
  194MOL0     H26747   4.275   8.044   5.685  0.5327 -0.1507 -0.9947
  194MOL0     H26748   4.277   8.193   5.904 -1.8019  0.9836 -2.8313
  194MOL0     H26749   4.291   8.045   5.996  1.4314  2.5869  0.1504
  194MOL0     H26750   4.060   8.142   5.822 -0.4029  0.4025 -0.9895
  194MOL0     H26751   4.078   8.150   6.002  5.7932  2.0595 -0.1819
  194MOL0     H26752   5.108   8.323   5.663  1.2826  0.1741  2.3734
  194MOL0     H26753   5.330   8.409   5.648 -1.2225 -0.6125  0.3163
  194MOL0     H26754   5.535   8.856   5.722  1.2229  1.7158  0.6990
  194MOL0     H26755   5.720   9.011   5.721 -2.3170  2.3136 -3.6059
  194MOL0     H26756   5.601   8.575   6.341 -2.9190  1.9492  0.4901
  194MOL0     H26757   5.336   8.534   6.386  0.7407 -0.1683 -1.9525
  194MOL0     H26758   5.021   8.460   6.500  0.8098  0.9080  1.8062
  194MOL0     H26759   4.774   8.467   6.511 -4.4037 -2.8508 -0.6242
  194MOL0     H26760   4.547   8.095   6.574  2.8368 -1.0594  3.1362
  194MOL0     H26761   4.556   8.192   6.727  1.8035 -1.1773 -0.8225
  194MOL0     H26762   4.392   8.281   6.495  1.0446 -0.0007 -0.7892
  194MOL0     H26763   4.394   8.316   6.677  1.2745 -2.5522  0.7710
  194MOL0     H26764   4.191   8.174   6.603  0.2200 -0.4091  0.7526
  194MOL0     H26765   4.303   8.057   6.531  0.4381  0.2617 -0.1781
  194MOL0     H26766   4.367   8.008   6.770 -0.6130  2.2297  5.7963
  194MOL0     H26767   4.201   7.977   6.738  1.8673 -0.8207  0.7272
  194MOL0     H26768   4.153   8.225   7.062  0.9572  2.4311 -0.6890
  194MOL0     H26769   4.767   8.094   6.691 -0.0045 -0.6315 -1.7906
  194MOL0     H26770   4.954   7.994   6.790 -0.4351  1.0724  0.5659
  194MOL0     H26771   5.082   8.005   6.674 -0.0632 -2.4726  2.3527
  194MOL0     H26772   5.095   8.092   6.833 -0.2950  2.7763  0.5011
  195MOL0     O26773   3.138   5.965   8.807  0.5547  0.5558 -0.1881
  195MOL0     C26774   3.238   5.948   8.740  0.0454  0.1930 -0.4822
  195MOL0     O26775   3.244   5.940   8.603  0.2180  0.1122 -0.6554
  195MOL0     C26776   3.134   5.981   8.543  0.8136  0.2186  1.2825
  195MOL0     C26777   3.064   5.907   8.452 -0.4444  0.1037  0.0843
  195MOL0     C26778   2.932   5.937   8.388  0.0577 -0.5823 -0.7864
  195MOL0     C26779   2.891   6.073   8.404  0.7107 -1.0275  0.1777
  195MOL0     O26780   2.769   6.126   8.358  0.3127 -0.8165  0.8648
  195MOL0     C26781   2.712   6.071   8.242 -0.1440 -0.3175 -0.2279
  195MOL0     C26782   2.607   5.963   8.273  0.0173  0.1652  0.0680
  195MOL0     C26783   2.575   5.877   8.151  0.5280 -0.3103 -0.2941
  195MOL0     C26784   2.509   5.953   8.041 -0.3586 -0.1385  0.3000
  195MOL0     C26785   2.488   5.858   7.923 -0.9577 -0.7886 -0.0859
  195MOL0     C26786   2.343   5.841   7.886 -0.1065 -0.5833 -0.2394
  195MOL0     C26787   2.286   5.734   7.973  0.2892  0.4356 -1.1613
  195MOL0     C26788   2.143   5.694   7.927 -0.4545 -0.3009  0.0412
  195MOL0     N26789   2.136   5.614   7.801 -0.3431  0.2064 -0.2898
  195MOL0     C26790   2.031   5.617   7.706 -0.5055 -0.2936  0.1472
  195MOL0     C26791   2.066   5.519   7.616  0.7162  0.8906 -0.2409
  195MOL0     C26792   1.972   5.468   7.506 -0.5886  0.0164  0.7878
  195MOL0     C26793   1.990   5.312   7.503 -0.7799 -0.0464 -0.2839
  195MOL0     C26794   1.896   5.253   7.397  0.1562  0.4548 -0.2168
  195MOL0     C26795   1.882   5.102   7.435  0.4645 -1.0967 -0.1603
  195MOL0     O26796   1.769   5.038   7.374 -0.4139 -0.6624 -0.5097
  195MOL0     C26797   1.751   5.060   7.236 -0.6492 -0.0156 -0.6287
  195MOL0     C26798   1.623   5.056   7.195 -0.1970 -0.3796 -0.2916
  195MOL0     C26799   1.583   5.062   7.065 -0.7579  0.1122 -0.1299
  195MOL0     C26800   1.433   5.070   7.037 -0.0040 -0.5345  0.2200
  195MOL0     C26801   1.682   5.061   6.963  0.2919 -0.2397 -0.1453
  195MOL0     C26802   1.644   5.085   6.821  0.0010 -0.6369  0.4524
  195MOL0     O26803   1.700   4.984   6.740 -0.2889 -0.0401 -0.3756
  195MOL0     C26804   1.666   4.988   6.607 -0.1355  0.5000  0.0081
  195MOL0     C26805   1.567   4.900   6.561 -0.3330  0.0771 -0.0609
  195MOL0     C26806   1.533   4.890   6.426  1.1354 -0.2422  0.2287
  195MOL0     C26807   1.591   4.979   6.332  0.1207 -0.5392  0.9408
  195MOL0     O26808   1.565   4.967   6.192  0.2424 -0.1343  0.2971
  195MOL0     C26809   1.426   4.955   6.148 -1.2597  0.1112 -0.0867
  195MOL0     C26810   1.412   4.974   5.995 -0.5084  1.0980  1.6266
  195MOL0     C26811   1.263   4.969   5.967  0.1518 -0.2799  0.2189
  195MOL0     C26812   1.241   5.020   5.829 -0.3363  0.4572  0.2980
  195MOL0     C26813   1.100   4.991   5.782  0.2898 -0.1467  0.5195
  195MOL0     C26814   1.098   5.029   5.639 -0.1848  0.3531  0.1426
  195MOL0     C26815   0.959   4.989   5.584 -0.8840  1.1677  0.3325
  195MOL0     C26816   0.949   4.998   5.434  0.6535 -0.1449  0.6446
  195MOL0    Cl26817   0.761   4.994   5.417  0.1434  0.3155 -0.4023
  195MOL0     C26818   1.691   5.064   6.375 -0.2278 -0.4798 -0.0427
  195MOL0     C26819   1.719   5.076   6.512 -1.0794  0.5910 -0.2425
  195MOL0     O26820   1.573   5.177   6.776 -0.6257 -0.0280  0.4306
  195MOL0     C26821   1.815   5.066   7.006 -0.0115 -0.0296  0.0310
  195MOL0     C26822   1.854   5.060   7.137 -0.5129 -0.4143 -0.7535
  195MOL0     N26823   2.190   5.464   7.651  0.3744  0.2064 -0.7419
  195MOL0     N26824   2.239   5.534   7.752 -0.4202  0.6343 -0.8209
  195MOL0     C26825   2.973   6.156   8.483  0.3284 -0.5709  0.3068
  195MOL0     C26826   3.094   6.114   8.546 -0.3627  0.2757 -0.3805
  195MOL0     C26827   3.377   5.943   8.808  0.0115 -0.2464  0.3736
  195MOL0     C26828   3.490   5.926   8.728 -0.0473  0.6250  0.2016
  195MOL0     C26829   3.618   5.916   8.788 -0.1321 -1.1500  0.4380
  195MOL0     C26830   3.636   5.922   8.922  0.4589 -0.3980  0.1970
  195MOL0     O26831   3.760   5.890   8.963  0.5451 -0.2480 -0.9171
  195MOL0     C26832   3.811   6.005   9.035 -0.6245 -0.1618 -0.1941
  195MOL0     C26833   3.836   5.972   9.186  0.1093  0.1848  1.0982
  195MOL0     C26834   3.933   6.076   9.239  0.3484  0.0807  0.0850
  195MOL0     C26835   3.994   6.044   9.375  0.0275  0.2029  0.5293
  195MOL0     C26836   3.895   6.060   9.482  0.1808  0.6261 -0.1667
  195MOL0     C26837   3.814   6.052   9.568  0.1468 -0.3646 -0.5152
  195MOL0     C26838   3.523   5.925   8.998  0.1757 -0.3571 -1.0211
  195MOL0     C26839   3.397   5.953   8.941 -0.1063  1.0701 -0.3862
  195MOL0     C26840   3.289   5.984   9.042  0.6635  1.0562  0.1657
  195MOL0     H26841   3.099   5.805   8.439 -0.1925  0.1838  0.1472
  195MOL0     H26842   2.882   5.861   8.328 -2.4772  0.6081 -0.3432
  195MOL0     H26843   2.783   6.037   8.167  1.3090  1.8233  0.1058
  195MOL0     H26844   2.661   6.151   8.187 -0.6049  0.9369  1.9085
  195MOL0     H26845   2.650   5.903   8.354 -0.6306 -0.4698 -0.0506
  195MOL0     H26846   2.519   6.010   8.318  0.0908  1.4353 -1.0501
  195MOL0     H26847   2.671   5.838   8.117  0.4395 -1.0993  0.3170
  195MOL0     H26848   2.504   5.798   8.177 -1.7399  1.3671 -1.0173
  195MOL0     H26849   2.414   5.997   8.073 -2.9189 -2.1851 -3.6074
  195MOL0     H26850   2.580   6.031   8.011  0.0812 -0.6200  0.0697
  195MOL0     H26851   2.539   5.762   7.930  2.8995  0.9363 -1.7172
  195MOL0     H26852   2.530   5.909   7.835 -2.6149  1.2806  0.2229
  195MOL0     H26853   2.294   5.934   7.913  0.7067 -0.0854 -0.4275
  195MOL0     H26854   2.326   5.825   7.779 -0.5067 -0.1488 -0.2406
  195MOL0     H26855   2.284   5.760   8.080  0.8577 -2.9023 -0.2296
  195MOL0     H26856   2.352   5.647   7.972  1.4799  1.0835  2.8755
  195MOL0     H26857   2.091   5.644   8.009  2.3949 -0.5850  1.8135
  195MOL0     H26858   2.088   5.786   7.907 -0.6211 -0.3319  0.3510
  195MOL0     H26859   1.940   5.675   7.710 -0.0442  0.5236 -0.5754
  195MOL0     H26860   2.006   5.506   7.409 -0.4903  1.8542  1.5126
  195MOL0     H26861   1.869   5.497   7.527 -0.6087 -0.6899  1.7235
  195MOL0     H26862   2.094   5.281   7.488 -1.4407 -1.7838 -1.5833
  195MOL0     H26863   1.965   5.274   7.602  2.0636  1.4617  1.1293
  195MOL0     H26864   1.803   5.309   7.403  0.4567  1.1456 -1.5703
  195MOL0     H26865   1.945   5.267   7.300  0.2328  1.7520 -0.0102
  195MOL0     H26866   1.972   5.046   7.407 -0.6646 -3.2844  0.3172
  195MOL0     H26867   1.875   5.101   7.544  0.0229  2.2589 -0.0522
  195MOL0     H26868   1.540   5.035   7.263 -0.1802 -1.3594 -0.5566
  195MOL0     H26869   1.364   5.051   7.120 -1.6345 -1.0816 -1.1988
  195MOL0     H26870   1.400   4.995   6.964 -1.3131 -2.1037  2.2885
  195MOL0     H26871   1.426   5.170   6.993  2.2310 -1.1333 -1.7041
  195MOL0     H26872   1.518   4.832   6.631 -1.2677 -1.7292 -2.3524
  195MOL0     H26873   1.452   4.826   6.392  0.2793 -0.1409  1.9604
  195MOL0     H26874   1.400   4.850   6.158  0.8799 -0.5126 -0.5729
  195MOL0     H26875   1.352   5.019   6.197 -1.6746 -0.4744  0.0506
  195MOL0     H26876   1.458   5.068   5.961  2.5115  0.4460  3.5325
  195MOL0     H26877   1.459   4.885   5.954 -0.6037  0.5160  2.7531
  195MOL0     H26878   1.212   5.035   6.037  3.0744  0.8190  1.4785
  195MOL0     H26879   1.231   4.865   5.979  1.0584 -0.9665 -2.5561
  195MOL0     H26880   1.300   4.965   5.754 -0.1544 -0.3227  0.9971
  195MOL0     H26881   1.259   5.127   5.831 -1.7679  0.7041  1.2862
  195MOL0     H26882   1.073   4.887   5.805 -1.2642  0.6399  2.6191
  195MOL0     H26883   1.031   5.062   5.829 -1.5443 -2.0499  0.8174
  195MOL0     H26884   1.180   4.976   5.589  0.2575  1.7406 -0.6674
  195MOL0     H26885   1.110   5.136   5.621 -0.7259  0.7590  1.9624
  195MOL0     H26886   0.885   5.056   5.630 -1.0341 -0.7718  3.2034
  195MOL0     H26887   0.931   4.891   5.622 -1.0062  0.5209 -1.3647
  195MOL0     H26888   0.994   4.910   5.388  1.4280  0.2288  0.6766
  195MOL0     H26889   0.996   5.088   5.393 -1.0072 -0.4013 -2.0930
  195MOL0     H26890   1.742   5.129   6.304 -0.0716  0.9545  1.3326
  195MOL0     H26891   1.793   5.144   6.554  2.4390 -3.0621  0.0355
  195MOL0     H26892   1.888   5.083   6.928  0.6662 -2.1851  0.1432
  195MOL0     H26893   1.955   5.074   7.175 -2.2251  2.3154  3.5664
  195MOL0     H26894   2.943   6.260   8.497  0.6961 -0.6806  2.1699
  195MOL0     H26895   3.146   6.190   8.603  1.1135 -2.3046  1.9500
  195MOL0     H26896   3.473   5.920   8.621 -1.9830  0.6259  0.4787
  195MOL0     H26897   3.710   5.894   8.735  0.2761 -0.8126  0.9865
  195MOL0     H26898   3.905   6.027   8.983  0.7248 -0.4114  1.9883
  195MOL0     H26899   3.753   6.095   9.013  1.3850  0.3604 -4.3419
  195MOL0     H26900   3.889   5.877   9.182 -0.2281  0.0095 -1.8872
  195MOL0     H26901   3.739   5.974   9.237  0.2671 -1.3857  1.4997
  195MOL0     H26902   4.012   6.101   9.167  1.7048 -0.0990  1.4511
  195MOL0     H26903   3.875   6.168   9.249  0.1873 -0.0655  0.4778
  195MOL0     H26904   4.080   6.111   9.386 -0.6856  1.6088 -1.7895
  195MOL0     H26905   4.031   5.942   9.367  0.4707  0.3289  0.9438
  195MOL0     H26906   3.737   6.032   9.640  1.9868  0.1032  1.7170
  195MOL0     H26907   3.540   5.918   9.105  1.0741 -0.4248 -1.1598
  195MOL0     H26908   3.230   6.073   9.018  0.9042  0.9235 -0.9839
  195MOL0     H26909   3.217   5.903   9.061  2.6936 -0.8681  0.0705
  195MOL0     H26910   3.332   6.013   9.138  2.0848  1.2412 -0.5030
  196MOL0     O26911   4.731   4.074   7.533 -0.4708  0.3066  0.7049
  196MOL0     C26912   4.690   4.044   7.645 -0.2971 -0.5687  0.0396
  196MOL0     O26913   4.752   4.066   7.764  0.0665  0.6644 -0.0042
  196MOL0     C26914   4.880   4.105   7.759 -0.5776  0.0807  0.4026
  196MOL0     C26915   4.923   4.228   7.703 -0.2054 -0.6890  0.6355
  196MOL0     C26916   5.054   4.279   7.716 -0.5920 -0.3716 -0.8627
  196MOL0     C26917   5.147   4.205   7.786 -0.2964 -0.6809  0.0703
  196MOL0     O26918   5.275   4.258   7.808  1.3262 -0.0601 -0.0458
  196MOL0     C26919   5.309   4.255   7.949 -0.0745 -0.1717  0.0590
  196MOL0     C26920   5.415   4.365   7.982 -0.0468 -0.1449  0.9434
  196MOL0     C26921   5.522   4.372   7.874  0.5629 -0.1910  0.1677
  196MOL0     C26922   5.655   4.432   7.910 -0.1391 -0.1549 -1.0863
  196MOL0     C26923   5.744   4.442   7.784  0.6873 -0.5496 -0.6475
  196MOL0     C26924   5.882   4.504   7.814 -0.1377  0.7329 -0.1701
  196MOL0     C26925   5.951   4.447   7.935 -0.4475 -0.0191  0.9852
  196MOL0     C26926   6.000   4.299   7.929  0.0321  0.0721  0.5350
  196MOL0     N26927   6.090   4.265   8.043 -0.7874  0.6998  0.4556
  196MOL0     C26928   6.054   4.264   8.178  0.1563 -0.6714 -0.1149
  196MOL0     C26929   6.169   4.217   8.233  0.0690  1.3116  0.4233
  196MOL0     C26930   6.197   4.193   8.378  0.3359  0.5331 -0.4830
  196MOL0     C26931   6.087   4.103   8.452 -0.1434  0.1372 -0.4017
  196MOL0     C26932   6.124   4.081   8.602 -0.1280 -0.0938  0.8104
  196MOL0     C26933   6.108   4.193   8.705  0.6247 -0.1379  0.4424
  196MOL0     O26934   6.206   4.180   8.813  0.5701  0.3800 -0.5218
  196MOL0     C26935   6.238   4.303   8.876 -0.0053  0.6824  0.0838
  196MOL0     C26936   6.207   4.332   9.009  0.0991 -0.3687 -0.3027
  196MOL0     C26937   6.245   4.454   9.070  0.4375  0.3037 -0.5352
  196MOL0     C26938   6.191   4.473   9.212 -0.0197 -0.8105 -0.1526
  196MOL0     C26939   6.319   4.545   8.999  0.9094  0.2349  0.2863
  196MOL0     C26940   6.389   4.659   9.066  0.5155 -0.4247  0.2586
  196MOL0     O26941   6.374   4.696   9.198  0.8490 -0.1112  0.0938
  196MOL0     C26942   6.480   4.743   9.269 -0.0217  0.6004  0.1847
  196MOL0     C26943   6.483   4.709   9.409 -1.0396  0.5329 -0.0385
  196MOL0     C26944   6.580   4.766   9.492  0.1767  0.0886  0.0124
  196MOL0     C26945   6.668   4.871   9.442 -0.2369  0.0194 -0.1021
  196MOL0     O26946   6.771   4.925   9.514 -0.5332  0.4600  0.6498
  196MOL0     C26947   6.747   4.962   9.652 -0.3390  0.6948 -0.0053
  196MOL0     C26948   6.836   5.069   9.700  0.6782  0.8200 -0.3838
  196MOL0     C26949   6.972   5.068   9.618 -0.2123 -0.4229  0.4652
  196MOL0     C26950   7.076   5.154   9.687 -0.4271 -0.2047  0.1361
  196MOL0     C26951   7.123   5.094   9.819  0.3001 -0.2132  0.1853
  196MOL0     C26952   7.229   5.184   9.897  0.6656  0.1908 -0.5419
  196MOL0     C26953   7.353   5.203   9.805 -0.2718 -0.1842 -0.3742
  196MOL0     C26954   7.475   5.233   9.895  0.4736  0.3233 -0.3750
  196MOL0    Cl26955   7.546   5.080   9.978  0.2308 -0.2288 -0.0291
  196MOL0     C26956   6.654   4.910   9.310  1.2547  0.0135 -0.2979
  196MOL0     C26957   6.556   4.851   9.223  0.3694 -0.1692  0.7721
  196MOL0     O26958   6.445   4.727   8.989 -0.2174 -0.7831  0.3543
  196MOL0     C26959   6.342   4.525   8.859  1.3788  0.6712  0.1148
  196MOL0     C26960   6.304   4.403   8.802 -0.0844 -0.0693 -0.3491
  196MOL0     N26961   6.265   4.181   8.134  0.3698  0.3475  0.1131
  196MOL0     N26962   6.221   4.220   8.021 -0.0545 -0.3695  0.4154
  196MOL0     C26963   5.106   4.075   7.830 -0.0454 -0.6676 -1.1702
  196MOL0     C26964   4.974   4.032   7.824 -0.1824  0.7580 -0.3135
  196MOL0     C26965   4.556   3.976   7.658  0.3047 -0.6204 -0.4122
  196MOL0     C26966   4.536   3.908   7.777 -0.3359  0.3128 -0.2440
  196MOL0     C26967   4.422   3.832   7.807  0.0682 -0.5893  0.0534
  196MOL0     C26968   4.318   3.820   7.716  0.2561 -0.3105 -0.6533
  196MOL0     O26969   4.205   3.739   7.742  0.0167 -0.1135 -0.0158
  196MOL0     C26970   4.096   3.752   7.650  0.0802  1.1616 -0.3953
  196MOL0     C26971   3.978   3.659   7.690 -1.0390  0.7514  0.3777
  196MOL0     C26972   4.016   3.513   7.659  0.2634 -0.2609  0.7846
  196MOL0     C26973   4.014   3.476   7.507 -0.0446 -0.1226 -0.0574
  196MOL0     C26974   4.075   3.354   7.474  0.7416  0.3801  0.1773
  196MOL0     C26975   4.123   3.251   7.455 -0.0492  0.5893  0.3125
  196MOL0     C26976   4.334   3.900   7.597 -0.3531  0.3689  0.2303
  196MOL0     C26977   4.446   3.973   7.566 -0.2074 -0.2087  0.1631
  196MOL0     C26978   4.440   4.040   7.431 -0.2621  0.0930  0.2501
  196MOL0     H26979   4.849   4.300   7.670  1.3458  0.5352 -0.3333
  196MOL0     H26980   5.080   4.377   7.677  1.0757 -1.6771 -3.2849
  196MOL0     H26981   5.351   4.155   7.967 -0.0127 -1.0832 -4.0045
  196MOL0     H26982   5.225   4.283   8.013 -1.7323 -0.4025 -1.9135
  196MOL0     H26983   5.367   4.463   7.981  2.7296  1.3089  1.0450
  196MOL0     H26984   5.452   4.343   8.083 -3.0243  0.1499  2.2158
  196MOL0     H26985   5.540   4.268   7.844  1.1206  0.3845 -1.6150
  196MOL0     H26986   5.481   4.427   7.789 -1.0136  0.8929  1.5608
  196MOL0     H26987   5.634   4.535   7.940  1.4953  0.5218 -2.0759
  196MOL0     H26988   5.689   4.374   7.996  0.4180  2.3506  0.5005
  196MOL0     H26989   5.702   4.500   7.701 -3.5929 -1.5230  0.5808
  196MOL0     H26990   5.760   4.337   7.756  0.6140 -0.5756 -0.5924
  196MOL0     H26991   5.953   4.491   7.731 -0.8705 -1.7395 -0.4831
  196MOL0     H26992   5.854   4.609   7.825 -2.3185 -0.0825  5.3755
  196MOL0     H26993   5.893   4.462   8.026 -2.2083 -0.4113 -0.0379
  196MOL0     H26994   6.050   4.495   7.934  0.3757 -1.6575  0.5804
  196MOL0     H26995   5.918   4.227   7.925  1.1396 -1.2320  0.6161
  196MOL0     H26996   6.058   4.276   7.839 -0.2619  2.1879 -0.2612
  196MOL0     H26997   5.957   4.279   8.223  1.5941  2.2684  2.3564
  196MOL0     H26998   6.195   4.294   8.420 -0.3186  0.2686  0.1429
  196MOL0     H26999   6.297   4.149   8.383 -0.1823 -0.5255  1.3474
  196MOL0     H27000   5.984   4.137   8.436 -0.8592 -0.5843  2.1191
  196MOL0     H27001   6.089   4.008   8.398  1.7662 -0.3488  0.4239
  196MOL0     H27002   6.061   3.998   8.636  0.1927 -1.7983 -2.3997
  196MOL0     H27003   6.229   4.053   8.594 -0.6199 -2.1084  0.8406
  196MOL0     H27004   6.129   4.285   8.650 -0.4108  0.3184  0.7768
  196MOL0     H27005   6.005   4.202   8.740  0.4556  3.2101 -0.6024
  196MOL0     H27006   6.150   4.265   9.073 -0.1701 -0.0466 -0.2052
  196MOL0     H27007   6.271   4.482   9.286 -1.1651 -1.8325  1.2620
  196MOL0     H27008   6.128   4.388   9.241  2.0509 -1.4967  2.6907
  196MOL0     H27009   6.124   4.560   9.211 -0.2589 -0.9720  0.9628
  196MOL0     H27010   6.397   4.651   9.442 -2.0034  2.2637  0.6097
  196MOL0     H27011   6.592   4.728   9.593  1.2378  1.2860  0.3694
  196MOL0     H27012   6.640   4.975   9.670 -0.3623 -0.5113  0.8946
  196MOL0     H27013   6.771   4.879   9.719 -2.3759 -0.1981 -0.3083
  196MOL0     H27014   6.792   5.165   9.671  3.7616  1.8916 -2.0173
  196MOL0     H27015   6.839   5.058   9.809  1.1628  0.2012 -0.4551
  196MOL0     H27016   6.951   5.110   9.520 -3.0407 -1.2268  0.6534
  196MOL0     H27017   7.014   4.968   9.601 -0.3751 -0.7115  1.6752
  196MOL0     H27018   7.027   5.251   9.703 -1.2912 -0.4466 -0.9632
  196MOL0     H27019   7.159   5.155   9.616 -1.3944 -1.1414 -1.0335
  196MOL0     H27020   7.036   5.091   9.885  0.4365  1.7950  0.5185
  196MOL0     H27021   7.165   4.994   9.810  0.5322 -0.1937  0.9834
  196MOL0     H27022   7.260   5.124   9.983  1.2627  2.8383  1.2046
  196MOL0     H27023   7.175   5.272   9.933  0.6529 -0.5448  1.3700
  196MOL0     H27024   7.334   5.292   9.743  0.1021  1.4192  1.6737
  196MOL0     H27025   7.365   5.110   9.749  3.4133 -1.2980  1.9610
  196MOL0     H27026   7.455   5.293   9.985 -2.9808 -1.5386  0.2817
  196MOL0     H27027   7.560   5.282   9.846 -1.2491  2.3331 -1.5634
  196MOL0     H27028   6.723   4.984   9.272 -0.8176  1.4541 -1.4672
  196MOL0     H27029   6.520   4.892   9.129 -0.6412  0.7537  1.5357
  196MOL0     H27030   6.388   4.600   8.795 -0.1634  2.6977  1.2765
  196MOL0     H27031   6.320   4.387   8.696 -2.6099 -0.5219 -0.7274
  196MOL0     H27032   5.176   4.020   7.891 -0.3017 -1.0581 -1.2216
  196MOL0     H27033   4.959   3.939   7.878 -0.4523  1.9557  1.7742
  196MOL0     H27034   4.619   3.907   7.848  1.4134 -2.3044 -2.1305
  196MOL0     H27035   4.419   3.782   7.904 -0.8424 -1.3959 -0.3738
  196MOL0     H27036   4.051   3.852   7.653  0.7538  1.4942  2.7818
  196MOL0     H27037   4.132   3.726   7.551  2.4375  1.6246  0.2708
  196MOL0     H27038   3.885   3.667   7.634 -0.6699  0.7867 -0.2390
  196MOL0     H27039   3.949   3.681   7.794 -2.5628  0.0423  0.1148
  196MOL0     H27040   4.112   3.482   7.701  0.4706 -1.1331 -0.2811
  196MOL0     H27041   3.934   3.464   7.713 -0.3549  2.1406  2.1647
  196MOL0     H27042   4.072   3.552   7.453  1.2412 -0.7927  0.3435
  196MOL0     H27043   3.918   3.483   7.455  1.3530  0.1609 -2.7390
  196MOL0     H27044   4.170   3.159   7.425 -0.2723  0.4707  0.3210
  196MOL0     H27045   4.255   3.890   7.522 -0.3095 -0.1289  0.2463
  196MOL0     H27046   4.342   4.030   7.385  1.1734  0.7926 -3.2662
  196MOL0     H27047   4.449   4.142   7.470 -0.1826  0.2475 -0.1684
  196MOL0     H27048   4.509   4.013   7.351 -1.7934 -1.0830 -0.7248
  197MOL0     O27049  10.749   1.391   1.222 -0.0568 -0.6972  0.2227
  197MOL0     C27050  10.792   1.488   1.290  0.5571 -0.4016  0.1793
  197MOL0     O27051  10.712   1.602   1.316  0.2526  0.1073 -0.1181
  197MOL0     C27052  10.576   1.604   1.297  0.1104  0.0088 -0.3070
  197MOL0     C27053  10.515   1.577   1.171 -0.0560  0.3067 -0.8852
  197MOL0     C27054  10.376   1.588   1.154 -0.6435  0.6100 -0.0790
  197MOL0     C27055  10.286   1.631   1.259  0.0441 -0.4917 -0.0902
  197MOL0     O27056  10.156   1.657   1.247  1.2037  0.7208 -0.1744
  197MOL0     C27057  10.101   1.682   1.115 -0.4669  0.0954 -0.6434
  197MOL0     C27058  10.036   1.567   1.042 -0.2143  0.5132  0.8462
  197MOL0     C27059   9.972   1.610   0.905 -0.9009 -1.0139 -0.4308
  197MOL0     C27060   9.842   1.687   0.929 -0.3182  0.0665 -0.3937
  197MOL0     C27061   9.784   1.737   0.801  0.0186 -0.0359  0.3048
  197MOL0     C27062   9.709   1.631   0.723  0.2761  0.4475  0.5522
  197MOL0     C27063   9.658   1.691   0.595 -0.6574  0.0444  0.4820
  197MOL0     C27064   9.525   1.763   0.617 -0.5777  0.6309  0.0281
  197MOL0     N27065   9.487   1.849   0.499  0.3595  0.4335 -0.0071
  197MOL0     C27066   9.545   1.957   0.447 -0.4984  0.2760  0.2093
  197MOL0     C27067   9.483   1.987   0.332  0.0931 -0.5622  0.8450
  197MOL0     C27068   9.508   2.105   0.245 -1.3909  0.0649 -0.0797
  197MOL0     C27069   9.623   2.072   0.155 -0.5793  0.0661 -0.8550
  197MOL0     C27070   9.670   2.189   0.066  0.5186 -0.0681 -0.7332
  197MOL0     C27071   9.777   2.272   0.128 -0.1080  0.0990 -0.0241
  197MOL0     O27072   9.882   2.190   0.179 -0.1305  0.3140  0.1838
  197MOL0     C27073   9.982   2.236   0.266  0.6825 -0.0858  0.0496
  197MOL0     C27074  10.111   2.185   0.235  1.0239  0.2543  0.5183
  197MOL0     C27075  10.220   2.201   0.317 -0.3853 -0.6188 -0.0674
  197MOL0     C27076  10.345   2.127   0.265 -0.4089  0.3334  0.4533
  197MOL0     C27077  10.207   2.278   0.435 -0.9021  0.5339  0.7362
  197MOL0     C27078  10.314   2.286   0.541 -0.7326 -0.7158 -0.2916
  197MOL0     O27079  10.428   2.204   0.524 -0.0681  0.4067  0.2464
  197MOL0     C27080  10.533   2.202   0.608 -0.2693 -0.5904 -0.1237
  197MOL0     C27081  10.519   2.172   0.748  0.0074 -0.6543  0.0625
  197MOL0     C27082  10.636   2.159   0.825  0.2263  1.1967  0.2177
  197MOL0     C27083  10.765   2.184   0.772  0.2674  0.4317 -0.2005
  197MOL0     O27084  10.883   2.170   0.845  0.2217 -0.1611 -1.0364
  197MOL0     C27085  10.872   2.111   0.975  0.7860  0.1032  0.2157
  197MOL0     C27086  10.999   2.098   1.051  0.5741  0.4229  0.1253
  197MOL0     C27087  11.114   2.036   0.980  0.3519 -0.2603  0.2569
  197MOL0     C27088  11.245   2.110   1.030 -0.7141  0.2604  0.0740
  197MOL0     C27089  11.300   2.021   1.151 -0.3122 -0.0639 -0.2549
  197MOL0     C27090  11.435   2.073   1.195 -0.2398  0.5348  0.1851
  197MOL0     C27091  11.549   2.037   1.105 -0.6200 -0.0175  0.1880
  197MOL0     C27092  11.683   2.109   1.134  0.0014  0.6714  0.3952
  197MOL0    Cl27093  11.668   2.274   1.196  0.0911 -0.5748 -0.2224
  197MOL0     C27094  10.777   2.216   0.634 -0.0125  0.3297 -0.0814
  197MOL0     C27095  10.666   2.221   0.558  0.2757 -0.1720  0.3685
  197MOL0     O27096  10.297   2.369   0.628  0.0328  0.1363  0.0791
  197MOL0     C27097  10.081   2.331   0.460 -0.7742 -0.7587 -0.6898
  197MOL0     C27098   9.967   2.317   0.379 -0.0014 -0.4663 -0.5171
  197MOL0     N27099   9.386   1.888   0.306 -0.4677  0.5677  0.1901
  197MOL0     N27100   9.398   1.807   0.407  0.2734  0.1098 -0.0421
  197MOL0     C27101  10.344   1.635   1.387 -0.7935 -0.0126  0.4874
  197MOL0     C27102  10.487   1.616   1.404 -0.3365  0.0388  0.7849
  197MOL0     C27103  10.939   1.490   1.333 -0.9539 -0.1835 -0.4846
  197MOL0     C27104  10.985   1.616   1.369 -0.5457  0.4401 -0.4696
  197MOL0     C27105  11.117   1.642   1.398 -0.1329 -0.0714  0.4287
  197MOL0     C27106  11.208   1.537   1.398  0.3229  0.1014 -0.3557
  197MOL0     O27107  11.340   1.559   1.428  0.9608  0.2219 -0.1814
  197MOL0     C27108  11.399   1.682   1.383 -0.0146  0.6091 -0.3857
  197MOL0     C27109  11.543   1.650   1.345 -0.4034  0.5271 -0.2336
  197MOL0     C27110  11.634   1.594   1.452 -0.4474 -0.1744 -0.4468
  197MOL0     C27111  11.785   1.578   1.424  0.1090 -0.0442 -0.1540
  197MOL0     C27112  11.803   1.484   1.314 -0.4720  0.1711  0.1135
  197MOL0     C27113  11.823   1.411   1.222  0.6405 -0.2213 -0.0025
  197MOL0     C27114  11.155   1.408   1.373 -0.6121 -0.0230 -0.0110
  197MOL0     C27115  11.031   1.386   1.326  0.1649  0.7619 -0.0789
  197MOL0     C27116  11.012   1.256   1.252 -0.3665  0.9179  0.0029
  197MOL0     H27117  10.572   1.543   1.085 -0.8049  0.0686 -1.2993
  197MOL0     H27118  10.329   1.559   1.061 -1.1576  0.8618  0.0970
  197MOL0     H27119  10.184   1.720   1.053 -0.0632 -1.0178 -0.8063
  197MOL0     H27120  10.033   1.767   1.121 -0.8262 -0.2810  1.3047
  197MOL0     H27121  10.108   1.486   1.029 -1.0229 -0.3507  1.6157
  197MOL0     H27122   9.956   1.526   1.104  1.1136  1.3527  3.2149
  197MOL0     H27123  10.048   1.668   0.853 -2.1070  0.1037 -0.9971
  197MOL0     H27124   9.945   1.525   0.841 -1.4950 -0.7112 -0.5893
  197MOL0     H27125   9.775   1.628   0.991  1.7114 -1.1600  0.7190
  197MOL0     H27126   9.864   1.778   0.986 -4.2847  1.1938 -0.3521
  197MOL0     H27127   9.865   1.763   0.732 -0.2952 -2.5958 -1.1265
  197MOL0     H27128   9.722   1.825   0.819  0.5220  0.7138 -1.3758
  197MOL0     H27129   9.770   1.544   0.700 -1.1250 -0.5507  0.4916
  197MOL0     H27130   9.625   1.602   0.787  1.9787 -0.9177  2.2926
  197MOL0     H27131   9.646   1.608   0.526  2.0152 -2.5737  2.8932
  197MOL0     H27132   9.730   1.761   0.553 -0.7187 -0.0876  0.1567
  197MOL0     H27133   9.454   1.686   0.647  0.8665 -0.5763  0.4911
  197MOL0     H27134   9.527   1.832   0.702 -0.3884  2.0348 -1.0729
  197MOL0     H27135   9.624   2.013   0.496 -1.8602  1.1792  1.4636
  197MOL0     H27136   9.543   2.184   0.311  0.1816  0.7053 -1.6313
  197MOL0     H27137   9.419   2.130   0.187 -0.6500  1.1345 -0.7824
  197MOL0     H27138   9.695   2.020   0.219 -2.4471  1.9567  3.1548
  197MOL0     H27139   9.592   1.998   0.081  0.9770  1.0661 -2.6232
  197MOL0     H27140   9.706   2.156  -0.031  2.1344 -0.3768 -0.0578
  197MOL0     H27141   9.585   2.257   0.050  0.1576  0.3673  2.3004
  197MOL0     H27142   9.806   2.339   0.047  3.4820 -0.8756  0.3041
  197MOL0     H27143   9.741   2.331   0.213  1.5638  0.9423  0.1487
  197MOL0     H27144  10.114   2.131   0.141 -3.0228 -1.4123  1.1634
  197MOL0     H27145  10.435   2.188   0.272 -0.0224  0.0608 -1.4865
  197MOL0     H27146  10.341   2.107   0.157  0.0765 -1.7646  0.7719
  197MOL0     H27147  10.351   2.028   0.312 -0.7633 -0.1872 -0.5616
  197MOL0     H27148  10.419   2.163   0.789  0.5115 -1.8536  1.0680
  197MOL0     H27149  10.631   2.130   0.930 -0.9172 -1.4363 -0.4746
  197MOL0     H27150  10.811   2.177   1.038  1.0124  1.0666 -0.5453
  197MOL0     H27151  10.810   2.022   0.968 -0.3276  0.8994 -0.4784
  197MOL0     H27152  11.030   2.192   1.099  2.0078 -0.9599  2.0651
  197MOL0     H27153  10.979   2.030   1.134 -0.2026 -1.7672 -1.7669
  197MOL0     H27154  11.100   2.053   0.873 -1.5857  5.3331  1.0539
  197MOL0     H27155  11.124   1.928   0.997 -3.0351 -0.8942 -0.9047
  197MOL0     H27156  11.231   2.213   1.064  0.8313  0.0789  1.4359
  197MOL0     H27157  11.320   2.110   0.950 -0.2560  0.4208  0.4961
  197MOL0     H27158  11.223   2.014   1.228  0.5804 -1.6692  0.5438
  197MOL0     H27159  11.322   1.922   1.110 -2.3154 -0.4964 -0.3582
  197MOL0     H27160  11.461   2.039   1.296  2.0777 -0.0188 -0.5269
  197MOL0     H27161  11.421   2.182   1.198 -0.3876  0.5262 -0.2278
  197MOL0     H27162  11.536   2.061   0.999  0.9681 -0.6925 -0.1983
  197MOL0     H27163  11.567   1.930   1.116 -2.3057 -0.6593 -2.4274
  197MOL0     H27164  11.739   2.119   1.041 -1.6363 -1.1058 -0.8524
  197MOL0     H27165  11.738   2.043   1.201  0.1614 -2.4529 -2.5483
  197MOL0     H27166  10.869   2.245   0.584  2.2175  0.9108  3.8810
  197MOL0     H27167  10.680   2.269   0.462 -0.2918  2.3623  1.4554
  197MOL0     H27168  10.076   2.399   0.544  2.2453 -2.1929  0.7824
  197MOL0     H27169   9.869   2.359   0.395  0.5688  0.8245 -0.2662
  197MOL0     H27170  10.285   1.663   1.474 -0.9725  6.1212 -1.1214
  197MOL0     H27171  10.529   1.633   1.503 -1.1396  1.2570  0.9446
  197MOL0     H27172  10.923   1.705   1.360  0.1333  1.3707  2.8153
  197MOL0     H27173  11.140   1.743   1.430  1.4556 -0.0287 -0.7286
  197MOL0     H27174  11.355   1.719   1.290 -0.9592  2.2077  0.6617
  197MOL0     H27175  11.408   1.763   1.456  1.3375  0.3377 -0.2148
  197MOL0     H27176  11.585   1.749   1.325  0.0285  0.1992 -1.0004
  197MOL0     H27177  11.556   1.594   1.252  0.2365  0.8404 -0.3392
  197MOL0     H27178  11.622   1.670   1.530  0.3933  0.7900 -1.2246
  197MOL0     H27179  11.601   1.495   1.481  0.1596 -0.2756 -0.0865
  197MOL0     H27180  11.841   1.553   1.514  3.5857  1.7452 -1.6254
  197MOL0     H27181  11.831   1.671   1.389  0.7375 -0.3483 -0.1497
  197MOL0     H27182  11.847   1.349   1.139 -2.6625  0.2778 -1.4978
  197MOL0     H27183  11.220   1.321   1.375  0.7487  0.9401 -0.6441
  197MOL0     H27184  10.954   1.264   1.159 -1.7206 -1.1870  0.5847
  197MOL0     H27185  11.104   1.200   1.232  1.2425  2.2342  3.0859
  197MOL0     H27186  10.958   1.197   1.326  1.4360 -1.8853 -0.7601
  198MOL0     O27187  10.030   9.950   4.319 -0.1123 -0.0394 -0.8186
  198MOL0     C27188  10.043  10.067   4.284  0.1516  0.4537 -0.7518
  198MOL0     O27189  10.127  10.158   4.345  0.0632  0.0388 -0.2651
  198MOL0     C27190  10.226  10.119   4.430  0.0358 -0.1563  0.7401
  198MOL0     C27191  10.319  10.019   4.393 -0.2436 -0.6539 -1.0100
  198MOL0     C27192  10.425   9.989   4.475 -0.8441 -1.1253  0.1989
  198MOL0     C27193  10.457  10.064   4.592  0.6439  0.4664  1.2803
  198MOL0     O27194  10.565  10.047   4.664  0.4451 -0.1531 -0.9269
  198MOL0     C27195  10.662   9.948   4.624 -0.5538  0.0606 -0.8269
  198MOL0     C27196  10.694   9.870   4.752 -0.2356  0.5598 -0.0235
  198MOL0     C27197  10.835   9.813   4.746  0.5442 -0.7591 -0.1787
  198MOL0     C27198  10.893   9.759   4.880 -0.8344  0.1731  0.3721
  198MOL0     C27199  11.036   9.710   4.869 -0.9950  0.2056 -0.5175
  198MOL0     C27200  11.059   9.634   5.000 -0.9765  0.1939 -0.4700
  198MOL0     C27201  11.200   9.580   5.022  0.1764  0.2307  0.2291
  198MOL0     C27202  11.233   9.451   4.954  0.1701  0.7441  0.3976
  198MOL0     N27203  11.168   9.419   4.820 -0.5102 -0.4081 -0.8153
  198MOL0     C27204  11.209   9.455   4.693 -0.3206 -0.2026  0.1880
  198MOL0     C27205  11.108   9.411   4.616 -0.7413 -0.8178 -1.0492
  198MOL0     C27206  11.110   9.418   4.469  0.8867  0.3191  0.2283
  198MOL0     C27207  10.983   9.356   4.403  0.3056 -0.1106  0.5427
  198MOL0     C27208  10.967   9.399   4.257  0.7118 -0.3668 -0.5917
  198MOL0     C27209  10.841   9.343   4.189 -0.4351 -0.6815  0.4672
  198MOL0     O27210  10.871   9.203   4.156 -0.7462 -0.9241 -0.0787
  198MOL0     C27211  10.775   9.135   4.088 -0.1918 -0.1140 -0.1073
  198MOL0     C27212  10.718   9.179   3.969 -0.2901 -0.0032  0.0701
  198MOL0     C27213  10.640   9.092   3.889  0.0165 -0.2147 -0.3833
  198MOL0     C27214  10.569   9.143   3.761 -0.8192  0.6546  0.8583
  198MOL0     C27215  10.634   8.962   3.915 -0.3263  0.0679 -0.4109
  198MOL0     C27216  10.554   8.864   3.830 -0.8218  0.9485  0.1595
  198MOL0     O27217  10.417   8.880   3.815 -0.0256  0.3020 -0.6639
  198MOL0     C27218  10.344   8.785   3.745 -0.1700  0.3633  0.0748
  198MOL0     C27219  10.341   8.784   3.606 -0.7142 -0.1733  1.0177
  198MOL0     C27220  10.255   8.693   3.536 -0.1540 -0.0684  0.9986
  198MOL0     C27221  10.183   8.599   3.609  0.6731 -0.5448 -0.3923
  198MOL0     O27222  10.087   8.523   3.540 -0.6664 -0.1604  0.5427
  198MOL0     C27223   9.952   8.520   3.601 -0.8172 -0.7732 -0.3263
  198MOL0     C27224   9.848   8.550   3.485 -0.0474  0.1406  0.1349
  198MOL0     C27225   9.882   8.677   3.406 -0.3482  0.0149 -0.1431
  198MOL0     C27226   9.773   8.714   3.316 -0.1424 -0.0276 -0.2890
  198MOL0     C27227   9.790   8.845   3.244  0.0868  0.3111  0.4368
  198MOL0     C27228   9.670   8.874   3.154  0.4084 -0.4728  0.3946
  198MOL0     C27229   9.709   8.987   3.063  0.7165 -0.1670 -0.3249
  198MOL0     C27230   9.594   9.094   3.048  0.0356 -0.6545 -0.4930
  198MOL0    Cl27231   9.475   9.040   2.930 -0.0102  0.0796 -0.3116
  198MOL0     C27232  10.203   8.585   3.745 -0.3434 -0.2732 -0.0293
  198MOL0     C27233  10.277   8.682   3.813  0.0422 -0.8900 -0.3470
  198MOL0     O27234  10.612   8.765   3.777 -0.0615  0.7035  0.0169
  198MOL0     C27235  10.700   8.913   4.026  0.0890 -0.2865 -0.6058
  198MOL0     C27236  10.771   9.000   4.109  0.4064  0.6364 -0.5501
  198MOL0     N27237  11.002   9.367   4.697  0.1039 -0.0529 -0.0843
  198MOL0     N27238  11.041   9.371   4.816 -0.2329 -0.4004  0.4655
  198MOL0     C27239  10.369  10.169   4.625  0.1644  0.0102 -0.4279
  198MOL0     C27240  10.255  10.203   4.543 -0.0770 -0.2314  0.6352
  198MOL0     C27241   9.956  10.098   4.162  0.1217  0.4114  0.5393
  198MOL0     C27242   9.821  10.043   4.157 -0.2351  0.3045 -0.6452
  198MOL0     C27243   9.745  10.046   4.038 -0.3752 -0.4095  0.3488
  198MOL0     C27244   9.807  10.098   3.924 -0.8662  0.2803 -0.7039
  198MOL0     O27245   9.721  10.114   3.819 -0.0023  0.4607  0.0121
  198MOL0     C27246   9.740  10.218   3.727 -0.3571  0.9626 -0.9766
  198MOL0     C27247   9.615  10.234   3.639  0.4536 -0.3227  0.3881
  198MOL0     C27248   9.479  10.205   3.704 -0.9425 -0.4469 -0.0972
  198MOL0     C27249   9.448  10.314   3.811  0.1230 -0.2522 -0.6932
  198MOL0     C27250   9.333  10.397   3.775  0.7902 -0.0895 -0.4431
  198MOL0     C27251   9.240  10.459   3.734  0.7547 -0.9550 -0.7436
  198MOL0     C27252   9.934  10.157   3.928  0.3138  1.2451  0.7103
  198MOL0     C27253  10.011  10.155   4.042 -0.4849 -0.0230 -0.9058
  198MOL0     C27254  10.149  10.233   4.039  0.7157  0.5321  0.6506
  198MOL0     H27255  10.292   9.962   4.305 -3.1909 -0.5822 -0.2582
  198MOL0     H27256  10.482   9.905   4.435  1.3458  0.7012 -0.7561
  198MOL0     H27257  10.749   9.997   4.577  0.4251 -1.0718 -0.2532
  198MOL0     H27258  10.627   9.874   4.552  2.2518  0.3013 -2.6080
  198MOL0     H27259  10.690   9.939   4.837  0.6627  0.3122  0.2335
  198MOL0     H27260  10.623   9.789   4.767  0.4732 -0.5551 -2.2674
  198MOL0     H27261  10.829   9.736   4.668 -0.8122 -0.3036 -0.5477
  198MOL0     H27262  10.913   9.883   4.713 -1.2094  1.0898 -0.6340
  198MOL0     H27263  10.896   9.841   4.952  0.1972  1.5702 -1.1852
  198MOL0     H27264  10.831   9.677   4.918 -1.4366  0.0915 -0.7254
  198MOL0     H27265  11.115   9.786   4.874 -0.4355 -0.4362  1.0476
  198MOL0     H27266  11.052   9.649   4.780 -1.1677 -2.1471  0.9761
  198MOL0     H27267  11.010   9.692   5.079 -2.5368  1.7963 -2.4958
  198MOL0     H27268  10.987   9.552   5.006 -0.9939  0.3039  1.7853
  198MOL0     H27269  11.186   9.562   5.129  2.0308 -2.1998  0.1351
  198MOL0     H27270  11.268   9.665   5.005 -0.6674  1.1858  1.4381
  198MOL0     H27271  11.341   9.442   4.939 -0.0289  1.8203 -2.3273
  198MOL0     H27272  11.206   9.366   5.017  0.5812 -0.7482 -1.3508
  198MOL0     H27273  11.308   9.489   4.665  0.2141 -1.4491  0.4825
  198MOL0     H27274  11.200   9.365   4.436  1.7207  0.4279  2.2161
  198MOL0     H27275  11.115   9.524   4.445 -0.6744  0.1194 -1.1435
  198MOL0     H27276  10.997   9.248   4.412  0.8036 -0.1366 -0.3849
  198MOL0     H27277  10.895   9.393   4.457  1.6661  1.4188  1.7913
  198MOL0     H27278  10.966   9.508   4.247 -1.7096 -0.1454  1.1346
  198MOL0     H27279  11.048   9.347   4.205  1.7424  1.7510 -1.2247
  198MOL0     H27280  10.754   9.349   4.254 -1.4392 -4.0521 -0.4048
  198MOL0     H27281  10.816   9.401   4.100  0.6251  1.3370  1.3897
  198MOL0     H27282  10.720   9.281   3.929 -1.6478 -0.7248 -2.0171
  198MOL0     H27283  10.609   9.241   3.730 -0.9711  0.2106 -0.8641
  198MOL0     H27284  10.461   9.149   3.780 -0.7383  1.3875  1.1228
  198MOL0     H27285  10.591   9.079   3.675  1.3107  0.4064  1.5374
  198MOL0     H27286  10.398   8.857   3.549  0.9708 -0.8428  1.8100
  198MOL0     H27287  10.241   8.701   3.429  0.6101  2.1764  1.0109
  198MOL0     H27288   9.942   8.419   3.641  0.4925 -0.7281  0.1598
  198MOL0     H27289   9.939   8.590   3.685 -4.1843 -1.0976 -0.4458
  198MOL0     H27290   9.853   8.470   3.410  1.2234 -0.4550  0.8135
  198MOL0     H27291   9.752   8.563   3.534  0.6252  1.9779  1.0568
  198MOL0     H27292   9.963   8.664   3.334 -2.5234  1.0616 -2.9580
  198MOL0     H27293   9.904   8.768   3.462 -1.3723  1.7317 -2.3731
  198MOL0     H27294   9.679   8.708   3.371  1.2569 -3.6728  2.0527
  198MOL0     H27295   9.764   8.639   3.236 -2.9785  1.9563 -2.0294
  198MOL0     H27296   9.792   8.919   3.323 -0.7187 -0.4844  1.2243
  198MOL0     H27297   9.885   8.857   3.191 -1.4466  2.9462 -1.9938
  198MOL0     H27298   9.586   8.904   3.218  0.5731 -0.1496  0.4673
  198MOL0     H27299   9.635   8.788   3.097  3.0632 -0.5353 -1.3155
  198MOL0     H27300   9.734   8.949   2.963  1.2026  0.0151 -0.2753
  198MOL0     H27301   9.799   9.036   3.102  0.7249  1.2013 -1.9680
  198MOL0     H27302   9.637   9.188   3.012 -0.8541  1.6348  3.7165
  198MOL0     H27303   9.541   9.106   3.143 -0.0452 -0.9068 -0.5042
  198MOL0     H27304  10.146   8.507   3.795  0.9100 -0.0934  1.7603
  198MOL0     H27305  10.273   8.686   3.921 -2.9602  1.9612 -0.3687
  198MOL0     H27306  10.696   8.807   4.049 -3.9872  0.3460  2.6812
  198MOL0     H27307  10.837   8.950   4.179 -1.1822 -1.1575 -0.2395
  198MOL0     H27308  10.383  10.222   4.719 -1.1908 -0.6937  0.2079
  198MOL0     H27309  10.191  10.286   4.570 -1.1320 -0.6773 -0.3771
  198MOL0     H27310   9.784   9.996   4.248  2.5791 -0.2531  0.3196
  198MOL0     H27311   9.641  10.015   4.030 -0.7551  0.6727  0.8795
  198MOL0     H27312   9.758  10.312   3.780 -2.6706  1.2930 -0.6609
  198MOL0     H27313   9.827  10.196   3.665 -1.8601 -1.4498 -2.3956
  198MOL0     H27314   9.614  10.155   3.564 -2.7786  1.4010 -1.6382
  198MOL0     H27315   9.613  10.334   3.596 -2.1849 -0.4002  0.1784
  198MOL0     H27316   9.400  10.214   3.628 -0.1943 -1.6434 -1.0370
  198MOL0     H27317   9.479  10.102   3.738  0.4595 -0.4037  0.0753
  198MOL0     H27318   9.530  10.385   3.826 -1.9727  1.8685  2.1481
  198MOL0     H27319   9.416  10.262   3.902 -3.4250  0.5828 -1.3001
  198MOL0     H27320   9.147  10.500   3.699  1.2057  0.7146 -0.0615
  198MOL0     H27321   9.981  10.195   3.838 -2.1717  0.8218 -0.8424
  198MOL0     H27322  10.201  10.213   3.945  0.1488 -1.0039  0.6412
  198MOL0     H27323  10.126  10.339   4.044 -1.0866  0.1304  1.7171
  198MOL0     H27324  10.225  10.213   4.115  1.4649  0.2410 -0.1503
  199MOL0     O27325   3.568   7.827  11.249 -0.4801  0.3828  0.4784
  199MOL0     C27326   3.482   7.808  11.330  0.9406 -0.7269  0.3213
  199MOL0     O27327   3.491   7.745  11.448  0.0603  0.1657  0.3027
  199MOL0     C27328   3.627   7.724  11.488  0.1054 -0.4344  0.2647
  199MOL0     C27329   3.696   7.809  11.580  0.4170 -0.0220 -0.3817
  199MOL0     C27330   3.827   7.789  11.620 -0.1160  0.1034 -0.4799
  199MOL0     C27331   3.895   7.673  11.572  0.7433 -0.5438  1.1563
  199MOL0     O27332   4.022   7.656  11.618  0.1683  0.2420  0.6543
  199MOL0     C27333   4.030   7.548  11.710  0.7121  0.0987 -0.6752
  199MOL0     C27334   4.005   7.605  11.855 -0.0038 -0.7215  0.2987
  199MOL0     C27335   4.143   7.652  11.903 -0.3583 -0.4850  0.9606
  199MOL0     C27336   4.125   7.747  12.015  0.8680 -0.1539 -0.1477
  199MOL0     C27337   4.258   7.812  12.055  0.3195 -0.3698 -0.2448
  199MOL0     C27338   4.360   7.737  12.136  2.0250  0.1285 -0.2113
  199MOL0     C27339   4.473   7.811  12.191  0.5897 -0.5764  0.5596
  199MOL0     C27340   4.577   7.832  12.085  0.5111  0.1526 -0.1685
  199MOL0     N27341   4.694   7.893  12.149  0.8379  0.1383  0.4394
  199MOL0     C27342   4.720   8.026  12.171  1.4929 -0.2982 -0.4622
  199MOL0     C27343   4.835   8.034  12.229 -0.2064  0.4460 -0.1692
  199MOL0     C27344   4.883   8.158  12.297 -0.0019  0.7347  0.8108
  199MOL0     C27345   5.002   8.131  12.394 -0.1271  0.3176  0.1218
  199MOL0     C27346   5.057   8.259  12.454  0.2589 -0.3074 -0.2651
  199MOL0     C27347   5.184   8.240  12.534 -0.5890  0.0990 -0.1681
  199MOL0     O27348   5.289   8.159  12.468 -0.6044  0.4856 -0.5461
  199MOL0     C27349   5.389   8.105  12.554 -0.5484 -0.4500 -0.2085
  199MOL0     C27350   5.352   8.027  12.669 -0.0414 -0.5558  0.2988
  199MOL0     C27351   5.452   7.973  12.755 -0.0256  0.5457  0.0815
  199MOL0     C27352   5.403   7.910  12.881  0.1522  1.2622 -0.7166
  199MOL0     C27353   5.586   7.992  12.734 -0.5151 -0.0974  0.4773
  199MOL0     C27354   5.698   7.931  12.815 -0.1019 -0.4073  0.0394
  199MOL0     O27355   5.825   7.951  12.759  0.6529 -0.1489 -0.0003
  199MOL0     C27356   5.925   7.934  12.850  0.1439  0.1017  0.5570
  199MOL0     C27357   5.931   8.001  12.978  0.5427 -0.2202  0.2196
  199MOL0     C27358   6.032   7.960  13.075  0.9470 -0.6592 -0.2706
  199MOL0     C27359   6.137   7.872  13.038 -0.0881  0.6909  1.2140
  199MOL0     O27360   6.248   7.848  13.120  0.1630 -0.6898 -0.2736
  199MOL0     C27361   6.249   7.896  13.256  0.4913 -0.0589 -0.4059
  199MOL0     C27362   6.374   7.818  13.313 -0.8194  1.1281 -0.8309
  199MOL0     C27363   6.510   7.854  13.239 -0.1709  0.2114 -0.1630
  199MOL0     C27364   6.634   7.790  13.307 -0.4074  0.0774 -0.6804
  199MOL0     C27365   6.772   7.836  13.231  0.7655  0.5651  0.6810
  199MOL0     C27366   6.900   7.748  13.279 -0.4597 -0.8940 -0.5214
  199MOL0     C27367   7.020   7.802  13.200 -0.1469 -0.1808  0.9331
  199MOL0     C27368   7.154   7.728  13.228 -0.2833 -0.4373  0.1800
  199MOL0    Cl27369   7.166   7.569  13.143 -0.1205 -0.2934  0.1874
  199MOL0     C27370   6.145   7.828  12.903  0.6156 -0.2049  0.4154
  199MOL0     C27371   6.041   7.862  12.811 -0.0214 -0.8961  1.2929
  199MOL0     O27372   5.677   7.875  12.920 -0.0969  0.3348 -0.2115
  199MOL0     C27373   5.629   8.077  12.619  0.2024 -0.4115 -0.0655
  199MOL0     C27374   5.525   8.128  12.535  0.0875 -0.0478 -0.6743
  199MOL0     N27375   4.888   7.913  12.240  0.5365 -0.1640  0.2354
  199MOL0     N27376   4.801   7.825  12.195  0.2093  0.2415  0.8616
  199MOL0     C27377   3.827   7.582  11.500 -0.0300  0.9559  0.9422
  199MOL0     C27378   3.696   7.604  11.461 -0.3833 -0.4034  0.9048
  199MOL0     C27379   3.339   7.834  11.291 -0.7730  0.1731 -0.7207
  199MOL0     C27380   3.231   7.756  11.349 -0.3781  0.2310  0.9450
  199MOL0     C27381   3.096   7.769  11.325 -0.6360  0.2979  0.2422
  199MOL0     C27382   3.063   7.881  11.248 -0.0954  0.4326  0.1522
  199MOL0     O27383   2.932   7.911  11.215 -0.2139  0.6805 -0.9389
  199MOL0     C27384   2.839   7.948  11.314  0.3083  0.5035  0.5242
  199MOL0     C27385   2.752   8.063  11.268  0.0075 -0.3988 -0.0975
  199MOL0     C27386   2.630   8.081  11.368 -0.0325  0.0752 -0.4304
  199MOL0     C27387   2.545   8.209  11.346  0.3773 -0.5798  0.4884
  199MOL0     C27388   2.410   8.198  11.406 -0.2088 -0.5891  0.1659
  199MOL0     C27389   2.302   8.181  11.465 -0.6487  0.0511  1.1963
  199MOL0     C27390   3.164   7.962  11.192  0.0536 -0.2497 -0.2245
  199MOL0     C27391   3.303   7.940  11.212  0.1446 -0.3507  0.0497
  199MOL0     C27392   3.393   8.056  11.168 -0.2637 -0.4072  0.0857
  199MOL0     H27393   3.646   7.903  11.606 -1.6754 -0.4510 -2.4990
  199MOL0     H27394   3.877   7.860  11.685 -1.9382  0.1037  1.0120
  199MOL0     H27395   4.118   7.484  11.710  1.3314  0.8943  0.9406
  199MOL0     H27396   3.948   7.478  11.691  1.3758 -0.6819 -0.7019
  199MOL0     H27397   3.931   7.685  11.848  0.6922  0.0457  1.3610
  199MOL0     H27398   3.959   7.529  11.919 -0.4828 -0.6556  0.0345
  199MOL0     H27399   4.188   7.557  11.934 -0.9664 -1.0138  0.2652
  199MOL0     H27400   4.194   7.696  11.817 -1.1370 -3.1709 -1.0158
  199MOL0     H27401   4.063   7.832  11.986  2.9642  2.0323  1.3628
  199MOL0     H27402   4.079   7.705  12.105  2.4602 -1.4362  0.1074
  199MOL0     H27403   4.222   7.897  12.114 -3.3913 -2.2329  0.5148
  199MOL0     H27404   4.305   7.849  11.964 -1.4803  0.0498 -1.0504
  199MOL0     H27405   4.305   7.703  12.223 -0.1813  0.9092 -1.2373
  199MOL0     H27406   4.398   7.646  12.089  2.0446 -1.5947  2.8948
  199MOL0     H27407   4.510   7.749  12.272  1.7241  0.0766  0.5625
  199MOL0     H27408   4.447   7.908  12.236  0.5410  0.3403 -1.3310
  199MOL0     H27409   4.599   7.729  12.056  3.4107 -0.4927  3.5834
  199MOL0     H27410   4.547   7.886  11.994  7.0080  2.7539 -1.3217
  199MOL0     H27411   4.655   8.112  12.157 -0.4552 -1.5481  0.3592
  199MOL0     H27412   4.800   8.202  12.352 -1.0273 -0.5913  0.3720
  199MOL0     H27413   4.912   8.233  12.223  1.8549  0.0559  0.7997
  199MOL0     H27414   4.985   8.060  12.475 -0.3438 -1.8313 -1.7121
  199MOL0     H27415   5.081   8.080  12.338  2.0042  0.1957  3.0757
  199MOL0     H27416   5.083   8.329  12.374 -2.8227 -0.4392 -1.5028
  199MOL0     H27417   4.974   8.305  12.507 -1.2351 -0.0118 -2.7031
  199MOL0     H27418   5.230   8.338  12.548 -0.8973  0.2540 -0.2293
  199MOL0     H27419   5.160   8.195  12.630  1.2242 -0.9078 -0.1335
  199MOL0     H27420   5.248   8.013  12.695 -1.1708  2.8394 -1.7063
  199MOL0     H27421   5.422   7.803  12.893  3.6272  1.9443  0.8332
  199MOL0     H27422   5.293   7.914  12.883  0.0494 -0.0182 -1.9369
  199MOL0     H27423   5.447   7.940  12.976 -1.1612 -0.0445  0.3502
  199MOL0     H27424   5.852   8.074  12.994  1.5506  1.6131 -2.4037
  199MOL0     H27425   6.036   8.007  13.173 -1.0338  2.8182 -1.6748
  199MOL0     H27426   6.265   8.004  13.260 -0.3562  0.1445 -1.7806
  199MOL0     H27427   6.154   7.875  13.307  1.5425 -1.2638  1.1347
  199MOL0     H27428   6.393   7.855  13.414 -0.0567  0.9411 -0.9016
  199MOL0     H27429   6.358   7.710  13.317  3.1628  0.3619 -1.3715
  199MOL0     H27430   6.522   7.962  13.240  2.3921  0.1600 -4.0500
  199MOL0     H27431   6.515   7.838  13.131 -0.2783  1.6079 -0.3872
  199MOL0     H27432   6.625   7.681  13.297  0.2792 -0.1432  0.7788
  199MOL0     H27433   6.642   7.816  13.413 -0.4720  0.0015 -0.6562
  199MOL0     H27434   6.745   7.815  13.127 -0.1552  0.4559  0.9410
  199MOL0     H27435   6.790   7.944  13.233  0.3060  0.6265  1.5180
  199MOL0     H27436   6.890   7.640  13.261 -1.4087 -0.9770  0.4312
  199MOL0     H27437   6.905   7.774  13.385 -0.5202  2.0691 -1.1533
  199MOL0     H27438   7.030   7.907  13.231  0.5024 -0.3393  1.2658
  199MOL0     H27439   6.995   7.803  13.093  0.0667  1.3664  0.8733
  199MOL0     H27440   7.174   7.712  13.334  2.5700  0.4327 -0.1320
  199MOL0     H27441   7.240   7.785  13.191  0.8830 -1.8143  0.6695
  199MOL0     H27442   6.229   7.773  12.862 -0.4913 -0.4154 -1.7124
  199MOL0     H27443   6.039   7.836  12.705 -0.9298 -0.3502  1.1664
  199MOL0     H27444   5.734   8.104  12.610  0.1576 -0.7419 -1.7502
  199MOL0     H27445   5.565   8.180  12.449  0.6360  0.7883  0.0649
  199MOL0     H27446   3.878   7.496  11.457 -0.7994  0.0116  1.8567
  199MOL0     H27447   3.647   7.529  11.401  4.6365 -1.7053 -2.1832
  199MOL0     H27448   3.268   7.674  11.408  2.3525  0.2068 -0.6396
  199MOL0     H27449   3.019   7.703  11.364 -0.6819 -0.0164 -0.3687
  199MOL0     H27450   2.771   7.867  11.341  0.3188  0.6402  0.9804
  199MOL0     H27451   2.899   7.973  11.402  2.1208  3.0400 -1.3024
  199MOL0     H27452   2.709   8.032  11.173  0.0718 -0.4306 -0.1159
  199MOL0     H27453   2.809   8.156  11.268  1.6841 -1.4032 -0.3270
  199MOL0     H27454   2.562   7.996  11.359 -0.0770  0.2227 -1.8690
  199MOL0     H27455   2.668   8.090  11.470 -2.4103  1.4655  0.4233
  199MOL0     H27456   2.538   8.233  11.240 -1.4349 -1.6297  0.3378
  199MOL0     H27457   2.596   8.295  11.392  1.9268 -0.7383 -0.8489
  199MOL0     H27458   2.205   8.171  11.510 -1.5064  0.1213 -0.5332
  199MOL0     H27459   3.136   8.052  11.138  0.9655  1.1640  1.5340
  199MOL0     H27460   3.474   8.078  11.238 -0.5690  4.6119 -0.8007
  199MOL0     H27461   3.431   8.023  11.070  0.8823  3.0156 -0.7643
  199MOL0     H27462   3.334   8.148  11.162 -1.6034 -1.2165  0.4428
  200MOL0     O27463   0.431   5.607  10.605 -0.9194 -0.1945  0.2884
  200MOL0     C27464   0.410   5.603  10.726 -0.8806 -0.2169 -0.3324
  200MOL0     O27465   0.490   5.647  10.825  0.2871 -0.4447 -0.1379
  200MOL0     C27466   0.600   5.715  10.788  0.5081  0.3814 -1.3385
  200MOL0     C27467   0.599   5.854  10.801 -0.4717 -0.4445 -0.2571
  200MOL0     C27468   0.719   5.936  10.782 -0.0757 -0.6028 -0.7337
  200MOL0     C27469   0.836   5.872  10.752 -0.3627 -0.2678 -0.5472
  200MOL0     O27470   0.956   5.939  10.735 -0.3046 -0.9873  0.7612
  200MOL0     C27471   1.000   6.009  10.861  0.6262  0.6404 -0.3977
  200MOL0     C27472   1.152   6.029  10.849 -0.8757  0.2004  0.7125
  200MOL0     C27473   1.193   6.067  10.706 -0.6309 -0.0339 -0.1127
  200MOL0     C27474   1.115   6.194  10.657 -0.4238  0.1297  0.2226
  200MOL0     C27475   1.161   6.246  10.521 -0.3242 -0.0379 -0.5661
  200MOL0     C27476   1.043   6.324  10.460 -0.2205  0.1489 -0.5295
  200MOL0     C27477   1.078   6.369  10.321  0.4193 -0.7649 -0.4886
  200MOL0     C27478   0.949   6.424  10.260 -0.2743  0.3640 -0.7177
  200MOL0     N27479   0.961   6.493  10.126 -0.0836  0.4590 -0.0980
  200MOL0     C27480   1.042   6.452  10.020 -0.0494  0.0571  0.6226
  200MOL0     C27481   1.012   6.545   9.927 -0.9213 -0.3018 -0.1154
  200MOL0     C27482   1.082   6.535   9.793  0.2332 -0.0383  0.3883
  200MOL0     C27483   1.230   6.525   9.803  0.7684  0.4779  0.7617
  200MOL0     C27484   1.288   6.492   9.669  1.0789 -0.4925 -0.8371
  200MOL0     C27485   1.432   6.436   9.676  0.2240 -0.3640 -0.1769
  200MOL0     O27486   1.516   6.511   9.763 -1.0534  0.0061 -0.3517
  200MOL0     C27487   1.658   6.517   9.733 -0.2210 -0.4653  0.4297
  200MOL0     C27488   1.748   6.609   9.784  0.2006  0.4375 -0.7838
  200MOL0     C27489   1.883   6.614   9.753 -1.5004 -0.4132  0.7850
  200MOL0     C27490   1.965   6.728   9.818 -0.1633 -0.6749 -0.1349
  200MOL0     C27491   1.940   6.499   9.688  0.3588  0.4439  0.5482
  200MOL0     C27492   2.091   6.482   9.678  1.1302  0.0920 -0.3376
  200MOL0     O27493   2.145   6.352   9.649 -0.2790 -0.0035  0.2701
  200MOL0     C27494   2.287   6.341   9.646 -0.6885 -0.6795  0.6713
  200MOL0     C27495   2.350   6.272   9.749  0.0141 -0.2757  0.0120
  200MOL0     C27496   2.489   6.256   9.752  0.1547 -0.3569 -0.3622
  200MOL0     C27497   2.569   6.283   9.638  0.2130 -0.4943 -0.5005
  200MOL0     O27498   2.707   6.276   9.645  0.6699 -0.1110 -0.2489
  200MOL0     C27499   2.761   6.152   9.632  0.6765  0.0139 -0.7659
  200MOL0     C27500   2.781   6.120   9.479  0.4256 -0.2449  0.1105
  200MOL0     C27501   2.918   6.164   9.430 -0.7063 -1.3570 -0.1062
  200MOL0     C27502   2.927   6.182   9.272 -0.0970 -0.0993 -0.1890
  200MOL0     C27503   2.880   6.060   9.202  0.7081 -0.6887  0.9802
  200MOL0     C27504   2.901   6.073   9.043 -0.0389 -0.7157 -0.2009
  200MOL0     C27505   2.793   6.144   8.972  0.7543 -0.3282 -0.2155
  200MOL0     C27506   2.821   6.170   8.823  0.2500 -0.3108  0.1743
  200MOL0    Cl27507   2.683   6.280   8.777 -0.3306 -0.3465 -0.1208
  200MOL0     C27508   2.502   6.345   9.532 -0.5887  0.2514 -0.1512
  200MOL0     C27509   2.373   6.375   9.545  0.0092 -0.4349 -0.3468
  200MOL0     O27510   2.159   6.584   9.678 -0.3797 -0.1714 -0.5469
  200MOL0     C27511   1.853   6.395   9.645 -0.0417 -0.1702  1.1367
  200MOL0     C27512   1.716   6.409   9.663 -0.1931 -0.4942  0.6852
  200MOL0     N27513   0.931   6.647   9.973  0.8055  0.3210  0.2281
  200MOL0     N27514   0.897   6.607  10.088  0.1748  0.3040 -0.3594
  200MOL0     C27515   0.842   5.728  10.754  0.9031 -0.5421  0.3918
  200MOL0     C27516   0.725   5.653  10.768 -0.3099 -0.7051 -0.1219
  200MOL0     C27517   0.290   5.520  10.753 -0.1473 -0.2173  0.1188
  200MOL0     C27518   0.262   5.410  10.672 -0.2428  0.0115 -0.0691
  200MOL0     C27519   0.148   5.330  10.701  0.2142  0.0092  0.1080
  200MOL0     C27520   0.054   5.370  10.798 -0.0538  0.2720 -0.1491
  200MOL0     O27521  -0.043   5.281  10.839 -0.9440 -0.6466  0.1258
  200MOL0     C27522  -0.163   5.301  10.767  0.3661  0.1543 -0.1851
  200MOL0     C27523  -0.255   5.373  10.863 -0.5482 -0.1838 -0.0833
  200MOL0     C27524  -0.285   5.290  10.992 -0.4816  0.2475  0.6199
  200MOL0     C27525  -0.356   5.381  11.079 -0.0310 -0.7331 -0.0119
  200MOL0     C27526  -0.385   5.322  11.213 -0.3648 -0.4405 -0.4444
  200MOL0     C27527  -0.396   5.270  11.324 -0.1798 -0.3988 -0.4009
  200MOL0     C27528   0.088   5.474  10.878 -0.4886 -1.5612 -0.8821
  200MOL0     C27529   0.201   5.556  10.860 -0.3002 -0.3404 -0.0567
  200MOL0     C27530   0.241   5.666  10.955  0.2999  0.0667  0.1574
  200MOL0     H27531   0.516   5.918  10.831  1.4225  2.6603 -1.1831
  200MOL0     H27532   0.706   6.042  10.801 -1.6712 -1.1917  2.0768
  200MOL0     H27533   0.996   5.936  10.942 -2.1210  1.8073  0.6405
  200MOL0     H27534   0.955   6.105  10.890  2.3385  1.4031 -0.1499
  200MOL0     H27535   1.181   6.099  10.927  0.4045  1.8208 -1.1216
  200MOL0     H27536   1.217   5.945  10.872  0.3594  0.4729 -1.4600
  200MOL0     H27537   1.301   6.073  10.698 -0.8269  3.9634 -1.7402
  200MOL0     H27538   1.161   5.983  10.644 -0.5694  0.5926 -1.0112
  200MOL0     H27539   1.010   6.164  10.655 -0.4384  0.0630  1.3309
  200MOL0     H27540   1.117   6.274  10.732 -1.6138  1.3850 -1.0326
  200MOL0     H27541   1.190   6.162  10.458 -2.0066 -1.0047 -0.1104
  200MOL0     H27542   1.250   6.310  10.523 -0.2630 -0.1221  1.0433
  200MOL0     H27543   0.954   6.260  10.455 -1.1422  1.4958 -1.9707
  200MOL0     H27544   1.021   6.403  10.532 -1.3126 -2.4035  2.1881
  200MOL0     H27545   1.121   6.290  10.259 -0.5924  0.6756 -3.1871
  200MOL0     H27546   1.147   6.455  10.328  0.1987 -0.4668 -1.7752
  200MOL0     H27547   0.873   6.345  10.253 -1.7874  1.6083  0.8201
  200MOL0     H27548   0.910   6.495  10.333 -0.3155  0.4368 -0.8106
  200MOL0     H27549   1.094   6.358  10.005 -2.9175 -1.6779  0.8491
  200MOL0     H27550   1.060   6.629   9.742 -0.7169  0.0639  0.9563
  200MOL0     H27551   1.036   6.444   9.752  0.7035 -1.1513  2.2442
  200MOL0     H27552   1.276   6.614   9.846  2.1522 -1.2125  2.9962
  200MOL0     H27553   1.266   6.447   9.870  1.7529 -1.3228 -1.6761
  200MOL0     H27554   1.228   6.418   9.615  1.2458 -0.8490 -0.5309
  200MOL0     H27555   1.291   6.581   9.605  0.6590  0.6081  0.6298
  200MOL0     H27556   1.426   6.332   9.709  0.3182 -0.0803  0.7603
  200MOL0     H27557   1.473   6.444   9.575  1.2838  1.2915  0.3417
  200MOL0     H27558   1.700   6.689   9.838 -0.8086  1.4854 -3.0858
  200MOL0     H27559   1.894   6.784   9.879 -2.9272 -2.1310 -1.8015
  200MOL0     H27560   2.009   6.799   9.748 -1.2266 -0.4542 -0.6036
  200MOL0     H27561   2.046   6.694   9.883  1.7423  3.9288  0.2764
  200MOL0     H27562   2.291   6.245   9.837  1.7511 -0.7725  1.0828
  200MOL0     H27563   2.530   6.215   9.844  1.6036 -2.3785 -1.8207
  200MOL0     H27564   2.863   6.160   9.669  0.7693 -2.1840 -0.3864
  200MOL0     H27565   2.703   6.072   9.679 -2.3320  1.4630 -1.7388
  200MOL0     H27566   2.781   6.011   9.471  0.2759 -0.1737 -1.1192
  200MOL0     H27567   2.705   6.168   9.417  0.9537 -0.6420 -0.8764
  200MOL0     H27568   3.002   6.104   9.465  0.2017  0.7935  1.6031
  200MOL0     H27569   2.943   6.260   9.475  0.1021 -2.0585  1.0131
  200MOL0     H27570   3.029   6.217   9.253 -0.7395  2.0333 -0.0603
  200MOL0     H27571   2.863   6.262   9.233 -0.4796 -0.7162 -0.8476
  200MOL0     H27572   2.936   5.970   9.230 -3.2321 -3.3367  1.0169
  200MOL0     H27573   2.775   6.043   9.224  0.6035 -1.1305  0.1581
  200MOL0     H27574   2.895   5.969   9.010 -2.9356 -0.7096  0.0293
  200MOL0     H27575   3.001   6.108   9.016 -0.3478 -0.8645 -1.6108
  200MOL0     H27576   2.776   6.235   9.030  0.0649 -0.5980  0.0228
  200MOL0     H27577   2.700   6.088   8.985 -0.6634  2.1011  0.9910
  200MOL0     H27578   2.844   6.080   8.765 -0.1337 -0.2237 -0.1135
  200MOL0     H27579   2.909   6.235   8.834 -2.2899  3.0587  2.8906
  200MOL0     H27580   2.565   6.391   9.456 -0.8305 -1.2623 -1.3269
  200MOL0     H27581   2.325   6.437   9.469 -0.1992 -0.6841 -0.4218
  200MOL0     H27582   1.881   6.301   9.598  1.0522 -0.2683  1.9215
  200MOL0     H27583   1.661   6.326   9.620 -0.1618 -0.3039  0.2758
  200MOL0     H27584   0.946   5.704  10.732  1.2110  2.8294 -2.7360
  200MOL0     H27585   0.731   5.544  10.766  3.3749 -0.6203 -1.8645
  200MOL0     H27586   0.335   5.386  10.595 -0.5245  1.3034 -0.7748
  200MOL0     H27587   0.138   5.234  10.653 -1.7133  0.2320  0.0011
  200MOL0     H27588  -0.158   5.360  10.676  1.8259  0.7437  0.2452
  200MOL0     H27589  -0.215   5.212  10.732 -2.9749  1.4272  1.1443
  200MOL0     H27590  -0.346   5.394  10.807  0.8166 -0.6074 -2.5923
  200MOL0     H27591  -0.213   5.469  10.894  0.6117 -1.3182  2.1174
  200MOL0     H27592  -0.352   5.207  10.968  0.8802 -0.9503  0.8306
  200MOL0     H27593  -0.190   5.259  11.036  0.7807  0.8150 -1.5560
  200MOL0     H27594  -0.455   5.399  11.035 -0.0213 -0.3262  0.1321
  200MOL0     H27595  -0.298   5.473  11.077 -0.1675 -0.6306 -2.5987
  200MOL0     H27596  -0.399   5.236  11.426  2.9057  2.0707  0.6626
  200MOL0     H27597   0.017   5.482  10.960  0.5847  1.4169 -0.1023
  200MOL0     H27598   0.283   5.751  10.901 -1.9178 -0.7075 -3.0457
  200MOL0     H27599   0.161   5.707  11.019  0.1591  0.2482 -0.1313
  200MOL0     H27600   0.317   5.633  11.026  1.5999  1.0216 -0.7461
  201MOL0     O27601   0.239   7.665   7.770  0.3335 -0.2987  0.0873
  201MOL0     C27602   0.229   7.549   7.729 -0.8141 -0.0174 -0.4383
  201MOL0     O27603   0.328   7.482   7.662  0.0347 -0.2314 -0.3607
  201MOL0     C27604   0.455   7.540   7.669 -0.0196  0.5232 -0.0295
  201MOL0     C27605   0.559   7.453   7.700  0.3962 -0.5832  0.1205
  201MOL0     C27606   0.687   7.495   7.698  0.6352  0.4128 -0.1856
  201MOL0     C27607   0.730   7.622   7.649 -0.0381 -0.9945 -0.1092
  201MOL0     O27608   0.849   7.674   7.634 -0.2119  0.4679  0.4650
  201MOL0     C27609   0.958   7.581   7.663  0.8022 -0.0994  0.3550
  201MOL0     C27610   1.091   7.652   7.610 -0.1936  0.2017 -0.2335
  201MOL0     C27611   1.096   7.670   7.458 -0.3588  0.8209  0.8780
  201MOL0     C27612   1.223   7.749   7.420  1.2049  0.1500 -0.1770
  201MOL0     C27613   1.350   7.683   7.460 -0.2921  0.5210  0.1552
  201MOL0     C27614   1.467   7.763   7.412 -0.4181 -0.6058  0.0684
  201MOL0     C27615   1.587   7.698   7.486 -1.0681  0.8079  0.5124
  201MOL0     C27616   1.718   7.771   7.459 -0.3977  0.3101 -1.1230
  201MOL0     N27617   1.829   7.710   7.533 -0.5861  0.1758 -0.6238
  201MOL0     C27618   1.947   7.777   7.558  0.1542 -0.3299  0.4323
  201MOL0     C27619   2.026   7.687   7.624  0.9794  0.0400  1.4225
  201MOL0     C27620   2.157   7.714   7.689  0.1639 -0.3896  0.5474
  201MOL0     C27621   2.248   7.589   7.677  0.6084 -0.9168 -0.7427
  201MOL0     C27622   2.351   7.570   7.790  0.2329 -0.4660  0.3152
  201MOL0     C27623   2.294   7.569   7.935 -0.2110  0.1042  1.3695
  201MOL0     O27624   2.283   7.709   7.984 -0.3782  0.7472 -0.4443
  201MOL0     C27625   2.397   7.786   7.997 -0.5407  0.6254  0.1285
  201MOL0     C27626   2.529   7.733   8.020  0.1998  0.7567  0.3146
  201MOL0     C27627   2.633   7.826   8.053 -0.8494 -0.3782 -0.1231
  201MOL0     C27628   2.765   7.772   8.078  0.0539  0.7251  0.5275
  201MOL0     C27629   2.606   7.968   8.057  0.4598 -0.0673 -0.5047
  201MOL0     C27630   2.705   8.072   8.090 -0.0779  0.3426  0.5230
  201MOL0     O27631   2.837   8.043   8.077  0.2806  0.8570 -0.3843
  201MOL0     C27632   2.938   8.134   8.101  0.1890 -0.7954  0.2477
  201MOL0     C27633   3.071   8.086   8.111  0.0455 -0.3724  0.1789
  201MOL0     C27634   3.178   8.167   8.121 -0.7977 -0.5903 -0.2242
  201MOL0     C27635   3.170   8.300   8.119 -0.1182 -1.2340  0.3792
  201MOL0     O27636   3.277   8.387   8.106  0.6457 -0.7094  0.4692
  201MOL0     C27637   3.399   8.325   8.049  0.4408  1.3677  0.2197
  201MOL0     C27638   3.503   8.439   8.004 -0.6250  0.3033 -0.2783
  201MOL0     C27639   3.548   8.532   8.123 -0.0969 -0.4183  0.6316
  201MOL0     C27640   3.576   8.458   8.259 -0.3274  0.2086  0.3587
  201MOL0     C27641   3.670   8.550   8.335  0.8408 -0.2951  0.1764
  201MOL0     C27642   3.619   8.689   8.358 -0.6799  0.0148  0.2875
  201MOL0     C27643   3.694   8.761   8.469 -0.3230  0.1742 -0.1450
  201MOL0     C27644   3.641   8.899   8.466 -0.0227 -0.2414 -0.2567
  201MOL0    Cl27645   3.768   9.001   8.534 -0.1490  0.0869 -0.1312
  201MOL0     C27646   3.043   8.352   8.112  0.4175 -0.4266 -0.3892
  201MOL0     C27647   2.932   8.278   8.100 -0.1528  0.3798 -0.0528
  201MOL0     O27648   2.663   8.170   8.143  0.2311  0.1224 -0.7077
  201MOL0     C27649   2.475   8.008   8.038  0.8473 -0.2542 -0.9457
  201MOL0     C27650   2.368   7.922   8.013 -0.1053  0.2241 -1.2700
  201MOL0     N27651   1.953   7.568   7.627 -0.7360  0.5612  0.3157
  201MOL0     N27652   1.846   7.582   7.566  0.2811 -0.1295  0.3432
  201MOL0     C27653   0.625   7.705   7.619 -0.1128 -0.7100  0.2169
  201MOL0     C27654   0.492   7.663   7.629  0.1812  0.1099 -0.1988
  201MOL0     C27655   0.097   7.486   7.742 -0.4230  0.0863  0.3210
  201MOL0     C27656  -0.009   7.569   7.797  0.5047  0.6869 -0.3610
  201MOL0     C27657  -0.127   7.514   7.823 -0.2156 -0.1682 -0.3554
  201MOL0     C27658  -0.162   7.379   7.791 -0.5598  0.3944 -1.0005
  201MOL0     O27659  -0.288   7.339   7.830 -0.5110 -0.1372  0.3596
  201MOL0     C27660  -0.351   7.243   7.755  0.4359  0.2619 -0.7195
  201MOL0     C27661  -0.468   7.187   7.839  0.4010 -0.7136 -0.1713
  201MOL0     C27662  -0.538   7.075   7.771  0.4589  0.7204  0.6939
  201MOL0     C27663  -0.641   6.993   7.859 -0.5667 -0.1392  0.8749
  201MOL0     C27664  -0.718   6.889   7.794 -0.0301 -0.0325  0.2252
  201MOL0     C27665  -0.779   6.802   7.732  0.2058 -0.3417 -0.8272
  201MOL0     C27666  -0.066   7.300   7.727  0.2685 -0.0364  0.3205
  201MOL0     C27667   0.064   7.351   7.707 -0.9723 -0.1931  0.1309
  201MOL0     C27668   0.159   7.258   7.628 -1.0087  0.2892 -0.0860
  201MOL0     H27669   0.530   7.354   7.735 -2.6127  0.5665  1.2384
  201MOL0     H27670   0.757   7.416   7.723  0.5530  1.0033  2.1024
  201MOL0     H27671   0.943   7.481   7.622  2.6932 -0.4841  0.4988
  201MOL0     H27672   0.964   7.576   7.772  0.0425  1.0984  0.4668
  201MOL0     H27673   1.095   7.742   7.671  0.0723 -1.0493  1.6787
  201MOL0     H27674   1.172   7.588   7.647 -1.0011 -0.3295  0.6874
  201MOL0     H27675   1.100   7.572   7.408  1.5166 -1.2320  4.5606
  201MOL0     H27676   1.005   7.725   7.431 -2.2302 -0.8923  3.1707
  201MOL0     H27677   1.216   7.774   7.314  0.7698 -1.3831 -0.5309
  201MOL0     H27678   1.210   7.849   7.462 -1.7274  0.4601 -1.5750
  201MOL0     H27679   1.348   7.580   7.424  0.0674 -0.0717  1.7579
  201MOL0     H27680   1.359   7.677   7.569  2.1127 -4.5327 -0.0278
  201MOL0     H27681   1.478   7.751   7.304  0.5577  4.4832 -0.6556
  201MOL0     H27682   1.455   7.871   7.426  0.6409 -0.1930 -1.8048
  201MOL0     H27683   1.598   7.599   7.442  2.0017  1.7381 -1.0886
  201MOL0     H27684   1.573   7.682   7.594 -0.9306  0.1593  0.4345
  201MOL0     H27685   1.742   7.755   7.353 -1.8721 -2.6793 -1.1188
  201MOL0     H27686   1.711   7.879   7.472  1.8888  0.5387 -1.2694
  201MOL0     H27687   1.971   7.878   7.526 -0.0140 -0.9162 -1.6840
  201MOL0     H27688   2.145   7.739   7.795  0.8167 -2.5189  1.1786
  201MOL0     H27689   2.211   7.797   7.642 -2.6334 -0.4336 -3.2070
  201MOL0     H27690   2.191   7.495   7.672  0.6523 -0.9162 -1.2485
  201MOL0     H27691   2.308   7.593   7.586  0.0624 -2.1753 -1.1826
  201MOL0     H27692   2.392   7.472   7.761 -0.6336 -0.4693 -1.0178
  201MOL0     H27693   2.426   7.648   7.776 -1.1685  1.4950  2.9595
  201MOL0     H27694   2.194   7.526   7.942 -0.3444  0.3355  0.9176
  201MOL0     H27695   2.355   7.508   8.002 -0.9238  0.5055  2.4011
  201MOL0     H27696   2.540   7.626   8.004 -1.8649  0.6321 -0.7110
  201MOL0     H27697   2.818   7.827   8.157 -1.4997  0.6884  1.6452
  201MOL0     H27698   2.826   7.773   7.988  1.3291  0.6774  1.3659
  201MOL0     H27699   2.749   7.668   8.109 -3.9391  1.2502  0.7610
  201MOL0     H27700   3.094   7.980   8.114 -0.7029 -0.5497  3.2390
  201MOL0     H27701   3.278   8.125   8.110 -0.2622  1.0275 -1.9839
  201MOL0     H27702   3.451   8.269   8.127 -0.3295  1.2670  0.6658
  201MOL0     H27703   3.383   8.256   7.966  0.7776 -0.6885  1.7852
  201MOL0     H27704   3.592   8.387   7.965 -0.3027 -0.1065  0.9579
  201MOL0     H27705   3.460   8.492   7.919 -1.3379 -1.5695 -1.1616
  201MOL0     H27706   3.463   8.598   8.143 -0.0429  0.7733 -2.5517
  201MOL0     H27707   3.631   8.592   8.087  0.7878 -0.3801  2.6165
  201MOL0     H27708   3.624   8.364   8.232  0.5934  1.2000 -1.6286
  201MOL0     H27709   3.484   8.431   8.312  0.5032 -3.0784  0.2910
  201MOL0     H27710   3.685   8.505   8.434 -0.7786 -0.5728  0.3258
  201MOL0     H27711   3.766   8.563   8.284  0.1107  0.9656 -0.9222
  201MOL0     H27712   3.510   8.692   8.367 -1.4160 -2.4558 -4.3607
  201MOL0     H27713   3.637   8.741   8.263 -3.2646  3.0448  1.3012
  201MOL0     H27714   3.801   8.746   8.457 -0.6808 -2.1842 -0.7430
  201MOL0     H27715   3.662   8.723   8.567 -1.9557  2.3236  0.2625
  201MOL0     H27716   3.547   8.913   8.520  1.2770  2.4062  1.4756
  201MOL0     H27717   3.627   8.935   8.364  1.2119  0.9164 -0.0387
  201MOL0     H27718   3.043   8.460   8.112  1.5221 -0.1306  5.2064
  201MOL0     H27719   2.838   8.328   8.077  0.9828  1.8662 -1.7462
  201MOL0     H27720   2.440   8.111   8.040 -3.6771 -1.5385  2.5067
  201MOL0     H27721   2.266   7.949   7.989  0.0232  0.1678 -1.8834
  201MOL0     H27722   0.657   7.805   7.591  2.1804 -0.8964  1.8611
  201MOL0     H27723   0.415   7.732   7.596 -0.6494  0.9723  3.1266
  201MOL0     H27724   0.010   7.670   7.831  2.4139 -0.1507  1.2716
  201MOL0     H27725  -0.205   7.565   7.878  0.3351  1.9074 -1.4247
  201MOL0     H27726  -0.391   7.281   7.660 -0.9155 -2.2578 -1.2423
  201MOL0     H27727  -0.283   7.159   7.740  1.8805  1.3048 -0.2844
  201MOL0     H27728  -0.536   7.270   7.854  2.1487  0.6120  0.7240
  201MOL0     H27729  -0.431   7.149   7.935  0.3681 -4.0806 -1.3416
  201MOL0     H27730  -0.591   7.107   7.681 -0.0571  0.1393  0.7839
  201MOL0     H27731  -0.459   7.006   7.741 -0.7708 -0.2462 -0.4503
  201MOL0     H27732  -0.704   7.059   7.919  1.4530  0.3754  2.5715
  201MOL0     H27733  -0.578   6.956   7.940  0.6230  1.4323  0.7163
  201MOL0     H27734  -0.835   6.740   7.665 -2.5097  1.2341 -0.1294
  201MOL0     H27735  -0.087   7.201   7.689 -0.4785  0.1798  0.1404
  201MOL0     H27736   0.164   7.287   7.523  4.2888  2.0144  0.3330
  201MOL0     H27737   0.263   7.254   7.663 -0.1696 -0.1464 -2.4537
  201MOL0     H27738   0.135   7.152   7.633 -0.4263  0.0389 -1.9322
  202MOL0     O27739   3.749   3.023  10.940  0.1850 -1.1711 -0.2227
  202MOL0     C27740   3.728   2.904  10.922  0.4653 -0.3802  0.7727
  202MOL0     O27741   3.620   2.836  10.966 -0.7309  0.1551  1.4290
  202MOL0     C27742   3.519   2.883  11.041 -0.4330  0.4234  0.2982
  202MOL0     C27743   3.439   2.983  11.011  0.4026 -0.5414  0.3051
  202MOL0     C27744   3.350   3.038  11.103 -0.1741  0.2125  0.8796
  202MOL0     C27745   3.312   2.980  11.219 -0.1845 -0.3871 -0.7750
  202MOL0     O27746   3.215   3.035  11.299 -0.3168  0.6015  0.3207
  202MOL0     C27747   3.198   2.983  11.437  0.0244 -0.3671 -0.3980
  202MOL0     C27748   3.291   3.030  11.543 -0.5128 -0.5140  0.0994
  202MOL0     C27749   3.429   2.962  11.552 -0.8184 -0.4503 -0.6145
  202MOL0     C27750   3.487   2.988  11.688 -0.1570 -0.1571  0.3792
  202MOL0     C27751   3.618   2.920  11.708 -0.2045  0.3476  0.2041
  202MOL0     C27752   3.737   2.965  11.607  0.0878  0.3757 -0.5996
  202MOL0     C27753   3.873   2.907  11.637 -0.2195  0.2003 -0.0045
  202MOL0     C27754   3.881   2.751  11.632  0.3598 -0.3423  0.2407
  202MOL0     N27755   4.027   2.711  11.649 -0.4342 -0.3737  0.4308
  202MOL0     C27756   4.103   2.659  11.548 -0.6314  0.1188 -0.5987
  202MOL0     C27757   4.226   2.650  11.603 -0.1707 -0.3767  0.9977
  202MOL0     C27758   4.343   2.592  11.533 -0.9326 -0.4594  0.4171
  202MOL0     C27759   4.459   2.552  11.625  0.4713  0.2036 -0.5841
  202MOL0     C27760   4.581   2.509  11.549  0.1814  0.3651  0.5967
  202MOL0     C27761   4.697   2.528  11.634 -0.8417 -0.3681 -0.2891
  202MOL0     O27762   4.804   2.499  11.541  0.7613 -0.3552 -0.1572
  202MOL0     C27763   4.928   2.497  11.588 -0.6580  0.8312  0.0088
  202MOL0     C27764   5.026   2.491  11.491 -0.0237  0.4022  0.4296
  202MOL0     C27765   5.165   2.472  11.508  0.3575 -1.2513  0.7668
  202MOL0     C27766   5.249   2.492  11.384 -0.7807  0.1292  0.1467
  202MOL0     C27767   5.203   2.474  11.641 -1.2541 -0.8946 -0.6812
  202MOL0     C27768   5.347   2.473  11.678  0.2304 -0.5409  0.2049
  202MOL0     O27769   5.378   2.527  11.806  0.0881  0.0315 -0.8477
  202MOL0     C27770   5.516   2.556  11.821 -0.1522 -0.1542 -0.5258
  202MOL0     C27771   5.621   2.463  11.847 -0.4208  0.1093 -0.4351
  202MOL0     C27772   5.751   2.503  11.858 -1.2074 -0.7038 -0.1828
  202MOL0     C27773   5.785   2.636  11.862  0.3921 -0.8054  0.8112
  202MOL0     O27774   5.916   2.681  11.881  0.3086 -0.0488 -0.1738
  202MOL0     C27775   6.023   2.602  11.841  0.3084  0.1959  0.5645
  202MOL0     C27776   6.147   2.686  11.821 -0.1214  0.3969 -0.4070
  202MOL0     C27777   6.251   2.608  11.739 -0.6160  0.8044  0.0740
  202MOL0     C27778   6.216   2.605  11.588 -0.1313  0.3664 -0.5550
  202MOL0     C27779   6.314   2.526  11.494 -0.0692  0.4395  0.0902
  202MOL0     C27780   6.453   2.604  11.476 -0.2724 -0.1870  0.4803
  202MOL0     C27781   6.547   2.532  11.371 -0.2103 -0.1785 -1.1503
  202MOL0     C27782   6.587   2.380  11.395  0.5906 -0.4781  0.1898
  202MOL0    Cl27783   6.671   2.320  11.245  0.0698 -0.0773 -0.1198
  202MOL0     C27784   5.684   2.730  11.839  0.1895  0.5748 -0.1055
  202MOL0     C27785   5.550   2.694  11.818 -0.3984 -0.1408  0.5217
  202MOL0     O27786   5.433   2.416  11.612 -0.3862 -0.5957  0.2103
  202MOL0     C27787   5.107   2.472  11.748  0.3946 -0.0020  0.1527
  202MOL0     C27788   4.969   2.483  11.718  0.6711  0.5150  0.2940
  202MOL0     N27789   4.219   2.695  11.736 -0.3743  0.0505  0.3181
  202MOL0     N27790   4.101   2.729  11.760 -0.6918 -0.4269  0.7405
  202MOL0     C27791   3.387   2.861  11.243  0.5563 -0.0260  0.1717
  202MOL0     C27792   3.491   2.814  11.164  0.1795  0.5999 -0.0577
  202MOL0     C27793   3.831   2.826  10.839 -0.5448 -0.2462  0.2018
  202MOL0     C27794   3.955   2.896  10.812  0.5929  0.3633 -0.0303
  202MOL0     C27795   4.047   2.840  10.724  0.6135  0.3474 -0.2803
  202MOL0     C27796   4.039   2.707  10.684  0.3755 -0.3786  0.2288
  202MOL0     O27797   4.131   2.638  10.605  0.3270 -0.1995 -0.1927
  202MOL0     C27798   4.258   2.702  10.563 -0.2708  0.0028  1.4221
  202MOL0     C27799   4.328   2.616  10.452  0.0466 -0.2488 -0.2204
  202MOL0     C27800   4.395   2.489  10.509 -0.4468  0.1207  0.8747
  202MOL0     C27801   4.308   2.366  10.535  0.2543 -0.0150 -0.1612
  202MOL0     C27802   4.241   2.329  10.409  1.0025  0.2167  0.3983
  202MOL0     C27803   4.197   2.289  10.301 -0.1866  0.2407 -0.1881
  202MOL0     C27804   3.919   2.637  10.706 -0.1598 -0.8015  0.1668
  202MOL0     C27805   3.807   2.696  10.779  0.2194  0.1924  0.5618
  202MOL0     C27806   3.677   2.623  10.794  0.1970  0.0844 -0.5732
  202MOL0     H27807   3.454   3.017  10.909  0.0658 -2.1343 -0.2927
  202MOL0     H27808   3.293   3.127  11.078 -0.0433  0.0092 -0.1965
  202MOL0     H27809   3.190   2.875  11.428 -0.6783 -0.2385 -1.4558
  202MOL0     H27810   3.095   3.008  11.464 -0.1434 -1.9061  0.4903
  202MOL0     H27811   3.305   3.134  11.514  0.0166 -0.3123  1.0399
  202MOL0     H27812   3.232   3.015  11.634 -0.5009 -1.2308 -0.0029
  202MOL0     H27813   3.428   2.856  11.522 -1.9101  0.0151 -2.3652
  202MOL0     H27814   3.494   3.023  11.488 -1.3671 -1.4754 -2.2169
  202MOL0     H27815   3.506   3.094  11.707 -1.1263 -0.1769  1.6047
  202MOL0     H27816   3.428   2.955  11.774 -0.1521 -3.5612 -0.7647
  202MOL0     H27817   3.619   2.811  11.708  1.4955  0.3308  1.1817
  202MOL0     H27818   3.653   2.946  11.808 -0.4235 -1.0567  0.6668
  202MOL0     H27819   3.696   2.948  11.507 -4.1890 -1.8300  1.2832
  202MOL0     H27820   3.738   3.074  11.622 -1.3854  0.5230 -1.4445
  202MOL0     H27821   3.901   2.943  11.736  1.3550 -0.9675  0.0123
  202MOL0     H27822   3.937   2.954  11.562 -2.5008  0.5589 -1.8674
  202MOL0     H27823   3.815   2.706  11.706 -0.7519  0.0370 -0.4894
  202MOL0     H27824   3.847   2.720  11.533  0.6456 -1.5092  0.4953
  202MOL0     H27825   4.076   2.617  11.451  2.1084 -0.7433 -1.0913
  202MOL0     H27826   4.388   2.657  11.457  3.7318 -1.6046  1.9047
  202MOL0     H27827   4.310   2.499  11.486 -1.7240 -1.0048  1.9792
  202MOL0     H27828   4.486   2.632  11.694  2.1988  0.7696 -1.8468
  202MOL0     H27829   4.416   2.464  11.673  2.3318 -0.7257 -0.5155
  202MOL0     H27830   4.571   2.406  11.515 -1.2174  0.5140  0.4848
  202MOL0     H27831   4.590   2.563  11.454  0.6432  1.0541  1.0280
  202MOL0     H27832   4.710   2.629  11.673  0.8910  0.2321 -2.2275
  202MOL0     H27833   4.691   2.449  11.709 -0.2132  1.4946  1.8041
  202MOL0     H27834   4.987   2.502  11.390 -1.4451 -0.5441  0.8385
  202MOL0     H27835   5.316   2.407  11.370 -0.3679  0.2378  1.2985
  202MOL0     H27836   5.312   2.581  11.394 -0.7598  0.2494 -1.0082
  202MOL0     H27837   5.183   2.522  11.302 -2.1212 -1.0282  0.7594
  202MOL0     H27838   5.616   2.354  11.850 -0.7474  0.1179  3.2621
  202MOL0     H27839   5.836   2.436  11.863  1.0470  2.0106  0.7321
  202MOL0     H27840   6.042   2.531  11.921 -1.0766 -0.1135  0.6295
  202MOL0     H27841   6.002   2.546  11.750  2.0478  0.2404  0.0984
  202MOL0     H27842   6.121   2.784  11.780 -1.9943 -0.0109 -0.2971
  202MOL0     H27843   6.187   2.705  11.920 -1.3467 -0.6803  0.3336
  202MOL0     H27844   6.277   2.507  11.773  0.5679  0.5372 -1.4797
  202MOL0     H27845   6.345   2.660  11.762 -0.6570 -0.3867  3.6071
  202MOL0     H27846   6.211   2.709  11.554  2.2285 -0.4949 -4.1491
  202MOL0     H27847   6.119   2.556  11.571 -0.3684  0.7466 -0.3046
  202MOL0     H27848   6.342   2.426  11.529 -0.4988 -0.8805 -3.0019
  202MOL0     H27849   6.255   2.505  11.404 -2.2102  0.4853  1.4077
  202MOL0     H27850   6.501   2.619  11.573 -2.1874  0.1038  1.4292
  202MOL0     H27851   6.427   2.705  11.442  0.1015 -0.4964 -0.7677
  202MOL0     H27852   6.639   2.591  11.368  2.6837 -4.2363 -0.6332
  202MOL0     H27853   6.499   2.541  11.273  0.7683  3.7497 -1.4417
  202MOL0     H27854   6.495   2.322  11.407  0.7590 -0.9522 -0.7466
  202MOL0     H27855   6.646   2.367  11.486 -1.9310  1.0345  2.2000
  202MOL0     H27856   5.698   2.837  11.829 -1.9503  0.9626  0.5872
  202MOL0     H27857   5.483   2.779  11.810  1.3415  1.5524  2.5491
  202MOL0     H27858   5.136   2.475  11.852 -3.1421  3.2221  1.2846
  202MOL0     H27859   4.901   2.477  11.802  0.5653  1.4870  0.2871
  202MOL0     H27860   3.358   2.801  11.329 -1.1061  0.6679  0.1446
  202MOL0     H27861   3.536   2.718  11.186 -4.7750 -1.7086  1.2943
  202MOL0     H27862   3.969   2.997  10.848  0.6652  0.4705 -0.3596
  202MOL0     H27863   4.133   2.899  10.692  1.3105 -0.4975 -0.0291
  202MOL0     H27864   4.230   2.800  10.526 -0.4398  0.4264  2.6116
  202MOL0     H27865   4.319   2.713  10.653  0.0258 -1.8177  1.4898
  202MOL0     H27866   4.407   2.680  10.411 -0.6702  1.8788  1.5650
  202MOL0     H27867   4.254   2.588  10.377 -2.6031 -1.0382  2.4932
  202MOL0     H27868   4.467   2.451  10.436  0.3000  0.8610  1.2158
  202MOL0     H27869   4.453   2.503  10.601  0.6565 -1.9478  0.5517
  202MOL0     H27870   4.224   2.381  10.603  0.2075  2.0564 -0.6328
  202MOL0     H27871   4.368   2.285  10.579  0.8010 -0.4084 -1.5623
  202MOL0     H27872   4.154   2.252  10.210 -2.5552 -2.5059  1.8586
  202MOL0     H27873   3.923   2.536  10.666 -0.1030 -1.2172  1.1905
  202MOL0     H27874   3.671   2.525  10.746 -2.1175  0.6791 -1.6357
  202MOL0     H27875   3.663   2.603  10.901  3.7007  0.8952  0.1882
  202MOL0     H27876   3.604   2.690  10.748 -1.7933 -0.8068  1.0911
  203MOL0     O27877   0.691   7.723   1.850 -0.1184 -0.5409  0.0109
  203MOL0     C27878   0.628   7.619   1.837  0.1746 -0.1089 -0.6799
  203MOL0     O27879   0.676   7.492   1.859 -0.1711  0.3460 -0.1320
  203MOL0     C27880   0.811   7.473   1.852  1.4226  0.6792  0.5077
  203MOL0     C27881   0.856   7.370   1.946 -0.6032 -0.9026  0.3866
  203MOL0     C27882   0.992   7.335   1.946 -0.1852 -0.5901  0.4439
  203MOL0     C27883   1.077   7.396   1.854  0.5489 -0.4070 -0.3090
  203MOL0     O27884   1.205   7.361   1.867  0.2513  0.1546 -0.7002
  203MOL0     C27885   1.274   7.337   1.747  0.1026  0.4152 -0.2794
  203MOL0     C27886   1.409   7.284   1.784 -0.4812  0.2232 -0.3769
  203MOL0     C27887   1.399   7.158   1.885 -0.8281 -0.2140 -0.2116
  203MOL0     C27888   1.542   7.094   1.914  0.5448  0.0072 -0.0257
  203MOL0     C27889   1.628   7.184   2.006  0.1853 -0.2197 -0.4761
  203MOL0     C27890   1.760   7.115   2.025 -0.1412  0.2014 -0.0932
  203MOL0     C27891   1.853   7.188   2.116 -0.0850  0.2206 -0.8550
  203MOL0     C27892   1.887   7.328   2.060  0.4768 -0.0970  0.0917
  203MOL0     N27893   1.999   7.393   2.130  0.6927 -0.4042  0.0425
  203MOL0     C27894   2.026   7.527   2.130  0.2619 -0.0783  0.4245
  203MOL0     C27895   2.137   7.538   2.210 -0.0564 -0.1999  0.6071
  203MOL0     C27896   2.197   7.669   2.253 -0.1471  0.7471 -0.4559
  203MOL0     C27897   2.355   7.665   2.258 -0.0979  1.4465 -0.2426
  203MOL0     C27898   2.413   7.798   2.307 -0.4843 -0.1859  0.1021
  203MOL0     C27899   2.570   7.794   2.351  0.2178 -0.2785 -0.4861
  203MOL0     O27900   2.587   7.684   2.449  0.6582 -0.4136 -0.6358
  203MOL0     C27901   2.718   7.632   2.470 -1.2376 -0.9983  0.9666
  203MOL0     C27902   2.728   7.515   2.545 -0.0808 -0.3360  0.0634
  203MOL0     C27903   2.854   7.460   2.569  0.3825  0.2030  0.8883
  203MOL0     C27904   2.851   7.342   2.654 -0.3415  0.1130 -0.2017
  203MOL0     C27905   2.968   7.527   2.528 -0.3483  0.3238 -0.6850
  203MOL0     C27906   3.113   7.488   2.568  0.6830  0.7875 -0.6493
  203MOL0     O27907   3.212   7.515   2.478 -0.3452  0.4546  0.6439
  203MOL0     C27908   3.343   7.469   2.484 -0.1660  0.6685  0.0488
  203MOL0     C27909   3.435   7.525   2.397 -0.2360 -0.3023 -0.0213
  203MOL0     C27910   3.570   7.478   2.383  0.4326 -0.0258 -0.3114
  203MOL0     C27911   3.611   7.363   2.449 -0.3643 -0.1208  0.5678
  203MOL0     O27912   3.742   7.329   2.432  0.3982  0.4948 -0.2047
  203MOL0     C27913   3.791   7.254   2.544  0.4379  0.0861 -0.5320
  203MOL0     C27914   3.940   7.244   2.532 -0.5961 -0.4406  0.4403
  203MOL0     C27915   4.000   7.164   2.404 -0.0653 -0.9174 -0.1355
  203MOL0     C27916   4.156   7.170   2.388  0.5078 -0.0505 -0.0473
  203MOL0     C27917   4.223   7.145   2.517 -0.2716  0.1347  0.6079
  203MOL0     C27918   4.368   7.092   2.481  0.8055  0.5811 -0.3751
  203MOL0     C27919   4.466   7.194   2.419 -0.5044 -0.7116 -0.2811
  203MOL0     C27920   4.589   7.126   2.367  0.5822  0.8436  0.7375
  203MOL0    Cl27921   4.668   7.028   2.499 -0.0017  0.0262 -0.3528
  203MOL0     C27922   3.510   7.295   2.525  0.3054 -0.0231  1.1350
  203MOL0     C27923   3.376   7.350   2.533  0.5373  0.0736  0.6066
  203MOL0     O27924   3.128   7.460   2.686 -0.3067 -0.3430  1.0577
  203MOL0     C27925   2.954   7.639   2.441 -0.7437 -0.8009 -0.0519
  203MOL0     C27926   2.830   7.688   2.407  0.1347  0.8052  0.2449
  203MOL0     N27927   2.175   7.409   2.260  0.8364  0.0181  0.1725
  203MOL0     N27928   2.085   7.334   2.214  0.2882  0.4557 -0.0578
  203MOL0     C27929   1.032   7.484   1.757 -0.1070 -0.1205  0.0440
  203MOL0     C27930   0.897   7.518   1.756  0.7455 -0.8254  0.2991
  203MOL0     C27931   0.485   7.634   1.808  0.2786 -0.2480 -0.2753
  203MOL0     C27932   0.400   7.539   1.873 -0.9344  0.2396 -0.6759
  203MOL0     C27933   0.259   7.533   1.852 -0.4292 -1.4086 -0.3886
  203MOL0     C27934   0.208   7.634   1.768  0.2774 -0.1228 -0.3497
  203MOL0     O27935   0.076   7.642   1.723  0.0472 -0.0972 -0.4504
  203MOL0     C27936  -0.014   7.534   1.755 -0.0452  0.1256  0.1649
  203MOL0     C27937  -0.147   7.566   1.691  0.8628 -0.1234 -0.2699
  203MOL0     C27938  -0.261   7.472   1.727  0.1189 -0.2404 -0.1066
  203MOL0     C27939  -0.384   7.536   1.662 -0.1901 -0.0613 -0.1904
  203MOL0     C27940  -0.509   7.468   1.700  0.1374  0.5809  0.4905
  203MOL0     C27941  -0.612   7.403   1.717 -0.3058  0.0117  0.4303
  203MOL0     C27942   0.290   7.742   1.729 -0.8992 -0.7393  1.0451
  203MOL0     C27943   0.424   7.745   1.744  0.3482  0.2140  0.1101
  203MOL0     C27944   0.498   7.856   1.683 -0.3792 -0.6311 -0.1596
  203MOL0     H27945   0.786   7.321   2.012 -0.5657 -1.2061  0.2054
  203MOL0     H27946   1.044   7.260   2.004 -0.6194 -0.6152  0.8062
  203MOL0     H27947   1.279   7.421   1.678 -2.3056 -0.8399 -2.1785
  203MOL0     H27948   1.223   7.257   1.692 -0.1808 -0.8793  1.7648
  203MOL0     H27949   1.467   7.248   1.699  1.2111  1.3152  0.2754
  203MOL0     H27950   1.475   7.358   1.830 -1.3349  0.5066  0.4244
  203MOL0     H27951   1.349   7.184   1.979 -1.2507  1.7561 -0.9294
  203MOL0     H27952   1.338   7.080   1.839  0.2297 -0.2912 -1.5278
  203MOL0     H27953   1.523   7.001   1.968  1.4298 -0.2255 -0.1039
  203MOL0     H27954   1.587   7.080   1.815  1.2309  3.3066 -0.3162
  203MOL0     H27955   1.579   7.206   2.101  3.1143 -0.8395  1.2833
  203MOL0     H27956   1.645   7.285   1.966 -0.1312 -0.1017 -0.3202
  203MOL0     H27957   1.730   7.024   2.078 -0.3728 -0.0893 -0.7140
  203MOL0     H27958   1.803   7.093   1.927 -1.5851  0.1052 -0.7223
  203MOL0     H27959   1.948   7.136   2.132 -1.0620 -1.0205  1.5696
  203MOL0     H27960   1.803   7.194   2.214  0.7985 -0.0798 -0.3726
  203MOL0     H27961   1.902   7.335   1.952 -1.7889 -0.8791 -0.3260
  203MOL0     H27962   1.797   7.389   2.074  2.3060  2.5785  0.9392
  203MOL0     H27963   1.955   7.600   2.092 -0.6394 -1.0148  0.2723
  203MOL0     H27964   2.154   7.699   2.349 -2.1920 -0.2748 -1.0052
  203MOL0     H27965   2.179   7.750   2.182 -0.8525  2.5530  1.6728
  203MOL0     H27966   2.383   7.582   2.323 -2.8682 -1.6411 -2.6503
  203MOL0     H27967   2.394   7.635   2.160 -1.0108 -1.3973  0.1831
  203MOL0     H27968   2.387   7.871   2.229 -1.1836 -0.9175 -0.3681
  203MOL0     H27969   2.355   7.822   2.396 -2.0066 -0.8957 -0.6507
  203MOL0     H27970   2.626   7.775   2.258  1.2841  1.7645 -0.3184
  203MOL0     H27971   2.624   7.878   2.397  0.8931 -2.0971  2.2874
  203MOL0     H27972   2.641   7.460   2.580  0.8391 -2.5717 -0.9878
  203MOL0     H27973   2.862   7.382   2.755 -2.2625 -0.8503  0.4332
  203MOL0     H27974   2.937   7.277   2.633 -0.5180 -1.3764  3.1724
  203MOL0     H27975   2.762   7.279   2.650 -0.6674  0.5425  0.2474
  203MOL0     H27976   3.414   7.607   2.329 -1.0961 -1.6592 -1.4545
  203MOL0     H27977   3.641   7.531   2.321  1.9271 -1.5076  0.0715
  203MOL0     H27978   3.752   7.296   2.637 -0.6514 -3.8481  0.9740
  203MOL0     H27979   3.750   7.153   2.547  1.4374 -0.3114  0.2898
  203MOL0     H27980   3.978   7.346   2.524  0.1678 -0.7076  0.5676
  203MOL0     H27981   3.986   7.195   2.619 -0.8303 -1.6243 -0.0788
  203MOL0     H27982   3.950   7.201   2.314 -1.6380 -0.1117  1.0120
  203MOL0     H27983   3.956   7.066   2.423 -2.0930 -0.0869 -0.2642
  203MOL0     H27984   4.186   7.261   2.335 -0.0804 -0.3241 -0.8740
  203MOL0     H27985   4.181   7.088   2.320  1.8858  0.3545 -0.0535
  203MOL0     H27986   4.226   7.239   2.572 -2.2788  0.4128  0.3051
  203MOL0     H27987   4.162   7.071   2.570 -1.4619  1.5370  1.2594
  203MOL0     H27988   4.359   6.999   2.424 -0.8339 -0.1078  0.9200
  203MOL0     H27989   4.405   7.049   2.574 -1.2694 -0.1737  0.1773
  203MOL0     H27990   4.495   7.275   2.486 -0.4958 -1.0601  0.1427
  203MOL0     H27991   4.412   7.230   2.331 -1.7019  0.8438  1.0396
  203MOL0     H27992   4.668   7.195   2.339 -1.7624  2.8087 -1.6082
  203MOL0     H27993   4.556   7.061   2.285 -2.9944  1.6355  1.3532
  203MOL0     H27994   3.530   7.205   2.582 -0.9265 -1.9385 -1.2468
  203MOL0     H27995   3.301   7.302   2.595 -0.4953 -0.4628 -1.0004
  203MOL0     H27996   3.044   7.680   2.396 -0.1439 -0.0361  1.7619
  203MOL0     H27997   2.821   7.775   2.342  0.0043  1.4402  1.0830
  203MOL0     H27998   1.101   7.532   1.688 -0.2885  0.9090  0.5629
  203MOL0     H27999   0.858   7.596   1.691  1.4239 -1.4797 -0.9169
  203MOL0     H28000   0.441   7.449   1.917  1.9471  1.1471 -1.2941
  203MOL0     H28001   0.187   7.469   1.901 -1.2334  0.3347  0.8029
  203MOL0     H28002   0.013   7.436   1.715 -0.9531  0.0422 -0.2580
  203MOL0     H28003  -0.023   7.531   1.864  0.1960  2.2796  0.2806
  203MOL0     H28004  -0.130   7.574   1.583  0.6558  0.8017 -0.2481
  203MOL0     H28005  -0.170   7.665   1.732  4.1139 -0.9174  4.1810
  203MOL0     H28006  -0.253   7.367   1.696 -1.1575  0.0081 -1.3977
  203MOL0     H28007  -0.274   7.474   1.836  0.5908 -0.3501 -0.0437
  203MOL0     H28008  -0.378   7.535   1.553 -0.2391 -0.6103 -0.1893
  203MOL0     H28009  -0.397   7.640   1.695  0.0080 -0.7057  2.1382
  203MOL0     H28010  -0.698   7.340   1.724 -0.2350 -0.4775 -2.0563
  203MOL0     H28011   0.243   7.824   1.676  1.7238  1.3256  1.6997
  203MOL0     H28012   0.600   7.830   1.652  0.2908  1.1403  0.4284
  203MOL0     H28013   0.441   7.898   1.600 -0.6308 -0.8546 -0.1026
  203MOL0     H28014   0.519   7.935   1.756 -1.1466  0.8003 -1.4307
  204MOL0     O28015  10.146   5.791   5.945  0.5196 -0.2142 -0.4180
  204MOL0     C28016  10.102   5.683   5.986 -0.1421 -0.7137  0.8590
  204MOL0     O28017  10.177   5.585   6.037 -0.1623 -0.0260  0.0189
  204MOL0     C28018  10.312   5.614   6.066 -0.0875 -0.0509  0.5570
  204MOL0     C28019  10.402   5.653   5.967 -0.6519 -0.2327  0.2021
  204MOL0     C28020  10.544   5.680   5.999  0.2846 -0.0353 -0.2063
  204MOL0     C28021  10.591   5.647   6.129 -0.0189 -0.1880  1.0792
  204MOL0     O28022  10.722   5.657   6.163  0.0228  0.4146 -0.4156
  204MOL0     C28023  10.784   5.779   6.141  0.0078  0.5744  0.8509
  204MOL0     C28024  10.928   5.760   6.188 -0.0205  0.3897 -0.5013
  204MOL0     C28025  10.993   5.657   6.087 -0.0832  0.2717  0.9381
  204MOL0     C28026  11.131   5.595   6.115 -0.1632  0.1321 -0.2795
  204MOL0     C28027  11.179   5.545   5.971 -0.6698 -0.8167 -0.1637
  204MOL0     C28028  11.282   5.432   5.994 -0.2416 -0.5398 -0.1339
  204MOL0     C28029  11.379   5.390   5.885  0.3653 -0.1472 -0.8710
  204MOL0     C28030  11.467   5.501   5.822 -0.0485  0.1481  0.6094
  204MOL0     N28031  11.554   5.440   5.714  1.1738  0.1333 -0.5698
  204MOL0     C28032  11.638   5.331   5.737 -0.0477 -0.7829  0.1718
  204MOL0     C28033  11.684   5.305   5.613 -0.1098 -0.4050  0.3329
  204MOL0     C28034  11.787   5.206   5.576 -0.4340  0.2903 -0.3171
  204MOL0     C28035  11.888   5.241   5.469 -0.0627  0.5063 -1.0721
  204MOL0     C28036  11.945   5.379   5.483  0.4040  0.2787  0.2776
  204MOL0     C28037  12.085   5.412   5.422 -0.3753  0.0065  0.8461
  204MOL0     O28038  12.129   5.530   5.477 -0.0750 -0.1786 -0.2453
  204MOL0     C28039  12.264   5.555   5.479  0.3799 -1.4415 -0.6771
  204MOL0     C28040  12.290   5.693   5.509  0.3002 -0.3572 -0.0756
  204MOL0     C28041  12.416   5.748   5.538  0.2937  0.1971  0.7749
  204MOL0     C28042  12.424   5.898   5.545  0.0160 -0.4582  0.9619
  204MOL0     C28043  12.526   5.662   5.541 -0.1668 -0.0121  0.8982
  204MOL0     C28044  12.667   5.702   5.544  0.5998 -0.9185 -0.9672
  204MOL0     O28045  12.686   5.841   5.538  0.1235  0.0460 -0.5032
  204MOL0     C28046  12.815   5.891   5.560  0.6456  0.4295 -0.2034
  204MOL0     C28047  12.930   5.857   5.483 -0.3175 -0.3848  0.3603
  204MOL0     C28048  13.054   5.909   5.505  0.4428  0.4539  0.0638
  204MOL0     C28049  13.067   6.003   5.604 -0.2879 -0.6104  0.0185
  204MOL0     O28050  13.191   6.063   5.638 -0.2865  0.4979  0.1259
  204MOL0     C28051  13.282   6.094   5.531 -0.1395 -0.1413 -0.3370
  204MOL0     C28052  13.382   6.207   5.570 -0.4663 -0.6626  0.1139
  204MOL0     C28053  13.468   6.233   5.455 -0.5125 -0.4322  0.2435
  204MOL0     C28054  13.604   6.290   5.505  0.1882  0.2605 -0.0454
  204MOL0     C28055  13.691   6.371   5.395  0.4861  0.2947  0.5143
  204MOL0     C28056  13.824   6.419   5.452  0.6227 -0.3536  0.0426
  204MOL0     C28057  13.933   6.432   5.352 -0.5309 -0.1300  0.2262
  204MOL0     C28058  13.989   6.291   5.322  1.0337 -0.3653  0.7094
  204MOL0    Cl28059  14.130   6.321   5.213 -0.1506 -0.0621  0.1041
  204MOL0     C28060  12.962   6.034   5.686  1.1222 -0.5499  0.2914
  204MOL0     C28061  12.835   5.974   5.665  1.3424 -0.2873 -0.5904
  204MOL0     O28062  12.756   5.620   5.561  0.0149 -0.0795  0.2860
  204MOL0     C28063  12.501   5.526   5.513  0.3664 -0.2888  0.2343
  204MOL0     C28064  12.372   5.476   5.485  1.0129  0.3902  0.0205
  204MOL0     N28065  11.643   5.400   5.526  0.1783 -0.1358  0.6237
  204MOL0     N28066  11.564   5.488   5.583  0.8201 -0.6231 -0.8568
  204MOL0     C28067  10.502   5.585   6.218  0.1846 -0.6842 -0.5191
  204MOL0     C28068  10.368   5.568   6.189  0.7741  0.0392  0.1953
  204MOL0     C28069   9.950   5.688   5.989  1.3780  0.0056 -0.7983
  204MOL0     C28070   9.875   5.771   5.910 -0.5827  0.3766  0.3489
  204MOL0     C28071   9.737   5.755   5.891 -0.5753 -0.2291 -0.2458
  204MOL0     C28072   9.671   5.650   5.957 -0.5667 -0.3542 -0.1583
  204MOL0     O28073   9.540   5.618   5.936  0.0953 -0.4087 -0.1044
  204MOL0     C28074   9.463   5.693   5.835  0.6750  0.2267  0.5282
  204MOL0     C28075   9.310   5.669   5.844  0.0637  0.2776 -0.0187
  204MOL0     C28076   9.264   5.764   5.954  0.2920  0.2292  0.6962
  204MOL0     C28077   9.121   5.729   5.990  0.3020 -0.6926  0.0443
  204MOL0     C28078   9.022   5.755   5.880 -0.5224  0.1585  0.1585
  204MOL0     C28079   8.954   5.765   5.777 -0.1872  0.7761 -0.4840
  204MOL0     C28080   9.743   5.567   6.054 -0.0185 -0.4030  0.2017
  204MOL0     C28081   9.882   5.586   6.064  0.8292  0.8908 -0.6828
  204MOL0     C28082   9.959   5.509   6.168  0.5786  0.6240 -0.3488
  204MOL0     H28083  10.368   5.664   5.865 -1.4445 -5.2026 -0.3354
  204MOL0     H28084  10.602   5.712   5.913 -1.3433  2.3305 -0.5094
  204MOL0     H28085  10.727   5.854   6.196  1.2295  1.3820  1.0688
  204MOL0     H28086  10.778   5.808   6.035 -2.6289 -0.4020  0.6713
  204MOL0     H28087  10.986   5.853   6.187 -0.3851  0.7661  2.5919
  204MOL0     H28088  10.930   5.727   6.292  0.7501  0.0020 -0.6304
  204MOL0     H28089  10.924   5.574   6.072 -0.0491  0.5743 -1.3842
  204MOL0     H28090  11.005   5.723   6.000  0.2479 -0.3678  0.4894
  204MOL0     H28091  11.203   5.666   6.157  1.8197 -2.5839  1.1723
  204MOL0     H28092  11.128   5.515   6.189  1.1145 -0.2321 -0.6057
  204MOL0     H28093  11.223   5.628   5.916  0.0490  0.2913  1.9853
  204MOL0     H28094  11.099   5.502   5.909 -0.7909  2.7607 -2.7762
  204MOL0     H28095  11.339   5.460   6.083 -0.5190 -1.6823  0.4151
  204MOL0     H28096  11.235   5.336   6.016  2.2313 -1.6715  0.5958
  204MOL0     H28097  11.321   5.342   5.806  3.2725 -3.2854 -1.3318
  204MOL0     H28098  11.442   5.315   5.933  0.4891  0.7698  0.4610
  204MOL0     H28099  11.401   5.574   5.774  1.1056 -0.0361 -1.3591
  204MOL0     H28100  11.522   5.553   5.901 -0.4770 -1.2046  1.8509
  204MOL0     H28101  11.650   5.279   5.832 -1.6744  0.8273  1.3289
  204MOL0     H28102  11.738   5.114   5.542  0.9243 -1.1341  1.3918
  204MOL0     H28103  11.851   5.178   5.660 -2.4943 -1.8149  0.6622
  204MOL0     H28104  11.976   5.176   5.464 -0.2907 -0.0064  0.7021
  204MOL0     H28105  11.838   5.243   5.371  0.6186  1.5497 -1.4089
  204MOL0     H28106  11.878   5.452   5.438 -1.4401 -1.4039  0.1484
  204MOL0     H28107  11.949   5.390   5.591  0.6972 -2.6352  0.6469
  204MOL0     H28108  12.151   5.327   5.440 -0.2854 -0.4584 -1.3519
  204MOL0     H28109  12.074   5.436   5.316  1.4012 -1.0796  0.3800
  204MOL0     H28110  12.206   5.762   5.507  1.1477  0.6891 -1.9908
  204MOL0     H28111  12.457   5.933   5.643 -0.4835  2.4187  0.1947
  204MOL0     H28112  12.327   5.949   5.536  1.8437  2.9729 -1.8175
  204MOL0     H28113  12.485   5.932   5.461 -1.4861 -2.5764 -1.1481
  204MOL0     H28114  12.924   5.777   5.409  0.2340  1.0545 -1.2978
  204MOL0     H28115  13.143   5.868   5.459 -0.5498 -1.3607 -0.3216
  204MOL0     H28116  13.328   6.000   5.500  0.5934  0.5584 -1.4429
  204MOL0     H28117  13.236   6.137   5.442 -0.7896 -0.7256 -0.2905
  204MOL0     H28118  13.329   6.298   5.598 -0.9654 -1.2233  1.0497
  204MOL0     H28119  13.444   6.169   5.652  0.3039  2.3848  1.0768
  204MOL0     H28120  13.426   6.312   5.392 -0.5903 -1.7497 -1.4619
  204MOL0     H28121  13.484   6.142   5.396 -2.3608  1.2603 -3.1790
  204MOL0     H28122  13.658   6.212   5.558 -0.5649  1.5678  2.8337
  204MOL0     H28123  13.571   6.370   5.572  0.7125 -1.1635  1.9891
  204MOL0     H28124  13.708   6.299   5.315  1.2513 -0.7878  1.6201
  204MOL0     H28125  13.631   6.456   5.361 -0.5649  0.0120  1.6173
  204MOL0     H28126  13.848   6.345   5.529  0.5970 -0.0264  0.3645
  204MOL0     H28127  13.805   6.518   5.494  2.5892 -0.4430  1.2602
  204MOL0     H28128  14.018   6.492   5.388 -0.1840  0.7648 -1.9139
  204MOL0     H28129  13.894   6.476   5.259  2.1414  0.5896 -0.6539
  204MOL0     H28130  13.918   6.227   5.270  1.9753 -1.0968  0.2908
  204MOL0     H28131  14.010   6.251   5.422  0.3411 -0.9824  0.6129
  204MOL0     H28132  12.978   6.101   5.770  2.6843 -1.6669  0.9343
  204MOL0     H28133  12.748   5.996   5.725  1.7040 -0.5634  0.0450
  204MOL0     H28134  12.583   5.455   5.520  0.7284  0.1049 -0.0007
  204MOL0     H28135  12.360   5.370   5.465 -1.8932  0.8051 -0.8817
  204MOL0     H28136  10.547   5.548   6.310 -1.8508 -0.6682  0.5306
  204MOL0     H28137  10.310   5.512   6.261 -0.7597  0.7226 -0.4636
  204MOL0     H28138   9.919   5.852   5.852  0.1551  0.3562  0.8660
  204MOL0     H28139   9.685   5.820   5.821  0.2900 -1.2263 -1.8423
  204MOL0     H28140   9.475   5.802   5.826 -1.7551  0.4067 -1.8373
  204MOL0     H28141   9.486   5.648   5.739 -1.4961  0.5328 -0.2045
  204MOL0     H28142   9.290   5.567   5.880 -2.2758  0.9347  0.7312
  204MOL0     H28143   9.266   5.680   5.744  2.8271 -0.9663 -1.4905
  204MOL0     H28144   9.326   5.762   6.044 -1.4232 -0.7405  1.8878
  204MOL0     H28145   9.268   5.861   5.902 -1.3280 -1.2881 -2.5480
  204MOL0     H28146   9.083   5.784   6.077  1.0404 -0.7438  0.4061
  204MOL0     H28147   9.114   5.626   6.026  0.2414 -0.1648  1.6486
  204MOL0     H28148   8.895   5.780   5.689  0.0437 -0.6987 -0.9209
  204MOL0     H28149   9.691   5.493   6.113  0.3438 -0.5275  0.3636
  204MOL0     H28150  10.020   5.575   6.230  1.4244 -2.0387  1.8685
  204MOL0     H28151   9.886   5.456   6.230  1.3437  1.1631  1.0686
  204MOL0     H28152  10.016   5.427   6.121 -1.8467 -0.7090 -1.1297
  205MOL0     O28153   4.557   7.732   6.845 -0.2725  0.3178  0.0381
  205MOL0     C28154   4.470   7.789   6.903 -0.2880 -0.5960  0.7532
  205MOL0     O28155   4.478   7.913   6.963 -0.9848 -0.3849 -0.5045
  205MOL0     C28156   4.604   7.964   6.985  0.7878 -0.0267 -0.4769
  205MOL0     C28157   4.607   8.104   6.992 -0.6270 -0.4572  1.2792
  205MOL0     C28158   4.727   8.175   7.013 -0.6104 -0.4773  0.0845
  205MOL0     C28159   4.852   8.111   7.030 -0.2814 -0.5295 -0.3525
  205MOL0     O28160   4.972   8.176   7.044 -0.2231  0.0625  0.2995
  205MOL0     C28161   4.977   8.315   7.023 -0.3766  1.0539 -0.4379
  205MOL0     C28162   5.126   8.360   7.010 -0.6048 -0.3952 -0.9178
  205MOL0     C28163   5.130   8.512   6.965  0.1768 -0.4254  0.6271
  205MOL0     C28164   5.272   8.570   6.973 -1.0662 -0.2121 -0.1921
  205MOL0     C28165   5.286   8.689   6.890  0.4615 -0.8587  0.1984
  205MOL0     C28166   5.390   8.794   6.947 -0.5989  0.4955  0.5340
  205MOL0     C28167   5.532   8.744   6.937 -0.1062  0.2069 -0.1062
  205MOL0     C28168   5.575   8.731   6.795 -0.7652  0.5993 -0.2550
  205MOL0     N28169   5.722   8.722   6.787 -0.5190  0.4932 -0.6172
  205MOL0     C28170   5.810   8.823   6.805 -0.0679 -0.4949  0.1166
  205MOL0     C28171   5.930   8.762   6.810 -0.0968  0.7760 -0.0729
  205MOL0     C28172   6.064   8.800   6.824 -0.6106 -0.1417 -0.8901
  205MOL0     C28173   6.085   8.918   6.733  0.1270 -0.2051  0.7720
  205MOL0     C28174   6.215   9.001   6.747  0.2580 -0.2061 -0.1121
  205MOL0     C28175   6.334   8.913   6.716  1.1569 -0.3204 -0.2376
  205MOL0     O28176   6.456   8.990   6.725  0.4026 -0.1386  0.6334
  205MOL0     C28177   6.567   8.949   6.670 -1.0056 -0.3775 -0.6171
  205MOL0     C28178   6.604   8.822   6.628  0.0098  0.0408 -0.2270
  205MOL0     C28179   6.730   8.789   6.581  0.6474  0.3128 -0.1072
  205MOL0     C28180   6.753   8.643   6.532 -0.3807  0.2290 -0.2194
  205MOL0     C28181   6.834   8.886   6.583  1.0487  0.1745  0.1070
  205MOL0     C28182   6.977   8.858   6.550  0.0575  0.1757  0.1338
  205MOL0     O28183   7.048   8.963   6.504 -0.4324  0.7975 -0.3209
  205MOL0     C28184   7.191   8.985   6.526  0.3279  0.4068  0.8238
  205MOL0     C28185   7.276   8.893   6.592  0.5750  0.7233 -0.2542
  205MOL0     C28186   7.411   8.919   6.603 -0.0285  0.1678 -0.0918
  205MOL0     C28187   7.474   9.039   6.565  0.6050 -0.1046 -0.0595
  205MOL0     O28188   7.610   9.063   6.581  0.3398 -0.0447 -0.6046
  205MOL0     C28189   7.676   9.064   6.458  0.5655  0.2179  0.1091
  205MOL0     C28190   7.824   9.057   6.484 -1.2198  0.2107  0.1099
  205MOL0     C28191   7.874   8.929   6.550  0.6772 -0.1621  0.0480
  205MOL0     C28192   8.023   8.920   6.521 -0.7090  0.1970 -0.1700
  205MOL0     C28193   8.067   8.784   6.592  0.3719  0.7063  0.1841
  205MOL0     C28194   8.213   8.745   6.570 -0.0773  0.4585  0.0476
  205MOL0     C28195   8.330   8.856   6.584 -0.0594 -0.4440 -0.6303
  205MOL0     C28196   8.467   8.802   6.568  0.0105  0.0798  0.1418
  205MOL0    Cl28197   8.500   8.696   6.709 -0.3048  0.0833 -0.3467
  205MOL0     C28198   7.385   9.127   6.497 -0.1024 -0.0007 -0.1096
  205MOL0     C28199   7.246   9.104   6.480  0.1435  0.1065  0.3615
  205MOL0     O28200   7.024   8.749   6.564  0.5647  0.2796  0.5192
  205MOL0     C28201   6.797   9.020   6.608  0.8599  0.1305 -1.1537
  205MOL0     C28202   6.663   9.048   6.669 -1.0269  0.8906 -0.6502
  205MOL0     N28203   5.910   8.631   6.823  0.1894  0.7465 -0.1221
  205MOL0     N28204   5.781   8.600   6.809  0.7183 -0.4720 -0.6578
  205MOL0     C28205   4.851   7.967   7.034  0.3625  0.5976 -0.0478
  205MOL0     C28206   4.728   7.890   7.007  0.3939  0.3628 -0.6593
  205MOL0     C28207   4.336   7.737   6.891  0.2216  0.4742 -0.3956
  205MOL0     C28208   4.249   7.777   7.000  0.0855 -0.0005 -0.0483
  205MOL0     C28209   4.117   7.725   6.997 -0.2719 -0.3866  0.0918
  205MOL0     C28210   4.077   7.632   6.907  0.1367 -0.3160 -0.6926
  205MOL0     O28211   3.949   7.592   6.933 -0.2739 -0.4105 -0.1600
  205MOL0     C28212   3.872   7.548   6.822 -0.0931  1.0985 -0.4888
  205MOL0     C28213   3.795   7.675   6.772  0.4606  0.7968  0.1854
  205MOL0     C28214   3.702   7.645   6.647  0.6253 -0.5020 -0.0705
  205MOL0     C28215   3.592   7.540   6.674  0.9562  0.0719 -0.5398
  205MOL0     C28216   3.515   7.503   6.559  0.1447 -0.6069 -0.3791
  205MOL0     C28217   3.424   7.481   6.481 -0.4998 -0.4239  0.4211
  205MOL0     C28218   4.169   7.586   6.809 -0.5113  0.5044  0.0149
  205MOL0     C28219   4.298   7.643   6.795  0.3439 -0.2742 -0.2399
  205MOL0     C28220   4.376   7.604   6.672  0.4182  0.4476 -0.8815
  205MOL0     H28221   4.517   8.158   6.962 -1.0114 -2.0935 -0.6685
  205MOL0     H28222   4.723   8.283   7.014  2.4235 -0.1794 -2.7043
  205MOL0     H28223   4.934   8.367   7.109  2.3550  1.5727  0.7182
  205MOL0     H28224   4.921   8.338   6.931 -0.7691  0.1431 -0.4375
  205MOL0     H28225   5.168   8.355   7.111  1.7728  0.2000 -1.8232
  205MOL0     H28226   5.183   8.307   6.933  4.2940 -2.4142  3.5058
  205MOL0     H28227   5.100   8.519   6.860 -0.8115 -0.4980  0.8977
  205MOL0     H28228   5.064   8.574   7.026  0.5753 -0.6476  1.3104
  205MOL0     H28229   5.293   8.584   7.080 -0.8138  0.6011 -0.3433
  205MOL0     H28230   5.343   8.498   6.932 -0.9281  0.9421 -2.0674
  205MOL0     H28231   5.191   8.743   6.897  0.5999 -0.7050  1.0325
  205MOL0     H28232   5.303   8.662   6.785 -0.9571 -2.0802  0.2422
  205MOL0     H28233   5.371   8.892   6.903 -3.6871  0.3254  1.2788
  205MOL0     H28234   5.359   8.803   7.051 -1.7343  2.2134  0.0829
  205MOL0     H28235   5.536   8.652   6.996 -1.3252  1.1816  1.6203
  205MOL0     H28236   5.600   8.821   6.975  0.3357 -0.2395  0.0176
  205MOL0     H28237   5.533   8.650   6.735 -3.2557 -0.0401  2.1258
  205MOL0     H28238   5.546   8.818   6.737  0.0766  0.5022 -0.8389
  205MOL0     H28239   5.777   8.927   6.811  2.1811  0.3819 -1.4674
  205MOL0     H28240   6.139   8.725   6.797  1.5556  1.3681  0.5578
  205MOL0     H28241   6.087   8.837   6.924  0.9867 -4.7147  0.6830
  205MOL0     H28242   6.084   8.886   6.628  0.3559 -0.0456  0.7186
  205MOL0     H28243   6.003   8.990   6.743 -0.8107 -1.3215  1.3107
  205MOL0     H28244   6.221   9.096   6.694  0.4544  0.3819  0.9250
  205MOL0     H28245   6.215   9.036   6.851  0.7624 -1.6144  0.3995
  205MOL0     H28246   6.344   8.834   6.790 -0.4027  0.6482  1.0622
  205MOL0     H28247   6.323   8.864   6.619 -0.0042 -0.6428  0.0510
  205MOL0     H28248   6.527   8.746   6.624 -1.9911  1.8367  1.6017
  205MOL0     H28249   6.787   8.589   6.620 -5.3448 -0.4625  1.6028
  205MOL0     H28250   6.826   8.637   6.451  0.6937 -1.5844  0.8391
  205MOL0     H28251   6.658   8.600   6.498 -0.5371  0.5934 -0.2535
  205MOL0     H28252   7.236   8.799   6.629 -1.1030  0.9060 -1.5021
  205MOL0     H28253   7.475   8.842   6.644 -1.8070 -3.1904 -3.0231
  205MOL0     H28254   7.630   8.983   6.400  0.1750  0.3917  0.1739
  205MOL0     H28255   7.655   9.152   6.397  1.8222  0.1867 -0.4100
  205MOL0     H28256   7.877   9.071   6.389  2.7914 -0.6828  1.9931
  205MOL0     H28257   7.849   9.143   6.546  1.1590  0.7303 -1.4100
  205MOL0     H28258   7.836   8.835   6.509  0.9591 -0.5065  0.5549
  205MOL0     H28259   7.848   8.931   6.656  2.3761  1.4826  0.4972
  205MOL0     H28260   8.078   9.003   6.567 -0.8377  1.2442 -1.8250
  205MOL0     H28261   8.056   8.913   6.417  1.9826 -5.1599  0.7234
  205MOL0     H28262   8.060   8.796   6.700 -1.4369 -1.0148  0.3141
  205MOL0     H28263   8.004   8.700   6.560  0.4850 -0.3754  2.6148
  205MOL0     H28264   8.220   8.706   6.468 -1.5827 -1.2911  0.5638
  205MOL0     H28265   8.231   8.661   6.638  0.9401  1.7148  1.4162
  205MOL0     H28266   8.320   8.897   6.685  2.7218  0.5432 -0.6588
  205MOL0     H28267   8.323   8.939   6.514  0.7330  1.9575  1.9306
  205MOL0     H28268   8.533   8.889   6.570 -0.9879  0.8943 -0.7413
  205MOL0     H28269   8.487   8.760   6.469  0.8508  0.6599  0.0515
  205MOL0     H28270   7.426   9.219   6.459  2.3550 -0.5114  1.0917
  205MOL0     H28271   7.179   9.175   6.433 -1.0250 -0.9067  0.4460
  205MOL0     H28272   6.868   9.101   6.600  0.0298  1.0080  0.0021
  205MOL0     H28273   6.643   9.142   6.718 -2.5335  0.3140 -0.0884
  205MOL0     H28274   4.940   7.907   7.050  1.5902  0.8158 -4.6538
  205MOL0     H28275   4.724   7.782   7.003 -1.3789  0.4354 -3.3817
  205MOL0     H28276   4.265   7.851   7.077  4.0225 -1.6458  0.9373
  205MOL0     H28277   4.044   7.758   7.069 -0.7643 -1.6715  0.2036
  205MOL0     H28278   3.934   7.497   6.748  0.2266 -0.4676  0.8078
  205MOL0     H28279   3.789   7.483   6.851  1.3639 -0.4402  0.3856
  205MOL0     H28280   3.863   7.756   6.746 -1.6074  1.6468 -2.9762
  205MOL0     H28281   3.730   7.716   6.850 -0.4094  2.0535 -1.1691
  205MOL0     H28282   3.663   7.736   6.601 -1.1535 -1.0075  0.3824
  205MOL0     H28283   3.774   7.610   6.571 -0.4726 -0.7244 -1.0336
  205MOL0     H28284   3.523   7.592   6.742  3.5667  0.5390  1.9248
  205MOL0     H28285   3.629   7.445   6.714  0.2222 -0.0710 -0.1797
  205MOL0     H28286   3.350   7.454   6.408 -0.5114  0.9803 -0.1171
  205MOL0     H28287   4.145   7.506   6.739 -1.0594  1.6194 -1.1319
  205MOL0     H28288   4.420   7.699   6.639  1.4449 -0.4493 -2.2085
  205MOL0     H28289   4.449   7.526   6.697  0.2912  0.1559 -1.3967
  205MOL0     H28290   4.320   7.562   6.588  0.1893 -0.6292 -0.2056
  206MOL0     O28291  10.701  10.294   6.382 -0.7813  1.0545 -0.0663
  206MOL0     C28292  10.690  10.244   6.270 -0.6239 -0.5280 -0.0451
  206MOL0     O28293  10.801  10.223   6.184  0.3083 -0.0895  0.0753
  206MOL0     C28294  10.917  10.212   6.264 -0.4643  0.5926 -0.4966
  206MOL0     C28295  10.973  10.089   6.301  0.4729 -0.2118 -0.3595
  206MOL0     C28296  11.091  10.084   6.368 -0.1422 -0.4612  0.2626
  206MOL0     C28297  11.158  10.202   6.414  1.0182  0.2302  1.2120
  206MOL0     O28298  11.272  10.210   6.490 -1.0491  0.9527 -0.0976
  206MOL0     C28299  11.361  10.092   6.480 -0.0040 -0.0859  0.5210
  206MOL0     C28300  11.476  10.114   6.579 -0.4175  0.2676  0.1140
  206MOL0     C28301  11.543   9.980   6.609  0.0044  0.9862  0.0502
  206MOL0     C28302  11.650   9.982   6.713  0.0815  0.7631  0.2928
  206MOL0     C28303  11.709   9.844   6.750 -0.5396 -0.4184  0.2908
  206MOL0     C28304  11.853   9.854   6.800  0.0552  0.6070  0.5742
  206MOL0     C28305  11.872   9.958   6.913  0.4520 -0.0002  0.2003
  206MOL0     C28306  11.787   9.949   7.038  0.9717 -0.4969 -0.1665
  206MOL0     N28307  11.793   9.817   7.090  0.0917  0.2783 -1.5163
  206MOL0     C28308  11.900   9.779   7.166 -0.3115 -0.0627  0.9317
  206MOL0     C28309  11.857   9.668   7.237  0.2892  0.5787  0.5026
  206MOL0     C28310  11.944   9.586   7.333 -0.2249  0.0756 -0.4756
  206MOL0     C28311  11.938   9.438   7.295  0.2222 -0.5718  0.2192
  206MOL0     C28312  12.022   9.349   7.386  0.0616  0.0046 -0.1954
  206MOL0     C28313  12.019   9.191   7.345  1.1066 -0.0296 -0.1398
  206MOL0     O28314  12.057   9.156   7.211  0.0465  0.0849  0.7160
  206MOL0     C28315  12.185   9.154   7.175 -0.4287 -0.0355  0.1691
  206MOL0     C28316  12.297   9.132   7.265 -0.2431 -0.1372  0.4605
  206MOL0     C28317  12.427   9.139   7.206 -0.5944 -0.5918 -0.1256
  206MOL0     C28318  12.551   9.148   7.297  0.0806  0.0930 -0.0296
  206MOL0     C28319  12.451   9.162   7.064  0.9486 -0.0812 -0.3761
  206MOL0     C28320  12.589   9.152   7.004 -1.3917 -0.1164 -0.3421
  206MOL0     O28321  12.670   9.041   7.034  0.4742  0.3625 -0.3859
  206MOL0     C28322  12.786   9.003   6.977 -0.9738 -0.4998  0.0665
  206MOL0     C28323  12.859   9.067   6.875 -0.4244 -0.6765  0.5244
  206MOL0     C28324  12.983   9.020   6.813  0.0407 -0.5246  0.3268
  206MOL0     C28325  13.035   8.897   6.866 -0.9083  0.6689  0.1569
  206MOL0     O28326  13.148   8.851   6.805  0.6450  0.3817  0.7222
  206MOL0     C28327  13.220   8.742   6.873 -0.0855  0.3944  0.8325
  206MOL0     C28328  13.357   8.716   6.797 -0.1114 -0.4669 -0.4875
  206MOL0     C28329  13.452   8.829   6.804 -0.1850 -0.1976  0.3934
  206MOL0     C28330  13.574   8.811   6.717 -0.1799  0.4030  0.2887
  206MOL0     C28331  13.661   8.928   6.693 -0.2125 -0.0343 -0.0712
  206MOL0     C28332  13.747   8.943   6.814  0.3732  0.3310 -0.4498
  206MOL0     C28333  13.866   9.037   6.792  0.5016  0.0554  0.9672
  206MOL0     C28334  13.973   9.045   6.909  0.6779 -0.1170  0.3399
  206MOL0    Cl28335  14.027   8.875   6.951 -0.2610 -0.5458 -0.1921
  206MOL0     C28336  12.958   8.834   6.969  0.0680  0.4380  0.3158
  206MOL0     C28337  12.834   8.875   7.015 -0.4595  0.5435  1.1548
  206MOL0     O28338  12.616   9.228   6.915 -0.5494 -0.2720  0.2752
  206MOL0     C28339  12.340   9.172   6.984  0.1743 -0.5976 -0.0171
  206MOL0     C28340  12.210   9.160   7.036 -1.2429  0.2539 -0.1315
  206MOL0     N28341  11.725   9.641   7.206  0.8250 -0.7581  0.1971
  206MOL0     N28342  11.687   9.729   7.123  0.0613 -0.5956  0.3503
  206MOL0     C28343  11.104  10.327   6.376 -0.7348  0.4767 -0.1138
  206MOL0     C28344  10.987  10.325   6.301  0.0364 -0.7652 -0.2711
  206MOL0     C28345  10.558  10.254   6.208 -0.0364  0.3493  0.2528
  206MOL0     C28346  10.546  10.280   6.068  0.4809  0.7267  0.0271
  206MOL0     C28347  10.423  10.260   6.004 -0.3066  0.4231 -0.9646
  206MOL0     C28348  10.304  10.233   6.078 -1.1263  0.2709  0.5004
  206MOL0     O28349  10.187  10.224   6.003 -0.1896 -0.2648  0.6312
  206MOL0     C28350  10.064  10.246   6.075  0.3960 -0.4806  0.3422
  206MOL0     C28351   9.952  10.240   5.971  0.9264  0.3495  0.1890
  206MOL0     C28352   9.824  10.179   6.026  0.9935  0.2547 -0.0873
  206MOL0     C28353   9.741  10.273   6.118  0.0537 -0.7976  0.1652
  206MOL0     C28354   9.600  10.230   6.139 -0.0996 -0.8537  0.8230
  206MOL0     C28355   9.490  10.194   6.180 -0.9080 -0.4069 -0.4051
  206MOL0     C28356  10.316  10.205   6.218 -0.3537 -0.0905 -0.6649
  206MOL0     C28357  10.435  10.212   6.284 -0.6171 -0.4896 -0.2029
  206MOL0     C28358  10.441  10.185   6.431 -0.0160  0.6282  0.1419
  206MOL0     H28359  10.919   9.999   6.273  0.0911  0.1695 -0.8737
  206MOL0     H28360  11.126   9.986   6.399 -2.5836 -1.1187  1.1352
  206MOL0     H28361  11.413  10.096   6.384  2.5837  1.8041  1.8649
  206MOL0     H28362  11.314   9.997   6.507 -1.4476  0.4917  0.1311
  206MOL0     H28363  11.555  10.180   6.543  0.1074 -0.8701 -0.8555
  206MOL0     H28364  11.425  10.158   6.666 -0.3649 -0.1323  0.3487
  206MOL0     H28365  11.472   9.904   6.643  2.1362  0.1186  2.8757
  206MOL0     H28366  11.599   9.939   6.524 -0.1772  1.4346 -0.2953
  206MOL0     H28367  11.732  10.044   6.676 -0.7708  1.6127 -0.2013
  206MOL0     H28368  11.613  10.039   6.799 -0.5074  2.1677 -0.8578
  206MOL0     H28369  11.706   9.775   6.666  1.5148  0.1961 -0.3355
  206MOL0     H28370  11.642   9.802   6.826 -1.4340  2.7187  1.4057
  206MOL0     H28371  11.870   9.754   6.840 -0.1586  0.3377  0.0133
  206MOL0     H28372  11.919   9.878   6.716  0.2454  2.9593  1.3032
  206MOL0     H28373  11.872  10.061   6.877  1.8123  0.1341  0.5315
  206MOL0     H28374  11.973   9.935   6.950 -0.2331 -3.6427  0.1741
  206MOL0     H28375  11.816  10.023   7.113  1.5232  0.5914 -1.4275
  206MOL0     H28376  11.684   9.978   7.014  1.9414  2.7776 -0.8479
  206MOL0     H28377  11.998   9.823   7.181  0.9150 -1.6446 -1.6682
  206MOL0     H28378  11.939   9.599   7.442  2.6724 -1.7917 -0.0073
  206MOL0     H28379  12.042   9.626   7.307  0.5130 -0.8726  0.7209
  206MOL0     H28380  11.835   9.407   7.309 -0.4337  1.1933 -0.3834
  206MOL0     H28381  11.967   9.415   7.192  0.5105 -0.3501  0.2466
  206MOL0     H28382  12.125   9.385   7.388 -0.2023  0.9276 -1.4849
  206MOL0     H28383  11.973   9.357   7.483 -2.3946 -0.0639 -1.3281
  206MOL0     H28384  12.071   9.133   7.421  1.1632 -1.0846 -0.9497
  206MOL0     H28385  11.916   9.153   7.348  1.7691 -1.8523  0.5698
  206MOL0     H28386  12.280   9.108   7.369 -1.5980 -2.1167 -0.1458
  206MOL0     H28387  12.526   9.157   7.403  1.0098  1.2781  0.1141
  206MOL0     H28388  12.599   9.242   7.268 -2.4538  1.2808 -0.6597
  206MOL0     H28389  12.614   9.059   7.287 -0.6322 -0.9367  3.3066
  206MOL0     H28390  12.830   9.168   6.847  2.0241 -0.3865 -1.2918
  206MOL0     H28391  13.024   9.067   6.724 -1.7897  3.2927  1.3064
  206MOL0     H28392  13.248   8.768   6.975  1.4101 -2.3004  1.1876
  206MOL0     H28393  13.168   8.646   6.882  0.2310  0.3952  3.3833
  206MOL0     H28394  13.415   8.629   6.832  0.6736  0.1594 -0.2013
  206MOL0     H28395  13.338   8.700   6.691 -0.8222 -1.5658 -0.2122
  206MOL0     H28396  13.487   8.840   6.907  3.0902 -2.5571 -0.3168
  206MOL0     H28397  13.392   8.914   6.768 -0.9258 -1.5542 -1.7797
  206MOL0     H28398  13.537   8.780   6.619  3.3385 -0.7035 -0.8363
  206MOL0     H28399  13.629   8.725   6.757  2.0159  1.2524 -0.7601
  206MOL0     H28400  13.714   8.916   6.598  0.1151 -0.6314  0.1821
  206MOL0     H28401  13.599   9.018   6.688 -1.0200 -0.5780  0.0262
  206MOL0     H28402  13.786   8.847   6.847  2.8587  1.0375 -1.1511
  206MOL0     H28403  13.682   8.991   6.889 -0.9638  3.0042 -3.0856
  206MOL0     H28404  13.831   9.140   6.781 -2.0248 -0.7665  0.7828
  206MOL0     H28405  13.916   9.012   6.698 -2.1991 -1.8408 -0.0648
  206MOL0     H28406  13.933   9.097   6.996  0.0776 -0.7342  0.4475
  206MOL0     H28407  14.069   9.086   6.877  1.5592 -0.2990  2.5956
  206MOL0     H28408  12.993   8.736   7.001 -2.3647 -0.8027 -0.5394
  206MOL0     H28409  12.766   8.812   7.072 -1.3312  0.0168 -0.3856
  206MOL0     H28410  12.352   9.193   6.878 -0.6943  0.4113  0.0685
  206MOL0     H28411  12.127   9.165   6.967 -1.2946  0.6917 -0.0375
  206MOL0     H28412  11.156  10.413   6.417 -1.3539  0.5103  0.6326
  206MOL0     H28413  10.944  10.421   6.277  0.4609  0.2142  2.4876
  206MOL0     H28414  10.635  10.305   6.011  0.6206  0.8277  0.2880
  206MOL0     H28415  10.428  10.276   5.896  0.6339 -2.7789 -1.4797
  206MOL0     H28416  10.041  10.173   6.153  0.5485 -0.8255  0.0651
  206MOL0     H28417  10.058  10.341   6.129 -0.1030 -0.8781  0.9977
  206MOL0     H28418   9.980  10.177   5.886 -1.0672  0.4326 -0.5818
  206MOL0     H28419   9.917  10.335   5.929 -1.3761  0.4503  2.1034
  206MOL0     H28420   9.760  10.167   5.937  0.8511  1.2085 -0.1332
  206MOL0     H28421   9.842  10.082   6.071 -1.3306 -0.8719 -1.3914
  206MOL0     H28422   9.734  10.369   6.067  1.5166  0.3763  2.0540
  206MOL0     H28423   9.792  10.276   6.214 -0.4358 -2.2861  0.4986
  206MOL0     H28424   9.394  10.158   6.212 -2.3929  1.8903 -1.9537
  206MOL0     H28425  10.235  10.170   6.281 -1.1465 -0.1785 -1.7187
  206MOL0     H28426  10.348  10.151   6.478  0.3154 -1.4582 -0.5877
  206MOL0     H28427  10.509  10.100   6.446 -0.7954  0.2994  2.0606
  206MOL0     H28428  10.466  10.273   6.491 -0.9662  0.6611  0.5052
  207MOL0     O28429  10.129   7.599   4.903 -0.3467  0.1568 -0.8364
  207MOL0     C28430  10.050   7.592   4.993 -0.6814 -0.2076 -0.1005
  207MOL0     O28431  10.082   7.606   5.126  0.3490  0.0285 -0.2540
  207MOL0     C28432  10.203   7.555   5.181  1.0534 -0.5153  0.0334
  207MOL0     C28433  10.188   7.507   5.310  0.2965 -0.8135  0.7326
  207MOL0     C28434  10.298   7.460   5.382  0.4611  0.6907 -0.1227
  207MOL0     C28435  10.425   7.462   5.320 -0.1003  0.1433  0.7936
  207MOL0     O28436  10.545   7.437   5.389 -0.2509  0.0974  0.9083
  207MOL0     C28437  10.537   7.387   5.519  0.3562 -0.3769  0.3069
  207MOL0     C28438  10.671   7.348   5.571  1.3726 -0.1884  0.1270
  207MOL0     C28439  10.658   7.254   5.696  0.0888 -1.4528  0.1429
  207MOL0     C28440  10.786   7.250   5.779 -0.4128  0.6441 -0.3245
  207MOL0     C28441  10.889   7.150   5.717  0.3008 -0.1109  0.1129
  207MOL0     C28442  10.982   7.223   5.615 -0.2298  0.0565  0.2726
  207MOL0     C28443  11.083   7.133   5.527  0.5337 -0.3248 -1.2431
  207MOL0     C28444  11.026   6.993   5.481 -0.4176 -0.0051  1.1273
  207MOL0     N28445  11.133   6.934   5.391  0.1298 -0.4560 -0.5170
  207MOL0     C28446  11.216   7.007   5.306 -0.6797  0.5359  0.2382
  207MOL0     C28447  11.291   6.908   5.241  0.3714  0.4748  0.3078
  207MOL0     C28448  11.398   6.940   5.139  0.2077  0.2306 -0.6692
  207MOL0     C28449  11.512   7.022   5.205 -0.6892  0.8194 -0.3987
  207MOL0     C28450  11.598   6.945   5.308  0.1824  0.1857 -0.3053
  207MOL0     C28451  11.681   6.829   5.249 -0.2348 -0.3331 -0.5732
  207MOL0     O28452  11.767   6.881   5.144  0.4040 -0.2795  0.0477
  207MOL0     C28453  11.892   6.933   5.172  1.0815 -1.2087 -0.6521
  207MOL0     C28454  11.957   6.932   5.293  0.4824  0.8443  0.3008
  207MOL0     C28455  12.088   6.971   5.307  0.5791 -0.2103  1.0253
  207MOL0     C28456  12.144   6.969   5.446 -0.2692 -0.4015 -0.0868
  207MOL0     C28457  12.160   7.026   5.191  0.9503 -0.1586 -0.7420
  207MOL0     C28458  12.290   7.095   5.196 -1.0633 -0.1659 -0.5315
  207MOL0     O28459  12.353   7.121   5.314  0.0107 -0.4170  0.2542
  207MOL0     C28460  12.479   7.178   5.333 -0.6075  0.1915 -0.8296
  207MOL0     C28461  12.563   7.246   5.239 -0.2616 -0.8339  0.0604
  207MOL0     C28462  12.699   7.295   5.271  0.2460 -0.2801  0.0330
  207MOL0     C28463  12.742   7.280   5.400  0.7830  0.3090 -0.2968
  207MOL0     O28464  12.859   7.335   5.443  0.4446  0.5115 -0.0066
  207MOL0     C28465  12.853   7.437   5.553  0.4848  0.4991 -0.1266
  207MOL0     C28466  12.922   7.569   5.503  0.1975  0.6644 -0.2414
  207MOL0     C28467  13.071   7.557   5.515 -0.3524  0.0296 -0.0868
  207MOL0     C28468  13.132   7.673   5.426  0.2165  0.3393  0.2852
  207MOL0     C28469  13.280   7.686   5.473  0.6763 -0.1367 -0.0203
  207MOL0     C28470  13.335   7.825   5.442  0.1338 -1.1869  0.3736
  207MOL0     C28471  13.488   7.830   5.422  0.8277 -0.1778  0.1317
  207MOL0     C28472  13.527   7.975   5.390  0.4343  1.3143  0.0282
  207MOL0    Cl28473  13.702   7.979   5.382 -0.4395 -0.7147  0.4488
  207MOL0     C28474  12.662   7.212   5.488  0.0924  0.0598 -0.1352
  207MOL0     C28475  12.535   7.163   5.461 -0.9467  0.2185  0.8669
  207MOL0     O28476  12.337   7.128   5.088  0.0815 -0.0260  0.3047
  207MOL0     C28477  12.085   7.025   5.071  0.7612  0.3391  0.0403
  207MOL0     C28478  11.957   6.976   5.060  0.0945 -0.4056 -0.9061
  207MOL0     N28479  11.243   6.785   5.278  0.0497 -0.0721 -0.2936
  207MOL0     N28480  11.164   6.801   5.373  0.8829  0.0434  0.2704
  207MOL0     C28481  10.446   7.507   5.194 -0.2174 -0.3527 -0.1561
  207MOL0     C28482  10.331   7.559   5.124  0.1691 -0.1508  0.4586
  207MOL0     C28483   9.904   7.614   4.960  0.0104 -0.5778  1.2393
  207MOL0     C28484   9.813   7.665   5.048 -0.2382 -0.5028  0.4099
  207MOL0     C28485   9.682   7.694   5.012 -0.3497 -0.0711  0.8652
  207MOL0     C28486   9.642   7.694   4.876 -0.3020 -0.1208 -0.3761
  207MOL0     O28487   9.515   7.732   4.831  0.1207 -0.5910 -0.4387
  207MOL0     C28488   9.449   7.825   4.914 -0.2510 -0.4365 -0.0253
  207MOL0     C28489   9.334   7.899   4.842  0.3724  0.5259  0.4966
  207MOL0     C28490   9.220   7.805   4.812  0.4194 -0.0290  0.3889
  207MOL0     C28491   9.110   7.883   4.730  0.7867 -0.2430 -0.0222
  207MOL0     C28492   9.005   7.798   4.676  0.3403  0.1274 -0.5567
  207MOL0     C28493   8.943   7.711   4.621  0.4067  0.1422  0.1949
  207MOL0     C28494   9.728   7.628   4.787 -0.7846 -0.1884  0.6149
  207MOL0     C28495   9.860   7.589   4.822  0.4741  0.3147 -0.5709
  207MOL0     C28496   9.934   7.513   4.709  0.3343 -0.5244 -0.4913
  207MOL0     H28497  10.099   7.515   5.372  0.8632 -1.3180  1.6433
  207MOL0     H28498  10.292   7.439   5.488 -0.6997  0.6068 -0.1937
  207MOL0     H28499  10.476   7.296   5.512 -1.2574  0.7968 -2.0896
  207MOL0     H28500  10.496   7.464   5.585  2.0000  0.2159  0.6797
  207MOL0     H28501  10.721   7.299   5.486  1.8315 -0.6294  0.6418
  207MOL0     H28502  10.737   7.434   5.588  3.2271 -1.5963  0.2942
  207MOL0     H28503  10.575   7.288   5.760  2.1959  0.7657  1.8710
  207MOL0     H28504  10.627   7.152   5.669 -1.3589 -1.0199  0.0961
  207MOL0     H28505  10.834   7.346   5.799  2.7671 -0.0754 -3.4592
  207MOL0     H28506  10.766   7.197   5.873 -4.3364 -0.8287 -1.7804
  207MOL0     H28507  10.839   7.074   5.656  1.2017 -0.8722  0.3078
  207MOL0     H28508  10.949   7.095   5.790  0.9814 -1.3209 -1.3295
  207MOL0     H28509  10.923   7.278   5.542  0.9091 -0.0499 -0.7544
  207MOL0     H28510  11.044   7.299   5.663 -0.0396  0.2103 -0.2096
  207MOL0     H28511  11.171   7.122   5.591  2.1016  2.1719 -2.7870
  207MOL0     H28512  11.121   7.192   5.443 -1.9430  1.1862 -1.4071
  207MOL0     H28513  11.011   6.935   5.572  1.2747 -2.0119  0.2105
  207MOL0     H28514  10.937   6.999   5.417  0.2246  1.6848  0.3231
  207MOL0     H28515  11.233   7.112   5.289  3.8997 -0.6485 -5.8784
  207MOL0     H28516  11.349   7.002   5.064 -2.6657 -0.5027  0.4877
  207MOL0     H28517  11.436   6.855   5.080 -3.1547 -1.2281 -0.9300
  207MOL0     H28518  11.578   7.059   5.125  2.2138  0.0455  1.4900
  207MOL0     H28519  11.468   7.103   5.264  0.4602 -0.2415  2.0387
  207MOL0     H28520  11.660   7.007   5.374  1.1461 -0.1063 -0.9164
  207MOL0     H28521  11.529   6.896   5.377  0.7251 -1.0650 -0.6184
  207MOL0     H28522  11.743   6.783   5.326 -3.1628 -0.2369  2.0258
  207MOL0     H28523  11.615   6.745   5.228 -2.5061  0.6179  2.0860
  207MOL0     H28524  11.907   6.882   5.375 -1.2044 -0.3836 -1.3792
  207MOL0     H28525  12.166   7.068   5.488  0.5694 -1.2929  1.6815
  207MOL0     H28526  12.237   6.912   5.441 -1.2541 -2.6639  3.5653
  207MOL0     H28527  12.080   6.918   5.519  0.6535 -0.3303  0.7849
  207MOL0     H28528  12.536   7.279   5.139  0.9801  1.4399  0.4146
  207MOL0     H28529  12.744   7.356   5.194 -1.1345  1.7652  0.7558
  207MOL0     H28530  12.750   7.462   5.578  1.3661  1.6952  2.7654
  207MOL0     H28531  12.905   7.406   5.644  1.4639  1.0437 -0.4810
  207MOL0     H28532  12.917   7.589   5.396 -0.2401  0.6591 -0.2227
  207MOL0     H28533  12.877   7.651   5.559 -0.8977  0.4940 -0.8472
  207MOL0     H28534  13.115   7.465   5.475  2.0703  0.1996  1.9667
  207MOL0     H28535  13.089   7.564   5.622 -2.3040  2.9448  0.1713
  207MOL0     H28536  13.083   7.770   5.434  0.3011  0.2837  1.6597
  207MOL0     H28537  13.123   7.653   5.318 -0.5960 -0.6480  0.5213
  207MOL0     H28538  13.300   7.673   5.579 -0.7345  2.8988  0.7294
  207MOL0     H28539  13.336   7.606   5.423  1.8136  0.3711  0.3949
  207MOL0     H28540  13.305   7.892   5.522  0.1783 -1.9332  1.0243
  207MOL0     H28541  13.289   7.863   5.350  2.5743  0.2343 -0.3593
  207MOL0     H28542  13.528   7.757   5.350 -0.4822 -1.3711  0.5706
  207MOL0     H28543  13.533   7.808   5.519 -2.5064  0.6449  1.9997
  207MOL0     H28544  13.489   8.046   5.464 -0.8711  2.3213 -1.5304
  207MOL0     H28545  13.477   7.993   5.295 -3.5574 -0.4379  1.5696
  207MOL0     H28546  12.681   7.210   5.595 -3.3027  0.7699  0.6240
  207MOL0     H28547  12.484   7.114   5.543  0.2741  3.1443  3.5782
  207MOL0     H28548  12.128   7.070   4.982 -1.4040  0.5781 -0.9522
  207MOL0     H28549  11.912   6.955   4.963  1.7869 -1.7417 -1.4587
  207MOL0     H28550  10.546   7.496   5.154 -0.4534 -0.9178 -0.6195
  207MOL0     H28551  10.339   7.580   5.018 -0.8794 -3.2682 -0.3461
  207MOL0     H28552   9.842   7.696   5.148  0.1991 -0.2802  0.2194
  207MOL0     H28553   9.615   7.726   5.091 -0.5446  2.6496 -0.2702
  207MOL0     H28554   9.411   7.769   5.000  1.7672  0.7726  1.7596
  207MOL0     H28555   9.518   7.902   4.949  1.8640 -2.3330  0.2324
  207MOL0     H28556   9.376   7.942   4.751  0.6069  1.8648  1.2095
  207MOL0     H28557   9.312   7.988   4.901 -1.3340 -0.1513  0.9196
  207MOL0     H28558   9.277   7.729   4.757  0.3985 -0.1959  0.5955
  207MOL0     H28559   9.171   7.767   4.903 -0.6322 -0.5478 -0.3754
  207MOL0     H28560   9.147   7.935   4.641 -1.4801  2.5962  0.5376
  207MOL0     H28561   9.077   7.971   4.786 -2.0639 -0.3582 -1.3148
  207MOL0     H28562   8.897   7.626   4.574  2.5438  0.4932 -2.7806
  207MOL0     H28563   9.699   7.605   4.685 -1.4351 -2.3212  1.2216
  207MOL0     H28564   9.865   7.497   4.626  0.1906  1.2401 -0.7410
  207MOL0     H28565  10.018   7.571   4.671 -0.2663  2.7050  2.5712
  207MOL0     H28566   9.964   7.420   4.758 -0.6251  0.4784  2.2414
  208MOL0     O28567   1.003   8.447   8.553 -0.3565 -0.8579 -0.0333
  208MOL0     C28568   1.037   8.516   8.645 -0.2767 -0.1081  0.1127
  208MOL0     O28569   0.948   8.591   8.719  0.5517 -0.8010 -0.6499
  208MOL0     C28570   0.819   8.594   8.687 -0.1398  0.1053  0.0655
  208MOL0     C28571   0.731   8.537   8.778 -0.4832 -0.2268 -0.0097
  208MOL0     C28572   0.592   8.541   8.754  0.0595  0.2364 -0.7709
  208MOL0     C28573   0.544   8.600   8.633  0.6245 -0.4847  0.0343
  208MOL0     O28574   0.414   8.570   8.592  0.5510  0.7394  0.5937
  208MOL0     C28575   0.318   8.636   8.679 -1.2979  0.0713  0.7729
  208MOL0     C28576   0.175   8.599   8.648 -0.1782 -0.5310  0.6516
  208MOL0     C28577   0.141   8.628   8.501  0.0669 -0.0027 -0.2211
  208MOL0     C28578   0.021   8.715   8.488  0.2076 -0.1084  0.2077
  208MOL0     C28579  -0.116   8.655   8.489 -0.5568  0.8635  0.5405
  208MOL0     C28580  -0.138   8.556   8.603  0.0601 -0.0265 -0.2458
  208MOL0     C28581  -0.287   8.536   8.628  0.1262  1.6255 -0.3182
  208MOL0     C28582  -0.357   8.641   8.717 -0.1054 -0.1784  0.4764
  208MOL0     N28583  -0.315   8.650   8.853 -0.5371 -1.0306  0.6545
  208MOL0     C28584  -0.199   8.715   8.895 -0.3757 -0.9904 -1.1161
  208MOL0     C28585  -0.184   8.674   9.022  0.0444  0.3809  0.7118
  208MOL0     C28586  -0.070   8.692   9.111  0.4249  0.1940 -0.1844
  208MOL0     C28587   0.074   8.686   9.058  0.0138 -0.1227  1.1954
  208MOL0     C28588   0.175   8.752   9.152  0.0038  0.0525 -0.3782
  208MOL0     C28589   0.321   8.749   9.100  0.0025  0.5956  0.1369
  208MOL0     O28590   0.358   8.864   9.018  0.2957  0.6104  0.0563
  208MOL0     C28591   0.491   8.904   9.021 -1.0726  0.5178 -0.3703
  208MOL0     C28592   0.520   9.035   9.023 -0.3315  0.3334  0.1421
  208MOL0     C28593   0.652   9.083   9.020  0.9170  0.4717  0.3484
  208MOL0     C28594   0.674   9.230   9.025 -0.1050 -0.0965  0.0979
  208MOL0     C28595   0.753   8.987   9.008  0.1260 -0.2412 -0.0401
  208MOL0     C28596   0.900   9.034   8.985  0.0370 -0.6977  0.3027
  208MOL0     O28597   0.991   8.985   9.060 -0.0218 -0.1364 -0.2953
  208MOL0     C28598   1.114   8.988   9.024  0.3186 -0.4443 -0.2076
  208MOL0     C28599   1.154   8.943   8.902 -0.7134  0.5076 -0.4934
  208MOL0     C28600   1.290   8.949   8.870  0.5234 -0.8645 -0.1638
  208MOL0     C28601   1.379   9.014   8.952 -0.9968 -1.3416  0.7469
  208MOL0     O28602   1.504   9.031   8.897  0.0164  0.2742  0.7946
  208MOL0     C28603   1.623   9.060   8.970 -0.4576 -1.0952 -0.1226
  208MOL0     C28604   1.661   8.935   9.052 -0.2775  0.5550 -0.6786
  208MOL0     C28605   1.784   8.956   9.141  0.5775  0.9543 -0.5205
  208MOL0     C28606   1.825   8.824   9.200 -0.3975  0.4079 -0.0985
  208MOL0     C28607   1.946   8.847   9.286 -0.2357  0.2665  0.0082
  208MOL0     C28608   1.992   8.737   9.383  0.8676  0.3653  0.2908
  208MOL0     C28609   2.111   8.787   9.461 -0.7108 -0.3550  0.0165
  208MOL0     C28610   2.160   8.671   9.551 -0.1269  0.4349  0.0552
  208MOL0    Cl28611   2.297   8.728   9.655 -0.1793 -0.4758  0.0317
  208MOL0     C28612   1.335   9.074   9.072  0.3062 -0.1022 -0.6343
  208MOL0     C28613   1.202   9.057   9.110  0.5243  0.2694  0.3879
  208MOL0     O28614   0.909   9.127   8.909 -0.5295 -0.7856  0.3069
  208MOL0     C28615   0.726   8.848   9.010 -0.4507 -0.1489 -0.5610
  208MOL0     C28616   0.595   8.804   9.024 -0.3941 -1.0511  0.9319
  208MOL0     N28617  -0.299   8.604   9.057  0.0469  0.0394 -0.2139
  208MOL0     N28618  -0.372   8.592   8.952 -0.0178  0.1055  0.0873
  208MOL0     C28619   0.634   8.652   8.537 -0.5756  0.3526 -0.2351
  208MOL0     C28620   0.775   8.655   8.570  0.3523 -0.4676 -0.4417
  208MOL0     C28621   1.183   8.529   8.681  0.1119 -0.7007  0.9446
  208MOL0     C28622   1.208   8.601   8.802 -0.7729  0.7655  0.0117
  208MOL0     C28623   1.344   8.619   8.844  0.4568  0.3080 -0.4928
  208MOL0     C28624   1.450   8.573   8.768  0.1052 -1.1981 -0.8558
  208MOL0     O28625   1.576   8.611   8.806 -0.3672 -0.0653  0.0340
  208MOL0     C28626   1.665   8.498   8.822 -0.2231 -0.4275 -0.1439
  208MOL0     C28627   1.757   8.524   8.940  0.6878  0.6422 -0.0384
  208MOL0     C28628   1.836   8.397   8.962 -0.1921 -0.3961  0.3166
  208MOL0     C28629   1.928   8.401   9.087  0.3312  0.4613 -0.0998
  208MOL0     C28630   2.037   8.505   9.071 -0.9703 -0.4193 -0.0488
  208MOL0     C28631   2.118   8.599   9.077 -0.3486  0.7815  0.7552
  208MOL0     C28632   1.426   8.499   8.652 -0.0010 -0.0765 -0.3102
  208MOL0     C28633   1.292   8.476   8.606 -0.6665  1.0478  0.3091
  208MOL0     C28634   1.286   8.406   8.479 -0.1053  0.4197  0.9911
  208MOL0     H28635   0.778   8.491   8.864  1.7454 -0.4126 -1.2568
  208MOL0     H28636   0.518   8.490   8.814 -2.6872  2.9321 -1.5779
  208MOL0     H28637   0.340   8.742   8.664  0.2102 -0.3518 -0.2349
  208MOL0     H28638   0.330   8.628   8.788  0.5943  1.1361  0.6834
  208MOL0     H28639   0.160   8.493   8.672 -0.5688 -0.3488  1.2549
  208MOL0     H28640   0.106   8.661   8.707  0.6120  0.7468  0.2662
  208MOL0     H28641   0.215   8.685   8.445 -1.3574  1.2339 -0.9297
  208MOL0     H28642   0.117   8.540   8.441  0.8958 -1.5259  1.5830
  208MOL0     H28643   0.028   8.801   8.555 -0.1379  0.6483 -0.6966
  208MOL0     H28644   0.027   8.775   8.397 -0.2175  2.5705  1.8254
  208MOL0     H28645  -0.117   8.612   8.389  1.6208  0.4408  0.6453
  208MOL0     H28646  -0.192   8.733   8.498 -0.9969  0.8974 -2.4808
  208MOL0     H28647  -0.082   8.464   8.584  0.2855 -0.1924  1.1040
  208MOL0     H28648  -0.097   8.588   8.700  1.0312 -0.6581 -0.4318
  208MOL0     H28649  -0.298   8.441   8.681  1.0713  1.5881 -0.1606
  208MOL0     H28650  -0.343   8.529   8.534 -1.2257 -3.1393  0.5512
  208MOL0     H28651  -0.340   8.740   8.674  1.3447  0.0670  1.5321
  208MOL0     H28652  -0.465   8.623   8.715 -0.3224  1.0236 -1.5965
  208MOL0     H28653  -0.133   8.776   8.833  0.7543 -0.6700  0.3600
  208MOL0     H28654  -0.079   8.628   9.199 -0.0598  1.3250  0.6164
  208MOL0     H28655  -0.083   8.799   9.132  0.9139  0.3855 -0.8324
  208MOL0     H28656   0.111   8.584   9.042 -1.0162 -0.2962 -0.2851
  208MOL0     H28657   0.075   8.728   8.957  1.5320  0.2622  1.3533
  208MOL0     H28658   0.157   8.858   9.169 -2.1096 -0.0149 -1.7927
  208MOL0     H28659   0.166   8.689   9.241 -0.8779  0.0035 -0.4959
  208MOL0     H28660   0.396   8.743   9.180  2.2275 -1.2087 -1.9543
  208MOL0     H28661   0.338   8.657   9.044 -3.1441 -0.9879  1.4996
  208MOL0     H28662   0.447   9.115   9.030 -0.5641  0.0709  0.7616
  208MOL0     H28663   0.763   9.254   9.084  2.0415 -0.8444 -2.6241
  208MOL0     H28664   0.603   9.281   9.090  1.0350  0.6397  0.8096
  208MOL0     H28665   0.688   9.272   8.925 -0.1508  0.7594  0.4451
  208MOL0     H28666   1.086   8.894   8.834  0.5290 -0.8553 -0.8133
  208MOL0     H28667   1.316   8.921   8.768  1.4139 -1.0011  0.0927
  208MOL0     H28668   1.701   9.099   8.903 -2.2311 -0.3165 -1.8508
  208MOL0     H28669   1.610   9.148   9.034  1.2846 -0.8805  0.0029
  208MOL0     H28670   1.571   8.907   9.108  1.1588 -3.6723 -0.0823
  208MOL0     H28671   1.679   8.857   8.977  2.6219 -0.8849  1.3190
  208MOL0     H28672   1.754   9.017   9.226  0.8976  0.8784 -0.3488
  208MOL0     H28673   1.869   9.011   9.099  1.9241  0.9598  2.0208
  208MOL0     H28674   1.854   8.746   9.129 -1.1145  0.6831 -0.7122
  208MOL0     H28675   1.749   8.781   9.267 -0.8324  2.6195  0.9208
  208MOL0     H28676   2.027   8.864   9.214 -0.1990 -1.1200 -0.2996
  208MOL0     H28677   1.919   8.939   9.339 -2.8439 -1.5515  2.1175
  208MOL0     H28678   2.009   8.654   9.312 -0.4930  1.3918 -1.3100
  208MOL0     H28679   1.919   8.702   9.457  1.8074 -1.8350  0.2582
  208MOL0     H28680   2.086   8.880   9.514  0.5887 -0.8197  1.5443
  208MOL0     H28681   2.188   8.797   9.384 -3.0670  0.3441 -2.4087
  208MOL0     H28682   2.190   8.585   9.490 -1.2741  0.0415  0.0264
  208MOL0     H28683   2.080   8.637   9.618 -0.2741  2.7860  1.1469
  208MOL0     H28684   1.399   9.139   9.131  0.4029  0.8586 -1.7531
  208MOL0     H28685   1.174   9.089   9.210 -4.2834 -1.4764 -0.1354
  208MOL0     H28686   0.809   8.780   9.017  0.7358  1.4046  2.0452
  208MOL0     H28687   0.579   8.698   9.008 -1.7120 -1.0264  1.9818
  208MOL0     H28688   0.592   8.697   8.448 -3.5991  0.1423  0.9616
  208MOL0     H28689   0.846   8.705   8.504 -0.7536  1.5164 -0.2231
  208MOL0     H28690   1.123   8.647   8.852 -2.9499 -0.6273 -2.1562
  208MOL0     H28691   1.372   8.680   8.929  4.4235 -1.8650  0.0479
  208MOL0     H28692   1.614   8.402   8.831  0.0376 -0.4211  1.9179
  208MOL0     H28693   1.726   8.482   8.733 -0.0766 -0.6059 -0.0107
  208MOL0     H28694   1.700   8.531   9.034 -0.6313 -1.5362 -0.6068
  208MOL0     H28695   1.821   8.611   8.927 -2.0815  2.6247 -1.4701
  208MOL0     H28696   1.763   8.317   8.977 -2.0272  0.6476 -2.2908
  208MOL0     H28697   1.896   8.369   8.875 -0.5361  3.7995 -1.5364
  208MOL0     H28698   1.958   8.299   9.113  0.7037  0.5181 -0.2947
  208MOL0     H28699   1.867   8.436   9.171  3.1317 -0.4979  2.5255
  208MOL0     H28700   2.175   8.690   9.081 -3.4359  3.0562 -1.4479
  208MOL0     H28701   1.502   8.460   8.585  0.5556 -0.7078  0.6607
  208MOL0     H28702   1.384   8.378   8.439 -0.0731  0.6577  0.9025
  208MOL0     H28703   1.231   8.313   8.490  2.2056 -0.8231  3.0878
  208MOL0     H28704   1.243   8.475   8.406 -1.8915  2.2597  3.5932
  209MOL0     O28705   7.644   6.370   1.000 -0.3015  0.6914  0.0972
  209MOL0     C28706   7.761   6.348   0.965 -0.3353  0.9290  0.5477
  209MOL0     O28707   7.794   6.295   0.840 -0.1834 -0.1475  0.0287
  209MOL0     C28708   7.708   6.300   0.732  0.5748 -0.6841  0.3265
  209MOL0     C28709   7.738   6.377   0.620 -0.0900  0.0126 -0.2218
  209MOL0     C28710   7.644   6.383   0.518 -0.4968 -0.0174 -0.2210
  209MOL0     C28711   7.517   6.327   0.522  0.1597 -0.0043 -0.7715
  209MOL0     O28712   7.424   6.349   0.425  0.2536  0.6917  0.3803
  209MOL0     C28713   7.468   6.397   0.292  0.0384 -0.3511  0.2420
  209MOL0     C28714   7.360   6.403   0.187  1.0438 -0.4595  0.0868
  209MOL0     C28715   7.407   6.453   0.048  0.8310 -0.5398  0.5075
  209MOL0     C28716   7.438   6.603   0.043  0.5930 -0.8381 -0.0246
  209MOL0     C28717   7.486   6.654  -0.089 -0.2457 -0.1716  1.3373
  209MOL0     C28718   7.628   6.603  -0.138  0.5751 -0.3418 -0.2339
  209MOL0     C28719   7.668   6.688  -0.260  0.2153 -0.0187 -0.3736
  209MOL0     C28720   7.795   6.626  -0.330  0.2302 -0.0241  0.7508
  209MOL0     N28721   7.899   6.568  -0.242 -0.8875  0.2204  0.1648
  209MOL0     C28722   7.932   6.430  -0.226  0.5541  0.1049  0.2603
  209MOL0     C28723   8.024   6.434  -0.129 -0.4180 -0.0984  0.5611
  209MOL0     C28724   8.086   6.315  -0.066  0.4931  0.6697  0.1384
  209MOL0     C28725   8.219   6.296  -0.135  0.9901 -0.9624 -0.0503
  209MOL0     C28726   8.326   6.376  -0.063 -0.7081 -0.8813 -0.9458
  209MOL0     C28727   8.476   6.340  -0.098  0.6190  0.2950 -0.4567
  209MOL0     O28728   8.559   6.412  -0.005  1.0095 -0.4246 -0.8027
  209MOL0     C28729   8.689   6.380  -0.005 -0.3337  0.2010 -0.1176
  209MOL0     C28730   8.768   6.393   0.112 -0.5380 -0.4110  0.7530
  209MOL0     C28731   8.908   6.355   0.117 -0.2612  0.4278  0.4128
  209MOL0     C28732   8.973   6.395   0.242 -0.1562 -0.4829  0.6763
  209MOL0     C28733   8.975   6.308  -0.001  0.2529 -0.4231 -0.1586
  209MOL0     C28734   9.129   6.296  -0.008 -0.3345  0.8436  0.3401
  209MOL0     O28735   9.204   6.352   0.092  1.3834 -0.0889  0.2085
  209MOL0     C28736   9.336   6.335   0.110  0.5724  0.0727  0.6458
  209MOL0     C28737   9.400   6.450   0.164 -0.9272 -0.1085  0.1429
  209MOL0     C28738   9.544   6.445   0.174 -0.3334  0.6795 -0.2806
  209MOL0     C28739   9.611   6.330   0.148  0.1821  0.3761 -0.1938
  209MOL0     O28740   9.745   6.338   0.162  0.0314  0.2356  0.0663
  209MOL0     C28741   9.794   6.281   0.275  0.5905 -0.4913 -0.9927
  209MOL0     C28742   9.803   6.369   0.399  0.8213 -0.1453 -0.1667
  209MOL0     C28743   9.802   6.282   0.526  0.0476 -0.0650 -0.7459
  209MOL0     C28744   9.938   6.303   0.604 -0.1563  0.1714  0.3044
  209MOL0     C28745   9.945   6.187   0.713 -0.0359  0.6619  0.6002
  209MOL0     C28746  10.063   6.199   0.805 -1.0290 -0.2038 -0.4795
  209MOL0     C28747  10.073   6.076   0.893  0.4450 -0.1740 -0.0035
  209MOL0     C28748  10.171   6.105   1.013  0.5048  0.1321  0.3190
  209MOL0    Cl28749  10.096   6.219   1.125 -0.6015  0.1062 -0.1116
  209MOL0     C28750   9.553   6.220   0.089  0.0405 -0.4267 -0.5521
  209MOL0     C28751   9.415   6.226   0.072 -0.9774  0.0227  0.4017
  209MOL0     O28752   9.181   6.236  -0.106 -0.0889 -0.0209 -0.0737
  209MOL0     C28753   8.888   6.294  -0.109 -0.7802 -1.0031  0.3417
  209MOL0     C28754   8.755   6.332  -0.116  0.5497  0.1502 -0.2819
  209MOL0     N28755   8.051   6.561  -0.090 -0.1501 -0.3659  0.1674
  209MOL0     N28756   7.980   6.641  -0.156  0.1180  0.5930 -0.5715
  209MOL0     C28757   7.491   6.239   0.626  0.1546  0.5476 -0.8947
  209MOL0     C28758   7.586   6.228   0.730  0.2818  0.5133 -0.0331
  209MOL0     C28759   7.875   6.368   1.059 -0.6006 -0.8126  0.5384
  209MOL0     C28760   8.005   6.348   1.004 -0.2186  1.4043 -0.5552
  209MOL0     C28761   8.121   6.352   1.089  0.5186 -0.0553 -0.4643
  209MOL0     C28762   8.111   6.390   1.228 -0.0505  0.1691 -0.0976
  209MOL0     O28763   8.214   6.402   1.314 -0.1002 -0.0622 -0.2362
  209MOL0     C28764   8.348   6.415   1.262 -0.1382  0.0376 -0.8823
  209MOL0     C28765   8.453   6.397   1.378 -0.2631  0.6004  0.0348
  209MOL0     C28766   8.491   6.250   1.387 -0.5165 -0.4775  0.5398
  209MOL0     C28767   8.612   6.227   1.476 -0.2231 -0.7968 -0.3572
  209MOL0     C28768   8.728   6.184   1.398 -0.0267 -1.1516 -0.0067
  209MOL0     C28769   8.832   6.168   1.338 -0.7603  0.4056  0.6239
  209MOL0     C28770   7.980   6.407   1.279  0.4693  0.4739  0.1108
  209MOL0     C28771   7.867   6.395   1.201 -0.4195 -0.0307 -0.3060
  209MOL0     C28772   7.743   6.422   1.278 -0.5980 -0.0939  0.1958
  209MOL0     H28773   7.838   6.418   0.630  1.5264 -3.7884  1.1055
  209MOL0     H28774   7.673   6.439   0.429  0.4846  1.0363  0.7351
  209MOL0     H28775   7.539   6.327   0.248 -0.4513  0.2508 -1.5640
  209MOL0     H28776   7.506   6.499   0.302 -0.9880  0.6229 -4.0136
  209MOL0     H28777   7.329   6.300   0.165  0.6403  0.1247 -2.3093
  209MOL0     H28778   7.277   6.467   0.220  0.3989 -1.1857 -0.0887
  209MOL0     H28779   7.498   6.398   0.024  0.3633 -0.9055 -0.4956
  209MOL0     H28780   7.333   6.425  -0.028 -1.3668  2.6699  1.2179
  209MOL0     H28781   7.352   6.666   0.064  2.4367  1.5272  0.7536
  209MOL0     H28782   7.517   6.638   0.110  0.2406  0.5208 -0.2919
  209MOL0     H28783   7.499   6.762  -0.079 -3.6420  0.2169  2.6672
  209MOL0     H28784   7.417   6.633  -0.172  1.3089 -0.4307  0.0496
  209MOL0     H28785   7.692   6.641  -0.058 -1.0570  1.8426  0.1226
  209MOL0     H28786   7.620   6.497  -0.164  2.5773  0.0327 -2.7238
  209MOL0     H28787   7.688   6.784  -0.212 -0.3263 -0.6919  1.2815
  209MOL0     H28788   7.584   6.686  -0.330 -0.5274  0.0355  0.4938
  209MOL0     H28789   7.777   6.539  -0.394  1.5702 -2.2105  3.1587
  209MOL0     H28790   7.854   6.697  -0.390 -0.7395  0.9710  0.9283
  209MOL0     H28791   7.899   6.337  -0.271  0.6702 -0.2248  0.8507
  209MOL0     H28792   8.014   6.236  -0.087 -2.0891  2.6746  0.9437
  209MOL0     H28793   8.098   6.331   0.042  2.1607 -0.7057  0.2099
  209MOL0     H28794   8.252   6.192  -0.133  1.5831 -0.8080 -1.0068
  209MOL0     H28795   8.213   6.330  -0.239  1.3499 -1.8908 -0.3815
  209MOL0     H28796   8.313   6.483  -0.082  1.8254 -0.1626  0.7238
  209MOL0     H28797   8.318   6.372   0.046 -1.0377  0.5145 -0.9073
  209MOL0     H28798   8.477   6.230  -0.100  0.6054  0.2961 -0.5178
  209MOL0     H28799   8.497   6.371  -0.201  0.4327 -1.1635 -0.9661
  209MOL0     H28800   8.707   6.423   0.196 -3.1414  3.1386 -2.0678
  209MOL0     H28801   9.022   6.310   0.291  1.5513  0.2342  0.2732
  209MOL0     H28802   8.895   6.432   0.309 -0.5172 -1.1969  0.6590
  209MOL0     H28803   9.043   6.478   0.231 -0.9782  0.1307 -0.0006
  209MOL0     H28804   9.344   6.535   0.201 -1.3596 -0.0432 -0.6395
  209MOL0     H28805   9.592   6.532   0.217  1.2744 -0.2947 -0.0398
  209MOL0     H28806   9.752   6.184   0.301 -0.2785  0.0985 -0.1248
  209MOL0     H28807   9.900   6.271   0.249  1.3507  3.0954  0.1795
  209MOL0     H28808   9.887   6.439   0.397 -0.1719  1.1043  0.2101
  209MOL0     H28809   9.706   6.421   0.402  0.7874 -0.1849 -0.5607
  209MOL0     H28810   9.781   6.176   0.505  0.7177 -0.0566 -1.5223
  209MOL0     H28811   9.729   6.303   0.605  2.9431 -1.4944  2.5676
  209MOL0     H28812   9.919   6.390   0.668 -0.5144 -2.3930  3.9808
  209MOL0     H28813  10.024   6.315   0.538  0.6442 -1.0238  1.1017
  209MOL0     H28814   9.855   6.190   0.775  0.6590 -1.6585  1.8375
  209MOL0     H28815   9.942   6.093   0.659  1.5518 -0.8530  2.9389
  209MOL0     H28816  10.039   6.285   0.867  1.8255  1.2064 -1.1519
  209MOL0     H28817  10.158   6.218   0.753 -0.5076 -0.7324  0.2625
  209MOL0     H28818  10.090   5.981   0.842 -1.7607 -1.4495  1.4413
  209MOL0     H28819   9.973   6.060   0.935  0.2233 -0.6295 -0.6880
  209MOL0     H28820  10.270   6.132   0.977 -0.6935  0.8002 -2.8085
  209MOL0     H28821  10.177   6.012   1.070 -1.1567 -0.6693 -0.7039
  209MOL0     H28822   9.616   6.135   0.067 -0.1605 -0.7125 -0.0192
  209MOL0     H28823   9.374   6.136   0.028  1.0219 -0.6164 -0.2950
  209MOL0     H28824   8.938   6.258  -0.198  2.4364 -0.4225  1.7713
  209MOL0     H28825   8.696   6.327  -0.207 -1.8892 -1.3768  1.2395
  209MOL0     H28826   7.394   6.191   0.640 -0.1575  1.2382 -0.6194
  209MOL0     H28827   7.560   6.173   0.820  0.1903  0.4380 -0.1063
  209MOL0     H28828   8.011   6.317   0.900 -1.2560  0.0797 -0.2450
  209MOL0     H28829   8.219   6.330   1.046 -0.2519 -4.8977 -0.3341
  209MOL0     H28830   8.373   6.336   1.192  1.6350 -0.9012  0.7016
  209MOL0     H28831   8.349   6.510   1.207 -1.3043  0.8469  0.4015
  209MOL0     H28832   8.410   6.426   1.474 -0.7850 -0.8611  0.2726
  209MOL0     H28833   8.527   6.477   1.364 -0.7837  1.7348  2.9484
  209MOL0     H28834   8.415   6.182   1.425  0.6164 -2.5219 -0.6486
  209MOL0     H28835   8.511   6.220   1.284  0.1676 -0.1857  0.5837
  209MOL0     H28836   8.594   6.151   1.552  0.0494  0.1638  0.7078
  209MOL0     H28837   8.635   6.315   1.538  3.2402 -1.2897 -0.7388
  209MOL0     H28838   8.915   6.164   1.271 -1.4005 -0.9229 -0.1265
  209MOL0     H28839   7.967   6.429   1.385  2.7714  1.0908  0.3163
  209MOL0     H28840   7.655   6.364   1.247  0.3200 -2.0305  1.0562
  209MOL0     H28841   7.747   6.403   1.386  1.7095 -1.4962 -0.0767
  209MOL0     H28842   7.719   6.528   1.262  1.1372  0.0059 -2.4116
  210MOL0     O28843   0.158  10.455   5.486  0.0418  0.2932  0.6139
  210MOL0     C28844   0.072  10.542   5.499 -0.0267  0.5879  0.8416
  210MOL0     O28845   0.086  10.660   5.574 -0.0450  0.3291  1.1007
  210MOL0     C28846   0.194  10.686   5.648  0.4640 -0.1565  0.8846
  210MOL0     C28847   0.243  10.597   5.739 -0.2932 -0.0375 -0.3770
  210MOL0     C28848   0.354  10.622   5.817 -0.6667 -0.5291 -0.2089
  210MOL0     C28849   0.421  10.751   5.811  0.0800  0.0957 -0.2023
  210MOL0     O28850   0.533  10.788   5.881 -0.0087  0.1832  0.4558
  210MOL0     C28851   0.585  10.716   5.983 -0.0574  0.0339 -0.6405
  210MOL0     C28852   0.732  10.748   6.011 -0.4678 -0.2239  0.4033
  210MOL0     C28853   0.803  10.666   6.117 -0.0637 -0.0714 -0.0835
  210MOL0     C28854   0.946  10.717   6.155 -0.4494  0.2246  0.3713
  210MOL0     C28855   1.020  10.618   6.245  0.8943  0.4462  0.6665
  210MOL0     C28856   1.150  10.681   6.296 -0.8822  0.3060 -0.2829
  210MOL0     C28857   1.234  10.574   6.368  0.1097 -0.5050 -1.5289
  210MOL0     C28858   1.307  10.491   6.270  0.6297  0.1942 -0.6465
  210MOL0     N28859   1.401  10.400   6.325 -0.2340 -0.1543 -0.6667
  210MOL0     C28860   1.358  10.288   6.395  0.5372 -0.5486  0.3530
  210MOL0     C28861   1.471  10.221   6.434 -0.0332  0.2542  0.5079
  210MOL0     C28862   1.474  10.087   6.500  0.5084 -0.1596 -0.4352
  210MOL0     C28863   1.597  10.040   6.574 -0.6474  1.4762  0.4683
  210MOL0     C28864   1.591   9.888   6.592 -0.0564 -0.2081 -1.0760
  210MOL0     C28865   1.700   9.832   6.686  0.5221 -0.1084 -0.0957
  210MOL0     O28866   1.826   9.871   6.627 -0.2421 -0.8091 -0.3848
  210MOL0     C28867   1.944   9.857   6.701  0.1119 -0.0955 -0.5826
  210MOL0     C28868   1.972   9.751   6.794  0.4706 -1.1277  0.4482
  210MOL0     C28869   2.099   9.745   6.866  1.4616 -0.1234 -0.1684
  210MOL0     C28870   2.124   9.632   6.962 -0.9156  0.4975  0.2424
  210MOL0     C28871   2.183   9.859   6.851  0.7239 -0.1721  0.1305
  210MOL0     C28872   2.316   9.873   6.922 -0.7504  0.3153  0.1500
  210MOL0     O28873   2.323   9.813   7.049  0.5764 -0.0744 -0.1386
  210MOL0     C28874   2.431   9.829   7.125  0.7016 -0.7472  0.5235
  210MOL0     C28875   2.503   9.948   7.146 -0.4277  0.1138 -0.2416
  210MOL0     C28876   2.625   9.940   7.215 -0.2039  0.4970 -0.1083
  210MOL0     C28877   2.650   9.813   7.281 -0.2266  0.4672 -0.4728
  210MOL0     O28878   2.743   9.805   7.380 -0.3274  0.4152 -0.5067
  210MOL0     C28879   2.824   9.919   7.410 -0.4199  0.0307  0.4146
  210MOL0     C28880   2.900   9.885   7.533 -0.4852 -1.3015 -0.0636
  210MOL0     C28881   3.017   9.972   7.565  1.0788 -0.0388 -0.4791
  210MOL0     C28882   3.114   9.912   7.662 -0.1248  0.1254 -0.2672
  210MOL0     C28883   3.241   9.986   7.681 -1.0705  0.3596  0.1251
  210MOL0     C28884   3.312  10.003   7.544  0.4463  0.3983 -0.8482
  210MOL0     C28885   3.463  10.027   7.544 -0.5425  0.0039 -0.6958
  210MOL0     C28886   3.504  10.156   7.613  0.0078 -0.6222 -0.1008
  210MOL0    Cl28887   3.531  10.293   7.486  0.4249  0.1150 -0.4006
  210MOL0     C28888   2.575   9.699   7.259  0.0433  0.4032 -1.1985
  210MOL0     C28889   2.467   9.708   7.187  0.2804  0.5730  0.2992
  210MOL0     O28890   2.397   9.956   6.876 -0.4186 -0.2474  0.2182
  210MOL0     C28891   2.154   9.961   6.764 -0.8820  0.4799  0.4694
  210MOL0     C28892   2.042   9.953   6.681 -0.0453  0.5308  0.1194
  210MOL0     N28893   1.580  10.291   6.382  0.1814 -0.0257  0.2015
  210MOL0     N28894   1.538  10.400   6.339 -0.2329 -1.1320 -0.1008
  210MOL0     C28895   0.370  10.839   5.707 -0.4509  1.1488 -0.2970
  210MOL0     C28896   0.261  10.804   5.627 -0.3479  0.1113  0.2402
  210MOL0     C28897  -0.064  10.530   5.436  0.2184  0.1898  0.6136
  210MOL0     C28898  -0.153  10.641   5.439 -0.4887 -0.3019  0.4753
  210MOL0     C28899  -0.283  10.635   5.390  0.0871 -0.1952 -0.8833
  210MOL0     C28900  -0.326  10.521   5.316 -0.0481  0.1739  0.9579
  210MOL0     O28901  -0.456  10.509   5.276  0.9279 -0.0924  0.1307
  210MOL0     C28902  -0.557  10.523   5.382  0.5681 -0.4570  0.7269
  210MOL0     C28903  -0.614  10.667   5.374 -0.1530  0.2273  0.1142
  210MOL0     C28904  -0.729  10.674   5.471 -0.6570  0.3329  0.3998
  210MOL0     C28905  -0.815  10.797   5.460 -1.5558  0.2265 -0.1313
  210MOL0     C28906  -0.886  10.805   5.334  0.1277 -0.3528  0.0389
  210MOL0     C28907  -0.959  10.808   5.237 -0.6552 -0.7487  0.5072
  210MOL0     C28908  -0.239  10.411   5.312  0.6629  0.0344 -0.3208
  210MOL0     C28909  -0.117  10.405   5.377  0.9258 -0.0962  0.3780
  210MOL0     C28910  -0.036  10.276   5.363 -0.0974 -0.7902 -0.2068
  210MOL0     H28911   0.197  10.499   5.741  0.3424 -0.3594 -1.2876
  210MOL0     H28912   0.386  10.540   5.880  1.2616 -0.7151 -1.3639
  210MOL0     H28913   0.585  10.609   5.960 -0.0278 -0.3755  1.0964
  210MOL0     H28914   0.534  10.726   6.079  1.5466 -2.7579  0.6472
  210MOL0     H28915   0.786  10.737   5.917 -0.4737 -2.2659  0.6010
  210MOL0     H28916   0.731  10.853   6.044 -1.5450  0.0980 -0.5959
  210MOL0     H28917   0.751  10.653   6.212  2.8588 -2.0274  1.4027
  210MOL0     H28918   0.817  10.572   6.062 -0.3467  0.0344 -0.3368
  210MOL0     H28919   0.994  10.735   6.058 -2.5948 -1.1343 -1.0167
  210MOL0     H28920   0.934  10.811   6.208 -1.1367  0.7206 -0.6357
  210MOL0     H28921   1.052  10.531   6.187  0.5471 -0.2593  1.5290
  210MOL0     H28922   0.965  10.587   6.334  1.7299  0.1311  1.0870
  210MOL0     H28923   1.205  10.731   6.216 -2.3281 -0.2768 -1.6815
  210MOL0     H28924   1.125  10.759   6.369  0.3570 -0.0419  0.5501
  210MOL0     H28925   1.174  10.508   6.431 -0.1458  0.1520 -1.0751
  210MOL0     H28926   1.317  10.607   6.430 -0.7546 -2.2513  0.6752
  210MOL0     H28927   1.241  10.423   6.216  1.2320 -0.8712 -0.0594
  210MOL0     H28928   1.358  10.559   6.200  0.2525  2.2168  0.9382
  210MOL0     H28929   1.254  10.258   6.404 -0.3838  1.5558 -2.0309
  210MOL0     H28930   1.448  10.015   6.422 -0.2119 -0.9331  0.4951
  210MOL0     H28931   1.396  10.084   6.578 -1.7252 -0.5304 -2.5611
  210MOL0     H28932   1.683  10.054   6.507  1.0785 -2.9141  1.4241
  210MOL0     H28933   1.605  10.108   6.659 -0.5677  1.1416  0.7280
  210MOL0     H28934   1.493   9.871   6.639  1.7269 -2.2187  2.3601
  210MOL0     H28935   1.595   9.839   6.494  3.0609 -0.5145 -0.8850
  210MOL0     H28936   1.695   9.883   6.782 -0.4909 -1.2050  0.4536
  210MOL0     H28937   1.709   9.724   6.698  0.9827  0.1625  2.5012
  210MOL0     H28938   1.907   9.665   6.808  0.7770 -1.1177  2.1681
  210MOL0     H28939   2.084   9.644   7.063  1.0432  1.4225  0.9697
  210MOL0     H28940   2.233   9.620   6.965 -0.9500 -0.4498 -1.1737
  210MOL0     H28941   2.082   9.539   6.922 -0.0633  0.0137  0.4394
  210MOL0     H28942   2.490  10.042   7.092  0.6540 -0.4586 -1.5399
  210MOL0     H28943   2.691  10.026   7.215 -0.5016  0.7399  0.6850
  210MOL0     H28944   2.889   9.936   7.324 -1.8077 -1.4966 -1.0026
  210MOL0     H28945   2.763  10.009   7.422  0.4817  0.5472  1.3119
  210MOL0     H28946   2.832   9.887   7.618  1.1047  0.3050  1.2541
  210MOL0     H28947   2.950   9.791   7.510  1.9448  0.1223 -1.0821
  210MOL0     H28948   2.976  10.063   7.610  3.4246  0.2847  1.2209
  210MOL0     H28949   3.067  10.013   7.476  0.3482  2.3923  0.1338
  210MOL0     H28950   3.138   9.812   7.625  1.6893  1.0675 -1.7886
  210MOL0     H28951   3.055   9.895   7.753 -0.9807  0.7107 -0.6957
  210MOL0     H28952   3.240  10.080   7.736  3.6179 -0.0134  1.2862
  210MOL0     H28953   3.304   9.923   7.744  0.4812  1.7175 -0.0105
  210MOL0     H28954   3.271  10.091   7.494  0.3579  1.2802  0.6853
  210MOL0     H28955   3.292   9.922   7.474  1.7238  1.1430 -2.1325
  210MOL0     H28956   3.507  10.017   7.445  1.9883 -0.6888  0.4220
  210MOL0     H28957   3.504   9.948   7.609 -2.8240 -0.2239  0.5921
  210MOL0     H28958   3.592  10.123   7.668 -0.5042 -0.6559  0.7163
  210MOL0     H28959   3.428  10.176   7.690  1.1698 -2.1418  1.5253
  210MOL0     H28960   2.597   9.601   7.300  1.5291  1.1979  0.0098
  210MOL0     H28961   2.414   9.616   7.170  1.7482 -0.0309 -1.2939
  210MOL0     H28962   2.222  10.042   6.741  0.7950 -1.4473 -1.9980
  210MOL0     H28963   2.019  10.035   6.614  2.4446 -0.0955 -1.6413
  210MOL0     H28964   0.421  10.925   5.664 -0.7776  0.7633 -1.5022
  210MOL0     H28965   0.222  10.870   5.549 -1.3270 -0.3442  0.3202
  210MOL0     H28966  -0.122  10.740   5.471  0.4538 -0.6413  0.6492
  210MOL0     H28967  -0.331  10.732   5.392  0.8705  0.1952 -0.4553
  210MOL0     H28968  -0.630  10.459   5.332 -0.5138  1.3546 -0.1139
  210MOL0     H28969  -0.528  10.504   5.485  0.2126 -0.4235  0.8343
  210MOL0     H28970  -0.636  10.698   5.271  2.1099  3.7156  0.4872
  210MOL0     H28971  -0.534  10.736   5.405  0.5307 -0.7688  0.6072
  210MOL0     H28972  -0.787  10.586   5.441 -1.4370  1.2654 -0.9720
  210MOL0     H28973  -0.686  10.681   5.571  0.6526  0.7943 -0.1744
  210MOL0     H28974  -0.750  10.884   5.473  3.0552 -2.6751 -1.2712
  210MOL0     H28975  -0.891  10.800   5.538 -0.1555 -0.1508  1.2906
  210MOL0     H28976  -1.024  10.816   5.152  2.4288 -2.0253 -2.1795
  210MOL0     H28977  -0.269  10.322   5.259  0.0619  0.5352 -0.8274
  210MOL0     H28978   0.040  10.287   5.285 -0.5370  0.8682 -0.4494
  210MOL0     H28979   0.013  10.241   5.454  1.6651  1.6244 -0.1288
  210MOL0     H28980  -0.101  10.191   5.340 -0.0046 -0.7990 -0.4460
  211MOL0     O28981   8.843   9.981   9.590  0.8291  0.1905 -0.5240
  211MOL0     C28982   8.756   9.991   9.500  0.0219 -0.1535  0.1340
  211MOL0     O28983   8.771  10.071   9.399  0.1215 -0.6281  0.4997
  211MOL0     C28984   8.881  10.155   9.396 -0.2843  0.4199 -0.0322
  211MOL0     C28985   8.980  10.113   9.305  0.1402  0.2324  0.0866
  211MOL0     C28986   9.100  10.188   9.292 -0.0097 -0.1097 -0.0785
  211MOL0     C28987   9.123  10.307   9.366  1.1867 -0.3874 -0.2313
  211MOL0     O28988   9.243  10.376   9.341  0.7826 -0.4892  0.1406
  211MOL0     C28989   9.262  10.509   9.380  0.0416 -0.3288 -1.0845
  211MOL0     C28990   9.389  10.562   9.327 -1.2047 -0.3370 -0.0125
  211MOL0     C28991   9.384  10.710   9.376 -0.2928 -1.1344  0.0345
  211MOL0     C28992   9.516  10.785   9.350 -0.0536 -0.0736  0.1063
  211MOL0     C28993   9.526  10.855   9.209  0.3118  0.2159 -0.5164
  211MOL0     C28994   9.661  10.925   9.171 -0.3933  0.4848  0.1643
  211MOL0     C28995   9.784  10.835   9.177 -0.3843  0.3545 -0.0504
  211MOL0     C28996   9.904  10.919   9.119  0.0755 -0.3297  0.5990
  211MOL0     N28997  10.026  10.841   9.117 -0.3211 -0.2326 -0.4568
  211MOL0     C28998  10.093  10.796   9.006 -0.0423  0.0115 -0.0499
  211MOL0     C28999  10.203  10.736   9.071  0.3794 -0.1088 -0.6667
  211MOL0     C29000  10.320  10.676   8.992  0.6701 -0.8589  0.2467
  211MOL0     C29001  10.444  10.760   9.007 -1.2002  0.6852 -0.2062
  211MOL0     C29002  10.575  10.687   8.959  0.3673 -0.6122 -0.2278
  211MOL0     C29003  10.685  10.785   8.958  0.3689  0.0637  0.1004
  211MOL0     O29004  10.807  10.733   8.907  0.3462  0.4759  0.0387
  211MOL0     C29005  10.892  10.668   8.993  0.1699  0.5821 -0.1252
  211MOL0     C29006  10.880  10.674   9.135 -0.2273 -0.7650 -0.5820
  211MOL0     C29007  10.978  10.614   9.212  0.2704 -0.1838 -0.3917
  211MOL0     C29008  10.945  10.617   9.362 -0.6567 -0.2568 -1.2101
  211MOL0     C29009  11.088  10.547   9.154  0.5383 -0.4819  0.4438
  211MOL0     C29010  11.205  10.477   9.232  0.1502  0.4131 -0.1311
  211MOL0     O29011  11.315  10.452   9.155 -0.0297  0.1775 -0.1585
  211MOL0     C29012  11.418  10.368   9.200  0.4221 -0.2263 -1.0903
  211MOL0     C29013  11.473  10.278   9.110  0.1580 -0.3458 -0.8455
  211MOL0     C29014  11.578  10.189   9.142 -0.1119 -0.1070 -0.1155
  211MOL0     C29015  11.638  10.209   9.268  0.3970 -0.0051  0.8506
  211MOL0     O29016  11.742  10.139   9.318 -0.0721  0.4210  0.5029
  211MOL0     C29017  11.756  10.009   9.274 -0.0650  0.0462  1.2852
  211MOL0     C29018  11.865   9.950   9.360 -0.7001 -0.6866  0.4117
  211MOL0     C29019  11.994  10.004   9.283  0.5426 -0.4314 -0.2235
  211MOL0     C29020  12.112   9.996   9.378 -0.7299  0.0589 -0.1147
  211MOL0     C29021  12.237  10.019   9.295 -0.1153  0.4992  0.2417
  211MOL0     C29022  12.367  10.045   9.383 -0.2217  0.0672  0.0002
  211MOL0     C29023  12.499  10.019   9.309  0.5218 -0.2972  0.2996
  211MOL0     C29024  12.622  10.077   9.376  0.1865  0.5248  0.7936
  211MOL0    Cl29025  12.767  10.064   9.273  0.1484 -0.5255 -0.2604
  211MOL0     C29026  11.592  10.309   9.351 -0.6097  0.2075  0.4686
  211MOL0     C29027  11.486  10.390   9.316  0.6968  0.2012  0.3957
  211MOL0     O29028  11.192  10.429   9.347 -0.0837 -0.1808  0.4896
  211MOL0     C29029  11.099  10.547   9.014  0.1292  0.2369  0.0987
  211MOL0     C29030  10.998  10.596   8.936  1.0969  0.4098  0.1534
  211MOL0     N29031  10.192  10.748   9.211 -0.2240 -0.3951  0.6478
  211MOL0     N29032  10.084  10.808   9.236 -0.0675  0.8672  0.1103
  211MOL0     C29033   9.015  10.350   9.447 -0.8172 -0.3749  0.1734
  211MOL0     C29034   8.897  10.269   9.468 -0.0350 -0.2206  0.0001
  211MOL0     C29035   8.625   9.921   9.522 -0.7616  0.2996  0.2089
  211MOL0     C29036   8.538   9.913   9.413 -1.2256  0.2820  0.1187
  211MOL0     C29037   8.420   9.843   9.417  1.1968  0.1264  0.3797
  211MOL0     C29038   8.377   9.780   9.532  0.5478  0.4675  0.2770
  211MOL0     O29039   8.261   9.710   9.526  0.8295  0.3839 -0.1535
  211MOL0     C29040   8.258   9.571   9.579  0.1072  0.2910  0.2741
  211MOL0     C29041   8.113   9.526   9.592  1.0121  0.7261 -0.4746
  211MOL0     C29042   8.104   9.383   9.643 -0.4145 -0.3804  0.5257
  211MOL0     C29043   8.121   9.288   9.526  0.0878  0.8581  0.0121
  211MOL0     C29044   8.095   9.150   9.574 -0.6813 -0.3776 -0.6835
  211MOL0     C29045   8.069   9.040   9.606 -0.6677 -0.1750  0.1695
  211MOL0     C29046   8.455   9.798   9.654 -0.2360 -0.6327 -0.6157
  211MOL0     C29047   8.579   9.865   9.651 -1.2152  0.1067  0.9651
  211MOL0     C29048   8.650   9.879   9.782  0.3785 -0.4152 -0.6275
  211MOL0     H29049   8.959  10.029   9.240 -0.1183 -0.3461  0.9070
  211MOL0     H29050   9.183  10.160   9.228  0.0482  1.0490 -0.5417
  211MOL0     H29051   9.270  10.508   9.489  0.9401  1.0818 -1.1127
  211MOL0     H29052   9.169  10.559   9.353 -1.0819 -0.2131  2.5216
  211MOL0     H29053   9.473  10.511   9.374 -1.3190 -0.1750  0.3747
  211MOL0     H29054   9.394  10.555   9.218 -2.2055  0.1109 -0.0984
  211MOL0     H29055   9.302  10.756   9.320 -1.4188 -1.7927  1.1083
  211MOL0     H29056   9.368  10.709   9.484 -2.0282  0.6691 -0.1331
  211MOL0     H29057   9.519  10.859   9.431 -0.7627  0.5327 -0.4135
  211MOL0     H29058   9.600  10.716   9.364 -0.7775 -0.9131  0.3873
  211MOL0     H29059   9.445  10.927   9.194 -0.3428 -0.1537  0.9950
  211MOL0     H29060   9.510  10.776   9.136  0.2828 -0.6132  0.3589
  211MOL0     H29061   9.649  10.958   9.068  0.1765  3.9005  1.0627
  211MOL0     H29062   9.678  11.003   9.246  0.3492  1.1447 -0.6784
  211MOL0     H29063   9.769  10.742   9.122  2.2679 -1.1196  1.5248
  211MOL0     H29064   9.814  10.809   9.279  0.1560  2.0177  0.2532
  211MOL0     H29065   9.877  10.962   9.022 -0.9350  0.5601  1.2610
  211MOL0     H29066   9.923  11.009   9.177  1.9193  0.8167 -1.6354
  211MOL0     H29067  10.069  10.801   8.900  0.3089  0.5168 -0.1089
  211MOL0     H29068  10.290  10.662   8.888  1.8380  1.3966 -0.4588
  211MOL0     H29069  10.335  10.574   9.029 -1.1770 -1.8402 -1.5093
  211MOL0     H29070  10.432  10.844   8.938 -0.8763  1.4469  0.6514
  211MOL0     H29071  10.462  10.780   9.113  1.5785 -0.4719 -0.3857
  211MOL0     H29072  10.600  10.611   9.033 -3.9740 -2.9334 -0.8695
  211MOL0     H29073  10.544  10.642   8.864 -1.5831  0.5348 -0.1805
  211MOL0     H29074  10.644  10.863   8.893 -1.9569 -0.0821  1.3089
  211MOL0     H29075  10.697  10.837   9.053  0.0305  1.2698 -0.4940
  211MOL0     H29076  10.795  10.726   9.178  0.0733 -0.9803  0.2934
  211MOL0     H29077  11.028  10.579   9.422 -0.9874 -2.3356 -1.9970
  211MOL0     H29078  10.857  10.559   9.390  1.3773 -2.5880  0.9022
  211MOL0     H29079  10.934  10.723   9.388 -2.9559 -0.4852 -1.0716
  211MOL0     H29080  11.433  10.269   9.009 -0.2993  1.4286 -0.8511
  211MOL0     H29081  11.605  10.121   9.062 -2.4290 -0.0475 -1.0399
  211MOL0     H29082  11.660   9.956   9.271 -0.6702  1.0359  2.3470
  211MOL0     H29083  11.790   9.998   9.171  0.4052 -0.0857  1.4507
  211MOL0     H29084  11.867   9.972   9.467 -1.2669  4.6438 -0.4314
  211MOL0     H29085  11.866   9.840   9.358  1.0581 -0.6983 -0.3037
  211MOL0     H29086  11.988  10.109   9.254  1.5168 -0.0296  0.9585
  211MOL0     H29087  12.008   9.945   9.192  0.4956 -1.9646  0.7157
  211MOL0     H29088  12.109   9.894   9.415 -2.0206 -0.0675 -0.5292
  211MOL0     H29089  12.106  10.069   9.460  1.5177  0.7584 -0.5051
  211MOL0     H29090  12.247   9.938   9.223 -0.7361 -1.3018  2.0745
  211MOL0     H29091  12.223  10.111   9.239 -1.0533 -1.8437 -3.7649
  211MOL0     H29092  12.358   9.981   9.472  2.7884  0.2980  0.5570
  211MOL0     H29093  12.362  10.148   9.420  1.4070  0.1234  0.1089
  211MOL0     H29094  12.489  10.059   9.207 -0.3297 -3.1030 -0.8131
  211MOL0     H29095  12.504   9.911   9.294 -1.0240 -0.5981  1.7217
  211MOL0     H29096  12.643  10.030   9.472  0.4044 -1.9620 -0.3993
  211MOL0     H29097  12.603  10.184   9.391  1.3399  1.1471 -1.6272
  211MOL0     H29098  11.637  10.325   9.449  0.2229 -0.4431  0.2166
  211MOL0     H29099  11.474  10.461   9.397  2.3544  0.1395  0.7338
  211MOL0     H29100  11.170  10.490   8.954 -1.7943 -1.8301 -0.4043
  211MOL0     H29101  11.006  10.607   8.828  0.2086  0.9301  0.1322
  211MOL0     H29102   9.013  10.439   9.509 -1.9429  1.4897 -2.3479
  211MOL0     H29103   8.815  10.296   9.534  0.0516  0.2100 -0.0643
  211MOL0     H29104   8.562   9.978   9.329 -2.3252  2.6993  1.5673
  211MOL0     H29105   8.357   9.825   9.330 -1.4539 -0.5572  2.2930
  211MOL0     H29106   8.323   9.491   9.542  0.0355 -0.2301  1.2319
  211MOL0     H29107   8.277   9.579   9.687 -0.9669  1.4216  0.4079
  211MOL0     H29108   8.065   9.534   9.494 -1.2006 -0.1460  0.4701
  211MOL0     H29109   8.057   9.589   9.661  0.1679 -0.9363  0.4040
  211MOL0     H29110   8.182   9.366   9.718  1.5207 -0.3592 -1.4002
  211MOL0     H29111   8.004   9.367   9.683 -1.2718  0.0718 -1.3237
  211MOL0     H29112   8.225   9.295   9.494  0.8076 -2.5365  1.2191
  211MOL0     H29113   8.057   9.310   9.440 -2.9799 -0.3445  1.8219
  211MOL0     H29114   8.077   8.943   9.651  2.4310  0.0507  0.3352
  211MOL0     H29115   8.411   9.765   9.748 -0.5559  2.6031  0.5093
  211MOL0     H29116   8.711   9.790   9.800  0.3459 -0.8647 -2.5114
  211MOL0     H29117   8.708   9.971   9.793  0.9152 -0.8865  0.6874
  211MOL0     H29118   8.591   9.874   9.874  2.2919 -2.2914  0.5611
  212MOL0     O29119  10.852   3.854   8.024  0.3081  0.0878 -0.1096
  212MOL0     C29120  10.913   3.801   7.931  1.0662  0.8573  1.1969
  212MOL0     O29121  11.045   3.757   7.931 -0.7841 -0.0639  0.0599
  212MOL0     C29122  11.124   3.792   8.037  0.7638  0.0884 -0.5309
  212MOL0     C29123  11.226   3.707   8.072  0.4791  0.2386  0.2636
  212MOL0     C29124  11.311   3.728   8.182 -0.3049  0.3910 -0.3818
  212MOL0     C29125  11.310   3.842   8.256  0.2718  0.4389 -0.7419
  212MOL0     O29126  11.401   3.855   8.363  0.3516 -0.7254 -0.1673
  212MOL0     C29127  11.376   3.962   8.456  0.1969 -0.3519 -0.0867
  212MOL0     C29128  11.496   3.971   8.552  0.5196 -0.6462  0.3268
  212MOL0     C29129  11.628   4.026   8.488 -0.1095  0.2635 -0.7591
  212MOL0     C29130  11.718   4.072   8.604  0.0554 -0.8197 -0.6881
  212MOL0     C29131  11.833   4.155   8.546 -0.2559 -0.3331 -0.3678
  212MOL0     C29132  11.791   4.284   8.475  0.4314 -0.1643  0.5624
  212MOL0     C29133  11.901   4.395   8.484  0.4570 -0.0205 -0.0675
  212MOL0     C29134  12.028   4.351   8.422 -0.0395 -0.2259  0.4870
  212MOL0     N29135  12.121   4.459   8.411  0.4400  0.2873 -0.8563
  212MOL0     C29136  12.170   4.542   8.499 -0.2038 -0.6542 -0.4099
  212MOL0     C29137  12.241   4.633   8.442 -0.4500 -0.2692  0.0194
  212MOL0     C29138  12.331   4.723   8.515  0.0497  0.6574  0.1812
  212MOL0     C29139  12.444   4.655   8.585  0.9209 -0.0806  0.6441
  212MOL0     C29140  12.547   4.596   8.489  0.0563  0.9741 -1.0105
  212MOL0     C29141  12.684   4.542   8.544  0.3847 -0.1034 -0.0031
  212MOL0     O29142  12.757   4.491   8.432 -0.4371  0.0517  0.4718
  212MOL0     C29143  12.869   4.420   8.455  0.0673 -0.1552 -1.3422
  212MOL0     C29144  12.914   4.335   8.355 -0.2597 -0.6457 -0.4129
  212MOL0     C29145  13.036   4.264   8.367  0.5312  0.4515 -0.0558
  212MOL0     C29146  13.062   4.156   8.263 -0.6948 -0.3048  0.0054
  212MOL0     C29147  13.106   4.271   8.488  0.1735 -0.2124 -0.6549
  212MOL0     C29148  13.241   4.207   8.518 -0.0721  0.2601 -0.1455
  212MOL0     O29149  13.258   4.180   8.654 -0.9292 -0.3433  0.0461
  212MOL0     C29150  13.389   4.181   8.701 -0.2685 -0.0248  0.6089
  212MOL0     C29151  13.448   4.278   8.782 -0.8733 -0.2763 -0.3758
  212MOL0     C29152  13.580   4.268   8.838 -0.0695  0.0249  0.5035
  212MOL0     C29153  13.657   4.150   8.816  0.5950 -0.0782  0.2483
  212MOL0     O29154  13.778   4.123   8.875 -0.0273  0.5055  0.1192
  212MOL0     C29155  13.799   4.173   9.001  0.1340 -0.8910 -0.3538
  212MOL0     C29156  13.937   4.131   9.059 -0.5275  0.0847 -0.8612
  212MOL0     C29157  13.934   3.995   9.119  0.3153 -0.4689 -0.1374
  212MOL0     C29158  14.052   3.958   9.206 -0.9414 -0.2504 -0.0599
  212MOL0     C29159  14.043   3.822   9.266 -0.6086 -0.0571  0.8763
  212MOL0     C29160  14.150   3.804   9.379  0.4054  0.7082 -0.3403
  212MOL0     C29161  14.118   3.672   9.460  0.3822  0.3766 -0.2097
  212MOL0     C29162  14.213   3.650   9.586 -0.8636  0.2876  0.3825
  212MOL0    Cl29163  14.225   3.802   9.680 -0.1513 -0.2841  0.1982
  212MOL0     C29164  13.598   4.055   8.730  0.5535 -0.0370 -0.3259
  212MOL0     C29165  13.465   4.062   8.686 -0.5056 -0.0433  0.2301
  212MOL0     O29166  13.330   4.207   8.429 -0.2236 -0.4439 -0.0848
  212MOL0     C29167  13.065   4.368   8.580 -0.8410  0.2305 -0.9056
  212MOL0     C29168  12.950   4.448   8.563 -0.4838 -0.8285 -0.1596
  212MOL0     N29169  12.216   4.618   8.307 -0.3599 -0.2337  0.0462
  212MOL0     N29170  12.151   4.504   8.291  0.3459 -0.8774  1.1418
  212MOL0     C29171  11.215   3.937   8.218  0.4598 -0.8843  0.7122
  212MOL0     C29172  11.121   3.920   8.114  0.1787 -0.7530 -0.8502
  212MOL0     C29173  10.827   3.750   7.819 -0.2060  0.0161 -0.3067
  212MOL0     C29174  10.696   3.798   7.798 -0.5917  0.0069 -0.6397
  212MOL0     C29175  10.612   3.758   7.694  0.8099  0.4685 -0.0785
  212MOL0     C29176  10.664   3.666   7.608  0.0502  0.5418 -0.2287
  212MOL0     O29177  10.608   3.609   7.499  0.2229  0.4258  0.2615
  212MOL0     C29178  10.473   3.652   7.462 -0.0620  1.0740 -0.6678
  212MOL0     C29179  10.436   3.582   7.325 -0.0956  0.3763  0.2613
  212MOL0     C29180  10.427   3.428   7.351  0.7017  1.0002  0.7699
  212MOL0     C29181  10.435   3.340   7.223 -0.4054 -0.6553 -0.1808
  212MOL0     C29182  10.352   3.388   7.112 -0.5297 -0.3877  0.0015
  212MOL0     C29183  10.314   3.462   7.020  0.7587  0.1841 -0.4286
  212MOL0     C29184  10.783   3.603   7.632 -0.5940 -0.3881  0.1731
  212MOL0     C29185  10.873   3.643   7.734  0.1148  0.4670 -0.3415
  212MOL0     C29186  10.999   3.551   7.758  0.0277  0.1308  0.0048
  212MOL0     H29187  11.249   3.618   8.015 -0.6198  0.0816  0.0608
  212MOL0     H29188  11.383   3.649   8.204  1.2514  2.1243  1.0571
  212MOL0     H29189  11.293   3.933   8.520 -1.0430  1.3313 -0.8232
  212MOL0     H29190  11.370   4.058   8.402 -0.2496 -0.3310  0.0053
  212MOL0     H29191  11.470   4.046   8.627 -1.7378  0.4885 -1.4393
  212MOL0     H29192  11.514   3.870   8.591 -0.2212 -0.3191  1.5557
  212MOL0     H29193  11.682   3.951   8.430 -1.0011  0.3641 -1.7430
  212MOL0     H29194  11.619   4.112   8.422  2.6040  2.3489  1.3732
  212MOL0     H29195  11.668   4.137   8.677 -0.5249 -0.2764 -1.5557
  212MOL0     H29196  11.760   3.985   8.656 -1.1476 -1.0307 -0.0402
  212MOL0     H29197  11.876   4.078   8.481 -0.8442 -1.8590  0.9875
  212MOL0     H29198  11.905   4.182   8.625 -2.5170  3.1543  0.7263
  212MOL0     H29199  11.756   4.270   8.373  1.7664 -0.0665  0.0790
  212MOL0     H29200  11.706   4.327   8.529 -0.4733  0.3109 -1.1645
  212MOL0     H29201  11.922   4.410   8.590  0.4218 -3.4318  0.5241
  212MOL0     H29202  11.863   4.487   8.439 -2.4559  0.3876  2.9149
  212MOL0     H29203  12.075   4.276   8.487 -2.2231 -1.8205  0.3438
  212MOL0     H29204  12.022   4.301   8.325 -2.3966  0.0825  0.4026
  212MOL0     H29205  12.171   4.522   8.606  1.4752  1.2655 -0.0010
  212MOL0     H29206  12.273   4.779   8.590  1.4431  0.5392  1.4059
  212MOL0     H29207  12.381   4.792   8.446 -0.1558 -0.1882 -0.8346
  212MOL0     H29208  12.489   4.729   8.653 -1.9476 -0.9217  3.7294
  212MOL0     H29209  12.392   4.580   8.645  2.0139 -2.4640 -1.2469
  212MOL0     H29210  12.487   4.515   8.449 -2.9213 -0.1756  4.7415
  212MOL0     H29211  12.568   4.668   8.409  1.4078  1.2436 -0.4487
  212MOL0     H29212  12.739   4.629   8.582  0.9657 -0.7793  0.7530
  212MOL0     H29213  12.665   4.463   8.617 -2.1835 -0.1416 -0.6326
  212MOL0     H29214  12.852   4.315   8.269  1.1416  1.2910 -1.9756
  212MOL0     H29215  13.041   4.060   8.310 -1.4119 -0.4213 -0.5480
  212MOL0     H29216  13.164   4.148   8.223 -1.4268 -1.9035 -1.6725
  212MOL0     H29217  12.996   4.175   8.179  0.4545  1.7598 -0.5099
  212MOL0     H29218  13.387   4.367   8.793 -1.9278 -1.1983  1.7079
  212MOL0     H29219  13.612   4.351   8.900  2.7178 -1.1661  0.7676
  212MOL0     H29220  13.796   4.282   8.999 -0.3552 -0.7625  2.6413
  212MOL0     H29221  13.720   4.143   9.072  0.1898  1.1439  0.6441
  212MOL0     H29222  14.022   4.153   8.993  0.2509 -1.4385 -0.4116
  212MOL0     H29223  13.957   4.197   9.143  0.4513 -2.1996  0.7991
  212MOL0     H29224  13.945   3.922   9.038  0.5263  0.2754 -0.7912
  212MOL0     H29225  13.846   3.972   9.179  0.8677 -0.9219  0.5179
  212MOL0     H29226  14.058   4.032   9.287  0.3844  0.8848 -1.1362
  212MOL0     H29227  14.154   3.966   9.168 -0.3613  2.1575  1.7358
  212MOL0     H29228  13.943   3.805   9.305 -0.2154 -0.8355  1.5987
  212MOL0     H29229  14.060   3.750   9.185  2.3216  2.8514 -1.3726
  212MOL0     H29230  14.137   3.890   9.444 -2.5051  0.3074 -0.2399
  212MOL0     H29231  14.246   3.795   9.327  1.1517  0.3596  1.0336
  212MOL0     H29232  14.120   3.583   9.396 -0.7678  0.6819 -0.6936
  212MOL0     H29233  14.016   3.676   9.497  0.4374 -1.6701  0.3150
  212MOL0     H29234  14.316   3.627   9.557 -0.3154  1.4725  1.3194
  212MOL0     H29235  14.178   3.572   9.654 -4.3048  1.7974  0.5566
  212MOL0     H29236  13.654   3.967   8.703 -1.6464 -1.4798 -0.4609
  212MOL0     H29237  13.429   3.983   8.620  1.3975  0.5154 -1.5921
  212MOL0     H29238  13.121   4.388   8.671 -2.0210  2.0686 -0.5346
  212MOL0     H29239  12.917   4.525   8.632 -1.5141 -2.7286  1.5834
  212MOL0     H29240  11.208   4.027   8.277  0.2066 -1.0168  0.8863
  212MOL0     H29241  11.040   3.992   8.104  0.2957 -0.4804  0.0856
  212MOL0     H29242  10.653   3.865   7.871  1.2531 -0.3972  0.8717
  212MOL0     H29243  10.513   3.801   7.685  2.0110  3.9350  1.2381
  212MOL0     H29244  10.401   3.636   7.543  2.0895 -0.4308  1.0411
  212MOL0     H29245  10.475   3.761   7.449  0.0038  1.1123 -0.3544
  212MOL0     H29246  10.509   3.605   7.247 -1.9767  0.3626 -1.5897
  212MOL0     H29247  10.346   3.629   7.285  0.8031  2.0336  0.0689
  212MOL0     H29248  10.516   3.396   7.406  1.2081  2.5663  0.9248
  212MOL0     H29249  10.338   3.399   7.408  1.4662 -0.7607  1.1514
  212MOL0     H29250  10.402   3.237   7.240 -0.3171 -0.7595 -0.6289
  212MOL0     H29251  10.540   3.354   7.199 -0.5553  1.4900  0.2050
  212MOL0     H29252  10.303   3.538   6.946 -0.7314 -0.6585 -1.1377
  212MOL0     H29253  10.818   3.526   7.563 -0.8252 -0.4682  0.1435
  212MOL0     H29254  10.981   3.464   7.694 -1.1896 -1.1212  1.9426
  212MOL0     H29255  11.089   3.594   7.712 -0.5457 -0.2003 -1.5069
  212MOL0     H29256  11.016   3.522   7.862 -1.0188  1.6388  0.6363
  213MOL0     O29257   6.183   6.964   8.267  0.7418 -0.2964 -0.5199
  213MOL0     C29258   6.214   6.994   8.385 -0.0413  0.1903  0.8850
  213MOL0     O29259   6.345   7.011   8.427 -0.2175 -0.5848  0.7382
  213MOL0     C29260   6.443   6.953   8.353  0.5968  0.6335 -0.2869
  213MOL0     C29261   6.486   6.823   8.393 -0.0672  0.8782 -0.1511
  213MOL0     C29262   6.592   6.759   8.341  0.3325  0.4552  0.0283
  213MOL0     C29263   6.664   6.823   8.242  0.9283 -0.3937 -0.2386
  213MOL0     O29264   6.766   6.764   8.175  0.5927 -0.1521 -0.2585
  213MOL0     C29265   6.893   6.747   8.243  1.1561 -0.0519 -0.6193
  213MOL0     C29266   6.968   6.881   8.248 -0.0815  0.6896 -0.2643
  213MOL0     C29267   7.020   6.910   8.386  0.0022  0.8229  0.5033
  213MOL0     C29268   7.158   6.855   8.403 -0.0401  0.1013  0.6966
  213MOL0     C29269   7.264   6.955   8.358  0.4380  0.4719  0.4396
  213MOL0     C29270   7.406   6.912   8.380  1.1111  0.3536  0.4949
  213MOL0     C29271   7.493   7.021   8.317 -1.2193  0.3695  0.8474
  213MOL0     C29272   7.610   6.953   8.241 -0.2825  0.1015 -0.8779
  213MOL0     N29273   7.707   6.900   8.333 -0.7792 -0.2433 -0.0859
  213MOL0     C29274   7.768   6.966   8.433 -1.2138  0.4411  0.9651
  213MOL0     C29275   7.853   6.876   8.483 -0.2911 -0.3821  0.2463
  213MOL0     C29276   7.937   6.893   8.603 -0.3779  0.2770  0.3491
  213MOL0     C29277   8.044   6.997   8.592  0.0195 -0.5160 -0.6914
  213MOL0     C29278   8.118   6.989   8.459 -0.5893 -0.4794 -0.7171
  213MOL0     C29279   8.203   6.865   8.433 -0.3268  0.0220  0.0501
  213MOL0     O29280   8.279   6.883   8.310  0.5189  0.1667  0.0218
  213MOL0     C29281   8.415   6.895   8.326  0.4747 -0.3130  0.3671
  213MOL0     C29282   8.473   7.023   8.294  0.1945 -0.1028  0.7516
  213MOL0     C29283   8.607   7.053   8.309  0.2956  0.3804  0.8804
  213MOL0     C29284   8.656   7.192   8.301  0.1636  0.2893  0.0129
  213MOL0     C29285   8.691   6.945   8.350  0.4350 -0.3150  0.3332
  213MOL0     C29286   8.843   6.951   8.350 -1.0984  0.0644  0.7696
  213MOL0     O29287   8.905   6.838   8.375  0.3108  0.1586  0.0735
  213MOL0     C29288   9.047   6.842   8.372  0.2320  0.0432  0.9492
  213MOL0     C29289   9.119   6.767   8.277  0.6200  1.0366  0.6411
  213MOL0     C29290   9.255   6.796   8.254  0.3287  0.0293  0.3543
  213MOL0     C29291   9.331   6.885   8.340  0.1804  0.6903 -0.1191
  213MOL0     O29292   9.461   6.915   8.339  0.5209  0.1914 -0.0095
  213MOL0     C29293   9.540   6.838   8.261 -0.1317  0.2607  0.6069
  213MOL0     C29294   9.692   6.867   8.277 -0.4363 -0.5299 -0.4922
  213MOL0     C29295   9.778   6.744   8.232 -0.8742  0.2548  0.2987
  213MOL0     C29296   9.907   6.775   8.150 -0.1029  0.6244  0.3525
  213MOL0     C29297  10.027   6.687   8.202 -0.8305 -0.2430 -0.6057
  213MOL0     C29298  10.168   6.727   8.152 -0.2882 -0.2436 -0.5153
  213MOL0     C29299  10.189   6.717   8.003  0.2008 -0.1389  0.0668
  213MOL0     C29300  10.333   6.724   7.973 -0.8875 -0.7710  0.3094
  213MOL0    Cl29301  10.445   6.605   8.058 -0.1417 -0.0135  0.6758
  213MOL0     C29302   9.260   6.933   8.447  0.1356 -0.8632 -0.3226
  213MOL0     C29303   9.121   6.913   8.468  0.0699  0.0709  0.8539
  213MOL0     O29304   8.898   7.059   8.337 -0.0730 -0.5553 -0.4633
  213MOL0     C29305   8.639   6.814   8.375 -0.0227  0.7891 -0.5438
  213MOL0     C29306   8.502   6.791   8.363 -0.3456 -0.5991  0.1496
  213MOL0     N29307   7.839   6.755   8.419  0.0519 -0.2072  0.0132
  213MOL0     N29308   7.762   6.777   8.325 -0.0872 -0.4580  0.5807
  213MOL0     C29309   6.617   6.948   8.195 -0.3836  0.1277  0.3056
  213MOL0     C29310   6.508   7.015   8.255 -0.0695  0.2899  0.5092
  213MOL0     C29311   6.105   7.007   8.484  0.3407 -0.1919 -1.3497
  213MOL0     C29312   5.974   6.972   8.447 -0.4923  0.3020 -0.5989
  213MOL0     C29313   5.864   6.994   8.529 -0.1572 -0.8635 -0.0606
  213MOL0     C29314   5.887   7.046   8.653 -0.3203 -0.2914  0.3002
  213MOL0     O29315   5.782   7.064   8.746  0.2246 -0.6334 -0.5766
  213MOL0     C29316   5.736   7.203   8.749 -0.3288  0.3211 -0.1508
  213MOL0     C29317   5.660   7.223   8.881  0.2227 -0.3043 -0.4032
  213MOL0     C29318   5.617   7.372   8.893  0.1844  0.4533 -0.6256
  213MOL0     C29319   5.510   7.373   9.006  0.4098 -1.1750 -0.2163
  213MOL0     C29320   5.447   7.506   9.003 -0.0723 -0.4469 -0.7124
  213MOL0     C29321   5.402   7.616   8.977 -0.1776 -0.6833 -0.1349
  213MOL0     C29322   6.016   7.087   8.692 -0.1733  1.0687 -0.2497
  213MOL0     C29323   6.123   7.062   8.612  0.0538  1.0972 -0.2566
  213MOL0     C29324   6.255   7.072   8.678  0.3248  0.8233  0.0488
  213MOL0     H29325   6.443   6.773   8.479 -0.0093  0.6652 -0.2469
  213MOL0     H29326   6.613   6.657   8.372  0.7642  0.2711 -0.8279
  213MOL0     H29327   6.969   6.691   8.187  0.3187 -0.9343 -0.8944
  213MOL0     H29328   6.880   6.706   8.343 -1.8709 -2.6361 -1.9030
  213MOL0     H29329   7.059   6.880   8.187  0.1056 -1.9142 -0.0402
  213MOL0     H29330   6.892   6.955   8.222 -0.6568  0.0784 -0.3459
  213MOL0     H29331   7.019   7.019   8.396  1.0567  0.9597 -0.6135
  213MOL0     H29332   6.943   6.870   8.452 -2.0177 -0.6129 -2.4973
  213MOL0     H29333   7.166   6.834   8.510 -1.4376  1.0586  1.0218
  213MOL0     H29334   7.156   6.762   8.347  0.4494  1.1930 -1.2156
  213MOL0     H29335   7.247   7.047   8.414  0.3797 -0.5888  2.2388
  213MOL0     H29336   7.244   6.976   8.252 -3.6598  0.4543  1.0360
  213MOL0     H29337   7.428   6.893   8.486  2.2910  0.0200  0.2011
  213MOL0     H29338   7.411   6.814   8.331  1.0938  0.8471 -0.5112
  213MOL0     H29339   7.528   7.095   8.389 -1.7057  0.8246  0.6241
  213MOL0     H29340   7.435   7.073   8.240 -0.0320 -0.6327 -0.7842
  213MOL0     H29341   7.570   6.868   8.185 -1.0666 -0.3785  0.3741
  213MOL0     H29342   7.662   7.013   8.165  1.4215  0.3392  0.4128
  213MOL0     H29343   7.757   7.069   8.467 -1.7662  1.1974 -1.3108
  213MOL0     H29344   7.973   6.793   8.628 -1.0834 -0.2852 -0.8000
  213MOL0     H29345   7.869   6.919   8.685 -0.1040 -0.5283  0.8410
  213MOL0     H29346   8.002   7.093   8.624  0.7015 -0.9019  1.5275
  213MOL0     H29347   8.114   6.976   8.673 -0.6782 -3.2129 -0.6707
  213MOL0     H29348   8.054   7.013   8.373 -1.1054  1.5992  0.1951
  213MOL0     H29349   8.188   7.073   8.470 -2.0219  0.4581  2.3320
  213MOL0     H29350   8.271   6.849   8.517  0.6057 -1.0634 -0.8884
  213MOL0     H29351   8.149   6.769   8.426 -0.7115  0.2098  0.3599
  213MOL0     H29352   8.404   7.097   8.254  0.8490 -0.6135 -1.5141
  213MOL0     H29353   8.719   7.199   8.390 -0.1203 -3.5233  0.6453
  213MOL0     H29354   8.574   7.265   8.302 -0.4991 -0.3886 -1.6219
  213MOL0     H29355   8.723   7.209   8.216 -0.1278 -0.9964 -0.4928
  213MOL0     H29356   9.059   6.701   8.215  1.0309 -1.0134  2.3174
  213MOL0     H29357   9.308   6.767   8.164  0.6972  0.6675  0.3591
  213MOL0     H29358   9.525   6.733   8.290 -1.0220 -0.0511 -0.8512
  213MOL0     H29359   9.510   6.854   8.157 -0.1094 -0.7199  0.4374
  213MOL0     H29360   9.703   6.963   8.225 -1.9039  0.9063  1.6836
  213MOL0     H29361   9.736   6.902   8.371  0.8775  0.7644 -1.5262
  213MOL0     H29362   9.720   6.694   8.154 -1.6215  0.5140  0.6774
  213MOL0     H29363   9.799   6.683   8.320 -1.5382 -0.8248 -0.2707
  213MOL0     H29364   9.941   6.879   8.153  3.1194 -0.3342  1.6458
  213MOL0     H29365   9.881   6.746   8.048 -3.5634  1.8645  0.7603
  213MOL0     H29366  10.031   6.670   8.310 -0.1881 -1.7030 -0.8253
  213MOL0     H29367  10.022   6.585   8.161  2.2402 -0.2351 -1.2976
  213MOL0     H29368  10.243   6.673   8.211 -0.8950 -0.1735  0.3363
  213MOL0     H29369  10.172   6.835   8.172 -1.0379 -0.6328  2.1603
  213MOL0     H29370  10.126   6.793   7.955  0.0185  0.1758  0.7761
  213MOL0     H29371  10.146   6.624   7.966 -1.2793  1.0176 -1.3040
  213MOL0     H29372  10.367   6.827   7.989 -1.6038 -0.0244 -2.3311
  213MOL0     H29373  10.349   6.709   7.865  0.4911  1.7125  0.0905
  213MOL0     H29374   9.312   6.985   8.527 -0.8059  2.5731 -1.7543
  213MOL0     H29375   9.071   6.967   8.547  1.4928  0.9221  1.2083
  213MOL0     H29376   8.700   6.726   8.398  0.4711  0.7298 -2.0156
  213MOL0     H29377   8.460   6.693   8.379 -1.0053 -0.1256  1.4397
  213MOL0     H29378   6.670   6.980   8.105 -0.5195 -2.5701 -0.8180
  213MOL0     H29379   6.481   7.117   8.230  0.6430  0.3756  0.0817
  213MOL0     H29380   5.956   6.917   8.356 -0.8239  0.1694 -0.4565
  213MOL0     H29381   5.759   6.968   8.518 -0.1001 -0.9917 -0.2941
  213MOL0     H29382   5.823   7.268   8.756  0.1699 -0.3214 -0.3177
  213MOL0     H29383   5.674   7.222   8.661 -0.5965 -2.0298 -0.5563
  213MOL0     H29384   5.734   7.200   8.958  1.6005  1.5060 -1.0999
  213MOL0     H29385   5.580   7.149   8.890 -1.0970  1.0464 -0.6798
  213MOL0     H29386   5.704   7.438   8.901  0.2590  0.5998 -2.3375
  213MOL0     H29387   5.562   7.388   8.800  0.1268 -0.6187 -0.7942
  213MOL0     H29388   5.552   7.342   9.103 -1.5960 -1.6842  0.5310
  213MOL0     H29389   5.437   7.295   8.983  2.0665 -2.1128 -2.7386
  213MOL0     H29390   5.360   7.711   8.953  1.7727  0.0368 -0.9263
  213MOL0     H29391   6.034   7.129   8.790  0.1783  3.2522 -1.1951
  213MOL0     H29392   6.307   7.164   8.647  1.1536 -0.4599 -2.7130
  213MOL0     H29393   6.238   7.081   8.785 -1.8494  3.0543 -0.4029
  213MOL0     H29394   6.326   6.990   8.665 -1.0902 -0.2171 -1.6688
  214MOL0     O29395   2.692   4.965   6.124 -0.2209  0.5276  0.3996
  214MOL0     C29396   2.577   4.929   6.155 -0.1894 -0.3902  0.1842
  214MOL0     O29397   2.550   4.843   6.262  0.2264 -0.0784 -0.1685
  214MOL0     C29398   2.644   4.819   6.365  0.0122 -0.4166  0.2335
  214MOL0     C29399   2.625   4.840   6.504  0.2930  0.3382 -0.2817
  214MOL0     C29400   2.733   4.815   6.591 -0.3500 -0.6314 -1.0007
  214MOL0     C29401   2.856   4.762   6.558  0.5802  0.2545  0.6821
  214MOL0     O29402   2.951   4.751   6.662  0.1615 -0.1895  0.8604
  214MOL0     C29403   3.071   4.809   6.638  0.2995  0.6833  0.0340
  214MOL0     C29404   3.175   4.702   6.662  0.3697  0.1051 -0.4293
  214MOL0     C29405   3.317   4.749   6.676  0.2790 -0.1755  0.6028
  214MOL0     C29406   3.357   4.850   6.566  0.1845 -0.1333 -0.5356
  214MOL0     C29407   3.505   4.864   6.540  0.2696 -0.6514  0.2504
  214MOL0     C29408   3.588   4.889   6.662 -0.0966  0.3732 -0.5122
  214MOL0     C29409   3.732   4.915   6.612  0.6602 -0.0808 -0.0733
  214MOL0     C29410   3.819   4.935   6.733  0.4420 -0.2347  0.4571
  214MOL0     N29411   3.957   4.937   6.701 -0.6444 -0.5405  0.1817
  214MOL0     C29412   4.032   5.060   6.695  0.5615 -1.1895  0.6479
  214MOL0     C29413   4.145   5.017   6.643  0.2702 -0.6211  0.5343
  214MOL0     C29414   4.252   5.110   6.599 -0.3510 -0.1799 -0.0403
  214MOL0     C29415   4.390   5.039   6.612 -0.0436 -0.0147 -0.4427
  214MOL0     C29416   4.501   5.143   6.618  0.4269 -0.1051  0.5000
  214MOL0     C29417   4.632   5.069   6.637 -0.2800  0.0914 -0.7540
  214MOL0     O29418   4.720   5.168   6.689  0.0157  0.3714 -0.2112
  214MOL0     C29419   4.842   5.126   6.732 -1.2169 -0.4079  0.2833
  214MOL0     C29420   4.920   5.022   6.675 -0.1255 -0.5732  0.8510
  214MOL0     C29421   5.044   4.989   6.720 -0.3573  0.2113  0.0079
  214MOL0     C29422   5.127   4.886   6.655  0.0800 -0.6439  0.1703
  214MOL0     C29423   5.088   5.063   6.837 -0.2596 -0.2626  0.3247
  214MOL0     C29424   5.220   5.032   6.896  0.4478  0.7016  0.5680
  214MOL0     O29425   5.340   5.045   6.819 -0.0819 -0.3150 -0.1274
  214MOL0     C29426   5.455   5.044   6.894 -1.3346  0.8695 -0.5935
  214MOL0     C29427   5.490   4.929   6.975  0.4667 -0.3643 -1.0458
  214MOL0     C29428   5.616   4.922   7.040  0.2870 -0.1257 -0.8907
  214MOL0     C29429   5.709   5.034   7.025 -0.3631 -0.0073  0.1620
  214MOL0     O29430   5.842   5.034   7.080  0.3476 -0.3411 -0.0111
  214MOL0     C29431   5.892   4.915   7.146  0.4598  0.6494  0.7083
  214MOL0     C29432   6.039   4.929   7.189  0.6464  0.4158  0.2029
  214MOL0     C29433   6.078   5.066   7.241 -0.0783  0.3396  0.8412
  214MOL0     C29434   6.228   5.054   7.280 -0.0230  0.4733 -0.2577
  214MOL0     C29435   6.271   5.188   7.331 -0.3330 -0.6155 -0.1799
  214MOL0     C29436   6.419   5.178   7.372  0.3536  0.3428 -0.0864
  214MOL0     C29437   6.461   5.055   7.457  1.1589  0.1936 -0.1501
  214MOL0     C29438   6.617   5.038   7.457 -0.1572 -0.7700  0.5094
  214MOL0    Cl29439   6.702   5.182   7.526 -0.7403 -0.1105 -0.2372
  214MOL0     C29440   5.667   5.148   6.947 -0.2953  0.2044 -0.4683
  214MOL0     C29441   5.552   5.149   6.881  0.6152  0.5355 -0.2240
  214MOL0     O29442   5.213   5.005   7.012 -0.8022 -0.1025 -0.8298
  214MOL0     C29443   5.007   5.168   6.889 -0.6033  0.6820 -0.0859
  214MOL0     C29444   4.879   5.198   6.837  0.7732 -0.1412  0.0398
  214MOL0     N29445   4.141   4.883   6.606 -0.1635  0.1298 -0.1582
  214MOL0     N29446   4.035   4.831   6.653  0.1181  0.1586 -0.0038
  214MOL0     C29447   2.877   4.729   6.420  0.1870 -0.2787 -0.3270
  214MOL0     C29448   2.771   4.757   6.331  0.6627  0.5203  0.4157
  214MOL0     C29449   2.479   4.978   6.058  1.1439  0.4503 -0.2146
  214MOL0     C29450   2.375   4.889   6.017 -1.1276 -0.6546 -0.4169
  214MOL0     C29451   2.264   4.925   5.935 -0.2074  0.2506  0.0443
  214MOL0     C29452   2.268   5.060   5.889  0.3169 -0.0548  0.0595
  214MOL0     O29453   2.177   5.119   5.813 -0.2798  0.4517 -0.6199
  214MOL0     C29454   2.112   5.046   5.711  0.0699 -0.0485  0.0278
  214MOL0     C29455   1.994   5.124   5.652 -0.0794  0.1056  0.4066
  214MOL0     C29456   1.858   5.113   5.731  0.4178  0.3087  0.3906
  214MOL0     C29457   1.756   5.229   5.689 -0.6016 -0.0867  0.6303
  214MOL0     C29458   1.714   5.215   5.544  0.0200  0.8040  0.8236
  214MOL0     C29459   1.694   5.197   5.431 -0.2405  0.6288  0.7371
  214MOL0     C29460   2.379   5.136   5.913  1.3944  0.9875 -0.0006
  214MOL0     C29461   2.483   5.104   5.994 -0.2507  0.7842 -0.7148
  214MOL0     C29462   2.582   5.213   6.012  1.2122 -0.3239 -1.0009
  214MOL0     H29463   2.530   4.876   6.543 -0.6213 -1.6246 -0.5939
  214MOL0     H29464   2.702   4.817   6.695  2.0234 -0.6601 -0.2368
  214MOL0     H29465   3.087   4.895   6.703  0.4074  1.8649 -1.4850
  214MOL0     H29466   3.088   4.840   6.534  4.2666  0.3419  0.4188
  214MOL0     H29467   3.135   4.659   6.755 -2.8534  4.0045  0.2501
  214MOL0     H29468   3.167   4.631   6.580  0.4446 -0.5634  0.1279
  214MOL0     H29469   3.335   4.784   6.778 -2.1239  0.6185  0.8268
  214MOL0     H29470   3.379   4.661   6.660 -2.3523 -2.1661  0.8392
  214MOL0     H29471   3.320   4.830   6.465  0.2506  2.5328 -1.1771
  214MOL0     H29472   3.314   4.951   6.567  2.2031  0.8557 -2.7220
  214MOL0     H29473   3.524   4.945   6.468  0.1183  0.9519  1.9376
  214MOL0     H29474   3.519   4.769   6.487 -1.8481 -1.7664  1.5715
  214MOL0     H29475   3.550   4.974   6.719  1.5958  0.7578  0.1003
  214MOL0     H29476   3.596   4.817   6.744 -0.5830  3.1636  2.1658
  214MOL0     H29477   3.729   5.006   6.552  1.3164  0.0482  0.0908
  214MOL0     H29478   3.773   4.828   6.560  2.7985 -0.1443  1.5688
  214MOL0     H29479   3.774   5.022   6.782  0.2405  0.1489 -0.3965
  214MOL0     H29480   3.800   4.855   6.805 -1.0105  0.3735  0.7990
  214MOL0     H29481   3.996   5.152   6.739 -3.1405 -1.9563 -0.4514
  214MOL0     H29482   4.246   5.203   6.658 -0.6264  0.8962 -1.6946
  214MOL0     H29483   4.241   5.152   6.499 -0.4068  0.3288  0.1741
  214MOL0     H29484   4.388   4.981   6.705 -0.9944 -0.6128 -0.8178
  214MOL0     H29485   4.413   4.976   6.526  1.2112  1.1331 -0.9850
  214MOL0     H29486   4.517   5.209   6.533  0.2260 -0.1205  0.4496
  214MOL0     H29487   4.471   5.210   6.699  0.7158  0.4827  0.1293
  214MOL0     H29488   4.617   4.995   6.717  0.5217  0.2122 -0.4747
  214MOL0     H29489   4.668   5.014   6.550  0.9188 -0.6684  0.1780
  214MOL0     H29490   4.887   4.963   6.590 -0.6438 -1.7568  1.8426
  214MOL0     H29491   5.224   4.930   6.632 -1.1441  2.3885  0.3563
  214MOL0     H29492   5.096   4.855   6.555  2.5943 -2.1493 -0.2183
  214MOL0     H29493   5.141   4.800   6.721 -0.0047  1.8658  3.7326
  214MOL0     H29494   5.414   4.853   6.988 -2.4534  2.3837 -0.8153
  214MOL0     H29495   5.644   4.838   7.102  0.3255 -2.6136 -3.9982
  214MOL0     H29496   5.836   4.910   7.240 -1.2500  2.5724 -0.1384
  214MOL0     H29497   5.864   4.832   7.080  0.9062  3.7714 -3.8385
  214MOL0     H29498   6.065   4.847   7.257 -0.2544  0.1503  0.2550
  214MOL0     H29499   6.100   4.907   7.101 -1.3110 -0.0855 -1.1088
  214MOL0     H29500   6.007   5.094   7.319 -1.5525 -0.1948 -0.2707
  214MOL0     H29501   6.061   5.136   7.159  0.0810  1.8657  2.0638
  214MOL0     H29502   6.299   5.029   7.201  0.0586  0.1542 -0.0853
  214MOL0     H29503   6.231   4.974   7.355 -0.5207  0.0117 -0.7267
  214MOL0     H29504   6.260   5.268   7.259 -3.5612 -0.8089 -0.0337
  214MOL0     H29505   6.210   5.221   7.415 -1.5048  0.0415 -1.2646
  214MOL0     H29506   6.442   5.264   7.436 -1.0411  0.5955  0.1153
  214MOL0     H29507   6.481   5.186   7.283  1.0867 -1.4367  0.2335
  214MOL0     H29508   6.425   4.958   7.422  1.3777  0.7124 -1.9181
  214MOL0     H29509   6.423   5.070   7.559 -0.1637 -1.1885 -0.4161
  214MOL0     H29510   6.651   5.017   7.355  0.5720  3.0673 -0.2227
  214MOL0     H29511   6.649   4.952   7.515  1.3338  0.7087  1.9891
  214MOL0     H29512   5.743   5.225   6.941  0.0789 -0.0867  0.3799
  214MOL0     H29513   5.527   5.233   6.816  2.3168  1.3732  0.1594
  214MOL0     H29514   5.043   5.224   6.975 -1.3896 -0.7718  1.2447
  214MOL0     H29515   4.817   5.280   6.872  0.8765 -0.3552  0.7535
  214MOL0     H29516   2.971   4.701   6.373  0.6996  0.0713  0.4643
  214MOL0     H29517   2.793   4.735   6.226 -0.1998  0.9867  0.1294
  214MOL0     H29518   2.371   4.783   6.042 -3.0989 -0.7868 -1.1651
  214MOL0     H29519   2.191   4.851   5.903  1.8445 -2.6227  1.4586
  214MOL0     H29520   2.184   5.026   5.630 -0.4704 -2.4298  0.0720
  214MOL0     H29521   2.074   4.954   5.757 -2.3332  1.3332  0.9617
  214MOL0     H29522   1.974   5.091   5.549 -2.1584 -1.0725  1.1347
  214MOL0     H29523   2.026   5.228   5.651 -2.8822  1.0521  0.5304
  214MOL0     H29524   1.815   5.015   5.708  0.1391  0.6072 -0.3874
  214MOL0     H29525   1.866   5.126   5.840 -0.3855 -0.9269  0.6158
  214MOL0     H29526   1.816   5.320   5.698 -2.2926  1.0261  1.0834
  214MOL0     H29527   1.671   5.230   5.757 -0.7545 -2.9417  0.6072
  214MOL0     H29528   1.691   5.156   5.332 -0.0824 -0.1212  1.0351
  214MOL0     H29529   2.386   5.234   5.867  2.1887  1.1049  0.3560
  214MOL0     H29530   2.647   5.203   6.099  0.3280 -2.1779 -0.5026
  214MOL0     H29531   2.649   5.212   5.926  1.0453 -0.5958 -1.1299
  214MOL0     H29532   2.530   5.308   6.029  1.5493 -0.1586 -0.8968
  215MOL0     O29533   8.048   1.625  10.891  0.0912  0.0121  0.6654
  215MOL0     C29534   8.012   1.574  10.786  0.3019 -0.2621  0.9405
  215MOL0     O29535   8.049   1.449  10.737 -0.7462  0.4632  0.0780
  215MOL0     C29536   8.152   1.389  10.803  0.0685  0.0019 -0.8823
  215MOL0     C29537   8.276   1.370  10.739 -0.3328  0.4629 -0.3943
  215MOL0     C29538   8.377   1.320  10.820  0.4225  0.5978  0.4275
  215MOL0     C29539   8.367   1.279  10.953  0.1684 -0.0159  0.3894
  215MOL0     O29540   8.474   1.238  11.028 -0.1073 -0.7478  0.1725
  215MOL0     C29541   8.585   1.175  10.960  0.0994  0.0190  0.5143
  215MOL0     C29542   8.670   1.105  11.066 -0.3972  0.3749  0.2146
  215MOL0     C29543   8.795   1.189  11.096 -0.2626  0.1267  0.2914
  215MOL0     C29544   8.857   1.128  11.220 -1.4364  0.3480 -0.4476
  215MOL0     C29545   8.977   1.211  11.269 -0.2727 -0.5646 -0.0250
  215MOL0     C29546   9.100   1.201  11.178 -0.0788  0.4024 -0.5138
  215MOL0     C29547   9.222   1.271  11.226  0.0425 -0.1024  0.3266
  215MOL0     C29548   9.284   1.215  11.355  0.3440 -0.2616 -0.5262
  215MOL0     N29549   9.380   1.308  11.401  0.1073 -0.5715  0.0840
  215MOL0     C29550   9.373   1.401  11.498 -0.0837 -0.2354  0.3084
  215MOL0     C29551   9.492   1.473  11.487  0.4827  0.1639 -0.1842
  215MOL0     C29552   9.522   1.588  11.576 -0.0153  0.3668 -0.6885
  215MOL0     C29553   9.671   1.633  11.561 -0.2674  0.2780  0.0084
  215MOL0     C29554   9.766   1.537  11.638  0.5256 -0.4307 -0.1176
  215MOL0     C29555   9.873   1.621  11.714  0.3449 -1.3541 -0.1912
  215MOL0     O29556   9.987   1.550  11.730 -0.2963 -0.3489  0.5569
  215MOL0     C29557  10.087   1.602  11.808  1.0311 -0.6229 -0.4463
  215MOL0     C29558  10.102   1.743  11.828 -0.1246  0.5335  0.0638
  215MOL0     C29559  10.186   1.795  11.932  0.3187 -0.0410  0.1449
  215MOL0     C29560  10.207   1.948  11.940  0.1644 -0.5774  0.2087
  215MOL0     C29561  10.275   1.701  11.997  0.4532 -0.5443 -0.2127
  215MOL0     C29562  10.377   1.738  12.094 -0.3507  1.4205 -0.2052
  215MOL0     O29563  10.471   1.640  12.126  0.7784 -0.2553 -0.7696
  215MOL0     C29564  10.592   1.677  12.173  0.1306 -0.3233  0.8284
  215MOL0     C29565  10.646   1.581  12.253 -0.5188  0.2474 -0.4793
  215MOL0     C29566  10.778   1.591  12.294  0.3550 -0.0184  0.6007
  215MOL0     C29567  10.856   1.709  12.261  0.5347  0.0226 -0.1122
  215MOL0     O29568  10.990   1.735  12.299 -0.1990  0.6183  0.7109
  215MOL0     C29569  11.043   1.625  12.372 -1.2937  0.7109  0.2887
  215MOL0     C29570  11.185   1.641  12.426 -0.6381  0.2465 -0.9813
  215MOL0     C29571  11.290   1.663  12.307 -0.5275  0.5154  0.5098
  215MOL0     C29572  11.434   1.650  12.371 -0.2491  0.9637 -0.4191
  215MOL0     C29573  11.540   1.710  12.282 -0.0340  0.5089 -1.6152
  215MOL0     C29574  11.681   1.689  12.345 -0.1085  0.0972 -0.6269
  215MOL0     C29575  11.784   1.769  12.263  0.7242  0.0887  0.6925
  215MOL0     C29576  11.928   1.757  12.305  0.1901  0.2724 -0.4044
  215MOL0    Cl29577  11.979   1.842  12.458 -0.0902  0.1713  0.1341
  215MOL0     C29578  10.801   1.808  12.176 -0.4267  0.6652  0.1122
  215MOL0     C29579  10.671   1.793  12.136  0.1231  0.6851  0.5345
  215MOL0     O29580  10.378   1.852  12.133 -0.4820  0.4800 -0.0786
  215MOL0     C29581  10.258   1.562  11.973 -0.5573  0.1506  0.6720
  215MOL0     C29582  10.167   1.513  11.881 -0.7652 -1.8768 -0.1395
  215MOL0     N29583   9.563   1.419  11.382 -0.2287 -0.0804 -0.2541
  215MOL0     N29584   9.493   1.321  11.331 -0.1800 -0.5061 -0.4458
  215MOL0     C29585   8.251   1.304  11.014  0.7170 -0.1796  0.4206
  215MOL0     C29586   8.145   1.358  10.945 -0.4843  0.3547  0.1605
  215MOL0     C29587   7.924   1.658  10.699 -1.4743 -0.2620 -0.3965
  215MOL0     C29588   7.934   1.660  10.557 -0.3770 -0.8367 -0.1635
  215MOL0     C29589   7.830   1.710  10.466  0.1101 -0.3374  0.0453
  215MOL0     C29590   7.722   1.776  10.527  0.1705  0.8861  0.8908
  215MOL0     O29591   7.624   1.824  10.449  0.5382 -1.0736  0.7366
  215MOL0     C29592   7.497   1.864  10.509 -0.4468 -0.1330 -0.3700
  215MOL0     C29593   7.390   1.839  10.399 -0.4434  0.2150  0.2156
  215MOL0     C29594   7.248   1.870  10.433  0.3092  0.0892  0.0265
  215MOL0     C29595   7.140   1.794  10.348 -0.6920 -0.1745 -0.1462
  215MOL0     C29596   7.142   1.819  10.195 -0.0400  0.4300 -0.8961
  215MOL0     C29597   7.170   1.846  10.081 -0.2435  0.7851  0.1743
  215MOL0     C29598   7.721   1.787  10.668  0.1748  0.0431  1.0862
  215MOL0     C29599   7.811   1.727  10.757  0.3179  0.7105  0.2591
  215MOL0     C29600   7.784   1.727  10.907  0.2584  0.3695  0.1575
  215MOL0     H29601   8.294   1.385  10.633 -0.0193 -0.1837 -0.4386
  215MOL0     H29602   8.469   1.307  10.764  0.8790  0.5231  1.1734
  215MOL0     H29603   8.646   1.252  10.910  0.4328 -1.5736 -1.6476
  215MOL0     H29604   8.546   1.097  10.894  1.8380 -0.8195  0.4323
  215MOL0     H29605   8.605   1.085  11.152 -0.0900 -0.4394  0.2656
  215MOL0     H29606   8.691   1.002  11.036  4.8978  0.3305  3.0370
  215MOL0     H29607   8.861   1.194  11.009  0.6707  1.8055  1.0410
  215MOL0     H29608   8.758   1.290  11.121 -4.0561 -1.4414  1.8891
  215MOL0     H29609   8.781   1.134  11.299 -0.3799  3.7336  0.4931
  215MOL0     H29610   8.881   1.022  11.205  0.2849  0.8827 -1.7410
  215MOL0     H29611   8.995   1.172  11.369 -3.5203 -0.7104  0.6380
  215MOL0     H29612   8.938   1.313  11.279 -1.0193 -0.7106 -1.1937
  215MOL0     H29613   9.125   1.096  11.159  1.6184  0.3567  1.5302
  215MOL0     H29614   9.090   1.254  11.083  3.7527  0.8276 -0.8258
  215MOL0     H29615   9.189   1.375  11.237  0.4867  1.0892 -5.9140
  215MOL0     H29616   9.291   1.275  11.141  0.6487  0.7966  0.8401
  215MOL0     H29617   9.211   1.205  11.437  1.9100 -0.7964  0.8665
  215MOL0     H29618   9.327   1.115  11.346  1.9670 -0.1241  3.4287
  215MOL0     H29619   9.286   1.430  11.555 -0.8965  0.9618 -1.4668
  215MOL0     H29620   9.503   1.567  11.681 -1.7888  2.4611 -0.5167
  215MOL0     H29621   9.456   1.672  11.552 -0.6213  0.1218  0.0802
  215MOL0     H29622   9.704   1.636  11.457 -0.8785 -0.0199 -0.2016
  215MOL0     H29623   9.681   1.735  11.598  2.1245 -0.2275  0.9704
  215MOL0     H29624   9.714   1.478  11.714 -1.6887 -0.2074 -1.3580
  215MOL0     H29625   9.815   1.478  11.559  0.4007  0.5951 -0.9870
  215MOL0     H29626   9.892   1.718  11.668 -3.0117 -0.2509  0.4850
  215MOL0     H29627   9.840   1.644  11.815  1.1458  0.4032 -0.3030
  215MOL0     H29628  10.034   1.817  11.787 -2.8280 -1.2881  1.0000
  215MOL0     H29629  10.311   1.970  11.914 -0.8351  1.9728 -2.0407
  215MOL0     H29630  10.196   1.981  12.044 -1.1764  0.0109 -0.0994
  215MOL0     H29631  10.144   2.008  11.875  0.9451  3.5031  2.8264
  215MOL0     H29632  10.574   1.502  12.270  1.9935 -2.1762 -0.5412
  215MOL0     H29633  10.813   1.506  12.352  0.3479  1.3480  2.7214
  215MOL0     H29634  10.978   1.604  12.458 -0.9977  2.4125  0.9891
  215MOL0     H29635  11.044   1.540  12.305  1.4346  0.3647  0.6556
  215MOL0     H29636  11.188   1.715  12.506  0.6039 -0.6994 -0.1129
  215MOL0     H29637  11.210   1.545  12.472  0.1210 -0.0026 -1.8903
  215MOL0     H29638  11.284   1.756  12.250  1.5409 -0.3787 -1.2996
  215MOL0     H29639  11.289   1.584  12.231 -0.6707  0.0078  1.0293
  215MOL0     H29640  11.461   1.551  12.410 -1.8335  0.2218 -1.1390
  215MOL0     H29641  11.425   1.712  12.461 -1.7539  1.4619 -0.8844
  215MOL0     H29642  11.547   1.660  12.185 -0.4986 -1.9209 -0.4903
  215MOL0     H29643  11.520   1.817  12.270  1.9402  0.9669 -1.1262
  215MOL0     H29644  11.707   1.583  12.350  0.2881  0.2552  1.3720
  215MOL0     H29645  11.670   1.727  12.447 -2.1087  0.5121 -0.9569
  215MOL0     H29646  11.763   1.877  12.254 -1.6308 -0.1376  2.3914
  215MOL0     H29647  11.780   1.728  12.162  1.8017  1.0320  0.2484
  215MOL0     H29648  11.973   1.801  12.216 -3.2896 -1.9811 -3.6184
  215MOL0     H29649  11.972   1.657  12.316 -0.8952 -0.2176 -0.2971
  215MOL0     H29650  10.857   1.897  12.151 -0.5241  0.9173  0.7714
  215MOL0     H29651  10.635   1.867  12.065  2.4645 -1.2875 -2.9434
  215MOL0     H29652  10.317   1.491  12.031  1.1920 -1.1675 -2.4530
  215MOL0     H29653  10.158   1.405  11.876 -1.3595 -1.8865  0.8607
  215MOL0     H29654   8.236   1.286  11.120  0.5401  1.6761  0.7441
  215MOL0     H29655   8.054   1.369  11.004  2.1048  0.7824  4.5588
  215MOL0     H29656   8.014   1.598  10.519 -1.6354 -2.1315 -0.8003
  215MOL0     H29657   7.834   1.701  10.358 -2.6503  1.5139 -0.3236
  215MOL0     H29658   7.482   1.796  10.594  2.0908 -2.4949 -1.6226
  215MOL0     H29659   7.505   1.967  10.543 -0.1108 -0.2682 -0.0300
  215MOL0     H29660   7.401   1.733  10.377  0.2978  0.5038 -0.8916
  215MOL0     H29661   7.411   1.899  10.310 -0.6620  0.2260  0.1720
  215MOL0     H29662   7.222   1.840  10.535  0.2086  2.2350  0.6640
  215MOL0     H29663   7.226   1.977  10.424  0.0195  0.0174 -0.1493
  215MOL0     H29664   7.039   1.821  10.382 -0.7971 -0.6744 -0.0530
  215MOL0     H29665   7.152   1.688  10.371  2.6602 -0.2873 -1.8292
  215MOL0     H29666   7.203   1.851   9.980  2.2353 -0.6624  0.8274
  215MOL0     H29667   7.635   1.844  10.702  0.9603  2.3323 -0.5246
  215MOL0     H29668   7.690   1.776  10.934  0.6716  0.3832  1.6787
  215MOL0     H29669   7.799   1.626  10.947  0.1743  0.9287  1.6882
  215MOL0     H29670   7.860   1.793  10.950  0.1798  1.1190 -0.8296
  216MOL0     O29671   0.016   0.405   1.096 -0.1025  0.1880  0.1522
  216MOL0     C29672  -0.002   0.452   1.210 -0.5765 -0.3566  0.2571
  216MOL0     O29673   0.090   0.470   1.310 -0.0999  0.0036  0.7015
  216MOL0     C29674   0.224   0.451   1.278 -0.2886 -0.5783  0.2961
  216MOL0     C29675   0.312   0.550   1.223 -0.5197  0.2950 -0.1359
  216MOL0     C29676   0.452   0.527   1.191  0.9061 -0.1632 -0.2680
  216MOL0     C29677   0.502   0.398   1.211  0.0575 -0.5747 -0.1448
  216MOL0     O29678   0.627   0.380   1.149 -0.7740  0.4905 -0.5731
  216MOL0     C29679   0.691   0.249   1.169 -0.5237 -0.7573  0.1265
  216MOL0     C29680   0.828   0.248   1.117  0.2943  0.0479 -0.5802
  216MOL0     C29681   0.840   0.229   0.969 -0.6186  0.4543  0.4363
  216MOL0     C29682   0.982   0.179   0.940  0.7260  0.1928 -0.0232
  216MOL0     C29683   1.035   0.227   0.798 -0.0754  0.1899  0.0348
  216MOL0     C29684   1.183   0.206   0.784  0.1201  0.5388 -0.8012
  216MOL0     C29685   1.238   0.177   0.649  0.7850 -0.4297  0.8119
  216MOL0     C29686   1.202   0.282   0.548 -0.0175 -0.1217 -0.5761
  216MOL0     N29687   1.226   0.237   0.409 -0.9608 -1.2382 -0.1116
  216MOL0     C29688   1.204   0.112   0.356 -1.1011 -0.6743  0.1226
  216MOL0     C29689   1.242   0.127   0.223 -0.2676 -0.2060 -1.3574
  216MOL0     C29690   1.222   0.021   0.115 -0.3410  0.6596  0.3463
  216MOL0     C29691   1.301  -0.111   0.136  0.8744  0.0600  0.1473
  216MOL0     C29692   1.451  -0.091   0.175  0.5495 -0.6253  0.3546
  216MOL0     C29693   1.533  -0.213   0.187 -0.2547  0.5370  0.3510
  216MOL0     O29694   1.454  -0.318   0.252  0.0685  0.2102  0.2660
  216MOL0     C29695   1.518  -0.441   0.283 -0.5432 -0.4981  0.6716
  216MOL0     C29696   1.453  -0.541   0.354 -0.3673 -0.6621 -0.5017
  216MOL0     C29697   1.512  -0.660   0.398  1.0055 -0.3006 -0.4295
  216MOL0     C29698   1.437  -0.753   0.481 -0.3511 -0.2723 -0.1745
  216MOL0     C29699   1.638  -0.703   0.349  0.6438 -0.3381  0.0495
  216MOL0     C29700   1.701  -0.836   0.378  0.1279  0.0177  0.3568
  216MOL0     O29701   1.768  -0.879   0.274 -0.0141  0.2414  0.3818
  216MOL0     C29702   1.829  -0.999   0.280  0.1834 -0.7989 -0.3187
  216MOL0     C29703   1.957  -1.000   0.326 -0.0390  0.7050  0.0385
  216MOL0     C29704   2.024  -1.121   0.338  0.0263 -0.0890 -0.7335
  216MOL0     C29705   1.964  -1.244   0.300 -0.8129  0.3266 -0.0926
  216MOL0     O29706   2.027  -1.359   0.325  0.1360  0.2352  1.4655
  216MOL0     C29707   1.960  -1.482   0.291 -0.8541  0.7888 -0.3310
  216MOL0     C29708   2.043  -1.604   0.324 -0.1792 -0.3731 -0.3935
  216MOL0     C29709   2.093  -1.617   0.465  1.1842  0.0890  0.0318
  216MOL0     C29710   1.981  -1.609   0.564 -0.7455  0.2116  0.7719
  216MOL0     C29711   2.028  -1.612   0.708 -0.6266  0.6892  0.4265
  216MOL0     C29712   2.097  -1.486   0.758 -0.7565 -0.4420  0.2246
  216MOL0     C29713   2.059  -1.355   0.698  1.0665  0.3284 -0.7799
  216MOL0     C29714   2.088  -1.240   0.786  0.0991  0.5945  0.5525
  216MOL0    Cl29715   2.254  -1.189   0.764  0.2115 -0.4388  0.2729
  216MOL0     C29716   1.830  -1.242   0.251 -0.1699 -0.0027  0.0230
  216MOL0     C29717   1.766  -1.118   0.241 -0.1082 -0.3797  0.5694
  216MOL0     O29718   1.681  -0.901   0.480 -0.2931 -0.1640  0.5941
  216MOL0     C29719   1.706  -0.602   0.269 -0.2003  1.3896  0.0729
  216MOL0     C29720   1.650  -0.475   0.245  0.2234 -0.2168  0.7362
  216MOL0     N29721   1.284   0.252   0.202  0.1862  0.7442  0.0694
  216MOL0     N29722   1.263   0.321   0.305  0.5173  0.5651 -1.4512
  216MOL0     C29723   0.416   0.295   1.253 -0.2072 -0.1941 -0.5308
  216MOL0     C29724   0.282   0.327   1.284  0.2710  1.1151  1.1632
  216MOL0     C29725  -0.138   0.490   1.249  0.1734 -0.3472  0.2797
  216MOL0     C29726  -0.166   0.537   1.374  0.8649 -0.8296 -0.2851
  216MOL0     C29727  -0.296   0.588   1.411  0.2376  0.0771 -0.0636
  216MOL0     C29728  -0.398   0.554   1.336 -0.1624 -0.0954  0.7426
  216MOL0     O29729  -0.523   0.597   1.380 -0.3354  0.5104  0.0689
  216MOL0     C29730  -0.628   0.508   1.347  0.1685  0.5464 -0.1901
  216MOL0     C29731  -0.757   0.544   1.425  0.1222 -0.5632  0.1525
  216MOL0     C29732  -0.858   0.430   1.408 -0.3240  0.2944  0.1301
  216MOL0     C29733  -0.997   0.441   1.478  0.2584  0.1815 -0.4811
  216MOL0     C29734  -1.096   0.498   1.396  0.2803 -0.2805  0.8795
  216MOL0     C29735  -1.181   0.543   1.310  0.1487 -0.4442 -0.4325
  216MOL0     C29736  -0.383   0.494   1.207  1.0738 -1.1169 -0.7049
  216MOL0     C29737  -0.253   0.477   1.158 -0.5242 -0.1421  0.9359
  216MOL0     C29738  -0.245   0.418   1.019 -0.0563 -0.1400 -0.5554
  216MOL0     H29739   0.274   0.651   1.208  2.6763  1.8069  0.9385
  216MOL0     H29740   0.512   0.609   1.152  2.6364 -1.5712 -0.6743
  216MOL0     H29741   0.642   0.172   1.110 -0.6678 -0.4416 -0.1721
  216MOL0     H29742   0.693   0.212   1.272  0.2719  1.3920  0.9411
  216MOL0     H29743   0.885   0.336   1.147 -0.7116  0.0754  1.4113
  216MOL0     H29744   0.873   0.164   1.171 -1.4648  1.5660  3.7666
  216MOL0     H29745   0.770   0.149   0.947 -1.5274  1.3779 -0.1615
  216MOL0     H29746   0.814   0.323   0.918 -0.5032  0.2470 -0.0044
  216MOL0     H29747   1.052   0.237   1.001  1.0128  0.1891 -0.3425
  216MOL0     H29748   0.992   0.073   0.966 -1.2286  0.2101  0.9526
  216MOL0     H29749   1.012   0.333   0.781 -0.5522  0.0560 -0.1754
  216MOL0     H29750   0.983   0.177   0.716  2.0864 -0.9325 -0.7054
  216MOL0     H29751   1.217   0.304   0.819 -1.8243  0.7012  0.8067
  216MOL0     H29752   1.225   0.130   0.850  1.5621  1.1745 -0.9486
  216MOL0     H29753   1.198   0.081   0.617 -2.0434  0.8962  0.0625
  216MOL0     H29754   1.347   0.171   0.660  1.1984  3.0092 -0.0323
  216MOL0     H29755   1.099   0.316   0.555  0.2617  0.4956  0.9212
  216MOL0     H29756   1.260   0.375   0.559 -1.6735  1.4092 -3.5266
  216MOL0     H29757   1.173   0.020   0.405 -1.8818 -0.9091 -0.7936
  216MOL0     H29758   1.232   0.056   0.012 -1.2344 -2.0676 -0.7647
  216MOL0     H29759   1.114   0.002   0.109 -0.4107  1.2948 -0.4838
  216MOL0     H29760   1.255  -0.159   0.223  0.6071 -0.2763 -0.1771
  216MOL0     H29761   1.293  -0.180   0.051  1.6809 -3.5502  2.7684
  216MOL0     H29762   1.490  -0.036   0.089 -0.8555  1.4071  0.9627
  216MOL0     H29763   1.476  -0.040   0.268 -0.4796 -2.7086  1.8595
  216MOL0     H29764   1.560  -0.244   0.086  0.1848  2.2511 -0.0943
  216MOL0     H29765   1.621  -0.194   0.248  0.1906  1.2823 -0.4994
  216MOL0     H29766   1.355  -0.518   0.394  1.4622 -0.3755  4.4562
  216MOL0     H29767   1.486  -0.777   0.576 -3.1368 -1.5820  1.0750
  216MOL0     H29768   1.412  -0.846   0.430 -2.4245  1.4128 -2.4530
  216MOL0     H29769   1.347  -0.700   0.513 -0.3468 -0.3297 -0.0643
  216MOL0     H29770   2.010  -0.909   0.351 -0.7918  0.9272  0.8342
  216MOL0     H29771   2.123  -1.107   0.380 -1.4094 -1.5680  3.7038
  216MOL0     H29772   1.862  -1.497   0.336  0.3689 -0.4332  2.1541
  216MOL0     H29773   1.961  -1.489   0.182  1.1597  0.7705 -0.3513
  216MOL0     H29774   1.987  -1.695   0.301 -0.8968 -0.0510  0.0265
  216MOL0     H29775   2.132  -1.605   0.261  2.8600 -0.0613  3.4740
  216MOL0     H29776   2.168  -1.538   0.471  2.6558 -0.8782 -3.2365
  216MOL0     H29777   2.140  -1.716   0.465 -1.5657 -1.3406  1.1106
  216MOL0     H29778   1.905  -1.687   0.553 -0.1184 -0.1773 -0.9449
  216MOL0     H29779   1.925  -1.516   0.554  0.3421  0.6802 -1.6685
  216MOL0     H29780   1.935  -1.621   0.764 -0.3242  1.8158  1.1525
  216MOL0     H29781   2.085  -1.701   0.735 -1.1901  0.0590 -0.3850
  216MOL0     H29782   2.203  -1.505   0.743  0.0868  1.4196  2.9701
  216MOL0     H29783   2.077  -1.490   0.866  2.7159 -0.4448  0.9845
  216MOL0     H29784   1.950  -1.351   0.699  1.0661  4.0774  1.2221
  216MOL0     H29785   2.105  -1.340   0.600  4.8926  0.7243  0.8755
  216MOL0     H29786   2.082  -1.259   0.894  0.7017 -2.6102  0.1336
  216MOL0     H29787   2.019  -1.159   0.764 -1.4173 -0.8906 -0.4170
  216MOL0     H29788   1.773  -1.328   0.218  1.8159 -1.9068  1.2650
  216MOL0     H29789   1.664  -1.121   0.203  0.0896  0.1704 -0.0207
  216MOL0     H29790   1.796  -0.622   0.212  0.1617 -2.9169  1.7657
  216MOL0     H29791   1.719  -0.405   0.199  0.1246  0.9289  2.2652
  216MOL0     H29792   0.443   0.190   1.264 -3.9396 -1.6043 -2.6886
  216MOL0     H29793   0.219   0.244   1.313  1.9083 -0.7307 -0.2297
  216MOL0     H29794  -0.089   0.550   1.449 -0.4494  1.9257  0.7451
  216MOL0     H29795  -0.319   0.635   1.506  0.5747 -0.0929  0.1061
  216MOL0     H29796  -0.647   0.511   1.239  2.1837  0.3181 -0.5993
  216MOL0     H29797  -0.592   0.405   1.351  0.9636  0.8497  1.5757
  216MOL0     H29798  -0.793   0.640   1.388  2.2588 -0.0442 -0.7177
  216MOL0     H29799  -0.731   0.571   1.528  4.9351  2.0124 -1.4368
  216MOL0     H29800  -0.885   0.438   1.302  2.9617 -0.0233 -0.8451
  216MOL0     H29801  -0.806   0.335   1.423  4.9839  2.7159 -0.7045
  216MOL0     H29802  -0.982   0.500   1.569 -1.1881 -3.9990  2.7472
  216MOL0     H29803  -1.034   0.341   1.500 -0.8436  1.0237  1.7243
  216MOL0     H29804  -1.247   0.604   1.252  2.0149  0.1510 -2.0355
  216MOL0     H29805  -0.468   0.467   1.146  1.3543  1.4834 -2.4496
  216MOL0     H29806  -0.167   0.464   0.957 -0.1984 -1.2851 -1.6139
  216MOL0     H29807  -0.217   0.314   1.032 -0.9588 -0.1617  1.5375
  216MOL0     H29808  -0.339   0.403   0.964  1.8689 -3.0008 -3.3603
  217MOL0     O29809   2.883   0.868   0.298 -1.0223  0.5534 -0.3673
  217MOL0     C29810   2.916   0.899   0.184 -0.0096  0.4263 -0.2728
  217MOL0     O29811   3.042   0.909   0.134 -0.2079  0.9001 -0.3216
  217MOL0     C29812   3.150   0.892   0.221 -0.1854  0.2833 -0.2957
  217MOL0     C29813   3.171   0.986   0.324  0.2961  0.3473  0.6807
  217MOL0     C29814   3.286   0.982   0.397 -0.3434 -0.4630  0.5898
  217MOL0     C29815   3.379   0.886   0.384 -0.0465 -0.4171 -0.0955
  217MOL0     O29816   3.497   0.865   0.454  0.1970  0.0407 -0.2467
  217MOL0     C29817   3.547   0.970   0.543  0.6886  0.3709  0.0024
  217MOL0     C29818   3.685   0.934   0.593 -0.6188 -0.5947  0.1820
  217MOL0     C29819   3.779   0.951   0.479  0.7622  0.5423 -0.8040
  217MOL0     C29820   3.918   0.899   0.518 -0.1238 -0.3593  0.3305
  217MOL0     C29821   4.016   0.928   0.403  0.6876 -0.3077 -1.1937
  217MOL0     C29822   4.142   0.849   0.436  0.6861 -0.1931  0.2913
  217MOL0     C29823   4.252   0.889   0.340  0.9355 -0.1920  0.7023
  217MOL0     C29824   4.371   0.795   0.352  0.5240 -0.0442 -0.5533
  217MOL0     N29825   4.496   0.847   0.288  0.1735  0.2033  0.4827
  217MOL0     C29826   4.599   0.905   0.358 -0.1863  0.2796  0.0664
  217MOL0     C29827   4.690   0.941   0.272 -0.5448  1.4931  0.5028
  217MOL0     C29828   4.828   1.001   0.298  0.3790 -0.6047  0.6975
  217MOL0     C29829   4.932   0.912   0.347 -0.1065  0.2461  0.1067
  217MOL0     C29830   4.945   0.918   0.502 -0.8910 -0.2219 -0.2504
  217MOL0     C29831   5.036   0.798   0.537 -0.2971 -0.3796 -0.5665
  217MOL0     O29832   5.055   0.807   0.681 -0.1269  0.6188  0.1781
  217MOL0     C29833   5.136   0.708   0.741  0.1895 -0.0645  0.1037
  217MOL0     C29834   5.143   0.707   0.878  0.6298  0.1026  0.1847
  217MOL0     C29835   5.234   0.628   0.947  0.0405 -0.5325 -0.8865
  217MOL0     C29836   5.223   0.622   1.098  0.6434  0.2966 -0.1574
  217MOL0     C29837   5.317   0.539   0.881  0.4364  0.1009  0.5966
  217MOL0     C29838   5.414   0.445   0.942  1.1409 -0.0002 -0.6176
  217MOL0     O29839   5.376   0.349   1.035 -0.1145 -0.3117 -1.1572
  217MOL0     C29840   5.243   0.302   1.042 -0.0643  0.3809 -0.0346
  217MOL0     C29841   5.173   0.253   0.928 -0.0706 -0.9062 -0.2188
  217MOL0     C29842   5.043   0.214   0.934 -0.4847 -0.0977 -0.1976
  217MOL0     C29843   4.984   0.196   1.056  0.3211 -0.5461  0.1184
  217MOL0     O29844   4.849   0.169   1.057  0.3129  0.3599 -0.4962
  217MOL0     C29845   4.779   0.188   1.175 -0.2848 -0.8759 -0.1560
  217MOL0     C29846   4.645   0.122   1.170 -0.8122  0.7127  0.5139
  217MOL0     C29847   4.553   0.142   1.293 -0.5917 -0.2469 -0.4578
  217MOL0     C29848   4.501   0.286   1.310  0.1115 -0.1165 -0.4498
  217MOL0     C29849   4.420   0.311   1.445 -0.8303  0.7184  0.5049
  217MOL0     C29850   4.503   0.280   1.569 -0.2938  0.4732 -0.0271
  217MOL0     C29851   4.419   0.270   1.690 -0.3889 -0.0883  0.2275
  217MOL0     C29852   4.404   0.402   1.765 -0.0273  0.2114  0.0284
  217MOL0    Cl29853   4.306   0.515   1.668 -0.5348  0.0236  0.0424
  217MOL0     C29854   5.066   0.224   1.173 -0.4694 -0.0056  0.1234
  217MOL0     C29855   5.191   0.284   1.170 -0.0173  0.0816  0.7119
  217MOL0     O29856   5.521   0.459   0.900 -0.2367 -0.0814 -0.7440
  217MOL0     C29857   5.324   0.546   0.741  0.8301  0.3921  1.5709
  217MOL0     C29858   5.223   0.629   0.671  0.2395 -0.1625  0.0504
  217MOL0     N29859   4.653   0.892   0.140  0.1853 -0.3352  1.0529
  217MOL0     N29860   4.541   0.836   0.153  0.2591 -0.2701  0.0041
  217MOL0     C29861   3.351   0.791   0.285 -0.7250  0.2542  0.9832
  217MOL0     C29862   3.241   0.791   0.201 -1.1512  0.8206 -0.1238
  217MOL0     C29863   2.821   0.987   0.109 -0.1971 -0.1271  0.6679
  217MOL0     C29864   2.876   1.074   0.009 -0.8805 -0.4510 -0.2172
  217MOL0     C29865   2.794   1.157  -0.063  0.2572  0.3506 -0.2557
  217MOL0     C29866   2.655   1.160  -0.052 -0.3874  0.2306 -0.8721
  217MOL0     O29867   2.569   1.238  -0.126 -0.1331  0.1537  0.2795
  217MOL0     C29868   2.632   1.316  -0.231  1.2785  0.6128 -0.4448
  217MOL0     C29869   2.549   1.412  -0.319 -0.2447  0.0203  0.7306
  217MOL0     C29870   2.476   1.514  -0.231 -0.4094  0.0324 -0.1920
  217MOL0     C29871   2.390   1.601  -0.324 -0.3508  0.4777  0.0233
  217MOL0     C29872   2.339   1.715  -0.245 -0.5661  0.0963 -0.6414
  217MOL0     C29873   2.302   1.802  -0.171  0.9644 -0.0141  1.2332
  217MOL0     C29874   2.602   1.057   0.035 -0.0178  0.2743 -0.1219
  217MOL0     C29875   2.680   0.974   0.113 -0.1625  1.4302  0.1181
  217MOL0     C29876   2.605   0.851   0.172 -0.2685  0.3900  0.1105
  217MOL0     H29877   3.097   1.063   0.340  0.9981  0.8221  1.7861
  217MOL0     H29878   3.296   1.058   0.474 -0.9397  0.9276 -0.6572
  217MOL0     H29879   3.484   0.962   0.632 -0.1336 -1.7833 -0.7144
  217MOL0     H29880   3.545   1.068   0.494  1.5381 -0.0141 -0.8208
  217MOL0     H29881   3.719   1.003   0.671 -2.4840 -0.9235  1.3539
  217MOL0     H29882   3.686   0.833   0.634 -0.3251 -0.6910 -0.0545
  217MOL0     H29883   3.741   0.893   0.394  1.7702 -0.3379 -0.6703
  217MOL0     H29884   3.784   1.056   0.448 -0.2428  0.2259 -2.1460
  217MOL0     H29885   3.953   0.951   0.608 -1.0343 -1.9642  1.6736
  217MOL0     H29886   3.914   0.790   0.530  0.1448 -0.5417 -1.1257
  217MOL0     H29887   4.039   1.035   0.404 -0.5090  0.0029  1.0608
  217MOL0     H29888   3.971   0.914   0.304 -0.0723  1.9198 -1.2098
  217MOL0     H29889   4.171   0.864   0.540  0.3912  0.4512  0.2881
  217MOL0     H29890   4.125   0.743   0.418  2.0330  0.0859 -3.4759
  217MOL0     H29891   4.287   0.987   0.375 -1.4132  0.4630  1.3956
  217MOL0     H29892   4.221   0.900   0.235  0.8975 -0.5875  0.6701
  217MOL0     H29893   4.385   0.781   0.460  0.9659  2.6608 -0.1956
  217MOL0     H29894   4.347   0.700   0.305 -1.7477 -0.2721  0.8806
  217MOL0     H29895   4.602   0.922   0.465  0.4577  2.5361 -0.2536
  217MOL0     H29896   4.816   1.093   0.355 -1.2163  1.3230 -2.4541
  217MOL0     H29897   4.868   1.042   0.205  0.5511  2.4722  2.0154
  217MOL0     H29898   4.913   0.811   0.311  1.8044 -0.5329  1.0918
  217MOL0     H29899   5.022   0.948   0.296 -1.8605  0.7718 -2.8143
  217MOL0     H29900   4.987   1.014   0.533 -0.4466 -1.0352  1.8188
  217MOL0     H29901   4.851   0.902   0.556 -0.6534 -1.9876 -0.3050
  217MOL0     H29902   4.975   0.709   0.518 -3.9269  2.3473 -3.3746
  217MOL0     H29903   5.127   0.812   0.479 -0.1642 -2.2902 -0.8707
  217MOL0     H29904   5.073   0.775   0.925 -2.1757 -1.0028 -2.0607
  217MOL0     H29905   5.124   0.587   1.131  1.4705 -0.0310  2.1390
  217MOL0     H29906   5.231   0.721   1.144  1.9855  0.6338 -1.0574
  217MOL0     H29907   5.301   0.559   1.140 -0.0158  0.9907  2.2409
  217MOL0     H29908   5.230   0.255   0.836  1.8733  0.3022  0.9417
  217MOL0     H29909   4.984   0.209   0.843 -0.2546 -1.5828 -0.2939
  217MOL0     H29910   4.837   0.152   1.261 -0.1875 -0.6921 -0.1448
  217MOL0     H29911   4.764   0.296   1.181  0.8583 -0.5694 -2.1216
  217MOL0     H29912   4.591   0.149   1.079  0.1827  1.3509  0.0995
  217MOL0     H29913   4.658   0.014   1.159  0.8825  0.9649 -0.2982
  217MOL0     H29914   4.609   0.106   1.379  0.2780  1.8533 -0.0947
  217MOL0     H29915   4.469   0.073   1.278  0.1086 -0.7719 -2.2052
  217MOL0     H29916   4.444   0.316   1.222  0.1172  1.7646  0.1398
  217MOL0     H29917   4.583   0.359   1.311 -0.9282  1.2433  3.0690
  217MOL0     H29918   4.384   0.415   1.445 -2.8363  0.0687  0.0238
  217MOL0     H29919   4.331   0.247   1.444  1.0912 -2.1641 -1.6456
  217MOL0     H29920   4.580   0.351   1.601 -0.3854  0.7289 -0.3793
  217MOL0     H29921   4.552   0.184   1.548 -1.5075 -0.5539  1.5325
  217MOL0     H29922   4.456   0.197   1.762  0.1855  1.3595  1.4655
  217MOL0     H29923   4.316   0.241   1.665  0.4079 -2.3452 -0.6587
  217MOL0     H29924   4.500   0.454   1.774 -0.3423  0.6706  0.9565
  217MOL0     H29925   4.363   0.385   1.865  0.9387  0.3693  0.4598
  217MOL0     H29926   5.027   0.204   1.272 -2.0024 -3.3922 -0.9903
  217MOL0     H29927   5.245   0.294   1.263 -0.7245 -0.1166  1.1500
  217MOL0     H29928   5.387   0.478   0.686 -1.1045 -0.2165 -0.0257
  217MOL0     H29929   5.228   0.623   0.563 -0.4003  1.4403 -0.0941
  217MOL0     H29930   3.418   0.706   0.279 -1.4680 -0.3108  0.5887
  217MOL0     H29931   3.221   0.709   0.133  1.4500  1.8760 -2.3253
  217MOL0     H29932   2.981   1.100  -0.006 -0.4464 -2.3409 -0.7995
  217MOL0     H29933   2.844   1.218  -0.138 -2.3557  0.2524 -2.2519
  217MOL0     H29934   2.713   1.370  -0.180  0.7501  0.3262  0.7026
  217MOL0     H29935   2.676   1.244  -0.301 -1.3149 -1.4568 -0.0633
  217MOL0     H29936   2.473   1.367  -0.384  1.7653 -1.4130 -0.7595
  217MOL0     H29937   2.625   1.458  -0.383 -1.4706 -0.1745 -0.9388
  217MOL0     H29938   2.417   1.459  -0.156  0.9556 -2.5689 -0.9258
  217MOL0     H29939   2.548   1.565  -0.166 -1.0719 -0.2265  0.7856
  217MOL0     H29940   2.314   1.528  -0.356  0.5105 -0.1021 -0.7616
  217MOL0     H29941   2.452   1.627  -0.410  0.5827 -1.7386 -0.0647
  217MOL0     H29942   2.258   1.867  -0.097 -2.5421 -3.1497  2.2643
  217MOL0     H29943   2.495   1.044   0.031  0.1903 -1.4019 -1.3530
  217MOL0     H29944   2.657   0.816   0.261 -0.1571  0.2909  0.0063
  217MOL0     H29945   2.504   0.882   0.199 -0.3670 -0.6540  1.0234
  217MOL0     H29946   2.596   0.768   0.102  1.0263 -0.2929  0.7078
  218MOL0     O29947   5.225  11.016   2.290  0.0220  0.4908 -0.8996
  218MOL0     C29948   5.192  10.903   2.264  0.3003 -0.5709 -0.1890
  218MOL0     O29949   5.248  10.821   2.175 -0.3119  0.0252 -0.0535
  218MOL0     C29950   5.333  10.882   2.085  0.7314  0.8066 -0.6817
  218MOL0     C29951   5.456  10.931   2.132  0.7089  0.4141 -0.5303
  218MOL0     C29952   5.540  10.995   2.042 -0.6294  1.1314 -0.8193
  218MOL0     C29953   5.509  11.004   1.907  0.2669  0.6609 -1.1568
  218MOL0     O29954   5.603  11.052   1.825 -0.4529  0.0351 -0.0625
  218MOL0     C29955   5.604  11.047   1.682  1.0231 -0.3372  0.3091
  218MOL0     C29956   5.510  11.157   1.624 -0.8254  0.4744  0.1255
  218MOL0     C29957   5.539  11.171   1.467  0.1048 -0.3293 -0.6387
  218MOL0     C29958   5.672  11.231   1.413  0.6016  0.9714  0.7377
  218MOL0     C29959   5.710  11.353   1.491 -0.3761  0.7575  0.7338
  218MOL0     C29960   5.828  11.417   1.421  0.0663  0.7582 -0.9140
  218MOL0     C29961   5.878  11.536   1.507  0.3086 -0.5545  0.4664
  218MOL0     C29962   5.974  11.627   1.422  0.7277  0.4153  0.0147
  218MOL0     N29963   6.039  11.731   1.505 -0.9380  0.0459  0.1737
  218MOL0     C29964   5.990  11.860   1.531  0.3826  0.5990  0.1175
  218MOL0     C29965   6.089  11.923   1.599  0.0149  0.0463  0.5801
  218MOL0     C29966   6.085  12.065   1.656  0.0198 -0.0471  0.5280
  218MOL0     C29967   6.191  12.144   1.585  0.3900  0.0194 -0.2994
  218MOL0     C29968   6.220  12.274   1.666 -0.2616  0.4523  0.3840
  218MOL0     C29969   6.354  12.350   1.631 -1.0652 -0.2958 -0.5195
  218MOL0     O29970   6.366  12.384   1.496 -0.7025 -0.1854 -0.2786
  218MOL0     C29971   6.471  12.467   1.452 -0.3918 -0.2459  0.1328
  218MOL0     C29972   6.459  12.519   1.327 -0.1889 -0.7735  0.0895
  218MOL0     C29973   6.563  12.593   1.261 -0.4722  0.5608  0.2011
  218MOL0     C29974   6.534  12.637   1.114 -0.9297 -0.4418  0.8465
  218MOL0     C29975   6.675  12.627   1.327 -0.6332 -1.0816 -0.7032
  218MOL0     C29976   6.790  12.713   1.283 -0.7173  0.1669  1.2950
  218MOL0     O29977   6.904  12.707   1.352 -0.1801  1.0530 -0.5059
  218MOL0     C29978   7.010  12.784   1.325  1.3205 -0.0115 -0.3122
  218MOL0     C29979   7.016  12.908   1.394 -0.4141  0.6853  0.2054
  218MOL0     C29980   7.115  12.997   1.364  0.0797 -0.5520  0.9018
  218MOL0     C29981   7.206  12.970   1.258 -0.0619  0.4163  0.2412
  218MOL0     O29982   7.315  13.044   1.225  0.1328 -0.3780 -0.5161
  218MOL0     C29983   7.317  13.178   1.283 -0.5418 -1.0058  0.9086
  218MOL0     C29984   7.420  13.263   1.205  0.1214 -0.4939  0.5253
  218MOL0     C29985   7.567  13.233   1.237 -0.5442 -0.6594  0.4405
  218MOL0     C29986   7.664  13.314   1.150  0.0114 -0.1109 -0.0860
  218MOL0     C29987   7.807  13.284   1.195 -0.8735 -0.2320  0.2641
  218MOL0     C29988   7.905  13.384   1.126 -0.9121  0.2065 -0.9812
  218MOL0     C29989   7.900  13.521   1.197  0.1483  0.9199 -0.2382
  218MOL0     C29990   7.947  13.635   1.102  0.3416 -0.1801 -0.0918
  218MOL0    Cl29991   7.972  13.777   1.193  0.3752  0.1042 -0.3835
  218MOL0     C29992   7.202  12.845   1.195  0.4560 -0.4403  0.2426
  218MOL0     C29993   7.102  12.746   1.224  0.1127 -0.4170  0.2956
  218MOL0     O29994   6.769  12.794   1.192  0.4094 -0.1405  0.0397
  218MOL0     C29995   6.689  12.571   1.462 -0.1692 -0.4723  0.6536
  218MOL0     C29996   6.588  12.493   1.523  0.3251 -0.2603  0.5450
  218MOL0     N29997   6.192  11.835   1.612 -0.1050 -0.3155 -0.1105
  218MOL0     N29998   6.165  11.729   1.545 -0.2985  0.1764  0.0214
  218MOL0     C29999   5.391  10.940   1.861 -0.2906  0.2135 -0.0928
  218MOL0     C30000   5.303  10.875   1.950 -0.9610 -0.7052  0.9053
  218MOL0     C30001   5.078  10.841   2.333  0.1574 -0.6679 -0.4134
  218MOL0     C30002   4.985  10.780   2.248 -0.3051  0.0372 -0.3618
  218MOL0     C30003   4.866  10.723   2.290  0.6045  0.3942 -0.7363
  218MOL0     C30004   4.835  10.736   2.422  0.2476  0.3710 -0.1517
  218MOL0     O30005   4.716  10.682   2.454  0.3606 -0.0233  0.4919
  218MOL0     C30006   4.686  10.685   2.596 -0.1357  0.0788  0.1003
  218MOL0     C30007   4.541  10.627   2.628  0.1658  0.7009 -0.0554
  218MOL0     C30008   4.425  10.716   2.570 -0.6669 -0.1892 -0.1078
  218MOL0     C30009   4.285  10.685   2.627 -0.2562  1.5206 -0.3673
  218MOL0     C30010   4.243  10.558   2.565  0.0598 -0.4715  0.2174
  218MOL0     C30011   4.213  10.448   2.506 -0.3362  0.1484 -0.0046
  218MOL0     C30012   4.932  10.786   2.513 -0.2206  0.5616 -0.0810
  218MOL0     C30013   5.049  10.844   2.470 -0.5913  0.1125 -0.2617
  218MOL0     C30014   5.148  10.906   2.561 -0.2356 -1.3088  0.0269
  218MOL0     H30015   5.480  10.921   2.237 -2.0362 -1.1195  0.0589
  218MOL0     H30016   5.634  11.040   2.073 -0.3432 -0.8178  1.3854
  218MOL0     H30017   5.565  10.954   1.641  0.4583  0.0377 -0.0268
  218MOL0     H30018   5.701  11.042   1.632  0.4336  4.1283 -1.8083
  218MOL0     H30019   5.406  11.127   1.638  0.1151 -3.5225 -0.3826
  218MOL0     H30020   5.525  11.255   1.671 -0.3806  0.0392  0.9034
  218MOL0     H30021   5.511  11.080   1.413 -2.2419  0.3287 -0.6646
  218MOL0     H30022   5.473  11.251   1.432 -1.7952 -1.2250  0.7085
  218MOL0     H30023   5.749  11.155   1.427  0.7091  1.0408  0.5285
  218MOL0     H30024   5.671  11.250   1.305  0.9105  0.1951  0.5953
  218MOL0     H30025   5.737  11.318   1.592  0.4538 -3.9731 -0.8649
  218MOL0     H30026   5.633  11.429   1.485 -0.2781  0.8254  0.3079
  218MOL0     H30027   5.917  11.355   1.408  0.4284  0.9693  0.3888
  218MOL0     H30028   5.801  11.454   1.322  4.5393 -0.4754 -2.8247
  218MOL0     H30029   5.919  11.506   1.604 -2.1782  1.7318  2.3691
  218MOL0     H30030   5.790  11.595   1.531 -1.5303 -2.9806  0.0932
  218MOL0     H30031   6.059  11.571   1.382  1.3340 -0.3007  2.1547
  218MOL0     H30032   5.922  11.676   1.339  0.6075 -0.5823 -0.5242
  218MOL0     H30033   5.890  11.900   1.517 -0.0013 -0.0002  1.0816
  218MOL0     H30034   6.103  12.047   1.763 -0.2147 -2.2136  0.2402
  218MOL0     H30035   5.986  12.110   1.650 -0.6069 -1.4416 -0.0727
  218MOL0     H30036   6.276  12.075   1.589 -0.6867 -1.3104  1.5199
  218MOL0     H30037   6.178  12.172   1.480  0.3547  0.8382 -0.0764
  218MOL0     H30038   6.143  12.349   1.643 -0.7910  0.1620  1.1493
  218MOL0     H30039   6.204  12.249   1.771 -2.4632  0.5153  0.1144
  218MOL0     H30040   6.368  12.438   1.694  0.9220  1.2133 -2.8887
  218MOL0     H30041   6.440  12.284   1.645 -1.0264  0.2348  2.2997
  218MOL0     H30042   6.364  12.499   1.277 -0.8436  4.0799 -1.0738
  218MOL0     H30043   6.464  12.564   1.073  1.4575 -2.2762 -0.2188
  218MOL0     H30044   6.624  12.640   1.052 -2.7857  2.2132 -2.0662
  218MOL0     H30045   6.500  12.741   1.107  2.2868  0.7456  1.0597
  218MOL0     H30046   6.947  12.938   1.471  1.1145 -0.3133  2.0488
  218MOL0     H30047   7.132  13.086   1.425 -1.5474 -0.2389  0.9531
  218MOL0     H30048   7.220  13.227   1.266  0.2448 -0.7692 -4.7535
  218MOL0     H30049   7.339  13.177   1.390  0.7283  0.1802  0.6908
  218MOL0     H30050   7.404  13.246   1.098 -0.4156  1.2615  0.2891
  218MOL0     H30051   7.411  13.366   1.240  2.0559 -0.2963  0.5613
  218MOL0     H30052   7.580  13.125   1.228  0.4394 -0.7281  2.2781
  218MOL0     H30053   7.585  13.256   1.342 -0.5837 -0.0473  0.3187
  218MOL0     H30054   7.637  13.418   1.171 -1.5102 -0.3262 -0.8539
  218MOL0     H30055   7.641  13.288   1.046 -1.1871 -0.1822  0.1782
  218MOL0     H30056   7.821  13.296   1.303  4.0095  2.2165 -0.3671
  218MOL0     H30057   7.842  13.182   1.182  3.9930  0.9547  1.8490
  218MOL0     H30058   7.889  13.392   1.017 -0.4659  0.4602 -1.0301
  218MOL0     H30059   8.006  13.345   1.136 -0.2170  1.8272 -1.3490
  218MOL0     H30060   7.957  13.517   1.290  0.6881 -2.3265 -0.5961
  218MOL0     H30061   7.794  13.546   1.211 -0.8406 -0.5526 -3.8818
  218MOL0     H30062   7.866  13.641   1.029  0.3017  1.7440  0.0794
  218MOL0     H30063   8.043  13.611   1.056  2.2642  0.3240  3.3477
  218MOL0     H30064   7.277  12.812   1.124  0.8733 -3.4642  1.8997
  218MOL0     H30065   7.090  12.661   1.159  1.1749  1.4345 -2.5100
  218MOL0     H30066   6.777  12.588   1.525 -0.1612 -0.2195  0.5767
  218MOL0     H30067   6.598  12.458   1.626  0.1971 -1.2554  0.2297
  218MOL0     H30068   5.377  10.945   1.753  0.0509  0.0415 -0.1475
  218MOL0     H30069   5.216  10.821   1.912 -0.0693 -1.3942 -0.2531
  218MOL0     H30070   5.008  10.779   2.142 -1.9241 -0.3523 -0.7232
  218MOL0     H30071   4.807  10.683   2.208  3.6486 -0.5749 -2.6129
  218MOL0     H30072   4.765  10.639   2.657  1.2722 -1.1854 -2.5358
  218MOL0     H30073   4.670  10.789   2.624 -0.7529 -0.0437  0.2270
  218MOL0     H30074   4.522  10.611   2.734  2.1335 -0.6577  0.1487
  218MOL0     H30075   4.531  10.525   2.589 -1.5639  0.9692 -0.3880
  218MOL0     H30076   4.458  10.816   2.599 -0.0122 -0.6201  0.6891
  218MOL0     H30077   4.433  10.699   2.463  0.2235 -1.6839  0.1612
  218MOL0     H30078   4.215  10.767   2.608 -1.4406  0.6807  0.2065
  218MOL0     H30079   4.299  10.668   2.734  0.0912  0.2609 -0.6018
  218MOL0     H30080   4.201  10.356   2.454  1.7888 -0.2980  0.1919
  218MOL0     H30081   4.918  10.792   2.620  1.1369 -0.0451  0.1472
  218MOL0     H30082   5.250  10.887   2.527  0.0375 -0.4516  0.3274
  218MOL0     H30083   5.126  11.013   2.565 -0.6454 -1.2742 -2.1475
  218MOL0     H30084   5.136  10.871   2.664  1.7114  4.1126  2.4840
  219MOL0     O30085   8.868   0.210   0.606  0.5020 -0.1276  0.1087
  219MOL0     C30086   8.900   0.218   0.724 -0.3111 -0.3019  0.5400
  219MOL0     O30087   9.027   0.180   0.778 -0.4523  0.4788  0.0184
  219MOL0     C30088   9.127   0.134   0.698  0.1913 -0.1234 -0.3201
  219MOL0     C30089   9.215   0.032   0.742 -0.6817  0.2667  0.4351
  219MOL0     C30090   9.328   0.002   0.665  0.4620  0.4093 -1.1362
  219MOL0     C30091   9.362   0.071   0.542 -0.2826 -0.4635 -1.2406
  219MOL0     O30092   9.484   0.026   0.490 -0.3125  0.7078  0.3552
  219MOL0     C30093   9.516   0.065   0.356 -0.3430  0.1545 -0.0510
  219MOL0     C30094   9.663   0.017   0.327  1.1205  0.3279  0.7318
  219MOL0     C30095   9.717   0.046   0.183  0.0552 -0.6150 -0.3052
  219MOL0     C30096   9.838  -0.041   0.164  0.7008 -0.0143 -1.1376
  219MOL0     C30097   9.902  -0.058   0.026 -0.3276  0.2739 -0.0081
  219MOL0     C30098   9.985   0.066   0.007 -0.9605  0.6379 -0.5943
  219MOL0     C30099  10.095   0.095   0.111 -0.1682 -0.2290  0.1474
  219MOL0     C30100  10.208  -0.012   0.107  0.0127 -0.1446  0.7258
  219MOL0     N30101  10.269  -0.020  -0.024  0.2737  0.3207  0.4693
  219MOL0     C30102  10.378   0.048  -0.063 -0.0378 -0.4180 -0.3843
  219MOL0     C30103  10.412   0.011  -0.196 -0.2245 -0.0070  0.5813
  219MOL0     C30104  10.540   0.052  -0.280  0.1794 -0.1047  0.3232
  219MOL0     C30105  10.489   0.160  -0.368 -0.2143 -0.3356 -0.2264
  219MOL0     C30106  10.614   0.223  -0.442  0.5724 -0.0949 -0.0792
  219MOL0     C30107  10.696   0.126  -0.528 -0.3992 -0.2041  1.0992
  219MOL0     O30108  10.793   0.212  -0.585 -0.1369  0.0293  0.0947
  219MOL0     C30109  10.919   0.154  -0.619  0.3573  0.4369  0.6271
  219MOL0     C30110  10.940   0.017  -0.632  0.5761 -0.4681  0.7202
  219MOL0     C30111  11.066  -0.040  -0.672 -0.0254  0.8035 -0.5178
  219MOL0     C30112  11.076  -0.193  -0.695  0.0668 -1.1397 -0.6689
  219MOL0     C30113  11.176   0.046  -0.683 -0.7994 -0.0158  0.5312
  219MOL0     C30114  11.312  -0.002  -0.711  0.2771 -0.5213  0.2581
  219MOL0     O30115  11.405   0.096  -0.749 -0.2882 -0.1296  0.1577
  219MOL0     C30116  11.523   0.073  -0.819  0.3175  1.1013  0.7288
  219MOL0     C30117  11.536  -0.001  -0.940  0.1285 -0.7623  0.4043
  219MOL0     C30118  11.651  -0.013  -1.013  0.5083  0.3662  0.0480
  219MOL0     C30119  11.763   0.056  -0.958  0.4732 -0.5237 -0.1913
  219MOL0     O30120  11.884   0.071  -1.028  0.1146  0.9513  0.1272
  219MOL0     C30121  11.932  -0.044  -1.101  0.7389 -0.6665 -0.2604
  219MOL0     C30122  12.077  -0.010  -1.135 -0.1299  0.0749  0.0714
  219MOL0     C30123  12.134  -0.067  -1.271  0.0154 -0.3788 -0.1438
  219MOL0     C30124  12.280  -0.041  -1.286 -0.7252  0.4927 -0.7610
  219MOL0     C30125  12.343  -0.101  -1.414 -0.0490  0.7641  0.7051
  219MOL0     C30126  12.497  -0.089  -1.399  0.1772  0.7070  0.5322
  219MOL0     C30127  12.579  -0.127  -1.527 -0.3249 -0.1159  0.2855
  219MOL0     C30128  12.724  -0.060  -1.510 -0.2469  0.6017  0.8026
  219MOL0    Cl30129  12.803  -0.060  -1.669  0.2037 -0.4001  0.0002
  219MOL0     C30130  11.755   0.129  -0.836  0.3997 -0.2297  0.3936
  219MOL0     C30131  11.633   0.128  -0.763 -0.2455 -1.0057 -0.1264
  219MOL0     O30132  11.338  -0.116  -0.686  0.4359 -0.6920 -0.5171
  219MOL0     C30133  11.153   0.182  -0.662 -0.2060  0.2419 -0.1010
  219MOL0     C30134  11.029   0.238  -0.640  0.4892 -0.4238 -0.2930
  219MOL0     N30135  10.304  -0.062  -0.237  0.7352 -0.2349 -0.1746
  219MOL0     N30136  10.224  -0.078  -0.137  0.0683 -0.6515 -0.5855
  219MOL0     C30137   9.283   0.178   0.512 -0.1290  0.0992  1.1525
  219MOL0     C30138   9.165   0.211   0.587 -0.0017 -0.6791  0.1276
  219MOL0     C30139   8.787   0.249   0.820 -0.0423 -0.1937 -0.1524
  219MOL0     C30140   8.801   0.205   0.956  0.9669  0.5702  0.0027
  219MOL0     C30141   8.701   0.222   1.053  0.4068 -0.3772 -0.1314
  219MOL0     C30142   8.577   0.275   1.024 -0.2762  0.1154  0.2064
  219MOL0     O30143   8.490   0.276   1.129  0.0400 -0.1342 -0.0288
  219MOL0     C30144   8.351   0.315   1.110  0.9834  0.3351 -0.4081
  219MOL0     C30145   8.282   0.340   1.248 -0.1504 -0.0522 -0.0479
  219MOL0     C30146   8.269   0.209   1.328  0.3320  0.5217 -0.0876
  219MOL0     C30147   8.253   0.221   1.482  0.8748  0.1630 -0.0453
  219MOL0     C30148   8.160   0.324   1.536 -0.0425 -0.4804  0.4091
  219MOL0     C30149   8.085   0.403   1.588  0.1845  0.1277 -0.2136
  219MOL0     C30150   8.561   0.317   0.886 -0.4663  0.5868 -0.2936
  219MOL0     C30151   8.654   0.297   0.787 -0.3387 -0.3969 -0.4329
  219MOL0     C30152   8.627   0.346   0.648 -0.1717 -0.2548 -0.8530
  219MOL0     H30153   9.192  -0.019   0.835 -2.6272 -0.6877 -0.5077
  219MOL0     H30154   9.396  -0.074   0.702  0.8555  0.4518 -1.7584
  219MOL0     H30155   9.506   0.174   0.348  1.6048  0.2330 -2.4748
  219MOL0     H30156   9.449   0.017   0.284 -0.5592  1.2428 -0.5994
  219MOL0     H30157   9.736   0.060   0.395  1.0367 -1.4918  2.0553
  219MOL0     H30158   9.664  -0.092   0.342 -0.6449  0.0549 -0.7217
  219MOL0     H30159   9.641   0.038   0.104  0.8603 -2.1758 -0.9504
  219MOL0     H30160   9.750   0.151   0.184  1.5766 -0.9739 -3.3190
  219MOL0     H30161   9.907  -0.014   0.244 -0.8110  1.0082 -0.1293
  219MOL0     H30162   9.800  -0.142   0.185 -0.6742  0.9550  1.4048
  219MOL0     H30163   9.828  -0.063  -0.054 -0.8547 -2.3479  0.5344
  219MOL0     H30164   9.955  -0.154   0.028 -2.0030 -0.7023  1.7818
  219MOL0     H30165  10.023   0.060  -0.096 -1.4417 -2.1279 -0.6828
  219MOL0     H30166   9.916   0.150   0.013  1.2562  2.4392  2.4839
  219MOL0     H30167  10.061   0.103   0.214  0.4450  1.5437  0.2523
  219MOL0     H30168  10.142   0.192   0.092  1.0189 -0.5710  1.1954
  219MOL0     H30169  10.280   0.025   0.181 -1.3442  1.6111  1.2383
  219MOL0     H30170  10.176  -0.108   0.149  1.4101 -0.9731 -0.0280
  219MOL0     H30171  10.434   0.126  -0.012 -1.9229  3.1103 -3.2453
  219MOL0     H30172  10.582  -0.033  -0.334 -2.1794 -0.6188 -0.8228
  219MOL0     H30173  10.608   0.092  -0.204  1.5182 -0.7675 -0.5042
  219MOL0     H30174  10.422   0.111  -0.439  0.2886 -1.4105  0.0225
  219MOL0     H30175  10.440   0.241  -0.313  0.6633 -0.2261  0.4211
  219MOL0     H30176  10.577   0.293  -0.517  2.1258  0.6027 -0.2283
  219MOL0     H30177  10.670   0.276  -0.365 -2.4477  0.0094  2.2749
  219MOL0     H30178  10.754   0.060  -0.462  0.2559  0.3214  1.0629
  219MOL0     H30179  10.637   0.071  -0.601  1.0730  0.4620 -0.6576
  219MOL0     H30180  10.855  -0.049  -0.624 -1.5737  1.8490 -1.0807
  219MOL0     H30181  10.974  -0.232  -0.691 -0.3081 -0.4018 -2.2143
  219MOL0     H30182  11.146  -0.252  -0.635 -0.4837 -3.4831 -2.2082
  219MOL0     H30183  11.123  -0.210  -0.792  0.4947  2.3506 -1.2297
  219MOL0     H30184  11.457  -0.057  -0.989 -0.5446 -0.0330  0.6186
  219MOL0     H30185  11.654  -0.079  -1.099 -1.1441 -0.7702  0.8217
  219MOL0     H30186  11.903  -0.137  -1.051 -1.5503 -0.0711 -0.3488
  219MOL0     H30187  11.880  -0.052  -1.197  2.3469 -3.4753 -1.0109
  219MOL0     H30188  12.082   0.099  -1.139  3.0781  0.1681  2.3117
  219MOL0     H30189  12.148  -0.030  -1.054 -1.6852  1.2012  1.7901
  219MOL0     H30190  12.079  -0.025  -1.356 -2.9349 -2.7675  0.4260
  219MOL0     H30191  12.130  -0.176  -1.268  0.1790 -0.4141 -0.8840
  219MOL0     H30192  12.330  -0.088  -1.201 -1.9109  0.3088 -0.1460
  219MOL0     H30193  12.305   0.065  -1.277 -0.0996  0.3280 -0.5250
  219MOL0     H30194  12.313  -0.206  -1.427  0.0145  0.9206 -1.0056
  219MOL0     H30195  12.314  -0.062  -1.512  0.8543  1.2028  0.6000
  219MOL0     H30196  12.525  -0.159  -1.320  1.2630  0.0339 -0.4136
  219MOL0     H30197  12.515   0.012  -1.361  1.6951 -0.5535  3.5469
  219MOL0     H30198  12.528  -0.098  -1.619  1.3622 -2.5193 -1.5485
  219MOL0     H30199  12.579  -0.236  -1.539 -2.5667  0.0245 -1.7011
  219MOL0     H30200  12.784  -0.118  -1.440  0.0715 -1.2439 -0.9016
  219MOL0     H30201  12.704   0.042  -1.478 -1.6898  0.9259 -0.9374
  219MOL0     H30202  11.853   0.165  -0.804  1.6306 -0.9506 -2.2666
  219MOL0     H30203  11.623   0.186  -0.672  1.8844 -0.8869  0.0808
  219MOL0     H30204  11.234   0.250  -0.684  0.8327 -1.4122 -1.6706
  219MOL0     H30205  11.021   0.345  -0.624  1.6524 -0.7685  3.6523
  219MOL0     H30206   9.313   0.246   0.433  0.0951  0.6831  1.7303
  219MOL0     H30207   9.115   0.301   0.553  1.6778 -0.8129 -3.1245
  219MOL0     H30208   8.882   0.136   0.981 -1.2307 -3.2601 -2.4816
  219MOL0     H30209   8.718   0.191   1.155 -2.9092 -1.4142  0.2209
  219MOL0     H30210   8.344   0.408   1.054  0.6320  1.4172  1.3694
  219MOL0     H30211   8.297   0.236   1.057  0.8430  1.6259 -2.2773
  219MOL0     H30212   8.182   0.377   1.222 -0.1460 -0.0077 -0.0013
  219MOL0     H30213   8.338   0.423   1.291 -0.7586  1.8380 -2.6572
  219MOL0     H30214   8.188   0.159   1.274 -0.6302  2.4584 -0.5597
  219MOL0     H30215   8.360   0.152   1.311  2.1324  2.6704  1.7680
  219MOL0     H30216   8.357   0.240   1.512  1.7553  0.0688 -2.7439
  219MOL0     H30217   8.233   0.122   1.524 -0.2254  1.4956  2.8462
  219MOL0     H30218   8.033   0.486   1.630  0.2923  0.4015 -0.6187
  219MOL0     H30219   8.468   0.364   0.857 -1.6755 -1.5728 -0.0951
  219MOL0     H30220   8.639   0.271   0.569  3.7467 -1.9772  1.1377
  219MOL0     H30221   8.525   0.385   0.650 -0.6808 -1.5069  1.5152
  219MOL0     H30222   8.699   0.426   0.626  2.7954 -1.8175  2.2774
  220MOL0     O30223   2.316   5.219   0.740  1.0224 -0.2040 -0.5809
  220MOL0     C30224   2.250   5.313   0.782 -0.5810  0.5453  0.3512
  220MOL0     O30225   2.298   5.433   0.818 -0.4104 -0.5468  0.0614
  220MOL0     C30226   2.433   5.452   0.783 -0.0475 -0.8532  0.7623
  220MOL0     C30227   2.509   5.526   0.870 -0.3680  0.0057 -1.0505
  220MOL0     C30228   2.636   5.571   0.845  0.3414  0.7093  0.3016
  220MOL0     C30229   2.697   5.548   0.710  0.1270  0.4167 -1.0426
  220MOL0     O30230   2.823   5.583   0.667  0.2343 -0.0030  0.3527
  220MOL0     C30231   2.927   5.616   0.768  0.8447 -0.3227  0.3104
  220MOL0     C30232   2.991   5.497   0.842 -0.3108 -0.8143  0.0798
  220MOL0     C30233   3.112   5.565   0.918 -0.1508  0.3087  0.2832
  220MOL0     C30234   3.181   5.464   1.011 -0.4406 -0.2741 -0.6384
  220MOL0     C30235   3.299   5.525   1.077 -0.1754 -0.6503 -0.1583
  220MOL0     C30236   3.346   5.459   1.206  0.3099  0.3007  1.0002
  220MOL0     C30237   3.488   5.452   1.251 -0.5926  0.0247  0.3166
  220MOL0     C30238   3.541   5.573   1.313 -0.1668 -0.0347  0.0122
  220MOL0     N30239   3.677   5.553   1.354  1.1290  0.9275  0.3674
  220MOL0     C30240   3.768   5.521   1.259  0.3060  1.0290  0.0485
  220MOL0     C30241   3.885   5.507   1.332 -0.3344 -0.9513 -0.4254
  220MOL0     C30242   4.014   5.458   1.268  0.0852  0.4708  0.5696
  220MOL0     C30243   4.140   5.482   1.354  0.1920 -0.2878 -1.0210
  220MOL0     C30244   4.268   5.417   1.297 -0.1279 -0.1408 -0.9019
  220MOL0     C30245   4.383   5.444   1.383  0.7189 -0.1083  0.1993
  220MOL0     O30246   4.450   5.560   1.325 -0.7507 -0.5705  0.4129
  220MOL0     C30247   4.571   5.604   1.379  0.7239  0.7026  1.4365
  220MOL0     C30248   4.620   5.724   1.338 -0.9876  0.1562  0.0523
  220MOL0     C30249   4.745   5.776   1.381 -0.4507  0.8477 -0.2575
  220MOL0     C30250   4.792   5.910   1.330  0.3841  0.5542 -0.6329
  220MOL0     C30251   4.832   5.691   1.461  0.6284 -0.1225 -0.3485
  220MOL0     C30252   4.960   5.729   1.528  0.0697 -0.2526  1.4194
  220MOL0     O30253   5.060   5.628   1.514 -0.9889 -0.2743 -0.2827
  220MOL0     C30254   5.188   5.668   1.556 -0.0181 -0.4033  0.1542
  220MOL0     C30255   5.268   5.742   1.472 -0.0308  0.4116  0.6892
  220MOL0     C30256   5.403   5.766   1.498  0.3080 -0.2699  0.3926
  220MOL0     C30257   5.456   5.730   1.616 -0.6155 -0.4313  0.3111
  220MOL0     O30258   5.590   5.736   1.651  0.8772  0.3227 -0.0789
  220MOL0     C30259   5.670   5.832   1.587  0.5030 -0.4900 -0.0238
  220MOL0     C30260   5.818   5.824   1.629 -0.2346 -0.2458  0.1165
  220MOL0     C30261   5.895   5.704   1.568 -0.7461 -0.1638  0.4660
  220MOL0     C30262   6.046   5.722   1.585 -0.2549 -0.3037  0.1371
  220MOL0     C30263   6.134   5.617   1.511 -0.0890  0.8097 -0.9223
  220MOL0     C30264   6.286   5.594   1.561 -0.6326 -0.2379  0.2107
  220MOL0     C30265   6.350   5.727   1.614  0.9567  0.0846  0.5571
  220MOL0     C30266   6.489   5.722   1.672  0.0473 -0.3209 -0.1371
  220MOL0    Cl30267   6.503   5.621   1.825  0.1349  0.1905 -0.1913
  220MOL0     C30268   5.377   5.654   1.707 -0.2846  0.1573  0.9541
  220MOL0     C30269   5.245   5.623   1.671  0.1806 -0.3247 -0.2485
  220MOL0     O30270   4.976   5.845   1.559 -0.4866  0.4641 -0.4463
  220MOL0     C30271   4.781   5.568   1.497 -0.1210  0.3121 -0.5022
  220MOL0     C30272   4.655   5.528   1.459  0.9586 -0.1213 -0.1635
  220MOL0     N30273   3.848   5.543   1.471 -0.3276  0.0473  0.3419
  220MOL0     N30274   3.725   5.566   1.483  0.1993  0.4656  0.6370
  220MOL0     C30275   2.621   5.465   0.626 -0.2476 -0.2977 -0.8735
  220MOL0     C30276   2.491   5.419   0.657 -0.5314  0.2967 -0.2488
  220MOL0     C30277   2.107   5.274   0.789 -0.1027  0.7139 -0.2860
  220MOL0     C30278   2.073   5.136   0.804 -0.7811 -0.5354 -0.4549
  220MOL0     C30279   1.941   5.100   0.830 -0.8173  0.1160  0.6845
  220MOL0     C30280   1.844   5.192   0.858 -0.7916  0.3021 -0.3520
  220MOL0     O30281   1.715   5.163   0.886 -0.1705 -0.2503 -0.1901
  220MOL0     C30282   1.661   5.033   0.868  0.0866 -0.1916 -0.5815
  220MOL0     C30283   1.513   5.038   0.846  1.3825 -0.2107 -1.0134
  220MOL0     C30284   1.455   4.896   0.864  1.1017 -0.4170 -0.5199
  220MOL0     C30285   1.308   4.898   0.830 -0.5811  0.2790 -0.0763
  220MOL0     C30286   1.235   4.974   0.925  0.6580 -0.4150  0.1192
  220MOL0     C30287   1.173   5.048   1.009 -0.3165 -0.0045  0.0223
  220MOL0     C30288   1.872   5.323   0.826 -0.1542 -0.4593  0.9595
  220MOL0     C30289   2.001   5.368   0.780 -0.7132 -0.2242 -0.2220
  220MOL0     C30290   2.015   5.515   0.734  0.0098 -0.5516 -0.1681
  220MOL0     H30291   2.454   5.565   0.955 -0.7992  0.5277 -1.5553
  220MOL0     H30292   2.699   5.629   0.911  2.8189  1.5513 -2.5381
  220MOL0     H30293   2.892   5.684   0.846 -0.7454 -1.0571  0.2683
  220MOL0     H30294   3.002   5.670   0.709 -1.8530  1.8895 -1.3476
  220MOL0     H30295   2.919   5.455   0.914 -2.0324  0.7371 -0.6556
  220MOL0     H30296   3.038   5.428   0.771  2.5087  0.5509  0.5020
  220MOL0     H30297   3.181   5.605   0.844 -0.4106 -0.5011 -0.4177
  220MOL0     H30298   3.076   5.648   0.979 -2.5670 -1.4485  1.4622
  220MOL0     H30299   3.108   5.420   1.080  0.6263  1.9186  2.1005
  220MOL0     H30300   3.227   5.389   0.946 -1.5007 -0.7112 -0.9021
  220MOL0     H30301   3.282   5.633   1.083 -1.9889 -0.8858 -0.5329
  220MOL0     H30302   3.386   5.513   1.012  1.5709 -0.9858  2.0955
  220MOL0     H30303   3.288   5.506   1.287 -2.1741  1.3380 -1.2083
  220MOL0     H30304   3.313   5.356   1.191  2.7528 -0.3203 -0.6134
  220MOL0     H30305   3.550   5.430   1.164 -2.0838  1.7999 -1.2693
  220MOL0     H30306   3.499   5.365   1.317  4.4189 -0.9110 -1.3488
  220MOL0     H30307   3.543   5.652   1.238 -2.5081  0.0927  0.0117
  220MOL0     H30308   3.479   5.597   1.400 -0.5556 -2.0336  0.3473
  220MOL0     H30309   3.754   5.487   1.157  3.7479 -0.1016 -0.1910
  220MOL0     H30310   4.019   5.524   1.180  0.6907 -0.8236 -0.3984
  220MOL0     H30311   4.010   5.354   1.235  1.3982  0.4666  0.3479
  220MOL0     H30312   4.154   5.590   1.366 -0.8301 -0.2644  0.2333
  220MOL0     H30313   4.111   5.436   1.449  0.3542  4.0150  1.3557
  220MOL0     H30314   4.251   5.309   1.301  0.2297 -0.2266 -1.5092
  220MOL0     H30315   4.285   5.457   1.197  0.8991  0.0407 -0.6673
  220MOL0     H30316   4.349   5.454   1.486  1.2800 -1.4731  0.5330
  220MOL0     H30317   4.455   5.362   1.374  0.6662 -0.0514 -0.8871
  220MOL0     H30318   4.560   5.777   1.264  0.8463  1.8603 -0.3162
  220MOL0     H30319   4.724   5.950   1.254 -0.1226 -0.9879 -1.0318
  220MOL0     H30320   4.897   5.908   1.302  0.1338  2.0030 -1.7784
  220MOL0     H30321   4.796   5.987   1.407 -1.3182 -1.1535  1.3038
  220MOL0     H30322   5.222   5.794   1.389  0.9811 -1.5163 -1.1569
  220MOL0     H30323   5.455   5.829   1.427 -0.2609 -0.0559  0.1575
  220MOL0     H30324   5.669   5.802   1.482 -0.5398  3.9140 -1.5037
  220MOL0     H30325   5.640   5.937   1.590  0.3204 -0.4975 -1.2815
  220MOL0     H30326   5.859   5.922   1.600 -0.5437  0.2194  1.2007
  220MOL0     H30327   5.819   5.826   1.739  3.0755 -1.6025  0.2416
  220MOL0     H30328   5.877   5.690   1.461  0.7472 -3.0401  0.4891
  220MOL0     H30329   5.866   5.611   1.618 -3.2402 -0.2636 -0.9965
  220MOL0     H30330   6.066   5.726   1.693 -0.4631 -0.5858  0.1875
  220MOL0     H30331   6.070   5.820   1.542 -1.2233 -0.7119 -1.4302
  220MOL0     H30332   6.079   5.522   1.522 -0.2810  0.7003 -2.5967
  220MOL0     H30333   6.139   5.646   1.406 -1.6651  0.2892 -1.1786
  220MOL0     H30334   6.339   5.559   1.472  0.9326 -0.0018  1.0293
  220MOL0     H30335   6.298   5.521   1.641  1.7577 -1.0405 -0.7854
  220MOL0     H30336   6.290   5.776   1.690  2.0211  0.3453  1.2508
  220MOL0     H30337   6.353   5.791   1.525 -0.2030 -2.2091 -1.2532
  220MOL0     H30338   6.524   5.824   1.688  0.1803 -0.4172  0.1857
  220MOL0     H30339   6.547   5.673   1.593  0.6379  0.5604 -0.2630
  220MOL0     H30340   5.425   5.626   1.800 -0.8446 -0.9226  0.9342
  220MOL0     H30341   5.182   5.573   1.743 -1.2885  1.3258 -0.3246
  220MOL0     H30342   4.834   5.504   1.566 -1.1483 -2.0514 -1.7816
  220MOL0     H30343   4.622   5.436   1.505 -0.1244  2.5949  5.3087
  220MOL0     H30344   2.669   5.434   0.535 -0.5893  1.1421 -1.5760
  220MOL0     H30345   2.441   5.352   0.587  0.5844  0.6906 -1.4693
  220MOL0     H30346   2.148   5.059   0.819 -0.3621  0.0043  0.2843
  220MOL0     H30347   1.923   4.993   0.840  0.3655 -0.0892  0.7827
  220MOL0     H30348   1.706   4.989   0.778  3.2046  1.2039  0.1419
  220MOL0     H30349   1.685   4.975   0.958  0.5221  2.1056  0.8507
  220MOL0     H30350   1.488   5.065   0.743 -0.6789 -1.4475 -0.8917
  220MOL0     H30351   1.464   5.105   0.918 -4.6956 -4.8471  0.0039
  220MOL0     H30352   1.504   4.823   0.800 -0.3967 -1.6056 -0.3538
  220MOL0     H30353   1.470   4.863   0.967  1.1902 -0.6103 -0.5949
  220MOL0     H30354   1.253   4.803   0.830 -1.2183  0.6311 -0.8468
  220MOL0     H30355   1.298   4.939   0.729 -2.0851 -0.2562 -0.1711
  220MOL0     H30356   1.123   5.114   1.077 -2.2063 -0.2645 -1.0459
  220MOL0     H30357   1.785   5.387   0.818 -0.5848 -1.2720 -2.1238
  220MOL0     H30358   2.045   5.587   0.811  2.2895 -0.7423 -0.8027
  220MOL0     H30359   2.090   5.536   0.656 -1.1470  3.5309 -0.4273
  220MOL0     H30360   1.920   5.549   0.692 -0.1661 -1.4785 -0.5345
  221MOL0     O30361   2.925   4.853   1.865 -0.4845 -0.1802 -0.1077
  221MOL0     C30362   2.940   4.913   1.973  0.9230  0.0223 -0.2731
  221MOL0     O30363   3.061   4.944   2.031  0.7422 -0.3681 -0.0833
  221MOL0     C30364   3.180   4.947   1.967 -0.0987  0.9768  0.3931
  221MOL0     C30365   3.294   4.894   2.028 -0.2946  0.7188 -0.3217
  221MOL0     C30366   3.424   4.893   1.971  0.2476 -0.0828 -0.6227
  221MOL0     C30367   3.442   4.954   1.847 -0.2393 -0.5254 -0.6370
  221MOL0     O30368   3.564   4.948   1.791  0.2268 -0.2932  0.2119
  221MOL0     C30369   3.669   4.866   1.845  0.0795 -0.1771  0.2065
  221MOL0     C30370   3.785   4.896   1.758 -0.1577 -0.1968  0.6000
  221MOL0     C30371   3.895   4.793   1.801 -0.6401 -0.5235  0.3326
  221MOL0     C30372   4.030   4.848   1.770  0.2168  0.2441 -0.3502
  221MOL0     C30373   4.141   4.755   1.811 -0.7168 -0.4885  0.3900
  221MOL0     C30374   4.273   4.813   1.757  0.0873  0.3592 -0.0451
  221MOL0     C30375   4.384   4.706   1.772 -0.2942  0.1373 -0.2569
  221MOL0     C30376   4.524   4.754   1.732  0.2539  0.2020  0.0991
  221MOL0     N30377   4.595   4.779   1.862 -0.7328  0.2927 -0.6574
  221MOL0     C30378   4.657   4.897   1.904  0.3088  0.1569 -0.3828
  221MOL0     C30379   4.724   4.863   2.016 -0.3248  0.4688  0.6990
  221MOL0     C30380   4.821   4.932   2.108 -0.3826  0.2997  0.2287
  221MOL0     C30381   4.945   4.974   2.033  0.4413  0.0621  0.2686
  221MOL0     C30382   5.056   4.869   2.013  0.3651 -0.0144 -0.8119
  221MOL0     C30383   5.149   4.863   2.137  0.0348 -0.6659 -0.3150
  221MOL0     O30384   5.237   4.979   2.133 -0.3373 -0.1346  0.0769
  221MOL0     C30385   5.370   4.971   2.105 -0.2471 -0.3294 -0.7444
  221MOL0     C30386   5.427   4.883   2.015  0.0633 -0.4528  0.0858
  221MOL0     C30387   5.565   4.874   2.000 -0.0250 -0.5963 -0.1252
  221MOL0     C30388   5.611   4.768   1.910 -0.4002  0.2051  0.2601
  221MOL0     C30389   5.653   4.967   2.060  0.0634 -0.7943 -1.3332
  221MOL0     C30390   5.800   4.968   2.047 -0.2602  0.1761 -0.7978
  221MOL0     O30391   5.860   4.906   1.943  0.7506  0.3023  0.0095
  221MOL0     C30392   5.990   4.866   1.959 -0.1583 -0.4836 -0.0686
  221MOL0     C30393   6.031   4.786   2.068  0.0191 -0.2378  0.0173
  221MOL0     C30394   6.158   4.740   2.079 -0.4095  0.6315 -0.0521
  221MOL0     C30395   6.256   4.774   1.991 -0.6213 -0.3291 -0.2275
  221MOL0     O30396   6.390   4.716   2.006  0.8029 -0.0696  0.0956
  221MOL0     C30397   6.482   4.710   1.896 -0.4646  0.3978 -0.1627
  221MOL0     C30398   6.454   4.583   1.816 -0.0966  0.4105  0.0151
  221MOL0     C30399   6.580   4.502   1.780  0.5093 -0.4290 -0.1516
  221MOL0     C30400   6.647   4.556   1.654  0.6709  0.1815 -0.5310
  221MOL0     C30401   6.742   4.674   1.676 -0.0222 -0.0257 -0.3640
  221MOL0     C30402   6.778   4.735   1.540 -0.1435  0.3427 -0.4245
  221MOL0     C30403   6.852   4.872   1.546 -0.0843  0.3187 -0.1737
  221MOL0     C30404   6.969   4.887   1.626  0.4288  0.7397  0.4520
  221MOL0    Cl30405   7.102   4.792   1.576  0.1886  0.3497  0.0242
  221MOL0     C30406   6.217   4.846   1.881 -0.2455 -0.3746  0.1249
  221MOL0     C30407   6.082   4.880   1.854 -0.8817 -0.6967 -0.4570
  221MOL0     O30408   5.863   5.010   2.150  0.1213 -0.6868  0.3170
  221MOL0     C30409   5.590   5.060   2.150 -0.9325  0.7628  0.4561
  221MOL0     C30410   5.450   5.072   2.162 -0.7991  0.1233 -0.0571
  221MOL0     N30411   4.703   4.734   2.043 -0.2249 -0.0840  1.1310
  221MOL0     N30412   4.621   4.686   1.952  1.1532 -0.0840 -0.5269
  221MOL0     C30413   3.330   5.011   1.785  0.3800 -0.3669  0.0112
  221MOL0     C30414   3.201   5.011   1.846 -0.1783  0.3299  0.5042
  221MOL0     C30415   2.819   4.976   2.040  0.6300 -0.3788  0.8331
  221MOL0     C30416   2.839   5.083   2.133 -0.4877 -0.0913  0.8583
  221MOL0     C30417   2.739   5.131   2.219  0.0659  0.6771 -0.2992
  221MOL0     C30418   2.609   5.084   2.203 -0.5885  0.3936 -0.4199
  221MOL0     O30419   2.515   5.132   2.298  0.6280  0.3214 -0.6701
  221MOL0     C30420   2.367   5.100   2.294 -0.8549 -0.4682  0.3341
  221MOL0     C30421   2.298   5.194   2.195 -0.0368  0.3165  0.4227
  221MOL0     C30422   2.139   5.197   2.219 -0.4563  0.5867 -0.4687
  221MOL0     C30423   2.069   5.253   2.093 -0.5135 -0.4509 -0.1421
  221MOL0     C30424   1.926   5.248   2.113 -0.0350  0.3152  0.6265
  221MOL0     C30425   1.807   5.231   2.138  0.2975  0.0636  0.0558
  221MOL0     C30426   2.586   4.981   2.109  0.2028 -0.2198 -0.0729
  221MOL0     C30427   2.684   4.926   2.022  0.6859  0.4744 -0.0608
  221MOL0     C30428   2.634   4.826   1.920 -0.2420 -0.1584 -0.1578
  221MOL0     H30429   3.273   4.850   2.125  1.7016  0.2545 -0.0667
  221MOL0     H30430   3.498   4.833   2.023 -3.0457  1.0667  6.7802
  221MOL0     H30431   3.638   4.762   1.828  1.1955 -0.2597 -1.6658
  221MOL0     H30432   3.693   4.874   1.951 -0.3242 -0.8037  0.3483
  221MOL0     H30433   3.763   4.891   1.652  1.6531  1.1408  0.1009
  221MOL0     H30434   3.815   5.001   1.770 -0.2704  0.0910 -1.3922
  221MOL0     H30435   3.888   4.766   1.907 -0.6171  0.4271  0.5909
  221MOL0     H30436   3.880   4.700   1.746  1.1360 -0.6486 -0.0002
  221MOL0     H30437   4.034   4.872   1.663 -2.2150  1.2215 -0.2797
  221MOL0     H30438   4.038   4.943   1.823 -0.6731  0.4371 -0.5511
  221MOL0     H30439   4.123   4.652   1.780 -0.8703 -0.8606  1.6269
  221MOL0     H30440   4.141   4.751   1.921  0.3398  1.4802  0.5115
  221MOL0     H30441   4.255   4.853   1.657 -0.0278 -0.2865 -0.2889
  221MOL0     H30442   4.295   4.902   1.817  0.8593  0.5824 -0.6260
  221MOL0     H30443   4.343   4.618   1.721 -1.5370 -0.5369  1.7838
  221MOL0     H30444   4.386   4.673   1.876  2.2128  0.8965  0.0000
  221MOL0     H30445   4.570   4.668   1.683 -0.5404  0.5611 -1.3329
  221MOL0     H30446   4.528   4.837   1.661  4.3330  0.2903  0.1911
  221MOL0     H30447   4.646   4.991   1.851 -1.0524  0.4344  0.3484
  221MOL0     H30448   4.841   4.857   2.186 -0.4247  1.4415  1.3714
  221MOL0     H30449   4.770   5.018   2.153 -3.3355 -0.8294 -0.7168
  221MOL0     H30450   4.927   5.019   1.935  2.3760  1.7246  0.5981
  221MOL0     H30451   4.995   5.061   2.079 -0.2744  1.1119 -0.8699
  221MOL0     H30452   5.005   4.773   2.000  2.5509 -1.2061 -1.0550
  221MOL0     H30453   5.105   4.884   1.916  0.3678  0.2037 -0.7778
  221MOL0     H30454   5.098   4.856   2.234 -0.3195 -1.1870 -0.5356
  221MOL0     H30455   5.214   4.776   2.136 -0.7881 -1.3182  0.5243
  221MOL0     H30456   5.371   4.809   1.959 -1.3473  1.3262 -0.9836
  221MOL0     H30457   5.648   4.683   1.968 -3.4457 -0.8459  0.8664
  221MOL0     H30458   5.675   4.802   1.828 -0.4666  3.0800  1.2871
  221MOL0     H30459   5.527   4.725   1.854  2.6419 -1.9193 -3.0653
  221MOL0     H30460   5.963   4.767   2.151  0.5798 -0.5530  0.4082
  221MOL0     H30461   6.185   4.668   2.156 -2.1594  0.4919  0.4764
  221MOL0     H30462   6.477   4.796   1.828 -0.8287 -0.3976 -1.1684
  221MOL0     H30463   6.587   4.707   1.929  0.9398  2.0736 -3.8376
  221MOL0     H30464   6.391   4.510   1.867  2.6565 -2.0797  0.1772
  221MOL0     H30465   6.403   4.600   1.721  1.5124 -0.7000 -1.1001
  221MOL0     H30466   6.554   4.399   1.753  2.8668 -1.3804  0.9804
  221MOL0     H30467   6.645   4.492   1.867 -0.1864  2.5571  0.8159
  221MOL0     H30468   6.564   4.578   1.586 -1.4840  1.4290  2.2885
  221MOL0     H30469   6.710   4.476   1.616 -0.1112 -0.0070 -1.4783
  221MOL0     H30470   6.687   4.749   1.734  0.5849 -0.3582  0.6593
  221MOL0     H30471   6.833   4.635   1.722  0.2789 -0.1501 -1.0597
  221MOL0     H30472   6.695   4.752   1.471  1.2797  0.3929 -2.2186
  221MOL0     H30473   6.837   4.666   1.479 -2.0027 -0.4080 -1.4501
  221MOL0     H30474   6.774   4.935   1.591 -2.0636 -0.8016 -1.8591
  221MOL0     H30475   6.872   4.900   1.442 -0.3824 -0.3691 -0.4196
  221MOL0     H30476   6.940   4.873   1.731 -1.0112  0.7854  0.0852
  221MOL0     H30477   6.996   4.993   1.631 -1.1892  1.2186 -0.3044
  221MOL0     H30478   6.294   4.858   1.806  0.3123 -3.1554  0.1595
  221MOL0     H30479   6.049   4.940   1.769 -1.5752  0.3970  0.5400
  221MOL0     H30480   5.644   5.140   2.200 -1.3378  0.5260  1.2827
  221MOL0     H30481   5.412   5.150   2.228  2.7674 -0.2546  2.7590
  221MOL0     H30482   3.329   5.032   1.679  1.9678 -1.2983 -0.2119
  221MOL0     H30483   3.121   5.052   1.786 -0.9505 -0.2857  1.0867
  221MOL0     H30484   2.930   5.141   2.126  1.0319 -2.5126 -1.2408
  221MOL0     H30485   2.758   5.206   2.296 -0.0752  0.1162  0.2859
  221MOL0     H30486   2.357   4.995   2.262  2.6500 -0.8906  0.2266
  221MOL0     H30487   2.318   5.106   2.392 -2.5521  0.9618 -0.5644
  221MOL0     H30488   2.322   5.169   2.091  0.7345 -0.6627  0.8226
  221MOL0     H30489   2.348   5.290   2.210 -3.1968  1.8304  2.4617
  221MOL0     H30490   2.115   5.091   2.226 -1.8431  0.8504 -0.8224
  221MOL0     H30491   2.117   5.234   2.320  2.8834 -1.9134  1.3892
  221MOL0     H30492   2.086   5.187   2.008  2.8578 -0.4159  0.3547
  221MOL0     H30493   2.094   5.358   2.076 -0.9359 -0.2035  0.6765
  221MOL0     H30494   1.705   5.203   2.148  0.1408 -0.9986 -3.3709
  221MOL0     H30495   2.482   4.949   2.112 -1.3843  4.2968  0.4979
  221MOL0     H30496   2.670   4.845   1.818  1.1472  0.1295  0.3682
  221MOL0     H30497   2.668   4.725   1.947  0.7310 -0.4884 -2.3457
  221MOL0     H30498   2.525   4.827   1.920 -0.3613  2.2227  3.0915
  222MOL0     O30499   0.791   2.745  10.722 -0.1319 -0.5201 -0.0971
  222MOL0     C30500   0.732   2.785  10.819 -0.9779 -0.6910  0.5350
  222MOL0     O30501   0.798   2.806  10.942 -0.1021 -0.4396 -0.2186
  222MOL0     C30502   0.924   2.754  10.963 -0.2185 -0.8349  1.0769
  222MOL0     C30503   1.038   2.843  10.998  0.2505 -0.1176  0.5831
  222MOL0     C30504   1.178   2.800  10.990 -0.2611 -0.1545  0.2902
  222MOL0     C30505   1.210   2.670  10.973  0.9981 -0.7351  0.3537
  222MOL0     O30506   1.333   2.614  10.980  0.4481 -0.6517 -0.1531
  222MOL0     C30507   1.453   2.691  10.990 -0.9133 -0.2142  0.1894
  222MOL0     C30508   1.575   2.592  10.982  0.0966 -0.3215  0.2220
  222MOL0     C30509   1.576   2.490  10.860  0.6899 -1.5438  0.6650
  222MOL0     C30510   1.719   2.432  10.847  0.0731  0.0320 -0.0625
  222MOL0     C30511   1.747   2.363  10.713 -0.1679 -0.6511 -0.6684
  222MOL0     C30512   1.878   2.280  10.719  0.6583 -0.6809  0.3868
  222MOL0     C30513   1.902   2.234  10.577  0.8939  0.4180  0.5116
  222MOL0     C30514   1.992   2.112  10.587 -0.6375  0.9889 -0.2059
  222MOL0     N30515   2.035   2.076  10.444  0.4628 -0.1389  0.2460
  222MOL0     C30516   2.166   2.065  10.411 -0.6619 -1.2774  0.1537
  222MOL0     C30517   2.170   2.041  10.277 -0.5100  0.1510  0.0371
  222MOL0     C30518   2.296   2.002  10.208 -0.0443 -0.7896 -0.2865
  222MOL0     C30519   2.322   1.854  10.235 -0.1101  0.4271 -0.1914
  222MOL0     C30520   2.463   1.814  10.193  0.6936 -0.4300  0.2444
  222MOL0     C30521   2.485   1.665  10.193  0.0763 -0.3832 -0.0116
  222MOL0     O30522   2.604   1.638  10.112  0.1082 -0.2051 -0.3949
  222MOL0     C30523   2.667   1.518  10.105  0.2211 -0.3474 -0.5723
  222MOL0     C30524   2.778   1.502  10.025 -0.1638  0.3196 -0.9910
  222MOL0     C30525   2.843   1.384  10.013 -0.1584 -1.2289 -0.1432
  222MOL0     C30526   2.968   1.389   9.924 -0.3375  0.4335 -0.1882
  222MOL0     C30527   2.788   1.271  10.087 -0.5349 -1.0764 -0.4015
  222MOL0     C30528   2.859   1.145  10.095 -0.2080  0.0477 -0.2943
  222MOL0     O30529   2.829   1.068  10.208 -0.4408 -0.4580  0.3502
  222MOL0     C30530   2.920   0.968  10.240  0.3716 -0.2263  0.2995
  222MOL0     C30531   3.058   0.980  10.225 -0.4058  0.0797  0.8744
  222MOL0     C30532   3.144   0.884  10.270 -0.1449  0.5421  0.5102
  222MOL0     C30533   3.095   0.764  10.319  0.1505  0.8806  0.1632
  222MOL0     O30534   3.190   0.674  10.345 -0.9745  0.1921 -0.8490
  222MOL0     C30535   3.148   0.549  10.405 -0.2573 -0.6383 -0.9753
  222MOL0     C30536   3.262   0.455  10.452 -0.0128 -0.6392  0.7773
  222MOL0     C30537   3.365   0.524  10.550 -0.2173 -0.2250 -0.2937
  222MOL0     C30538   3.485   0.434  10.582 -0.2919  0.4537  0.0474
  222MOL0     C30539   3.574   0.516  10.682 -0.5079 -0.6704 -0.4046
  222MOL0     C30540   3.686   0.435  10.751  0.8889 -0.8626  0.2487
  222MOL0     C30541   3.737   0.506  10.876 -0.4411  0.1692 -0.4264
  222MOL0     C30542   3.817   0.416  10.974 -0.4161 -0.5586  0.3331
  222MOL0    Cl30543   3.893   0.509  11.105 -0.0874  0.2097 -0.0822
  222MOL0     C30544   2.956   0.740  10.328 -0.4304 -0.7415  0.2520
  222MOL0     C30545   2.867   0.847  10.297 -0.2510  0.0512 -0.3246
  222MOL0     O30546   2.935   1.118  10.009 -0.4720  0.2859  0.1759
  222MOL0     C30547   2.674   1.291  10.166  1.0183  0.4368 -0.3121
  222MOL0     C30548   2.615   1.412  10.179  0.5869 -0.1333 -0.3480
  222MOL0     N30549   2.036   2.036  10.232 -0.0041  0.4671 -0.3101
  222MOL0     N30550   1.955   2.059  10.331  0.6650 -0.7998  0.6012
  222MOL0     C30551   1.102   2.582  10.950  0.5019  0.0427  0.2041
  222MOL0     C30552   0.962   2.618  10.937 -0.7875 -0.5541 -0.4520
  222MOL0     C30553   0.585   2.827  10.802 -0.7411 -0.5503 -0.4975
  222MOL0     C30554   0.523   2.879  10.916 -1.2769  0.0562 -0.4572
  222MOL0     C30555   0.396   2.929  10.913  0.9687 -0.1916 -0.7800
  222MOL0     C30556   0.323   2.946  10.791  0.3399  0.4650  0.0456
  222MOL0     O30557   0.201   3.005  10.767  0.5422  0.1833 -0.1100
  222MOL0     C30558   0.155   3.095  10.860 -1.0165  0.2829  0.0173
  222MOL0     C30559   0.027   3.155  10.808  0.1021 -0.3650  0.5997
  222MOL0     C30560  -0.082   3.052  10.753 -0.3612  0.0425  0.8006
  222MOL0     C30561  -0.206   3.116  10.685 -0.1004  0.1514  0.3461
  222MOL0     C30562  -0.276   3.204  10.782 -0.4400  0.7301  0.8286
  222MOL0     C30563  -0.350   3.270  10.847 -0.0014 -0.3499 -0.0853
  222MOL0     C30564   0.389   2.889  10.681  0.0575  0.3670  0.4684
  222MOL0     C30565   0.521   2.834  10.682  0.3019  0.1494 -0.4625
  222MOL0     C30566   0.578   2.781  10.542  0.4662  0.4955 -0.0896
  222MOL0     H30567   1.017   2.942  11.037  0.6434  0.6338 -1.0086
  222MOL0     H30568   1.257   2.872  11.007 -0.5909  0.1058  0.7640
  222MOL0     H30569   1.464   2.760  11.074  2.5903  0.8561 -0.9584
  222MOL0     H30570   1.461   2.757  10.903  2.9490  0.2913  0.7405
  222MOL0     H30571   1.663   2.655  10.970  0.4125 -0.3639  1.9641
  222MOL0     H30572   1.582   2.542  11.079  1.3589  3.1566  2.1201
  222MOL0     H30573   1.505   2.407  10.867 -1.3070  0.1580  1.5241
  222MOL0     H30574   1.545   2.544  10.770 -2.6105 -2.8116  0.9000
  222MOL0     H30575   1.789   2.515  10.858 -0.7459  0.9751 -1.6510
  222MOL0     H30576   1.728   2.354  10.923  0.0913 -2.9381 -2.9161
  222MOL0     H30577   1.759   2.453  10.651  0.3099 -0.2373  0.0195
  222MOL0     H30578   1.655   2.310  10.686 -0.4966 -0.2386 -0.3842
  222MOL0     H30579   1.962   2.343  10.751  0.2406  0.2389 -0.2909
  222MOL0     H30580   1.859   2.192  10.781 -1.2007 -0.5600  0.0403
  222MOL0     H30581   1.936   2.313  10.508 -2.9988  1.9943  0.1088
  222MOL0     H30582   1.805   2.197  10.542  0.7238  1.3858 -0.0882
  222MOL0     H30583   2.085   2.134  10.640  1.0076  2.1939 -3.3222
  222MOL0     H30584   1.942   2.033  10.643 -0.2362  1.1201  0.3495
  222MOL0     H30585   2.251   2.066  10.479  0.8110 -0.5086 -1.6135
  222MOL0     H30586   2.379   2.064  10.243  0.5497 -1.8316  0.2150
  222MOL0     H30587   2.283   2.014  10.100 -1.5891 -1.0416 -0.1471
  222MOL0     H30588   2.292   1.825  10.336  0.7654 -1.1517 -0.3552
  222MOL0     H30589   2.266   1.790  10.167 -0.8496  0.1975  0.6232
  222MOL0     H30590   2.474   1.860  10.094  0.8608 -0.0580  0.4349
  222MOL0     H30591   2.532   1.868  10.259 -1.2838  2.0899  0.4332
  222MOL0     H30592   2.515   1.633  10.294  2.2569  0.5361 -0.3159
  222MOL0     H30593   2.401   1.614  10.146  0.3055  3.9895 -6.3785
  222MOL0     H30594   2.813   1.590   9.971  1.2834  0.1133 -0.4259
  222MOL0     H30595   2.979   1.303   9.857  0.9317 -1.1022  1.8799
  222MOL0     H30596   3.058   1.384   9.985 -1.7431 -4.7901  1.9990
  222MOL0     H30597   2.981   1.474   9.856  1.0389  1.3497  1.1735
  222MOL0     H30598   3.110   1.069  10.189 -0.3540  0.7010  2.4253
  222MOL0     H30599   3.251   0.897  10.256  0.1757 -0.7505  1.5045
  222MOL0     H30600   3.095   0.576  10.497  1.3523  1.3203 -0.5404
  222MOL0     H30601   3.082   0.496  10.336  1.1696 -1.1634 -1.9771
  222MOL0     H30602   3.221   0.373  10.512 -0.0833  0.5973  2.4902
  222MOL0     H30603   3.310   0.417  10.361 -0.6603 -1.9436  0.9525
  222MOL0     H30604   3.311   0.549  10.642  0.8788  1.3567 -0.0298
  222MOL0     H30605   3.403   0.623  10.525  1.7711 -1.4225 -2.3686
  222MOL0     H30606   3.548   0.398  10.501 -1.3636  0.6008 -0.8730
  222MOL0     H30607   3.439   0.345  10.625 -0.0869  0.4323  0.2242
  222MOL0     H30608   3.611   0.607  10.634 -3.2153 -1.0130 -3.4985
  222MOL0     H30609   3.512   0.543  10.768 -0.9515 -2.0823 -0.2541
  222MOL0     H30610   3.768   0.427  10.678 -0.0048 -1.7283 -0.6957
  222MOL0     H30611   3.646   0.338  10.782 -3.6310  0.8104  0.3496
  222MOL0     H30612   3.671   0.569  10.938  2.0859  0.7065  1.9293
  222MOL0     H30613   3.807   0.584  10.843 -1.1443  0.6730 -0.7475
  222MOL0     H30614   3.906   0.381  10.920 -0.0339  0.3904  0.3297
  222MOL0     H30615   3.757   0.332  11.012 -0.0317 -1.2295 -0.4932
  222MOL0     H30616   2.925   0.646  10.372  1.8443 -1.9612 -0.5514
  222MOL0     H30617   2.760   0.832  10.311 -0.2141 -2.8438 -2.2306
  222MOL0     H30618   2.615   1.215  10.217 -2.2576  2.9589  0.0630
  222MOL0     H30619   2.526   1.420  10.240  0.8316  0.5978 -0.0803
  222MOL0     H30620   1.138   2.480  10.935  7.4505  2.1494 -1.4380
  222MOL0     H30621   0.889   2.543  10.908 -1.3085 -0.4577  0.5624
  222MOL0     H30622   0.568   2.879  11.015 -2.2574 -0.1357 -0.0064
  222MOL0     H30623   0.342   2.963  11.001  1.1064 -0.2558 -0.6698
  222MOL0     H30624   0.130   3.045  10.954  3.8425  0.9848  2.0133
  222MOL0     H30625   0.232   3.171  10.881 -1.1737  0.3519  0.3556
  222MOL0     H30626   0.031   3.235  10.733 -3.0980 -0.0480  0.6334
  222MOL0     H30627  -0.013   3.204  10.897  1.2867 -0.6109  1.2824
  222MOL0     H30628  -0.023   2.995  10.681 -0.4453 -0.4258  1.0986
  222MOL0     H30629  -0.109   2.974  10.825 -1.5920 -2.3892 -2.0448
  222MOL0     H30630  -0.261   3.027  10.653  2.1572 -1.0974 -0.2861
  222MOL0     H30631  -0.180   3.166  10.591 -1.1374 -4.1488 -2.5184
  222MOL0     H30632  -0.415   3.341  10.895  0.5651  0.6391 -0.7463
  222MOL0     H30633   0.346   2.906  10.583  3.3783 -0.2714 -1.2423
  222MOL0     H30634   0.626   2.860  10.484  3.3156  1.2265  2.9451
  222MOL0     H30635   0.638   2.691  10.558  0.7323  0.3064 -2.0026
  222MOL0     H30636   0.497   2.737  10.483 -1.4579 -1.8510  3.8809
  223MOL0     O30637   4.476   1.721  11.232  0.1900 -0.0617  0.2646
  223MOL0     C30638   4.528   1.830  11.254 -0.5667  0.7202  0.2272
  223MOL0     O30639   4.658   1.856  11.272 -0.1932  0.0594 -0.7817
  223MOL0     C30640   4.760   1.759  11.264 -0.0455 -0.3837  0.2538
  223MOL0     C30641   4.891   1.807  11.271 -0.8565 -0.6844 -1.2304
  223MOL0     C30642   5.003   1.719  11.255  0.6854 -0.5512 -0.4402
  223MOL0     C30643   4.983   1.587  11.214 -1.0859 -1.0786  0.3788
  223MOL0     O30644   5.099   1.517  11.209  0.4483  0.5343 -0.4459
  223MOL0     C30645   5.105   1.398  11.128 -0.2014  0.0640  0.1919
  223MOL0     C30646   5.252   1.375  11.071  0.1514 -0.2105 -0.7198
  223MOL0     C30647   5.254   1.253  10.971 -0.2295 -0.6181 -0.3390
  223MOL0     C30648   5.242   1.124  11.037 -0.1805 -0.4386 -0.1614
  223MOL0     C30649   5.308   1.006  10.971  0.1001 -0.2271  0.4304
  223MOL0     C30650   5.457   1.004  10.989 -0.7253  0.0900  0.4912
  223MOL0     C30651   5.500   0.861  10.950 -0.8719  0.9405 -1.1674
  223MOL0     C30652   5.636   0.819  11.003 -0.5730 -0.3920  0.6091
  223MOL0     N30653   5.748   0.916  10.965  0.3235  0.1749 -0.7049
  223MOL0     C30654   5.819   0.914  10.850  0.0199 -1.1854  0.5040
  223MOL0     C30655   5.919   0.999  10.874  1.1064  1.0393 -0.6597
  223MOL0     C30656   6.031   1.031  10.788 -0.5688  1.0021  0.2026
  223MOL0     C30657   6.144   0.929  10.818 -0.3770 -0.4745  0.4561
  223MOL0     C30658   6.276   0.949  10.732  0.7047  0.1825 -0.7429
  223MOL0     C30659   6.401   1.015  10.811  0.5222  0.1667 -0.5135
  223MOL0     O30660   6.361   1.147  10.848 -0.1409  0.0367  0.6190
  223MOL0     C30661   6.448   1.251  10.829  0.1024  0.6388  0.3101
  223MOL0     C30662   6.401   1.375  10.854  0.1154  0.6876 -0.1124
  223MOL0     C30663   6.472   1.495  10.867 -0.8127 -0.0501 -0.9243
  223MOL0     C30664   6.392   1.620  10.899 -0.8003 -0.3214 -0.2590
  223MOL0     C30665   6.614   1.482  10.843 -0.1842  0.2892  0.2187
  223MOL0     C30666   6.716   1.593  10.842 -0.0508  0.5453 -0.3739
  223MOL0     O30667   6.844   1.558  10.849  0.4927  0.2661 -0.2119
  223MOL0     C30668   6.937   1.653  10.844 -1.4540  0.6110 -0.1609
  223MOL0     C30669   6.932   1.779  10.783 -0.2641 -0.3205  0.0404
  223MOL0     C30670   7.049   1.859  10.774 -0.6356 -0.1585 -0.5020
  223MOL0     C30671   7.180   1.815  10.810 -0.7123 -0.2002  0.9763
  223MOL0     O30672   7.287   1.902  10.800 -0.1364  0.1127 -1.0383
  223MOL0     C30673   7.260   2.036  10.840  0.0694 -0.7093 -0.2199
  223MOL0     C30674   7.403   2.081  10.878 -0.0111  0.1372 -0.3427
  223MOL0     C30675   7.449   2.019  11.004  0.0521  0.3534 -0.1793
  223MOL0     C30676   7.554   2.110  11.075 -0.3296 -0.6147  0.4156
  223MOL0     C30677   7.634   2.062  11.196  0.4451  0.1263  0.9695
  223MOL0     C30678   7.559   1.969  11.296  0.3801 -0.7399 -0.3579
  223MOL0     C30679   7.643   1.913  11.411 -0.5453  0.5522  0.0177
  223MOL0     C30680   7.730   1.792  11.349  0.4655 -0.2742  0.1086
  223MOL0    Cl30681   7.621   1.660  11.343 -0.0554  0.1652 -0.1176
  223MOL0     C30682   7.190   1.678  10.848 -0.2763 -0.1742 -0.9604
  223MOL0     C30683   7.071   1.605  10.874 -0.5367 -0.3714 -0.7877
  223MOL0     O30684   6.671   1.705  10.853  0.8112 -0.0040  0.2609
  223MOL0     C30685   6.668   1.351  10.811  0.1654 -0.1204 -0.4417
  223MOL0     C30686   6.588   1.237  10.804 -0.3252 -0.5125 -0.0282
  223MOL0     N30687   5.894   1.065  10.997 -0.0810  0.1439 -0.1956
  223MOL0     N30688   5.789   1.012  11.051 -0.0176  0.8680 -0.3609
  223MOL0     C30689   4.862   1.544  11.180  0.0563  0.0863 -0.3667
  223MOL0     C30690   4.748   1.626  11.211 -0.7100 -0.1731 -1.0201
  223MOL0     C30691   4.436   1.950  11.257 -0.0456 -0.5249 -0.9459
  223MOL0     C30692   4.465   2.041  11.351 -0.5337 -0.3334 -0.2422
  223MOL0     C30693   4.384   2.152  11.379 -0.4048 -0.3060 -0.1627
  223MOL0     C30694   4.271   2.174  11.295 -0.5249 -0.5848 -0.3621
  223MOL0     O30695   4.201   2.290  11.317  0.0003 -0.1810  0.1901
  223MOL0     C30696   4.064   2.278  11.346  0.3372  0.0192 -0.0169
  223MOL0     C30697   4.026   2.260  11.497 -0.1567  0.1786 -0.7387
  223MOL0     C30698   3.861   2.277  11.503  0.2304 -0.3948 -0.1460
  223MOL0     C30699   3.823   2.419  11.518  0.0852 -0.1948 -0.7107
  223MOL0     C30700   3.678   2.443  11.503  0.4908  0.2695 -1.3035
  223MOL0     C30701   3.564   2.467  11.489  0.5687 -0.2659  1.2411
  223MOL0     C30702   4.245   2.079  11.191 -0.3046  0.6171  0.0555
  223MOL0     C30703   4.324   1.969  11.177  0.3014  0.1746  0.4090
  223MOL0     C30704   4.288   1.867  11.069 -0.7784  0.2283  0.2428
  223MOL0     H30705   4.901   1.909  11.307  0.2927 -1.3147  0.3098
  223MOL0     H30706   5.100   1.757  11.284 -0.5533  1.9580  0.6425
  223MOL0     H30707   5.035   1.404  11.045 -1.7680  4.2885  1.5524
  223MOL0     H30708   5.079   1.314  11.193  0.4389 -0.4735 -0.2358
  223MOL0     H30709   5.283   1.463  11.015  0.7744 -0.2072 -0.3846
  223MOL0     H30710   5.327   1.363  11.150  1.2874  0.9333 -1.5968
  223MOL0     H30711   5.197   1.272  10.880 -2.2398  0.0181  0.9816
  223MOL0     H30712   5.356   1.258  10.931  1.5966  0.3074  3.9408
  223MOL0     H30713   5.281   1.138  11.139  1.1507  1.8663 -0.9259
  223MOL0     H30714   5.136   1.106  11.058 -0.6292 -0.3779 -2.2093
  223MOL0     H30715   5.279   0.985  10.868  2.4834  0.1977 -0.3923
  223MOL0     H30716   5.267   0.921  11.026  2.6850 -1.4842  0.5390
  223MOL0     H30717   5.504   1.076  10.922  0.9884  0.9745  2.5529
  223MOL0     H30718   5.478   1.030  11.093 -1.1032 -0.8385  0.8142
  223MOL0     H30719   5.503   0.863  10.841  0.1086  1.0211 -1.1465
  223MOL0     H30720   5.424   0.791  10.987 -0.7228  2.7998  3.3143
  223MOL0     H30721   5.631   0.817  11.112  0.9890  3.1513  0.8696
  223MOL0     H30722   5.662   0.719  10.965 -0.4037  0.5127 -1.8403
  223MOL0     H30723   5.814   0.846  10.766 -1.6239 -1.0121  0.4323
  223MOL0     H30724   6.056   1.135  10.812 -1.7167  1.8501 -1.9524
  223MOL0     H30725   6.013   1.035  10.680  1.5025  4.7107 -0.1620
  223MOL0     H30726   6.173   0.931  10.923 -1.0475  1.2410  0.6305
  223MOL0     H30727   6.103   0.830  10.793 -0.5483 -0.6980  1.5640
  223MOL0     H30728   6.301   0.849  10.697 -1.3928 -0.2756 -1.0793
  223MOL0     H30729   6.261   1.002  10.637 -0.8717  1.3745  0.1070
  223MOL0     H30730   6.429   0.957  10.899 -0.0314  2.6804  1.4282
  223MOL0     H30731   6.485   1.006  10.741  2.4021 -1.6806  1.8221
  223MOL0     H30732   6.296   1.375  10.882  0.0832 -1.8772 -0.0118
  223MOL0     H30733   6.323   1.598  10.981 -0.2277  0.3097  0.4028
  223MOL0     H30734   6.336   1.653  10.811 -0.6908  0.4351 -0.0467
  223MOL0     H30735   6.458   1.698  10.936 -0.0558 -0.7336 -0.6948
  223MOL0     H30736   6.850   1.817  10.722  0.1770 -0.4254 -0.6331
  223MOL0     H30737   7.047   1.960  10.734  0.1808  0.7912  1.6743
  223MOL0     H30738   7.218   2.089  10.755  3.0904  1.2535 -0.6597
  223MOL0     H30739   7.193   2.052  10.925  1.5913  0.3616  0.8316
  223MOL0     H30740   7.481   2.060  10.804 -0.5009  0.2796 -0.9078
  223MOL0     H30741   7.395   2.188  10.898 -0.6837 -0.3412  2.3427
  223MOL0     H30742   7.505   1.926  10.987 -2.3264 -1.3538  0.6584
  223MOL0     H30743   7.367   2.007  11.075  0.8858  1.5660  1.0410
  223MOL0     H30744   7.509   2.206  11.102 -1.6514  0.2523 -4.1406
  223MOL0     H30745   7.630   2.131  10.999 -2.5090 -1.0124 -1.9971
  223MOL0     H30746   7.712   2.005  11.145 -1.6066  0.0771 -2.4802
  223MOL0     H30747   7.668   2.146  11.257  1.1288 -1.3080  2.6427
  223MOL0     H30748   7.506   1.894  11.236 -0.4438 -0.4505  0.0062
  223MOL0     H30749   7.486   2.037  11.340  1.9252 -1.1651  3.1580
  223MOL0     H30750   7.572   1.882  11.489  0.2176  1.5272  1.1205
  223MOL0     H30751   7.700   1.997  11.451 -1.0610  0.4527  0.9804
  223MOL0     H30752   7.814   1.773  11.417 -1.6848 -1.1407  2.7200
  223MOL0     H30753   7.781   1.813  11.254  0.2731  0.2330  0.1111
  223MOL0     H30754   7.294   1.648  10.862 -0.3031  0.0386 -0.2400
  223MOL0     H30755   7.087   1.503  10.908  1.0053 -0.3405 -1.3357
  223MOL0     H30756   6.772   1.334  10.783 -0.0056 -1.7594 -0.1924
  223MOL0     H30757   6.649   1.154  10.770 -0.9640  0.2121 -3.3156
  223MOL0     H30758   4.851   1.445  11.137 -1.4235  0.0967 -0.0714
  223MOL0     H30759   4.653   1.584  11.182 -0.6710 -1.4508  0.5328
  223MOL0     H30760   4.563   2.043  11.399 -1.1943  2.5125  1.1981
  223MOL0     H30761   4.412   2.214  11.463  2.0957 -1.7114  0.1305
  223MOL0     H30762   4.028   2.376  11.314  0.4291 -0.5812 -2.0854
  223MOL0     H30763   4.013   2.201  11.287 -1.7359 -0.2182  1.9522
  223MOL0     H30764   4.062   2.338  11.565  2.2293 -0.4973 -1.1467
  223MOL0     H30765   4.049   2.159  11.533 -2.5722 -0.7297 -1.5319
  223MOL0     H30766   3.809   2.238  11.415  0.0952  2.4965 -1.4692
  223MOL0     H30767   3.822   2.212  11.583  0.8431 -1.4186 -0.6588
  223MOL0     H30768   3.877   2.482  11.446  2.9893  1.9128  2.9845
  223MOL0     H30769   3.859   2.456  11.614 -1.8864  1.2058 -0.4275
  223MOL0     H30770   3.464   2.483  11.456  1.0757  0.2323 -0.1516
  223MOL0     H30771   4.155   2.073  11.131  0.9591 -0.7203 -1.8210
  223MOL0     H30772   4.202   1.897  11.008  0.0509  1.1176 -0.5246
  223MOL0     H30773   4.371   1.850  11.000 -1.4789 -2.0305 -0.1430
  223MOL0     H30774   4.265   1.773  11.121 -0.4602  0.0096 -0.0102
  224MOL0     O30775   1.163   2.452   5.140  0.2087  0.4424  0.2030
  224MOL0     C30776   1.094   2.549   5.107 -0.8065 -0.0493  0.1344
  224MOL0     O30777   1.141   2.678   5.120  0.6204  0.8292  0.1485
  224MOL0     C30778   1.252   2.699   5.204 -0.0893 -0.3902 -0.3193
  224MOL0     C30779   1.257   2.656   5.339 -0.0794 -1.0593 -0.3763
  224MOL0     C30780   1.376   2.685   5.415  0.3721  0.8404  0.1979
  224MOL0     C30781   1.489   2.754   5.360  0.2760 -0.3685  0.2392
  224MOL0     O30782   1.609   2.758   5.424  0.0624  0.1107 -0.3265
  224MOL0     C30783   1.695   2.878   5.416  0.7169 -0.2895  0.9578
  224MOL0     C30784   1.784   2.885   5.540 -1.2481 -0.7974 -0.2681
  224MOL0     C30785   1.706   2.909   5.672 -0.0312 -0.1653 -0.1559
  224MOL0     C30786   1.758   3.026   5.753 -0.0591 -0.3773 -0.3007
  224MOL0     C30787   1.905   3.007   5.801  0.3068  0.9912  0.1290
  224MOL0     C30788   1.953   3.132   5.883 -0.2014 -0.1622  0.0905
  224MOL0     C30789   1.991   3.254   5.792  0.4097  0.7308 -0.4108
  224MOL0     C30790   2.071   3.370   5.861  1.3281 -0.3054 -0.7990
  224MOL0     N30791   2.205   3.339   5.903 -0.6923  0.4815 -1.0503
  224MOL0     C30792   2.236   3.287   6.026  0.3993  0.7029 -0.4647
  224MOL0     C30793   2.368   3.264   6.032  0.1690  0.3330  0.7468
  224MOL0     C30794   2.447   3.234   6.156  0.0636  0.3672 -0.6114
  224MOL0     C30795   2.565   3.324   6.186 -0.5914 -0.7759  0.8956
  224MOL0     C30796   2.641   3.263   6.306  0.6720 -0.8728 -0.0868
  224MOL0     C30797   2.778   3.330   6.334 -0.2130 -0.3868 -1.0497
  224MOL0     O30798   2.801   3.340   6.473  0.5329  0.2166  0.1673
  224MOL0     C30799   2.920   3.376   6.514 -0.4173  0.1838 -0.2772
  224MOL0     C30800   2.907   3.453   6.627 -0.3042 -0.7306 -0.3253
  224MOL0     C30801   3.013   3.508   6.700  0.0670 -0.5771  0.7041
  224MOL0     C30802   2.980   3.594   6.813 -0.7160 -0.1299 -0.1511
  224MOL0     C30803   3.142   3.461   6.665  0.6592 -0.4975  0.4210
  224MOL0     C30804   3.253   3.500   6.745  0.6769  0.2707  0.2618
  224MOL0     O30805   3.344   3.407   6.771  0.4962 -0.3103  0.0576
  224MOL0     C30806   3.473   3.457   6.783 -0.2948 -1.2646 -0.3340
  224MOL0     C30807   3.562   3.444   6.671 -0.6493 -0.4825  0.2520
  224MOL0     C30808   3.697   3.478   6.699  0.1385  0.3115  0.6119
  224MOL0     C30809   3.743   3.524   6.823  0.2741  0.2753  0.2841
  224MOL0     O30810   3.869   3.569   6.855 -0.1529  0.0434  0.7256
  224MOL0     C30811   3.984   3.513   6.784  0.2455  0.1823  0.0216
  224MOL0     C30812   4.117   3.522   6.855 -0.0943 -0.0730  0.4284
  224MOL0     C30813   4.232   3.559   6.760 -1.0614  0.4754  0.3171
  224MOL0     C30814   4.369   3.579   6.828 -0.4641 -0.6239  0.1721
  224MOL0     C30815   4.496   3.605   6.735  0.6011 -1.0211 -0.7937
  224MOL0     C30816   4.554   3.472   6.687  0.8860  0.3043 -0.7567
  224MOL0     C30817   4.701   3.478   6.651  0.5769 -0.5547 -0.2381
  224MOL0     C30818   4.747   3.353   6.581  0.0024  0.7143  0.0294
  224MOL0    Cl30819   4.672   3.341   6.418  0.0778 -0.1282 -0.2531
  224MOL0     C30820   3.648   3.549   6.922  0.7209 -0.0484 -0.3063
  224MOL0     C30821   3.519   3.515   6.902  0.1677 -0.4188 -0.2359
  224MOL0     O30822   3.261   3.621   6.777  0.1284 -0.7891  0.2980
  224MOL0     C30823   3.154   3.380   6.553 -0.1034 -0.1287  0.0639
  224MOL0     C30824   3.052   3.346   6.471 -0.6169 -0.4521 -0.2270
  224MOL0     N30825   2.412   3.295   5.901  0.4912  1.1170  0.1691
  224MOL0     N30826   2.319   3.338   5.835  1.0522 -0.5378 -0.2918
  224MOL0     C30827   1.488   2.780   5.222  0.3336  0.5162 -0.0983
  224MOL0     C30828   1.368   2.757   5.148 -0.0680 -0.2691 -0.2127
  224MOL0     C30829   0.956   2.533   5.054 -0.8661 -0.3225 -0.7610
  224MOL0     C30830   0.901   2.652   4.999  0.4954 -0.1160  0.6724
  224MOL0     C30831   0.771   2.651   4.958  0.2990 -0.0134 -0.0642
  224MOL0     C30832   0.696   2.536   4.946  0.2412 -0.1697 -0.4671
  224MOL0     O30833   0.572   2.548   4.877 -0.0469  0.0346  0.0908
  224MOL0     C30834   0.493   2.435   4.847  0.0988  1.1451  0.3698
  224MOL0     C30835   0.365   2.488   4.790 -0.9730  0.6029  0.3189
  224MOL0     C30836   0.282   2.566   4.892  1.1902  0.8563  0.8526
  224MOL0     C30837   0.174   2.635   4.826  0.9843  0.6438  0.5021
  224MOL0     C30838   0.118   2.747   4.903 -0.7815 -0.0488  0.0040
  224MOL0     C30839   0.083   2.848   4.971 -0.5142  0.2846 -0.2445
  224MOL0     C30840   0.743   2.413   5.009 -0.2746 -0.4139 -0.1894
  224MOL0     C30841   0.880   2.410   5.054 -0.0329 -0.3153  0.4573
  224MOL0     C30842   0.939   2.285   5.096 -0.2482  0.5948  0.8585
  224MOL0     H30843   1.176   2.598   5.383  0.2551 -1.2429 -0.0021
  224MOL0     H30844   1.391   2.644   5.514 -0.0193 -2.2780 -0.9462
  224MOL0     H30845   1.643   2.973   5.403  0.2217 -0.5369  1.0875
  224MOL0     H30846   1.762   2.867   5.331  1.3560  0.8946  1.2905
  224MOL0     H30847   1.844   2.793   5.541 -1.8144 -1.1714  0.1234
  224MOL0     H30848   1.857   2.966   5.527 -1.2964 -1.0373 -2.3100
  224MOL0     H30849   1.603   2.934   5.645  0.2062  3.6656  1.8128
  224MOL0     H30850   1.709   2.816   5.728 -1.0979  0.4145  0.9076
  224MOL0     H30851   1.738   3.118   5.698 -1.8186  1.0960  2.5725
  224MOL0     H30852   1.690   3.033   5.838  0.8207 -1.7467  0.5556
  224MOL0     H30853   1.965   2.992   5.711  0.3054  0.5664  0.1970
  224MOL0     H30854   1.909   2.912   5.855  3.2238 -1.6822 -4.1691
  224MOL0     H30855   1.873   3.163   5.950 -1.5514 -3.2791  0.1043
  224MOL0     H30856   2.039   3.102   5.945  2.1842 -0.9827 -3.3063
  224MOL0     H30857   1.892   3.286   5.758 -0.6311 -1.0642  0.7729
  224MOL0     H30858   2.057   3.214   5.714  0.3144 -1.9042  0.7420
  224MOL0     H30859   2.081   3.448   5.784  3.3271 -0.6078 -0.8841
  224MOL0     H30860   2.018   3.422   5.941  1.7227 -0.1584 -0.6346
  224MOL0     H30861   2.175   3.284   6.116  4.5467  1.8226  2.7308
  224MOL0     H30862   2.480   3.130   6.151  0.2577  0.4424 -0.9550
  224MOL0     H30863   2.379   3.236   6.242  1.3097 -1.9238  0.4946
  224MOL0     H30864   2.625   3.341   6.096 -0.7065  1.6619  1.2145
  224MOL0     H30865   2.535   3.423   6.223  1.4759 -0.2407  1.2946
  224MOL0     H30866   2.572   3.275   6.390  0.1757 -0.7276 -0.5064
  224MOL0     H30867   2.662   3.156   6.297  1.8750 -0.7769  1.2335
  224MOL0     H30868   2.859   3.278   6.282  0.4040 -2.0947  1.4924
  224MOL0     H30869   2.779   3.435   6.301 -1.0459 -0.7354 -2.2695
  224MOL0     H30870   2.807   3.476   6.661  0.1278  3.3119 -1.2422
  224MOL0     H30871   2.876   3.584   6.846 -0.1864 -0.1375  1.5763
  224MOL0     H30872   3.010   3.697   6.794  2.5997 -1.2446 -1.7288
  224MOL0     H30873   3.037   3.558   6.899 -1.2974  1.0309  0.7353
  224MOL0     H30874   3.521   3.387   6.588  0.5294 -1.3603  0.2417
  224MOL0     H30875   3.775   3.465   6.624  0.1088  0.9143  0.4752
  224MOL0     H30876   3.963   3.410   6.752  0.7912  0.4619 -1.3373
  224MOL0     H30877   3.993   3.573   6.693 -0.6419  1.9246  1.0365
  224MOL0     H30878   4.104   3.606   6.925 -0.6157 -0.1278  0.4037
  224MOL0     H30879   4.133   3.434   6.919  0.5243  1.5342  2.6312
  224MOL0     H30880   4.206   3.639   6.691  1.8286  0.7787 -0.5569
  224MOL0     H30881   4.252   3.465   6.708  4.1469 -0.4558  3.2707
  224MOL0     H30882   4.388   3.492   6.892  0.6548 -0.5385 -0.0223
  224MOL0     H30883   4.355   3.670   6.887  3.1410  1.1353 -1.4125
  224MOL0     H30884   4.471   3.665   6.648 -2.7967 -0.3007  0.5501
  224MOL0     H30885   4.561   3.655   6.807  0.2010  0.2821 -1.3243
  224MOL0     H30886   4.491   3.446   6.600 -1.8372 -0.4977  1.3095
  224MOL0     H30887   4.546   3.386   6.755  2.4792  1.2436  0.6747
  224MOL0     H30888   4.757   3.483   6.745  0.5702  1.5694 -0.3009
  224MOL0     H30889   4.710   3.569   6.590  1.8279 -1.2931 -1.2078
  224MOL0     H30890   4.708   3.265   6.634 -0.3142 -0.4556 -2.0243
  224MOL0     H30891   4.856   3.354   6.573  0.0019  0.1085 -0.1491
  224MOL0     H30892   3.669   3.594   7.019 -3.2121 -0.0935  0.7539
  224MOL0     H30893   3.443   3.536   6.977 -1.0155  3.5252 -2.2342
  224MOL0     H30894   3.244   3.322   6.535 -0.6584 -1.1785  0.5941
  224MOL0     H30895   3.061   3.279   6.385  2.1669  0.4620 -0.7237
  224MOL0     H30896   1.579   2.819   5.178 -1.1323  3.6370 -0.6864
  224MOL0     H30897   1.381   2.763   5.040 -0.2762 -0.4094 -0.2443
  224MOL0     H30898   0.949   2.749   5.004 -0.4660  0.5196 -1.4623
  224MOL0     H30899   0.721   2.728   4.899 -0.3269 -1.4961 -1.5567
  224MOL0     H30900   0.528   2.367   4.769 -3.9202 -2.7201  1.5530
  224MOL0     H30901   0.477   2.375   4.937  2.0912  0.4632  0.3088
  224MOL0     H30902   0.303   2.403   4.761 -1.3319  1.1582 -0.6101
  224MOL0     H30903   0.389   2.562   4.713  0.3700  0.6343  0.7430
  224MOL0     H30904   0.229   2.500   4.963 -2.3371  2.1355 -0.3755
  224MOL0     H30905   0.353   2.631   4.945  1.4908  0.6204  0.7415
  224MOL0     H30906   0.098   2.564   4.794  2.1816  0.5997 -2.5749
  224MOL0     H30907   0.212   2.678   4.733  0.3437 -0.7791 -0.4501
  224MOL0     H30908   0.044   2.933   5.023  2.2158  1.3090  0.2956
  224MOL0     H30909   0.680   2.325   4.994 -0.9099  0.4383 -3.1859
  224MOL0     H30910   0.988   2.277   5.193  0.6428 -1.8169  0.2690
  224MOL0     H30911   0.868   2.202   5.101 -0.7037  1.0146  1.6103
  224MOL0     H30912   1.012   2.255   5.020 -2.5732 -0.2277 -1.1890
  225MOL0     O30913  10.046   3.998   0.550 -0.0158  0.6731 -0.8639
  225MOL0     C30914   9.940   4.014   0.493  0.6012 -0.1476 -0.3039
  225MOL0     O30915   9.920   4.105   0.392  0.7472 -0.9012  0.6389
  225MOL0     C30916  10.017   4.202   0.372  0.9897 -0.6927  0.7912
  225MOL0     C30917   9.988   4.348   0.382 -0.4080 -0.5865  0.3752
  225MOL0     C30918  10.093   4.444   0.361 -0.8705  1.0811 -0.0535
  225MOL0     C30919  10.216   4.401   0.316  0.0798 -0.0109 -0.9462
  225MOL0     O30920  10.318   4.490   0.286 -0.4704 -0.4900  0.0426
  225MOL0     C30921  10.354   4.583   0.388  0.2381 -0.6761 -1.3628
  225MOL0     C30922  10.501   4.626   0.371 -0.8401 -0.1555 -0.0642
  225MOL0     C30923  10.596   4.517   0.411 -0.3293  0.2399 -0.4993
  225MOL0     C30924  10.735   4.568   0.457  0.0068 -0.3824  0.3034
  225MOL0     C30925  10.819   4.448   0.470 -0.2237  0.0781  1.6136
  225MOL0     C30926  10.964   4.492   0.456  0.4389  0.7134 -0.2520
  225MOL0     C30927  11.059   4.371   0.445 -0.3765 -0.5743 -0.4028
  225MOL0     C30928  11.206   4.420   0.453  0.3552  0.2969  1.0329
  225MOL0     N30929  11.298   4.339   0.369 -0.5899 -0.2433  0.2956
  225MOL0     C30930  11.322   4.204   0.383  0.4810  0.9671  0.5768
  225MOL0     C30931  11.428   4.181   0.309  0.3133  0.6057  0.0032
  225MOL0     C30932  11.498   4.046   0.278  0.3396 -0.3300  0.6765
  225MOL0     C30933  11.651   4.045   0.305 -0.4050  0.5098 -0.8305
  225MOL0     C30934  11.699   3.894   0.310  0.2967  0.2351  0.6980
  225MOL0     C30935  11.851   3.888   0.285 -0.2079 -0.0180  0.1906
  225MOL0     O30936  11.886   3.748   0.282 -0.3386 -0.2553  0.1339
  225MOL0     C30937  12.022   3.715   0.285  0.7901  0.6154  0.2153
  225MOL0     C30938  12.126   3.806   0.286  0.1493 -0.1030  0.3178
  225MOL0     C30939  12.269   3.776   0.295 -0.1836  0.1630 -0.6058
  225MOL0     C30940  12.374   3.882   0.298 -0.1313  0.3461  0.2377
  225MOL0     C30941  12.296   3.635   0.296  1.2183  0.1189  0.4360
  225MOL0     C30942  12.425   3.579   0.304  0.1286  0.3361  0.3215
  225MOL0     O30943  12.448   3.461   0.374  0.3121  0.0979  0.3317
  225MOL0     C30944  12.577   3.412   0.371  0.6234 -0.2591  0.8057
  225MOL0     C30945  12.677   3.479   0.430 -0.3680  0.4967  0.0268
  225MOL0     C30946  12.810   3.429   0.428 -0.4939 -0.6173  0.2439
  225MOL0     C30947  12.843   3.323   0.338 -0.0184  0.2666  0.4565
  225MOL0     O30948  12.975   3.282   0.317 -0.2981 -0.3764 -0.2090
  225MOL0     C30949  13.013   3.207   0.205 -1.1829  0.1090  0.7335
  225MOL0     C30950  13.163   3.235   0.174  0.3431  0.4305  0.2518
  225MOL0     C30951  13.248   3.140   0.263 -0.4344 -0.5891  0.6005
  225MOL0     C30952  13.397   3.166   0.233  0.3812  0.0038  0.0105
  225MOL0     C30953  13.474   3.073   0.326 -0.4485 -0.9727  0.3960
  225MOL0     C30954  13.482   3.139   0.469 -0.8443 -0.7288  0.3328
  225MOL0     C30955  13.557   3.043   0.567  0.0549 -0.0649 -0.1705
  225MOL0     C30956  13.564   3.107   0.700  0.4384  0.3300  1.3635
  225MOL0    Cl30957  13.626   2.993   0.831  0.0292 -0.0043 -0.3707
  225MOL0     C30958  12.739   3.255   0.279 -0.7444  0.3395  0.6104
  225MOL0     C30959  12.605   3.299   0.297  0.9508 -0.6151 -0.1533
  225MOL0     O30960  12.507   3.644   0.243  0.0939  0.1406 -0.0142
  225MOL0     C30961  12.191   3.545   0.307  0.3836  0.2071  0.4626
  225MOL0     C30962  12.051   3.581   0.298  0.3532  0.9003 -0.5343
  225MOL0     N30963  11.462   4.298   0.247 -1.0188 -0.1512  0.4495
  225MOL0     N30964  11.397   4.399   0.296  0.7232  1.0407 -0.0212
  225MOL0     C30965  10.239   4.263   0.295 -0.3375  0.2229  0.2979
  225MOL0     C30966  10.137   4.165   0.318  0.7309 -0.2355 -0.7242
  225MOL0     C30967   9.813   3.941   0.528  0.2184  0.5279  0.4953
  225MOL0     C30968   9.693   4.012   0.522 -0.7232 -0.7831 -0.3464
  225MOL0     C30969   9.572   3.950   0.550  0.1910  0.3208  0.3472
  225MOL0     C30970   9.564   3.827   0.612  0.4750  0.9455  0.3754
  225MOL0     O30971   9.440   3.773   0.634  0.3390 -0.3066  0.1115
  225MOL0     C30972   9.426   3.639   0.673  0.2120  0.2516 -0.4213
  225MOL0     C30973   9.373   3.623   0.815 -0.5104 -0.3127  0.7171
  225MOL0     C30974   9.481   3.618   0.916 -0.7290 -0.0891  0.1669
  225MOL0     C30975   9.439   3.631   1.062  0.3858  0.8631 -0.1026
  225MOL0     C30976   9.569   3.638   1.134  0.1738 -1.0620  0.3510
  225MOL0     C30977   9.680   3.645   1.188 -0.1954  0.0439  0.2125
  225MOL0     C30978   9.682   3.764   0.649 -0.4734  0.2113  0.4147
  225MOL0     C30979   9.809   3.816   0.602  0.2296  0.5327 -0.4999
  225MOL0     C30980   9.934   3.730   0.634 -0.1662  0.2375  1.2147
  225MOL0     H30981   9.883   4.370   0.398 -0.3930 -1.5688  2.0436
  225MOL0     H30982  10.081   4.549   0.385  1.6913  0.7819  3.3114
  225MOL0     H30983  10.353   4.547   0.491 -0.0838 -0.7157 -1.3804
  225MOL0     H30984  10.296   4.675   0.377  2.7016  1.0302 -0.9292
  225MOL0     H30985  10.525   4.660   0.270 -1.5788 -1.6177 -0.7736
  225MOL0     H30986  10.517   4.704   0.446 -0.6930 -0.6404  0.4237
  225MOL0     H30987  10.557   4.451   0.489  2.6119 -1.3305 -0.2381
  225MOL0     H30988  10.611   4.451   0.325  2.2841 -0.0245  0.0780
  225MOL0     H30989  10.777   4.638   0.384  0.2735 -1.1053 -0.2488
  225MOL0     H30990  10.742   4.620   0.553  2.6670  0.4558 -0.2691
  225MOL0     H30991  10.785   4.367   0.406  0.6778  0.1908  0.9690
  225MOL0     H30992  10.808   4.388   0.561 -1.2015 -5.4398 -1.6907
  225MOL0     H30993  10.971   4.529   0.354 -0.6143  0.5278 -0.4062
  225MOL0     H30994  10.986   4.566   0.534  2.6801  0.6638 -0.7711
  225MOL0     H30995  11.031   4.314   0.356 -1.2962 -4.9611  2.3564
  225MOL0     H30996  11.045   4.302   0.529 -2.2171  1.0700  0.7212
  225MOL0     H30997  11.211   4.522   0.414 -1.5882  0.8409  2.0634
  225MOL0     H30998  11.241   4.422   0.557 -0.1342 -2.2176  1.2989
  225MOL0     H30999  11.263   4.132   0.438  1.7846  0.6421  1.5853
  225MOL0     H31000  11.462   4.024   0.177 -2.6127  0.7862  1.3828
  225MOL0     H31001  11.457   3.976   0.351 -1.6730  1.8169  1.7100
  225MOL0     H31002  11.681   4.103   0.218  0.8816  0.7493 -0.2423
  225MOL0     H31003  11.676   4.105   0.393 -0.1956  1.4999 -1.5508
  225MOL0     H31004  11.665   3.843   0.401 -1.2507 -0.2489 -0.1151
  225MOL0     H31005  11.643   3.847   0.229 -1.2536  2.2092  0.5360
  225MOL0     H31006  11.874   3.928   0.186 -0.7295  0.1943  0.1551
  225MOL0     H31007  11.906   3.934   0.368  1.0026  1.4047 -1.3515
  225MOL0     H31008  12.115   3.912   0.266 -1.4147  0.0124  1.5695
  225MOL0     H31009  12.395   3.913   0.195  0.5036 -1.0376 -0.0804
  225MOL0     H31010  12.463   3.848   0.352 -1.5109 -3.7667  0.3407
  225MOL0     H31011  12.338   3.972   0.348 -1.6332  0.2347 -0.5637
  225MOL0     H31012  12.652   3.576   0.473 -0.5514  0.8059 -0.7498
  225MOL0     H31013  12.894   3.488   0.463 -1.9831  1.4711  0.5400
  225MOL0     H31014  13.004   3.099   0.221 -0.9423 -0.2245 -1.1494
  225MOL0     H31015  12.952   3.231   0.117  1.4336 -0.9287 -1.4840
  225MOL0     H31016  13.181   3.215   0.068 -0.1195 -2.0992  0.5817
  225MOL0     H31017  13.184   3.340   0.199  0.0780  1.2036 -2.4423
  225MOL0     H31018  13.218   3.037   0.242 -2.6940 -0.4493  2.6114
  225MOL0     H31019  13.222   3.151   0.369 -2.9301 -0.9046  0.0831
  225MOL0     H31020  13.420   3.270   0.255  1.4631 -0.2356  0.0678
  225MOL0     H31021  13.424   3.147   0.129  2.1280  0.4234  0.3465
  225MOL0     H31022  13.427   2.974   0.331  1.8825 -2.1506  0.2820
  225MOL0     H31023  13.576   3.071   0.286 -1.1195  1.6788 -1.7298
  225MOL0     H31024  13.379   3.162   0.497 -1.2553 -1.0070 -0.8698
  225MOL0     H31025  13.532   3.236   0.462 -1.1199 -0.5112  1.2920
  225MOL0     H31026  13.660   3.028   0.534 -0.5214  0.0090 -2.1392
  225MOL0     H31027  13.506   2.946   0.566 -0.0202 -0.1283  2.7569
  225MOL0     H31028  13.470   3.152   0.731  0.0590  0.4149  0.1662
  225MOL0     H31029  13.632   3.193   0.690 -0.8514  1.1212 -1.8226
  225MOL0     H31030  12.752   3.172   0.210 -1.0168  1.5427 -0.9599
  225MOL0     H31031  12.517   3.248   0.259 -0.6669  0.8925  1.4183
  225MOL0     H31032  12.206   3.438   0.317  0.1379  0.1320  0.0806
  225MOL0     H31033  11.968   3.511   0.296  1.5919 -0.6263 -0.5754
  225MOL0     H31034  10.338   4.245   0.255 -0.7894 -0.4129 -0.5785
  225MOL0     H31035  10.159   4.059   0.305 -0.8490 -0.6757 -0.0545
  225MOL0     H31036   9.693   4.116   0.492 -2.7772 -1.1299 -1.7373
  225MOL0     H31037   9.476   4.000   0.541 -0.0084 -0.0612  0.3538
  225MOL0     H31038   9.350   3.592   0.609 -2.5621  0.4758  2.4874
  225MOL0     H31039   9.524   3.590   0.669  0.1729  0.1677 -0.3143
  225MOL0     H31040   9.318   3.528   0.818  0.7474 -1.0477  1.9258
  225MOL0     H31041   9.309   3.705   0.850  2.6940  2.3107  0.9516
  225MOL0     H31042   9.532   3.522   0.903  1.9718  1.4620 -1.7899
  225MOL0     H31043   9.564   3.684   0.890  0.3935 -0.9059  1.5430
  225MOL0     H31044   9.385   3.544   1.101  3.0140 -1.3163 -1.0094
  225MOL0     H31045   9.385   3.725   1.080 -1.7908 -0.6904  2.0014
  225MOL0     H31046   9.769   3.656   1.246 -0.0503 -0.1457  0.0275
  225MOL0     H31047   9.693   3.675   0.709  0.6824  1.7201  2.5664
  225MOL0     H31048  10.004   3.740   0.551 -0.7404 -1.0925  0.5368
  225MOL0     H31049   9.983   3.770   0.724  1.5685  2.5723 -0.6373
  225MOL0     H31050   9.907   3.624   0.645  0.3671 -0.0397  0.0066
  226MOL0     O31051   5.723   3.406   9.546 -0.1720 -0.3301 -0.3033
  226MOL0     C31052   5.670   3.453   9.446 -0.1292 -0.5256  0.4304
  226MOL0     O31053   5.720   3.553   9.364 -0.5283 -0.1496 -0.2766
  226MOL0     C31054   5.859   3.590   9.384  0.1637 -0.6342  0.3780
  226MOL0     C31055   5.895   3.725   9.409 -1.3009  0.1176 -0.6481
  226MOL0     C31056   6.030   3.759   9.443 -0.3846 -0.0291 -0.6811
  226MOL0     C31057   6.130   3.659   9.450 -1.3969 -0.5670  0.0703
  226MOL0     O31058   6.257   3.686   9.484  0.0531 -0.5313  0.0307
  226MOL0     C31059   6.306   3.824   9.504 -0.0471 -0.5605 -0.3167
  226MOL0     C31060   6.437   3.832   9.588  0.1436  0.6137 -0.2240
  226MOL0     C31061   6.522   3.959   9.560 -0.1793  0.3254  0.1943
  226MOL0     C31062   6.650   3.953   9.638 -0.6845  0.3407  0.7832
  226MOL0     C31063   6.729   4.080   9.608 -0.2207  0.8017 -0.3506
  226MOL0     C31064   6.787   4.084   9.460 -0.1925  0.2606  0.5324
  226MOL0     C31065   6.906   3.994   9.443 -0.4052  0.1531  0.0052
  226MOL0     C31066   6.984   4.029   9.313 -0.3514 -0.3893 -0.9148
  226MOL0     N31067   7.077   4.141   9.350 -0.1556  0.0137  0.2570
  226MOL0     C31068   7.086   4.222   9.463 -0.7105  0.4141  0.1207
  226MOL0     C31069   7.183   4.314   9.434 -0.5132  0.2936 -0.2060
  226MOL0     C31070   7.248   4.423   9.521  0.5217 -0.5620 -0.0498
  226MOL0     C31071   7.397   4.387   9.543 -0.2518 -0.6701 -0.8621
  226MOL0     C31072   7.426   4.260   9.628  0.0933  0.3961 -0.5940
  226MOL0     C31073   7.429   4.289   9.775  0.2055  0.0844 -1.0995
  226MOL0     O31074   7.517   4.377   9.832 -0.4429 -0.3003  0.0198
  226MOL0     C31075   7.655   4.361   9.825  0.4265  0.3253  0.2514
  226MOL0     C31076   7.729   4.473   9.817  0.2025 -0.6041  1.5220
  226MOL0     C31077   7.867   4.472   9.816 -0.0984  0.7039 -0.1623
  226MOL0     C31078   7.929   4.604   9.800 -1.1222  0.0313 -0.0990
  226MOL0     C31079   7.938   4.352   9.817 -0.6304  0.0306  0.0092
  226MOL0     C31080   8.086   4.335   9.807  0.0979 -0.4127 -1.3699
  226MOL0     O31081   8.136   4.217   9.840 -0.2057 -0.6787 -0.2100
  226MOL0     C31082   8.273   4.215   9.851 -0.0806  0.3450 -0.3515
  226MOL0     C31083   8.337   4.126   9.770 -0.2737  0.0382 -0.4034
  226MOL0     C31084   8.480   4.114   9.763  0.2305 -0.8613  0.2910
  226MOL0     C31085   8.552   4.199   9.848  0.3287  1.0815  0.6805
  226MOL0     O31086   8.691   4.195   9.868 -0.2854 -0.2722  0.1365
  226MOL0     C31087   8.768   4.087   9.821  0.3209  0.2545 -0.8263
  226MOL0     C31088   8.895   4.106   9.893 -0.6332 -0.1066 -0.6376
  226MOL0     C31089   8.959   4.251   9.870  0.2821  0.5722  0.1244
  226MOL0     C31090   9.110   4.241   9.891  0.8934 -0.4384  0.1980
  226MOL0     C31091   9.174   4.380   9.909  0.5185 -0.3187  0.6681
  226MOL0     C31092   9.167   4.466   9.779  0.6468  0.1394  0.1436
  226MOL0     C31093   9.271   4.575   9.773  0.0804 -0.0504 -0.6057
  226MOL0     C31094   9.248   4.670   9.651 -0.3816  0.0158 -0.2531
  226MOL0    Cl31095   9.099   4.771   9.674 -0.1527 -0.1256  0.0366
  226MOL0     C31096   8.492   4.288   9.928 -0.2263 -0.1864  0.4520
  226MOL0     C31097   8.356   4.300   9.934 -0.3576  0.0940  0.4325
  226MOL0     O31098   8.152   4.430   9.773  0.1762  0.4958 -0.5960
  226MOL0     C31099   7.859   4.234   9.835 -1.1204  0.1640  0.0076
  226MOL0     C31100   7.719   4.237   9.835  0.3298 -0.0760 -0.4715
  226MOL0     N31101   7.234   4.285   9.309  0.3678  0.1009  0.3442
  226MOL0     N31102   7.164   4.190   9.256 -1.0106 -0.5553 -0.4997
  226MOL0     C31103   6.097   3.530   9.410  0.1483  1.0269  0.3329
  226MOL0     C31104   5.961   3.494   9.373  0.4108  0.6857 -0.3517
  226MOL0     C31105   5.542   3.397   9.394  0.1608  0.7933 -0.0576
  226MOL0     C31106   5.463   3.480   9.311 -0.8389 -0.4634  0.5721
  226MOL0     C31107   5.346   3.438   9.256 -0.1343  0.1647  0.3504
  226MOL0     C31108   5.306   3.310   9.281 -0.1509 -0.0988  1.2607
  226MOL0     O31109   5.187   3.284   9.228  0.7404 -0.5165  0.0042
  226MOL0     C31110   5.145   3.146   9.202 -0.0518  0.6924  0.4933
  226MOL0     C31111   5.098   3.140   9.051 -0.2013 -0.5650 -0.6011
  226MOL0     C31112   5.047   3.012   9.016 -0.4832 -0.4308  0.3733
  226MOL0     C31113   5.122   2.878   9.048  0.0702 -0.4100 -1.0563
  226MOL0     C31114   5.253   2.880   8.991 -0.4809  0.5002 -0.1098
  226MOL0     C31115   5.353   2.904   8.927 -0.5281  0.0202 -0.6316
  226MOL0     C31116   5.381   3.220   9.354 -0.0846 -0.3891  0.0361
  226MOL0     C31117   5.494   3.265   9.420  0.9829  0.2680 -0.2975
  226MOL0     C31118   5.565   3.158   9.500 -0.2709 -0.2309  0.0855
  226MOL0     H31119   5.821   3.805   9.407 -0.4669  0.8904 -1.5931
  226MOL0     H31120   6.050   3.863   9.466  4.1118 -1.2954  2.2904
  226MOL0     H31121   6.234   3.885   9.559  0.5753 -0.7973  0.7955
  226MOL0     H31122   6.317   3.856   9.400  0.6396 -1.7070 -0.6176
  226MOL0     H31123   6.404   3.833   9.693  0.0507 -0.2734 -0.2377
  226MOL0     H31124   6.499   3.744   9.570  2.0593  1.6132  1.0661
  226MOL0     H31125   6.544   3.964   9.453  3.2812 -2.7884  0.5613
  226MOL0     H31126   6.472   4.047   9.604 -3.2292 -2.2685  2.4610
  226MOL0     H31127   6.630   3.937   9.744  1.8147  0.0072  1.2690
  226MOL0     H31128   6.694   3.861   9.600 -1.1712  0.7253 -0.7767
  226MOL0     H31129   6.819   4.085   9.670 -0.4212  0.1922  0.0050
  226MOL0     H31130   6.668   4.170   9.617 -1.0624  0.0769  2.2977
  226MOL0     H31131   6.707   4.051   9.393  0.0993 -0.6519  0.6117
  226MOL0     H31132   6.818   4.187   9.442  1.7944 -0.5488 -1.0391
  226MOL0     H31133   6.868   3.892   9.437 -0.4059  0.2448 -4.2234
  226MOL0     H31134   6.981   4.005   9.522  0.5890  1.4613 -1.0785
  226MOL0     H31135   7.041   3.944   9.274 -1.4422 -1.4784 -0.1925
  226MOL0     H31136   6.903   4.062   9.247  0.1040  2.5763 -0.1125
  226MOL0     H31137   7.045   4.202   9.562  4.8340 -0.1410  2.7276
  226MOL0     H31138   7.194   4.446   9.613  0.3478  0.7692 -0.4635
  226MOL0     H31139   7.245   4.515   9.462  0.7736 -0.5632 -0.0679
  226MOL0     H31140   7.437   4.371   9.442  2.7291  0.5032  0.0268
  226MOL0     H31141   7.453   4.470   9.588  1.0735 -1.2491 -1.3717
  226MOL0     H31142   7.358   4.175   9.619  0.9800 -0.6969  2.0406
  226MOL0     H31143   7.526   4.227   9.598 -0.2935  0.1526 -1.6488
  226MOL0     H31144   7.330   4.327   9.801 -0.1345 -1.9746  0.8733
  226MOL0     H31145   7.434   4.194   9.829 -0.8482  0.5946 -0.0646
  226MOL0     H31146   7.679   4.569   9.822 -0.2715 -0.7193 -0.3175
  226MOL0     H31147   8.013   4.611   9.869 -1.3987  1.2874  0.1414
  226MOL0     H31148   7.857   4.685   9.817 -1.5990 -0.8269  2.3205
  226MOL0     H31149   7.973   4.624   9.701  2.1450  0.0006  1.2160
  226MOL0     H31150   8.274   4.068   9.703  0.4097  0.9961 -1.9270
  226MOL0     H31151   8.536   4.047   9.698 -1.6005  0.2289 -2.6303
  226MOL0     H31152   8.717   3.995   9.851  0.4120  1.0111  1.8334
  226MOL0     H31153   8.789   4.087   9.713 -0.2375 -0.6052 -0.9483
  226MOL0     H31154   8.878   4.086   9.999 -1.1749  3.3490  0.0525
  226MOL0     H31155   8.962   4.032   9.848  2.0432 -0.0889  2.8692
  226MOL0     H31156   8.909   4.321   9.938 -0.0972 -0.3115  0.7744
  226MOL0     H31157   8.946   4.278   9.765  1.3741 -0.1820 -0.2193
  226MOL0     H31158   9.159   4.193   9.805  2.4359  1.4170 -0.0310
  226MOL0     H31159   9.125   4.175   9.977  0.5826 -1.8940 -0.8322
  226MOL0     H31160   9.130   4.429   9.996  0.9996 -2.3495  2.1322
  226MOL0     H31161   9.279   4.365   9.936  0.3403 -2.3690  0.3271
  226MOL0     H31162   9.072   4.518   9.794  2.1852  3.6802 -1.3748
  226MOL0     H31163   9.163   4.401   9.692  0.3977  0.9890 -0.4880
  226MOL0     H31164   9.376   4.543   9.767  1.9419  4.5283  2.1441
  226MOL0     H31165   9.261   4.629   9.867 -2.7495  2.5610 -2.2512
  226MOL0     H31166   9.235   4.621   9.555  0.8230  1.6872 -1.3358
  226MOL0     H31167   9.341   4.727   9.648  1.1720 -2.3664  0.3564
  226MOL0     H31168   8.556   4.352   9.988 -0.9125 -0.9577  2.0734
  226MOL0     H31169   8.305   4.378   9.991 -0.5149 -0.9793  1.8119
  226MOL0     H31170   7.909   4.139   9.849 -1.5864 -0.1943 -0.6853
  226MOL0     H31171   7.652   4.151   9.839 -0.9394  0.9340  2.2013
  226MOL0     H31172   6.164   3.445   9.413 -1.7531 -0.6573 -1.4647
  226MOL0     H31173   5.921   3.396   9.351  1.0205  0.2318  0.5017
  226MOL0     H31174   5.496   3.581   9.290 -2.2733  0.4563  2.4493
  226MOL0     H31175   5.295   3.507   9.190  1.1466  2.2438  1.4148
  226MOL0     H31176   5.218   3.065   9.215 -0.3210 -0.0357 -2.0332
  226MOL0     H31177   5.058   3.120   9.261  1.4803 -1.2292  2.0310
  226MOL0     H31178   5.181   3.161   8.984  1.2546 -0.1533  1.2402
  226MOL0     H31179   5.017   3.212   9.034 -0.7585 -1.1922 -0.6299
  226MOL0     H31180   4.945   3.001   9.053 -0.2901 -1.1185  0.7088
  226MOL0     H31181   5.051   3.009   8.906  1.8663  0.0322  0.3855
  226MOL0     H31182   5.060   2.794   9.019 -2.9136  0.4346  2.1693
  226MOL0     H31183   5.123   2.866   9.157 -0.5359  1.7566 -0.7535
  226MOL0     H31184   5.438   2.927   8.867 -0.2146  1.9577  0.4752
  226MOL0     H31185   5.359   3.114   9.366  1.2756 -0.6583  0.3209
  226MOL0     H31186   5.555   3.179   9.607  4.0255 -0.0126  0.5927
  226MOL0     H31187   5.528   3.057   9.477  0.4071  0.0585 -2.7192
  226MOL0     H31188   5.669   3.138   9.475  0.1183 -1.0733  2.2277
  227MOL0     O31189   2.676   8.062  10.505  0.2502 -0.7776  0.0017
  227MOL0     C31190   2.613   8.016  10.410 -0.3214  0.5312 -0.2756
  227MOL0     O31191   2.607   7.881  10.385  0.7196  0.0534 -0.3528
  227MOL0     C31192   2.712   7.797  10.397 -0.0721 -0.2155  0.1930
  227MOL0     C31193   2.687   7.665  10.350 -0.5045  0.4611  0.0014
  227MOL0     C31194   2.791   7.566  10.334 -0.0507  1.5290  0.6465
  227MOL0     C31195   2.927   7.602  10.376  0.1550  0.3177 -0.0943
  227MOL0     O31196   3.036   7.509  10.367  0.8359  0.6547 -0.6559
  227MOL0     C31197   2.996   7.371  10.388 -0.3619  0.1525 -0.1107
  227MOL0     C31198   3.124   7.282  10.392 -0.5522  0.5701 -0.6617
  227MOL0     C31199   3.187   7.299  10.529 -0.1138 -0.2299 -0.2350
  227MOL0     C31200   3.261   7.175  10.596 -0.2106 -0.2077  0.7659
  227MOL0     C31201   3.334   7.214  10.726  0.6736 -0.1965 -0.4837
  227MOL0     C31202   3.349   7.086  10.805  0.1828 -0.3849  0.4421
  227MOL0     C31203   3.395   7.129  10.947  0.1501  0.3985  0.7402
  227MOL0     C31204   3.423   7.012  11.029 -0.3934  0.3341 -0.0301
  227MOL0     N31205   3.547   6.935  11.007 -0.6045 -0.7465 -0.1328
  227MOL0     C31206   3.670   6.986  10.968  0.4016 -0.2286  0.1792
  227MOL0     C31207   3.764   6.885  10.990  0.1267  0.3952 -0.2627
  227MOL0     C31208   3.913   6.891  10.954 -1.1168  0.1425 -0.1615
  227MOL0     C31209   4.012   6.847  11.062 -0.0986 -0.0951 -0.4975
  227MOL0     C31210   4.149   6.808  11.004  1.0584  0.0694 -0.0034
  227MOL0     C31211   4.240   6.770  11.122  0.5854  0.5008 -0.0588
  227MOL0     O31212   4.286   6.888  11.194 -0.5053  0.3416  0.0598
  227MOL0     C31213   4.370   6.975  11.126  0.0096  0.0093 -0.7000
  227MOL0     C31214   4.348   7.102  11.165  0.1658 -0.0315 -0.2704
  227MOL0     C31215   4.443   7.201  11.142 -1.0180  0.0789 -0.1781
  227MOL0     C31216   4.408   7.339  11.186 -0.1725  0.0652  1.1474
  227MOL0     C31217   4.568   7.169  11.078 -0.3043 -0.1326  0.6009
  227MOL0     C31218   4.685   7.259  11.065 -0.6603 -0.6127 -0.2346
  227MOL0     O31219   4.667   7.390  11.059 -0.8145  0.2406  0.0986
  227MOL0     C31220   4.771   7.484  11.052  0.0154 -0.0234 -0.5743
  227MOL0     C31221   4.795   7.543  10.932 -0.8979  0.2387  0.2526
  227MOL0     C31222   4.898   7.639  10.924  0.0942  0.3958 -0.1626
  227MOL0     C31223   4.988   7.675  11.028  0.9398  0.3023 -0.5215
  227MOL0     O31224   5.085   7.760  10.999  0.5721  0.1422  0.7719
  227MOL0     C31225   5.170   7.810  11.104 -0.3031 -0.5788 -0.3382
  227MOL0     C31226   5.291   7.727  11.141 -1.0597 -0.7290 -0.2774
  227MOL0     C31227   5.379   7.679  11.032  0.3702  0.3767 -0.2313
  227MOL0     C31228   5.440   7.803  10.970 -0.0004  0.1181 -0.6304
  227MOL0     C31229   5.508   7.767  10.836 -0.0889  0.2068  0.5443
  227MOL0     C31230   5.421   7.716  10.725  0.2233  0.3195 -0.1290
  227MOL0     C31231   5.291   7.787  10.685  0.7720 -1.1457 -0.1090
  227MOL0     C31232   5.302   7.929  10.609  0.6164  0.8495  0.3060
  227MOL0    Cl31233   5.377   7.903  10.459 -0.7529 -0.0533 -0.0961
  227MOL0     C31234   4.971   7.605  11.149 -0.4012  0.2574 -0.2857
  227MOL0     C31235   4.860   7.515  11.165 -0.7067  0.1288 -0.5622
  227MOL0     O31236   4.794   7.202  11.062  0.3972 -0.6204  0.5266
  227MOL0     C31237   4.580   7.038  11.034 -0.1463 -1.1241  0.0074
  227MOL0     C31238   4.484   6.940  11.066 -1.1739 -0.7607 -0.1149
  227MOL0     N31239   3.691   6.778  11.030 -0.6711 -0.4216 -0.4074
  227MOL0     N31240   3.569   6.804  11.039 -0.3571  0.1531 -0.5611
  227MOL0     C31241   2.947   7.727  10.428 -0.1891 -0.5046  0.3775
  227MOL0     C31242   2.846   7.820  10.430  0.1352  0.5874  0.2344
  227MOL0     C31243   2.519   8.107  10.331 -0.1138 -0.2156 -0.5679
  227MOL0     C31244   2.456   8.070  10.206  0.2252 -0.4887  0.4083
  227MOL0     C31245   2.361   8.140  10.128  0.4860 -0.5403  0.0088
  227MOL0     C31246   2.305   8.252  10.186 -0.3214 -0.2279  0.0969
  227MOL0     O31247   2.200   8.321  10.126 -0.0530  0.3985 -0.2095
  227MOL0     C31248   2.084   8.251  10.077 -0.0536 -0.0262  0.6848
  227MOL0     C31249   2.025   8.147  10.165  0.8324  0.3730  0.1860
  227MOL0     C31250   2.006   8.196  10.305 -0.3057  0.5056  0.5281
  227MOL0     C31251   1.894   8.295  10.323  0.5236 -0.4787  1.2562
  227MOL0     C31252   1.925   8.376  10.437 -0.2022 -0.5117 -0.5612
  227MOL0     C31253   1.943   8.438  10.535 -0.0464  0.4372 -0.0701
  227MOL0     C31254   2.368   8.303  10.305  0.0681 -0.3985 -0.1462
  227MOL0     C31255   2.474   8.240  10.368 -0.1403 -0.3848 -0.3350
  227MOL0     C31256   2.532   8.317  10.489  0.2806 -0.7778 -0.2018
  227MOL0     H31257   2.585   7.658  10.313 -1.2734  0.8759  1.8995
  227MOL0     H31258   2.765   7.476  10.279 -2.6383  1.6321  1.5644
  227MOL0     H31259   2.937   7.337  10.302 -1.0005 -0.3103  0.4999
  227MOL0     H31260   2.934   7.381  10.478  0.7082  2.8928  0.4165
  227MOL0     H31261   3.103   7.177  10.370 -0.2505  0.5803 -1.0095
  227MOL0     H31262   3.194   7.325  10.319 -0.1300  1.0265  0.0035
  227MOL0     H31263   3.251   7.387  10.532 -1.1851  0.5410  1.2130
  227MOL0     H31264   3.098   7.321  10.589  0.6910  1.5108  0.3614
  227MOL0     H31265   3.185   7.100  10.619 -1.0908  0.4598  0.1169
  227MOL0     H31266   3.334   7.140  10.522 -0.7368  1.4715 -0.6076
  227MOL0     H31267   3.277   7.287  10.784  0.6940 -1.1610  0.8170
  227MOL0     H31268   3.428   7.267  10.708  2.2544 -3.3250 -2.2902
  227MOL0     H31269   3.255   7.030  10.793  0.6192 -1.0421  0.0750
  227MOL0     H31270   3.426   7.032  10.751  0.2564  0.5849 -0.4604
  227MOL0     H31271   3.322   7.193  10.999  0.5717  1.1867  0.3887
  227MOL0     H31272   3.482   7.195  10.942 -0.8485  1.8903  1.9945
  227MOL0     H31273   3.450   7.055  11.125 -1.6135  1.2672 -0.0916
  227MOL0     H31274   3.332   6.951  11.033  0.2341 -0.7652 -1.4098
  227MOL0     H31275   3.684   7.083  10.921  0.8949  0.7157  2.1963
  227MOL0     H31276   3.935   6.994  10.924  1.4669  0.2988  1.9529
  227MOL0     H31277   3.936   6.825  10.871 -1.1078 -0.6361  0.4515
  227MOL0     H31278   4.020   6.937  11.125  1.1030 -1.1539  0.9497
  227MOL0     H31279   3.975   6.762  11.119 -1.6720  1.2872  0.6567
  227MOL0     H31280   4.145   6.716  10.945  1.4422  0.8613 -1.3169
  227MOL0     H31281   4.192   6.889  10.945  1.2499  0.0286  0.0791
  227MOL0     H31282   4.181   6.710  11.192  2.0392  2.5946  3.1952
  227MOL0     H31283   4.322   6.705  11.091  2.1037  3.0524 -1.7066
  227MOL0     H31284   4.251   7.119  11.210  0.7545  2.2498  0.2984
  227MOL0     H31285   4.320   7.352  11.249 -0.5551 -2.5228  1.2493
  227MOL0     H31286   4.381   7.396  11.096  1.5507 -1.7149 -0.6004
  227MOL0     H31287   4.489   7.382  11.246 -3.3134  2.3724  4.0909
  227MOL0     H31288   4.732   7.526  10.845 -0.9293 -1.5225  0.5824
  227MOL0     H31289   4.907   7.685  10.826 -0.1026  0.8769  0.0429
  227MOL0     H31290   5.206   7.907  11.069 -2.1140  1.7635  3.6524
  227MOL0     H31291   5.109   7.836  11.191  0.7443  2.0069 -0.2987
  227MOL0     H31292   5.362   7.784  11.201 -0.0558 -1.8708 -0.3384
  227MOL0     H31293   5.257   7.644  11.203  1.4936 -2.6718 -1.2999
  227MOL0     H31294   5.320   7.621  10.961  2.3702 -3.3945  0.9123
  227MOL0     H31295   5.456   7.611  11.070  0.2876 -0.0092 -0.7455
  227MOL0     H31296   5.505   7.848  11.046 -1.0658  0.2747  0.2003
  227MOL0     H31297   5.372   7.885  10.944 -0.3007  0.4981  1.2172
  227MOL0     H31298   5.566   7.851  10.798  2.1649 -0.6954  1.7647
  227MOL0     H31299   5.586   7.691  10.851  0.6284  1.2604  2.4785
  227MOL0     H31300   5.387   7.615  10.748 -0.2645 -0.1958 -2.7329
  227MOL0     H31301   5.478   7.714  10.631 -0.0605  0.4341 -0.3058
  227MOL0     H31302   5.232   7.801  10.776  0.8469 -0.4551 -0.1645
  227MOL0     H31303   5.237   7.715  10.622 -0.9442  2.2001 -2.7966
  227MOL0     H31304   5.372   8.000  10.653  2.7086  0.8980 -2.7975
  227MOL0     H31305   5.205   7.977  10.591  0.5401 -0.3645 -3.4785
  227MOL0     H31306   5.050   7.617  11.223 -0.0168 -0.4783 -0.5625
  227MOL0     H31307   4.847   7.463  11.259 -1.5505  0.3731 -0.5295
  227MOL0     H31308   4.661   6.996  10.976 -1.2824 -0.9035 -1.7901
  227MOL0     H31309   4.499   6.834  11.048 -2.9457 -1.6140  2.7753
  227MOL0     H31310   3.041   7.766  10.466  0.0708 -0.1587 -0.5848
  227MOL0     H31311   2.871   7.913  10.480  0.9694  0.6422 -0.2629
  227MOL0     H31312   2.497   7.983  10.155  0.4214  0.0467 -0.3573
  227MOL0     H31313   2.334   8.115  10.026  2.7388  0.7589 -0.9699
  227MOL0     H31314   2.002   8.321  10.060 -2.6610 -2.7872  1.1129
  227MOL0     H31315   2.118   8.197   9.988  2.0134 -1.1128  2.0531
  227MOL0     H31316   2.076   8.050  10.162 -0.5539 -0.7879  5.0689
  227MOL0     H31317   1.925   8.121  10.130  1.1779 -0.9883  0.1288
  227MOL0     H31318   1.978   8.109  10.365  0.4681  0.7950  1.3210
  227MOL0     H31319   2.103   8.230  10.342  0.5873 -0.5753 -0.7277
  227MOL0     H31320   1.803   8.239  10.345  0.6921 -1.6906 -0.8600
  227MOL0     H31321   1.886   8.357  10.233  0.9336  1.6474  2.6166
  227MOL0     H31322   1.978   8.498  10.617  2.5227 -1.4732  0.3530
  227MOL0     H31323   2.338   8.400  10.342 -1.0146 -0.5580 -0.5589
  227MOL0     H31324   2.499   8.268  10.581 -0.2852 -1.1143 -0.5709
  227MOL0     H31325   2.640   8.324  10.471  0.1886  0.0959 -0.4262
  227MOL0     H31326   2.502   8.422  10.496 -1.0372 -1.1597  0.1023
  228MOL0     O31327   2.276   4.980   5.373 -0.6738  0.2477 -0.3984
  228MOL0     C31328   2.255   4.862   5.351  0.3105  0.6372 -0.6114
  228MOL0     O31329   2.347   4.769   5.309  0.2644  0.3357  0.4622
  228MOL0     C31330   2.484   4.800   5.303  0.5514 -0.1602 -0.1682
  228MOL0     C31331   2.538   4.923   5.265  0.2803  0.1833  0.3110
  228MOL0     C31332   2.676   4.949   5.277 -0.9298  0.9596 -0.8745
  228MOL0     C31333   2.768   4.849   5.308  0.8825 -0.0790 -0.0960
  228MOL0     O31334   2.900   4.872   5.316 -0.6562  0.5993  0.8872
  228MOL0     C31335   2.994   4.766   5.315  0.0110 -0.0155  0.7240
  228MOL0     C31336   3.124   4.822   5.315 -1.2130 -0.3228 -0.0603
  228MOL0     C31337   3.240   4.718   5.300 -0.4443  0.5906 -0.6888
  228MOL0     C31338   3.376   4.798   5.305  0.7083 -0.4081  0.3693
  228MOL0     C31339   3.473   4.712   5.386 -0.1331  0.7556  0.0844
  228MOL0     C31340   3.627   4.757   5.376  0.1103  0.1077  0.2307
  228MOL0     C31341   3.719   4.698   5.479  0.2606  0.3828  0.6598
  228MOL0     C31342   3.692   4.740   5.620 -0.3530  0.8844  0.1218
  228MOL0     N31343   3.813   4.730   5.697 -0.6138  0.0330 -0.4419
  228MOL0     C31344   3.889   4.838   5.737 -0.0255 -0.2870  0.1164
  228MOL0     C31345   3.983   4.778   5.810 -0.5860  0.4836 -0.6223
  228MOL0     C31346   4.076   4.867   5.894 -0.3829  0.4458  0.4291
  228MOL0     C31347   4.210   4.869   5.824  0.5381  0.0817 -0.2185
  228MOL0     C31348   4.223   4.950   5.693  0.3552 -0.2157 -0.4363
  228MOL0     C31349   4.378   4.950   5.665 -0.8438  0.4877  0.0659
  228MOL0     O31350   4.464   5.005   5.772  0.0823 -0.0501  0.0840
  228MOL0     C31351   4.600   4.966   5.776  0.6249  0.0146 -0.1811
  228MOL0     C31352   4.677   4.913   5.670 -0.1245  0.2541  0.0114
  228MOL0     C31353   4.811   4.878   5.682  1.1969 -0.3385  0.4453
  228MOL0     C31354   4.876   4.842   5.543 -0.1487  0.6745 -0.0041
  228MOL0     C31355   4.876   4.884   5.809  0.3983  1.2565 -0.0284
  228MOL0     C31356   5.021   4.845   5.834  0.4713 -0.6216  0.2723
  228MOL0     O31357   5.070   4.839   5.964 -0.0124  0.4615 -0.0667
  228MOL0     C31358   5.203   4.834   5.987  0.0587 -0.0467  0.6991
  228MOL0     C31359   5.302   4.897   5.906 -0.5588  0.6221 -0.5218
  228MOL0     C31360   5.439   4.891   5.939 -0.4358 -0.3721 -1.0053
  228MOL0     C31361   5.483   4.810   6.046  0.2148 -0.3180 -1.3797
  228MOL0     O31362   5.615   4.786   6.069 -0.0407 -0.2422  0.4747
  228MOL0     C31363   5.686   4.734   5.951  0.8372  0.1071 -0.1492
  228MOL0     C31364   5.838   4.736   5.986  0.5830  0.1263  0.2435
  228MOL0     C31365   5.928   4.682   5.861 -0.0960  0.4863 -0.0215
  228MOL0     C31366   6.060   4.642   5.932  0.4501 -0.1329 -0.3423
  228MOL0     C31367   6.185   4.666   5.840  0.0347  0.3532 -1.1124
  228MOL0     C31368   6.306   4.650   5.923  0.1503 -0.1021 -0.0029
  228MOL0     C31369   6.442   4.680   5.847  0.4632 -0.1271 -0.4399
  228MOL0     C31370   6.459   4.828   5.816  0.0740  0.4041 -0.1948
  228MOL0    Cl31371   6.621   4.869   5.754 -0.3491  0.2124  0.5268
  228MOL0     C31372   5.390   4.762   6.129  0.1680 -0.1214 -0.0266
  228MOL0     C31373   5.245   4.765   6.104  0.2317  0.4602  0.8436
  228MOL0     O31374   5.086   4.823   5.731  0.1220  0.3883 -0.1933
  228MOL0     C31375   4.798   4.937   5.915 -0.8323 -0.1172 -0.3583
  228MOL0     C31376   4.669   4.989   5.899 -0.0797  0.1670 -0.0576
  228MOL0     N31377   3.968   4.638   5.809  0.7165 -0.0755  0.3738
  228MOL0     N31378   3.854   4.617   5.752  0.0494  0.3043 -0.3117
  228MOL0     C31379   2.714   4.718   5.336  0.0802 -0.2010 -0.4848
  228MOL0     C31380   2.576   4.701   5.338  0.3099 -0.2058 -0.6069
  228MOL0     C31381   2.109   4.818   5.362  0.3449  0.1355 -0.6045
  228MOL0     C31382   2.006   4.909   5.321 -0.0818  0.2726 -0.1430
  228MOL0     C31383   1.870   4.870   5.310  1.0413 -0.3393 -0.7545
  228MOL0     C31384   1.825   4.760   5.379 -0.6394  0.1773  0.0047
  228MOL0     O31385   1.693   4.727   5.400 -0.4168  0.4804 -0.6714
  228MOL0     C31386   1.603   4.836   5.433 -0.9464 -0.3347  0.3699
  228MOL0     C31387   1.463   4.768   5.475  0.3097 -0.3670 -0.1238
  228MOL0     C31388   1.480   4.694   5.604 -0.0400  0.4795 -0.6759
  228MOL0     C31389   1.360   4.601   5.628  0.0193  0.1553  0.2125
  228MOL0     C31390   1.223   4.649   5.592  0.2980 -0.3410  0.1931
  228MOL0     C31391   1.116   4.686   5.540  0.5353  0.9250 -1.0631
  228MOL0     C31392   1.925   4.666   5.416 -0.5497 -0.9632 -0.3837
  228MOL0     C31393   2.063   4.693   5.405 -0.3733  0.7114 -0.6789
  228MOL0     C31394   2.163   4.588   5.466  0.4179 -0.1199  0.2656
  228MOL0     H31395   2.483   5.016   5.255  1.2451  0.9526  1.7202
  228MOL0     H31396   2.714   5.051   5.270 -0.7326  0.8583 -1.2844
  228MOL0     H31397   2.982   4.710   5.222  1.9572 -0.8797  0.9496
  228MOL0     H31398   2.992   4.693   5.396  2.0154  0.4286  1.2262
  228MOL0     H31399   3.133   4.883   5.225 -0.0346 -2.0495 -1.1898
  228MOL0     H31400   3.152   4.882   5.402  0.2984  2.2782 -2.1885
  228MOL0     H31401   3.235   4.663   5.394 -0.4654  3.2126  0.9481
  228MOL0     H31402   3.240   4.659   5.208  1.4917  2.6256 -2.1101
  228MOL0     H31403   3.401   4.821   5.201 -0.8719  2.6635  0.5535
  228MOL0     H31404   3.369   4.894   5.357 -2.6372  0.0035 -0.6314
  228MOL0     H31405   3.457   4.606   5.363 -1.0266  0.6120  1.2823
  228MOL0     H31406   3.444   4.733   5.489 -2.5220  0.2779 -0.4357
  228MOL0     H31407   3.661   4.716   5.280  0.3631 -1.0178  0.7770
  228MOL0     H31408   3.629   4.864   5.395 -0.3912 -0.2005  2.3155
  228MOL0     H31409   3.822   4.729   5.458  0.4375  1.2939  2.6639
  228MOL0     H31410   3.709   4.589   5.473  1.3332  0.2052  1.7951
  228MOL0     H31411   3.658   4.844   5.622  2.8386  2.0406 -0.0018
  228MOL0     H31412   3.612   4.678   5.662 -1.8874 -0.5803 -4.4073
  228MOL0     H31413   3.865   4.939   5.703 -0.3815 -1.1473 -2.3601
  228MOL0     H31414   4.084   4.820   5.992 -2.3171  0.3995  0.6089
  228MOL0     H31415   4.033   4.967   5.908 -0.7488 -0.0008  2.9998
  228MOL0     H31416   4.283   4.904   5.899  0.8544  0.8804 -0.8822
  228MOL0     H31417   4.237   4.763   5.828  2.6394  0.5379 -1.0281
  228MOL0     H31418   4.165   4.907   5.610  0.8963  1.1831 -1.5857
  228MOL0     H31419   4.200   5.056   5.706  2.6342  0.3107 -0.2741
  228MOL0     H31420   4.418   4.852   5.640 -2.5572  0.1721 -1.6806
  228MOL0     H31421   4.399   5.008   5.575  0.7554  0.6822  0.5307
  228MOL0     H31422   4.627   4.886   5.578  1.2547  0.1644 -0.7390
  228MOL0     H31423   4.809   4.793   5.471  0.9512 -3.1050  1.3060
  228MOL0     H31424   4.954   4.766   5.555 -0.0005  0.7005 -0.7473
  228MOL0     H31425   4.924   4.927   5.494  3.4415 -0.0289  1.9651
  228MOL0     H31426   5.272   4.960   5.822  1.0533  0.4214 -1.2822
  228MOL0     H31427   5.513   4.943   5.879  0.9535 -0.1711  0.7846
  228MOL0     H31428   5.654   4.630   5.934 -1.3186  0.1240  3.0835
  228MOL0     H31429   5.658   4.784   5.858 -2.1518 -1.9666 -0.4957
  228MOL0     H31430   5.863   4.839   6.012 -1.4514  0.4129  1.2599
  228MOL0     H31431   5.858   4.679   6.077  0.6790  0.3566  0.3667
  228MOL0     H31432   5.946   4.758   5.785  2.0486 -1.0991 -1.2015
  228MOL0     H31433   5.881   4.592   5.820 -0.4715 -0.0057  1.4358
  228MOL0     H31434   6.057   4.535   5.953 -1.5810 -0.6814 -2.9275
  228MOL0     H31435   6.074   4.703   6.022  2.7924  0.6167 -1.1327
  228MOL0     H31436   6.187   4.602   5.751 -2.3584  1.3796 -2.0070
  228MOL0     H31437   6.172   4.765   5.795 -0.9048  0.9280  0.3502
  228MOL0     H31438   6.310   4.546   5.954  0.2572 -0.5070 -1.3121
  228MOL0     H31439   6.305   4.716   6.010 -2.3090 -0.5695  0.3803
  228MOL0     H31440   6.448   4.625   5.753 -1.0050 -0.7671 -0.1922
  228MOL0     H31441   6.521   4.652   5.917 -0.3159 -2.6259 -0.4543
  228MOL0     H31442   6.444   4.887   5.907  1.4654 -1.0449  1.0500
  228MOL0     H31443   6.386   4.861   5.742  2.3721  1.7025 -2.0112
  228MOL0     H31444   5.430   4.721   6.221 -0.7232  0.7545  0.7790
  228MOL0     H31445   5.170   4.727   6.172 -0.6299  2.1728  0.8890
  228MOL0     H31446   4.843   4.943   6.014 -4.0513  1.1176  1.1622
  228MOL0     H31447   4.623   5.026   5.991 -1.5907  1.8019 -1.4063
  228MOL0     H31448   2.770   4.631   5.366 -1.7651 -1.5678 -0.8271
  228MOL0     H31449   2.534   4.610   5.378  1.1222  0.8551  2.9902
  228MOL0     H31450   2.035   5.005   5.280 -1.3162  0.9017  0.3936
  228MOL0     H31451   1.804   4.940   5.259 -0.5190 -2.0370 -1.1869
  228MOL0     H31452   1.629   4.910   5.510  1.0279  0.2336 -0.7864
  228MOL0     H31453   1.584   4.894   5.342  0.7322 -0.9666 -0.4111
  228MOL0     H31454   1.433   4.709   5.388 -0.2254  1.4375 -1.2211
  228MOL0     H31455   1.392   4.851   5.483  0.5573 -0.2982  2.0703
  228MOL0     H31456   1.574   4.637   5.600 -0.3500  0.0148 -2.6891
  228MOL0     H31457   1.474   4.767   5.685 -1.3060  1.8518 -1.9480
  228MOL0     H31458   1.355   4.593   5.737  1.8199  4.4528  0.8251
  228MOL0     H31459   1.380   4.505   5.581  0.9111  0.2949  0.2939
  228MOL0     H31460   1.036   4.731   5.486 -1.3286  0.4797  1.1773
  228MOL0     H31461   1.895   4.573   5.463  0.5828 -1.1408  0.0038
  228MOL0     H31462   2.134   4.483   5.454 -0.8746  0.2555 -0.0707
  228MOL0     H31463   2.256   4.587   5.408  0.8785  2.4030  0.8288
  228MOL0     H31464   2.178   4.619   5.569  0.3983 -0.1929  0.2902
  229MOL0     O31465  10.336   1.790   9.583 -0.6041  1.0541 -0.0181
  229MOL0     C31466  10.335   1.768   9.463 -0.1801 -0.3249 -0.4015
  229MOL0     O31467  10.229   1.752   9.383  0.1283 -0.2716  0.0665
  229MOL0     C31468  10.112   1.727   9.450  0.0768  0.3233 -0.9812
  229MOL0     C31469  10.041   1.822   9.524 -0.2216 -0.5500 -0.1918
  229MOL0     C31470   9.920   1.790   9.594 -0.8423 -0.0395 -0.5930
  229MOL0     C31471   9.861   1.663   9.586 -0.6584  0.4820 -1.0637
  229MOL0     O31472   9.750   1.633   9.657  0.2178  0.0221  0.4768
  229MOL0     C31473   9.636   1.716   9.632  0.0336 -0.6057 -0.6341
  229MOL0     C31474   9.557   1.728   9.768  0.2542 -0.2781 -0.2368
  229MOL0     C31475   9.639   1.778   9.890 -0.5884  0.1522  0.2870
  229MOL0     C31476   9.552   1.832  10.005 -0.1590 -0.5247 -0.7349
  229MOL0     C31477   9.630   1.838  10.137  0.1876 -0.0311 -0.2409
  229MOL0     C31478   9.640   1.713  10.227 -0.4321  0.1697 -0.5354
  229MOL0     C31479   9.711   1.751  10.363 -0.6556  0.0697 -0.5878
  229MOL0     C31480   9.786   1.642  10.443  0.5850 -0.4419 -0.3908
  229MOL0     N31481   9.699   1.532  10.485  0.0820  0.7475 -0.3800
  229MOL0     C31482   9.679   1.495  10.618  0.6803  0.1996  0.1279
  229MOL0     C31483   9.604   1.379  10.606  0.3919 -0.6876 -0.3879
  229MOL0     C31484   9.563   1.285  10.724 -0.6184  0.0420  0.1809
  229MOL0     C31485   9.664   1.165  10.724 -0.6468  0.4700  0.7366
  229MOL0     C31486   9.804   1.211  10.771 -0.1382 -0.1069  0.6013
  229MOL0     C31487   9.917   1.120  10.729 -0.3028  0.1014  0.2165
  229MOL0     O31488   9.987   1.052  10.836  0.2264  0.2691 -0.5196
  229MOL0     C31489  10.089   0.969  10.804  0.2377 -0.9759  0.0686
  229MOL0     C31490  10.183   0.944  10.898 -0.4564 -1.0901 -0.4836
  229MOL0     C31491  10.295   0.873  10.879  0.4107 -0.8807  0.0602
  229MOL0     C31492  10.390   0.878  10.994  0.4903 -0.8432 -0.1793
  229MOL0     C31493  10.322   0.814  10.749 -0.3125  0.0941 -0.6101
  229MOL0     C31494  10.449   0.740  10.720 -0.5360  0.6284  0.1472
  229MOL0     O31495  10.472   0.714  10.591  0.1495  0.3607 -0.2402
  229MOL0     C31496  10.599   0.671  10.558 -0.5485  0.1526  1.0045
  229MOL0     C31497  10.706   0.755  10.547  0.6897  0.0814  0.2767
  229MOL0     C31498  10.841   0.715  10.513 -0.7136  0.1667 -0.9287
  229MOL0     C31499  10.872   0.576  10.520  0.2917  0.5262  0.0832
  229MOL0     O31500  10.992   0.526  10.486 -0.3812 -0.2034 -0.4165
  229MOL0     C31501  11.102   0.609  10.445  0.1095  1.0519 -0.5486
  229MOL0     C31502  11.220   0.524  10.435 -0.4638 -0.3952  0.8489
  229MOL0     C31503  11.317   0.585  10.346  0.6403  0.8463 -0.3149
  229MOL0     C31504  11.423   0.478  10.345 -0.3913  0.4286 -0.7200
  229MOL0     C31505  11.523   0.511  10.233 -0.0796 -0.0851 -0.1424
  229MOL0     C31506  11.650   0.441  10.268  0.6000  0.1120 -1.1070
  229MOL0     C31507  11.750   0.454  10.161  0.0420 -0.0328 -0.0192
  229MOL0     C31508  11.876   0.377  10.197 -0.2794 -0.0425  0.0405
  229MOL0    Cl31509  11.980   0.390  10.052  0.0384 -0.3341 -0.0529
  229MOL0     C31510  10.770   0.485  10.536  0.3721  0.3602 -0.0646
  229MOL0     C31511  10.635   0.535  10.566 -0.4653  0.9138  0.4359
  229MOL0     O31512  10.521   0.703  10.814 -0.3190 -0.5659 -0.4127
  229MOL0     C31513  10.223   0.827  10.659  0.0206 -0.1551 -0.0782
  229MOL0     C31514  10.105   0.898  10.689  0.2376  0.4728 -0.1858
  229MOL0     N31515   9.576   1.354  10.474  0.1263 -0.6254 -0.0836
  229MOL0     N31516   9.633   1.448  10.402  1.0863  0.0574  0.5287
  229MOL0     C31517   9.935   1.566   9.515  0.5021 -0.0118 -0.2019
  229MOL0     C31518  10.054   1.603   9.447  0.4998  0.5160 -0.2389
  229MOL0     C31519  10.466   1.761   9.397 -0.3709  0.6924  1.2595
  229MOL0     C31520  10.465   1.784   9.256 -0.4625  0.3748 -0.6823
  229MOL0     C31521  10.584   1.748   9.181  0.0555 -0.2293  0.7577
  229MOL0     C31522  10.704   1.710   9.244 -0.8578 -0.6420  0.2663
  229MOL0     O31523  10.810   1.689   9.164 -0.0579  0.0771  0.0282
  229MOL0     C31524  10.941   1.673   9.218 -0.6626 -0.4639  1.1853
  229MOL0     C31525  11.042   1.628   9.107 -0.3924  0.5166  0.0575
  229MOL0     C31526  11.184   1.612   9.158 -1.0017  0.5362  0.0808
  229MOL0     C31527  11.295   1.606   9.052  0.1808  0.2004 -0.4115
  229MOL0     C31528  11.292   1.476   8.982  0.2410 -0.2826 -0.4317
  229MOL0     C31529  11.293   1.362   8.935 -0.6355 -0.1189 -0.1681
  229MOL0     C31530  10.713   1.723   9.380 -0.1760  0.4626  0.4818
  229MOL0     C31531  10.599   1.751   9.460  0.3200  0.0514  1.0753
  229MOL0     C31532  10.613   1.730   9.603 -0.5530 -0.3341 -0.0752
  229MOL0     H31533  10.088   1.920   9.525  4.1642 -2.3912  0.3934
  229MOL0     H31534   9.877   1.878   9.642  0.2066  0.9195 -1.3726
  229MOL0     H31535   9.572   1.674   9.553 -0.6735  0.9435 -0.9243
  229MOL0     H31536   9.663   1.815   9.596 -0.9283 -0.1105 -0.0316
  229MOL0     H31537   9.473   1.795   9.752  0.9235  0.5973 -0.1305
  229MOL0     H31538   9.513   1.632   9.797  1.5725 -1.2256 -1.2652
  229MOL0     H31539   9.696   1.703   9.946 -1.0477  0.2915  0.9427
  229MOL0     H31540   9.719   1.848   9.865 -0.8248  0.4778  0.4348
  229MOL0     H31541   9.523   1.934   9.978  1.2148  0.9118  2.5960
  229MOL0     H31542   9.465   1.770  10.028  0.0418 -0.2847  0.7600
  229MOL0     H31543   9.582   1.916  10.198  0.0516  0.5059 -1.0209
  229MOL0     H31544   9.731   1.864  10.103  0.1709 -1.1961 -1.2107
  229MOL0     H31545   9.539   1.687  10.260  0.0844  0.0252  0.9816
  229MOL0     H31546   9.686   1.628  10.176 -1.3249 -1.2569  0.9185
  229MOL0     H31547   9.631   1.792  10.425 -0.9973  0.1248 -1.0634
  229MOL0     H31548   9.777   1.837  10.346 -2.5489  1.9937  1.1765
  229MOL0     H31549   9.860   1.591  10.380  1.2306 -2.9878  2.1870
  229MOL0     H31550   9.842   1.684  10.527  0.2747  0.4408 -0.6142
  229MOL0     H31551   9.716   1.537  10.711 -0.0155 -1.2824  1.1153
  229MOL0     H31552   9.458   1.262  10.702 -0.6502 -1.9147  2.0082
  229MOL0     H31553   9.565   1.335  10.821 -3.0442 -0.0274  0.3150
  229MOL0     H31554   9.625   1.082  10.784  0.2805  0.5213  1.4250
  229MOL0     H31555   9.676   1.134  10.619 -0.1553  2.0121  0.3195
  229MOL0     H31556   9.838   1.302  10.721 -0.5204 -0.1623  0.2304
  229MOL0     H31557   9.805   1.224  10.879  0.5502 -1.3566  0.7616
  229MOL0     H31558   9.874   1.048  10.658 -1.8692 -0.4884  1.7021
  229MOL0     H31559   9.989   1.176  10.668  1.0832 -1.9470 -0.1215
  229MOL0     H31560  10.158   0.977  10.999 -0.3640 -1.9385 -0.1765
  229MOL0     H31561  10.374   0.786  11.050  1.7605 -0.6647  0.5092
  229MOL0     H31562  10.363   0.968  11.050 -0.5881 -0.2867 -1.5455
  229MOL0     H31563  10.496   0.899  10.976  0.6457  0.2227  1.7025
  229MOL0     H31564  10.682   0.860  10.556 -4.2193 -0.6108 -1.4072
  229MOL0     H31565  10.924   0.784  10.500  2.0842 -2.8544 -0.1939
  229MOL0     H31566  11.081   0.664  10.353  0.3691  0.3321 -1.0414
  229MOL0     H31567  11.124   0.689  10.516  0.0222  0.9827 -0.4416
  229MOL0     H31568  11.264   0.510  10.534 -0.3735  0.3972  0.9311
  229MOL0     H31569  11.187   0.426  10.398  2.9516 -0.7624 -1.7162
  229MOL0     H31570  11.349   0.687  10.372 -1.6252  1.8427 -1.1110
  229MOL0     H31571  11.275   0.590  10.245 -0.2284  0.0459 -0.0169
  229MOL0     H31572  11.386   0.380  10.315 -0.0550 -0.0418  0.3355
  229MOL0     H31573  11.466   0.479  10.446  1.2216 -0.4753 -1.3579
  229MOL0     H31574  11.488   0.479  10.134  1.7267  1.5241 -1.3769
  229MOL0     H31575  11.527   0.619  10.224  0.9016  0.0596  1.6636
  229MOL0     H31576  11.628   0.340  10.303 -3.0163  1.3195  0.6815
  229MOL0     H31577  11.701   0.493  10.350  0.4396  2.2599 -2.2876
  229MOL0     H31578  11.768   0.560  10.138 -2.2702  0.3877 -0.1530
  229MOL0     H31579  11.703   0.413  10.072  1.8533  0.4022 -1.2315
  229MOL0     H31580  11.851   0.272  10.216 -1.2004  0.1955  0.2097
  229MOL0     H31581  11.932   0.402  10.287  0.6364 -0.3895 -0.4201
  229MOL0     H31582  10.802   0.381  10.536  1.0628  0.5366  1.4298
  229MOL0     H31583  10.559   0.464  10.598 -0.2926  0.4218 -0.2252
  229MOL0     H31584  10.241   0.793  10.558  1.4097  3.2426 -1.0993
  229MOL0     H31585  10.044   0.896  10.599 -0.2662 -0.9667  0.1701
  229MOL0     H31586   9.890   1.468   9.506 -1.0289  0.6077  0.3255
  229MOL0     H31587  10.113   1.526   9.399 -1.3457  0.1963 -2.1357
  229MOL0     H31588  10.374   1.817   9.208 -0.1107 -1.5326 -2.8414
  229MOL0     H31589  10.567   1.749   9.074  2.7547  1.3370  0.2744
  229MOL0     H31590  10.974   1.768   9.261 -2.6922  1.3550 -0.9647
  229MOL0     H31591  10.945   1.600   9.300  0.8681  1.5026  2.9741
  229MOL0     H31592  11.042   1.704   9.028  1.7370  1.4254  0.8462
  229MOL0     H31593  11.012   1.544   9.043  1.6015  2.4812 -3.8080
  229MOL0     H31594  11.197   1.703   9.217 -0.8985  1.6972 -1.6727
  229MOL0     H31595  11.194   1.523   9.221  1.4944  1.5491  1.2594
  229MOL0     H31596  11.392   1.612   9.103  0.7352  1.3286 -1.5264
  229MOL0     H31597  11.290   1.683   8.974 -1.6019  1.3661  0.7734
  229MOL0     H31598  11.294   1.273   8.876 -2.5940 -0.3819  0.1531
  229MOL0     H31599  10.809   1.711   9.429  0.3193 -2.6255 -0.9669
  229MOL0     H31600  10.528   1.676   9.645 -1.5595  2.9511  2.5894
  229MOL0     H31601  10.701   1.669   9.626 -0.6485  0.2120  1.9808
  229MOL0     H31602  10.634   1.825   9.654 -2.1267  0.2762 -0.4979
  230MOL0     O31603   8.831   9.299   3.528 -0.1623  0.0807  0.1108
  230MOL0     C31604   8.874   9.351   3.631  0.0398 -0.0742  1.3249
  230MOL0     O31605   8.864   9.483   3.670  0.3339  0.7436 -0.4720
  230MOL0     C31606   8.759   9.571   3.645 -1.1204  0.3595  0.1066
  230MOL0     C31607   8.639   9.536   3.587 -0.0019 -0.3534 -0.4597
  230MOL0     C31608   8.548   9.633   3.550  0.1238  0.0538  0.4815
  230MOL0     C31609   8.567   9.770   3.583  0.5448 -0.1515 -0.6454
  230MOL0     O31610   8.480   9.871   3.556  0.2087  0.8597  0.9934
  230MOL0     C31611   8.348   9.839   3.532 -0.2414  0.2815 -0.3901
  230MOL0     C31612   8.265   9.763   3.648 -0.1312 -0.6088 -0.2880
  230MOL0     C31613   8.279   9.832   3.781  0.2953  0.5148  0.1242
  230MOL0     C31614   8.174   9.811   3.888  0.4189  0.8274 -0.2429
  230MOL0     C31615   8.030   9.838   3.849 -0.4170 -0.6357  0.0410
  230MOL0     C31616   7.943   9.836   3.981 -0.6329 -0.6550  0.5922
  230MOL0     C31617   7.973   9.720   4.079  0.6066 -0.1715  0.6760
  230MOL0     C31618   7.873   9.720   4.196  0.2097 -0.4182  0.3258
  230MOL0     N31619   7.860   9.858   4.249 -0.0269 -0.1332  0.2799
  230MOL0     C31620   7.961   9.934   4.304 -0.0906 -0.6244 -0.6077
  230MOL0     C31621   7.895  10.040   4.353 -0.7042 -0.4466 -0.0006
  230MOL0     C31622   7.972  10.165   4.402 -0.6871 -0.9464 -0.2875
  230MOL0     C31623   8.047  10.253   4.290  0.3596  0.2017 -0.3742
  230MOL0     C31624   8.154  10.336   4.367  0.3491 -0.0314  0.3284
  230MOL0     C31625   8.232  10.438   4.288 -0.3138  0.2864  0.0113
  230MOL0     O31626   8.171  10.563   4.279 -0.0122 -0.1550  0.1683
  230MOL0     C31627   8.228  10.647   4.191 -0.7569 -1.0808  0.4086
  230MOL0     C31628   8.136  10.737   4.131  0.1923 -0.1291 -1.0104
  230MOL0     C31629   8.177  10.861   4.061 -0.3251  0.2432  0.0919
  230MOL0     C31630   8.076  10.964   4.031  0.0829  0.4525  0.3156
  230MOL0     C31631   8.316  10.870   4.043 -0.7109 -0.6824 -0.6322
  230MOL0     C31632   8.382  10.971   3.951 -0.2456 -0.3028  0.5873
  230MOL0     O31633   8.511  10.985   3.957 -0.2118  0.0983 -0.0311
  230MOL0     C31634   8.565  11.087   3.878  0.3689  0.0413 -0.7069
  230MOL0     C31635   8.601  11.204   3.938 -0.7199 -0.8214  0.7224
  230MOL0     C31636   8.666  11.306   3.862 -0.1099 -0.2415  0.0905
  230MOL0     C31637   8.676  11.292   3.717 -0.1163 -0.1878 -0.4241
  230MOL0     O31638   8.739  11.374   3.629  0.7724  0.0922 -0.0658
  230MOL0     C31639   8.847  11.442   3.686 -0.0759  0.3398 -0.6664
  230MOL0     C31640   8.928  11.501   3.577  0.0914  0.2143  0.1744
  230MOL0     C31641   9.042  11.589   3.632  0.0561 -0.1204  0.6069
  230MOL0     C31642   9.121  11.649   3.517 -0.5215  0.0786  0.1011
  230MOL0     C31643   9.063  11.779   3.462  0.2523  0.4322  1.0699
  230MOL0     C31644   9.156  11.844   3.350  0.4273 -0.5799  0.2354
  230MOL0     C31645   9.167  11.767   3.219 -0.1009  0.2811 -0.5453
  230MOL0     C31646   9.222  11.865   3.111  0.2508  0.7321 -0.5817
  230MOL0    Cl31647   9.398  11.877   3.154 -0.2785  0.4249 -0.0328
  230MOL0     C31648   8.646  11.166   3.662 -0.0032  0.3959  0.8260
  230MOL0     C31649   8.588  11.064   3.740  0.3491 -0.8204  0.6749
  230MOL0     O31650   8.311  11.047   3.890 -0.3680 -0.0616 -0.5303
  230MOL0     C31651   8.399  10.767   4.089 -1.0583  0.0335 -0.2323
  230MOL0     C31652   8.360  10.658   4.160 -0.1233 -0.2660  0.3446
  230MOL0     N31653   7.756  10.027   4.329 -0.3897  0.7018  0.6691
  230MOL0     N31654   7.742   9.914   4.271  1.2317 -0.0976  0.1693
  230MOL0     C31655   8.691   9.811   3.634  0.1481  0.2860 -0.0747
  230MOL0     C31656   8.783   9.705   3.678 -0.1812 -0.2932 -0.0820
  230MOL0     C31657   8.951   9.257   3.715 -0.1163 -0.4595 -0.2415
  230MOL0     C31658   8.922   9.259   3.849 -0.3341  0.8508 -0.5926
  230MOL0     C31659   8.982   9.163   3.934 -0.3899 -0.5425 -0.4201
  230MOL0     C31660   9.090   9.086   3.884  0.4482  0.4130 -0.2685
  230MOL0     O31661   9.173   9.007   3.955 -0.0550 -0.4919  0.2207
  230MOL0     C31662   9.149   9.015   4.100 -1.1735 -0.1566  1.1027
  230MOL0     C31663   9.278   8.957   4.179 -1.2125  0.0687 -0.2605
  230MOL0     C31664   9.402   9.048   4.141 -0.3037 -0.1689 -0.2207
  230MOL0     C31665   9.483   9.016   4.015  0.7742 -0.2684 -0.8967
  230MOL0     C31666   9.604   9.093   4.001  0.1049  0.0500  0.5920
  230MOL0     C31667   9.709   9.157   3.986  0.5816  0.7104  0.4567
  230MOL0     C31668   9.131   9.102   3.755  0.6077  0.1307  0.0203
  230MOL0     C31669   9.054   9.176   3.666  0.7670 -0.3310  0.8248
  230MOL0     C31670   9.091   9.156   3.524  0.0112  0.1963 -0.6151
  230MOL0     H31671   8.623   9.437   3.547  0.6761 -0.5463 -0.2601
  230MOL0     H31672   8.464   9.590   3.497  0.0664 -0.5254  1.0375
  230MOL0     H31673   8.325   9.780   3.442 -2.0501 -3.8567  2.4935
  230MOL0     H31674   8.300   9.937   3.522  0.8644  0.6132 -3.7693
  230MOL0     H31675   8.157   9.767   3.629 -0.6240 -0.3189  2.2369
  230MOL0     H31676   8.294   9.658   3.641 -1.3382 -0.9813  0.1276
  230MOL0     H31677   8.379   9.815   3.821  0.9980  0.4412 -1.5683
  230MOL0     H31678   8.280   9.939   3.758 -2.5647  0.4063 -0.8811
  230MOL0     H31679   8.189   9.712   3.931 -0.5220  1.5314  1.8363
  230MOL0     H31680   8.198   9.876   3.972  0.2475 -0.2284  0.6350
  230MOL0     H31681   8.000   9.754   3.785  1.3105 -2.2597  1.2536
  230MOL0     H31682   8.034   9.936   3.801  1.7809 -1.3199 -1.3307
  230MOL0     H31683   7.960   9.930   4.034  4.9993 -0.7803 -0.3402
  230MOL0     H31684   7.842   9.832   3.939 -0.2231 -1.1652 -0.3866
  230MOL0     H31685   8.074   9.737   4.119  0.0911  1.5747  1.3506
  230MOL0     H31686   7.966   9.629   4.020 -3.0091 -1.4557  2.8128
  230MOL0     H31687   7.773   9.692   4.161 -0.0020  1.1204 -0.3752
  230MOL0     H31688   7.894   9.646   4.273  0.9441  1.3587  1.9296
  230MOL0     H31689   8.068   9.916   4.295  0.6734  2.8496  0.0541
  230MOL0     H31690   8.042  10.122   4.474 -1.2627 -0.5471  0.5272
  230MOL0     H31691   7.908  10.234   4.456  0.6524 -0.3184  0.5353
  230MOL0     H31692   8.096  10.190   4.215 -3.9744 -1.2081 -2.3794
  230MOL0     H31693   7.986  10.319   4.228  0.3441 -0.8657 -1.5448
  230MOL0     H31694   8.103  10.391   4.447 -0.2123 -1.7005  1.1680
  230MOL0     H31695   8.227  10.267   4.411 -1.3737 -0.9802  1.8562
  230MOL0     H31696   8.321  10.460   4.348  0.3080  3.3261 -1.8261
  230MOL0     H31697   8.259  10.398   4.190 -0.6434 -2.1432  0.8368
  230MOL0     H31698   8.033  10.714   4.154  0.8459 -0.1728  2.3385
  230MOL0     H31699   8.115  11.060   4.065  2.4694  0.0573 -1.1001
  230MOL0     H31700   7.982  10.942   4.083 -0.3215  0.3834 -0.4306
  230MOL0     H31701   8.045  10.970   3.927 -0.1760 -1.6978  0.2219
  230MOL0     H31702   8.568  11.225   4.040 -1.0949 -0.0618  0.4516
  230MOL0     H31703   8.681  11.402   3.912 -0.2101 -0.3120  0.2567
  230MOL0     H31704   8.816  11.510   3.767  0.3971 -1.2924  0.9458
  230MOL0     H31705   8.909  11.379   3.750 -2.0102 -1.0713 -0.0616
  230MOL0     H31706   8.966  11.410   3.529 -0.1219  0.7174 -0.9919
  230MOL0     H31707   8.870  11.548   3.497 -1.1552  1.1433  1.5730
  230MOL0     H31708   9.102  11.523   3.696 -0.0017 -1.1870 -0.4133
  230MOL0     H31709   9.000  11.676   3.683 -0.2929  2.0246 -2.9970
  230MOL0     H31710   9.143  11.571   3.443 -0.6226 -0.1419  0.3001
  230MOL0     H31711   9.218  11.675   3.560 -0.4076 -1.4540  0.8428
  230MOL0     H31712   8.965  11.758   3.418  1.4189 -0.6107 -1.1349
  230MOL0     H31713   9.046  11.860   3.535  0.3248  0.5653  0.9390
  230MOL0     H31714   9.256  11.870   3.386  0.5734 -0.4322 -0.2803
  230MOL0     H31715   9.111  11.940   3.323  2.1919  0.8218  1.9654
  230MOL0     H31716   9.066  11.736   3.189 -1.7681  3.3729  1.2534
  230MOL0     H31717   9.230  11.679   3.224  1.3382  1.3549  1.4105
  230MOL0     H31718   9.182  11.966   3.128  0.5956  0.7390  0.2518
  230MOL0     H31719   9.207  11.832   3.008 -2.0701 -3.4719  0.8852
  230MOL0     H31720   8.671  11.154   3.557  1.3563 -0.8608  1.2655
  230MOL0     H31721   8.559  10.969   3.697 -2.6595 -1.1801  3.0970
  230MOL0     H31722   8.504  10.773   4.063 -1.6485  0.1128 -2.9360
  230MOL0     H31723   8.431  10.583   4.194 -0.0158  0.7363  2.4773
  230MOL0     H31724   8.707   9.913   3.668 -3.2717  0.3348  1.8255
  230MOL0     H31725   8.876   9.738   3.724  0.6315  0.8016 -2.3557
  230MOL0     H31726   8.842   9.315   3.896  0.0624  0.1266  1.0088
  230MOL0     H31727   8.953   9.148   4.037 -1.3930  0.6595 -0.5149
  230MOL0     H31728   9.153   9.119   4.134 -0.0088  0.3829 -0.5815
  230MOL0     H31729   9.058   8.959   4.123 -3.9509  3.6430  0.3514
  230MOL0     H31730   9.310   8.856   4.150 -1.5095 -0.0588 -0.1578
  230MOL0     H31731   9.253   8.955   4.285 -0.5655 -0.7708 -0.1150
  230MOL0     H31732   9.369   9.152   4.149 -0.0840 -0.1922  1.4676
  230MOL0     H31733   9.480   9.034   4.217 -0.0581 -2.1355 -0.7665
  230MOL0     H31734   9.414   9.035   3.933  0.2894 -3.0571 -1.2315
  230MOL0     H31735   9.506   8.909   4.015 -3.2917 -1.2714 -1.1428
  230MOL0     H31736   9.801   9.209   3.965  1.9983 -1.9786 -0.5300
  230MOL0     H31737   9.224   9.058   3.718 -0.0986 -2.0420  0.6779
  230MOL0     H31738   9.005   9.110   3.475  1.5206 -0.9484 -2.3264
  230MOL0     H31739   9.107   9.254   3.479  1.7419  0.4288  0.3768
  230MOL0     H31740   9.177   9.090   3.508  0.7868  0.8891  0.5714
  231MOL0     O31741   2.936   5.270   5.748 -0.3100  0.2258 -0.0987
  231MOL0     C31742   2.847   5.192   5.710 -1.0554  0.1908  0.7274
  231MOL0     O31743   2.856   5.057   5.718 -0.0554  0.0874  0.0109
  231MOL0     C31744   2.969   4.992   5.760  0.2708 -0.1223 -0.0570
  231MOL0     C31745   3.030   5.016   5.881 -0.3344 -1.1809 -0.8335
  231MOL0     C31746   3.156   4.953   5.908 -0.2207 -0.4316  0.8133
  231MOL0     C31747   3.215   4.864   5.812  0.1499 -0.4836  0.0809
  231MOL0     O31748   3.342   4.811   5.825  0.2090 -0.3919 -0.3145
  231MOL0     C31749   3.413   4.833   5.949  0.0908  0.0035  0.1596
  231MOL0     C31750   3.521   4.729   5.973  0.0398  0.2044  0.5090
  231MOL0     C31751   3.631   4.794   6.053 -1.6331 -0.0966  0.0363
  231MOL0     C31752   3.737   4.687   6.095  0.0624  0.7368  0.4170
  231MOL0     C31753   3.849   4.743   6.179  0.5054 -0.5888 -0.4139
  231MOL0     C31754   3.957   4.631   6.199  0.3467  0.5935  0.1602
  231MOL0     C31755   4.068   4.667   6.301  0.9558  0.1647  0.0027
  231MOL0     C31756   4.145   4.543   6.357 -0.3823 -0.1372  0.6018
  231MOL0     N31757   4.289   4.586   6.374 -0.2798 -0.1022 -0.1795
  231MOL0     C31758   4.336   4.656   6.486 -0.3171  0.3098  0.5739
  231MOL0     C31759   4.470   4.661   6.470 -0.6456 -1.3461  0.6514
  231MOL0     C31760   4.575   4.715   6.554  0.1102 -0.0638 -0.3471
  231MOL0     C31761   4.676   4.607   6.599 -1.0004  0.3392 -0.0310
  231MOL0     C31762   4.786   4.593   6.496 -0.2246 -0.4877 -0.2870
  231MOL0     C31763   4.919   4.556   6.550  0.4221  0.2098  0.7669
  231MOL0     O31764   5.008   4.549   6.431  0.3615  0.2202  0.2199
  231MOL0     C31765   5.141   4.545   6.449 -0.6156  0.8178  0.9277
  231MOL0     C31766   5.203   4.575   6.577 -0.4242  0.0483 -0.0817
  231MOL0     C31767   5.341   4.567   6.590 -0.2554  0.0563 -0.2045
  231MOL0     C31768   5.393   4.615   6.722  0.0442 -0.1884 -0.2164
  231MOL0     C31769   5.424   4.516   6.484  0.2139  0.1639 -0.3065
  231MOL0     C31770   5.570   4.498   6.489  0.4160  0.9567  0.3793
  231MOL0     O31771   5.640   4.505   6.367 -0.0962 -0.5913  0.3894
  231MOL0     C31772   5.776   4.505   6.373  0.2962 -0.7468 -0.2471
  231MOL0     C31773   5.842   4.629   6.365 -0.7179  0.4496 -0.3689
  231MOL0     C31774   5.983   4.635   6.382 -0.0639 -0.3084 -0.2551
  231MOL0     C31775   6.058   4.517   6.414 -0.0555 -0.3152 -0.7200
  231MOL0     O31776   6.189   4.516   6.444 -0.5884 -0.1307 -0.5725
  231MOL0     C31777   6.255   4.635   6.466 -0.7037 -0.1502  1.2492
  231MOL0     C31778   6.398   4.621   6.522  0.3835  0.3785  0.2421
  231MOL0     C31779   6.400   4.523   6.645  0.4520 -0.6847 -0.1887
  231MOL0     C31780   6.552   4.518   6.689 -0.3919 -0.3682 -1.1822
  231MOL0     C31781   6.567   4.418   6.804  0.3210 -0.4480  0.5355
  231MOL0     C31782   6.667   4.448   6.919  0.5753 -0.9926 -0.6528
  231MOL0     C31783   6.807   4.459   6.863  0.9050 -0.3249 -0.1058
  231MOL0     C31784   6.916   4.494   6.966 -0.0123 -0.0283 -0.0113
  231MOL0    Cl31785   6.932   4.370   7.101  0.3282 -0.2979  0.1709
  231MOL0     C31786   5.985   4.400   6.415 -0.8953 -1.1664  0.0029
  231MOL0     C31787   5.846   4.391   6.391  0.4041  0.0268  0.5216
  231MOL0     O31788   5.616   4.466   6.600  0.1203 -0.2655  0.3822
  231MOL0     C31789   5.366   4.485   6.356  0.2133  0.6515 -0.3172
  231MOL0     C31790   5.228   4.493   6.348  1.0920  0.6373 -0.1183
  231MOL0     N31791   4.505   4.623   6.342  0.1369 -0.2753 -0.7352
  231MOL0     N31792   4.396   4.563   6.295  0.0297 -0.3113 -0.0971
  231MOL0     C31793   3.141   4.845   5.688  1.1010  0.4550 -0.0116
  231MOL0     C31794   3.027   4.918   5.663 -0.2377 -0.0335 -0.4899
  231MOL0     C31795   2.719   5.243   5.642  0.4026 -0.7669  0.1911
  231MOL0     C31796   2.726   5.388   5.620  0.1276  0.6722  0.6767
  231MOL0     C31797   2.621   5.462   5.573 -0.9098  0.1791 -0.0410
  231MOL0     C31798   2.495   5.394   5.557 -0.3622 -1.0465 -0.3012
  231MOL0     O31799   2.394   5.481   5.530  0.2716 -1.0829  0.3583
  231MOL0     C31800   2.257   5.438   5.531  0.2658 -0.5468  0.7107
  231MOL0     C31801   2.172   5.551   5.484  0.4274 -0.0267 -0.0051
  231MOL0     C31802   2.025   5.504   5.493 -0.0721  0.1305 -0.5745
  231MOL0     C31803   1.937   5.588   5.402 -0.3300 -0.1662 -0.0972
  231MOL0     C31804   1.798   5.560   5.432  0.4569 -0.3015  0.5371
  231MOL0     C31805   1.685   5.540   5.453  1.1132 -0.1149  0.1988
  231MOL0     C31806   2.490   5.257   5.566 -0.4147 -0.3641  1.5532
  231MOL0     C31807   2.596   5.185   5.609 -0.3901  1.1459 -0.2257
  231MOL0     C31808   2.584   5.038   5.613 -1.0209  0.1799  0.2709
  231MOL0     H31809   2.983   5.068   5.964  3.0034  2.8191 -1.1551
  231MOL0     H31810   3.201   4.973   6.005  0.1627 -0.1491  0.5775
  231MOL0     H31811   3.342   4.824   6.032 -1.5771  0.9263 -1.1063
  231MOL0     H31812   3.448   4.936   5.951  0.3321 -0.0838  0.7543
  231MOL0     H31813   3.469   4.654   6.033 -2.1000 -0.4903 -1.9928
  231MOL0     H31814   3.559   4.674   5.886  0.8591  1.0597  0.3129
  231MOL0     H31815   3.679   4.863   5.982 -1.0041  0.5963  1.0973
  231MOL0     H31816   3.593   4.835   6.146 -1.4754 -3.6127  1.8094
  231MOL0     H31817   3.685   4.614   6.157 -3.3949  2.9450  0.3524
  231MOL0     H31818   3.771   4.647   5.998  0.5356 -0.8619  1.2106
  231MOL0     H31819   3.804   4.774   6.274  0.7527 -2.6180  0.4036
  231MOL0     H31820   3.901   4.834   6.146  1.6691 -0.1925  2.2086
  231MOL0     H31821   3.907   4.538   6.231  0.4179  1.1224  1.9069
  231MOL0     H31822   4.008   4.621   6.103  0.7216  0.4690  0.3687
  231MOL0     H31823   4.026   4.728   6.382 -3.1268 -3.6531  1.1885
  231MOL0     H31824   4.138   4.724   6.240 -1.5443  0.5905 -2.6923
  231MOL0     H31825   4.101   4.498   6.447 -0.7650 -1.1801 -0.0910
  231MOL0     H31826   4.153   4.469   6.278  1.3456  0.7915 -0.1482
  231MOL0     H31827   4.275   4.680   6.573 -1.9040 -1.8942  0.1521
  231MOL0     H31828   4.515   4.757   6.636 -1.3687  0.2095 -1.5362
  231MOL0     H31829   4.621   4.799   6.502  1.4175 -1.5076 -1.6299
  231MOL0     H31830   4.722   4.655   6.687  0.3677  1.2334 -1.1956
  231MOL0     H31831   4.632   4.511   6.627  1.8401 -0.7769  1.0077
  231MOL0     H31832   4.755   4.518   6.423 -2.8894  0.4453 -0.2374
  231MOL0     H31833   4.793   4.694   6.456  0.3077  0.0677  1.1346
  231MOL0     H31834   4.951   4.641   6.611  6.3456  1.1023 -2.7715
  231MOL0     H31835   4.919   4.464   6.609  0.6981 -1.1766 -1.2729
  231MOL0     H31836   5.137   4.595   6.661 -1.1963 -2.2679 -0.0501
  231MOL0     H31837   5.488   4.668   6.711  0.3450 -1.0133 -1.8690
  231MOL0     H31838   5.421   4.524   6.776  1.0472 -1.3787 -2.6058
  231MOL0     H31839   5.329   4.683   6.779 -1.0646 -0.0503 -1.5871
  231MOL0     H31840   5.790   4.724   6.360  0.8466  1.2880 -1.1429
  231MOL0     H31841   6.031   4.731   6.370 -0.3265 -0.0517  0.6871
  231MOL0     H31842   6.260   4.681   6.366  0.6229  1.1058  1.8594
  231MOL0     H31843   6.199   4.695   6.537  1.6307  2.7152  0.8667
  231MOL0     H31844   6.468   4.577   6.450 -0.9652  1.4903 -1.8323
  231MOL0     H31845   6.427   4.720   6.557 -0.8842  1.4629 -1.6217
  231MOL0     H31846   6.358   4.428   6.612 -1.1190  0.3208 -1.2661
  231MOL0     H31847   6.342   4.565   6.727  3.6820  2.5024  0.7442
  231MOL0     H31848   6.575   4.619   6.726 -1.5489  0.7416 -3.3126
  231MOL0     H31849   6.604   4.499   6.595  0.4395  2.3210 -1.3602
  231MOL0     H31850   6.465   4.407   6.843 -0.2355 -1.0649 -1.0384
  231MOL0     H31851   6.597   4.321   6.764 -0.7832 -0.2201 -0.9305
  231MOL0     H31852   6.668   4.368   6.993  4.3036  0.5407  1.2733
  231MOL0     H31853   6.636   4.537   6.974 -1.5469 -1.5637 -0.8701
  231MOL0     H31854   6.811   4.532   6.781  1.1773  0.5233  0.6426
  231MOL0     H31855   6.843   4.365   6.820  0.0806  1.1822 -4.6278
  231MOL0     H31856   6.896   4.593   7.009  0.5543  0.8805 -1.7253
  231MOL0     H31857   7.014   4.504   6.917  0.2869  3.1414  0.9864
  231MOL0     H31858   6.050   4.313   6.427  0.3657  0.0967  3.8420
  231MOL0     H31859   5.789   4.299   6.392 -0.0725  0.2338 -1.8865
  231MOL0     H31860   5.422   4.444   6.273  4.3139  1.2092  1.8768
  231MOL0     H31861   5.183   4.458   6.256  3.1586 -3.1918  0.1335
  231MOL0     H31862   3.191   4.789   5.610 -1.3326 -1.4582 -0.3203
  231MOL0     H31863   2.967   4.897   5.575 -0.6467 -1.0315  0.0136
  231MOL0     H31864   2.821   5.441   5.631 -0.0908  1.2520 -0.0927
  231MOL0     H31865   2.610   5.566   5.542  0.4277  0.9431  1.8542
  231MOL0     H31866   2.248   5.350   5.465 -0.3687 -0.3170  0.4852
  231MOL0     H31867   2.226   5.414   5.633  1.1503  0.3793  1.2072
  231MOL0     H31868   2.206   5.567   5.381 -0.2373  0.6284 -0.1285
  231MOL0     H31869   2.188   5.643   5.541  2.8740  0.5891 -1.5335
  231MOL0     H31870   2.014   5.398   5.471  0.4053  0.3734 -2.0749
  231MOL0     H31871   1.993   5.520   5.596  1.1819 -0.5567 -0.0513
  231MOL0     H31872   1.969   5.552   5.304 -2.1831  0.7213 -1.0880
  231MOL0     H31873   1.962   5.694   5.413  0.4607  0.0052 -2.8918
  231MOL0     H31874   1.583   5.515   5.477  1.5798  0.8050  3.6906
  231MOL0     H31875   2.396   5.209   5.541  0.0442 -0.1003 -0.9353
  231MOL0     H31876   2.639   4.996   5.528  0.1070  0.8897  0.6298
  231MOL0     H31877   2.622   5.002   5.709  0.1999  1.3597  0.2584
  231MOL0     H31878   2.478   5.011   5.606 -1.2218  1.1583 -1.0254
  232MOL0     O31879   8.550   9.320  11.234  0.8519  0.1059  0.5866
  232MOL0     C31880   8.665   9.325  11.282  0.4495  0.1632 -0.1472
  232MOL0     O31881   8.708   9.278  11.398  0.3203  0.6802 -0.6715
  232MOL0     C31882   8.623   9.190  11.463  0.5623 -0.9299  0.7164
  232MOL0     C31883   8.514   9.255  11.535 -0.4769 -0.3599 -0.5284
  232MOL0     C31884   8.436   9.178  11.616  0.7198  0.2019 -0.7924
  232MOL0     C31885   8.445   9.043  11.614 -0.1872  0.5384  0.4308
  232MOL0     O31886   8.355   8.985  11.699  0.1144 -0.3265  0.8080
  232MOL0     C31887   8.377   8.848  11.734 -0.0790 -0.4794  0.7632
  232MOL0     C31888   8.301   8.826  11.867 -0.6065 -0.8465 -0.6803
  232MOL0     C31889   8.381   8.903  11.982  0.7066 -0.4051 -0.6489
  232MOL0     C31890   8.306   8.886  12.105  0.1391 -0.0468 -0.1121
  232MOL0     C31891   8.386   8.938  12.222 -0.6982 -0.5423 -0.4006
  232MOL0     C31892   8.316   8.930  12.362 -0.4443  0.2522  0.8317
  232MOL0     C31893   8.193   9.013  12.379 -0.0016  0.0611  0.5015
  232MOL0     C31894   8.189   9.090  12.517  0.9780 -0.5508 -0.5894
  232MOL0     N31895   8.297   9.186  12.520  0.3598  0.4714 -0.0746
  232MOL0     C31896   8.294   9.302  12.463  0.4073 -0.3494  0.2170
  232MOL0     C31897   8.401   9.379  12.513 -0.6149 -0.1848  0.0919
  232MOL0     C31898   8.412   9.534  12.495 -0.1554  0.6810  0.1910
  232MOL0     C31899   8.452   9.542  12.356 -0.1612 -0.5134 -0.1660
  232MOL0     C31900   8.425   9.684  12.291 -0.1094  0.1515 -0.8753
  232MOL0     C31901   8.478   9.806  12.366 -0.0514 -0.3295 -0.2833
  232MOL0     O31902   8.621   9.820  12.373  0.1243  0.1909  0.3029
  232MOL0     C31903   8.691   9.812  12.260 -0.0116 -0.1177  0.6982
  232MOL0     C31904   8.802   9.730  12.258  0.1604  0.3987 -1.1834
  232MOL0     C31905   8.890   9.732  12.149 -0.0401  0.0767 -0.1381
  232MOL0     C31906   9.028   9.657  12.183 -0.2196  0.8504  0.7854
  232MOL0     C31907   8.862   9.793  12.030  0.3982 -0.4246 -0.2926
  232MOL0     C31908   8.954   9.821  11.915 -0.1592 -0.2653  0.7929
  232MOL0     O31909   9.073   9.763  11.919 -0.6045  0.4214 -0.0142
  232MOL0     C31910   9.157   9.768  11.805  0.1777  1.2516 -0.0518
  232MOL0     C31911   9.283   9.806  11.829  0.3996 -0.0642 -0.1003
  232MOL0     C31912   9.386   9.803  11.730 -0.4230 -0.2703  0.5489
  232MOL0     C31913   9.344   9.771  11.598  0.0122  0.4299 -0.2852
  232MOL0     O31914   9.430   9.753  11.489  0.1426 -0.1031  0.2933
  232MOL0     C31915   9.488   9.872  11.443  0.1706  0.4124  0.1833
  232MOL0     C31916   9.450   9.888  11.297  0.5458  1.2142  0.3412
  232MOL0     C31917   9.484   9.762  11.202 -0.8755  0.4787  0.0817
  232MOL0     C31918   9.635   9.753  11.187 -0.6121 -0.9785  0.5067
  232MOL0     C31919   9.688   9.650  11.086  0.0817  0.0925  0.0256
  232MOL0     C31920   9.645   9.502  11.122 -0.4156 -0.0546  0.0041
  232MOL0     C31921   9.760   9.396  11.090  0.0555  0.8609 -0.1423
  232MOL0     C31922   9.877   9.412  11.193 -0.2053 -0.4055 -0.4867
  232MOL0    Cl31923   9.984   9.272  11.203 -0.1297  0.1209 -0.2684
  232MOL0     C31924   9.214   9.738  11.566 -0.1859 -0.0939 -0.4139
  232MOL0     C31925   9.120   9.739  11.675 -0.7952 -0.0785  0.6464
  232MOL0     O31926   8.914   9.883  11.812  0.8467  0.2645  0.7171
  232MOL0     C31927   8.738   9.857  12.031  0.0840  0.4072  0.2737
  232MOL0     C31928   8.650   9.868  12.139 -0.5954 -0.5778  0.2437
  232MOL0     N31929   8.466   9.301  12.608  0.0438 -0.5261 -0.4307
  232MOL0     N31930   8.404   9.185  12.611  0.2857 -0.3765  0.0399
  232MOL0     C31931   8.548   8.974  11.548 -0.0187 -0.3069  0.5295
  232MOL0     C31932   8.636   9.051  11.469  0.9597  0.1658  0.7391
  232MOL0     C31933   8.773   9.399  11.205 -0.0960 -0.4906  0.1141
  232MOL0     C31934   8.894   9.434  11.272 -0.3214 -0.1976 -0.1722
  232MOL0     C31935   8.985   9.506  11.216 -0.1142 -0.4018  0.1610
  232MOL0     C31936   8.982   9.547  11.084  0.3597 -0.3854  0.1862
  232MOL0     O31937   9.096   9.604  11.028  0.2725  0.6834  0.0986
  232MOL0     C31938   9.077   9.733  10.978  0.2353 -0.4127  0.7527
  232MOL0     C31939   9.109   9.713  10.829  0.0151 -0.3276  0.2042
  232MOL0     C31940   9.257   9.666  10.808  0.0219  0.4800 -0.7711
  232MOL0     C31941   9.290   9.640  10.662 -0.1706  0.8378 -0.6281
  232MOL0     C31942   9.197   9.544  10.605  1.2790 -0.2053  0.2541
  232MOL0     C31943   9.119   9.460  10.564  0.0601 -0.1694  0.3102
  232MOL0     C31944   8.866   9.511  11.009  0.1419  0.0187  0.3327
  232MOL0     C31945   8.761   9.436  11.071 -0.0027  0.3884 -0.3755
  232MOL0     C31946   8.651   9.382  10.987 -0.3620 -0.0320 -0.4432
  232MOL0     H31947   8.490   9.361  11.544 -0.9820 -0.5995  1.4647
  232MOL0     H31948   8.372   9.228  11.688  0.4104 -2.1885  0.6869
  232MOL0     H31949   8.479   8.815  11.753 -0.1250 -1.0557  0.0777
  232MOL0     H31950   8.333   8.784  11.657 -1.2167 -0.3236  1.2582
  232MOL0     H31951   8.197   8.857  11.860 -0.4770  0.1380  1.0581
  232MOL0     H31952   8.311   8.721  11.895  3.1980 -0.6106 -0.6014
  232MOL0     H31953   8.486   8.871  11.989  0.6012 -0.7581 -0.6493
  232MOL0     H31954   8.372   9.006  11.945  3.2986 -0.0359 -0.4276
  232MOL0     H31955   8.209   8.937  12.093  1.1508  1.8731 -0.5780
  232MOL0     H31956   8.281   8.781  12.118  1.9121 -0.4699  0.1157
  232MOL0     H31957   8.405   9.043  12.200  3.0311 -1.0595 -0.3829
  232MOL0     H31958   8.471   8.869  12.218 -0.6437 -0.5075  0.0177
  232MOL0     H31959   8.276   8.831  12.383  1.1472 -0.9202 -1.3023
  232MOL0     H31960   8.398   8.948  12.432 -0.9248 -0.7519  1.6692
  232MOL0     H31961   8.101   8.955  12.368  1.4738 -2.0803 -1.4598
  232MOL0     H31962   8.179   9.089  12.301  2.4062 -0.5429 -0.5989
  232MOL0     H31963   8.088   9.129  12.532  2.3383  2.8273  0.8970
  232MOL0     H31964   8.192   9.032  12.610 -0.9690  2.7859  1.7764
  232MOL0     H31965   8.222   9.334  12.389  2.1621  2.0320 -0.5924
  232MOL0     H31966   8.494   9.572  12.556  2.0210 -1.7286 -1.0542
  232MOL0     H31967   8.325   9.595  12.521  0.6137  0.8241  2.6663
  232MOL0     H31968   8.557   9.514  12.343 -0.3276 -1.2592  0.0435
  232MOL0     H31969   8.401   9.469  12.293 -2.0928  2.0638 -1.8044
  232MOL0     H31970   8.452   9.676  12.185 -1.6936  1.3699 -1.4087
  232MOL0     H31971   8.317   9.701  12.287 -0.5159 -0.9247  2.5317
  232MOL0     H31972   8.430   9.896  12.327 -1.5979 -0.9537  0.1181
  232MOL0     H31973   8.445   9.794  12.469 -3.2770  1.1076 -1.0315
  232MOL0     H31974   8.831   9.678  12.348 -1.2534  3.1741  1.0160
  232MOL0     H31975   9.068   9.599  12.100 -0.7458  3.6765 -1.6185
  232MOL0     H31976   9.022   9.590  12.269  1.6560  1.3170  1.3227
  232MOL0     H31977   9.106   9.731  12.202  2.3878 -1.2859 -0.9338
  232MOL0     H31978   9.304   9.831  11.933 -2.0284 -3.7158  1.4909
  232MOL0     H31979   9.489   9.834  11.744 -0.6211  0.6050  0.1234
  232MOL0     H31980   9.443   9.962  11.488  0.2886  0.0765  0.9960
  232MOL0     H31981   9.597   9.871  11.457  0.3493  1.9355 -0.8794
  232MOL0     H31982   9.342   9.906  11.302  0.5599  1.0296  1.9302
  232MOL0     H31983   9.488   9.974  11.242 -1.5341  0.8935 -1.7566
  232MOL0     H31984   9.437   9.772  11.104 -0.2913  1.2302 -0.1282
  232MOL0     H31985   9.441   9.672  11.248 -1.9467  0.9960  0.1256
  232MOL0     H31986   9.675   9.725  11.284  2.3540  0.5608 -0.1788
  232MOL0     H31987   9.674   9.851  11.158 -0.5843 -0.5331  1.9780
  232MOL0     H31988   9.654   9.666  10.983 -1.3802 -1.6826  0.1577
  232MOL0     H31989   9.796   9.659  11.075  0.1643 -0.6767  0.1438
  232MOL0     H31990   9.560   9.479  11.058  1.0903  0.2853 -2.2513
  232MOL0     H31991   9.602   9.494  11.223 -3.7983  0.4157 -1.2818
  232MOL0     H31992   9.797   9.422  10.990 -3.1269 -3.1688 -2.6959
  232MOL0     H31993   9.727   9.292  11.088 -1.4351  1.2047  2.4176
  232MOL0     H31994   9.837   9.418  11.295  0.2352  3.6383 -0.3770
  232MOL0     H31995   9.937   9.500  11.167 -2.1515  0.1214 -3.7439
  232MOL0     H31996   9.174   9.715  11.468 -1.4298  0.3860 -0.0439
  232MOL0     H31997   9.017   9.723  11.646 -0.7374 -0.2241  0.5184
  232MOL0     H31998   8.713   9.910  11.939 -0.6614 -1.1723 -0.4729
  232MOL0     H31999   8.566   9.935  12.124  2.6623  3.7523 -0.6373
  232MOL0     H32000   8.563   8.867  11.554  1.0748 -0.1618  0.7020
  232MOL0     H32001   8.715   8.996  11.419 -0.4688 -0.9013 -0.4476
  232MOL0     H32002   8.904   9.411  11.378  0.2918 -1.7976 -0.5466
  232MOL0     H32003   9.070   9.535  11.276  0.4259  0.8299 -1.1444
  232MOL0     H32004   8.976   9.773  10.990  0.8850  1.3802  0.5684
  232MOL0     H32005   9.138   9.797  11.043  0.9867 -3.4960  3.3512
  232MOL0     H32006   9.107   9.808  10.773  0.7112  0.4574  1.4620
  232MOL0     H32007   9.035   9.641  10.793 -0.8461 -0.5160  2.2323
  232MOL0     H32008   9.334   9.728  10.855  1.6627 -0.7171 -1.7633
  232MOL0     H32009   9.277   9.573  10.862  3.8996  0.1539 -2.4073
  232MOL0     H32010   9.391   9.598  10.653  0.6702  2.3606  0.9240
  232MOL0     H32011   9.287   9.734  10.607 -1.3747  0.7486 -0.7270
  232MOL0     H32012   9.038   9.396  10.537  0.2920 -2.1112  3.7318
  232MOL0     H32013   8.855   9.549  10.908 -0.5789 -3.4130 -1.0284
  232MOL0     H32014   8.626   9.282  11.023  1.4381  0.5050  2.5945
  232MOL0     H32015   8.563   9.442  11.012 -0.3731  0.6220 -1.9280
  232MOL0     H32016   8.674   9.363  10.881  1.6982  1.5072 -0.3376
  233MOL0     O32017   8.122  10.136   5.697  0.1822 -0.9767  0.1293
  233MOL0     C32018   8.039  10.080   5.765 -0.8928 -0.3369 -0.5315
  233MOL0     O32019   8.075   9.992   5.865  0.0646  0.0596 -0.0668
  233MOL0     C32020   8.206   9.944   5.865  0.6104  0.1780 -0.2395
  233MOL0     C32021   8.307   9.973   5.964 -0.5340 -0.1017  0.3696
  233MOL0     C32022   8.430   9.907   5.959  0.3765 -0.5540  0.0685
  233MOL0     C32023   8.471   9.822   5.855  0.0824  0.1795  0.0636
  233MOL0     O32024   8.588   9.760   5.862 -0.4902 -0.4356 -0.0187
  233MOL0     C32025   8.630   9.686   5.751 -0.4151  0.4771  0.1084
  233MOL0     C32026   8.771   9.627   5.752  0.1954 -0.0999  0.1893
  233MOL0     C32027   8.867   9.753   5.782  0.0324  0.7974  0.8203
  233MOL0     C32028   9.016   9.714   5.776  0.2588  1.0336  0.3222
  233MOL0     C32029   9.067   9.606   5.877  0.4657 -0.2943  0.4845
  233MOL0     C32030   9.067   9.669   6.020 -0.2810  0.3274  0.0780
  233MOL0     C32031   9.149   9.581   6.111 -0.4429  0.5129 -0.2374
  233MOL0     C32032   9.129   9.615   6.256  0.0332 -0.4123  0.3020
  233MOL0     N32033   9.230   9.720   6.296 -0.2923  0.3947  0.2201
  233MOL0     C32034   9.369   9.700   6.303 -0.0430 -0.7167  0.1624
  233MOL0     C32035   9.422   9.824   6.326  0.1291  0.5350  0.4519
  233MOL0     C32036   9.559   9.886   6.346 -0.0761  0.6612  0.8058
  233MOL0     C32037   9.651   9.871   6.223  0.7121 -0.3543  0.1019
  233MOL0     C32038   9.701   9.731   6.196 -0.2964 -0.3124 -0.3701
  233MOL0     C32039   9.774   9.727   6.063  0.0807  0.5241 -0.0892
  233MOL0     O32040   9.894   9.798   6.051 -0.0074 -0.2280 -0.3433
  233MOL0     C32041  10.013   9.734   6.045  0.1408 -0.1445 -0.8775
  233MOL0     C32042  10.126   9.814   6.071 -0.4543  0.3192 -0.3608
  233MOL0     C32043  10.261   9.766   6.060  0.2021  0.1821  0.0299
  233MOL0     C32044  10.364   9.878   6.080  0.6660 -0.2643 -0.4774
  233MOL0     C32045  10.280   9.639   6.019 -0.2550  0.8970 -0.0981
  233MOL0     C32046  10.412   9.579   6.015 -0.6558 -0.1577  0.2424
  233MOL0     O32047  10.506   9.608   6.109 -0.3653 -0.7548 -0.3430
  233MOL0     C32048  10.629   9.560   6.065  0.4913 -0.3025 -0.0438
  233MOL0     C32049  10.676   9.446   6.119 -0.0812 -0.2128 -0.4249
  233MOL0     C32050  10.785   9.368   6.065 -0.3043  0.0065  0.6121
  233MOL0     C32051  10.876   9.427   5.973  0.6860  1.1956 -0.2372
  233MOL0     O32052  10.975   9.362   5.906 -0.0943  0.2920 -0.7944
  233MOL0     C32053  10.991   9.222   5.943 -0.2805  0.1043  1.4885
  233MOL0     C32054  11.086   9.165   5.832  0.3128 -0.8965  0.7745
  233MOL0     C32055  11.137   9.027   5.854  0.1764 -0.9530  0.3853
  233MOL0     C32056  11.246   8.983   5.759  0.1556 -0.7024  0.5732
  233MOL0     C32057  11.212   8.983   5.615  0.1763 -0.4931  0.2867
  233MOL0     C32058  11.085   8.904   5.594 -0.3299  0.3742  0.6053
  233MOL0     C32059  11.058   8.900   5.446 -0.1401  1.0413  0.1609
  233MOL0     C32060  10.933   8.822   5.408  0.7525 -0.2690 -0.1222
  233MOL0    Cl32061  10.931   8.657   5.484 -0.3953  0.3461 -0.4526
  233MOL0     C32062  10.832   9.550   5.925 -0.1616  0.3556 -0.2105
  233MOL0     C32063  10.715   9.612   5.972 -0.0331 -0.5242 -0.2435
  233MOL0     O32064  10.430   9.505   5.916 -0.0786  0.1671  0.2609
  233MOL0     C32065  10.172   9.550   5.992  0.6833  0.4011 -0.3335
  233MOL0     C32066  10.038   9.597   6.013  0.1341  0.0063  0.3366
  233MOL0     N32067   9.315   9.916   6.327  0.8985  0.3662  0.2528
  233MOL0     N32068   9.203   9.845   6.311  0.6743 -0.2979  0.4203
  233MOL0     C32069   8.358   9.783   5.775  0.5319  0.0890  0.5171
  233MOL0     C32070   8.240   9.848   5.771 -0.4710 -0.3590  0.6340
  233MOL0     C32071   7.896  10.104   5.734 -0.9558  0.1711  0.3390
  233MOL0     C32072   7.874  10.124   5.594 -1.0187 -0.2455  0.1985
  233MOL0     C32073   7.747  10.170   5.551  0.8103  1.3150 -0.2710
  233MOL0     C32074   7.643  10.173   5.640  0.1788 -0.0759  0.2047
  233MOL0     O32075   7.518  10.198   5.592  0.3873  0.2824  0.3124
  233MOL0     C32076   7.420  10.092   5.618 -0.6244  0.5740 -0.3667
  233MOL0     C32077   7.284  10.125   5.572  0.4460 -0.0572 -1.2415
  233MOL0     C32078   7.199   9.998   5.595  0.7396  0.1375  0.2049
  233MOL0     C32079   7.053  10.029   5.569 -0.0112 -0.0117  0.3565
  233MOL0     C32080   6.978   9.905   5.562 -0.0521 -0.4738 -0.1064
  233MOL0     C32081   6.915   9.803   5.556 -0.1490 -0.1545  0.4100
  233MOL0     C32082   7.664  10.151   5.773 -0.0717 -0.2088 -0.1435
  233MOL0     C32083   7.796  10.120   5.824 -0.3188  0.6503 -0.2671
  233MOL0     C32084   7.822  10.118   5.966 -0.3880  0.1306 -0.8650
  233MOL0     H32085   8.258  10.035   6.038 -0.0112  0.6967  0.0566
  233MOL0     H32086   8.493   9.921   6.046 -0.4575 -0.7735  0.7201
  233MOL0     H32087   8.633   9.743   5.657 -0.3638 -0.3664 -0.4202
  233MOL0     H32088   8.568   9.596   5.744 -1.3824  0.9850  1.6468
  233MOL0     H32089   8.788   9.552   5.830 -0.4891  0.6954  1.1299
  233MOL0     H32090   8.792   9.577   5.657 -0.3368  2.0093 -1.1114
  233MOL0     H32091   8.844   9.821   5.700 -1.4731 -1.7444 -1.0202
  233MOL0     H32092   8.844   9.800   5.878  2.2632 -0.8320  2.2581
  233MOL0     H32093   9.036   9.675   5.676 -1.5324  1.4586 -0.2454
  233MOL0     H32094   9.079   9.803   5.783  0.7201  0.6773  0.7491
  233MOL0     H32095   9.168   9.572   5.854 -0.1804 -1.8404 -0.1478
  233MOL0     H32096   9.008   9.515   5.871 -2.7550  1.7245 -2.1367
  233MOL0     H32097   9.117   9.766   6.009  2.0892 -0.9310 -0.9025
  233MOL0     H32098   8.968   9.677   6.066 -0.0318 -3.7624  1.7125
  233MOL0     H32099   9.255   9.585   6.082 -0.2886 -0.4006  0.1633
  233MOL0     H32100   9.116   9.477   6.100 -1.9765  1.1523 -2.4255
  233MOL0     H32101   9.025   9.641   6.281 -0.7936 -3.7786  0.7639
  233MOL0     H32102   9.156   9.525   6.312  1.6679  0.7300  1.4288
  233MOL0     H32103   9.437   9.616   6.292  0.4224 -0.1456 -1.8506
  233MOL0     H32104   9.601   9.837   6.435 -3.8808 -5.1989 -0.1110
  233MOL0     H32105   9.543   9.992   6.365  1.0679  1.3471 -1.5875
  233MOL0     H32106   9.590   9.919   6.146  0.4851 -0.4837  0.2029
  233MOL0     H32107   9.736   9.938   6.243  0.8378 -1.2721  3.1442
  233MOL0     H32108   9.765   9.693   6.275  0.4401  0.2040 -0.7032
  233MOL0     H32109   9.621   9.660   6.172  2.8293 -4.2031 -0.2298
  233MOL0     H32110   9.784   9.622   6.036  3.3316  0.7761 -0.2632
  233MOL0     H32111   9.716   9.772   5.982 -2.9870 -1.7368  0.6999
  233MOL0     H32112  10.105   9.919   6.090  1.9250  0.8963 -0.6661
  233MOL0     H32113  10.379   9.897   6.187 -1.8150  1.0723 -0.2779
  233MOL0     H32114  10.321   9.972   6.045  2.3550  0.6583 -0.1570
  233MOL0     H32115  10.456   9.861   6.024  1.8965  4.5124 -0.3218
  233MOL0     H32116  10.615   9.395   6.193 -0.6747 -0.3598 -1.0061
  233MOL0     H32117  10.798   9.276   6.120  1.2014  0.1330  0.5009
  233MOL0     H32118  11.028   9.201   6.044  0.6831  0.9799  1.3239
  233MOL0     H32119  10.899   9.163   5.936 -0.8957  0.9921  1.9471
  233MOL0     H32120  11.028   9.160   5.740  1.1970 -0.9724  0.2151
  233MOL0     H32121  11.168   9.236   5.822 -1.1886  0.9765  1.0555
  233MOL0     H32122  11.058   8.953   5.867 -1.2335  0.6832  1.6276
  233MOL0     H32123  11.181   9.037   5.954 -1.7419 -2.3890  1.4442
  233MOL0     H32124  11.280   8.882   5.781  2.1454 -0.3804 -0.7641
  233MOL0     H32125  11.327   9.056   5.762 -1.4603  1.4721 -2.5494
  233MOL0     H32126  11.209   9.081   5.568 -1.6248 -0.6680 -0.0224
  233MOL0     H32127  11.302   8.947   5.563  1.5822  1.2459  1.3820
  233MOL0     H32128  11.004   8.956   5.645  0.6783  2.8956 -0.1942
  233MOL0     H32129  11.103   8.805   5.635  2.5945  0.6663  0.2988
  233MOL0     H32130  11.138   8.848   5.392 -1.0869  2.2009 -2.4793
  233MOL0     H32131  11.048   8.999   5.400  0.5850  0.7148 -0.7268
  233MOL0     H32132  10.924   8.823   5.299 -0.3843  0.7957 -0.0449
  233MOL0     H32133  10.851   8.883   5.448  1.8038  0.4413  1.0055
  233MOL0     H32134  10.881   9.594   5.839  0.5804  1.6610  0.8341
  233MOL0     H32135  10.692   9.703   5.917  1.4755  0.0182 -0.0282
  233MOL0     H32136  10.188   9.445   5.970 -0.8941 -0.3291  1.7186
  233MOL0     H32137   9.954   9.531   5.995  1.9081 -1.5832 -3.2216
  233MOL0     H32138   8.378   9.703   5.705  0.1286  0.9532 -0.6241
  233MOL0     H32139   8.171   9.820   5.692 -2.0284  0.7548  1.5331
  233MOL0     H32140   7.952  10.110   5.520 -0.9735 -1.2456  0.4318
  233MOL0     H32141   7.723  10.165   5.446  0.7333 -0.9400 -0.1957
  233MOL0     H32142   7.439   9.992   5.577 -4.7531 -0.1276 -1.0159
  233MOL0     H32143   7.423  10.084   5.727 -0.3601  0.4749 -0.3816
  233MOL0     H32144   7.277  10.154   5.467  2.0262  0.8963 -1.1210
  233MOL0     H32145   7.241  10.202   5.637 -2.2097 -2.4768  0.0840
  233MOL0     H32146   7.239   9.924   5.525  1.9399 -0.8287  1.8307
  233MOL0     H32147   7.213   9.954   5.695 -1.7992  0.4236  0.7701
  233MOL0     H32148   7.055  10.087   5.476  2.8923  0.7096  0.7648
  233MOL0     H32149   7.026  10.088   5.657  1.9782 -1.3550  1.9654
  233MOL0     H32150   6.857   9.716   5.533 -0.7327 -0.3321  2.4141
  233MOL0     H32151   7.578  10.170   5.836  0.8779  0.3331  1.0349
  233MOL0     H32152   7.917  10.166   5.990 -0.7533  0.2934  0.3124
  233MOL0     H32153   7.742  10.162   6.026 -0.5165 -3.6138  2.0832
  233MOL0     H32154   7.830  10.015   6.001  0.4775  0.6107  0.4268
  234MOL0     O32155   2.160   3.793   3.274  0.4630 -1.1502  0.0450
  234MOL0     C32156   2.093   3.904   3.270 -0.5197  0.4935 -0.4398
  234MOL0     O32157   1.960   3.918   3.257 -1.1681  0.1248  0.0418
  234MOL0     C32158   1.869   3.823   3.215  0.0873 -0.4864  0.8492
  234MOL0     C32159   1.736   3.847   3.239  0.2393 -0.3798 -0.3987
  234MOL0     C32160   1.638   3.745   3.211 -0.2061  0.1247  0.6423
  234MOL0     C32161   1.683   3.622   3.144  0.2180 -0.2484  0.1147
  234MOL0     O32162   1.603   3.519   3.106 -0.2192  0.2644  0.8354
  234MOL0     C32163   1.490   3.502   3.194  0.0317  0.0998 -0.0243
  234MOL0     C32164   1.440   3.363   3.179  0.6079  0.5501 -1.1107
  234MOL0     C32165   1.309   3.336   3.254  0.1430 -0.3011  0.2274
  234MOL0     C32166   1.331   3.262   3.391  0.1853  0.7741 -0.0228
  234MOL0     C32167   1.194   3.246   3.467 -0.4216  0.7320  0.7378
  234MOL0     C32168   1.085   3.168   3.383 -0.2114 -0.4741  0.2274
  234MOL0     C32169   1.124   3.025   3.330 -0.3535  1.4711  0.6864
  234MOL0     C32170   1.183   2.940   3.442  0.0808  0.8860  0.8784
  234MOL0     N32171   1.229   2.805   3.396  0.2552  0.3691  0.6304
  234MOL0     C32172   1.323   2.788   3.295  0.1272  0.1090 -0.0355
  234MOL0     C32173   1.332   2.660   3.282 -0.6818  0.3887  0.4913
  234MOL0     C32174   1.412   2.576   3.190 -0.1189  0.0882 -0.1733
  234MOL0     C32175   1.540   2.507   3.243 -0.0166  0.4071 -0.2481
  234MOL0     C32176   1.590   2.424   3.112 -0.6244  0.3916  0.3004
  234MOL0     C32177   1.695   2.312   3.153  1.0115  0.4061  0.0917
  234MOL0     O32178   1.825   2.373   3.180  0.4670 -0.3469  0.2467
  234MOL0     C32179   1.905   2.395   3.071 -0.3881 -0.5026  0.1263
  234MOL0     C32180   2.032   2.435   3.106 -0.4642  0.2979 -0.4067
  234MOL0     C32181   2.129   2.455   3.008 -0.8321 -0.5948 -0.6674
  234MOL0     C32182   2.270   2.492   3.049  1.0332  0.4248 -0.0354
  234MOL0     C32183   2.098   2.451   2.871  0.8021 -0.1678  0.9166
  234MOL0     C32184   2.191   2.472   2.755  0.7723  0.1221 -0.7828
  234MOL0     O32185   2.280   2.375   2.746 -0.1800 -0.7235 -0.5032
  234MOL0     C32186   2.383   2.395   2.663  0.1458 -0.0189 -0.2734
  234MOL0     C32187   2.521   2.409   2.709 -0.1248 -0.8879 -0.0745
  234MOL0     C32188   2.610   2.459   2.613  0.3315  0.3172 -0.0202
  234MOL0     C32189   2.589   2.467   2.476  0.7108 -0.7182 -0.4674
  234MOL0     O32190   2.691   2.493   2.389  0.3162 -0.0859 -0.1517
  234MOL0     C32191   2.685   2.617   2.309  0.5071  0.2689 -0.3505
  234MOL0     C32192   2.736   2.610   2.164  0.9848 -0.0678  0.3826
  234MOL0     C32193   2.720   2.741   2.095  0.1016 -0.6741 -0.1550
  234MOL0     C32194   2.773   2.732   1.950  0.0798  0.5047 -0.7655
  234MOL0     C32195   2.783   2.868   1.877 -0.8083 -0.0947  0.2306
  234MOL0     C32196   2.848   2.853   1.736 -0.4030 -0.2958 -0.0428
  234MOL0     C32197   2.749   2.849   1.623  0.8412  0.6268  0.2004
  234MOL0     C32198   2.829   2.875   1.497  0.2555 -0.9413 -0.0333
  234MOL0    Cl32199   2.728   2.867   1.356  0.6343  0.1906 -0.1108
  234MOL0     C32200   2.466   2.419   2.424  0.7472 -0.1139 -0.8317
  234MOL0     C32201   2.363   2.391   2.515 -0.2843  0.9856  0.6996
  234MOL0     O32202   2.173   2.561   2.673  0.2699  0.3096  0.7946
  234MOL0     C32203   1.966   2.411   2.839 -0.2001  0.5724 -0.0979
  234MOL0     C32204   1.870   2.384   2.932 -0.2261  0.4914  0.3553
  234MOL0     N32205   1.251   2.591   3.368  0.3990 -0.0185 -0.9052
  234MOL0     N32206   1.172   2.678   3.426 -0.1825 -0.4098 -0.3780
  234MOL0     C32207   1.814   3.607   3.108 -0.4912  0.4437  0.5520
  234MOL0     C32208   1.909   3.707   3.140  0.6699 -0.1659  0.1365
  234MOL0     C32209   2.175   4.024   3.296 -0.2681 -0.7346  0.1007
  234MOL0     C32210   2.325   4.010   3.319  0.3950 -0.9909  0.4014
  234MOL0     C32211   2.413   4.125   3.319 -0.1190  0.7971  0.0700
  234MOL0     C32212   2.362   4.255   3.319 -0.2006 -0.2200  0.5247
  234MOL0     O32213   2.444   4.367   3.322  0.4129 -0.1321 -0.0671
  234MOL0     C32214   2.403   4.484   3.240 -0.5373  0.1351 -0.4635
  234MOL0     C32215   2.527   4.537   3.159 -0.2839 -0.4014 -0.1730
  234MOL0     C32216   2.635   4.580   3.265  0.8673 -0.5717  0.6259
  234MOL0     C32217   2.734   4.671   3.195 -0.0077  0.4225 -0.3694
  234MOL0     C32218   2.829   4.733   3.290 -0.7104 -0.5669  0.4377
  234MOL0     C32219   2.917   4.787   3.353 -0.2044  0.1692 -0.1318
  234MOL0     C32220   2.222   4.263   3.318 -0.2942  0.3220  0.5782
  234MOL0     C32221   2.129   4.155   3.312 -0.2498  0.7479 -0.3182
  234MOL0     C32222   1.982   4.199   3.298  0.6232  0.4805 -0.4518
  234MOL0     H32223   1.709   3.939   3.289 -2.3505  0.4139 -2.9996
  234MOL0     H32224   1.531   3.751   3.222 -0.5611 -1.6141 -1.2036
  234MOL0     H32225   1.415   3.579   3.173 -0.7516 -0.1150  1.7663
  234MOL0     H32226   1.510   3.520   3.300  0.1699  0.4337 -0.1037
  234MOL0     H32227   1.404   3.346   3.077  1.0795 -1.3035 -0.9887
  234MOL0     H32228   1.521   3.291   3.194 -1.7424 -2.3224 -1.4227
  234MOL0     H32229   1.242   3.421   3.270 -0.8076 -0.8495 -0.7613
  234MOL0     H32230   1.259   3.259   3.196 -0.6207  1.3031 -1.3400
  234MOL0     H32231   1.370   3.160   3.379 -2.6651 -0.4439  0.3482
  234MOL0     H32232   1.395   3.320   3.457  1.1048 -1.0710  0.7744
  234MOL0     H32233   1.155   3.343   3.498 -0.5303  0.9856 -0.1460
  234MOL0     H32234   1.209   3.182   3.554  1.3320 -2.1906 -1.4808
  234MOL0     H32235   1.003   3.152   3.454  1.3960 -0.6967  2.1109
  234MOL0     H32236   1.051   3.226   3.296  0.8586 -0.0796  0.0651
  234MOL0     H32237   1.197   3.030   3.249 -1.4131  0.9362 -0.3237
  234MOL0     H32238   1.040   2.971   3.286 -0.2989  0.2116  2.0491
  234MOL0     H32239   1.252   3.000   3.503  0.6228  1.9142 -0.6821
  234MOL0     H32240   1.107   2.917   3.517 -0.2436 -2.0548 -0.2518
  234MOL0     H32241   1.381   2.859   3.236 -0.1190  0.7674  0.4988
  234MOL0     H32242   1.432   2.617   3.090 -2.6896 -1.3075 -1.3594
  234MOL0     H32243   1.358   2.484   3.164 -3.4024  1.8543 -0.1822
  234MOL0     H32244   1.616   2.578   3.276 -2.2743  1.6995  2.5958
  234MOL0     H32245   1.529   2.438   3.327  0.3147 -0.9455 -1.2873
  234MOL0     H32246   1.508   2.373   3.059  2.1584 -2.4734 -1.6157
  234MOL0     H32247   1.643   2.491   3.045  0.2874 -1.8347 -1.3468
  234MOL0     H32248   1.658   2.260   3.242  1.8808  0.0520  0.2554
  234MOL0     H32249   1.707   2.234   3.077  2.4974  1.4334 -0.7924
  234MOL0     H32250   2.057   2.428   3.211 -1.9244  0.3229 -0.0420
  234MOL0     H32251   2.314   2.570   2.986  3.0967 -1.1380 -0.6514
  234MOL0     H32252   2.331   2.402   3.040  0.7466  0.2397 -0.1004
  234MOL0     H32253   2.277   2.516   3.156  0.4610 -2.4633  0.7281
  234MOL0     H32254   2.547   2.384   2.812 -1.3547 -1.6956  0.0550
  234MOL0     H32255   2.713   2.470   2.646  1.5340  1.8883 -3.7500
  234MOL0     H32256   2.579   2.647   2.306  0.0293 -1.3984 -1.5066
  234MOL0     H32257   2.740   2.700   2.352  0.5638  0.3570 -0.5880
  234MOL0     H32258   2.837   2.571   2.176  0.8090  0.2871  5.5318
  234MOL0     H32259   2.679   2.535   2.109  0.8469 -1.0723  1.8205
  234MOL0     H32260   2.783   2.817   2.143 -1.1898  0.5399 -0.2915
  234MOL0     H32261   2.615   2.772   2.102  0.7468  1.3755  1.8193
  234MOL0     H32262   2.705   2.664   1.898  0.9917 -0.2985 -0.9423
  234MOL0     H32263   2.874   2.691   1.953 -0.0194  0.0474 -2.4173
  234MOL0     H32264   2.684   2.913   1.861 -0.1519  1.2238 -0.2511
  234MOL0     H32265   2.848   2.931   1.938  0.1174  2.9884 -3.5029
  234MOL0     H32266   2.931   2.781   1.736 -1.0317 -1.0833 -1.7542
  234MOL0     H32267   2.902   2.947   1.723  1.2817 -0.7529  2.6949
  234MOL0     H32268   2.668   2.921   1.639  0.8895  0.4796  1.1693
  234MOL0     H32269   2.697   2.753   1.621 -0.2616  1.0427  3.1043
  234MOL0     H32270   2.911   2.802   1.492  0.8023 -0.2987 -0.7529
  234MOL0     H32271   2.877   2.973   1.502  1.2955 -1.3495 -1.2988
  234MOL0     H32272   2.437   2.408   2.320 -1.0053 -1.3145 -0.2671
  234MOL0     H32273   2.264   2.374   2.475 -0.0223  1.9953 -0.4283
  234MOL0     H32274   1.925   2.418   2.738  0.4344 -0.0925 -0.4115
  234MOL0     H32275   1.769   2.351   2.906 -0.5725  1.5620  0.2991
  234MOL0     H32276   1.847   3.519   3.054 -2.0309  0.6275 -0.7379
  234MOL0     H32277   2.009   3.692   3.101  1.3788 -0.5111  1.9638
  234MOL0     H32278   2.359   3.907   3.313 -0.5392 -1.2982  0.1981
  234MOL0     H32279   2.519   4.102   3.327 -0.0980  0.2070 -1.5082
  234MOL0     H32280   2.322   4.456   3.172  0.0501  1.9365 -1.9946
  234MOL0     H32281   2.361   4.564   3.302 -0.6961  0.9225 -1.5457
  234MOL0     H32282   2.493   4.623   3.101  1.2549  4.0404  4.7061
  234MOL0     H32283   2.568   4.459   3.094  0.7274 -0.7051  0.7817
  234MOL0     H32284   2.584   4.638   3.342 -0.2420  1.3453 -1.4414
  234MOL0     H32285   2.690   4.494   3.306  2.4899  0.1679  0.0863
  234MOL0     H32286   2.672   4.746   3.146  1.1971  2.4324  0.9860
  234MOL0     H32287   2.801   4.626   3.121 -0.1268  1.2286 -0.9761
  234MOL0     H32288   2.994   4.831   3.413 -1.1942 -2.9130  3.8082
  234MOL0     H32289   2.177   4.361   3.325  0.3337  0.4934  3.0673
  234MOL0     H32290   1.921   4.147   3.371 -1.1910  0.6660 -1.7838
  234MOL0     H32291   1.976   4.308   3.308 -2.0145  0.1711  3.0259
  234MOL0     H32292   1.935   4.185   3.201 -1.1757  0.7577  0.3387
  235MOL0     O32293   2.682   0.607   6.772  0.1739  0.5984 -0.6681
  235MOL0     C32294   2.651   0.623   6.658 -0.7281 -0.7171  0.2251
  235MOL0     O32295   2.736   0.650   6.561  0.6081  0.2239  0.7990
  235MOL0     C32296   2.867   0.622   6.569 -0.4582 -0.6768  0.2342
  235MOL0     C32297   2.926   0.505   6.612  0.4114  0.1262 -0.1026
  235MOL0     C32298   3.063   0.500   6.630  0.0224  0.0754 -0.1019
  235MOL0     C32299   3.147   0.620   6.613 -0.1192 -0.0376  0.8011
  235MOL0     O32300   3.279   0.631   6.655 -0.7419  0.5068  0.4044
  235MOL0     C32301   3.342   0.516   6.717  0.0168 -0.5641  0.1256
  235MOL0     C32302   3.478   0.576   6.766  0.8176  0.3295 -0.6520
  235MOL0     C32303   3.551   0.464   6.844  0.7788  0.4026  0.7790
  235MOL0     C32304   3.594   0.333   6.767 -0.4911  0.0228 -0.9111
  235MOL0     C32305   3.650   0.232   6.868 -1.0998 -0.2521 -0.0696
  235MOL0     C32306   3.736   0.122   6.811 -0.7295 -0.4374 -0.3529
  235MOL0     C32307   3.782   0.037   6.926  0.5258 -1.0724 -0.7457
  235MOL0     C32308   3.877  -0.072   6.885  0.3732 -0.6989  0.4809
  235MOL0     N32309   4.015  -0.033   6.881 -1.0795 -0.4068  0.9316
  235MOL0     C32310   4.103   0.004   6.976 -0.8246  0.1912  0.5106
  235MOL0     C32311   4.220   0.030   6.904 -0.5024  0.5207 -0.6674
  235MOL0     C32312   4.342   0.076   6.964 -1.0672 -0.6225 -0.1039
  235MOL0     C32313   4.471  -0.000   6.908 -0.1547  0.2452 -0.3669
  235MOL0     C32314   4.597   0.002   6.992 -0.1595  0.5711 -0.3529
  235MOL0     C32315   4.721  -0.072   6.928 -0.0962  0.0299  0.1122
  235MOL0     O32316   4.727   0.001   6.803  0.0740  0.0146 -0.2369
  235MOL0     C32317   4.851   0.030   6.755 -0.5120  0.5867 -0.1106
  235MOL0     C32318   4.861   0.136   6.662 -0.5716 -0.5511 -0.6186
  235MOL0     C32319   4.987   0.174   6.614  0.2427 -0.6027 -0.6002
  235MOL0     C32320   4.988   0.297   6.516  0.7467  1.1453 -0.7426
  235MOL0     C32321   5.103   0.103   6.656 -0.5834  0.2014 -0.3350
  235MOL0     C32322   5.243   0.154   6.628  0.5346  0.0326 -0.0159
  235MOL0     O32323   5.340   0.066   6.639 -0.3459 -0.3127 -0.1855
  235MOL0     C32324   5.476   0.080   6.586  0.2100 -0.2263  0.8477
  235MOL0     C32325   5.576  -0.005   6.634 -0.6062 -0.2108 -1.0677
  235MOL0     C32326   5.712  -0.001   6.575  0.2950  0.0574 -0.2251
  235MOL0     C32327   5.746   0.078   6.477 -0.6001  0.1338  0.6226
  235MOL0     O32328   5.877   0.075   6.433 -0.3835 -0.0472 -0.6548
  235MOL0     C32329   5.933   0.172   6.339  0.3153  0.3828  1.0844
  235MOL0     C32330   5.958   0.303   6.415 -0.5019 -0.5867 -0.1641
  235MOL0     C32331   6.093   0.303   6.480 -0.7431 -0.1950 -0.7374
  235MOL0     C32332   6.214   0.277   6.381 -0.7721  0.2696 -0.0154
  235MOL0     C32333   6.351   0.300   6.447  0.5287 -0.2828  0.5364
  235MOL0     C32334   6.389   0.209   6.566  0.9588 -1.1629  0.4473
  235MOL0     C32335   6.337   0.264   6.704 -0.1651 -0.1561  0.4505
  235MOL0     C32336   6.310   0.160   6.812  0.4481  0.1616 -0.1067
  235MOL0    Cl32337   6.213   0.240   6.937 -0.3187 -0.0461  0.0638
  235MOL0     C32338   5.645   0.149   6.416 -0.0591  0.7463 -0.6715
  235MOL0     C32339   5.513   0.152   6.478 -0.4766  0.6355  0.6107
  235MOL0     O32340   5.255   0.270   6.586  0.0291  0.5178 -0.2618
  235MOL0     C32341   5.092  -0.006   6.740  0.2229 -0.4728 -0.0821
  235MOL0     C32342   4.963  -0.046   6.786  0.5393 -0.0170 -0.9650
  235MOL0     N32343   4.205  -0.003   6.773 -0.3594  0.7148 -0.4831
  235MOL0     N32344   4.075  -0.040   6.756 -0.3615 -0.5029 -0.2882
  235MOL0     C32345   3.091   0.735   6.556 -0.5309  0.5353  0.2157
  235MOL0     C32346   2.958   0.732   6.538 -0.5163  0.0281  0.7291
  235MOL0     C32347   2.507   0.623   6.628  0.7776 -0.2773  0.4949
  235MOL0     C32348   2.425   0.674   6.730 -0.0714  0.6085  0.6167
  235MOL0     C32349   2.296   0.692   6.713  0.3236 -0.4003  0.4897
  235MOL0     C32350   2.241   0.678   6.582 -0.3953 -0.6735 -0.1482
  235MOL0     O32351   2.122   0.723   6.541  0.5655  0.8725 -0.5393
  235MOL0     C32352   2.021   0.756   6.641 -0.3193  0.1708 -0.1511
  235MOL0     C32353   1.927   0.642   6.687  0.3514 -0.7204 -0.3993
  235MOL0     C32354   1.816   0.689   6.784  0.6713  0.2848  0.4297
  235MOL0     C32355   1.761   0.569   6.847  0.5586 -0.0479 -0.4487
  235MOL0     C32356   1.683   0.634   6.960  0.3333  0.3937  0.9072
  235MOL0     C32357   1.608   0.658   7.051 -0.5486 -0.8227 -0.4944
  235MOL0     C32358   2.310   0.622   6.479 -0.0679 -0.0819  0.8160
  235MOL0     C32359   2.446   0.585   6.504 -0.2445  0.4011 -0.5530
  235MOL0     C32360   2.526   0.520   6.386 -0.1389  0.0765  0.2645
  235MOL0     H32361   2.868   0.422   6.651 -0.3460  1.2798  1.3627
  235MOL0     H32362   3.101   0.411   6.679 -0.3493  0.6174  1.2183
  235MOL0     H32363   3.361   0.444   6.637 -0.5879 -0.0704 -0.4816
  235MOL0     H32364   3.284   0.478   6.801 -1.7697  1.2937 -0.1790
  235MOL0     H32365   3.538   0.613   6.682  1.5438 -0.1604 -0.3544
  235MOL0     H32366   3.462   0.663   6.830 -1.3065 -0.9688  0.6862
  235MOL0     H32367   3.634   0.505   6.902  0.7257  0.5149  0.7767
  235MOL0     H32368   3.478   0.425   6.916 -0.1016  4.2135  2.1800
  235MOL0     H32369   3.501   0.289   6.729 -1.6042  3.1574 -2.1540
  235MOL0     H32370   3.673   0.352   6.694  0.3969 -1.5580 -0.4210
  235MOL0     H32371   3.573   0.180   6.925  0.8051 -1.3457  1.6461
  235MOL0     H32372   3.706   0.279   6.949  0.2025 -0.8193 -0.6116
  235MOL0     H32373   3.685   0.055   6.741 -1.1123 -0.3322 -0.1770
  235MOL0     H32374   3.824   0.164   6.760  0.3599 -0.2805  1.5577
  235MOL0     H32375   3.687  -0.007   6.960 -0.3527  0.8929 -0.5130
  235MOL0     H32376   3.827   0.095   7.007 -0.1469  1.6441 -2.2097
  235MOL0     H32377   3.876  -0.161   6.950 -1.4889 -4.1445 -3.7725
  235MOL0     H32378   3.847  -0.108   6.786  0.5083  1.3123 -0.3263
  235MOL0     H32379   4.076   0.017   7.080 -0.1705 -1.5570  0.9393
  235MOL0     H32380   4.348   0.073   7.074 -1.3914  1.4436  0.0190
  235MOL0     H32381   4.348   0.182   6.938 -0.2181 -1.2465 -2.6721
  235MOL0     H32382   4.438  -0.101   6.880  0.9765 -0.6131  1.2278
  235MOL0     H32383   4.492   0.042   6.810 -0.9071  1.1348 -0.1587
  235MOL0     H32384   4.629   0.103   7.020  2.7305 -0.6712  1.3352
  235MOL0     H32385   4.575  -0.052   7.084  1.2308 -1.3557 -1.0736
  235MOL0     H32386   4.808  -0.056   6.993 -0.6287  0.4516  0.7402
  235MOL0     H32387   4.702  -0.178   6.913  1.1242  0.0646 -2.0477
  235MOL0     H32388   4.769   0.187   6.635 -2.4227 -1.8573  2.6902
  235MOL0     H32389   5.077   0.301   6.453  1.7568 -3.0608  0.0720
  235MOL0     H32390   4.966   0.390   6.569  1.8133  1.3043 -0.5665
  235MOL0     H32391   4.915   0.271   6.438  0.3180 -1.1850  0.3304
  235MOL0     H32392   5.560  -0.072   6.718  2.6760 -0.0414 -0.1686
  235MOL0     H32393   5.793  -0.061   6.616 -0.5404 -0.0360  1.3527
  235MOL0     H32394   6.020   0.127   6.292 -1.2117 -0.6760 -0.8633
  235MOL0     H32395   5.863   0.192   6.258  2.3654  1.7018 -0.4520
  235MOL0     H32396   5.942   0.382   6.340 -1.7340 -1.0012 -0.3750
  235MOL0     H32397   5.881   0.326   6.489 -1.6320 -0.0388 -1.4499
  235MOL0     H32398   6.091   0.224   6.556 -1.9842  0.2848 -0.2275
  235MOL0     H32399   6.104   0.401   6.528 -1.5488 -0.0020 -0.9333
  235MOL0     H32400   6.216   0.352   6.301 -2.4142  0.4811  0.1078
  235MOL0     H32401   6.213   0.182   6.326  2.1886 -0.2089  0.5705
  235MOL0     H32402   6.419   0.267   6.369  2.3642 -0.1869  2.0316
  235MOL0     H32403   6.366   0.407   6.466 -1.4330  0.7783 -3.0376
  235MOL0     H32404   6.496   0.196   6.581  1.3190 -0.9520 -1.7300
  235MOL0     H32405   6.348   0.111   6.539 -1.0197 -0.6421  1.3399
  235MOL0     H32406   6.241   0.311   6.678  0.8283 -0.1037 -3.8548
  235MOL0     H32407   6.410   0.340   6.734  0.4021  0.7861 -2.9037
  235MOL0     H32408   6.396   0.121   6.865 -1.5520 -1.3174  2.2675
  235MOL0     H32409   6.247   0.080   6.772 -0.0395  1.7825 -2.8816
  235MOL0     H32410   5.665   0.208   6.327  0.8148 -0.6623 -1.4546
  235MOL0     H32411   5.436   0.206   6.424  0.2385 -1.3456 -2.6775
  235MOL0     H32412   5.186  -0.056   6.763  1.0469  0.4780 -1.2462
  235MOL0     H32413   4.959  -0.133   6.850 -2.5652  0.6363 -0.0639
  235MOL0     H32414   3.149   0.826   6.545  1.0311 -0.4323  0.1195
  235MOL0     H32415   2.912   0.819   6.493  2.5678  1.3001 -0.2340
  235MOL0     H32416   2.470   0.703   6.825 -1.7784 -0.1402  1.7087
  235MOL0     H32417   2.227   0.726   6.790 -3.1899  1.3330 -2.9973
  235MOL0     H32418   2.065   0.816   6.721  1.6808 -0.4392 -0.7190
  235MOL0     H32419   1.957   0.826   6.587  0.1600  0.7629  0.0451
  235MOL0     H32420   1.992   0.568   6.736 -1.3786 -0.6221  2.2993
  235MOL0     H32421   1.879   0.592   6.603 -0.9719 -0.1821  0.0181
  235MOL0     H32422   1.866   0.741   6.866  0.5024 -2.1716  2.2215
  235MOL0     H32423   1.746   0.748   6.724  0.6102  2.0706  2.1630
  235MOL0     H32424   1.840   0.502   6.883 -0.7279 -0.5569  1.5760
  235MOL0     H32425   1.695   0.507   6.786 -3.9181  1.5877  2.2747
  235MOL0     H32426   1.539   0.679   7.130  0.3692  0.1318  0.0798
  235MOL0     H32427   2.261   0.606   6.383  1.7319  0.4855 -0.2403
  235MOL0     H32428   2.460   0.512   6.299 -0.6993  1.6204  0.5294
  235MOL0     H32429   2.606   0.582   6.345  0.3417 -0.3536  0.5329
  235MOL0     H32430   2.565   0.418   6.399  0.9123  0.3491 -0.6120
  236MOL0     O32431   8.995   3.581   0.108 -0.3013 -0.8283  0.3719
  236MOL0     C32432   8.904   3.501   0.115  0.3437 -0.1953  0.6062
  236MOL0     O32433   8.913   3.385   0.188  0.6281  0.2587 -0.3956
  236MOL0     C32434   9.031   3.367   0.242  0.5967  0.7738  0.5421
  236MOL0     C32435   9.025   3.359   0.384 -0.1350 -0.5464  0.9275
  236MOL0     C32436   9.135   3.343   0.467  0.1834  0.1487  0.1904
  236MOL0     C32437   9.261   3.344   0.409 -0.5664 -0.6383  0.7190
  236MOL0     O32438   9.369   3.335   0.494  0.0726  0.3452  0.5599
  236MOL0     C32439   9.500   3.320   0.440  0.7053  0.3538  0.1053
  236MOL0     C32440   9.607   3.344   0.552  0.4096  1.5966  0.7525
  236MOL0     C32441   9.726   3.240   0.533 -0.2980 -0.0654  0.0585
  236MOL0     C32442   9.804   3.277   0.399 -0.4460 -0.4408 -0.5132
  236MOL0     C32443   9.912   3.172   0.365 -1.6408  0.1464  0.6604
  236MOL0     C32444  10.011   3.254   0.282 -0.7416 -0.0397  0.2036
  236MOL0     C32445  10.107   3.163   0.214  0.1906  0.1767 -0.9844
  236MOL0     C32446  10.234   3.235   0.166  0.3609  0.2642 -0.5349
  236MOL0     N32447  10.302   3.308   0.272  0.3837 -0.2217 -0.7442
  236MOL0     C32448  10.336   3.437   0.272 -0.2499 -0.6110  0.0225
  236MOL0     C32449  10.408   3.453   0.384  0.0756 -0.2524 -0.5422
  236MOL0     C32450  10.470   3.575   0.436  0.0768 -0.2530 -0.1428
  236MOL0     C32451  10.372   3.674   0.493  0.2508 -0.0546  0.5862
  236MOL0     C32452  10.296   3.621   0.616 -0.7100 -0.8299 -0.3311
  236MOL0     C32453  10.385   3.561   0.730  0.1597  0.1650  0.0705
  236MOL0     O32454  10.478   3.662   0.768  0.2003  0.3172  0.2888
  236MOL0     C32455  10.580   3.634   0.845  0.5293  0.0345  0.0497
  236MOL0     C32456  10.609   3.521   0.929 -0.3865  0.4777  0.5328
  236MOL0     C32457  10.725   3.533   1.007 -0.9545 -0.5066  0.0491
  236MOL0     C32458  10.736   3.427   1.111  0.0239  0.2271 -0.4298
  236MOL0     C32459  10.830   3.635   0.984  0.1433  0.1256 -0.7296
  236MOL0     C32460  10.967   3.622   1.052  0.1410 -0.9603  0.3857
  236MOL0     O32461  11.050   3.729   1.038 -0.1859 -0.6524 -0.1001
  236MOL0     C32462  11.184   3.712   1.069 -0.4622 -0.2776 -0.0171
  236MOL0     C32463  11.273   3.697   0.970  0.4556  0.5727  0.7731
  236MOL0     C32464  11.409   3.694   0.995 -0.3131  1.0524 -0.3001
  236MOL0     C32465  11.453   3.704   1.124 -0.2831  0.1706  0.1848
  236MOL0     O32466  11.594   3.708   1.156 -0.3474  0.4662 -0.4178
  236MOL0     C32467  11.684   3.771   1.058 -0.3770  0.2098 -0.0158
  236MOL0     C32468  11.824   3.778   1.119 -0.1687 -0.7611 -0.9517
  236MOL0     C32469  11.898   3.641   1.128 -0.9496  0.2573 -0.0170
  236MOL0     C32470  12.052   3.650   1.155  0.1370 -0.1367 -0.1478
  236MOL0     C32471  12.079   3.689   1.296 -0.3477  0.0570  0.0523
  236MOL0     C32472  12.222   3.729   1.318 -0.0936  0.8375 -0.5206
  236MOL0     C32473  12.324   3.624   1.291 -0.0391  0.7972 -0.3472
  236MOL0     C32474  12.462   3.674   1.341 -0.0355 -0.3150  0.7609
  236MOL0    Cl32475  12.539   3.793   1.236 -0.3002 -0.3046 -0.0153
  236MOL0     C32476  11.367   3.714   1.232 -0.1686  0.3489  0.0147
  236MOL0     C32477  11.230   3.723   1.192  0.3969  0.9116 -0.2167
  236MOL0     O32478  10.996   3.512   1.094 -0.1761  0.2437 -0.4576
  236MOL0     C32479  10.798   3.737   0.897  0.5598 -0.3502  0.0678
  236MOL0     C32480  10.674   3.737   0.838 -0.1317  0.8558 -0.1463
  236MOL0     N32481  10.409   3.334   0.455 -0.3925 -0.6743  0.4125
  236MOL0     N32482  10.343   3.248   0.386 -0.5598 -0.1359 -0.4782
  236MOL0     C32483   9.278   3.342   0.264 -0.0490  1.4042  1.3117
  236MOL0     C32484   9.161   3.337   0.186  0.3991 -0.2514  0.5757
  236MOL0     C32485   8.782   3.510   0.026  0.4130  0.4402  0.2537
  236MOL0     C32486   8.667   3.449   0.069  0.5095  0.2006 -0.7115
  236MOL0     C32487   8.549   3.464  -0.003  0.3069  0.2030  0.0982
  236MOL0     C32488   8.544   3.529  -0.123 -0.1410  0.4253  0.4931
  236MOL0     O32489   8.425   3.541  -0.185 -0.1493  0.3058  0.3238
  236MOL0     C32490   8.376   3.667  -0.220  0.4600  0.3233 -0.0513
  236MOL0     C32491   8.223   3.695  -0.199  0.3361  0.4472 -0.0111
  236MOL0     C32492   8.137   3.602  -0.290 -0.1368 -0.9632  0.0361
  236MOL0     C32493   8.001   3.664  -0.314  0.6604  0.3959 -1.0848
  236MOL0     C32494   7.966   3.669  -0.452 -0.7687 -1.5114 -0.5138
  236MOL0     C32495   7.937   3.692  -0.564  0.2813  0.6117  0.4494
  236MOL0     C32496   8.660   3.592  -0.178 -0.7086  0.1550  0.5845
  236MOL0     C32497   8.780   3.569  -0.105  1.3053 -0.3874  0.5036
  236MOL0     C32498   8.898   3.640  -0.166  0.3308  0.3431  0.2239
  236MOL0     H32499   8.930   3.360   0.437  1.0606 -0.3245  3.1926
  236MOL0     H32500   9.128   3.342   0.576 -1.6899  0.5891  0.1057
  236MOL0     H32501   9.518   3.384   0.353 -3.9683 -1.9139 -2.9324
  236MOL0     H32502   9.504   3.212   0.426  1.1396  0.5621 -1.5428
  236MOL0     H32503   9.639   3.448   0.546 -0.0013  1.6245 -2.0134
  236MOL0     H32504   9.564   3.323   0.650  1.1043 -2.1668  0.4195
  236MOL0     H32505   9.791   3.236   0.621 -0.9602  2.5771  0.7558
  236MOL0     H32506   9.681   3.143   0.510 -0.4869 -0.2498  1.1191
  236MOL0     H32507   9.728   3.289   0.321 -1.8366  2.8690  1.1334
  236MOL0     H32508   9.848   3.376   0.412  0.9594 -0.8996 -1.5729
  236MOL0     H32509   9.857   3.102   0.301 -4.5886  2.3297  0.6154
  236MOL0     H32510   9.957   3.118   0.449  2.0877  0.3884 -0.9820
  236MOL0     H32511   9.963   3.311   0.203  2.1242 -0.4103 -1.9651
  236MOL0     H32512  10.059   3.324   0.352  0.9328 -1.0219  0.1094
  236MOL0     H32513  10.053   3.120   0.129 -0.1432  0.0513 -0.7073
  236MOL0     H32514  10.138   3.097   0.295  1.6041  4.0121  1.9265
  236MOL0     H32515  10.300   3.163   0.115 -2.1876 -0.8711 -2.5092
  236MOL0     H32516  10.199   3.305   0.089 -0.0458 -0.0063 -0.6003
  236MOL0     H32517  10.310   3.513   0.199  0.8085  0.9122  1.1661
  236MOL0     H32518  10.530   3.618   0.355  0.3785 -0.8840 -0.2603
  236MOL0     H32519  10.544   3.554   0.514 -0.5641  1.5831  1.0233
  236MOL0     H32520  10.424   3.755   0.546 -0.0331 -1.7751  3.7108
  236MOL0     H32521  10.304   3.720   0.421  0.9439  1.2263  0.7165
  236MOL0     H32522  10.237   3.695   0.670  1.6073 -0.0616  1.3311
  236MOL0     H32523  10.220   3.556   0.572  0.7098 -1.1082 -2.5396
  236MOL0     H32524  10.317   3.531   0.810 -2.0334  0.7766 -1.4581
  236MOL0     H32525  10.430   3.468   0.693 -2.9064 -1.3585 -0.1761
  236MOL0     H32526  10.536   3.447   0.959  0.8416 -1.0455 -0.1028
  236MOL0     H32527  10.646   3.370   1.135  0.3906 -0.3540 -0.4106
  236MOL0     H32528  10.768   3.479   1.202 -0.4199  0.9132 -0.6602
  236MOL0     H32529  10.807   3.351   1.077  0.0790 -0.0645  0.3017
  236MOL0     H32530  11.222   3.694   0.874 -3.5878  0.7632  2.6984
  236MOL0     H32531  11.487   3.686   0.920 -1.4471 -1.2780 -1.3440
  236MOL0     H32532  11.697   3.729   0.958 -1.1794  0.4377 -0.2283
  236MOL0     H32533  11.645   3.871   1.037 -0.6357 -0.1100 -1.1131
  236MOL0     H32534  11.891   3.848   1.068  0.7827  1.2034  2.5862
  236MOL0     H32535  11.813   3.817   1.221  1.9525 -1.0712 -0.5680
  236MOL0     H32536  11.874   3.582   1.039  2.8573 -2.7216  0.6719
  236MOL0     H32537  11.852   3.579   1.206  0.1710  0.2370  0.6467
  236MOL0     H32538  12.095   3.725   1.086  0.0056  0.8852  0.8504
  236MOL0     H32539  12.107   3.559   1.130 -1.5327 -1.2694  0.1285
  236MOL0     H32540  12.023   3.776   1.329  1.3247  1.5031 -0.7848
  236MOL0     H32541  12.059   3.612   1.371 -0.8095  0.7742  0.6704
  236MOL0     H32542  12.227   3.757   1.423 -1.6847  1.2778 -0.5321
  236MOL0     H32543  12.242   3.815   1.254  0.2606 -0.3136 -2.0235
  236MOL0     H32544  12.335   3.608   1.184  3.0349  4.2042 -0.7154
  236MOL0     H32545  12.299   3.541   1.358  1.1633  0.1164 -0.7210
  236MOL0     H32546  12.528   3.588   1.356  1.8290  1.1688  1.5583
  236MOL0     H32547  12.457   3.709   1.444  1.3802 -1.1132  1.1321
  236MOL0     H32548  11.401   3.733   1.333 -0.0794  2.3634 -0.3491
  236MOL0     H32549  11.155   3.737   1.269 -0.0670 -0.0811 -0.4745
  236MOL0     H32550  10.874   3.807   0.865 -1.2811  1.5091 -0.4844
  236MOL0     H32551  10.637   3.818   0.776 -4.8066 -1.5732 -1.0477
  236MOL0     H32552   9.369   3.327   0.206 -0.6965  0.3002  0.5503
  236MOL0     H32553   9.163   3.330   0.078  1.7601  1.5654  0.4256
  236MOL0     H32554   8.644   3.392   0.158  3.0295 -2.5050 -1.6450
  236MOL0     H32555   8.450   3.426   0.022  1.0779 -0.4464  2.4768
  236MOL0     H32556   8.435   3.745  -0.172 -0.6464  0.4676  1.1028
  236MOL0     H32557   8.398   3.672  -0.328  3.1545 -1.7568  0.2649
  236MOL0     H32558   8.199   3.799  -0.225 -1.2301 -0.5088 -2.7658
  236MOL0     H32559   8.194   3.680  -0.094 -1.0644 -1.8004 -0.6519
  236MOL0     H32560   8.186   3.591  -0.387  0.4936 -2.7133  0.5270
  236MOL0     H32561   8.127   3.497  -0.262 -0.2921 -0.8988  0.2224
  236MOL0     H32562   7.995   3.765  -0.272 -1.1019 -0.2055  0.2400
  236MOL0     H32563   7.936   3.605  -0.249  1.9161  2.1510  1.9890
  236MOL0     H32564   7.889   3.706  -0.659  0.3882 -1.0350  0.1093
  236MOL0     H32565   8.654   3.652  -0.267 -0.5632  1.4351  1.4141
  236MOL0     H32566   8.887   3.627  -0.274 -3.3671 -1.9477  0.7002
  236MOL0     H32567   8.893   3.748  -0.153 -2.5289  0.3670 -0.4551
  236MOL0     H32568   8.993   3.598  -0.131  0.2747  0.5058  0.5714
  237MOL0     O32569   2.382   4.005   5.730  1.0717 -0.0483  0.0764
  237MOL0     C32570   2.375   3.930   5.640 -0.4128 -0.0489 -0.0931
  237MOL0     O32571   2.464   3.925   5.533  0.8422 -0.1708 -0.2617
  237MOL0     C32572   2.547   4.034   5.525  0.3121 -0.4239  0.0491
  237MOL0     C32573   2.518   4.160   5.477  0.0050 -0.8199  0.0204
  237MOL0     C32574   2.602   4.269   5.476 -0.1739 -0.0437  0.5217
  237MOL0     C32575   2.737   4.256   5.522  0.2227  0.6610  0.7460
  237MOL0     O32576   2.816   4.362   5.523 -0.2738 -0.6467 -0.0368
  237MOL0     C32577   2.957   4.354   5.504  0.1407 -0.2380  0.3511
  237MOL0     C32578   3.043   4.419   5.602 -0.3660  0.2791 -0.6524
  237MOL0     C32579   3.188   4.370   5.595  0.0553  1.0345 -0.6403
  237MOL0     C32580   3.260   4.467   5.693 -0.2914 -0.5108 -0.1838
  237MOL0     C32581   3.409   4.451   5.703 -0.8426 -0.4318  0.1105
  237MOL0     C32582   3.464   4.311   5.725  0.0965 -1.0738  0.6807
  237MOL0     C32583   3.611   4.322   5.748  0.6375  0.3715  0.6283
  237MOL0     C32584   3.680   4.213   5.671  0.7347  0.0041  0.2882
  237MOL0     N32585   3.804   4.175   5.743  0.6984  0.3715  0.1840
  237MOL0     C32586   3.896   4.270   5.783 -0.1015  0.5256 -0.5996
  237MOL0     C32587   4.005   4.193   5.801  0.4296 -0.9573 -0.1278
  237MOL0     C32588   4.151   4.248   5.806  0.4423 -0.6428  0.2202
  237MOL0     C32589   4.198   4.341   5.924  0.2696  0.4193  0.8837
  237MOL0     C32590   4.290   4.446   5.867  0.0412  0.2523 -0.0670
  237MOL0     C32591   4.370   4.498   5.982 -0.0932 -0.9274 -0.1229
  237MOL0     O32592   4.451   4.615   5.961 -0.2372 -0.1255  0.3512
  237MOL0     C32593   4.580   4.584   5.932  0.0438  0.4763  0.1499
  237MOL0     C32594   4.683   4.561   6.018  0.3540 -0.4561 -0.5265
  237MOL0     C32595   4.813   4.538   5.979  0.3329  0.5115  0.6342
  237MOL0     C32596   4.914   4.529   6.084  0.2614 -0.0252  0.4527
  237MOL0     C32597   4.838   4.524   5.838  1.2316 -0.5196 -0.1221
  237MOL0     C32598   4.971   4.482   5.788  0.1596  0.1328  0.6402
  237MOL0     O32599   5.065   4.455   5.881 -0.7301  0.8516 -0.0831
  237MOL0     C32600   5.190   4.416   5.830  0.1809  0.2434  0.2087
  237MOL0     C32601   5.221   4.272   5.836  0.2239  0.2728 -0.6119
  237MOL0     C32602   5.352   4.230   5.813  0.1880  0.0051  0.8820
  237MOL0     C32603   5.452   4.320   5.793 -0.2798 -0.3578  0.7916
  237MOL0     O32604   5.585   4.283   5.783  0.0499  0.2199 -0.1402
  237MOL0     C32605   5.632   4.153   5.816  0.1943  0.6026 -0.1732
  237MOL0     C32606   5.761   4.116   5.746  0.5504  0.0655  0.1677
  237MOL0     C32607   5.865   4.224   5.782 -0.1704 -0.4132 -0.0731
  237MOL0     C32608   6.009   4.196   5.734 -0.5486  0.3789 -0.0586
  237MOL0     C32609   6.110   4.271   5.826  0.6540 -0.7363  0.6303
  237MOL0     C32610   6.254   4.218   5.813 -0.1403 -0.0927  0.0893
  237MOL0     C32611   6.305   4.211   5.674  0.0465 -0.1887  0.2131
  237MOL0     C32612   6.456   4.182   5.658  0.2685  0.1851 -0.5795
  237MOL0    Cl32613   6.559   4.321   5.715 -0.1615  0.1257  0.4509
  237MOL0     C32614   5.419   4.461   5.779  0.1855  0.1420 -0.4443
  237MOL0     C32615   5.283   4.510   5.788 -0.1824 -0.1055 -0.3824
  237MOL0     O32616   4.981   4.464   5.669 -0.5941 -0.3671 -0.6360
  237MOL0     C32617   4.725   4.534   5.748 -0.1984 -0.0032 -0.0763
  237MOL0     C32618   4.597   4.565   5.794  0.2857  0.1146  0.4609
  237MOL0     N32619   3.972   4.061   5.775 -0.1536 -0.7328  0.3301
  237MOL0     N32620   3.854   4.048   5.739 -0.0322  0.3477 -0.1046
  237MOL0     C32621   2.776   4.128   5.566  1.1896 -0.5583  0.3279
  237MOL0     C32622   2.679   4.023   5.569  0.3488  0.3154  0.2671
  237MOL0     C32623   2.264   3.834   5.654  1.0398  1.0074  0.2193
  237MOL0     C32624   2.132   3.880   5.696 -1.2377  0.6201  0.4369
  237MOL0     C32625   2.019   3.795   5.692  0.3292  0.4373 -0.0911
  237MOL0     C32626   2.029   3.664   5.642 -0.3506  0.5402 -0.5369
  237MOL0     O32627   1.924   3.578   5.634  0.4236  0.1441  0.1694
  237MOL0     C32628   1.789   3.618   5.675  0.2074 -0.2128 -0.5789
  237MOL0     C32629   1.709   3.672   5.555  0.0509  0.1278  0.3326
  237MOL0     C32630   1.684   3.579   5.441 -0.5571  0.6700 -0.5667
  237MOL0     C32631   1.591   3.463   5.472  0.2650 -0.7055  0.4498
  237MOL0     C32632   1.561   3.377   5.359  0.2426  0.2482 -0.6797
  237MOL0     C32633   1.517   3.301   5.273 -0.1668 -0.5514  0.5171
  237MOL0     C32634   2.158   3.626   5.602  0.8438  0.2759  0.0278
  237MOL0     C32635   2.279   3.706   5.608  0.1326 -0.7676 -0.2529
  237MOL0     C32636   2.413   3.640   5.595 -1.1541 -0.2563 -0.7223
  237MOL0     H32637   2.420   4.188   5.438 -0.2311 -1.5546  0.0693
  237MOL0     H32638   2.571   4.365   5.436  2.8789  0.6651 -0.3639
  237MOL0     H32639   2.972   4.407   5.410 -4.6119  3.0921  1.1293
  237MOL0     H32640   2.977   4.247   5.492 -3.8094 -0.9198 -1.5674
  237MOL0     H32641   3.027   4.527   5.600 -0.1112  0.3693  0.9145
  237MOL0     H32642   2.996   4.381   5.693  2.9380 -3.0737 -0.1168
  237MOL0     H32643   3.194   4.267   5.631 -3.0279  1.1238  0.4465
  237MOL0     H32644   3.228   4.376   5.493 -0.0303 -0.1295 -0.7548
  237MOL0     H32645   3.250   4.574   5.673  1.7132 -0.3036 -0.2898
  237MOL0     H32646   3.219   4.441   5.791 -1.5892  1.5397 -0.1275
  237MOL0     H32647   3.444   4.514   5.785  0.2674  0.4906 -1.0140
  237MOL0     H32648   3.448   4.487   5.607 -0.6011 -1.7237 -0.3050
  237MOL0     H32649   3.416   4.260   5.809 -1.1833  1.2329  1.4567
  237MOL0     H32650   3.442   4.266   5.628 -1.2034  0.8199  0.0368
  237MOL0     H32651   3.630   4.317   5.855 -1.9838 -0.6243  1.1242
  237MOL0     H32652   3.652   4.418   5.715 -0.3606  1.0345  1.2911
  237MOL0     H32653   3.616   4.126   5.661  0.4866  0.2658 -0.4455
  237MOL0     H32654   3.710   4.253   5.574 -0.3476 -0.2695 -0.1724
  237MOL0     H32655   3.897   4.375   5.808  0.5628  0.1057  1.3142
  237MOL0     H32656   4.171   4.297   5.711  1.3240 -1.7668 -0.1911
  237MOL0     H32657   4.212   4.157   5.796  0.8511 -0.2091 -1.5308
  237MOL0     H32658   4.105   4.390   5.954 -1.1570 -0.6451 -1.4641
  237MOL0     H32659   4.237   4.273   6.000  2.4010 -1.0598 -1.3791
  237MOL0     H32660   4.357   4.408   5.790  1.7006  0.5063  1.1831
  237MOL0     H32661   4.238   4.533   5.827  1.4671  0.5653 -1.3091
  237MOL0     H32662   4.302   4.527   6.063 -0.1707  1.9400 -1.1103
  237MOL0     H32663   4.428   4.415   6.023  0.3463 -0.1429  0.8798
  237MOL0     H32664   4.655   4.575   6.122 -0.8511 -1.9374 -0.6082
  237MOL0     H32665   4.996   4.599   6.066 -0.7423  1.2940  0.8696
  237MOL0     H32666   4.967   4.433   6.090 -1.6197 -1.0870  0.6690
  237MOL0     H32667   4.877   4.543   6.186  1.8992 -1.3388  1.2803
  237MOL0     H32668   5.148   4.193   5.850 -2.3872  2.7221  0.4727
  237MOL0     H32669   5.360   4.122   5.810  0.4148  0.0352 -0.6088
  237MOL0     H32670   5.657   4.146   5.922  0.7575 -2.7814 -0.3920
  237MOL0     H32671   5.557   4.076   5.795  0.2065  1.0681 -2.2015
  237MOL0     H32672   5.798   4.024   5.791  1.1333  0.3460  0.2743
  237MOL0     H32673   5.744   4.105   5.639  0.5762 -2.1448  0.3610
  237MOL0     H32674   5.873   4.235   5.890  2.4087  0.3140 -0.2744
  237MOL0     H32675   5.833   4.323   5.747  0.4133  0.2202  1.1463
  237MOL0     H32676   6.000   4.242   5.635 -0.7011 -1.0866 -0.7521
  237MOL0     H32677   6.025   4.088   5.731  1.6075  0.6133  1.1120
  237MOL0     H32678   6.110   4.376   5.796 -2.0508 -0.7340  0.3726
  237MOL0     H32679   6.085   4.278   5.932  0.3826  2.6642  0.4438
  237MOL0     H32680   6.274   4.119   5.857 -3.1389 -0.5097  0.7729
  237MOL0     H32681   6.312   4.297   5.862 -0.7085  0.6051 -0.3510
  237MOL0     H32682   6.294   4.310   5.627 -0.3835  0.6509  2.0202
  237MOL0     H32683   6.247   4.135   5.620  0.3809 -0.4735  0.2507
  237MOL0     H32684   6.465   4.155   5.552 -1.7701 -0.7522 -0.5579
  237MOL0     H32685   6.473   4.099   5.727  0.4313  0.4856 -0.2512
  237MOL0     H32686   5.505   4.526   5.764  0.0208  0.4347 -0.1450
  237MOL0     H32687   5.250   4.613   5.779 -1.0180 -0.3048  0.3049
  237MOL0     H32688   4.743   4.529   5.641 -0.5905  2.2791 -0.2936
  237MOL0     H32689   4.516   4.587   5.725  1.3129  0.9797 -0.4906
  237MOL0     H32690   2.873   4.114   5.614  0.7181 -1.4330  1.0573
  237MOL0     H32691   2.701   3.929   5.618  2.2247  0.5896  0.0508
  237MOL0     H32692   2.121   3.985   5.722 -0.9409  0.1118  2.8789
  237MOL0     H32693   1.929   3.826   5.744  0.8669 -1.8405  2.4026
  237MOL0     H32694   1.745   3.529   5.723  3.2711 -1.4022  0.2280
  237MOL0     H32695   1.776   3.693   5.752  0.6799 -0.2200 -0.4925
  237MOL0     H32696   1.766   3.756   5.517  0.0997 -1.0784 -2.5145
  237MOL0     H32697   1.614   3.718   5.585  1.1934  3.0006 -0.2498
  237MOL0     H32698   1.639   3.633   5.357 -0.4322  0.3596 -0.8373
  237MOL0     H32699   1.784   3.548   5.409  0.2105  1.9667  0.4753
  237MOL0     H32700   1.495   3.491   5.518 -0.3222 -0.5898 -0.7950
  237MOL0     H32701   1.649   3.401   5.541  1.1048  0.1766  0.5593
  237MOL0     H32702   1.474   3.238   5.198 -0.6015  0.5406 -0.1775
  237MOL0     H32703   2.163   3.524   5.565  0.3336 -0.4090  1.7503
  237MOL0     H32704   2.453   3.669   5.498  0.4226 -2.6008 -0.8679
  237MOL0     H32705   2.489   3.665   5.670 -1.3272 -0.4474 -0.4799
  237MOL0     H32706   2.399   3.531   5.600 -0.4470 -0.3008  1.7618
  238MOL0     O32707   8.888   9.089   4.271 -0.2052 -0.1522 -0.6484
  238MOL0     C32708   8.804   9.054   4.361  0.4353 -0.1915 -0.2629
  238MOL0     O32709   8.836   8.999   4.483 -0.8113 -0.4671 -0.1720
  238MOL0     C32710   8.964   9.023   4.529 -0.2994  0.5685  0.8506
  238MOL0     C32711   9.027   9.145   4.515  0.2133 -0.2398  0.0858
  238MOL0     C32712   9.154   9.156   4.564 -0.3166 -0.3319 -0.1766
  238MOL0     C32713   9.224   9.048   4.614  0.9712  0.0317 -0.1637
  238MOL0     O32714   9.344   9.070   4.670 -0.0120 -0.4728 -0.1718
  238MOL0     C32715   9.364   9.038   4.806 -0.8432  0.3360 -0.2277
  238MOL0     C32716   9.509   9.063   4.840  0.5231 -0.0499 -0.0870
  238MOL0     C32717   9.598   8.964   4.762  0.3079  0.4833 -0.2214
  238MOL0     C32718   9.750   8.984   4.799  0.1224  0.6567 -0.4308
  238MOL0     C32719   9.827   8.897   4.697 -0.4357 -0.1168 -1.5736
  238MOL0     C32720   9.965   8.965   4.680  0.9510  0.2261  0.5457
  238MOL0     C32721  10.057   8.875   4.597 -0.3702  0.7647  0.4605
  238MOL0     C32722  10.194   8.922   4.603 -0.0851  0.4339  0.6276
  238MOL0     N32723  10.264   8.925   4.732 -1.2543  0.5923 -1.0251
  238MOL0     C32724  10.308   8.807   4.800  0.4453 -0.4349 -0.5680
  238MOL0     C32725  10.379   8.859   4.902  0.5529  0.0485 -1.3708
  238MOL0     C32726  10.454   8.773   4.989  0.1000 -0.1665 -0.4772
  238MOL0     C32727  10.573   8.722   4.903 -0.1920 -0.2024 -0.9894
  238MOL0     C32728  10.655   8.607   4.975  0.0441 -1.0492 -0.2214
  238MOL0     C32729  10.779   8.567   4.894 -0.3637  0.0375 -0.5238
  238MOL0     O32730  10.881   8.675   4.900  0.2577  0.3838  0.4299
  238MOL0     C32731  11.008   8.641   4.876 -0.3071  0.0942 -0.5520
  238MOL0     C32732  11.104   8.691   4.960 -0.1039  0.4247  0.9092
  238MOL0     C32733  11.242   8.664   4.945  0.4693 -0.3589 -0.9086
  238MOL0     C32734  11.327   8.726   5.046  0.0554  0.0407 -0.5245
  238MOL0     C32735  11.289   8.583   4.843 -0.3583 -0.3239 -0.1948
  238MOL0     C32736  11.429   8.551   4.808 -0.0737  0.2003  0.5534
  238MOL0     O32737  11.450   8.485   4.689 -0.4826  0.3095  0.2867
  238MOL0     C32738  11.581   8.457   4.651  1.3121  0.3014  0.1097
  238MOL0     C32739  11.675   8.558   4.623 -0.6527  0.0588 -0.1822
  238MOL0     C32740  11.796   8.514   4.559 -0.0066 -0.0527  0.1576
  238MOL0     C32741  11.823   8.383   4.533 -0.0817 -0.1682  0.2573
  238MOL0     O32742  11.945   8.344   4.470 -0.2866  0.4475 -0.0992
  238MOL0     C32743  11.976   8.203   4.444 -0.8621  0.1118 -0.0975
  238MOL0     C32744  12.114   8.204   4.388  0.7121  0.7382 -0.3067
  238MOL0     C32745  12.217   8.213   4.502  0.2913 -0.1827 -0.5367
  238MOL0     C32746  12.368   8.216   4.456  0.3803 -0.2039  0.4478
  238MOL0     C32747  12.430   8.083   4.400 -0.7813  1.2375 -0.1441
  238MOL0     C32748  12.567   8.121   4.332  0.2986 -0.5893  0.6805
  238MOL0     C32749  12.632   8.003   4.256  0.2365 -0.2824 -0.2252
  238MOL0     C32750  12.731   8.047   4.164 -0.0454 -0.2068 -0.3192
  238MOL0    Cl32751  12.780   7.904   4.055  0.0960 -0.1321  0.0680
  238MOL0     C32752  11.721   8.288   4.564  1.1812  0.3761 -0.4351
  238MOL0     C32753  11.606   8.325   4.620  0.6888 -0.4129  0.1795
  238MOL0     O32754  11.519   8.578   4.889 -0.3745  0.5483 -0.1233
  238MOL0     C32755  11.192   8.542   4.748 -0.3766  0.4531 -0.2447
  238MOL0     C32756  11.053   8.557   4.770 -0.3711  0.0214 -0.2321
  238MOL0     N32757  10.397   8.999   4.892  0.6505  0.1414 -1.0708
  238MOL0     N32758  10.325   9.029   4.792  0.4524 -0.2944  0.0151
  238MOL0     C32759   9.166   8.919   4.620  0.5951 -0.3383 -0.1869
  238MOL0     C32760   9.036   8.907   4.569  0.0822 -0.1853  0.5460
  238MOL0     C32761   8.657   9.056   4.335  0.2580  0.7899 -0.7059
  238MOL0     C32762   8.578   8.980   4.421  0.6759  0.6921  0.2073
  238MOL0     C32763   8.444   8.975   4.395  0.4825 -0.2039  0.3665
  238MOL0     C32764   8.373   9.053   4.302 -0.1808 -0.5887  0.1079
  238MOL0     O32765   8.240   9.047   4.278  1.0495 -0.2347 -0.4755
  238MOL0     C32766   8.157   9.034   4.388  0.0888 -0.2175 -1.1688
  238MOL0     C32767   8.013   9.069   4.350  0.1875 -0.0150 -0.0401
  238MOL0     C32768   7.955   8.952   4.259  0.4968 -0.3660  0.1107
  238MOL0     C32769   7.817   8.910   4.288  0.6645 -0.2379  0.0756
  238MOL0     C32770   7.762   8.807   4.198  0.2429  0.3441 -0.8548
  238MOL0     C32771   7.701   8.741   4.109 -0.4502  0.6290 -0.5461
  238MOL0     C32772   8.442   9.150   4.228  0.4185 -0.0770 -0.4736
  238MOL0     C32773   8.584   9.144   4.249  0.2841  0.0605 -0.3493
  238MOL0     C32774   8.659   9.242   4.172 -0.5833  0.6650 -0.0588
  238MOL0     H32775   8.974   9.231   4.474  1.1120  0.3736  0.1657
  238MOL0     H32776   9.198   9.254   4.572 -1.4484  0.1006  1.2875
  238MOL0     H32777   9.348   8.930   4.817  1.5391 -0.2091 -1.4015
  238MOL0     H32778   9.302   9.102   4.869 -0.6007  1.4759 -1.1305
  238MOL0     H32779   9.534   9.165   4.810  0.4990 -0.6992 -2.5470
  238MOL0     H32780   9.516   9.047   4.948 -1.7349 -0.9258 -0.0070
  238MOL0     H32781   9.562   8.864   4.787  0.2367  1.3192  3.5508
  238MOL0     H32782   9.590   8.996   4.657 -2.1948  0.9179  0.0421
  238MOL0     H32783   9.770   9.091   4.790  0.0430  0.6435 -0.7852
  238MOL0     H32784   9.770   8.956   4.903  0.2007 -1.6479 -1.0129
  238MOL0     H32785   9.780   8.884   4.599 -1.2144 -1.7555 -1.0210
  238MOL0     H32786   9.850   8.797   4.734  1.7832  1.4389  1.7024
  238MOL0     H32787   9.954   9.065   4.636 -1.6931 -0.7432 -1.2226
  238MOL0     H32788  10.005   8.978   4.781 -2.1718 -0.7290  2.0572
  238MOL0     H32789  10.020   8.873   4.494 -2.2119 -3.6100  0.9483
  238MOL0     H32790  10.051   8.772   4.635 -0.9775  0.4476 -0.4444
  238MOL0     H32791  10.256   8.858   4.538 -2.7060  1.3438 -3.1118
  238MOL0     H32792  10.196   9.024   4.565  3.3619  0.8527  1.5845
  238MOL0     H32793  10.288   8.703   4.780 -1.9629 -0.7961  2.8727
  238MOL0     H32794  10.396   8.686   5.023  1.9488 -0.5300  1.9891
  238MOL0     H32795  10.478   8.832   5.077 -1.2198 -0.9318  0.4303
  238MOL0     H32796  10.535   8.694   4.804  2.6996 -0.8767 -1.9928
  238MOL0     H32797  10.635   8.809   4.882 -1.6091  0.8254 -1.0834
  238MOL0     H32798  10.693   8.642   5.072  0.5644  0.4755 -0.9496
  238MOL0     H32799  10.599   8.516   4.997 -1.0808  0.3329  3.3011
  238MOL0     H32800  10.825   8.477   4.937 -0.5616  0.0789 -0.2208
  238MOL0     H32801  10.751   8.542   4.791 -1.5921  0.1048 -0.2186
  238MOL0     H32802  11.066   8.753   5.040 -1.6346 -0.7934  1.1692
  238MOL0     H32803  11.390   8.653   5.100  0.3583 -0.4724 -1.5443
  238MOL0     H32804  11.276   8.786   5.122  0.8626 -1.0907  0.9736
  238MOL0     H32805  11.398   8.792   4.995  2.3581 -1.3004  0.7243
  238MOL0     H32806  11.646   8.657   4.655  1.5633 -0.4121  3.9347
  238MOL0     H32807  11.873   8.589   4.541 -2.4056  3.0013  1.6627
  238MOL0     H32808  11.976   8.142   4.535  0.0177 -2.2799 -1.6293
  238MOL0     H32809  11.916   8.155   4.367  0.4937 -1.8119 -0.0211
  238MOL0     H32810  12.144   8.122   4.322  0.1917  0.9967 -0.8678
  238MOL0     H32811  12.120   8.295   4.329  1.6731  1.9540  1.5804
  238MOL0     H32812  12.215   8.121   4.561 -1.1593  2.2714  3.6669
  238MOL0     H32813  12.183   8.284   4.578 -0.0832  0.4020 -1.2443
  238MOL0     H32814  12.432   8.236   4.542  0.4094  3.1181 -0.1853
  238MOL0     H32815  12.386   8.292   4.379  1.5283 -2.6146 -1.8236
  238MOL0     H32816  12.452   8.002   4.470  1.0762  0.9266 -1.0220
  238MOL0     H32817  12.362   8.043   4.324  0.4526  0.7689 -1.0333
  238MOL0     H32818  12.630   8.148   4.417 -0.1297 -0.4002  0.9425
  238MOL0     H32819  12.545   8.209   4.270  1.1212  1.1140  2.6608
  238MOL0     H32820  12.560   7.957   4.188  0.5831 -0.4796 -0.4615
  238MOL0     H32821  12.681   7.940   4.331 -2.6113 -1.9056  0.4001
  238MOL0     H32822  12.816   8.092   4.216 -0.1826 -0.4478  0.1272
  238MOL0     H32823  12.692   8.123   4.096  0.1151 -0.4343 -0.6641
  238MOL0     H32824  11.742   8.183   4.546 -1.9332 -0.3816 -0.1498
  238MOL0     H32825  11.532   8.248   4.640  0.6753 -0.3121  0.5171
  238MOL0     H32826  11.232   8.489   4.663 -1.1504 -2.6340  1.1591
  238MOL0     H32827  10.981   8.512   4.703 -0.0303  0.6805 -1.0553
  238MOL0     H32828   9.220   8.842   4.673  2.3640  2.4922  2.4642
  238MOL0     H32829   8.993   8.809   4.583  1.5135 -0.7345  1.2072
  238MOL0     H32830   8.622   8.899   4.478 -0.4409 -1.3552 -1.6779
  238MOL0     H32831   8.383   8.909   4.455 -0.8751  0.0929 -0.6427
  238MOL0     H32832   8.158   8.935   4.435 -1.3693  0.6513  0.8455
  238MOL0     H32833   8.187   9.112   4.460  0.9345  0.4490 -2.2121
  238MOL0     H32834   8.009   9.171   4.309 -1.2891  0.5584  1.4515
  238MOL0     H32835   7.959   9.078   4.445  2.9826 -1.3452  1.7940
  238MOL0     H32836   7.967   8.978   4.153  1.2548 -2.1141 -0.2707
  238MOL0     H32837   8.016   8.862   4.275 -0.6526 -1.2421 -0.2730
  238MOL0     H32838   7.750   8.996   4.282  1.9393  0.8326  0.7775
  238MOL0     H32839   7.816   8.876   4.392 -0.0027 -1.2112 -0.2285
  238MOL0     H32840   7.659   8.677   4.034 -0.0349 -0.3626  0.0337
  238MOL0     H32841   8.391   9.208   4.152 -2.5366 -1.8427 -0.0025
  238MOL0     H32842   8.595   9.308   4.113 -1.0275  0.6368  0.3863
  238MOL0     H32843   8.723   9.302   4.237 -1.2171  1.8254 -0.4799
  238MOL0     H32844   8.719   9.182   4.103  0.6772 -1.6730  2.8652
  239MOL0     O32845   7.394   6.855   6.175  0.2038 -0.2992 -0.1421
  239MOL0     C32846   7.439   6.948   6.246 -0.3634 -0.1422  0.5775
  239MOL0     O32847   7.366   7.057   6.284  0.4511  0.2020 -0.2313
  239MOL0     C32848   7.240   7.074   6.229  1.0407  0.0530  0.0441
  239MOL0     C32849   7.212   7.178   6.141 -0.1298  0.1562  0.7104
  239MOL0     C32850   7.081   7.199   6.097  0.2353  0.1035 -0.1543
  239MOL0     C32851   6.974   7.119   6.135  0.6192  0.2739 -0.1772
  239MOL0     O32852   6.842   7.120   6.100  0.3327  0.0120 -0.1290
  239MOL0     C32853   6.811   7.207   5.992 -1.4054 -0.7682 -0.7326
  239MOL0     C32854   6.663   7.194   5.957 -0.0441  0.5404 -0.0417
  239MOL0     C32855   6.619   7.268   5.833 -0.0073  0.2321 -0.4579
  239MOL0     C32856   6.470   7.261   5.816 -0.0729 -0.6596 -0.0274
  239MOL0     C32857   6.431   7.291   5.666 -0.3892  0.3254  0.5180
  239MOL0     C32858   6.280   7.265   5.645  0.1025 -0.8042  0.1778
  239MOL0     C32859   6.234   7.272   5.497 -0.2035 -0.7988  0.8136
  239MOL0     C32860   6.087   7.249   5.484  0.0245  0.2856  0.6824
  239MOL0     N32861   6.041   7.258   5.341  0.4454 -0.0188  0.2234
  239MOL0     C32862   5.978   7.371   5.297  0.5937 -0.7299  0.6442
  239MOL0     C32863   5.950   7.347   5.164 -0.3256 -0.3197  0.2956
  239MOL0     C32864   5.890   7.447   5.076  0.8138 -0.8700  0.3300
  239MOL0     C32865   5.747   7.425   5.052  0.5959 -1.2488 -0.3527
  239MOL0     C32866   5.646   7.479   5.149 -0.6886  0.1477  0.3665
  239MOL0     C32867   5.505   7.465   5.102  0.0864  0.0556  0.6598
  239MOL0     O32868   5.459   7.569   5.017  0.3801 -0.1537  0.3167
  239MOL0     C32869   5.330   7.539   4.976  1.3728 -0.0003  0.7365
  239MOL0     C32870   5.280   7.636   4.897 -0.5700  0.1485  0.0232
  239MOL0     C32871   5.149   7.634   4.843  0.0574  0.2161 -0.2927
  239MOL0     C32872   5.123   7.740   4.743  0.1703  0.5306 -0.5928
  239MOL0     C32873   5.059   7.529   4.866 -0.6811 -0.1319 -0.7287
  239MOL0     C32874   4.925   7.511   4.788  0.6679  0.1279 -0.9700
  239MOL0     O32875   4.875   7.616   4.711 -0.0662 -0.7894  0.0612
  239MOL0     C32876   4.739   7.641   4.712  0.4409 -0.0324 -0.2558
  239MOL0     C32877   4.685   7.701   4.603  0.1495 -0.1941 -0.0147
  239MOL0     C32878   4.551   7.749   4.583 -0.1984  0.2731 -0.5338
  239MOL0     C32879   4.459   7.717   4.682  0.8544  0.2657  0.2041
  239MOL0     O32880   4.323   7.742   4.652 -0.0994 -0.3991  0.8987
  239MOL0     C32881   4.226   7.721   4.755 -0.2296 -0.8631 -0.5715
  239MOL0     C32882   4.087   7.778   4.728 -0.2981 -0.2398 -0.5205
  239MOL0     C32883   3.975   7.702   4.815 -0.5613 -0.0744  0.4203
  239MOL0     C32884   3.977   7.775   4.945  0.2609 -0.0699 -0.4743
  239MOL0     C32885   3.889   7.699   5.051 -1.6532 -0.2286  0.2248
  239MOL0     C32886   3.908   7.756   5.194 -0.1014 -0.2354  0.6956
  239MOL0     C32887   3.830   7.654   5.285  0.2909  0.5180 -0.6970
  239MOL0     C32888   3.847   7.677   5.435 -0.8666  0.4411  0.0085
  239MOL0    Cl32889   4.024   7.725   5.482 -0.0735 -0.1982 -0.0771
  239MOL0     C32890   4.506   7.650   4.796  0.3975 -0.0191 -0.8761
  239MOL0     C32891   4.642   7.615   4.811  0.2008 -0.1065 -0.3587
  239MOL0     O32892   4.862   7.412   4.816  0.5056  0.2422  0.0483
  239MOL0     C32893   5.117   7.424   4.947 -0.4053  0.4342 -0.8174
  239MOL0     C32894   5.248   7.436   5.005  0.4687  0.3506  0.3114
  239MOL0     N32895   5.995   7.219   5.141  0.0835 -0.4568  0.0409
  239MOL0     N32896   6.044   7.164   5.242 -0.3489  0.6647 -0.2582
  239MOL0     C32897   7.001   7.019   6.223  0.5099  0.0911 -0.0550
  239MOL0     C32898   7.137   6.988   6.262  0.6379 -0.3198 -0.4195
  239MOL0     C32899   7.573   6.961   6.262  0.0046  0.2544  0.8962
  239MOL0     C32900   7.633   7.074   6.200  0.5253 -0.1228 -0.3712
  239MOL0     C32901   7.774   7.085   6.197 -0.5972  0.1736  0.5186
  239MOL0     C32902   7.853   6.993   6.262 -0.7116 -0.3804 -0.0096
  239MOL0     O32903   7.987   7.013   6.275 -0.4157  0.0172 -0.1497
  239MOL0     C32904   8.059   6.964   6.395 -0.5055  0.0756  0.1330
  239MOL0     C32905   8.192   7.041   6.410  0.2336 -0.1567  0.1257
  239MOL0     C32906   8.189   7.192   6.367  0.3247 -0.7896  0.3105
  239MOL0     C32907   8.109   7.281   6.473 -0.1910  0.1873 -0.4697
  239MOL0     C32908   7.971   7.310   6.420  0.0020 -0.2494 -0.1928
  239MOL0     C32909   7.851   7.323   6.384 -0.2358 -0.0285  0.0274
  239MOL0     C32910   7.792   6.878   6.309  0.7061 -0.0794 -0.2911
  239MOL0     C32911   7.654   6.857   6.319 -0.2027 -0.0499  0.8393
  239MOL0     C32912   7.595   6.726   6.365 -0.5595  0.3395  0.7568
  239MOL0     H32913   7.289   7.240   6.096 -0.5912 -0.8315 -1.5436
  239MOL0     H32914   7.080   7.284   6.029  0.9364  0.7840  0.6630
  239MOL0     H32915   6.866   7.175   5.902  1.0485 -1.5448  0.9439
  239MOL0     H32916   6.835   7.308   6.027 -0.5156 -1.1376 -0.2474
  239MOL0     H32917   6.643   7.089   5.938 -0.3372  0.5857  0.0141
  239MOL0     H32918   6.600   7.222   6.043 -3.9861  0.3794 -2.6140
  239MOL0     H32919   6.656   7.371   5.832  0.9487 -0.0513 -2.8903
  239MOL0     H32920   6.665   7.219   5.747  0.4198 -0.8465  0.3634
  239MOL0     H32921   6.441   7.158   5.839 -0.6157 -0.4914  0.0596
  239MOL0     H32922   6.419   7.341   5.871 -0.5080 -1.1144  0.2463
  239MOL0     H32923   6.497   7.226   5.608  0.5810  0.9177  0.9498
  239MOL0     H32924   6.442   7.395   5.636  3.8271 -0.5531 -1.7344
  239MOL0     H32925   6.259   7.167   5.689  0.0618  0.3755  3.0642
  239MOL0     H32926   6.234   7.343   5.707  1.4122  0.3871 -0.3060
  239MOL0     H32927   6.291   7.198   5.441  2.9655  1.9610  0.0413
  239MOL0     H32928   6.264   7.372   5.465  0.0711 -0.4808  1.9949
  239MOL0     H32929   6.073   7.149   5.526 -3.3079  0.7925  1.0783
  239MOL0     H32930   6.032   7.317   5.550 -0.4664 -0.3510  0.9422
  239MOL0     H32931   5.968   7.470   5.340 -0.6370 -0.7984  0.5295
  239MOL0     H32932   5.949   7.455   4.984 -0.9058 -1.8244 -0.8989
  239MOL0     H32933   5.901   7.543   5.128 -1.9390 -1.5303  2.3444
  239MOL0     H32934   5.734   7.454   4.947  3.2307  1.2648 -0.1247
  239MOL0     H32935   5.733   7.317   5.056 -0.5172 -1.3557 -3.8674
  239MOL0     H32936   5.649   7.421   5.242 -2.6292 -1.2254 -0.3487
  239MOL0     H32937   5.670   7.582   5.177  3.1958 -0.4026 -0.3098
  239MOL0     H32938   5.511   7.369   5.050 -1.2715 -1.2858  2.8661
  239MOL0     H32939   5.449   7.453   5.195  1.4693 -0.0459  1.5159
  239MOL0     H32940   5.351   7.712   4.868 -1.7643  0.6943 -1.6710
  239MOL0     H32941   5.043   7.807   4.776 -0.0088  0.2259 -0.4012
  239MOL0     H32942   5.100   7.687   4.651  0.0226 -0.5228  0.0334
  239MOL0     H32943   5.210   7.806   4.738  0.2243  0.5286  0.2099
  239MOL0     H32944   4.750   7.709   4.516 -2.9213 -0.1968 -2.4891
  239MOL0     H32945   4.527   7.792   4.486  0.8864  3.8980  0.6460
  239MOL0     H32946   4.225   7.612   4.768  0.8959 -0.8748 -0.4886
  239MOL0     H32947   4.263   7.756   4.851 -1.1498 -0.1828 -0.4413
  239MOL0     H32948   4.076   7.885   4.745 -2.9628 -0.0380 -2.7635
  239MOL0     H32949   4.065   7.766   4.622  0.8278  2.2097 -1.0853
  239MOL0     H32950   3.999   7.596   4.824  2.2296 -0.0453 -3.6924
  239MOL0     H32951   3.875   7.715   4.775 -0.9511 -2.6203  0.4336
  239MOL0     H32952   3.930   7.873   4.933  0.7706  0.3960  1.1622
  239MOL0     H32953   4.076   7.797   4.987 -0.4031  2.6398 -0.1202
  239MOL0     H32954   3.783   7.704   5.024 -1.8902  0.7952  1.3048
  239MOL0     H32955   3.930   7.598   5.057  1.6514  0.7709 -2.4751
  239MOL0     H32956   3.869   7.858   5.203  0.6855  0.4116 -2.2079
  239MOL0     H32957   4.013   7.767   5.219 -0.3943  1.3789  1.3329
  239MOL0     H32958   3.869   7.555   5.260 -1.2198 -0.4838  0.7155
  239MOL0     H32959   3.723   7.662   5.266  0.1239  0.2293  0.0708
  239MOL0     H32960   3.812   7.582   5.476  1.8977 -0.1911  1.0880
  239MOL0     H32961   3.775   7.754   5.465 -2.8969 -0.4268 -2.3321
  239MOL0     H32962   4.438   7.628   4.878  2.0716 -3.8180 -0.3152
  239MOL0     H32963   4.650   7.567   4.908  0.9373  0.1955 -0.2633
  239MOL0     H32964   5.068   7.328   4.957  1.9230 -0.9984 -2.2681
  239MOL0     H32965   5.291   7.352   5.060 -0.9451  0.1848  1.2231
  239MOL0     H32966   6.926   6.943   6.242  0.0392 -0.4654 -3.5004
  239MOL0     H32967   7.163   6.906   6.329  2.5375  1.2411  0.8682
  239MOL0     H32968   7.577   7.155   6.154  1.8483  2.6473  2.5230
  239MOL0     H32969   7.825   7.163   6.141 -0.5291 -2.0156 -2.7696
  239MOL0     H32970   7.998   6.979   6.485  0.6863  1.5636  0.7419
  239MOL0     H32971   8.092   6.860   6.384  3.4566  1.3736 -2.4991
  239MOL0     H32972   8.261   6.986   6.344 -2.3990 -3.6113 -0.0514
  239MOL0     H32973   8.230   7.037   6.512  0.6565  1.6423  0.0729
  239MOL0     H32974   8.291   7.229   6.352  0.3517 -0.4634  1.2936
  239MOL0     H32975   8.135   7.193   6.272  0.8403 -0.4197  0.0156
  239MOL0     H32976   8.168   7.371   6.491  1.9467 -0.7543 -2.3716
  239MOL0     H32977   8.092   7.230   6.568 -0.5284  1.0659 -0.0390
  239MOL0     H32978   7.749   7.346   6.361 -1.0322 -0.1272  2.9713
  239MOL0     H32979   7.855   6.812   6.368  0.4901 -0.1764 -0.1669
  239MOL0     H32980   7.486   6.724   6.357 -0.4163  0.9636 -2.1439
  239MOL0     H32981   7.642   6.645   6.309 -0.4691 -0.6743  2.2474
  239MOL0     H32982   7.630   6.712   6.468  2.1718 -1.1003 -0.2518
  240MOL0     O32983   9.668   5.029   8.439 -0.2318 -0.1145  0.6137
  240MOL0     C32984   9.594   5.020   8.533 -0.0142 -1.1573  1.2134
  240MOL0     O32985   9.620   5.057   8.657 -0.3108 -0.0475 -0.1865
  240MOL0     C32986   9.755   5.089   8.687  0.0231  0.5230  0.0176
  240MOL0     C32987   9.791   5.222   8.693 -0.4407 -0.2771  0.5622
  240MOL0     C32988   9.926   5.257   8.668 -0.1680 -0.7353  0.1669
  240MOL0     C32989  10.028   5.155   8.672  0.9203 -0.0005  1.0123
  240MOL0     O32990  10.163   5.168   8.674 -0.5059 -1.1887  0.1998
  240MOL0     C32991  10.233   5.301   8.685  0.8027  0.3861  0.9231
  240MOL0     C32992  10.368   5.301   8.757  0.9369  0.3750 -0.1716
  240MOL0     C32993  10.354   5.299   8.912 -0.4631 -0.1023 -0.8334
  240MOL0     C32994  10.401   5.160   8.969 -0.9758 -0.6457 -0.1228
  240MOL0     C32995  10.546   5.128   8.951 -0.7416  0.7842 -0.1083
  240MOL0     C32996  10.589   4.996   9.032 -0.5684  1.0046 -0.7199
  240MOL0     C32997  10.523   4.866   8.989  0.1375 -0.1534  0.2837
  240MOL0     C32998  10.525   4.753   9.088 -0.4565  0.3673  0.1502
  240MOL0     N32999  10.662   4.696   9.092  0.1829 -0.0531  0.0918
  240MOL0     C33000  10.737   4.641   8.987  0.0022 -0.0236 -0.8414
  240MOL0     C33001  10.847   4.583   9.052  1.3314  0.5282  0.3828
  240MOL0     C33002  10.966   4.521   8.989  0.6076  0.7626  0.4237
  240MOL0     C33003  10.999   4.378   9.038 -0.4739 -0.1656 -0.1160
  240MOL0     C33004  11.115   4.319   8.967 -0.0022 -0.1462 -0.2213
  240MOL0     C33005  11.153   4.169   8.998 -0.1951  0.0065  0.3887
  240MOL0     O33006  11.245   4.120   8.899  1.0408  0.0103  0.6261
  240MOL0     C33007  11.372   4.143   8.937  0.3744 -0.0400  0.0963
  240MOL0     C33008  11.440   4.264   8.913 -0.3157  0.6025  0.0867
  240MOL0     C33009  11.573   4.273   8.944 -0.6618 -0.5772  0.0525
  240MOL0     C33010  11.634   4.405   8.905 -0.9077  0.7770 -0.6754
  240MOL0     C33011  11.647   4.158   8.990  0.0541 -0.2298 -0.0654
  240MOL0     C33012  11.795   4.153   9.009  0.2467  0.1595 -0.0806
  240MOL0     O33013  11.851   4.069   9.109 -0.2641  0.6160  0.1414
  240MOL0     C33014  11.988   4.064   9.107  0.5759 -0.1675 -0.3492
  240MOL0     C33015  12.057   4.151   9.191 -0.4500 -0.5919  0.2179
  240MOL0     C33016  12.197   4.141   9.196 -0.1388  0.1345  0.3404
  240MOL0     C33017  12.266   4.061   9.108  0.1050 -0.4255 -0.3186
  240MOL0     O33018  12.408   4.059   9.109  0.3894 -0.0353 -0.2206
  240MOL0     C33019  12.476   4.018   8.993 -0.8534 -1.1979  0.7418
  240MOL0     C33020  12.537   3.882   8.994 -0.0238  0.1689  0.1222
  240MOL0     C33021  12.614   3.869   8.866  0.3612 -0.7777  1.3571
  240MOL0     C33022  12.691   3.735   8.872 -0.2423 -0.1534 -0.4669
  240MOL0     C33023  12.720   3.694   8.734 -0.5468 -0.7331  0.0189
  240MOL0     C33024  12.591   3.613   8.681  0.7292  0.1506 -0.3204
  240MOL0     C33025  12.624   3.530   8.559 -0.0265 -0.3304  0.0493
  240MOL0     C33026  12.705   3.407   8.584  0.4200  0.0662 -0.4488
  240MOL0    Cl33027  12.658   3.284   8.463  0.4410  0.0974 -0.3560
  240MOL0     C33028  12.196   3.969   9.023 -0.3898  0.1791  0.5265
  240MOL0     C33029  12.054   3.975   9.015  0.2901  0.5215  0.4242
  240MOL0     O33030  11.864   4.224   8.938 -0.2943  0.4599  1.2239
  240MOL0     C33031  11.573   4.045   9.015 -0.1766  0.4234 -0.5861
  240MOL0     C33032  11.440   4.037   8.996  0.4589  0.7593  0.0387
  240MOL0     N33033  10.831   4.609   9.188  0.3027  0.1204 -0.3841
  240MOL0     N33034  10.721   4.672   9.209 -0.4293  0.2516  0.5939
  240MOL0     C33035   9.992   5.022   8.681 -0.1261  0.3485  0.3570
  240MOL0     C33036   9.857   4.988   8.685 -0.7116  0.3313  0.3480
  240MOL0     C33037   9.455   4.985   8.510 -0.2677  0.2001  0.5310
  240MOL0     C33038   9.354   5.054   8.570 -0.4908 -0.2177 -1.4520
  240MOL0     C33039   9.222   5.022   8.542  0.0516 -0.2646  0.5017
  240MOL0     C33040   9.179   4.925   8.455 -0.2968  0.2648  0.9539
  240MOL0     O33041   9.047   4.900   8.424  0.7945  0.1644  0.0499
  240MOL0     C33042   8.948   4.966   8.512  0.3671  0.6509  0.3464
  240MOL0     C33043   8.822   4.878   8.507 -0.4579 -0.0620  0.7913
  240MOL0     C33044   8.690   4.953   8.528 -0.9551 -0.3393  0.7218
  240MOL0     C33045   8.567   4.870   8.499  1.4363  0.4509 -0.3209
  240MOL0     C33046   8.568   4.826   8.362  1.1812 -0.5975  0.1413
  240MOL0     C33047   8.572   4.810   8.243 -0.7696 -0.4636 -0.1006
  240MOL0     C33048   9.278   4.860   8.386 -0.8274 -0.9865  0.0830
  240MOL0     C33049   9.414   4.893   8.407 -0.2063  0.1584 -0.0666
  240MOL0     C33050   9.506   4.835   8.304 -0.6690 -0.1828  0.7007
  240MOL0     H33051   9.714   5.298   8.701  0.5537  0.5269  3.9256
  240MOL0     H33052   9.946   5.363   8.660 -1.1271 -0.3072  2.5212
  240MOL0     H33053  10.162   5.363   8.741 -3.6410 -1.4944 -2.0020
  240MOL0     H33054  10.236   5.343   8.584 -4.8645 -1.6752 -0.5287
  240MOL0     H33055  10.421   5.215   8.716 -3.1188 -1.0372 -3.0542
  240MOL0     H33056  10.414   5.396   8.729  3.6523 -0.4719  1.0743
  240MOL0     H33057  10.414   5.382   8.952  0.7434 -0.2877 -2.1677
  240MOL0     H33058  10.255   5.314   8.954 -0.4651 -0.9232 -0.5311
  240MOL0     H33059  10.373   5.146   9.074 -2.1336 -2.8108 -0.6476
  240MOL0     H33060  10.343   5.084   8.916  1.3423 -3.0720  0.6353
  240MOL0     H33061  10.605   5.216   8.977  0.9969 -0.8653  2.0168
  240MOL0     H33062  10.556   5.113   8.843  1.1093 -2.2370  0.3540
  240MOL0     H33063  10.697   4.987   9.037 -0.6303  0.6955  0.3066
  240MOL0     H33064  10.573   5.016   9.139 -1.8704  0.7635 -0.8478
  240MOL0     H33065  10.564   4.825   8.897 -1.2271  0.3213 -0.5599
  240MOL0     H33066  10.418   4.890   8.969  0.0730 -0.9695 -0.3935
  240MOL0     H33067  10.500   4.783   9.190  0.8732 -1.1911  0.9779
  240MOL0     H33068  10.452   4.674   9.066  0.0338  0.0012 -0.1778
  240MOL0     H33069  10.724   4.650   8.879 -1.9887  0.5266 -0.6105
  240MOL0     H33070  11.047   4.592   9.010  0.2669  2.1966 -2.5605
  240MOL0     H33071  10.955   4.525   8.880  1.3812  0.1504  0.3216
  240MOL0     H33072  11.026   4.391   9.143 -0.8371  0.1526 -0.0579
  240MOL0     H33073  10.908   4.318   9.030 -0.8622  0.2862  0.7927
  240MOL0     H33074  11.093   4.321   8.860  0.8925 -0.2334 -0.4133
  240MOL0     H33075  11.199   4.384   8.990 -1.5431  1.1178  2.1810
  240MOL0     H33076  11.203   4.166   9.095 -2.9112  3.2856  2.1150
  240MOL0     H33077  11.072   4.096   8.996 -0.1063 -0.0936 -1.2681
  240MOL0     H33078  11.385   4.350   8.876 -2.2482 -0.0876  1.2012
  240MOL0     H33079  11.661   4.408   8.799 -0.6778  1.4319 -0.6048
  240MOL0     H33080  11.723   4.423   8.967  0.3649 -0.3267 -2.1002
  240MOL0     H33081  11.567   4.489   8.922  0.2915  2.0350 -1.8971
  240MOL0     H33082  11.993   4.220   9.246 -1.3561 -1.5145  0.3347
  240MOL0     H33083  12.254   4.205   9.262  0.5385 -0.7421  0.6352
  240MOL0     H33084  12.418   4.031   8.901 -2.8310  1.4819  2.2369
  240MOL0     H33085  12.552   4.097   8.985 -1.3106 -0.7288  0.9822
  240MOL0     H33086  12.605   3.879   9.079  0.2474 -1.8610 -0.1357
  240MOL0     H33087  12.459   3.805   8.995 -1.0777  1.1465 -1.3048
  240MOL0     H33088  12.689   3.948   8.853 -1.2303  0.7779  1.1943
  240MOL0     H33089  12.543   3.874   8.783  0.8525 -0.6957  0.9374
  240MOL0     H33090  12.638   3.660   8.931  1.3256 -0.4203  0.6851
  240MOL0     H33091  12.785   3.750   8.927 -0.1123 -0.3660 -0.6300
  240MOL0     H33092  12.748   3.774   8.665 -0.8582 -1.3880 -0.8823
  240MOL0     H33093  12.792   3.611   8.740 -2.8361 -2.9073 -0.8705
  240MOL0     H33094  12.510   3.685   8.671  1.9556  1.3439 -2.5685
  240MOL0     H33095  12.566   3.543   8.760  3.0408 -1.2439 -0.7297
  240MOL0     H33096  12.676   3.583   8.480  1.8665 -2.6806 -0.3815
  240MOL0     H33097  12.526   3.497   8.524  0.4578  0.4041 -2.1089
  240MOL0     H33098  12.690   3.364   8.684 -0.7330 -0.4581 -0.8242
  240MOL0     H33099  12.810   3.432   8.571  1.2535 -2.1991  1.2164
  240MOL0     H33100  12.251   3.895   8.965 -3.8889 -1.1954 -1.3619
  240MOL0     H33101  12.003   3.915   8.941 -0.4596  0.6170  0.8563
  240MOL0     H33102  11.628   3.956   9.044 -0.9786 -0.1462 -0.7953
  240MOL0     H33103  11.391   3.944   9.022 -1.0197  1.2832 -0.7568
  240MOL0     H33104  10.062   4.940   8.694  0.5604  1.2012  2.6557
  240MOL0     H33105   9.823   4.885   8.686 -0.4885  0.2098 -1.1713
  240MOL0     H33106   9.380   5.137   8.635 -0.9217  0.2239 -1.8359
  240MOL0     H33107   9.167   5.076   8.618 -0.1885 -0.3923  0.4199
  240MOL0     H33108   8.986   4.966   8.614 -1.7455  0.8776  1.1863
  240MOL0     H33109   8.935   5.072   8.485  0.2520  0.5192 -0.1258
  240MOL0     H33110   8.824   4.803   8.587 -1.9602  0.3757  1.2618
  240MOL0     H33111   8.826   4.825   8.412  1.0077 -1.5257  1.6072
  240MOL0     H33112   8.699   4.992   8.630  0.5681 -0.3690  0.6224
  240MOL0     H33113   8.686   5.038   8.459  1.8363 -1.6024 -1.1635
  240MOL0     H33114   8.476   4.915   8.539  0.6881 -0.3921 -1.0406
  240MOL0     H33115   8.584   4.781   8.561  0.1045 -0.3981 -1.1428
  240MOL0     H33116   8.581   4.806   8.136  1.9671 -1.9121  0.1001
  240MOL0     H33117   9.256   4.790   8.306 -0.3906 -0.0048 -0.9241
  240MOL0     H33118   9.529   4.916   8.234  0.1070 -0.2236  0.8972
  240MOL0     H33119   9.593   4.803   8.363 -1.4571 -1.8655  0.9980
  240MOL0     H33120   9.454   4.760   8.244 -1.6368  3.1189 -2.9879
  241MOL0     O33121   8.292   4.243   7.376 -0.6203  0.1162 -0.4527
  241MOL0     C33122   8.294   4.282   7.487  0.4912  0.3474 -0.1238
  241MOL0     O33123   8.403   4.334   7.554  0.7132 -0.0969 -0.1608
  241MOL0     C33124   8.524   4.352   7.493  0.1163  0.0256 -0.1221
  241MOL0     C33125   8.566   4.477   7.512  0.7597 -0.0411  0.1971
  241MOL0     C33126   8.701   4.507   7.477 -0.0230 -0.3777 -0.3198
  241MOL0     C33127   8.784   4.408   7.412  0.4026 -0.6278  0.6756
  241MOL0     O33128   8.916   4.443   7.394  0.3421 -0.0420 -1.0610
  241MOL0     C33129   9.011   4.337   7.384  0.0524  0.5784 -0.0091
  241MOL0     C33130   9.016   4.253   7.513 -0.7756  0.4058  0.1826
  241MOL0     C33131   9.078   4.323   7.631 -0.4346  0.6564  0.5156
  241MOL0     C33132   9.232   4.351   7.615  0.2333  0.4814 -0.7414
  241MOL0     C33133   9.287   4.412   7.753  0.9105  0.4153 -0.2083
  241MOL0     C33134   9.431   4.465   7.740 -0.9378  1.0178 -0.1476
  241MOL0     C33135   9.534   4.357   7.702 -0.3980 -0.4064 -0.7748
  241MOL0     C33136   9.684   4.400   7.705 -0.4811 -0.5226 -0.2883
  241MOL0     N33137   9.736   4.399   7.845  0.1502  0.3488  0.0455
  241MOL0     C33138   9.737   4.506   7.930  0.2895 -0.3861 -0.1890
  241MOL0     C33139   9.773   4.470   8.054 -0.7454  0.4805 -0.3373
  241MOL0     C33140   9.780   4.548   8.189  0.5254  0.0717  0.6668
  241MOL0     C33141   9.870   4.671   8.189  0.6448 -0.9315 -0.0606
  241MOL0     C33142   9.890   4.730   8.335  0.4633  0.2991 -0.2454
  241MOL0     C33143   9.945   4.874   8.332  0.3060 -0.1057 -0.9430
  241MOL0     O33144  10.063   4.868   8.264 -0.1668 -1.0816 -0.0722
  241MOL0     C33145  10.137   4.986   8.245 -0.5850  0.4711 -0.7479
  241MOL0     C33146  10.263   4.983   8.183  1.0793 -0.6024  0.2965
  241MOL0     C33147  10.339   5.090   8.153  0.4618  0.7188 -0.0835
  241MOL0     C33148  10.484   5.059   8.126 -0.4687 -0.3226 -0.2058
  241MOL0     C33149  10.292   5.218   8.198  0.1712 -0.0748 -0.2992
  241MOL0     C33150  10.370   5.339   8.189 -0.1295 -0.9603 -0.3521
  241MOL0     O33151  10.400   5.401   8.062 -0.4284  0.3268 -0.9281
  241MOL0     C33152  10.312   5.376   7.970 -0.5475  0.3000 -0.4679
  241MOL0     C33153  10.346   5.274   7.882 -0.5739 -0.3286 -0.3641
  241MOL0     C33154  10.263   5.244   7.769  0.4608  0.0174  0.1596
  241MOL0     C33155  10.154   5.322   7.745  0.3121 -0.4295 -0.1426
  241MOL0     O33156  10.075   5.292   7.632  0.0277  0.4058  0.4937
  241MOL0     C33157   9.934   5.297   7.646  0.5381 -0.2227  0.4781
  241MOL0     C33158   9.863   5.229   7.529  0.2793  0.3293  0.4980
  241MOL0     C33159   9.853   5.073   7.523  0.3799  0.3420  0.4812
  241MOL0     C33160   9.789   5.033   7.398 -0.9439  0.1707  0.0267
  241MOL0     C33161   9.783   4.890   7.368  0.4404  0.8572 -0.1022
  241MOL0     C33162   9.647   4.824   7.414  0.3661  0.0016 -0.3372
  241MOL0     C33163   9.533   4.857   7.308  0.6062  0.1643  0.5518
  241MOL0     C33164   9.405   4.809   7.359  0.3454 -0.3722 -0.2336
  241MOL0    Cl33165   9.393   4.635   7.370 -0.3023  0.2467 -0.0366
  241MOL0     C33166  10.123   5.432   7.832 -0.1486  0.4837  0.2911
  241MOL0     C33167  10.206   5.465   7.945  0.5488 -0.5282 -0.2944
  241MOL0     O33168  10.423   5.382   8.294  0.2617  0.4504  0.1802
  241MOL0     C33169  10.164   5.230   8.268 -0.1581  0.0392  0.3332
  241MOL0     C33170  10.099   5.104   8.291  0.5763 -0.6027  0.0745
  241MOL0     N33171   9.795   4.334   8.052  0.0135  0.5845 -0.6952
  241MOL0     N33172   9.758   4.287   7.931 -0.5297 -0.0926  0.1963
  241MOL0     C33173   8.719   4.283   7.380  0.0241 -0.4796  0.0945
  241MOL0     C33174   8.588   4.259   7.420  1.1058 -0.1220  0.8913
  241MOL0     C33175   8.169   4.303   7.563  0.2297 -0.8336 -0.1510
  241MOL0     C33176   8.191   4.294   7.699 -0.2796  0.1476 -1.0345
  241MOL0     C33177   8.085   4.315   7.784  0.2874 -0.4670  0.2496
  241MOL0     C33178   7.954   4.333   7.733  0.2420 -0.1804  0.4156
  241MOL0     O33179   7.836   4.341   7.811 -1.3127  1.1783 -0.0094
  241MOL0     C33180   7.854   4.369   7.949  0.0086  0.5216 -0.7559
  241MOL0     C33181   7.718   4.375   8.012 -0.8673 -0.6750  0.1877
  241MOL0     C33182   7.630   4.256   7.972 -0.0206 -0.0126  0.2776
  241MOL0     C33183   7.490   4.274   8.018  0.2671 -0.0222 -0.2791
  241MOL0     C33184   7.478   4.311   8.164 -0.1999 -0.3265 -0.2152
  241MOL0     C33185   7.451   4.339   8.277  0.1468 -0.2429 -0.0427
  241MOL0     C33186   7.931   4.336   7.595 -0.1251  0.6068  0.0253
  241MOL0     C33187   8.040   4.332   7.508 -0.4377  0.4211 -0.2303
  241MOL0     C33188   8.025   4.340   7.363 -0.4307 -0.1265 -0.0275
  241MOL0     H33189   8.504   4.546   7.568  0.2305 -1.1988  1.0756
  241MOL0     H33190   8.743   4.603   7.507  0.0508  0.3071 -2.4020
  241MOL0     H33191   9.106   4.384   7.357 -0.0323 -0.2173 -1.8593
  241MOL0     H33192   8.978   4.285   7.294 -1.1568  0.3996  0.5264
  241MOL0     H33193   8.921   4.211   7.547 -1.2923  1.6183  0.2631
  241MOL0     H33194   9.073   4.162   7.489  0.1070  1.0407 -0.1648
  241MOL0     H33195   9.014   4.409   7.650 -2.1529 -0.4758  0.1202
  241MOL0     H33196   9.070   4.247   7.710 -0.5215 -2.1252 -1.9707
  241MOL0     H33197   9.279   4.256   7.587 -0.6393 -1.2095  2.8653
  241MOL0     H33198   9.244   4.423   7.534 -4.0548  0.3055 -1.8066
  241MOL0     H33199   9.284   4.341   7.836  0.4231  0.6411 -0.0276
  241MOL0     H33200   9.217   4.491   7.779  3.4448  1.7621  3.2629
  241MOL0     H33201   9.424   4.540   7.661  0.6479 -1.4254 -2.8027
  241MOL0     H33202   9.457   4.521   7.831 -0.3920  0.8502 -0.1963
  241MOL0     H33203   9.498   4.322   7.605  0.2459 -0.2413 -1.0815
  241MOL0     H33204   9.535   4.272   7.771  1.3657 -0.5339 -0.8929
  241MOL0     H33205   9.742   4.332   7.642  1.1550 -0.1757  0.7749
  241MOL0     H33206   9.693   4.499   7.659  1.8794  0.7266  2.5519
  241MOL0     H33207   9.711   4.606   7.896 -0.5485  0.0493  1.6107
  241MOL0     H33208   9.819   4.482   8.267 -0.1946 -0.0463  0.9312
  241MOL0     H33209   9.681   4.582   8.219  1.1918  1.2772  1.6273
  241MOL0     H33210   9.973   4.651   8.157  0.9860 -2.0217  1.5990
  241MOL0     H33211   9.810   4.745   8.134 -1.5586 -2.6259 -0.0911
  241MOL0     H33212   9.794   4.729   8.387 -0.3434  0.4704 -1.6892
  241MOL0     H33213   9.962   4.664   8.385  0.2689 -0.2114 -0.6231
  241MOL0     H33214   9.877   4.948   8.290  1.1313  0.7510 -0.8112
  241MOL0     H33215   9.969   4.908   8.433 -0.4460 -2.2369  0.0195
  241MOL0     H33216  10.296   4.883   8.157  1.6637 -0.9521  2.2032
  241MOL0     H33217  10.532   5.146   8.081  1.4304 -1.1351  0.1741
  241MOL0     H33218  10.501   4.972   8.062 -2.9090 -1.4216  0.4864
  241MOL0     H33219  10.544   5.042   8.216 -0.6886  0.2462  0.0518
  241MOL0     H33220  10.426   5.201   7.885  1.5177  1.8508 -0.6483
  241MOL0     H33221  10.278   5.158   7.705  1.8123  0.0569  0.3855
  241MOL0     H33222   9.891   5.252   7.735  1.6411 -0.1341  1.0739
  241MOL0     H33223   9.895   5.399   7.646 -3.8384 -1.6551 -1.4982
  241MOL0     H33224   9.759   5.265   7.528  0.2634  0.2838  0.4381
  241MOL0     H33225   9.909   5.270   7.439  2.7788  0.6534  1.8491
  241MOL0     H33226   9.804   5.033   7.612 -2.2480 -1.7493 -1.7378
  241MOL0     H33227   9.955   5.033   7.519  1.2306  2.4027 -1.5079
  241MOL0     H33228   9.843   5.090   7.323 -0.6420 -0.7156 -0.4405
  241MOL0     H33229   9.689   5.079   7.405 -0.1528  1.8759  0.6585
  241MOL0     H33230   9.806   4.871   7.263 -0.2232 -1.1998  0.0628
  241MOL0     H33231   9.862   4.836   7.422  0.4101 -0.8906 -1.6918
  241MOL0     H33232   9.630   4.853   7.518  0.8821 -1.7233  0.2692
  241MOL0     H33233   9.664   4.716   7.424  1.7174  0.0322 -1.8974
  241MOL0     H33234   9.555   4.807   7.213  2.5484 -1.8318  1.9498
  241MOL0     H33235   9.533   4.966   7.298 -0.0778  0.1823  0.6942
  241MOL0     H33236   9.322   4.846   7.298  0.9405  0.7251 -0.4071
  241MOL0     H33237   9.385   4.852   7.458 -2.7932  0.0547 -0.9290
  241MOL0     H33238  10.031   5.486   7.808 -0.8310 -1.9181 -3.3692
  241MOL0     H33239  10.177   5.547   8.010  0.6175 -0.0362 -0.8726
  241MOL0     H33240  10.136   5.318   8.324 -3.5359 -0.0799 -0.9146
  241MOL0     H33241  10.003   5.112   8.342 -2.1109  1.7091 -4.6613
  241MOL0     H33242   8.772   4.211   7.319 -0.9452  0.7723 -2.3682
  241MOL0     H33243   8.545   4.163   7.393  0.9713  0.8190 -2.8430
  241MOL0     H33244   8.284   4.281   7.754 -0.0783 -0.5261 -1.5355
  241MOL0     H33245   8.108   4.313   7.890 -1.9080 -2.1631  0.7686
  241MOL0     H33246   7.892   4.279   7.998 -1.2824  0.8311  0.8867
  241MOL0     H33247   7.920   4.453   7.969  0.1967 -0.0201  1.1086
  241MOL0     H33248   7.673   4.471   7.985  0.4377  0.1249  0.7748
  241MOL0     H33249   7.735   4.378   8.120  1.0607 -3.3282  0.0542
  241MOL0     H33250   7.615   4.232   7.866 -2.4306 -2.7157  1.1126
  241MOL0     H33251   7.679   4.170   8.019 -0.5791  0.1430  1.1604
  241MOL0     H33252   7.444   4.175   8.007  1.0946 -0.6155  1.2488
  241MOL0     H33253   7.437   4.346   7.956  1.0433  0.2252 -0.6788
  241MOL0     H33254   7.408   4.363   8.373  0.9392  0.0525  0.2435
  241MOL0     H33255   7.833   4.361   7.554  1.1913  1.0297 -3.2274
  241MOL0     H33256   7.920   4.330   7.335 -0.5298 -5.2589  1.1305
  241MOL0     H33257   8.089   4.420   7.324  0.2803 -1.1027 -0.9222
  241MOL0     H33258   8.055   4.248   7.311  0.8026  0.9974 -1.3824
  242MOL0     O33259   8.671   7.848   0.499 -0.9107  0.0504  0.3298
  242MOL0     C33260   8.624   7.957   0.536 -0.2646 -0.0690 -0.1844
  242MOL0     O33261   8.691   8.081   0.539 -0.3024  0.4008  0.1823
  242MOL0     C33262   8.821   8.090   0.507 -0.2527  0.0931  0.3085
  242MOL0     C33263   8.883   8.024   0.397 -0.3039  0.9045  0.1914
  242MOL0     C33264   9.022   8.032   0.384 -0.3301  0.1496 -0.3237
  242MOL0     C33265   9.109   8.104   0.470  0.5354  0.3252  0.9663
  242MOL0     O33266   9.243   8.107   0.455 -0.2642  0.4693 -0.1066
  242MOL0     C33267   9.300   7.990   0.384 -0.0990 -0.1544 -0.6248
  242MOL0     C33268   9.439   7.957   0.437 -0.2511  0.1720  0.1174
  242MOL0     C33269   9.544   8.054   0.393  0.2065 -1.0412  0.2783
  242MOL0     C33270   9.679   7.994   0.419 -0.1669 -0.1000  0.3803
  242MOL0     C33271   9.795   8.085   0.375 -0.1854 -0.0348  0.3860
  242MOL0     C33272   9.928   8.021   0.406 -0.4460  1.0468 -0.3306
  242MOL0     C33273  10.046   8.118   0.384 -0.7219  0.4629  0.6070
  242MOL0     C33274  10.082   8.145   0.237 -0.9885 -0.6836  0.2432
  242MOL0     N33275  10.136   8.014   0.179  0.5273 -0.0863 -0.0946
  242MOL0     C33276  10.066   7.920   0.098 -0.4810  0.0856 -0.3177
  242MOL0     C33277  10.165   7.835   0.060 -0.5209  0.3277  0.2191
  242MOL0     C33278  10.136   7.712  -0.011 -0.1197  0.1600  0.4424
  242MOL0     C33279  10.104   7.739  -0.157  0.6763 -0.2091  0.2319
  242MOL0     C33280  10.225   7.799  -0.241  0.6795 -0.9767 -0.5774
  242MOL0     C33281  10.361   7.736  -0.219 -0.2185 -0.1573  0.2495
  242MOL0     O33282  10.455   7.817  -0.295  0.6296  0.8505  0.3258
  242MOL0     C33283  10.590   7.775  -0.296  0.3221 -0.7074  0.7240
  242MOL0     C33284  10.658   7.694  -0.194  0.1918 -0.5346  0.0529
  242MOL0     C33285  10.799   7.675  -0.207  0.5254  0.1782 -0.5239
  242MOL0     C33286  10.870   7.591  -0.096 -0.0523  0.2559  0.1461
  242MOL0     C33287  10.866   7.744  -0.314 -0.5543 -0.6227 -0.2672
  242MOL0     C33288  11.014   7.749  -0.317  0.0560 -0.0301  0.5662
  242MOL0     O33289  11.068   7.857  -0.372 -0.1454 -0.2809 -0.0894
  242MOL0     C33290  11.201   7.870  -0.378 -0.5410 -0.4071 -0.9485
  242MOL0     C33291  11.279   7.769  -0.437  0.1765 -0.0593  0.2047
  242MOL0     C33292  11.420   7.776  -0.428  0.5338  0.7644 -0.3987
  242MOL0     C33293  11.473   7.881  -0.366 -1.3906 -0.3713 -0.1642
  242MOL0     O33294  11.615   7.871  -0.367  0.1038 -0.0501  0.6585
  242MOL0     C33295  11.703   7.977  -0.325 -0.1454  0.0660  0.4902
  242MOL0     C33296  11.735   7.984  -0.172 -0.1456  0.0907  0.0958
  242MOL0     C33297  11.815   7.857  -0.122  0.0308  0.2281 -0.3227
  242MOL0     C33298  11.842   7.842   0.034  0.3347 -0.2347  0.1925
  242MOL0     C33299  11.912   7.963   0.099 -1.5374  0.2193 -0.3689
  242MOL0     C33300  12.070   7.964   0.067  0.3385 -0.9427 -0.0237
  242MOL0     C33301  12.139   8.077   0.141 -0.3247  0.4563 -0.1627
  242MOL0     C33302  12.286   8.086   0.115 -0.9757 -0.1003  0.6875
  242MOL0    Cl33303  12.326   8.054  -0.055  0.3861 -0.2588  0.3626
  242MOL0     C33304  11.397   7.991  -0.316  0.2241  0.6374  0.0160
  242MOL0     C33305  11.258   7.979  -0.324 -0.0337 -0.7183  0.1482
  242MOL0     O33306  11.073   7.656  -0.265 -0.4501 -0.3529  0.4861
  242MOL0     C33307  10.800   7.815  -0.413 -1.4143  0.1519 -0.0232
  242MOL0     C33308  10.663   7.833  -0.402  0.5453  0.3156  0.8527
  242MOL0     N33309  10.288   7.875   0.107  0.0768 -0.0765  0.0768
  242MOL0     N33310  10.270   7.981   0.179  0.0339  0.1832 -0.5705
  242MOL0     C33311   9.045   8.177   0.563 -0.6024 -0.8160  0.2086
  242MOL0     C33312   8.904   8.178   0.585 -0.4556  0.7650 -0.3400
  242MOL0     C33313   8.478   7.979   0.583  0.5324 -0.0074 -0.6333
  242MOL0     C33314   8.450   8.076   0.679  0.4104 -0.5966 -0.7603
  242MOL0     C33315   8.318   8.104   0.723  0.2420  0.1333  0.4301
  242MOL0     C33316   8.204   8.037   0.687  0.4466  0.7169 -0.5556
  242MOL0     O33317   8.082   8.074   0.747 -0.2320  0.2651  0.4747
  242MOL0     C33318   7.964   8.008   0.718  0.4617 -0.2487  0.1612
  242MOL0     C33319   7.903   8.049   0.589  0.0492 -0.8904  0.0481
  242MOL0     C33320   7.839   8.191   0.578 -0.0765 -0.3211 -0.4029
  242MOL0     C33321   7.708   8.201   0.659 -0.2856 -0.3141 -0.5233
  242MOL0     C33322   7.645   8.338   0.647  0.4253  0.1192 -0.6530
  242MOL0     C33323   7.590   8.448   0.637 -0.1422  0.4083 -0.2284
  242MOL0     C33324   8.229   7.931   0.594 -0.4714 -0.5268 -0.0438
  242MOL0     C33325   8.363   7.912   0.539  0.5904  0.6335  0.8741
  242MOL0     C33326   8.362   7.803   0.425  0.6753 -0.3225 -0.0494
  242MOL0     H33327   8.830   7.959   0.328 -0.7062  0.2311  1.1072
  242MOL0     H33328   9.074   7.982   0.303  4.1840  0.6458  1.9664
  242MOL0     H33329   9.313   8.015   0.278 -0.6012 -0.2459 -0.7074
  242MOL0     H33330   9.238   7.900   0.387  1.5887 -1.3865  2.6252
  242MOL0     H33331   9.455   7.963   0.545  1.8037  0.4853 -0.1681
  242MOL0     H33332   9.465   7.853   0.415 -0.7349 -0.4793  2.3753
  242MOL0     H33333   9.551   8.068   0.284  1.3555 -1.3517  0.2972
  242MOL0     H33334   9.516   8.147   0.444 -2.9473 -0.4900 -2.0787
  242MOL0     H33335   9.698   7.974   0.525 -0.3274 -2.2002  0.0544
  242MOL0     H33336   9.695   7.896   0.373 -2.5923 -0.9741  1.2272
  242MOL0     H33337   9.788   8.184   0.420 -1.8049  0.2812 -0.4845
  242MOL0     H33338   9.802   8.091   0.266  0.6146  1.9618  0.5018
  242MOL0     H33339   9.933   7.990   0.511  1.0264  1.4743 -0.2465
  242MOL0     H33340   9.941   7.927   0.351 -3.2568  0.8742 -0.8266
  242MOL0     H33341  10.129   8.068   0.435  0.4769 -1.3031 -2.8154
  242MOL0     H33342  10.029   8.217   0.429 -1.2148  1.3569 -1.4125
  242MOL0     H33343   9.999   8.180   0.176 -0.1995  0.3627 -0.2533
  242MOL0     H33344  10.167   8.214   0.242 -1.5523 -0.0041  0.8292
  242MOL0     H33345   9.960   7.930   0.075 -0.9941 -1.5903  1.1199
  242MOL0     H33346  10.039   7.675   0.023  0.3946 -4.5990 -2.3348
  242MOL0     H33347  10.210   7.633   0.004  0.7399  1.0732  1.0964
  242MOL0     H33348  10.076   7.642  -0.199  2.4988 -1.2473  1.2775
  242MOL0     H33349  10.016   7.805  -0.153 -0.3554 -1.5833  0.8512
  242MOL0     H33350  10.184   7.803  -0.342 -1.7003  1.2750  0.3571
  242MOL0     H33351  10.249   7.902  -0.215  2.5761 -1.1808 -1.3603
  242MOL0     H33352  10.395   7.740  -0.115  0.5076 -2.4426  0.1566
  242MOL0     H33353  10.360   7.631  -0.249  0.0533  0.5257 -2.4260
  242MOL0     H33354  10.603   7.662  -0.106  0.5195 -0.7607  0.1770
  242MOL0     H33355  10.794   7.564  -0.023  0.8270  0.7449  1.2616
  242MOL0     H33356  10.941   7.647  -0.035  1.3090 -1.9300  0.6751
  242MOL0     H33357  10.922   7.501  -0.132  1.4245  0.6471  1.2000
  242MOL0     H33358  11.230   7.683  -0.480  1.1701 -0.1508 -0.7984
  242MOL0     H33359  11.478   7.696  -0.473 -0.4509 -0.5296  0.5530
  242MOL0     H33360  11.799   7.976  -0.378  1.5872  2.8144  3.2142
  242MOL0     H33361  11.651   8.070  -0.350  0.0495 -0.0499 -0.3722
  242MOL0     H33362  11.776   8.084  -0.158 -1.6694  1.3541 -3.3997
  242MOL0     H33363  11.637   7.981  -0.122 -0.5910 -3.3058 -0.7353
  242MOL0     H33364  11.911   7.858  -0.174  0.3377  1.1372  0.2340
  242MOL0     H33365  11.771   7.762  -0.154 -2.2313  0.5473  1.5414
  242MOL0     H33366  11.899   7.749   0.046 -2.7273 -1.9007  4.4699
  242MOL0     H33367  11.746   7.823   0.082 -0.8378  0.2129 -1.8486
  242MOL0     H33368  11.866   8.055   0.063 -0.1816  0.8961 -0.4268
  242MOL0     H33369  11.903   7.967   0.208  1.7780  1.1130 -0.0073
  242MOL0     H33370  12.071   7.981  -0.041 -0.0725 -0.8481 -0.0154
  242MOL0     H33371  12.124   7.872   0.089  0.1067 -1.2483 -0.7110
  242MOL0     H33372  12.125   8.071   0.250  3.4441  3.5347  0.7011
  242MOL0     H33373  12.097   8.164   0.090  3.0053  1.6683 -1.0730
  242MOL0     H33374  12.341   8.026   0.188 -0.3784  1.5257  1.6547
  242MOL0     H33375  12.306   8.192   0.136 -2.5008  0.4808 -0.6761
  242MOL0     H33376  11.448   8.073  -0.267  0.3576  0.5004  0.1066
  242MOL0     H33377  11.188   8.054  -0.288 -0.1898 -0.7628 -0.0616
  242MOL0     H33378  10.853   7.871  -0.490  0.1320  1.1804  1.7007
  242MOL0     H33379  10.607   7.886  -0.478 -1.2922 -2.6298  0.0003
  242MOL0     H33380   9.105   8.239   0.629 -0.7747  1.4405 -1.6473
  242MOL0     H33381   8.865   8.239   0.666 -2.5816 -0.5546 -0.2932
  242MOL0     H33382   8.528   8.141   0.716 -2.5803  3.1377 -0.3595
  242MOL0     H33383   8.300   8.189   0.788  0.5128  1.7516 -1.5303
  242MOL0     H33384   7.967   7.901   0.698 -0.0475 -0.7452  2.4685
  242MOL0     H33385   7.888   8.026   0.794  1.5000  2.8984  0.5928
  242MOL0     H33386   7.825   7.976   0.565  0.9034 -1.6558 -0.4117
  242MOL0     H33387   7.972   8.055   0.505 -0.3301 -1.2002 -0.2885
  242MOL0     H33388   7.908   8.262   0.623 -0.6996  0.1348 -0.1605
  242MOL0     H33389   7.814   8.204   0.473 -0.7650 -3.2041 -0.6911
  242MOL0     H33390   7.738   8.177   0.762  0.0627 -1.9508 -0.9772
  242MOL0     H33391   7.635   8.127   0.624 -0.2306  0.3292 -2.0564
  242MOL0     H33392   7.544   8.544   0.625 -0.9353 -0.1411 -1.8648
  242MOL0     H33393   8.148   7.865   0.563 -0.7314  0.8073 -2.4414
  242MOL0     H33394   8.265   7.782   0.378  1.9161 -3.2579 -1.6113
  242MOL0     H33395   8.433   7.834   0.348 -0.6294 -0.1827 -1.2418
  242MOL0     H33396   8.403   7.717   0.479  0.3280 -1.7701 -1.9695
  243MOL0     O33397   6.111   2.606   5.609  0.7016 -0.8403  0.0210
  243MOL0     C33398   6.121   2.715   5.652  0.0805  0.1058  0.9373
  243MOL0     O33399   6.211   2.814   5.614  0.0736 -0.4342  0.5431
  243MOL0     C33400   6.296   2.785   5.511  0.4734 -0.7624 -0.3783
  243MOL0     C33401   6.387   2.677   5.524 -0.7670  0.4787  0.0852
  243MOL0     C33402   6.475   2.651   5.416 -0.4575 -0.7570  0.3216
  243MOL0     C33403   6.481   2.727   5.299  0.3423 -0.3183  0.2065
  243MOL0     O33404   6.569   2.680   5.206  0.1204  0.5636 -0.1735
  243MOL0     C33405   6.534   2.705   5.069 -0.7226 -0.0308 -0.4573
  243MOL0     C33406   6.646   2.642   4.976 -0.6005  0.8955  0.4680
  243MOL0     C33407   6.785   2.689   5.006 -0.8083  0.1360  0.7749
  243MOL0     C33408   6.888   2.584   5.000  0.7755  0.5313 -0.0769
  243MOL0     C33409   7.034   2.642   4.989  0.2624 -0.2505 -0.6662
  243MOL0     C33410   7.141   2.552   5.039 -0.0032 -0.7853 -0.4141
  243MOL0     C33411   7.287   2.601   5.022  0.2028  0.4495  0.3119
  243MOL0     C33412   7.389   2.496   5.079  0.2922  1.0078  0.0490
  243MOL0     N33413   7.427   2.517   5.213  0.3001 -0.4120 -0.7819
  243MOL0     C33414   7.542   2.561   5.269 -0.8743 -0.5083  0.7673
  243MOL0     C33415   7.538   2.530   5.400  0.2847  0.0192 -0.4649
  243MOL0     C33416   7.633   2.574   5.505 -0.7088 -0.3798  0.2387
  243MOL0     C33417   7.756   2.492   5.530 -0.4055  0.5822  0.0325
  243MOL0     C33418   7.827   2.445   5.409 -0.1809  0.3191 -0.3514
  243MOL0     C33419   7.934   2.346   5.466 -1.1883 -0.2496  0.6507
  243MOL0     O33420   7.991   2.280   5.347  0.0532  0.3411  0.4078
  243MOL0     C33421   8.124   2.267   5.315 -0.2233  0.1723 -0.2125
  243MOL0     C33422   8.167   2.155   5.235 -1.0402 -0.3125 -0.4116
  243MOL0     C33423   8.300   2.149   5.195 -0.7457  0.3034 -0.1351
  243MOL0     C33424   8.339   2.041   5.094  0.2285 -0.1315  0.2895
  243MOL0     C33425   8.402   2.227   5.250  0.9273 -0.6171 -0.1000
  243MOL0     C33426   8.551   2.222   5.231 -1.3392 -0.8579  1.1814
  243MOL0     O33427   8.614   2.350   5.238 -0.2303 -0.1322  0.2213
  243MOL0     C33428   8.748   2.366   5.196  0.1089 -0.1416 -0.1984
  243MOL0     C33429   8.859   2.290   5.248  0.0774  0.0813  0.2582
  243MOL0     C33430   8.988   2.320   5.202  0.3326 -0.1593 -0.3398
  243MOL0     C33431   9.011   2.418   5.113  1.0520  0.6149 -0.4140
  243MOL0     O33432   9.136   2.425   5.067 -0.0420  0.1006 -0.7624
  243MOL0     C33433   9.147   2.448   4.923  0.3142  0.2942 -0.7750
  243MOL0     C33434   9.283   2.403   4.883  0.3394 -0.7565 -0.6019
  243MOL0     C33435   9.308   2.256   4.889 -0.1548  0.3136 -0.3727
  243MOL0     C33436   9.466   2.246   4.903 -0.0258  1.0115 -0.2020
  243MOL0     C33437   9.512   2.105   4.927 -0.0674 -0.2132  0.6896
  243MOL0     C33438   9.542   2.049   5.072  0.2136  0.4046  0.0583
  243MOL0     C33439   9.416   2.029   5.157  0.2991 -0.3336 -0.2859
  243MOL0     C33440   9.309   1.926   5.110 -0.9189 -0.5217  0.7461
  243MOL0    Cl33441   9.355   1.747   5.121  0.2139 -0.0342  0.0555
  243MOL0     C33442   8.906   2.504   5.063 -0.2155  0.2860 -0.8180
  243MOL0     C33443   8.773   2.471   5.107 -0.2491 -0.5631 -0.3534
  243MOL0     O33444   8.609   2.118   5.192  0.5471 -0.2949 -1.1777
  243MOL0     C33445   8.354   2.323   5.344 -1.1991 -0.2686  0.6314
  243MOL0     C33446   8.223   2.354   5.364  0.2175  0.5852 -0.9132
  243MOL0     N33447   7.416   2.476   5.423 -0.3476 -0.3163 -0.1439
  243MOL0     N33448   7.349   2.464   5.312  0.3902  0.7871  0.0654
  243MOL0     C33449   6.390   2.832   5.285  0.7161  0.7512 -0.6202
  243MOL0     C33450   6.296   2.859   5.392  0.4690  0.0864  0.5460
  243MOL0     C33451   6.022   2.753   5.758  0.0669 -0.2278 -0.7363
  243MOL0     C33452   6.069   2.845   5.854  0.0874  0.8083 -0.4492
  243MOL0     C33453   5.996   2.881   5.966  0.6937 -0.3555 -0.3271
  243MOL0     C33454   5.872   2.822   5.993  0.7071  0.0880 -0.2243
  243MOL0     O33455   5.799   2.873   6.098  0.4054  0.1083 -0.0532
  243MOL0     C33456   5.665   2.905   6.068  0.1568 -0.3864  0.1849
  243MOL0     C33457   5.601   2.925   6.200  0.4605 -0.9175 -0.2505
  243MOL0     C33458   5.566   2.799   6.278  0.0283 -0.0385 -0.3297
  243MOL0     C33459   5.524   2.816   6.431 -0.6153  0.0535 -0.7275
  243MOL0     C33460   5.388   2.847   6.450  0.9607 -0.0029 -0.1213
  243MOL0     C33461   5.279   2.880   6.475  0.3334 -0.3891 -0.7335
  243MOL0     C33462   5.810   2.744   5.886 -1.3996 -0.2219  0.8178
  243MOL0     C33463   5.888   2.708   5.777  0.6165  0.2257  0.6373
  243MOL0     C33464   5.826   2.636   5.658 -0.6385  0.0131  0.2054
  243MOL0     H33465   6.397   2.620   5.616  2.6201  0.4912 -0.1189
  243MOL0     H33466   6.549   2.573   5.427  0.7650  0.0763 -1.6142
  243MOL0     H33467   6.526   2.813   5.052 -1.3743 -0.0040 -0.0085
  243MOL0     H33468   6.435   2.674   5.036 -0.5411 -0.4863 -0.5809
  243MOL0     H33469   6.633   2.535   4.995 -1.7269  0.8373 -0.5164
  243MOL0     H33470   6.628   2.671   4.872  1.2517  0.7066  0.0559
  243MOL0     H33471   6.808   2.764   4.930 -2.7568  0.7005  0.6854
  243MOL0     H33472   6.798   2.748   5.097 -2.0122 -0.3822  1.3054
  243MOL0     H33473   6.871   2.514   5.083  0.0971 -0.2332 -0.8478
  243MOL0     H33474   6.871   2.526   4.909  0.2831  3.5296 -2.0458
  243MOL0     H33475   7.032   2.731   5.052 -5.5855 -1.9387  2.2156
  243MOL0     H33476   7.058   2.678   4.888 -0.4316 -0.6505 -0.9826
  243MOL0     H33477   7.122   2.539   5.146 -0.6041  4.1337  0.2994
  243MOL0     H33478   7.139   2.457   4.984 -1.2292 -0.9696 -0.0850
  243MOL0     H33479   7.304   2.698   5.069 -0.3678 -0.0283  1.5355
  243MOL0     H33480   7.311   2.604   4.915  2.3606 -1.5372  0.6546
  243MOL0     H33481   7.345   2.396   5.087 -0.4646  1.1957 -1.4517
  243MOL0     H33482   7.484   2.493   5.025  2.0757  0.5821  2.9553
  243MOL0     H33483   7.625   2.615   5.224 -1.6349 -1.0252 -1.3978
  243MOL0     H33484   7.581   2.587   5.601  1.5415  0.0336  1.4666
  243MOL0     H33485   7.671   2.675   5.486  1.2087 -0.8899  1.1297
  243MOL0     H33486   7.821   2.553   5.594 -1.0464  2.6963 -1.2416
  243MOL0     H33487   7.731   2.414   5.603  1.9298  0.0744  0.3723
  243MOL0     H33488   7.764   2.392   5.337  0.5542  0.1099 -0.8469
  243MOL0     H33489   7.879   2.528   5.361 -1.3727  0.4011 -1.5611
  243MOL0     H33490   8.014   2.395   5.522 -1.4407  0.3140  0.5232
  243MOL0     H33491   7.898   2.265   5.530  2.0683 -1.5115  1.0889
  243MOL0     H33492   8.091   2.083   5.205 -1.4740 -0.6061  1.3062
  243MOL0     H33493   8.256   2.026   5.024  1.3382 -2.8155 -0.5908
  243MOL0     H33494   8.379   1.956   5.150 -0.6048 -0.2301  0.7451
  243MOL0     H33495   8.425   2.064   5.030  2.0893 -3.2662  1.3847
  243MOL0     H33496   8.829   2.201   5.302 -1.9346  0.5224 -0.0318
  243MOL0     H33497   9.072   2.254   5.222  0.9675  0.5982 -0.4458
  243MOL0     H33498   9.075   2.396   4.860 -2.1463  4.5565 -1.8580
  243MOL0     H33499   9.136   2.556   4.906 -2.0783  0.0249 -1.3223
  243MOL0     H33500   9.309   2.440   4.783  1.3237  4.0822  1.1389
  243MOL0     H33501   9.347   2.449   4.959 -1.8886 -0.3359  1.1236
  243MOL0     H33502   9.274   2.205   4.799 -1.6004 -2.1902  1.4686
  243MOL0     H33503   9.256   2.210   4.973 -0.2424 -2.3219 -1.7950
  243MOL0     H33504   9.498   2.300   4.993  1.0686 -2.7990  1.9194
  243MOL0     H33505   9.517   2.299   4.822  2.2701  0.4527  0.8068
  243MOL0     H33506   9.445   2.036   4.876 -1.6161  1.0756  0.8868
  243MOL0     H33507   9.616   2.094   4.895  1.1748  2.3228  3.3527
  243MOL0     H33508   9.599   2.122   5.131 -1.8406  1.4430  0.8451
  243MOL0     H33509   9.600   1.957   5.064  1.9045  1.4593 -0.3655
  243MOL0     H33510   9.364   2.125   5.148  1.5395  0.3545 -0.3448
  243MOL0     H33511   9.450   2.020   5.261  2.2795  0.0768 -0.8644
  243MOL0     H33512   9.295   1.935   5.002  2.4185 -1.4765  0.1387
  243MOL0     H33513   9.214   1.947   5.160 -0.1531  1.6588  1.4222
  243MOL0     H33514   8.934   2.579   4.990  4.6624  1.0154  1.4184
  243MOL0     H33515   8.688   2.525   5.067 -0.9177 -2.5862 -1.8305
  243MOL0     H33516   8.430   2.385   5.391 -1.0548  2.3030 -2.6269
  243MOL0     H33517   8.213   2.448   5.417  3.5084  0.7815 -0.3968
  243MOL0     H33518   6.397   2.891   5.194  0.5051 -0.3314 -1.3631
  243MOL0     H33519   6.214   2.925   5.368 -0.5058 -0.5365  2.0246
  243MOL0     H33520   6.165   2.895   5.846  0.1563  0.8206  0.3646
  243MOL0     H33521   6.029   2.952   6.042 -1.7992 -0.9818  1.4477
  243MOL0     H33522   5.655   2.993   6.004 -3.1833  1.2633  2.6831
  243MOL0     H33523   5.613   2.835   6.001  0.5646  0.7892 -1.4103
  243MOL0     H33524   5.510   2.984   6.187 -0.0963 -1.0180  2.5869
  243MOL0     H33525   5.670   2.988   6.257  2.2279 -0.9901 -2.1661
  243MOL0     H33526   5.482   2.747   6.230 -0.6905 -0.8174  1.6363
  243MOL0     H33527   5.654   2.735   6.269  0.8992  1.3025 -1.7883
  243MOL0     H33528   5.576   2.908   6.458 -1.4023  0.1144  0.6774
  243MOL0     H33529   5.549   2.727   6.490 -0.5505  0.4266 -0.1838
  243MOL0     H33530   5.181   2.911   6.508  0.8548  0.1953  0.3219
  243MOL0     H33531   5.708   2.707   5.885 -1.2364 -0.7511  1.7657
  243MOL0     H33532   5.720   2.621   5.678 -0.7456  1.3745  0.7628
  243MOL0     H33533   5.834   2.701   5.570  2.7913  2.2446  1.9290
  243MOL0     H33534   5.871   2.538   5.641  0.4477  0.5284 -0.0039
  244MOL0     O33535   7.743   4.747   1.507 -0.9399 -0.1812 -0.2475
  244MOL0     C33536   7.751   4.715   1.386  0.9862 -0.7375  0.3092
  244MOL0     O33537   7.862   4.729   1.308  0.5010 -0.5431  0.3958
  244MOL0     C33538   7.985   4.772   1.356  0.3816  0.4107  0.2313
  244MOL0     C33539   8.040   4.689   1.454  0.1032 -0.0339  0.0674
  244MOL0     C33540   8.170   4.716   1.485  0.8854 -0.3650  0.2947
  244MOL0     C33541   8.248   4.808   1.427  0.0904  0.7302  0.0963
  244MOL0     O33542   8.379   4.818   1.471 -0.6303  0.0200 -0.3806
  244MOL0     C33543   8.464   4.913   1.409 -0.4298 -0.0907  0.8225
  244MOL0     C33544   8.597   4.936   1.490  0.8064  0.5611 -0.5051
  244MOL0     C33545   8.567   4.924   1.642  0.0092  0.5771 -1.0412
  244MOL0     C33546   8.673   5.005   1.722  0.6297 -0.0299 -0.6611
  244MOL0     C33547   8.692   4.949   1.865  0.5789 -0.3110  1.2469
  244MOL0     C33548   8.835   4.970   1.917 -0.0817 -0.4734  0.2937
  244MOL0     C33549   8.845   4.938   2.065  0.8184  0.0237 -0.5232
  244MOL0     C33550   8.782   5.045   2.167 -0.0052  1.3302 -0.1739
  244MOL0     N33551   8.785   4.991   2.303  0.7606  0.3777  0.2282
  244MOL0     C33552   8.685   4.907   2.354  0.6512  0.0456  0.5360
  244MOL0     C33553   8.746   4.844   2.461 -0.6301  0.4654 -0.2988
  244MOL0     C33554   8.680   4.734   2.543 -0.1410  0.0236  0.0902
  244MOL0     C33555   8.606   4.804   2.654 -0.1285  0.0938 -0.1209
  244MOL0     C33556   8.537   4.714   2.760  0.1245  0.3481 -0.6684
  244MOL0     C33557   8.450   4.791   2.863 -0.3911 -0.2805 -0.0340
  244MOL0     O33558   8.533   4.894   2.919 -0.2258 -0.3289 -0.5665
  244MOL0     C33559   8.479   4.993   2.994  0.4487  0.6613  0.2162
  244MOL0     C33560   8.562   5.093   3.022  0.0012  0.0559  0.7092
  244MOL0     C33561   8.537   5.194   3.107 -0.4763  0.5133 -0.6952
  244MOL0     C33562   8.664   5.275   3.146 -0.6819 -0.3858 -0.1388
  244MOL0     C33563   8.402   5.206   3.168 -0.9604 -0.4007 -0.2036
  244MOL0     C33564   8.373   5.315   3.258  0.7391  0.5897  0.5630
  244MOL0     O33565   8.477   5.404   3.299  0.2480 -0.0949  0.0653
  244MOL0     C33566   8.463   5.514   3.373 -0.1799  0.1448  0.5712
  244MOL0     C33567   8.578   5.593   3.403 -0.4958 -0.9110 -0.0166
  244MOL0     C33568   8.573   5.706   3.487  0.5211 -0.4108 -0.7221
  244MOL0     C33569   8.456   5.746   3.537  0.5914 -0.5707 -0.3591
  244MOL0     O33570   8.466   5.867   3.610  0.1575 -0.7669 -0.0466
  244MOL0     C33571   8.335   5.918   3.663 -0.7803  0.2484 -0.1975
  244MOL0     C33572   8.344   6.059   3.712  0.5145  0.2185  0.7421
  244MOL0     C33573   8.371   6.166   3.608 -0.0658 -0.2236  0.0112
  244MOL0     C33574   8.515   6.202   3.588 -0.4357 -0.2038  0.2741
  244MOL0     C33575   8.549   6.336   3.522 -0.2342 -0.4779 -0.4703
  244MOL0     C33576   8.530   6.447   3.633 -0.6282  0.2324 -0.1629
  244MOL0     C33577   8.564   6.592   3.589 -0.1347  0.2944 -0.2771
  244MOL0     C33578   8.613   6.688   3.698  0.9339 -0.3887 -0.1921
  244MOL0    Cl33579   8.586   6.855   3.642 -0.0492 -0.2645  0.1067
  244MOL0     C33580   8.338   5.680   3.500  0.4872  1.0660 -1.1205
  244MOL0     C33581   8.347   5.563   3.421  0.6123  0.5473 -0.8813
  244MOL0     O33582   8.255   5.308   3.299  0.4733 -0.5057  0.0505
  244MOL0     C33583   8.306   5.100   3.133 -0.9833 -0.6981  0.7083
  244MOL0     C33584   8.347   5.001   3.041 -0.1687 -0.1707 -0.1352
  244MOL0     N33585   8.877   4.894   2.459 -0.5290 -0.0096 -0.1789
  244MOL0     N33586   8.903   4.978   2.367  0.6029  0.3136  0.2263
  244MOL0     C33587   8.191   4.889   1.322  0.0321 -0.4902 -0.5021
  244MOL0     C33588   8.059   4.867   1.284 -0.4527  0.5061 -0.3281
  244MOL0     C33589   7.627   4.677   1.310 -0.1283  0.6107  0.6303
  244MOL0     C33590   7.634   4.680   1.170  0.8835 -0.7876 -0.7592
  244MOL0     C33591   7.516   4.670   1.088  0.3489  0.1547  0.6637
  244MOL0     C33592   7.393   4.652   1.154  0.7739  0.5905 -0.4808
  244MOL0     O33593   7.276   4.654   1.071 -0.4746 -0.3243 -0.0534
  244MOL0     C33594   7.159   4.692   1.153 -0.3903  0.9634  0.4697
  244MOL0     C33595   7.030   4.740   1.087  0.3544 -0.5877  1.0064
  244MOL0     C33596   6.965   4.623   1.010  0.0529 -0.1654  0.2750
  244MOL0     C33597   6.860   4.555   1.095  0.1084 -0.3105 -0.7830
  244MOL0     C33598   6.895   4.431   1.173 -0.3928  0.6599  1.0205
  244MOL0     C33599   6.899   4.318   1.226  0.4135 -0.2791 -0.1948
  244MOL0     C33600   7.396   4.632   1.291  0.8424 -0.3220 -0.0974
  244MOL0     C33601   7.503   4.636   1.371  1.2085  0.1497  0.4171
  244MOL0     C33602   7.481   4.613   1.520  0.1706  0.1165 -0.5481
  244MOL0     H33603   7.971   4.618   1.499 -2.2328  1.7246 -0.5291
  244MOL0     H33604   8.209   4.661   1.570 -0.7457  0.7650  1.8329
  244MOL0     H33605   8.415   5.010   1.404  0.4329  0.2931 -2.2465
  244MOL0     H33606   8.488   4.880   1.307  1.9023 -0.4729  1.4318
  244MOL0     H33607   8.673   4.865   1.459  1.5364  1.8713 -1.8530
  244MOL0     H33608   8.636   5.035   1.464 -1.0716  1.2688 -0.8243
  244MOL0     H33609   8.466   4.949   1.674 -0.2208 -2.0693  0.6125
  244MOL0     H33610   8.577   4.818   1.668  2.3069  0.5055 -1.9302
  244MOL0     H33611   8.766   5.011   1.664  1.8531 -1.2421  1.0458
  244MOL0     H33612   8.630   5.105   1.726 -2.4079 -1.2492  0.7631
  244MOL0     H33613   8.671   4.841   1.865 -0.6595 -0.0863  1.1366
  244MOL0     H33614   8.619   5.000   1.928 -1.3203  0.7859 -1.6205
  244MOL0     H33615   8.899   4.901   1.860 -0.0195 -0.6729  0.6073
  244MOL0     H33616   8.857   5.074   1.893  1.2306 -0.3960  1.6865
  244MOL0     H33617   8.951   4.946   2.090  0.4895 -1.4445  1.5749
  244MOL0     H33618   8.801   4.842   2.094  2.4890 -0.2485  1.3164
  244MOL0     H33619   8.850   5.131   2.169 -1.0966  2.2157 -0.0490
  244MOL0     H33620   8.681   5.077   2.138 -0.2197 -0.4102 -1.4929
  244MOL0     H33621   8.579   4.911   2.331 -0.2726  0.7302  4.3401
  244MOL0     H33622   8.759   4.668   2.580  0.3288 -0.5530 -1.8372
  244MOL0     H33623   8.612   4.676   2.480 -0.5445  0.0389  0.4958
  244MOL0     H33624   8.674   4.874   2.705  1.8425 -0.0129 -2.4253
  244MOL0     H33625   8.526   4.863   2.607  0.5271  1.7631  0.7715
  244MOL0     H33626   8.476   4.639   2.709  3.2735 -2.2208 -1.0020
  244MOL0     H33627   8.614   4.661   2.818  0.9392  1.6702 -0.4885
  244MOL0     H33628   8.361   4.837   2.819  0.3842 -0.0158 -1.3933
  244MOL0     H33629   8.419   4.730   2.949 -0.9336  0.6472  0.4461
  244MOL0     H33630   8.662   5.082   2.979 -0.1869 -0.0462  0.2924
  244MOL0     H33631   8.658   5.381   3.122  0.2685 -0.4471 -0.6993
  244MOL0     H33632   8.753   5.228   3.104  0.7682  1.2373  0.9763
  244MOL0     H33633   8.671   5.272   3.256  2.5575 -0.8616 -0.2617
  244MOL0     H33634   8.680   5.569   3.376 -0.3967  0.4361 -0.9508
  244MOL0     H33635   8.662   5.765   3.506 -0.1677 -0.1935  2.4561
  244MOL0     H33636   8.261   5.919   3.582 -0.8855  3.9300 -0.1986
  244MOL0     H33637   8.311   5.856   3.750  4.3557  0.9173  2.0941
  244MOL0     H33638   8.253   6.080   3.769 -0.6736 -0.3389 -0.8743
  244MOL0     H33639   8.427   6.058   3.783  1.7655  0.5678 -0.6559
  244MOL0     H33640   8.314   6.248   3.654 -1.7915 -1.6299  0.5074
  244MOL0     H33641   8.325   6.135   3.515 -1.7624 -0.8891  1.0274
  244MOL0     H33642   8.560   6.122   3.528 -0.6968 -1.2409  1.4111
  244MOL0     H33643   8.576   6.198   3.679  1.8636 -1.1385 -1.2276
  244MOL0     H33644   8.654   6.332   3.494 -0.0673 -0.4159  0.1217
  244MOL0     H33645   8.483   6.358   3.438  1.7398 -1.5775 -2.4030
  244MOL0     H33646   8.585   6.416   3.722  0.5779 -2.6335 -1.7532
  244MOL0     H33647   8.427   6.443   3.669  0.2487  2.5016  3.0503
  244MOL0     H33648   8.475   6.625   3.535 -2.2033 -0.3301  2.5771
  244MOL0     H33649   8.632   6.592   3.503 -0.9000  1.9814 -0.9325
  244MOL0     H33650   8.716   6.668   3.729  1.0552 -0.1401 -0.4367
  244MOL0     H33651   8.540   6.679   3.779 -1.4620  0.0242 -2.1615
  244MOL0     H33652   8.238   5.709   3.532 -0.7051 -1.7964 -1.9173
  244MOL0     H33653   8.253   5.510   3.410  0.5667  0.1798  1.0642
  244MOL0     H33654   8.203   5.093   3.165 -0.8477  0.0515  1.3477
  244MOL0     H33655   8.276   4.923   3.019  0.7896 -1.0872 -0.0332
  244MOL0     H33656   8.246   4.965   1.267  1.2517 -1.1015 -0.1751
  244MOL0     H33657   8.015   4.930   1.207 -3.9452  0.8802  1.8006
  244MOL0     H33658   7.730   4.690   1.121  0.1471 -3.5054 -3.0304
  244MOL0     H33659   7.514   4.674   0.979  1.3131  3.2039  0.6656
  244MOL0     H33660   7.142   4.597   1.204 -2.2253  0.0548 -1.6851
  244MOL0     H33661   7.191   4.777   1.214  0.1449  3.1615 -2.6484
  244MOL0     H33662   7.049   4.824   1.020  0.7637 -0.2813  1.4954
  244MOL0     H33663   6.959   4.782   1.159  0.9624  1.6349  0.3866
  244MOL0     H33664   6.925   4.660   0.914 -0.0984 -1.8480 -0.3361
  244MOL0     H33665   7.029   4.539   0.985  0.1548  0.1228 -0.4749
  244MOL0     H33666   6.789   4.530   1.017 -0.0918 -1.5133 -0.2284
  244MOL0     H33667   6.815   4.628   1.163  2.5798 -0.7451  1.4954
  244MOL0     H33668   6.895   4.222   1.274 -2.3379 -1.4581 -2.4652
  244MOL0     H33669   7.304   4.604   1.340  0.8977  0.9448  0.7599
  244MOL0     H33670   7.568   4.560   1.559  1.5288  0.9018 -2.3596
  244MOL0     H33671   7.471   4.713   1.564  0.0329  0.4176 -1.2465
  244MOL0     H33672   7.398   4.546   1.546 -0.5467  2.3126  3.5222
  245MOL0     O33673   0.050   9.183  10.421  0.0196  0.3853  0.0190
  245MOL0     C33674  -0.002   9.287  10.422 -0.4600 -0.6930  0.3454
  245MOL0     O33675   0.051   9.393  10.494 -0.1911 -0.0561  0.3957
  245MOL0     C33676   0.178   9.386  10.537  0.2211 -0.1491  0.3119
  245MOL0     C33677   0.216   9.294  10.632 -0.0985 -0.7018 -0.4690
  245MOL0     C33678   0.354   9.277  10.668  1.2777 -0.1803 -0.6133
  245MOL0     C33679   0.455   9.359  10.611  0.2746 -0.4489 -0.9905
  245MOL0     O33680   0.585   9.337  10.651 -0.5288  0.4714 -0.0164
  245MOL0     C33681   0.683   9.379  10.556  0.0974 -0.3243 -0.1403
  245MOL0     C33682   0.818   9.331  10.607 -0.5656 -0.9971 -0.6333
  245MOL0     C33683   0.826   9.175  10.627 -0.1002  0.6878  0.3164
  245MOL0     C33684   0.971   9.129  10.638  0.6894  0.3181  1.1169
  245MOL0     C33685   0.981   8.993  10.569 -0.6260  0.1181  0.8432
  245MOL0     C33686   1.124   8.942  10.565 -1.4240  0.3677  1.1317
  245MOL0     C33687   1.130   8.824  10.465  0.2447 -0.4317 -0.1305
  245MOL0     C33688   1.261   8.759  10.444  0.1526 -0.1077 -0.1914
  245MOL0     N33689   1.346   8.751  10.564  0.3323  0.2406 -0.3452
  245MOL0     C33690   1.336   8.645  10.645 -0.4429  0.9116 -0.4595
  245MOL0     C33691   1.418   8.669  10.753  0.0402 -0.0589  0.7961
  245MOL0     C33692   1.474   8.570  10.849  0.0076  0.8129 -0.4292
  245MOL0     C33693   1.613   8.520  10.805  0.3880  0.1923  0.2369
  245MOL0     C33694   1.673   8.428  10.908  0.6002  0.4399  0.1050
  245MOL0     C33695   1.805   8.383  10.860 -0.1918  0.5664 -0.3724
  245MOL0     O33696   1.868   8.301  10.965 -0.6244 -0.1030  0.0286
  245MOL0     C33697   1.994   8.240  10.930  0.7713 -1.1966 -0.1565
  245MOL0     C33698   2.036   8.219  10.799  0.2077  0.0603 -0.3345
  245MOL0     C33699   2.158   8.161  10.773  0.0091 -0.0536  0.4159
  245MOL0     C33700   2.192   8.143  10.627 -0.3497  0.4169  0.1337
  245MOL0     C33701   2.242   8.127  10.882 -0.3229 -0.0364 -0.5105
  245MOL0     C33702   2.382   8.080  10.869 -0.3804 -0.1920  1.0272
  245MOL0     O33703   2.415   7.983  10.958  0.0351 -0.2867 -0.4340
  245MOL0     C33704   2.517   7.892  10.932  0.5408 -0.1018 -0.1059
  245MOL0     C33705   2.561   7.858  10.798  0.1848 -0.1858 -0.3960
  245MOL0     C33706   2.665   7.761  10.786  0.2482 -0.0955 -0.1356
  245MOL0     C33707   2.744   7.714  10.892 -0.5890 -0.3744 -0.6583
  245MOL0     O33708   2.849   7.631  10.869  0.0297 -0.3836  0.0473
  245MOL0     C33709   2.959   7.615  10.960 -0.2041  0.3427 -0.3484
  245MOL0     C33710   3.071   7.697  10.905 -0.3176 -0.0588 -0.2075
  245MOL0     C33711   3.128   7.641  10.771 -0.1312 -0.3985 -0.1728
  245MOL0     C33712   3.230   7.751  10.729 -0.2310 -0.7911 -0.0363
  245MOL0     C33713   3.303   7.722  10.598 -0.0413 -0.4294 -0.1507
  245MOL0     C33714   3.443   7.661  10.620  0.5696 -0.3728  0.2618
  245MOL0     C33715   3.527   7.649  10.493  0.9127 -0.0522 -0.7650
  245MOL0     C33716   3.657   7.576  10.514 -0.2078 -0.8829 -0.4361
  245MOL0    Cl33717   3.749   7.643  10.656 -0.0958  0.3430 -0.2378
  245MOL0     C33718   2.694   7.743  11.019 -0.6799 -0.5188  0.1531
  245MOL0     C33719   2.585   7.829  11.042 -0.2193  0.1607  0.3381
  245MOL0     O33720   2.461   8.130  10.789 -0.5748 -0.0386 -0.1780
  245MOL0     C33721   2.202   8.155  11.016 -0.4025  1.2784 -0.0526
  245MOL0     C33722   2.086   8.222  11.031 -0.5581  0.1339  0.2071
  245MOL0     N33723   1.467   8.795  10.726 -1.0458 -0.1490 -0.3052
  245MOL0     N33724   1.432   8.841  10.612 -0.3053  0.7136 -0.1656
  245MOL0     C33725   0.407   9.456  10.520 -0.3690  0.6909 -0.1994
  245MOL0     C33726   0.275   9.462  10.477 -0.0747  0.1443 -0.3151
  245MOL0     C33727  -0.134   9.308  10.356 -1.1221  0.3548  1.2738
  245MOL0     C33728  -0.206   9.424  10.400  0.0757  0.2033  0.7664
  245MOL0     C33729  -0.335   9.455  10.346 -0.6552  0.4745 -0.1621
  245MOL0     C33730  -0.403   9.367  10.262 -0.3841  0.2864 -1.2661
  245MOL0     O33731  -0.537   9.387  10.232 -0.0764 -0.6000 -0.0583
  245MOL0     C33732  -0.629   9.275  10.228 -0.2797  0.4813 -0.1527
  245MOL0     C33733  -0.748   9.337  10.284 -0.2609  0.2740 -0.4459
  245MOL0     C33734  -0.859   9.237  10.291  0.2479  0.9590  0.1694
  245MOL0     C33735  -0.965   9.302  10.398  0.4063  0.4582  0.3121
  245MOL0     C33736  -1.060   9.197  10.420  0.3428  0.0320  0.1552
  245MOL0     C33737  -1.138   9.109  10.449 -0.2530  0.2510  0.3099
  245MOL0     C33738  -0.328   9.252  10.226  0.2163  0.2205 -0.1269
  245MOL0     C33739  -0.201   9.222  10.265 -0.0419 -0.0499  0.4168
  245MOL0     C33740  -0.128   9.094  10.215 -0.0872  0.7944  0.1861
  245MOL0     H33741   0.140   9.239  10.687  0.3784  0.9577  2.0124
  245MOL0     H33742   0.364   9.209  10.753 -1.8959 -0.2386 -0.1570
  245MOL0     H33743   0.689   9.488  10.544  0.7312 -0.2994  0.3559
  245MOL0     H33744   0.663   9.335  10.458 -0.3895  0.4859 -0.4226
  245MOL0     H33745   0.890   9.367  10.533  3.6633  0.8747  3.8014
  245MOL0     H33746   0.849   9.382  10.699 -0.4026 -1.5775 -0.3667
  245MOL0     H33747   0.768   9.143  10.714  2.4950 -2.8307  0.9821
  245MOL0     H33748   0.782   9.124  10.541  0.8457 -0.5582  0.5409
  245MOL0     H33749   1.041   9.194  10.584 -0.0914  0.7793  0.6414
  245MOL0     H33750   0.990   9.116  10.745 -0.8950  2.2619  1.6947
  245MOL0     H33751   0.954   9.001  10.463  0.6189 -0.0803  0.4988
  245MOL0     H33752   0.916   8.916  10.611 -1.2290  0.7265  1.0463
  245MOL0     H33753   1.177   9.027  10.521 -2.5112 -0.3156 -1.7861
  245MOL0     H33754   1.166   8.910  10.661 -0.6742 -0.5673  0.5176
  245MOL0     H33755   1.100   8.862  10.367 -0.9140 -2.0908 -0.4741
  245MOL0     H33756   1.049   8.754  10.491 -1.8313  1.7033 -0.4381
  245MOL0     H33757   1.235   8.658  10.409 -2.0200  0.2608  0.2225
  245MOL0     H33758   1.319   8.819  10.373  0.2846  1.4064  1.1600
  245MOL0     H33759   1.295   8.548  10.621 -0.8554  0.9348  0.1201
  245MOL0     H33760   1.410   8.481  10.846  0.9816  0.0269  0.9931
  245MOL0     H33761   1.478   8.624  10.944  2.6712  0.5214 -0.2938
  245MOL0     H33762   1.599   8.475  10.707  2.8548  0.7777 -0.4512
  245MOL0     H33763   1.682   8.603  10.787 -1.9755  1.8096 -2.1660
  245MOL0     H33764   1.665   8.473  11.008 -0.0907 -0.3268  0.4130
  245MOL0     H33765   1.612   8.337  10.915  0.2916  0.3986 -2.3836
  245MOL0     H33766   1.800   8.345  10.758  2.2378 -0.9292 -0.0080
  245MOL0     H33767   1.876   8.466  10.851 -0.6081  1.1125  0.9946
  245MOL0     H33768   1.976   8.241  10.711 -1.4073 -0.4037  0.6082
  245MOL0     H33769   2.280   8.081  10.606 -0.1605  0.4009  0.9510
  245MOL0     H33770   2.207   8.243  10.585  0.8298  0.7044  1.1682
  245MOL0     H33771   2.098   8.108  10.585 -0.5241 -1.2035  1.7734
  245MOL0     H33772   2.512   7.891  10.707 -0.9396 -1.3496 -0.2486
  245MOL0     H33773   2.694   7.722  10.689  0.5327  0.1914 -0.1681
  245MOL0     H33774   2.943   7.642  11.064  2.1797  1.9678 -0.3484
  245MOL0     H33775   2.992   7.510  10.965 -1.9653 -0.2216  0.3195
  245MOL0     H33776   3.042   7.802  10.902  1.8137  0.8317  3.4619
  245MOL0     H33777   3.149   7.701  10.981  0.0494  0.1204 -0.5882
  245MOL0     H33778   3.057   7.635  10.687  3.5366  0.3816 -3.6506
  245MOL0     H33779   3.178   7.545  10.786  0.4326  0.1299  1.5703
  245MOL0     H33780   3.303   7.767  10.808 -0.0776  1.3827 -0.5593
  245MOL0     H33781   3.158   7.831  10.708  0.7475 -0.0620 -0.7158
  245MOL0     H33782   3.250   7.644  10.544 -1.6809  1.6564 -1.7001
  245MOL0     H33783   3.322   7.817  10.547  0.5705  0.1535  1.0877
  245MOL0     H33784   3.417   7.561  10.657 -1.0202  0.4641  1.5252
  245MOL0     H33785   3.495   7.711  10.702 -1.5074  1.0607  0.7816
  245MOL0     H33786   3.548   7.743  10.442  1.6709  0.4798  0.5139
  245MOL0     H33787   3.476   7.598  10.410  2.5417 -1.1500 -1.1519
  245MOL0     H33788   3.718   7.581  10.423 -0.4190  2.2095 -0.5205
  245MOL0     H33789   3.646   7.468  10.525  1.4853 -1.4479 -3.2427
  245MOL0     H33790   2.743   7.703  11.108 -2.2519  2.5833  2.6080
  245MOL0     H33791   2.566   7.861  11.144  0.6410  1.7829  0.0165
  245MOL0     H33792   2.270   8.140  11.099  0.5287 -1.5990 -1.2012
  245MOL0     H33793   2.053   8.256  11.129 -1.6959 -0.8424  0.1904
  245MOL0     H33794   0.478   9.524  10.474  0.1915  2.2482  2.7000
  245MOL0     H33795   0.243   9.536  10.404 -3.4026 -3.2975 -2.6807
  245MOL0     H33796  -0.173   9.493  10.477  0.2550  0.9767  0.0013
  245MOL0     H33797  -0.400   9.538  10.372 -2.9261 -1.4215  0.5940
  245MOL0     H33798  -0.637   9.239  10.125  1.5706 -1.8961  0.4339
  245MOL0     H33799  -0.586   9.192  10.285  1.0522  0.1652 -1.5317
  245MOL0     H33800  -0.779   9.428  10.232  1.0258  0.1668 -1.4395
  245MOL0     H33801  -0.728   9.365  10.388  1.2398 -0.5122 -0.4970
  245MOL0     H33802  -0.911   9.222  10.197 -2.4871 -1.1212  1.8530
  245MOL0     H33803  -0.822   9.139  10.324 -0.7850  1.4634  3.1505
  245MOL0     H33804  -1.011   9.391  10.353 -0.3025  0.2252  0.5725
  245MOL0     H33805  -0.921   9.330  10.495 -1.6449  0.3453  1.3323
  245MOL0     H33806  -1.195   9.025  10.481 -0.2942 -0.9648 -2.6507
  245MOL0     H33807  -0.377   9.182  10.159  0.5744  0.2429 -0.4144
  245MOL0     H33808  -0.023   9.111  10.191  0.8094 -0.1459  3.0173
  245MOL0     H33809  -0.129   9.019  10.294  0.8384  1.7255  1.1188
  245MOL0     H33810  -0.183   9.060  10.127  1.4812  1.4492 -1.1081
  246MOL0     O33811   3.834   2.282  10.577 -0.3496 -0.9934  0.5949
  246MOL0     C33812   3.867   2.246  10.468  0.3417 -0.0172 -0.4854
  246MOL0     O33813   3.908   2.126  10.432  0.0828 -0.4786 -0.6450
  246MOL0     C33814   3.918   2.040  10.540 -0.7013  0.0046  0.2790
  246MOL0     C33815   3.804   1.955  10.566  0.5859  1.0300  0.2035
  246MOL0     C33816   3.803   1.864  10.674 -0.5596 -0.4224  0.1062
  246MOL0     C33817   3.922   1.842  10.755  0.4264 -1.0621 -1.1748
  246MOL0     O33818   3.928   1.755  10.867  0.4891 -0.8002 -0.3567
  246MOL0     C33819   3.819   1.665  10.872 -0.1789 -0.3849  0.4834
  246MOL0     C33820   3.827   1.563  10.986  0.1663 -0.0355  0.0196
  246MOL0     C33821   3.933   1.454  10.959  0.1714 -0.2129  0.0212
  246MOL0     C33822   4.081   1.491  10.996  0.4164  1.1362  0.4046
  246MOL0     C33823   4.171   1.365  10.971  0.6485  0.7358 -0.5675
  246MOL0     C33824   4.314   1.412  10.975  0.9463  0.0445  0.0582
  246MOL0     C33825   4.416   1.305  10.963  0.0262 -0.1437  0.1262
  246MOL0     C33826   4.554   1.363  10.965  0.9513  0.5470 -0.4576
  246MOL0     N33827   4.665   1.267  10.939  0.4534  0.3726  0.4656
  246MOL0     C33828   4.672   1.129  10.953 -0.2653  0.3822  0.2165
  246MOL0     C33829   4.787   1.099  10.896 -0.2288  0.5307 -0.0765
  246MOL0     C33830   4.851   0.971  10.871  0.4197  0.2048 -0.8906
  246MOL0     C33831   4.802   0.910  10.725 -0.3218 -0.8775 -0.0882
  246MOL0     C33832   4.889   0.799  10.657  1.2416  0.4772 -0.0091
  246MOL0     C33833   4.971   0.824  10.535 -0.2787  0.1500  0.4819
  246MOL0     O33834   5.004   0.695  10.481  0.0740 -0.0046 -0.0579
  246MOL0     C33835   5.091   0.691  10.378  0.5963  0.0087  0.4278
  246MOL0     C33836   5.113   0.567  10.310 -0.2644 -0.8420  0.2187
  246MOL0     C33837   5.217   0.554  10.213  0.2483  0.0233  0.4160
  246MOL0     C33838   5.245   0.413  10.163  0.3809 -0.2472 -0.1875
  246MOL0     C33839   5.282   0.674  10.164  1.1647  0.1675 -0.3974
  246MOL0     C33840   5.393   0.670  10.075 -0.0281 -0.1074 -0.0943
  246MOL0     O33841   5.503   0.746  10.096  0.0588 -0.1039  0.0272
  246MOL0     C33842   5.604   0.751  10.002  0.5893 -0.4916  0.4052
  246MOL0     C33843   5.593   0.769   9.860  0.3342 -0.3250  0.2979
  246MOL0     C33844   5.707   0.765   9.775 -0.2762  0.1223  0.1079
  246MOL0     C33845   5.834   0.745   9.822  0.4333 -0.7412 -0.1197
  246MOL0     O33846   5.954   0.722   9.759 -0.4321  0.1165  0.4385
  246MOL0     C33847   5.946   0.726   9.610 -0.2405  0.0850  0.1528
  246MOL0     C33848   6.083   0.717   9.532  0.2282  0.4607 -1.0091
  246MOL0     C33849   6.179   0.613   9.585  0.7523 -0.3067  1.0270
  246MOL0     C33850   6.314   0.639   9.510 -0.3266  0.7667 -0.3199
  246MOL0     C33851   6.410   0.523   9.524  0.4652 -0.7243 -0.8650
  246MOL0     C33852   6.467   0.500   9.662 -0.4039 -0.3901  0.6841
  246MOL0     C33853   6.562   0.385   9.674  1.0148  0.6525 -0.8259
  246MOL0     C33854   6.694   0.390   9.600 -0.4088  0.6435 -0.2842
  246MOL0    Cl33855   6.827   0.504   9.650 -0.0260 -0.3229  0.5443
  246MOL0     C33856   5.843   0.732   9.961 -0.3605  0.0478 -0.4785
  246MOL0     C33857   5.735   0.756  10.048  0.6811  0.0750  0.1753
  246MOL0     O33858   5.385   0.593   9.975 -0.2426  0.5943 -0.7756
  246MOL0     C33859   5.240   0.803  10.208  0.2430  0.0989 -1.4321
  246MOL0     C33860   5.161   0.806  10.324  0.1672  0.4552 -0.3246
  246MOL0     N33861   4.852   1.224  10.871 -0.3709  0.8557 -0.2163
  246MOL0     N33862   4.780   1.319  10.887  0.7442  0.6488  0.1968
  246MOL0     C33863   4.032   1.932  10.729  0.9620 -0.6279  0.2548
  246MOL0     C33864   4.023   2.035  10.629 -0.4799  0.1301  0.3294
  246MOL0     C33865   3.851   2.350  10.367 -0.2484 -0.0426 -0.8873
  246MOL0     C33866   3.942   2.460  10.377  0.9851 -0.4308  0.1357
  246MOL0     C33867   3.939   2.548  10.263  0.7357 -0.0289 -0.9255
  246MOL0     C33868   3.862   2.533  10.149  0.2487  0.2121 -0.4950
  246MOL0     O33869   3.846   2.628  10.056  0.1608 -0.6924  0.6152
  246MOL0     C33870   3.752   2.626   9.948 -0.1084  0.9564 -0.9786
  246MOL0     C33871   3.789   2.748   9.857 -0.0989  0.0348 -0.6462
  246MOL0     C33872   3.689   2.773   9.751 -0.0143  0.0296  0.4950
  246MOL0     C33873   3.695   2.906   9.671  0.6125  0.4317 -0.1617
  246MOL0     C33874   3.809   2.898   9.588  0.0533  0.2206  0.3932
  246MOL0     C33875   3.889   2.892   9.499 -0.2425 -0.2426  0.0962
  246MOL0     C33876   3.770   2.429  10.154  0.4144  0.6149 -0.3168
  246MOL0     C33877   3.771   2.328  10.255 -0.5337  0.0098 -0.0789
  246MOL0     C33878   3.692   2.200  10.237 -0.0606  0.0419  0.3354
  246MOL0     H33879   3.712   1.953  10.508 -0.2870  0.3401  1.5528
  246MOL0     H33880   3.713   1.803  10.682 -0.6594 -0.1515  1.2163
  246MOL0     H33881   3.810   1.611  10.778  0.0125  2.5057 -1.3382
  246MOL0     H33882   3.729   1.728  10.882 -2.7289 -3.0659 -3.0213
  246MOL0     H33883   3.854   1.627  11.071 -1.1981  0.7386 -0.0983
  246MOL0     H33884   3.731   1.515  11.005  0.8487 -0.6496  2.2873
  246MOL0     H33885   3.909   1.366  11.019  3.4257 -1.3277 -0.1105
  246MOL0     H33886   3.924   1.437  10.852 -2.4086  3.6970 -0.6033
  246MOL0     H33887   4.109   1.571  10.926 -1.4662  0.7344 -0.8874
  246MOL0     H33888   4.083   1.531  11.098 -3.6513  2.4104  0.1700
  246MOL0     H33889   4.155   1.329  10.868 -1.9526  2.1272 -0.7405
  246MOL0     H33890   4.158   1.280  11.039 -1.1154  0.8978 -0.6516
  246MOL0     H33891   4.326   1.481  10.891  1.1333 -0.7913 -0.6298
  246MOL0     H33892   4.320   1.466  11.070  3.2133  0.9831 -0.5427
  246MOL0     H33893   4.404   1.238  10.878  2.7360  0.0389 -0.4899
  246MOL0     H33894   4.401   1.241  11.051 -0.1808 -0.3817 -0.0812
  246MOL0     H33895   4.563   1.439  10.887 -0.4477  0.7671 -0.4140
  246MOL0     H33896   4.584   1.400  11.064 -3.3449 -0.2573  1.3364
  246MOL0     H33897   4.595   1.062  10.990  0.9871  0.1254  2.5326
  246MOL0     H33898   4.807   0.899  10.941 -1.1663  0.6470 -1.3770
  246MOL0     H33899   4.959   0.979  10.881  0.5552 -1.1147 -1.0852
  246MOL0     H33900   4.702   0.873  10.748 -0.8051 -1.9596 -3.3288
  246MOL0     H33901   4.807   1.001  10.665 -0.5468 -1.7607 -1.4847
  246MOL0     H33902   4.961   0.765  10.732  0.3785  1.9686  1.5874
  246MOL0     H33903   4.810   0.730  10.626  0.5131  1.3716 -0.1988
  246MOL0     H33904   4.912   0.879  10.461  0.8346  0.4996 -0.1698
  246MOL0     H33905   5.049   0.887  10.579 -1.0281 -0.0482  2.1777
  246MOL0     H33906   5.065   0.476  10.345 -0.4906 -1.0111 -0.5331
  246MOL0     H33907   5.217   0.341  10.241 -3.2816  1.7305  0.5461
  246MOL0     H33908   5.351   0.399  10.141 -0.0791 -4.0504 -0.5206
  246MOL0     H33909   5.179   0.388  10.080 -1.1101 -0.4614  1.0341
  246MOL0     H33910   5.497   0.779   9.809  0.8905  0.1022 -0.6945
  246MOL0     H33911   5.681   0.769   9.669 -2.1936  0.6712  0.5560
  246MOL0     H33912   5.896   0.633   9.584  1.4007 -0.1045 -2.7060
  246MOL0     H33913   5.886   0.815   9.586 -0.3456  0.5421  1.9776
  246MOL0     H33914   6.066   0.695   9.426  2.2179 -2.1712 -0.8637
  246MOL0     H33915   6.131   0.815   9.544  1.9737 -0.6108  1.5424
  246MOL0     H33916   6.150   0.509   9.568 -1.1157  0.1687  1.1503
  246MOL0     H33917   6.195   0.626   9.693  2.4396  1.1113  0.6590
  246MOL0     H33918   6.358   0.729   9.554 -0.9199  2.4702 -2.9851
  246MOL0     H33919   6.302   0.663   9.404 -1.1740  0.4852 -0.2891
  246MOL0     H33920   6.353   0.434   9.500 -0.5754 -0.1980 -0.4227
  246MOL0     H33921   6.497   0.545   9.461  0.0881 -0.7057 -1.3837
  246MOL0     H33922   6.388   0.478   9.734 -0.9251  0.5870  0.4192
  246MOL0     H33923   6.517   0.593   9.689  3.4190 -1.4704 -1.8322
  246MOL0     H33924   6.513   0.293   9.642  1.6580  1.2991 -4.0579
  246MOL0     H33925   6.582   0.377   9.781 -0.3219  1.8668 -0.4599
  246MOL0     H33926   6.669   0.412   9.496 -0.1249  1.5896 -0.1656
  246MOL0     H33927   6.737   0.289   9.600  1.8499  1.5357 -0.0524
  246MOL0     H33928   5.936   0.723  10.017 -1.6958 -2.9704  1.4856
  246MOL0     H33929   5.746   0.745  10.155 -2.9397  0.8285  0.7248
  246MOL0     H33930   5.273   0.895  10.161 -0.8435  0.7042 -1.0615
  246MOL0     H33931   5.135   0.902  10.367  0.3643  0.1731  0.4269
  246MOL0     H33932   4.122   1.915  10.788 -1.5293 -1.3644  4.2133
  246MOL0     H33933   4.113   2.095  10.618  0.9408 -1.8442  0.6285
  246MOL0     H33934   4.002   2.465  10.468  2.0720  0.9970 -0.6203
  246MOL0     H33935   4.001   2.637  10.263  2.2236 -1.0089  0.6108
  246MOL0     H33936   3.772   2.545   9.878  2.4404  0.5358  0.1228
  246MOL0     H33937   3.651   2.631   9.989 -0.1137  0.0642 -0.8724
  246MOL0     H33938   3.891   2.742   9.817  1.0353  0.4643  1.9484
  246MOL0     H33939   3.781   2.836   9.922 -1.1719 -0.8505  0.4691
  246MOL0     H33940   3.688   2.684   9.687 -1.0570  1.1973 -1.1568
  246MOL0     H33941   3.593   2.774   9.804  0.0504  0.6197  0.5983
  246MOL0     H33942   3.706   2.983   9.748 -1.8489  1.1777 -0.4787
  246MOL0     H33943   3.617   2.924   9.596  0.7543  0.4871 -0.2954
  246MOL0     H33944   3.972   2.888   9.431 -0.1325  0.3733  0.1934
  246MOL0     H33945   3.708   2.409  10.066 -0.1497 -0.5275  0.3108
  246MOL0     H33946   3.678   2.144  10.330 -1.6318  0.2249  0.2389
  246MOL0     H33947   3.595   2.238  10.203  0.0565  0.8705  0.8761
  246MOL0     H33948   3.738   2.132  10.165  1.2035 -1.8085  2.7381
  247MOL0     O33949   2.782  10.763   1.684 -0.2456 -0.2146 -0.5832
  247MOL0     C33950   2.670  10.811   1.699 -0.1267  0.3645  0.2153
  247MOL0     O33951   2.633  10.934   1.639 -0.2011 -0.0454 -0.4337
  247MOL0     C33952   2.723  11.007   1.572  0.9778 -0.9927 -0.5274
  247MOL0     C33953   2.708  11.029   1.440  0.2684  0.9781 -0.6764
  247MOL0     C33954   2.782  11.130   1.373 -0.0044  0.3874 -0.1201
  247MOL0     C33955   2.882  11.206   1.438  0.1725 -0.3458  0.1451
  247MOL0     O33956   2.944  11.312   1.375  0.5527 -0.0935  0.3191
  247MOL0     C33957   3.056  11.378   1.433  0.2590 -0.6389 -0.1102
  247MOL0     C33958   3.157  11.272   1.462  0.5392  0.8131  0.0399
  247MOL0     C33959   3.304  11.327   1.476  0.4636  0.1614 -0.3673
  247MOL0     C33960   3.409  11.219   1.459  0.1828 -0.5688  0.0327
  247MOL0     C33961   3.559  11.245   1.499  0.0225 -0.5901 -0.4865
  247MOL0     C33962   3.602  11.379   1.432 -0.8153  0.4555 -0.6778
  247MOL0     C33963   3.753  11.413   1.451 -0.2400 -0.6299 -0.2787
  247MOL0     C33964   3.845  11.303   1.409  0.8896 -0.0670 -0.6352
  247MOL0     N33965   3.988  11.336   1.435 -0.0635  0.4413  0.5839
  247MOL0     C33966   4.063  11.284   1.539  0.1166 -0.1695  0.2724
  247MOL0     C33967   4.191  11.331   1.521 -0.1722 -0.8742 -1.0021
  247MOL0     C33968   4.313  11.322   1.609  0.4368  0.2815  0.7744
  247MOL0     C33969   4.399  11.217   1.551  0.2014 -0.0283  1.0655
  247MOL0     C33970   4.511  11.181   1.642  0.4411 -0.8082 -0.9955
  247MOL0     C33971   4.605  11.300   1.683 -0.6326  0.5836 -0.8460
  247MOL0     O33972   4.708  11.323   1.584  1.0169 -0.6313  0.0190
  247MOL0     C33973   4.794  11.426   1.608 -0.8009 -0.5495  0.6946
  247MOL0     C33974   4.793  11.525   1.707  0.3116  0.1544  0.3773
  247MOL0     C33975   4.894  11.622   1.724  0.4054 -0.1701  0.6870
  247MOL0     C33976   4.886  11.723   1.834 -0.1454 -0.2993 -0.0790
  247MOL0     C33977   5.004  11.624   1.632 -0.4540  0.1405 -0.4972
  247MOL0     C33978   5.113  11.727   1.629  0.1535  0.1609 -0.4502
  247MOL0     O33979   5.190  11.722   1.521 -0.4460 -0.4205  0.1486
  247MOL0     C33980   5.298  11.810   1.505  0.0349  0.2019  0.2186
  247MOL0     C33981   5.273  11.946   1.456  0.2194 -0.8853 -0.2767
  247MOL0     C33982   5.383  12.019   1.423 -0.2540 -0.4168  0.4927
  247MOL0     C33983   5.510  11.970   1.424 -0.3943 -1.1767  0.8531
  247MOL0     O33984   5.616  12.056   1.401 -0.1059 -0.0545 -0.3874
  247MOL0     C33985   5.599  12.143   1.293 -0.2849  0.8851 -0.2529
  247MOL0     C33986   5.735  12.217   1.296  0.9528  0.6613 -0.2906
  247MOL0     C33987   5.727  12.329   1.203 -0.8040  0.1854  0.7069
  247MOL0     C33988   5.809  12.458   1.245 -0.0172 -0.8504 -0.3455
  247MOL0     C33989   5.789  12.557   1.125  0.3070  0.2331 -0.1422
  247MOL0     C33990   5.900  12.663   1.139  0.4108 -0.1292  0.9066
  247MOL0     C33991   5.857  12.754   1.254 -0.4340 -0.3358 -0.8070
  247MOL0     C33992   5.973  12.843   1.266  0.4192 -0.1972  0.3092
  247MOL0    Cl33993   5.987  12.970   1.134  0.0103  0.2090 -0.1643
  247MOL0     C33994   5.530  11.841   1.457 -0.6798  0.1182  0.7149
  247MOL0     C33995   5.424  11.759   1.501  0.0625 -0.6144 -0.4469
  247MOL0     O33996   5.131  11.805   1.718  0.2021 -0.0624  0.3463
  247MOL0     C33997   5.001  11.524   1.534  0.4104 -0.4184 -0.0505
  247MOL0     C33998   4.897  11.429   1.524 -0.3546 -0.5862  0.4026
  247MOL0     N33999   4.191  11.404   1.405 -0.9792 -0.4443  0.2717
  247MOL0     N34000   4.072  11.411   1.357  0.2779  0.0395 -0.0172
  247MOL0     C34001   2.888  11.181   1.577 -0.0012  0.2550  0.1904
  247MOL0     C34002   2.814  11.078   1.639  0.6646 -1.1115 -0.0155
  247MOL0     C34003   2.559  10.761   1.791 -0.5836  0.0758 -0.2617
  247MOL0     C34004   2.429  10.783   1.756  0.0690 -0.7285  1.0050
  247MOL0     C34005   2.317  10.750   1.838  0.5640 -0.4679  0.2355
  247MOL0     C34006   2.344  10.686   1.960 -0.2085 -0.2390  1.1310
  247MOL0     O34007   2.247  10.630   2.038 -0.7780 -0.2342 -0.0487
  247MOL0     C34008   2.108  10.655   2.017  0.2085 -0.3184  0.0643
  247MOL0     C34009   2.014  10.665   2.135 -0.1084  0.0373  0.9561
  247MOL0     C34010   1.872  10.667   2.085  0.4433 -0.0540  0.1723
  247MOL0     C34011   1.773  10.644   2.203  0.4753  0.0761  0.6418
  247MOL0     C34012   1.761  10.768   2.285 -0.4315 -0.6541 -0.4993
  247MOL0     C34013   1.765  10.865   2.358 -0.8217 -0.1092  0.1267
  247MOL0     C34014   2.482  10.657   1.983  0.8376 -0.3815  0.2648
  247MOL0     C34015   2.586  10.697   1.916  0.2608 -0.0916  0.4098
  247MOL0     C34016   2.725  10.678   1.966 -0.6007  0.6459  0.4317
  247MOL0     H34017   2.631  10.972   1.389 -0.6308 -1.6447  3.1384
  247MOL0     H34018   2.749  11.158   1.273  0.4799 -0.2545 -0.4666
  247MOL0     H34019   3.043  11.440   1.523  1.5467  1.9002 -1.5681
  247MOL0     H34020   3.091  11.452   1.361 -2.3349  2.5148  1.5728
  247MOL0     H34021   3.136  11.205   1.546  1.1038 -1.5511 -1.5995
  247MOL0     H34022   3.148  11.208   1.374 -0.1600  0.2926  0.4790
  247MOL0     H34023   3.300  11.403   1.398 -3.0522 -0.1821 -0.6790
  247MOL0     H34024   3.312  11.357   1.581 -3.0301  1.5297 -0.3473
  247MOL0     H34025   3.373  11.131   1.512 -0.3588 -0.4192 -0.0830
  247MOL0     H34026   3.397  11.188   1.354 -0.4364  0.3906 -0.1878
  247MOL0     H34027   3.627  11.164   1.470  0.5034 -0.2856 -0.2269
  247MOL0     H34028   3.563  11.257   1.608 -2.9621  1.3485 -0.4761
  247MOL0     H34029   3.577  11.374   1.325 -4.1423  5.1524 -0.4350
  247MOL0     H34030   3.538  11.460   1.468 -0.2620  1.6448 -2.2355
  247MOL0     H34031   3.772  11.445   1.554  3.5085 -0.1934 -0.9472
  247MOL0     H34032   3.785  11.499   1.391 -0.1435 -0.6072 -0.1948
  247MOL0     H34033   3.818  11.206   1.451  0.1310  0.3289 -0.1908
  247MOL0     H34034   3.829  11.310   1.301 -0.9058  1.5945 -0.3250
  247MOL0     H34035   4.019  11.215   1.611 -1.5051  0.3444 -0.1943
  247MOL0     H34036   4.289  11.308   1.715  2.7789  0.9126  1.4441
  247MOL0     H34037   4.361  11.419   1.598 -0.5076  0.9449  2.2339
  247MOL0     H34038   4.330  11.132   1.541 -0.6767  0.8455 -0.6615
  247MOL0     H34039   4.440  11.246   1.454 -4.4216 -1.1702 -1.5291
  247MOL0     H34040   4.465  11.145   1.735 -3.3173  1.8783 -1.5612
  247MOL0     H34041   4.578  11.110   1.593  3.0362  1.9537 -1.7177
  247MOL0     H34042   4.557  11.390   1.722  2.2119  1.3659  1.1480
  247MOL0     H34043   4.663  11.262   1.767 -0.1477 -0.0467 -1.4462
  247MOL0     H34044   4.713  11.528   1.780  3.5448  1.4221  4.1988
  247MOL0     H34045   4.980  11.738   1.887 -0.7887 -0.6283  1.2008
  247MOL0     H34046   4.814  11.696   1.912  1.2139  2.9462  2.4705
  247MOL0     H34047   4.843  11.809   1.781 -2.3427 -0.8849  0.6182
  247MOL0     H34048   5.173  11.986   1.443  0.3425 -0.1814  0.8436
  247MOL0     H34049   5.371  12.125   1.401  0.2821 -0.6586 -1.1295
  247MOL0     H34050   5.590  12.082   1.203 -0.0616 -0.1230  0.3967
  247MOL0     H34051   5.513  12.211   1.297  1.4798  3.5026 -2.6282
  247MOL0     H34052   5.753  12.259   1.396  0.5655  1.1548 -0.4233
  247MOL0     H34053   5.816  12.149   1.268  2.1565  2.1678 -0.5565
  247MOL0     H34054   5.628  12.360   1.168 -1.0829  1.1292  2.2272
  247MOL0     H34055   5.784  12.303   1.114  0.9577  2.9399  0.9170
  247MOL0     H34056   5.916  12.445   1.263 -0.1222 -0.1677  0.8844
  247MOL0     H34057   5.772  12.492   1.342  2.3190 -5.0887  2.3613
  247MOL0     H34058   5.792  12.506   1.029 -2.2962 -0.3559  0.0144
  247MOL0     H34059   5.689  12.599   1.142  0.0612 -1.1977  2.4773
  247MOL0     H34060   5.911  12.713   1.043 -1.3653 -2.4296 -0.6106
  247MOL0     H34061   5.996  12.615   1.156  0.5555 -1.3501 -2.6970
  247MOL0     H34062   5.838  12.691   1.341 -2.1066 -1.8092 -2.1832
  247MOL0     H34063   5.764  12.808   1.230 -1.1849 -2.4428 -2.9974
  247MOL0     H34064   6.068  12.788   1.264  0.2693 -0.5052  1.1084
  247MOL0     H34065   5.965  12.903   1.358  1.5338 -0.7211  0.7661
  247MOL0     H34066   5.632  11.802   1.458 -1.3386 -1.9380 -1.5906
  247MOL0     H34067   5.446  11.661   1.541  1.0179  0.5601  2.1335
  247MOL0     H34068   5.079  11.499   1.463  1.0258 -0.1929  0.5325
  247MOL0     H34069   4.922  11.356   1.447 -0.2380  0.4857 -0.6144
  247MOL0     H34070   2.954  11.241   1.639  1.9584  2.2426 -3.4735
  247MOL0     H34071   2.826  11.051   1.744  0.4293  0.6381  0.5106
  247MOL0     H34072   2.399  10.836   1.666  1.9454  1.1755  1.4345
  247MOL0     H34073   2.220  10.774   1.795  1.1422  3.6599  0.8510
  247MOL0     H34074   2.100  10.747   1.958  2.1557 -0.2889 -0.2535
  247MOL0     H34075   2.077  10.577   1.946  0.5784  0.3128 -0.8211
  247MOL0     H34076   2.030  10.754   2.196  0.9311 -1.7326  3.4102
  247MOL0     H34077   2.033  10.573   2.190  0.7818 -2.0863 -2.5416
  247MOL0     H34078   1.855  10.770   2.050 -0.7236  0.6628  2.6202
  247MOL0     H34079   1.853  10.601   2.000  2.5363  0.5781 -0.8522
  247MOL0     H34080   1.809  10.558   2.261  0.1618 -1.8110 -1.7723
  247MOL0     H34081   1.674  10.619   2.162  0.0126  3.2909 -0.4890
  247MOL0     H34082   1.766  10.957   2.414  0.7001  0.8387 -1.3477
  247MOL0     H34083   2.496  10.601   2.075  3.2960 -1.8701 -0.9068
  247MOL0     H34084   2.774  10.776   1.964 -0.7012  0.6962 -2.1559
  247MOL0     H34085   2.726  10.630   2.064  1.1741  0.9883  0.6195
  247MOL0     H34086   2.779  10.605   1.905 -1.6356  1.7237 -1.8893
  248MOL0     O34087   0.033   6.178   1.673 -0.0692 -0.3575  0.5256
  248MOL0     C34088  -0.059   6.192   1.756  0.2441  0.2977  0.4243
  248MOL0     O34089  -0.044   6.196   1.893  0.0737 -0.3933  0.4858
  248MOL0     C34090   0.077   6.163   1.952 -1.0879 -0.1763 -0.1575
  248MOL0     C34091   0.175   6.075   1.898 -0.6280 -0.2978 -0.0064
  248MOL0     C34092   0.288   6.059   1.971 -0.1319 -0.4136 -0.2515
  248MOL0     C34093   0.312   6.128   2.098 -0.3483  0.6364  0.3345
  248MOL0     O34094   0.429   6.097   2.160 -0.2052  0.4595  0.0895
  248MOL0     C34095   0.493   6.182   2.257 -0.8159 -0.0461 -0.6550
  248MOL0     C34096   0.643   6.170   2.247 -0.0799 -0.2919 -0.1969
  248MOL0     C34097   0.697   6.046   2.317  0.0154  0.0872  0.1627
  248MOL0     C34098   0.846   6.060   2.356 -0.2553 -0.3784 -0.0890
  248MOL0     C34099   0.889   5.937   2.427 -0.4524 -0.1402 -0.1675
  248MOL0     C34100   1.003   5.973   2.523 -0.3820  0.4759  1.0754
  248MOL0     C34101   1.027   5.860   2.630 -0.8504 -0.0338  1.1061
  248MOL0     C34102   1.114   5.749   2.575 -0.1314  1.2688 -1.4516
  248MOL0     N34103   1.186   5.677   2.688  0.6130 -0.7920  0.2019
  248MOL0     C34104   1.278   5.731   2.767  0.0581  0.1493  0.3543
  248MOL0     C34105   1.326   5.625   2.836  0.1963  0.1406 -0.8913
  248MOL0     C34106   1.452   5.632   2.925  0.9594  0.5256  0.2457
  248MOL0     C34107   1.444   5.730   3.050 -0.7366 -0.4755  0.0695
  248MOL0     C34108   1.585   5.749   3.096  0.7091 -0.0634  0.4589
  248MOL0     C34109   1.665   5.846   3.000 -0.5732  0.4097 -0.2570
  248MOL0     O34110   1.804   5.835   3.037  0.1528 -0.5075 -0.3000
  248MOL0     C34111   1.857   5.916   3.134 -0.7558 -0.3607 -0.4875
  248MOL0     C34112   1.993   5.929   3.145  0.1260 -0.0318  0.1657
  248MOL0     C34113   2.063   6.020   3.230 -0.2437 -0.5931  0.6262
  248MOL0     C34114   2.211   6.028   3.204  0.4178  0.0171  0.6863
  248MOL0     C34115   1.983   6.107   3.313  0.2933 -0.6678  0.5268
  248MOL0     C34116   2.039   6.188   3.416  0.3789  0.7847  0.1649
  248MOL0     O34117   1.951   6.275   3.469  0.9762  0.1150  0.0143
  248MOL0     C34118   1.971   6.362   3.575  0.6570  0.6210 -0.4406
  248MOL0     C34119   1.864   6.386   3.667 -0.2919  0.3569  0.2518
  248MOL0     C34120   1.880   6.459   3.784  0.0444 -0.0277  0.0243
  248MOL0     C34121   2.008   6.509   3.815  1.3142  0.3398  0.7941
  248MOL0     O34122   2.048   6.574   3.927 -0.6023  0.1082  0.1684
  248MOL0     C34123   1.946   6.581   4.027 -0.7287  0.0721  0.5865
  248MOL0     C34124   1.992   6.662   4.149  0.6638 -0.4173 -0.3427
  248MOL0     C34125   2.043   6.806   4.116 -0.2674 -0.6069  0.6275
  248MOL0     C34126   2.138   6.863   4.232  0.2134 -0.6620 -0.6678
  248MOL0     C34127   2.182   6.998   4.196 -0.6413  0.6103 -0.3354
  248MOL0     C34128   2.227   7.072   4.330 -0.5308 -0.6017  0.7498
  248MOL0     C34129   2.366   7.045   4.373  0.5138  0.1079 -0.0128
  248MOL0     C34130   2.390   7.107   4.513  0.4043 -0.3458  0.3170
  248MOL0    Cl34131   2.326   6.999   4.638 -0.0297 -0.4932 -0.2869
  248MOL0     C34132   2.114   6.480   3.728 -0.4837  0.0337  0.2708
  248MOL0     C34133   2.095   6.414   3.607  1.1355  0.5438 -0.5417
  248MOL0     O34134   2.154   6.172   3.456  1.0894 -0.0707  0.0464
  248MOL0     C34135   1.841   6.088   3.315  0.5434  0.1305  0.7966
  248MOL0     C34136   1.780   5.998   3.219  0.8406  0.1795 -0.3931
  248MOL0     N34137   1.250   5.511   2.805  0.0456 -0.7604  0.2576
  248MOL0     N34138   1.168   5.542   2.712  0.3526  0.1844  0.7437
  248MOL0     C34139   0.226   6.211   2.147 -0.4240  0.7560 -0.3458
  248MOL0     C34140   0.108   6.233   2.074  0.5389  0.5387 -0.4553
  248MOL0     C34141  -0.197   6.229   1.698 -0.2804 -0.6940 -0.0807
  248MOL0     C34142  -0.204   6.295   1.575  0.2883 -0.6220  0.7281
  248MOL0     C34143  -0.325   6.319   1.514  0.3256 -0.1044  0.0362
  248MOL0     C34144  -0.444   6.279   1.572 -0.6313  0.4996 -0.0399
  248MOL0     O34145  -0.558   6.302   1.509 -0.2284 -0.4443  0.5826
  248MOL0     C34146  -0.674   6.223   1.524 -0.6163  0.6311 -0.7743
  248MOL0     C34147  -0.764   6.259   1.416  0.0619 -1.2838 -0.0169
  248MOL0     C34148  -0.910   6.221   1.434  0.4717 -0.2894  0.4052
  248MOL0     C34149  -0.984   6.206   1.296 -0.3150  0.3967 -0.1918
  248MOL0     C34150  -0.942   6.075   1.238 -0.0903  0.4685  0.1717
  248MOL0     C34151  -0.916   5.966   1.187  1.0032  0.0122 -0.0344
  248MOL0     C34152  -0.436   6.232   1.700  0.7650  0.7540 -0.8256
  248MOL0     C34153  -0.316   6.204   1.770  0.4144  0.3502  0.3328
  248MOL0     C34154  -0.324   6.125   1.896  0.6595 -0.4136 -0.5678
  248MOL0     H34155   0.166   6.012   1.810 -0.7732 -2.6120  1.5974
  248MOL0     H34156   0.365   5.997   1.927  0.0296 -0.3248 -0.0983
  248MOL0     H34157   0.457   6.151   2.356  0.5388 -2.2063 -0.7700
  248MOL0     H34158   0.464   6.286   2.238 -0.1985  0.1927 -0.3399
  248MOL0     H34159   0.673   6.182   2.143  0.6279 -1.4476 -0.1433
  248MOL0     H34160   0.689   6.258   2.294  0.0277  0.4976 -1.7110
  248MOL0     H34161   0.649   6.031   2.415  1.4945 -0.8902  0.7748
  248MOL0     H34162   0.690   5.959   2.252  0.8333  0.7420 -0.8429
  248MOL0     H34163   0.909   6.073   2.268 -0.6626  4.2812  0.0765
  248MOL0     H34164   0.847   6.149   2.419  0.8960 -0.6977  0.3658
  248MOL0     H34165   0.909   5.861   2.351 -1.9775  1.4535 -2.2913
  248MOL0     H34166   0.797   5.910   2.481 -1.4126  2.6030 -0.2570
  248MOL0     H34167   1.084   5.993   2.453 -3.1203 -0.5689 -2.7224
  248MOL0     H34168   0.972   6.060   2.580  0.7874  0.3629  1.9149
  248MOL0     H34169   0.933   5.820   2.669  0.7091 -2.5474  2.5603
  248MOL0     H34170   1.091   5.900   2.709 -0.8504 -1.8358  2.0738
  248MOL0     H34171   1.045   5.682   2.522 -0.5166 -0.3307  0.9135
  248MOL0     H34172   1.189   5.783   2.502  2.3370  2.8964  1.6239
  248MOL0     H34173   1.308   5.833   2.788  0.7303  0.2574 -1.0122
  248MOL0     H34174   1.534   5.651   2.855  0.9000  3.0862  0.7883
  248MOL0     H34175   1.460   5.526   2.951  0.7146 -0.6754 -3.9066
  248MOL0     H34176   1.399   5.828   3.034  1.1355  0.4696  0.4318
  248MOL0     H34177   1.375   5.692   3.126 -1.5820  1.8576  0.5360
  248MOL0     H34178   1.587   5.781   3.201  2.6332  1.0855  0.1141
  248MOL0     H34179   1.632   5.650   3.093  0.7254 -0.0349 -1.6782
  248MOL0     H34180   1.649   5.810   2.898  2.1343 -3.6808  0.5042
  248MOL0     H34181   1.633   5.951   3.001 -3.1730 -0.3268  0.2279
  248MOL0     H34182   2.047   5.874   3.068  1.2718 -0.5834  1.3224
  248MOL0     H34183   2.244   6.132   3.207  1.2736 -0.2519  1.1420
  248MOL0     H34184   2.236   5.988   3.105 -2.0009 -0.0270  0.0465
  248MOL0     H34185   2.274   5.973   3.275 -1.0632 -0.7530  1.4434
  248MOL0     H34186   1.771   6.337   3.641 -0.8543  1.8628 -0.6931
  248MOL0     H34187   1.794   6.460   3.851 -0.2429  1.9153 -0.3175
  248MOL0     H34188   1.858   6.629   3.984 -0.3172  1.4289  1.2147
  248MOL0     H34189   1.907   6.485   4.064  1.0461 -0.2901  1.6459
  248MOL0     H34190   1.913   6.666   4.225  2.8809  1.6125  2.0775
  248MOL0     H34191   2.070   6.601   4.195  1.2370 -0.9285 -1.9231
  248MOL0     H34192   1.960   6.877   4.108  0.6290  0.5427  1.2120
  248MOL0     H34193   2.105   6.813   4.026  0.1125  1.3246  0.9735
  248MOL0     H34194   2.227   6.799   4.239 -0.0071 -0.8233  1.3283
  248MOL0     H34195   2.081   6.856   4.325  0.5714  0.2288 -0.3686
  248MOL0     H34196   2.267   6.996   4.128 -0.0040  1.0090  0.4329
  248MOL0     H34197   2.100   7.055   4.149 -0.1482  1.4496 -0.2031
  248MOL0     H34198   2.158   7.052   4.411 -0.9712  1.7252  1.0307
  248MOL0     H34199   2.218   7.180   4.311 -0.1518 -0.8337 -0.9905
  248MOL0     H34200   2.437   7.086   4.299  1.7091 -1.0816  0.4298
  248MOL0     H34201   2.384   6.937   4.382  0.1056  0.1824  2.0797
  248MOL0     H34202   2.341   7.203   4.532  1.9791  1.4044 -3.4900
  248MOL0     H34203   2.496   7.130   4.527  1.0344 -2.3425 -0.6998
  248MOL0     H34204   2.210   6.519   3.758 -1.7154  2.1893  1.6610
  248MOL0     H34205   2.184   6.396   3.548  1.0940  0.0832 -0.4715
  248MOL0     H34206   1.782   6.137   3.392  0.0648 -1.6193  1.5926
  248MOL0     H34207   1.672   5.988   3.219  0.9090 -1.2903  1.8512
  248MOL0     H34208   0.246   6.256   2.243  0.8682  0.0254 -0.2575
  248MOL0     H34209   0.028   6.297   2.111  0.2409 -1.8598  3.6009
  248MOL0     H34210  -0.113   6.308   1.518 -0.2939  2.8520  0.3859
  248MOL0     H34211  -0.333   6.365   1.416 -1.0659  0.5483  0.4384
  248MOL0     H34212  -0.652   6.117   1.508 -0.2609  0.8246 -1.6397
  248MOL0     H34213  -0.715   6.237   1.624  4.6153  4.3523  1.3073
  248MOL0     H34214  -0.720   6.237   1.319  1.7281  4.5551 -0.9886
  248MOL0     H34215  -0.770   6.369   1.416  0.4901 -1.2583 -0.4968
  248MOL0     H34216  -0.908   6.120   1.475  1.1321 -0.0381  1.0227
  248MOL0     H34217  -0.967   6.287   1.500 -0.4672  0.6047 -1.2347
  248MOL0     H34218  -0.967   6.283   1.219 -0.9407 -1.1921 -1.9891
  248MOL0     H34219  -1.092   6.206   1.312 -0.3692  0.8302 -0.5299
  248MOL0     H34220  -0.898   5.871   1.141  2.3337  0.0072  0.4474
  248MOL0     H34221  -0.533   6.227   1.749  1.2356 -0.7744  0.0222
  248MOL0     H34222  -0.415   6.065   1.896 -1.2681  2.2625  1.7305
  248MOL0     H34223  -0.241   6.053   1.904 -0.5220 -2.1141 -2.5898
  248MOL0     H34224  -0.315   6.196   1.978  1.4248 -1.5592  0.3720
  249MOL0     O34225   6.562   0.942   5.944  0.3666  0.0272  0.0738
  249MOL0     C34226   6.610   0.875   5.861 -1.1173  0.6107  1.3157
  249MOL0     O34227   6.737   0.828   5.865 -0.2371 -0.2272 -0.1487
  249MOL0     C34228   6.833   0.907   5.919  0.7584  0.4638  0.2688
  249MOL0     C34229   6.926   0.845   5.987  0.1224  0.4939  0.1450
  249MOL0     C34230   7.033   0.903   6.045 -0.4226  0.7332 -0.9088
  249MOL0     C34231   7.058   1.035   6.030  0.5233 -0.6664 -0.0180
  249MOL0     O34232   7.165   1.096   6.098 -0.6099 -0.5239 -1.0578
  249MOL0     C34233   7.191   1.234   6.087 -0.4112 -0.4042 -0.2352
  249MOL0     C34234   7.314   1.258   6.181 -0.8038  0.3670 -0.7181
  249MOL0     C34235   7.440   1.171   6.148 -0.2857  0.5382  0.1880
  249MOL0     C34236   7.556   1.195   6.236  1.0636 -0.1389  0.6909
  249MOL0     C34237   7.685   1.144   6.167 -0.0920 -0.5127 -0.5796
  249MOL0     C34238   7.776   1.067   6.267  0.1350 -0.7358 -0.0952
  249MOL0     C34239   7.897   0.995   6.210 -0.1082  0.2808 -0.6358
  249MOL0     C34240   7.984   1.086   6.135 -0.6165 -0.2475  0.0024
  249MOL0     N34241   8.119   1.031   6.106 -0.1619 -0.1542 -0.5328
  249MOL0     C34242   8.235   1.061   6.177 -0.0362  0.0268  0.0834
  249MOL0     C34243   8.323   0.971   6.119 -0.3481 -0.0234 -0.9433
  249MOL0     C34244   8.463   0.950   6.164 -0.0675 -0.4000  0.4719
  249MOL0     C34245   8.480   0.837   6.251 -0.4371 -1.0057  0.3795
  249MOL0     C34246   8.448   0.862   6.395  0.8704  0.6818  0.7365
  249MOL0     C34247   8.348   0.765   6.458 -0.5835  0.6364  0.2082
  249MOL0     O34248   8.381   0.620   6.470 -0.2231  0.3613  0.2346
  249MOL0     C34249   8.481   0.578   6.552 -0.2492 -0.0926  0.5710
  249MOL0     C34250   8.518   0.444   6.545 -0.5279 -0.0343 -0.3336
  249MOL0     C34251   8.598   0.399   6.643 -0.3849 -0.0532 -0.2738
  249MOL0     C34252   8.626   0.244   6.635  0.4279  0.6172  0.1339
  249MOL0     C34253   8.657   0.477   6.742  0.3171  0.0097  0.4884
  249MOL0     C34254   8.750   0.431   6.847 -0.0237 -0.7736 -0.2318
  249MOL0     O34255   8.762   0.527   6.952 -0.3326 -0.2880  0.0743
  249MOL0     C34256   8.847   0.504   7.060 -0.2531 -0.3948 -0.2971
  249MOL0     C34257   8.874   0.377   7.125  0.2656 -0.2292  0.2186
  249MOL0     C34258   8.960   0.363   7.234  0.3676 -0.1165 -0.7252
  249MOL0     C34259   9.028   0.479   7.280 -0.3958 -0.3089  0.5447
  249MOL0     O34260   9.121   0.456   7.379 -0.8269 -0.3096  0.5637
  249MOL0     C34261   9.266   0.487   7.357  0.8196  0.1787 -0.2483
  249MOL0     C34262   9.361   0.424   7.473  1.4415 -0.3903 -0.2084
  249MOL0     C34263   9.481   0.509   7.481  0.1751 -0.3316 -0.1072
  249MOL0     C34264   9.556   0.478   7.352 -0.2010 -0.4776 -0.1159
  249MOL0     C34265   9.696   0.527   7.357  0.6466 -0.3855  0.3539
  249MOL0     C34266   9.785   0.479   7.475  0.3659  1.1320  0.2362
  249MOL0     C34267   9.922   0.526   7.470 -0.2422 -0.4385  0.2574
  249MOL0     C34268  10.004   0.467   7.581 -0.7387  0.9198 -0.1443
  249MOL0    Cl34269  10.060   0.296   7.533  0.3774  0.4091  0.1347
  249MOL0     C34270   9.010   0.608   7.220  0.0552  1.0819  0.2600
  249MOL0     C34271   8.922   0.614   7.110 -1.6402 -0.5525  0.9166
  249MOL0     O34272   8.812   0.326   6.839 -0.5189 -0.2318 -0.3185
  249MOL0     C34273   8.623   0.614   6.738  0.3123 -0.0101 -0.0057
  249MOL0     C34274   8.542   0.665   6.640  0.1269  0.3913  0.8848
  249MOL0     N34275   8.249   0.890   6.032 -0.3399 -0.3748 -0.0890
  249MOL0     N34276   8.131   0.932   6.018  0.4268 -0.2655 -0.3662
  249MOL0     C34277   6.959   1.108   5.967  0.1450 -0.2575 -0.5387
  249MOL0     C34278   6.841   1.046   5.922 -0.1681 -1.0285  0.0864
  249MOL0     C34279   6.534   0.840   5.741  0.5837  0.3534  0.6218
  249MOL0     C34280   6.600   0.766   5.639 -0.5293 -0.0982 -0.2456
  249MOL0     C34281   6.543   0.729   5.522 -0.4511  0.2786 -0.3106
  249MOL0     C34282   6.407   0.749   5.498 -0.2804 -0.3316  0.6947
  249MOL0     O34283   6.378   0.723   5.368  0.7053 -0.2797 -0.0048
  249MOL0     C34284   6.247   0.675   5.331 -0.1016  0.8321 -0.0011
  249MOL0     C34285   6.160   0.783   5.276  1.0623 -0.4684 -0.1792
  249MOL0     C34286   6.026   0.733   5.223  0.1430  0.8756  0.2325
  249MOL0     C34287   6.033   0.653   5.094  0.5268 -0.4015 -0.0689
  249MOL0     C34288   5.906   0.639   5.011  0.4018  0.9537  0.2375
  249MOL0     C34289   5.811   0.617   4.944  0.5724  0.3802 -0.2026
  249MOL0     C34290   6.335   0.824   5.591 -0.1701 -0.4821  0.0075
  249MOL0     C34291   6.397   0.865   5.715 -0.1435 -0.1913  0.2486
  249MOL0     C34292   6.303   0.931   5.813 -1.0912 -0.0530  0.2099
  249MOL0     H34293   6.925   0.739   6.010  0.6187  1.0332  3.0551
  249MOL0     H34294   7.107   0.844   6.097  2.9723  3.8831 -1.7076
  249MOL0     H34295   7.103   1.293   6.116 -0.7513 -0.1151 -1.7510
  249MOL0     H34296   7.203   1.257   5.981 -2.7120 -0.7742 -0.6258
  249MOL0     H34297   7.353   1.360   6.172 -0.6507  0.3625 -0.1031
  249MOL0     H34298   7.286   1.236   6.284  2.1328 -1.8676 -0.2609
  249MOL0     H34299   7.417   1.064   6.137  0.0294  0.6925 -3.1887
  249MOL0     H34300   7.470   1.196   6.046  2.1691 -1.2817  0.3769
  249MOL0     H34301   7.553   1.302   6.257 -0.7296  0.5894 -2.6176
  249MOL0     H34302   7.537   1.139   6.328 -4.5979 -0.2041 -0.1861
  249MOL0     H34303   7.731   1.228   6.115  0.8264  0.5139  1.7378
  249MOL0     H34304   7.668   1.071   6.087 -1.3412  1.3034 -2.0421
  249MOL0     H34305   7.810   1.131   6.349 -1.0758  0.4991 -0.5351
  249MOL0     H34306   7.708   0.993   6.311 -4.4937  3.1932  0.0854
  249MOL0     H34307   7.864   0.908   6.151  0.4495  2.1425 -3.9147
  249MOL0     H34308   7.963   0.957   6.289  0.4448  0.9354 -0.7791
  249MOL0     H34309   7.935   1.101   6.038 -0.3299 -1.1997 -0.3034
  249MOL0     H34310   8.009   1.171   6.198  2.5450 -1.6585  0.8688
  249MOL0     H34311   8.256   1.137   6.251 -1.2021 -0.3353  0.8085
  249MOL0     H34312   8.502   1.041   6.212 -1.4529  0.5960 -0.2057
  249MOL0     H34313   8.521   0.930   6.073 -1.3101  1.5455 -0.8333
  249MOL0     H34314   8.415   0.756   6.218 -2.4018  1.3690 -2.1372
  249MOL0     H34315   8.582   0.804   6.230  0.0344  1.7410 -2.5367
  249MOL0     H34316   8.546   0.848   6.442  1.0419 -3.5768 -0.4524
  249MOL0     H34317   8.409   0.963   6.411 -2.7848 -0.4035 -0.4469
  249MOL0     H34318   8.315   0.803   6.555 -0.6165 -0.1655  0.5194
  249MOL0     H34319   8.262   0.759   6.390 -0.7562  1.6078  0.3201
  249MOL0     H34320   8.466   0.376   6.479 -1.1284 -2.5519  2.5274
  249MOL0     H34321   8.718   0.236   6.576 -0.5025 -1.9252 -1.1290
  249MOL0     H34322   8.547   0.195   6.578  0.9701  0.5792 -0.6015
  249MOL0     H34323   8.628   0.201   6.736 -0.6551 -0.5475 -0.3131
  249MOL0     H34324   8.825   0.284   7.101  1.5987 -0.2522 -2.7992
  249MOL0     H34325   8.976   0.271   7.289 -0.6235 -1.4529 -2.5492
  249MOL0     H34326   9.301   0.442   7.263  2.1386 -1.4815  0.9844
  249MOL0     H34327   9.266   0.595   7.345  0.1725  0.1414 -0.6729
  249MOL0     H34328   9.305   0.424   7.567  0.5569  1.9123 -0.6602
  249MOL0     H34329   9.382   0.318   7.457 -0.9714 -1.0555  0.5147
  249MOL0     H34330   9.541   0.467   7.562 -1.2118 -0.5225  0.8448
  249MOL0     H34331   9.455   0.614   7.499 -0.6775 -0.6884  0.8090
  249MOL0     H34332   9.509   0.535   7.272 -0.0002  1.0741  0.8152
  249MOL0     H34333   9.558   0.373   7.320  3.5639 -0.2135 -1.1949
  249MOL0     H34334   9.737   0.492   7.262 -3.5118 -1.4136 -1.2866
  249MOL0     H34335   9.689   0.636   7.356  0.3650 -0.3496 -3.0238
  249MOL0     H34336   9.778   0.370   7.478 -0.7700  1.2140  1.5863
  249MOL0     H34337   9.748   0.513   7.572 -0.5254 -4.3731  2.2095
  249MOL0     H34338   9.908   0.633   7.488 -0.4943 -0.5450  0.7033
  249MOL0     H34339   9.974   0.499   7.377  1.6614 -1.2128  1.4973
  249MOL0     H34340   9.951   0.464   7.677  1.3502 -0.1456  1.0518
  249MOL0     H34341  10.097   0.525   7.588  0.5185 -1.1643  2.0969
  249MOL0     H34342   9.054   0.696   7.265  0.0533  0.2708  1.9265
  249MOL0     H34343   8.910   0.708   7.058  1.4768  0.2254  1.4103
  249MOL0     H34344   8.654   0.682   6.817 -3.1278  2.7646 -0.7680
  249MOL0     H34345   8.503   0.765   6.658 -2.4718 -0.3427 -0.2257
  249MOL0     H34346   6.971   1.215   5.953  1.4312 -0.5820 -2.2539
  249MOL0     H34347   6.761   1.102   5.875  0.0521 -0.2174  0.6660
  249MOL0     H34348   6.706   0.744   5.653 -1.0323 -1.2806  2.1841
  249MOL0     H34349   6.601   0.675   5.448 -1.1159 -2.7527  1.2168
  249MOL0     H34350   6.269   0.611   5.245 -0.3535  2.9636 -1.7509
  249MOL0     H34351   6.195   0.611   5.403 -0.7864  2.8510  1.4028
  249MOL0     H34352   6.221   0.838   5.204  0.4092 -1.5714 -1.6161
  249MOL0     H34353   6.122   0.853   5.352 -1.0756 -3.1518  1.4477
  249MOL0     H34354   5.968   0.678   5.298  1.5226  0.0138  0.7161
  249MOL0     H34355   5.962   0.817   5.196  0.6514  1.4693  0.8468
  249MOL0     H34356   6.075   0.553   5.106  3.6279  0.7856 -0.1657
  249MOL0     H34357   6.102   0.709   5.031 -1.8296  2.4456 -0.3301
  249MOL0     H34358   5.715   0.598   4.900 -0.5038  2.6819  0.9150
  249MOL0     H34359   6.238   0.867   5.568 -1.1061 -1.7387  1.4357
  249MOL0     H34360   6.318   0.901   5.917  0.3844  0.3651  0.1336
  249MOL0     H34361   6.319   1.039   5.805 -0.3806 -0.1891 -0.2285
  249MOL0     H34362   6.199   0.908   5.785 -1.3139  0.5009  0.5516
  250MOL0     O34363  10.552   4.255   4.436  0.4783  0.1344  0.6219
  250MOL0     C34364  10.645   4.329   4.406  0.3124  0.3663 -1.1066
  250MOL0     O34365  10.637   4.464   4.430  0.0294 -0.2577 -0.0755
  250MOL0     C34366  10.523   4.537   4.469  0.6354  0.8769  0.3223
  250MOL0     C34367  10.390   4.491   4.456 -0.1213 -0.7094  1.0292
  250MOL0     C34368  10.280   4.564   4.515  0.0060 -0.0843 -0.3074
  250MOL0     C34369  10.303   4.692   4.568  0.5817  0.0709 -0.0402
  250MOL0     O34370  10.198   4.758   4.632  0.3356 -0.5168 -0.2654
  250MOL0     C34371  10.227   4.890   4.663  1.0441  0.4141  0.8122
  250MOL0     C34372  10.108   4.963   4.735  1.2834  1.1387 -0.7233
  250MOL0     C34373  10.070   4.901   4.870 -0.2227 -0.4374 -1.2206
  250MOL0     C34374   9.954   4.969   4.944  0.0738  0.1980  0.0486
  250MOL0     C34375   9.816   4.912   4.879  0.4566 -0.8662 -0.3639
  250MOL0     C34376   9.684   4.974   4.942  0.0121  0.1804  0.1958
  250MOL0     C34377   9.565   4.888   4.883 -0.6168 -0.4048 -0.5569
  250MOL0     C34378   9.517   4.786   4.995  0.1833 -0.6033  0.8394
  250MOL0     N34379   9.370   4.770   4.998 -0.4091  0.1362 -0.1881
  250MOL0     C34380   9.321   4.668   4.921  0.4731  0.1786 -0.6269
  250MOL0     C34381   9.189   4.688   4.920 -0.5603 -0.2331 -0.5912
  250MOL0     C34382   9.082   4.588   4.878 -0.4050  0.3311  0.8671
  250MOL0     C34383   9.097   4.578   4.727  0.4444 -0.6920 -0.5512
  250MOL0     C34384   9.006   4.488   4.637  0.6983  0.2673 -0.0596
  250MOL0     C34385   8.849   4.529   4.631 -0.4690  0.5696 -0.2478
  250MOL0     O34386   8.796   4.406   4.582 -0.1230 -0.1169  0.2227
  250MOL0     C34387   8.675   4.412   4.529  0.4880 -0.6913  0.4799
  250MOL0     C34388   8.584   4.503   4.553  0.3919  0.3590 -0.3885
  250MOL0     C34389   8.461   4.509   4.486  0.2176  0.7493 -0.0867
  250MOL0     C34390   8.364   4.617   4.544  0.2556  0.4239  0.8439
  250MOL0     C34391   8.432   4.416   4.389  0.3254 -0.0913  0.0644
  250MOL0     C34392   8.304   4.404   4.313  0.2695  0.3793 -0.3044
  250MOL0     O34393   8.303   4.322   4.208  0.1698  0.1381  0.3385
  250MOL0     C34394   8.182   4.289   4.156  0.0087 -0.1083  0.6167
  250MOL0     C34395   8.133   4.360   4.049  0.3928 -0.4225 -0.0081
  250MOL0     C34396   8.013   4.330   3.982 -0.0287 -0.1605 -0.3953
  250MOL0     C34397   7.941   4.218   4.034  0.9006 -0.3540 -0.0905
  250MOL0     O34398   7.829   4.169   3.972  0.4114  0.2015 -0.8250
  250MOL0     C34399   7.790   4.237   3.851 -0.7833  0.7482 -0.1258
  250MOL0     C34400   7.685   4.152   3.789  0.0218 -0.1855  0.4196
  250MOL0     C34401   7.640   4.206   3.659  0.4132  0.0246 -0.3056
  250MOL0     C34402   7.573   4.089   3.583 -0.0927 -0.6664  1.9903
  250MOL0     C34403   7.521   4.116   3.443  0.5496 -0.8083  0.1508
  250MOL0     C34404   7.634   4.165   3.346 -0.0852  0.3389  0.0979
  250MOL0     C34405   7.620   4.317   3.315  0.1353  0.3595  0.3090
  250MOL0     C34406   7.529   4.333   3.191 -0.2628  0.6717  0.1862
  250MOL0    Cl34407   7.485   4.509   3.197 -0.6028  0.7705  0.3449
  250MOL0     C34408   7.985   4.153   4.156  0.2669 -0.2711 -0.1756
  250MOL0     C34409   8.107   4.192   4.215 -1.0445 -0.4163  0.0259
  250MOL0     O34410   8.217   4.487   4.339  0.3383  0.3453 -0.4429
  250MOL0     C34411   8.521   4.315   4.364  0.5118  0.4017 -0.1878
  250MOL0     C34412   8.638   4.316   4.438 -0.5057  0.5991 -0.1735
  250MOL0     N34413   9.157   4.815   4.980  0.4430  0.1264  0.2873
  250MOL0     N34414   9.272   4.861   5.022  0.5554  0.0686 -0.6567
  250MOL0     C34415  10.432   4.741   4.557  0.3741 -0.1785 -0.5434
  250MOL0     C34416  10.546   4.664   4.522  0.7572 -0.6332 -0.2523
  250MOL0     C34417  10.767   4.256   4.363  0.4087 -0.6421 -0.0090
  250MOL0     C34418  10.763   4.191   4.248 -1.0174  0.8129  0.2040
  250MOL0     C34419  10.878   4.132   4.203  0.4204  0.7605  0.2819
  250MOL0     C34420  11.005   4.149   4.262 -0.1762 -0.0886  0.0602
  250MOL0     O34421  11.128   4.095   4.230  0.4422 -0.7040  0.7091
  250MOL0     C34422  11.151   4.015   4.113 -0.4432  0.2663  0.6633
  250MOL0     C34423  11.179   4.113   4.000  0.0676 -0.4602 -0.4592
  250MOL0     C34424  11.308   4.203   4.036 -0.1426  0.5126  0.1302
  250MOL0     C34425  11.345   4.297   3.922  0.4202  0.3872  0.8695
  250MOL0     C34426  11.433   4.410   3.963 -0.3771 -0.0426 -0.0078
  250MOL0     C34427  11.500   4.503   4.000  0.3184 -0.4757 -0.2585
  250MOL0     C34428  11.007   4.220   4.376 -0.0596 -0.4296  0.1669
  250MOL0     C34429  10.893   4.276   4.431 -0.5003  0.4706 -0.4148
  250MOL0     C34430  10.886   4.334   4.571 -0.1961 -0.6340  0.5585
  250MOL0     H34431  10.378   4.404   4.392  0.6320  1.6215 -2.5777
  250MOL0     H34432  10.176   4.532   4.514  0.4824 -1.7904  0.5691
  250MOL0     H34433  10.249   4.942   4.569  1.1733 -1.6712 -0.3532
  250MOL0     H34434  10.313   4.902   4.729  0.8722 -0.6211  1.2407
  250MOL0     H34435  10.130   5.066   4.765  0.2691  1.0270  0.4407
  250MOL0     H34436  10.022   4.961   4.668  0.9558  0.5491 -0.2871
  250MOL0     H34437  10.053   4.794   4.863  0.2820 -0.6327  0.1753
  250MOL0     H34438  10.154   4.920   4.938 -0.9959  2.0424 -0.8264
  250MOL0     H34439   9.961   4.930   5.046  0.7874  0.3471  0.0595
  250MOL0     H34440   9.962   5.078   4.948  2.6696  0.0731 -0.4013
  250MOL0     H34441   9.804   4.803   4.884 -5.4310 -0.4893  1.3791
  250MOL0     H34442   9.802   4.937   4.774  0.7125 -1.8496 -0.6469
  250MOL0     H34443   9.693   4.965   5.050  1.2948 -2.8284 -0.0731
  250MOL0     H34444   9.672   5.080   4.917  0.4230 -0.0018 -0.8526
  250MOL0     H34445   9.590   4.834   4.791 -0.4935 -2.6932  0.7481
  250MOL0     H34446   9.489   4.966   4.870  0.3238  0.7916  0.7533
  250MOL0     H34447   9.565   4.693   4.963  2.4376  0.8264 -0.1844
  250MOL0     H34448   9.544   4.814   5.097  0.6767  0.0828  0.5310
  250MOL0     H34449   9.379   4.589   4.875  1.3660  1.0053 -0.9749
  250MOL0     H34450   8.986   4.627   4.915  0.5762 -0.1236  4.2041
  250MOL0     H34451   9.098   4.491   4.924  1.6175  0.5228  0.6436
  250MOL0     H34452   9.080   4.681   4.694  1.2520 -0.2675  0.3170
  250MOL0     H34453   9.201   4.552   4.704  0.4115  0.3467 -2.0303
  250MOL0     H34454   9.046   4.490   4.535 -0.7218 -0.6961 -0.6726
  250MOL0     H34455   9.011   4.383   4.668 -2.4171  0.3795  1.1358
  250MOL0     H34456   8.804   4.544   4.730  0.4455  0.8126  0.1452
  250MOL0     H34457   8.840   4.617   4.567  1.6573 -0.6221 -2.3318
  250MOL0     H34458   8.607   4.577   4.629 -2.6319 -0.5238  1.5169
  250MOL0     H34459   8.327   4.679   4.462 -0.2953 -2.2605 -1.0856
  250MOL0     H34460   8.402   4.681   4.624  2.6391  0.4084 -0.1700
  250MOL0     H34461   8.275   4.567   4.582 -0.7668  0.9386 -0.7867
  250MOL0     H34462   8.175   4.456   4.020 -2.1035 -0.4979 -5.0103
  250MOL0     H34463   7.980   4.384   3.894 -0.9306  0.7861  0.4894
  250MOL0     H34464   7.752   4.338   3.870 -0.3709  1.2888 -1.9768
  250MOL0     H34465   7.870   4.235   3.775 -1.9786 -0.9921 -1.4143
  250MOL0     H34466   7.726   4.056   3.756  1.4117  1.1077 -1.8637
  250MOL0     H34467   7.601   4.134   3.857 -2.1002 -0.0842 -2.0066
  250MOL0     H34468   7.727   4.250   3.608  1.8372  3.1243  4.1343
  250MOL0     H34469   7.569   4.287   3.679 -0.4457 -0.5785 -0.8784
  250MOL0     H34470   7.493   4.044   3.642 -1.6878  0.4436  0.7673
  250MOL0     H34471   7.653   4.018   3.561  1.4303  1.6394 -0.6984
  250MOL0     H34472   7.478   4.021   3.411 -0.5636 -0.4583  0.5575
  250MOL0     H34473   7.440   4.189   3.448  0.1563 -1.0670 -1.6979
  250MOL0     H34474   7.624   4.112   3.251  1.8396 -0.0812  0.0911
  250MOL0     H34475   7.732   4.148   3.391  0.1364  0.9518 -0.1474
  250MOL0     H34476   7.725   4.343   3.298  0.6266 -2.4762 -1.6453
  250MOL0     H34477   7.571   4.374   3.395 -2.4880  0.4172 -1.2329
  250MOL0     H34478   7.444   4.267   3.211 -1.3627  1.7273 -0.8268
  250MOL0     H34479   7.574   4.307   3.094  0.0400  2.3771 -0.1613
  250MOL0     H34480   7.932   4.067   4.197  0.3259  0.1252  0.7703
  250MOL0     H34481   8.150   4.142   4.301  0.2681 -1.5206 -1.2079
  250MOL0     H34482   8.500   4.236   4.292  1.3591  1.0294 -1.1619
  250MOL0     H34483   8.712   4.239   4.421  0.0365  1.2614 -0.9012
  250MOL0     H34484  10.452   4.841   4.595 -0.8396  0.1565 -0.7454
  250MOL0     H34485  10.650   4.692   4.534  0.4347  1.9323 -2.6079
  250MOL0     H34486  10.674   4.191   4.186 -0.9981  0.8924  0.1761
  250MOL0     H34487  10.878   4.063   4.119 -1.1936  1.3340 -0.2274
  250MOL0     H34488  11.226   3.937   4.128 -0.1600 -0.2986 -2.9733
  250MOL0     H34489  11.064   3.960   4.079 -0.2894  2.5829 -4.3057
  250MOL0     H34490  11.095   4.179   3.979 -0.2770 -0.1163  1.7765
  250MOL0     H34491  11.212   4.065   3.907 -1.2520  0.9740 -1.7212
  250MOL0     H34492  11.279   4.274   4.114  2.2972  1.4615  0.2465
  250MOL0     H34493  11.398   4.159   4.080  0.2296  2.3423  1.2815
  250MOL0     H34494  11.251   4.320   3.871  1.3836 -0.2195 -1.2996
  250MOL0     H34495  11.402   4.242   3.846 -1.5698 -0.1466 -0.3185
  250MOL0     H34496  11.553   4.595   4.012 -2.7648  1.6674 -1.6239
  250MOL0     H34497  11.095   4.242   4.434 -2.4516  4.7098  2.4557
  250MOL0     H34498  10.989   4.325   4.609 -0.3436 -1.1918  0.8313
  250MOL0     H34499  10.868   4.442   4.561  2.3662 -0.2041 -0.1531
  250MOL0     H34500  10.812   4.288   4.637 -2.3045  1.8046  0.0770
  251MOL0     O34501   3.957   9.212   1.762  0.5923 -0.4532 -0.1725
  251MOL0     C34502   4.016   9.111   1.731  0.2934  0.0662 -0.3629
  251MOL0     O34503   3.967   9.007   1.658  0.2618  0.3301  0.0836
  251MOL0     C34504   3.839   9.010   1.599  0.3066  0.3903  0.2857
  251MOL0     C34505   3.816   8.930   1.480  0.4190 -0.2710 -0.6879
  251MOL0     C34506   3.687   8.912   1.426 -0.6750 -0.8774 -0.0080
  251MOL0     C34507   3.576   8.978   1.484  0.3432  0.0716 -0.5228
  251MOL0     O34508   3.454   8.955   1.423  0.0962 -1.0811 -0.3853
  251MOL0     C34509   3.353   9.055   1.429  0.4225  0.2261 -1.2260
  251MOL0     C34510   3.392   9.191   1.361 -0.1863 -0.4103  0.1844
  251MOL0     C34511   3.437   9.168   1.217  0.0000 -0.3174 -0.1594
  251MOL0     C34512   3.325   9.146   1.130  0.2654  0.7449 -0.2304
  251MOL0     C34513   3.379   9.062   1.017 -0.3212  0.5248  0.4900
  251MOL0     C34514   3.482   9.134   0.931 -0.0953 -0.7860 -0.7121
  251MOL0     C34515   3.488   9.070   0.792  0.4965 -0.2169 -0.7692
  251MOL0     C34516   3.574   8.940   0.796 -0.4786  0.4495  0.2469
  251MOL0     N34517   3.704   8.949   0.871  0.6652 -0.2616  0.5457
  251MOL0     C34518   3.800   9.037   0.828 -0.1077 -0.2294  0.9601
  251MOL0     C34519   3.900   9.015   0.914  0.1544 -0.3016  0.3107
  251MOL0     C34520   4.039   9.069   0.918 -0.3812 -0.1900  0.8646
  251MOL0     C34521   4.151   9.006   1.006  0.0963 -0.5087  0.0203
  251MOL0     C34522   4.277   9.097   1.013  0.3499  0.7325  0.1678
  251MOL0     C34523   4.411   9.021   1.052 -0.7945 -0.0322 -0.7537
  251MOL0     O34524   4.534   9.096   1.020  0.4424 -0.8727 -0.1107
  251MOL0     C34525   4.659   9.053   1.052  0.2438 -0.7474  0.7532
  251MOL0     C34526   4.679   8.939   1.135  0.9046 -0.6924 -1.0957
  251MOL0     C34527   4.807   8.893   1.165  1.0962  0.2824  0.0943
  251MOL0     C34528   4.823   8.766   1.247 -0.5441 -0.3871 -0.1302
  251MOL0     C34529   4.915   8.963   1.116  0.3693 -0.2139 -0.4721
  251MOL0     C34530   5.056   8.919   1.129  0.1864  0.9079 -0.5315
  251MOL0     O34531   5.153   9.018   1.159  0.0349  1.1339  0.6135
  251MOL0     C34532   5.270   8.968   1.207  1.0728 -0.5348 -0.5849
  251MOL0     C34533   5.288   8.866   1.307  0.3655  0.2821 -0.5780
  251MOL0     C34534   5.415   8.828   1.364  0.0062 -0.3162 -0.1299
  251MOL0     C34535   5.524   8.902   1.321 -0.3007  0.6371 -0.6354
  251MOL0     O34536   5.653   8.864   1.360  0.1661  0.5810  0.3010
  251MOL0     C34537   5.744   8.968   1.390  0.0361 -0.2225  0.5515
  251MOL0     C34538   5.861   8.962   1.300 -1.0075 -0.3878  1.3343
  251MOL0     C34539   5.960   8.857   1.334  0.0746  0.1328  0.7015
  251MOL0     C34540   6.081   8.864   1.243 -0.5769  0.2480  0.4004
  251MOL0     C34541   6.190   8.763   1.279 -1.0111 -0.5749  0.0517
  251MOL0     C34542   6.320   8.799   1.197  0.8440 -0.0950  0.3519
  251MOL0     C34543   6.423   8.700   1.229 -0.2825  0.1336 -0.0266
  251MOL0     C34544   6.548   8.721   1.142 -0.1556 -0.0334 -0.1144
  251MOL0    Cl34545   6.609   8.874   1.154 -0.0249 -0.0971  0.1650
  251MOL0     C34546   5.508   9.002   1.221  0.3210  0.5073 -0.0134
  251MOL0     C34547   5.384   9.024   1.163 -0.0018 -0.4683 -0.0281
  251MOL0     O34548   5.079   8.797   1.107  0.4450  0.0559  0.4038
  251MOL0     C34549   4.893   9.081   1.038  0.5795  0.7970  0.1853
  251MOL0     C34550   4.771   9.119   1.006  0.3618 -0.7457 -0.0670
  251MOL0     N34551   3.856   8.915   1.000 -0.4107 -0.5146  0.0602
  251MOL0     N34552   3.736   8.896   0.985 -0.3394  0.2693 -0.7439
  251MOL0     C34553   3.606   9.071   1.586  0.4187  0.0630 -1.0541
  251MOL0     C34554   3.730   9.088   1.647 -0.3338  0.8884  0.1295
  251MOL0     C34555   4.147   9.102   1.795  0.2066 -0.8196 -0.1242
  251MOL0     C34556   4.220   8.987   1.770  0.4303  0.2562 -0.0471
  251MOL0     C34557   4.344   8.960   1.825 -0.5650  0.7400 -0.9187
  251MOL0     C34558   4.405   9.051   1.908  1.1968 -0.4721 -0.1990
  251MOL0     O34559   4.520   9.008   1.971 -0.7870  0.1743  0.3463
  251MOL0     C34560   4.575   9.092   2.072 -0.2772  0.2632 -0.0732
  251MOL0     C34561   4.712   9.050   2.105 -1.0273 -0.1094 -0.5273
  251MOL0     C34562   4.800   9.083   1.985 -1.1001  0.4895 -0.5618
  251MOL0     C34563   4.938   9.026   2.005 -0.2076 -0.6393 -0.1640
  251MOL0     C34564   5.015   9.094   2.111  0.2792  0.6073 -0.0334
  251MOL0     C34565   5.074   9.136   2.204  0.2201  0.6009  0.0028
  251MOL0     C34566   4.339   9.180   1.928 -0.2113  0.7600  0.2945
  251MOL0     C34567   4.211   9.202   1.876  0.1265 -0.3810  0.8572
  251MOL0     C34568   4.153   9.336   1.911  0.0480  0.4653 -0.7611
  251MOL0     H34569   3.905   8.880   1.441  1.8849 -0.8747  3.0103
  251MOL0     H34570   3.685   8.856   1.333  2.5210 -2.6502  0.8388
  251MOL0     H34571   3.335   9.061   1.537  0.5929  1.0230 -1.2309
  251MOL0     H34572   3.256   9.023   1.390  0.4460 -0.2210 -0.9261
  251MOL0     H34573   3.312   9.263   1.375  1.5300  1.3346  1.5743
  251MOL0     H34574   3.478   9.233   1.414  1.2015 -0.3000 -2.0117
  251MOL0     H34575   3.496   9.257   1.193  0.2115  0.2581  2.1812
  251MOL0     H34576   3.511   9.087   1.223 -1.0545 -1.2208  1.7526
  251MOL0     H34577   3.249   9.081   1.176  1.2356 -2.3571 -2.6186
  251MOL0     H34578   3.283   9.240   1.092  0.8840  0.1398 -2.6084
  251MOL0     H34579   3.296   9.056   0.947  1.7542  2.6025 -2.4000
  251MOL0     H34580   3.413   8.964   1.050  2.2348  0.6612 -1.3904
  251MOL0     H34581   3.442   9.234   0.915  0.0239 -0.4938  0.7204
  251MOL0     H34582   3.581   9.138   0.977 -0.0233 -0.8316 -0.8597
  251MOL0     H34583   3.529   9.156   0.738 -2.2252  2.6595  1.3425
  251MOL0     H34584   3.384   9.064   0.756 -1.2144 -1.8158  3.7533
  251MOL0     H34585   3.515   8.861   0.842 -3.3502  1.9835 -0.5261
  251MOL0     H34586   3.618   8.904   0.703  1.5743 -0.8359  1.6305
  251MOL0     H34587   3.800   9.113   0.751 -0.0642 -0.3858  0.8026
  251MOL0     H34588   4.031   9.178   0.926 -1.5728 -0.1239 -0.6517
  251MOL0     H34589   4.064   9.050   0.813 -1.3054 -1.4755  0.8569
  251MOL0     H34590   4.123   9.012   1.112  0.6153 -0.5075  0.1579
  251MOL0     H34591   4.173   8.903   0.978  3.4100 -0.0821  0.7017
  251MOL0     H34592   4.295   9.141   0.914 -0.1969  0.5315 -0.0246
  251MOL0     H34593   4.263   9.177   1.087 -0.3493 -0.8271  1.7722
  251MOL0     H34594   4.407   8.996   1.159  1.2277 -0.3900 -0.7189
  251MOL0     H34595   4.403   8.926   0.999 -2.9481  0.0422 -0.6518
  251MOL0     H34596   4.596   8.886   1.179  1.8306  0.0854  1.8234
  251MOL0     H34597   4.918   8.751   1.298 -0.9852 -1.7044  0.3269
  251MOL0     H34598   4.838   8.696   1.165  3.2893  0.3305 -0.2188
  251MOL0     H34599   4.737   8.743   1.311  0.1408 -1.5712  0.3782
  251MOL0     H34600   5.206   8.804   1.342 -1.6209  2.4908 -1.0414
  251MOL0     H34601   5.428   8.754   1.442  1.1259 -0.6010 -0.5698
  251MOL0     H34602   5.697   9.066   1.378 -0.3561 -0.1405  2.4500
  251MOL0     H34603   5.780   8.960   1.493 -0.1627 -1.4913  0.5401
  251MOL0     H34604   5.824   8.944   1.199 -1.7284  3.3703  0.7921
  251MOL0     H34605   5.904   9.062   1.290  0.3153 -1.0691 -0.0519
  251MOL0     H34606   5.922   8.755   1.332  1.8194 -0.5430 -1.3373
  251MOL0     H34607   5.990   8.887   1.435 -0.6468  0.0643  0.9400
  251MOL0     H34608   6.124   8.964   1.234 -0.2129 -0.0697 -2.1968
  251MOL0     H34609   6.053   8.832   1.142  1.4811 -0.5727  0.0351
  251MOL0     H34610   6.224   8.777   1.382  3.7566  1.4164 -1.5504
  251MOL0     H34611   6.153   8.662   1.262  2.5501 -1.8387 -0.8347
  251MOL0     H34612   6.355   8.892   1.241  0.2468  0.0881  0.4597
  251MOL0     H34613   6.306   8.810   1.089 -1.6557  0.1930  0.6426
  251MOL0     H34614   6.382   8.603   1.201 -0.6987 -0.2619  1.8866
  251MOL0     H34615   6.446   8.709   1.335  1.8939 -0.5498 -0.3866
  251MOL0     H34616   6.533   8.702   1.036 -0.0824  0.6058 -0.2438
  251MOL0     H34617   6.627   8.657   1.183 -1.2524 -0.0119  2.1513
  251MOL0     H34618   5.599   9.041   1.176  2.5931 -1.4532  2.5342
  251MOL0     H34619   5.384   9.103   1.088 -2.0895  2.0188  2.3914
  251MOL0     H34620   4.976   9.144   1.008  1.2140 -1.5614 -3.7320
  251MOL0     H34621   4.756   9.212   0.952  0.4532  0.6650  2.2071
  251MOL0     H34622   3.517   9.114   1.631 -0.5698 -2.5038 -0.4009
  251MOL0     H34623   3.735   9.155   1.732 -1.2986 -0.2496  1.1263
  251MOL0     H34624   4.182   8.908   1.706 -1.7544  3.3816 -2.9248
  251MOL0     H34625   4.400   8.870   1.803 -1.7492 -0.2927  0.1569
  251MOL0     H34626   4.587   9.194   2.035  0.4946 -0.1648 -1.0607
  251MOL0     H34627   4.513   9.096   2.162  0.2602 -0.5788  0.3481
  251MOL0     H34628   4.711   8.945   2.133 -0.8700 -0.0283 -0.2048
  251MOL0     H34629   4.751   9.103   2.193 -2.0766 -0.7337  0.3440
  251MOL0     H34630   4.774   9.032   1.892 -0.1868  1.2665 -1.2510
  251MOL0     H34631   4.810   9.191   1.974  1.0815  0.6206  1.6932
  251MOL0     H34632   5.004   9.049   1.921  1.3872 -1.1382  0.8880
  251MOL0     H34633   4.921   8.920   2.024 -3.7305 -0.3420 -1.0957
  251MOL0     H34634   5.137   9.169   2.285  2.6298  0.9706 -1.8856
  251MOL0     H34635   4.389   9.258   1.985 -0.9467  1.2862  0.2242
  251MOL0     H34636   4.077   9.320   1.988  0.1565 -0.9589 -0.9185
  251MOL0     H34637   4.226   9.409   1.946 -1.2526  3.1987 -3.3060
  251MOL0     H34638   4.105   9.389   1.828 -3.7557  0.2119  1.0648
  252MOL0     O34639   1.566   2.932   4.812  0.1146 -0.5624  0.6066
  252MOL0     C34640   1.548   2.846   4.728 -0.0909  0.4807  0.0069
  252MOL0     O34641   1.649   2.765   4.674  0.0645 -0.3223  0.1363
  252MOL0     C34642   1.773   2.795   4.719 -1.1509 -0.6057  0.3131
  252MOL0     C34643   1.860   2.870   4.634 -0.5979  0.0832 -0.3640
  252MOL0     C34644   1.994   2.888   4.670 -0.3760  0.2132  0.9976
  252MOL0     C34645   2.036   2.852   4.802  0.3072 -0.5852  0.4024
  252MOL0     O34646   2.163   2.873   4.854  0.2513 -0.1715  0.0737
  252MOL0     C34647   2.232   2.978   4.797 -0.1695 -0.7855  0.6915
  252MOL0     C34648   2.294   3.063   4.905 -0.5105 -0.2969  0.0751
  252MOL0     C34649   2.431   3.127   4.879  0.5381  0.7374  0.1047
  252MOL0     C34650   2.444   3.237   4.980 -0.4535  0.2040 -0.2430
  252MOL0     C34651   2.580   3.307   4.984 -0.1528 -0.9440 -0.5444
  252MOL0     C34652   2.694   3.213   5.023  0.2558  0.2662 -0.5320
  252MOL0     C34653   2.822   3.289   5.010 -0.1060 -0.4584 -0.2624
  252MOL0     C34654   2.948   3.199   5.039 -0.0814 -0.1672  0.1132
  252MOL0     N34655   3.070   3.268   5.025  0.0500 -0.4145 -0.4288
  252MOL0     C34656   3.106   3.386   5.086 -0.4523 -0.5297  0.2937
  252MOL0     C34657   3.233   3.414   5.036 -0.2895  0.1030  0.0720
  252MOL0     C34658   3.325   3.534   5.063 -0.3237 -0.1912  0.1122
  252MOL0     C34659   3.303   3.661   4.979  0.7141  0.1459  0.3290
  252MOL0     C34660   3.378   3.786   5.015  0.1039  0.4123 -0.2335
  252MOL0     C34661   3.531   3.763   5.012 -0.3044 -0.2893  0.2944
  252MOL0     O34662   3.611   3.882   5.026 -0.1436  0.4803  0.5844
  252MOL0     C34663   3.743   3.876   4.989  0.2300 -0.2256  0.2519
  252MOL0     C34664   3.800   3.996   4.953  0.2175 -0.1859  0.0372
  252MOL0     C34665   3.929   4.005   4.899 -0.3555  0.5415 -0.6513
  252MOL0     C34666   3.981   4.132   4.839 -0.3009 -0.2292 -0.9160
  252MOL0     C34667   4.004   3.881   4.895 -0.5918 -0.2777 -0.3287
  252MOL0     C34668   4.143   3.867   4.839 -0.8386 -0.6372  0.7897
  252MOL0     O34669   4.207   3.752   4.858  0.3870  0.5649 -0.4689
  252MOL0     C34670   4.329   3.744   4.806  0.3821 -0.5532 -0.5960
  252MOL0     C34671   4.346   3.658   4.696 -0.0716 -0.4867 -0.0510
  252MOL0     C34672   4.477   3.652   4.644  0.0706 -0.1835 -0.3974
  252MOL0     C34673   4.582   3.731   4.693  0.2525  0.5461 -0.3494
  252MOL0     O34674   4.706   3.732   4.637 -0.4903 -0.7569  0.1315
  252MOL0     C34675   4.734   3.648   4.521 -0.0765  0.5178  0.3223
  252MOL0     C34676   4.890   3.657   4.477  0.6698  0.4241 -0.9116
  252MOL0     C34677   4.985   3.606   4.589 -0.4526 -0.2865  0.7656
  252MOL0     C34678   5.126   3.627   4.526 -0.0796  0.3603  0.3850
  252MOL0     C34679   5.236   3.579   4.621  0.8419 -0.1980 -0.7827
  252MOL0     C34680   5.368   3.587   4.539  0.1754  0.7011  0.4307
  252MOL0     C34681   5.482   3.522   4.615 -1.0499 -0.4184  0.0738
  252MOL0     C34682   5.525   3.597   4.737 -0.1631  0.0185 -0.1762
  252MOL0    Cl34683   5.674   3.527   4.799  0.0856 -0.2992  0.2114
  252MOL0     C34684   4.559   3.811   4.800 -0.6116  0.3463  1.0673
  252MOL0     C34685   4.436   3.812   4.859  0.4832  0.3318 -0.1308
  252MOL0     O34686   4.182   3.962   4.764  0.3200  0.3446  0.4294
  252MOL0     C34687   3.950   3.760   4.935  0.2059 -0.6004 -0.1386
  252MOL0     C34688   3.821   3.760   4.983  0.2549  0.0896 -0.6386
  252MOL0     N34689   3.278   3.311   4.946  0.1946  0.0867 -0.8383
  252MOL0     N34690   3.176   3.229   4.946  1.0310 -0.1940  0.2956
  252MOL0     C34691   1.953   2.785   4.885  1.1099 -0.5690 -0.1034
  252MOL0     C34692   1.821   2.758   4.842  0.5157  0.6829 -0.4074
  252MOL0     C34693   1.412   2.833   4.674  0.3399  0.3847 -0.6195
  252MOL0     C34694   1.389   2.728   4.579  0.2307 -0.2680 -1.0844
  252MOL0     C34695   1.262   2.718   4.522 -0.1533 -1.0371  0.6969
  252MOL0     C34696   1.154   2.797   4.557  0.1310 -0.9177  0.0737
  252MOL0     O34697   1.035   2.758   4.493  0.1423 -0.1899  0.3065
  252MOL0     C34698   0.911   2.814   4.544  0.3628 -0.0728 -0.4240
  252MOL0     C34699   0.794   2.772   4.448 -1.3651  0.1913 -0.1707
  252MOL0     C34700   0.780   2.619   4.434 -0.1749 -0.1223 -0.5643
  252MOL0     C34701   0.683   2.557   4.548 -1.1094 -0.2701  0.8176
  252MOL0     C34702   0.685   2.405   4.529 -0.0335  0.2548 -1.0475
  252MOL0     C34703   0.705   2.291   4.491  0.0181 -0.4295 -0.7974
  252MOL0     C34704   1.167   2.880   4.673  0.2038  0.8453 -0.4013
  252MOL0     C34705   1.296   2.897   4.729  0.6322  0.4631 -0.1848
  252MOL0     C34706   1.297   2.994   4.854 -0.2986  0.2018 -0.1304
  252MOL0     H34707   1.819   2.900   4.538 -2.4696 -0.7623  0.1359
  252MOL0     H34708   2.061   2.937   4.600 -0.5191  1.6174  1.8108
  252MOL0     H34709   2.175   3.057   4.747  1.7311  1.3925  1.7951
  252MOL0     H34710   2.299   2.949   4.716 -2.1431 -1.8992 -0.6470
  252MOL0     H34711   2.224   3.145   4.924  1.4087  1.5256 -0.3671
  252MOL0     H34712   2.295   2.999   4.994 -1.8583 -0.9559 -0.3545
  252MOL0     H34713   2.514   3.057   4.893  0.3414  0.6455  0.8913
  252MOL0     H34714   2.427   3.173   4.780  0.5301  2.9282  1.0737
  252MOL0     H34715   2.372   3.317   4.959 -0.6022 -0.2540 -1.5665
  252MOL0     H34716   2.413   3.194   5.075 -1.9726  0.0751 -0.7754
  252MOL0     H34717   2.568   3.388   5.057  1.7316 -2.7904  2.0244
  252MOL0     H34718   2.605   3.342   4.883  2.1542  0.0955  0.2938
  252MOL0     H34719   2.670   3.178   5.124 -0.0223  0.4382 -0.5359
  252MOL0     H34720   2.691   3.131   4.951 -0.6297  1.9485 -2.5205
  252MOL0     H34721   2.823   3.376   5.076  1.6980 -0.4064 -0.2877
  252MOL0     H34722   2.832   3.318   4.905  2.6552  2.6013  0.6924
  252MOL0     H34723   2.948   3.159   5.141  0.2912 -1.4652 -0.3780
  252MOL0     H34724   2.949   3.119   4.964 -1.1322 -1.4624  1.4081
  252MOL0     H34725   3.057   3.446   5.162  2.4580  3.7770 -0.8885
  252MOL0     H34726   3.428   3.500   5.051 -0.6593 -2.2081  2.1267
  252MOL0     H34727   3.313   3.561   5.169 -0.9592  0.7791 -0.1917
  252MOL0     H34728   3.332   3.643   4.875  1.9315 -0.4134  0.7474
  252MOL0     H34729   3.196   3.683   4.982  0.4265 -1.1696  0.6010
  252MOL0     H34730   3.349   3.860   4.941 -2.4637  0.1557  0.4314
  252MOL0     H34731   3.353   3.835   5.109  0.0159  2.0984 -1.0990
  252MOL0     H34732   3.565   3.685   5.080 -1.6406 -0.9158  0.2609
  252MOL0     H34733   3.555   3.718   4.915 -1.2868 -1.5832  0.6354
  252MOL0     H34734   3.747   4.091   4.955 -0.2860 -0.4782  0.9761
  252MOL0     H34735   3.988   4.106   4.733  1.1441  0.3786 -0.9967
  252MOL0     H34736   4.074   4.169   4.882 -1.5704  1.9779  0.1094
  252MOL0     H34737   3.912   4.215   4.855  0.3500  0.6404 -2.3820
  252MOL0     H34738   4.264   3.607   4.647 -0.6872  0.0126  0.4358
  252MOL0     H34739   4.503   3.587   4.561  0.9924  0.2998 -0.5022
  252MOL0     H34740   4.716   3.543   4.547 -1.2897  0.6671  0.1319
  252MOL0     H34741   4.670   3.683   4.440  0.8863 -0.4997 -0.9091
  252MOL0     H34742   4.900   3.598   4.385  0.9745 -0.2455 -0.4523
  252MOL0     H34743   4.900   3.764   4.453 -2.4626  0.9559 -0.3369
  252MOL0     H34744   4.964   3.501   4.608  0.7833 -0.7751 -0.4918
  252MOL0     H34745   4.983   3.659   4.685 -0.5720 -2.0717  1.7884
  252MOL0     H34746   5.133   3.733   4.504 -1.8535  0.3034 -0.6812
  252MOL0     H34747   5.140   3.574   4.431  0.1094  0.9931  0.0578
  252MOL0     H34748   5.238   3.647   4.707  0.2776 -0.1906 -0.7720
  252MOL0     H34749   5.220   3.480   4.666 -0.0297  1.4867  3.0358
  252MOL0     H34750   5.392   3.692   4.522  2.0246  0.9727  3.9014
  252MOL0     H34751   5.354   3.535   4.443  0.9886 -0.4669  0.9208
  252MOL0     H34752   5.571   3.523   4.551  1.0130  1.5961  2.7106
  252MOL0     H34753   5.455   3.422   4.650  1.5395 -1.9091 -1.8685
  252MOL0     H34754   5.459   3.604   4.824  0.5247  0.5123  0.3148
  252MOL0     H34755   5.542   3.700   4.704 -0.1281 -0.6984 -2.6098
  252MOL0     H34756   4.643   3.872   4.832 -0.8301  0.9296  0.5329
  252MOL0     H34757   4.407   3.878   4.940 -0.5696  0.2432 -0.4261
  252MOL0     H34758   4.008   3.669   4.929  3.1519  1.2010 -0.8858
  252MOL0     H34759   3.782   3.665   5.019  1.7702 -0.8295 -1.3527
  252MOL0     H34760   1.975   2.763   4.989  2.7296  2.3264  0.2659
  252MOL0     H34761   1.744   2.703   4.895 -0.9215  0.0043 -3.0320
  252MOL0     H34762   1.465   2.659   4.545  0.1809 -1.4002  0.9124
  252MOL0     H34763   1.241   2.641   4.448 -0.6531 -0.9958  0.7981
  252MOL0     H34764   0.887   2.779   4.645 -3.4686 -3.4493 -2.2209
  252MOL0     H34765   0.910   2.923   4.547 -3.2017  0.0579 -1.4732
  252MOL0     H34766   0.818   2.813   4.350 -0.4825 -0.7326 -0.3500
  252MOL0     H34767   0.701   2.816   4.487  0.8177  2.2081  3.3824
  252MOL0     H34768   0.735   2.602   4.336  1.0332 -0.1238 -1.1348
  252MOL0     H34769   0.875   2.566   4.438 -0.3622 -0.3987  0.2551
  252MOL0     H34770   0.583   2.595   4.525  0.0883  2.5810 -0.1751
  252MOL0     H34771   0.718   2.580   4.649  1.5850 -0.4319 -0.0162
  252MOL0     H34772   0.725   2.199   4.440  2.5169  0.3121 -1.2861
  252MOL0     H34773   1.079   2.926   4.716  1.7128  0.4730  3.5055
  252MOL0     H34774   1.363   2.961   4.935 -0.1154  0.2401 -0.2651
  252MOL0     H34775   1.319   3.097   4.823 -2.9242  0.6150 -0.8509
  252MOL0     H34776   1.200   3.003   4.904  0.4645  0.1665  1.4388
  253MOL0     O34777   4.629   4.227   6.587 -0.4010 -0.2496  0.1871
  253MOL0     C34778   4.610   4.159   6.488 -0.6067  0.3275 -0.3511
  253MOL0     O34779   4.702   4.081   6.426 -0.4535 -0.2173  0.4370
  253MOL0     C34780   4.833   4.085   6.474  0.1636 -0.1434  0.5174
  253MOL0     C34781   4.933   4.175   6.428  0.0647  0.8165 -0.4421
  253MOL0     C34782   5.068   4.152   6.470 -0.2738 -0.0726 -0.0573
  253MOL0     C34783   5.111   4.048   6.547  0.4155  0.1838  0.5135
  253MOL0     O34784   5.242   4.024   6.582  0.0783  0.4148  0.0922
  253MOL0     C34785   5.334   4.132   6.559  0.0034 -0.3300  0.3403
  253MOL0     C34786   5.478   4.098   6.606 -0.4823  0.4323 -0.5716
  253MOL0     C34787   5.517   4.127   6.749  0.8083 -0.1258 -0.0696
  253MOL0     C34788   5.439   4.037   6.851 -0.3772 -0.2816  0.0475
  253MOL0     C34789   5.526   4.017   6.981  0.6184  0.1423  0.6018
  253MOL0     C34790   5.448   3.931   7.078 -0.0457 -0.5242 -0.0047
  253MOL0     C34791   5.540   3.839   7.159 -0.2389 -0.7196  0.0599
  253MOL0     C34792   5.440   3.742   7.241 -0.5119  0.6031  0.1627
  253MOL0     N34793   5.509   3.640   7.319  0.1384  0.3031 -0.0936
  253MOL0     C34794   5.635   3.588   7.291  0.4054  0.0527  0.6348
  253MOL0     C34795   5.666   3.505   7.388  0.1557 -0.4589 -0.2988
  253MOL0     C34796   5.785   3.408   7.397 -0.1137  0.1955  0.2304
  253MOL0     C34797   5.934   3.470   7.394  0.8485 -0.3740  0.1665
  253MOL0     C34798   6.026   3.359   7.370  0.1044 -0.3198 -0.0458
  253MOL0     C34799   6.166   3.410   7.339 -0.4661  0.5792  0.7524
  253MOL0     O34800   6.240   3.409   7.461  0.8539  0.3465 -0.0846
  253MOL0     C34801   6.367   3.461   7.458  0.0225 -0.7823  0.3771
  253MOL0     C34802   6.448   3.446   7.348  0.1907 -0.0275 -0.2453
  253MOL0     C34803   6.581   3.503   7.341 -0.6139 -0.4255  0.2836
  253MOL0     C34804   6.649   3.487   7.205  0.1552 -1.0685  0.2634
  253MOL0     C34805   6.636   3.566   7.460 -0.5044  0.8392 -0.3030
  253MOL0     C34806   6.763   3.631   7.462  0.5713  0.3846 -0.0296
  253MOL0     O34807   6.780   3.722   7.568 -0.1650  0.9631  0.6874
  253MOL0     C34808   6.872   3.820   7.534 -0.4364 -0.0973  0.0881
  253MOL0     C34809   7.001   3.816   7.587  0.3537 -1.0768  0.0506
  253MOL0     C34810   7.096   3.906   7.538  0.2952  0.4612  0.0290
  253MOL0     C34811   7.054   4.013   7.458  0.7279 -0.4096  0.5153
  253MOL0     O34812   7.152   4.100   7.416  0.7801 -0.1203  0.7605
  253MOL0     C34813   7.148   4.151   7.283  0.4012 -0.0311  0.1652
  253MOL0     C34814   7.274   4.217   7.242 -1.1581  0.8032  0.6257
  253MOL0     C34815   7.273   4.314   7.121 -0.3506 -0.0322 -0.1689
  253MOL0     C34816   7.413   4.362   7.092 -0.3149 -0.2801  0.0983
  253MOL0     C34817   7.423   4.465   6.978  0.7483  0.4293 -0.4371
  253MOL0     C34818   7.565   4.481   6.926 -0.2695  0.5227 -0.1266
  253MOL0     C34819   7.598   4.595   6.822  0.5602  0.2166 -0.1106
  253MOL0     C34820   7.744   4.618   6.817  0.3607  0.2226  0.3389
  253MOL0    Cl34821   7.811   4.455   6.765  0.6086 -0.1969 -0.1375
  253MOL0     C34822   6.923   4.020   7.407 -0.0117  0.1555 -0.2683
  253MOL0     C34823   6.842   3.914   7.434  0.1077 -0.1357 -0.9520
  253MOL0     O34824   6.849   3.595   7.386  0.0148  0.1012 -0.4854
  253MOL0     C34825   6.556   3.560   7.573 -0.7386 -0.4142 -0.1309
  253MOL0     C34826   6.420   3.515   7.567  0.4073 -0.7582 -0.0024
  253MOL0     N34827   5.562   3.503   7.484 -0.3444 -0.3720  0.7821
  253MOL0     N34828   5.466   3.580   7.431  0.2362  0.3502  0.6547
  253MOL0     C34829   5.017   3.958   6.591 -0.0577  0.4162 -0.3625
  253MOL0     C34830   4.882   3.976   6.556  1.4329  0.0082  0.5410
  253MOL0     C34831   4.471   4.155   6.434 -0.3274 -0.4742 -0.8793
  253MOL0     C34832   4.447   4.064   6.322 -0.0050 -0.2169 -0.9797
  253MOL0     C34833   4.315   4.028   6.278 -0.2577 -0.9062  0.3411
  253MOL0     C34834   4.207   4.105   6.327 -0.8866 -0.2404  0.0349
  253MOL0     O34835   4.081   4.082   6.302 -0.3507 -0.1292  0.1607
  253MOL0     C34836   4.039   3.994   6.202  0.4560 -0.7449  0.1182
  253MOL0     C34837   3.889   3.971   6.222  0.4281  0.2324  0.2369
  253MOL0     C34838   3.800   4.061   6.140 -0.1276 -0.1600 -0.4064
  253MOL0     C34839   3.646   4.045   6.178 -0.6933 -0.1569 -0.3746
  253MOL0     C34840   3.563   4.153   6.115 -0.0370  0.3777 -0.2187
  253MOL0     C34841   3.480   4.230   6.084  0.0446  0.7737 -0.2516
  253MOL0     C34842   4.229   4.202   6.435 -0.6167 -0.5387 -0.4376
  253MOL0     C34843   4.354   4.217   6.491  0.0521 -0.1037  0.5500
  253MOL0     C34844   4.364   4.300   6.621 -0.0942  0.2242  0.0036
  253MOL0     H34845   4.900   4.258   6.366  1.6929  2.7565  1.1343
  253MOL0     H34846   5.132   4.225   6.422 -2.7815  0.8658 -2.2101
  253MOL0     H34847   5.301   4.216   6.621  0.2304 -1.4644  2.0614
  253MOL0     H34848   5.336   4.159   6.453 -2.8455 -1.4816 -0.1076
  253MOL0     H34849   5.505   3.994   6.582  0.8601  0.3802  0.9948
  253MOL0     H34850   5.549   4.154   6.544  0.0169 -0.5939 -0.9588
  253MOL0     H34851   5.625   4.122   6.767  0.8880 -0.0245 -0.4989
  253MOL0     H34852   5.496   4.233   6.765 -0.4780 -0.3673 -0.1002
  253MOL0     H34853   5.345   4.083   6.881 -0.5988 -1.3768  1.1072
  253MOL0     H34854   5.416   3.945   6.796  0.0414  0.4135 -1.3407
  253MOL0     H34855   5.554   4.117   7.015 -0.5182  0.1146  1.6980
  253MOL0     H34856   5.613   3.959   6.951 -1.2908 -1.4149 -2.4087
  253MOL0     H34857   5.381   3.989   7.142 -0.1606 -1.1251  0.4363
  253MOL0     H34858   5.370   3.867   7.034 -0.1941 -1.2107  1.1967
  253MOL0     H34859   5.598   3.902   7.226 -1.0168 -0.8594  0.8823
  253MOL0     H34860   5.599   3.777   7.090 -0.4377  1.3681 -2.1025
  253MOL0     H34861   5.361   3.795   7.294 -0.5601 -0.5924  1.3456
  253MOL0     H34862   5.383   3.681   7.169  0.1050 -0.3737  0.4795
  253MOL0     H34863   5.691   3.595   7.198  1.9591  2.8441  1.6553
  253MOL0     H34864   5.768   3.334   7.319  0.8787  0.6924 -0.4814
  253MOL0     H34865   5.787   3.351   7.490 -0.0004 -1.2012 -0.6049
  253MOL0     H34866   5.953   3.542   7.313  3.1539 -1.4009 -0.2920
  253MOL0     H34867   5.959   3.521   7.487 -1.4380  0.1662  0.5258
  253MOL0     H34868   6.022   3.294   7.457 -0.3829  1.7621  1.5622
  253MOL0     H34869   6.003   3.300   7.280 -0.5305 -0.6720  0.3469
  253MOL0     H34870   6.211   3.344   7.265 -2.7916  2.2803 -2.4456
  253MOL0     H34871   6.167   3.501   7.277 -0.0718 -0.0460 -0.1762
  253MOL0     H34872   6.416   3.409   7.251 -0.3142  1.7283 -0.7934
  253MOL0     H34873   6.579   3.470   7.123  1.5064 -1.6559 -0.8124
  253MOL0     H34874   6.711   3.396   7.207  1.3561 -0.3311 -1.3901
  253MOL0     H34875   6.714   3.570   7.176  0.4156 -1.6536 -0.8702
  253MOL0     H34876   7.035   3.740   7.657  2.1821 -2.0521 -1.8125
  253MOL0     H34877   7.202   3.896   7.556  0.7027 -0.9069 -2.6218
  253MOL0     H34878   7.134   4.065   7.217  1.0355 -0.5931  0.7446
  253MOL0     H34879   7.063   4.219   7.275  1.2808  1.1254  0.2974
  253MOL0     H34880   7.325   4.262   7.328  0.1693  0.3965  0.0598
  253MOL0     H34881   7.335   4.129   7.221 -3.3268 -1.3588  2.6644
  253MOL0     H34882   7.211   4.398   7.153  0.4390  0.2865  0.5560
  253MOL0     H34883   7.233   4.272   7.028  0.0097 -0.4755 -0.1302
  253MOL0     H34884   7.460   4.269   7.058 -3.1376 -1.1148 -1.9519
  253MOL0     H34885   7.465   4.404   7.178  4.1243 -0.6731 -2.1049
  253MOL0     H34886   7.355   4.443   6.895 -1.3952  2.1919  0.7471
  253MOL0     H34887   7.393   4.561   7.022  1.2046  0.4260 -0.1182
  253MOL0     H34888   7.578   4.393   6.862 -1.8142  0.4432 -0.3853
  253MOL0     H34889   7.635   4.488   7.009 -1.5031  0.5727  0.9524
  253MOL0     H34890   7.547   4.688   6.850  0.2441  0.6210 -1.8952
  253MOL0     H34891   7.558   4.564   6.725  0.3983  3.4473 -1.2072
  253MOL0     H34892   7.792   4.647   6.911 -1.2117  1.3552  0.8428
  253MOL0     H34893   7.763   4.693   6.740 -1.5996  0.5661  0.1265
  253MOL0     H34894   6.888   4.088   7.330  3.8227  0.3457 -2.0694
  253MOL0     H34895   6.747   3.922   7.381 -0.3112 -1.9115 -0.5315
  253MOL0     H34896   6.593   3.575   7.674  0.4879  1.3186 -0.8097
  253MOL0     H34897   6.350   3.508   7.649  0.0990 -0.9179 -0.2759
  253MOL0     H34898   5.051   3.875   6.652 -1.0053 -0.2073 -0.6721
  253MOL0     H34899   4.804   3.902   6.572 -0.2572  1.6064  0.0567
  253MOL0     H34900   4.533   4.014   6.280  1.6944  1.5624  0.2022
  253MOL0     H34901   4.315   3.965   6.190 -0.5548  1.2128 -1.2569
  253MOL0     H34902   4.038   4.039   6.102 -3.4151  0.6634  0.6142
  253MOL0     H34903   4.094   3.900   6.210  1.7347  0.0131  0.5826
  253MOL0     H34904   3.863   3.996   6.326 -0.7740  1.9657 -0.4419
  253MOL0     H34905   3.859   3.868   6.200 -1.1498  0.5496  0.7383
  253MOL0     H34906   3.827   4.167   6.140 -1.8858  0.3251 -0.8275
  253MOL0     H34907   3.816   4.035   6.035  3.0135  1.3144 -0.3925
  253MOL0     H34908   3.619   4.049   6.284 -4.0608  2.1764 -1.1327
  253MOL0     H34909   3.616   3.944   6.150  0.7431 -0.5127 -0.7273
  253MOL0     H34910   3.407   4.291   6.034 -0.1025  0.4109 -0.4789
  253MOL0     H34911   4.141   4.242   6.485 -1.8179 -3.5287  0.0516
  253MOL0     H34912   4.394   4.241   6.708 -0.3303 -2.9876 -1.9316
  253MOL0     H34913   4.428   4.386   6.603 -1.0817  0.7554 -1.1354
  253MOL0     H34914   4.261   4.330   6.644 -1.7754 -3.8508 -1.2538
  254MOL0     O34915   4.548   7.716  10.369 -0.1521 -0.2925 -0.6087
  254MOL0     C34916   4.555   7.658  10.476 -0.1982 -0.0213  0.0348
  254MOL0     O34917   4.662   7.614  10.535  0.2627  0.0245 -0.2570
  254MOL0     C34918   4.779   7.607  10.467  0.6614  0.0297 -0.1568
  254MOL0     C34919   4.886   7.690  10.498  0.2506 -0.9869  0.0468
  254MOL0     C34920   5.009   7.692  10.422 -0.4946  0.3403 -0.5707
  254MOL0     C34921   5.028   7.599  10.317 -0.4468  0.1372 -0.2199
  254MOL0     O34922   5.146   7.564  10.252  0.7275 -0.4741 -0.5202
  254MOL0     C34923   5.277   7.629  10.282  0.8466  0.3084 -0.3971
  254MOL0     C34924   5.393   7.567  10.193 -0.1093  0.9053 -0.2333
  254MOL0     C34925   5.373   7.596  10.048 -0.9532  0.3644  0.1423
  254MOL0     C34926   5.456   7.498   9.953 -0.4648 -1.0176 -0.2451
  254MOL0     C34927   5.606   7.521   9.977 -0.3029 -0.2912  0.5738
  254MOL0     C34928   5.699   7.467   9.871  0.4458  0.3179  0.0880
  254MOL0     C34929   5.846   7.458   9.907  0.2150 -0.0854  0.3576
  254MOL0     C34930   5.925   7.406   9.784  0.6183  1.0462  0.6371
  254MOL0     N34931   6.069   7.409   9.811  0.9511 -0.2814 -0.8644
  254MOL0     C34932   6.128   7.476   9.914 -0.1447  0.0815  0.4296
  254MOL0     C34933   6.260   7.440   9.918 -0.3840 -0.1988  0.4574
  254MOL0     C34934   6.369   7.490  10.010  0.1913  0.2706 -0.2923
  254MOL0     C34935   6.514   7.479   9.955  0.0530  0.5231 -0.3445
  254MOL0     C34936   6.552   7.584   9.851 -0.5776  0.1985 -0.2350
  254MOL0     C34937   6.703   7.587   9.816  0.2787 -0.1844 -0.3158
  254MOL0     O34938   6.769   7.631   9.940  0.5064 -0.3243  0.0375
  254MOL0     C34939   6.902   7.655   9.928  0.1038 -0.4900 -0.2934
  254MOL0     C34940   6.956   7.781   9.901 -0.0012  0.3894 -0.2994
  254MOL0     C34941   7.095   7.804   9.887  0.8343 -0.5274  0.7029
  254MOL0     C34942   7.125   7.948   9.851 -0.5687 -0.2601  0.0974
  254MOL0     C34943   7.182   7.702   9.903 -0.1020 -0.1622  0.6018
  254MOL0     C34944   7.330   7.720   9.906  0.4343  0.2572  0.2553
  254MOL0     O34945   7.395   7.619   9.850  0.2025  0.7250  0.1596
  254MOL0     C34946   7.520   7.585   9.907 -0.3875 -0.0079 -0.8362
  254MOL0     C34947   7.543   7.479   9.989  1.2683 -0.0529 -0.2781
  254MOL0     C34948   7.669   7.460  10.052  0.0588  0.8506  0.3563
  254MOL0     C34949   7.778   7.535  10.008 -0.3141 -0.2039 -0.0237
  254MOL0     O34950   7.909   7.510  10.034  0.3654 -0.7865  0.5927
  254MOL0     C34951   7.939   7.440  10.153  0.8025 -0.5073 -0.2585
  254MOL0     C34952   8.089   7.467  10.187  0.9981  0.1257 -0.1359
  254MOL0     C34953   8.134   7.610  10.187  0.1601  0.4984 -0.2594
  254MOL0     C34954   8.043   7.706  10.265 -0.1172 -0.2116 -0.4614
  254MOL0     C34955   8.030   7.693  10.424 -0.2184  0.2528 -0.4773
  254MOL0     C34956   8.166   7.693  10.497 -0.3546 -0.0414  0.1101
  254MOL0     C34957   8.252   7.815  10.476 -0.6982 -0.2349  0.1079
  254MOL0     C34958   8.337   7.846  10.602  0.7881  0.4245  0.1708
  254MOL0    Cl34959   8.469   7.723  10.604  0.2510 -0.1568  0.2708
  254MOL0     C34960   7.764   7.638   9.915  1.0254 -0.0481  0.1761
  254MOL0     C34961   7.633   7.658   9.867  0.1180  0.5684 -0.6948
  254MOL0     O34962   7.379   7.820   9.956  0.1489  0.3755 -0.0950
  254MOL0     C34963   7.126   7.575   9.927 -0.2868 -0.1412  0.4760
  254MOL0     C34964   6.993   7.549   9.934  0.6981  0.3564 -0.3438
  254MOL0     N34965   6.279   7.355   9.811  0.8807 -0.4609 -0.1881
  254MOL0     N34966   6.162   7.326   9.757 -0.8065  0.2789  0.1473
  254MOL0     C34967   4.918   7.517  10.290  0.1768 -0.3665  0.4631
  254MOL0     C34968   4.796   7.516  10.366  0.1695 -0.7277  1.2138
  254MOL0     C34969   4.435   7.665  10.568 -0.3431 -0.1367  0.3164
  254MOL0     C34970   4.447   7.647  10.708 -0.6305 -0.1869  0.0345
  254MOL0     C34971   4.344   7.670  10.804 -0.2595 -0.2441 -0.3137
  254MOL0     C34972   4.221   7.724  10.761 -0.2347 -0.3390  0.5251
  254MOL0     O34973   4.116   7.752  10.845 -0.3993  0.4934 -1.0409
  254MOL0     C34974   4.147   7.774  10.991  0.1679 -0.8643 -0.5979
  254MOL0     C34975   4.125   7.658  11.081  0.6343 -0.5025 -0.4267
  254MOL0     C34976   4.141   7.673  11.232 -0.5364 -0.8026 -0.4763
  254MOL0     C34977   4.255   7.763  11.280  0.2582  0.9045 -0.1904
  254MOL0     C34978   4.391   7.716  11.269  0.0934 -0.2771  0.0280
  254MOL0     C34979   4.504   7.682  11.265 -0.1514 -0.1213  0.2409
  254MOL0     C34980   4.211   7.739  10.629 -0.8139 -0.1806  0.1396
  254MOL0     C34981   4.311   7.712  10.528  0.4072  0.9282  0.0704
  254MOL0     C34982   4.261   7.722  10.391  0.9970  0.0166  0.7277
  254MOL0     H34983   4.875   7.770  10.571  2.9332 -0.9028  0.4557
  254MOL0     H34984   5.086   7.764  10.449 -0.1808  0.2146 -1.1136
  254MOL0     H34985   5.304   7.618  10.388  0.5313  0.8693 -0.2580
  254MOL0     H34986   5.275   7.736  10.260 -1.1153  0.8151  1.8330
  254MOL0     H34987   5.490   7.611  10.220  0.5436 -2.1251  3.1517
  254MOL0     H34988   5.406   7.460  10.211 -1.3750  1.0481  1.7973
  254MOL0     H34989   5.268   7.598  10.017 -0.9491  0.8640  0.1515
  254MOL0     H34990   5.418   7.695  10.038 -2.2442  0.9738  0.0444
  254MOL0     H34991   5.431   7.397   9.985 -2.8501 -1.0081 -1.8256
  254MOL0     H34992   5.425   7.503   9.848 -0.7954  0.1491 -0.1076
  254MOL0     H34993   5.618   7.477  10.076 -0.8560  1.5655  1.5129
  254MOL0     H34994   5.624   7.629   9.986  0.9698 -0.3931 -0.3779
  254MOL0     H34995   5.662   7.370   9.835 -0.9381  0.3848  1.2536
  254MOL0     H34996   5.679   7.531   9.784 -0.0728 -1.6972 -1.3514
  254MOL0     H34997   5.869   7.389   9.989  0.2746 -1.2945 -0.6453
  254MOL0     H34998   5.874   7.557   9.945  1.3966 -0.6779  1.0734
  254MOL0     H34999   5.896   7.304   9.756 -0.0566  1.7606 -1.4152
  254MOL0     H35000   5.911   7.462   9.691 -0.1402 -3.5079 -2.3405
  254MOL0     H35001   6.069   7.532   9.986 -0.6911  1.3950 -0.9792
  254MOL0     H35002   6.363   7.414  10.088 -2.7460  0.5931 -0.1031
  254MOL0     H35003   6.354   7.587  10.058  1.3925  0.2328  0.1951
  254MOL0     H35004   6.582   7.487  10.039 -1.1459  1.1319  0.5942
  254MOL0     H35005   6.524   7.381   9.905 -0.0815 -0.3074  1.2015
  254MOL0     H35006   6.504   7.550   9.758 -1.0119 -0.4513  0.2128
  254MOL0     H35007   6.510   7.678   9.887  0.7688  0.2590  1.2817
  254MOL0     H35008   6.736   7.497   9.764 -1.4188  0.3394 -2.4077
  254MOL0     H35009   6.716   7.667   9.743  1.2233  1.2681  1.3623
  254MOL0     H35010   6.895   7.870   9.889  1.8821  1.7844 -0.0199
  254MOL0     H35011   7.230   7.969   9.828 -1.3514  0.4691 -3.2304
  254MOL0     H35012   7.102   8.024   9.927  1.9382 -1.3554  2.1049
  254MOL0     H35013   7.073   7.965   9.757 -0.4147  0.5961  0.1611
  254MOL0     H35014   7.453   7.422  10.011  0.4670  0.2475 -2.5155
  254MOL0     H35015   7.692   7.376  10.116  0.8592  0.0579 -0.9330
  254MOL0     H35016   7.875   7.472  10.236  0.0761  1.5207 -1.5298
  254MOL0     H35017   7.931   7.332  10.132 -1.6141 -0.7245  1.3805
  254MOL0     H35018   8.119   7.425  10.284  1.8309  0.3698 -0.2737
  254MOL0     H35019   8.158   7.421  10.115  1.5934  1.1113 -0.2186
  254MOL0     H35020   8.125   7.647  10.085  1.1867  0.3156 -0.4247
  254MOL0     H35021   8.236   7.604  10.225 -0.1584 -1.6897  0.3674
  254MOL0     H35022   7.944   7.693  10.221  0.6002 -1.3139 -1.8458
  254MOL0     H35023   8.078   7.805  10.233  2.4269 -1.0902 -0.6252
  254MOL0     H35024   7.967   7.770  10.470  0.0892 -0.0430  0.4594
  254MOL0     H35025   7.976   7.602  10.449  1.8506 -0.2449  2.8851
  254MOL0     H35026   8.210   7.599  10.462 -1.0473 -1.5362  2.9057
  254MOL0     H35027   8.148   7.675  10.604  3.7623 -0.5558  0.8705
  254MOL0     H35028   8.188   7.900  10.451 -0.8156 -0.3276  0.0871
  254MOL0     H35029   8.316   7.806  10.387  0.9730 -2.5887  1.4294
  254MOL0     H35030   8.278   7.851  10.693 -1.1763 -0.2220 -1.0163
  254MOL0     H35031   8.384   7.945  10.593 -1.4068  1.6688  1.5764
  254MOL0     H35032   7.849   7.703   9.899  3.2188 -2.6335  0.5587
  254MOL0     H35033   7.610   7.736   9.795  0.8192 -0.3056 -1.8819
  254MOL0     H35034   7.189   7.487   9.934 -0.1256 -0.4667 -3.1282
  254MOL0     H35035   6.952   7.449   9.946  2.1944 -0.1799  0.5353
  254MOL0     H35036   4.935   7.443  10.212  0.0501 -2.3569  2.2354
  254MOL0     H35037   4.716   7.451  10.332  1.3864 -0.5152 -2.4750
  254MOL0     H35038   4.536   7.597  10.746 -1.0084 -1.7144 -0.9970
  254MOL0     H35039   4.364   7.649  10.908 -0.7723 -4.1969 -0.8539
  254MOL0     H35040   4.249   7.813  11.000  0.9198 -2.9354  0.6664
  254MOL0     H35041   4.074   7.848  11.024  0.1663 -1.9715  2.2170
  254MOL0     H35042   4.201   7.585  11.050  0.8787 -0.2243 -0.4954
  254MOL0     H35043   4.031   7.616  11.045  0.7949 -1.0848 -0.1726
  254MOL0     H35044   4.050   7.730  11.257  0.4454  0.7662 -0.3223
  254MOL0     H35045   4.146   7.575  11.279 -2.5890  0.3513  2.4137
  254MOL0     H35046   4.231   7.771  11.386  0.2539 -0.0852 -0.1066
  254MOL0     H35047   4.250   7.862  11.233  1.5121  1.5951  1.0711
  254MOL0     H35048   4.602   7.639  11.257 -0.3540 -0.9007  1.6295
  254MOL0     H35049   4.117   7.775  10.589 -0.3495  0.2557 -0.5807
  254MOL0     H35050   4.154   7.706  10.380  1.0866  1.0266 -2.4668
  254MOL0     H35051   4.281   7.824  10.356  1.2210 -0.8362 -1.7553
  254MOL0     H35052   4.311   7.643  10.334  1.7496 -1.0832  2.7999
  255MOL0     O35053   6.186   3.664   3.667 -0.4622 -0.2159  0.1610
  255MOL0     C35054   6.114   3.601   3.741 -0.1877  0.6448 -0.2243
  255MOL0     O35055   6.162   3.544   3.857 -0.4019  0.1338  0.3859
  255MOL0     C35056   6.293   3.548   3.893 -0.0038  0.4107  0.4188
  255MOL0     C35057   6.388   3.469   3.833 -0.6366 -0.2641  0.1238
  255MOL0     C35058   6.524   3.494   3.866  0.0662  0.8939  0.2328
  255MOL0     C35059   6.556   3.590   3.960 -0.1136  0.4745 -0.7302
  255MOL0     O35060   6.689   3.605   3.998  0.0280 -0.0255 -0.2481
  255MOL0     C35061   6.792   3.604   3.897  0.2323 -0.0376  0.7957
  255MOL0     C35062   6.886   3.713   3.924  0.3199  0.7379  0.6901
  255MOL0     C35063   6.958   3.673   4.053  0.5459  0.4869 -0.2608
  255MOL0     C35064   7.056   3.776   4.092 -0.4309 -0.1052 -0.4026
  255MOL0     C35065   7.153   3.715   4.202  0.0148  0.1470 -0.2307
  255MOL0     C35066   7.217   3.814   4.287 -0.0858 -0.7660 -0.1859
  255MOL0     C35067   7.337   3.758   4.367  1.0953 -0.3316 -1.1902
  255MOL0     C35068   7.295   3.672   4.490  0.0634  0.1070  0.3363
  255MOL0     N35069   7.411   3.628   4.557  0.2174 -0.3899 -0.5173
  255MOL0     C35070   7.480   3.707   4.644  1.1591  0.6049 -0.3277
  255MOL0     C35071   7.608   3.656   4.651  0.1959 -0.3986 -0.6470
  255MOL0     C35072   7.729   3.704   4.728 -0.5840  0.0944  0.4072
  255MOL0     C35073   7.865   3.650   4.705 -0.5661 -0.5470 -0.3155
  255MOL0     C35074   7.946   3.727   4.595  0.0651  0.1035 -0.3395
  255MOL0     C35075   8.086   3.664   4.604 -0.1343  0.1698  0.9292
  255MOL0     O35076   8.157   3.720   4.705 -0.2268 -0.7721  0.3921
  255MOL0     C35077   8.291   3.704   4.716  0.2590 -0.0112  0.4647
  255MOL0     C35078   8.344   3.784   4.813 -0.1454  0.2296 -0.1424
  255MOL0     C35079   8.473   3.779   4.859 -0.8607  0.6398 -0.5696
  255MOL0     C35080   8.507   3.874   4.969  0.0530 -0.1721 -0.0031
  255MOL0     C35081   8.570   3.697   4.789  0.1513  0.4837 -0.3911
  255MOL0     C35082   8.721   3.690   4.818 -0.0739  1.0657 -0.9119
  255MOL0     O35083   8.777   3.759   4.916  0.0541 -0.0051  0.8467
  255MOL0     C35084   8.906   3.734   4.947 -0.2624 -0.4740 -0.3061
  255MOL0     C35085   8.937   3.608   5.010 -0.0694  0.2500 -0.3805
  255MOL0     C35086   9.070   3.593   5.054  0.7304 -0.2814  0.9724
  255MOL0     C35087   9.170   3.689   5.027  0.4849 -0.5826 -1.3507
  255MOL0     O35088   9.301   3.671   5.051  0.2702  0.1133  0.6365
  255MOL0     C35089   9.358   3.539   5.050 -0.0930  0.1034 -0.1840
  255MOL0     C35090   9.509   3.563   5.029  0.2658 -0.1016  0.7605
  255MOL0     C35091   9.572   3.623   5.150 -0.2206  0.0869  0.0721
  255MOL0     C35092   9.720   3.644   5.124 -0.4054 -1.1538 -0.5296
  255MOL0     C35093   9.786   3.707   5.256 -0.7922  0.2160  0.2409
  255MOL0     C35094   9.936   3.695   5.242 -0.1725 -1.2603 -0.6474
  255MOL0     C35095   9.997   3.734   5.376 -0.1760 -0.1101  0.2379
  255MOL0     C35096  10.152   3.751   5.374  0.3975  0.6938 -0.0098
  255MOL0    Cl35097  10.198   3.845   5.522 -0.1398 -0.0202 -0.1801
  255MOL0     C35098   9.132   3.814   4.978 -0.1568 -0.2072 -0.1150
  255MOL0     C35099   9.000   3.835   4.929 -0.4466  0.1182 -0.4592
  255MOL0     O35100   8.786   3.616   4.737 -0.7029  0.5933 -0.0124
  255MOL0     C35101   8.513   3.615   4.688 -0.1557  0.1626  0.2513
  255MOL0     C35102   8.376   3.612   4.645 -0.3145  0.0832 -0.5512
  255MOL0     N35103   7.610   3.559   4.558  0.9455 -0.5646 -0.0082
  255MOL0     N35104   7.496   3.542   4.497  0.2971  0.9675 -0.2664
  255MOL0     C35105   6.458   3.660   4.020  0.4244  0.2383  0.6499
  255MOL0     C35106   6.325   3.636   3.988 -0.3687 -0.1450  0.0831
  255MOL0     C35107   5.981   3.573   3.692  1.1250 -0.2339 -0.4271
  255MOL0     C35108   5.923   3.450   3.721 -0.8377 -0.3125  0.5734
  255MOL0     C35109   5.799   3.420   3.690 -0.2034  0.4221  0.8467
  255MOL0     C35110   5.710   3.516   3.647 -0.1568 -0.2358 -0.3907
  255MOL0     O35111   5.572   3.490   3.636 -0.1961 -0.5885  0.9270
  255MOL0     C35112   5.546   3.433   3.503 -0.1933 -0.0166  0.0021
  255MOL0     C35113   5.411   3.473   3.440 -0.0052  1.2077 -0.1556
  255MOL0     C35114   5.384   3.624   3.448 -0.1203 -0.5861 -0.4537
  255MOL0     C35115   5.255   3.647   3.373  0.4855  0.3016 -0.0259
  255MOL0     C35116   5.273   3.651   3.225  0.3293 -0.6728 -0.3027
  255MOL0     C35117   5.291   3.667   3.104  0.0295  0.3814  0.0878
  255MOL0     C35118   5.762   3.645   3.610 -0.0481  0.0006  0.5295
  255MOL0     C35119   5.900   3.669   3.626  0.0220  0.2218  0.0449
  255MOL0     C35120   5.947   3.809   3.586 -0.6707 -0.0022  0.2381
  255MOL0     H35121   6.370   3.404   3.749 -0.1477 -0.4855  0.1852
  255MOL0     H35122   6.601   3.440   3.812  1.0573  0.6004  1.8600
  255MOL0     H35123   6.754   3.618   3.796  0.0523 -2.3000  0.5065
  255MOL0     H35124   6.835   3.503   3.896 -1.0712 -0.6473 -1.8314
  255MOL0     H35125   6.958   3.720   3.842  2.0153 -1.4105  1.9049
  255MOL0     H35126   6.825   3.804   3.935 -1.0738 -0.1152  0.3432
  255MOL0     H35127   6.895   3.658   4.141  2.9402 -1.4417  1.2471
  255MOL0     H35128   7.015   3.580   4.043  0.8116  0.4659  1.1915
  255MOL0     H35129   7.108   3.817   4.005  0.4073 -3.3426 -1.5783
  255MOL0     H35130   6.998   3.859   4.135 -2.0990 -0.3899 -1.9797
  255MOL0     H35131   7.239   3.664   4.156  4.1840  1.2730  5.2546
  255MOL0     H35132   7.099   3.643   4.264 -2.0004 -1.0040 -3.0618
  255MOL0     H35133   7.269   3.877   4.214  1.0106  1.8012  2.5737
  255MOL0     H35134   7.146   3.868   4.351  0.7384 -2.0463  1.9262
  255MOL0     H35135   7.410   3.835   4.392  2.1358 -2.3115  2.7060
  255MOL0     H35136   7.381   3.684   4.300 -0.3811 -2.4995  0.1032
  255MOL0     H35137   7.230   3.735   4.551 -3.2300 -0.8319 -1.8688
  255MOL0     H35138   7.237   3.586   4.455 -0.0999  0.6625 -0.8071
  255MOL0     H35139   7.447   3.795   4.697  0.0939  0.3666 -0.5773
  255MOL0     H35140   7.704   3.704   4.835  0.6473  0.7254  0.7129
  255MOL0     H35141   7.734   3.809   4.699  0.8077 -0.5203 -1.7997
  255MOL0     H35142   7.920   3.635   4.799 -0.7396 -0.4525 -0.1993
  255MOL0     H35143   7.842   3.551   4.665 -0.3747 -0.4585 -0.6450
  255MOL0     H35144   7.907   3.728   4.493  1.1330  2.3211 -0.7902
  255MOL0     H35145   7.968   3.825   4.636 -0.4627 -0.6808  1.9778
  255MOL0     H35146   8.078   3.558   4.629  2.3916 -0.4505 -0.5167
  255MOL0     H35147   8.140   3.671   4.509 -0.6603 -1.3638  0.4882
  255MOL0     H35148   8.271   3.854   4.855  1.3357  3.0066 -1.8623
  255MOL0     H35149   8.427   3.870   5.044 -0.7654 -1.4603 -0.8977
  255MOL0     H35150   8.510   3.970   4.916 -1.6357 -1.5362 -2.7967
  255MOL0     H35151   8.599   3.846   5.021  0.7341  3.7847  1.2450
  255MOL0     H35152   8.866   3.528   5.026 -0.0388  0.1019 -0.9430
  255MOL0     H35153   9.087   3.495   5.096 -1.5411 -1.6668 -1.1047
  255MOL0     H35154   9.338   3.498   5.150  0.4543  2.1245  0.8128
  255MOL0     H35155   9.329   3.476   4.966  5.4031 -0.3844 -2.0925
  255MOL0     H35156   9.562   3.469   5.009 -1.7473 -1.3830  1.1395
  255MOL0     H35157   9.515   3.625   4.939  0.8434 -1.5979 -0.2753
  255MOL0     H35158   9.555   3.572   5.245 -0.5053  2.6561  1.4971
  255MOL0     H35159   9.522   3.719   5.164 -0.1100 -0.0658  1.8077
  255MOL0     H35160   9.724   3.719   5.044 -0.4280 -1.6360 -0.9903
  255MOL0     H35161   9.769   3.551   5.095 -0.2765 -0.4229 -2.8706
  255MOL0     H35162   9.739   3.805   5.273  0.2319  0.3898  2.3751
  255MOL0     H35163   9.767   3.639   5.339 -0.1503 -1.5443 -1.0098
  255MOL0     H35164   9.975   3.761   5.164 -1.1517  1.6699  1.1980
  255MOL0     H35165   9.959   3.591   5.215  2.0501 -0.3768 -2.5882
  255MOL0     H35166   9.976   3.654   5.447  3.4694 -1.2582  0.2293
  255MOL0     H35167   9.950   3.820   5.426  0.8331 -0.3959  1.7371
  255MOL0     H35168  10.189   3.817   5.295  0.8867  0.4715  0.0313
  255MOL0     H35169  10.194   3.650   5.369  0.2369  0.6676 -4.2978
  255MOL0     H35170   9.208   3.891   4.961  0.7822 -1.1252 -0.1876
  255MOL0     H35171   8.982   3.929   4.878  2.2342  0.1884 -1.4500
  255MOL0     H35172   8.585   3.548   4.641  0.4634  0.0952  1.2591
  255MOL0     H35173   8.332   3.539   4.577  0.4597  1.3511 -2.5137
  255MOL0     H35174   6.487   3.750   4.073  2.7451 -0.1868  0.1736
  255MOL0     H35175   6.245   3.700   4.022 -0.1192  0.2501 -0.0658
  255MOL0     H35176   5.987   3.371   3.760 -2.7142 -1.5981  1.1860
  255MOL0     H35177   5.762   3.327   3.730  1.2173  0.7968  3.2663
  255MOL0     H35178   5.628   3.456   3.434  1.4799 -1.7224  1.3331
  255MOL0     H35179   5.547   3.324   3.512 -1.0819 -0.1812 -1.4345
  255MOL0     H35180   5.329   3.417   3.485  2.0777 -1.0584  1.0728
  255MOL0     H35181   5.420   3.446   3.334  1.1783  1.1821 -0.0648
  255MOL0     H35182   5.376   3.649   3.555  0.4306 -2.0010 -0.0553
  255MOL0     H35183   5.465   3.679   3.399  0.2079 -0.8066 -0.1692
  255MOL0     H35184   5.200   3.737   3.400 -2.3265 -1.9734  2.6125
  255MOL0     H35185   5.191   3.563   3.403  1.3882 -0.0877  0.8454
  255MOL0     H35186   5.296   3.676   2.997 -1.0489 -0.7834 -0.0890
  255MOL0     H35187   5.697   3.708   3.551 -0.8335 -1.9472 -0.7657
  255MOL0     H35188   5.990   3.864   3.671 -0.1093 -0.3641  0.1903
  255MOL0     H35189   6.020   3.825   3.507  1.1437  1.3376  2.0765
  255MOL0     H35190   5.860   3.863   3.547 -0.2932  1.2525  1.0900
  256MOL0     O35191   8.698   4.527   1.380 -0.4293  0.5621 -0.1170
  256MOL0     C35192   8.694   4.491   1.263 -0.5202 -0.0827 -0.1144
  256MOL0     O35193   8.808   4.461   1.185  0.1212  0.2901 -0.3616
  256MOL0     C35194   8.937   4.462   1.239 -0.0473  0.1633 -0.0041
  256MOL0     C35195   9.028   4.352   1.239  0.2005 -0.2586 -0.0885
  256MOL0     C35196   9.160   4.362   1.291  0.0843  0.3699 -0.4658
  256MOL0     C35197   9.205   4.486   1.336  0.3168 -0.2096 -1.2496
  256MOL0     O35198   9.334   4.483   1.378 -0.0270  0.1624  0.1386
  256MOL0     C35199   9.385   4.609   1.425  0.5064 -0.9101  0.7123
  256MOL0     C35200   9.531   4.602   1.456 -0.6307 -0.0446  0.4475
  256MOL0     C35201   9.609   4.529   1.344 -1.0841  0.3946 -0.2909
  256MOL0     C35202   9.759   4.532   1.371 -0.4091  0.3569 -0.1949
  256MOL0     C35203   9.836   4.499   1.250  0.5120  0.5077  0.9393
  256MOL0     C35204   9.981   4.523   1.275 -1.0088  0.0698 -0.5276
  256MOL0     C35205  10.080   4.454   1.186 -0.0907 -1.0853  0.4753
  256MOL0     C35206  10.080   4.298   1.174 -0.2648 -0.0836 -0.0614
  256MOL0     N35207  10.210   4.264   1.114 -0.2543  0.7293 -0.5294
  256MOL0     C35208  10.243   4.137   1.076  1.0249 -0.3662 -0.6975
  256MOL0     C35209  10.354   4.139   1.005  0.2431  0.7483  0.5937
  256MOL0     C35210  10.423   4.034   0.933  0.2377 -0.2492  0.6014
  256MOL0     C35211  10.368   4.012   0.785  0.1154 -0.0322  0.6157
  256MOL0     C35212  10.390   4.130   0.695 -0.3079  0.3645  0.1953
  256MOL0     C35213  10.529   4.170   0.667  0.1258 -0.1574  0.3046
  256MOL0     O35214  10.603   4.063   0.610 -0.3581 -0.0267  0.4810
  256MOL0     C35215  10.739   4.059   0.635  0.1174  0.5049  0.4572
  256MOL0     C35216  10.796   3.953   0.576 -0.2948 -0.8146  1.1304
  256MOL0     C35217  10.931   3.934   0.580 -0.3265 -0.0060 -0.0379
  256MOL0     C35218  10.989   3.818   0.507  0.1260 -0.8117 -0.4746
  256MOL0     C35219  11.018   4.025   0.655 -0.7968  0.4977  0.2722
  256MOL0     C35220  11.160   4.017   0.672 -0.5497 -0.0086  0.9544
  256MOL0     O35221  11.226   3.903   0.627 -0.2285  0.0451 -0.2621
  256MOL0     C35222  11.369   3.889   0.629  0.2894  0.3635 -1.0108
  256MOL0     C35223  11.469   3.983   0.648 -0.4177  0.6957  0.2718
  256MOL0     C35224  11.602   3.956   0.664  0.9842  0.3115  0.6296
  256MOL0     C35225  11.645   3.822   0.657 -0.2368 -0.2206 -1.1304
  256MOL0     O35226  11.781   3.789   0.678  0.1094  0.1035  0.4902
  256MOL0     C35227  11.829   3.660   0.647  0.2758  0.4374 -0.0902
  256MOL0     C35228  11.974   3.668   0.694 -0.8300 -1.0443 -0.2125
  256MOL0     C35229  12.038   3.525   0.679  0.6815  0.1824  0.0117
  256MOL0     C35230  12.116   3.494   0.810 -0.4178  0.4867 -0.0911
  256MOL0     C35231  12.178   3.354   0.816  0.5833 -0.3999  1.0130
  256MOL0     C35232  12.287   3.348   0.709 -0.4281  1.1083  0.5810
  256MOL0     C35233  12.331   3.202   0.688 -0.4222  0.4918  1.2223
  256MOL0     C35234  12.431   3.199   0.579  0.0602 -1.0841  0.0124
  256MOL0    Cl35235  12.494   3.041   0.541  0.3575  0.3399  0.0354
  256MOL0     C35236  11.548   3.716   0.637  0.1270 -0.4408  0.8719
  256MOL0     C35237  11.414   3.755   0.625 -0.6413  1.0143 -0.0341
  256MOL0     O35238  11.219   4.119   0.707 -0.8331 -0.7957  0.9999
  256MOL0     C35239  10.954   4.131   0.726 -0.3182 -0.1628  1.7773
  256MOL0     C35240  10.818   4.133   0.723  0.2872 -0.4574  0.8227
  256MOL0     N35241  10.386   4.274   1.005 -0.2055  0.0550  0.7588
  256MOL0     N35242  10.302   4.349   1.061 -0.3351  0.5192  0.2346
  256MOL0     C35243   9.109   4.594   1.344  0.6350  0.4856  0.4223
  256MOL0     C35244   8.984   4.588   1.278 -0.7182  0.3281  0.1903
  256MOL0     C35245   8.561   4.487   1.201 -0.2692  0.7940 -0.3084
  256MOL0     C35246   8.444   4.543   1.271 -0.1965  0.5506  0.3773
  256MOL0     C35247   8.320   4.535   1.215  0.0135 -0.0760  0.4112
  256MOL0     C35248   8.295   4.484   1.088 -0.0650  0.7908 -0.3621
  256MOL0     O35249   8.174   4.477   1.021  0.2208 -0.2369 -0.1943
  256MOL0     C35250   8.062   4.523   1.092 -0.1272 -0.3251  0.4920
  256MOL0     C35251   7.930   4.504   1.011 -0.1086  0.2634  0.3685
  256MOL0     C35252   7.912   4.353   0.986  0.3901  0.0675 -0.2792
  256MOL0     C35253   7.777   4.317   0.923  0.0480  0.2212 -0.1964
  256MOL0     C35254   7.731   4.413   0.826  0.2097  0.1098  0.7074
  256MOL0     C35255   7.684   4.490   0.740  0.0935  0.5626 -0.1520
  256MOL0     C35256   8.411   4.427   1.027  0.0307 -0.1203 -0.3472
  256MOL0     C35257   8.537   4.422   1.081  0.3312 -0.5746 -0.8943
  256MOL0     C35258   8.636   4.335   1.004 -0.0137  0.7581 -0.1209
  256MOL0     H35259   8.988   4.258   1.203 -2.5981 -0.1148  2.2892
  256MOL0     H35260   9.224   4.274   1.295 -0.9650 -0.3480  2.5120
  256MOL0     H35261   9.333   4.634   1.518  1.3606  2.6751  0.3607
  256MOL0     H35262   9.358   4.684   1.351  0.7092 -2.5096 -1.0766
  256MOL0     H35263   9.578   4.700   1.470 -0.3443 -0.4169  2.4677
  256MOL0     H35264   9.552   4.540   1.544 -0.8243  0.4122  0.8266
  256MOL0     H35265   9.577   4.425   1.336 -0.4954  0.2004 -0.1656
  256MOL0     H35266   9.585   4.576   1.248  0.0693  1.7143  0.0279
  256MOL0     H35267   9.793   4.634   1.395 -0.1880 -0.0513  1.3476
  256MOL0     H35268   9.787   4.459   1.447  1.4428  1.9256  0.7390
  256MOL0     H35269   9.798   4.555   1.164  1.7858  0.1044  0.0742
  256MOL0     H35270   9.814   4.394   1.229 -2.5740  0.9513  1.5772
  256MOL0     H35271  10.000   4.631   1.272 -1.4682  0.1621 -0.1193
  256MOL0     H35272  10.001   4.504   1.381 -2.6347  4.2697  0.7340
  256MOL0     H35273  10.175   4.498   1.218 -1.8735  2.1791  1.8394
  256MOL0     H35274  10.062   4.492   1.085 -2.5709  0.7745  1.5058
  256MOL0     H35275  10.057   4.253   1.271 -1.4813  0.7607  0.0638
  256MOL0     H35276   9.998   4.266   1.109 -1.2962  1.6239  0.3310
  256MOL0     H35277  10.177   4.051   1.083 -0.1187  0.4055 -1.5438
  256MOL0     H35278  10.426   3.939   0.986  0.0850 -0.1497  0.7869
  256MOL0     H35279  10.523   4.075   0.918  0.4961 -1.1559 -0.3063
  256MOL0     H35280  10.416   3.927   0.737  1.4700  1.7516 -1.3279
  256MOL0     H35281  10.259   3.999   0.787  0.0245 -0.5947 -2.9434
  256MOL0     H35282  10.345   4.106   0.599 -0.2438 -0.4774  0.3729
  256MOL0     H35283  10.350   4.224   0.737  1.0292  1.6602 -1.3085
  256MOL0     H35284  10.525   4.252   0.595  0.8196 -0.7434 -0.4249
  256MOL0     H35285  10.570   4.208   0.761  1.5755 -0.9189  0.0183
  256MOL0     H35286  10.739   3.883   0.516  0.0365 -0.8379  0.8409
  256MOL0     H35287  10.915   3.767   0.445  0.5682  1.4682 -3.1162
  256MOL0     H35288  11.042   3.748   0.571  3.5642  0.5938 -1.5493
  256MOL0     H35289  11.066   3.862   0.442 -1.2455  1.4868 -0.6480
  256MOL0     H35290  11.440   4.088   0.641 -1.4508  0.3704 -0.5912
  256MOL0     H35291  11.662   4.045   0.679 -1.1933  1.8607  0.7220
  256MOL0     H35292  11.784   3.577   0.701  0.0325 -0.7908 -2.0835
  256MOL0     H35293  11.811   3.638   0.542  1.0826 -0.5634 -0.0289
  256MOL0     H35294  12.028   3.736   0.627  0.0769 -0.1189  1.3991
  256MOL0     H35295  11.977   3.700   0.798  1.6905 -3.9145  0.7676
  256MOL0     H35296  12.092   3.527   0.583 -3.8924  0.0765 -2.8904
  256MOL0     H35297  11.951   3.460   0.669 -2.1939  3.5793  1.0890
  256MOL0     H35298  12.043   3.495   0.891 -0.5725  1.2753 -0.2304
  256MOL0     H35299  12.191   3.568   0.835 -1.5355  0.7793  2.8531
  256MOL0     H35300  12.229   3.323   0.908  0.0315 -2.0813  0.7921
  256MOL0     H35301  12.097   3.282   0.802  2.7135 -2.9174  0.8642
  256MOL0     H35302  12.373   3.412   0.734 -0.4113  2.9413 -3.4011
  256MOL0     H35303  12.252   3.382   0.612 -1.2376 -2.1784 -0.3887
  256MOL0     H35304  12.244   3.145   0.652  1.1230  0.2146 -2.4992
  256MOL0     H35305  12.362   3.163   0.785 -2.1837  0.6203  1.8709
  256MOL0     H35306  12.513   3.265   0.611  0.2000 -1.0053 -0.4938
  256MOL0     H35307  12.383   3.248   0.494  0.0090 -1.0608  0.0540
  256MOL0     H35308  11.575   3.612   0.628  1.2857 -0.2696  2.0813
  256MOL0     H35309  11.355   3.665   0.632  0.5242  0.2453  0.2442
  256MOL0     H35310  11.010   4.186   0.801  0.0239 -0.1144  1.4929
  256MOL0     H35311  10.768   4.213   0.776 -0.6403 -0.9660  0.7379
  256MOL0     H35312   9.142   4.688   1.388  2.4327 -0.2399  0.7026
  256MOL0     H35313   8.908   4.665   1.279 -1.7680 -0.6508 -1.0039
  256MOL0     H35314   8.456   4.588   1.370  2.4055  0.5653  0.1306
  256MOL0     H35315   8.242   4.584   1.272 -0.7660 -0.1351 -0.5809
  256MOL0     H35316   8.052   4.479   1.192  1.1400 -0.5671  0.5283
  256MOL0     H35317   8.070   4.631   1.107 -0.5227 -0.4703  1.9732
  256MOL0     H35318   7.940   4.562   0.919  1.0501  1.6955  1.3367
  256MOL0     H35319   7.851   4.549   1.071  0.2096  1.9707 -0.4144
  256MOL0     H35320   7.986   4.313   0.916  0.8497 -1.3261  0.9507
  256MOL0     H35321   7.932   4.304   1.082  2.7877  1.7616  0.1595
  256MOL0     H35322   7.699   4.291   0.996  0.8632 -1.7296  0.0173
  256MOL0     H35323   7.804   4.230   0.862 -1.7501 -2.5264  2.6174
  256MOL0     H35324   7.649   4.555   0.663  2.1444  2.7990  0.6663
  256MOL0     H35325   8.400   4.372   0.935 -1.9243  1.5002 -1.1620
  256MOL0     H35326   8.693   4.402   0.938  0.3587  0.0246 -0.5665
  256MOL0     H35327   8.697   4.265   1.061 -1.8492 -2.5863 -1.9471
  256MOL0     H35328   8.588   4.262   0.938 -0.8170 -0.0031  1.2721
  257MOL0     O35329   9.167   7.260   4.170 -0.0055 -0.0513 -0.6666
  257MOL0     C35330   9.203   7.249   4.053  0.2761 -0.8101  0.2094
  257MOL0     O35331   9.132   7.278   3.941  0.5718 -0.1028 -0.5345
  257MOL0     C35332   8.996   7.313   3.947 -0.5979 -0.4203 -0.3840
  257MOL0     C35333   8.941   7.411   3.856  0.2727  0.8401 -0.0888
  257MOL0     C35334   8.808   7.449   3.865 -0.6846 -0.3671  0.1021
  257MOL0     C35335   8.723   7.387   3.959  0.1782  0.5640  0.0466
  257MOL0     O35336   8.589   7.429   3.956 -0.0899 -0.3369 -0.2162
  257MOL0     C35337   8.514   7.393   4.078 -0.1384 -0.0558  0.2015
  257MOL0     C35338   8.379   7.461   4.061  0.4069 -0.0182 -0.0332
  257MOL0     C35339   8.308   7.475   4.199  0.1676 -0.4328 -0.6249
  257MOL0     C35340   8.183   7.560   4.194  0.6365 -0.3713  0.1562
  257MOL0     C35341   8.060   7.475   4.169  0.3562  0.0077 -0.1698
  257MOL0     C35342   7.926   7.542   4.177  0.3006  0.5526  0.3733
  257MOL0     C35343   7.899   7.631   4.302 -0.6217 -0.0478  0.0180
  257MOL0     C35344   7.753   7.673   4.324  0.3555 -0.2858  0.0679
  257MOL0     N35345   7.664   7.574   4.389  0.0783 -0.9838 -1.4036
  257MOL0     C35346   7.696   7.516   4.511 -0.1051  0.4963  0.5535
  257MOL0     C35347   7.612   7.414   4.524 -0.2658 -0.2083  0.2474
  257MOL0     C35348   7.620   7.338   4.659 -0.4665  0.0041  0.3702
  257MOL0     C35349   7.499   7.372   4.744  0.3313  1.3540  0.4430
  257MOL0     C35350   7.471   7.252   4.846 -0.7161  0.2410 -0.3717
  257MOL0     C35351   7.577   7.254   4.965 -0.0592  0.7612  1.0050
  257MOL0     O35352   7.714   7.228   4.918  0.3870 -0.0212  0.2951
  257MOL0     C35353   7.747   7.096   4.897  0.1226 -1.2114 -0.2983
  257MOL0     C35354   7.673   6.985   4.913 -0.7047 -0.2086  0.0907
  257MOL0     C35355   7.725   6.855   4.896 -0.5127 -0.0472  0.9288
  257MOL0     C35356   7.634   6.740   4.904 -0.3884 -0.6447 -0.7665
  257MOL0     C35357   7.864   6.840   4.851  0.8614 -0.1382  0.1094
  257MOL0     C35358   7.922   6.712   4.802 -0.4206  0.1373 -0.1505
  257MOL0     O35359   7.867   6.590   4.843  0.3805 -0.3194 -0.1904
  257MOL0     C35360   7.927   6.480   4.792  0.5258  0.5812 -0.4328
  257MOL0     C35361   7.895   6.442   4.667  0.5116  0.7895  0.1247
  257MOL0     C35362   7.973   6.335   4.607 -0.8084 -0.1993 -0.8492
  257MOL0     C35363   8.062   6.264   4.685 -0.4689  0.1707 -0.0376
  257MOL0     O35364   8.136   6.160   4.630 -0.8609  0.6727  0.1579
  257MOL0     C35365   8.278   6.157   4.658  0.7913 -0.9050  0.1395
  257MOL0     C35366   8.332   6.028   4.594 -0.2671  0.2045  0.3579
  257MOL0     C35367   8.487   6.018   4.621  0.1465  0.4108  0.6541
  257MOL0     C35368   8.532   5.872   4.603  0.0506 -0.3130  0.1091
  257MOL0     C35369   8.682   5.861   4.636 -0.3131 -0.6187  0.1986
  257MOL0     C35370   8.773   5.832   4.519  0.1698  0.1547 -0.2115
  257MOL0     C35371   8.766   5.687   4.469 -0.9495 -0.2914  0.4852
  257MOL0     C35372   8.794   5.686   4.321  0.1552  0.2241  0.2803
  257MOL0    Cl35373   8.959   5.754   4.293 -0.2796  0.0313 -0.4645
  257MOL0     C35374   8.091   6.314   4.816 -0.0529  0.3974  0.8829
  257MOL0     C35375   8.015   6.419   4.869 -0.8100  0.7478  0.3470
  257MOL0     O35376   8.014   6.716   4.725 -0.3185 -0.5477  0.0861
  257MOL0     C35377   7.932   6.957   4.838  0.2134 -0.3420  0.1421
  257MOL0     C35378   7.879   7.081   4.865  0.1269  0.2155 -0.4464
  257MOL0     N35379   7.525   7.410   4.411 -0.5770 -0.2106  0.2022
  257MOL0     N35380   7.559   7.513   4.340  0.9528  0.2820 -0.0100
  257MOL0     C35381   8.776   7.276   4.024  0.0923  0.1802 -0.2034
  257MOL0     C35382   8.911   7.239   4.022  0.5097  0.2466 -0.2896
  257MOL0     C35383   9.347   7.215   4.020  0.4893 -0.2071  0.2565
  257MOL0     C35384   9.402   7.273   3.904 -0.1215 -0.6068  0.0373
  257MOL0     C35385   9.526   7.224   3.857  0.6429  0.3363  0.6207
  257MOL0     C35386   9.589   7.116   3.927 -1.0254  0.8023  1.4635
  257MOL0     O35387   9.710   7.072   3.877 -0.0394 -0.4328  0.2209
  257MOL0     C35388   9.828   7.161   3.885  0.0041  0.7089  0.1477
  257MOL0     C35389   9.963   7.079   3.867  0.6709 -0.3561  0.0700
  257MOL0     C35390   9.974   6.956   3.962 -0.0803  1.0564 -0.3174
  257MOL0     C35391   9.971   6.991   4.110 -0.2711  0.1659  0.0841
  257MOL0     C35392  10.083   7.077   4.148 -0.5941  0.0833  0.0506
  257MOL0     C35393  10.175   7.145   4.188 -0.3934 -0.4313 -0.3347
  257MOL0     C35394   9.542   7.071   4.051  0.3259  0.2344  0.0127
  257MOL0     C35395   9.416   7.112   4.091  0.5629 -0.1697 -0.0790
  257MOL0     C35396   9.355   7.040   4.212 -0.1064  0.8495 -0.6925
  257MOL0     H35397   8.989   7.464   3.774  0.5549  0.4919 -0.1522
  257MOL0     H35398   8.768   7.528   3.803  0.1638 -0.8102 -1.0373
  257MOL0     H35399   8.580   7.435   4.154  0.9048 -0.5401 -0.4018
  257MOL0     H35400   8.501   7.285   4.084  0.8118 -0.2832 -1.1817
  257MOL0     H35401   8.402   7.552   4.005 -3.0181 -0.1702 -1.9653
  257MOL0     H35402   8.305   7.419   3.992 -0.2968  1.0083  0.0865
  257MOL0     H35403   8.281   7.372   4.225 -1.2147  0.3792  1.3693
  257MOL0     H35404   8.378   7.512   4.274 -0.3581 -0.5613 -0.0563
  257MOL0     H35405   8.163   7.606   4.292  0.2145  2.8413 -1.3182
  257MOL0     H35406   8.184   7.633   4.113 -0.7879 -1.0748 -0.5327
  257MOL0     H35407   8.061   7.399   4.248  2.1582  0.4683  0.2927
  257MOL0     H35408   8.072   7.437   4.067  0.6158  2.4158 -1.1024
  257MOL0     H35409   7.914   7.600   4.085 -0.0940  0.9595  0.6789
  257MOL0     H35410   7.859   7.455   4.176  0.9147  0.0693  0.6853
  257MOL0     H35411   7.960   7.722   4.306  0.0960 -0.5613  1.7120
  257MOL0     H35412   7.934   7.577   4.390 -1.4532 -0.8947 -0.1588
  257MOL0     H35413   7.757   7.767   4.380  1.1051  0.9590 -1.9560
  257MOL0     H35414   7.711   7.700   4.226  2.6139 -1.6114 -1.3368
  257MOL0     H35415   7.776   7.549   4.576  1.5074 -3.4743  0.8714
  257MOL0     H35416   7.714   7.362   4.711  0.4554 -2.4842 -0.0437
  257MOL0     H35417   7.624   7.234   4.626  0.2908  0.2507 -0.3347
  257MOL0     H35418   7.500   7.471   4.791 -0.7985 -0.1754  4.0932
  257MOL0     H35419   7.403   7.381   4.694  1.0036  2.6578 -0.6650
  257MOL0     H35420   7.379   7.273   4.902  0.6352  0.2637  1.9883
  257MOL0     H35421   7.466   7.152   4.801 -3.2286  0.0952  0.0718
  257MOL0     H35422   7.566   7.355   5.005 -1.0535  0.9204  0.3694
  257MOL0     H35423   7.544   7.188   5.046  0.4017 -0.4852  0.1999
  257MOL0     H35424   7.568   6.991   4.941 -0.6356  1.9268  0.0538
  257MOL0     H35425   7.528   6.763   4.915 -0.3045 -1.1372  1.4555
  257MOL0     H35426   7.655   6.669   4.984 -2.2044 -1.7977 -1.2629
  257MOL0     H35427   7.650   6.678   4.815 -2.1129  0.9090 -2.2358
  257MOL0     H35428   7.824   6.499   4.609 -0.6074 -0.5976  0.0883
  257MOL0     H35429   7.967   6.313   4.501  1.4076  2.0925 -1.5553
  257MOL0     H35430   8.323   6.242   4.606 -1.3749 -0.3750 -0.9878
  257MOL0     H35431   8.298   6.165   4.765  1.4841  1.7774 -0.1207
  257MOL0     H35432   8.283   5.936   4.630  0.4474 -0.1555  0.4204
  257MOL0     H35433   8.317   6.044   4.487 -0.8090  0.3811  0.4540
  257MOL0     H35434   8.505   6.047   4.725 -0.1878 -0.2774  0.9101
  257MOL0     H35435   8.529   6.096   4.557  1.1745  0.6125  1.5333
  257MOL0     H35436   8.502   5.846   4.500 -2.1742  1.5055  0.2212
  257MOL0     H35437   8.465   5.810   4.663 -1.0017  0.4354 -0.2460
  257MOL0     H35438   8.729   5.952   4.672  0.4494 -1.1369  0.5497
  257MOL0     H35439   8.704   5.781   4.708  0.4877 -0.6635 -0.0837
  257MOL0     H35440   8.877   5.843   4.551  0.6322 -1.4141 -1.0977
  257MOL0     H35441   8.736   5.901   4.442  0.0498 -2.3369 -2.5575
  257MOL0     H35442   8.666   5.647   4.491 -0.1485 -0.2840  5.2777
  257MOL0     H35443   8.839   5.622   4.518 -1.2550 -1.7812 -0.9745
  257MOL0     H35444   8.714   5.753   4.290  1.3158  2.0770  1.1334
  257MOL0     H35445   8.790   5.587   4.274 -0.1915 -0.6981  2.1198
  257MOL0     H35446   8.173   6.264   4.867 -1.9487 -1.6908  2.1039
  257MOL0     H35447   8.046   6.466   4.962  3.0266  2.2944 -1.5210
  257MOL0     H35448   8.032   6.950   4.796  0.1011 -1.5345  0.0377
  257MOL0     H35449   7.937   7.171   4.846 -0.5760  0.3743 -2.0430
  257MOL0     H35450   8.710   7.222   4.092 -0.7667  1.8116  0.3181
  257MOL0     H35451   8.945   7.150   4.074  1.2296  0.6584 -0.0633
  257MOL0     H35452   9.344   7.347   3.849 -0.2128 -0.8066 -0.1355
  257MOL0     H35453   9.565   7.263   3.763  0.0813  2.5986  1.2508
  257MOL0     H35454   9.834   7.251   3.823  0.0871  1.8715  1.7757
  257MOL0     H35455   9.831   7.203   3.986  1.3400  0.8105  0.0807
  257MOL0     H35456  10.045   7.149   3.884 -0.8795  0.9311  3.1687
  257MOL0     H35457   9.962   7.035   3.767 -2.0801  2.1697 -1.1594
  257MOL0     H35458   9.896   6.884   3.934  0.3997  0.1621  0.5830
  257MOL0     H35459  10.073   6.911   3.955 -0.4464 -0.2266  1.8189
  257MOL0     H35460   9.961   6.911   4.184  0.6984  0.5946  0.7058
  257MOL0     H35461   9.884   7.051   4.137 -0.2228 -0.0843  0.7924
  257MOL0     H35462  10.267   7.184   4.227 -0.4558 -0.7855  0.1791
  257MOL0     H35463   9.601   6.998   4.106 -0.2378 -1.3194 -1.3671
  257MOL0     H35464   9.424   6.978   4.269 -2.1283 -1.3955 -0.5167
  257MOL0     H35465   9.300   7.101   4.284 -0.4671 -0.4235  0.1527
  257MOL0     H35466   9.282   6.971   4.168 -0.1055 -0.3302  1.0378
  258MOL0     O35467   3.345   0.226   9.546 -0.1019 -0.1370 -0.2453
  258MOL0     C35468   3.254   0.311   9.573 -0.6677 -0.4492  0.9061
  258MOL0     O35469   3.267   0.443   9.620  0.5267  0.2328 -0.3408
  258MOL0     C35470   3.398   0.479   9.624 -0.2228  0.4371 -0.0319
  258MOL0     C35471   3.473   0.469   9.739 -0.2098 -0.2480 -0.1237
  258MOL0     C35472   3.611   0.511   9.743 -0.3561 -0.4869 -0.4072
  258MOL0     C35473   3.676   0.545   9.628 -0.3031 -0.3247 -0.8066
  258MOL0     O35474   3.813   0.570   9.640  0.6435 -0.4413 -0.1278
  258MOL0     C35475   3.877   0.640   9.534  0.7729  0.2445 -0.5607
  258MOL0     C35476   4.018   0.656   9.552  0.7555 -0.1125 -0.3869
  258MOL0     C35477   4.090   0.781   9.485  0.2596  0.6275  0.1435
  258MOL0     C35478   4.077   0.912   9.552 -0.0481  0.1187 -0.2462
  258MOL0     C35479   4.184   1.017   9.510  0.3486  0.6005  0.3186
  258MOL0     C35480   4.155   1.068   9.374  0.2463 -0.1022  0.5039
  258MOL0     C35481   4.257   1.192   9.346 -1.0233  0.9130  0.5330
  258MOL0     C35482   4.409   1.149   9.330 -0.3258 -0.3515  1.0417
  258MOL0     N35483   4.425   1.050   9.220 -0.9462  0.0082  0.0369
  258MOL0     C35484   4.428   0.917   9.252  0.1062  0.1970  0.2829
  258MOL0     C35485   4.432   0.854   9.129 -0.3243 -0.1764  0.2916
  258MOL0     C35486   4.437   0.709   9.107 -0.4046 -0.0085  0.4299
  258MOL0     C35487   4.589   0.678   9.089  0.5867  0.2081  0.2330
  258MOL0     C35488   4.637   0.718   8.951 -0.0781  0.7047 -0.7827
  258MOL0     C35489   4.790   0.687   8.932  0.6352 -0.1289 -0.2257
  258MOL0     O35490   4.822   0.543   8.914 -0.0116 -0.0397 -0.1096
  258MOL0     C35491   4.956   0.518   8.914  0.4425  0.4204  0.4168
  258MOL0     C35492   5.004   0.434   8.818 -0.4131  0.0537 -0.1208
  258MOL0     C35493   5.143   0.383   8.821  0.1096  0.1469 -0.5933
  258MOL0     C35494   5.185   0.286   8.715 -0.6744 -0.5556  0.1130
  258MOL0     C35495   5.228   0.426   8.927 -0.1178 -0.2325 -1.1510
  258MOL0     C35496   5.361   0.366   8.956 -0.0132 -0.8859 -0.6503
  258MOL0     O35497   5.387   0.246   8.916  1.1300  0.1895  0.2406
  258MOL0     C35498   5.507   0.189   8.913  0.4577 -0.2812 -0.1964
  258MOL0     C35499   5.566   0.147   9.037 -0.2275  0.6689  0.6375
  258MOL0     C35500   5.694   0.090   9.020  0.1310 -0.6438 -0.7482
  258MOL0     C35501   5.758   0.073   8.896  0.5271 -0.7136  0.6895
  258MOL0     O35502   5.877   0.006   8.880  0.8766  0.1901 -0.1132
  258MOL0     C35503   5.910  -0.086   8.979 -0.2752 -0.5176 -0.4218
  258MOL0     C35504   6.005  -0.198   8.921  0.8752 -1.2795 -1.7842
  258MOL0     C35505   6.129  -0.141   8.875 -0.1287  0.0525 -1.1782
  258MOL0     C35506   6.221  -0.073   8.981 -0.3458  0.1056 -0.4790
  258MOL0     C35507   6.346  -0.018   8.916 -0.4450 -0.1629  0.1509
  258MOL0     C35508   6.438   0.041   9.027 -0.1474  0.6058  1.4004
  258MOL0     C35509   6.395   0.181   9.070 -0.7808  0.5101 -0.6197
  258MOL0     C35510   6.465   0.237   9.195 -0.3678  0.1365 -0.0166
  258MOL0    Cl35511   6.454   0.409   9.159 -0.1025 -0.3559 -0.0495
  258MOL0     C35512   5.690   0.108   8.779  0.3969  0.8858 -0.1584
  258MOL0     C35513   5.559   0.158   8.787  0.1350  0.1546 -0.4166
  258MOL0     O35514   5.446   0.437   9.006  0.7282  0.2409  0.1837
  258MOL0     C35515   5.177   0.516   9.019 -0.4055  0.2207 -0.1633
  258MOL0     C35516   5.046   0.563   9.005  0.0929  0.1382 -0.5563
  258MOL0     N35517   4.444   0.960   9.030 -0.0558 -0.5979  0.4140
  258MOL0     N35518   4.460   1.070   9.088  0.0022 -0.3084  0.2026
  258MOL0     C35519   3.602   0.566   9.511 -0.1333  0.4913  0.5575
  258MOL0     C35520   3.464   0.528   9.506  0.4776  0.2172 -0.8662
  258MOL0     C35521   3.115   0.257   9.570 -0.8557  0.3428 -0.0871
  258MOL0     C35522   3.019   0.337   9.629 -0.2046  0.6619 -0.0967
  258MOL0     C35523   2.879   0.298   9.617 -0.3285  0.7506  0.4473
  258MOL0     C35524   2.838   0.175   9.572 -0.0946 -0.2445 -0.2995
  258MOL0     O35525   2.704   0.158   9.571  0.6006 -0.7877 -0.0019
  258MOL0     C35526   2.645   0.033   9.544 -0.7835 -0.0818  0.1396
  258MOL0     C35527   2.496   0.029   9.581 -0.4682 -0.1877 -0.3039
  258MOL0     C35528   2.422   0.152   9.535  0.3241 -0.8555  1.0354
  258MOL0     C35529   2.430   0.175   9.380 -0.1785  0.4218 -0.9144
  258MOL0     C35530   2.343   0.288   9.343 -0.1134 -0.2241  0.5153
  258MOL0     C35531   2.276   0.390   9.315 -0.0586  0.8896 -0.7895
  258MOL0     C35532   2.941   0.092   9.510 -0.4241 -0.4507  1.0632
  258MOL0     C35533   3.076   0.138   9.508 -0.1537  0.0482  0.3554
  258MOL0     C35534   3.170   0.036   9.436  0.1858 -0.0502 -0.0185
  258MOL0     H35535   3.417   0.437   9.827 -0.7102  0.2876 -0.2383
  258MOL0     H35536   3.668   0.496   9.834 -0.2685  0.3564 -0.3186
  258MOL0     H35537   3.827   0.736   9.522  1.3210  0.9276  1.9651
  258MOL0     H35538   3.864   0.589   9.438 -0.4192  0.5895 -0.6057
  258MOL0     H35539   4.040   0.652   9.659  0.9561  2.4223 -0.2847
  258MOL0     H35540   4.055   0.562   9.510 -0.5614 -1.5999  1.5810
  258MOL0     H35541   4.192   0.741   9.487 -0.0648 -0.2696 -0.2955
  258MOL0     H35542   4.062   0.794   9.380  0.1459  0.3008  0.1321
  258MOL0     H35543   3.972   0.943   9.548 -0.6907 -1.2088  3.1118
  258MOL0     H35544   4.094   0.894   9.658  1.6585  5.0120  0.5516
  258MOL0     H35545   4.284   0.974   9.497 -0.5247 -1.7575  0.9367
  258MOL0     H35546   4.189   1.099   9.583 -2.4802 -1.4364  3.0661
  258MOL0     H35547   4.171   0.983   9.307 -2.5729 -0.3324  0.0325
  258MOL0     H35548   4.050   1.096   9.366  0.0801 -0.7124  0.5358
  258MOL0     H35549   4.241   1.275   9.416 -1.4982  1.2610  0.0210
  258MOL0     H35550   4.229   1.227   9.246 -1.3124  1.1442  0.6927
  258MOL0     H35551   4.487   1.227   9.328 -0.0960 -0.6005 -0.5834
  258MOL0     H35552   4.442   1.100   9.422  1.6488  1.4153  1.3579
  258MOL0     H35553   4.423   0.882   9.355 -0.0230  0.7047  0.4518
  258MOL0     H35554   4.378   0.682   9.019  2.0515 -0.3301 -1.2295
  258MOL0     H35555   4.394   0.658   9.193  0.9775 -1.8939  0.0603
  258MOL0     H35556   4.647   0.716   9.173  0.8168  0.5499 -0.0773
  258MOL0     H35557   4.594   0.569   9.099  0.5688 -0.0357 -1.8811
  258MOL0     H35558   4.570   0.686   8.871 -0.4783  1.9429 -0.9610
  258MOL0     H35559   4.631   0.827   8.946  1.6929  0.8067 -1.5071
  258MOL0     H35560   4.822   0.741   8.843  0.2476  0.2919 -0.1127
  258MOL0     H35561   4.839   0.726   9.022 -0.4379 -0.5918  0.5884
  258MOL0     H35562   4.933   0.390   8.749  0.8176  0.9749 -2.0588
  258MOL0     H35563   5.282   0.310   8.671 -1.7768 -1.1638 -2.8430
  258MOL0     H35564   5.110   0.289   8.636 -0.3870  1.0393 -0.1265
  258MOL0     H35565   5.196   0.181   8.742  0.8175 -0.7067 -0.9869
  258MOL0     H35566   5.519   0.184   9.127 -1.1665  0.0791  0.4038
  258MOL0     H35567   5.757   0.078   9.108  0.1606  0.3543 -0.6300
  258MOL0     H35568   5.956  -0.032   9.063  1.2080 -0.7813 -1.0184
  258MOL0     H35569   5.822  -0.134   9.021  0.2069 -0.8455  0.2442
  258MOL0     H35570   6.008  -0.279   8.995  0.1913 -0.5537 -0.9440
  258MOL0     H35571   5.961  -0.243   8.831 -1.0950 -1.2854 -0.8653
  258MOL0     H35572   6.111  -0.063   8.800 -0.0195 -0.5459 -1.8391
  258MOL0     H35573   6.193  -0.216   8.827  2.5916  1.9665 -0.7538
  258MOL0     H35574   6.251  -0.149   9.054  0.1755  2.6577  2.1498
  258MOL0     H35575   6.159   0.002   9.031 -2.6482  0.7104 -3.8824
  258MOL0     H35576   6.399  -0.104   8.876 -0.0937 -1.6920  3.5430
  258MOL0     H35577   6.332   0.058   8.839  2.4675 -0.7234 -1.0659
  258MOL0     H35578   6.532   0.060   8.976 -1.2048  0.5933 -0.6380
  258MOL0     H35579   6.454  -0.030   9.109  1.1525 -0.2681  0.4455
  258MOL0     H35580   6.287   0.194   9.083 -0.6903  0.3269  0.3984
  258MOL0     H35581   6.424   0.251   8.991  0.3679  2.7004  1.6013
  258MOL0     H35582   6.568   0.206   9.214 -0.6756 -0.0056  1.5505
  258MOL0     H35583   6.420   0.226   9.294  2.1302 -2.9526  0.9426
  258MOL0     H35584   5.737   0.074   8.687  3.1619  0.0358  1.4385
  258MOL0     H35585   5.501   0.167   8.695 -1.3332  0.8327  0.5471
  258MOL0     H35586   5.239   0.552   9.100 -2.2892 -0.4584  1.6844
  258MOL0     H35587   5.006   0.636   9.074 -2.3324 -0.9823 -0.6765
  258MOL0     H35588   3.638   0.602   9.415 -2.4164  0.1155 -0.5005
  258MOL0     H35589   3.409   0.530   9.412  2.4609 -2.1453 -2.1958
  258MOL0     H35590   3.035   0.434   9.675  0.4894  1.1709 -1.3559
  258MOL0     H35591   2.813   0.370   9.664  0.8828  1.0875  1.6986
  258MOL0     H35592   2.666   0.001   9.441  1.2169 -0.3584  0.5997
  258MOL0     H35593   2.701  -0.044   9.597  2.5551  1.6719 -0.5540
  258MOL0     H35594   2.470   0.003   9.684 -2.3020  0.4408 -0.5570
  258MOL0     H35595   2.458  -0.057   9.524  0.2189 -0.9927  0.4272
  258MOL0     H35596   2.316   0.130   9.552  0.1346  0.5372  1.9086
  258MOL0     H35597   2.449   0.243   9.590 -3.9873  1.5435 -0.3331
  258MOL0     H35598   2.410   0.087   9.318 -0.4076 -0.6064  0.5529
  258MOL0     H35599   2.531   0.207   9.355  0.2954 -1.0485 -1.0174
  258MOL0     H35600   2.242   0.490   9.295  1.5436  1.9644  1.4412
  258MOL0     H35601   2.915  -0.005   9.471  1.4590 -0.3621 -0.5712
  258MOL0     H35602   3.221   0.081   9.350  3.3638 -3.7853 -0.4018
  258MOL0     H35603   3.237  -0.025   9.497  1.4161 -0.8979 -2.1204
  258MOL0     H35604   3.106  -0.047   9.406 -1.0284  0.1668  1.7678
  259MOL0     O35605   1.466   7.245   3.646 -0.0593  0.5023 -0.5459
  259MOL0     C35606   1.492   7.121   3.654 -0.2400 -1.0198  0.8178
  259MOL0     O35607   1.609   7.069   3.677  0.3817 -0.0434 -0.2675
  259MOL0     C35608   1.713   7.145   3.736 -0.0066  0.0672  0.9280
  259MOL0     C35609   1.738   7.134   3.874  0.4353 -0.0432  0.1207
  259MOL0     C35610   1.852   7.183   3.932  0.6264 -0.1706  0.1304
  259MOL0     C35611   1.926   7.269   3.858  0.2783 -0.2819 -0.2226
  259MOL0     O35612   2.040   7.331   3.902  0.3554 -0.2804  0.1964
  259MOL0     C35613   2.077   7.322   4.039  0.1667  0.1715  0.4524
  259MOL0     C35614   2.165   7.452   4.076 -0.2579  0.3212  0.5796
  259MOL0     C35615   2.309   7.442   4.018  1.1325 -0.5200  0.1391
  259MOL0     C35616   2.403   7.343   4.091  0.4217  0.0012  0.5811
  259MOL0     C35617   2.541   7.334   4.027 -0.3182 -0.3023  0.1580
  259MOL0     C35618   2.607   7.195   4.029 -0.0090 -0.8306 -0.4423
  259MOL0     C35619   2.738   7.199   3.942 -0.2635 -0.1759 -0.4260
  259MOL0     C35620   2.810   7.073   3.959 -0.6794 -0.0489  0.1093
  259MOL0     N35621   2.950   7.092   3.915  0.1273  0.7601  0.2184
  259MOL0     C35622   2.998   7.111   3.791  0.0273 -0.5105  0.1766
  259MOL0     C35623   3.133   7.117   3.799  0.3847 -0.4432  0.0309
  259MOL0     C35624   3.228   7.128   3.684  0.4135 -0.0169 -0.8593
  259MOL0     C35625   3.309   7.268   3.685  0.4458  0.2551 -0.2052
  259MOL0     C35626   3.205   7.382   3.673 -0.0288 -0.4602 -0.8197
  259MOL0     C35627   3.275   7.504   3.612  0.0583 -0.2608  0.4092
  259MOL0     O35628   3.401   7.538   3.682 -0.9059  0.3952  0.3718
  259MOL0     C35629   3.462   7.645   3.622  0.5363 -0.0235  0.1098
  259MOL0     C35630   3.593   7.627   3.577  0.4782 -0.6128  0.2865
  259MOL0     C35631   3.672   7.733   3.522 -0.6878 -0.6682 -0.1938
  259MOL0     C35632   3.805   7.703   3.459 -0.7577  0.3588  1.1508
  259MOL0     C35633   3.626   7.866   3.532  0.6622 -0.0284 -0.4434
  259MOL0     C35634   3.699   7.985   3.484 -0.2026 -0.2397 -0.0510
  259MOL0     O35635   3.634   8.090   3.418 -0.4932  1.4565 -0.6572
  259MOL0     C35636   3.697   8.209   3.434 -0.1221  0.3222  0.4615
  259MOL0     C35637   3.652   8.316   3.521 -0.4047  0.3633 -0.3322
  259MOL0     C35638   3.719   8.440   3.518 -0.3298  0.9960  0.6867
  259MOL0     C35639   3.828   8.468   3.428 -0.6249  1.0480 -1.1307
  259MOL0     O35640   3.891   8.593   3.429 -0.3232 -0.0172  0.0791
  259MOL0     C35641   3.849   8.710   3.504 -0.9034  0.6107  0.3558
  259MOL0     C35642   3.915   8.835   3.437 -0.2998  0.7865  0.0784
  259MOL0     C35643   4.066   8.867   3.457 -0.2856  0.2360 -0.3119
  259MOL0     C35644   4.124   8.941   3.336  0.4078  0.7859  0.2657
  259MOL0     C35645   4.258   9.013   3.358 -0.4599 -0.6819  0.0188
  259MOL0     C35646   4.234   9.140   3.449  0.2971 -0.2136  0.0208
  259MOL0     C35647   4.360   9.242   3.458  0.8006  0.0416  0.2437
  259MOL0     C35648   4.342   9.353   3.349  0.0288 -0.5931  0.8288
  259MOL0    Cl35649   4.356   9.284   3.187  0.1490 -0.1799  0.1182
  259MOL0     C35650   3.874   8.364   3.348  0.2344 -0.2599  0.3102
  259MOL0     C35651   3.806   8.245   3.349  0.0894  0.5320  0.1243
  259MOL0     O35652   3.819   7.983   3.519  0.3969 -0.5338 -0.8063
  259MOL0     C35653   3.496   7.892   3.582 -0.4546 -0.4853 -0.8073
  259MOL0     C35654   3.422   7.782   3.637 -0.7314  0.9487  0.1850
  259MOL0     N35655   3.162   7.092   3.931  0.2481  0.8930 -0.1626
  259MOL0     N35656   3.053   7.084   3.999 -0.0540  0.2288  0.1050
  259MOL0     C35657   1.891   7.310   3.726  0.8226  0.0294 -0.3037
  259MOL0     C35658   1.780   7.242   3.669 -0.5150 -0.7318 -0.0811
  259MOL0     C35659   1.381   7.018   3.665 -0.0638 -0.0908 -0.0155
  259MOL0     C35660   1.404   6.895   3.737 -0.6996 -0.3083 -0.4296
  259MOL0     C35661   1.306   6.799   3.765  0.0769  0.7511 -1.2410
  259MOL0     C35662   1.176   6.815   3.716  0.3571  0.4670 -0.0634
  259MOL0     O35663   1.066   6.721   3.743 -0.6165 -0.0916  0.4635
  259MOL0     C35664   1.095   6.597   3.814  0.3208 -0.9475  1.1795
  259MOL0     C35665   0.974   6.511   3.816  0.8978  0.0815 -0.1266
  259MOL0     C35666   0.849   6.607   3.805 -0.6263 -0.5366  0.3098
  259MOL0     C35667   0.713   6.534   3.837 -1.4051  0.7247 -0.4024
  259MOL0     C35668   0.718   6.479   3.968 -0.6382  0.2415  0.2568
  259MOL0     C35669   0.728   6.420   4.079  0.4882 -0.2359  0.1305
  259MOL0     C35670   1.144   6.930   3.645 -0.2224 -0.1780  0.3157
  259MOL0     C35671   1.246   7.031   3.617 -0.5279  0.1286 -0.1557
  259MOL0     C35672   1.205   7.150   3.546  0.2215  0.1744 -0.3659
  259MOL0     H35673   1.665   7.074   3.928 -2.3085  1.8355 -1.2953
  259MOL0     H35674   1.877   7.158   4.034 -0.7899  0.9764  0.8010
  259MOL0     H35675   2.146   7.238   4.046  0.3206 -0.0072 -2.2219
  259MOL0     H35676   1.997   7.312   4.113 -0.9704 -0.2265 -0.8064
  259MOL0     H35677   2.117   7.542   4.037 -0.0045  1.0177  1.8355
  259MOL0     H35678   2.165   7.466   4.184 -1.2754  1.9248  0.4054
  259MOL0     H35679   2.293   7.414   3.914 -0.4118  2.4182 -0.5102
  259MOL0     H35680   2.345   7.545   4.026  0.9907 -0.3085 -1.6592
  259MOL0     H35681   2.405   7.367   4.198 -1.9744  0.0250  0.6690
  259MOL0     H35682   2.359   7.243   4.081  0.0197  0.3313 -1.4730
  259MOL0     H35683   2.597   7.413   4.077 -1.7975 -0.2742  1.8706
  259MOL0     H35684   2.532   7.365   3.923 -1.6034  2.8447  1.0965
  259MOL0     H35685   2.638   7.167   4.130  4.3365 -1.4322 -1.7247
  259MOL0     H35686   2.537   7.121   3.989 -4.1119  1.3016  2.1253
  259MOL0     H35687   2.804   7.280   3.976  0.7769 -1.5758  1.0546
  259MOL0     H35688   2.716   7.221   3.837 -0.9419  0.9845 -0.0589
  259MOL0     H35689   2.807   7.034   4.061  0.3402  1.2107  0.6520
  259MOL0     H35690   2.754   7.000   3.898 -0.0835  0.2537 -0.8300
  259MOL0     H35691   2.941   7.138   3.703 -3.1402 -1.1701  1.8960
  259MOL0     H35692   3.171   7.106   3.594  0.5495  0.1792 -0.9937
  259MOL0     H35693   3.306   7.053   3.699  1.2044  1.1149  1.0841
  259MOL0     H35694   3.359   7.279   3.782 -0.3805  0.9986  0.1415
  259MOL0     H35695   3.379   7.273   3.601  0.5336 -0.0286 -0.1516
  259MOL0     H35696   3.128   7.348   3.603  0.4583 -2.5875 -0.3952
  259MOL0     H35697   3.160   7.415   3.766  2.8473  0.9355  0.2009
  259MOL0     H35698   3.300   7.477   3.510  2.1059 -2.2949  1.3635
  259MOL0     H35699   3.201   7.585   3.614  0.8171  0.5040 -1.1330
  259MOL0     H35700   3.632   7.526   3.581 -1.7851 -1.5241  0.7908
  259MOL0     H35701   3.829   7.596   3.464  3.0694  1.0152  0.0143
  259MOL0     H35702   3.890   7.747   3.512 -0.1586 -0.8301  1.2171
  259MOL0     H35703   3.802   7.737   3.355 -0.4566  0.5109  1.1922
  259MOL0     H35704   3.558   8.308   3.574  0.8312  1.6369  2.2001
  259MOL0     H35705   3.681   8.520   3.581  1.3572  0.6058  2.2554
  259MOL0     H35706   3.740   8.720   3.513 -1.4146  0.4545 -3.6805
  259MOL0     H35707   3.890   8.688   3.603 -0.4981 -3.5244 -0.5175
  259MOL0     H35708   3.891   8.826   3.330  0.0269 -2.2393  0.1706
  259MOL0     H35709   3.863   8.927   3.464 -0.1195  0.4910  1.4909
  259MOL0     H35710   4.133   8.783   3.477  0.1113  0.2716 -1.4318
  259MOL0     H35711   4.083   8.941   3.536 -0.5206  0.3442 -0.3625
  259MOL0     H35712   4.046   9.002   3.289 -5.1791 -4.8647  0.8989
  259MOL0     H35713   4.132   8.862   3.261  0.8352  0.5481  0.5600
  259MOL0     H35714   4.334   8.940   3.384  0.6202 -0.9962 -3.5396
  259MOL0     H35715   4.288   9.043   3.257 -2.4453 -1.6885 -0.9359
  259MOL0     H35716   4.199   9.119   3.550 -2.4418  0.7849 -0.6490
  259MOL0     H35717   4.154   9.198   3.402  0.9137 -0.8974 -2.0020
  259MOL0     H35718   4.459   9.197   3.448  1.2685  1.2033 -0.5492
  259MOL0     H35719   4.353   9.294   3.554  0.8923 -0.0140  0.2809
  259MOL0     H35720   4.427   9.422   3.356  0.7492 -1.0578 -1.9839
  259MOL0     H35721   4.251   9.413   3.352  0.8139  0.6535  0.5942
  259MOL0     H35722   3.966   8.364   3.290  1.5826  0.1549  2.3507
  259MOL0     H35723   3.849   8.181   3.272 -1.3888  1.4716 -1.5470
  259MOL0     H35724   3.472   7.997   3.585  1.5586  0.1661 -3.5949
  259MOL0     H35725   3.320   7.797   3.673 -1.2172 -1.3730 -0.0850
  259MOL0     H35726   1.953   7.376   3.665  1.2654 -0.3065 -0.2239
  259MOL0     H35727   1.747   7.246   3.566 -0.1932 -2.7483 -0.3066
  259MOL0     H35728   1.504   6.878   3.775 -0.2651  1.0759 -0.8771
  259MOL0     H35729   1.332   6.710   3.822 -2.9338  0.1566 -0.5872
  259MOL0     H35730   1.175   6.541   3.765 -1.1566 -2.4091  0.3406
  259MOL0     H35731   1.128   6.621   3.916 -0.3957  2.2461  0.7457
  259MOL0     H35732   0.976   6.463   3.914  1.0227 -0.4307 -0.3728
  259MOL0     H35733   0.971   6.438   3.734 -2.8322 -0.9112  0.6966
  259MOL0     H35734   0.865   6.689   3.875  0.1807  0.3834 -0.9292
  259MOL0     H35735   0.836   6.656   3.709  0.3705 -0.4377  0.2228
  259MOL0     H35736   0.705   6.449   3.768 -2.8578 -0.1129  0.7378
  259MOL0     H35737   0.624   6.596   3.821 -2.7932 -1.2180 -0.6658
  259MOL0     H35738   0.751   6.375   4.173 -0.3075  0.6316  0.7558
  259MOL0     H35739   1.046   6.941   3.601 -0.7087 -2.4403  0.6780
  259MOL0     H35740   1.279   7.197   3.481 -1.9695  3.0387 -0.9982
  259MOL0     H35741   1.127   7.111   3.479  0.2935 -2.4750  0.9798
  259MOL0     H35742   1.154   7.224   3.609 -0.5041 -0.2972 -0.3810
  260MOL0     O35743   6.592   9.299   7.964  0.0970 -0.4196 -0.3834
  260MOL0     C35744   6.509   9.206   7.948  0.1020 -0.7344 -0.6798
  260MOL0     O35745   6.537   9.086   7.891  0.9354 -0.2215 -0.3355
  260MOL0     C35746   6.662   9.062   7.856 -0.4211 -0.0577  0.2321
  260MOL0     C35747   6.754   8.974   7.919  0.8383 -0.3552 -0.1399
  260MOL0     C35748   6.880   8.960   7.870 -0.8051  0.5863 -0.4948
  260MOL0     C35749   6.913   9.019   7.753 -0.9471 -0.4291 -0.2466
  260MOL0     O35750   7.045   9.017   7.707  0.3680  0.9994  0.2461
  260MOL0     C35751   7.100   8.881   7.715  0.1213  0.0181  0.3921
  260MOL0     C35752   7.239   8.896   7.656  0.3333 -0.2131  1.3815
  260MOL0     C35753   7.323   8.997   7.733 -0.2852 -0.2266  0.3785
  260MOL0     C35754   7.476   8.988   7.703 -0.3166  0.5148 -0.6464
  260MOL0     C35755   7.547   8.883   7.774  0.3550  0.3285 -0.3468
  260MOL0     C35756   7.692   8.887   7.719  0.1628 -0.0851  0.0606
  260MOL0     C35757   7.793   8.797   7.799 -0.0705 -0.1617 -0.3679
  260MOL0     C35758   7.924   8.799   7.729 -0.0840  0.0017 -0.4037
  260MOL0     N35759   8.024   8.774   7.835  0.4930 -0.1151  0.0778
  260MOL0     C35760   8.050   8.854   7.950  0.4154 -0.0611  0.3982
  260MOL0     C35761   8.139   8.784   8.015  0.2926  0.5171  0.6125
  260MOL0     C35762   8.217   8.823   8.134 -0.3712  0.0977 -0.9599
  260MOL0     C35763   8.336   8.917   8.099  0.6945 -0.0147  0.1159
  260MOL0     C35764   8.450   8.830   8.049  0.0900  0.5361  0.0611
  260MOL0     C35765   8.589   8.908   8.038  0.3522 -0.3691  0.3964
  260MOL0     O35766   8.608   8.935   7.893 -0.5551  0.2492 -0.7342
  260MOL0     C35767   8.727   9.010   7.869 -0.4654  0.8209  0.7124
  260MOL0     C35768   8.780   8.998   7.742  0.1968  0.9707 -0.8271
  260MOL0     C35769   8.893   9.067   7.698 -0.0559  0.5557  0.7019
  260MOL0     C35770   8.943   9.028   7.558  0.0040  0.3003  0.2355
  260MOL0     C35771   8.957   9.163   7.779 -0.1403  0.3153  0.0286
  260MOL0     C35772   9.081   9.236   7.769 -0.1714  0.4099  0.9177
  260MOL0     O35773   9.118   9.325   7.872  0.1721  0.2770 -0.0816
  260MOL0     C35774   9.244   9.375   7.869  0.1597  0.2067 -0.1350
  260MOL0     C35775   9.250   9.506   7.880  0.0579 -0.0104 -0.7173
  260MOL0     C35776   9.374   9.580   7.892  0.1476 -0.1896  0.2884
  260MOL0     C35777   9.493   9.508   7.908 -0.9932  0.1686  0.1133
  260MOL0     O35778   9.619   9.574   7.924  0.6210  0.0175 -0.2688
  260MOL0     C35779   9.647   9.705   7.879 -0.6453  0.0521  0.0140
  260MOL0     C35780   9.608   9.812   7.990  0.2823  0.2936 -0.6863
  260MOL0     C35781   9.586   9.948   7.936  0.3920  0.4114  0.2660
  260MOL0     C35782   9.454   9.962   7.863 -0.1257  0.3598  0.3704
  260MOL0     C35783   9.438  10.096   7.793 -0.3384  0.7688  0.3671
  260MOL0     C35784   9.398  10.205   7.900  0.3410  0.4769  0.8086
  260MOL0     C35785   9.404  10.338   7.820 -0.3253 -0.3486 -0.1320
  260MOL0     C35786   9.379  10.454   7.916  0.3996  0.2672  0.1460
  260MOL0    Cl35787   9.523  10.464   8.019 -0.3505  0.0747  0.0504
  260MOL0     C35788   9.483   9.371   7.887  0.3750  0.0656  0.6621
  260MOL0     C35789   9.359   9.304   7.877 -0.8751  0.8440 -0.3274
  260MOL0     O35790   9.151   9.203   7.673  0.1499 -0.1134 -0.8546
  260MOL0     C35791   8.902   9.175   7.913  0.3563  0.4298  0.2199
  260MOL0     C35792   8.787   9.110   7.948  0.5076  0.5192 -0.2358
  260MOL0     N35793   8.175   8.672   7.942  0.3049  0.9488  0.0301
  260MOL0     N35794   8.110   8.670   7.838  0.6317  0.2077  1.0291
  260MOL0     C35795   6.827   9.104   7.682  0.5290  0.6068 -0.0344
  260MOL0     C35796   6.703   9.119   7.734 -0.1640 -0.1685  1.3737
  260MOL0     C35797   6.373   9.219   8.017  0.0206 -0.2087 -0.6546
  260MOL0     C35798   6.320   9.101   8.074 -0.9749  0.1778 -0.3677
  260MOL0     C35799   6.209   9.114   8.153  0.5770  0.1427  0.7695
  260MOL0     C35800   6.133   9.229   8.168  0.2553 -0.3984  0.0929
  260MOL0     O35801   6.009   9.235   8.237  0.7353 -0.1832 -0.0834
  260MOL0     C35802   5.940   9.118   8.288 -0.3777  0.0012  0.1111
  260MOL0     C35803   5.806   9.169   8.355 -0.8682 -0.7831 -0.0542
  260MOL0     C35804   5.686   9.070   8.375 -0.0768  0.0032  0.5859
  260MOL0     C35805   5.580   9.089   8.270 -0.6442  0.0481 -0.2828
  260MOL0     C35806   5.480   9.201   8.294 -0.1803  0.2030  0.3820
  260MOL0     C35807   5.394   9.281   8.307  0.3248 -0.1043 -0.0291
  260MOL0     C35808   6.184   9.347   8.110 -0.9800  1.3152  0.7229
  260MOL0     C35809   6.307   9.347   8.038 -0.4950  0.6471  0.2228
  260MOL0     C35810   6.362   9.472   7.980 -0.1473  0.0267  0.1892
  260MOL0     H35811   6.720   8.930   8.013  2.8116 -0.8940  0.3699
  260MOL0     H35812   6.956   8.919   7.936  0.4338  3.9021  0.3622
  260MOL0     H35813   7.044   8.807   7.657  2.3546 -0.8046 -0.7942
  260MOL0     H35814   7.110   8.843   7.817  1.6910  0.6427  0.4939
  260MOL0     H35815   7.289   8.799   7.668  0.5891 -0.2616  0.0397
  260MOL0     H35816   7.239   8.921   7.549 -0.7831 -2.6387  0.7510
  260MOL0     H35817   7.286   9.094   7.700 -2.1030 -1.2374 -0.7292
  260MOL0     H35818   7.304   8.988   7.840  0.0989 -1.6786  0.3491
  260MOL0     H35819   7.494   8.981   7.595 -0.2195  1.6584 -0.7218
  260MOL0     H35820   7.525   9.081   7.733  2.3916 -1.2148  0.6773
  260MOL0     H35821   7.501   8.786   7.755  1.9475 -0.6021  0.4168
  260MOL0     H35822   7.549   8.903   7.882  1.3138 -4.2323  0.6810
  260MOL0     H35823   7.692   8.865   7.612  3.2538 -0.4879  0.0448
  260MOL0     H35824   7.728   8.989   7.734 -2.0893  0.4892  2.2159
  260MOL0     H35825   7.759   8.693   7.799 -0.2636 -0.0995 -0.5831
  260MOL0     H35826   7.795   8.839   7.900  0.2843  1.4801 -1.0194
  260MOL0     H35827   7.934   8.715   7.660  0.2935 -2.0394  1.9770
  260MOL0     H35828   7.955   8.887   7.673 -0.6025  0.6219  0.2561
  260MOL0     H35829   7.998   8.943   7.984 -1.3368 -1.3694  1.3046
  260MOL0     H35830   8.255   8.730   8.177  2.0070  1.5787  0.3681
  260MOL0     H35831   8.147   8.864   8.207 -0.3160 -0.8335 -0.3732
  260MOL0     H35832   8.316   8.993   8.023  2.5591  0.1881 -0.2318
  260MOL0     H35833   8.372   8.960   8.193 -2.4648 -0.1221  1.4914
  260MOL0     H35834   8.473   8.751   8.122 -0.7642  1.5085  1.4321
  260MOL0     H35835   8.422   8.782   7.955  0.8213 -1.0079  0.6049
  260MOL0     H35836   8.564   8.998   8.095  0.1249  0.0841 -0.4109
  260MOL0     H35837   8.672   8.852   8.082  0.9907  0.9700  0.9509
  260MOL0     H35838   8.718   8.934   7.680  0.4642 -1.6068  1.3796
  260MOL0     H35839   8.944   9.124   7.505 -0.7957  0.9043  1.2633
  260MOL0     H35840   8.877   8.958   7.506  1.3394 -0.6081 -0.2895
  260MOL0     H35841   9.038   8.975   7.560 -0.4945 -0.6357 -0.0808
  260MOL0     H35842   9.161   9.568   7.876  0.2047  0.2879  0.4497
  260MOL0     H35843   9.363   9.687   7.907 -2.2808 -0.5874  1.7555
  260MOL0     H35844   9.755   9.710   7.857 -1.0573  1.0683 -2.0279
  260MOL0     H35845   9.604   9.726   7.781  0.4077  1.1821 -0.2390
  260MOL0     H35846   9.528   9.778   8.056  1.1607  1.3919  1.0179
  260MOL0     H35847   9.694   9.809   8.057  0.0764  1.0591 -0.3828
  260MOL0     H35848   9.662   9.969   7.860  1.1746 -2.3483  0.1666
  260MOL0     H35849   9.596  10.021   8.017 -0.5400  2.1471 -1.1147
  260MOL0     H35850   9.362   9.942   7.920  0.1501  0.2656  0.7877
  260MOL0     H35851   9.453   9.883   7.787  0.4361  0.2897  0.4314
  260MOL0     H35852   9.536  10.122   7.751  0.3180 -0.7432  0.8951
  260MOL0     H35853   9.357  10.083   7.721  0.8410 -1.4032 -0.6652
  260MOL0     H35854   9.466  10.205   7.985  0.1451 -0.5758  0.9846
  260MOL0     H35855   9.306  10.168   7.946  1.6198 -5.9082 -0.7061
  260MOL0     H35856   9.333  10.348   7.737  0.8566 -0.1246 -1.1291
  260MOL0     H35857   9.497  10.363   7.770 -0.3293 -1.8568 -0.9401
  260MOL0     H35858   9.283  10.445   7.969  0.8586 -2.2982  0.6786
  260MOL0     H35859   9.365  10.541   7.851 -0.5216  0.8369  1.0601
  260MOL0     H35860   9.572   9.309   7.885  0.3063 -0.0814  1.6451
  260MOL0     H35861   9.360   9.196   7.867  4.3027  0.5927  0.4462
  260MOL0     H35862   8.947   9.242   7.985  5.1032 -2.7408  0.7050
  260MOL0     H35863   8.749   9.123   8.049  0.9068 -1.8523  0.2803
  260MOL0     H35864   6.849   9.145   7.584  2.6912 -1.0596 -0.3354
  260MOL0     H35865   6.634   9.176   7.672  1.9117  2.1079  1.0040
  260MOL0     H35866   6.365   9.004   8.057  1.6347  1.3507 -0.7597
  260MOL0     H35867   6.179   9.018   8.195  1.6185  0.1664  1.5923
  260MOL0     H35868   5.904   9.059   8.204  1.5446 -1.3405  0.1743
  260MOL0     H35869   6.007   9.066   8.358  1.7401  2.0490 -0.2396
  260MOL0     H35870   5.760   9.247   8.294  0.1293 -0.0779  0.0739
  260MOL0     H35871   5.841   9.216   8.448  1.8845  0.5332 -1.6581
  260MOL0     H35872   5.725   8.969   8.366  1.3524  0.4987  1.0275
  260MOL0     H35873   5.638   9.078   8.474  0.3375  3.4681  0.6398
  260MOL0     H35874   5.516   9.000   8.268  0.1730 -0.6568  2.0801
  260MOL0     H35875   5.635   9.090   8.175 -0.0448 -0.6380  0.0461
  260MOL0     H35876   5.304   9.340   8.306 -0.4628 -0.7862 -5.9721
  260MOL0     H35877   6.124   9.437   8.110 -2.6818  0.2275  0.1037
  260MOL0     H35878   6.288   9.553   7.985 -1.4495 -1.0842 -0.4646
  260MOL0     H35879   6.442   9.515   8.041  0.1257  1.2338 -0.9592
  260MOL0     H35880   6.387   9.464   7.874 -1.9293 -1.1239 -0.1801
  261MOL0     O35881   6.482   6.133   1.421  0.0644 -0.2099 -0.2685
  261MOL0     C35882   6.459   6.253   1.411  0.7907  0.7621  0.8206
  261MOL0     O35883   6.554   6.357   1.427 -0.0957  0.4200  0.4193
  261MOL0     C35884   6.679   6.343   1.467  0.4879  0.2219 -0.0743
  261MOL0     C35885   6.730   6.448   1.539 -0.5282  0.1692  0.6803
  261MOL0     C35886   6.858   6.440   1.590 -0.9909 -1.2341 -0.8971
  261MOL0     C35887   6.948   6.338   1.568  0.5949 -1.4857  0.2015
  261MOL0     O35888   7.073   6.322   1.618  0.2703 -0.1143 -0.3438
  261MOL0     C35889   7.149   6.442   1.642  0.3609 -0.7922  0.3605
  261MOL0     C35890   7.204   6.504   1.516  0.2134  0.5383  0.1505
  261MOL0     C35891   7.305   6.425   1.429  0.0122  0.1275  0.0795
  261MOL0     C35892   7.242   6.303   1.366 -0.0165  0.4532 -0.1561
  261MOL0     C35893   7.321   6.239   1.250  0.8032 -0.6721  0.0186
  261MOL0     C35894   7.254   6.125   1.185  0.3387 -0.6141  0.8598
  261MOL0     C35895   7.338   6.087   1.063 -0.7431  0.0957 -0.5048
  261MOL0     C35896   7.297   5.963   0.996 -0.2333 -0.2558  0.3459
  261MOL0     N35897   7.359   5.938   0.859 -0.3682 -0.0933  0.0983
  261MOL0     C35898   7.495   5.928   0.833  0.3878  0.2040  0.0235
  261MOL0     C35899   7.499   5.915   0.699  0.2377  1.0707 -0.2002
  261MOL0     C35900   7.613   5.878   0.610  0.2305 -0.3185  0.0294
  261MOL0     C35901   7.631   5.732   0.570  0.2083 -0.4234 -0.4391
  261MOL0     C35902   7.743   5.725   0.460 -0.5959 -0.5611  0.4090
  261MOL0     C35903   7.888   5.768   0.501  0.4787 -0.5861  0.3255
  261MOL0     O35904   7.987   5.738   0.397 -1.0920 -0.0483 -0.0443
  261MOL0     C35905   8.124   5.749   0.440 -0.4306 -0.2803 -0.0095
  261MOL0     C35906   8.222   5.684   0.361 -0.5785 -0.1626 -0.0217
  261MOL0     C35907   8.351   5.679   0.418  0.2028  0.0234  0.0157
  261MOL0     C35908   8.455   5.623   0.325 -0.2811 -0.9291  0.1458
  261MOL0     C35909   8.387   5.734   0.538  0.2438  0.3897 -0.0967
  261MOL0     C35910   8.519   5.707   0.606  0.3090 -0.1172  0.3697
  261MOL0     O35911   8.556   5.809   0.691 -0.4354  0.3947  0.4676
  261MOL0     C35912   8.691   5.840   0.720  1.0446  0.6349 -0.3243
  261MOL0     C35913   8.809   5.791   0.650 -0.3106  0.1122 -0.3562
  261MOL0     C35914   8.932   5.814   0.696 -0.4930 -0.5803 -0.1748
  261MOL0     C35915   8.951   5.879   0.817 -0.3454  0.0971  0.6903
  261MOL0     O35916   9.084   5.867   0.852 -0.0287  0.2385 -0.1200
  261MOL0     C35917   9.126   5.958   0.954 -0.7286 -0.6866 -0.2027
  261MOL0     C35918   9.256   5.912   1.007 -0.5055 -0.1422 -0.3827
  261MOL0     C35919   9.333   6.022   1.087 -0.1704  0.4798 -0.4456
  261MOL0     C35920   9.472   5.958   1.130 -0.7160 -0.9436  0.2620
  261MOL0     C35921   9.561   6.056   1.201 -0.2837  0.4745 -0.5925
  261MOL0     C35922   9.688   6.005   1.268 -0.7571 -0.0079 -0.6543
  261MOL0     C35923   9.755   6.110   1.351 -0.1982  0.7046  0.5200
  261MOL0     C35924   9.900   6.080   1.352  0.2221  0.4458 -0.4458
  261MOL0    Cl35925   9.921   5.931   1.447  0.3301  0.1608  0.7603
  261MOL0     C35926   8.843   5.922   0.898 -0.5460  0.8241 -0.2442
  261MOL0     C35927   8.712   5.912   0.844 -0.1261 -0.0203  0.0722
  261MOL0     O35928   8.575   5.598   0.593  0.8165 -0.2760 -0.1817
  261MOL0     C35929   8.287   5.791   0.615  1.1408  0.2736  0.1449
  261MOL0     C35930   8.160   5.809   0.560  0.7842  0.4860 -0.7541
  261MOL0     N35931   7.368   5.913   0.645 -0.7531 -0.6125  0.6015
  261MOL0     N35932   7.288   5.919   0.745 -0.2697 -0.1430  0.2074
  261MOL0     C35933   6.891   6.228   1.504  0.6955  0.5528 -0.4085
  261MOL0     C35934   6.760   6.236   1.449 -0.1979  0.8230 -0.3721
  261MOL0     C35935   6.320   6.305   1.389  0.7575  0.1978 -0.1978
  261MOL0     C35936   6.306   6.440   1.340  0.6026  0.4424 -0.2949
  261MOL0     C35937   6.186   6.509   1.350  0.6603 -0.7153  0.0582
  261MOL0     C35938   6.070   6.442   1.382  0.6442 -0.1099  0.4233
  261MOL0     O35939   5.946   6.507   1.394  0.6074 -0.1580 -0.4019
  261MOL0     C35940   5.924   6.643   1.359  0.1485 -0.3523 -0.0778
  261MOL0     C35941   5.870   6.646   1.217 -0.9496  0.6394  0.3243
  261MOL0     C35942   5.826   6.783   1.190  0.1239 -0.7916 -0.2750
  261MOL0     C35943   5.680   6.815   1.234  0.5739  0.1611 -0.2342
  261MOL0     C35944   5.582   6.742   1.149  0.2510  0.3052 -0.5400
  261MOL0     C35945   5.491   6.709   1.075 -0.0107 -0.2409 -0.9578
  261MOL0     C35946   6.072   6.309   1.416 -0.3025  0.2561 -0.0541
  261MOL0     C35947   6.197   6.240   1.421 -0.0337 -0.0208 -0.0352
  261MOL0     C35948   6.201   6.103   1.471 -0.0835  0.2667 -0.1999
  261MOL0     H35949   6.661   6.526   1.570 -0.4300  2.4819 -3.9649
  261MOL0     H35950   6.895   6.516   1.658 -1.4226 -1.2182 -0.6756
  261MOL0     H35951   7.240   6.414   1.695 -0.4637  1.8404  3.5280
  261MOL0     H35952   7.103   6.528   1.691  0.6444 -0.0735 -0.6072
  261MOL0     H35953   7.122   6.536   1.451 -0.0601  0.6981  0.5769
  261MOL0     H35954   7.259   6.594   1.545  2.6173 -0.6800 -0.3855
  261MOL0     H35955   7.341   6.492   1.351 -2.4571  0.4514 -0.8504
  261MOL0     H35956   7.390   6.401   1.494 -0.0177  0.7236  0.3481
  261MOL0     H35957   7.226   6.237   1.451  0.1667  0.6658  0.0443
  261MOL0     H35958   7.146   6.329   1.320  0.8771  2.3705 -1.0390
  261MOL0     H35959   7.412   6.202   1.297  0.7119 -0.4176  0.4040
  261MOL0     H35960   7.339   6.323   1.182 -0.9419 -1.2299 -1.2151
  261MOL0     H35961   7.246   6.040   1.253  1.2686  0.6133  2.5673
  261MOL0     H35962   7.152   6.145   1.152 -0.2099 -1.4551  1.9899
  261MOL0     H35963   7.442   6.062   1.087 -0.0005  1.6489 -1.9429
  261MOL0     H35964   7.336   6.164   0.985 -0.6424 -0.3739 -0.9758
  261MOL0     H35965   7.325   5.879   1.059 -0.6207 -1.2016 -0.7052
  261MOL0     H35966   7.191   5.966   0.967  0.3350 -0.7829 -1.9620
  261MOL0     H35967   7.580   5.925   0.901 -0.7006  2.0544  1.5737
  261MOL0     H35968   7.705   5.908   0.661  0.0104  1.1312 -0.3762
  261MOL0     H35969   7.600   5.941   0.521  0.6226  0.5292  0.5590
  261MOL0     H35970   7.646   5.657   0.648  1.9049 -0.7512 -1.0477
  261MOL0     H35971   7.538   5.697   0.524  0.4273 -1.3969 -0.1607
  261MOL0     H35972   7.750   5.630   0.406 -0.5356 -1.3205  1.6916
  261MOL0     H35973   7.716   5.789   0.376 -0.5142 -1.8866 -0.6664
  261MOL0     H35974   7.892   5.876   0.524 -0.6224 -0.0618 -1.7432
  261MOL0     H35975   7.907   5.718   0.596  1.8825 -0.3314  0.1974
  261MOL0     H35976   8.195   5.657   0.260 -0.9100  0.7104 -0.1809
  261MOL0     H35977   8.439   5.637   0.218  0.1650 -0.7655  0.0990
  261MOL0     H35978   8.469   5.514   0.326 -0.7742 -1.0026 -0.4067
  261MOL0     H35979   8.553   5.670   0.340 -1.4563  1.4244  0.9239
  261MOL0     H35980   8.798   5.721   0.568  0.3124 -0.9030  0.4070
  261MOL0     H35981   9.008   5.767   0.635 -1.5723  0.5806 -2.5117
  261MOL0     H35982   9.135   6.056   0.907  1.5516 -0.4229  0.6281
  261MOL0     H35983   9.063   5.974   1.042  1.2247  0.1425  1.1374
  261MOL0     H35984   9.242   5.832   1.081  0.8226  0.7629  0.8951
  261MOL0     H35985   9.319   5.883   0.923 -2.5101  1.1650 -2.4185
  261MOL0     H35986   9.278   6.067   1.170  1.1710 -2.8818  2.5184
  261MOL0     H35987   9.349   6.109   1.022  1.4346 -0.2150 -1.0336
  261MOL0     H35988   9.526   5.921   1.042 -1.4418  0.8519 -0.9743
  261MOL0     H35989   9.445   5.871   1.192 -0.7917 -2.3535 -1.6506
  261MOL0     H35990   9.589   6.132   1.127  0.1927  0.6690 -0.2126
  261MOL0     H35991   9.497   6.081   1.286  1.7617  2.6810  0.4169
  261MOL0     H35992   9.755   5.960   1.194  1.0396  2.1390 -0.4625
  261MOL0     H35993   9.663   5.930   1.343  2.6323  1.4411  2.2420
  261MOL0     H35994   9.715   6.098   1.453 -0.0295  0.2070  0.5323
  261MOL0     H35995   9.743   6.208   1.304 -1.1204  0.8531  1.0356
  261MOL0     H35996   9.948   6.168   1.396 -3.4753  1.4843  2.0290
  261MOL0     H35997   9.944   6.065   1.253  2.3603  1.5497  0.2732
  261MOL0     H35998   8.846   5.960   0.999  1.1195 -0.1683  0.1212
  261MOL0     H35999   8.624   5.945   0.899 -0.2092  1.1390 -0.7085
  261MOL0     H36000   8.303   5.827   0.717  0.2273  1.0642  0.0309
  261MOL0     H36001   8.085   5.846   0.629  0.7596 -0.0703 -0.4792
  261MOL0     H36002   6.955   6.144   1.481  0.0155 -0.9912  2.7313
  261MOL0     H36003   6.716   6.152   1.395 -0.2210  0.9507 -0.5553
  261MOL0     H36004   6.396   6.491   1.309  1.2808 -1.1395 -1.0584
  261MOL0     H36005   6.186   6.612   1.316  2.6801 -0.8279 -0.4015
  261MOL0     H36006   5.849   6.681   1.429  0.1865  0.0435 -0.2541
  261MOL0     H36007   6.005   6.715   1.375 -1.5753  2.1608 -1.9306
  261MOL0     H36008   5.791   6.572   1.198 -2.0944  2.3165 -1.8678
  261MOL0     H36009   5.950   6.626   1.146 -2.1807 -0.3064 -0.8477
  261MOL0     H36010   5.898   6.855   1.231 -1.8262  0.4094  1.2024
  261MOL0     H36011   5.832   6.802   1.083 -2.1752  0.3394 -0.2664
  261MOL0     H36012   5.664   6.923   1.223  2.0073  0.4887  0.6474
  261MOL0     H36013   5.677   6.775   1.336  4.8780 -0.2091 -0.1034
  261MOL0     H36014   5.417   6.681   1.002  1.0062 -0.5124 -1.9050
  261MOL0     H36015   5.978   6.265   1.449 -0.3071 -0.3707 -0.8738
  261MOL0     H36016   6.263   6.109   1.561 -1.7558  2.5880  0.8789
  261MOL0     H36017   6.101   6.068   1.500 -0.8602  2.2883 -0.2623
  261MOL0     H36018   6.257   6.037   1.404  0.1133  1.2203 -0.9996
  262MOL0     O36019   5.070   8.719   7.304 -0.2142  0.6218  0.6627
  262MOL0     C36020   5.119   8.609   7.344  0.1037 -0.7832  0.1468
  262MOL0     O36021   5.248   8.597   7.375  0.6477  0.4678  0.1937
  262MOL0     C36022   5.338   8.701   7.357  1.1849 -0.1316  0.2418
  262MOL0     C36023   5.461   8.659   7.313 -0.5691 -1.0986 -0.8379
  262MOL0     C36024   5.552   8.765   7.276 -0.4528  0.2731 -0.0091
  262MOL0     C36025   5.523   8.902   7.315 -0.1833 -0.0054  0.3791
  262MOL0     O36026   5.604   9.007   7.271 -0.0313  0.6015  0.6279
  262MOL0     C36027   5.721   8.988   7.194  0.1990 -0.6458 -0.2215
  262MOL0     C36028   5.803   9.115   7.219  0.4664  0.5607 -0.6079
  262MOL0     C36029   5.916   9.114   7.110  0.2087 -0.0821  0.3548
  262MOL0     C36030   6.030   9.210   7.158 -0.0894  0.5198 -0.3689
  262MOL0     C36031   6.147   9.227   7.057 -0.0842  0.2382  0.3469
  262MOL0     C36032   6.235   9.358   7.063  1.2989  0.3088 -0.3166
  262MOL0     C36033   6.362   9.336   6.993  0.0778 -0.1153 -0.5790
  262MOL0     C36034   6.433   9.470   6.968  0.8126  0.4543  0.6455
  262MOL0     N36035   6.555   9.446   6.903 -0.2139 -0.4122 -0.4352
  262MOL0     C36036   6.590   9.384   6.782  0.2133  0.0528 -0.2287
  262MOL0     C36037   6.717   9.424   6.744  0.7138 -0.3253  0.5406
  262MOL0     C36038   6.787   9.388   6.620 -0.5081 -0.2177  1.0302
  262MOL0     C36039   6.817   9.512   6.543 -0.2497  0.3157  0.3415
  262MOL0     C36040   6.913   9.495   6.431  0.7305  0.6325  0.2936
  262MOL0     C36041   6.955   9.626   6.372 -0.7292  0.2723 -0.5988
  262MOL0     O36042   7.048   9.609   6.268 -0.2129  0.3776  0.2626
  262MOL0     C36043   7.177   9.572   6.296  0.6484  0.1373 -1.0796
  262MOL0     C36044   7.225   9.459   6.233  1.1988 -0.1323  0.0818
  262MOL0     C36045   7.354   9.413   6.240  0.2291 -0.5475  0.3920
  262MOL0     C36046   7.393   9.292   6.161 -0.6705 -0.5359  0.5504
  262MOL0     C36047   7.446   9.498   6.310 -0.6531 -0.6501  0.4596
  262MOL0     C36048   7.592   9.472   6.312  0.5392 -0.2378  0.7379
  262MOL0     O36049   7.657   9.501   6.432  0.2103 -0.0903 -0.4988
  262MOL0     C36050   7.793   9.472   6.448  0.0126  0.9982  0.1057
  262MOL0     C36051   7.845   9.530   6.559  0.2323  0.0166 -0.4913
  262MOL0     C36052   7.979   9.507   6.589  1.1698 -0.0952 -0.9593
  262MOL0     C36053   8.069   9.430   6.510  0.2437  0.4404  0.2147
  262MOL0     O36054   8.202   9.422   6.535  0.2741  1.1962 -0.2462
  262MOL0     C36055   8.294   9.330   6.467  0.7143  0.5940  0.5624
  262MOL0     C36056   8.419   9.299   6.554  0.1046  0.6128  0.8377
  262MOL0     C36057   8.501   9.428   6.581 -0.2095 -0.0063  0.9696
  262MOL0     C36058   8.592   9.426   6.701  0.2911 -0.6868 -0.2027
  262MOL0     C36059   8.680   9.291   6.721  0.3562  0.0740  0.0834
  262MOL0     C36060   8.597   9.170   6.791  0.2936  0.3773 -0.0843
  262MOL0     C36061   8.688   9.063   6.838 -0.4494 -0.6547 -0.5250
  262MOL0     C36062   8.620   8.976   6.944  0.1708 -0.1081  0.2108
  262MOL0    Cl36063   8.734   8.871   7.033  0.3728  0.2207 -0.1449
  262MOL0     C36064   8.005   9.361   6.402 -0.5260  0.0256  0.4913
  262MOL0     C36065   7.872   9.381   6.377  0.1458  0.6241  0.1820
  262MOL0     O36066   7.646   9.446   6.201  0.4017 -0.1171  0.2443
  262MOL0     C36067   7.392   9.615   6.381  0.4529  0.2261 -1.1929
  262MOL0     C36068   7.259   9.647   6.368  0.6669 -0.6701 -0.3259
  262MOL0     N36069   6.768   9.500   6.846  0.7921 -0.3756 -0.4584
  262MOL0     N36070   6.670   9.516   6.932 -0.6426  0.3110 -0.0787
  262MOL0     C36071   5.402   8.934   7.368 -0.1552  0.2768  0.5170
  262MOL0     C36072   5.310   8.834   7.390 -0.2729  0.7566  0.6983
  262MOL0     C36073   5.022   8.496   7.365 -0.2142 -0.5298  0.2643
  262MOL0     C36074   5.075   8.364   7.368 -0.5584 -0.7914  0.6016
  262MOL0     C36075   4.987   8.257   7.373 -0.2782  0.4746  0.2844
  262MOL0     C36076   4.849   8.269   7.370  0.0860 -0.9985  0.3922
  262MOL0     O36077   4.777   8.153   7.380  0.0603 -0.6518  0.1378
  262MOL0     C36078   4.638   8.162   7.356 -0.0003  0.2612  0.1045
  262MOL0     C36079   4.593   8.015   7.374 -0.9559 -0.5030 -0.3041
  262MOL0     C36080   4.439   8.014   7.419 -0.9009 -0.0282  0.1510
  262MOL0     C36081   4.367   8.071   7.303  0.7105  0.6465  0.2687
  262MOL0     C36082   4.220   8.039   7.326  0.0876  0.6837 -0.3007
  262MOL0     C36083   4.099   8.027   7.338 -0.1542 -0.2996 -0.0033
  262MOL0     C36084   4.795   8.402   7.366  1.1471 -0.0905  0.5658
  262MOL0     C36085   4.875   8.517   7.367  0.5805  0.5123 -0.2716
  262MOL0     C36086   4.809   8.654   7.363 -0.2204  0.0709 -0.3640
  262MOL0     H36087   5.485   8.554   7.297  3.6131 -0.0628 -2.8450
  262MOL0     H36088   5.644   8.738   7.225 -1.1461  1.4641 -2.0275
  262MOL0     H36089   5.695   8.977   7.088 -0.0367  2.0158 -0.5076
  262MOL0     H36090   5.781   8.900   7.221 -1.3858 -1.9001 -0.6127
  262MOL0     H36091   5.750   9.209   7.199 -0.4379 -0.5308 -3.9355
  262MOL0     H36092   5.853   9.109   7.316  4.5794  3.4629 -2.2245
  262MOL0     H36093   5.959   9.014   7.099 -2.6258 -1.3006 -0.5786
  262MOL0     H36094   5.872   9.134   7.012 -0.3120  0.9806  0.7937
  262MOL0     H36095   5.985   9.309   7.165  2.9799  2.0941 -1.1358
  262MOL0     H36096   6.073   9.179   7.253  1.9049 -1.7215 -1.8897
  262MOL0     H36097   6.108   9.220   6.955  2.0741 -0.8210 -0.4673
  262MOL0     H36098   6.218   9.147   7.080 -0.0447  0.0074 -0.5577
  262MOL0     H36099   6.173   9.431   7.011 -2.7992 -2.4459  0.1933
  262MOL0     H36100   6.237   9.401   7.164 -0.0380  2.4780 -1.1439
  262MOL0     H36101   6.336   9.284   6.901 -3.8097  1.6540 -0.6677
  262MOL0     H36102   6.425   9.276   7.060 -1.0056  0.6502  1.1996
  262MOL0     H36103   6.377   9.537   6.901  1.8670  1.2402  0.5298
  262MOL0     H36104   6.442   9.523   7.063  2.9979 -0.5364  1.0364
  262MOL0     H36105   6.525   9.320   6.723 -0.3426  0.6710 -0.2985
  262MOL0     H36106   6.727   9.322   6.557  0.0157  2.1497 -2.1865
  262MOL0     H36107   6.883   9.340   6.640  0.4010  0.7706 -0.6969
  262MOL0     H36108   6.728   9.553   6.494 -1.4372 -0.6207  1.6448
  262MOL0     H36109   6.856   9.594   6.603  3.2251 -0.5127 -0.5596
  262MOL0     H36110   6.998   9.435   6.465  3.5008  0.3492 -5.8032
  262MOL0     H36111   6.875   9.433   6.349  3.1023 -0.9246  0.2793
  262MOL0     H36112   6.865   9.672   6.328 -1.2800 -0.6908 -0.5102
  262MOL0     H36113   6.997   9.690   6.450 -2.0930  1.3470 -0.7034
  262MOL0     H36114   7.153   9.415   6.165  0.7076  1.0793 -0.1928
  262MOL0     H36115   7.458   9.224   6.217 -0.1959 -1.7272 -1.3435
  262MOL0     H36116   7.438   9.322   6.065  0.1022 -0.5827  0.8883
  262MOL0     H36117   7.305   9.229   6.144 -0.1828 -0.9155 -0.7017
  262MOL0     H36118   7.778   9.595   6.614  0.2703  0.6239 -1.1478
  262MOL0     H36119   8.011   9.572   6.670  2.1759  1.6225 -2.6478
  262MOL0     H36120   8.246   9.235   6.441  1.0549  0.7155 -0.5562
  262MOL0     H36121   8.328   9.385   6.379 -1.7454 -0.3745 -1.1161
  262MOL0     H36122   8.381   9.257   6.648 -0.6947  0.1942  0.3336
  262MOL0     H36123   8.481   9.229   6.497  0.0417  1.0833  0.1865
  262MOL0     H36124   8.429   9.510   6.595 -0.5574  0.1725 -1.4624
  262MOL0     H36125   8.567   9.450   6.497 -0.2742  0.6005  1.0751
  262MOL0     H36126   8.528   9.444   6.788  1.4279  2.0723  0.1589
  262MOL0     H36127   8.647   9.520   6.692 -1.5959  0.6952  1.6697
  262MOL0     H36128   8.703   9.254   6.621 -3.2716  0.3254 -0.9712
  262MOL0     H36129   8.774   9.311   6.773  0.4677  1.8664 -0.7434
  262MOL0     H36130   8.516   9.130   6.730 -0.4731  1.7391 -0.0037
  262MOL0     H36131   8.539   9.209   6.876 -1.7411 -3.7834  0.7112
  262MOL0     H36132   8.768   9.116   6.890 -1.5139  1.5361 -1.0149
  262MOL0     H36133   8.729   9.000   6.758 -1.3490 -2.0475  0.0684
  262MOL0     H36134   8.543   8.915   6.895  2.2725 -0.2243 -3.2943
  262MOL0     H36135   8.561   9.040   7.011  1.1014  1.9575 -0.8474
  262MOL0     H36136   8.065   9.292   6.344  0.0947 -0.3277  1.5271
  262MOL0     H36137   7.841   9.327   6.288 -1.4249  1.3924  0.2310
  262MOL0     H36138   7.442   9.699   6.428 -1.0664  1.0201 -0.9083
  262MOL0     H36139   7.225   9.743   6.408 -2.7308 -2.4177  1.3868
  262MOL0     H36140   5.367   9.035   7.387 -1.3673 -0.0147 -0.0978
  262MOL0     H36141   5.217   8.865   7.436 -1.2493 -0.5986 -0.2667
  262MOL0     H36142   5.183   8.353   7.368 -0.1578  2.2417  0.5529
  262MOL0     H36143   5.030   8.158   7.370 -1.2638  0.0468 -1.2290
  262MOL0     H36144   4.589   8.231   7.425  2.4692  3.0188 -0.6672
  262MOL0     H36145   4.615   8.201   7.256  1.9059 -3.7997 -2.1542
  262MOL0     H36146   4.652   7.960   7.448 -3.7589 -3.8851 -0.2935
  262MOL0     H36147   4.601   7.961   7.279 -0.2918 -3.5488  1.3356
  262MOL0     H36148   4.404   7.916   7.451 -3.1138  0.9468  0.9307
  262MOL0     H36149   4.444   8.090   7.498  4.8307  0.4274 -0.2411
  262MOL0     H36150   4.395   8.031   7.205 -3.8765 -3.8088  0.3623
  262MOL0     H36151   4.371   8.180   7.292  2.6604  0.9283  2.8325
  262MOL0     H36152   3.994   8.016   7.352 -0.6063 -0.1168 -2.6382
  262MOL0     H36153   4.689   8.424   7.379  0.8620 -0.4031 -1.0183
  262MOL0     H36154   4.810   8.704   7.266 -1.5260  2.4739  0.7714
  262MOL0     H36155   4.704   8.653   7.395  0.0240  2.8597  0.8425
  262MOL0     H36156   4.845   8.713   7.448 -2.7129 -2.4274  2.6772
  263MOL0     O36157   3.798  11.172   3.785 -0.6659 -0.6894  0.3035
  263MOL0     C36158   3.721  11.084   3.747 -0.6936 -0.9390  1.0306
  263MOL0     O36159   3.762  10.972   3.687  0.3299 -0.1979 -0.1565
  263MOL0     C36160   3.894  10.932   3.712  0.0247 -0.8583  0.3225
  263MOL0     C36161   3.932  10.900   3.841  0.3477 -0.3776 -0.4934
  263MOL0     C36162   4.054  10.838   3.867 -0.5267  0.2143  0.4760
  263MOL0     C36163   4.149  10.834   3.763 -0.0468  0.0550  0.3496
  263MOL0     O36164   4.280  10.804   3.788 -0.3391  0.3896  0.0125
  263MOL0     C36165   4.319  10.766   3.927  0.0681 -0.5339  0.9984
  263MOL0     C36166   4.429  10.666   3.907 -0.0515 -0.0505  0.3085
  263MOL0     C36167   4.555  10.737   3.870 -0.4226 -0.1405  0.6930
  263MOL0     C36168   4.672  10.646   3.864  0.4154 -0.3573 -0.3446
  263MOL0     C36169   4.804  10.719   3.845 -0.1718  0.3398  0.4366
  263MOL0     C36170   4.911  10.618   3.813 -0.3039 -0.5445 -0.4903
  263MOL0     C36171   5.046  10.692   3.794  0.2995  0.1035  0.7299
  263MOL0     C36172   5.161  10.595   3.792 -0.0588  0.1178  1.0078
  263MOL0     N36173   5.283  10.671   3.802 -0.1531 -0.5358  0.5552
  263MOL0     C36174   5.356  10.704   3.695 -0.0187  0.1267  0.1821
  263MOL0     C36175   5.465  10.772   3.745  0.5003 -0.4475  0.1044
  263MOL0     C36176   5.584  10.799   3.661  1.0405  0.0521 -0.4736
  263MOL0     C36177   5.566  10.851   3.509 -0.8079 -0.1054 -0.2206
  263MOL0     C36178   5.712  10.872   3.454  0.1017 -0.2707  0.2476
  263MOL0     C36179   5.696  10.929   3.309 -0.0628  0.2246 -0.4471
  263MOL0     O36180   5.669  10.820   3.221 -0.1429 -0.0091  0.3955
  263MOL0     C36181   5.736  10.809   3.104 -0.4644 -0.4161  0.0819
  263MOL0     C36182   5.735  10.918   3.014 -0.3300 -0.1625  0.4644
  263MOL0     C36183   5.807  10.911   2.895  0.5804  0.6743  0.1033
  263MOL0     C36184   5.778  11.024   2.809  0.7759 -0.9196  0.4223
  263MOL0     C36185   5.878  10.794   2.855 -0.1788  0.0270  0.0112
  263MOL0     C36186   5.943  10.777   2.721 -0.1707 -0.1219  0.5254
  263MOL0     O36187   5.978  10.647   2.698  0.2959 -0.0119 -0.1694
  263MOL0     C36188   6.031  10.614   2.581 -0.3372  0.1872  0.2621
  263MOL0     C36189   5.954  10.585   2.472 -0.0232  0.3912 -0.2294
  263MOL0     C36190   6.017  10.537   2.352 -0.3662 -0.7939 -0.6542
  263MOL0     C36191   6.155  10.525   2.350 -1.0569 -0.1064 -0.2452
  263MOL0     O36192   6.210  10.500   2.227 -0.1045  0.8728  0.6376
  263MOL0     C36193   6.333  10.554   2.170 -0.1932 -0.5284 -0.6074
  263MOL0     C36194   6.318  10.561   2.023 -0.0282  0.0540 -0.5502
  263MOL0     C36195   6.439  10.604   1.943  0.8396 -0.2918  0.5002
  263MOL0     C36196   6.421  10.628   1.790 -0.2382  0.8135  0.8652
  263MOL0     C36197   6.528  10.731   1.741  0.0950 -0.4320  0.0856
  263MOL0     C36198   6.673  10.673   1.768  0.4063 -0.0800 -0.3783
  263MOL0     C36199   6.776  10.750   1.680 -0.1274  0.0104  0.0849
  263MOL0     C36200   6.915  10.698   1.692  0.5499  0.1658  0.8664
  263MOL0    Cl36201   6.983  10.747   1.850 -0.3411  0.1757  0.4734
  263MOL0     C36202   6.232  10.559   2.458 -0.1073  0.8469 -0.0338
  263MOL0     C36203   6.169  10.594   2.573 -0.5139  0.6680 -0.4586
  263MOL0     O36204   5.963  10.874   2.652  1.0474  0.2596  0.2211
  263MOL0     C36205   5.883  10.689   2.946  0.0488 -0.5520  0.6124
  263MOL0     C36206   5.820  10.699   3.069 -0.3014 -0.1477 -0.1217
  263MOL0     N36207   5.452  10.779   3.880 -0.0320 -0.4407 -0.4059
  263MOL0     N36208   5.339  10.724   3.918  0.2834  0.1085  0.1569
  263MOL0     C36209   4.105  10.876   3.631  0.2099 -0.6006 -0.3264
  263MOL0     C36210   3.971  10.913   3.603 -0.7785 -0.6331  0.1858
  263MOL0     C36211   3.577  11.091   3.756  0.1372  0.3789 -0.0179
  263MOL0     C36212   3.507  10.975   3.726  0.1191  0.6400 -0.8594
  263MOL0     C36213   3.367  10.966   3.727  0.2891  0.2206  0.3011
  263MOL0     C36214   3.290  11.083   3.730 -0.1163 -0.2847  0.6060
  263MOL0     O36215   3.152  11.065   3.729  0.2219 -0.3886  0.5868
  263MOL0     C36216   3.070  11.180   3.724 -0.9292 -0.6593 -0.0870
  263MOL0     C36217   2.919  11.140   3.742  0.7326  0.6312  0.4334
  263MOL0     C36218   2.837  11.126   3.616 -0.1241  0.7220  0.3998
  263MOL0     C36219   2.902  11.037   3.507  0.2419 -0.0943 -1.5801
  263MOL0     C36220   2.812  11.044   3.390 -0.4144 -0.2832 -0.5616
  263MOL0     C36221   2.729  11.054   3.305  0.2425  0.4556 -0.4817
  263MOL0     C36222   3.361  11.208   3.762  0.7648  0.5554 -0.5171
  263MOL0     C36223   3.504  11.212   3.774  0.9751 -1.1028  0.6335
  263MOL0     C36224   3.557  11.351   3.798  0.3179 -0.7438 -0.0484
  263MOL0     H36225   3.861  10.909   3.923  0.0226 -1.1889 -0.6812
  263MOL0     H36226   4.072  10.800   3.967  0.9236 -1.5665 -0.3896
  263MOL0     H36227   4.241  10.714   3.983 -0.7769  0.9406  1.2411
  263MOL0     H36228   4.353  10.848   3.991 -1.7123 -0.3853  1.8213
  263MOL0     H36229   4.438  10.598   3.992  0.0898  0.5718  0.7967
  263MOL0     H36230   4.403  10.611   3.816  0.0236  1.8741 -0.9312
  263MOL0     H36231   4.534  10.797   3.780 -1.6397  1.9174  2.2510
  263MOL0     H36232   4.588  10.812   3.943  0.5196  0.1897 -0.0460
  263MOL0     H36233   4.679  10.576   3.947 -4.1444 -0.4590  0.2041
  263MOL0     H36234   4.657  10.576   3.781  3.0303 -1.8072  0.3048
  263MOL0     H36235   4.828  10.781   3.932  0.8967  0.1052  0.3262
  263MOL0     H36236   4.796  10.780   3.755  0.9893  0.9903  0.7537
  263MOL0     H36237   4.919  10.540   3.890  3.2778 -0.2491 -0.3961
  263MOL0     H36238   4.901  10.563   3.719  3.7086 -1.9215 -0.2998
  263MOL0     H36239   5.057  10.765   3.875 -6.2578 -0.8130  3.0403
  263MOL0     H36240   5.048  10.756   3.705  0.4484  0.1336  0.7537
  263MOL0     H36241   5.161  10.525   3.876 -2.4435  1.8254  2.5669
  263MOL0     H36242   5.157  10.537   3.700  1.7035  1.2743  0.1475
  263MOL0     H36243   5.329  10.674   3.594 -1.7241  1.5566  0.1781
  263MOL0     H36244   5.644  10.708   3.663  0.4751 -0.3200  1.4459
  263MOL0     H36245   5.647  10.874   3.710 -1.2194  1.7543 -0.0237
  263MOL0     H36246   5.515  10.774   3.449  1.3497 -1.6459 -0.2086
  263MOL0     H36247   5.517  10.948   3.517 -2.9274 -1.2219  1.6491
  263MOL0     H36248   5.764  10.953   3.505  1.0672 -0.8474  0.1974
  263MOL0     H36249   5.763  10.776   3.445 -0.3519 -0.3847 -1.5153
  263MOL0     H36250   5.618  11.005   3.318 -0.8817 -0.7929  2.3799
  263MOL0     H36251   5.793  10.972   3.281  0.8484 -1.3109  0.1754
  263MOL0     H36252   5.665  10.998   3.035 -1.5773 -1.2887  0.7441
  263MOL0     H36253   5.730  10.995   2.715 -0.3782  0.6073  0.4840
  263MOL0     H36254   5.875  11.073   2.799  0.1022  0.1452 -1.6871
  263MOL0     H36255   5.711  11.101   2.850  0.1463 -0.3634 -1.5405
  263MOL0     H36256   5.846  10.594   2.466  0.1181  2.1013 -0.6485
  263MOL0     H36257   5.953  10.507   2.269  1.3523  0.0931 -2.4052
  263MOL0     H36258   6.345  10.654   2.214  1.6609 -0.3283 -1.4665
  263MOL0     H36259   6.420  10.493   2.198 -0.0276 -0.5942 -1.2330
  263MOL0     H36260   6.292  10.459   1.996 -3.1245  0.8020 -0.7059
  263MOL0     H36261   6.226  10.615   2.000  0.2328  1.9464  2.3655
  263MOL0     H36262   6.525  10.536   1.951  0.2712 -1.1981 -0.8072
  263MOL0     H36263   6.474  10.698   1.988 -1.7086  0.5951  0.7611
  263MOL0     H36264   6.317  10.652   1.765  0.1099  0.9304 -0.5916
  263MOL0     H36265   6.433  10.534   1.734  0.5113  1.9581 -0.9886
  263MOL0     H36266   6.518  10.741   1.633  0.6693  2.6272  0.2297
  263MOL0     H36267   6.519  10.826   1.794 -0.5592 -0.6519  0.3862
  263MOL0     H36268   6.674  10.569   1.735  0.8267 -0.6654  1.3649
  263MOL0     H36269   6.703  10.679   1.873 -2.4678  0.2110  0.4990
  263MOL0     H36270   6.779  10.854   1.715 -0.8992 -0.2574  0.9833
  263MOL0     H36271   6.738  10.751   1.577 -1.9467 -0.9579  0.7098
  263MOL0     H36272   6.976  10.742   1.613  0.9851  0.4295  1.3451
  263MOL0     H36273   6.917  10.590   1.673 -0.3166  0.4672 -1.1901
  263MOL0     H36274   6.340  10.561   2.464 -0.1482  0.1697  1.4168
  263MOL0     H36275   6.211  10.611   2.672 -1.4790  1.4315 -0.1719
  263MOL0     H36276   5.928  10.593   2.924 -2.1250 -1.4390 -0.2729
  263MOL0     H36277   5.827  10.614   3.136  0.0685  0.2219  0.3061
  263MOL0     H36278   4.166  10.878   3.541 -1.2567 -0.1680 -1.3524
  263MOL0     H36279   3.933  10.943   3.506 -0.2558  0.7120  0.3637
  263MOL0     H36280   3.560  10.881   3.718 -1.4705 -0.4776  0.9519
  263MOL0     H36281   3.304  10.877   3.735  1.3513 -0.4570  1.6068
  263MOL0     H36282   3.091  11.258   3.796 -1.3983 -0.8660  0.2828
  263MOL0     H36283   3.089  11.236   3.632 -1.3318 -0.9560 -0.3581
  263MOL0     H36284   2.875  11.217   3.805 -2.5114 -0.7882  0.0787
  263MOL0     H36285   2.912  11.046   3.797  1.6074  0.9941  1.1866
  263MOL0     H36286   2.739  11.086   3.646  0.2474  0.4394  1.2638
  263MOL0     H36287   2.821  11.224   3.571  1.9872  0.4044 -1.1833
  263MOL0     H36288   2.903  10.932   3.537 -0.6637 -0.0389 -1.3362
  263MOL0     H36289   3.003  11.075   3.488  0.7139 -0.1740  0.4886
  263MOL0     H36290   2.665  11.070   3.221 -0.3511  0.4777 -0.0312
  263MOL0     H36291   3.300  11.296   3.779 -1.3152 -0.7060 -1.0035
  263MOL0     H36292   3.497  11.407   3.871  0.9993  0.2387 -0.2244
  263MOL0     H36293   3.653  11.338   3.848  2.4989  0.4646 -3.5363
  263MOL0     H36294   3.575  11.407   3.705 -1.3890 -1.0548 -0.6121
  264MOL0     O36295  10.471   5.637   4.431  0.6664  0.4290 -0.7305
  264MOL0     C36296  10.474   5.755   4.450 -0.5862 -0.9519  0.1907
  264MOL0     O36297  10.580   5.842   4.411  0.8533 -0.2380  0.1888
  264MOL0     C36298  10.702   5.794   4.378 -0.2663  0.6754 -0.3106
  264MOL0     C36299  10.783   5.726   4.468 -0.5745  0.3643  0.5243
  264MOL0     C36300  10.906   5.679   4.435  0.2025  0.2782  0.1473
  264MOL0     C36301  10.961   5.708   4.305 -0.6689  0.2528  0.1885
  264MOL0     O36302  11.098   5.697   4.272  0.0452  0.3915  0.4911
  264MOL0     C36303  11.151   5.568   4.293  0.2809  0.2487 -0.3466
  264MOL0     C36304  11.282   5.574   4.229  0.0116  0.1668  0.5222
  264MOL0     C36305  11.381   5.657   4.310  0.1005 -0.4632  0.0015
  264MOL0     C36306  11.534   5.632   4.281  0.6062  1.2559  0.5508
  264MOL0     C36307  11.611   5.740   4.345  0.1654  1.1797  0.2852
  264MOL0     C36308  11.757   5.702   4.320  0.5456  0.2923  0.1967
  264MOL0     C36309  11.847   5.791   4.400 -0.2532 -0.5676 -0.1482
  264MOL0     C36310  11.861   5.740   4.547  0.4704  0.4405  0.2043
  264MOL0     N36311  11.974   5.809   4.613  0.2083 -0.1643 -0.2679
  264MOL0     C36312  11.966   5.907   4.707 -0.0240  0.4763 -0.2071
  264MOL0     C36313  12.099   5.945   4.738  0.0304  0.8497  0.7526
  264MOL0     C36314  12.141   6.043   4.835  0.2274 -0.6716 -0.9234
  264MOL0     C36315  12.129   6.183   4.792  0.2784 -0.0422 -0.3127
  264MOL0     C36316  12.180   6.284   4.898  0.3758  0.3914 -0.5383
  264MOL0     C36317  12.326   6.271   4.936  1.2122 -0.3295 -0.9720
  264MOL0     O36318  12.406   6.336   4.835  0.0031  0.4171 -0.8319
  264MOL0     C36319  12.540   6.347   4.853  0.4235 -0.4328  0.1484
  264MOL0     C36320  12.610   6.431   4.765 -0.5990  0.0508  0.7060
  264MOL0     C36321  12.744   6.451   4.779 -0.2199 -0.0974 -0.0972
  264MOL0     C36322  12.804   6.549   4.687 -0.5313  0.1924 -1.0651
  264MOL0     C36323  12.824   6.388   4.879  0.5501 -0.0578  0.0443
  264MOL0     C36324  12.966   6.407   4.909 -0.0265  0.2081 -0.2907
  264MOL0     O36325  13.017   6.318   4.999  0.3969  0.4077  0.7718
  264MOL0     C36326  13.152   6.326   5.013  0.7088  0.1958  0.9981
  264MOL0     C36327  13.220   6.218   4.965 -0.6408  0.3024 -0.0608
  264MOL0     C36328  13.351   6.206   4.996 -0.5704 -0.0321 -0.0891
  264MOL0     C36329  13.419   6.309   5.054 -0.5728 -0.0698 -0.3717
  264MOL0     O36330  13.548   6.296   5.086 -0.3689  0.2322  0.0455
  264MOL0     C36331  13.639   6.392   5.027 -0.8151 -0.4166  0.2778
  264MOL0     C36332  13.765   6.320   4.981  0.0822 -0.4495  0.7276
  264MOL0     C36333  13.878   6.425   4.943  1.2418 -0.3851  0.2304
  264MOL0     C36334  13.991   6.355   4.880 -0.2727  1.0828  0.4478
  264MOL0     C36335  14.110   6.443   4.836 -0.2132 -1.0581  1.3082
  264MOL0     C36336  14.228   6.347   4.796 -0.4510 -0.2802  0.2367
  264MOL0     C36337  14.324   6.418   4.705  0.0047 -0.2290 -0.0492
  264MOL0     C36338  14.415   6.507   4.803 -0.8601 -1.0790 -0.7460
  264MOL0    Cl36339  14.527   6.612   4.718  0.1203  0.0062  0.2394
  264MOL0     C36340  13.352   6.425   5.107 -0.7639  0.1911  1.1293
  264MOL0     C36341  13.218   6.424   5.085  1.0502  0.1972  0.0484
  264MOL0     O36342  13.025   6.507   4.867 -0.2699  0.0985  0.6960
  264MOL0     C36343  12.755   6.301   4.959 -0.3041  0.4408 -0.1656
  264MOL0     C36344  12.616   6.272   4.945 -0.3335 -0.7420  0.9614
  264MOL0     N36345  12.179   5.849   4.669 -0.2291 -0.7667 -0.7109
  264MOL0     N36346  12.103   5.769   4.603  0.7802 -0.3438 -0.2914
  264MOL0     C36347  10.883   5.784   4.215 -0.4915  0.7279 -0.9678
  264MOL0     C36348  10.753   5.818   4.254 -0.6729 -0.7604 -0.1048
  264MOL0     C36349  10.343   5.819   4.476 -0.0543  0.0506  0.2981
  264MOL0     C36350  10.226   5.771   4.411  1.3378  0.5874  0.0956
  264MOL0     C36351  10.102   5.841   4.435  0.2577  0.5027  0.1846
  264MOL0     C36352  10.094   5.941   4.533  0.5941  0.5039 -0.1664
  264MOL0     O36353   9.967   6.005   4.548 -0.5863 -0.3289 -0.3391
  264MOL0     C36354   9.939   6.031   4.689  0.2501  0.4363 -0.1005
  264MOL0     C36355   9.800   5.998   4.711  0.2028  0.0715 -0.6992
  264MOL0     C36356   9.758   6.043   4.858 -0.9376  0.0165 -0.2350
  264MOL0     C36357   9.621   5.968   4.887  0.0029 -0.0852 -0.0841
  264MOL0     C36358   9.511   6.027   4.806 -0.0930  0.3236  0.1940
  264MOL0     C36359   9.421   6.069   4.730  0.5293 -0.3160 -0.4578
  264MOL0     C36360  10.205   5.975   4.605 -0.3404 -1.0875  0.2622
  264MOL0     C36361  10.331   5.918   4.576 -0.6227  0.0392 -0.3198
  264MOL0     C36362  10.449   5.970   4.655 -0.6401 -0.5728 -0.4021
  264MOL0     H36363  10.750   5.702   4.568 -0.2889 -2.9739 -0.0516
  264MOL0     H36364  10.969   5.634   4.511 -0.9893  0.9460  1.5701
  264MOL0     H36365  11.089   5.483   4.263  1.7500 -0.7751 -0.5441
  264MOL0     H36366  11.167   5.566   4.401  1.3989  0.4617 -0.5003
  264MOL0     H36367  11.323   5.474   4.214  0.1283  0.1393  1.0051
  264MOL0     H36368  11.268   5.608   4.126  2.3259  1.9962  0.7202
  264MOL0     H36369  11.352   5.763   4.303 -1.9593 -0.9583  0.5162
  264MOL0     H36370  11.367   5.625   4.413 -0.3244 -0.9423 -0.2043
  264MOL0     H36371  11.573   5.538   4.321  0.8066  2.0792  2.3766
  264MOL0     H36372  11.531   5.636   4.171 -1.8426  1.1258  0.5578
  264MOL0     H36373  11.602   5.727   4.453  1.2711  2.0813  0.5104
  264MOL0     H36374  11.581   5.840   4.313  1.1538  0.8751 -1.7293
  264MOL0     H36375  11.791   5.600   4.337  3.1983  1.0996  0.1976
  264MOL0     H36376  11.773   5.712   4.212 -0.9219  1.9992  0.0947
  264MOL0     H36377  11.813   5.893   4.414  2.9743  0.5361  0.5560
  264MOL0     H36378  11.945   5.795   4.353 -0.4202  1.6543 -0.3721
  264MOL0     H36379  11.776   5.737   4.615  1.1610  2.5357  1.2535
  264MOL0     H36380  11.900   5.638   4.549  1.1658  0.6969  2.7144
  264MOL0     H36381  11.873   5.948   4.746 -0.1176  1.6711 -1.5882
  264MOL0     H36382  12.245   6.023   4.859  0.0241  0.7162  1.3318
  264MOL0     H36383  12.093   6.026   4.932  0.1171  2.5448 -0.3187
  264MOL0     H36384  12.184   6.199   4.698 -1.1917 -2.0123 -1.5941
  264MOL0     H36385  12.027   6.214   4.767  0.8833  1.6507 -0.8219
  264MOL0     H36386  12.174   6.391   4.877 -0.0570  0.3185 -0.8182
  264MOL0     H36387  12.126   6.271   4.992  1.0022 -0.0395 -0.2311
  264MOL0     H36388  12.346   6.334   5.023 -1.2934  1.4532 -1.5969
  264MOL0     H36389  12.364   6.173   4.969  2.5136  1.0051  1.8063
  264MOL0     H36390  12.544   6.472   4.689  1.5605 -1.1256 -2.0337
  264MOL0     H36391  12.874   6.509   4.614 -3.0886 -0.3540 -3.3885
  264MOL0     H36392  12.855   6.630   4.742 -1.1308 -1.7702  2.7463
  264MOL0     H36393  12.716   6.585   4.634 -1.2661 -1.7043 -1.2008
  264MOL0     H36394  13.173   6.142   4.905 -0.8523  0.9631 -0.7485
  264MOL0     H36395  13.395   6.112   4.963  2.0240  1.2208 -0.4833
  264MOL0     H36396  13.586   6.448   4.949 -0.9224  0.7973  1.1996
  264MOL0     H36397  13.679   6.456   5.105 -1.1212 -0.0259  0.1204
  264MOL0     H36398  13.803   6.242   5.047 -1.7439 -1.9037  0.1397
  264MOL0     H36399  13.736   6.267   4.890  0.7614  1.7280 -0.8399
  264MOL0     H36400  13.913   6.462   5.040 -0.5210 -2.6100  1.8157
  264MOL0     H36401  13.832   6.498   4.876  0.8893 -1.6015 -0.8904
  264MOL0     H36402  13.956   6.295   4.795  1.7506  2.1347 -1.2078
  264MOL0     H36403  14.020   6.283   4.956 -1.0077  0.4527  0.1503
  264MOL0     H36404  14.064   6.499   4.754  0.4661  3.8058  3.8994
  264MOL0     H36405  14.141   6.517   4.910  2.0112  2.2605 -2.5260
  264MOL0     H36406  14.200   6.261   4.735  2.2771 -0.6572 -0.5985
  264MOL0     H36407  14.261   6.307   4.892  1.1429 -0.5418 -0.3876
  264MOL0     H36408  14.277   6.487   4.634  0.5809 -1.5488 -1.7885
  264MOL0     H36409  14.383   6.345   4.649 -4.2672 -1.0935 -4.0951
  264MOL0     H36410  14.466   6.440   4.872  0.6058  0.7662  0.0680
  264MOL0     H36411  14.350   6.579   4.854  2.9732  1.7581  0.6635
  264MOL0     H36412  13.408   6.510   5.144 -1.1141  0.2141  1.6214
  264MOL0     H36413  13.153   6.505   5.117 -3.0452 -2.7076 -0.1213
  264MOL0     H36414  12.806   6.258   5.045  0.3713  1.3561 -0.0906
  264MOL0     H36415  12.586   6.199   5.020  1.7285 -2.6231  0.0764
  264MOL0     H36416  10.926   5.799   4.116  2.7406  0.7897  0.3502
  264MOL0     H36417  10.695   5.872   4.181 -0.2532 -0.8316 -0.4942
  264MOL0     H36418  10.226   5.685   4.344  0.8108 -1.3749  2.4724
  264MOL0     H36419  10.016   5.807   4.378 -0.2579  0.6619  0.8598
  264MOL0     H36420  10.007   5.978   4.757  0.8263  3.2833  1.6980
  264MOL0     H36421   9.943   6.138   4.708 -2.5354  1.0967 -2.4268
  264MOL0     H36422   9.805   5.890   4.696 -2.0136 -0.2383  0.3469
  264MOL0     H36423   9.732   6.037   4.634 -0.1291  2.3383  0.6473
  264MOL0     H36424   9.839   6.013   4.926 -1.4075 -0.8976 -0.0618
  264MOL0     H36425   9.750   6.152   4.850 -0.3397 -0.0940 -3.7250
  264MOL0     H36426   9.590   5.983   4.991 -1.4823  0.3653 -0.5587
  264MOL0     H36427   9.627   5.862   4.863  0.1688  0.4502 -2.6864
  264MOL0     H36428   9.344   6.103   4.664  0.6616  0.7575 -0.0820
  264MOL0     H36429  10.191   6.055   4.677  0.9797 -0.1300 -0.5041
  264MOL0     H36430  10.537   5.905   4.650  0.0399  0.1882  1.0009
  264MOL0     H36431  10.480   6.069   4.621 -1.7333  0.2584  0.9142
  264MOL0     H36432  10.418   5.979   4.760 -2.3825  1.1907 -0.9980
  265MOL0     O36433   0.299   6.476   0.349  0.4576  0.1306  0.1821
  265MOL0     C36434   0.242   6.368   0.359 -0.7592  0.5503 -0.4622
  265MOL0     O36435   0.307   6.255   0.385 -0.3696  0.2536  0.1560
  265MOL0     C36436   0.452   6.253   0.394  0.2425 -0.2364  0.6769
  265MOL0     C36437   0.522   6.149   0.333  0.3108 -0.1725 -0.2340
  265MOL0     C36438   0.662   6.141   0.343 -0.2096  0.3288 -0.0787
  265MOL0     C36439   0.734   6.249   0.400  0.6772  0.0943  0.5466
  265MOL0     O36440   0.870   6.244   0.406 -0.9234 -0.9164 -0.0987
  265MOL0     C36441   0.907   6.189   0.535  0.7284 -0.3732  0.1022
  265MOL0     C36442   1.044   6.218   0.590 -0.8655 -0.0711 -0.1405
  265MOL0     C36443   1.088   6.360   0.590 -0.2931 -0.9346  0.2962
  265MOL0     C36444   1.246   6.367   0.602 -0.0783  0.2358  0.8072
  265MOL0     C36445   1.293   6.504   0.565 -0.0333 -0.4592  0.0200
  265MOL0     C36446   1.446   6.532   0.569 -0.0827 -0.3062  0.4705
  265MOL0     C36447   1.536   6.501   0.447 -0.9032  0.2679 -0.5470
  265MOL0     C36448   1.663   6.584   0.446  0.6207  0.9142  0.2207
  265MOL0     N36449   1.794   6.518   0.484  0.3464 -0.3878 -0.1285
  265MOL0     C36450   1.796   6.421   0.572 -0.4228 -0.3425 -0.4453
  265MOL0     C36451   1.924   6.376   0.566 -0.1026  0.6669  0.7446
  265MOL0     C36452   1.983   6.258   0.633 -0.1476  0.4534 -0.2333
  265MOL0     C36453   2.096   6.299   0.742 -1.0099  0.5999 -0.0187
  265MOL0     C36454   2.120   6.190   0.846  0.2297  1.2192 -0.5180
  265MOL0     C36455   2.220   6.221   0.961  0.0294  0.1254 -0.4697
  265MOL0     O36456   2.348   6.231   0.896 -0.2864  0.1925  0.0500
  265MOL0     C36457   2.425   6.328   0.951  0.0644 -0.0383 -0.7280
  265MOL0     C36458   2.396   6.466   0.970 -0.1120 -0.0005 -0.1144
  265MOL0     C36459   2.503   6.552   1.020  0.2061  0.9611 -0.3986
  265MOL0     C36460   2.478   6.698   1.043  0.0090 -0.3560 -0.4072
  265MOL0     C36461   2.631   6.504   1.040  0.1145  0.1420  0.4711
  265MOL0     C36462   2.741   6.580   1.105 -0.0749  0.2710  0.4907
  265MOL0     O36463   2.862   6.557   1.050  0.1442  0.3459  0.1792
  265MOL0     C36464   2.979   6.584   1.120  0.1726  0.3016 -0.2228
  265MOL0     C36465   3.080   6.674   1.087 -0.0369 -0.1604 -0.2374
  265MOL0     C36466   3.198   6.689   1.153  0.4837  0.0823  0.0838
  265MOL0     C36467   3.218   6.620   1.270 -0.5785  0.9525 -0.6301
  265MOL0     O36468   3.344   6.624   1.325  0.2185  1.4325 -0.2929
  265MOL0     C36469   3.376   6.553   1.453 -0.3707 -0.3745  0.3334
  265MOL0     C36470   3.531   6.563   1.482 -0.9998  0.1567  0.1599
  265MOL0     C36471   3.614   6.517   1.355  0.3546  0.1291 -0.8102
  265MOL0     C36472   3.753   6.483   1.381 -0.5669 -0.5480  0.2842
  265MOL0     C36473   3.815   6.435   1.254 -0.8785  0.7523 -0.8634
  265MOL0     C36474   3.964   6.396   1.256  0.0781 -0.5438  0.0422
  265MOL0     C36475   4.012   6.371   1.107 -0.0714  0.5009 -1.0744
  265MOL0     C36476   3.961   6.232   1.057 -0.4364 -1.1585  0.4699
  265MOL0    Cl36477   4.038   6.200   0.892 -0.1746 -0.1152  0.5272
  265MOL0     C36478   3.113   6.532   1.319 -0.8540  0.4722  0.4626
  265MOL0     C36479   2.995   6.511   1.240  0.2113  0.6362 -0.5969
  265MOL0     O36480   2.724   6.649   1.200 -0.2110 -0.6903  0.2739
  265MOL0     C36481   2.647   6.369   1.012 -0.5480 -0.7863  0.2426
  265MOL0     C36482   2.553   6.280   0.977  0.5632 -0.1232  0.5467
  265MOL0     N36483   1.988   6.460   0.473  0.0946 -0.0485  0.3058
  265MOL0     N36484   1.906   6.547   0.419 -0.2146  0.3810  0.0007
  265MOL0     C36485   0.662   6.347   0.466  0.2091 -1.0635  0.7102
  265MOL0     C36486   0.523   6.347   0.476 -0.5470 -0.4279  0.7144
  265MOL0     C36487   0.092   6.355   0.314 -0.6583  0.6890  0.8728
  265MOL0     C36488   0.021   6.479   0.299  0.1332  0.6826 -0.3823
  265MOL0     C36489  -0.125   6.485   0.283 -0.0888 -0.0030  0.5666
  265MOL0     C36490  -0.188   6.364   0.258  0.4589  0.0155 -0.0105
  265MOL0     O36491  -0.318   6.344   0.231  0.2135  0.7747 -0.3379
  265MOL0     C36492  -0.403   6.462   0.242  0.1571  0.5024  0.3453
  265MOL0     C36493  -0.399   6.544   0.114  0.1081 -0.9849  1.1804
  265MOL0     C36494  -0.420   6.450  -0.011  0.0572 -0.4948 -0.6161
  265MOL0     C36495  -0.375   6.510  -0.134  0.4310 -0.6590  0.2640
  265MOL0     C36496  -0.382   6.410  -0.236  0.5102  0.1098  0.3271
  265MOL0     C36497  -0.397   6.309  -0.305 -0.3216  0.0573  0.2734
  265MOL0     C36498  -0.114   6.243   0.253  0.9219 -0.1933 -0.6922
  265MOL0     C36499   0.015   6.233   0.292 -0.6840  0.6476 -0.1642
  265MOL0     C36500   0.070   6.092   0.267  0.0073 -0.4236  0.5637
  265MOL0     H36501   0.452   6.081   0.285  1.4995 -0.3960 -1.7220
  265MOL0     H36502   0.728   6.061   0.311  0.5546  0.8245  0.2219
  265MOL0     H36503   0.903   6.080   0.527 -2.1720 -0.4622  1.6951
  265MOL0     H36504   0.836   6.221   0.611  2.5903  2.9674  0.6480
  265MOL0     H36505   1.058   6.177   0.690 -1.7598  0.9199  0.4112
  265MOL0     H36506   1.102   6.147   0.531 -0.7799  1.0848 -1.5153
  265MOL0     H36507   1.055   6.406   0.497 -2.1301 -1.3964  0.6751
  265MOL0     H36508   1.039   6.424   0.665  2.6569 -1.8864  3.2654
  265MOL0     H36509   1.281   6.351   0.704  2.5427  0.4338  0.0205
  265MOL0     H36510   1.290   6.297   0.531 -0.1939  1.3887 -0.4545
  265MOL0     H36511   1.261   6.569   0.647  1.6039  2.0362 -1.1744
  265MOL0     H36512   1.247   6.529   0.469 -1.2592  0.5075  0.8310
  265MOL0     H36513   1.458   6.641   0.578 -1.5037 -0.1901  1.3441
  265MOL0     H36514   1.479   6.489   0.664 -0.1226  0.0035  0.6274
  265MOL0     H36515   1.481   6.514   0.353 -2.2510 -1.9981 -0.1414
  265MOL0     H36516   1.571   6.398   0.442  0.4650  0.7520 -1.6681
  265MOL0     H36517   1.675   6.608   0.339  0.9204  0.6071  0.1850
  265MOL0     H36518   1.646   6.681   0.494  2.6408  1.4684 -0.1082
  265MOL0     H36519   1.729   6.389   0.652  2.4844  1.7270  3.1238
  265MOL0     H36520   2.027   6.194   0.556  2.3142  2.1244 -0.3315
  265MOL0     H36521   1.896   6.214   0.682  0.9199 -2.0818 -0.4653
  265MOL0     H36522   2.191   6.299   0.686 -0.1754 -0.4195  1.3260
  265MOL0     H36523   2.059   6.386   0.795  2.1853  1.9560  0.2057
  265MOL0     H36524   2.034   6.171   0.910  0.2036  0.3547 -0.7951
  265MOL0     H36525   2.157   6.099   0.799 -2.3336 -1.1007  1.6311
  265MOL0     H36526   2.198   6.318   1.007 -1.6599 -0.6234  0.4066
  265MOL0     H36527   2.214   6.156   1.049 -0.4297  1.9740  0.9339
  265MOL0     H36528   2.299   6.509   0.947 -0.6709 -1.3552 -0.3895
  265MOL0     H36529   2.380   6.742   1.021  0.5369  0.9327 -0.2594
  265MOL0     H36530   2.544   6.764   0.987 -0.3002  1.3841  1.1520
  265MOL0     H36531   2.480   6.726   1.149 -3.8995  1.2554 -0.5735
  265MOL0     H36532   3.046   6.722   0.996 -3.4567  0.3549  1.1734
  265MOL0     H36533   3.278   6.752   1.115 -0.3634  0.3850 -1.2486
  265MOL0     H36534   3.311   6.588   1.534  1.3224  0.8795  1.2255
  265MOL0     H36535   3.354   6.448   1.433  1.4494 -1.0247  1.5484
  265MOL0     H36536   3.563   6.664   1.509  1.1749  0.1023 -1.8805
  265MOL0     H36537   3.562   6.502   1.568 -0.2785 -0.2527 -0.3803
  265MOL0     H36538   3.600   6.582   1.268 -0.8138  0.8895 -0.0755
  265MOL0     H36539   3.563   6.428   1.319 -2.8636  2.1354 -1.6036
  265MOL0     H36540   3.766   6.412   1.463  3.2831 -0.7740 -0.3483
  265MOL0     H36541   3.808   6.572   1.413  0.0265  0.0601 -2.2781
  265MOL0     H36542   3.762   6.347   1.216 -0.6145  0.4081 -0.4341
  265MOL0     H36543   3.807   6.516   1.180  0.1275  1.2308 -0.4647
  265MOL0     H36544   3.971   6.308   1.321 -1.9421  0.8288  2.2938
  265MOL0     H36545   4.029   6.472   1.300 -1.3994  0.6653  0.2310
  265MOL0     H36546   4.121   6.376   1.100  0.4995 -4.2254  0.8968
  265MOL0     H36547   3.968   6.450   1.045 -0.1518  2.3388  1.1960
  265MOL0     H36548   3.854   6.236   1.036 -0.0373  2.9062 -2.0862
  265MOL0     H36549   3.996   6.154   1.125  1.5459 -1.1249 -0.4381
  265MOL0     H36550   3.130   6.462   1.400  1.7854 -1.0089 -1.2033
  265MOL0     H36551   2.916   6.443   1.271 -1.2157  2.4170 -0.1394
  265MOL0     H36552   2.741   6.320   1.036 -0.4309 -0.3195  0.7530
  265MOL0     H36553   2.573   6.174   0.967 -0.8738 -0.2351 -2.0737
  265MOL0     H36554   0.719   6.428   0.511 -0.5371  0.5937 -1.1757
  265MOL0     H36555   0.481   6.424   0.541  2.4708  3.1193 -1.1981
  265MOL0     H36556   0.071   6.574   0.311 -0.6724  0.9375  1.2797
  265MOL0     H36557  -0.176   6.580   0.278  0.5177  0.2906 -0.2006
  265MOL0     H36558  -0.505   6.429   0.262  0.9077 -1.5632  1.1235
  265MOL0     H36559  -0.387   6.523   0.331  1.2934  0.7025  0.0267
  265MOL0     H36560  -0.303   6.597   0.105 -0.3143 -0.2599  0.8628
  265MOL0     H36561  -0.477   6.620   0.103  1.9157  0.6781 -1.3405
  265MOL0     H36562  -0.366   6.356   0.001  1.5410  0.6077  2.6811
  265MOL0     H36563  -0.527   6.426  -0.010  0.1540 -1.1931  2.2022
  265MOL0     H36564  -0.272   6.543  -0.122 -0.4829  2.6838 -0.1300
  265MOL0     H36565  -0.448   6.585  -0.165  1.0045 -0.8630 -1.7189
  265MOL0     H36566  -0.408   6.210  -0.342 -2.8725  0.7972 -1.2449
  265MOL0     H36567  -0.170   6.151   0.237  0.7484  0.0860 -1.7645
  265MOL0     H36568   0.098   6.085   0.161  0.0227  0.3610  0.5142
  265MOL0     H36569   0.152   6.069   0.336  1.9606  0.9935 -1.1901
  265MOL0     H36570  -0.012   6.021   0.283  0.9738 -1.4501  1.1037
  266MOL0     O36571   1.607   4.541   5.965 -0.1399 -0.0539 -0.0974
  266MOL0     C36572   1.548   4.503   6.071 -0.1110 -0.2780 -0.5054
  266MOL0     O36573   1.594   4.524   6.204  0.5043  0.2535  0.3799
  266MOL0     C36574   1.727   4.542   6.244  0.9487  0.2002 -0.0824
  266MOL0     C36575   1.761   4.634   6.349  0.4622  0.3790 -0.7170
  266MOL0     C36576   1.899   4.657   6.368 -0.6572 -0.5663 -0.2183
  266MOL0     C36577   2.002   4.586   6.305 -0.2195  0.0985 -0.3861
  266MOL0     O36578   2.135   4.611   6.314 -0.6478 -0.3705  0.0175
  266MOL0     C36579   2.237   4.511   6.273  0.1529  0.7691  0.8229
  266MOL0     C36580   2.371   4.545   6.327 -0.4896 -0.8264 -0.3993
  266MOL0     C36581   2.473   4.440   6.292 -0.5656  0.2527  0.1373
  266MOL0     C36582   2.520   4.441   6.139 -0.8405 -0.0780  0.0472
  266MOL0     C36583   2.667   4.400   6.107 -0.5030  0.6849  0.1163
  266MOL0     C36584   2.693   4.252   6.135 -0.2614  0.1812  0.5950
  266MOL0     C36585   2.619   4.167   6.028  0.5587  0.6141 -0.0696
  266MOL0     C36586   2.689   4.143   5.896 -0.0182 -0.2141  0.1026
  266MOL0     N36587   2.826   4.085   5.906 -0.2385 -0.6246  0.3704
  266MOL0     C36588   2.863   3.951   5.918  0.5176 -0.7579 -0.2295
  266MOL0     C36589   3.001   3.958   5.922 -0.8621  0.6971  0.8294
  266MOL0     C36590   3.089   3.845   5.968  0.2538  0.9997 -1.1718
  266MOL0     C36591   3.148   3.777   5.843  0.2574 -0.7806  0.1429
  266MOL0     C36592   3.241   3.860   5.762  0.4383  0.6913  0.7344
  266MOL0     C36593   3.347   3.923   5.852  0.2202 -0.1947  1.4554
  266MOL0     O36594   3.420   3.824   5.926  0.1547 -0.2018  0.8429
  266MOL0     C36595   3.509   3.749   5.864  0.1626 -0.9966  0.0945
  266MOL0     C36596   3.499   3.620   5.856 -0.2043  0.9338 -0.6438
  266MOL0     C36597   3.604   3.526   5.819 -0.0818 -0.0112  0.5488
  266MOL0     C36598   3.576   3.377   5.823  0.8270  0.1992 -0.5524
  266MOL0     C36599   3.720   3.586   5.776  1.4228  0.0798  0.1167
  266MOL0     C36600   3.842   3.514   5.746  0.0499  0.5674 -0.9389
  266MOL0     O36601   3.925   3.572   5.653 -0.5046 -0.6418  0.2559
  266MOL0     C36602   4.058   3.572   5.684 -0.1787 -0.9008 -1.0574
  266MOL0     C36603   4.111   3.695   5.715  0.2912 -0.7806  0.0633
  266MOL0     C36604   4.243   3.719   5.754  0.8377 -0.4018  0.2338
  266MOL0     C36605   4.332   3.615   5.735  0.2728 -0.0987  0.2171
  266MOL0     O36606   4.463   3.642   5.749  0.3422  0.0557  0.0620
  266MOL0     C36607   4.571   3.548   5.727 -0.1457  0.4526 -0.0060
  266MOL0     C36608   4.709   3.612   5.770  0.1007  1.0183 -0.0601
  266MOL0     C36609   4.744   3.709   5.663 -0.6367 -0.8949  0.2228
  266MOL0     C36610   4.847   3.808   5.701 -0.6557  0.2978  0.1793
  266MOL0     C36611   4.980   3.738   5.701 -0.0873  0.0158 -0.0279
  266MOL0     C36612   5.095   3.825   5.764  0.6064 -0.0292  1.2986
  266MOL0     C36613   5.196   3.733   5.829  0.3164  0.1671  0.8779
  266MOL0     C36614   5.304   3.828   5.870  0.3316 -0.5975 -0.4478
  266MOL0    Cl36615   5.414   3.866   5.726  0.2785 -0.3584 -0.1833
  266MOL0     C36616   4.285   3.489   5.700  0.4438 -0.0917  0.2584
  266MOL0     C36617   4.149   3.467   5.682 -0.3339 -0.9240 -0.6804
  266MOL0     O36618   3.870   3.422   5.825 -0.1005  0.2506  0.1323
  266MOL0     C36619   3.735   3.732   5.770 -0.1538 -0.0742 -0.4781
  266MOL0     C36620   3.630   3.808   5.817 -0.0052 -0.2861 -0.3165
  266MOL0     N36621   3.044   4.092   5.902 -0.5150  0.1049  0.0594
  266MOL0     N36622   2.938   4.168   5.903 -0.0855  0.7955  0.6784
  266MOL0     C36623   1.963   4.496   6.206  0.0239 -0.0630  0.1305
  266MOL0     C36624   1.828   4.478   6.177  0.6132 -0.3635  0.4595
  266MOL0     C36625   1.410   4.457   6.055  0.6419 -0.2317 -0.2568
  266MOL0     C36626   1.313   4.532   6.126  0.1494 -0.6443  0.0964
  266MOL0     C36627   1.177   4.507   6.104 -0.4349 -0.0495  0.9510
  266MOL0     C36628   1.130   4.405   6.017 -0.7031  0.3255  0.9729
  266MOL0     O36629   1.008   4.348   6.001 -0.5259  0.7280 -0.4444
  266MOL0     C36630   0.897   4.403   6.062  0.2322  0.3824 -0.3328
  266MOL0     C36631   0.857   4.533   5.992  0.0801  0.0724  0.0980
  266MOL0     C36632   0.725   4.591   6.056  0.1501 -0.5519  0.0513
  266MOL0     C36633   0.686   4.732   5.997 -0.2085 -0.0822 -0.6667
  266MOL0     C36634   0.801   4.836   6.015 -0.1385 -0.0320 -0.4159
  266MOL0     C36635   0.901   4.897   6.039 -0.1004  0.7007  0.1891
  266MOL0     C36636   1.229   4.336   5.949 -0.1094  0.1167 -1.0759
  266MOL0     C36637   1.364   4.361   5.954 -0.0215  0.4105  0.4448
  266MOL0     C36638   1.466   4.277   5.872  0.0136 -0.6467 -0.1248
  266MOL0     H36639   1.692   4.680   6.419  2.6506  2.9322 -0.0835
  266MOL0     H36640   1.925   4.736   6.439 -3.3932  1.5070 -1.3575
  266MOL0     H36641   2.234   4.501   6.164  0.8849 -3.6070  1.0052
  266MOL0     H36642   2.216   4.409   6.308 -0.8742  0.3037 -0.9925
  266MOL0     H36643   2.401   4.635   6.274  1.3882 -2.0022 -1.4345
  266MOL0     H36644   2.375   4.571   6.433 -1.1129  1.0759 -0.8106
  266MOL0     H36645   2.561   4.457   6.355 -1.0616 -1.8556  1.4773
  266MOL0     H36646   2.434   4.342   6.318 -2.7101  1.5965  2.3507
  266MOL0     H36647   2.445   4.393   6.077 -1.3713 -0.2068  0.7814
  266MOL0     H36648   2.526   4.545   6.105  1.1433 -0.2218 -0.2060
  266MOL0     H36649   2.738   4.454   6.171 -0.5828  1.8552 -0.7683
  266MOL0     H36650   2.687   4.424   6.002  0.9128  1.3328  0.5109
  266MOL0     H36651   2.800   4.234   6.133  0.4258  3.3223  2.2744
  266MOL0     H36652   2.666   4.232   6.239  0.1266 -1.2397  0.4424
  266MOL0     H36653   2.511   4.187   6.024  0.4160  0.7365  2.6258
  266MOL0     H36654   2.615   4.066   6.071  0.5858  0.9985  0.8543
  266MOL0     H36655   2.632   4.061   5.852  1.1584 -1.7263  1.3092
  266MOL0     H36656   2.683   4.237   5.840  1.7279 -1.9048 -3.2111
  266MOL0     H36657   2.798   3.865   5.929 -0.0563 -0.3541 -0.4036
  266MOL0     H36658   3.016   3.774   6.011  0.0777  3.0305  2.2382
  266MOL0     H36659   3.163   3.872   6.043 -1.5117  0.5712  0.8438
  266MOL0     H36660   3.207   3.692   5.879  2.0602  0.7230  0.8933
  266MOL0     H36661   3.077   3.732   5.773  0.9721 -0.0171 -1.0948
  266MOL0     H36662   3.291   3.778   5.711  1.0258  1.5169 -0.0526
  266MOL0     H36663   3.194   3.928   5.690 -1.5010 -0.9166  0.3773
  266MOL0     H36664   3.410   3.981   5.784 -2.0856 -0.3201 -0.9489
  266MOL0     H36665   3.307   3.987   5.931  0.0201  2.5851 -0.7275
  266MOL0     H36666   3.412   3.569   5.898  2.1056 -2.2690  0.6503
  266MOL0     H36667   3.568   3.345   5.718  1.5063 -3.0632  0.2730
  266MOL0     H36668   3.483   3.367   5.880  0.4730  3.0325 -0.4721
  266MOL0     H36669   3.656   3.320   5.870 -0.4496 -1.2580 -0.0398
  266MOL0     H36670   4.057   3.789   5.719  1.9499  0.1775  2.7700
  266MOL0     H36671   4.272   3.815   5.796  1.2282  0.3105 -1.5904
  266MOL0     H36672   4.551   3.458   5.786 -0.1957  1.1732  1.0872
  266MOL0     H36673   4.577   3.513   5.623 -0.5858  0.0056  0.1147
  266MOL0     H36674   4.693   3.670   5.861  0.9493  3.8095 -1.5787
  266MOL0     H36675   4.791   3.541   5.788  0.8335  1.6843 -0.6719
  266MOL0     H36676   4.651   3.751   5.622 -1.3385 -1.1001  1.5665
  266MOL0     H36677   4.775   3.638   5.586 -2.8330 -0.8855 -0.7648
  266MOL0     H36678   4.821   3.853   5.797  0.7894 -0.6552  1.0605
  266MOL0     H36679   4.847   3.889   5.628 -0.1088 -0.5602 -0.8072
  266MOL0     H36680   4.962   3.649   5.761 -1.1475 -1.4574 -2.3684
  266MOL0     H36681   5.006   3.697   5.603  0.2445 -2.1097  0.9029
  266MOL0     H36682   5.047   3.892   5.835 -0.8709  0.2723  0.0830
  266MOL0     H36683   5.133   3.887   5.683 -0.3591 -0.9526  0.0851
  266MOL0     H36684   5.224   3.651   5.762  2.1968  1.5175 -0.0753
  266MOL0     H36685   5.140   3.699   5.916 -1.1925  1.9945  0.6880
  266MOL0     H36686   5.373   3.796   5.949 -1.0297 -0.1226  0.9675
  266MOL0     H36687   5.280   3.926   5.913  0.4743 -0.8873  0.2929
  266MOL0     H36688   4.342   3.397   5.698 -0.5500 -0.7239 -1.6998
  266MOL0     H36689   4.101   3.373   5.659 -0.8452 -1.2754  1.5591
  266MOL0     H36690   3.828   3.778   5.738 -0.9883  0.6594 -1.9665
  266MOL0     H36691   3.651   3.912   5.840  0.6358 -0.6923  1.0354
  266MOL0     H36692   2.031   4.431   6.152  0.8022 -0.1530  1.1789
  266MOL0     H36693   1.804   4.422   6.087 -0.1985  1.7383 -0.7001
  266MOL0     H36694   1.351   4.608   6.195 -1.5237  1.0366 -0.7299
  266MOL0     H36695   1.104   4.577   6.143 -1.6453  1.0665 -2.9062
  266MOL0     H36696   0.821   4.325   6.057  2.0448 -1.3925 -1.7639
  266MOL0     H36697   0.927   4.431   6.163  0.9445 -1.3559 -0.0242
  266MOL0     H36698   0.839   4.524   5.885 -0.1117  2.3850 -0.1186
  266MOL0     H36699   0.931   4.610   6.015  0.5346 -0.4858  0.5538
  266MOL0     H36700   0.639   4.526   6.039  0.4903 -0.9460 -0.1777
  266MOL0     H36701   0.738   4.604   6.164 -0.6268  1.1763 -0.0251
  266MOL0     H36702   0.594   4.773   6.041  0.0167 -0.6929  0.4103
  266MOL0     H36703   0.673   4.713   5.890  3.7129 -1.1202 -1.1060
  266MOL0     H36704   0.989   4.945   6.078  0.9384  1.2511 -2.6322
  266MOL0     H36705   1.194   4.250   5.893  0.4123 -0.3277 -0.7353
  266MOL0     H36706   1.503   4.335   5.787 -2.3558 -0.4460 -1.0856
  266MOL0     H36707   1.544   4.252   5.945  0.5261  1.4409  0.0876
  266MOL0     H36708   1.431   4.185   5.824 -1.4780  0.5215 -1.3576
  267MOL0     O36709   1.648   6.695  10.500 -0.3421 -0.2632  0.6937
  267MOL0     C36710   1.766   6.671  10.460 -0.3128  0.3303 -0.1744
  267MOL0     O36711   1.839   6.742  10.362 -0.2038 -0.2180 -0.5194
  267MOL0     C36712   1.769   6.837  10.290 -0.5686 -0.5423 -0.9327
  267MOL0     C36713   1.734   6.964  10.337  0.7082 -0.5266 -0.1441
  267MOL0     C36714   1.676   7.053  10.247 -0.3543  0.4876 -1.1199
  267MOL0     C36715   1.653   7.015  10.117 -1.0844 -0.7366 -0.2836
  267MOL0     O36716   1.592   7.097  10.027 -0.2996 -0.0734 -0.2676
  267MOL0     C36717   1.487   7.184  10.072  0.5338 -0.8111 -0.8003
  267MOL0     C36718   1.374   7.196   9.968  0.4881  1.1071 -0.0850
  267MOL0     C36719   1.291   7.070   9.936  0.2201 -0.7830  0.6138
  267MOL0     C36720   1.203   7.019  10.050  0.3818  0.6490  0.3126
  267MOL0     C36721   1.211   6.861  10.058  0.0121  0.4394  1.0513
  267MOL0     C36722   1.339   6.803  10.114 -0.3938 -0.4650  0.0606
  267MOL0     C36723   1.325   6.654  10.152  0.1942  0.0054  0.8214
  267MOL0     C36724   1.431   6.606  10.248  0.8169 -0.0623  0.9156
  267MOL0     N36725   1.478   6.467  10.222  0.5271 -0.8807  0.2220
  267MOL0     C36726   1.551   6.435  10.110  0.0042  0.3298 -0.4657
  267MOL0     C36727   1.558   6.299  10.115 -0.1823  0.5388 -0.5414
  267MOL0     C36728   1.635   6.222  10.013 -0.4036  0.1005 -0.1570
  267MOL0     C36729   1.784   6.274  10.006  0.3299  0.2512  0.1225
  267MOL0     C36730   1.883   6.167   9.974  0.6296 -0.6126 -0.2600
  267MOL0     C36731   2.028   6.209   9.967  0.5693 -0.2623  0.1700
  267MOL0     O36732   2.078   6.264  10.092  0.1295  0.0421 -0.2097
  267MOL0     C36733   2.203   6.303  10.086  0.2057 -0.7358 -0.2887
  267MOL0     C36734   2.224   6.442  10.067 -0.2519 -0.1299  0.5060
  267MOL0     C36735   2.357   6.492  10.060  0.6017 -0.2745  0.5585
  267MOL0     C36736   2.373   6.631  10.037  0.2014  0.0752 -0.6136
  267MOL0     C36737   2.468   6.397  10.070  0.2901 -0.2294  0.0232
  267MOL0     C36738   2.617   6.428  10.069 -0.1143 -0.3874 -0.2946
  267MOL0     O36739   2.701   6.329  10.111 -0.0977 -0.0690 -0.2753
  267MOL0     C36740   2.834   6.349  10.070 -0.2664 -0.0892 -1.0149
  267MOL0     C36741   2.870   6.322   9.939  0.4006 -0.8061 -0.3360
  267MOL0     C36742   2.997   6.343   9.887  0.2897 -0.3965 -0.6722
  267MOL0     C36743   3.101   6.372   9.979 -0.0047 -0.1809  0.3949
  267MOL0     O36744   3.232   6.386   9.932  0.0246 -0.0721  0.1218
  267MOL0     C36745   3.343   6.378  10.022 -0.4740  0.1421  0.6203
  267MOL0     C36746   3.464   6.420   9.941  0.2398  0.6698  0.5479
  267MOL0     C36747   3.586   6.385  10.019  0.1958 -0.5269 -0.0486
  267MOL0     C36748   3.714   6.417   9.941 -0.0142  0.3311 -0.2862
  267MOL0     C36749   3.781   6.283   9.912 -0.3507  0.2440  0.7893
  267MOL0     C36750   3.921   6.314   9.850 -0.3387  0.1363  0.9317
  267MOL0     C36751   3.997   6.179   9.843 -0.6478 -0.6231  0.8529
  267MOL0     C36752   4.142   6.197   9.781  0.6625  0.1328  0.2506
  267MOL0    Cl36753   4.222   6.025   9.776  0.3659  0.2695 -0.1437
  267MOL0     C36754   3.069   6.387  10.114 -0.3565  1.3439  0.7472
  267MOL0     C36755   2.934   6.377  10.159 -0.3257  0.7227  0.0159
  267MOL0     O36756   2.648   6.543  10.046 -0.0649  0.1713 -0.4058
  267MOL0     C36757   2.437   6.260  10.084  1.0127 -0.1795 -0.4023
  267MOL0     C36758   2.307   6.216  10.103  0.8414 -0.1121 -0.1070
  267MOL0     N36759   1.470   6.253  10.216  0.1257 -0.2907 -0.1446
  267MOL0     N36760   1.425   6.355  10.280 -1.3410  0.4587 -0.3396
  267MOL0     C36761   1.701   6.897  10.070 -0.3248 -1.0583 -0.1357
  267MOL0     C36762   1.757   6.804  10.156 -0.1710 -0.1667 -0.7767
  267MOL0     C36763   1.835   6.566  10.529 -0.7035 -0.2197  0.1361
  267MOL0     C36764   1.844   6.568  10.670  1.0877  0.4105 -0.9148
  267MOL0     C36765   1.922   6.468  10.737  0.0222 -0.3697  0.0645
  267MOL0     C36766   1.990   6.372  10.667  0.1050 -0.2107  0.6960
  267MOL0     O36767   2.062   6.273  10.723  0.3095 -0.6055 -0.3859
  267MOL0     C36768   2.144   6.308  10.840 -0.9557  0.4487  0.6044
  267MOL0     C36769   2.137   6.205  10.962  0.0742 -0.3850  1.0477
  267MOL0     C36770   2.249   6.237  11.060  1.2491  0.3448 -0.0375
  267MOL0     C36771   2.234   6.134  11.182 -0.1056 -0.0268 -0.2521
  267MOL0     C36772   2.343   6.119  11.274 -0.4923  0.2620 -0.3169
  267MOL0     C36773   2.419   6.100  11.360 -0.2299  0.7242  0.0275
  267MOL0     C36774   1.975   6.371  10.527 -1.3265  0.1196  0.2730
  267MOL0     C36775   1.896   6.462  10.462  0.2535 -0.0350 -0.4401
  267MOL0     C36776   1.880   6.444  10.313 -0.3023  0.4355  0.1994
  267MOL0     H36777   1.765   6.996  10.435  1.7498 -0.2312 -0.5608
  267MOL0     H36778   1.653   7.154  10.278  1.1922  0.9949 -1.5533
  267MOL0     H36779   1.527   7.285  10.087 -1.6105 -0.2581  1.8786
  267MOL0     H36780   1.445   7.152  10.168 -0.4682  2.5718  0.0253
  267MOL0     H36781   1.307   7.274  10.006  0.5241  1.7141 -1.2410
  267MOL0     H36782   1.420   7.236   9.877  0.0298  3.2699  0.5678
  267MOL0     H36783   1.225   7.088   9.851  0.1481 -0.4491  0.7391
  267MOL0     H36784   1.357   6.998   9.887 -0.0605  0.7147 -2.2031
  267MOL0     H36785   1.230   7.074  10.141 -2.8755  0.0554  1.7994
  267MOL0     H36786   1.099   7.048  10.031 -0.8573 -2.7780  0.9518
  267MOL0     H36787   1.209   6.829   9.953  1.7394 -0.7707  1.3308
  267MOL0     H36788   1.121   6.824  10.107 -0.9938  1.2026 -0.1864
  267MOL0     H36789   1.421   6.799  10.042 -3.5157 -1.5488 -3.8216
  267MOL0     H36790   1.364   6.853  10.208 -1.6817 -1.5202  0.9936
  267MOL0     H36791   1.334   6.592  10.062 -2.0169 -1.1823  1.3596
  267MOL0     H36792   1.223   6.642  10.190 -1.0554  3.4302 -1.0240
  267MOL0     H36793   1.518   6.671  10.241  1.2430 -0.8201 -2.8344
  267MOL0     H36794   1.387   6.615  10.348 -2.8594  1.3227 -0.6386
  267MOL0     H36795   1.603   6.493  10.035 -0.0411 -0.6077 -1.2299
  267MOL0     H36796   1.583   6.228   9.918 -2.3228  2.3797  0.9330
  267MOL0     H36797   1.627   6.114  10.030  0.2565  0.2733  1.5157
  267MOL0     H36798   1.794   6.351   9.929  1.4097  2.4020  2.3189
  267MOL0     H36799   1.817   6.308  10.104  3.5011 -3.2630  0.5440
  267MOL0     H36800   1.876   6.096  10.057 -0.1860 -1.5208 -1.0762
  267MOL0     H36801   1.853   6.129   9.876 -1.0159 -0.6137  0.2053
  267MOL0     H36802   2.087   6.121   9.938 -3.1107 -3.0811  0.4329
  267MOL0     H36803   2.037   6.286   9.890  0.1591  0.9946  1.3455
  267MOL0     H36804   2.140   6.511  10.063  1.7882  2.5706  1.3527
  267MOL0     H36805   2.421   6.639   9.939 -2.2304 -0.4015 -1.9042
  267MOL0     H36806   2.442   6.675  10.110 -1.9432 -0.8373  2.1128
  267MOL0     H36807   2.279   6.686  10.047  0.9643  1.5078 -1.0843
  267MOL0     H36808   2.786   6.311   9.870 -2.0421 -0.1135  2.3240
  267MOL0     H36809   3.024   6.360   9.783 -0.4902  1.6794 -0.5712
  267MOL0     H36810   3.330   6.450  10.102  0.4898 -1.5047  2.3570
  267MOL0     H36811   3.351   6.278  10.066 -0.4198 -0.3555 -0.4775
  267MOL0     H36812   3.454   6.372   9.844 -1.4715  1.0087  0.5109
  267MOL0     H36813   3.452   6.528   9.926  0.8492  0.6173 -0.3592
  267MOL0     H36814   3.579   6.280  10.049  2.8478 -1.2690 -1.7284
  267MOL0     H36815   3.579   6.447  10.109 -2.9080  2.5886 -2.1591
  267MOL0     H36816   3.787   6.471  10.003  1.1487  0.7974 -2.0023
  267MOL0     H36817   3.693   6.471   9.848  0.5531  1.7052  0.3566
  267MOL0     H36818   3.779   6.218  10.000  2.4291 -2.2651 -0.7749
  267MOL0     H36819   3.726   6.223   9.839 -1.6039  2.9224 -0.6087
  267MOL0     H36820   3.978   6.396   9.895  0.5741  0.1960 -0.3073
  267MOL0     H36821   3.918   6.351   9.748  2.8572 -0.0146  0.6769
  267MOL0     H36822   3.942   6.113   9.775  1.5867 -1.7659  0.0397
  267MOL0     H36823   4.000   6.125   9.937 -1.6065 -0.1382  1.1821
  267MOL0     H36824   4.199   6.256   9.853 -1.1694  3.4546 -0.7711
  267MOL0     H36825   4.140   6.240   9.680 -0.9275 -0.9988 -0.2556
  267MOL0     H36826   3.149   6.401  10.186  1.2431 -0.0749 -0.6732
  267MOL0     H36827   2.904   6.394  10.262  1.2360 -0.7331  0.7470
  267MOL0     H36828   2.506   6.177  10.080  1.5281  0.1970  0.3515
  267MOL0     H36829   2.274   6.115  10.127 -0.1955 -0.7202 -3.5680
  267MOL0     H36830   1.691   6.883   9.963  0.9618  1.8432 -0.7275
  267MOL0     H36831   1.792   6.708  10.118  0.4513 -0.0801 -0.4212
  267MOL0     H36832   1.808   6.652  10.727  2.6476  0.9169 -0.6117
  267MOL0     H36833   1.935   6.484  10.843 -0.4662  2.2733 -0.2093
  267MOL0     H36834   2.241   6.295  10.792 -1.0777  3.2216 -0.5628
  267MOL0     H36835   2.138   6.411  10.875 -0.3238  1.2244 -1.4165
  267MOL0     H36836   2.142   6.105  10.918  0.5476 -0.1346  0.5071
  267MOL0     H36837   2.038   6.222  11.005  0.2482  1.1468  0.9140
  267MOL0     H36838   2.348   6.232  11.014  0.1963  1.7042 -2.6772
  267MOL0     H36839   2.243   6.339  11.099  1.6188  0.7095 -0.9050
  267MOL0     H36840   2.220   6.036  11.135  1.0176 -0.4535  0.2743
  267MOL0     H36841   2.144   6.166  11.236 -0.0285 -2.2038  1.3240
  267MOL0     H36842   2.482   6.083  11.445 -3.0798 -1.6840  1.8241
  267MOL0     H36843   2.037   6.296  10.479 -0.4174 -0.3344  2.0645
  267MOL0     H36844   1.957   6.507  10.267 -0.1045  2.9945  3.6204
  267MOL0     H36845   1.906   6.339  10.296 -0.3312  0.3341  0.7502
  267MOL0     H36846   1.778   6.464  10.278 -0.6509 -1.1904  0.1988
  268MOL0     O36847   4.922   6.877   2.042 -0.3813 -0.1852 -0.8308
  268MOL0     C36848   4.962   6.961   1.966 -0.8656 -0.3137  0.7862
  268MOL0     O36849   5.030   6.937   1.844  0.0919 -0.0558  0.5578
  268MOL0     C36850   5.037   6.804   1.813 -0.9023 -0.8928 -0.9805
  268MOL0     C36851   5.163   6.749   1.787  0.2222 -0.0316 -0.0233
  268MOL0     C36852   5.177   6.623   1.720  0.2123  0.1114  0.2999
  268MOL0     C36853   5.061   6.545   1.698  0.3188 -0.4134 -0.1689
  268MOL0     O36854   5.069   6.412   1.664  0.1085 -0.3516 -0.0450
  268MOL0     C36855   5.183   6.337   1.703  0.0107 -0.3530 -0.3189
  268MOL0     C36856   5.187   6.200   1.627  0.1879 -0.4378  0.1838
  268MOL0     C36857   5.230   6.204   1.479 -0.2633 -0.6043  0.2662
  268MOL0     C36858   5.373   6.155   1.467 -1.0642  0.1960 -0.9517
  268MOL0     C36859   5.422   6.145   1.327 -0.6844 -0.2365  0.5516
  268MOL0     C36860   5.580   6.137   1.326 -0.3489 -0.1342 -0.1632
  268MOL0     C36861   5.653   6.154   1.197  0.3004 -0.1703  0.8797
  268MOL0     C36862   5.634   6.294   1.136 -0.5469  0.5324  0.7826
  268MOL0     N36863   5.743   6.317   1.033  0.7126 -0.3321 -1.0142
  268MOL0     C36864   5.876   6.320   1.068  0.2012 -0.9242 -0.0827
  268MOL0     C36865   5.941   6.326   0.942  0.1423 -0.8447  0.0751
  268MOL0     C36866   6.094   6.337   0.934  0.6196 -0.0888  0.2099
  268MOL0     C36867   6.155   6.217   1.012  0.0423 -0.3359  0.5645
  268MOL0     C36868   6.298   6.208   0.960  0.2446 -0.5114 -0.2237
  268MOL0     C36869   6.356   6.085   1.039 -1.0509  0.8506 -0.1548
  268MOL0     O36870   6.468   6.023   0.987 -0.8458 -0.5710  0.0105
  268MOL0     C36871   6.506   5.910   1.049  0.9642  0.0487 -0.2316
  268MOL0     C36872   6.582   5.819   0.975 -0.5042  0.8634 -0.0407
  268MOL0     C36873   6.646   5.714   1.038  0.4771 -0.6996 -1.1051
  268MOL0     C36874   6.725   5.621   0.952  0.5438  0.9775 -0.2007
  268MOL0     C36875   6.620   5.683   1.172  0.6170 -0.0616  0.3087
  268MOL0     C36876   6.681   5.565   1.248 -0.0580  0.2060  0.2843
  268MOL0     O36877   6.778   5.492   1.188 -0.1335 -0.3518  0.2463
  268MOL0     C36878   6.863   5.412   1.261  0.7158  0.0459  0.6054
  268MOL0     C36879   6.994   5.453   1.278 -0.0641 -0.2022  0.1920
  268MOL0     C36880   7.080   5.362   1.335  0.5404 -0.4850  0.2061
  268MOL0     C36881   7.045   5.235   1.382  0.2379 -0.6451 -0.1746
  268MOL0     O36882   7.130   5.147   1.438 -0.7251 -0.0866 -0.1263
  268MOL0     C36883   7.270   5.165   1.411 -0.1317  0.1063 -1.1543
  268MOL0     C36884   7.327   5.024   1.403  0.0032 -0.1868 -0.4698
  268MOL0     C36885   7.484   5.024   1.397 -0.2205  0.0183 -0.3070
  268MOL0     C36886   7.540   5.032   1.542 -0.6859  0.4208 -0.2159
  268MOL0     C36887   7.682   5.094   1.536 -0.0021  0.5824  0.1811
  268MOL0     C36888   7.740   5.100   1.679  0.2091  0.6343  0.2135
  268MOL0     C36889   7.880   5.154   1.684 -0.3987  0.2637 -0.2087
  268MOL0     C36890   7.978   5.031   1.675  0.1270 -0.4843  0.6564
  268MOL0    Cl36891   8.155   5.066   1.692  0.1299  0.1573  0.0400
  268MOL0     C36892   6.914   5.205   1.363 -0.4932  0.2642  0.1676
  268MOL0     C36893   6.825   5.289   1.303  0.3640  0.3057 -0.2323
  268MOL0     O36894   6.642   5.550   1.361  0.2709 -0.0396 -0.1870
  268MOL0     C36895   6.533   5.771   1.240 -0.7165  0.1847 -0.0078
  268MOL0     C36896   6.479   5.883   1.180 -0.1080  0.6154  0.1346
  268MOL0     N36897   5.844   6.334   0.842  0.2007 -0.1921  0.1883
  268MOL0     N36898   5.731   6.313   0.899  0.5143 -0.1493  0.0043
  268MOL0     C36899   4.935   6.609   1.715  0.3474  0.5194  0.2543
  268MOL0     C36900   4.927   6.740   1.765 -0.2079 -0.0635  0.6301
  268MOL0     C36901   4.938   7.106   1.999  0.5239 -0.4974 -0.3323
  268MOL0     C36902   4.937   7.207   1.892  0.3924 -0.0905  0.3836
  268MOL0     C36903   4.890   7.337   1.914  0.2436 -0.0263  0.3390
  268MOL0     C36904   4.862   7.380   2.035  0.2482  0.4468  0.2326
  268MOL0     O36905   4.819   7.511   2.058  0.2940 -0.0407 -0.9695
  268MOL0     C36906   4.782   7.592   1.950 -0.5542 -0.2045 -0.0765
  268MOL0     C36907   4.684   7.706   1.993 -0.5561  0.2829  0.8346
  268MOL0     C36908   4.552   7.646   2.043 -0.1080 -0.7501  0.3285
  268MOL0     C36909   4.463   7.751   2.091 -0.1395 -0.4414  0.4615
  268MOL0     C36910   4.339   7.681   2.144 -0.0097 -0.0152  0.2525
  268MOL0     C36911   4.243   7.635   2.198  0.4511  0.6275  0.6755
  268MOL0     C36912   4.875   7.290   2.142  0.3013  0.0596 -0.4333
  268MOL0     C36913   4.928   7.161   2.130  0.0085  0.4886  0.5609
  268MOL0     C36914   4.973   7.090   2.258 -0.0153 -0.0248 -0.2543
  268MOL0     H36915   5.250   6.811   1.806  0.2664 -0.6343  1.9407
  268MOL0     H36916   5.274   6.587   1.688  0.4048 -1.1343  2.1101
  268MOL0     H36917   5.183   6.340   1.812 -1.5197  2.9101 -0.2910
  268MOL0     H36918   5.277   6.381   1.670  0.7658 -1.0258  0.8874
  268MOL0     H36919   5.251   6.136   1.689  1.3919 -0.2300 -0.8001
  268MOL0     H36920   5.085   6.162   1.635 -1.1604  2.7416 -0.3932
  268MOL0     H36921   5.174   6.133   1.418 -0.5654  0.0148 -0.1823
  268MOL0     H36922   5.226   6.305   1.439  2.0883 -0.9965 -1.1348
  268MOL0     H36923   5.436   6.226   1.522 -2.1525 -0.4847  1.2474
  268MOL0     H36924   5.381   6.057   1.513  1.3157  0.8623  0.2465
  268MOL0     H36925   5.393   6.232   1.267 -0.1364 -0.4687 -0.0653
  268MOL0     H36926   5.377   6.054   1.286 -0.7740 -1.4106  3.0473
  268MOL0     H36927   5.617   6.213   1.394 -0.6956 -0.4921  0.4384
  268MOL0     H36928   5.611   6.041   1.370  1.6315  1.6651  2.6729
  268MOL0     H36929   5.618   6.076   1.129 -1.6141  2.1690 -0.9951
  268MOL0     H36930   5.758   6.135   1.220 -0.4357 -2.4899  2.7433
  268MOL0     H36931   5.541   6.298   1.078  0.1572  1.2889 -0.3189
  268MOL0     H36932   5.630   6.375   1.209 -0.7978 -0.0235  1.4037
  268MOL0     H36933   5.922   6.316   1.166 -0.8112  0.5885  0.4828
  268MOL0     H36934   6.128   6.435   0.967  1.4550 -0.2604 -0.1258
  268MOL0     H36935   6.120   6.327   0.828  1.3350 -1.2943  0.4850
  268MOL0     H36936   6.146   6.232   1.120 -0.6074 -1.1895  0.6366
  268MOL0     H36937   6.111   6.122   0.981 -0.4491 -0.2499  0.9863
  268MOL0     H36938   6.303   6.191   0.852 -2.2590  0.9839 -0.6673
  268MOL0     H36939   6.342   6.305   0.988 -0.6568 -0.0293 -0.4273
  268MOL0     H36940   6.380   6.123   1.139  0.1767  2.0837 -0.8822
  268MOL0     H36941   6.276   6.011   1.053 -0.8256  0.8200  1.0608
  268MOL0     H36942   6.603   5.860   0.877 -1.5542 -1.3523 -1.2619
  268MOL0     H36943   6.682   5.520   0.948  0.5819  0.9946 -1.9661
  268MOL0     H36944   6.829   5.615   0.986 -0.7072 -2.7417  3.8727
  268MOL0     H36945   6.717   5.649   0.846  0.0816  2.0633  0.1097
  268MOL0     H36946   7.029   5.542   1.227  0.9602 -0.9936 -0.5275
  268MOL0     H36947   7.177   5.409   1.331  0.7480 -0.7269  1.6989
  268MOL0     H36948   7.272   5.212   1.313  0.3827  0.8080 -0.8155
  268MOL0     H36949   7.329   5.220   1.485 -0.4242  1.1234 -1.6724
  268MOL0     H36950   7.290   4.963   1.486  1.3751 -0.5391 -0.0784
  268MOL0     H36951   7.287   4.975   1.315  0.7114  3.4392 -3.0315
  268MOL0     H36952   7.507   5.113   1.338 -2.9607  0.9541 -0.1469
  268MOL0     H36953   7.529   4.936   1.351  1.5730  0.6114  0.2613
  268MOL0     H36954   7.557   4.932   1.582 -2.5254  0.2737  0.2926
  268MOL0     H36955   7.484   5.095   1.611  0.0480 -0.1762  0.9576
  268MOL0     H36956   7.744   5.032   1.472  1.0955  0.6502  1.1503
  268MOL0     H36957   7.661   5.191   1.491 -2.7352  1.2139  2.5025
  268MOL0     H36958   7.735   5.005   1.732  1.9186  1.2212  1.5020
  268MOL0     H36959   7.675   5.170   1.733 -3.2039 -1.8252 -0.3540
  268MOL0     H36960   7.884   5.205   1.780 -0.8990  0.5673 -0.3447
  268MOL0     H36961   7.898   5.235   1.612 -0.2522  1.9142  1.6074
  268MOL0     H36962   7.974   4.985   1.575  1.9708  1.2657 -0.2915
  268MOL0     H36963   7.936   4.968   1.754 -4.1619  3.1077  1.6790
  268MOL0     H36964   6.880   5.107   1.395  0.4002  0.2261  1.0452
  268MOL0     H36965   6.720   5.264   1.288  0.6896 -1.1180 -0.2671
  268MOL0     H36966   6.509   5.753   1.344  1.5648  1.6116  0.8451
  268MOL0     H36967   6.407   5.937   1.240 -0.4498 -1.0187  1.2729
  268MOL0     H36968   4.845   6.552   1.692  1.4838 -0.6047 -1.6076
  268MOL0     H36969   4.830   6.788   1.773  0.4537  1.4705 -0.1035
  268MOL0     H36970   4.967   7.171   1.794 -2.2773 -2.6374  0.3662
  268MOL0     H36971   4.881   7.411   1.835 -2.1947 -0.3310  0.2457
  268MOL0     H36972   4.873   7.631   1.903  1.2968 -2.0094  1.8083
  268MOL0     H36973   4.721   7.530   1.883  0.4426 -1.0855 -0.2118
  268MOL0     H36974   4.655   7.761   1.903 -3.2152 -1.5101  0.4724
  268MOL0     H36975   4.729   7.773   2.067 -0.2224  0.6754  0.2870
  268MOL0     H36976   4.498   7.597   1.961 -0.6921  0.2481  0.0930
  268MOL0     H36977   4.572   7.583   2.130 -0.4012  1.4519  2.1017
  268MOL0     H36978   4.435   7.821   2.011  2.6543  1.0683  0.7082
  268MOL0     H36979   4.516   7.806   2.170  1.9240  0.5057 -1.4835
  268MOL0     H36980   4.157   7.603   2.253 -0.1447 -2.8486 -1.9807
  268MOL0     H36981   4.853   7.328   2.241 -2.1203 -1.8567 -0.1429
  268MOL0     H36982   4.887   7.040   2.304  0.7932 -0.7446  0.5137
  268MOL0     H36983   5.045   7.010   2.239 -0.6912 -0.3563 -1.4580
  268MOL0     H36984   5.019   7.161   2.328  3.5598 -1.2923 -1.1204
  269MOL0     O36985   9.763   4.880   3.708  0.5293 -0.3134 -0.6706
  269MOL0     C36986   9.712   4.873   3.593  0.1088 -0.3823 -0.4879
  269MOL0     O36987   9.766   4.833   3.484 -0.8315 -0.2544  0.2851
  269MOL0     C36988   9.899   4.799   3.475  0.1158  0.2965  0.2611
  269MOL0     C36989   9.941   4.699   3.386 -0.0369  0.2662 -0.5100
  269MOL0     C36990  10.079   4.673   3.370  0.7643  0.0289 -0.3459
  269MOL0     C36991  10.176   4.738   3.444 -0.1004 -1.5242  0.0808
  269MOL0     O36992  10.303   4.698   3.415 -0.1237  0.1522  0.7154
  269MOL0     C36993  10.401   4.749   3.510 -0.2479  0.7394  0.2713
  269MOL0     C36994  10.518   4.647   3.536 -0.4184 -0.3837  0.3718
  269MOL0     C36995  10.631   4.661   3.428 -0.6327  0.6352  0.7295
  269MOL0     C36996  10.738   4.763   3.471  1.2035  0.3969 -0.0077
  269MOL0     C36997  10.859   4.778   3.367  0.6426 -0.3271 -0.8617
  269MOL0     C36998  10.960   4.901   3.398  0.8164  0.5860 -0.3718
  269MOL0     C36999  10.987   4.920   3.547  0.1063  0.2939 -0.2213
  269MOL0     C37000  11.069   4.805   3.614 -0.0255 -0.1021 -0.1648
  269MOL0     N37001  11.207   4.814   3.573 -0.1804  0.0001  0.1913
  269MOL0     C37002  11.266   4.754   3.469  0.3615  0.4527 -0.3954
  269MOL0     C37003  11.397   4.790   3.468  0.2350  0.0093 -0.3516
  269MOL0     C37004  11.508   4.742   3.377  0.6402  0.0045 -0.4935
  269MOL0     C37005  11.604   4.841   3.322 -0.1056 -0.6106  0.7291
  269MOL0     C37006  11.697   4.769   3.224  0.3479  0.6769 -0.3094
  269MOL0     C37007  11.825   4.854   3.206 -0.2811  0.2301  0.2965
  269MOL0     O37008  11.894   4.792   3.092 -0.7758  0.0164 -0.6756
  269MOL0     C37009  12.018   4.842   3.073 -1.5372  0.4505 -0.8282
  269MOL0     C37010  12.092   4.776   2.981 -0.6706  0.0127 -0.1495
  269MOL0     C37011  12.227   4.804   2.974 -1.2608 -0.5407  0.7572
  269MOL0     C37012  12.304   4.717   2.872 -0.3781  0.3307  0.5357
  269MOL0     C37013  12.286   4.912   3.045 -0.3174 -0.2019  0.1909
  269MOL0     C37014  12.427   4.947   3.025 -0.0371  0.2659  0.3122
  269MOL0     O37015  12.462   5.063   3.094  0.3255 -0.2449  0.7240
  269MOL0     C37016  12.591   5.108   3.072 -0.1140  0.4965  0.2780
  269MOL0     C37017  12.633   5.180   2.960 -0.6810  0.3673 -1.0590
  269MOL0     C37018  12.768   5.217   2.950  0.2207  0.3050  0.6339
  269MOL0     C37019  12.866   5.173   3.045 -0.5000 -0.7594 -0.0700
  269MOL0     O37020  12.998   5.224   3.024 -0.1216  0.8089 -0.4480
  269MOL0     C37021  13.082   5.234   3.148  0.0863  0.1784 -0.0340
  269MOL0     C37022  13.155   5.103   3.175  0.6498 -0.2865 -0.3507
  269MOL0     C37023  13.233   5.094   3.306  0.0447 -0.1962  0.1831
  269MOL0     C37024  13.374   5.162   3.298  0.0607  0.4080  0.2155
  269MOL0     C37025  13.441   5.184   3.436 -0.3343 -1.1275 -0.1442
  269MOL0     C37026  13.582   5.246   3.416 -0.2297  0.0139 -0.0936
  269MOL0     C37027  13.631   5.307   3.553  0.1685 -0.9402  0.5722
  269MOL0     C37028  13.774   5.367   3.540 -0.1171 -0.3684 -0.7578
  269MOL0    Cl37029  13.902   5.247   3.552 -0.2670  0.0363 -0.3198
  269MOL0     C37030  12.818   5.100   3.153 -0.7317  0.7281  0.2389
  269MOL0     C37031  12.688   5.062   3.161 -0.0575  0.6403  0.4409
  269MOL0     O37032  12.511   4.876   2.967  0.2299  0.5177  0.2728
  269MOL0     C37033  12.211   4.985   3.138  0.1716 -0.4892 -0.1531
  269MOL0     C37034  12.081   4.944   3.159  0.6390  1.2609  0.2579
  269MOL0     N37035  11.411   4.894   3.561  0.1597 -0.4218  0.0412
  269MOL0     N37036  11.295   4.904   3.623 -0.6398  0.1408 -0.6456
  269MOL0     C37037  10.136   4.849   3.522  0.9367 -0.9638  0.3496
  269MOL0     C37038   9.998   4.869   3.539  0.5973 -0.0794 -0.5463
  269MOL0     C37039   9.560   4.897   3.582 -0.9112 -0.1370 -0.1241
  269MOL0     C37040   9.502   4.924   3.457 -0.0604  0.5331  0.7826
  269MOL0     C37041   9.366   4.943   3.442 -0.6599  0.4191 -0.6762
  269MOL0     C37042   9.280   4.912   3.542 -0.2854 -0.5470  0.1969
  269MOL0     O37043   9.148   4.909   3.525  0.6480 -0.2502  0.2859
  269MOL0     C37044   9.096   4.830   3.412 -0.6780  0.1962  0.2615
  269MOL0     C37045   9.026   4.705   3.462  0.4125 -0.6731 -0.3234
  269MOL0     C37046   8.914   4.728   3.558  0.1407 -0.3997  0.4483
  269MOL0     C37047   8.846   4.596   3.587  0.4892  0.0684  0.1285
  269MOL0     C37048   8.727   4.627   3.664  0.6374 -0.4885 -0.1640
  269MOL0     C37049   8.634   4.662   3.736  0.3951 -0.4862  0.6024
  269MOL0     C37050   9.338   4.895   3.669  0.0437  0.6349 -0.3588
  269MOL0     C37051   9.476   4.882   3.696 -0.6009  0.4119  0.7726
  269MOL0     C37052   9.517   4.843   3.840  0.4355 -0.3573  0.0427
  269MOL0     H37053   9.871   4.644   3.324 -1.6814  0.8293  0.7783
  269MOL0     H37054  10.115   4.601   3.297 -0.6488 -1.3316  0.2418
  269MOL0     H37055  10.349   4.770   3.604 -1.8070  0.7145 -0.5688
  269MOL0     H37056  10.444   4.846   3.485 -1.5023  1.3091  0.2572
  269MOL0     H37057  10.567   4.660   3.633  1.6016  2.8254 -0.9121
  269MOL0     H37058  10.482   4.543   3.536  0.0162 -0.5553 -1.4085
  269MOL0     H37059  10.678   4.566   3.401  2.5920  2.3309 -0.2125
  269MOL0     H37060  10.587   4.697   3.335  1.6462 -1.5544 -1.3488
  269MOL0     H37061  10.688   4.860   3.468 -2.6303 -1.3590 -3.7935
  269MOL0     H37062  10.787   4.751   3.568  1.9227  0.4329 -0.3652
  269MOL0     H37063  10.815   4.785   3.267 -1.8526  0.6295  0.2003
  269MOL0     H37064  10.915   4.685   3.376 -2.6229 -2.3015  0.7610
  269MOL0     H37065  11.050   4.899   3.336  0.6288  3.4678 -0.8680
  269MOL0     H37066  10.903   4.990   3.369  1.1723  1.1248  0.5671
  269MOL0     H37067  10.899   4.942   3.608 -0.3200 -1.8752 -0.0014
  269MOL0     H37068  11.051   5.009   3.558  1.1156 -0.1132 -2.3337
  269MOL0     H37069  11.062   4.833   3.719 -0.6585  0.4260 -0.3433
  269MOL0     H37070  11.029   4.705   3.593 -4.4241  1.4585 -0.2587
  269MOL0     H37071  11.226   4.672   3.410  1.4220 -1.8240  1.8424
  269MOL0     H37072  11.468   4.691   3.288 -0.7399 -3.1354  1.7359
  269MOL0     H37073  11.554   4.664   3.438  0.7482 -0.8030 -1.5746
  269MOL0     H37074  11.549   4.919   3.268  1.9572  0.1286 -0.4576
  269MOL0     H37075  11.662   4.893   3.399  1.4016  0.0160 -0.7468
  269MOL0     H37076  11.719   4.674   3.274  1.4004  0.9772 -0.1818
  269MOL0     H37077  11.645   4.742   3.132  0.6176 -1.4682  0.1206
  269MOL0     H37078  11.802   4.957   3.180  0.7872  1.4913  3.7340
  269MOL0     H37079  11.888   4.848   3.295  0.6890 -0.4959 -0.4148
  269MOL0     H37080  12.042   4.692   2.934 -2.5029  0.8386  0.2386
  269MOL0     H37081  12.307   4.764   2.773 -4.5290 -1.4529 -0.6603
  269MOL0     H37082  12.254   4.621   2.855 -0.6814  0.0858  2.5136
  269MOL0     H37083  12.397   4.681   2.916 -0.7240 -0.9731  0.2454
  269MOL0     H37084  12.562   5.213   2.885 -1.7132 -1.4976 -0.9425
  269MOL0     H37085  12.807   5.278   2.869  1.0796  0.4388  1.1376
  269MOL0     H37086  13.164   5.306   3.138 -0.2150  0.6386  0.7402
  269MOL0     H37087  13.018   5.251   3.235 -1.1258 -2.3113 -0.3389
  269MOL0     H37088  13.083   5.023   3.189  1.1398 -0.9532 -1.4717
  269MOL0     H37089  13.222   5.082   3.091  1.3082 -0.1348  0.1306
  269MOL0     H37090  13.249   4.991   3.340 -2.8486 -0.5070  0.8555
  269MOL0     H37091  13.182   5.145   3.388  1.0227 -1.2978  1.5215
  269MOL0     H37092  13.368   5.258   3.247 -0.3920 -0.2072 -0.9077
  269MOL0     H37093  13.433   5.095   3.236 -1.0636  1.7318 -2.4300
  269MOL0     H37094  13.385   5.248   3.505  0.4608 -2.6060  2.0007
  269MOL0     H37095  13.451   5.086   3.484 -0.9911 -1.7740 -1.3003
  269MOL0     H37096  13.586   5.330   3.346  0.9895 -1.0769 -1.3933
  269MOL0     H37097  13.654   5.179   3.368 -1.4761 -2.9594  1.8984
  269MOL0     H37098  13.648   5.234   3.633  0.6785 -1.9984 -0.4617
  269MOL0     H37099  13.561   5.389   3.574  0.5746 -0.8776  1.7515
  269MOL0     H37100  13.786   5.438   3.622 -0.3535 -1.0949 -0.0791
  269MOL0     H37101  13.784   5.423   3.447 -1.3310 -0.8744 -1.2048
  269MOL0     H37102  12.882   5.045   3.222 -1.4222  0.4398  0.6545
  269MOL0     H37103  12.646   5.010   3.246 -3.5706  0.9488 -0.9466
  269MOL0     H37104  12.257   5.061   3.199  1.2542 -0.5422 -0.8779
  269MOL0     H37105  12.025   5.005   3.228 -1.8808 -0.2755 -0.2978
  269MOL0     H37106  10.197   4.926   3.570  0.5087 -0.0438 -0.5484
  269MOL0     H37107   9.973   4.956   3.599  0.3534 -2.3563  2.8978
  269MOL0     H37108   9.554   4.941   3.363 -1.6323 -0.5542 -0.3155
  269MOL0     H37109   9.343   4.986   3.344  0.8082  2.8074 -0.0553
  269MOL0     H37110   9.034   4.901   3.356  0.0306  1.4050  0.9692
  269MOL0     H37111   9.176   4.801   3.342  0.6359  1.5479  1.1380
  269MOL0     H37112   9.094   4.629   3.499  0.4971  0.2543  1.5820
  269MOL0     H37113   8.981   4.661   3.373 -0.2101 -3.7760  1.3704
  269MOL0     H37114   8.945   4.783   3.648  0.8434 -1.9000  1.1640
  269MOL0     H37115   8.847   4.800   3.511  1.8632  1.2030  0.3145
  269MOL0     H37116   8.918   4.535   3.643 -0.6673 -1.0686  0.4207
  269MOL0     H37117   8.815   4.541   3.497  3.7928 -0.7318 -0.6720
  269MOL0     H37118   8.545   4.681   3.793  2.1064 -0.3231  3.4324
  269MOL0     H37119   9.266   4.871   3.747 -0.0461 -2.3669 -1.2149
  269MOL0     H37120   9.567   4.747   3.851 -1.4707 -1.2018  2.0712
  269MOL0     H37121   9.595   4.911   3.876  0.5765 -0.1547 -0.6315
  269MOL0     H37122   9.429   4.835   3.904 -1.7525  2.6957 -2.2878
  270MOL0     O37123   4.529  10.440   5.074 -0.3036 -0.3548  0.6835
  270MOL0     C37124   4.483  10.519   4.991 -0.9323  0.3225  0.1825
  270MOL0     O37125   4.547  10.558   4.881  0.3815  0.3091 -0.3815
  270MOL0     C37126   4.678  10.531   4.855  0.8382  0.7034  0.9131
  270MOL0     C37127   4.716  10.500   4.721 -0.7060  0.5602 -0.2688
  270MOL0     C37128   4.856  10.474   4.699 -0.4325 -0.2195 -0.4081
  270MOL0     C37129   4.946  10.494   4.796 -0.0084  0.2806  0.5825
  270MOL0     O37130   5.082  10.476   4.765  1.0778  0.1444 -0.6174
  270MOL0     C37131   5.135  10.376   4.677  0.7081 -0.5612  0.7765
  270MOL0     C37132   5.288  10.400   4.672  0.0443 -0.6073  0.7006
  270MOL0     C37133   5.336  10.542   4.612  0.1900 -0.7572  0.1725
  270MOL0     C37134   5.485  10.540   4.615 -0.3853  0.8255  0.2325
  270MOL0     C37135   5.544  10.675   4.557  0.3587 -0.2590  0.0340
  270MOL0     C37136   5.695  10.665   4.511  0.3698  0.7134 -0.4115
  270MOL0     C37137   5.731  10.773   4.415 -0.5703  0.0057  0.4044
  270MOL0     C37138   5.846  10.730   4.321  0.3504  0.2830  1.2587
  270MOL0     N37139   5.874  10.830   4.217 -0.7483 -0.1412  0.3020
  270MOL0     C37140   5.783  10.896   4.143 -1.3251 -0.4077  0.3312
  270MOL0     C37141   5.859  10.964   4.047  0.5269  1.1869  0.8026
  270MOL0     C37142   5.783  11.044   3.947 -0.1772 -0.1228 -0.3817
  270MOL0     C37143   5.868  11.055   3.822 -0.5223 -0.2347  1.1572
  270MOL0     C37144   5.951  11.183   3.833  0.1612 -0.5266  0.6902
  270MOL0     C37145   6.041  11.198   3.705  1.0152  1.0604 -0.7060
  270MOL0     O37146   6.147  11.095   3.707  0.3245  0.1183 -0.7306
  270MOL0     C37147   6.243  11.088   3.607 -0.4210  0.6709  0.4936
  270MOL0     C37148   6.241  11.175   3.495 -0.0317  0.1109  0.6078
  270MOL0     C37149   6.337  11.150   3.386  0.5754 -0.7261 -0.0124
  270MOL0     C37150   6.317  11.248   3.275 -0.7103 -0.8937  0.7221
  270MOL0     C37151   6.434  11.048   3.390  0.3355  0.1511 -0.7806
  270MOL0     C37152   6.520  11.003   3.279 -0.3144  0.3542  0.4389
  270MOL0     O37153   6.583  10.880   3.291 -0.5122  0.3825  0.1407
  270MOL0     C37154   6.668  10.853   3.183  0.4113 -0.5786  0.0084
  270MOL0     C37155   6.616  10.805   3.068 -0.0124 -0.8095  0.2788
  270MOL0     C37156   6.700  10.774   2.956  0.1965  0.8349  0.1413
  270MOL0     C37157   6.838  10.782   2.966 -0.0084  0.4347  0.6785
  270MOL0     O37158   6.926  10.740   2.867  0.0224 -0.4902 -0.0444
  270MOL0     C37159   6.898  10.756   2.730  0.1699  0.4225 -0.3894
  270MOL0     C37160   7.021  10.735   2.642 -0.0681 -0.2181 -0.4479
  270MOL0     C37161   7.147  10.680   2.698  0.3098 -0.1970 -0.2657
  270MOL0     C37162   7.271  10.738   2.622  0.5665  1.2837 -0.6858
  270MOL0     C37163   7.398  10.676   2.679 -0.8077 -0.3557  0.4292
  270MOL0     C37164   7.516  10.753   2.641 -0.3188  0.2899 -0.1510
  270MOL0     C37165   7.529  10.788   2.489 -0.4528 -0.7761  0.6279
  270MOL0     C37166   7.672  10.845   2.472  0.5144 -0.2778  0.3914
  270MOL0    Cl37167   7.693  11.020   2.538  0.1733 -0.1465 -0.2236
  270MOL0     C37168   6.893  10.822   3.092 -0.5721  0.1760 -0.4358
  270MOL0     C37169   6.809  10.869   3.197  0.4075  0.4956  0.4699
  270MOL0     O37170   6.515  11.072   3.169  0.4047  0.4195 -0.4669
  270MOL0     C37171   6.441  10.969   3.511  0.1734  0.0091  0.4441
  270MOL0     C37172   6.340  10.985   3.613  0.7031  0.0799 -0.1242
  270MOL0     N37173   5.988  10.941   4.076 -0.3038 -1.0265 -0.3572
  270MOL0     N37174   5.999  10.871   4.179 -0.0384  0.1152  0.3535
  270MOL0     C37175   4.908  10.546   4.924  0.0186  0.1389  0.6787
  270MOL0     C37176   4.779  10.543   4.951 -0.1906  0.3323 -0.2270
  270MOL0     C37177   4.349  10.574   5.008  0.1002  0.5048  0.6416
  270MOL0     C37178   4.309  10.679   4.924  0.8345 -0.2711 -0.5171
  270MOL0     C37179   4.190  10.748   4.933  0.8375  1.0689 -0.4462
  270MOL0     C37180   4.094  10.707   5.028 -0.2003 -0.4368 -0.2138
  270MOL0     O37181   3.965  10.751   5.026  0.1824  0.5216  0.1950
  270MOL0     C37182   3.934  10.861   4.938  0.9417 -0.1635  0.0368
  270MOL0     C37183   3.786  10.902   4.962  0.0621  0.1849  0.2358
  270MOL0     C37184   3.755  10.961   5.096 -0.4165  0.1836  0.5943
  270MOL0     C37185   3.622  11.020   5.098  0.2171 -0.2412 -0.5451
  270MOL0     C37186   3.507  10.931   5.061 -0.7308  0.1955 -0.0058
  270MOL0     C37187   3.428  10.845   5.024  0.4361  0.3070 -0.2165
  270MOL0     C37188   4.131  10.593   5.104  0.4916 -0.0853 -0.4863
  270MOL0     C37189   4.259  10.536   5.106  0.0713  0.0823 -0.0879
  270MOL0     C37190   4.277  10.432   5.206  0.2610  0.3814 -0.1182
  270MOL0     H37191   4.649  10.485   4.637 -1.9635 -3.3618  1.2222
  270MOL0     H37192   4.875  10.439   4.598  0.3525 -2.0823  0.3354
  270MOL0     H37193   5.094  10.378   4.576  0.5842  1.6697  0.8290
  270MOL0     H37194   5.114  10.275   4.714 -0.8075  0.2191  2.1609
  270MOL0     H37195   5.334  10.380   4.770 -0.3180  1.7511  1.4153
  270MOL0     H37196   5.317  10.312   4.615 -1.1560 -0.9932  0.6675
  270MOL0     H37197   5.288  10.558   4.516  0.6933 -0.6390 -0.0594
  270MOL0     H37198   5.311  10.626   4.678  1.0220 -0.0666 -0.3740
  270MOL0     H37199   5.514  10.539   4.720 -0.1438 -1.5429  0.1938
  270MOL0     H37200   5.524  10.455   4.557  1.0324  1.2107  0.5845
  270MOL0     H37201   5.545  10.749   4.638  1.2286  0.9282 -1.0162
  270MOL0     H37202   5.473  10.704   4.479  1.2116  1.6249 -0.1169
  270MOL0     H37203   5.764  10.666   4.596  0.6312  0.2260 -0.6163
  270MOL0     H37204   5.711  10.563   4.474  2.4182  1.0108 -0.4844
  270MOL0     H37205   5.779  10.852   4.474 -1.3155  1.9071 -1.4024
  270MOL0     H37206   5.639  10.800   4.362 -0.7639 -0.2763  0.5993
  270MOL0     H37207   5.935  10.700   4.376  0.7612 -0.0153  0.4592
  270MOL0     H37208   5.817  10.642   4.263 -0.2502  0.8910  0.6194
  270MOL0     H37209   5.675  10.895   4.143 -1.3713  0.8170 -1.2297
  270MOL0     H37210   5.768  11.142   3.994  0.5142 -0.1308 -0.1342
  270MOL0     H37211   5.686  10.998   3.930 -1.0749  1.4530  0.2572
  270MOL0     H37212   5.940  10.973   3.812  2.0257  2.0202 -0.4272
  270MOL0     H37213   5.812  11.043   3.729 -0.6372  1.6583  0.9567
  270MOL0     H37214   5.894  11.276   3.832  1.2033  0.1307  1.2592
  270MOL0     H37215   6.023  11.184   3.915  1.3794  0.4188 -0.3435
  270MOL0     H37216   5.976  11.196   3.616  1.1600  1.8540 -0.8341
  270MOL0     H37217   6.096  11.292   3.702  0.0128  1.6432 -2.1367
  270MOL0     H37218   6.162  11.249   3.486  0.0595  0.1146 -0.2322
  270MOL0     H37219   6.263  11.200   3.192  0.8997 -0.6412 -0.5364
  270MOL0     H37220   6.416  11.283   3.244 -1.0619 -0.3276  0.2180
  270MOL0     H37221   6.256  11.337   3.295  0.6363  0.7270 -1.8271
  270MOL0     H37222   6.508  10.798   3.070 -0.0464 -0.8457 -0.9526
  270MOL0     H37223   6.661  10.746   2.858 -0.2843 -2.1434  1.0764
  270MOL0     H37224   6.820  10.685   2.701 -0.6667  0.9304  0.5818
  270MOL0     H37225   6.858  10.856   2.708  1.0875  0.9932  0.4529
  270MOL0     H37226   6.992  10.679   2.552  1.3710  0.0680 -1.1176
  270MOL0     H37227   7.046  10.834   2.603  1.0874 -0.6651 -0.8967
  270MOL0     H37228   7.148  10.571   2.692 -1.9206 -0.3678  1.0301
  270MOL0     H37229   7.158  10.705   2.804 -2.8898  0.2162  0.0734
  270MOL0     H37230   7.278  10.842   2.657  1.9046  0.9698  0.0314
  270MOL0     H37231   7.256  10.728   2.514  0.0497  0.8300 -0.5776
  270MOL0     H37232   7.396  10.678   2.789  1.4117 -1.2568  0.5391
  270MOL0     H37233   7.401  10.570   2.655 -0.2534 -1.1293  3.4662
  270MOL0     H37234   7.592  10.682   2.673 -3.4614 -3.4503 -0.2887
  270MOL0     H37235   7.519  10.850   2.692  1.2537 -0.5548  1.4788
  270MOL0     H37236   7.452  10.859   2.459  2.4912  2.0146 -1.0386
  270MOL0     H37237   7.514  10.698   2.428 -1.8046  1.0072 -1.8172
  270MOL0     H37238   7.701  10.837   2.366 -1.0277  1.2529 -0.1996
  270MOL0     H37239   7.749  10.787   2.523  0.1973  1.3128  2.8161
  270MOL0     H37240   7.000  10.827   3.111 -0.3752 -2.4193 -0.5462
  270MOL0     H37241   6.840  10.913   3.292  0.9558  4.2066 -1.2446
  270MOL0     H37242   6.498  10.880   3.533  0.4234  0.3243  1.0937
  270MOL0     H37243   6.325  10.919   3.698 -4.0180  0.5447 -0.3623
  270MOL0     H37244   4.966  10.562   5.015 -0.5990 -2.5672  1.6447
  270MOL0     H37245   4.755  10.565   5.054  4.4274 -0.2900  1.2072
  270MOL0     H37246   4.381  10.712   4.850  3.4218 -2.6030  0.8066
  270MOL0     H37247   4.166  10.816   4.852 -1.2508  0.5860 -0.2779
  270MOL0     H37248   4.002  10.946   4.953  3.6232 -2.2695  0.6416
  270MOL0     H37249   3.958  10.829   4.836 -2.0267 -1.8274 -0.2336
  270MOL0     H37250   3.734  10.810   4.935 -1.3679  0.6902  1.1269
  270MOL0     H37251   3.759  10.978   4.888  0.9098  1.6604  1.3864
  270MOL0     H37252   3.767  10.900   5.186  0.9844 -0.2454  0.1388
  270MOL0     H37253   3.829  11.039   5.114  1.3660 -1.4158  0.4949
  270MOL0     H37254   3.615  11.116   5.046 -2.8824  0.6558  1.2445
  270MOL0     H37255   3.598  11.059   5.197  1.0152 -1.2913  0.0868
  270MOL0     H37256   3.348  10.776   5.003  0.5485 -0.6716  2.1780
  270MOL0     H37257   4.057  10.546   5.167  0.1196 -1.8406 -2.1418
  270MOL0     H37258   4.189  10.439   5.271 -1.4143  1.8325 -2.3444
  270MOL0     H37259   4.259  10.333   5.163  0.2425  0.2730  0.1387
  270MOL0     H37260   4.368  10.425   5.266 -1.0344 -2.1233  1.7561
  271MOL0     O37261   9.063   4.055   1.407  0.7610  1.5730  0.0793
  271MOL0     C37262   8.994   3.958   1.373 -0.5664  0.0611  0.1862
  271MOL0     O37263   9.027   3.834   1.408  0.1160 -0.5473  0.0565
  271MOL0     C37264   9.154   3.806   1.455 -0.1568 -0.0480  0.0744
  271MOL0     C37265   9.256   3.785   1.359  0.9061  0.1007 -0.1266
  271MOL0     C37266   9.387   3.759   1.415  0.5851  0.1808  0.5200
  271MOL0     C37267   9.418   3.756   1.551 -0.3516  0.3413  0.4619
  271MOL0     O37268   9.539   3.738   1.609  0.5948 -0.7904  0.1273
  271MOL0     C37269   9.653   3.717   1.527  0.6340  0.2880  0.7207
  271MOL0     C37270   9.767   3.663   1.612  0.2268  0.1418  0.5196
  271MOL0     C37271   9.738   3.527   1.691  0.1392  0.4369  0.6184
  271MOL0     C37272   9.863   3.480   1.770 -0.6228  0.1789  0.0324
  271MOL0     C37273   9.832   3.348   1.848 -0.4607 -0.1803  0.0545
  271MOL0     C37274   9.947   3.290   1.929  0.0208 -0.1106 -0.2925
  271MOL0     C37275  10.095   3.284   1.869 -0.5797 -1.4364  0.1789
  271MOL0     C37276  10.103   3.217   1.730 -0.3255  0.0620  0.0491
  271MOL0     N37277  10.241   3.223   1.674  0.1311  0.2511  0.2475
  271MOL0     C37278  10.365   3.208   1.745  0.4410 -0.0725 -0.3219
  271MOL0     C37279  10.455   3.193   1.644  0.0849 -0.3458  0.3360
  271MOL0     C37280  10.606   3.183   1.664 -0.1217  0.0367  0.4154
  271MOL0     C37281  10.641   3.052   1.739  0.0072  1.2018 -0.1610
  271MOL0     C37282  10.586   2.930   1.659  0.1552 -0.7098 -0.7898
  271MOL0     C37283  10.627   2.799   1.717  0.5312  0.8031 -0.0717
  271MOL0     O37284  10.765   2.776   1.727  0.4648 -0.1288 -0.7699
  271MOL0     C37285  10.838   2.737   1.624  0.7221 -0.0226  0.6974
  271MOL0     C37286  10.970   2.731   1.650 -0.5576  0.0787  0.4753
  271MOL0     C37287  11.063   2.717   1.545  0.4705 -0.3906  0.3399
  271MOL0     C37288  11.214   2.740   1.575 -0.0935  0.3418  0.1267
  271MOL0     C37289  11.015   2.692   1.415  0.7793  0.2536 -0.3826
  271MOL0     C37290  11.105   2.673   1.303 -0.8992 -0.6188  0.6082
  271MOL0     O37291  11.056   2.588   1.204 -0.5012 -0.3633  0.3352
  271MOL0     C37292  11.113   2.556   1.084  0.1341  0.0080 -0.1153
  271MOL0     C37293  11.246   2.582   1.034  0.8219  0.4483 -0.1905
  271MOL0     C37294  11.286   2.538   0.904 -0.1873 -0.0962 -0.1604
  271MOL0     C37295  11.211   2.446   0.833 -0.3903 -0.0499  0.2391
  271MOL0     O37296  11.257   2.401   0.713  0.0265 -0.5602  0.6490
  271MOL0     C37297  11.239   2.511   0.608  0.8935  0.2154 -0.0664
  271MOL0     C37298  11.122   2.490   0.507 -0.0265  0.2472 -0.7832
  271MOL0     C37299  11.113   2.349   0.456  1.0915 -0.3119 -0.2964
  271MOL0     C37300  11.229   2.322   0.356  0.3360  0.5168  0.1355
  271MOL0     C37301  11.186   2.204   0.268 -0.0763 -0.1412  0.9313
  271MOL0     C37302  11.289   2.189   0.164 -0.0300  0.1902  0.3768
  271MOL0     C37303  11.431   2.149   0.212  0.1636 -0.2284 -0.5947
  271MOL0     C37304  11.527   2.166   0.097  0.2709  0.6845 -0.3330
  271MOL0    Cl37305  11.537   2.331   0.034  0.1842  0.4877  0.1371
  271MOL0     C37306  11.092   2.413   0.881  0.5375 -0.9109 -0.6067
  271MOL0     C37307  11.040   2.469   0.998  0.6050  0.2275  0.2747
  271MOL0     O37308  11.193   2.755   1.287  0.6751  0.3057  0.5797
  271MOL0     C37309  10.876   2.676   1.397 -0.0738  0.0978  0.8842
  271MOL0     C37310  10.786   2.699   1.500 -0.4439 -0.4408  0.0549
  271MOL0     N37311  10.392   3.192   1.518 -0.6251 -0.1750 -0.3602
  271MOL0     N37312  10.264   3.209   1.538  0.9145  0.6022  0.2541
  271MOL0     C37313   9.312   3.774   1.636  0.4484  0.3072  0.3113
  271MOL0     C37314   9.184   3.801   1.587 -0.1391 -0.1303  0.2412
  271MOL0     C37315   8.853   3.981   1.324 -0.0427 -0.4841  0.0261
  271MOL0     C37316   8.778   4.097   1.357  0.6389 -0.0284 -0.6267
  271MOL0     C37317   8.652   4.114   1.298 -0.0352 -0.0165 -0.3692
  271MOL0     C37318   8.595   4.012   1.215  0.0731 -0.8853  0.2072
  271MOL0     O37319   8.475   4.046   1.159 -0.3752  0.5768 -0.0046
  271MOL0     C37320   8.453   4.014   1.021  0.7278  0.8302 -0.2673
  271MOL0     C37321   8.317   4.057   0.990  0.6787 -0.1546  0.5755
  271MOL0     C37322   8.281   4.054   0.837  0.0713  0.1026  0.3064
  271MOL0     C37323   8.156   4.144   0.810 -0.2705 -0.4075  0.2072
  271MOL0     C37324   8.113   4.120   0.670  0.1528 -0.0474  0.3929
  271MOL0     C37325   8.076   4.078   0.559  0.1896  1.3225 -1.0930
  271MOL0     C37326   8.672   3.898   1.193  0.7215  0.1846 -1.2715
  271MOL0     C37327   8.800   3.875   1.250  0.1615 -0.2647  0.2062
  271MOL0     C37328   8.864   3.744   1.203  0.5734  0.1811  0.3723
  271MOL0     H37329   9.239   3.789   1.252 -0.5195  1.3976  0.1096
  271MOL0     H37330   9.472   3.770   1.348 -0.0145  1.0715 -0.1330
  271MOL0     H37331   9.686   3.802   1.465  3.7299 -2.0485 -1.1662
  271MOL0     H37332   9.645   3.632   1.458  1.6600 -0.1017  1.0559
  271MOL0     H37333   9.842   3.654   1.533 -1.9129  0.8453 -1.7234
  271MOL0     H37334   9.792   3.741   1.684 -1.8085  1.6825 -0.3323
  271MOL0     H37335   9.660   3.547   1.766  1.2242  0.8931  1.6525
  271MOL0     H37336   9.719   3.443   1.624 -1.1542 -0.2384  1.7828
  271MOL0     H37337   9.944   3.466   1.698 -3.1257  1.5739 -3.3228
  271MOL0     H37338   9.892   3.557   1.843 -0.7880 -0.2104  0.5112
  271MOL0     H37339   9.803   3.274   1.773  0.1830  1.2838 -1.7112
  271MOL0     H37340   9.751   3.372   1.918  0.3116  0.2965  0.8117
  271MOL0     H37341   9.944   3.336   2.028 -2.7031 -0.5896 -0.0667
  271MOL0     H37342   9.938   3.182   1.942  0.7971  0.0400  1.8368
  271MOL0     H37343  10.163   3.232   1.937  1.0213  1.0188  0.5666
  271MOL0     H37344  10.135   3.384   1.854  0.1463 -1.5233  1.3898
  271MOL0     H37345  10.093   3.109   1.737  0.1911 -0.2473 -2.8833
  271MOL0     H37346  10.021   3.245   1.664  1.2262  0.5839 -1.7666
  271MOL0     H37347  10.384   3.224   1.850 -1.2681  1.9079 -0.2539
  271MOL0     H37348  10.642   3.275   1.710  0.1465 -0.1774  0.6414
  271MOL0     H37349  10.657   3.179   1.568  1.9001  2.4839  1.2827
  271MOL0     H37350  10.745   3.027   1.761 -0.9272 -3.0170  0.4430
  271MOL0     H37351  10.592   3.043   1.837  0.8939 -2.5572  0.0982
  271MOL0     H37352  10.477   2.935   1.653  0.0730 -0.9423  0.2304
  271MOL0     H37353  10.628   2.930   1.558  0.8310  1.7383 -0.5677
  271MOL0     H37354  10.585   2.798   1.818  0.1604  2.1518 -0.1875
  271MOL0     H37355  10.573   2.722   1.661  2.9670  0.1882 -1.7086
  271MOL0     H37356  10.993   2.749   1.754  1.7773  1.7391 -0.2427
  271MOL0     H37357  11.263   2.802   1.500  2.1837 -0.8371  0.5518
  271MOL0     H37358  11.263   2.642   1.574 -3.8357 -1.7366  1.0475
  271MOL0     H37359  11.234   2.784   1.674  2.4556  1.2326 -0.6979
  271MOL0     H37360  11.313   2.639   1.097  0.4012  2.2853 -1.3194
  271MOL0     H37361  11.379   2.571   0.859 -0.1403 -0.9269 -0.6888
  271MOL0     H37362  11.224   2.609   0.653 -0.4109  0.0347 -0.0602
  271MOL0     H37363  11.326   2.501   0.543  0.2772 -1.8408 -0.6704
  271MOL0     H37364  11.021   2.501   0.548  0.1885  0.6735 -0.3608
  271MOL0     H37365  11.133   2.557   0.422  2.3294  3.7498  1.9552
  271MOL0     H37366  11.018   2.337   0.403  1.2666  1.2442 -1.0036
  271MOL0     H37367  11.111   2.275   0.537  1.1918 -2.0587 -1.8130
  271MOL0     H37368  11.318   2.295   0.413 -0.7591 -3.1369  0.3557
  271MOL0     H37369  11.244   2.408   0.290 -1.1176  0.3755 -0.4092
  271MOL0     H37370  11.177   2.105   0.314 -1.2236 -3.4236 -5.3397
  271MOL0     H37371  11.088   2.221   0.225  0.6642  3.2569  0.3337
  271MOL0     H37372  11.290   2.282   0.106  0.3984  1.4907  2.3635
  271MOL0     H37373  11.243   2.112   0.102 -1.2048  1.0980  0.0812
  271MOL0     H37374  11.427   2.053   0.265  1.8192 -0.4868 -0.8977
  271MOL0     H37375  11.466   2.222   0.285 -1.8605 -0.9722  1.2472
  271MOL0     H37376  11.479   2.119   0.010 -3.0979 -0.0200  1.7117
  271MOL0     H37377  11.627   2.129   0.120  0.5668  1.6515 -0.0316
  271MOL0     H37378  11.027   2.351   0.819 -1.7064  0.5776  0.1359
  271MOL0     H37379  10.940   2.438   1.026  0.0489  2.0957  0.4819
  271MOL0     H37380  10.843   2.650   1.296 -2.4751 -3.9949  2.4394
  271MOL0     H37381  10.678   2.691   1.486 -0.6411  2.2829 -0.5324
  271MOL0     H37382   9.329   3.770   1.743 -0.4181  2.3440  0.5563
  271MOL0     H37383   9.099   3.821   1.652 -0.6706  0.3127 -0.5698
  271MOL0     H37384   8.824   4.171   1.421  1.2799  1.0261 -2.2599
  271MOL0     H37385   8.604   4.211   1.307  1.6883  0.8895 -0.5139
  271MOL0     H37386   8.527   4.073   0.965  1.2145  1.4898  1.0232
  271MOL0     H37387   8.474   3.909   1.002  1.8204  0.5003  2.3152
  271MOL0     H37388   8.305   4.158   1.030 -1.7807  0.2550 -1.0126
  271MOL0     H37389   8.241   3.993   1.036 -0.7437  1.0574 -0.0115
  271MOL0     H37390   8.355   4.094   0.766 -1.2750  1.2831 -0.4821
  271MOL0     H37391   8.259   3.953   0.803 -1.7402  0.1782  1.1704
  271MOL0     H37392   8.192   4.247   0.824 -0.5195 -0.1825 -0.7598
  271MOL0     H37393   8.078   4.143   0.888 -0.5387  1.0313 -0.0120
  271MOL0     H37394   8.031   4.044   0.468  0.4014 -1.9079 -0.1167
  271MOL0     H37395   8.639   3.827   1.119  1.2145 -1.3707 -0.0619
  271MOL0     H37396   8.837   3.729   1.098  1.1566  2.1317 -0.1118
  271MOL0     H37397   8.974   3.751   1.203  0.7845 -2.2959  1.3542
  271MOL0     H37398   8.827   3.657   1.257 -0.6380 -0.8197 -1.9522
  272MOL0     O37399   6.196   2.852  10.226  0.5137 -0.1274 -0.2672
  272MOL0     C37400   6.106   2.800  10.162 -0.0971 -0.4547 -0.1271
  272MOL0     O37401   6.123   2.725  10.050  0.7010 -0.3556  0.1361
  272MOL0     C37402   6.249   2.711   9.995  0.1224 -0.6699  0.3805
  272MOL0     C37403   6.301   2.585   9.996  0.0531 -0.7058 -0.7885
  272MOL0     C37404   6.427   2.563   9.944  0.9443 -1.0052  0.7128
  272MOL0     C37405   6.495   2.670   9.884 -0.5250  1.0276  0.1449
  272MOL0     O37406   6.611   2.630   9.825 -0.1236  0.2780 -0.7057
  272MOL0     C37407   6.712   2.722   9.786  0.2318  0.2063  0.7233
  272MOL0     C37408   6.793   2.751   9.917 -0.0107 -0.8023  0.1224
  272MOL0     C37409   6.928   2.800   9.882 -0.2942 -0.1386 -0.4474
  272MOL0     C37410   6.956   2.919   9.972  0.1207 -0.3613  1.0927
  272MOL0     C37411   7.108   2.960   9.974  0.1074  0.1347  0.7194
  272MOL0     C37412   7.186   2.866  10.066  1.4010  0.1999  1.0061
  272MOL0     C37413   7.332   2.906  10.076  0.6038  0.0354  0.7339
  272MOL0     C37414   7.405   2.791  10.124 -0.0690 -0.2790 -0.6055
  272MOL0     N37415   7.554   2.812  10.116  0.0797 -0.2507 -0.1693
  272MOL0     C37416   7.623   2.920  10.175 -0.1945  0.1564 -0.2521
  272MOL0     C37417   7.751   2.895  10.148  0.1158 -0.5772 -0.6975
  272MOL0     C37418   7.858   2.998  10.199 -0.1288  0.5605 -0.2817
  272MOL0     C37419   7.888   2.960  10.339 -0.3805 -0.1220  0.0949
  272MOL0     C37420   7.995   3.047  10.416 -0.3015  0.3285 -0.5160
  272MOL0     C37421   8.063   2.970  10.525  0.0505  0.0851  0.0808
  272MOL0     O37422   7.970   2.916  10.624  0.5969 -0.4088  0.0436
  272MOL0     C37423   8.016   2.805  10.687 -0.0882  0.4219  0.6925
  272MOL0     C37424   8.150   2.803  10.736 -0.0446 -0.2178 -0.0634
  272MOL0     C37425   8.199   2.688  10.800 -0.9447  0.7249  0.4823
  272MOL0     C37426   8.343   2.680  10.840  0.9761 -0.1696  0.4623
  272MOL0     C37427   8.115   2.573  10.834  0.1384 -0.8211  0.1011
  272MOL0     C37428   8.159   2.458  10.912 -0.1099 -0.4251  0.6642
  272MOL0     O37429   8.082   2.346  10.895 -0.6184 -0.1338  1.1275
  272MOL0     C37430   8.099   2.239  10.975  0.0925  0.1085  0.7042
  272MOL0     C37431   8.002   2.211  11.070  0.6933  0.8132 -0.2766
  272MOL0     C37432   8.001   2.087  11.142  1.0453  0.4261 -0.1702
  272MOL0     C37433   8.116   2.011  11.149 -1.0704 -0.0051  0.8142
  272MOL0     O37434   8.108   1.894  11.224  0.1575  0.4600 -0.3332
  272MOL0     C37435   8.214   1.800  11.207  0.2302 -0.1639  0.4819
  272MOL0     C37436   8.179   1.688  11.295  0.0149  0.7302  0.3352
  272MOL0     C37437   8.057   1.614  11.236  0.7415  0.1714 -0.3124
  272MOL0     C37438   8.029   1.481  11.314  0.4766 -0.1495 -0.5443
  272MOL0     C37439   7.892   1.439  11.255  0.0447  0.7049 -0.6966
  272MOL0     C37440   7.844   1.308  11.322  0.4653 -0.2240  0.5149
  272MOL0     C37441   7.720   1.249  11.264  0.6805  0.6774  0.4658
  272MOL0     C37442   7.676   1.115  11.318 -0.0237 -1.2331 -0.1539
  272MOL0    Cl37443   7.648   1.125  11.495  0.1916  0.0651 -0.1610
  272MOL0     C37444   8.226   2.050  11.070 -0.6268  0.2661 -0.0830
  272MOL0     C37445   8.217   2.161  10.979  0.2578 -0.0817 -0.4814
  272MOL0     O37446   8.245   2.472  10.997  0.3056 -0.1575  0.1614
  272MOL0     C37447   7.989   2.572  10.773 -0.0275 -0.0797  0.7154
  272MOL0     C37448   7.942   2.687  10.704 -0.6293 -0.1573 -0.1086
  272MOL0     N37449   7.766   2.792  10.063  0.4292  0.6226 -0.1872
  272MOL0     N37450   7.643   2.742  10.038 -0.0372 -0.8532 -0.4033
  272MOL0     C37451   6.431   2.797   9.872 -0.3598 -0.8039  0.4171
  272MOL0     C37452   6.303   2.813   9.917 -0.3790 -0.2550 -0.3723
  272MOL0     C37453   5.959   2.819  10.199  0.4019  0.7361 -1.4198
  272MOL0     C37454   5.859   2.798  10.103  0.2478  0.1302  0.6361
  272MOL0     C37455   5.726   2.808  10.135  0.6033 -0.6242 -0.2534
  272MOL0     C37456   5.678   2.853  10.257 -0.1137 -0.5097 -0.1318
  272MOL0     O37457   5.546   2.881  10.290 -1.2537 -0.6586 -0.3390
  272MOL0     C37458   5.433   2.825  10.212 -0.2104  0.8880  0.0981
  272MOL0     C37459   5.299   2.835  10.279 -0.3186 -0.0615 -0.0772
  272MOL0     C37460   5.300   2.758  10.416 -0.0050 -0.2455 -0.0525
  272MOL0     C37461   5.163   2.776  10.484 -0.0075 -0.4855  0.7809
  272MOL0     C37462   5.052   2.711  10.419  0.7214  0.3592 -0.2598
  272MOL0     C37463   4.973   2.643  10.358  0.6376  0.0108 -0.6811
  272MOL0     C37464   5.781   2.882  10.359  0.3707 -0.5850  0.3863
  272MOL0     C37465   5.918   2.861  10.331  0.2760 -0.6462  0.7586
  272MOL0     C37466   6.018   2.900  10.433  0.0968 -0.0434  0.2253
  272MOL0     H37467   6.258   2.498  10.045  0.6373  0.2294  1.4999
  272MOL0     H37468   6.469   2.463   9.948 -0.5931 -1.7666 -0.9149
  272MOL0     H37469   6.678   2.812   9.734  0.7477  0.9160  1.5962
  272MOL0     H37470   6.770   2.673   9.707 -0.1015  0.3730  0.3756
  272MOL0     H37471   6.742   2.827   9.977 -1.4248  0.0153 -1.9925
  272MOL0     H37472   6.813   2.659   9.973  0.6420 -0.8183 -0.1247
  272MOL0     H37473   6.997   2.719   9.905 -2.6774 -2.1947 -0.1241
  272MOL0     H37474   6.941   2.818   9.775 -1.3718 -4.9408 -1.6450
  272MOL0     H37475   6.897   3.006   9.940  0.6263 -0.7288 -0.9980
  272MOL0     H37476   6.926   2.898  10.075  0.7784 -1.5339  1.0568
  272MOL0     H37477   7.098   3.054  10.029 -0.3826  1.1070 -0.9345
  272MOL0     H37478   7.153   2.978   9.876 -1.0291 -2.1122 -0.2872
  272MOL0     H37479   7.141   2.878  10.165  0.1100  3.0176  0.1814
  272MOL0     H37480   7.168   2.764  10.029 -0.2678  0.7710  0.1484
  272MOL0     H37481   7.340   2.993  10.142  2.1858 -0.5810  1.4120
  272MOL0     H37482   7.369   2.936   9.978  3.5837 -0.0912  1.7433
  272MOL0     H37483   7.379   2.771  10.229 -1.4381 -0.9664 -1.0529
  272MOL0     H37484   7.388   2.702  10.062 -1.5815  0.2452 -0.9770
  272MOL0     H37485   7.588   3.002  10.237 -0.1697 -1.3349  1.8580
  272MOL0     H37486   7.820   3.101  10.195 -0.5087  0.4901  1.0704
  272MOL0     H37487   7.950   2.995  10.139 -0.8959  0.1138 -1.4903
  272MOL0     H37488   7.795   2.961  10.396  0.4546 -0.8078  1.5206
  272MOL0     H37489   7.939   2.864  10.341 -0.7958 -0.3406  0.3514
  272MOL0     H37490   8.069   3.085  10.344 -1.5248 -0.2416 -2.1422
  272MOL0     H37491   7.950   3.137  10.459  0.4985  0.4965 -0.0293
  272MOL0     H37492   8.110   2.882  10.481  1.3989  1.1407 -0.6528
  272MOL0     H37493   8.149   3.019  10.569  1.0918 -1.1625 -0.4961
  272MOL0     H37494   8.216   2.889  10.742  1.1371 -1.1510  0.7482
  272MOL0     H37495   8.359   2.722  10.940  2.0879 -0.0262  0.2381
  272MOL0     H37496   8.403   2.734  10.767 -2.0011 -0.4693 -2.4434
  272MOL0     H37497   8.371   2.575  10.831 -1.0163 -0.7831  0.9367
  272MOL0     H37498   7.916   2.278  11.067  1.6709  2.4619  3.0526
  272MOL0     H37499   7.910   2.050  11.189  0.0725  0.4241 -1.9669
  272MOL0     H37500   8.213   1.771  11.101 -2.3827 -1.2073  0.7177
  272MOL0     H37501   8.311   1.843  11.236  0.8598 -0.2760 -1.3244
  272MOL0     H37502   8.269   1.627  11.297 -0.3914  0.1457  1.2739
  272MOL0     H37503   8.158   1.713  11.400  0.1485 -1.5040  0.9381
  272MOL0     H37504   8.079   1.595  11.130  1.2621 -0.0343 -0.1726
  272MOL0     H37505   7.974   1.685  11.230  0.4248 -0.1262  0.4476
  272MOL0     H37506   8.018   1.506  11.420 -1.2937 -0.3826 -0.6316
  272MOL0     H37507   8.101   1.402  11.289  0.4205  1.1122 -5.6284
  272MOL0     H37508   7.822   1.519  11.279 -1.6589 -0.0460 -2.8090
  272MOL0     H37509   7.908   1.431  11.147  1.8884  1.9888 -0.5641
  272MOL0     H37510   7.817   1.333  11.425  1.9431 -3.2710  1.7935
  272MOL0     H37511   7.929   1.239  11.325  0.2980 -0.6283 -1.9240
  272MOL0     H37512   7.753   1.219  11.164  3.2796 -2.7428  2.1523
  272MOL0     H37513   7.644   1.328  11.265  0.5172  0.5163  0.9549
  272MOL0     H37514   7.752   1.038  11.300  0.2197 -0.6324 -1.8275
  272MOL0     H37515   7.580   1.099  11.267 -1.2023  0.2009  1.5291
  272MOL0     H37516   8.316   1.991  11.082 -1.2350 -0.3820  1.7652
  272MOL0     H37517   8.308   2.183  10.923 -1.4055 -1.1003 -3.8594
  272MOL0     H37518   7.912   2.503  10.804 -0.1863  0.1241  0.7713
  272MOL0     H37519   7.842   2.680  10.664 -0.3238 -0.5864 -0.8351
  272MOL0     H37520   6.478   2.879   9.818 -1.1496  2.1298  3.7656
  272MOL0     H37521   6.248   2.907   9.907 -0.2487  0.0760  1.6250
  272MOL0     H37522   5.876   2.763  10.002 -3.1490  0.6665 -0.2462
  272MOL0     H37523   5.648   2.786  10.063 -0.4207  2.4437 -0.2242
  272MOL0     H37524   5.436   2.888  10.123  1.1620 -1.0406 -1.3201
  272MOL0     H37525   5.440   2.725  10.167 -3.4843  0.5347  0.1658
  272MOL0     H37526   5.208   2.806  10.225 -3.3306 -1.2343  4.9244
  272MOL0     H37527   5.287   2.942  10.299  0.5507  0.0316 -0.0326
  272MOL0     H37528   5.318   2.651  10.401  0.6052 -0.2060  0.3815
  272MOL0     H37529   5.378   2.790  10.485 -0.8693  1.2285  0.2851
  272MOL0     H37530   5.145   2.884  10.483 -0.8548 -0.5897 -2.0551
  272MOL0     H37531   5.171   2.750  10.590  1.2407  1.3908  1.2010
  272MOL0     H37532   4.914   2.571  10.304 -2.7911  1.6274  0.5926
  272MOL0     H37533   5.749   2.931  10.450  3.6647  1.2421  0.6985
  272MOL0     H37534   6.084   2.814  10.452  0.2261  0.2651  1.2235
  272MOL0     H37535   6.074   2.984  10.390  2.0450 -0.8118  1.1293
  272MOL0     H37536   5.977   2.923  10.532  0.9557 -0.9082  0.7974
  273MOL0     O37537   4.953   9.623  10.361  1.1154 -0.4341  0.2406
  273MOL0     C37538   5.013   9.603  10.470 -0.3057  0.3698 -0.8114
  273MOL0     O37539   4.992   9.497  10.554 -0.0440  0.4170 -0.2135
  273MOL0     C37540   4.892   9.408  10.539  0.6658 -0.5649 -0.1758
  273MOL0     C37541   4.852   9.343  10.656  1.4825 -0.3336  0.0936
  273MOL0     C37542   4.739   9.255  10.643 -0.1118  0.3663 -0.0450
  273MOL0     C37543   4.671   9.229  10.524  0.5013 -0.4374 -0.6468
  273MOL0     O37544   4.558   9.139  10.529  0.1518  0.3263  0.2020
  273MOL0     C37545   4.528   9.063  10.407  0.1185 -0.1113  0.1070
  273MOL0     C37546   4.419   8.969  10.441 -0.1955 -0.2086  0.7763
  273MOL0     C37547   4.386   8.882  10.320 -0.0141 -0.4793  0.6949
  273MOL0     C37548   4.266   8.790  10.342 -0.1038 -0.6727 -0.2746
  273MOL0     C37549   4.228   8.715  10.217 -0.2908 -0.4236 -0.3860
  273MOL0     C37550   4.319   8.600  10.178  0.5481 -0.6888 -1.0557
  273MOL0     C37551   4.390   8.530  10.305 -0.3182 -0.6432 -0.4791
  273MOL0     C37552   4.469   8.399  10.267 -0.3603  1.1454  0.4027
  273MOL0     N37553   4.573   8.405  10.169  0.0262  0.1764 -0.0336
  273MOL0     C37554   4.585   8.332  10.054  0.5111 -0.1511 -0.8640
  273MOL0     C37555   4.711   8.333  10.019  0.1928 -0.1773  0.1937
  273MOL0     C37556   4.770   8.253   9.903 -0.4025  0.3394  0.5873
  273MOL0     C37557   4.818   8.113   9.944  0.4380 -0.1913 -0.1934
  273MOL0     C37558   4.954   8.117  10.016 -0.2797  0.0630 -0.2243
  273MOL0     C37559   4.998   7.972  10.055  0.2769  0.9967  0.3715
  273MOL0     O37560   5.130   7.972  10.113 -0.2488 -0.7679  0.2558
  273MOL0     C37561   5.235   7.977  10.029 -1.0464 -0.1485  0.2978
  273MOL0     C37562   5.226   7.997   9.885 -0.9303  0.1050  0.0593
  273MOL0     C37563   5.347   8.005   9.803 -0.4176  0.0375 -0.6447
  273MOL0     C37564   5.340   8.017   9.657 -0.6691 -0.0572  0.8210
  273MOL0     C37565   5.471   8.010   9.873  0.1835 -0.7935  0.1136
  273MOL0     C37566   5.607   8.012   9.798 -0.2770  0.0048 -0.0448
  273MOL0     O37567   5.719   7.959   9.864 -0.3577  0.2231  0.0099
  273MOL0     C37568   5.831   7.943   9.778  0.4161  0.0406  0.5954
  273MOL0     C37569   5.837   7.853   9.671 -0.5247  0.4597 -0.4993
  273MOL0     C37570   5.956   7.840   9.593  0.0525  0.2198 -0.2602
  273MOL0     C37571   6.068   7.908   9.630  0.2179 -0.1423  0.4002
  273MOL0     O37572   6.194   7.893   9.576  0.1475  0.0611 -0.3194
  273MOL0     C37573   6.219   7.801   9.476 -0.2562  0.3878  0.6274
  273MOL0     C37574   6.361   7.788   9.415 -0.0543 -0.9255  0.1884
  273MOL0     C37575   6.385   7.906   9.316  0.0639 -0.6858 -0.0238
  273MOL0     C37576   6.542   7.902   9.280  0.8549  0.4338  0.3694
  273MOL0     C37577   6.583   8.014   9.189 -0.7096 -0.1385 -0.6963
  273MOL0     C37578   6.542   7.976   9.043 -0.4420 -0.3388 -0.1000
  273MOL0     C37579   6.606   8.069   8.938  0.3919  0.1273 -0.2739
  273MOL0     C37580   6.545   8.209   8.949 -0.2277 -0.1332  0.3193
  273MOL0    Cl37581   6.582   8.298   9.093  0.3712  0.2249 -0.4663
  273MOL0     C37582   6.069   7.995   9.745  0.3537 -0.6107  0.2348
  273MOL0     C37583   5.944   8.013   9.810  0.7448 -0.0743 -0.4429
  273MOL0     O37584   5.611   8.061   9.687  0.1144  0.0961 -0.0145
  273MOL0     C37585   5.475   7.989  10.012  0.0455  0.6187  0.2220
  273MOL0     C37586   5.361   7.971  10.089 -0.6694 -0.3535 -0.5211
  273MOL0     N37587   4.784   8.399  10.108 -0.2437  0.3628 -1.5425
  273MOL0     N37588   4.697   8.442  10.201  0.0821 -0.5956 -0.3855
  273MOL0     C37589   4.714   9.303  10.410  0.0077  0.4502 -0.8562
  273MOL0     C37590   4.831   9.374  10.417 -0.2086 -0.4887 -0.2943
  273MOL0     C37591   5.113   9.695  10.511 -0.3936 -0.8129 -0.0225
  273MOL0     C37592   5.122   9.807  10.422 -0.0052 -0.1696 -0.8179
  273MOL0     C37593   5.224   9.908  10.449  0.1262  0.3508  0.1758
  273MOL0     C37594   5.311   9.909  10.560 -0.2762 -0.1911 -0.0773
  273MOL0     O37595   5.420   9.996  10.588  0.6843  0.5023  0.2556
  273MOL0     C37596   5.474  10.071  10.482 -0.1162 -0.0703 -0.6467
  273MOL0     C37597   5.514  10.202  10.541  0.2593 -0.0518  0.4107
  273MOL0     C37598   5.565  10.306  10.441 -0.3667 -0.3961  0.5667
  273MOL0     C37599   5.690  10.276  10.380 -0.9987 -0.7170 -0.5307
  273MOL0     C37600   5.727  10.382  10.284  0.0263  0.1217 -0.4132
  273MOL0     C37601   5.763  10.463  10.200 -0.2025  0.3355 -0.0622
  273MOL0     C37602   5.293   9.805  10.652 -0.4623  0.5338  0.6432
  273MOL0     C37603   5.199   9.697  10.622  0.1783  0.2934 -0.3235
  273MOL0     C37604   5.192   9.585  10.725 -0.7060 -0.6172 -0.5802
  273MOL0     H37605   4.881   9.381  10.753 -1.6944  2.6409  0.0364
  273MOL0     H37606   4.701   9.196  10.726 -2.8321 -1.5294 -2.4634
  273MOL0     H37607   4.611   9.002  10.371 -1.8719 -1.5487 -2.3582
  273MOL0     H37608   4.499   9.130  10.325 -0.4147 -0.5905 -0.1002
  273MOL0     H37609   4.443   8.903  10.525 -0.7111  0.2328  1.2724
  273MOL0     H37610   4.328   9.020  10.472 -1.1947 -0.9086 -0.8841
  273MOL0     H37611   4.355   8.937  10.230 -0.5398 -5.6439 -2.6793
  273MOL0     H37612   4.473   8.817  10.307  1.3194  0.9606  2.0132
  273MOL0     H37613   4.277   8.722  10.427 -0.6901 -0.3518  0.0633
  273MOL0     H37614   4.180   8.850  10.372  1.7763  1.4559  1.2038
  273MOL0     H37615   4.225   8.791  10.139  4.3179  1.2946  0.7837
  273MOL0     H37616   4.129   8.669  10.224 -0.3042 -0.8777 -2.8501
  273MOL0     H37617   4.256   8.525  10.130 -1.5779  0.6100 -0.4399
  273MOL0     H37618   4.398   8.639  10.113  1.5966 -0.7183  0.1661
  273MOL0     H37619   4.311   8.507  10.377  0.5088  0.9076  1.0142
  273MOL0     H37620   4.460   8.599  10.354  0.0892 -1.3571 -0.0402
  273MOL0     H37621   4.522   8.345  10.346 -1.2606 -2.9564 -1.4890
  273MOL0     H37622   4.399   8.321  10.236 -2.0013  3.7514 -3.1704
  273MOL0     H37623   4.509   8.266  10.014 -0.5479  0.6604 -0.2416
  273MOL0     H37624   4.851   8.310   9.857 -1.4072 -0.3605 -2.2655
  273MOL0     H37625   4.693   8.248   9.826  0.3951  0.8356 -0.2641
  273MOL0     H37626   4.745   8.069  10.013  2.1153  0.9370  2.4306
  273MOL0     H37627   4.837   8.039   9.866 -0.9589 -1.4522  0.6051
  273MOL0     H37628   5.038   8.159   9.960  0.6457 -1.4381 -0.0404
  273MOL0     H37629   4.942   8.175  10.108 -3.1034  2.6882 -2.0342
  273MOL0     H37630   4.931   7.939  10.135  1.0436 -3.8578 -0.6702
  273MOL0     H37631   4.986   7.897   9.977  0.7825  1.3172 -0.0184
  273MOL0     H37632   5.127   8.009   9.842 -0.1425  3.1380 -1.1927
  273MOL0     H37633   5.394   8.106   9.623  0.3783 -0.5511  1.1427
  273MOL0     H37634   5.236   8.031   9.628 -0.2911 -1.0918 -1.2156
  273MOL0     H37635   5.376   7.925   9.609 -0.0814  0.2346  0.6950
  273MOL0     H37636   5.756   7.782   9.653  0.6282 -0.5043 -2.1494
  273MOL0     H37637   5.958   7.767   9.513  0.5335 -0.9140  0.7547
  273MOL0     H37638   6.178   7.704   9.506  0.1997 -0.0681 -0.1525
  273MOL0     H37639   6.155   7.840   9.396  1.2247  3.0157  0.6235
  273MOL0     H37640   6.436   7.793   9.494  0.1300 -0.9427  0.0156
  273MOL0     H37641   6.371   7.692   9.362  2.8431  0.0894 -1.2922
  273MOL0     H37642   6.371   7.997   9.374 -3.0765 -0.7258 -0.5697
  273MOL0     H37643   6.316   7.921   9.233 -0.6467  1.4450  0.8778
  273MOL0     H37644   6.556   7.806   9.231 -0.7829 -1.2698  3.0284
  273MOL0     H37645   6.607   7.899   9.368  1.1347  2.5741  0.3051
  273MOL0     H37646   6.518   8.096   9.223 -1.8826 -1.3195  0.0165
  273MOL0     H37647   6.689   8.040   9.198 -0.7504 -0.0286 -0.5239
  273MOL0     H37648   6.433   7.973   9.042 -0.5098 -0.1180  1.7718
  273MOL0     H37649   6.592   7.883   9.016 -0.1497  0.0721 -1.0080
  273MOL0     H37650   6.596   8.034   8.835 -1.0214  0.6354 -0.3334
  273MOL0     H37651   6.714   8.068   8.957  0.3885 -1.3006 -0.2082
  273MOL0     H37652   6.437   8.194   8.944 -0.4626  1.0206  1.4047
  273MOL0     H37653   6.559   8.265   8.856 -0.8591 -1.8604 -0.8729
  273MOL0     H37654   6.154   8.050   9.783 -0.7465  0.9846  0.5209
  273MOL0     H37655   5.940   8.075   9.899 -1.4732 -1.5718  0.5896
  273MOL0     H37656   5.572   7.984  10.061 -1.4766 -0.3220  3.4123
  273MOL0     H37657   5.362   7.945  10.194 -1.6022 -0.6975 -0.5861
  273MOL0     H37658   4.670   9.292  10.312  0.6212 -3.1639 -0.8335
  273MOL0     H37659   4.874   9.416  10.326 -0.4989  1.3923  0.3797
  273MOL0     H37660   5.057   9.824  10.336 -0.3886 -0.1533 -0.5308
  273MOL0     H37661   5.232   9.985  10.373 -1.0175  0.7340  0.4144
  273MOL0     H37662   5.561  10.018  10.444  0.4437 -1.2245  2.0023
  273MOL0     H37663   5.399  10.093  10.405 -0.9666 -0.9467 -0.0920
  273MOL0     H37664   5.585  10.178  10.621 -0.2020 -0.0284  0.8297
  273MOL0     H37665   5.430  10.239  10.600  0.1804 -1.9361  1.5644
  273MOL0     H37666   5.490  10.318  10.362 -0.8742 -1.5719  0.8513
  273MOL0     H37667   5.577  10.403  10.491  1.4622 -0.3530  0.1112
  273MOL0     H37668   5.688  10.183  10.324 -1.5319 -0.0401 -1.6724
  273MOL0     H37669   5.765  10.281  10.460 -0.8063  3.0670 -0.7299
  273MOL0     H37670   5.811  10.521  10.123 -1.2039  0.1119 -0.8638
  273MOL0     H37671   5.354   9.795  10.741  1.3436  1.3636 -0.4436
  273MOL0     H37672   5.255   9.607  10.812 -0.7529 -1.3575 -0.3519
  273MOL0     H37673   5.087   9.575  10.754 -0.2044 -3.8460  0.5242
  273MOL0     H37674   5.245   9.499  10.681  2.7252  0.8201  0.3746
  274MOL0     O37675  11.302   4.542   3.172 -0.0256 -0.8547  0.3619
  274MOL0     C37676  11.270   4.497   3.064  0.0813 -0.2343 -0.5465
  274MOL0     O37677  11.343   4.422   2.976 -0.0393 -0.1782  0.3810
  274MOL0     C37678  11.475   4.396   3.014  0.3356 -0.1540  0.2414
  274MOL0     C37679  11.523   4.265   3.013  0.5699 -0.3294 -0.0276
  274MOL0     C37680  11.660   4.237   3.023  0.0900  0.2792  0.0580
  274MOL0     C37681  11.753   4.333   3.026 -0.0928 -0.9938 -0.0139
  274MOL0     O37682  11.880   4.289   3.019 -0.3885 -0.1538 -0.1974
  274MOL0     C37683  11.984   4.380   3.047 -0.1582 -0.2434  0.8402
  274MOL0     C37684  12.123   4.315   3.013 -0.1581  0.6033 -0.5310
  274MOL0     C37685  12.248   4.388   3.065  0.8910 -0.1416 -0.1006
  274MOL0     C37686  12.264   4.375   3.216  0.1767  0.5345  0.3792
  274MOL0     C37687  12.390   4.452   3.259  0.5608 -0.1761 -0.9348
  274MOL0     C37688  12.423   4.394   3.396  0.6808  0.3180  0.7352
  274MOL0     C37689  12.544   4.478   3.448  0.0077  0.0403  0.3021
  274MOL0     C37690  12.589   4.446   3.596 -0.5231 -0.3894 -0.0397
  274MOL0     N37691  12.516   4.544   3.690 -0.0190 -0.3376 -0.5090
  274MOL0     C37692  12.418   4.502   3.780  0.8663 -0.7395 -0.0143
  274MOL0     C37693  12.396   4.614   3.859  0.0828 -0.4711  0.8464
  274MOL0     C37694  12.312   4.605   3.974  0.9339 -0.0923  0.0079
  274MOL0     C37695  12.236   4.734   4.009 -1.0536 -1.1203  0.8806
  274MOL0     C37696  12.199   4.750   4.158  0.4807 -0.5093  0.2067
  274MOL0     C37697  12.085   4.859   4.166 -0.5023 -0.9294 -0.1703
  274MOL0     O37698  11.966   4.804   4.100 -0.2308 -0.4764 -0.0499
  274MOL0     C37699  11.853   4.881   4.101 -0.3310  0.3345 -0.1869
  274MOL0     C37700  11.746   4.847   4.024  0.8366 -0.2297  0.8731
  274MOL0     C37701  11.635   4.925   4.012 -0.8503  0.2103  0.3316
  274MOL0     C37702  11.545   4.871   3.900 -0.0520  0.0921 -0.2580
  274MOL0     C37703  11.612   5.043   4.099 -0.1011  0.5834 -0.1883
  274MOL0     C37704  11.488   5.119   4.105 -0.4023 -0.0780  0.8561
  274MOL0     O37705  11.386   5.076   4.028 -0.3633  0.5608 -0.6361
  274MOL0     C37706  11.264   5.138   4.040 -0.1012  0.0919 -1.6699
  274MOL0     C37707  11.203   5.143   4.166  0.2451 -0.4729 -0.4689
  274MOL0     C37708  11.078   5.203   4.178 -0.3026  0.4296 -0.2757
  274MOL0     C37709  11.017   5.277   4.077 -0.6195  0.1583  0.2300
  274MOL0     O37710  10.901   5.332   4.104 -0.2499 -0.4602  0.2905
  274MOL0     C37711  10.846   5.441   4.021  0.2000 -0.2045 -0.6024
  274MOL0     C37712  10.714   5.490   4.086 -0.2004 -0.6679 -1.1835
  274MOL0     C37713  10.642   5.593   3.995 -0.3223 -0.8494 -0.1308
  274MOL0     C37714  10.515   5.644   4.071 -0.6915  0.6774  0.0788
  274MOL0     C37715  10.425   5.731   3.988 -0.6122  0.6641 -0.1199
  274MOL0     C37716  10.349   5.640   3.887 -0.0551  0.1095  0.0381
  274MOL0     C37717  10.271   5.727   3.784 -0.5390 -0.1526 -0.0395
  274MOL0     C37718  10.183   5.636   3.698 -0.5697  0.0664  0.4828
  274MOL0    Cl37719  10.121   5.724   3.556  0.3001 -0.2710 -0.0472
  274MOL0     C37720  11.084   5.269   3.951  0.0742  0.0304  0.4904
  274MOL0     C37721  11.207   5.202   3.932  0.4889 -0.1609  0.0347
  274MOL0     O37722  11.486   5.231   4.163 -0.4261  0.1882 -0.5195
  274MOL0     C37723  11.718   5.072   4.179 -0.3603  0.7857 -1.0919
  274MOL0     C37724  11.840   4.997   4.181  0.0261  0.7119  0.4090
  274MOL0     N37725  12.472   4.715   3.821 -0.7469 -0.0725  0.7227
  274MOL0     N37726  12.557   4.664   3.734  0.3238  0.1475 -0.3900
  274MOL0     C37727  11.713   4.472   3.035 -0.6353 -0.6334 -0.3020
  274MOL0     C37728  11.574   4.500   3.025 -0.3205  0.4026 -0.1584
  274MOL0     C37729  11.133   4.537   3.024 -0.1281  0.4489 -0.6331
  274MOL0     C37730  11.026   4.523   3.119 -0.7741  0.1965 -0.7623
  274MOL0     C37731  10.892   4.547   3.084 -0.5217 -0.0002 -0.0471
  274MOL0     C37732  10.860   4.614   2.965  0.7498 -0.0897 -0.5509
  274MOL0     O37733  10.733   4.662   2.932  0.5415 -0.3278 -0.2398
  274MOL0     C37734  10.632   4.644   3.036  0.0244 -0.4916 -0.0071
  274MOL0     C37735  10.493   4.672   2.975 -0.3804 -0.1959  1.1068
  274MOL0     C37736  10.382   4.696   3.081 -0.5217 -0.7228  0.3182
  274MOL0     C37737  10.237   4.715   3.030  0.1007 -0.1118  0.7582
  274MOL0     C37738  10.194   4.594   2.964 -1.0766 -0.3987  0.9328
  274MOL0     C37739  10.157   4.496   2.903  1.0177  1.1264 -0.8050
  274MOL0     C37740  10.964   4.633   2.876 -0.5412 -0.1641 -0.9090
  274MOL0     C37741  11.096   4.600   2.905  0.4193  0.0042  1.1113
  274MOL0     C37742  11.191   4.621   2.798 -0.2572 -0.3312  0.1877
  274MOL0     H37743  11.443   4.192   3.004  0.2832  0.2090 -2.6284
  274MOL0     H37744  11.691   4.133   3.018 -1.1655 -0.1206  0.4695
  274MOL0     H37745  11.979   4.401   3.154 -0.8372 -1.5245  1.0759
  274MOL0     H37746  11.972   4.468   2.984 -2.4784 -2.4670 -2.1552
  274MOL0     H37747  12.122   4.220   3.067 -1.0585  1.3533  0.8210
  274MOL0     H37748  12.129   4.303   2.905  0.7451  1.7537 -0.6270
  274MOL0     H37749  12.333   4.346   3.012  2.3311  3.5800 -1.0452
  274MOL0     H37750  12.242   4.493   3.033  0.2944  0.1292  0.8328
  274MOL0     H37751  12.182   4.414   3.278 -0.8861  0.3869 -0.8893
  274MOL0     H37752  12.278   4.269   3.240  0.6264  0.0676 -1.7416
  274MOL0     H37753  12.361   4.557   3.262 -4.0484 -1.2275  1.1248
  274MOL0     H37754  12.478   4.428   3.199  1.5488 -0.8135  0.7043
  274MOL0     H37755  12.348   4.414   3.473  1.9723  1.2780  1.7955
  274MOL0     H37756  12.460   4.291   3.397 -1.0312 -0.3349  1.5175
  274MOL0     H37757  12.529   4.586   3.444  0.9875  0.1520 -2.1711
  274MOL0     H37758  12.623   4.449   3.378 -2.0596  0.8593 -2.5695
  274MOL0     H37759  12.581   4.340   3.618 -1.3495 -1.1014 -3.3173
  274MOL0     H37760  12.695   4.472   3.609 -0.5506 -0.3818  0.1648
  274MOL0     H37761  12.368   4.406   3.791  0.2090 -0.1534  2.8055
  274MOL0     H37762  12.364   4.575   4.065 -1.8358  1.3826  2.2313
  274MOL0     H37763  12.237   4.528   3.958 -0.1238  0.8229  0.4694
  274MOL0     H37764  12.288   4.825   3.979 -1.1485 -2.4729 -4.5110
  274MOL0     H37765  12.154   4.736   3.937 -0.7930 -2.4170  0.5204
  274MOL0     H37766  12.151   4.657   4.190  1.0582 -1.7673 -2.3652
  274MOL0     H37767  12.278   4.785   4.226  0.9993 -1.0425 -0.1161
  274MOL0     H37768  12.059   4.884   4.270 -4.7058  0.1535 -1.2730
  274MOL0     H37769  12.118   4.951   4.117  1.5098 -2.3395 -1.6141
  274MOL0     H37770  11.766   4.761   3.960  2.3549  1.1274 -0.5871
  274MOL0     H37771  11.460   4.826   3.951 -1.5948 -0.2162 -2.9270
  274MOL0     H37772  11.599   4.811   3.827 -0.4693  0.6837 -1.0652
  274MOL0     H37773  11.511   4.961   3.849  0.9304  0.9384  0.5262
  274MOL0     H37774  11.248   5.091   4.250  0.5069  2.9689  1.7294
  274MOL0     H37775  11.030   5.195   4.275 -0.0896  2.0113 -0.0120
  274MOL0     H37776  10.920   5.521   4.025 -0.1929  0.4068 -3.2263
  274MOL0     H37777  10.839   5.425   3.912  3.1795  1.3251 -1.1178
  274MOL0     H37778  10.647   5.407   4.111 -1.1427  0.8796  2.0930
  274MOL0     H37779  10.739   5.524   4.187 -1.6496 -2.7042 -0.0696
  274MOL0     H37780  10.632   5.543   3.899  0.5348  3.6676 -2.8757
  274MOL0     H37781  10.699   5.685   3.976  0.8362 -0.9525  2.3685
  274MOL0     H37782  10.559   5.690   4.160  0.6185  0.6596 -0.5325
  274MOL0     H37783  10.451   5.563   4.105 -1.0833  0.2205 -1.6566
  274MOL0     H37784  10.373   5.800   4.054  1.5285  0.2419  2.1291
  274MOL0     H37785  10.474   5.807   3.927 -1.9621  1.8258  0.2102
  274MOL0     H37786  10.276   5.574   3.934 -0.5690  0.8918  0.3499
  274MOL0     H37787  10.420   5.582   3.827 -0.9504 -2.5089  1.3120
  274MOL0     H37788  10.343   5.775   3.718 -0.6963  0.6726  0.3698
  274MOL0     H37789  10.206   5.804   3.828  1.6017  1.2749  0.7823
  274MOL0     H37790  10.101   5.594   3.756 -1.2984  1.4176  0.4670
  274MOL0     H37791  10.246   5.554   3.662 -0.7165 -0.2046  0.8392
  274MOL0     H37792  11.040   5.319   3.865 -3.1936 -0.9128  1.4834
  274MOL0     H37793  11.261   5.203   3.838  2.6295 -1.1496  1.1852
  274MOL0     H37794  11.706   5.145   4.258  2.5635  0.7222 -0.4731
  274MOL0     H37795  11.917   5.036   4.246  0.4093 -0.5933  0.7786
  274MOL0     H37796  11.775   4.560   3.048 -0.8216 -0.7519  1.9006
  274MOL0     H37797  11.525   4.597   3.030 -5.4055 -1.7193 -1.8421
  274MOL0     H37798  11.034   4.461   3.208 -3.0117 -0.7379 -1.1188
  274MOL0     H37799  10.812   4.517   3.149  1.8721 -0.1275  3.0568
  274MOL0     H37800  10.626   4.541   3.070 -1.2098 -1.6290 -3.2526
  274MOL0     H37801  10.636   4.716   3.119 -2.4258  0.2167 -0.4042
  274MOL0     H37802  10.474   4.594   2.900 -1.4559  0.0085  1.1625
  274MOL0     H37803  10.504   4.760   2.912  0.9017 -1.1118 -0.0323
  274MOL0     H37804  10.390   4.631   3.169  1.1971 -1.4300 -0.3246
  274MOL0     H37805  10.402   4.792   3.129  0.9064 -1.9173  2.2828
  274MOL0     H37806  10.229   4.801   2.963  1.5326 -0.7916 -0.3399
  274MOL0     H37807  10.170   4.742   3.112  2.1665  0.8054  2.2340
  274MOL0     H37808  10.134   4.403   2.857  4.0950 -1.3323  2.1356
  274MOL0     H37809  10.929   4.672   2.781 -1.9834  1.3209  0.1721
  274MOL0     H37810  11.288   4.648   2.842 -0.0807  2.4935 -1.6814
  274MOL0     H37811  11.218   4.527   2.750 -0.3072  0.4477 -1.4341
  274MOL0     H37812  11.186   4.702   2.724  3.9398 -0.7289 -0.8095
  275MOL0     O37813   3.813   3.918   1.043  0.0272  0.0742 -0.5087
  275MOL0     C37814   3.789   3.797   1.027  0.0368 -0.5269 -1.3506
  275MOL0     O37815   3.667   3.742   1.016  0.1432  0.2148 -0.6422
  275MOL0     C37816   3.551   3.797   1.067  0.2622 -0.8386 -0.6580
  275MOL0     C37817   3.505   3.762   1.197 -0.3337 -0.3507  0.8212
  275MOL0     C37818   3.375   3.811   1.237  0.0857  0.7079  0.6426
  275MOL0     C37819   3.297   3.890   1.160  0.1866 -0.6914  1.3281
  275MOL0     O37820   3.165   3.926   1.194 -0.1443  0.0743  0.7516
  275MOL0     C37821   3.108   3.848   1.293 -0.0930 -0.0500 -0.7864
  275MOL0     C37822   2.964   3.889   1.304  0.6804  0.0903 -0.8899
  275MOL0     C37823   2.892   3.805   1.412 -0.7687 -0.3014 -0.8667
  275MOL0     C37824   2.916   3.855   1.551  0.3038  0.3041  0.3915
  275MOL0     C37825   2.861   3.754   1.657  0.2832 -0.2591  0.5587
  275MOL0     C37826   2.846   3.830   1.789 -0.2264  0.5162 -0.4939
  275MOL0     C37827   2.838   3.735   1.915  0.3148  0.8552  0.2009
  275MOL0     C37828   2.829   3.799   2.056  0.8337 -1.0898  0.4044
  275MOL0     N37829   2.958   3.850   2.102 -0.0319 -1.2211  0.1253
  275MOL0     C37830   3.035   3.957   2.062  0.8038 -0.5707 -0.2670
  275MOL0     C37831   3.130   3.965   2.161  0.1240  0.9797 -0.0930
  275MOL0     C37832   3.238   4.065   2.173  0.4890  0.6548  0.6198
  275MOL0     C37833   3.375   4.015   2.113  0.1522 -0.9484 -0.0675
  275MOL0     C37834   3.485   4.108   2.163  0.2322 -0.1264 -0.1488
  275MOL0     C37835   3.622   4.036   2.159 -0.3785 -0.2312  0.0775
  275MOL0     O37836   3.692   4.029   2.033  0.6556  0.1429  0.4705
  275MOL0     C37837   3.757   3.906   2.000  0.1045  0.0773  0.8952
  275MOL0     C37838   3.698   3.784   2.030 -0.4885 -0.0776  0.3293
  275MOL0     C37839   3.760   3.658   1.986  0.1072 -0.2710 -0.7670
  275MOL0     C37840   3.699   3.529   2.020 -0.1358 -0.3987  0.0116
  275MOL0     C37841   3.881   3.662   1.914 -0.6811  0.6643 -0.9187
  275MOL0     C37842   3.963   3.549   1.859 -0.9252  0.1400 -0.4328
  275MOL0     O37843   4.096   3.565   1.867 -0.0083 -0.2303  0.0660
  275MOL0     C37844   4.180   3.457   1.846 -0.3188  0.3815 -0.0476
  275MOL0     C37845   4.183   3.352   1.940 -0.3012 -0.1899  0.3071
  275MOL0     C37846   4.253   3.236   1.913 -0.1722 -0.2530  0.0606
  275MOL0     C37847   4.341   3.221   1.796  0.5488 -1.2343  0.4347
  275MOL0     O37848   4.433   3.115   1.788  0.2978 -0.4948  0.0144
  275MOL0     C37849   4.556   3.138   1.714 -0.0275 -0.1054 -0.6872
  275MOL0     C37850   4.663   3.022   1.736 -0.3938 -0.4062 -0.7374
  275MOL0     C37851   4.689   2.998   1.885  0.7475  0.2220 -0.0359
  275MOL0     C37852   4.772   2.882   1.907 -0.2924  0.2456 -0.1569
  275MOL0     C37853   4.912   2.899   1.829 -0.1162 -0.1526  0.5540
  275MOL0     C37854   5.023   2.799   1.875  0.3108  0.7520  0.4694
  275MOL0     C37855   5.153   2.791   1.792 -0.4019 -0.3875 -0.8919
  275MOL0     C37856   5.223   2.926   1.793 -0.2734 -1.0289 -0.5918
  275MOL0    Cl37857   5.378   2.934   1.708  0.1582  0.3681  0.0439
  275MOL0     C37858   4.347   3.343   1.715  0.8002  0.7702  0.5627
  275MOL0     C37859   4.267   3.454   1.742  0.1557 -0.7169 -0.0535
  275MOL0     O37860   3.911   3.450   1.817 -0.6096 -1.1541 -0.2975
  275MOL0     C37861   3.940   3.786   1.902 -0.3035 -0.4218 -0.0406
  275MOL0     C37862   3.879   3.904   1.941  0.5337 -0.0414 -0.5733
  275MOL0     N37863   3.123   3.856   2.245  0.1119 -0.0367 -0.0410
  275MOL0     N37864   3.015   3.796   2.214 -0.0449 -0.0264  0.1962
  275MOL0     C37865   3.343   3.919   1.031  1.3071  0.4121 -0.8990
  275MOL0     C37866   3.466   3.871   0.990  0.3307 -0.0382  0.8314
  275MOL0     C37867   3.905   3.713   1.023  0.3743  0.1278  0.1690
  275MOL0     C37868   4.029   3.776   0.986  0.2670  0.6251  1.5121
  275MOL0     C37869   4.143   3.692   0.978  0.2821  0.0487 -0.6430
  275MOL0     C37870   4.142   3.559   1.015 -0.0520 -0.0732 -0.4678
  275MOL0     O37871   4.256   3.480   1.026 -0.4497 -0.5833  0.3606
  275MOL0     C37872   4.362   3.517   1.118  0.0709  0.3066 -0.1855
  275MOL0     C37873   4.504   3.474   1.085 -0.0161  0.4806  0.0504
  275MOL0     C37874   4.564   3.544   0.958 -0.4343  0.3602  0.3529
  275MOL0     C37875   4.639   3.680   0.969 -0.1908 -1.3755 -1.2525
  275MOL0     C37876   4.537   3.780   1.003 -0.3618 -0.4752 -0.3965
  275MOL0     C37877   4.456   3.876   1.014 -0.3429  0.1428  0.1135
  275MOL0     C37878   4.022   3.495   1.038  0.0154  0.0692  0.4531
  275MOL0     C37879   3.903   3.571   1.046  0.4146  0.3988 -0.8810
  275MOL0     C37880   3.779   3.501   1.089 -0.1277 -0.1834 -0.3362
  275MOL0     H37881   3.559   3.696   1.264 -1.3500 -2.3238 -0.2022
  275MOL0     H37882   3.346   3.790   1.340 -2.8590 -4.0590 -0.8071
  275MOL0     H37883   3.159   3.874   1.386  0.6143  0.7747 -1.3839
  275MOL0     H37884   3.118   3.741   1.268 -0.8281 -0.0008 -1.3241
  275MOL0     H37885   2.952   3.997   1.315  0.7875  0.1197 -1.0619
  275MOL0     H37886   2.916   3.873   1.207 -1.8481  1.8200 -0.0355
  275MOL0     H37887   2.783   3.798   1.403 -0.8159 -0.2542 -0.3681
  275MOL0     H37888   2.917   3.699   1.411  0.6351 -0.0048 -2.2878
  275MOL0     H37889   3.023   3.869   1.568  0.2400  2.6230 -0.6827
  275MOL0     H37890   2.879   3.957   1.563  1.3080  0.6576  0.4989
  275MOL0     H37891   2.933   3.672   1.659  0.6081 -0.0231 -0.5524
  275MOL0     H37892   2.761   3.720   1.631  0.2667 -1.4215  2.0291
  275MOL0     H37893   2.934   3.892   1.805  2.4050 -2.0716 -3.5363
  275MOL0     H37894   2.760   3.897   1.780  0.2813  1.4793  1.3112
  275MOL0     H37895   2.925   3.669   1.914  1.4224  2.2267 -2.2953
  275MOL0     H37896   2.749   3.672   1.906  0.8460  0.0275  0.6746
  275MOL0     H37897   2.759   3.883   2.051  0.0080 -1.7744  0.2801
  275MOL0     H37898   2.782   3.727   2.123 -1.7025  1.0627  1.1045
  275MOL0     H37899   3.012   4.023   1.979 -0.1160  0.0460  0.4543
  275MOL0     H37900   3.253   4.071   2.281  1.7415 -2.6983  0.7478
  275MOL0     H37901   3.217   4.154   2.113 -1.3686 -0.6599 -0.8079
  275MOL0     H37902   3.399   3.914   2.148 -0.2670 -1.4721 -1.2136
  275MOL0     H37903   3.373   4.015   2.003  1.6421  2.2491 -0.2257
  275MOL0     H37904   3.479   4.202   2.108 -1.2608 -0.7697 -1.1393
  275MOL0     H37905   3.472   4.134   2.269  0.6638 -0.9412  0.1129
  275MOL0     H37906   3.699   4.090   2.215  0.8501  0.0684 -1.8166
  275MOL0     H37907   3.620   3.937   2.206  1.9067 -0.9178 -1.1456
  275MOL0     H37908   3.604   3.771   2.083 -0.6306  0.5146  0.2247
  275MOL0     H37909   3.626   3.540   2.101 -0.0192 -1.1804  0.2335
  275MOL0     H37910   3.777   3.466   2.062  0.9485 -0.7301 -2.3547
  275MOL0     H37911   3.655   3.475   1.936 -1.7494  1.8052 -0.6391
  275MOL0     H37912   4.116   3.366   2.025 -2.6004  2.5590 -1.7646
  275MOL0     H37913   4.243   3.147   1.975 -0.8106 -2.3483 -2.8261
  275MOL0     H37914   4.547   3.140   1.605 -0.8878 -0.7936 -0.6426
  275MOL0     H37915   4.600   3.231   1.750 -1.0054  1.2141 -2.7131
  275MOL0     H37916   4.639   2.935   1.674  0.5774 -0.3048 -1.2902
  275MOL0     H37917   4.756   3.060   1.693 -1.1265  3.1664  0.5259
  275MOL0     H37918   4.592   2.979   1.931  0.8779  3.5702  2.0106
  275MOL0     H37919   4.717   3.089   1.939 -1.3810  0.4893  0.6878
  275MOL0     H37920   4.718   2.793   1.872 -2.6634  2.0650 -1.4800
  275MOL0     H37921   4.792   2.866   2.013 -0.7016 -2.0985 -0.3695
  275MOL0     H37922   4.881   2.890   1.724  0.1149  1.3537  0.3307
  275MOL0     H37923   4.944   3.003   1.840 -1.8077  0.6230 -1.2979
  275MOL0     H37924   4.978   2.701   1.857 -0.3975  1.3641 -1.3097
  275MOL0     H37925   5.041   2.812   1.982  0.1238  0.2579  0.5625
  275MOL0     H37926   5.127   2.779   1.686 -0.0397  1.2690 -1.1999
  275MOL0     H37927   5.207   2.704   1.828  0.8827 -0.2635 -2.3925
  275MOL0     H37928   5.249   2.948   1.897  0.5528  0.2975 -1.0474
  275MOL0     H37929   5.160   3.008   1.757 -0.0688  0.0346  1.3244
  275MOL0     H37930   4.418   3.339   1.633  3.9062 -4.4197  3.0025
  275MOL0     H37931   4.253   3.542   1.679  3.9280  0.4767  0.5283
  275MOL0     H37932   4.038   3.797   1.857 -0.2642 -3.1628 -0.8134
  275MOL0     H37933   3.939   3.992   1.924  2.3892 -0.8705  1.2684
  275MOL0     H37934   3.273   3.974   0.968  0.3052  1.2887  0.9249
  275MOL0     H37935   3.493   3.899   0.889 -0.2574 -0.5412  0.5291
  275MOL0     H37936   4.039   3.884   0.977 -1.1450  0.6728  0.0584
  275MOL0     H37937   4.239   3.735   0.950  0.1428  0.4616 -0.4957
  275MOL0     H37938   4.365   3.627   1.123 -1.9320  0.4381 -0.9635
  275MOL0     H37939   4.329   3.480   1.215  2.5795 -0.0661  0.5904
  275MOL0     H37940   4.511   3.370   1.053 -1.8272  0.3261  0.0557
  275MOL0     H37941   4.567   3.491   1.173  0.1951 -0.7609  0.1494
  275MOL0     H37942   4.629   3.473   0.907 -0.0818  0.0033  1.2765
  275MOL0     H37943   4.483   3.552   0.885  0.2558 -0.8462 -0.5869
  275MOL0     H37944   4.688   3.711   0.876  2.2907 -0.0997  0.3508
  275MOL0     H37945   4.721   3.685   1.042 -0.1868 -0.3493 -1.3086
  275MOL0     H37946   4.377   3.948   1.008 -2.6317 -2.3239 -1.4331
  275MOL0     H37947   4.021   3.387   1.051 -1.3247 -0.2766 -2.0062
  275MOL0     H37948   3.701   3.518   1.014 -3.2914  0.2386  2.7590
  275MOL0     H37949   3.802   3.395   1.103 -0.3834  0.0197  2.1588
  275MOL0     H37950   3.752   3.532   1.191 -1.2868  1.9142 -1.2282
  276MOL0     O37951   2.791   7.569   8.603  0.2587 -0.9183  0.5761
  276MOL0     C37952   2.731   7.616   8.504 -0.8395  0.0308  0.0610
  276MOL0     O37953   2.791   7.702   8.412 -0.2747  0.1718  0.1416
  276MOL0     C37954   2.922   7.732   8.423 -0.4450 -0.6564  0.2001
  276MOL0     C37955   3.033   7.647   8.460  0.0240  0.3185  0.7800
  276MOL0     C37956   3.165   7.698   8.461  0.5225 -0.5478 -0.4476
  276MOL0     C37957   3.184   7.838   8.448 -0.6552 -0.3119 -0.1694
  276MOL0     O37958   3.317   7.871   8.457  0.3894  0.6273 -0.0766
  276MOL0     C37959   3.368   8.011   8.448  0.1988  0.6377 -0.6669
  276MOL0     C37960   3.517   7.997   8.445  0.4124  0.3128  0.3077
  276MOL0     C37961   3.589   7.927   8.568  0.2073  0.0445 -0.7123
  276MOL0     C37962   3.742   7.921   8.531  0.4499  0.8206 -0.5525
  276MOL0     C37963   3.825   7.875   8.652 -0.2219  0.9877 -0.3021
  276MOL0     C37964   3.967   7.920   8.625  0.0570  0.6207  0.8123
  276MOL0     C37965   4.067   7.840   8.710 -0.2539  0.0391  0.7316
  276MOL0     C37966   4.037   7.867   8.856 -0.6348 -0.2380  0.3329
  276MOL0     N37967   4.153   7.833   8.942 -0.7597  1.3503 -0.1719
  276MOL0     C37968   4.160   7.723   9.028 -0.1083  0.7300 -0.1828
  276MOL0     C37969   4.283   7.740   9.080  0.1989  0.5486 -0.4970
  276MOL0     C37970   4.364   7.646   9.162 -0.1032 -0.1301 -0.0124
  276MOL0     C37971   4.356   7.685   9.311  0.0719 -0.3144  0.9627
  276MOL0     C37972   4.444   7.603   9.411 -0.0956  0.2816  0.0821
  276MOL0     C37973   4.591   7.587   9.369 -0.4736  0.4562 -0.0904
  276MOL0     O37974   4.647   7.486   9.457 -0.5367 -0.1871  1.3857
  276MOL0     C37975   4.759   7.417   9.419 -0.6343  0.8236 -0.3129
  276MOL0     C37976   4.852   7.463   9.322 -0.8353  0.0137 -0.2510
  276MOL0     C37977   4.971   7.387   9.293 -0.1755  0.1305 -0.7442
  276MOL0     C37978   5.081   7.449   9.191 -0.3076 -0.1812 -1.0485
  276MOL0     C37979   4.990   7.266   9.359 -0.7329  0.6365 -0.1160
  276MOL0     C37980   5.099   7.180   9.332 -0.4849  0.6308  0.3487
  276MOL0     O37981   5.207   7.177   9.427 -0.6305 -0.0736  0.2139
  276MOL0     C37982   5.299   7.079   9.398 -0.5980 -0.8195  0.2662
  276MOL0     C37983   5.401   7.111   9.310 -0.5808  0.0802 -0.5126
  276MOL0     C37984   5.498   7.021   9.271  0.3339 -0.2412 -0.1929
  276MOL0     C37985   5.502   6.898   9.326 -0.2593 -0.3182  0.6745
  276MOL0     O37986   5.600   6.812   9.276  0.1696 -0.4740 -0.3617
  276MOL0     C37987   5.705   6.763   9.359  0.1269  0.6454  0.3085
  276MOL0     C37988   5.709   6.608   9.335 -0.1776  0.1830 -0.4256
  276MOL0     C37989   5.583   6.526   9.377  0.7534 -1.0790 -0.2121
  276MOL0     C37990   5.618   6.388   9.422 -0.0923  0.4562  0.2673
  276MOL0     C37991   5.518   6.278   9.395 -0.0331 -0.7415 -0.3433
  276MOL0     C37992   5.579   6.145   9.438 -0.6042 -0.3307 -0.1896
  276MOL0     C37993   5.500   6.027   9.398 -0.1936 -0.1925  0.1645
  276MOL0     C37994   5.348   6.040   9.442  0.2950 -0.1731  0.5092
  276MOL0    Cl37995   5.265   5.875   9.419  0.0299  0.2032  0.0679
  276MOL0     C37996   5.401   6.869   9.415 -0.4273 -0.1068 -0.0715
  276MOL0     C37997   5.299   6.955   9.454  0.0235 -0.5505 -0.1837
  276MOL0     O37998   5.095   7.110   9.230 -0.0480  0.2889 -0.0072
  276MOL0     C37999   4.895   7.225   9.456 -0.4528  0.5446  0.6438
  276MOL0     C38000   4.779   7.295   9.479  0.4596  0.3742 -0.0521
  276MOL0     N38001   4.339   7.861   9.048  0.3445  0.2287  0.0919
  276MOL0     N38002   4.267   7.913   8.957 -0.5508  0.6201  0.2345
  276MOL0     C38003   3.081   7.922   8.417 -0.4188  0.6716 -0.0665
  276MOL0     C38004   2.953   7.869   8.405  0.4750 -0.8325  0.4077
  276MOL0     C38005   2.590   7.586   8.474  0.5682 -0.0836 -0.4511
  276MOL0     C38006   2.530   7.610   8.344  0.0979 -0.3207 -0.6196
  276MOL0     C38007   2.385   7.587   8.317  0.0848 -1.0144  0.0546
  276MOL0     C38008   2.312   7.537   8.416 -0.4250 -0.5549  0.3575
  276MOL0     O38009   2.176   7.500   8.414  0.4976 -0.2192  0.7791
  276MOL0     C38010   2.108   7.474   8.287  0.1355 -0.9083 -1.0172
  276MOL0     C38011   1.971   7.423   8.311  0.7702 -0.3967  0.0958
  276MOL0     C38012   1.900   7.348   8.193 -0.6585 -0.5943 -0.5063
  276MOL0     C38013   1.755   7.340   8.221  0.9564  0.7268  0.2873
  276MOL0     C38014   1.675   7.254   8.133  0.5720  0.1278 -0.2527
  276MOL0     C38015   1.629   7.173   8.054 -0.4234  0.0960  0.2139
  276MOL0     C38016   2.369   7.512   8.542  0.9861  0.0971  0.8655
  276MOL0     C38017   2.500   7.535   8.576  0.9302  0.8732  0.3542
  276MOL0     C38018   2.549   7.517   8.719 -0.1611  0.8880  0.0334
  276MOL0     H38019   3.005   7.545   8.484  0.7797  0.3263  1.7256
  276MOL0     H38020   3.245   7.626   8.471 -0.6081 -1.7956 -0.0133
  276MOL0     H38021   3.327   8.072   8.528 -3.9447 -1.0715 -1.2128
  276MOL0     H38022   3.323   8.048   8.355 -0.4588  1.1569 -0.1453
  276MOL0     H38023   3.570   7.953   8.359  2.1243  2.7361  0.0042
  276MOL0     H38024   3.545   8.102   8.435  0.2073  0.3499  0.1190
  276MOL0     H38025   3.563   7.973   8.663  3.3339 -0.1417  0.3485
  276MOL0     H38026   3.563   7.821   8.569  0.3816  0.0005  0.3978
  276MOL0     H38027   3.764   7.852   8.450  1.5841  0.9765 -0.3839
  276MOL0     H38028   3.787   8.017   8.504  2.0329  1.0587  2.4824
  276MOL0     H38029   3.806   7.768   8.662 -3.7623  1.4551 -1.0238
  276MOL0     H38030   3.793   7.925   8.744 -1.2132  2.6110 -1.4861
  276MOL0     H38031   3.991   7.902   8.520  0.1058  1.4383  0.6740
  276MOL0     H38032   3.981   8.029   8.633 -1.3834  1.0345 -1.5156
  276MOL0     H38033   4.167   7.877   8.685 -1.4500  2.8031 -0.3477
  276MOL0     H38034   4.061   7.733   8.690  3.2614  0.1621 -1.9441
  276MOL0     H38035   4.030   7.976   8.861 -0.7719 -0.1528 -1.1555
  276MOL0     H38036   3.945   7.830   8.903 -0.8127  0.5563  0.6305
  276MOL0     H38037   4.084   7.648   9.046  0.3101  0.7823  2.1067
  276MOL0     H38038   4.462   7.648   9.112  2.0222 -0.9901  3.7218
  276MOL0     H38039   4.330   7.542   9.159 -0.5492  0.0236 -0.3499
  276MOL0     H38040   4.371   7.791   9.331 -0.7754 -0.2263  1.1837
  276MOL0     H38041   4.251   7.664   9.331 -0.4324  1.1143 -0.0270
  276MOL0     H38042   4.429   7.658   9.505 -1.7412  0.2787 -0.1446
  276MOL0     H38043   4.398   7.505   9.424 -1.4329  1.0343  1.3448
  276MOL0     H38044   4.595   7.549   9.266  1.1058  0.4429 -0.0504
  276MOL0     H38045   4.636   7.687   9.368  0.9010 -0.1197 -2.0408
  276MOL0     H38046   4.855   7.562   9.277  1.2864 -0.4409 -1.2585
  276MOL0     H38047   5.026   7.472   9.099 -0.2071 -1.1980 -1.3733
  276MOL0     H38048   5.158   7.379   9.158 -0.7244 -1.2173  0.1015
  276MOL0     H38049   5.112   7.545   9.232 -0.9980 -0.3510 -0.1026
  276MOL0     H38050   5.395   7.214   9.275  1.0134  0.9198  1.4785
  276MOL0     H38051   5.574   7.058   9.203  1.2952  0.1630  1.0477
  276MOL0     H38052   5.795   6.820   9.333 -0.1865  2.1357  2.2607
  276MOL0     H38053   5.688   6.777   9.466 -0.4014 -1.1479  0.4850
  276MOL0     H38054   5.718   6.572   9.232 -2.4190 -1.1488 -0.2366
  276MOL0     H38055   5.791   6.564   9.392  1.2908  2.1805 -0.9099
  276MOL0     H38056   5.521   6.528   9.287  2.1692  1.3590 -1.2597
  276MOL0     H38057   5.525   6.575   9.456  0.6166 -2.0771  0.3129
  276MOL0     H38058   5.677   6.369   9.513  1.2849 -1.9397 -1.0298
  276MOL0     H38059   5.684   6.355   9.342 -0.3419 -0.4038  0.4004
  276MOL0     H38060   5.429   6.303   9.453  0.0069 -0.4277 -0.4173
  276MOL0     H38061   5.484   6.282   9.291 -0.5963 -1.5057 -0.1950
  276MOL0     H38062   5.593   6.151   9.546  1.1457  1.3541 -0.4594
  276MOL0     H38063   5.681   6.130   9.402  0.2434  0.6785  1.6782
  276MOL0     H38064   5.546   5.938   9.443 -1.7464 -1.5327 -0.7781
  276MOL0     H38065   5.496   6.011   9.290  0.1574 -1.7998  0.3660
  276MOL0     H38066   5.292   6.104   9.374  0.2827 -0.2109  0.4842
  276MOL0     H38067   5.352   6.061   9.549  2.5082 -1.3458  0.7247
  276MOL0     H38068   5.401   6.771   9.461 -0.2050 -1.5872 -2.9953
  276MOL0     H38069   5.226   6.916   9.524 -0.2228  0.5422  0.1913
  276MOL0     H38070   4.911   7.130   9.505  0.9620  1.0698  1.2537
  276MOL0     H38071   4.711   7.262   9.558 -1.2725  0.3450 -1.4995
  276MOL0     H38072   3.098   8.027   8.398 -0.8832  0.6108 -0.8915
  276MOL0     H38073   2.872   7.933   8.371  1.4779  2.1103  3.0771
  276MOL0     H38074   2.598   7.655   8.271  0.9096 -0.9499 -0.2641
  276MOL0     H38075   2.335   7.613   8.224  1.8574  2.0734 -0.1667
  276MOL0     H38076   2.110   7.564   8.226 -0.5446  0.8309  1.3773
  276MOL0     H38077   2.163   7.389   8.246  0.8427 -2.0008  1.9195
  276MOL0     H38078   1.905   7.508   8.332  0.0975 -1.6875  4.0521
  276MOL0     H38079   1.968   7.362   8.401  0.4475  0.9894  1.0678
  276MOL0     H38080   1.903   7.396   8.094  3.0396  1.0655  0.2372
  276MOL0     H38081   1.944   7.249   8.179  0.8902  0.3314 -2.8920
  276MOL0     H38082   1.701   7.434   8.206 -3.6326 -1.6840 -0.4427
  276MOL0     H38083   1.745   7.301   8.322  1.7969 -0.0273  0.0911
  276MOL0     H38084   1.581   7.100   7.993  1.2646  0.6949 -1.9346
  276MOL0     H38085   2.296   7.469   8.610  0.9176 -0.5768  0.3758
  276MOL0     H38086   2.580   7.614   8.757 -2.1475  0.3446  3.5011
  276MOL0     H38087   2.480   7.466   8.788  0.3252 -0.6299 -0.5463
  276MOL0     H38088   2.633   7.448   8.705  0.1987  1.4724 -0.7238
  277MOL0     O38089  10.667   2.465   9.262  0.3629  0.5412 -0.1859
  277MOL0     C38090  10.617   2.563   9.215  0.2597 -0.1227  0.6529
  277MOL0     O38091  10.679   2.643   9.115 -0.0407  0.1837  0.3020
  277MOL0     C38092  10.812   2.668   9.133  0.1385  0.3108 -0.0612
  277MOL0     C38093  10.849   2.793   9.180  0.0305  0.2594 -0.6420
  277MOL0     C38094  10.984   2.827   9.197  0.0511  0.4676  0.0977
  277MOL0     C38095  11.085   2.728   9.189 -0.5660  0.0724 -0.2121
  277MOL0     O38096  11.217   2.751   9.209 -0.5033 -0.6929  0.2780
  277MOL0     C38097  11.257   2.806   9.337  0.1271  0.1494  1.1323
  277MOL0     C38098  11.394   2.869   9.318  0.8508 -0.2694 -0.3713
  277MOL0     C38099  11.500   2.762   9.299  0.5902 -0.2766 -0.7079
  277MOL0     C38100  11.640   2.830   9.293  0.7321  0.1030  0.3504
  277MOL0     C38101  11.747   2.720   9.283  0.4446 -0.4725  0.7314
  277MOL0     C38102  11.885   2.787   9.260 -0.5446 -0.2449  0.0496
  277MOL0     C38103  11.998   2.692   9.236  0.1140  0.7667 -0.1972
  277MOL0     C38104  11.989   2.633   9.096  0.3816  0.7454  0.0179
  277MOL0     N38105  11.997   2.733   8.985 -0.7283 -0.4210 -0.4001
  277MOL0     C38106  11.895   2.779   8.913  0.4823  0.3493 -0.2291
  277MOL0     C38107  11.954   2.845   8.808 -0.0493 -0.0887 -0.5032
  277MOL0     C38108  11.874   2.931   8.718 -0.2535  0.2104  0.5569
  277MOL0     C38109  11.815   2.848   8.610  0.4662 -0.0587 -0.7314
  277MOL0     C38110  11.733   2.931   8.516  0.1061 -0.3377 -0.8009
  277MOL0     C38111  11.652   2.847   8.417  0.0312  0.1511  0.4041
  277MOL0     O38112  11.593   2.946   8.329  0.0088  0.2386 -0.3849
  277MOL0     C38113  11.505   2.906   8.230 -1.3986  0.7362 -0.0726
  277MOL0     C38114  11.445   2.988   8.140  0.2472 -0.2819  0.3892
  277MOL0     C38115  11.344   2.956   8.051  0.4789 -0.2222  0.1372
  277MOL0     C38116  11.262   3.076   7.990 -0.9838 -0.0117 -0.4144
  277MOL0     C38117  11.320   2.817   8.030  0.2841 -0.3306 -0.8811
  277MOL0     C38118  11.231   2.763   7.920  0.1044  0.4290  0.2696
  277MOL0     O38119  11.172   2.857   7.838 -0.6638  1.0177 -0.5097
  277MOL0     C38120  11.088   2.800   7.752 -0.0944  0.0767  0.1628
  277MOL0     C38121  10.947   2.820   7.766 -0.3228  0.2345  1.7293
  277MOL0     C38122  10.858   2.746   7.673 -0.2162 -0.2480 -0.7929
  277MOL0     C38123  10.915   2.658   7.575 -0.6006 -0.6738  0.0748
  277MOL0     O38124  10.822   2.595   7.494  0.6629 -0.3259 -0.7036
  277MOL0     C38125  10.876   2.479   7.430 -0.0194 -0.7124 -0.3402
  277MOL0     C38126  10.756   2.412   7.359 -0.1515 -0.2296  0.2587
  277MOL0     C38127  10.793   2.275   7.306  0.4145  0.4260 -0.5830
  277MOL0     C38128  10.674   2.220   7.213  0.4821  0.5784 -0.0986
  277MOL0     C38129  10.695   2.089   7.141 -0.5484 -0.2676 -0.6502
  277MOL0     C38130  10.773   2.112   7.009  0.6506  0.7269 -0.1460
  277MOL0     C38131  10.800   1.983   6.938  0.3964  0.0250 -0.3205
  277MOL0     C38132  10.819   2.023   6.790  0.0661  0.1070 -0.2016
  277MOL0    Cl38133  10.667   2.096   6.736  0.0271  0.3025 -0.1526
  277MOL0     C38134  11.056   2.644   7.568  0.1845  0.4266  0.3785
  277MOL0     C38135  11.142   2.714   7.652  0.5691  0.5148  0.3738
  277MOL0     O38136  11.223   2.644   7.913 -0.0938 -0.0060  0.5246
  277MOL0     C38137  11.391   2.721   8.109 -0.5231 -0.6001 -1.0238
  277MOL0     C38138  11.476   2.764   8.208 -0.2263 -0.3936  0.7223
  277MOL0     N38139  12.090   2.828   8.830  0.4240 -0.5386  0.7437
  277MOL0     N38140  12.110   2.752   8.923 -0.4133  0.0260  0.0178
  277MOL0     C38141  11.049   2.601   9.142  1.1166  0.2529  0.8529
  277MOL0     C38142  10.908   2.578   9.112  0.0473 -0.6811 -0.1383
  277MOL0     C38143  10.480   2.591   9.247 -0.4243 -0.3034 -0.3484
  277MOL0     C38144  10.421   2.532   9.360  0.2530  0.2451 -0.1124
  277MOL0     C38145  10.290   2.562   9.387  0.0309  0.0976 -0.0748
  277MOL0     C38146  10.212   2.648   9.303  0.4811  1.0279  0.5349
  277MOL0     O38147  10.080   2.667   9.322 -0.4053  0.2640 -0.1066
  277MOL0     C38148  10.001   2.573   9.246  0.8182 -0.5126 -0.0682
  277MOL0     C38149   9.868   2.560   9.309  0.0023 -0.2924 -0.2701
  277MOL0     C38150   9.764   2.475   9.232  0.3330 -0.3220 -0.6051
  277MOL0     C38151   9.680   2.555   9.133 -0.0806  0.4581  0.7456
  277MOL0     C38152   9.614   2.678   9.182 -0.1694 -0.4474  0.0996
  277MOL0     C38153   9.558   2.773   9.227 -0.1754 -0.6352  0.0159
  277MOL0     C38154  10.265   2.706   9.194  0.4865 -0.2246 -0.1372
  277MOL0     C38155  10.399   2.676   9.159  0.5010  0.5557  0.1734
  277MOL0     C38156  10.440   2.732   9.029  0.0478 -0.1768  0.1103
  277MOL0     H38157  10.770   2.864   9.201 -1.8500 -2.6233  3.5737
  277MOL0     H38158  11.006   2.929   9.227 -1.9119  1.0519 -0.2962
  277MOL0     H38159  11.254   2.725   9.410  2.9100 -1.8357 -0.7230
  277MOL0     H38160  11.195   2.895   9.350  0.1047  0.2130  0.6120
  277MOL0     H38161  11.374   2.917   9.222  0.1809  0.8794  0.3163
  277MOL0     H38162  11.432   2.937   9.395  1.3396 -1.2272  0.2535
  277MOL0     H38163  11.493   2.681   9.373 -1.2069 -1.1135 -1.7216
  277MOL0     H38164  11.492   2.729   9.195 -0.8001  0.1317 -0.7536
  277MOL0     H38165  11.653   2.897   9.208  2.1661 -0.2111  0.2873
  277MOL0     H38166  11.660   2.888   9.384  1.5071  2.5826 -1.2840
  277MOL0     H38167  11.724   2.656   9.197 -2.3384  0.9483  0.2945
  277MOL0     H38168  11.739   2.658   9.372 -1.3212 -0.4051  0.6625
  277MOL0     H38169  11.874   2.860   9.179  0.7482 -0.3879 -0.2781
  277MOL0     H38170  11.900   2.847   9.350  0.2332 -2.7363  1.6909
  277MOL0     H38171  12.000   2.614   9.313 -1.4588  1.1972  0.3259
  277MOL0     H38172  12.091   2.747   9.252  0.5356 -0.4052  1.7354
  277MOL0     H38173  12.073   2.565   9.079  1.5524  2.0264  0.5028
  277MOL0     H38174  11.893   2.581   9.089  0.7208  0.3294 -2.0522
  277MOL0     H38175  11.791   2.764   8.943  0.8436 -1.3520  0.2912
  277MOL0     H38176  11.941   3.005   8.674  1.5998 -1.8370 -0.2578
  277MOL0     H38177  11.792   2.977   8.775 -0.4787  0.3577  0.1171
  277MOL0     H38178  11.903   2.815   8.552  0.0906 -3.4976  0.4490
  277MOL0     H38179  11.751   2.766   8.642  1.7900 -0.3114  1.4789
  277MOL0     H38180  11.661   2.990   8.574 -0.5484 -0.3919 -1.5465
  277MOL0     H38181  11.799   2.998   8.462  0.1542 -1.1221 -1.7447
  277MOL0     H38182  11.718   2.774   8.370 -0.4180 -0.5151  0.8020
  277MOL0     H38183  11.579   2.781   8.465 -1.0697 -0.5642 -2.1016
  277MOL0     H38184  11.459   3.095   8.148 -0.4670 -0.1171 -0.4467
  277MOL0     H38185  11.280   3.161   8.056  0.5378 -2.5850  2.7228
  277MOL0     H38186  11.154   3.065   7.978 -1.2688  2.1399 -0.2998
  277MOL0     H38187  11.295   3.107   7.890  0.0216  1.1613  0.2469
  277MOL0     H38188  10.913   2.895   7.837  0.0930  0.6620  1.4871
  277MOL0     H38189  10.751   2.760   7.684 -0.0289  1.2762 -0.6804
  277MOL0     H38190  10.958   2.498   7.360  0.3148  1.9858  0.6543
  277MOL0     H38191  10.919   2.420   7.512  1.5666  0.8317 -0.0015
  277MOL0     H38192  10.675   2.417   7.432  0.5614  2.1528  1.0007
  277MOL0     H38193  10.729   2.477   7.275 -0.0746 -2.1896 -1.3467
  277MOL0     H38194  10.817   2.203   7.385 -0.6304 -1.4382 -1.8866
  277MOL0     H38195  10.888   2.276   7.252  2.0173  0.0841  2.0432
  277MOL0     H38196  10.648   2.293   7.136 -0.3601  0.5795  0.1683
  277MOL0     H38197  10.593   2.210   7.287  1.0245  0.5029  0.4896
  277MOL0     H38198  10.740   2.007   7.198 -0.3929 -1.1462 -1.9973
  277MOL0     H38199  10.596   2.066   7.102  0.1259 -0.9527 -2.0624
  277MOL0     H38200  10.868   2.165   7.023  0.9168  0.4223 -0.7475
  277MOL0     H38201  10.701   2.177   6.958 -0.3759  0.0027  0.3496
  277MOL0     H38202  10.709   1.922   6.947 -0.1382  0.8387 -0.1348
  277MOL0     H38203  10.880   1.925   6.985  0.3385  1.9121  2.3687
  277MOL0     H38204  10.829   1.931   6.732 -0.4130  0.1851 -0.4186
  277MOL0     H38205  10.904   2.090   6.778 -0.8372  1.6634  1.4969
  277MOL0     H38206  11.110   2.581   7.498 -0.6758 -0.1390  0.2049
  277MOL0     H38207  11.247   2.705   7.629  0.0718 -4.5413 -1.2740
  277MOL0     H38208  11.384   2.613   8.094  1.4802 -1.2154  1.6232
  277MOL0     H38209  11.533   2.686   8.258 -1.5378 -2.3270 -0.6884
  277MOL0     H38210  11.129   2.529   9.124 -1.3011 -1.7648 -3.0012
  277MOL0     H38211  10.882   2.479   9.077 -0.7498  0.4201 -2.9796
  277MOL0     H38212  10.471   2.457   9.420  0.3795  0.7711  0.4515
  277MOL0     H38213  10.250   2.506   9.471  3.4533 -1.7202  0.5146
  277MOL0     H38214   9.980   2.629   9.154  1.3303  1.2622  0.8443
  277MOL0     H38215  10.050   2.476   9.229  3.7708  0.4477  2.0371
  277MOL0     H38216   9.831   2.659   9.337 -2.3350 -0.3197 -2.8926
  277MOL0     H38217   9.881   2.495   9.397 -0.8817 -1.9245 -1.2977
  277MOL0     H38218   9.806   2.385   9.186 -0.0790 -0.5503 -0.5316
  277MOL0     H38219   9.690   2.449   9.308 -1.2203  0.3272 -1.8420
  277MOL0     H38220   9.600   2.490   9.098  0.7961 -1.3739  1.9818
  277MOL0     H38221   9.752   2.586   9.057 -0.3352  0.3718  0.4678
  277MOL0     H38222   9.502   2.857   9.263  1.2152  1.2484 -1.9981
  277MOL0     H38223  10.201   2.766   9.131 -0.4005 -1.5710 -0.5678
  277MOL0     H38224  10.484   2.649   8.973  3.0379 -0.2819  2.3267
  277MOL0     H38225  10.353   2.775   8.979  0.2601  0.9890  0.6976
  277MOL0     H38226  10.514   2.811   9.047  1.0631 -1.1846  0.5105
  278MOL0     O38227   3.422   7.064   0.573  0.3138  1.1048  0.4834
  278MOL0     C38228   3.454   6.966   0.644  0.1670  0.1397 -0.1249
  278MOL0     O38229   3.385   6.924   0.751 -0.1315 -0.9740 -0.3032
  278MOL0     C38230   3.251   6.964   0.761 -0.2516 -0.4998  0.1474
  278MOL0     C38231   3.156   6.947   0.665  1.2664 -0.6050  0.3258
  278MOL0     C38232   3.022   6.989   0.691  0.4532 -0.5349  0.2684
  278MOL0     C38233   2.983   7.041   0.808 -0.7375 -0.2616 -0.4338
  278MOL0     O38234   2.853   7.066   0.821 -0.2912 -0.7765  0.4220
  278MOL0     C38235   2.799   7.083   0.955  0.6460  0.0803  0.2818
  278MOL0     C38236   2.650   7.111   0.931  0.3105  0.1672  0.0921
  278MOL0     C38237   2.567   7.162   1.048  0.2516  0.1204 -1.2539
  278MOL0     C38238   2.536   7.049   1.150 -0.0777 -0.1704  0.6497
  278MOL0     C38239   2.452   7.097   1.268 -0.6593  0.1635 -0.3490
  278MOL0     C38240   2.425   6.985   1.370  0.3064  1.1642 -0.3102
  278MOL0     C38241   2.555   6.948   1.447  0.0841 -0.7193 -0.7295
  278MOL0     C38242   2.528   6.879   1.581  0.3196 -0.2069  0.8580
  278MOL0     N38243   2.466   6.747   1.564 -0.3688  0.8906 -0.3212
  278MOL0     C38244   2.516   6.648   1.473 -0.4539  0.2730 -0.5235
  278MOL0     C38245   2.422   6.546   1.476  0.1782  0.0072 -0.5888
  278MOL0     C38246   2.422   6.415   1.401 -0.4473  0.7141 -0.5163
  278MOL0     C38247   2.564   6.343   1.390 -0.4057  0.9674 -0.4590
  278MOL0     C38248   2.558   6.201   1.332 -0.4844  0.3983  0.3412
  278MOL0     C38249   2.696   6.138   1.323  0.5400 -0.4811 -0.5401
  278MOL0     O38250   2.800   6.196   1.410 -0.3718  0.2277 -0.3924
  278MOL0     C38251   2.934   6.153   1.399 -0.1573  1.2724 -0.2874
  278MOL0     C38252   2.969   6.053   1.317 -0.6015  0.6345  0.3006
  278MOL0     C38253   3.099   5.993   1.317  0.0686 -0.1888 -0.2857
  278MOL0     C38254   3.119   5.872   1.227 -0.0609 -1.0194  0.0607
  278MOL0     C38255   3.201   6.047   1.400 -0.2368  0.8233  0.1439
  278MOL0     C38256   3.332   5.998   1.422 -0.3260  0.1438  0.4479
  278MOL0     O38257   3.425   6.085   1.471 -0.0923  0.6037  0.6390
  278MOL0     C38258   3.552   6.052   1.487 -0.1758  0.2632 -1.0566
  278MOL0     C38259   3.574   5.946   1.575 -0.1063  0.6607 -0.5412
  278MOL0     C38260   3.700   5.920   1.613 -0.2138  0.3554  0.1182
  278MOL0     C38261   3.811   5.992   1.568 -0.9412 -0.5561 -0.7256
  278MOL0     O38262   3.937   5.971   1.609  0.2463  0.4028  0.2478
  278MOL0     C38263   3.975   6.073   1.709 -0.2392  0.2304 -0.3859
  278MOL0     C38264   3.894   6.048   1.842 -0.8049  0.6938  0.0396
  278MOL0     C38265   3.950   6.139   1.954 -0.3347  0.2603 -0.3514
  278MOL0     C38266   3.884   6.096   2.089 -0.1680  1.1423  0.1853
  278MOL0     C38267   3.918   6.174   2.214 -0.8660 -0.1516 -0.9034
  278MOL0     C38268   4.066   6.171   2.260 -0.5176 -0.2531  0.4354
  278MOL0     C38269   4.084   6.250   2.390  0.3760  0.2768 -0.8506
  278MOL0     C38270   4.117   6.161   2.510  0.6359 -0.1067 -0.1958
  278MOL0    Cl38271   4.151   6.290   2.632 -0.0107  0.1269  0.0835
  278MOL0     C38272   3.785   6.100   1.493  0.5933 -0.4430  0.2187
  278MOL0     C38273   3.656   6.136   1.457  0.4720 -0.4610  0.8037
  278MOL0     O38274   3.358   5.883   1.401  0.6136  0.4715  0.0427
  278MOL0     C38275   3.162   6.159   1.481 -0.4006 -0.4875  0.1842
  278MOL0     C38276   3.030   6.208   1.481 -0.0800  0.5131 -0.0072
  278MOL0     N38277   2.323   6.584   1.562  0.1372 -0.0777 -0.0275
  278MOL0     N38278   2.352   6.700   1.618  1.0832 -0.0895  0.3627
  278MOL0     C38279   3.080   7.050   0.913 -0.1641  0.1054  0.5435
  278MOL0     C38280   3.215   7.016   0.890 -0.5721  0.8454 -1.5809
  278MOL0     C38281   3.587   6.898   0.627  0.0021 -0.4332  0.4402
  278MOL0     C38282   3.659   6.869   0.738 -0.5020  0.5750 -0.7204
  278MOL0     C38283   3.780   6.796   0.740  0.2916 -0.5685 -0.1879
  278MOL0     C38284   3.832   6.753   0.620 -0.9462  0.4642  0.2366
  278MOL0     O38285   3.945   6.670   0.598  0.3341 -0.7021 -0.1351
  278MOL0     C38286   4.025   6.639   0.716 -0.3012  0.1569 -0.5357
  278MOL0     C38287   4.154   6.562   0.675 -0.1885  0.2735 -0.6448
  278MOL0     C38288   4.226   6.500   0.799  0.1750  0.6790  0.4998
  278MOL0     C38289   4.341   6.401   0.772  0.7483  0.1412 -0.0586
  278MOL0     C38290   4.449   6.478   0.703 -0.7452  0.3315  0.5952
  278MOL0     C38291   4.543   6.545   0.649  0.4681  0.1427  0.3892
  278MOL0     C38292   3.762   6.779   0.501  0.3303  1.1495  0.0189
  278MOL0     C38293   3.645   6.852   0.504  0.3186 -0.7726  0.7064
  278MOL0     C38294   3.585   6.902   0.378 -0.2761  0.1717 -0.1017
  278MOL0     H38295   3.166   6.898   0.569 -0.1228 -4.5915  2.0219
  278MOL0     H38296   2.948   6.959   0.617 -0.9082  0.0886  1.3327
  278MOL0     H38297   2.840   7.167   1.012 -0.9957  0.2605  1.2652
  278MOL0     H38298   2.809   6.994   1.018  3.2928  0.0263 -0.0875
  278MOL0     H38299   2.658   7.191   0.856  1.5112 -0.4271 -0.4447
  278MOL0     H38300   2.606   7.021   0.887 -0.7053  0.2720  0.8478
  278MOL0     H38301   2.623   7.241   1.099  2.2624 -0.5803 -2.2729
  278MOL0     H38302   2.472   7.198   1.007 -0.5992 -1.9067 -1.1873
  278MOL0     H38303   2.488   6.968   1.095 -0.8480  1.3022 -0.9804
  278MOL0     H38304   2.628   7.012   1.194 -0.1856  2.2111  3.1078
  278MOL0     H38305   2.357   7.135   1.231 -0.0045  0.1237 -2.1620
  278MOL0     H38306   2.505   7.177   1.322 -1.0808 -0.3431  0.8553
  278MOL0     H38307   2.347   7.014   1.441 -1.6226 -2.8117 -0.5481
  278MOL0     H38308   2.384   6.898   1.319  1.9491  0.3550 -0.3317
  278MOL0     H38309   2.617   7.035   1.474 -1.9648  0.3414  0.8713
  278MOL0     H38310   2.618   6.883   1.386  2.1254  0.0639  0.4095
  278MOL0     H38311   2.613   6.881   1.650  0.7715 -0.4257  0.3175
  278MOL0     H38312   2.456   6.945   1.631  1.3158  3.1209 -1.7107
  278MOL0     H38313   2.603   6.668   1.412  0.1808 -0.7625  0.0150
  278MOL0     H38314   2.376   6.428   1.303 -3.1857  3.3915  0.9471
  278MOL0     H38315   2.362   6.349   1.464 -0.7768  1.7384  0.2687
  278MOL0     H38316   2.624   6.395   1.316  4.3690 -3.0178  0.0689
  278MOL0     H38317   2.622   6.344   1.483  1.5508  0.9302 -1.6275
  278MOL0     H38318   2.496   6.147   1.403  0.1310  1.7337  1.9810
  278MOL0     H38319   2.515   6.208   1.232  0.8305  1.9735 -0.1676
  278MOL0     H38320   2.680   6.031   1.339  0.6679 -0.7425 -2.0055
  278MOL0     H38321   2.732   6.141   1.220 -1.6080  1.9053 -1.3338
  278MOL0     H38322   2.887   6.011   1.259 -1.2081  0.4839  1.2322
  278MOL0     H38323   3.051   5.903   1.148 -2.3046  1.8745  2.8599
  278MOL0     H38324   3.079   5.780   1.272 -1.4894  0.8905  2.9933
  278MOL0     H38325   3.221   5.872   1.188 -0.7101 -0.1353 -1.7044
  278MOL0     H38326   3.500   5.877   1.615  2.4699 -1.3425  1.1354
  278MOL0     H38327   3.728   5.844   1.685 -2.1746 -0.4204  0.1092
  278MOL0     H38328   4.082   6.081   1.730 -0.4732 -0.9067  1.4661
  278MOL0     H38329   3.940   6.170   1.674  1.2893  0.3666 -1.6715
  278MOL0     H38330   3.788   6.059   1.818 -0.8919  1.1272  0.6030
  278MOL0     H38331   3.897   5.941   1.865 -1.2547  0.8300  0.7642
  278MOL0     H38332   3.918   6.242   1.938 -2.7438  0.2060  2.9410
  278MOL0     H38333   4.059   6.136   1.953 -0.3503 -1.7434 -0.8050
  278MOL0     H38334   3.940   6.002   2.101  0.4088  1.3024 -1.0444
  278MOL0     H38335   3.777   6.076   2.081  0.4097 -3.1830  0.3951
  278MOL0     H38336   3.890   6.279   2.200  0.3863  1.0006  3.5014
  278MOL0     H38337   3.857   6.141   2.299 -1.1025  3.4707  0.5555
  278MOL0     H38338   4.113   6.227   2.179 -2.1801  0.1592 -0.2968
  278MOL0     H38339   4.097   6.067   2.273  1.9963  0.4094  0.2071
  278MOL0     H38340   4.008   6.327   2.402 -0.4675 -0.7553  0.7031
  278MOL0     H38341   4.176   6.309   2.385  1.8913 -1.8314  0.3914
  278MOL0     H38342   4.201   6.092   2.495 -0.3950 -1.5099  0.1917
  278MOL0     H38343   4.041   6.093   2.550 -0.0275  1.7723  1.9171
  278MOL0     H38344   3.865   6.164   1.459 -0.4633 -0.1752 -1.9529
  278MOL0     H38345   3.633   6.226   1.401  1.3075 -1.3829 -1.1225
  278MOL0     H38346   3.237   6.204   1.545 -1.7294  1.4173  0.4635
  278MOL0     H38347   2.996   6.275   1.559 -0.3797  2.9631 -2.1099
  278MOL0     H38348   3.062   7.083   1.015 -1.2282  1.7712 -0.1596
  278MOL0     H38349   3.297   7.015   0.961 -0.0180 -2.0263 -2.1597
  278MOL0     H38350   3.616   6.908   0.829 -0.9763 -0.8789 -0.2996
  278MOL0     H38351   3.824   6.777   0.837  2.1395 -1.5293 -1.1555
  278MOL0     H38352   4.053   6.726   0.776 -1.2147  0.5751 -0.6982
  278MOL0     H38353   3.964   6.576   0.781 -0.4778  2.6237  1.8651
  278MOL0     H38354   4.226   6.629   0.628 -0.3463  0.4896 -0.5789
  278MOL0     H38355   4.123   6.477   0.613  0.2507 -1.4756  1.4030
  278MOL0     H38356   4.265   6.578   0.865  2.9630  0.0649 -0.2909
  278MOL0     H38357   4.153   6.439   0.853 -0.0438 -2.6148 -3.0603
  278MOL0     H38358   4.303   6.314   0.718  3.1142 -0.7702 -0.3680
  278MOL0     H38359   4.373   6.358   0.868 -0.8391 -1.0383 -0.0210
  278MOL0     H38360   4.623   6.600   0.604 -2.3693  4.8303  0.4317
  278MOL0     H38361   3.791   6.747   0.402 -0.1065  0.4074  0.1303
  278MOL0     H38362   3.625   6.870   0.281  3.3506  1.2592  0.8577
  278MOL0     H38363   3.486   6.858   0.386  0.3658 -0.9336  4.3889
  278MOL0     H38364   3.574   7.011   0.383 -1.1972  0.0321  2.5326
  279MOL0     O38365   5.333  10.220   2.054  0.0427  0.1693 -0.4021
  279MOL0     C38366   5.317  10.290   2.159 -0.1652  0.4180  0.4824
  279MOL0     O38367   5.401  10.391   2.203 -0.5765  0.3690  0.2890
  279MOL0     C38368   5.501  10.428   2.119  0.1065 -0.5464 -0.0976
  279MOL0     C38369   5.488  10.540   2.033  0.1388 -0.2920  1.3237
  279MOL0     C38370   5.594  10.572   1.952 -0.5910 -0.4188  0.0286
  279MOL0     C38371   5.720  10.510   1.950 -0.1237  0.2269 -0.6431
  279MOL0     O38372   5.836  10.539   1.879 -0.0314 -0.2992  0.0763
  279MOL0     C38373   5.836  10.672   1.812 -1.0572  0.2799  0.4436
  279MOL0     C38374   5.972  10.712   1.751  0.2625 -0.8066  0.0321
  279MOL0     C38375   5.953  10.848   1.698  0.3452  0.1167 -0.1925
  279MOL0     C38376   6.076  10.921   1.658 -0.1803 -0.1321 -0.0417
  279MOL0     C38377   6.048  11.064   1.602 -0.7261  1.3412 -0.3421
  279MOL0     C38378   6.189  11.134   1.587 -0.9880  0.3009 -0.2146
  279MOL0     C38379   6.153  11.281   1.545 -0.1206 -0.1519  0.2786
  279MOL0     C38380   6.273  11.376   1.538 -1.0654  0.0298 -0.3070
  279MOL0     N38381   6.384  11.325   1.460 -0.3586 -0.9316  0.0176
  279MOL0     C38382   6.378  11.287   1.328  0.0282  0.4411  0.2809
  279MOL0     C38383   6.506  11.236   1.301  0.9109  0.9897  0.2216
  279MOL0     C38384   6.552  11.161   1.177 -0.5277  0.1739  0.1696
  279MOL0     C38385   6.575  11.018   1.210 -0.0314 -0.3458 -0.3051
  279MOL0     C38386   6.454  10.922   1.158  0.1923 -0.2838 -0.5462
  279MOL0     C38387   6.312  10.958   1.209  0.8429 -0.3251  0.7389
  279MOL0     O38388   6.237  10.857   1.136  0.8812  0.6220  0.1529
  279MOL0     C38389   6.104  10.832   1.175  0.2306 -0.3575  0.7338
  279MOL0     C38390   6.047  10.714   1.137  1.2613 -0.1639 -0.1819
  279MOL0     C38391   5.908  10.697   1.152  0.0104 -0.2118 -0.4379
  279MOL0     C38392   5.851  10.566   1.096 -0.3643 -0.0129 -0.4519
  279MOL0     C38393   5.825  10.783   1.222  0.1170  0.3019  0.5154
  279MOL0     C38394   5.674  10.770   1.237  0.3776 -0.0589  0.4714
  279MOL0     O38395   5.615  10.823   1.350  0.2935 -0.8662 -0.9945
  279MOL0     C38396   5.479  10.849   1.359 -0.9631 -0.1501 -0.2944
  279MOL0     C38397   5.413  10.926   1.255 -0.2785  0.1888  0.0349
  279MOL0     C38398   5.278  10.954   1.267 -0.4337 -0.1365  0.0469
  279MOL0     C38399   5.209  10.916   1.379  0.6890 -0.3570 -0.2258
  279MOL0     O38400   5.080  10.939   1.414  0.6202 -0.6368  0.1345
  279MOL0     C38401   5.022  11.066   1.372  0.2630  0.4674 -0.2192
  279MOL0     C38402   4.861  11.055   1.381  0.6986 -1.4543  0.4298
  279MOL0     C38403   4.795  11.055   1.239  0.6022 -0.9316 -0.3254
  279MOL0     C38404   4.634  11.063   1.245  0.0520  0.5476  0.2601
  279MOL0     C38405   4.575  11.078   1.099  0.4190 -0.1245  0.1546
  279MOL0     C38406   4.435  11.125   1.102 -0.3716  0.7880  0.0780
  279MOL0     C38407   4.373  11.106   0.966 -0.7185 -0.2178 -0.0678
  279MOL0     C38408   4.220  11.103   0.971 -0.7516 -0.0889  0.8589
  279MOL0    Cl38409   4.171  11.100   0.793 -0.1284  0.1156  0.0424
  279MOL0     C38410   5.269  10.839   1.478 -0.3479  0.7986  0.6226
  279MOL0     C38411   5.402  10.796   1.461 -0.4517 -0.2488  0.8212
  279MOL0     O38412   5.617  10.702   1.149 -0.2138 -0.2497 -0.6305
  279MOL0     C38413   5.887  10.902   1.263 -0.6065 -0.0509 -1.0754
  279MOL0     C38414   6.023  10.925   1.239  0.1622 -0.2892  0.0800
  279MOL0     N38415   6.586  11.247   1.413 -0.5234  0.4695 -0.0246
  279MOL0     N38416   6.507  11.295   1.508 -0.7437 -0.7020  0.5801
  279MOL0     C38417   5.733  10.407   2.048 -0.1842  1.1828  0.3759
  279MOL0     C38418   5.628  10.368   2.124 -0.2972  0.2058 -0.9705
  279MOL0     C38419   5.204  10.274   2.252  0.2766  0.1810  0.0196
  279MOL0     C38420   5.156  10.387   2.311  0.0781 -0.1176  0.8695
  279MOL0     C38421   5.036  10.391   2.388 -0.5189 -0.3981  0.7987
  279MOL0     C38422   4.967  10.268   2.414 -0.0150 -0.3183 -0.2405
  279MOL0     O38423   4.850  10.267   2.483 -0.7055  0.1292 -0.4481
  279MOL0     C38424   4.745  10.177   2.443 -0.4411  0.0058  0.3202
  279MOL0     C38425   4.661  10.123   2.551  0.3521 -0.3450 -0.3044
  279MOL0     C38426   4.534  10.051   2.511  0.4262  0.2247  0.5282
  279MOL0     C38427   4.434  10.152   2.437  0.6697  0.0408 -1.0397
  279MOL0     C38428   4.322  10.077   2.390  0.7210 -0.1977  0.1244
  279MOL0     C38429   4.223  10.016   2.348  0.3476  0.3522  0.5945
  279MOL0     C38430   5.023  10.155   2.357  0.1326  0.3006 -0.0217
  279MOL0     C38431   5.144  10.154   2.279  0.6424  0.0023  0.0193
  279MOL0     C38432   5.187  10.029   2.210  0.1950  0.2176 -0.6688
  279MOL0     H38433   5.400  10.602   2.024  0.2345 -0.4515 -1.8561
  279MOL0     H38434   5.567  10.644   1.875 -2.1214 -1.3596 -0.3481
  279MOL0     H38435   5.799  10.745   1.885 -2.1446  1.5238 -1.2834
  279MOL0     H38436   5.754  10.662   1.740  0.3961 -1.0199 -1.1156
  279MOL0     H38437   6.041  10.727   1.835 -1.0667  1.5652  0.7998
  279MOL0     H38438   6.008  10.640   1.677 -3.1348 -0.5972 -2.0213
  279MOL0     H38439   5.880  10.846   1.616 -1.7923  0.2355  1.6102
  279MOL0     H38440   5.905  10.911   1.774 -0.1090  0.6708 -0.9165
  279MOL0     H38441   6.148  10.927   1.740 -3.0887 -0.4343  2.7155
  279MOL0     H38442   6.127  10.860   1.583  4.1832  0.3927  2.1760
  279MOL0     H38443   5.979  11.107   1.675 -3.0518 -2.0234 -0.2785
  279MOL0     H38444   5.999  11.059   1.504 -2.0784 -1.0281  0.3515
  279MOL0     H38445   6.238  11.139   1.685 -0.8170  2.1146 -0.3713
  279MOL0     H38446   6.258  11.087   1.516 -0.9952  0.1213 -0.1051
  279MOL0     H38447   6.076  11.324   1.610 -1.4800 -0.7431 -0.9151
  279MOL0     H38448   6.105  11.273   1.448 -0.6873 -0.1074  0.5519
  279MOL0     H38449   6.234  11.471   1.502 -0.3330 -0.3431 -2.2157
  279MOL0     H38450   6.319  11.387   1.637  0.7441  0.8172 -1.1833
  279MOL0     H38451   6.294  11.302   1.261  0.8244  0.4281 -0.7596
  279MOL0     H38452   6.652  11.203   1.157  1.0689 -1.8316  3.0771
  279MOL0     H38453   6.484  11.173   1.093 -1.4997 -2.5402  0.4661
  279MOL0     H38454   6.665  10.973   1.168 -0.2100 -0.7294 -0.2822
  279MOL0     H38455   6.585  11.006   1.319 -0.1760 -0.1365 -0.2676
  279MOL0     H38456   6.454  10.939   1.050 -0.0749  1.1148 -0.3585
  279MOL0     H38457   6.484  10.821   1.183  0.0086 -0.2698 -0.2643
  279MOL0     H38458   6.295  10.953   1.317  1.4745 -1.2482  0.8052
  279MOL0     H38459   6.279  11.056   1.172 -3.0876 -2.0882 -1.0162
  279MOL0     H38460   6.116  10.643   1.093 -2.7041 -4.0598 -0.8249
  279MOL0     H38461   5.807  10.571   0.997 -0.2865 -1.1055 -0.5579
  279MOL0     H38462   5.791  10.511   1.169  0.5341  1.7677  1.7759
  279MOL0     H38463   5.931  10.498   1.064 -0.7958 -0.8402  0.1866
  279MOL0     H38464   5.466  10.969   1.171  1.5712 -1.0176  0.5070
  279MOL0     H38465   5.219  11.005   1.192  0.8282  0.2315 -0.7148
  279MOL0     H38466   5.042  11.150   1.440 -0.0436  1.1492 -0.9575
  279MOL0     H38467   5.043  11.092   1.268  0.3702  0.6965 -0.1389
  279MOL0     H38468   4.843  10.965   1.440  0.6279 -0.0233  2.7120
  279MOL0     H38469   4.823  11.146   1.429 -2.1749 -0.2779 -3.5215
  279MOL0     H38470   4.820  10.964   1.184 -0.7360 -1.2357 -0.4796
  279MOL0     H38471   4.818  11.148   1.186 -0.1836 -0.3038  0.4103
  279MOL0     H38472   4.598  11.131   1.322 -1.4624 -1.1569  1.1309
  279MOL0     H38473   4.609  10.968   1.294  1.8854 -0.1402 -0.0427
  279MOL0     H38474   4.629  11.147   1.035  0.6517  0.9100  1.4194
  279MOL0     H38475   4.579  10.980   1.051  1.2214  0.1894 -0.4323
  279MOL0     H38476   4.429  11.220   1.157  1.2138  0.1148  1.5132
  279MOL0     H38477   4.374  11.062   1.167 -0.1105 -1.2097 -1.4949
  279MOL0     H38478   4.411  11.024   0.904 -2.8367  0.8806 -3.0355
  279MOL0     H38479   4.406  11.198   0.917  2.4922 -1.2078  0.0150
  279MOL0     H38480   4.182  11.182   1.037 -0.3157 -1.4418  2.7928
  279MOL0     H38481   4.200  11.005   1.015  0.3691 -0.0299  1.5424
  279MOL0     H38482   5.218  10.815   1.570 -1.1552  0.2093  0.0365
  279MOL0     H38483   5.446  10.729   1.534 -1.2008 -4.4493 -2.1811
  279MOL0     H38484   5.848  10.995   1.303 -0.5394 -0.0139 -1.0946
  279MOL0     H38485   6.078  11.018   1.254 -1.0543  0.3940  0.4478
  279MOL0     H38486   5.828  10.354   2.056 -1.2123 -0.6931  0.7276
  279MOL0     H38487   5.639  10.280   2.187 -0.6771 -0.5727 -1.9741
  279MOL0     H38488   5.195  10.487   2.295 -1.7127  0.8012  1.8547
  279MOL0     H38489   5.002  10.486   2.428  0.1724 -0.0300  0.5280
  279MOL0     H38490   4.695  10.227   2.359  0.1979 -0.1998 -0.1856
  279MOL0     H38491   4.781  10.087   2.394 -0.3759 -0.1432  0.6350
  279MOL0     H38492   4.640  10.213   2.610 -0.4239  0.4793 -1.7869
  279MOL0     H38493   4.719  10.048   2.606 -1.3806 -1.4574  0.0684
  279MOL0     H38494   4.555   9.969   2.442  0.3483 -1.2591  2.1899
  279MOL0     H38495   4.505   9.992   2.599  1.6690 -1.2175  0.0142
  279MOL0     H38496   4.474  10.201   2.348  1.2160 -1.3940 -1.5939
  279MOL0     H38497   4.401  10.216   2.520 -1.9525 -1.5985 -0.7103
  279MOL0     H38498   4.148   9.959   2.298  1.1548 -0.4996  0.3271
  279MOL0     H38499   4.970  10.060   2.354  0.7101 -0.1036 -4.5607
  279MOL0     H38500   5.294  10.008   2.226  0.3642 -0.5098 -2.5063
  279MOL0     H38501   5.136   9.945   2.256 -0.0767  1.5081  1.5440
  279MOL0     H38502   5.159  10.017   2.105 -1.4366  2.6661 -0.5840
  280MOL0     O38503   2.411   4.373  11.015  0.2994  0.3124  0.2646
  280MOL0     C38504   2.445   4.442  11.114  0.2920  0.3497  0.0187
  280MOL0     O38505   2.558   4.423  11.182  0.5402  0.0922  0.6254
  280MOL0     C38506   2.649   4.340  11.124  0.5223 -0.2816  0.8072
  280MOL0     C38507   2.763   4.385  11.047  0.3148  0.1553 -1.1432
  280MOL0     C38508   2.851   4.288  11.003 -0.4353 -0.3443  0.6547
  280MOL0     C38509   2.847   4.153  11.023  0.0603 -1.1751 -0.2571
  280MOL0     O38510   2.936   4.066  10.972  0.4423  0.2589  0.1871
  280MOL0     C38511   2.986   4.080  10.838 -0.8449  0.3558 -1.1228
  280MOL0     C38512   2.965   3.943  10.773  0.9703  0.0615  0.5654
  280MOL0     C38513   2.989   3.953  10.612 -0.4501  0.1370 -0.6079
  280MOL0     C38514   2.924   3.839  10.542 -0.0793 -0.2344 -0.1664
  280MOL0     C38515   2.922   3.843  10.384  0.4495  0.3431 -0.3547
  280MOL0     C38516   3.047   3.785  10.317 -0.0848 -0.2412 -0.5049
  280MOL0     C38517   3.047   3.631  10.333 -0.0338  0.0293 -1.0677
  280MOL0     C38518   3.167   3.576  10.257  0.8317 -0.4165  0.1327
  280MOL0     N38519   3.287   3.643  10.302  0.5187 -0.2809 -0.3486
  280MOL0     C38520   3.363   3.597  10.410  0.6277 -0.1242 -0.2134
  280MOL0     C38521   3.476   3.674  10.424 -0.0392  0.6774 -0.3676
  280MOL0     C38522   3.561   3.666  10.545  0.1296 -0.1595 -0.8258
  280MOL0     C38523   3.704   3.734  10.527  0.5686 -0.1648  0.3426
  280MOL0     C38524   3.804   3.703  10.635  0.6092 -0.5186  0.4656
  280MOL0     C38525   3.921   3.799  10.637  1.3122  0.8321  0.5232
  280MOL0     O38526   4.002   3.762  10.526 -0.4653 -0.6081  0.2001
  280MOL0     C38527   4.133   3.779  10.544  0.2584 -0.4498  0.4317
  280MOL0     C38528   4.203   3.891  10.501 -0.3504 -0.3551  0.3289
  280MOL0     C38529   4.342   3.896  10.522 -0.0340  0.5429  0.0036
  280MOL0     C38530   4.404   4.023  10.476 -1.3348  0.5387  0.0348
  280MOL0     C38531   4.409   3.786  10.585  0.3006 -0.4815  0.4490
  280MOL0     C38532   4.557   3.780  10.602  0.5662  0.2157 -0.2768
  280MOL0     O38533   4.603   3.655  10.637  0.2758  0.5197  0.0047
  280MOL0     C38534   4.736   3.638  10.667 -0.0251  0.3789 -1.0118
  280MOL0     C38535   4.794   3.718  10.763 -0.5313 -0.1081 -0.3612
  280MOL0     C38536   4.932   3.712  10.786  0.5981 -0.2384 -0.3872
  280MOL0     C38537   5.012   3.624  10.714  0.2394 -0.2560  0.1788
  280MOL0     O38538   5.141   3.591  10.759  0.2214  0.3192  0.9210
  280MOL0     C38539   5.192   3.673  10.867 -0.4457  0.0114 -0.0706
  280MOL0     C38540   5.350   3.645  10.876  0.4546  0.4752 -0.8523
  280MOL0     C38541   5.440   3.708  10.767 -0.3239 -0.2398  0.4498
  280MOL0     C38542   5.582   3.651  10.782  0.0782  0.1006 -0.2654
  280MOL0     C38543   5.680   3.725  10.688 -0.0301 -0.0886  0.4885
  280MOL0     C38544   5.816   3.651  10.687 -0.2448  0.2671  0.5510
  280MOL0     C38545   5.887   3.661  10.824  0.6678  0.1924  0.7126
  280MOL0     C38546   6.030   3.603  10.812  0.3604 -0.1493  0.3843
  280MOL0    Cl38547   6.111   3.580  10.960 -0.0222 -0.3776  0.1656
  280MOL0     C38548   4.950   3.545  10.620  0.5006 -0.0312 -0.1269
  280MOL0     C38549   4.816   3.551  10.599  0.3628  0.3799 -0.6791
  280MOL0     O38550   4.631   3.867  10.568 -0.7368 -0.1542  0.3984
  280MOL0     C38551   4.332   3.681  10.629  0.6627  0.1192 -0.2972
  280MOL0     C38552   4.196   3.674  10.606 -0.1093 -0.0884 -0.8039
  280MOL0     N38553   3.464   3.767  10.326  0.2157 -0.3540  0.9911
  280MOL0     N38554   3.355   3.745  10.249 -1.1675 -0.9853  0.1211
  280MOL0     C38555   2.745   4.109  11.105  0.4660  0.3195  0.1451
  280MOL0     C38556   2.642   4.200  11.149 -0.3351  0.0178  0.2606
  280MOL0     C38557   2.354   4.561  11.156 -1.0428  0.6165  0.2992
  280MOL0     C38558   2.258   4.608  11.068 -0.1329 -0.1475 -0.2596
  280MOL0     C38559   2.164   4.703  11.113  0.2976  0.3715 -0.6092
  280MOL0     C38560   2.166   4.758  11.232  0.7556 -0.4028  0.0860
  280MOL0     O38561   2.073   4.861  11.259  0.1088  0.2581 -0.5792
  280MOL0     C38562   2.034   4.892  11.392  0.9348 -0.0241 -1.0999
  280MOL0     C38563   1.925   4.992  11.405 -0.8019  0.6901 -0.3545
  280MOL0     C38564   1.794   4.972  11.323  0.6400 -0.2397 -0.2727
  280MOL0     C38565   1.714   4.850  11.375  1.0108 -0.1182 -0.6522
  280MOL0     C38566   1.601   4.823  11.279 -0.0322  0.0890  0.8983
  280MOL0     C38567   1.507   4.821  11.193  0.0197 -0.3275 -0.1076
  280MOL0     C38568   2.265   4.718  11.321 -1.3956 -0.2330 -0.0569
  280MOL0     C38569   2.365   4.626  11.282  0.0850 -0.0458 -0.0306
  280MOL0     C38570   2.454   4.576  11.389 -0.5516 -0.3535  0.2088
  280MOL0     H38571   2.783   4.491  11.039 -0.3006  0.3304 -0.4742
  280MOL0     H38572   2.922   4.334  10.937 -4.7393  2.6445 -2.4479
  280MOL0     H38573   3.093   4.099  10.846 -0.1322 -3.3571  0.6864
  280MOL0     H38574   2.930   4.154  10.780 -0.8578  1.3872  0.1574
  280MOL0     H38575   3.039   3.877  10.818  0.2704 -1.0890  0.0849
  280MOL0     H38576   2.868   3.896  10.790  2.3430 -4.3005 -2.1571
  280MOL0     H38577   2.942   4.047  10.584  0.5420  0.9278  0.3047
  280MOL0     H38578   3.096   3.951  10.587 -0.3301 -1.8027 -0.1428
  280MOL0     H38579   2.973   3.746  10.571  2.4956  0.3995 -2.0967
  280MOL0     H38580   2.819   3.846  10.573  0.8157  2.3316  2.8209
  280MOL0     H38581   2.900   3.946  10.355  2.3890  1.3409  1.4580
  280MOL0     H38582   2.835   3.787  10.350  0.1138  0.7663 -0.2068
  280MOL0     H38583   3.043   3.810  10.211 -1.4839  0.6595 -0.2640
  280MOL0     H38584   3.135   3.826  10.369  0.0005 -2.6046  1.4042
  280MOL0     H38585   2.956   3.577  10.306 -0.7046 -1.2877  3.1382
  280MOL0     H38586   3.073   3.604  10.436 -0.3777  1.2656 -0.6381
  280MOL0     H38587   3.182   3.473  10.292  0.2846 -0.6441 -0.2919
  280MOL0     H38588   3.148   3.581  10.149 -0.7311  1.9108  0.4522
  280MOL0     H38589   3.331   3.533  10.491  0.2781  3.0050  2.3150
  280MOL0     H38590   3.584   3.560  10.559 -0.8452 -0.5131 -1.7668
  280MOL0     H38591   3.500   3.699  10.630  0.4879 -2.3869  0.3714
  280MOL0     H38592   3.743   3.691  10.434  1.5314 -2.1803  1.6069
  280MOL0     H38593   3.681   3.840  10.526 -1.7943 -0.6283  0.1700
  280MOL0     H38594   3.748   3.722  10.727  1.8105 -4.1613  2.1315
  280MOL0     H38595   3.831   3.597  10.633  3.5940  0.0669 -3.7530
  280MOL0     H38596   3.888   3.904  10.633 -0.6758  0.3073  1.7223
  280MOL0     H38597   3.974   3.785  10.732  2.1152  1.7185  0.2289
  280MOL0     H38598   4.152   3.965  10.440 -2.3735 -2.0354 -0.1197
  280MOL0     H38599   4.464   4.054  10.561 -1.8625  1.6583  0.0240
  280MOL0     H38600   4.324   4.098  10.470 -1.5448  0.3133 -0.0193
  280MOL0     H38601   4.461   4.001  10.385 -0.0279  1.2658  0.6601
  280MOL0     H38602   4.735   3.793  10.814  0.2848  0.2203  0.1325
  280MOL0     H38603   4.960   3.772  10.872 -1.7311  2.0413 -1.0895
  280MOL0     H38604   5.174   3.781  10.863  1.8022  0.4546  0.2555
  280MOL0     H38605   5.147   3.630  10.957 -0.9395  1.3597  0.3541
  280MOL0     H38606   5.387   3.669  10.976 -0.1608 -2.6397  0.2344
  280MOL0     H38607   5.365   3.537  10.871 -1.3223  0.0732  0.9133
  280MOL0     H38608   5.444   3.817  10.777  2.7251 -0.3145  0.9690
  280MOL0     H38609   5.409   3.686  10.665  1.2430 -2.1605  0.3202
  280MOL0     H38610   5.576   3.548  10.745  0.9052 -0.0342 -0.0598
  280MOL0     H38611   5.620   3.658  10.884  1.4586 -1.4980 -0.6166
  280MOL0     H38612   5.646   3.725  10.584  1.8929 -0.1365 -0.1706
  280MOL0     H38613   5.689   3.830  10.716 -2.1945 -0.3878  2.6561
  280MOL0     H38614   5.875   3.689  10.603  0.3445 -3.8313 -1.1258
  280MOL0     H38615   5.790   3.548  10.664 -0.7680  0.5301 -0.0570
  280MOL0     H38616   5.828   3.609  10.900  0.9620 -1.3571 -0.0752
  280MOL0     H38617   5.887   3.766  10.854  1.1626  1.0144 -1.9372
  280MOL0     H38618   6.097   3.666  10.753  1.4023 -3.3996 -2.1459
  280MOL0     H38619   6.033   3.507  10.761 -0.0080 -1.1319  2.1323
  280MOL0     H38620   5.010   3.476  10.562  0.5775  1.3897 -1.8057
  280MOL0     H38621   4.770   3.479  10.532  0.1304 -0.7381  0.6391
  280MOL0     H38622   4.374   3.594  10.678  0.5300  0.9865  1.4256
  280MOL0     H38623   4.135   3.591  10.640 -0.0164  0.5092  0.9273
  280MOL0     H38624   2.743   4.002  11.120 -1.1040  0.1306 -1.1826
  280MOL0     H38625   2.564   4.152  11.208  2.0936 -0.9787  2.9180
  280MOL0     H38626   2.252   4.578  10.964  0.2482  1.6505 -0.8341
  280MOL0     H38627   2.074   4.734  11.060 -0.8940  0.7899  1.5358
  280MOL0     H38628   1.995   4.810  11.454  1.4129  1.7308  1.7009
  280MOL0     H38629   2.118   4.911  11.459  1.2068 -2.3670 -0.6623
  280MOL0     H38630   1.970   5.081  11.360  1.3149  0.9655  2.0376
  280MOL0     H38631   1.908   5.003  11.513  0.1039  0.0830 -0.1344
  280MOL0     H38632   1.730   5.056  11.353  0.7284 -0.7268  1.3991
  280MOL0     H38633   1.811   4.969  11.215 -1.5800  2.9396 -0.8734
  280MOL0     H38634   1.665   4.853  11.472 -2.2548 -4.3484 -1.8426
  280MOL0     H38635   1.778   4.762  11.371 -0.3701 -1.2068  0.2530
  280MOL0     H38636   1.424   4.813  11.126 -0.7205  1.4234  0.5485
  280MOL0     H38637   2.264   4.772  11.415 -2.4148  0.5667 -0.5067
  280MOL0     H38638   2.432   4.605  11.492 -1.2975 -3.0071  0.8658
  280MOL0     H38639   2.450   4.467  11.397 -0.2046 -0.4352 -0.6514
  280MOL0     H38640   2.557   4.591  11.356 -0.7412 -1.0497 -0.7431
  281MOL0     O38641   0.684   6.843   4.326 -0.1771  0.0322  0.1209
  281MOL0     C38642   0.721   6.729   4.365 -0.5359 -0.1882  0.6753
  281MOL0     O38643   0.848   6.678   4.355  0.2550 -0.1000 -0.5763
  281MOL0     C38644   0.947   6.748   4.294 -0.0227  0.0932  0.3584
  281MOL0     C38645   0.938   6.790   4.156  0.3658  0.1616 -0.6161
  281MOL0     C38646   1.052   6.848   4.098 -0.4068  0.1427 -0.1385
  281MOL0     C38647   1.169   6.863   4.180 -0.6326 -0.4333 -0.7552
  281MOL0     O38648   1.276   6.936   4.145 -0.1638 -0.3771 -0.1068
  281MOL0     C38649   1.255   7.083   4.152 -0.8217  0.8839  0.5294
  281MOL0     C38650   1.394   7.142   4.133 -0.0123 -0.2099 -0.2054
  281MOL0     C38651   1.393   7.290   4.093  0.2397 -0.3480 -0.4281
  281MOL0     C38652   1.536   7.344   4.119 -1.1487 -0.5657 -0.3716
  281MOL0     C38653   1.566   7.483   4.057 -0.3617 -0.6472 -0.9288
  281MOL0     C38654   1.706   7.531   4.121 -0.0643 -0.9014  0.3436
  281MOL0     C38655   1.785   7.626   4.025 -0.4692 -0.2911  0.5155
  281MOL0     C38656   1.728   7.768   4.026 -0.7823  0.0140  0.0492
  281MOL0     N38657   1.780   7.844   4.141  0.6930 -0.5900 -0.4602
  281MOL0     C38658   1.706   7.928   4.223 -0.4589  0.3309  0.7211
  281MOL0     C38659   1.789   7.973   4.315  0.3760  0.4335 -0.0887
  281MOL0     C38660   1.761   8.072   4.428  0.5254 -0.9316 -0.6875
  281MOL0     C38661   1.608   8.110   4.426 -0.3531 -0.3289  0.7241
  281MOL0     C38662   1.571   8.212   4.543  0.8889 -0.2736  0.0556
  281MOL0     C38663   1.614   8.151   4.678  0.9672  0.1714  1.0810
  281MOL0     O38664   1.515   8.175   4.781 -0.0900  0.3461 -0.9441
  281MOL0     C38665   1.407   8.090   4.784  0.2029  0.1629 -0.7440
  281MOL0     C38666   1.351   8.067   4.913 -0.2982 -0.2728  0.2324
  281MOL0     C38667   1.232   7.999   4.935  0.8847  0.3386 -1.0403
  281MOL0     C38668   1.179   7.976   5.077  0.8334  1.0324 -0.3279
  281MOL0     C38669   1.169   7.932   4.831  0.0949 -0.4610 -0.0763
  281MOL0     C38670   1.067   7.823   4.847 -0.1180 -0.1030  0.0285
  281MOL0     O38671   1.058   7.750   4.961  0.0146  0.1877  0.7388
  281MOL0     C38672   0.945   7.665   4.972 -0.7945  0.1513  0.3430
  281MOL0     C38673   0.828   7.742   5.006  1.1836  0.6698 -0.8466
  281MOL0     C38674   0.703   7.671   5.006  0.0656  0.4436 -0.6659
  281MOL0     C38675   0.698   7.535   4.983  0.3720  0.1461 -0.7500
  281MOL0     O38676   0.574   7.480   4.969 -0.2985 -0.2346  0.1122
  281MOL0     C38677   0.550   7.350   5.030 -0.6357 -0.0159 -0.4909
  281MOL0     C38678   0.400   7.306   5.043 -0.2234 -0.4147  0.0835
  281MOL0     C38679   0.338   7.332   5.182 -0.1181  0.3419 -0.0600
  281MOL0     C38680   0.330   7.482   5.212  0.1084 -0.1421  0.3014
  281MOL0     C38681   0.238   7.512   5.331  0.6117  0.2414 -1.0818
  281MOL0     C38682   0.097   7.462   5.324 -0.5399  0.3462  0.3155
  281MOL0     C38683   0.011   7.492   5.438 -0.9892  0.3082 -0.1514
  281MOL0     C38684   0.044   7.408   5.564 -0.5056  0.5594  0.8423
  281MOL0    Cl38685   0.039   7.229   5.535  0.0021  0.7351 -0.5487
  281MOL0     C38686   0.821   7.459   4.974 -0.1707  0.7060 -0.1716
  281MOL0     C38687   0.946   7.530   4.962  0.3795 -0.7103  0.4313
  281MOL0     O38688   1.008   7.793   4.748  0.9384 -0.4930 -0.1908
  281MOL0     C38689   1.228   7.939   4.702 -0.4769 -0.2825  0.4885
  281MOL0     C38690   1.346   8.028   4.680 -0.3866  0.1390 -0.2467
  281MOL0     N38691   1.907   7.913   4.284  0.4351  0.3883 -0.3605
  281MOL0     N38692   1.909   7.837   4.183  0.1808  0.4146 -0.1977
  281MOL0     C38693   1.174   6.829   4.322  0.7934 -0.7166  0.4670
  281MOL0     C38694   1.054   6.772   4.376 -0.0128 -0.4221  0.6465
  281MOL0     C38695   0.606   6.642   4.404  0.5607  0.5172 -0.0095
  281MOL0     C38696   0.471   6.689   4.394  0.1992 -0.1371  0.3102
  281MOL0     C38697   0.360   6.596   4.393 -0.1245 -0.3895 -0.3217
  281MOL0     C38698   0.383   6.468   4.436  1.1902  0.3277  0.0831
  281MOL0     O38699   0.283   6.374   4.433  0.5630  0.3662 -0.0310
  281MOL0     C38700   0.143   6.407   4.396  0.6881 -0.0395  0.9935
  281MOL0     C38701   0.050   6.456   4.507 -0.4483 -0.5037 -1.0678
  281MOL0     C38702  -0.086   6.483   4.443  0.1951  0.4120  0.2639
  281MOL0     C38703  -0.205   6.509   4.550 -0.6045  0.5025  0.1204
  281MOL0     C38704  -0.326   6.510   4.472  0.3478 -0.1048  0.5375
  281MOL0     C38705  -0.423   6.509   4.405  0.1332  0.7624 -0.4850
  281MOL0     C38706   0.511   6.427   4.456  0.0610  0.5577  0.2382
  281MOL0     C38707   0.624   6.510   4.449 -1.1200 -0.0375 -0.0649
  281MOL0     C38708   0.762   6.450   4.487  1.0666 -0.5984  0.3585
  281MOL0     H38709   0.847   6.782   4.099  0.5741 -0.2098 -0.8999
  281MOL0     H38710   1.053   6.888   3.998 -3.7158 -0.6147 -0.5945
  281MOL0     H38711   1.221   7.115   4.252 -0.1704 -0.3904  1.1793
  281MOL0     H38712   1.196   7.120   4.067 -1.4395  0.2430  0.6637
  281MOL0     H38713   1.445   7.127   4.229  0.2056 -2.3494 -0.6175
  281MOL0     H38714   1.462   7.085   4.069 -1.7734 -3.4104  0.6023
  281MOL0     H38715   1.354   7.299   3.991 -0.3726 -0.5958 -0.2262
  281MOL0     H38716   1.318   7.344   4.152  0.9153  0.5335 -0.3721
  281MOL0     H38717   1.543   7.360   4.227 -2.0517  0.5324 -0.4525
  281MOL0     H38718   1.611   7.280   4.072  0.0042  1.6276 -1.7115
  281MOL0     H38719   1.489   7.554   4.088  0.3949  0.3327 -1.2461
  281MOL0     H38720   1.568   7.475   3.948 -2.0486  3.4952 -1.4323
  281MOL0     H38721   1.687   7.599   4.203  0.2120  1.1661 -1.2297
  281MOL0     H38722   1.765   7.442   4.148  2.0552  0.6157  0.9540
  281MOL0     H38723   1.768   7.580   3.927 -0.9195 -1.4216  1.1051
  281MOL0     H38724   1.893   7.640   4.040 -0.6815  2.4268  0.1028
  281MOL0     H38725   1.763   7.824   3.938  0.1185 -1.6654 -0.7106
  281MOL0     H38726   1.619   7.769   4.026 -0.7819  0.5522 -0.3212
  281MOL0     H38727   1.599   7.943   4.229 -0.9800 -3.1485  2.7633
  281MOL0     H38728   1.811   8.167   4.412 -1.2338  0.6966  2.6150
  281MOL0     H38729   1.787   8.025   4.524 -4.0654 -1.9023  0.3007
  281MOL0     H38730   1.589   8.164   4.333  0.0141 -0.1141  0.7702
  281MOL0     H38731   1.548   8.019   4.434 -2.5130  1.0570  1.1632
  281MOL0     H38732   1.609   8.314   4.535  2.9125 -0.8663  1.3553
  281MOL0     H38733   1.462   8.220   4.542  0.9968  2.3878 -1.9522
  281MOL0     H38734   1.612   8.042   4.672  1.3243  0.2205 -0.3219
  281MOL0     H38735   1.716   8.189   4.694  0.2803  2.7518 -0.0336
  281MOL0     H38736   1.417   8.105   4.990  1.5563 -2.7189 -0.0052
  281MOL0     H38737   1.070   7.976   5.081  0.8375 -0.1262 -0.0749
  281MOL0     H38738   1.199   8.058   5.147  2.2017  1.7628 -1.4894
  281MOL0     H38739   1.210   7.879   5.116 -1.9584  1.2052  2.7334
  281MOL0     H38740   0.828   7.849   5.018 -1.9249  0.6004  0.7423
  281MOL0     H38741   0.612   7.727   5.021 -1.9737 -2.2336 -2.1596
  281MOL0     H38742   0.603   7.265   4.989  0.2686  0.1605  0.2689
  281MOL0     H38743   0.601   7.351   5.127  0.1042 -1.1359 -0.8528
  281MOL0     H38744   0.337   7.358   4.970 -0.1245 -0.1134  0.2121
  281MOL0     H38745   0.393   7.198   5.022  1.1058  0.0593 -3.4758
  281MOL0     H38746   0.392   7.279   5.261 -0.4005 -0.4260 -0.3660
  281MOL0     H38747   0.241   7.283   5.189  0.5443 -0.9844  0.2840
  281MOL0     H38748   0.289   7.538   5.128 -3.1394  0.1568  1.9358
  281MOL0     H38749   0.429   7.518   5.242 -1.4255  2.4067  2.8013
  281MOL0     H38750   0.275   7.475   5.427 -2.0697 -1.4790 -0.5953
  281MOL0     H38751   0.236   7.621   5.334  2.5868  0.3264 -1.3990
  281MOL0     H38752   0.093   7.354   5.307  1.1060  0.2582  0.3675
  281MOL0     H38753   0.058   7.517   5.238 -1.3430  0.8644  0.9929
  281MOL0     H38754  -0.094   7.468   5.416 -0.6013 -2.2215  0.4752
  281MOL0     H38755   0.020   7.599   5.460  1.8582  0.9795 -3.5486
  281MOL0     H38756  -0.035   7.424   5.638 -1.9713  0.3623 -0.6189
  281MOL0     H38757   0.133   7.438   5.619  0.4317 -2.9144  1.4577
  281MOL0     H38758   0.820   7.350   4.979 -0.0754  0.7487  2.7600
  281MOL0     H38759   1.046   7.489   4.947  0.7840 -0.0569  1.2447
  281MOL0     H38760   1.189   7.878   4.621  4.4483 -2.0493 -0.9231
  281MOL0     H38761   1.386   8.034   4.580  2.7722  5.5166  0.9520
  281MOL0     H38762   1.265   6.849   4.378  0.8981  0.4919 -0.0933
  281MOL0     H38763   1.045   6.715   4.468 -2.7337 -2.5232 -0.7604
  281MOL0     H38764   0.432   6.789   4.380 -1.9235 -0.7363  1.4360
  281MOL0     H38765   0.268   6.642   4.360 -0.7300  0.0442  1.8207
  281MOL0     H38766   0.135   6.469   4.307  0.1233 -0.4334  0.7628
  281MOL0     H38767   0.101   6.314   4.357  1.0029  0.3234 -0.2518
  281MOL0     H38768   0.083   6.549   4.553  3.0011 -2.3547  0.5578
  281MOL0     H38769   0.036   6.377   4.582 -0.3683 -0.3448 -0.8854
  281MOL0     H38770  -0.088   6.567   4.373 -1.9263  2.7250  2.8114
  281MOL0     H38771  -0.120   6.393   4.391  0.4704  0.1500  0.5305
  281MOL0     H38772  -0.192   6.606   4.599  0.4354  0.1216  0.6178
  281MOL0     H38773  -0.206   6.423   4.618 -0.1796  2.5101  2.8285
  281MOL0     H38774  -0.518   6.510   4.355  0.0060  2.0927 -0.2590
  281MOL0     H38775   0.513   6.327   4.498 -1.3523 -0.0228 -1.0002
  281MOL0     H38776   0.822   6.429   4.397 -2.4175 -2.9964 -1.6440
  281MOL0     H38777   0.809   6.517   4.559 -0.9557 -1.2169  2.3522
  281MOL0     H38778   0.748   6.355   4.539  3.1282 -0.5975  0.9849
  282MOL0     O38779   0.732   0.058   0.226  0.3331 -0.3002  0.1732
  282MOL0     C38780   0.643   0.085   0.304  0.9851  0.6869 -0.5206
  282MOL0     O38781   0.643   0.172   0.406 -0.0731 -0.5869  0.5953
  282MOL0     C38782   0.741   0.270   0.429 -0.2638 -0.1959  0.3499
  282MOL0     C38783   0.844   0.303   0.339  0.1680  0.3587 -0.5981
  282MOL0     C38784   0.941   0.400   0.368  0.1414 -1.0751 -0.1832
  282MOL0     C38785   0.924   0.483   0.481 -0.7043  0.1927  0.9987
  282MOL0     O38786   1.022   0.578   0.518  0.1309  0.0627  0.5879
  282MOL0     C38787   1.033   0.686   0.424  0.3847 -0.1162 -0.4235
  282MOL0     C38788   1.184   0.694   0.385  0.2577  0.0219  0.0728
  282MOL0     C38789   1.216   0.801   0.281  0.8505 -0.1401 -0.6019
  282MOL0     C38790   1.346   0.766   0.199  0.3947  0.6045  0.2917
  282MOL0     C38791   1.478   0.751   0.276 -0.0280 -1.2630 -0.4250
  282MOL0     C38792   1.520   0.887   0.344  0.6269 -0.5127  0.3011
  282MOL0     C38793   1.672   0.882   0.379 -0.0006 -0.7630  0.0315
  282MOL0     C38794   1.716   1.007   0.460 -0.1346 -0.8878 -0.2436
  282MOL0     N38795   1.857   1.053   0.453  0.3182  0.7018 -0.4687
  282MOL0     C38796   1.936   1.062   0.339  0.1924 -0.4831  0.2123
  282MOL0     C38797   2.055   1.111   0.382 -0.0518  0.3986 -0.5381
  282MOL0     C38798   2.171   1.143   0.291 -0.5587  0.3214  0.1058
  282MOL0     C38799   2.251   1.265   0.334 -0.0522 -0.2763  0.5694
  282MOL0     C38800   2.368   1.290   0.246  0.2413  0.3648 -0.4171
  282MOL0     C38801   2.435   1.419   0.277 -0.9934  0.0950 -0.4295
  282MOL0     O38802   2.519   1.470   0.172  0.3130  0.3264  0.9292
  282MOL0     C38803   2.654   1.436   0.165  0.5193  0.4047 -0.0854
  282MOL0     C38804   2.728   1.517   0.086 -0.2554 -0.3533 -0.1238
  282MOL0     C38805   2.866   1.498   0.069  0.2629 -0.5932  0.3266
  282MOL0     C38806   2.938   1.581  -0.033  0.8675  0.2637  0.1296
  282MOL0     C38807   2.937   1.396   0.140  0.0089  0.4694  0.2760
  282MOL0     C38808   3.087   1.382   0.155 -0.9269  0.1170  0.1696
  282MOL0     O38809   3.131   1.258   0.201 -0.6229 -1.1329  0.1294
  282MOL0     C38810   3.268   1.239   0.184  0.9290 -0.3655 -0.2888
  282MOL0     C38811   3.357   1.307   0.263  0.5340 -0.8278 -0.6980
  282MOL0     C38812   3.489   1.281   0.253 -0.5863  0.1166 -0.9937
  282MOL0     C38813   3.531   1.180   0.161 -1.1842 -0.6387  0.1272
  282MOL0     O38814   3.669   1.158   0.146  0.2630 -0.3419  0.1792
  282MOL0     C38815   3.719   1.051   0.055  0.4966 -0.2099 -0.0304
  282MOL0     C38816   3.753   1.086  -0.087 -0.1813 -0.7768 -0.3885
  282MOL0     C38817   3.904   1.099  -0.110  0.4950  0.0725  0.2697
  282MOL0     C38818   3.960   0.954  -0.137 -0.2089 -0.1172 -0.0724
  282MOL0     C38819   4.112   0.941  -0.100 -0.6223  0.2760 -0.0531
  282MOL0     C38820   4.184   0.798  -0.144 -0.0375 -0.7761  0.5084
  282MOL0     C38821   4.337   0.790  -0.131 -0.6877 -0.1457 -0.8929
  282MOL0     C38822   4.412   0.920  -0.165 -0.2198  0.1985  0.1236
  282MOL0    Cl38823   4.580   0.873  -0.217  0.6518  0.4625 -0.0300
  282MOL0     C38824   3.438   1.126   0.068 -0.3294 -1.0754 -0.0208
  282MOL0     C38825   3.307   1.155   0.084  0.2333  0.5372  0.7318
  282MOL0     O38826   3.160   1.478   0.120 -0.4683  0.0199 -0.1143
  282MOL0     C38827   2.856   1.312   0.228  0.8990  0.9832 -1.3413
  282MOL0     C38828   2.716   1.330   0.231 -0.5908  0.3946  0.1738
  282MOL0     N38829   2.048   1.117   0.516  0.2291 -0.0534  0.3763
  282MOL0     N38830   1.927   1.094   0.563  0.5707 -0.3109  0.9190
  282MOL0     C38831   0.832   0.447   0.579  0.1122  0.8147 -0.2602
  282MOL0     C38832   0.747   0.331   0.555 -1.0002  0.2375  0.3143
  282MOL0     C38833   0.517   0.023   0.271  0.0892 -0.4706  0.2348
  282MOL0     C38834   0.407   0.105   0.291  0.6336  0.7560 -0.9194
  282MOL0     C38835   0.279   0.058   0.278 -0.2413  0.1856  0.2668
  282MOL0     C38836   0.258  -0.073   0.223  0.4112 -0.1713 -0.3808
  282MOL0     O38837   0.126  -0.118   0.221 -0.4173  0.5873  0.1196
  282MOL0     C38838   0.097  -0.262   0.214 -0.8089 -0.3586  0.4494
  282MOL0     C38839  -0.044  -0.275   0.282  0.0044  0.1884 -0.1563
  282MOL0     C38840  -0.159  -0.212   0.207 -0.5933  0.6492 -0.5785
  282MOL0     C38841  -0.229  -0.322   0.116 -0.2840 -0.0253 -0.0592
  282MOL0     C38842  -0.377  -0.325   0.135 -0.1515  0.3778  0.4597
  282MOL0     C38843  -0.496  -0.301   0.153 -0.4837  1.1083 -0.1186
  282MOL0     C38844   0.369  -0.150   0.196  0.6378  0.4056 -0.1838
  282MOL0     C38845   0.501  -0.111   0.225  0.6756 -0.2529 -0.3084
  282MOL0     C38846   0.615  -0.186   0.166 -0.2053 -0.2146  0.1785
  282MOL0     H38847   0.856   0.260   0.240 -0.7400  0.4157 -0.7459
  282MOL0     H38848   1.013   0.431   0.293  1.0877  1.3585  1.6430
  282MOL0     H38849   1.001   0.780   0.470 -0.1317  0.0620 -1.1429
  282MOL0     H38850   0.976   0.666   0.333 -0.0941  0.0925 -0.1730
  282MOL0     H38851   1.242   0.710   0.476  1.8588 -1.2545 -0.6533
  282MOL0     H38852   1.223   0.600   0.344  3.8817  0.9988  0.9290
  282MOL0     H38853   1.130   0.807   0.213  0.5944 -4.1501 -0.8640
  282MOL0     H38854   1.219   0.900   0.326 -0.3814  0.9907 -2.8248
  282MOL0     H38855   1.330   0.666   0.158 -1.6380  0.7289  0.6768
  282MOL0     H38856   1.366   0.842   0.123 -0.4046  1.7869  1.2294
  282MOL0     H38857   1.555   0.709   0.210  0.9019  1.2953 -1.0710
  282MOL0     H38858   1.467   0.678   0.357  1.7652  0.2905  1.3097
  282MOL0     H38859   1.496   0.977   0.286 -1.8085 -1.3653 -0.1276
  282MOL0     H38860   1.459   0.904   0.433  0.5790 -1.4524  0.4611
  282MOL0     H38861   1.726   0.871   0.284  0.1971  1.4381 -0.1773
  282MOL0     H38862   1.690   0.787   0.430 -2.0169 -1.0444  0.2995
  282MOL0     H38863   1.654   1.093   0.432  0.5960 -0.2544  0.0295
  282MOL0     H38864   1.692   0.987   0.565 -1.8112  0.1516 -0.3893
  282MOL0     H38865   1.917   1.035   0.236 -1.5909 -1.6352  0.7939
  282MOL0     H38866   2.130   1.152   0.190 -0.9709 -0.7361  0.1713
  282MOL0     H38867   2.243   1.061   0.287 -0.5569  0.3592 -0.9165
  282MOL0     H38868   2.179   1.348   0.332  0.0112 -0.1738  1.9290
  282MOL0     H38869   2.283   1.254   0.438  0.0949  3.5046  1.0620
  282MOL0     H38870   2.440   1.207   0.244  0.6255  0.7038 -0.7548
  282MOL0     H38871   2.320   1.296   0.148  2.9269  0.6752 -1.7981
  282MOL0     H38872   2.367   1.501   0.301 -0.6183  0.7482 -1.4976
  282MOL0     H38873   2.493   1.402   0.368 -2.0134  3.5778  1.0364
  282MOL0     H38874   2.679   1.608   0.054  0.4199  2.5160  5.6344
  282MOL0     H38875   2.871   1.654  -0.079 -0.3304  0.1692  1.6334
  282MOL0     H38876   2.993   1.518  -0.103  2.8783  0.0616  1.7988
  282MOL0     H38877   3.011   1.644   0.019  1.5529  0.3310 -0.8892
  282MOL0     H38878   3.315   1.375   0.337 -1.2918 -2.8594  0.2536
  282MOL0     H38879   3.557   1.319   0.327 -0.4216 -1.3118 -0.3817
  282MOL0     H38880   3.814   1.031   0.105  0.4643  1.3776  0.7347
  282MOL0     H38881   3.652   0.965   0.063 -2.2271  1.8735  1.4801
  282MOL0     H38882   3.712   1.005  -0.148  0.6325 -0.9241 -0.7629
  282MOL0     H38883   3.696   1.177  -0.109  0.2675 -0.3325  0.2338
  282MOL0     H38884   3.963   1.131  -0.023 -0.1319 -0.7411  1.0163
  282MOL0     H38885   3.905   1.182  -0.181 -0.9596  1.3379  1.6530
  282MOL0     H38886   3.949   0.924  -0.241  2.4799  1.3802 -0.8667
  282MOL0     H38887   3.900   0.888  -0.073  0.8067  0.5779  1.6807
  282MOL0     H38888   4.147   1.026  -0.159  2.1244 -1.6950 -1.4741
  282MOL0     H38889   4.127   0.961   0.006  1.2305 -0.4131 -0.1485
  282MOL0     H38890   4.156   0.790  -0.250 -0.7553  2.5119  0.3350
  282MOL0     H38891   4.142   0.717  -0.085 -0.1189 -1.6923 -0.7680
  282MOL0     H38892   4.381   0.707  -0.187  2.1408  1.7742 -1.7240
  282MOL0     H38893   4.358   0.760  -0.028 -0.9344  1.2638 -0.3980
  282MOL0     H38894   4.429   0.983  -0.078 -0.0090 -1.1645  1.0966
  282MOL0     H38895   4.360   0.979  -0.241 -2.8658 -2.3752 -0.2563
  282MOL0     H38896   3.475   1.060  -0.010  5.2601  0.6509  0.7187
  282MOL0     H38897   3.231   1.105   0.025  1.5137 -2.5426  1.5455
  282MOL0     H38898   2.902   1.237   0.291 -0.4463  2.3177  1.3993
  282MOL0     H38899   2.655   1.257   0.284  2.1666 -0.7986  1.9850
  282MOL0     H38900   0.826   0.494   0.677  2.5328 -1.3507  1.0269
  282MOL0     H38901   0.677   0.293   0.629 -2.5313 -0.4992 -1.4423
  282MOL0     H38902   0.419   0.205   0.332 -0.8238  0.5380  0.1395
  282MOL0     H38903   0.195   0.115   0.317 -1.1300 -1.2058  0.4679
  282MOL0     H38904   0.083  -0.305   0.115 -1.3329  0.6947  0.0456
  282MOL0     H38905   0.178  -0.322   0.255 -0.9043 -1.4040 -0.8302
  282MOL0     H38906  -0.037  -0.214   0.373 -1.6653  0.4593 -0.1935
  282MOL0     H38907  -0.059  -0.376   0.323  1.0488  0.0285 -0.1252
  282MOL0     H38908  -0.229  -0.155   0.268  0.9175  1.3373  0.5693
  282MOL0     H38909  -0.109  -0.141   0.141 -1.2556  2.2251  0.5667
  282MOL0     H38910  -0.199  -0.422   0.150 -1.5157  0.2311  1.9615
  282MOL0     H38911  -0.190  -0.311   0.014  1.9467 -0.7470  0.6389
  282MOL0     H38912  -0.602  -0.292   0.162 -0.4544  0.0308  2.0424
  282MOL0     H38913   0.356  -0.246   0.145 -1.2773 -0.3056  1.5027
  282MOL0     H38914   0.689  -0.204   0.245  1.0540 -2.7582 -1.4209
  282MOL0     H38915   0.575  -0.287   0.153  2.0036 -1.5674  2.7174
  282MOL0     H38916   0.670  -0.145   0.081  0.1770  0.6967  0.8451
  283MOL0     O38917  11.080   7.799   1.914  0.4068 -0.0684 -0.3596
  283MOL0     C38918  11.011   7.901   1.917 -0.1549  0.3020 -0.2283
  283MOL0     O38919  11.053   8.022   1.881 -0.7236  0.1633  0.3297
  283MOL0     C38920  11.182   8.036   1.845 -1.3300  0.2714  0.4588
  283MOL0     C38921  11.272   8.110   1.924 -0.0909 -0.2541 -0.0163
  283MOL0     C38922  11.395   8.150   1.877  0.7971 -0.5454  0.2224
  283MOL0     C38923  11.446   8.100   1.758 -0.2508  0.6276  0.0800
  283MOL0     O38924  11.576   8.122   1.728 -0.4219  0.5208 -0.1454
  283MOL0     C38925  11.605   8.149   1.585 -0.2481 -0.1384 -0.2068
  283MOL0     C38926  11.735   8.228   1.563 -0.2711 -0.2945 -0.0711
  283MOL0     C38927  11.707   8.376   1.604 -0.5706 -0.0929 -0.0837
  283MOL0     C38928  11.614   8.461   1.526  0.2564 -0.4763 -0.3886
  283MOL0     C38929  11.611   8.617   1.560 -0.1111  0.6518  0.1018
  283MOL0     C38930  11.597   8.640   1.712 -0.4079  0.0243  0.4006
  283MOL0     C38931  11.453   8.597   1.748  0.7372 -0.4011 -0.5229
  283MOL0     C38932  11.402   8.648   1.891  0.6708  0.0831  0.6899
  283MOL0     N38933  11.477   8.605   2.009  0.1754 -0.7366 -0.1872
  283MOL0     C38934  11.441   8.632   2.141 -0.2891 -0.0435 -0.0596
  283MOL0     C38935  11.540   8.562   2.214  0.8658  0.4882 -0.5176
  283MOL0     C38936  11.545   8.562   2.370 -0.0408 -0.1543  0.1066
  283MOL0     C38937  11.428   8.497   2.442  0.7292  0.1525 -0.7008
  283MOL0     C38938  11.413   8.353   2.414 -0.8534  0.5211  0.4908
  283MOL0     C38939  11.336   8.279   2.527 -0.1333  0.7126  0.1975
  283MOL0     O38940  11.383   8.140   2.520  0.2769 -0.5298 -0.4827
  283MOL0     C38941  11.472   8.101   2.616  0.5449  0.2421 -1.0192
  283MOL0     C38942  11.419   8.085   2.741 -0.8782  0.2095  0.3328
  283MOL0     C38943  11.507   8.065   2.848  0.0627  0.3408  0.6796
  283MOL0     C38944  11.453   8.068   2.990  0.4320  1.0866  0.5636
  283MOL0     C38945  11.647   8.046   2.822  0.4081 -0.4481 -0.3868
  283MOL0     C38946  11.753   8.007   2.925  0.3281  0.0086  0.0772
  283MOL0     O38947  11.887   8.029   2.889  0.7535  0.1529 -0.6150
  283MOL0     C38948  11.990   7.979   2.965  0.2705  0.2755 -0.0387
  283MOL0     C38949  12.068   8.076   3.027  0.1475  0.0751 -0.3115
  283MOL0     C38950  12.167   8.041   3.113 -0.5257 -1.0462 -0.2181
  283MOL0     C38951  12.188   7.904   3.151 -0.9350  0.5886 -0.2266
  283MOL0     O38952  12.292   7.888   3.244  0.5142 -0.1692 -0.7408
  283MOL0     C38953  12.376   7.772   3.237 -0.0420 -0.5918  0.3129
  283MOL0     C38954  12.515   7.806   3.181 -0.0635 -0.3760  0.2394
  283MOL0     C38955  12.586   7.906   3.270 -0.1370 -0.6924 -0.5846
  283MOL0     C38956  12.736   7.920   3.229  0.1464 -0.6546  0.1016
  283MOL0     C38957  12.791   8.033   3.314 -0.3376  0.4323 -0.1632
  283MOL0     C38958  12.939   8.048   3.283 -0.1554  0.4243 -0.4204
  283MOL0     C38959  13.002   8.142   3.383  0.4375  0.1822  0.3308
  283MOL0     C38960  13.149   8.170   3.360  0.0392  0.1227  0.1446
  283MOL0    Cl38961  13.211   8.290   3.486 -0.0291 -0.2928  0.1985
  283MOL0     C38962  12.100   7.814   3.105 -0.7564  0.7358  0.4176
  283MOL0     C38963  12.000   7.850   3.010  0.1609  0.4112 -0.6259
  283MOL0     O38964  11.720   7.954   3.026 -0.3099  0.1322  0.0138
  283MOL0     C38965  11.692   8.046   2.690  0.0321 -0.1131 -0.5745
  283MOL0     C38966  11.600   8.081   2.589  0.0763  1.8014 -0.1172
  283MOL0     N38967  11.612   8.486   2.125  0.5412  0.8485 -0.3249
  283MOL0     N38968  11.583   8.515   2.003 -0.0811  0.5979 -0.3879
  283MOL0     C38969  11.363   8.021   1.680 -0.1645  0.3439  0.0282
  283MOL0     C38970  11.234   7.988   1.725  0.3087 -0.8467 -0.2561
  283MOL0     C38971  10.875   7.904   1.962  1.0139 -0.3278  0.0405
  283MOL0     C38972  10.812   8.036   1.982 -0.4014  1.4330  0.8218
  283MOL0     C38973  10.681   8.044   2.014 -0.0561 -0.8608  0.1898
  283MOL0     C38974  10.600   7.932   2.046  0.6740  0.3785 -0.1953
  283MOL0     O38975  10.480   7.935   2.110 -0.2196  0.3916 -0.7644
  283MOL0     C38976  10.399   8.058   2.102 -0.0515  0.3435  0.0628
  283MOL0     C38977  10.337   8.060   1.960 -0.1629  0.0525 -0.2088
  283MOL0     C38978  10.214   8.156   1.959  0.7456  0.2447  0.3309
  283MOL0     C38979  10.124   8.134   1.831  0.1230  0.6764  0.6388
  283MOL0     C38980  10.048   8.255   1.813  0.5468  0.2339  0.6962
  283MOL0     C38981   9.974   8.352   1.797 -0.0422  0.7561  0.7373
  283MOL0     C38982  10.656   7.807   2.018  0.0978  0.6058 -0.7545
  283MOL0     C38983  10.794   7.796   1.990 -0.5457  0.1896 -0.2656
  283MOL0     C38984  10.856   7.662   2.005 -0.0123 -0.2219  0.4425
  283MOL0     H38985  11.239   8.152   2.018  0.3183  0.8248 -0.3400
  283MOL0     H38986  11.457   8.210   1.944 -0.3761  1.0500 -0.0501
  283MOL0     H38987  11.524   8.195   1.527  1.1676  2.6260 -0.1474
  283MOL0     H38988  11.607   8.049   1.539 -3.5855 -0.0415 -0.8716
  283MOL0     H38989  11.811   8.184   1.627 -0.7714 -3.6193 -1.5161
  283MOL0     H38990  11.757   8.220   1.456 -0.8730 -2.2495 -0.1017
  283MOL0     H38991  11.671   8.369   1.707  0.4519 -0.0383  0.2933
  283MOL0     H38992  11.804   8.426   1.615 -1.6097  2.1094 -0.5093
  283MOL0     H38993  11.654   8.457   1.424  1.1345 -1.4776 -0.0330
  283MOL0     H38994  11.509   8.431   1.529 -0.0501  0.4913 -1.0758
  283MOL0     H38995  11.532   8.662   1.499 -3.2255 -3.7922  0.3693
  283MOL0     H38996  11.709   8.658   1.533  1.0962 -2.7618 -1.2982
  283MOL0     H38997  11.677   8.586   1.763  0.4772  0.7844 -0.1630
  283MOL0     H38998  11.599   8.746   1.741 -0.5708 -0.1053  0.8958
  283MOL0     H38999  11.441   8.490   1.728  1.5199 -0.2743 -1.7768
  283MOL0     H39000  11.383   8.640   1.676 -1.6904 -1.1642  1.2568
  283MOL0     H39001  11.380   8.755   1.888 -3.0820 -0.4020  3.3153
  283MOL0     H39002  11.305   8.601   1.912  0.0365 -0.3535 -2.6341
  283MOL0     H39003  11.350   8.681   2.174 -1.8525 -3.2211  0.8203
  283MOL0     H39004  11.556   8.668   2.393  2.0156 -0.0974 -0.9680
  283MOL0     H39005  11.643   8.520   2.390  2.2431  1.9199 -4.9069
  283MOL0     H39006  11.457   8.515   2.547  1.4483 -2.0248 -0.4865
  283MOL0     H39007  11.332   8.538   2.411  1.0486  0.4683 -1.2743
  283MOL0     H39008  11.368   8.337   2.316  1.8569 -0.3755 -0.7067
  283MOL0     H39009  11.519   8.324   2.412 -0.3894  2.1215 -1.7922
  283MOL0     H39010  11.330   8.306   2.633  0.0660 -1.0133  0.6753
  283MOL0     H39011  11.231   8.289   2.498  0.5040  2.9165 -1.6951
  283MOL0     H39012  11.312   8.095   2.759 -0.7747 -1.1282  1.9181
  283MOL0     H39013  11.349   8.100   2.998 -0.3161 -0.7814 -1.0146
  283MOL0     H39014  11.506   8.135   3.059  0.7679  0.9393  0.4512
  283MOL0     H39015  11.467   7.965   3.023  4.2470  1.7634  1.6526
  283MOL0     H39016  12.054   8.179   2.995 -3.0267 -0.5838 -1.4815
  283MOL0     H39017  12.233   8.107   3.168  0.0294 -1.1057 -0.8035
  283MOL0     H39018  12.402   7.740   3.338 -0.1237 -1.2860  0.1147
  283MOL0     H39019  12.314   7.698   3.187 -1.8183  1.9364 -1.4993
  283MOL0     H39020  12.564   7.708   3.186 -1.2166 -1.0627 -1.1167
  283MOL0     H39021  12.514   7.841   3.078  1.4773 -1.6840 -0.2670
  283MOL0     H39022  12.578   7.867   3.372 -0.0528 -1.7238 -0.9582
  283MOL0     H39023  12.527   7.998   3.275  0.8165 -0.1522  2.6560
  283MOL0     H39024  12.749   7.931   3.121  3.0531 -0.8640  0.3539
  283MOL0     H39025  12.795   7.832   3.251  1.8436  0.3055 -0.4152
  283MOL0     H39026  12.737   8.128   3.304 -3.1565 -1.0914 -0.5000
  283MOL0     H39027  12.785   7.998   3.418  0.0373  1.1729  0.1169
  283MOL0     H39028  12.944   8.090   3.182 -0.3101  1.9073  0.1551
  283MOL0     H39029  12.988   7.950   3.284 -0.8196  0.0874  0.2794
  283MOL0     H39030  12.985   8.117   3.487 -1.0787 -0.5161 -0.0662
  283MOL0     H39031  12.961   8.242   3.367  1.1752  0.6309  1.1680
  283MOL0     H39032  13.156   8.202   3.256 -0.1144 -1.2564 -0.3065
  283MOL0     H39033  13.206   8.076   3.359  1.4930  0.9651  0.5872
  283MOL0     H39034  12.102   7.708   3.125 -0.5043  0.0840 -2.5645
  283MOL0     H39035  11.938   7.766   2.978  0.5483  0.8585 -2.7156
  283MOL0     H39036  11.793   8.015   2.665  0.4119  0.4390  0.2121
  283MOL0     H39037  11.625   8.096   2.485 -0.1698 -0.1530 -0.4869
  283MOL0     H39038  11.382   7.962   1.591 -0.0891 -1.7676  1.3700
  283MOL0     H39039  11.164   7.922   1.674 -0.2347 -2.6827  2.6587
  283MOL0     H39040  10.869   8.127   1.967  1.8863 -0.2320 -1.2950
  283MOL0     H39041  10.635   8.142   2.023  1.4244 -0.2339  1.2578
  283MOL0     H39042  10.326   8.050   2.183  2.5970  2.9654  2.9887
  283MOL0     H39043  10.460   8.146   2.125  1.0771 -0.2921 -0.3841
  283MOL0     H39044  10.296   7.960   1.948 -0.6177  0.0917  0.8722
  283MOL0     H39045  10.404   8.075   1.874  0.3838 -0.5657  0.1004
  283MOL0     H39046  10.152   8.155   2.049 -1.4680 -0.2480 -1.1207
  283MOL0     H39047  10.259   8.255   1.948  1.1814  0.0690  0.4938
  283MOL0     H39048  10.059   8.047   1.841  0.4868  0.3216 -0.0438
  283MOL0     H39049  10.183   8.109   1.742 -0.0292 -0.4937  0.8495
  283MOL0     H39050   9.897   8.425   1.787 -2.7822 -1.7466  1.9419
  283MOL0     H39051  10.603   7.716   2.042 -0.8037  0.3217 -3.4664
  283MOL0     H39052  10.778   7.586   2.019 -1.4097  0.4311 -2.6821
  283MOL0     H39053  10.902   7.627   1.912 -0.8934  0.1554 -0.1630
  283MOL0     H39054  10.926   7.663   2.089  2.4729  2.5450 -1.4542
  284MOL0     O39055   6.934   6.781   1.590  0.5525 -0.4678 -0.4910
  284MOL0     C39056   6.882   6.893   1.592  0.5096  0.5062  0.4232
  284MOL0     O39057   6.939   7.001   1.528  0.1109  1.0399  0.9278
  284MOL0     C39058   7.054   6.973   1.465  0.3702  0.6125  0.4177
  284MOL0     C39059   7.051   6.960   1.323  0.3060  0.7856 -0.1005
  284MOL0     C39060   7.165   6.920   1.255  0.0978  0.1219 -0.0236
  284MOL0     C39061   7.278   6.887   1.324 -0.0992  0.0379  0.6029
  284MOL0     O39062   7.373   6.836   1.237 -0.3646 -0.8575 -0.6081
  284MOL0     C39063   7.499   6.824   1.289 -0.0712  0.3138  0.5252
  284MOL0     C39064   7.610   6.805   1.175  0.1877  0.7428  0.5257
  284MOL0     C39065   7.618   6.916   1.064  0.5402  0.4165 -0.3693
  284MOL0     C39066   7.748   6.902   0.973 -0.4365  0.1767 -0.2170
  284MOL0     C39067   7.745   7.019   0.871  0.3317  0.1075  1.1265
  284MOL0     C39068   7.895   7.061   0.833 -0.2748  0.0750 -0.0343
  284MOL0     C39069   7.943   7.139   0.951  0.4253  0.3918 -0.7973
  284MOL0     C39070   8.063   7.226   0.921  0.4046  0.3768 -0.0595
  284MOL0     N39071   8.172   7.148   0.860 -0.5619  0.7048  0.3423
  284MOL0     C39072   8.196   7.134   0.725 -0.1882 -0.3631  0.4264
  284MOL0     C39073   8.284   7.032   0.706  0.3511  0.6633  0.2295
  284MOL0     C39074   8.341   6.995   0.571  0.2804  0.5581 -0.3563
  284MOL0     C39075   8.494   7.006   0.575  0.3165  0.4092  0.0737
  284MOL0     C39076   8.544   7.149   0.555  0.6899 -0.1907  0.0776
  284MOL0     C39077   8.697   7.166   0.551  0.3823 -0.2118 -0.5999
  284MOL0     O39078   8.723   7.313   0.558 -0.3667  0.6963 -0.5770
  284MOL0     C39079   8.857   7.350   0.544  0.0671 -0.2067  0.1030
  284MOL0     C39080   8.879   7.490   0.540 -0.5383  0.1857 -0.3069
  284MOL0     C39081   9.009   7.534   0.526 -0.6761  0.3739 -0.3803
  284MOL0     C39082   9.029   7.680   0.494  0.5688  0.0032  0.2754
  284MOL0     C39083   9.118   7.444   0.531  0.9991 -0.5394  0.1276
  284MOL0     C39084   9.254   7.479   0.507 -0.3117  0.7011 -0.2944
  284MOL0     O39085   9.314   7.588   0.571 -0.6779 -0.2127  0.4296
  284MOL0     C39086   9.448   7.601   0.587 -0.8702 -0.5047  0.6714
  284MOL0     C39087   9.557   7.533   0.530  0.5730  0.3436  0.0078
  284MOL0     C39088   9.696   7.554   0.560 -0.0656 -0.1577  0.0870
  284MOL0     C39089   9.724   7.665   0.639 -0.4648 -1.4287  0.1825
  284MOL0     O39090   9.864   7.670   0.653  0.1124  0.2176 -0.6198
  284MOL0     C39091   9.905   7.764   0.754 -0.3930 -0.4071 -0.2815
  284MOL0     C39092  10.053   7.784   0.775 -0.2782  0.0477 -0.3694
  284MOL0     C39093  10.127   7.878   0.683  0.1038 -0.0566 -0.3013
  284MOL0     C39094  10.276   7.852   0.696 -0.1739  0.7970 -0.8773
  284MOL0     C39095  10.348   7.935   0.592 -0.1678  0.8453 -0.6736
  284MOL0     C39096  10.508   7.926   0.615  0.3952  0.3995 -0.2444
  284MOL0     C39097  10.566   7.988   0.750  0.7185  0.1914 -0.6031
  284MOL0     C39098  10.705   8.050   0.742 -0.6788 -0.6559  0.0228
  284MOL0    Cl39099  10.816   7.940   0.653  0.5030 -0.0654  0.4698
  284MOL0     C39100   9.613   7.737   0.694 -0.0457 -0.3535 -0.0404
  284MOL0     C39101   9.478   7.705   0.669  1.0495 -0.5144  0.8221
  284MOL0     O39102   9.305   7.414   0.418 -0.2633  0.1000  0.1727
  284MOL0     C39103   9.092   7.309   0.550  0.7448  0.7057  0.0563
  284MOL0     C39104   8.965   7.263   0.554  0.3036  0.0784 -0.2497
  284MOL0     N39105   8.315   6.989   0.833  0.7512 -0.3402  0.2819
  284MOL0     N39106   8.247   7.049   0.923  0.0224 -0.1128  0.4938
  284MOL0     C39107   7.288   6.893   1.468  0.5216  0.1045  0.5732
  284MOL0     C39108   7.178   6.951   1.537 -0.4503 -0.8353  0.1162
  284MOL0     C39109   6.745   6.928   1.641  0.0081 -0.5898 -0.1973
  284MOL0     C39110   6.670   7.040   1.588 -0.1710 -0.2754 -0.1019
  284MOL0     C39111   6.541   7.082   1.632 -1.0291  0.1637  0.0524
  284MOL0     C39112   6.485   7.010   1.739 -1.2597 -0.7820 -0.0079
  284MOL0     O39113   6.367   7.056   1.789  0.3348  0.2107 -0.2426
  284MOL0     C39114   6.290   6.987   1.884 -0.4578 -0.6595  0.2229
  284MOL0     C39115   6.184   7.086   1.943  0.0525  0.1858  0.2933
  284MOL0     C39116   6.062   7.013   1.999 -0.2472 -0.3072  0.9094
  284MOL0     C39117   5.967   7.116   2.054 -0.0504  0.6772  0.2208
  284MOL0     C39118   5.867   7.029   2.117  0.7829  0.6460  0.2404
  284MOL0     C39119   5.791   6.943   2.166  0.2930  1.2759  0.8169
  284MOL0     C39120   6.560   6.904   1.799 -0.8520 -0.5898  0.1289
  284MOL0     C39121   6.686   6.860   1.748 -1.3169 -0.5257 -0.5486
  284MOL0     C39122   6.757   6.744   1.818  0.6629 -0.0702  0.1790
  284MOL0     H39123   6.963   6.982   1.264  0.9620 -2.0853 -2.3595
  284MOL0     H39124   7.167   6.924   1.147  1.6369  3.1380  0.0120
  284MOL0     H39125   7.509   6.737   1.354  1.8362  0.4402  0.4372
  284MOL0     H39126   7.526   6.918   1.338 -0.4034  1.1930 -0.9118
  284MOL0     H39127   7.709   6.799   1.221  0.9171 -1.3658 -1.1412
  284MOL0     H39128   7.586   6.710   1.126 -2.1785  1.5697 -0.0545
  284MOL0     H39129   7.524   6.912   1.008 -1.0892 -3.2672  2.2424
  284MOL0     H39130   7.635   7.013   1.111  0.3862  0.8158 -1.1126
  284MOL0     H39131   7.834   6.909   1.041 -0.9480  0.3626  0.4293
  284MOL0     H39132   7.750   6.806   0.922 -3.3176 -1.8479  3.0471
  284MOL0     H39133   7.701   7.109   0.914  3.4945  1.3686  2.0573
  284MOL0     H39134   7.692   6.989   0.780 -0.1174 -0.5470  1.5960
  284MOL0     H39135   7.941   6.962   0.829 -3.1960 -1.3908 -0.0095
  284MOL0     H39136   7.893   7.118   0.739 -1.1799  2.1527  1.1573
  284MOL0     H39137   7.962   7.070   1.033 -0.0167 -1.3968 -2.1390
  284MOL0     H39138   7.861   7.204   0.983 -1.0185 -2.7499  2.6650
  284MOL0     H39139   8.027   7.294   0.843 -2.4248 -0.5484  0.3206
  284MOL0     H39140   8.092   7.280   1.011 -2.9953 -0.3442  1.6304
  284MOL0     H39141   8.157   7.207   0.655  0.7702  1.6510  1.8891
  284MOL0     H39142   8.299   7.063   0.495  0.8834  0.0780 -1.1378
  284MOL0     H39143   8.307   6.895   0.543  2.9861 -0.1754 -1.3602
  284MOL0     H39144   8.534   6.958   0.665 -2.0082  0.4615  1.2205
  284MOL0     H39145   8.534   6.951   0.489  1.1960 -0.0626  0.7595
  284MOL0     H39146   8.507   7.178   0.457 -0.8321 -0.5217  0.5362
  284MOL0     H39147   8.487   7.211   0.625  1.3829  0.4695  0.0668
  284MOL0     H39148   8.740   7.114   0.637  0.3557  1.3332  0.3739
  284MOL0     H39149   8.729   7.116   0.459 -2.3068 -0.3593 -1.5530
  284MOL0     H39150   8.801   7.565   0.551 -0.3476  0.3455 -0.0311
  284MOL0     H39151   9.076   7.728   0.581 -0.4932  1.3482  0.1372
  284MOL0     H39152   8.935   7.734   0.479 -0.4409 -1.4954  0.9281
  284MOL0     H39153   9.091   7.698   0.406  0.4028 -0.6358  0.0232
  284MOL0     H39154   9.541   7.451   0.461 -1.4429 -0.4624  1.3448
  284MOL0     H39155   9.774   7.495   0.513 -0.0682 -0.6454  0.6760
  284MOL0     H39156   9.865   7.863   0.730 -0.3229 -0.2592  0.2009
  284MOL0     H39157   9.861   7.718   0.843  0.6465 -0.3630  0.2759
  284MOL0     H39158  10.065   7.805   0.881  3.0613  1.3035 -0.9036
  284MOL0     H39159  10.087   7.680   0.767 -2.1931 -0.5720 -1.2659
  284MOL0     H39160  10.103   7.983   0.704  1.0365  0.3867 -1.3545
  284MOL0     H39161  10.103   7.846   0.581 -0.6433 -4.3178  0.9972
  284MOL0     H39162  10.287   7.746   0.669  0.0789  0.1182  1.5994
  284MOL0     H39163  10.313   7.868   0.798  3.0929 -0.5715 -1.7136
  284MOL0     H39164  10.330   7.891   0.494  0.8080 -3.2885  0.8129
  284MOL0     H39165  10.311   8.038   0.595  0.1380  0.9685 -1.0611
  284MOL0     H39166  10.565   7.965   0.530 -0.4837  0.4782 -0.8057
  284MOL0     H39167  10.544   7.824   0.599 -0.7990 -0.0396 -0.2294
  284MOL0     H39168  10.581   7.901   0.814  3.9048  1.2530  0.2710
  284MOL0     H39169  10.494   8.057   0.795 -0.1122 -0.7904 -0.3924
  284MOL0     H39170  10.757   8.059   0.839  0.5486 -1.3856 -0.5365
  284MOL0     H39171  10.711   8.140   0.681  3.1504 -1.5469 -1.2025
  284MOL0     H39172   9.644   7.827   0.747 -1.7353  1.0135 -1.2836
  284MOL0     H39173   9.401   7.773   0.704 -1.0114 -0.0568 -3.8295
  284MOL0     H39174   9.172   7.237   0.564  0.8194  0.2480 -2.3234
  284MOL0     H39175   8.942   7.158   0.564  0.6241 -0.0368 -0.7022
  284MOL0     H39176   7.379   6.870   1.522 -0.6187 -1.4069  1.9345
  284MOL0     H39177   7.184   6.966   1.644  1.2145  3.9590 -0.4249
  284MOL0     H39178   6.717   7.082   1.500  1.2197 -0.7748  0.3796
  284MOL0     H39179   6.490   7.165   1.585 -0.8993  0.3118  0.1707
  284MOL0     H39180   6.238   6.914   1.821 -0.9070  0.5489 -0.8564
  284MOL0     H39181   6.342   6.937   1.966 -0.1389 -1.2450 -0.3283
  284MOL0     H39182   6.144   7.148   1.863 -1.8815 -1.9604 -0.4960
  284MOL0     H39183   6.231   7.150   2.019  1.0206 -0.4429  0.2447
  284MOL0     H39184   6.015   6.961   1.914 -1.5279  1.3686  0.5494
  284MOL0     H39185   6.084   6.945   2.081 -2.3412  1.8960  3.4882
  284MOL0     H39186   5.918   7.175   1.976  2.0104 -1.6127 -3.0611
  284MOL0     H39187   6.005   7.181   2.133 -1.7353  1.3179  0.5584
  284MOL0     H39188   5.738   6.868   2.222  2.1319 -0.1452  0.7294
  284MOL0     H39189   6.515   6.856   1.886 -0.6154 -2.0813 -0.5338
  284MOL0     H39190   6.776   6.664   1.746  2.5148 -1.2210  1.8381
  284MOL0     H39191   6.849   6.773   1.869 -1.4515  2.5797  2.8377
  284MOL0     H39192   6.685   6.719   1.896 -3.1512  1.7401 -2.4163
  285MOL0     O39193   6.703   5.336   6.878 -0.7500 -0.2397 -0.5823
  285MOL0     C39194   6.634   5.304   6.980  0.0869 -0.5134 -0.1395
  285MOL0     O39195   6.668   5.225   7.083 -0.3083  0.3921 -0.2953
  285MOL0     C39196   6.797   5.169   7.084 -0.4138  0.3158  0.3803
  285MOL0     C39197   6.917   5.243   7.057  1.0133  0.6716 -0.0449
  285MOL0     C39198   7.032   5.172   7.027 -1.0722 -0.1983  0.4599
  285MOL0     C39199   7.043   5.036   7.048 -0.4120 -0.2399 -0.0212
  285MOL0     O39200   7.150   4.961   7.024 -0.3442  0.3451  0.6596
  285MOL0     C39201   7.218   4.920   7.136  0.2991 -0.2335 -1.4412
  285MOL0     C39202   7.368   4.924   7.095  0.2902 -0.2281 -0.3758
  285MOL0     C39203   7.410   5.072   7.111  0.5004  0.4404 -0.5824
  285MOL0     C39204   7.565   5.067   7.094  0.0102 -0.4636 -0.3943
  285MOL0     C39205   7.636   5.206   7.126  0.2761 -0.0314  0.8618
  285MOL0     C39206   7.785   5.190   7.121 -0.1997 -0.6738  0.0374
  285MOL0     C39207   7.850   5.334   7.107  0.0929 -1.2512 -0.5073
  285MOL0     C39208   7.995   5.318   7.069  1.1195  0.3483 -0.5574
  285MOL0     N39209   8.088   5.302   7.177  0.3945  0.0518 -0.9713
  285MOL0     C39210   8.213   5.354   7.177 -0.3611  0.0993  0.3942
  285MOL0     C39211   8.280   5.302   7.290 -1.0316 -0.2358  0.1127
  285MOL0     C39212   8.415   5.342   7.349 -0.0825  0.3388  0.2522
  285MOL0     C39213   8.513   5.404   7.243  0.2519 -0.2295 -0.0474
  285MOL0     C39214   8.636   5.466   7.311 -0.0052  0.3054 -0.7556
  285MOL0     C39215   8.727   5.565   7.234 -0.3253 -1.0274 -0.2129
  285MOL0     O39216   8.871   5.571   7.283 -0.2657 -0.6612  0.1072
  285MOL0     C39217   8.962   5.671   7.276 -0.3022  0.5801  0.5758
  285MOL0     C39218   9.062   5.674   7.368 -0.4156  1.2121 -0.4849
  285MOL0     C39219   9.167   5.763   7.373  0.4619  0.2612 -0.1642
  285MOL0     C39220   9.253   5.747   7.493 -0.2652 -0.2168  1.1982
  285MOL0     C39221   9.168   5.867   7.285 -0.0050 -0.4813  0.0915
  285MOL0     C39222   9.264   5.978   7.291  0.4989 -0.6417 -0.7345
  285MOL0     O39223   9.235   6.079   7.201  0.7747 -0.6418  0.0316
  285MOL0     C39224   9.317   6.196   7.184 -0.9247  0.0855 -0.2183
  285MOL0     C39225   9.270   6.285   7.083 -0.0195  0.1547  0.3654
  285MOL0     C39226   9.333   6.405   7.052  0.4621  0.3232 -0.0021
  285MOL0     C39227   9.456   6.441   7.116 -0.1104  0.1367  0.5691
  285MOL0     O39228   9.519   6.564   7.103  0.5383 -0.4635  0.3395
  285MOL0     C39229   9.493   6.634   6.974 -1.0508 -0.8840 -0.2663
  285MOL0     C39230   9.595   6.742   6.948 -0.2393 -0.4635 -0.4172
  285MOL0     C39231   9.737   6.685   6.906  0.2950 -0.0570  0.4671
  285MOL0     C39232   9.823   6.801   6.841  0.1796  0.2069  0.0426
  285MOL0     C39233   9.960   6.750   6.819  0.3297 -0.1123  0.1411
  285MOL0     C39234  10.056   6.860   6.771  0.5714  0.8546  0.3844
  285MOL0     C39235  10.202   6.808   6.760  0.4893 -0.4954  0.6402
  285MOL0     C39236  10.318   6.909   6.777  0.8216  0.6413  0.3663
  285MOL0    Cl39237  10.332   7.001   6.622 -0.4912  0.2329 -0.3911
  285MOL0     C39238   9.506   6.353   7.215  0.5307  0.1991 -0.9872
  285MOL0     C39239   9.437   6.236   7.248 -0.1414  0.5027  0.3734
  285MOL0     O39240   9.365   5.973   7.370  0.4814  0.3142 -0.1923
  285MOL0     C39241   9.065   5.870   7.181 -0.3330 -0.3519  0.0073
  285MOL0     C39242   8.960   5.775   7.176  0.0257  0.3732 -0.3110
  285MOL0     N39243   8.190   5.219   7.356 -0.0167  0.1567  0.0191
  285MOL0     N39244   8.076   5.214   7.286 -0.3339  0.1352 -0.2240
  285MOL0     C39245   6.933   4.964   7.093 -0.3042  0.3697  0.5191
  285MOL0     C39246   6.812   5.032   7.123  0.5834 -0.2040  0.2276
  285MOL0     C39247   6.498   5.355   6.981  0.2598 -0.7013  0.0982
  285MOL0     C39248   6.386   5.277   6.996 -0.1536 -0.3766 -0.3725
  285MOL0     C39249   6.253   5.323   6.986 -0.2958  0.1819 -0.8326
  285MOL0     C39250   6.223   5.459   6.966 -0.3769 -0.3402  0.0730
  285MOL0     O39251   6.091   5.498   6.978 -0.1835 -0.0152 -0.3018
  285MOL0     C39252   6.057   5.634   6.958  0.3721 -0.1332  0.6755
  285MOL0     C39253   6.039   5.645   6.798 -0.1468 -0.2913 -0.5539
  285MOL0     C39254   5.907   5.569   6.763 -0.2651 -0.0964 -0.2630
  285MOL0     C39255   5.891   5.561   6.608  0.5965  1.1826 -0.6627
  285MOL0     C39256   5.803   5.442   6.601 -0.0254  0.3685 -0.5867
  285MOL0     C39257   5.715   5.367   6.599 -0.2948  0.4874 -0.1431
  285MOL0     C39258   6.335   5.541   6.957  0.0880 -0.1356  0.6175
  285MOL0     C39259   6.467   5.494   6.958  0.5887 -0.5920 -0.9940
  285MOL0     C39260   6.572   5.599   6.946 -0.1239 -0.3084  0.1930
  285MOL0     H39261   6.919   5.351   7.045 -0.3144  0.9129  1.6153
  285MOL0     H39262   7.117   5.227   6.988 -1.1895  0.5639  1.2585
  285MOL0     H39263   7.197   4.814   7.152  2.2873 -0.5197 -0.3006
  285MOL0     H39264   7.200   4.978   7.227  2.7064 -2.7075  0.8440
  285MOL0     H39265   7.423   4.850   7.153 -1.2920 -0.0953  1.3952
  285MOL0     H39266   7.376   4.890   6.991 -0.3186 -0.7677 -0.2518
  285MOL0     H39267   7.358   5.128   7.032  0.1568 -1.9841 -2.1590
  285MOL0     H39268   7.381   5.106   7.211 -0.3410 -1.1537 -0.2568
  285MOL0     H39269   7.597   5.003   7.177 -1.3223 -0.4814  0.1331
  285MOL0     H39270   7.607   5.021   7.005 -1.1791  0.5390 -1.5139
  285MOL0     H39271   7.590   5.237   7.220  3.0744  0.0928  2.2989
  285MOL0     H39272   7.602   5.282   7.056  3.5900  0.4208 -0.4258
  285MOL0     H39273   7.810   5.142   7.216  0.0652 -3.6015 -1.3922
  285MOL0     H39274   7.817   5.128   7.037 -0.3908 -0.7915  0.0504
  285MOL0     H39275   7.835   5.395   7.196 -4.5415 -2.0448 -0.4866
  285MOL0     H39276   7.796   5.383   7.024  0.2911  0.9785  0.6208
  285MOL0     H39277   8.019   5.227   7.013  6.8453  1.5065 -0.5488
  285MOL0     H39278   8.027   5.400   7.005  1.8780 -0.0602 -0.7226
  285MOL0     H39279   8.254   5.419   7.100 -2.5252 -0.4305 -1.3188
  285MOL0     H39280   8.467   5.258   7.398  0.4783  0.4850 -0.0820
  285MOL0     H39281   8.401   5.414   7.430  0.5195  0.3656  0.3380
  285MOL0     H39282   8.546   5.322   7.179 -1.4676 -0.0443 -1.2343
  285MOL0     H39283   8.464   5.479   7.180  1.1851 -0.0088 -0.5210
  285MOL0     H39284   8.614   5.514   7.407  0.1659  0.1796 -0.6520
  285MOL0     H39285   8.699   5.382   7.342 -2.1699 -0.4359  2.0309
  285MOL0     H39286   8.722   5.551   7.125  2.9977  1.4245 -0.8520
  285MOL0     H39287   8.697   5.669   7.249 -1.3307 -1.5725  1.8567
  285MOL0     H39288   9.064   5.593   7.441  3.2054  0.0647 -1.6116
  285MOL0     H39289   9.244   5.642   7.519 -1.4315 -0.3964  0.1615
  285MOL0     H39290   9.232   5.808   7.581  0.7467  2.1507 -0.0782
  285MOL0     H39291   9.359   5.760   7.469 -0.6736  0.0639 -0.6180
  285MOL0     H39292   9.173   6.277   7.036  0.3327 -1.3350 -0.1784
  285MOL0     H39293   9.288   6.469   6.977  0.0926  0.4787  0.3474
  285MOL0     H39294   9.516   6.569   6.889 -1.5658 -1.1710 -0.1921
  285MOL0     H39295   9.393   6.673   6.952 -0.1550  1.8303  0.0709
  285MOL0     H39296   9.562   6.810   6.869  1.4008 -0.9992 -1.6426
  285MOL0     H39297   9.610   6.795   7.042  0.2525  0.3338 -0.9288
  285MOL0     H39298   9.729   6.608   6.829 -0.6728 -0.1434  0.6323
  285MOL0     H39299   9.786   6.644   6.995  2.6299 -1.9626 -1.5896
  285MOL0     H39300   9.823   6.881   6.916 -0.8527  1.4956 -1.2652
  285MOL0     H39301   9.774   6.840   6.751  0.3687  0.0098 -0.1442
  285MOL0     H39302  10.004   6.702   6.907  1.4615 -1.3374 -1.0340
  285MOL0     H39303   9.955   6.682   6.733  1.3314 -0.1108  0.0677
  285MOL0     H39304  10.055   6.953   6.829 -0.3026  0.0945  1.6523
  285MOL0     H39305  10.018   6.897   6.675 -0.1823 -0.9484 -0.0479
  285MOL0     H39306  10.221   6.752   6.668 -0.0173  0.3073  0.0328
  285MOL0     H39307  10.218   6.737   6.842  0.9518  0.3982  1.3362
  285MOL0     H39308  10.404   6.842   6.787 -0.6639 -1.8697 -2.2192
  285MOL0     H39309  10.308   6.973   6.865  0.1072 -0.0220  0.7857
  285MOL0     H39310   9.601   6.380   7.260 -0.1295  2.5487 -0.8519
  285MOL0     H39311   9.478   6.175   7.328 -0.4158  1.4929  1.2957
  285MOL0     H39312   9.067   5.947   7.105 -0.5247 -0.5478 -0.1975
  285MOL0     H39313   8.880   5.793   7.105  0.0709  0.9565 -0.2125
  285MOL0     H39314   6.928   4.859   7.120 -0.6884  0.8073  2.3129
  285MOL0     H39315   6.728   4.965   7.137 -0.8335  1.5222  0.3446
  285MOL0     H39316   6.394   5.170   7.012 -2.3214 -0.9468 -2.5400
  285MOL0     H39317   6.172   5.252   6.995  0.6569 -1.0130 -1.3617
  285MOL0     H39318   5.971   5.657   7.021  0.3530 -0.4488  0.7622
  285MOL0     H39319   6.128   5.708   6.998  1.5133 -0.1677 -1.1495
  285MOL0     H39320   6.124   5.615   6.736  0.6462  2.7138 -1.0581
  285MOL0     H39321   6.022   5.753   6.787  0.7073  0.3220  3.0481
  285MOL0     H39322   5.921   5.468   6.800  1.4127 -0.7294 -2.3801
  285MOL0     H39323   5.826   5.618   6.818  0.2940 -1.8159  2.2618
  285MOL0     H39324   5.990   5.547   6.564  0.8180 -1.0607  0.4246
  285MOL0     H39325   5.848   5.654   6.569 -0.1823  1.6190  1.1520
  285MOL0     H39326   5.637   5.295   6.616 -3.1482  2.6090 -3.0235
  285MOL0     H39327   6.326   5.645   6.927  1.1727  0.0594  0.8990
  285MOL0     H39328   6.650   5.587   7.023 -1.1272  2.4428  1.7814
  285MOL0     H39329   6.620   5.587   6.849 -0.4153 -0.8640  0.1117
  285MOL0     H39330   6.540   5.701   6.968 -0.5462 -0.4296  0.1384
  286MOL0     O39331   9.330   5.553   0.651 -0.1690 -0.4490  0.5621
  286MOL0     C39332   9.216   5.521   0.686 -0.3998 -0.7029  0.1531
  286MOL0     O39333   9.189   5.465   0.808  0.4799  0.2041  0.1293
  286MOL0     C39334   9.286   5.454   0.897  0.4230 -0.0947 -0.4640
  286MOL0     C39335   9.397   5.374   0.879 -0.6275 -0.4490 -0.1432
  286MOL0     C39336   9.505   5.386   0.969  0.0081 -0.1472  0.4027
  286MOL0     C39337   9.497   5.458   1.086  0.3847 -0.0203 -0.4843
  286MOL0     O39338   9.597   5.451   1.181  0.4200 -0.2901 -0.4969
  286MOL0     C39339   9.725   5.388   1.165  0.9057 -0.4880 -0.0642
  286MOL0     C39340   9.802   5.402   1.298  0.4812 -0.0746 -0.7498
  286MOL0     C39341   9.917   5.303   1.309  0.2327  1.5459  0.7360
  286MOL0     C39342   9.991   5.320   1.441  0.0540  0.6655 -0.2232
  286MOL0     C39343  10.129   5.253   1.444 -0.1340  0.1366  0.2626
  286MOL0     C39344  10.210   5.289   1.570  0.9447 -0.4103 -0.5242
  286MOL0     C39345  10.346   5.230   1.554  0.3130 -0.6201  0.0380
  286MOL0     C39346  10.424   5.253   1.682  0.0875  0.5154  0.3337
  286MOL0     N39347  10.568   5.231   1.658  0.4869  0.4474 -0.1295
  286MOL0     C39348  10.606   5.119   1.595 -0.3381 -0.6300 -0.8452
  286MOL0     C39349  10.737   5.141   1.605 -0.2659  0.4346  0.4077
  286MOL0     C39350  10.834   5.045   1.541  0.5178  0.6095  0.1171
  286MOL0     C39351  10.791   4.900   1.569 -0.7841  0.3192 -0.3698
  286MOL0     C39352  10.893   4.793   1.530 -0.1139  0.3157 -0.0116
  286MOL0     C39353  11.011   4.796   1.625 -0.0000 -0.5101 -0.0989
  286MOL0     O39354  11.088   4.679   1.597  0.1958 -0.9810  0.3923
  286MOL0     C39355  11.190   4.645   1.679  1.3302  1.0347 -0.2746
  286MOL0     C39356  11.221   4.714   1.797  0.3290  0.2361  0.3579
  286MOL0     C39357  11.353   4.707   1.858 -0.2353  0.7401 -0.7074
  286MOL0     C39358  11.372   4.799   1.981  0.2273  1.0080 -0.1232
  286MOL0     C39359  11.456   4.638   1.797 -0.3975  0.0350  0.0320
  286MOL0     C39360  11.593   4.643   1.834 -0.1132 -0.1755  0.2119
  286MOL0     O39361  11.689   4.640   1.732 -0.5309  0.0121  0.3748
  286MOL0     C39362  11.824   4.645   1.757 -1.1142  0.2991  0.1911
  286MOL0     C39363  11.889   4.715   1.863  0.0781  1.0532 -0.4700
  286MOL0     C39364  12.025   4.700   1.889 -0.0482  0.1286  0.2018
  286MOL0     C39365  12.100   4.617   1.806 -0.2357  0.7237  0.9763
  286MOL0     O39366  12.239   4.590   1.825 -0.2996 -0.5286  0.1251
  286MOL0     C39367  12.317   4.657   1.923 -0.1214 -0.5365 -0.2209
  286MOL0     C39368  12.381   4.788   1.869 -0.8207  0.1057 -0.4282
  286MOL0     C39369  12.491   4.765   1.769 -0.0691  0.1890 -0.3620
  286MOL0     C39370  12.618   4.718   1.834  0.8854 -0.3745 -0.2428
  286MOL0     C39371  12.729   4.689   1.733 -0.2301 -0.0298 -0.3955
  286MOL0     C39372  12.860   4.644   1.798  0.0902 -0.1921 -0.2248
  286MOL0     C39373  12.972   4.645   1.704 -0.1852 -0.3730  0.6114
  286MOL0     C39374  13.097   4.592   1.776 -0.6870 -0.4271  0.5632
  286MOL0    Cl39375  13.234   4.618   1.662 -0.0704  0.0887 -0.2070
  286MOL0     C39376  12.043   4.543   1.707  0.1460 -0.5279 -0.1913
  286MOL0     C39377  11.909   4.565   1.674  0.8521 -0.4366  0.4361
  286MOL0     O39378  11.613   4.636   1.952 -0.1070 -0.4868 -0.1835
  286MOL0     C39379  11.413   4.547   1.695 -0.4540  0.6374  0.1941
  286MOL0     C39380  11.291   4.549   1.637  0.1091 -0.1621 -0.3550
  286MOL0     N39381  10.773   5.250   1.676 -0.6464 -0.0386 -0.2593
  286MOL0     N39382  10.669   5.300   1.720 -0.9684 -0.5192  0.7415
  286MOL0     C39383   9.373   5.527   1.113  0.0472 -0.1758  0.0771
  286MOL0     C39384   9.270   5.526   1.020 -0.8699 -0.3102 -0.1751
  286MOL0     C39385   9.113   5.526   0.573 -0.7788 -0.2777 -0.2711
  286MOL0     C39386   9.152   5.567   0.445  0.6596 -1.2083  1.0275
  286MOL0     C39387   9.065   5.566   0.336  0.5982 -0.4155  0.7065
  286MOL0     C39388   8.936   5.523   0.352 -0.2029 -0.1825  0.5725
  286MOL0     O39389   8.837   5.509   0.256  0.7949 -0.1066  0.2452
  286MOL0     C39390   8.865   5.493   0.115  0.5084 -0.6127  0.6499
  286MOL0     C39391   8.743   5.455   0.040  0.5632  0.6962  0.5009
  286MOL0     C39392   8.696   5.316   0.062 -0.5977 -0.5860  0.1064
  286MOL0     C39393   8.783   5.205  -0.014  0.1397  0.5323 -0.0826
  286MOL0     C39394   8.758   5.066   0.029  0.6420 -0.3577 -0.0404
  286MOL0     C39395   8.740   4.948   0.052 -0.0779 -0.3150 -0.5466
  286MOL0     C39396   8.901   5.492   0.486 -0.5800 -0.3375  0.5732
  286MOL0     C39397   8.983   5.502   0.599  1.0367  1.1384  0.5351
  286MOL0     C39398   8.917   5.456   0.732  0.2612  0.1987 -0.0634
  286MOL0     H39399   9.399   5.322   0.783  2.3437 -0.6191 -0.0675
  286MOL0     H39400   9.597   5.341   0.933  1.0334  1.9844  0.2270
  286MOL0     H39401   9.772   5.432   1.076 -1.4745  0.7153 -0.7960
  286MOL0     H39402   9.694   5.286   1.144  0.3548 -0.0673 -1.3983
  286MOL0     H39403   9.844   5.503   1.306 -2.1603  0.9655  1.4765
  286MOL0     H39404   9.727   5.381   1.374 -0.5634  1.2633 -1.3638
  286MOL0     H39405   9.880   5.200   1.311  0.8074  1.2681 -1.3626
  286MOL0     H39406   9.989   5.313   1.228  0.6021 -4.8463 -0.1584
  286MOL0     H39407  10.000   5.423   1.477  0.7372 -0.0385  1.7640
  286MOL0     H39408   9.932   5.264   1.514 -0.3687  4.1177  2.3498
  286MOL0     H39409  10.183   5.274   1.352 -0.5055  2.2263  0.4771
  286MOL0     H39410  10.116   5.144   1.446  0.8715  0.0123  0.7418
  286MOL0     H39411  10.219   5.398   1.571 -0.9537 -0.2231  1.1054
  286MOL0     H39412  10.166   5.248   1.661  2.7241 -0.7153  0.2410
  286MOL0     H39413  10.396   5.290   1.477 -0.2573  2.2164  1.7074
  286MOL0     H39414  10.332   5.125   1.525 -1.3970 -1.0029  2.0581
  286MOL0     H39415  10.416   5.355   1.721  1.3737  2.5820 -4.2010
  286MOL0     H39416  10.393   5.190   1.766  1.2818  1.8147  1.8122
  286MOL0     H39417  10.539   5.041   1.561 -0.4364  0.0194 -2.2108
  286MOL0     H39418  10.931   5.076   1.583 -0.0258  1.1118  1.0221
  286MOL0     H39419  10.827   5.053   1.432  0.0111 -0.6375  0.0513
  286MOL0     H39420  10.761   4.878   1.671  1.8197 -0.2460  0.3586
  286MOL0     H39421  10.708   4.886   1.500 -0.2806 -0.4962 -0.8270
  286MOL0     H39422  10.850   4.692   1.529 -2.3698  1.0353 -4.7696
  286MOL0     H39423  10.935   4.807   1.430 -1.3018  1.4776 -0.3667
  286MOL0     H39424  11.061   4.893   1.632 -0.9454 -0.1569  3.4238
  286MOL0     H39425  10.975   4.780   1.727  1.8778  0.4029  0.7637
  286MOL0     H39426  11.147   4.783   1.838  1.0243  1.6181 -0.6133
  286MOL0     H39427  11.442   4.879   1.956  0.1872 -0.1171 -4.7191
  286MOL0     H39428  11.416   4.747   2.067  1.0277 -1.0075 -1.6421
  286MOL0     H39429  11.284   4.851   2.020 -0.9685 -0.4158 -0.8363
  286MOL0     H39430  11.831   4.782   1.926 -0.1092 -1.5764  2.4151
  286MOL0     H39431  12.081   4.760   1.960 -0.3866 -1.3894  1.8241
  286MOL0     H39432  12.255   4.669   2.012 -0.1668 -0.5288 -0.2538
  286MOL0     H39433  12.400   4.593   1.954  0.3909  0.3438  0.2931
  286MOL0     H39434  12.299   4.845   1.825 -1.2218 -0.3095 -0.2247
  286MOL0     H39435  12.422   4.838   1.957  4.5934 -1.1120 -1.8838
  286MOL0     H39436  12.507   4.859   1.715  0.8173  0.6007  0.5854
  286MOL0     H39437  12.468   4.686   1.697 -1.2505 -0.8017  1.0512
  286MOL0     H39438  12.590   4.625   1.883 -2.9096 -2.1310 -5.0184
  286MOL0     H39439  12.654   4.791   1.907 -0.4178 -0.1105  0.1474
  286MOL0     H39440  12.703   4.606   1.667 -0.7351 -0.4560  0.3372
  286MOL0     H39441  12.743   4.779   1.671  0.2871  0.7681  0.8425
  286MOL0     H39442  12.838   4.539   1.822  1.0068 -0.3668 -0.1038
  286MOL0     H39443  12.885   4.706   1.885  0.8797 -1.8013  0.7660
  286MOL0     H39444  12.987   4.747   1.668 -0.1728 -0.2951  0.8360
  286MOL0     H39445  12.952   4.598   1.608  2.8980  0.6867 -0.6871
  286MOL0     H39446  13.079   4.487   1.803 -0.4536 -1.7637 -3.7280
  286MOL0     H39447  13.116   4.648   1.868  2.6255 -1.6581  0.7250
  286MOL0     H39448  12.111   4.471   1.664  1.0218 -0.5796  1.2048
  286MOL0     H39449  11.856   4.509   1.597 -0.3595  1.3894 -0.1211
  286MOL0     H39450  11.483   4.476   1.653  0.6032  1.2814  0.8142
  286MOL0     H39451  11.279   4.480   1.554 -0.0419  0.5972 -0.9723
  286MOL0     H39452   9.363   5.584   1.205  0.1420  1.2296 -0.7403
  286MOL0     H39453   9.176   5.575   1.043 -1.1707 -0.8313 -0.2581
  286MOL0     H39454   9.257   5.594   0.432  0.8281 -1.2766  2.1699
  286MOL0     H39455   9.107   5.597   0.240 -0.6768 -1.1844 -0.1249
  286MOL0     H39456   8.893   5.591   0.075  1.8113 -1.4422 -0.5617
  286MOL0     H39457   8.943   5.419   0.096 -2.2408 -3.4051 -0.5875
  286MOL0     H39458   8.771   5.460  -0.065  2.0979 -0.4077  0.8043
  286MOL0     H39459   8.661   5.525   0.057  0.8571  1.2731 -0.3791
  286MOL0     H39460   8.689   5.285   0.166  2.4193 -1.1707  0.2115
  286MOL0     H39461   8.599   5.312   0.011  0.4260 -2.1562 -1.8973
  286MOL0     H39462   8.883   5.213   0.029  0.5469 -1.1895 -0.6159
  286MOL0     H39463   8.786   5.216  -0.123  1.8441 -1.1943 -0.2695
  286MOL0     H39464   8.731   4.843   0.066  0.2050 -0.2634  0.0537
  286MOL0     H39465   8.799   5.465   0.514 -0.6171 -0.7866  0.0221
  286MOL0     H39466   8.945   5.513   0.821 -1.7838 -1.5784  1.8311
  286MOL0     H39467   8.810   5.481   0.728  0.6133  1.8258 -0.2820
  286MOL0     H39468   8.917   5.348   0.748  0.0510 -0.4718 -3.6523
  287MOL0     O39469   2.999   9.599   4.460  0.0832  0.0194 -0.2178
  287MOL0     C39470   2.972   9.492   4.515  0.0725 -0.0991  0.4767
  287MOL0     O39471   2.876   9.410   4.484 -0.1133  0.3279  0.0016
  287MOL0     C39472   2.769   9.448   4.403 -0.2454 -0.3585 -0.7923
  287MOL0     C39473   2.730   9.584   4.383  0.4974  0.8733 -0.4931
  287MOL0     C39474   2.595   9.603   4.322 -0.1799 -0.3593 -0.0411
  287MOL0     C39475   2.523   9.498   4.264 -0.2349  0.1855 -0.6440
  287MOL0     O39476   2.403   9.524   4.203 -0.5556 -0.4058  0.2336
  287MOL0     C39477   2.291   9.521   4.292  0.0391 -0.3604 -0.4314
  287MOL0     C39478   2.163   9.494   4.213 -0.3062  0.1155 -0.2050
  287MOL0     C39479   2.162   9.350   4.163  0.3127 -0.7443  0.2705
  287MOL0     C39480   2.028   9.298   4.116  0.6356 -0.6501  0.6608
  287MOL0     C39481   2.036   9.167   4.041  0.3306  0.4971  0.1774
  287MOL0     C39482   2.067   9.041   4.121 -0.0394  0.1712 -0.2726
  287MOL0     C39483   2.216   9.005   4.135  0.0829  0.2611 -0.7673
  287MOL0     C39484   2.218   8.876   4.224 -0.3182  0.1279  0.5661
  287MOL0     N39485   2.338   8.802   4.206  0.0607 -0.0412  0.2364
  287MOL0     C39486   2.468   8.854   4.207  0.9829  0.0194  0.6610
  287MOL0     C39487   2.544   8.752   4.163  0.6854  0.3960 -0.2480
  287MOL0     C39488   2.691   8.763   4.123 -0.1335  0.3880  0.1893
  287MOL0     C39489   2.766   8.686   4.235 -0.6499 -0.2986  0.1804
  287MOL0     C39490   2.917   8.718   4.231  0.3122  0.3034 -0.5488
  287MOL0     C39491   2.993   8.702   4.361  0.5039 -0.7674 -0.6825
  287MOL0     O39492   3.132   8.733   4.342 -0.4137 -0.6726  0.0054
  287MOL0     C39493   3.233   8.640   4.374  0.4812 -0.8493  0.6744
  287MOL0     C39494   3.241   8.598   4.505 -0.6950  0.8802 -0.2262
  287MOL0     C39495   3.340   8.507   4.543 -0.1102  0.6392 -0.3826
  287MOL0     C39496   3.339   8.461   4.687  0.8765  0.6431 -0.7519
  287MOL0     C39497   3.438   8.465   4.441 -0.3905 -0.3921 -0.4657
  287MOL0     C39498   3.559   8.375   4.461 -0.3143  0.4049  0.1153
  287MOL0     O39499   3.633   8.340   4.350 -0.1864 -0.1156 -0.1155
  287MOL0     C39500   3.736   8.250   4.352  0.4243 -1.1598 -0.4278
  287MOL0     C39501   3.836   8.285   4.262 -0.0952  0.0741  0.8238
  287MOL0     C39502   3.952   8.218   4.247  1.0862  0.5783  0.4373
  287MOL0     C39503   3.974   8.107   4.329 -0.2139  0.6557 -0.0387
  287MOL0     O39504   4.093   8.036   4.340  0.3136 -0.4019  0.1548
  287MOL0     C39505   4.192   8.040   4.238 -0.5003  0.0759 -0.4882
  287MOL0     C39506   4.275   7.909   4.245 -0.3083  0.7377  0.3787
  287MOL0     C39507   4.201   7.782   4.291 -0.1432 -0.8619  0.1331
  287MOL0     C39508   4.307   7.664   4.282 -0.1520  0.1847 -0.1937
  287MOL0     C39509   4.280   7.594   4.147 -0.6644 -0.3529 -0.0404
  287MOL0     C39510   4.389   7.493   4.104 -0.0072  0.2886 -0.4913
  287MOL0     C39511   4.374   7.431   3.977  0.3700  0.2816  0.3630
  287MOL0     C39512   4.514   7.380   3.937  0.3228  0.0977  0.8059
  287MOL0    Cl39513   4.621   7.526   3.905  0.0838  0.3511 -0.2963
  287MOL0     C39514   3.873   8.070   4.419  0.0395  0.1595  0.1467
  287MOL0     C39515   3.755   8.145   4.437 -1.5672  1.0541  0.2165
  287MOL0     O39516   3.580   8.323   4.574  0.7252 -0.1165 -0.4292
  287MOL0     C39517   3.438   8.527   4.305 -0.2163 -0.2337  0.2450
  287MOL0     C39518   3.329   8.610   4.279  0.0574  0.8748  0.0932
  287MOL0     N39519   2.472   8.637   4.134  0.9763  0.4675 -0.0494
  287MOL0     N39520   2.350   8.673   4.160 -0.6871  0.3555  0.0008
  287MOL0     C39521   2.572   9.370   4.287  0.6348 -0.0142 -0.2477
  287MOL0     C39522   2.687   9.343   4.355 -0.8404 -0.3132 -0.3048
  287MOL0     C39523   3.058   9.438   4.613 -0.4731 -0.5912 -0.2803
  287MOL0     C39524   3.024   9.406   4.747  0.5204  0.9508 -0.1702
  287MOL0     C39525   3.116   9.356   4.834 -1.4378 -0.2150 -0.0441
  287MOL0     C39526   3.251   9.333   4.792  0.2507  0.0515 -0.8931
  287MOL0     O39527   3.337   9.285   4.890  0.2977 -0.3370  0.3378
  287MOL0     C39528   3.473   9.254   4.858 -1.2774 -0.3207 -0.6972
  287MOL0     C39529   3.528   9.160   4.957 -0.6148 -0.5900  0.2244
  287MOL0     C39530   3.573   9.239   5.085 -0.2863  0.0719 -0.6052
  287MOL0     C39531   3.724   9.265   5.094  0.3832  0.5387 -0.1184
  287MOL0     C39532   3.813   9.156   5.109 -0.1638  0.9022 -0.1916
  287MOL0     C39533   3.888   9.059   5.109  0.8811 -0.3359  0.1055
  287MOL0     C39534   3.278   9.360   4.664  0.1583 -0.2924  0.4066
  287MOL0     C39535   3.186   9.401   4.570 -0.3889  0.0234 -0.1802
  287MOL0     C39536   3.239   9.415   4.424 -0.2051  0.1851  0.4631
  287MOL0     H39537   2.781   9.671   4.421  0.8349  0.1211  0.8661
  287MOL0     H39538   2.551   9.701   4.305 -2.2344 -0.8941  1.7027
  287MOL0     H39539   2.291   9.618   4.342 -0.3902 -1.0977  1.0638
  287MOL0     H39540   2.298   9.446   4.371 -0.8716 -0.7682 -0.7319
  287MOL0     H39541   2.073   9.510   4.274 -0.8233  1.5269 -1.2716
  287MOL0     H39542   2.159   9.568   4.132  0.8172  2.1188  1.4552
  287MOL0     H39543   2.249   9.328   4.101 -1.9417 -0.1729 -3.3684
  287MOL0     H39544   2.171   9.284   4.250  0.6705 -0.8076  0.1879
  287MOL0     H39545   1.972   9.277   4.207  2.8503 -1.3300  1.9531
  287MOL0     H39546   1.971   9.371   4.058  0.0584  0.5385  2.6164
  287MOL0     H39547   2.116   9.178   3.967  3.0834  0.1154  2.8696
  287MOL0     H39548   1.936   9.158   3.998 -0.4808 -1.2503  2.2298
  287MOL0     H39549   2.026   9.042   4.223  1.4878  1.6416  0.3838
  287MOL0     H39550   2.007   8.960   4.080 -1.9024  1.2220  0.2300
  287MOL0     H39551   2.278   9.076   4.191 -0.4069 -0.0676  0.2197
  287MOL0     H39552   2.262   8.984   4.039  1.2184 -0.4698 -0.0826
  287MOL0     H39553   2.214   8.911   4.327  0.6633  1.9937  0.0352
  287MOL0     H39554   2.138   8.803   4.209 -1.1250  1.0989 -0.0067
  287MOL0     H39555   2.497   8.956   4.226  1.0820  0.2862 -0.8280
  287MOL0     H39556   2.734   8.863   4.110 -0.1734  0.2872 -0.7602
  287MOL0     H39557   2.694   8.709   4.028  3.4518 -2.5968  1.7318
  287MOL0     H39558   2.729   8.716   4.333  2.3380 -1.5518  1.8176
  287MOL0     H39559   2.753   8.577   4.228 -1.0064 -0.3087  0.9311
  287MOL0     H39560   2.959   8.650   4.157  0.1594 -0.2642 -0.1188
  287MOL0     H39561   2.931   8.819   4.191 -1.8178  0.5009 -0.9402
  287MOL0     H39562   2.943   8.769   4.432  1.4087 -1.5036  0.6881
  287MOL0     H39563   2.985   8.597   4.391 -0.4708 -0.4115  0.4047
  287MOL0     H39564   3.183   8.647   4.582  0.5820  3.5035 -0.8461
  287MOL0     H39565   3.264   8.515   4.745  3.4025  3.0534  0.4941
  287MOL0     H39566   3.428   8.475   4.749  0.9752  1.2824 -1.0298
  287MOL0     H39567   3.314   8.354   4.688 -0.0598  0.8284 -2.0921
  287MOL0     H39568   3.811   8.363   4.191  1.1525 -0.8200 -0.6643
  287MOL0     H39569   4.013   8.268   4.173  2.1169 -0.0113  0.8640
  287MOL0     H39570   4.138   8.031   4.143  2.3717 -1.9215 -2.0663
  287MOL0     H39571   4.249   8.133   4.251 -2.6590  1.1725  2.0889
  287MOL0     H39572   4.318   7.894   4.146 -3.6889  3.4297 -1.7421
  287MOL0     H39573   4.368   7.914   4.303  0.2850 -1.0463 -0.3578
  287MOL0     H39574   4.117   7.760   4.224  1.6981 -1.6778 -2.0417
  287MOL0     H39575   4.162   7.787   4.393 -0.2568 -0.4721  0.0733
  287MOL0     H39576   4.285   7.603   4.370  2.0819 -2.0937 -1.1211
  287MOL0     H39577   4.413   7.689   4.282  0.1841 -1.1663 -1.4585
  287MOL0     H39578   4.180   7.549   4.148 -0.4284 -1.1536 -2.9874
  287MOL0     H39579   4.267   7.674   4.074 -2.2751 -0.1230  0.4486
  287MOL0     H39580   4.369   7.407   4.170 -0.9463  0.0531 -1.0566
  287MOL0     H39581   4.482   7.545   4.126 -0.4291  0.4899  0.8873
  287MOL0     H39582   4.340   7.507   3.906 -1.4981  0.5102  1.4221
  287MOL0     H39583   4.293   7.359   3.984 -1.2574  1.9184 -0.6156
  287MOL0     H39584   4.505   7.325   3.843  2.6638  0.4803  0.3080
  287MOL0     H39585   4.561   7.314   4.009 -1.7279 -1.1526  1.0762
  287MOL0     H39586   3.891   7.984   4.483  0.6901 -1.2900 -1.8909
  287MOL0     H39587   3.698   8.114   4.525  0.8838 -0.9858  1.2005
  287MOL0     H39588   3.511   8.498   4.230 -0.3827  1.2279 -0.5211
  287MOL0     H39589   3.319   8.647   4.177  2.2179  1.9336  0.1948
  287MOL0     H39590   2.514   9.291   4.240 -0.1702 -0.8317  2.0217
  287MOL0     H39591   2.705   9.239   4.379  0.0979  0.3212  2.0397
  287MOL0     H39592   2.922   9.428   4.779  0.5954 -1.4544  2.1439
  287MOL0     H39593   3.086   9.339   4.937  0.0319 -0.6729  0.3313
  287MOL0     H39594   3.479   9.201   4.763 -0.2724 -0.6079 -0.4939
  287MOL0     H39595   3.524   9.351   4.850 -1.9935  0.0389 -0.9333
  287MOL0     H39596   3.607   9.112   4.898 -0.5753 -1.4655  0.9574
  287MOL0     H39597   3.460   9.078   4.984 -0.5510 -0.8288 -0.3167
  287MOL0     H39598   3.513   9.330   5.098 -2.2371 -1.1548 -0.6275
  287MOL0     H39599   3.544   9.182   5.174  1.2479 -0.2968 -0.3182
  287MOL0     H39600   3.736   9.328   5.183  1.8825 -0.3933  0.3648
  287MOL0     H39601   3.750   9.331   5.010 -1.6659  2.4974  0.6610
  287MOL0     H39602   3.959   8.979   5.108 -0.2209 -1.3563  0.7210
  287MOL0     H39603   3.378   9.335   4.628 -0.2270 -0.9798 -0.2161
  287MOL0     H39604   3.178   9.345   4.367 -0.4171 -1.6484  2.7976
  287MOL0     H39605   3.230   9.515   4.380  0.5448 -0.4047 -1.1208
  287MOL0     H39606   3.345   9.388   4.412 -1.0225 -2.4439 -2.0280
  288MOL0     O39607   3.044   0.116  10.396 -0.1522  0.2910  0.3794
  288MOL0     C39608   3.045   0.124  10.274 -0.4137 -0.1940  0.1521
  288MOL0     O39609   3.152   0.104  10.200 -0.2973  0.6499  0.8630
  288MOL0     C39610   3.268   0.054  10.246  0.4404 -0.0307  0.1989
  288MOL0     C39611   3.341   0.120  10.349  0.9861  0.1174  0.3185
  288MOL0     C39612   3.457   0.064  10.407 -0.1446 -0.1840 -0.2591
  288MOL0     C39613   3.493  -0.070  10.371  0.2782  0.2700  0.3049
  288MOL0     O39614   3.608  -0.127  10.433  0.1843 -1.0241  0.1005
  288MOL0     C39615   3.631  -0.110  10.578 -0.3917  0.3193  1.3302
  288MOL0     C39616   3.746  -0.010  10.606 -0.1978  0.8478 -0.1165
  288MOL0     C39617   3.793  -0.033  10.753  0.0832 -0.4601 -0.0007
  288MOL0     C39618   3.891   0.079  10.785 -0.0248  0.9032  0.3651
  288MOL0     C39619   3.919   0.091  10.936  0.6235  0.3926 -0.5350
  288MOL0     C39620   4.015  -0.024  10.995  0.6511  0.5184  0.4407
  288MOL0     C39621   4.025  -0.018  11.153  0.0661  0.2472  0.8087
  288MOL0     C39622   4.072  -0.142  11.219  0.1821 -0.4092 -1.4953
  288MOL0     N39623   4.195  -0.197  11.168  0.4528 -0.4035  0.0298
  288MOL0     C39624   4.322  -0.184  11.224  0.4318 -0.8284  0.3307
  288MOL0     C39625   4.400  -0.261  11.150  0.5060  0.9311  0.2647
  288MOL0     C39626   4.554  -0.268  11.164  0.4538  0.2210  0.3275
  288MOL0     C39627   4.609  -0.367  11.062  0.0173  0.1603 -0.3351
  288MOL0     C39628   4.753  -0.419  11.092  0.2369 -0.4834  0.2560
  288MOL0     C39629   4.873  -0.318  11.077  0.6973  0.4544 -0.5608
  288MOL0     O39630   4.845  -0.212  11.169 -0.2672 -0.3659  0.5585
  288MOL0     C39631   4.945  -0.110  11.183 -0.3776  0.6353 -0.4486
  288MOL0     C39632   4.918  -0.009  11.284 -0.0059  0.1000 -0.0038
  288MOL0     C39633   5.015   0.077  11.335  0.0262  0.4386  0.2605
  288MOL0     C39634   4.981   0.168  11.450  0.7640  0.4471 -0.0716
  288MOL0     C39635   5.144   0.076  11.272  0.2656  0.2403 -0.3791
  288MOL0     C39636   5.264   0.165  11.294  0.6037  0.0150  0.4031
  288MOL0     O39637   5.385   0.136  11.245 -0.1820 -0.6740  0.2947
  288MOL0     C39638   5.489   0.224  11.265  0.3906 -0.7565  1.3847
  288MOL0     C39639   5.522   0.277  11.383 -0.3597  0.1780  0.2526
  288MOL0     C39640   5.623   0.381  11.390 -0.4617 -0.7094  1.0136
  288MOL0     C39641   5.690   0.419  11.272 -0.9104 -0.1450 -0.5452
  288MOL0     O39642   5.780   0.528  11.258  0.0732 -0.1437 -0.3764
  288MOL0     C39643   5.849   0.588  11.375  0.6475  0.9521  0.1237
  288MOL0     C39644   5.941   0.687  11.313  0.2099  0.0037 -0.1679
  288MOL0     C39645   6.076   0.622  11.272  0.2870 -0.9705 -0.1266
  288MOL0     C39646   6.171   0.714  11.194 -0.5397 -0.3060 -0.6751
  288MOL0     C39647   6.303   0.638  11.176 -0.4828  0.6756  0.3825
  288MOL0     C39648   6.394   0.705  11.065  0.6509  0.4664 -0.3818
  288MOL0     C39649   6.538   0.663  11.059 -0.3104  0.6456 -0.4297
  288MOL0     C39650   6.651   0.739  10.980 -0.0472  0.6388  0.3464
  288MOL0    Cl39651   6.600   0.741  10.802 -0.3737  0.2732  0.2507
  288MOL0     C39652   5.668   0.351  11.151  0.4092 -0.4168  0.1242
  288MOL0     C39653   5.568   0.253  11.150  1.0349  0.6769 -0.1062
  288MOL0     O39654   5.229   0.277  11.348 -0.0178  0.6778 -0.0595
  288MOL0     C39655   5.166  -0.026  11.174  0.1331  0.3196 -0.3139
  288MOL0     C39656   5.074  -0.117  11.140  0.0912  0.7070  0.3743
  288MOL0     N39657   4.318  -0.321  11.051 -0.2291 -0.5061  0.1466
  288MOL0     N39658   4.197  -0.289  11.062  0.3891  0.0825 -0.7054
  288MOL0     C39659   3.421  -0.135  10.275 -0.1529 -0.0818  0.2117
  288MOL0     C39660   3.310  -0.075  10.215 -0.2598  0.5614  0.9080
  288MOL0     C39661   2.916   0.160  10.208 -0.6056 -0.7723 -1.6330
  288MOL0     C39662   2.914   0.173  10.073  0.6249  0.2289 -0.6116
  288MOL0     C39663   2.797   0.182   9.997 -0.0222 -0.0212 -0.2497
  288MOL0     C39664   2.681   0.196  10.068 -0.4218 -0.4162  0.7678
  288MOL0     O39665   2.560   0.184   9.991 -0.4514 -0.0327 -0.0972
  288MOL0     C39666   2.519   0.296   9.909  0.0279 -0.0263  0.4315
  288MOL0     C39667   2.418   0.372   9.990  0.0505 -0.3716  0.3369
  288MOL0     C39668   2.291   0.278  10.023 -0.3198  0.3524 -0.2016
  288MOL0     C39669   2.170   0.351  10.082  1.1135  0.0910  0.2751
  288MOL0     C39670   2.184   0.387  10.221  0.6954  0.2489  0.3067
  288MOL0     C39671   2.214   0.421  10.328  1.0012 -0.2694  0.1370
  288MOL0     C39672   2.673   0.194  10.208 -0.2119 -0.3710  0.7908
  288MOL0     C39673   2.791   0.178  10.280 -0.8277 -0.3750  0.0244
  288MOL0     C39674   2.774   0.164  10.428  0.0169 -0.7736 -0.1709
  288MOL0     H39675   3.290   0.212  10.376 -3.4663 -1.8943 -0.4984
  288MOL0     H39676   3.517   0.112  10.484  0.8207 -0.9568 -0.5079
  288MOL0     H39677   3.648  -0.210  10.619 -2.1554  0.0595  1.4975
  288MOL0     H39678   3.538  -0.081  10.627 -1.2677  0.4917 -0.3381
  288MOL0     H39679   3.817  -0.032  10.526  0.3787 -0.0526  0.6146
  288MOL0     H39680   3.713   0.094  10.604  0.4890  1.0957  0.7805
  288MOL0     H39681   3.706  -0.026  10.819 -1.6082  0.4530 -2.1814
  288MOL0     H39682   3.851  -0.125  10.762 -0.8434 -1.1522 -0.9453
  288MOL0     H39683   3.985   0.055  10.734 -0.7841 -0.3935 -0.4797
  288MOL0     H39684   3.867   0.180  10.749  0.3336  1.1042  0.6802
  288MOL0     H39685   3.823   0.083  10.987 -0.2878 -3.1853 -2.4253
  288MOL0     H39686   3.958   0.186  10.974 -2.5991  1.5766  0.1013
  288MOL0     H39687   3.973  -0.118  10.960  1.8132 -0.2951  1.1578
  288MOL0     H39688   4.119  -0.025  10.962  0.4127 -0.7599 -0.3242
  288MOL0     H39689   3.931   0.006  11.202  0.3763  0.9504  1.0740
  288MOL0     H39690   4.091   0.068  11.171 -0.4944  0.2976  2.8709
  288MOL0     H39691   4.082  -0.126  11.327  0.2211 -2.5474 -1.1378
  288MOL0     H39692   3.992  -0.216  11.208  0.4523 -0.8057 -0.8563
  288MOL0     H39693   4.355  -0.117  11.303 -1.7678  1.6096 -0.6690
  288MOL0     H39694   4.569  -0.300  11.268  0.3751  1.0291  0.5927
  288MOL0     H39695   4.589  -0.165  11.158  0.2891  0.4020  1.9089
  288MOL0     H39696   4.546  -0.456  11.055  2.9641 -2.2612  1.5746
  288MOL0     H39697   4.608  -0.327  10.960  2.2889 -2.2636 -1.4303
  288MOL0     H39698   4.761  -0.477  11.185  3.6619  2.0550  1.7559
  288MOL0     H39699   4.786  -0.491  11.016  0.9315 -0.3736  0.4458
  288MOL0     H39700   4.963  -0.376  11.095 -0.4140 -1.3982 -0.7576
  288MOL0     H39701   4.877  -0.273  10.977  1.3806 -0.2426 -0.8530
  288MOL0     H39702   4.821  -0.009  11.334  1.1453 -1.6261  2.4854
  288MOL0     H39703   5.035   0.140  11.541  1.1177  0.8247 -0.1635
  288MOL0     H39704   4.874   0.167  11.471  0.7042  0.9707 -0.3236
  288MOL0     H39705   5.001   0.271  11.419  1.8498  0.4114  0.4780
  288MOL0     H39706   5.464   0.242  11.468  0.9439 -4.1483 -0.4324
  288MOL0     H39707   5.638   0.439  11.480  1.4366 -1.3367  1.1379
  288MOL0     H39708   5.774   0.623  11.446 -0.4801  0.3025 -0.7085
  288MOL0     H39709   5.900   0.505  11.426  0.3388  0.9786  0.4796
  288MOL0     H39710   5.904   0.737  11.223  0.3843  0.5623  0.0661
  288MOL0     H39711   5.974   0.766  11.380  1.1757  1.0988 -1.8515
  288MOL0     H39712   6.047   0.533  11.215 -0.5940 -0.4493 -0.5163
  288MOL0     H39713   6.127   0.593  11.364  2.3178 -2.1109 -1.5224
  288MOL0     H39714   6.180   0.802  11.258 -4.3348 -0.1224 -0.1507
  288MOL0     H39715   6.121   0.743  11.101 -2.2083  0.2074  0.3349
  288MOL0     H39716   6.361   0.648  11.269  0.6234 -1.6579  0.0240
  288MOL0     H39717   6.275   0.533  11.161 -1.6075  1.2305 -1.8205
  288MOL0     H39718   6.391   0.812  11.085  1.1978  0.6318 -1.1254
  288MOL0     H39719   6.347   0.681  10.969  1.9106 -0.8780 -0.6959
  288MOL0     H39720   6.542   0.559  11.024 -2.5151  0.6724 -0.8836
  288MOL0     H39721   6.563   0.664  11.166 -1.7541  0.4139 -0.0688
  288MOL0     H39722   6.742   0.678  10.983 -1.7055 -2.0013  3.9065
  288MOL0     H39723   6.669   0.839  11.020  4.4011 -1.3338  4.2011
  288MOL0     H39724   5.732   0.373  11.067 -1.7000 -1.1828 -1.8083
  288MOL0     H39725   5.541   0.199  11.059 -0.8293  0.9211  0.2635
  288MOL0     H39726   5.265  -0.027  11.130 -0.8542  2.6644 -2.9167
  288MOL0     H39727   5.111  -0.197  11.077  0.5050  1.4097 -0.2974
  288MOL0     H39728   3.448  -0.236  10.248  1.3829  0.6855 -1.3778
  288MOL0     H39729   3.265  -0.132  10.134 -0.2298  1.6450  0.1000
  288MOL0     H39730   3.010   0.157  10.025  1.2236 -0.4904  0.7790
  288MOL0     H39731   2.794   0.176   9.889 -0.2790  1.2051 -0.3291
  288MOL0     H39732   2.604   0.363   9.900 -1.4288  1.8443  0.0501
  288MOL0     H39733   2.481   0.262   9.812  1.5241  0.7123 -0.4458
  288MOL0     H39734   2.387   0.467   9.946  1.4454 -0.0692 -0.0494
  288MOL0     H39735   2.471   0.401  10.081 -1.0252  0.7605  0.6385
  288MOL0     H39736   2.256   0.259   9.922 -2.9135 -0.2529  0.7559
  288MOL0     H39737   2.310   0.184  10.075  0.1178  0.3545 -0.3525
  288MOL0     H39738   2.083   0.286  10.068 -1.9880  3.8186  0.5629
  288MOL0     H39739   2.156   0.445  10.028  2.7310  0.5451  0.5879
  288MOL0     H39740   2.234   0.461  10.425  0.2530  2.9833 -0.9271
  288MOL0     H39741   2.573   0.196  10.251 -0.1527 -0.3633  0.9272
  288MOL0     H39742   2.852   0.221  10.479 -1.2165  0.2215  0.6799
  288MOL0     H39743   2.685   0.214  10.468  0.8526  0.5619  0.0728
  288MOL0     H39744   2.765   0.060  10.461  0.0022 -0.6302  0.2858
  289MOL0     O39745   2.049   2.105   7.417 -0.7183 -0.6534  0.4809
  289MOL0     C39746   1.984   2.071   7.322  0.0026 -0.0208 -0.3197
  289MOL0     O39747   2.031   2.031   7.199  0.5526  0.1614  0.1134
  289MOL0     C39748   2.154   1.977   7.199 -0.3228 -0.3938  0.8153
  289MOL0     C39749   2.222   1.991   7.076 -1.0023 -0.1427  0.4232
  289MOL0     C39750   2.348   1.941   7.048  0.4244 -0.0404 -0.3834
  289MOL0     C39751   2.416   1.874   7.146  0.9061 -0.8421  0.3055
  289MOL0     O39752   2.541   1.830   7.122 -0.1440 -0.0945  0.1741
  289MOL0     C39753   2.650   1.923   7.148 -0.0312 -0.4810  0.9205
  289MOL0     C39754   2.763   1.861   7.066 -1.0943 -0.2510  0.7544
  289MOL0     C39755   2.814   1.733   7.132 -0.1668 -0.6237  0.3273
  289MOL0     C39756   2.917   1.664   7.045 -0.0567 -0.3994 -0.0853
  289MOL0     C39757   2.946   1.514   7.079 -0.4148  0.3101 -1.0558
  289MOL0     C39758   3.082   1.483   7.016 -0.2498 -0.6114 -0.4671
  289MOL0     C39759   3.093   1.483   6.862  0.2023  0.0012 -0.4533
  289MOL0     C39760   3.223   1.436   6.806  0.1585 -0.2735  0.2526
  289MOL0     N39761   3.244   1.289   6.804  0.0951  0.3344  0.6869
  289MOL0     C39762   3.334   1.222   6.889  0.5255  1.2629 -0.2279
  289MOL0     C39763   3.361   1.104   6.822  0.0466  0.7817 -0.2985
  289MOL0     C39764   3.451   1.009   6.887 -0.0624  0.3364  0.3365
  289MOL0     C39765   3.575   1.001   6.804 -0.5730 -0.4114 -0.1633
  289MOL0     C39766   3.690   0.921   6.877  0.3760  0.3137 -0.1173
  289MOL0     C39767   3.824   0.939   6.804  0.3028 -0.1227  0.5175
  289MOL0     O39768   3.865   1.074   6.834 -0.0137  0.7691  0.3689
  289MOL0     C39769   3.986   1.121   6.787  0.2624  0.0476  0.0012
  289MOL0     C39770   4.020   1.238   6.844 -0.7552  0.7210 -0.2615
  289MOL0     C39771   4.149   1.298   6.818  0.6773  0.2764  0.0198
  289MOL0     C39772   4.161   1.439   6.873 -0.4251 -0.7134  0.2261
  289MOL0     C39773   4.247   1.215   6.764 -0.2899  0.2324  1.5603
  289MOL0     C39774   4.378   1.283   6.735  0.7610  0.4538 -0.5168
  289MOL0     O39775   4.415   1.255   6.601 -0.2941 -0.1804 -0.8167
  289MOL0     C39776   4.519   1.324   6.545 -0.5837 -0.0743  0.6742
  289MOL0     C39777   4.592   1.434   6.597  0.7289 -0.3963 -0.3626
  289MOL0     C39778   4.707   1.482   6.539  0.5646 -0.6191  0.6390
  289MOL0     C39779   4.747   1.437   6.415  0.5366  0.2594 -0.4493
  289MOL0     O39780   4.870   1.464   6.367  0.4098 -0.0602  0.3190
  289MOL0     C39781   4.886   1.608   6.343  0.3864  0.7857  0.6725
  289MOL0     C39782   5.026   1.648   6.378  0.1925 -0.6946  0.5429
  289MOL0     C39783   5.124   1.580   6.276  0.4209  0.0773 -0.6658
  289MOL0     C39784   5.263   1.652   6.284 -0.4690  0.2504  0.6920
  289MOL0     C39785   5.369   1.560   6.229 -0.1318  0.1684  0.3452
  289MOL0     C39786   5.496   1.650   6.199  0.3578 -0.0439  0.1261
  289MOL0     C39787   5.627   1.576   6.208 -0.3859 -0.1315 -0.5172
  289MOL0     C39788   5.654   1.486   6.081 -0.0621  0.8000 -0.1675
  289MOL0    Cl39789   5.586   1.324   6.096  0.5334 -0.0872  0.3126
  289MOL0     C39790   4.671   1.332   6.356  0.2798 -0.2396 -0.4008
  289MOL0     C39791   4.566   1.269   6.428  0.6405  0.7885  0.6189
  289MOL0     O39792   4.455   1.300   6.832  0.4013  0.0350 -0.0013
  289MOL0     C39793   4.216   1.085   6.705 -0.3759  0.0929 -0.0503
  289MOL0     C39794   4.083   1.044   6.714  0.2473  0.2906  0.9337
  289MOL0     N39795   3.300   1.118   6.696 -0.0806 -1.3046  0.4517
  289MOL0     N39796   3.220   1.220   6.686 -0.0254  0.1745 -0.5972
  289MOL0     C39797   2.356   1.858   7.277  0.8494  0.1575  0.4321
  289MOL0     C39798   2.227   1.906   7.302 -0.0536  0.3577 -0.4338
  289MOL0     C39799   1.833   2.062   7.336  0.5152  0.6751  0.0699
  289MOL0     C39800   1.781   1.942   7.275 -0.9748  0.7970 -0.4568
  289MOL0     C39801   1.647   1.919   7.284  0.7985  0.3635  0.2374
  289MOL0     C39802   1.564   1.995   7.372  0.5252  0.3589 -0.4540
  289MOL0     O39803   1.437   1.966   7.399 -0.0376  0.4007 -0.7677
  289MOL0     C39804   1.376   1.848   7.340 -0.0916  0.5559 -0.9475
  289MOL0     C39805   1.246   1.812   7.416  1.0838  0.6690 -0.6449
  289MOL0     C39806   1.149   1.941   7.432  0.2183  1.3806  0.6991
  289MOL0     C39807   1.015   1.907   7.489  0.3494  0.0186 -0.2740
  289MOL0     C39808   0.954   2.029   7.544  0.8891  0.7718  0.0026
  289MOL0     C39809   0.889   2.116   7.604 -0.6999 -0.8011  0.3210
  289MOL0     C39810   1.617   2.108   7.436 -0.3537  0.8914  1.0480
  289MOL0     C39811   1.750   2.129   7.425  0.0631 -0.1497  0.8025
  289MOL0     C39812   1.806   2.248   7.505  0.3440  0.4206  0.3702
  289MOL0     H39813   2.171   2.054   7.004  1.2563  1.8856  0.4908
  289MOL0     H39814   2.395   1.967   6.954 -0.0282 -0.8517 -0.8455
  289MOL0     H39815   2.676   1.914   7.254 -1.3669 -0.2565  1.2806
  289MOL0     H39816   2.617   2.022   7.116 -1.2069 -1.1388  0.0441
  289MOL0     H39817   2.739   1.845   6.960  3.7012 -1.5184 -0.3849
  289MOL0     H39818   2.838   1.941   7.057 -2.2273  0.6442 -1.3371
  289MOL0     H39819   2.853   1.764   7.229 -0.6980  0.3646  0.2397
  289MOL0     H39820   2.732   1.661   7.141 -0.9201 -0.0373 -1.3667
  289MOL0     H39821   2.896   1.671   6.938 -1.1685  0.0802  0.1494
  289MOL0     H39822   3.006   1.728   7.049  1.2768 -1.7824 -3.4193
  289MOL0     H39823   2.869   1.443   7.049 -1.4803  1.1682 -0.4244
  289MOL0     H39824   2.954   1.497   7.187 -0.0986  1.5030 -0.8742
  289MOL0     H39825   3.143   1.562   7.060 -0.3435 -1.2003  0.7629
  289MOL0     H39826   3.129   1.394   7.059  1.1040  0.3575  0.1279
  289MOL0     H39827   3.089   1.587   6.827 -0.2693  0.3667  0.6209
  289MOL0     H39828   3.014   1.434   6.806 -1.3726  0.5500  1.1914
  289MOL0     H39829   3.235   1.474   6.704  1.0492 -1.7402 -0.2212
  289MOL0     H39830   3.297   1.490   6.866  0.0056  0.3153 -0.0803
  289MOL0     H39831   3.370   1.252   6.987  0.8124  0.1017  0.0385
  289MOL0     H39832   3.414   0.906   6.884  2.6216 -0.7193  0.9063
  289MOL0     H39833   3.481   1.042   6.987  1.3954  1.0939 -0.3353
  289MOL0     H39834   3.560   0.950   6.708  0.3833 -0.7540 -0.1455
  289MOL0     H39835   3.614   1.103   6.793 -0.6043 -0.0438  2.5372
  289MOL0     H39836   3.706   0.954   6.980 -0.4665  0.7768 -0.1298
  289MOL0     H39837   3.657   0.817   6.870 -1.4780  0.9374 -1.5623
  289MOL0     H39838   3.896   0.863   6.838 -1.2435 -1.3361  1.2268
  289MOL0     H39839   3.811   0.938   6.696  0.3941 -2.3905  0.4710
  289MOL0     H39840   3.948   1.298   6.899 -0.4377 -0.8909  2.0650
  289MOL0     H39841   4.091   1.494   6.811 -1.4521 -1.8373  0.3593
  289MOL0     H39842   4.256   1.484   6.842 -0.4899  0.2178  1.2986
  289MOL0     H39843   4.138   1.448   6.980  1.6883  0.4395  0.6582
  289MOL0     H39844   4.550   1.486   6.682  0.0706  0.4767 -1.1974
  289MOL0     H39845   4.762   1.562   6.587  2.5745 -0.6171 -1.4772
  289MOL0     H39846   4.863   1.630   6.238 -0.0209 -2.9284 -0.1336
  289MOL0     H39847   4.818   1.662   6.410 -0.4025 -0.5631  1.0001
  289MOL0     H39848   5.034   1.757   6.369  0.5740 -0.7203  0.5334
  289MOL0     H39849   5.046   1.627   6.483  0.7606  1.5580  0.9427
  289MOL0     H39850   5.079   1.585   6.176  0.3332  0.5046 -0.6099
  289MOL0     H39851   5.131   1.474   6.302 -3.1446 -0.4884 -1.5159
  289MOL0     H39852   5.285   1.688   6.385 -0.4976  1.3859  0.2985
  289MOL0     H39853   5.248   1.741   6.223  2.6831 -0.1936 -0.9393
  289MOL0     H39854   5.380   1.483   6.306 -0.1976  1.1081  1.3212
  289MOL0     H39855   5.334   1.530   6.130 -1.1354  4.0132 -0.6297
  289MOL0     H39856   5.495   1.731   6.273  1.0429  0.1221 -0.0362
  289MOL0     H39857   5.477   1.701   6.104 -3.1086 -0.2590  0.5839
  289MOL0     H39858   5.638   1.523   6.303 -1.4896  0.0017 -0.3012
  289MOL0     H39859   5.703   1.654   6.200 -0.3073  0.2483  2.6696
  289MOL0     H39860   5.761   1.468   6.069 -0.0612  0.3248  0.5458
  289MOL0     H39861   5.624   1.529   5.984  2.2210  1.4292 -0.6472
  289MOL0     H39862   4.721   1.272   6.280  0.5903 -0.0888 -0.3202
  289MOL0     H39863   4.515   1.183   6.384  1.3615  0.0183  1.2696
  289MOL0     H39864   4.286   1.026   6.646  2.6799  2.5819  0.7869
  289MOL0     H39865   4.054   0.942   6.692  0.8635  0.7732 -2.8645
  289MOL0     H39866   2.422   1.811   7.349 -0.9974  0.7296  2.5867
  289MOL0     H39867   2.178   1.887   7.396  0.5405  0.7713 -0.0359
  289MOL0     H39868   1.840   1.892   7.199 -0.7460  2.6848 -1.6121
  289MOL0     H39869   1.598   1.846   7.221 -4.1788  0.7897  3.0646
  289MOL0     H39870   1.364   1.867   7.234 -0.9160  0.7234 -0.8295
  289MOL0     H39871   1.438   1.759   7.356 -1.1659  0.0820  0.9696
  289MOL0     H39872   1.255   1.766   7.515 -1.5166  1.4475  0.0187
  289MOL0     H39873   1.191   1.732   7.365  0.4476 -1.6457  3.2481
  289MOL0     H39874   1.192   2.012   7.502  0.9552  1.3422  0.2950
  289MOL0     H39875   1.130   1.991   7.336 -0.8605 -1.5066 -0.7101
  289MOL0     H39876   1.027   1.844   7.577 -0.5563 -1.3042 -1.0524
  289MOL0     H39877   0.954   1.851   7.418 -0.3565  1.9814 -1.2786
  289MOL0     H39878   0.834   2.189   7.661 -1.0315 -1.2166  0.5335
  289MOL0     H39879   1.554   2.167   7.503 -0.9892  1.2312  0.1627
  289MOL0     H39880   1.735   2.331   7.514 -1.9862 -1.5964  2.0411
  289MOL0     H39881   1.835   2.216   7.605 -0.4982  0.2647  0.5769
  289MOL0     H39882   1.890   2.293   7.451 -0.5566  0.0392 -1.4467
  290MOL0     O39883   6.783   3.839   9.200  0.8570 -0.0601  0.2738
  290MOL0     C39884   6.708   3.753   9.249 -0.7435  0.4143  0.7790
  290MOL0     O39885   6.753   3.660   9.338 -0.1863 -0.0023  0.0997
  290MOL0     C39886   6.887   3.632   9.354 -0.4515  0.0857  0.2340
  290MOL0     C39887   6.959   3.586   9.242 -0.2051 -0.0837 -0.5360
  290MOL0     C39888   7.092   3.558   9.248  0.1367  0.0078 -0.3949
  290MOL0     C39889   7.161   3.571   9.371  0.1371 -0.2360  0.0957
  290MOL0     O39890   7.297   3.552   9.397  0.2340  0.1784 -0.0182
  290MOL0     C39891   7.384   3.507   9.291  0.7258 -0.3289  0.0218
  290MOL0     C39892   7.531   3.534   9.329 -0.5677  0.3881  0.2750
  290MOL0     C39893   7.574   3.424   9.425  0.0271  0.0303 -0.3667
  290MOL0     C39894   7.730   3.413   9.422 -0.5651  0.2686 -0.1557
  290MOL0     C39895   7.776   3.332   9.543  0.6386 -0.5204  0.7674
  290MOL0     C39896   7.922   3.291   9.546 -0.8853  0.3177  0.3368
  290MOL0     C39897   8.018   3.409   9.520  0.0122  0.0597 -0.5724
  290MOL0     C39898   8.030   3.505   9.636  0.6189 -1.2420  0.1965
  290MOL0     N39899   8.128   3.610   9.606  0.4992  0.0049  0.7504
  290MOL0     C39900   8.263   3.599   9.571  0.1779  0.2777  0.3961
  290MOL0     C39901   8.291   3.736   9.536 -0.5367  0.0566  0.2601
  290MOL0     C39902   8.413   3.802   9.483  0.9484  0.7379 -0.2174
  290MOL0     C39903   8.537   3.797   9.577  0.4275 -0.4763  0.3215
  290MOL0     C39904   8.588   3.659   9.602  0.8383  0.5887 -1.1257
  290MOL0     C39905   8.731   3.652   9.658 -0.6650  0.0122  0.0228
  290MOL0     O39906   8.746   3.703   9.792  0.2969  0.1902  0.7778
  290MOL0     C39907   8.865   3.731   9.850 -0.1080 -0.5947  0.0428
  290MOL0     C39908   8.983   3.717   9.777 -0.2076  0.3073 -1.0987
  290MOL0     C39909   9.102   3.741   9.846  0.4503 -0.6883 -1.0470
  290MOL0     C39910   9.225   3.735   9.759  0.5707 -0.7013 -0.1708
  290MOL0     C39911   9.108   3.769   9.986 -0.2111  0.7621 -0.0140
  290MOL0     C39912   9.227   3.791  10.067 -0.1786 -0.2923  0.9597
  290MOL0     O39913   9.209   3.788  10.205 -0.5458  0.6123  0.4599
  290MOL0     C39914   9.315   3.789  10.294 -0.1380  0.2180 -0.7641
  290MOL0     C39915   9.447   3.750  10.253 -0.2591  0.2409 -0.0498
  290MOL0     C39916   9.550   3.751  10.348 -0.7177 -0.5498 -0.2753
  290MOL0     C39917   9.533   3.805  10.476  0.7153  0.7366 -0.1288
  290MOL0     O39918   9.635   3.822  10.572  0.3360 -0.0931 -0.2095
  290MOL0     C39919   9.766   3.796  10.530 -0.1081 -0.8025 -0.4926
  290MOL0     C39920   9.858   3.843  10.637 -0.5464 -0.6981  0.1777
  290MOL0     C39921   9.848   3.764  10.770  0.4512  0.0666 -0.1164
  290MOL0     C39922   9.983   3.728  10.826 -0.0938 -0.3086  0.2020
  290MOL0     C39923  10.063   3.856  10.861 -0.1075 -0.8250  0.4660
  290MOL0     C39924  10.020   3.939  10.979 -0.2186  0.5174  0.5646
  290MOL0     C39925  10.100   4.066  10.997 -0.6690  0.2807 -0.0831
  290MOL0     C39926  10.044   4.167  11.105 -0.0222 -0.3572  0.6196
  290MOL0    Cl39927  10.104   4.113  11.261 -0.3134 -0.2759  0.0256
  290MOL0     C39928   9.396   3.830  10.521  0.3367  0.0830 -1.0962
  290MOL0     C39929   9.294   3.821  10.425  0.0347 -0.3769 -0.1152
  290MOL0     O39930   9.326   3.830  10.003  0.0242 -0.8666  0.7480
  290MOL0     C39931   8.986   3.773  10.049 -0.1053 -0.3065 -0.2751
  290MOL0     C39932   8.867   3.759   9.980  0.0770  0.1222 -0.4156
  290MOL0     N39933   8.170   3.809   9.548  0.1133 -0.1201  1.0412
  290MOL0     N39934   8.076   3.731   9.588 -0.2480 -0.6451  0.0006
  290MOL0     C39935   7.094   3.611   9.484  0.0114  0.1773  0.7527
  290MOL0     C39936   6.962   3.639   9.480  0.6245 -0.2531 -0.0676
  290MOL0     C39937   6.573   3.752   9.186  0.0131 -0.0916  1.0880
  290MOL0     C39938   6.542   3.855   9.097 -0.0790 -1.2807 -0.3421
  290MOL0     C39939   6.420   3.865   9.039  0.6372 -0.3197  0.1661
  290MOL0     C39940   6.306   3.793   9.081  0.7736 -0.2614  0.0107
  290MOL0     O39941   6.177   3.818   9.042 -0.2903 -0.7590  0.0156
  290MOL0     C39942   6.076   3.725   9.080 -0.2724 -0.0082  0.4570
  290MOL0     C39943   5.953   3.770   9.000  0.0411  0.8843  0.1999
  290MOL0     C39944   5.915   3.909   9.044  0.1441  0.1269  0.0256
  290MOL0     C39945   5.784   3.952   8.977  0.6930 -0.2391 -0.3277
  290MOL0     C39946   5.669   3.879   9.029 -1.1317  1.2641 -0.3462
  290MOL0     C39947   5.578   3.822   9.092 -0.1156  0.0471  0.1876
  290MOL0     C39948   6.342   3.691   9.169  0.8496 -0.6039  0.8118
  290MOL0     C39949   6.464   3.664   9.225 -0.6025  0.0783 -0.5023
  290MOL0     C39950   6.489   3.541   9.312  0.0643 -1.3836 -0.2508
  290MOL0     H39951   6.907   3.574   9.147 -2.3775  1.1892  0.4304
  290MOL0     H39952   7.141   3.535   9.154  1.8086  2.3775 -0.1707
  290MOL0     H39953   7.352   3.557   9.199 -0.5259  1.0048  1.1370
  290MOL0     H39954   7.367   3.399   9.283 -1.6171  0.0523 -1.0017
  290MOL0     H39955   7.584   3.530   9.233 -0.9889  0.7845  0.0210
  290MOL0     H39956   7.531   3.635   9.373 -1.2714  1.4463 -1.9914
  290MOL0     H39957   7.537   3.439   9.526 -0.5900  2.3952 -0.8742
  290MOL0     H39958   7.547   3.325   9.387  3.0510  0.4907 -4.4752
  290MOL0     H39959   7.776   3.362   9.337  0.1132 -0.3717  0.5769
  290MOL0     H39960   7.779   3.510   9.425  0.9053 -0.4491 -0.1761
  290MOL0     H39961   7.705   3.250   9.558 -1.0347  1.1082  2.2243
  290MOL0     H39962   7.758   3.402   9.625  1.3798 -0.5667  0.9783
  290MOL0     H39963   7.934   3.242   9.643 -2.7700 -0.7301  0.0998
  290MOL0     H39964   7.946   3.221   9.464 -2.7514  0.8955 -0.7529
  290MOL0     H39965   7.984   3.466   9.433 -0.7602  0.2592 -0.1576
  290MOL0     H39966   8.115   3.369   9.492 -0.3359 -3.3531  2.3464
  290MOL0     H39967   7.933   3.555   9.647  1.2696  0.4583 -1.2698
  290MOL0     H39968   8.043   3.454   9.731 -0.3900 -1.6400  0.1350
  290MOL0     H39969   8.325   3.510   9.571  0.0554  0.1839  1.8174
  290MOL0     H39970   8.381   3.905   9.462  1.1892  0.8812  0.1037
  290MOL0     H39971   8.434   3.753   9.388 -1.3289 -0.9409  0.0627
  290MOL0     H39972   8.622   3.852   9.536 -0.8080 -0.1792 -1.9722
  290MOL0     H39973   8.510   3.843   9.673 -4.2241 -0.0844 -0.9472
  290MOL0     H39974   8.520   3.603   9.668  0.1980 -0.3131 -2.4983
  290MOL0     H39975   8.603   3.614   9.503 -1.3259  0.0173 -1.2443
  290MOL0     H39976   8.760   3.547   9.652 -1.2432 -0.1164 -0.7863
  290MOL0     H39977   8.800   3.704   9.591  0.9094 -0.9193  0.8677
  290MOL0     H39978   8.976   3.701   9.670 -2.6688 -3.1826 -0.5986
  290MOL0     H39979   9.192   3.702   9.660 -1.2238 -0.3610  0.2794
  290MOL0     H39980   9.291   3.656   9.794  3.7342  0.7009 -2.4431
  290MOL0     H39981   9.280   3.829   9.762  1.5662 -1.2467 -0.7251
  290MOL0     H39982   9.464   3.700  10.159 -2.5598 -0.3804 -0.2119
  290MOL0     H39983   9.649   3.728  10.311 -0.4954 -0.7850  0.4527
  290MOL0     H39984   9.781   3.689  10.512 -0.1665 -0.7932 -0.5967
  290MOL0     H39985   9.792   3.857  10.443  1.8446  0.3706  0.8301
  290MOL0     H39986   9.958   3.839  10.593 -0.3986  2.0306  0.0467
  290MOL0     H39987   9.843   3.951  10.652  3.3208 -0.1945  1.4650
  290MOL0     H39988   9.799   3.667  10.761  1.2184 -0.1695 -2.5422
  290MOL0     H39989   9.776   3.822  10.828 -2.2891  0.8490 -3.8828
  290MOL0     H39990  10.026   3.677  10.738 -0.9029 -2.2392  0.8665
  290MOL0     H39991   9.981   3.668  10.917 -0.4926  0.0693  0.4442
  290MOL0     H39992  10.169   3.829  10.860  1.2048  3.5446 -1.3588
  290MOL0     H39993  10.061   3.920  10.772 -0.4815 -1.9380 -0.3593
  290MOL0     H39994  10.042   3.880  11.068  1.7264 -2.5230 -1.7231
  290MOL0     H39995   9.913   3.962  10.967 -0.3516 -0.6385 -0.8540
  290MOL0     H39996  10.122   4.125  10.908  0.7199  0.7443  0.5289
  290MOL0     H39997  10.201   4.038  11.031 -0.6997  0.7220  0.3884
  290MOL0     H39998   9.935   4.164  11.091  0.2156 -1.5774 -1.5641
  290MOL0     H39999  10.081   4.267  11.081  2.4413 -1.6803 -1.6315
  290MOL0     H40000   9.376   3.870  10.620 -0.0985  0.1383 -1.2036
  290MOL0     H40001   9.190   3.844  10.445 -0.8789 -2.5420 -1.8685
  290MOL0     H40002   8.972   3.808  10.151  1.3854 -1.3161  0.3003
  290MOL0     H40003   8.767   3.772  10.017  0.7276  2.0715  0.8147
  290MOL0     H40004   7.149   3.616   9.577 -1.1716  0.6625  1.4387
  290MOL0     H40005   6.907   3.672   9.567 -2.6431 -1.6217 -1.4423
  290MOL0     H40006   6.618   3.929   9.076 -0.8919 -0.5345 -0.6992
  290MOL0     H40007   6.405   3.946   8.967 -0.3131 -0.6769 -0.0463
  290MOL0     H40008   6.111   3.623   9.064 -0.5753 -0.2882  1.5058
  290MOL0     H40009   6.060   3.725   9.189  0.7187 -1.1313  0.6190
  290MOL0     H40010   5.872   3.699   9.020 -0.1969  1.7299  2.5268
  290MOL0     H40011   5.965   3.768   8.892 -0.9444 -2.7719  0.0367
  290MOL0     H40012   5.908   3.921   9.153  0.5155 -0.1095  0.0783
  290MOL0     H40013   5.989   3.983   9.011 -1.9840  2.8595  0.9664
  290MOL0     H40014   5.786   3.955   8.868  0.0829 -3.1111 -0.4997
  290MOL0     H40015   5.763   4.052   9.016  1.1084 -1.1244  2.3403
  290MOL0     H40016   5.499   3.775   9.147 -3.2037  1.1885 -2.8936
  290MOL0     H40017   6.267   3.618   9.197 -0.3834 -0.1758 -1.1925
  290MOL0     H40018   6.412   3.466   9.291  0.0471 -1.1154 -1.2095
  290MOL0     H40019   6.585   3.493   9.290  0.5445 -0.6646  0.2687
  290MOL0     H40020   6.489   3.563   9.419  1.0518 -0.9426 -0.3343
  291MOL0     O40021   2.756   4.931   4.377  0.7956 -0.5275 -0.3790
  291MOL0     C40022   2.721   5.010   4.283 -0.9121  0.4444 -0.3985
  291MOL0     O40023   2.791   5.125   4.246 -0.4283  0.2824 -0.2454
  291MOL0     C40024   2.913   5.142   4.303 -0.6397 -0.0901  0.5757
  291MOL0     C40025   2.931   5.201   4.434 -0.1442 -0.2893  0.4083
  291MOL0     C40026   3.060   5.217   4.486 -0.2645  0.3613  0.8618
  291MOL0     C40027   3.172   5.153   4.431 -0.3183 -0.1018  0.2341
  291MOL0     O40028   3.291   5.156   4.492  0.0798  0.6401 -0.0962
  291MOL0     C40029   3.420   5.169   4.407 -0.4025  0.6515 -0.6042
  291MOL0     C40030   3.520   5.254   4.494  0.2842 -0.2120  0.2240
  291MOL0     C40031   3.636   5.280   4.403  0.0856  0.5048 -0.4826
  291MOL0     C40032   3.607   5.391   4.306  0.1579 -0.8001 -0.4765
  291MOL0     C40033   3.716   5.391   4.193  0.0460 -0.5777  0.3184
  291MOL0     C40034   3.706   5.529   4.119  0.0456  0.3399  0.3300
  291MOL0     C40035   3.804   5.535   4.007 -0.0832  0.4320 -0.3192
  291MOL0     C40036   3.803   5.664   3.927  0.2140 -0.0398  0.5118
  291MOL0     N40037   3.937   5.687   3.871  0.1170  0.0303 -0.1902
  291MOL0     C40038   4.039   5.759   3.933  0.2760 -0.3294 -0.6666
  291MOL0     C40039   4.140   5.760   3.842 -0.6110  0.0939  0.2792
  291MOL0     C40040   4.280   5.805   3.883  0.0511 -0.3489 -0.4953
  291MOL0     C40041   4.366   5.837   3.759  0.4521 -0.1940 -0.8654
  291MOL0     C40042   4.521   5.856   3.799  0.1353  0.3395  0.0685
  291MOL0     C40043   4.613   5.911   3.689 -0.1173  0.2000  0.4731
  291MOL0     O40044   4.723   5.967   3.764  0.3433 -0.4695 -0.1943
  291MOL0     C40045   4.840   5.999   3.713 -0.6756 -0.2829  0.1657
  291MOL0     C40046   4.882   5.955   3.587  0.8648  0.3036 -0.0451
  291MOL0     C40047   5.007   5.984   3.541 -0.1355  0.6121 -0.2125
  291MOL0     C40048   5.043   5.933   3.402  0.6510  0.5257  0.8342
  291MOL0     C40049   5.102   6.054   3.627  0.6060  0.8587 -0.2373
  291MOL0     C40050   5.239   6.097   3.592  0.2438  0.2038 -0.3143
  291MOL0     O40051   5.326   6.118   3.686 -0.2115  0.1168 -0.1918
  291MOL0     C40052   5.454   6.163   3.652 -0.6621 -0.2444 -0.7904
  291MOL0     C40053   5.470   6.292   3.607  0.1221 -0.8677 -0.8492
  291MOL0     C40054   5.598   6.350   3.577  0.5706  0.4170 -0.4834
  291MOL0     C40055   5.713   6.272   3.588 -0.9168 -0.6775 -0.6523
  291MOL0     O40056   5.829   6.344   3.565  0.3287  0.5565  0.0701
  291MOL0     C40057   5.950   6.261   3.558 -0.8188  0.1792  0.3174
  291MOL0     C40058   6.083   6.343   3.515  0.5170 -0.1930 -0.1358
  291MOL0     C40059   6.110   6.458   3.615 -0.4069 -0.2289  0.2710
  291MOL0     C40060   6.229   6.542   3.570 -0.0637  0.6310 -0.3836
  291MOL0     C40061   6.202   6.669   3.494  0.0364  0.8909 -0.3540
  291MOL0     C40062   6.324   6.752   3.458 -0.6561 -0.5062 -1.0110
  291MOL0     C40063   6.431   6.680   3.383 -0.9748  0.1691 -0.2224
  291MOL0     C40064   6.544   6.780   3.335 -0.6230 -0.2032  0.0369
  291MOL0    Cl40065   6.485   6.904   3.211  0.1993  0.1729  0.2905
  291MOL0     C40066   5.706   6.143   3.634 -0.0200 -0.1236 -0.8477
  291MOL0     C40067   5.575   6.084   3.663  0.7288 -0.3752  0.1864
  291MOL0     O40068   5.258   6.111   3.472 -0.6188  0.2536 -0.5566
  291MOL0     C40069   5.056   6.092   3.757  0.5920  0.0596  1.1919
  291MOL0     C40070   4.924   6.072   3.797 -0.7303 -0.0959 -0.0059
  291MOL0     N40071   4.108   5.686   3.733 -0.4790  0.4284 -0.6303
  291MOL0     N40072   3.990   5.633   3.758 -0.1876 -0.1212 -0.2041
  291MOL0     C40073   3.160   5.091   4.304  0.7335 -0.0549  1.5782
  291MOL0     C40074   3.029   5.091   4.237 -0.5467  0.1070  0.0827
  291MOL0     C40075   2.603   4.985   4.192  0.6463 -0.0100 -0.3127
  291MOL0     C40076   2.576   5.080   4.085  0.5392  0.0800  0.3773
  291MOL0     C40077   2.479   5.047   3.990 -0.8066  0.6480 -0.6155
  291MOL0     C40078   2.401   4.934   3.995 -0.3212 -0.6064  0.0988
  291MOL0     O40079   2.323   4.893   3.889  0.6013  0.2695 -0.0532
  291MOL0     C40080   2.191   4.848   3.910  0.4957  0.3088 -0.3149
  291MOL0     C40081   2.111   4.850   3.776  0.3828  0.0428  0.3619
  291MOL0     C40082   1.963   4.807   3.797  0.3482 -0.4420 -0.0437
  291MOL0     C40083   1.879   4.870   3.684 -0.2429 -0.7526 -0.1675
  291MOL0     C40084   1.840   5.011   3.717  0.0822 -0.6629  0.0483
  291MOL0     C40085   1.797   5.123   3.746 -0.5239 -0.0665 -0.0993
  291MOL0     C40086   2.414   4.858   4.115  1.2738 -0.4321 -0.5201
  291MOL0     C40087   2.513   4.875   4.208 -0.2343 -0.4815 -0.3031
  291MOL0     C40088   2.518   4.759   4.312 -0.9941  0.1885 -0.2110
  291MOL0     H40089   2.847   5.250   4.481  0.1713 -0.8424  1.5730
  291MOL0     H40090   3.082   5.271   4.578  1.9724 -0.4246  0.8588
  291MOL0     H40091   3.384   5.223   4.320 -0.3631  0.3754 -0.7926
  291MOL0     H40092   3.451   5.068   4.378  0.3704  0.2251  1.4635
  291MOL0     H40093   3.480   5.344   4.540  1.0915  1.4309 -2.0439
  291MOL0     H40094   3.551   5.185   4.573  0.2242  0.1497  0.5681
  291MOL0     H40095   3.721   5.313   4.463 -0.9643 -0.6675  1.7542
  291MOL0     H40096   3.659   5.191   4.343  0.1196  2.8418 -4.3086
  291MOL0     H40097   3.509   5.378   4.260  0.3791 -0.1086 -1.1647
  291MOL0     H40098   3.607   5.482   4.366 -1.2714 -1.7246  1.0018
  291MOL0     H40099   3.706   5.309   4.121 -0.0952 -0.1486 -0.1562
  291MOL0     H40100   3.816   5.382   4.238  0.2120 -1.1531 -0.1589
  291MOL0     H40101   3.606   5.539   4.075 -1.1239  0.6283  2.8719
  291MOL0     H40102   3.708   5.615   4.187 -2.7110  0.6449  0.1491
  291MOL0     H40103   3.781   5.456   3.935 -0.0528  0.6280 -0.5440
  291MOL0     H40104   3.906   5.529   4.046 -0.9614 -0.2866  2.0828
  291MOL0     H40105   3.745   5.649   3.836  5.1826 -2.7617 -2.6910
  291MOL0     H40106   3.768   5.750   3.984  1.4232  0.2961  0.7748
  291MOL0     H40107   4.039   5.806   4.031  4.3097 -0.7339 -0.3037
  291MOL0     H40108   4.329   5.727   3.942 -1.4304 -2.2015 -1.6278
  291MOL0     H40109   4.266   5.892   3.947  1.4215  1.4712 -2.5123
  291MOL0     H40110   4.350   5.761   3.682 -1.2540 -0.2267 -0.5186
  291MOL0     H40111   4.322   5.930   3.720  0.0100  0.7608  1.7415
  291MOL0     H40112   4.518   5.925   3.884  2.0597 -0.3761  0.7736
  291MOL0     H40113   4.565   5.763   3.838 -0.2432  0.8649  1.8668
  291MOL0     H40114   4.639   5.828   3.623  2.1973  1.6435 -0.5301
  291MOL0     H40115   4.559   5.983   3.627  0.3949 -0.0111 -0.2317
  291MOL0     H40116   4.817   5.903   3.517 -1.1778  1.1967  1.0862
  291MOL0     H40117   5.143   5.889   3.402  0.4802  0.0273 -1.3546
  291MOL0     H40118   5.043   6.013   3.327 -1.7623 -1.0631 -1.0174
  291MOL0     H40119   4.978   5.855   3.362  2.2254 -0.2484 -0.3244
  291MOL0     H40120   5.378   6.349   3.595  2.0294  3.4587  2.2350
  291MOL0     H40121   5.599   6.452   3.540 -0.7996  1.2034  1.5065
  291MOL0     H40122   5.974   6.211   3.652  0.0306  0.9181  0.5076
  291MOL0     H40123   5.943   6.181   3.483 -0.1326 -0.3354  0.7977
  291MOL0     H40124   6.170   6.276   3.517  2.0671  1.7421  2.6265
  291MOL0     H40125   6.064   6.378   3.413  1.0023  2.6292  0.6821
  291MOL0     H40126   6.134   6.415   3.712  1.6154 -1.0887 -0.5513
  291MOL0     H40127   6.015   6.512   3.617 -1.4669 -2.0594  2.0775
  291MOL0     H40128   6.288   6.469   3.514  1.4171 -0.1967  2.1036
  291MOL0     H40129   6.295   6.563   3.654  3.2694 -0.2369 -2.5743
  291MOL0     H40130   6.147   6.636   3.406  0.9237  2.2163 -1.4458
  291MOL0     H40131   6.139   6.731   3.559  1.4778  1.4944  0.5338
  291MOL0     H40132   6.371   6.782   3.553 -3.2256  1.5370 -0.2634
  291MOL0     H40133   6.296   6.835   3.393  1.4491 -0.6491 -2.1933
  291MOL0     H40134   6.391   6.629   3.295  0.0937  0.1485 -0.7201
  291MOL0     H40135   6.483   6.608   3.446 -0.0698  1.6251  0.7669
  291MOL0     H40136   6.627   6.727   3.286  0.7288 -0.8951  2.8697
  291MOL0     H40137   6.591   6.839   3.414  2.4460 -2.0988 -0.1923
  291MOL0     H40138   5.803   6.098   3.654  0.1714  0.8958  0.6995
  291MOL0     H40139   5.582   5.983   3.701 -0.6212  0.0531  1.6875
  291MOL0     H40140   5.119   6.159   3.815  0.9523 -0.0966  0.9810
  291MOL0     H40141   4.883   6.121   3.885 -0.1386 -2.0232  1.4141
  291MOL0     H40142   3.239   5.053   4.240 -0.5350 -1.4299  0.7562
  291MOL0     H40143   3.008   5.055   4.137 -3.6370 -0.9163  0.9546
  291MOL0     H40144   2.635   5.168   4.063 -1.0368  1.0541 -0.1126
  291MOL0     H40145   2.456   5.108   3.904 -0.4851  3.8858  1.4239
  291MOL0     H40146   2.210   4.748   3.948 -0.0404 -0.8304 -2.8453
  291MOL0     H40147   2.142   4.909   3.986  0.0506  1.9615 -1.8473
  291MOL0     H40148   2.170   4.787   3.709  0.7647 -0.0357  0.7676
  291MOL0     H40149   2.113   4.954   3.741  0.9009 -1.5885 -5.4531
  291MOL0     H40150   1.955   4.698   3.790 -0.9873 -0.3077 -0.8106
  291MOL0     H40151   1.925   4.842   3.893  4.3748  0.1787  1.5252
  291MOL0     H40152   1.796   4.801   3.669 -0.2695 -0.7373 -0.0895
  291MOL0     H40153   1.940   4.879   3.594  2.4609 -0.4063  1.5874
  291MOL0     H40154   1.752   5.219   3.762  0.9581  0.4076  1.5157
  291MOL0     H40155   2.343   4.778   4.134  3.0611 -1.9847 -0.1239
  291MOL0     H40156   2.425   4.703   4.324  0.3525 -1.5440  4.7175
  291MOL0     H40157   2.600   4.687   4.309  0.6538  1.9805 -0.0789
  291MOL0     H40158   2.532   4.812   4.407 -0.4909  0.2734 -0.3289
  292MOL0     O40159   4.581   8.183   2.762  0.6295  0.4094  0.2224
  292MOL0     C40160   4.498   8.099   2.716  0.5996 -0.7773 -0.2509
  292MOL0     O40161   4.519   7.965   2.672 -0.0032 -0.5613  0.4910
  292MOL0     C40162   4.637   7.926   2.615 -0.0741  0.1675  0.2434
  292MOL0     C40163   4.763   7.933   2.679 -0.6152 -0.4816 -0.0060
  292MOL0     C40164   4.870   7.875   2.611 -0.7274  0.5158 -0.1002
  292MOL0     C40165   4.856   7.811   2.486 -0.7470  0.2765  0.9840
  292MOL0     O40166   4.970   7.743   2.441  0.0156  0.5467  0.0920
  292MOL0     C40167   4.966   7.675   2.314  0.5971  0.5292  0.2574
  292MOL0     C40168   5.063   7.554   2.307 -0.1856  0.4432 -0.6024
  292MOL0     C40169   5.217   7.589   2.281 -0.1609 -0.0451 -0.3611
  292MOL0     C40170   5.271   7.706   2.364  0.0944  0.7613 -0.3624
  292MOL0     C40171   5.424   7.717   2.361  0.7319 -0.9849  0.4843
  292MOL0     C40172   5.470   7.852   2.428 -0.2896  0.7577  0.3621
  292MOL0     C40173   5.616   7.849   2.464  0.6118 -0.1023  0.7289
  292MOL0     C40174   5.662   7.987   2.509 -0.3366  0.2708 -0.0706
  292MOL0     N40175   5.803   7.961   2.553  0.6302  0.3190  0.4653
  292MOL0     C40176   5.919   7.980   2.484  0.4242  0.3144  0.7966
  292MOL0     C40177   6.019   7.951   2.558 -0.6537 -0.3769 -0.4437
  292MOL0     C40178   6.169   7.962   2.524  0.0778 -0.3401 -0.1376
  292MOL0     C40179   6.224   7.824   2.522 -0.6841  0.8694  0.0374
  292MOL0     C40180   6.365   7.824   2.453 -1.0374 -0.4072  0.8587
  292MOL0     C40181   6.469   7.907   2.533 -0.1723 -0.2629  0.1650
  292MOL0     O40182   6.594   7.899   2.457  0.1421  0.5747 -0.0366
  292MOL0     C40183   6.707   7.958   2.505 -0.1778  0.9573 -1.1270
  292MOL0     C40184   6.713   8.041   2.615  0.2823  0.4447 -0.2482
  292MOL0     C40185   6.829   8.093   2.661 -0.2481 -0.0519 -0.1313
  292MOL0     C40186   6.816   8.159   2.799  0.2440 -0.3247  0.2781
  292MOL0     C40187   6.950   8.078   2.593 -0.1573 -0.3480  1.0864
  292MOL0     C40188   7.095   8.112   2.635  1.1541 -0.3640  0.4936
  292MOL0     O40189   7.196   8.063   2.561 -0.3180  1.1465  0.1877
  292MOL0     C40190   7.330   8.115   2.558  0.9236  0.2339 -1.2093
  292MOL0     C40191   7.365   8.220   2.472 -0.3947  0.5005  0.0331
  292MOL0     C40192   7.498   8.271   2.477  0.4802 -0.5362 -0.0050
  292MOL0     C40193   7.596   8.213   2.561 -0.0909  0.0021 -0.6037
  292MOL0     O40194   7.728   8.264   2.552 -0.2315  0.3209  0.4130
  292MOL0     C40195   7.826   8.225   2.647 -0.3182 -0.1384  1.1290
  292MOL0     C40196   7.797   8.299   2.777  0.8009  0.4254  1.1473
  292MOL0     C40197   7.836   8.446   2.776 -0.3768 -0.2125 -0.9780
  292MOL0     C40198   7.757   8.538   2.679 -0.2694  0.4988  0.0553
  292MOL0     C40199   7.616   8.562   2.725  0.9155  0.3151  0.0387
  292MOL0     C40200   7.607   8.613   2.877 -0.4811 -1.2858 -0.3950
  292MOL0     C40201   7.460   8.667   2.894  0.5417  0.4552 -0.0855
  292MOL0     C40202   7.424   8.696   3.037 -0.1630 -0.2348  0.0679
  292MOL0    Cl40203   7.260   8.766   3.060  0.4181  0.0387  0.2500
  292MOL0     C40204   7.557   8.101   2.643 -0.5488  0.0199  0.5823
  292MOL0     C40205   7.423   8.057   2.644  0.1178  0.5946  0.3320
  292MOL0     O40206   7.109   8.203   2.714  0.4533  0.2902  0.1513
  292MOL0     C40207   6.947   7.996   2.473 -0.0104 -0.3675 -0.3063
  292MOL0     C40208   6.827   7.933   2.438 -0.0445 -0.8462  0.0007
  292MOL0     N40209   5.957   7.911   2.684  1.3181  0.2573  0.4722
  292MOL0     N40210   5.828   7.918   2.675  0.7897  0.4854  0.5282
  292MOL0     C40211   4.739   7.818   2.415  0.0148 -0.5673 -0.9307
  292MOL0     C40212   4.632   7.879   2.486 -0.2934  0.4438  0.6143
  292MOL0     C40213   4.359   8.133   2.739  0.6308  0.6275 -0.0314
  292MOL0     C40214   4.261   8.027   2.745 -0.2820  0.3859  0.2056
  292MOL0     C40215   4.126   8.053   2.753  0.4656  0.0004  0.5556
  292MOL0     C40216   4.083   8.187   2.764  0.2774  0.1021 -0.8210
  292MOL0     O40217   3.950   8.226   2.764  0.2490 -0.3776 -0.1096
  292MOL0     C40218   3.855   8.121   2.734 -0.8652 -0.5403 -0.4337
  292MOL0     C40219   3.722   8.185   2.690 -1.0616 -0.1493  1.1843
  292MOL0     C40220   3.601   8.092   2.718 -0.1829 -0.7943  0.0646
  292MOL0     C40221   3.548   8.102   2.864  0.3049 -0.2186  0.0973
  292MOL0     C40222   3.463   8.221   2.877 -0.1900  0.4107  0.9324
  292MOL0     C40223   3.391   8.318   2.880  0.0403 -0.0310  0.9354
  292MOL0     C40224   4.174   8.293   2.781  0.8901  0.0880  0.5620
  292MOL0     C40225   4.313   8.265   2.760 -0.3532  0.5181  0.4954
  292MOL0     C40226   4.400   8.396   2.768 -0.5970  0.6815  0.0922
  292MOL0     H40227   4.768   7.989   2.772 -0.1324 -1.0101  0.2913
  292MOL0     H40228   4.963   7.877   2.667 -1.6746 -1.2312  1.6646
  292MOL0     H40229   4.990   7.746   2.234  1.4207 -2.2954 -2.1791
  292MOL0     H40230   4.866   7.634   2.299  1.9032 -2.7386 -0.2120
  292MOL0     H40231   5.051   7.493   2.397 -3.2683 -1.1229 -1.9648
  292MOL0     H40232   5.039   7.488   2.224  0.8802 -0.7655  0.0025
  292MOL0     H40233   5.281   7.501   2.297  0.0915  0.1650 -0.2116
  292MOL0     H40234   5.233   7.602   2.174 -0.8416 -1.7084 -0.6968
  292MOL0     H40235   5.220   7.800   2.340 -1.8548 -0.2987 -0.5511
  292MOL0     H40236   5.249   7.686   2.470  1.0063 -0.0458 -0.3106
  292MOL0     H40237   5.466   7.703   2.261  1.9580 -0.2469  0.8783
  292MOL0     H40238   5.458   7.631   2.421  0.2474  0.5551  3.1236
  292MOL0     H40239   5.442   7.938   2.367 -2.4321  0.1558  0.3994
  292MOL0     H40240   5.413   7.857   2.521  0.6769  0.9247  0.9564
  292MOL0     H40241   5.682   7.818   2.383  1.9704 -0.5538  1.9599
  292MOL0     H40242   5.626   7.775   2.544 -0.4232 -0.6093  0.4128
  292MOL0     H40243   5.658   8.037   2.412  1.6896 -2.3552 -1.6860
  292MOL0     H40244   5.599   8.032   2.585  0.3834  2.5788 -0.7511
  292MOL0     H40245   5.937   8.025   2.387  3.0002  0.7333  1.3968
  292MOL0     H40246   6.214   8.023   2.603 -2.1952 -0.4186  1.3119
  292MOL0     H40247   6.186   7.999   2.423  1.8718 -2.1978 -0.5777
  292MOL0     H40248   6.238   7.787   2.624  0.1335 -1.2793 -0.7782
  292MOL0     H40249   6.164   7.755   2.461  2.6460 -0.6684 -1.7559
  292MOL0     H40250   6.397   7.720   2.456  3.9887  0.8400 -0.6965
  292MOL0     H40251   6.349   7.872   2.356 -1.7742  2.0604  2.0991
  292MOL0     H40252   6.440   8.008   2.564 -0.1684 -1.0668  3.1005
  292MOL0     H40253   6.484   7.863   2.632  0.0827  0.7616  0.5956
  292MOL0     H40254   6.621   8.066   2.667 -0.5463 -3.0483  0.2206
  292MOL0     H40255   6.878   8.099   2.867 -0.6571 -1.8459 -0.2018
  292MOL0     H40256   6.716   8.158   2.843  0.8335 -1.6959  1.6491
  292MOL0     H40257   6.848   8.264   2.802 -1.8099  0.3159  2.4410
  292MOL0     H40258   7.294   8.273   2.409  0.4102  1.6692  0.0913
  292MOL0     H40259   7.530   8.349   2.408  3.1242 -0.0199  1.6531
  292MOL0     H40260   7.838   8.118   2.665 -1.6096 -0.6096 -0.4658
  292MOL0     H40261   7.923   8.257   2.608 -0.4606  0.8326  1.5431
  292MOL0     H40262   7.691   8.285   2.799  0.9040 -0.2852  1.2127
  292MOL0     H40263   7.845   8.237   2.853  2.4121 -1.4860 -1.2236
  292MOL0     H40264   7.941   8.450   2.746  0.4916  0.5447  1.8600
  292MOL0     H40265   7.825   8.485   2.877  1.5273 -0.5349 -0.6073
  292MOL0     H40266   7.761   8.495   2.579  2.3612  1.6754 -0.4221
  292MOL0     H40267   7.807   8.635   2.675 -1.0882  0.8964 -1.0673
  292MOL0     H40268   7.574   8.626   2.647 -0.4160  0.9202  1.2065
  292MOL0     H40269   7.555   8.472   2.718  0.6863  0.1413  2.9731
  292MOL0     H40270   7.678   8.695   2.891 -1.9150  0.2870 -1.8959
  292MOL0     H40271   7.628   8.531   2.946  1.0141 -1.4292 -0.9800
  292MOL0     H40272   7.397   8.583   2.863  1.6970 -0.1773 -0.7704
  292MOL0     H40273   7.442   8.754   2.830 -0.3630  1.3454  1.3041
  292MOL0     H40274   7.500   8.772   3.059  0.0162 -1.5395  5.4127
  292MOL0     H40275   7.447   8.613   3.105  3.0246 -0.8263 -1.5211
  292MOL0     H40276   7.634   8.051   2.700  0.6667 -0.7458 -1.6131
  292MOL0     H40277   7.410   7.967   2.704  0.1369  0.4491  0.1178
  292MOL0     H40278   7.032   7.967   2.412  1.0928  0.0428  0.9785
  292MOL0     H40279   6.828   7.854   2.363  0.5490 -0.2410 -0.6527
  292MOL0     H40280   4.733   7.787   2.311  0.5788  0.6271 -1.3463
  292MOL0     H40281   4.536   7.876   2.434  1.2932 -1.2962 -2.5266
  292MOL0     H40282   4.293   7.924   2.733  0.3026  0.6714 -0.8518
  292MOL0     H40283   4.056   7.970   2.747 -0.0645  0.4481  0.5034
  292MOL0     H40284   3.885   8.051   2.656  2.9387  1.0080 -0.5890
  292MOL0     H40285   3.839   8.065   2.827 -1.4955 -0.3374 -0.4140
  292MOL0     H40286   3.730   8.216   2.586  0.4311  0.7262  1.5356
  292MOL0     H40287   3.703   8.284   2.733 -1.9198  0.3700 -0.3020
  292MOL0     H40288   3.518   8.109   2.648 -0.2736  1.1460  0.5859
  292MOL0     H40289   3.633   7.989   2.702 -0.4014 -0.8901  0.2295
  292MOL0     H40290   3.627   8.119   2.938  2.3939  1.3079 -2.2847
  292MOL0     H40291   3.483   8.017   2.886 -0.0573 -0.6330 -2.2330
  292MOL0     H40292   3.312   8.389   2.893 -1.3315 -0.8521 -2.0010
  292MOL0     H40293   4.134   8.392   2.799  1.2477 -0.2261  3.6965
  292MOL0     H40294   4.353   8.489   2.735  1.3930  1.5503 -0.4143
  292MOL0     H40295   4.440   8.414   2.868 -1.4667 -0.7559  0.7299
  292MOL0     H40296   4.484   8.390   2.698  0.5601  1.8527  1.3357
  293MOL0     O40297   7.831   1.707   9.992 -0.0799  0.3539 -0.5349
  293MOL0     C40298   7.844   1.824   9.965 -0.2203 -0.6167  0.1676
  293MOL0     O40299   7.970   1.890   9.966  0.5115  0.0278 -0.7241
  293MOL0     C40300   8.073   1.828  10.031 -0.1254 -1.0711 -0.2727
  293MOL0     C40301   8.199   1.819   9.961  0.0068 -0.6731 -0.2262
  293MOL0     C40302   8.309   1.771  10.032  0.2643 -0.1477 -1.0425
  293MOL0     C40303   8.304   1.741  10.171  0.1895 -0.2435  0.2565
  293MOL0     O40304   8.410   1.713  10.253 -0.7340 -0.0775 -0.1960
  293MOL0     C40305   8.538   1.688  10.189  0.2000 -0.0884 -0.0670
  293MOL0     C40306   8.652   1.702  10.283 -0.2703  0.2290  0.6482
  293MOL0     C40307   8.685   1.583  10.358 -0.6002  0.2487  0.3766
  293MOL0     C40308   8.814   1.596  10.450 -0.1792 -0.7770  0.3410
  293MOL0     C40309   8.945   1.642  10.376 -0.6566  0.3157 -0.1293
  293MOL0     C40310   9.070   1.627  10.465 -0.0090  0.2364 -0.9433
  293MOL0     C40311   9.141   1.498  10.426  0.1875  0.7544  0.4820
  293MOL0     C40312   9.280   1.478  10.496 -0.3310 -0.6458 -0.4799
  293MOL0     N40313   9.277   1.508  10.645  0.3432 -0.1904  0.1336
  293MOL0     C40314   9.348   1.607  10.707  0.5292 -0.2778  0.0911
  293MOL0     C40315   9.332   1.580  10.834  0.3903 -0.2622 -0.2350
  293MOL0     C40316   9.381   1.641  10.961 -0.0332  0.1165  0.3369
  293MOL0     C40317   9.533   1.637  10.961 -0.1016 -1.3370 -0.3172
  293MOL0     C40318   9.581   1.695  11.097 -0.3136  0.3033  0.2467
  293MOL0     C40319   9.728   1.670  11.123  0.4280 -0.3153 -0.3858
  293MOL0     O40320   9.802   1.718  11.012 -0.7666 -0.6577  0.1406
  293MOL0     C40321   9.939   1.729  11.024 -0.4500 -0.5848 -0.5659
  293MOL0     C40322  10.029   1.654  11.108 -0.0901  0.3656 -0.5659
  293MOL0     C40323  10.165   1.672  11.105 -0.7270 -0.0713  0.4377
  293MOL0     C40324  10.239   1.590  11.201 -0.1990  0.2060  0.4184
  293MOL0     C40325  10.231   1.764  11.016  0.8016 -1.0484 -0.9140
  293MOL0     C40326  10.377   1.780  10.995  0.1699 -0.2799 -0.1494
  293MOL0     O40327  10.467   1.700  11.059 -0.7503  0.5531  0.5834
  293MOL0     C40328  10.602   1.713  11.058 -0.6230 -0.1352 -0.4259
  293MOL0     C40329  10.669   1.608  11.116 -0.6335  0.0732 -0.1892
  293MOL0     C40330  10.813   1.616  11.143  0.4147  0.2241 -0.1140
  293MOL0     C40331  10.890   1.722  11.092 -0.4954  0.1506  0.3707
  293MOL0     O40332  11.026   1.715  11.084  0.5836 -0.6250 -0.2402
  293MOL0     C40333  11.097   1.810  11.003 -0.5341  0.5352  0.0953
  293MOL0     C40334  11.250   1.783  10.990  0.3880 -0.1912  0.1952
  293MOL0     C40335  11.291   1.633  11.018 -0.0993  0.7360 -0.6511
  293MOL0     C40336  11.435   1.608  10.981 -0.6068 -0.1460  1.1329
  293MOL0     C40337  11.473   1.481  11.037 -0.3598  0.2074 -0.5509
  293MOL0     C40338  11.601   1.426  10.975 -0.6830  0.6930 -0.0755
  293MOL0     C40339  11.727   1.516  11.016  0.7359 -0.0007  0.3951
  293MOL0     C40340  11.853   1.464  10.949  0.7013  0.6308 -0.0831
  293MOL0    Cl40341  11.984   1.580  11.006 -0.1122 -0.3129 -0.8254
  293MOL0     C40342  10.810   1.823  11.028 -0.6202  0.1187 -0.4851
  293MOL0     C40343  10.673   1.822  11.009  0.3606  0.5619  0.0116
  293MOL0     O40344  10.409   1.867  10.914  0.4048  0.5739 -0.3359
  293MOL0     C40345  10.137   1.840  10.941  0.3727 -0.1942  0.1887
  293MOL0     C40346   9.997   1.823  10.931 -0.8125  0.1970  0.0555
  293MOL0     N40347   9.242   1.478  10.848  0.3945 -0.7433 -0.1791
  293MOL0     N40348   9.220   1.425  10.732  0.4336 -0.8079  0.1496
  293MOL0     C40349   8.179   1.743  10.232  0.7272 -0.0464  0.4399
  293MOL0     C40350   8.063   1.792  10.164  0.1475  0.2129  0.3771
  293MOL0     C40351   7.737   1.889   9.898  0.0166 -1.1022 -0.4328
  293MOL0     C40352   7.770   1.959   9.780  0.2462 -0.0457 -0.1937
  293MOL0     C40353   7.671   2.034   9.713  0.3152  0.0782 -0.2909
  293MOL0     C40354   7.537   2.039   9.755 -0.7727  0.5041  0.3520
  293MOL0     O40355   7.440   2.115   9.702  0.4552  0.2600 -0.0468
  293MOL0     C40356   7.300   2.087   9.718  0.0834  0.1212 -0.4207
  293MOL0     C40357   7.249   2.076   9.579  0.9348 -0.2098  0.6549
  293MOL0     C40358   7.093   2.055   9.574  0.1323 -1.2122 -0.8330
  293MOL0     C40359   7.047   2.064   9.425  0.9599  0.0210 -0.2057
  293MOL0     C40360   6.910   2.026   9.410  0.7446  0.1712 -0.5403
  293MOL0     C40361   6.795   1.983   9.410 -0.1356 -0.3729 -0.4901
  293MOL0     C40362   7.511   1.970   9.877  0.6685 -0.0878 -0.3416
  293MOL0     C40363   7.605   1.883   9.945  0.6374 -0.6639 -0.5221
  293MOL0     C40364   7.551   1.803  10.072 -0.1760 -0.6528  1.1044
  293MOL0     H40365   8.205   1.851   9.858  1.8217 -1.5410 -0.4307
  293MOL0     H40366   8.404   1.763   9.980  1.6802  1.9868  0.9997
  293MOL0     H40367   8.550   1.768  10.115 -0.8959  0.3879  0.2464
  293MOL0     H40368   8.536   1.594  10.133 -0.9988 -1.1647  1.6692
  293MOL0     H40369   8.735   1.729  10.216  1.0834 -0.0768  2.1386
  293MOL0     H40370   8.650   1.784  10.356  0.1114 -0.6160  1.6252
  293MOL0     H40371   8.598   1.549  10.415 -0.8470 -0.5194 -0.4331
  293MOL0     H40372   8.701   1.495  10.295 -1.5222  0.1335  0.2968
  293MOL0     H40373   8.792   1.665  10.531  0.0841  0.1640 -0.3659
  293MOL0     H40374   8.841   1.502  10.499  0.7990 -0.5623  0.2250
  293MOL0     H40375   8.918   1.746  10.358  0.0841  0.3517 -1.0590
  293MOL0     H40376   8.956   1.584  10.284  0.9411  2.0051 -1.0487
  293MOL0     H40377   9.136   1.712  10.449  0.9189 -0.5936 -1.6075
  293MOL0     H40378   9.037   1.621  10.570 -2.0788  2.5777 -1.3699
  293MOL0     H40379   9.160   1.480  10.320  0.5430 -1.4081  0.8641
  293MOL0     H40380   9.076   1.416  10.458 -0.5501  1.0045 -0.3650
  293MOL0     H40381   9.321   1.377  10.492 -1.4855 -1.2924  1.9706
  293MOL0     H40382   9.349   1.552  10.453 -1.8786  0.2366 -1.5625
  293MOL0     H40383   9.412   1.679  10.657 -2.4644  0.3691 -3.2293
  293MOL0     H40384   9.341   1.596  11.052 -1.0243 -0.5528 -0.4260
  293MOL0     H40385   9.353   1.746  10.976  2.1411  0.7699  0.2893
  293MOL0     H40386   9.565   1.533  10.952 -0.1917 -1.2395 -2.1457
  293MOL0     H40387   9.585   1.688  10.880  1.3187 -0.8554  0.8471
  293MOL0     H40388   9.554   1.801  11.103  1.0536  0.6907 -0.2272
  293MOL0     H40389   9.528   1.645  11.179  1.1877 -1.2934  0.2903
  293MOL0     H40390   9.762   1.721  11.214 -1.4060 -2.8335  1.8227
  293MOL0     H40391   9.744   1.565  11.150  1.4497 -0.1163 -0.1389
  293MOL0     H40392   9.990   1.587  11.183 -4.3733  0.4738 -2.3805
  293MOL0     H40393  10.320   1.647  11.247 -1.6557  0.3181  3.0174
  293MOL0     H40394  10.283   1.515  11.134 -0.9224  1.1490 -1.1779
  293MOL0     H40395  10.181   1.530  11.272  0.2169 -2.1078 -1.0667
  293MOL0     H40396  10.624   1.515  11.150  5.4929 -3.0436  0.8055
  293MOL0     H40397  10.853   1.522  11.180 -1.9816 -1.0604 -0.5702
  293MOL0     H40398  11.061   1.804  10.900 -2.2409 -0.9773  0.7268
  293MOL0     H40399  11.086   1.913  11.038 -0.4250  0.6972 -0.3505
  293MOL0     H40400  11.275   1.811  10.887  0.7043  0.2303  0.3846
  293MOL0     H40401  11.305   1.840  11.064 -0.7624  0.8488  0.2743
  293MOL0     H40402  11.233   1.566  10.954  1.4300  0.9260 -2.2996
  293MOL0     H40403  11.268   1.605  11.121  3.1466 -1.3993 -0.3836
  293MOL0     H40404  11.488   1.694  11.024 -0.6048  0.4543 -0.0386
  293MOL0     H40405  11.453   1.616  10.873  1.3100  1.6880  1.5032
  293MOL0     H40406  11.477   1.488  11.146 -2.1412 -1.4329 -0.3304
  293MOL0     H40407  11.401   1.403  11.011  0.3898 -0.9291  0.6945
  293MOL0     H40408  11.584   1.425  10.867  0.6807  1.5513 -0.3211
  293MOL0     H40409  11.618   1.322  11.007 -0.0747 -0.8708 -4.6769
  293MOL0     H40410  11.731   1.504  11.124 -2.8421  1.2548  0.8164
  293MOL0     H40411  11.707   1.620  10.991  0.0272 -0.4210 -0.9283
  293MOL0     H40412  11.846   1.483  10.841  0.6326  1.5205  0.0730
  293MOL0     H40413  11.870   1.357  10.967 -3.0099 -0.1695 -0.4257
  293MOL0     H40414  10.867   1.902  10.980  1.2068 -1.4786 -1.1196
  293MOL0     H40415  10.633   1.907  10.956  0.4290  0.3089 -0.4479
  293MOL0     H40416  10.172   1.911  10.866 -2.0447  1.0902  0.1775
  293MOL0     H40417   9.928   1.878  10.867 -1.2396 -0.1059  0.2509
  293MOL0     H40418   8.176   1.727  10.339  0.9324  3.9196  1.1984
  293MOL0     H40419   7.965   1.795  10.212 -2.4363 -3.3098 -3.9505
  293MOL0     H40420   7.872   1.966   9.742  0.0122  0.5532 -0.7203
  293MOL0     H40421   7.703   2.104   9.636 -0.9722  1.6519  0.5184
  293MOL0     H40422   7.282   1.997   9.777  2.7975  1.1153  2.1624
  293MOL0     H40423   7.249   2.167   9.773 -0.3422  0.1312 -0.8183
  293MOL0     H40424   7.300   1.997   9.523 -0.1468 -0.4113 -0.0770
  293MOL0     H40425   7.273   2.175   9.539 -0.6172 -0.0822 -0.0355
  293MOL0     H40426   7.068   1.962   9.626  0.0131 -0.5529  0.3049
  293MOL0     H40427   7.048   2.144   9.618  0.0344 -0.1327 -2.9729
  293MOL0     H40428   7.107   2.004   9.356 -0.8787 -1.3781 -0.6681
  293MOL0     H40429   7.052   2.166   9.386  1.6711  0.5604  1.2493
  293MOL0     H40430   6.698   1.941   9.392 -0.9073  0.9486  0.4070
  293MOL0     H40431   7.415   1.959   9.928  1.4273  0.6186  1.3047
  293MOL0     H40432   7.456   1.841  10.109 -0.2766 -1.7110  1.9760
  293MOL0     H40433   7.553   1.697  10.047  2.7302 -0.4134 -0.1277
  293MOL0     H40434   7.627   1.801  10.151 -0.4025 -1.0351  1.3141
  294MOL0     O40435   5.248   1.178   7.582 -0.3689  0.9067 -0.2024
  294MOL0     C40436   5.313   1.071   7.601  0.1582 -0.3686  0.5154
  294MOL0     O40437   5.268   0.971   7.681 -0.5228  0.5348 -0.6064
  294MOL0     C40438   5.151   0.987   7.741  0.0666 -0.5863 -0.2498
  294MOL0     C40439   5.135   0.956   7.878 -0.3353  0.9039  0.2196
  294MOL0     C40440   5.006   0.951   7.940  0.4723  0.1788 -0.0721
  294MOL0     C40441   4.898   0.974   7.851  0.3003  0.2478 -0.0760
  294MOL0     O40442   4.764   0.974   7.888  0.6018  0.0019  0.3964
  294MOL0     C40443   4.738   0.890   8.000 -0.5411 -0.3365 -0.9103
  294MOL0     C40444   4.592   0.879   8.024 -0.8264  0.3042  0.5987
  294MOL0     C40445   4.509   1.010   8.020 -0.3300 -0.2668  0.0547
  294MOL0     C40446   4.368   0.968   8.048 -0.1408 -0.6592 -0.0529
  294MOL0     C40447   4.317   0.898   8.187 -0.9828 -0.7332 -0.2217
  294MOL0     C40448   4.350   0.975   8.321  0.0307  0.2126  0.2596
  294MOL0     C40449   4.336   0.877   8.442  0.0200 -0.8897  0.6423
  294MOL0     C40450   4.353   0.961   8.564  0.3490 -0.8024 -0.1018
  294MOL0     N40451   4.308   0.885   8.672 -0.3163 -0.4704 -0.4008
  294MOL0     C40452   4.183   0.885   8.718 -0.0972 -0.9125 -0.9881
  294MOL0     C40453   4.166   0.776   8.799  0.3324 -0.3730 -0.3491
  294MOL0     C40454   4.042   0.729   8.873 -0.3900 -0.3270  0.7651
  294MOL0     C40455   4.066   0.769   9.026  0.6885  0.3129 -0.6518
  294MOL0     C40456   3.929   0.798   9.097  0.2089  0.0993 -0.3503
  294MOL0     C40457   3.874   0.937   9.071 -0.2844  0.2801  0.5638
  294MOL0     O40458   3.957   1.048   9.107  0.1344  0.1175  0.0452
  294MOL0     C40459   4.000   1.117   9.002 -0.7819  0.4374 -0.4926
  294MOL0     C40460   3.907   1.204   8.924 -1.0528 -0.5432  0.5733
  294MOL0     C40461   3.968   1.284   8.830 -0.5535  0.3412 -0.6002
  294MOL0     C40462   3.877   1.392   8.787 -0.4377  0.2797 -0.1066
  294MOL0     C40463   4.113   1.279   8.806  0.4240  0.0619 -1.0646
  294MOL0     C40464   4.176   1.356   8.697  1.0008  1.0055 -0.4972
  294MOL0     O40465   4.283   1.294   8.644  0.4590 -0.2515  0.6251
  294MOL0     C40466   4.362   1.346   8.544  0.3284 -1.2264 -0.1735
  294MOL0     C40467   4.489   1.408   8.571 -0.0341 -0.0298  0.6181
  294MOL0     C40468   4.577   1.438   8.458 -0.8410  0.0799  0.7026
  294MOL0     C40469   4.521   1.441   8.326  1.0572  0.4237 -0.1567
  294MOL0     O40470   4.582   1.501   8.220 -0.0489  0.5430  0.5778
  294MOL0     C40471   4.664   1.619   8.228  0.1517 -0.2739 -0.4769
  294MOL0     C40472   4.673   1.705   8.098  0.0981  0.4516  0.6817
  294MOL0     C40473   4.550   1.802   8.089  0.0811  0.5431 -0.0855
  294MOL0     C40474   4.555   1.896   7.971  0.1777 -0.0514  0.1440
  294MOL0     C40475   4.422   1.971   7.940  0.1521  0.1646 -0.7369
  294MOL0     C40476   4.351   2.047   8.052  0.4989 -0.4696  0.5923
  294MOL0     C40477   4.449   2.139   8.132 -0.1175 -0.2662 -0.0563
  294MOL0     C40478   4.371   2.251   8.212  0.2818 -0.7317  0.7097
  294MOL0    Cl40479   4.264   2.185   8.340  0.0334 -0.7483  0.2358
  294MOL0     C40480   4.393   1.381   8.303 -0.7514 -0.4411  0.1496
  294MOL0     C40481   4.322   1.338   8.414 -0.5634 -0.8800 -0.1438
  294MOL0     O40482   4.133   1.467   8.660 -0.5705  0.1014  0.1415
  294MOL0     C40483   4.194   1.197   8.889  0.1133 -0.0945  0.0499
  294MOL0     C40484   4.139   1.116   8.983  0.8278  0.2690 -0.0077
  294MOL0     N40485   4.286   0.707   8.783  0.0116  1.2218 -0.0203
  294MOL0     N40486   4.368   0.768   8.704 -0.6882  0.6179 -0.0897
  294MOL0     C40487   4.912   0.993   7.717 -0.0695 -0.6449 -0.3481
  294MOL0     C40488   5.036   1.000   7.664 -0.8893 -0.0977  0.2335
  294MOL0     C40489   5.446   1.058   7.527 -0.2635 -0.1772  0.2132
  294MOL0     C40490   5.484   1.171   7.454 -0.2314  0.1390 -1.3090
  294MOL0     C40491   5.612   1.179   7.387  0.1054  0.9244 -0.8242
  294MOL0     C40492   5.692   1.069   7.389  0.0363 -0.1356 -0.2266
  294MOL0     O40493   5.813   1.083   7.326 -0.6837 -0.4874 -0.8683
  294MOL0     C40494   5.908   0.983   7.339  0.4617  0.0883 -0.4169
  294MOL0     C40495   5.886   0.858   7.256 -0.1509  0.1081 -0.1072
  294MOL0     C40496   5.986   0.871   7.139 -0.1320 -0.4447 -0.0275
  294MOL0     C40497   5.989   0.765   7.038  0.4341  0.4193  0.4965
  294MOL0     C40498   6.030   0.639   7.099  0.7207  0.1278  0.3473
  294MOL0     C40499   6.055   0.529   7.155  0.0314 -0.8007 -0.1164
  294MOL0     C40500   5.645   0.953   7.452  0.2776  0.0342 -1.0075
  294MOL0     C40501   5.519   0.942   7.505  0.2073 -0.1876 -0.2075
  294MOL0     C40502   5.473   0.810   7.562  1.0600  0.8545 -0.6405
  294MOL0     H40503   5.221   0.943   7.942  1.0620  1.1716 -1.5368
  294MOL0     H40504   4.990   0.935   8.046  0.5031  1.6566  0.1749
  294MOL0     H40505   4.758   0.942   8.094 -3.1306 -3.2869  1.5046
  294MOL0     H40506   4.790   0.794   8.005 -1.2895 -0.7013  0.9779
  294MOL0     H40507   4.551   0.815   7.944  1.8978  1.1981 -1.7212
  294MOL0     H40508   4.579   0.829   8.120 -3.4617 -1.7572 -0.6747
  294MOL0     H40509   4.551   1.074   8.098 -1.1364  0.1349  0.1582
  294MOL0     H40510   4.512   1.063   7.924 -0.0023  1.6093  1.0582
  294MOL0     H40511   4.317   1.062   8.029  0.3270 -0.3512  0.1879
  294MOL0     H40512   4.352   0.893   7.970  1.3184 -4.8319  3.2157
  294MOL0     H40513   4.357   0.797   8.183  0.4792 -0.1683 -0.7485
  294MOL0     H40514   4.210   0.899   8.167 -0.6352  2.1529 -2.7429
  294MOL0     H40515   4.450   1.019   8.329 -2.1201  5.7598  0.6629
  294MOL0     H40516   4.286   1.061   8.344  0.8239  0.3519  2.1839
  294MOL0     H40517   4.415   0.802   8.437 -1.0033 -1.9619 -0.0251
  294MOL0     H40518   4.235   0.835   8.438 -0.3504  0.0399 -0.9692
  294MOL0     H40519   4.459   0.984   8.578 -0.0955  1.4537 -0.0328
  294MOL0     H40520   4.297   1.055   8.554  0.7855 -0.8117 -5.8546
  294MOL0     H40521   4.107   0.958   8.691  0.1296 -0.0303  0.6924
  294MOL0     H40522   4.039   0.620   8.867  1.1914 -0.4659  1.9004
  294MOL0     H40523   3.949   0.766   8.829  0.8647 -0.2725 -2.1006
  294MOL0     H40524   4.128   0.698   9.081 -1.2484 -1.1604 -0.2654
  294MOL0     H40525   4.129   0.858   9.034  1.2925 -0.1602 -0.1023
  294MOL0     H40526   3.856   0.728   9.055  0.3892  0.6007 -1.5402
  294MOL0     H40527   3.935   0.788   9.206 -2.5335  2.7243  0.1829
  294MOL0     H40528   3.853   0.951   8.965  1.0193  1.2235  0.4149
  294MOL0     H40529   3.779   0.950   9.125  0.4873 -0.3006  2.1241
  294MOL0     H40530   3.801   1.206   8.945 -1.1493  1.8151  0.1065
  294MOL0     H40531   3.882   1.480   8.851 -4.5351  0.6451 -0.0361
  294MOL0     H40532   3.774   1.356   8.790 -0.8957  1.5284 -0.2876
  294MOL0     H40533   3.896   1.423   8.684  1.0843 -3.8374 -1.2830
  294MOL0     H40534   4.519   1.417   8.675  0.3042  1.3177  0.4242
  294MOL0     H40535   4.680   1.468   8.468 -1.1402  0.5461  2.8827
  294MOL0     H40536   4.629   1.675   8.316  0.1487 -1.6730  0.4490
  294MOL0     H40537   4.767   1.594   8.254  1.1140  0.3184 -3.3906
  294MOL0     H40538   4.770   1.756   8.090 -1.6512  4.3645  2.0586
  294MOL0     H40539   4.668   1.638   8.011 -1.8097  0.3556  0.8280
  294MOL0     H40540   4.554   1.850   8.187 -1.3462 -1.7738  1.1771
  294MOL0     H40541   4.455   1.750   8.074 -0.4798  0.9001  2.0012
  294MOL0     H40542   4.576   1.827   7.888 -1.5438 -1.2996  0.6923
  294MOL0     H40543   4.634   1.970   7.983  0.4964 -0.0639 -1.5998
  294MOL0     H40544   4.451   2.049   7.868  1.3497  0.0507 -0.3954
  294MOL0     H40545   4.345   1.901   7.908 -0.3616 -0.3688  1.5034
  294MOL0     H40546   4.302   1.987   8.129  0.9821 -1.1165  0.3990
  294MOL0     H40547   4.268   2.109   8.018  0.4937 -0.5120  0.5263
  294MOL0     H40548   4.524   2.189   8.071 -1.3921  0.0748 -1.4024
  294MOL0     H40549   4.508   2.083   8.205  1.4811  1.0061 -0.3229
  294MOL0     H40550   4.297   2.300   8.149  0.5487  0.0821  1.0125
  294MOL0     H40551   4.443   2.327   8.244 -0.4567  1.5697 -2.5960
  294MOL0     H40552   4.355   1.384   8.202 -2.2334  1.3719  0.7155
  294MOL0     H40553   4.225   1.293   8.394 -0.9886  0.3287 -0.8956
  294MOL0     H40554   4.301   1.203   8.871  0.1407  1.3839  0.5736
  294MOL0     H40555   4.206   1.048   9.035  0.5094  1.6302  2.3417
  294MOL0     H40556   4.827   1.001   7.651 -0.1471 -1.2786 -0.3369
  294MOL0     H40557   5.046   1.032   7.561  0.8099  3.1861  1.2589
  294MOL0     H40558   5.423   1.261   7.456  0.2940  0.4961  0.3530
  294MOL0     H40559   5.632   1.275   7.341 -0.3766  1.4787  0.0776
  294MOL0     H40560   6.003   1.033   7.320  0.1233  2.1234  2.5642
  294MOL0     H40561   5.921   0.956   7.444  3.3420  0.2995 -0.6482
  294MOL0     H40562   5.782   0.852   7.225 -0.6198  5.2558 -0.3249
  294MOL0     H40563   5.907   0.769   7.317 -1.1028  0.3243  0.5694
  294MOL0     H40564   5.953   0.955   7.079 -0.4375 -1.0449 -0.7124
  294MOL0     H40565   6.085   0.883   7.185  0.8048 -1.7810 -1.6062
  294MOL0     H40566   6.062   0.787   6.960  0.6180  3.2314  1.3356
  294MOL0     H40567   5.885   0.760   7.005  0.5282 -0.2992  0.3069
  294MOL0     H40568   6.086   0.429   7.176  2.5076 -0.6396 -2.4897
  294MOL0     H40569   5.699   0.861   7.470 -2.1549 -1.4326 -0.6451
  294MOL0     H40570   5.469   0.808   7.672 -2.3469 -0.4842 -0.6979
  294MOL0     H40571   5.374   0.775   7.532  1.5714 -0.5023 -0.8128
  294MOL0     H40572   5.538   0.729   7.529  0.7856  1.4745 -2.8367
  295MOL0     O40573   3.483   6.011   0.349  0.2678  0.7775 -0.4181
  295MOL0     C40574   3.551   5.909   0.315 -0.4493 -0.3399 -0.1038
  295MOL0     O40575   3.516   5.814   0.229  0.0720  0.2540  0.3012
  295MOL0     C40576   3.426   5.837   0.125  0.2073 -0.5633  0.1017
  295MOL0     C40577   3.353   5.729   0.077  0.8833  0.1457 -0.4114
  295MOL0     C40578   3.267   5.733  -0.024  0.2854 -0.1869 -0.6310
  295MOL0     C40579   3.225   5.853  -0.076 -0.8702 -0.8500  0.1580
  295MOL0     O40580   3.126   5.876  -0.168 -0.0142 -0.1769 -0.5255
  295MOL0     C40581   3.013   5.790  -0.161  0.0973 -0.5470  0.6537
  295MOL0     C40582   2.900   5.844  -0.254  0.5177 -0.0197  0.3447
  295MOL0     C40583   2.787   5.738  -0.267 -0.0751  0.8840 -0.4549
  295MOL0     C40584   2.653   5.809  -0.298 -0.2984 -0.4448 -0.5038
  295MOL0     C40585   2.647   5.867  -0.438  0.7112 -0.3727  0.4134
  295MOL0     C40586   2.506   5.861  -0.503 -0.4287 -0.0518  0.0268
  295MOL0     C40587   2.501   5.956  -0.626 -0.6322  0.0577  0.3951
  295MOL0     C40588   2.367   5.959  -0.705 -0.8257 -0.2777  0.1607
  295MOL0     N40589   2.369   6.062  -0.807  1.1696  0.5929  0.5863
  295MOL0     C40590   2.387   6.195  -0.797 -0.8997 -0.4440 -0.5449
  295MOL0     C40591   2.361   6.243  -0.922  0.4048 -0.5985 -0.4122
  295MOL0     C40592   2.383   6.378  -0.988 -1.0368 -0.1424  0.2137
  295MOL0     C40593   2.335   6.488  -0.895  0.3677  0.3071 -0.2779
  295MOL0     C40594   2.348   6.624  -0.960 -0.2020 -0.5686  0.0935
  295MOL0     C40595   2.499   6.662  -0.992  0.1725 -0.2922 -0.3985
  295MOL0     O40596   2.579   6.623  -0.878  0.4201 -0.2298  0.2250
  295MOL0     C40597   2.710   6.627  -0.891 -0.0081  0.8708  0.0611
  295MOL0     C40598   2.795   6.586  -0.786  0.1387  0.2577  0.8473
  295MOL0     C40599   2.935   6.593  -0.791 -0.6748  0.8679 -0.3369
  295MOL0     C40600   3.010   6.563  -0.663 -0.2350 -0.0316  0.6763
  295MOL0     C40601   2.994   6.631  -0.905  0.1263 -0.2704 -0.3096
  295MOL0     C40602   3.140   6.655  -0.907  0.3603 -0.8233  0.2297
  295MOL0     O40603   3.205   6.714  -0.804 -0.2795 -0.4372 -0.5111
  295MOL0     C40604   3.338   6.754  -0.811  0.3568  0.5630  0.4446
  295MOL0     C40605   3.421   6.718  -0.711  0.5572  1.1588  0.6411
  295MOL0     C40606   3.549   6.782  -0.706 -0.2174 -0.6814 -0.0212
  295MOL0     C40607   3.603   6.864  -0.807  0.3667  1.1906  1.0447
  295MOL0     O40608   3.732   6.902  -0.792  0.0984  0.4151 -0.2628
  295MOL0     C40609   3.802   6.998  -0.879 -0.0409  0.6330 -0.4804
  295MOL0     C40610   3.934   7.032  -0.817  0.6307  0.1200 -0.5324
  295MOL0     C40611   4.029   6.913  -0.850 -0.9028  0.3366  0.2199
  295MOL0     C40612   4.169   6.944  -0.800  0.5437  0.6384  0.1634
  295MOL0     C40613   4.269   6.829  -0.818 -0.1437 -0.5784  0.4578
  295MOL0     C40614   4.415   6.865  -0.811 -0.0531  0.6992 -0.1245
  295MOL0     C40615   4.509   6.737  -0.809  0.3039 -0.8903  0.3276
  295MOL0     C40616   4.659   6.770  -0.795  0.8515  0.2105 -0.0929
  295MOL0    Cl40617   4.699   6.887  -0.920 -0.6151 -0.3441 -0.1706
  295MOL0     C40618   3.522   6.883  -0.918  0.3666 -0.8244 -1.2940
  295MOL0     C40619   3.388   6.836  -0.915  0.5816  0.1527  0.1965
  295MOL0     O40620   3.200   6.623  -1.013  0.3105 -0.3569 -0.4840
  295MOL0     C40621   2.918   6.658  -1.023 -0.3160  0.2178 -0.8691
  295MOL0     C40622   2.779   6.666  -1.011 -0.8622  0.4267  0.5813
  295MOL0     N40623   2.315   6.145  -1.003 -0.1539  0.2647 -0.3942
  295MOL0     N40624   2.316   6.040  -0.933  0.3382 -0.1367 -0.6623
  295MOL0     C40625   3.292   5.973  -0.029 -0.5220  1.0992  1.1850
  295MOL0     C40626   3.391   5.960   0.074  0.0826  0.2050 -0.2574
  295MOL0     C40627   3.685   5.889   0.381 -0.4802 -0.5138 -0.0772
  295MOL0     C40628   3.783   5.806   0.330  0.3285 -0.5402  0.3709
  295MOL0     C40629   3.911   5.798   0.374 -0.1089  0.4810 -0.0953
  295MOL0     C40630   3.943   5.867   0.492  0.2381 -0.9619  0.1563
  295MOL0     O40631   4.065   5.839   0.545  0.0086 -0.0497  0.0616
  295MOL0     C40632   4.121   5.926   0.645 -0.0599  0.0450 -0.1283
  295MOL0     C40633   4.156   6.061   0.585  0.5512 -0.3530 -0.0484
  295MOL0     C40634   4.203   6.043   0.441 -0.0196 -1.2776 -0.2591
  295MOL0     C40635   4.239   6.174   0.364  0.3775 -0.5817  0.1525
  295MOL0     C40636   4.373   6.217   0.407  0.2588  0.6589 -0.0250
  295MOL0     C40637   4.483   6.238   0.446 -0.1060  0.0502  0.1570
  295MOL0     C40638   3.854   5.952   0.554 -0.1675 -0.0277  1.5889
  295MOL0     C40639   3.720   5.964   0.503 -0.5930  0.2368  0.0069
  295MOL0     C40640   3.631   6.042   0.593  0.1945 -1.1150  0.3042
  295MOL0     H40641   3.378   5.631   0.115 -0.9726 -1.0114 -1.9648
  295MOL0     H40642   3.221   5.648  -0.073 -0.6178  0.0413 -0.2093
  295MOL0     H40643   2.983   5.779  -0.057 -2.9863 -0.0584 -0.0620
  295MOL0     H40644   3.046   5.696  -0.208 -0.9047  1.0938 -3.8630
  295MOL0     H40645   2.864   5.939  -0.214  0.3125  0.1092 -0.1432
  295MOL0     H40646   2.945   5.858  -0.353  1.5065 -1.7431  0.5083
  295MOL0     H40647   2.815   5.675  -0.353 -1.2863  1.0005 -0.9597
  295MOL0     H40648   2.785   5.680  -0.174  2.3962  1.8992  0.3176
  295MOL0     H40649   2.570   5.739  -0.291  1.7482 -2.9875 -0.4063
  295MOL0     H40650   2.641   5.881  -0.215  1.2522  0.9210 -1.4072
  295MOL0     H40651   2.712   5.812  -0.508  1.5807  0.4146  0.5824
  295MOL0     H40652   2.679   5.971  -0.424 -0.0465 -0.2670  1.4169
  295MOL0     H40653   2.476   5.758  -0.524  1.0626 -0.3641 -0.7161
  295MOL0     H40654   2.437   5.908  -0.433  0.5820  0.8900  0.4362
  295MOL0     H40655   2.583   5.916  -0.687 -1.9523 -1.1658 -0.6217
  295MOL0     H40656   2.536   6.057  -0.603  1.9424 -0.5513 -0.5087
  295MOL0     H40657   2.343   5.862  -0.750 -0.4537 -0.2665 -0.0679
  295MOL0     H40658   2.287   5.980  -0.634 -0.3654 -2.4360  1.4065
  295MOL0     H40659   2.416   6.254  -0.711 -5.1373 -0.2523  0.9417
  295MOL0     H40660   2.322   6.389  -1.078 -0.9689  0.4835  0.2450
  295MOL0     H40661   2.489   6.404  -1.004 -1.8044  2.8025 -0.7656
  295MOL0     H40662   2.228   6.468  -0.880 -0.3974  2.2209 -2.5550
  295MOL0     H40663   2.393   6.490  -0.803 -1.4908  1.1867  0.9480
  295MOL0     H40664   2.292   6.623  -1.054  0.9314  0.4277 -0.6302
  295MOL0     H40665   2.308   6.700  -0.892  1.4218  0.6474 -0.2345
  295MOL0     H40666   2.544   6.619  -1.082  1.8887  1.3273 -0.3936
  295MOL0     H40667   2.499   6.771  -0.990 -1.4793 -0.2948  1.0199
  295MOL0     H40668   2.745   6.567  -0.691  1.1043 -2.0508  0.9628
  295MOL0     H40669   2.943   6.540  -0.581 -1.8313 -2.9416 -1.2570
  295MOL0     H40670   3.071   6.647  -0.627  0.4378  0.1473 -0.7821
  295MOL0     H40671   3.073   6.476  -0.684  0.1543  0.5558 -0.7714
  295MOL0     H40672   3.383   6.645  -0.641  0.8796  0.9201  0.5664
  295MOL0     H40673   3.615   6.765  -0.622  0.2411  0.7633 -0.0688
  295MOL0     H40674   3.815   6.939  -0.970 -0.6684 -3.3445  1.7786
  295MOL0     H40675   3.739   7.087  -0.891  0.4271  1.7763  3.8600
  295MOL0     H40676   3.958   7.132  -0.855 -0.9417  0.4793 -0.6303
  295MOL0     H40677   3.923   7.036  -0.708  2.3609  1.2553 -0.3379
  295MOL0     H40678   4.029   6.896  -0.959 -0.4134 -0.3263  0.3158
  295MOL0     H40679   3.992   6.828  -0.793  0.2466  1.2242  2.3889
  295MOL0     H40680   4.165   6.971  -0.694 -1.8385  0.7560  0.0983
  295MOL0     H40681   4.202   7.031  -0.857  0.3088  0.4409 -0.2782
  295MOL0     H40682   4.256   6.769  -0.727  1.3649  0.7899  1.6600
  295MOL0     H40683   4.245   6.776  -0.910 -1.1051  0.8535 -0.1540
  295MOL0     H40684   4.425   6.926  -0.720 -0.5822 -2.1445  2.0119
  295MOL0     H40685   4.441   6.938  -0.888  0.2301  1.6754  0.8708
  295MOL0     H40686   4.486   6.691  -0.906 -0.0215 -0.3475  0.1420
  295MOL0     H40687   4.485   6.672  -0.724 -1.4777 -0.9003 -0.1474
  295MOL0     H40688   4.710   6.676  -0.818  1.5938  0.2450  1.2980
  295MOL0     H40689   4.675   6.811  -0.695 -0.3676 -0.3375  0.3570
  295MOL0     H40690   3.552   6.950  -0.998 -0.0839 -0.0717 -0.8510
  295MOL0     H40691   3.323   6.867  -0.996 -1.0594  0.4223  1.5705
  295MOL0     H40692   2.968   6.683  -1.115 -1.0955 -0.4842 -1.4967
  295MOL0     H40693   2.729   6.700  -1.101 -0.9513 -0.3403  0.3290
  295MOL0     H40694   3.257   6.069  -0.065  0.8723  1.6185  1.1469
  295MOL0     H40695   3.427   6.061   0.092  0.6196 -0.1169  0.5488
  295MOL0     H40696   3.770   5.751   0.238  1.7032  0.7812 -0.6635
  295MOL0     H40697   3.988   5.745   0.318  0.2449  2.0712 -1.1736
  295MOL0     H40698   4.051   5.938   0.728 -0.2760  0.8998 -0.4335
  295MOL0     H40699   4.215   5.878   0.677  1.6526  3.1853 -0.0504
  295MOL0     H40700   4.239   6.110   0.637 -1.7886  2.7146  1.0912
  295MOL0     H40701   4.064   6.119   0.591 -1.8057 -3.7542 -0.5752
  295MOL0     H40702   4.280   5.965   0.442 -0.3243 -1.5790 -0.0650
  295MOL0     H40703   4.124   6.009   0.373  0.9102 -0.3407 -1.8585
  295MOL0     H40704   4.169   6.258   0.369 -1.2259 -1.5519 -3.2489
  295MOL0     H40705   4.240   6.154   0.256 -2.7251  1.0813 -0.2962
  295MOL0     H40706   4.583   6.236   0.485 -1.0134 -0.7062  2.6748
  295MOL0     H40707   3.875   5.986   0.655 -0.0315  0.7062  1.3207
  295MOL0     H40708   3.552   5.972   0.623  0.6884 -1.6140  0.4623
  295MOL0     H40709   3.690   6.069   0.682 -1.8320  2.5298  0.7231
  295MOL0     H40710   3.585   6.128   0.544  3.6811 -0.1596 -1.6314
  296MOL0     O40711   0.119   4.031   7.062  0.0969  0.3906 -0.3964
  296MOL0     C40712   0.008   3.980   7.070  0.0913  0.2016 -0.5480
  296MOL0     O40713  -0.026   3.904   7.181 -0.2408 -0.3716 -0.7703
  296MOL0     C40714   0.066   3.887   7.282 -0.7010  0.4097  0.6314
  296MOL0     C40715   0.123   3.986   7.366  0.9412 -0.7374 -0.2609
  296MOL0     C40716   0.213   3.946   7.461  0.9051  0.3921 -0.7110
  296MOL0     C40717   0.253   3.809   7.479 -0.7302 -0.7126  1.0211
  296MOL0     O40718   0.331   3.766   7.585  1.1057 -0.9571 -0.2744
  296MOL0     C40719   0.467   3.778   7.570  0.0857  1.1288  0.1744
  296MOL0     C40720   0.511   3.922   7.580  0.5300 -0.2429  0.1617
  296MOL0     C40721   0.661   3.945   7.563  0.2015 -0.3710  0.3226
  296MOL0     C40722   0.698   3.921   7.423  0.6400 -0.2218  0.2990
  296MOL0     C40723   0.859   3.904   7.394  0.3400 -0.4266 -0.4171
  296MOL0     C40724   0.937   3.817   7.489 -0.5434  0.4722  0.0533
  296MOL0     C40725   1.089   3.821   7.446  0.2404 -0.3265  0.2086
  296MOL0     C40726   1.125   3.722   7.334 -0.2493 -0.7819 -0.9932
  296MOL0     N40727   1.266   3.719   7.291 -0.6874 -0.2565 -0.6482
  296MOL0     C40728   1.356   3.612   7.316 -0.0366  0.4008 -0.0501
  296MOL0     C40729   1.438   3.614   7.209  0.7463 -0.6132  0.6526
  296MOL0     C40730   1.552   3.518   7.191  0.1736 -0.5380 -0.3148
  296MOL0     C40731   1.682   3.583   7.137 -0.4516 -0.7187 -0.2309
  296MOL0     C40732   1.724   3.711   7.209  0.0016 -0.2427 -0.1615
  296MOL0     C40733   1.794   3.679   7.343 -0.1428 -1.0339 -0.1589
  296MOL0     O40734   1.907   3.596   7.325 -0.2191  0.9882 -0.3781
  296MOL0     C40735   2.025   3.632   7.272 -0.4746 -1.1302 -0.3741
  296MOL0     C40736   2.059   3.760   7.226  0.4946  0.3708 -0.9531
  296MOL0     C40737   2.184   3.783   7.161  0.6157 -0.4961 -0.3088
  296MOL0     C40738   2.204   3.909   7.082  0.3297  0.2054  0.3540
  296MOL0     C40739   2.287   3.686   7.166  0.2522  0.5134  0.1468
  296MOL0     C40740   2.429   3.716   7.130  0.0705  0.3836 -0.2396
  296MOL0     O40741   2.473   3.842   7.117  0.2947 -0.3413  0.2691
  296MOL0     C40742   2.582   3.871   7.049  0.2196 -0.1779  0.5532
  296MOL0     C40743   2.595   3.995   6.987  0.0242 -0.4569  0.0247
  296MOL0     C40744   2.719   4.030   6.922 -0.1181 -0.0507 -0.2598
  296MOL0     C40745   2.828   3.947   6.917 -0.5091 -0.1571 -0.4749
  296MOL0     O40746   2.947   3.967   6.854  0.2608  0.2309 -0.0226
  296MOL0     C40747   2.968   4.089   6.789 -0.1093  0.3312  0.8442
  296MOL0     C40748   3.110   4.091   6.730 -0.3400  0.2128  0.0858
  296MOL0     C40749   3.149   4.197   6.621 -0.2456  0.3937  0.9589
  296MOL0     C40750   3.300   4.215   6.610  0.3436 -0.4041 -0.1789
  296MOL0     C40751   3.343   4.351   6.573  0.6393 -0.0044 -0.0416
  296MOL0     C40752   3.494   4.365   6.585 -0.0739  0.1299  0.1004
  296MOL0     C40753   3.575   4.297   6.475 -0.0419 -0.1736  0.5729
  296MOL0     C40754   3.725   4.287   6.498 -0.3651 -0.3033 -1.3822
  296MOL0    Cl40755   3.806   4.442   6.449  0.4480  0.3961  0.1250
  296MOL0     C40756   2.812   3.826   6.987 -0.0281 -0.7148  0.1488
  296MOL0     C40757   2.696   3.783   7.048  1.1213 -0.0578 -0.5671
  296MOL0     O40758   2.497   3.614   7.148  0.1863  0.8198 -0.2674
  296MOL0     C40759   2.249   3.563   7.224  0.0115  0.3824 -0.4793
  296MOL0     C40760   2.123   3.534   7.261  0.2850 -0.1536  0.9263
  296MOL0     N40761   1.404   3.725   7.127 -0.1310  0.7156  0.1029
  296MOL0     N40762   1.303   3.784   7.177 -0.7590 -0.5481  0.8223
  296MOL0     C40763   0.203   3.723   7.385  0.2208 -0.6885  0.2218
  296MOL0     C40764   0.112   3.759   7.283 -0.2724 -0.0101 -0.2436
  296MOL0     C40765  -0.100   3.987   6.959 -0.2634  0.4634 -0.6611
  296MOL0     C40766  -0.209   3.898   6.966 -0.3334 -0.5467  0.2690
  296MOL0     C40767  -0.318   3.904   6.877 -0.1407 -1.3379  0.8319
  296MOL0     C40768  -0.302   3.979   6.759  0.6147  0.1941  0.1587
  296MOL0     O40769  -0.394   3.982   6.660 -0.4422  0.7542  0.0282
  296MOL0     C40770  -0.535   3.955   6.686 -1.1686 -0.6222 -0.3359
  296MOL0     C40771  -0.629   4.028   6.590  0.0018  0.2700 -1.0636
  296MOL0     C40772  -0.604   4.012   6.440  0.0711 -0.1181  0.5973
  296MOL0     C40773  -0.629   3.865   6.378  0.0814 -0.2359 -0.3844
  296MOL0     C40774  -0.520   3.778   6.399 -0.2670  0.4187  0.0071
  296MOL0     C40775  -0.417   3.711   6.415 -0.6560 -1.0433 -0.3817
  296MOL0     C40776  -0.185   4.055   6.740  0.7520  1.1600  0.2388
  296MOL0     C40777  -0.085   4.066   6.835  0.6154 -0.7555 -0.6257
  296MOL0     C40778   0.031   4.144   6.791  0.3100  0.2115 -0.0362
  296MOL0     H40779   0.092   4.090   7.359  1.2160 -0.6761 -0.6607
  296MOL0     H40780   0.249   4.017   7.534 -0.9837  1.0973 -0.4124
  296MOL0     H40781   0.497   3.725   7.479  2.2285 -2.4820  2.7329
  296MOL0     H40782   0.511   3.723   7.654 -2.1979  2.3849  2.3251
  296MOL0     H40783   0.464   3.968   7.492 -2.5917 -0.5626  1.5045
  296MOL0     H40784   0.470   3.961   7.674  1.5484 -1.3016  1.0711
  296MOL0     H40785   0.689   4.049   7.584  0.3345 -0.7404  2.1660
  296MOL0     H40786   0.717   3.885   7.636 -1.0397 -1.0383  0.7497
  296MOL0     H40787   0.644   3.843   7.368 -0.0318  2.0500 -2.5549
  296MOL0     H40788   0.652   4.007   7.372 -0.4431  0.8066  2.8684
  296MOL0     H40789   0.907   4.002   7.399 -1.0609  0.3487 -1.3992
  296MOL0     H40790   0.881   3.864   7.294 -1.7682 -0.9013 -0.7395
  296MOL0     H40791   0.935   3.854   7.592  2.4992  0.6903  0.1306
  296MOL0     H40792   0.898   3.715   7.487  3.9173 -1.4925 -1.7498
  296MOL0     H40793   1.151   3.810   7.535 -1.5613 -0.6797  1.4854
  296MOL0     H40794   1.104   3.921   7.405  0.1275 -0.4367 -0.1133
  296MOL0     H40795   1.099   3.617   7.350 -0.0594 -0.4771  1.8950
  296MOL0     H40796   1.071   3.760   7.247 -2.9383 -1.9870  0.0416
  296MOL0     H40797   1.357   3.528   7.385 -2.2621 -0.8825 -1.4500
  296MOL0     H40798   1.527   3.437   7.122  3.2834 -0.2824 -1.9208
  296MOL0     H40799   1.575   3.477   7.290  3.9741  2.4745  0.2857
  296MOL0     H40800   1.763   3.511   7.143  0.1472 -0.1098 -0.8356
  296MOL0     H40801   1.671   3.612   7.032 -0.4588 -0.5677 -0.1889
  296MOL0     H40802   1.795   3.764   7.145  0.5073  2.1244  2.1898
  296MOL0     H40803   1.636   3.769   7.236 -0.1471 -1.1576  1.4466
  296MOL0     H40804   1.824   3.772   7.392  0.4270 -0.8103 -0.9099
  296MOL0     H40805   1.720   3.629   7.406 -1.1033 -1.0084 -1.2333
  296MOL0     H40806   1.985   3.840   7.227 -1.6021 -1.4760 -0.8593
  296MOL0     H40807   2.229   3.888   6.978 -0.9896 -1.9464  0.4169
  296MOL0     H40808   2.281   3.971   7.128  1.3123  0.5916 -1.7084
  296MOL0     H40809   2.107   3.959   7.077 -0.2172 -0.8704  0.0158
  296MOL0     H40810   2.530   4.081   6.984  1.7633  0.9112 -0.3285
  296MOL0     H40811   2.733   4.124   6.868  1.1206 -0.0700  0.0157
  296MOL0     H40812   2.895   4.119   6.713  0.9886 -1.2927 -0.9556
  296MOL0     H40813   2.968   4.163   6.870 -2.9444 -0.3357  1.5520
  296MOL0     H40814   3.175   4.098   6.817  0.6030  0.9411 -0.6625
  296MOL0     H40815   3.130   4.000   6.672 -1.3043  0.5755 -0.8545
  296MOL0     H40816   3.085   4.284   6.639 -2.9665 -1.3185  0.2459
  296MOL0     H40817   3.111   4.155   6.527  0.4248  0.7214  0.5372
  296MOL0     H40818   3.336   4.149   6.530  0.7605  1.6554 -1.7597
  296MOL0     H40819   3.357   4.195   6.700  2.7777  1.2628 -1.2606
  296MOL0     H40820   3.313   4.367   6.469  0.9947  1.5673  0.0662
  296MOL0     H40821   3.288   4.421   6.638 -1.9344 -0.3420 -1.7197
  296MOL0     H40822   3.520   4.330   6.686 -3.3485  0.6493  1.2398
  296MOL0     H40823   3.511   4.474   6.585 -0.0802  0.1372 -0.9864
  296MOL0     H40824   3.552   4.345   6.380 -0.4835  0.6714  1.0955
  296MOL0     H40825   3.539   4.193   6.472  0.1616 -0.2374  0.3236
  296MOL0     H40826   3.761   4.208   6.432  1.6689  0.6667 -1.4950
  296MOL0     H40827   3.736   4.257   6.603 -0.3338  0.6442 -1.1048
  296MOL0     H40828   2.900   3.763   6.998 -0.4421 -0.8192  4.6139
  296MOL0     H40829   2.696   3.680   7.082 -0.3974 -0.4986 -1.7561
  296MOL0     H40830   2.330   3.498   7.256 -0.7133  0.8864  2.6629
  296MOL0     H40831   2.102   3.434   7.298  1.2065 -1.6743 -2.2810
  296MOL0     H40832   0.249   3.625   7.387  0.7095 -0.5157 -1.2154
  296MOL0     H40833   0.084   3.683   7.211  0.5389 -3.2022  2.5336
  296MOL0     H40834  -0.223   3.826   7.046 -2.7060  0.4335  0.8164
  296MOL0     H40835  -0.402   3.837   6.893 -1.9392  0.2018 -1.4534
  296MOL0     H40836  -0.536   3.845   6.690 -0.9096 -0.6197 -0.1149
  296MOL0     H40837  -0.560   3.981   6.789  1.6009 -0.2163  0.3231
  296MOL0     H40838  -0.621   4.137   6.600 -1.4998  0.5874 -2.7929
  296MOL0     H40839  -0.728   3.985   6.607  1.6046 -3.2973  0.2401
  296MOL0     H40840  -0.672   4.079   6.385 -0.5184 -2.5018 -1.8162
  296MOL0     H40841  -0.501   4.042   6.422 -0.8141  2.4302 -0.7323
  296MOL0     H40842  -0.643   3.887   6.271 -1.1050 -1.2439 -0.4600
  296MOL0     H40843  -0.724   3.825   6.415  0.9236 -0.9536  1.0558
  296MOL0     H40844  -0.330   3.649   6.423  0.0011 -0.3846 -1.9035
  296MOL0     H40845  -0.192   4.110   6.646 -0.6508 -0.4124 -0.6381
  296MOL0     H40846  -0.011   4.239   6.759 -1.7796 -1.2489 -1.9126
  296MOL0     H40847   0.115   4.154   6.861  1.1962  0.3450 -1.0848
  296MOL0     H40848   0.079   4.098   6.704  3.0892 -0.8666  1.8793
  297MOL0     O40849   9.870   4.045   1.097  0.5226 -0.5631  0.4954
  297MOL0     C40850   9.777   4.030   1.183 -0.3270  0.3758 -0.9117
  297MOL0     O40851   9.798   3.977   1.307  0.6628  0.6438 -0.6087
  297MOL0     C40852   9.922   3.993   1.372  0.0674 -0.2505  0.8184
  297MOL0     C40853  10.039   3.929   1.335  0.2778 -0.4833  0.2891
  297MOL0     C40854  10.157   3.950   1.400 -0.0626 -0.0427  0.1827
  297MOL0     C40855  10.159   4.022   1.518  1.1492 -0.2844 -0.2428
  297MOL0     O40856  10.273   4.016   1.586 -0.1020 -0.5501 -0.0762
  297MOL0     C40857  10.271   4.022   1.724 -0.3037  0.4255  0.2277
  297MOL0     C40858  10.414   4.065   1.771  0.2701 -0.9529 -0.4895
  297MOL0     C40859  10.526   3.975   1.711  1.3640  0.0564 -0.1286
  297MOL0     C40860  10.666   4.025   1.757  0.7043 -0.2828  0.7005
  297MOL0     C40861  10.708   3.982   1.898  0.8661  0.0564 -0.0819
  297MOL0     C40862  10.735   3.828   1.909 -0.1942 -0.3145  0.2859
  297MOL0     C40863  10.844   3.801   2.006  0.1255 -0.2156  0.1177
  297MOL0     C40864  10.905   3.656   2.007 -0.1619 -0.5979  0.0709
  297MOL0     N40865  11.007   3.642   2.110 -0.1085  0.8989 -0.1795
  297MOL0     C40866  10.984   3.666   2.241  0.3915 -0.6696  0.9977
  297MOL0     C40867  11.098   3.645   2.303 -0.7625  0.0571 -0.4956
  297MOL0     C40868  11.128   3.681   2.444  0.2241 -0.3245 -0.2365
  297MOL0     C40869  11.109   3.828   2.481  0.0590 -0.2740 -0.8195
  297MOL0     C40870  11.213   3.921   2.414 -0.4551 -0.1197 -0.1299
  297MOL0     C40871  11.354   3.879   2.428 -0.6489 -0.8369  0.7890
  297MOL0     O40872  11.379   3.859   2.566 -0.2817 -0.3069 -0.1469
  297MOL0     C40873  11.505   3.810   2.592 -0.2144 -0.6786  0.3483
  297MOL0     C40874  11.548   3.838   2.722  0.2480  0.5177  0.5363
  297MOL0     C40875  11.679   3.804   2.771  0.0583 -0.0966  0.2494
  297MOL0     C40876  11.698   3.784   2.913 -0.4808  0.6896 -0.5622
  297MOL0     C40877  11.771   3.756   2.670 -0.1923 -0.3753  0.2447
  297MOL0     C40878  11.915   3.719   2.704 -0.5121  0.2111  0.2643
  297MOL0     O40879  11.954   3.593   2.653 -0.5520 -0.4421 -0.2349
  297MOL0     C40880  12.089   3.573   2.652 -0.0415  0.2160 -0.2103
  297MOL0     C40881  12.208   3.653   2.628 -1.2654  0.2462  0.2048
  297MOL0     C40882  12.338   3.597   2.634  0.4806  0.0268  0.2804
  297MOL0     C40883  12.353   3.461   2.653  0.2496 -0.4070 -0.0703
  297MOL0     O40884  12.481   3.409   2.670  0.9064 -0.0508 -0.0551
  297MOL0     C40885  12.489   3.322   2.789 -0.6224  0.3037  0.4243
  297MOL0     C40886  12.557   3.389   2.915  0.6878  0.8437  0.2056
  297MOL0     C40887  12.485   3.511   2.971  0.4524 -0.1102 -0.3819
  297MOL0     C40888  12.346   3.475   3.025  0.0724  0.2037 -0.6622
  297MOL0     C40889  12.283   3.581   3.116  0.9647 -0.6080  0.3591
  297MOL0     C40890  12.198   3.684   3.043 -0.3219 -0.2319 -0.2495
  297MOL0     C40891  12.120   3.775   3.143  0.2374 -0.2374 -0.5680
  297MOL0     C40892  12.082   3.919   3.089 -0.1360  0.4003 -0.9286
  297MOL0    Cl40893  11.946   4.000   3.194 -0.5756  0.4869  0.0726
  297MOL0     C40894  12.242   3.379   2.659 -0.1060  0.0230 -0.1137
  297MOL0     C40895  12.113   3.436   2.661 -0.7026  0.1642  0.1099
  297MOL0     O40896  11.987   3.792   2.773 -0.1045 -0.7316 -0.2884
  297MOL0     C40897  11.728   3.747   2.535  0.5159  0.1306  0.3088
  297MOL0     C40898  11.594   3.759   2.499  0.3699 -0.4561 -0.2291
  297MOL0     N40899  11.196   3.612   2.217  0.4464  0.3594  0.2174
  297MOL0     N40900  11.140   3.610   2.097 -0.1388 -0.4989  0.0312
  297MOL0     C40901  10.044   4.094   1.551 -0.4973  0.0105 -0.7947
  297MOL0     C40902   9.924   4.082   1.481  0.3664 -0.5847 -0.4499
  297MOL0     C40903   9.636   4.048   1.140 -0.4279  0.3906  0.0190
  297MOL0     C40904   9.604   3.996   1.008 -0.3346 -0.3874  0.8067
  297MOL0     C40905   9.472   3.976   0.968 -0.3064 -0.1220 -0.5593
  297MOL0     C40906   9.369   4.015   1.059  0.1290 -0.3663  0.2105
  297MOL0     O40907   9.237   4.014   1.024  0.2268 -0.6167  0.5460
  297MOL0     C40908   9.204   4.035   0.888 -0.3110 -0.2878  0.0492
  297MOL0     C40909   9.052   4.097   0.891 -0.3367  0.1867 -0.2557
  297MOL0     C40910   8.942   3.986   0.876 -0.5401 -0.1836 -0.6720
  297MOL0     C40911   8.808   4.052   0.855 -0.7298 -0.5761 -0.1841
  297MOL0     C40912   8.706   3.963   0.798  0.3537  0.5403 -0.0946
  297MOL0     C40913   8.621   3.890   0.750  0.6729  0.1438  1.1149
  297MOL0     C40914   9.399   4.066   1.187 -0.3252  0.3517 -0.0751
  297MOL0     C40915   9.533   4.094   1.230 -0.5350  0.0865  0.0450
  297MOL0     C40916   9.563   4.158   1.349 -0.1686 -0.2316  0.5877
  297MOL0     H40917  10.048   3.874   1.242 -0.6456 -0.0034 -0.0911
  297MOL0     H40918  10.241   3.890   1.366 -1.4110 -1.7106 -0.3660
  297MOL0     H40919  10.261   3.919   1.759 -1.7571  0.8245  1.0528
  297MOL0     H40920  10.192   4.086   1.764 -0.7428 -0.5714  0.9798
  297MOL0     H40921  10.404   4.169   1.737  0.3543 -0.0593  2.0436
  297MOL0     H40922  10.427   4.068   1.879 -0.5676 -2.1610 -0.3392
  297MOL0     H40923  10.519   3.869   1.735 -3.0019  0.3589  0.7790
  297MOL0     H40924  10.516   3.987   1.603 -0.4808  0.0116  0.0052
  297MOL0     H40925  10.741   3.986   1.687 -0.3185  2.3507 -2.1021
  297MOL0     H40926  10.679   4.134   1.747  1.4735 -0.5207 -1.4326
  297MOL0     H40927  10.632   3.999   1.975  2.2524 -2.7084  2.1077
  297MOL0     H40928  10.798   4.039   1.923  0.2173  1.1216 -0.1222
  297MOL0     H40929  10.647   3.773   1.944  1.3858 -3.2548  0.0192
  297MOL0     H40930  10.758   3.792   1.808  0.7875  0.2982  0.2716
  297MOL0     H40931  10.819   3.831   2.108  2.1678  0.7242  0.3917
  297MOL0     H40932  10.928   3.864   1.974  1.3682 -1.4556  0.8290
  297MOL0     H40933  10.835   3.573   2.020 -1.2765  0.3191  0.0667
  297MOL0     H40934  10.950   3.641   1.909  0.2472  0.8763 -0.0001
  297MOL0     H40935  10.897   3.707   2.290 -0.4195 -3.4557  2.0854
  297MOL0     H40936  11.225   3.639   2.469  1.3321  3.0616  1.8451
  297MOL0     H40937  11.060   3.624   2.508 -1.7404 -0.1324 -2.0278
  297MOL0     H40938  11.008   3.865   2.461 -0.1928  0.2639  1.1744
  297MOL0     H40939  11.130   3.828   2.589  0.2458  0.3234 -0.8554
  297MOL0     H40940  11.185   3.924   2.309  0.6421  3.1952 -0.4410
  297MOL0     H40941  11.203   4.022   2.454  1.7423  0.6530 -1.3570
  297MOL0     H40942  11.382   3.799   2.359 -0.8374 -0.1624 -0.0850
  297MOL0     H40943  11.408   3.967   2.393 -2.7997  0.5610  0.7912
  297MOL0     H40944  11.477   3.869   2.798 -1.6647  2.5378 -1.8732
  297MOL0     H40945  11.780   3.847   2.949  0.1054 -0.8830  1.0190
  297MOL0     H40946  11.731   3.680   2.924 -0.4542  0.2484 -3.7134
  297MOL0     H40947  11.602   3.798   2.964  0.6728  0.6743  1.7468
  297MOL0     H40948  12.198   3.759   2.605 -0.9750 -0.1235 -1.8618
  297MOL0     H40949  12.420   3.666   2.618  0.0388  1.2027  2.5691
  297MOL0     H40950  12.392   3.291   2.828 -0.5761  0.3015  0.5394
  297MOL0     H40951  12.547   3.233   2.762 -2.1475 -0.3134 -0.8985
  297MOL0     H40952  12.563   3.309   2.990  0.3357  0.8752  0.2676
  297MOL0     H40953  12.660   3.409   2.883  0.3149  3.0944  0.2559
  297MOL0     H40954  12.488   3.593   2.899  0.2703  0.8407  0.6684
  297MOL0     H40955  12.545   3.543   3.057 -1.1495  0.8525  0.4103
  297MOL0     H40956  12.341   3.388   3.091 -6.5495  1.6002  1.5459
  297MOL0     H40957  12.268   3.463   2.949 -0.6965  1.2506 -0.0739
  297MOL0     H40958  12.223   3.527   3.189  0.7617  0.6091  1.1084
  297MOL0     H40959  12.363   3.636   3.167  2.3636 -0.4728 -1.8318
  297MOL0     H40960  12.128   3.623   2.984  2.5749 -2.1417 -1.9875
  297MOL0     H40961  12.265   3.741   2.978 -0.1365  2.6663  2.2446
  297MOL0     H40962  12.173   3.785   3.239 -1.7003  2.1748  0.3747
  297MOL0     H40963  12.021   3.731   3.158  0.5098 -0.5836  0.2874
  297MOL0     H40964  12.051   3.906   2.985 -2.3728  1.0382 -0.3869
  297MOL0     H40965  12.169   3.985   3.077  0.2723 -0.1401 -1.0082
  297MOL0     H40966  12.262   3.274   2.671  1.8135  0.4426  0.6878
  297MOL0     H40967  12.036   3.359   2.659 -0.6173  0.0877 -0.4385
  297MOL0     H40968  11.798   3.729   2.455 -0.0371  1.0151 -0.4003
  297MOL0     H40969  11.575   3.728   2.396  3.3113 -0.6563 -0.8019
  297MOL0     H40970  10.037   4.140   1.650  0.7083  0.0076 -0.6888
  297MOL0     H40971   9.838   4.134   1.522 -0.9678 -2.2145 -1.0324
  297MOL0     H40972   9.685   3.950   0.952 -0.6527 -0.2432  0.2274
  297MOL0     H40973   9.461   3.929   0.871  0.9601 -0.0655 -0.7523
  297MOL0     H40974   9.272   4.112   0.850 -1.1557  0.2192 -0.4739
  297MOL0     H40975   9.205   3.942   0.830  0.8625 -1.2083  1.4892
  297MOL0     H40976   9.037   4.176   0.818  3.4846  1.6245  0.2565
  297MOL0     H40977   9.051   4.152   0.986  3.9384  2.5299 -1.2763
  297MOL0     H40978   8.970   3.926   0.789 -3.1626 -3.3078  0.4262
  297MOL0     H40979   8.936   3.921   0.963  0.3371  2.0389  1.1627
  297MOL0     H40980   8.809   4.132   0.781 -0.0820  0.6713  1.1334
  297MOL0     H40981   8.769   4.092   0.949 -2.5342  1.1296 -1.5667
  297MOL0     H40982   8.548   3.840   0.690 -1.9338  3.0503  1.5839
  297MOL0     H40983   9.316   4.094   1.251  0.7555  2.1739  0.5997
  297MOL0     H40984   9.559   4.095   1.438  1.8182 -0.8993  0.2412
  297MOL0     H40985   9.663   4.202   1.344 -0.1130 -0.5027 -2.7912
  297MOL0     H40986   9.491   4.240   1.361 -0.4133 -0.5102  1.0843
  298MOL0     O40987   1.320   0.537   8.452 -0.3436 -0.2921  0.6508
  298MOL0     C40988   1.271   0.566   8.345 -0.8701  0.3691 -0.7022
  298MOL0     O40989   1.342   0.564   8.231 -0.3133  0.0139 -0.2491
  298MOL0     C40990   1.484   0.551   8.237  0.1326 -0.2091 -0.0905
  298MOL0     C40991   1.555   0.670   8.225 -0.8521 -0.4012 -0.5190
  298MOL0     C40992   1.693   0.663   8.235 -1.1180  0.6685 -0.5773
  298MOL0     C40993   1.758   0.545   8.277  0.2305 -0.8137  0.3499
  298MOL0     O40994   1.890   0.537   8.304 -0.5282  0.1770 -0.2565
  298MOL0     C40995   1.984   0.640   8.258 -0.0785  0.4132  0.0348
  298MOL0     C40996   2.036   0.614   8.117 -0.3612  0.2726  0.2524
  298MOL0     C40997   2.149   0.510   8.104  0.6525 -0.6553 -0.3306
  298MOL0     C40998   2.198   0.495   7.963 -0.3061  0.2876  0.7720
  298MOL0     C40999   2.307   0.386   7.945  0.2074 -0.2881  0.4150
  298MOL0     C41000   2.335   0.360   7.796  0.6574  0.0716  0.1949
  298MOL0     C41001   2.479   0.323   7.783 -0.1878  0.3942 -0.5498
  298MOL0     C41002   2.515   0.323   7.634 -0.0564  0.8060 -0.3992
  298MOL0     N41003   2.651   0.273   7.622  0.2669  0.0528 -1.0321
  298MOL0     C41004   2.750   0.363   7.593 -0.7986 -0.0114 -0.2878
  298MOL0     C41005   2.865   0.286   7.610  0.5095 -0.3792 -0.8826
  298MOL0     C41006   3.007   0.334   7.605 -0.1424  0.4187  0.4125
  298MOL0     C41007   3.064   0.315   7.745  0.0106  0.7917 -0.0223
  298MOL0     C41008   3.203   0.376   7.750 -0.3410 -0.2999 -0.9309
  298MOL0     C41009   3.242   0.382   7.895  0.3023  0.1210  0.6283
  298MOL0     O41010   3.354   0.461   7.905  0.6711 -0.0609 -1.3087
  298MOL0     C41011   3.477   0.414   7.872  0.6085  0.2749 -0.2179
  298MOL0     C41012   3.519   0.286   7.838 -0.0584 -0.5121 -0.3652
  298MOL0     C41013   3.649   0.244   7.807 -0.1418 -0.2700  0.4947
  298MOL0     C41014   3.679   0.095   7.780 -0.2035  0.4469  0.2476
  298MOL0     C41015   3.754   0.348   7.808 -0.0950 -0.2186 -0.1143
  298MOL0     C41016   3.900   0.323   7.781  0.1673 -0.5256 -0.3086
  298MOL0     O41017   3.992   0.392   7.856  0.6015  0.2554  0.5988
  298MOL0     C41018   4.123   0.386   7.821  0.7149 -0.6836  0.1032
  298MOL0     C41019   4.163   0.488   7.730  0.2017 -0.6700 -0.0189
  298MOL0     C41020   4.290   0.495   7.685  0.3677  0.1615  0.3464
  298MOL0     C41021   4.380   0.398   7.735 -0.0906  0.4773  0.5117
  298MOL0     O41022   4.511   0.395   7.703 -0.2023  0.2649  0.1794
  298MOL0     C41023   4.580   0.523   7.688 -0.2633  0.6506 -0.4040
  298MOL0     C41024   4.682   0.538   7.810 -0.3682  0.4044 -0.1025
  298MOL0     C41025   4.783   0.418   7.805  0.7089  0.2199  0.2120
  298MOL0     C41026   4.898   0.433   7.916  0.6483 -0.7130  0.1419
  298MOL0     C41027   4.986   0.312   7.916  0.3805  0.7115  0.0946
  298MOL0     C41028   5.092   0.332   8.027 -0.8225 -0.4516 -0.1906
  298MOL0     C41029   5.192   0.217   8.037 -0.6845  0.0348 -0.5746
  298MOL0     C41030   5.152   0.096   8.124  0.4761 -0.0340  0.6547
  298MOL0    Cl41031   5.291  -0.022   8.136  0.2687 -0.0280  0.0270
  298MOL0     C41032   4.342   0.291   7.819  0.3423 -0.1432 -0.4778
  298MOL0     C41033   4.210   0.290   7.865 -0.0322  0.2420 -0.0155
  298MOL0     O41034   3.931   0.226   7.709 -0.0953  0.2482  0.7269
  298MOL0     C41035   3.714   0.479   7.851 -0.0482  1.3148 -0.0257
  298MOL0     C41036   3.581   0.508   7.875  0.7172 -0.2902  0.2881
  298MOL0     N41037   2.826   0.164   7.649  0.5046 -0.0947  0.5677
  298MOL0     N41038   2.695   0.147   7.649 -0.0483  0.3867  0.3436
  298MOL0     C41039   1.682   0.428   8.303 -0.3417  0.2342  0.1075
  298MOL0     C41040   1.545   0.432   8.280  0.2232 -0.0494  0.3881
  298MOL0     C41041   1.129   0.617   8.344 -0.7720 -0.3400 -0.0475
  298MOL0     C41042   1.044   0.582   8.238 -0.4662  0.0489  0.5708
  298MOL0     C41043   0.915   0.636   8.223  0.5662 -0.5238  0.1144
  298MOL0     C41044   0.863   0.717   8.328 -0.2892 -0.1380  0.1677
  298MOL0     O41045   0.733   0.750   8.309 -0.2936  1.1611  1.0009
  298MOL0     C41046   0.657   0.816   8.415 -0.5488  0.2156 -0.9346
  298MOL0     C41047   0.515   0.872   8.388 -1.5527  0.2171 -0.4063
  298MOL0     C41048   0.538   0.977   8.277  0.1024  0.2169  0.2793
  298MOL0     C41049   0.408   1.057   8.254 -0.2755 -0.6586 -0.3704
  298MOL0     C41050   0.292   0.979   8.225  0.2028  0.2145  0.0313
  298MOL0     C41051   0.186   0.926   8.206 -0.8656 -0.6774 -0.4763
  298MOL0     C41052   0.946   0.760   8.431  0.4886 -0.9179 -0.1159
  298MOL0     C41053   1.084   0.713   8.439  0.9378 -0.0067  0.4377
  298MOL0     C41054   1.177   0.773   8.545 -0.0488  0.3997 -0.1338
  298MOL0     H41055   1.501   0.763   8.211  2.0034  1.5889  0.6978
  298MOL0     H41056   1.726   0.765   8.217 -4.4991  2.3178  1.3992
  298MOL0     H41057   2.072   0.661   8.320  0.2897  3.4726 -1.3810
  298MOL0     H41058   1.929   0.734   8.262 -0.5643  0.3001 -2.4908
  298MOL0     H41059   1.953   0.585   8.052 -0.9080  0.1846  0.9750
  298MOL0     H41060   2.074   0.711   8.083  2.0097 -0.4491  0.6547
  298MOL0     H41061   2.237   0.528   8.166 -1.5981  0.6695  2.7380
  298MOL0     H41062   2.111   0.413   8.137  0.2162 -0.5512 -0.5154
  298MOL0     H41063   2.118   0.483   7.889  0.5576 -2.9094  0.2233
  298MOL0     H41064   2.235   0.595   7.939 -0.5495  0.2447  0.2013
  298MOL0     H41065   2.269   0.291   7.986 -1.3081 -0.2152 -0.7276
  298MOL0     H41066   2.401   0.413   7.994  0.8474 -0.8645 -0.4752
  298MOL0     H41067   2.273   0.274   7.770 -0.8589  1.0984  0.3382
  298MOL0     H41068   2.309   0.447   7.736  0.1973 -0.5856 -0.5808
  298MOL0     H41069   2.487   0.225   7.831 -2.1826 -0.1863 -1.3049
  298MOL0     H41070   2.541   0.397   7.835 -1.3450  0.6190  0.5503
  298MOL0     H41071   2.447   0.253   7.586 -0.5404 -0.5558  2.0631
  298MOL0     H41072   2.497   0.418   7.584 -1.7803 -0.3955 -2.2056
  298MOL0     H41073   2.747   0.462   7.549 -0.8444 -0.2389 -0.8016
  298MOL0     H41074   3.007   0.438   7.573  1.4149  0.2187 -0.3481
  298MOL0     H41075   3.083   0.275   7.551  0.6896 -2.6377  4.3767
  298MOL0     H41076   2.992   0.359   7.815 -0.6447 -0.4219  0.0939
  298MOL0     H41077   3.072   0.217   7.791 -1.1634  1.3615  1.4729
  298MOL0     H41078   3.277   0.317   7.695 -0.1724  2.0126 -3.3710
  298MOL0     H41079   3.199   0.478   7.710 -1.4007  0.9526  2.0627
  298MOL0     H41080   3.154   0.413   7.952 -1.5605 -2.0572 -0.8766
  298MOL0     H41081   3.258   0.280   7.931 -2.9626  0.2184  2.7895
  298MOL0     H41082   3.446   0.206   7.838 -0.6048 -0.0336  0.8318
  298MOL0     H41083   3.587   0.037   7.764  0.7167 -0.8083 -0.6976
  298MOL0     H41084   3.733   0.044   7.860 -2.7889 -1.6239  0.8228
  298MOL0     H41085   3.732   0.087   7.685 -2.3605 -0.4104 -0.9749
  298MOL0     H41086   4.102   0.575   7.705  0.6089 -0.0238  1.1463
  298MOL0     H41087   4.328   0.573   7.621  2.9453 -0.0374  1.5222
  298MOL0     H41088   4.634   0.538   7.594 -0.6627  1.9703 -0.4341
  298MOL0     H41089   4.525   0.615   7.706  2.7653  2.2051  1.8293
  298MOL0     H41090   4.733   0.634   7.796  1.4070 -0.6753 -1.5661
  298MOL0     H41091   4.628   0.546   7.904 -0.4521  2.1167 -0.2759
  298MOL0     H41092   4.833   0.404   7.709 -0.4836 -0.4058 -0.3372
  298MOL0     H41093   4.727   0.326   7.827  0.6127  0.2777  0.2112
  298MOL0     H41094   4.852   0.453   8.013 -0.8370 -1.5407 -0.3417
  298MOL0     H41095   4.962   0.517   7.888  3.4365 -2.4635  0.8426
  298MOL0     H41096   4.934   0.215   7.920  2.2782 -0.3885 -0.4511
  298MOL0     H41097   5.031   0.312   7.817  0.1415  3.4240 -0.0714
  298MOL0     H41098   5.033   0.349   8.117 -0.2508 -0.2785  0.1573
  298MOL0     H41099   5.144   0.426   8.004 -3.0350  0.5792 -1.3118
  298MOL0     H41100   5.288   0.249   8.078 -0.3350 -0.1130 -1.2578
  298MOL0     H41101   5.222   0.176   7.940 -2.1012 -1.5831 -0.3702
  298MOL0     H41102   5.063   0.050   8.079 -0.6630  2.9518 -0.3502
  298MOL0     H41103   5.121   0.141   8.219 -0.3373  2.4596 -0.7215
  298MOL0     H41104   4.420   0.219   7.841  1.0664  0.7296 -0.1402
  298MOL0     H41105   4.177   0.216   7.937 -1.3969  1.1191  0.3014
  298MOL0     H41106   3.780   0.562   7.874  0.6310  0.7164  0.2311
  298MOL0     H41107   3.549   0.605   7.910  3.9336  0.4693  1.5140
  298MOL0     H41108   1.726   0.335   8.338 -0.3743  0.1848  0.0181
  298MOL0     H41109   1.483   0.344   8.295 -3.1389  2.3622  1.7323
  298MOL0     H41110   1.083   0.517   8.160 -2.4950 -1.8941  1.0702
  298MOL0     H41111   0.856   0.610   8.136  2.5631 -1.1003 -1.1263
  298MOL0     H41112   0.658   0.755   8.505  1.8244  0.8480 -0.4435
  298MOL0     H41113   0.712   0.903   8.453  2.0094 -1.4665 -0.5878
  298MOL0     H41114   0.474   0.908   8.482 -1.9094 -0.5582 -0.2557
  298MOL0     H41115   0.458   0.785   8.352 -1.8586 -0.1927  0.9975
  298MOL0     H41116   0.617   1.049   8.299 -0.4773  0.0468  3.3553
  298MOL0     H41117   0.562   0.919   8.188  2.0890  0.3915  0.6522
  298MOL0     H41118   0.430   1.118   8.166  4.0888 -0.0682  0.8816
  298MOL0     H41119   0.384   1.126   8.335  0.7183  0.6900 -1.1761
  298MOL0     H41120   0.093   0.883   8.176  0.2507 -2.9783 -0.8945
  298MOL0     H41121   0.925   0.826   8.515  1.1677 -0.7146 -0.0991
  298MOL0     H41122   1.137   0.871   8.569 -1.5435  0.4320 -2.4369
  298MOL0     H41123   1.174   0.713   8.637 -1.5389  1.7882  0.7657
  298MOL0     H41124   1.280   0.784   8.508  0.5713 -2.2018  0.5614
  299MOL0     O41125   0.967  11.056  10.910 -0.2155  0.3405  0.0487
  299MOL0     C41126   1.031  11.107  10.998 -0.1208 -0.1459  0.4624
  299MOL0     O41127   1.115  11.217  10.978  0.3662  0.3562  0.3632
  299MOL0     C41128   1.238  11.223  11.035  0.0192  0.3503  0.4866
  299MOL0     C41129   1.299  11.122  11.109  0.7866 -0.1526  0.1153
  299MOL0     C41130   1.418  11.133  11.180  0.1841  0.5043  0.6098
  299MOL0     C41131   1.490  11.247  11.160 -0.4259 -0.5107  0.6629
  299MOL0     O41132   1.619  11.249  11.208  0.4188  0.2401 -0.5279
  299MOL0     C41133   1.708  11.360  11.189 -0.5284 -0.2943  1.5275
  299MOL0     C41134   1.857  11.316  11.208 -0.0152  0.1049  0.4588
  299MOL0     C41135   1.870  11.247  11.345  0.4853  0.3053  0.4125
  299MOL0     C41136   2.021  11.208  11.361  0.7035  0.6916  0.4361
  299MOL0     C41137   2.042  11.115  11.481  0.1398 -0.3980  0.5859
  299MOL0     C41138   2.185  11.059  11.468 -0.4531 -0.2674 -0.4226
  299MOL0     C41139   2.217  10.960  11.578 -0.6946 -0.5930 -0.1780
  299MOL0     C41140   2.169  10.827  11.537 -0.6231 -0.0342 -0.1007
  299MOL0     N41141   2.181  10.745  11.658  0.3960  0.0849 -0.4075
  299MOL0     C41142   2.288  10.663  11.693 -0.3485 -0.0320  0.6420
  299MOL0     C41143   2.272  10.646  11.823 -0.2315  0.4979  0.2563
  299MOL0     C41144   2.344  10.537  11.898 -0.1923 -0.3910 -0.0890
  299MOL0     C41145   2.374  10.598  12.038 -0.1270  0.1401 -0.5091
  299MOL0     C41146   2.509  10.679  12.031 -1.2204 -0.1280 -0.0628
  299MOL0     C41147   2.543  10.735  12.164 -0.5332  0.3974 -0.0565
  299MOL0     O41148   2.679  10.782  12.151  0.3688 -0.4495  0.3815
  299MOL0     C41149   2.787  10.724  12.205 -0.8056  0.0200 -0.1070
  299MOL0     C41150   2.790  10.582  12.220  0.9996 -0.6062  0.0201
  299MOL0     C41151   2.896  10.515  12.280 -0.5496  0.0726  0.2425
  299MOL0     C41152   2.869  10.372  12.314  0.5874  0.4060  0.1093
  299MOL0     C41153   3.016  10.590  12.312  0.4753 -0.2812  0.0299
  299MOL0     C41154   3.138  10.525  12.374  0.8909  0.2561 -0.2326
  299MOL0     O41155   3.256  10.600  12.390  0.9091 -0.3322  0.2450
  299MOL0     C41156   3.374  10.553  12.438 -0.7399  0.3425 -0.0442
  299MOL0     C41157   3.494  10.573  12.380  0.1060  0.1974  0.1155
  299MOL0     C41158   3.608  10.526  12.433 -0.1260 -0.4469  0.6770
  299MOL0     C41159   3.611  10.464  12.565 -0.5080  0.1089 -0.9089
  299MOL0     O41160   3.716  10.405  12.625 -0.7115  0.3172  0.2889
  299MOL0     C41161   3.836  10.386  12.552 -0.6736  0.0878  0.4886
  299MOL0     C41162   3.902  10.269  12.626  0.2985  0.5870 -0.5353
  299MOL0     C41163   4.046  10.234  12.578 -0.7310 -0.7570 -0.3561
  299MOL0     C41164   4.109  10.103  12.645  1.1434 -0.9055  0.3685
  299MOL0     C41165   4.269  10.111  12.650 -0.3962  0.2424  0.1389
  299MOL0     C41166   4.328   9.976  12.703 -0.5599 -0.0754 -0.2463
  299MOL0     C41167   4.461   9.940  12.635 -0.3356 -0.6562  1.1365
  299MOL0     C41168   4.522   9.809  12.694 -0.0067 -0.3208  0.8205
  299MOL0    Cl41169   4.582   9.839  12.859  0.3701 -0.2398 -0.0753
  299MOL0     C41170   3.483  10.437  12.620 -0.8754  0.2707  0.0530
  299MOL0     C41171   3.374  10.475  12.560 -0.5645 -0.6685  0.8929
  299MOL0     O41172   3.132  10.403  12.401  0.2850  0.4198 -0.1359
  299MOL0     C41173   3.015  10.731  12.272 -0.8336  0.0300  0.0244
  299MOL0     C41174   2.902  10.792  12.226  1.1544  0.2191  1.3026
  299MOL0     N41175   2.152  10.706  11.866 -0.6842  0.1804  0.0361
  299MOL0     N41176   2.096  10.755  11.766 -0.4291 -0.3908  0.4984
  299MOL0     C41177   1.445  11.349  11.073  0.0024 -0.1568  0.6500
  299MOL0     C41178   1.321  11.336  11.012 -0.4428 -0.2566  0.1386
  299MOL0     C41179   0.996  11.072  11.138 -0.7741  0.0172 -0.2330
  299MOL0     C41180   0.979  11.178  11.227  0.3453 -0.6418  0.4298
  299MOL0     C41181   0.951  11.145  11.358  0.1198  0.1016 -0.6700
  299MOL0     C41182   0.921  11.019  11.401  0.0964  0.6092  0.0087
  299MOL0     O41183   0.886  10.999  11.529 -0.3884 -0.3306 -0.3924
  299MOL0     C41184   0.825  10.877  11.570 -0.1223 -0.2748  0.1404
  299MOL0     C41185   0.771  10.904  11.712 -0.1522  0.5872  0.3192
  299MOL0     C41186   0.675  10.781  11.743 -0.3655 -0.6094  0.3379
  299MOL0     C41187   0.638  10.800  11.893  0.6711  0.8106 -0.4092
  299MOL0     C41188   0.534  10.717  11.937 -0.4127  0.4599  0.4062
  299MOL0     C41189   0.446  10.640  11.979 -0.9424 -0.0562  0.2649
  299MOL0     C41190   0.912  10.920  11.301  0.0284  0.1471 -0.9630
  299MOL0     C41191   0.965  10.943  11.175  0.6236 -0.6668  0.6397
  299MOL0     C41192   0.987  10.820  11.091  1.2181  0.0725 -0.0974
  299MOL0     H41193   1.253  11.023  11.111 -0.1109  0.2222 -0.8565
  299MOL0     H41194   1.465  11.053  11.236 -0.4376  1.1802  2.1668
  299MOL0     H41195   1.692  11.449  11.251 -1.0479  1.1101 -0.5401
  299MOL0     H41196   1.708  11.400  11.088  1.8351 -3.0588  0.2882
  299MOL0     H41197   1.893  11.252  11.128 -0.5325  0.4162 -0.0263
  299MOL0     H41198   1.923  11.403  11.202 -0.1464  0.2195  0.6354
  299MOL0     H41199   1.838  11.312  11.427 -3.1421  1.0932 -1.4089
  299MOL0     H41200   1.803  11.161  11.353 -0.6655  1.1800  0.4932
  299MOL0     H41201   2.041  11.152  11.270  0.9607 -0.9241  1.4479
  299MOL0     H41202   2.093  11.290  11.373  2.0572 -0.6971  2.4143
  299MOL0     H41203   1.977  11.029  11.462  0.8000 -0.2979 -2.7018
  299MOL0     H41204   2.026  11.171  11.574  0.4041  2.5037 -0.9750
  299MOL0     H41205   2.196  11.014  11.369 -0.3521  0.1275 -0.5936
  299MOL0     H41206   2.257  11.141  11.478  1.2790 -1.9518  2.0983
  299MOL0     H41207   2.178  10.998  11.672 -0.7125  2.7734 -1.3988
  299MOL0     H41208   2.323  10.954  11.605 -0.3191  3.4735 -0.1644
  299MOL0     H41209   2.063  10.834  11.508 -0.2501 -0.1733 -1.5745
  299MOL0     H41210   2.229  10.770  11.465 -0.7297 -0.3614  0.0693
  299MOL0     H41211   2.364  10.620  11.628 -0.9165  0.1084 -0.1370
  299MOL0     H41212   2.436  10.505  11.847  0.6936  0.4320  0.9515
  299MOL0     H41213   2.288  10.443  11.907  1.4104 -1.4401 -0.5359
  299MOL0     H41214   2.283  10.649  12.071 -0.5500 -0.8308 -0.1326
  299MOL0     H41215   2.397  10.524  12.115  0.4700  1.8489  1.0349
  299MOL0     H41216   2.593  10.614  12.003 -0.7644  0.8668 -1.0554
  299MOL0     H41217   2.515  10.755  11.952 -0.9449  0.2985  0.3657
  299MOL0     H41218   2.486  10.820  12.201  0.5129  0.8372  0.5624
  299MOL0     H41219   2.530  10.655  12.237 -1.0239 -0.4972 -1.0900
  299MOL0     H41220   2.699  10.530  12.191  1.1396 -0.1860 -1.2186
  299MOL0     H41221   2.950  10.304  12.285  0.5617  0.1556  0.6035
  299MOL0     H41222   2.775  10.337  12.272 -0.2121  1.5286  0.9172
  299MOL0     H41223   2.864  10.373  12.423 -0.8403  1.3103  0.0550
  299MOL0     H41224   3.499  10.630  12.288 -0.1062 -3.5340 -2.4386
  299MOL0     H41225   3.702  10.548  12.382 -1.1646  3.7308  0.2095
  299MOL0     H41226   3.828  10.362  12.446  0.6150  1.8614 -0.0661
  299MOL0     H41227   3.902  10.473  12.560  1.8260 -1.8138  1.8209
  299MOL0     H41228   3.901  10.290  12.733  3.1185 -0.8439 -0.1312
  299MOL0     H41229   3.836  10.181  12.623  0.6694  0.0368  2.9905
  299MOL0     H41230   4.098  10.325  12.607 -0.8561 -1.0160  0.7235
  299MOL0     H41231   4.045  10.216  12.470 -0.8633 -2.7979 -0.0464
  299MOL0     H41232   4.075  10.020  12.582 -1.6792  0.8027 -0.5754
  299MOL0     H41233   4.069  10.084  12.745  3.5830  1.3512  1.9074
  299MOL0     H41234   4.307  10.146  12.553 -2.1694  2.7418  0.2723
  299MOL0     H41235   4.295  10.191  12.719  0.8663  0.1245 -0.1666
  299MOL0     H41236   4.259   9.894  12.687  0.2768 -0.9309  0.3811
  299MOL0     H41237   4.343   9.994  12.810 -1.7977 -1.7033  0.2347
  299MOL0     H41238   4.529  10.025  12.644 -1.5040  0.2345  1.8238
  299MOL0     H41239   4.447   9.922  12.528  1.0184  0.1122  0.8049
  299MOL0     H41240   4.606   9.783  12.628  1.2265 -0.0157  2.2017
  299MOL0     H41241   4.454   9.724  12.680  1.7589 -1.7795  0.7027
  299MOL0     H41242   3.477  10.391  12.719 -0.8179  4.1107  2.0473
  299MOL0     H41243   3.272  10.464  12.595 -1.3479  0.4703 -0.8752
  299MOL0     H41244   3.104  10.792  12.280 -0.2845 -0.8471  0.7081
  299MOL0     H41245   2.901  10.897  12.200  1.0670 -0.3373 -1.1877
  299MOL0     H41246   1.503  11.434  11.040 -0.3769  0.7086  2.1236
  299MOL0     H41247   1.279  11.399  10.934 -0.0521  0.2462  0.3241
  299MOL0     H41248   0.990  11.283  11.200 -0.1357 -0.9148 -0.8850
  299MOL0     H41249   0.970  11.228  11.427  1.3831 -1.3105  0.7626
  299MOL0     H41250   0.736  10.843  11.515 -2.5958  2.5740  2.0294
  299MOL0     H41251   0.907  10.805  11.563  1.2080  1.0979  0.9649
  299MOL0     H41252   0.713  10.996  11.721  1.0747  1.6795 -1.9717
  299MOL0     H41253   0.854  10.908  11.783 -0.3545  1.8060  0.5053
  299MOL0     H41254   0.582  10.781  11.685 -0.0095  1.7543 -0.3598
  299MOL0     H41255   0.742  10.697  11.728  1.8340  1.2031 -0.6698
  299MOL0     H41256   0.608  10.905  11.906 -1.1628  0.4589 -1.5014
  299MOL0     H41257   0.725  10.779  11.956 -0.8199 -1.6482  1.0145
  299MOL0     H41258   0.370  10.585  12.031 -0.7105 -0.6107  0.0250
  299MOL0     H41259   0.882  10.819  11.324 -1.3330  0.7594  0.0668
  299MOL0     H41260   0.888  10.784  11.060  1.3162  1.4927 -2.3528
  299MOL0     H41261   1.032  10.836  10.992 -2.5727 -1.9126 -2.3720
  299MOL0     H41262   1.042  10.739  11.140  0.6685 -0.0061  0.3936
  300MOL0     O41263   6.128  11.092   5.257 -0.2234 -0.1050 -0.5704
  300MOL0     C41264   6.044  11.126   5.179  0.0313  0.5216 -0.0083
  300MOL0     O41265   6.058  11.146   5.045  0.4151  0.2113  0.4339
  300MOL0     C41266   6.185  11.113   4.999  0.4099 -0.3583 -0.4007
  300MOL0     C41267   6.218  10.980   5.004  0.3690  0.2470 -0.0843
  300MOL0     C41268   6.319  10.926   4.918  0.6551 -0.2022 -0.3673
  300MOL0     C41269   6.399  11.013   4.849 -0.1615 -0.3601  0.4718
  300MOL0     O41270   6.505  10.953   4.789 -0.2570  0.4774 -0.3420
  300MOL0     C41271   6.607  11.025   4.712 -0.2944  0.6080  0.5300
  300MOL0     C41272   6.687  10.927   4.632 -0.1386 -0.2442  0.5511
  300MOL0     C41273   6.791  10.853   4.709  0.7335 -0.0332 -0.8215
  300MOL0     C41274   6.881  10.778   4.612  0.6767 -0.5396 -0.5129
  300MOL0     C41275   6.958  10.661   4.673  0.2705  0.3492  0.3119
  300MOL0     C41276   7.087  10.620   4.600 -0.6577  0.7284  0.8220
  300MOL0     C41277   7.164  10.511   4.674 -0.1669 -0.0363 -0.4792
  300MOL0     C41278   7.269  10.566   4.780 -1.2410  0.9090  0.1362
  300MOL0     N41279   7.354  10.449   4.827  0.4266  0.5642 -0.5162
  300MOL0     C41280   7.306  10.339   4.904 -0.3509 -0.2057 -0.7305
  300MOL0     C41281   7.425  10.267   4.925  1.0368 -0.6089 -0.4585
  300MOL0     C41282   7.453  10.167   5.022 -0.6029  0.8687 -0.1363
  300MOL0     C41283   7.438  10.209   5.169  0.3003 -0.1571 -0.8297
  300MOL0     C41284   7.477  10.348   5.211 -0.0712 -0.2572  0.3831
  300MOL0     C41285   7.632  10.354   5.217  0.9202 -0.4497  0.8754
  300MOL0     O41286   7.676  10.454   5.312  0.3874 -0.0557 -0.4286
  300MOL0     C41287   7.814  10.464   5.327  0.7438 -0.2261  0.7345
  300MOL0     C41288   7.904  10.491   5.222  0.3353  0.4829  0.0479
  300MOL0     C41289   8.037  10.512   5.248 -0.3036 -0.4743 -1.0106
  300MOL0     C41290   8.117  10.553   5.122 -0.1307  0.8678 -0.2628
  300MOL0     C41291   8.096  10.497   5.384  0.8479 -0.4103  0.1110
  300MOL0     C41292   8.243  10.515   5.402 -0.2482  0.1933 -0.1510
  300MOL0     O41293   8.278  10.546   5.531 -0.0278 -0.2332 -0.1783
  300MOL0     C41294   8.401  10.594   5.564  0.2569  0.9477 -0.0234
  300MOL0     C41295   8.523  10.537   5.528 -0.4425  0.7787  0.2474
  300MOL0     C41296   8.642  10.578   5.590 -0.6098  0.2281  0.6221
  300MOL0     C41297   8.644  10.679   5.690  0.1005 -0.0734  0.7772
  300MOL0     O41298   8.758  10.726   5.752  0.7089  0.2025  0.5892
  300MOL0     C41299   8.879  10.745   5.671 -0.0518 -0.2792 -0.4833
  300MOL0     C41300   8.978  10.643   5.716  0.8084 -0.3921  0.1360
  300MOL0     C41301   9.100  10.624   5.632 -0.5616 -0.2712 -0.4336
  300MOL0     C41302   9.190  10.510   5.686 -0.1286 -0.2752  0.1220
  300MOL0     C41303   9.312  10.479   5.593  0.1493  0.0328  0.2723
  300MOL0     C41304   9.418  10.415   5.673  0.2564 -0.2753  0.1533
  300MOL0     C41305   9.529  10.358   5.590  0.2170 -0.5051  0.0726
  300MOL0     C41306   9.652  10.321   5.678 -0.5524 -0.0922 -1.3113
  300MOL0    Cl41307   9.789  10.264   5.579  0.0609  0.6187  0.0827
  300MOL0     C41308   8.522  10.727   5.730 -0.1755  0.7198  0.5529
  300MOL0     C41309   8.400  10.687   5.668 -0.1447 -0.0482  0.7187
  300MOL0     O41310   8.321  10.504   5.306  0.0479  0.3282  0.2972
  300MOL0     C41311   8.001  10.487   5.491  0.7566 -0.0965 -0.0333
  300MOL0     C41312   7.862  10.463   5.465  0.3869  0.5610  1.1156
  300MOL0     N41313   7.532  10.334   4.854 -0.8275  0.1862 -0.5649
  300MOL0     N41314   7.483  10.435   4.796 -0.2731  0.3024 -0.6544
  300MOL0     C41315   6.375  11.149   4.852 -0.5735 -0.2943 -0.2989
  300MOL0     C41316   6.261  11.198   4.918  0.0232 -0.4362  0.2363
  300MOL0     C41317   5.907  11.159   5.236  0.8515  0.6305 -0.2716
  300MOL0     C41318   5.808  11.216   5.156  0.2420 -0.7447  0.0190
  300MOL0     C41319   5.687  11.247   5.218 -0.0682 -0.6711 -0.6168
  300MOL0     C41320   5.666  11.227   5.354 -1.3051 -0.7903 -0.3535
  300MOL0     O41321   5.552  11.278   5.412  0.7882 -0.9017 -0.5444
  300MOL0     C41322   5.450  11.184   5.427  0.5317 -0.4261  0.2236
  300MOL0     C41323   5.327  11.243   5.492 -0.0729 -0.9670  0.8472
  300MOL0     C41324   5.276  11.358   5.394  0.8796  0.6331 -0.7586
  300MOL0     C41325   5.153  11.416   5.452  0.2361 -0.0079 -0.0612
  300MOL0     C41326   5.040  11.327   5.402 -0.5336 -0.5083 -0.0618
  300MOL0     C41327   4.953  11.249   5.366 -0.7220  0.7178  0.0419
  300MOL0     C41328   5.766  11.177   5.434  0.1139 -0.5376 -1.3113
  300MOL0     C41329   5.881  11.134   5.377 -0.0884 -0.6624  0.7631
  300MOL0     C41330   5.978  11.091   5.478  0.0424  0.1177  0.1589
  300MOL0     H41331   6.177  10.904   5.070  0.3667 -1.3291 -1.8163
  300MOL0     H41332   6.334  10.819   4.920 -1.6488 -0.7157  4.9811
  300MOL0     H41333   6.663  11.088   4.782 -0.0764  1.2678 -0.2155
  300MOL0     H41334   6.559  11.097   4.645 -1.6991  1.1322  2.0356
  300MOL0     H41335   6.628  10.861   4.568  3.1454 -1.3503 -1.6231
  300MOL0     H41336   6.748  10.980   4.558 -1.3031  0.2919 -0.0490
  300MOL0     H41337   6.843  10.928   4.769 -1.9873 -0.0655  1.8550
  300MOL0     H41338   6.742  10.778   4.773  0.2204  0.5997 -0.4592
  300MOL0     H41339   6.837  10.762   4.513 -2.8450 -0.2481  0.8592
  300MOL0     H41340   6.961  10.851   4.595  1.4805 -1.4460 -0.6785
  300MOL0     H41341   6.885  10.580   4.673 -0.2664  0.8292  0.6126
  300MOL0     H41342   6.977  10.667   4.781  1.5871 -1.8487  0.2763
  300MOL0     H41343   7.072  10.585   4.497  1.1173  2.1712  0.0063
  300MOL0     H41344   7.156  10.703   4.583  1.9670 -1.3135  0.9814
  300MOL0     H41345   7.223  10.457   4.599 -0.1853 -1.0112  0.1934
  300MOL0     H41346   7.096  10.436   4.715  2.8105 -2.4952  0.3292
  300MOL0     H41347   7.345  10.629   4.733 -0.6724  2.5934  3.1184
  300MOL0     H41348   7.217  10.623   4.857 -1.4393  0.3807  0.3927
  300MOL0     H41349   7.211  10.324   4.956 -0.7464  3.4513 -0.1004
  300MOL0     H41350   7.559  10.139   5.018 -0.6838  0.1422  1.7727
  300MOL0     H41351   7.390  10.082   4.997  0.7617  0.1313 -1.1853
  300MOL0     H41352   7.334  10.195   5.199  1.2998 -1.2536  2.5303
  300MOL0     H41353   7.496  10.142   5.233 -0.8508  0.3127  0.7664
  300MOL0     H41354   7.427  10.421   5.147 -1.9051  0.0226  2.0306
  300MOL0     H41355   7.434  10.347   5.312 -0.2936 -1.1726  0.2841
  300MOL0     H41356   7.679  10.261   5.252  2.4520 -0.6195 -1.4025
  300MOL0     H41357   7.671  10.374   5.117  1.8277 -4.1709  0.3389
  300MOL0     H41358   7.862  10.501   5.122 -2.1058  2.3546  1.1798
  300MOL0     H41359   8.214  10.503   5.116  0.1745  1.2610  1.1291
  300MOL0     H41360   8.138  10.660   5.130  1.0225  0.6451 -0.1435
  300MOL0     H41361   8.063  10.546   5.027  1.1580  0.5940 -1.0039
  300MOL0     H41362   8.522  10.454   5.458 -0.9300  0.9236  0.0810
  300MOL0     H41363   8.733  10.527   5.561 -1.5104 -0.9056 -0.2680
  300MOL0     H41364   8.858  10.726   5.566 -1.0470 -0.8685 -0.1964
  300MOL0     H41365   8.919  10.844   5.698  0.2866 -0.2852 -0.9666
  300MOL0     H41366   9.016  10.667   5.815  0.7294 -1.6755  0.4975
  300MOL0     H41367   8.914  10.555   5.728  0.1583 -0.0445 -0.6679
  300MOL0     H41368   9.155  10.718   5.621  0.1097 -0.8904 -3.1400
  300MOL0     H41369   9.067  10.588   5.534  0.1721 -0.2315 -0.7043
  300MOL0     H41370   9.134  10.415   5.689  0.2183 -0.5957 -2.0516
  300MOL0     H41371   9.226  10.531   5.787  0.4843 -1.2431  0.1159
  300MOL0     H41372   9.281  10.405   5.519 -2.4562  1.7318 -0.4790
  300MOL0     H41373   9.355  10.569   5.549 -2.3382  1.7977  1.2302
  300MOL0     H41374   9.380  10.333   5.734  2.5649 -1.0391  0.6683
  300MOL0     H41375   9.458  10.495   5.736 -0.6794  0.3799 -0.0735
  300MOL0     H41376   9.574  10.420   5.512 -0.3366  2.1127  1.7275
  300MOL0     H41377   9.495  10.267   5.539 -1.3907 -0.4637  1.0232
  300MOL0     H41378   9.630  10.255   5.762  0.1403  1.4565  0.1346
  300MOL0     H41379   9.680  10.419   5.718 -0.1803  0.2402 -2.3587
  300MOL0     H41380   8.522  10.803   5.807 -2.8973  1.2271  0.1868
  300MOL0     H41381   8.302  10.716   5.705 -0.3971 -1.3545  1.1501
  300MOL0     H41382   8.039  10.496   5.592 -1.0221 -0.7247  0.7302
  300MOL0     H41383   7.787  10.457   5.543  0.8373 -0.6343  1.4662
  300MOL0     H41384   6.439  11.218   4.798  1.5087 -1.4987  0.5015
  300MOL0     H41385   6.240  11.302   4.895 -1.6131 -0.8673 -0.3218
  300MOL0     H41386   5.815  11.225   5.048  0.9242  1.9592  0.2099
  300MOL0     H41387   5.608  11.284   5.154  0.2754 -0.5092 -0.9493
  300MOL0     H41388   5.435  11.147   5.325 -0.8124 -1.0323  0.6159
  300MOL0     H41389   5.488  11.101   5.486 -0.5320 -0.5046  0.8209
  300MOL0     H41390   5.361  11.292   5.583  3.7058  0.8352 -1.2841
  300MOL0     H41391   5.247  11.169   5.504 -0.6573 -0.1905  1.9206
  300MOL0     H41392   5.346  11.441   5.389  1.8998 -0.0173  1.7202
  300MOL0     H41393   5.269  11.325   5.289 -2.6479  2.7431 -1.3680
  300MOL0     H41394   5.140  11.520   5.421 -1.8137 -0.2861 -0.2893
  300MOL0     H41395   5.165  11.411   5.560  0.8083 -2.4051 -0.1773
  300MOL0     H41396   4.888  11.172   5.328  1.3917 -0.1568 -2.0235
  300MOL0     H41397   5.749  11.182   5.541 -0.0617  0.2736 -1.3706
  300MOL0     H41398   5.928  11.090   5.576 -1.5706 -1.0553 -0.6244
  300MOL0     H41399   6.019  10.992   5.455  5.2059  2.0328 -0.1183
  300MOL0     H41400   6.068  11.153   5.480  0.8557 -1.0105 -0.3020
  301MOL0     O41401   6.154   1.004   2.963 -0.3751  0.6284 -0.1460
  301MOL0     C41402   6.039   0.966   2.962  0.1895 -0.5565 -0.6879
  301MOL0     O41403   5.984   0.878   2.870 -0.0678  0.0032 -0.2064
  301MOL0     C41404   6.049   0.853   2.753 -0.6665 -0.0550  0.3220
  301MOL0     C41405   6.018   0.730   2.685 -0.1001 -1.0247  0.1553
  301MOL0     C41406   6.067   0.708   2.557  0.5672 -0.6071  0.1095
  301MOL0     C41407   6.148   0.798   2.494  0.5885  0.5754  0.1296
  301MOL0     O41408   6.197   0.765   2.365  0.1078  0.3584  0.5304
  301MOL0     C41409   6.286   0.654   2.371  0.3482  0.3417 -0.0134
  301MOL0     C41410   6.252   0.576   2.236 -0.2429 -0.0202 -0.6073
  301MOL0     C41411   6.361   0.478   2.181  0.2475 -0.7220  0.2096
  301MOL0     C41412   6.349   0.442   2.030  0.4418  0.5393 -0.4666
  301MOL0     C41413   6.478   0.372   1.985 -0.1139 -0.6808  0.8800
  301MOL0     C41414   6.476   0.355   1.831 -0.0078  0.3099 -0.5343
  301MOL0     C41415   6.598   0.284   1.770  0.3627  0.2225  0.2154
  301MOL0     C41416   6.585   0.258   1.622  1.1414 -0.2622  0.5643
  301MOL0     N41417   6.612   0.379   1.533  0.2040 -0.2373  0.5733
  301MOL0     C41418   6.515   0.461   1.484  0.9769 -0.0198 -1.5807
  301MOL0     C41419   6.587   0.558   1.421  0.8847  0.4521 -0.3154
  301MOL0     C41420   6.532   0.669   1.342 -0.5674  0.3535 -0.4445
  301MOL0     C41421   6.624   0.728   1.237 -0.3371  0.2089  0.2304
  301MOL0     C41422   6.745   0.798   1.300 -0.3519  0.0813 -0.3115
  301MOL0     C41423   6.834   0.869   1.199 -0.0425 -0.5657 -0.5217
  301MOL0     O41424   6.942   0.939   1.268 -0.0989 -0.0610  0.5757
  301MOL0     C41425   7.064   0.887   1.297 -0.2883 -0.2247 -0.2816
  301MOL0     C41426   7.079   0.749   1.289 -1.6957 -0.5757 -0.3827
  301MOL0     C41427   7.192   0.683   1.349 -0.5086  0.3837  0.1291
  301MOL0     C41428   7.183   0.532   1.349  1.0461  0.3506  0.8549
  301MOL0     C41429   7.304   0.764   1.394  0.8881  0.3716 -0.6924
  301MOL0     C41430   7.430   0.709   1.443  0.1700  1.1106 -0.0860
  301MOL0     O41431   7.511   0.800   1.487 -0.1085 -0.8815 -0.0479
  301MOL0     C41432   7.642   0.771   1.533 -0.7966  0.1586  0.0645
  301MOL0     C41433   7.724   0.884   1.519 -0.7241 -0.5720 -1.2087
  301MOL0     C41434   7.855   0.886   1.579 -0.1738  0.4937 -0.5268
  301MOL0     C41435   7.899   0.774   1.661 -0.5025 -1.3678  0.2729
  301MOL0     O41436   8.022   0.771   1.721  0.7339 -0.1141 -0.7309
  301MOL0     C41437   8.122   0.879   1.689 -0.0465  0.3363  0.6887
  301MOL0     C41438   8.251   0.862   1.763 -0.2164  0.7050  1.0276
  301MOL0     C41439   8.310   0.722   1.735  0.0769  0.3801 -0.3485
  301MOL0     C41440   8.454   0.722   1.785 -0.3475  0.4601 -0.8279
  301MOL0     C41441   8.518   0.585   1.766  0.8061  1.0672 -0.0659
  301MOL0     C41442   8.542   0.555   1.618  0.7017 -0.4001 -0.7635
  301MOL0     C41443   8.604   0.417   1.595  0.1936 -0.9559 -0.2478
  301MOL0     C41444   8.654   0.396   1.451 -0.3083  0.0620  0.0123
  301MOL0    Cl41445   8.793   0.516   1.410 -0.0772  0.1041  0.0260
  301MOL0     C41446   7.810   0.667   1.674 -0.5835 -0.1649  0.0872
  301MOL0     C41447   7.685   0.666   1.611 -0.2561  0.4630 -0.2266
  301MOL0     O41448   7.436   0.585   1.464  0.0026 -0.6091 -0.0422
  301MOL0     C41449   7.286   0.901   1.382 -0.7512  0.0457 -0.1523
  301MOL0     C41450   7.173   0.966   1.343  0.1304 -0.1580  0.2204
  301MOL0     N41451   6.719   0.526   1.435  0.4025 -0.2706  0.3240
  301MOL0     N41452   6.738   0.427   1.507 -0.0324 -0.0476  0.1277
  301MOL0     C41453   6.172   0.920   2.553 -0.3272 -0.2906  0.0591
  301MOL0     C41454   6.116   0.951   2.679 -0.2196  0.6646 -0.3076
  301MOL0     C41455   5.947   1.018   3.071 -0.3368  0.5129  0.2334
  301MOL0     C41456   5.979   1.141   3.129 -0.9081 -0.1674  0.4478
  301MOL0     C41457   5.894   1.203   3.216 -0.3445  0.5438  0.5000
  301MOL0     C41458   5.778   1.134   3.253  0.2315  0.3170 -0.0129
  301MOL0     O41459   5.676   1.174   3.337  0.2140 -0.4016  0.0486
  301MOL0     C41460   5.686   1.313   3.393 -0.2356  0.2069  0.0168
  301MOL0     C41461   5.591   1.332   3.510 -0.6832 -0.6959 -0.4415
  301MOL0     C41462   5.639   1.422   3.626  0.1286  0.3102 -1.4088
  301MOL0     C41463   5.536   1.407   3.744 -0.1004  0.9620  0.0946
  301MOL0     C41464   5.569   1.489   3.864 -0.0987 -0.8728  0.1876
  301MOL0     C41465   5.579   1.546   3.974  0.8775  0.9743  0.0628
  301MOL0     C41466   5.751   1.011   3.201 -0.0628  0.5226 -0.1294
  301MOL0     C41467   5.836   0.942   3.120 -0.6112 -0.3500 -0.6854
  301MOL0     C41468   5.805   0.804   3.072 -0.1427  0.1958  0.1645
  301MOL0     H41469   5.948   0.660   2.730 -2.1405  0.7649 -0.0542
  301MOL0     H41470   6.031   0.616   2.512  0.5295 -0.2096 -0.7008
  301MOL0     H41471   6.274   0.581   2.452 -0.0244 -0.3711 -0.6967
  301MOL0     H41472   6.390   0.687   2.377  0.7126 -0.8833  0.8923
  301MOL0     H41473   6.157   0.522   2.239  0.3853 -1.1587 -0.9102
  301MOL0     H41474   6.243   0.652   2.157  1.2716  1.4854  0.5792
  301MOL0     H41475   6.458   0.529   2.179  0.1273 -0.5163 -0.9109
  301MOL0     H41476   6.374   0.393   2.249 -0.2458 -0.6787  0.3626
  301MOL0     H41477   6.258   0.381   2.022 -0.1936  1.7511 -3.5439
  301MOL0     H41478   6.324   0.532   1.973  1.5418  0.4533 -1.1023
  301MOL0     H41479   6.484   0.276   2.037  3.6670 -1.0769  0.0098
  301MOL0     H41480   6.561   0.441   2.000 -0.8112  0.4749 -0.3683
  301MOL0     H41481   6.381   0.312   1.798 -0.7958  2.3333 -1.0808
  301MOL0     H41482   6.469   0.450   1.776 -0.8858 -0.1206 -1.1827
  301MOL0     H41483   6.613   0.189   1.822  1.4138  2.0745  3.5526
  301MOL0     H41484   6.688   0.344   1.789  1.0128 -0.4730 -0.6010
  301MOL0     H41485   6.653   0.183   1.578  0.2349 -0.0743 -1.2636
  301MOL0     H41486   6.483   0.225   1.603  0.9859  1.0569 -1.2076
  301MOL0     H41487   6.406   0.455   1.487  0.9703 -1.5388 -2.9721
  301MOL0     H41488   6.494   0.745   1.411 -1.5072 -1.0369  0.6112
  301MOL0     H41489   6.444   0.641   1.282  0.7352  0.6480 -2.6117
  301MOL0     H41490   6.677   0.654   1.177  2.7635  1.7624  0.8578
  301MOL0     H41491   6.568   0.803   1.181 -0.1461 -0.5519 -1.0102
  301MOL0     H41492   6.717   0.868   1.380  1.0488 -0.0093  0.2913
  301MOL0     H41493   6.807   0.717   1.337  1.0610  0.7166 -1.2029
  301MOL0     H41494   6.871   0.789   1.135 -1.9097 -1.2990 -0.7691
  301MOL0     H41495   6.773   0.943   1.146 -4.9786 -1.3127  3.2869
  301MOL0     H41496   7.011   0.671   1.260  1.0221 -3.5275  0.6130
  301MOL0     H41497   7.076   0.510   1.342  0.2870  3.8611 -0.8257
  301MOL0     H41498   7.228   0.494   1.441 -0.4500  0.1356  1.5351
  301MOL0     H41499   7.227   0.482   1.262 -1.5709 -0.5582 -0.0676
  301MOL0     H41500   7.682   0.973   1.473 -1.6762 -0.4162 -0.0711
  301MOL0     H41501   7.911   0.978   1.569 -1.4367  1.2481 -0.8451
  301MOL0     H41502   8.145   0.863   1.583 -2.4730 -1.9177  0.4097
  301MOL0     H41503   8.086   0.980   1.710  0.3933  0.6355  0.0472
  301MOL0     H41504   8.323   0.935   1.725  0.6909 -1.1424 -1.0253
  301MOL0     H41505   8.239   0.879   1.870  0.9120  1.2113  1.0846
  301MOL0     H41506   8.301   0.709   1.627 -0.8507 -0.5041 -0.1803
  301MOL0     H41507   8.245   0.643   1.774  0.3706  0.1731 -0.2712
  301MOL0     H41508   8.454   0.751   1.890  0.7631 -1.0878 -0.3660
  301MOL0     H41509   8.514   0.797   1.733  1.9881 -0.0337  0.9894
  301MOL0     H41510   8.615   0.585   1.818 -0.5541  1.0587  2.6709
  301MOL0     H41511   8.454   0.506   1.804 -1.2156  3.1104  1.0183
  301MOL0     H41512   8.609   0.629   1.572  1.3117 -0.8839 -0.6612
  301MOL0     H41513   8.451   0.561   1.558  0.8347  3.4432 -0.8873
  301MOL0     H41514   8.526   0.345   1.618 -0.0561 -0.2963  1.0508
  301MOL0     H41515   8.683   0.396   1.668  0.8417 -2.1785 -1.2645
  301MOL0     H41516   8.570   0.395   1.381 -1.0035 -2.4457  0.7999
  301MOL0     H41517   8.702   0.298   1.448  0.1349  0.3059 -1.6323
  301MOL0     H41518   7.837   0.578   1.730  2.7602  0.7397  0.1061
  301MOL0     H41519   7.623   0.578   1.628  0.5042 -0.3226 -1.3277
  301MOL0     H41520   7.354   0.975   1.423 -2.2377  1.2421  0.2281
  301MOL0     H41521   7.160   1.074   1.340  0.1525 -0.1527  0.3486
  301MOL0     H41522   6.229   0.992   2.495 -0.4332 -1.6143 -1.8205
  301MOL0     H41523   6.132   1.047   2.727 -1.9725  0.9323 -0.1971
  301MOL0     H41524   6.064   1.203   3.102 -2.1972  0.9649 -1.2434
  301MOL0     H41525   5.917   1.301   3.255  0.1920  0.7229 -0.2441
  301MOL0     H41526   5.787   1.333   3.428 -1.4714  3.0389  2.4310
  301MOL0     H41527   5.668   1.388   3.314 -2.1548 -0.0680  0.1330
  301MOL0     H41528   5.569   1.236   3.556 -1.8204  0.1361  0.8339
  301MOL0     H41529   5.497   1.381   3.482  0.5366  2.8691  1.0488
  301MOL0     H41530   5.740   1.393   3.656  0.3737  0.9357 -1.6114
  301MOL0     H41531   5.648   1.524   3.589  1.9992  0.5614 -0.4062
  301MOL0     H41532   5.547   1.305   3.782 -2.4456 -0.4893 -2.6678
  301MOL0     H41533   5.431   1.418   3.717 -0.5262 -0.8628  0.8482
  301MOL0     H41534   5.596   1.585   4.073  0.0309  0.6580  0.3398
  301MOL0     H41535   5.655   0.968   3.228  0.3346  0.4289  1.2204
  301MOL0     H41536   5.756   0.744   3.149 -0.5911  1.7830  1.1613
  301MOL0     H41537   5.736   0.802   2.987 -0.1604  0.0740  0.1809
  301MOL0     H41538   5.897   0.750   3.048 -0.7325 -0.9154  0.3263
  302MOL0     O41539   5.987   5.690   9.906 -0.0949  1.4599  0.3793
  302MOL0     C41540   6.064   5.699   9.813 -0.8220  0.4830  0.7547
  302MOL0     O41541   6.026   5.678   9.678 -0.0767 -0.5366  0.3264
  302MOL0     C41542   5.892   5.650   9.654 -0.2195 -1.0592 -0.3916
  302MOL0     C41543   5.853   5.530   9.599 -0.6111  0.0366  0.4958
  302MOL0     C41544   5.718   5.497   9.568  0.3576 -0.8456 -0.6755
  302MOL0     C41545   5.620   5.602   9.581 -0.8776  0.2894 -0.1831
  302MOL0     O41546   5.489   5.579   9.557  0.3656  0.5586 -0.4232
  302MOL0     C41547   5.458   5.479   9.455  0.7133 -0.2318 -0.4472
  302MOL0     C41548   5.350   5.531   9.364 -0.1182 -0.3797  0.8390
  302MOL0     C41549   5.208   5.534   9.424 -0.0710  1.0601  0.1600
  302MOL0     C41550   5.141   5.393   9.394 -0.8571 -0.0793 -0.2903
  302MOL0     C41551   5.000   5.389   9.448 -0.6108 -1.0344  0.9586
  302MOL0     C41552   4.936   5.250   9.417  0.0657 -0.2884 -0.1385
  302MOL0     C41553   4.803   5.244   9.484  0.3755 -0.4162 -0.3850
  302MOL0     C41554   4.717   5.129   9.436 -0.0876  0.4269  0.7454
  302MOL0     N41555   4.784   4.997   9.460 -0.5720 -0.9294 -0.8094
  302MOL0     C41556   4.803   4.943   9.588  0.4222  1.0022  0.2065
  302MOL0     C41557   4.853   4.818   9.570 -0.0671 -0.5953 -0.6622
  302MOL0     C41558   4.888   4.711   9.672 -0.1874  0.0135  0.0561
  302MOL0     C41559   5.021   4.725   9.744  0.1979 -0.5738  0.0215
  302MOL0     C41560   5.128   4.779   9.657  0.9413 -0.5259  0.4624
  302MOL0     C41561   5.261   4.781   9.729  0.4928 -0.2430  0.1635
  302MOL0     O41562   5.248   4.818   9.870  0.1082 -0.1660 -0.1021
  302MOL0     C41563   5.363   4.822   9.952  0.4255 -0.2365 -0.4545
  302MOL0     C41564   5.329   4.884  10.070  0.3538 -0.5925  0.3438
  302MOL0     C41565   5.422   4.873  10.174 -0.5502  0.2363 -0.5914
  302MOL0     C41566   5.385   4.926  10.307 -0.7043  0.6211 -0.4796
  302MOL0     C41567   5.553   4.827  10.148  0.3039 -0.6370 -0.5668
  302MOL0     C41568   5.648   4.800  10.258  0.8541 -0.4600 -0.3399
  302MOL0     O41569   5.606   4.749  10.381 -0.5477  0.5997  0.4868
  302MOL0     C41570   5.697   4.720  10.480  0.8085 -0.1706 -0.1222
  302MOL0     C41571   5.648   4.729  10.612 -0.0691 -1.3225  0.4542
  302MOL0     C41572   5.740   4.690  10.715  1.1681 -0.0602  0.4405
  302MOL0     C41573   5.867   4.643  10.690 -0.0561 -0.2575 -0.0788
  302MOL0     O41574   5.951   4.616  10.789 -0.6686 -0.7450 -0.2134
  302MOL0     C41575   5.936   4.480  10.820 -0.0694  0.6337  0.3557
  302MOL0     C41576   6.065   4.428  10.887  0.2183 -0.0590  0.0576
  302MOL0     C41577   6.185   4.409  10.791  1.0289 -0.3429 -0.6204
  302MOL0     C41578   6.313   4.379  10.871 -0.4256  0.1731 -0.2248
  302MOL0     C41579   6.445   4.341  10.795 -0.2785 -0.1224  0.2521
  302MOL0     C41580   6.556   4.292  10.885  0.4280  0.9552 -0.2713
  302MOL0     C41581   6.694   4.256  10.828  0.1454  0.3020 -0.1111
  302MOL0     C41582   6.692   4.166  10.700  0.2503 -0.2474 -1.0357
  302MOL0    Cl41583   6.843   4.064  10.687  0.2762 -0.1006 -0.2396
  302MOL0     C41584   5.915   4.637  10.559 -0.1109  0.2182 -0.2736
  302MOL0     C41585   5.825   4.671  10.460 -0.6411  0.2125  0.1773
  302MOL0     O41586   5.763   4.831  10.228 -1.0839  0.6774 -0.0941
  302MOL0     C41587   5.590   4.790  10.021  0.1595 -0.1201 -0.5719
  302MOL0     C41588   5.497   4.780   9.918  0.0028  0.5332  0.1195
  302MOL0     N41589   4.876   4.811   9.434  0.1532 -0.4835  0.0258
  302MOL0     N41590   4.832   4.913   9.371  0.1662 -0.5899  0.3174
  302MOL0     C41591   5.658   5.715   9.644  0.3200 -0.3127  0.5173
  302MOL0     C41592   5.791   5.743   9.676  0.1914  0.0099 -0.1579
  302MOL0     C41593   6.209   5.716   9.842 -1.4771  0.7165  0.2091
  302MOL0     C41594   6.287   5.595   9.814  0.5828 -0.1552  0.1215
  302MOL0     C41595   6.424   5.598   9.830 -0.7267 -0.2243  0.9346
  302MOL0     C41596   6.487   5.714   9.873  0.2980  0.9170 -0.2488
  302MOL0     O41597   6.623   5.726   9.884  0.3428 -0.9000  0.2387
  302MOL0     C41598   6.713   5.626   9.838  0.0816  0.0661  0.6760
  302MOL0     C41599   6.852   5.646   9.907 -0.6123 -0.4778 -0.0887
  302MOL0     C41600   6.963   5.557   9.838  0.0115  0.2033 -0.1419
  302MOL0     C41601   7.073   5.637   9.768 -0.1584 -0.6592 -0.0685
  302MOL0     C41602   7.145   5.698   9.878 -0.0915  0.0125  0.5245
  302MOL0     C41603   7.184   5.766   9.965 -0.3458  0.7183 -1.0585
  302MOL0     C41604   6.411   5.818   9.924 -0.1764  0.3571 -0.5542
  302MOL0     C41605   6.272   5.828   9.905 -0.4718 -0.3552  0.1345
  302MOL0     C41606   6.201   5.959   9.920  0.2013  0.3158 -0.5293
  302MOL0     H41607   5.930   5.454   9.592  0.9309  1.6445 -1.8263
  302MOL0     H41608   5.692   5.395   9.542 -1.0128 -0.5022 -0.7023
  302MOL0     H41609   5.431   5.386   9.506  1.1159  0.8594  1.8738
  302MOL0     H41610   5.547   5.473   9.391  0.9176  0.0020 -0.1852
  302MOL0     H41611   5.374   5.630   9.325  2.4685 -2.1760 -2.7902
  302MOL0     H41612   5.358   5.470   9.274 -2.9662  0.5298 -0.1368
  302MOL0     H41613   5.207   5.553   9.532 -0.2719  1.5334  0.0767
  302MOL0     H41614   5.152   5.617   9.381  0.7795  1.4585 -0.1973
  302MOL0     H41615   5.139   5.370   9.287  1.1471  0.9036 -0.5803
  302MOL0     H41616   5.201   5.318   9.447  0.3702  2.2500  1.8842
  302MOL0     H41617   4.941   5.458   9.386  2.0820  1.4560  0.9466
  302MOL0     H41618   4.996   5.425   9.551  2.4345  1.1766  0.4245
  302MOL0     H41619   4.924   5.236   9.309 -0.5095  2.1471 -0.4420
  302MOL0     H41620   4.994   5.161   9.446  0.2533  0.3183  1.4208
  302MOL0     H41621   4.751   5.339   9.470  2.7678  0.6441 -2.9284
  302MOL0     H41622   4.823   5.229   9.591  1.3403  0.2083 -0.4733
  302MOL0     H41623   4.623   5.133   9.493  0.5650  0.3460  1.8700
  302MOL0     H41624   4.691   5.137   9.330 -1.9427 -0.3435  1.1053
  302MOL0     H41625   4.765   4.983   9.682 -3.1961 -2.6342  0.5644
  302MOL0     H41626   4.879   4.615   9.619 -2.4084  0.2362 -0.0756
  302MOL0     H41627   4.802   4.702   9.740 -1.0536 -0.7598 -1.0905
  302MOL0     H41628   5.009   4.794   9.827 -2.6677 -0.5891 -0.2752
  302MOL0     H41629   5.043   4.626   9.785 -1.1948 -0.1661  1.8636
  302MOL0     H41630   5.130   4.728   9.560  0.2041 -1.5542  0.9731
  302MOL0     H41631   5.113   4.884   9.631 -3.4772 -0.7754  1.3549
  302MOL0     H41632   5.310   4.684   9.725 -0.0687 -0.5055 -1.9486
  302MOL0     H41633   5.326   4.853   9.679  2.4606 -2.5501 -0.7989
  302MOL0     H41634   5.237   4.941  10.078  1.6631  1.4437  2.5384
  302MOL0     H41635   5.291   4.979  10.291 -0.0023  1.2659 -3.1170
  302MOL0     H41636   5.461   4.998  10.341 -3.0660  3.2494 -0.4261
  302MOL0     H41637   5.364   4.848  10.381  1.4963  1.3365  0.9987
  302MOL0     H41638   5.556   4.773  10.647 -0.1028 -1.8687  1.0809
  302MOL0     H41639   5.723   4.714  10.820 -0.8113  2.4696 -0.3424
  302MOL0     H41640   5.863   4.477  10.901  0.9919  1.7974  1.3865
  302MOL0     H41641   5.902   4.407  10.746 -1.0075 -0.3615  1.7195
  302MOL0     H41642   6.087   4.490  10.975 -0.4832 -1.0300  0.9258
  302MOL0     H41643   6.036   4.334  10.934  1.1993  0.5992  2.1317
  302MOL0     H41644   6.198   4.501  10.733 -1.2143 -1.3254 -2.8793
  302MOL0     H41645   6.164   4.335  10.713 -0.5847 -0.0355 -0.5232
  302MOL0     H41646   6.291   4.295  10.937  0.0071  1.1711  1.2383
  302MOL0     H41647   6.338   4.466  10.933 -0.1370  1.6432 -2.2720
  302MOL0     H41648   6.422   4.259  10.726 -0.1995 -1.6294  1.9460
  302MOL0     H41649   6.477   4.429  10.740  0.7760 -0.7600 -0.1871
  302MOL0     H41650   6.508   4.209  10.938  1.3813  0.5444 -0.0245
  302MOL0     H41651   6.575   4.378  10.951 -0.7005  0.4671  0.7351
  302MOL0     H41652   6.745   4.202  10.909  0.0796  2.2448  1.2882
  302MOL0     H41653   6.761   4.339  10.804  1.0565 -0.4328 -0.2080
  302MOL0     H41654   6.673   4.225  10.609 -2.4421 -0.0862 -0.4589
  302MOL0     H41655   6.604   4.100  10.706 -2.4851  3.2339  2.8820
  302MOL0     H41656   6.018   4.608  10.542 -0.0519 -0.3620  0.9986
  302MOL0     H41657   5.858   4.650  10.359  0.9532 -2.9572  1.2217
  302MOL0     H41658   5.693   4.771   9.994 -0.2133  0.3258 -2.4397
  302MOL0     H41659   5.529   4.748   9.819  3.0401 -0.8390  1.4075
  302MOL0     H41660   5.582   5.789   9.665 -0.2849 -0.7558 -0.0397
  302MOL0     H41661   5.797   5.847   9.706 -3.3292  0.8294 -1.7362
  302MOL0     H41662   6.242   5.509   9.766  0.4832  1.2726 -2.5109
  302MOL0     H41663   6.479   5.514   9.788 -1.1887  0.0355 -0.2194
  302MOL0     H41664   6.679   5.522   9.848 -4.8244  0.9398 -3.2315
  302MOL0     H41665   6.720   5.637   9.729 -2.0135  2.9252  0.7269
  302MOL0     H41666   6.845   5.614  10.012 -2.3005  1.4175  0.4293
  302MOL0     H41667   6.895   5.747   9.902  1.4194 -1.2016  1.2896
  302MOL0     H41668   7.003   5.481   9.906  0.2919 -0.1601 -0.7079
  302MOL0     H41669   6.918   5.495   9.760  1.8555  0.4491 -1.4654
  302MOL0     H41670   7.030   5.715   9.706 -0.9273 -0.9578  0.0727
  302MOL0     H41671   7.145   5.574   9.715  1.5627  1.3835 -0.2970
  302MOL0     H41672   7.225   5.823  10.047  2.1418  0.3231 -1.9400
  302MOL0     H41673   6.458   5.908   9.963 -1.6755  0.9296  0.0096
  302MOL0     H41674   6.167   6.004   9.826  1.0639  2.1854 -0.0059
  302MOL0     H41675   6.114   5.930   9.979  1.9203 -2.3642  0.8642
  302MOL0     H41676   6.257   6.032   9.979  1.2603 -0.5216 -0.4681
  303MOL0     O41677   9.568   3.211   4.979  0.4152 -0.3209 -0.3639
  303MOL0     C41678   9.506   3.138   5.057  0.1003  0.0522  0.5297
  303MOL0     O41679   9.559   3.068   5.157 -0.6385 -0.1158 -0.1761
  303MOL0     C41680   9.696   3.071   5.172 -0.4039 -0.1981  1.3440
  303MOL0     C41681   9.765   2.951   5.189 -0.1738  0.6327  0.3270
  303MOL0     C41682   9.902   2.953   5.196  0.4484 -0.8504 -0.3261
  303MOL0     C41683   9.972   3.074   5.192  0.4368 -0.1430  0.7888
  303MOL0     O41684  10.108   3.093   5.188 -0.0898 -0.2758 -0.0965
  303MOL0     C41685  10.197   2.978   5.217  0.0972 -0.9471  0.0815
  303MOL0     C41686  10.335   3.034   5.255 -0.2860  0.0353  1.0441
  303MOL0     C41687  10.447   2.929   5.246 -0.6896  0.5148  0.0522
  303MOL0     C41688  10.547   2.958   5.359 -0.5715  0.7202  0.8272
  303MOL0     C41689  10.682   2.888   5.345 -0.6406 -0.2436  0.3163
  303MOL0     C41690  10.692   2.759   5.415 -0.2103 -0.4457 -0.0160
  303MOL0     C41691  10.829   2.686   5.401  0.0217 -0.1311  0.5644
  303MOL0     C41692  10.933   2.761   5.479  0.3485  0.0710  0.0164
  303MOL0     N41693  11.067   2.711   5.441 -0.4074  0.0641 -0.3224
  303MOL0     C41694  11.131   2.734   5.325  0.8426 -0.0268  0.0113
  303MOL0     C41695  11.254   2.674   5.337  0.2209 -0.4257 -0.9843
  303MOL0     C41696  11.363   2.652   5.240  0.3893 -0.5361 -0.5006
  303MOL0     C41697  11.401   2.515   5.214 -0.1053  0.9324  0.3111
  303MOL0     C41698  11.272   2.423   5.183  0.5417 -0.9005  0.2816
  303MOL0     C41699  11.196   2.468   5.061 -0.0838 -1.0721 -0.4235
  303MOL0     O41700  11.078   2.394   5.056  0.2366  0.1006 -0.2721
  303MOL0     C41701  10.964   2.448   5.018  0.2442  0.2243  0.3630
  303MOL0     C41702  10.931   2.487   4.889  0.5295  0.0086  0.1648
  303MOL0     C41703  10.808   2.552   4.860  0.1991 -0.7740  0.7853
  303MOL0     C41704  10.778   2.575   4.711 -0.2222 -0.4100 -0.3813
  303MOL0     C41705  10.710   2.579   4.964  0.0754  0.7801 -0.0965
  303MOL0     C41706  10.594   2.678   4.955  0.9539 -0.2480 -0.0883
  303MOL0     O41707  10.578   2.756   4.844  0.0770  0.6601  0.4950
  303MOL0     C41708  10.465   2.832   4.840  0.2575 -0.3289 -0.3151
  303MOL0     C41709  10.354   2.797   4.768  0.3761  1.0932  0.1271
  303MOL0     C41710  10.240   2.876   4.766 -0.0479 -0.2329 -0.1995
  303MOL0     C41711  10.232   3.003   4.833  0.0423  0.5011  0.0357
  303MOL0     O41712  10.134   3.098   4.818  0.3513  0.4102  0.3596
  303MOL0     C41713  10.016   3.068   4.738  0.2153  0.0256  0.6749
  303MOL0     C41714   9.906   3.009   4.824  0.0875 -0.4814 -0.0483
  303MOL0     C41715   9.816   2.920   4.740 -0.4535  0.3427 -0.8858
  303MOL0     C41716   9.725   2.994   4.641 -0.2419 -0.7741 -0.4020
  303MOL0     C41717   9.662   2.889   4.556  0.1173 -0.0055 -0.1677
  303MOL0     C41718   9.531   2.945   4.502 -0.4569 -0.1144  0.1202
  303MOL0     C41719   9.475   2.863   4.387 -0.8682 -0.1691 -0.2296
  303MOL0     C41720   9.340   2.917   4.340 -0.2401 -0.0231  0.5500
  303MOL0    Cl41721   9.248   2.793   4.255  0.3590  0.0944 -0.0208
  303MOL0     C41722  10.354   3.046   4.895  0.1218  0.5696  1.1152
  303MOL0     C41723  10.472   2.965   4.887  0.2615  0.7356  0.5675
  303MOL0     O41724  10.512   2.680   5.048  0.0668  0.3280 -0.3836
  303MOL0     C41725  10.749   2.529   5.095  0.7890  1.5478  0.2552
  303MOL0     C41726  10.867   2.462   5.117  0.0936 -0.3646 -0.3764
  303MOL0     N41727  11.258   2.616   5.466  0.3039 -0.8272  0.3473
  303MOL0     N41728  11.143   2.637   5.525 -0.8433  0.6496 -0.4012
  303MOL0     C41729   9.915   3.200   5.178 -0.3526  0.0021 -0.8991
  303MOL0     C41730   9.773   3.192   5.173 -0.0282  0.0697 -0.6906
  303MOL0     C41731   9.361   3.164   5.053 -0.5498  0.8110 -0.2829
  303MOL0     C41732   9.295   3.162   5.179 -0.0989 -0.1716  0.8703
  303MOL0     C41733   9.157   3.175   5.181 -0.1808 -0.6976  0.5325
  303MOL0     C41734   9.083   3.173   5.062 -0.0433 -0.4402  1.1792
  303MOL0     O41735   8.942   3.182   5.074 -0.2307 -0.4181  0.0208
  303MOL0     C41736   8.858   3.214   4.961 -0.0792 -0.0569 -0.0826
  303MOL0     C41737   8.725   3.265   5.003  0.6932  0.1509 -0.2425
  303MOL0     C41738   8.652   3.320   4.876 -0.4605  0.7210 -0.0038
  303MOL0     C41739   8.620   3.209   4.778  0.6456 -0.8098  0.3834
  303MOL0     C41740   8.505   3.242   4.689  0.8157  0.4621  0.4965
  303MOL0     C41741   8.412   3.255   4.617 -0.3154  0.3947  0.1245
  303MOL0     C41742   9.145   3.160   4.939 -0.3337 -0.4365  0.5247
  303MOL0     C41743   9.287   3.153   4.935 -0.1071 -0.6656  0.0002
  303MOL0     C41744   9.343   3.133   4.802 -0.3757  0.5685  0.7737
  303MOL0     H41745   9.708   2.859   5.201  0.9883 -0.1137  0.2665
  303MOL0     H41746   9.951   2.862   5.229  1.1285  0.0363  1.2362
  303MOL0     H41747  10.200   2.914   5.128  0.6204 -0.5960 -0.1544
  303MOL0     H41748  10.164   2.907   5.294  0.9632 -3.6883 -1.8936
  303MOL0     H41749  10.366   3.116   5.190  1.4397  0.6162  2.5286
  303MOL0     H41750  10.317   3.064   5.359  0.1407 -1.5826  1.6014
  303MOL0     H41751  10.413   2.826   5.262  0.3368  0.0307 -0.7497
  303MOL0     H41752  10.495   2.941   5.148  0.3798  2.6271  0.7709
  303MOL0     H41753  10.573   3.064   5.353  1.1737  0.2528 -1.6436
  303MOL0     H41754  10.500   2.943   5.456  0.5428 -2.6160  0.9733
  303MOL0     H41755  10.753   2.955   5.396  0.2208  0.3286 -1.5622
  303MOL0     H41756  10.710   2.873   5.241  2.6910 -0.1839  1.0731
  303MOL0     H41757  10.664   2.776   5.520 -0.4505  1.4338 -0.3560
  303MOL0     H41758  10.614   2.698   5.370 -0.0437 -0.6799  0.0104
  303MOL0     H41759  10.868   2.695   5.299 -1.4211  0.6761  0.0633
  303MOL0     H41760  10.812   2.583   5.435 -0.6008 -0.3656 -0.4213
  303MOL0     H41761  10.931   2.868   5.457 -0.6367  0.4785  1.8393
  303MOL0     H41762  10.910   2.751   5.586 -0.9021 -2.0215 -0.3848
  303MOL0     H41763  11.081   2.780   5.241 -1.4975 -0.1193  1.2753
  303MOL0     H41764  11.453   2.707   5.268  2.7293 -2.7235 -3.0805
  303MOL0     H41765  11.321   2.698   5.150  1.1905  0.9938 -0.1100
  303MOL0     H41766  11.468   2.517   5.128 -0.5670  2.7665 -0.0332
  303MOL0     H41767  11.448   2.469   5.302 -0.0154 -1.5006 -0.9331
  303MOL0     H41768  11.298   2.318   5.166  0.6896 -0.6058 -1.5269
  303MOL0     H41769  11.202   2.429   5.267 -1.4961 -0.7322 -1.3392
  303MOL0     H41770  11.175   2.574   5.073  0.2847 -1.3363  5.6620
  303MOL0     H41771  11.257   2.465   4.970 -0.5533  1.5443 -0.8933
  303MOL0     H41772  10.989   2.463   4.801  0.7049 -2.7107  0.9432
  303MOL0     H41773  10.843   2.506   4.657  1.6424  1.9107 -1.2615
  303MOL0     H41774  10.811   2.676   4.688  2.4366 -1.3821 -1.1787
  303MOL0     H41775  10.671   2.566   4.691 -0.7199 -0.0430  1.7801
  303MOL0     H41776  10.337   2.698   4.727 -2.8313  0.9078  1.5495
  303MOL0     H41777  10.160   2.834   4.706  1.1969 -1.1085 -1.2925
  303MOL0     H41778   9.977   3.156   4.688 -1.3976 -0.3037  1.3024
  303MOL0     H41779  10.043   2.990   4.666  0.0927 -0.0041  0.6614
  303MOL0     H41780   9.948   2.960   4.913  0.1933  1.3000  0.9249
  303MOL0     H41781   9.846   3.087   4.872 -1.0768 -0.0505 -2.1151
  303MOL0     H41782   9.752   2.872   4.814  1.2249  0.6292  0.8261
  303MOL0     H41783   9.873   2.844   4.686 -2.0381 -1.1355 -0.5394
  303MOL0     H41784   9.767   3.070   4.573 -2.4472 -0.5884 -1.6447
  303MOL0     H41785   9.646   3.058   4.683  0.1342 -1.2056  1.0146
  303MOL0     H41786   9.728   2.838   4.485 -1.7505  0.4544 -2.3364
  303MOL0     H41787   9.631   2.809   4.624  1.2370 -1.0033 -0.7868
  303MOL0     H41788   9.545   3.047   4.464 -2.5118  0.3070  0.3551
  303MOL0     H41789   9.457   2.952   4.583  0.2158 -0.2750  0.7616
  303MOL0     H41790   9.476   2.761   4.426 -0.9145  0.0004  0.2295
  303MOL0     H41791   9.546   2.873   4.305 -1.0541 -0.3394 -0.4108
  303MOL0     H41792   9.352   3.002   4.273 -0.5607 -0.1401  0.3432
  303MOL0     H41793   9.278   2.955   4.422 -3.7251 -0.1874 -1.7954
  303MOL0     H41794  10.357   3.145   4.939 -1.0679  0.4357  1.5194
  303MOL0     H41795  10.560   3.010   4.933 -0.5563 -0.2236  3.2391
  303MOL0     H41796  10.685   2.551   5.180  2.5875  0.3445  2.0013
  303MOL0     H41797  10.903   2.434   5.215  1.2718  0.0989 -0.6703
  303MOL0     H41798   9.970   3.293   5.183 -1.0509  0.3801  0.2492
  303MOL0     H41799   9.723   3.288   5.157  1.2139  0.8019 -0.2876
  303MOL0     H41800   9.324   3.126   5.277  1.2741  0.8158  0.8573
  303MOL0     H41801   9.096   3.166   5.270  1.7308 -2.9809  1.7341
  303MOL0     H41802   8.907   3.290   4.899 -0.6374 -0.6910 -1.3287
  303MOL0     H41803   8.846   3.134   4.887 -0.3122  1.2965 -1.5665
  303MOL0     H41804   8.736   3.341   5.080  3.2925  1.2697 -1.6003
  303MOL0     H41805   8.668   3.182   5.047 -0.8093  0.7295 -1.0125
  303MOL0     H41806   8.557   3.362   4.911 -1.4126 -2.6260  1.8354
  303MOL0     H41807   8.715   3.401   4.837  0.2085  1.2902  2.1447
  303MOL0     H41808   8.581   3.119   4.826 -3.4589  0.5672  0.0104
  303MOL0     H41809   8.706   3.175   4.719 -0.1546 -0.9082 -0.7476
  303MOL0     H41810   8.326   3.278   4.558 -1.8386  0.1332  2.1219
  303MOL0     H41811   9.090   3.163   4.846  1.5781  0.8239 -0.6412
  303MOL0     H41812   9.261   3.128   4.730 -0.6011 -0.1170  1.0643
  303MOL0     H41813   9.417   3.208   4.775 -0.5344  1.8663  3.5318
  303MOL0     H41814   9.388   3.034   4.791 -1.9738 -0.3716  2.1589
  304MOL0     O41815  11.386   6.907  11.137 -0.2754  0.2054 -0.3076
  304MOL0     C41816  11.364   6.944  11.258 -0.0350 -1.2980  0.2031
  304MOL0     O41817  11.413   6.883  11.370  0.1093  0.3917 -0.4064
  304MOL0     C41818  11.529   6.818  11.360  0.8224  0.6870  0.0005
  304MOL0     C41819  11.536   6.698  11.433 -0.8733 -0.0853 -1.6832
  304MOL0     C41820  11.655   6.624  11.435 -0.5531  1.4892  0.5613
  304MOL0     C41821  11.775   6.677  11.376 -0.5202  0.0790  0.0560
  304MOL0     O41822  11.904   6.617  11.386 -0.2147 -0.6724  0.3270
  304MOL0     C41823  11.930   6.553  11.514 -0.7815 -0.1585 -0.4215
  304MOL0     C41824  12.078   6.494  11.523 -0.2596 -0.3009 -0.6181
  304MOL0     C41825  12.190   6.603  11.507  0.4887 -0.6074  0.8220
  304MOL0     C41826  12.321   6.562  11.561  0.6087  0.1488  0.1466
  304MOL0     C41827  12.442   6.660  11.548 -0.5793 -0.2243 -0.0744
  304MOL0     C41828  12.408   6.806  11.576 -0.0584 -0.7738 -0.5327
  304MOL0     C41829  12.346   6.827  11.717 -0.7749  0.5699 -0.5634
  304MOL0     C41830  12.437   6.783  11.832  0.5187  0.3329 -0.2606
  304MOL0     N41831  12.564   6.857  11.832 -0.6226  0.5404  0.8957
  304MOL0     C41832  12.578   6.985  11.860 -0.5977  0.7149 -0.0669
  304MOL0     C41833  12.703   7.021  11.843 -0.3198  0.8355  0.6182
  304MOL0     C41834  12.737   7.165  11.866 -0.3682  0.8928 -0.4100
  304MOL0     C41835  12.885   7.203  11.861  0.0590  0.0748  0.2624
  304MOL0     C41836  12.949   7.207  11.720 -0.0832 -0.1070 -0.2142
  304MOL0     C41837  13.102   7.206  11.729  0.3490  0.5753  0.2299
  304MOL0     O41838  13.146   7.077  11.774 -0.5235 -0.2838 -0.7513
  304MOL0     C41839  13.279   7.052  11.800 -0.4878  0.0291 -0.3165
  304MOL0     C41840  13.388   7.143  11.787 -0.3871  0.5510 -0.2500
  304MOL0     C41841  13.520   7.110  11.819 -0.4809  0.2821 -0.3663
  304MOL0     C41842  13.621   7.215  11.791  0.0234  0.0401  0.9087
  304MOL0     C41843  13.547   6.973  11.865 -0.9025 -0.2951  0.3640
  304MOL0     C41844  13.688   6.932  11.896  0.7891 -0.3856 -0.5622
  304MOL0     O41845  13.699   6.810  11.965  0.2324  0.0817 -0.1506
  304MOL0     C41846  13.821   6.767  12.013 -0.1088  0.5572  0.1666
  304MOL0     C41847  13.937   6.838  12.034 -0.3427 -1.0779  0.6431
  304MOL0     C41848  14.059   6.782  12.067 -0.3914  0.5282  0.3316
  304MOL0     C41849  14.071   6.640  12.090  0.3582  0.3687  0.0074
  304MOL0     O41850  14.191   6.597  12.138 -0.2561  0.0204 -0.1646
  304MOL0     C41851  14.226   6.452  12.119 -0.5365 -0.9084  0.1301
  304MOL0     C41852  14.372   6.421  12.168 -0.0988  0.9118  0.2992
  304MOL0     C41853  14.483   6.505  12.099  0.6769 -0.9188  0.1834
  304MOL0     C41854  14.631   6.482  12.129  1.3592  0.0556  0.1004
  304MOL0     C41855  14.720   6.561  12.046  0.3218 -0.1091  0.6050
  304MOL0     C41856  14.862   6.565  12.112 -0.1938 -0.6622  0.6866
  304MOL0     C41857  14.921   6.431  12.163  0.3107 -0.4720  0.2675
  304MOL0     C41858  15.048   6.467  12.237 -1.0614  0.2042 -0.8199
  304MOL0    Cl41859  15.037   6.590  12.371  0.2392 -0.3554  0.0348
  304MOL0     C41860  13.957   6.562  12.060  0.0487 -0.0115 -0.6891
  304MOL0     C41861  13.835   6.625  12.024 -0.2663  0.3784 -0.1923
  304MOL0     O41862  13.778   6.990  11.845  0.1866  0.0306 -0.0886
  304MOL0     C41863  13.435   6.885  11.877  0.3361 -0.0634  0.3756
  304MOL0     C41864  13.310   6.920  11.828  0.0812  0.1500  0.1828
  304MOL0     N41865  12.774   6.907  11.802 -0.2817 -0.0686  0.2207
  304MOL0     N41866  12.691   6.810  11.797  0.4259 -0.7012 -0.0161
  304MOL0     C41867  11.763   6.796  11.302 -0.0966 -0.4529  0.8140
  304MOL0     C41868  11.645   6.868  11.301  0.9704 -0.5249  0.6591
  304MOL0     C41869  11.247   7.034  11.283  0.5201 -0.0971 -0.7177
  304MOL0     C41870  11.179   7.010  11.405 -0.2006 -0.5924 -0.6451
  304MOL0     C41871  11.049   7.065  11.419 -0.5021  0.6886  0.0855
  304MOL0     C41872  10.997   7.149  11.318 -0.8344  0.3777  0.2291
  304MOL0     O41873  10.865   7.199  11.325 -0.4874 -0.3222 -1.1142
  304MOL0     C41874  10.808   7.230  11.460  0.9988 -0.2516 -0.2356
  304MOL0     C41875  10.893   7.323  11.535  0.0803  0.1840 -0.5096
  304MOL0     C41876  10.834   7.356  11.673 -0.4150 -0.3275  0.2324
  304MOL0     C41877  10.941   7.435  11.754 -0.4569  0.1520  0.7001
  304MOL0     C41878  10.872   7.484  11.873 -0.3787  0.4303 -0.3959
  304MOL0     C41879  10.809   7.513  11.975 -0.1281  0.1482 -0.2247
  304MOL0     C41880  11.076   7.182  11.203  0.4019 -0.7474 -0.5781
  304MOL0     C41881  11.203   7.132  11.196 -0.5648 -0.1880  0.8027
  304MOL0     C41882  11.294   7.164  11.079 -0.9089  0.6597 -0.0748
  304MOL0     H41883  11.448   6.666  11.487  0.5277  1.2710  1.7487
  304MOL0     H41884  11.657   6.523  11.476 -0.1687  2.1521  2.2518
  304MOL0     H41885  11.867   6.463  11.514  1.1930 -1.6044 -0.0387
  304MOL0     H41886  11.921   6.611  11.607  0.7864 -1.8533  0.8733
  304MOL0     H41887  12.081   6.436  11.616 -1.2801  0.0664 -0.3338
  304MOL0     H41888  12.090   6.416  11.448  1.0068 -0.5579 -0.1655
  304MOL0     H41889  12.203   6.629  11.401 -2.0173  0.4033  0.6907
  304MOL0     H41890  12.154   6.699  11.546 -2.8159  0.5396 -4.0399
  304MOL0     H41891  12.315   6.569  11.670  0.5820  1.7841  0.0622
  304MOL0     H41892  12.344   6.464  11.517  0.2940  1.0643 -2.1632
  304MOL0     H41893  12.469   6.660  11.442 -1.5669 -0.3854 -0.3397
  304MOL0     H41894  12.528   6.631  11.610  0.9785  0.8509 -1.6370
  304MOL0     H41895  12.498   6.867  11.561 -0.5616  0.0547 -0.2753
  304MOL0     H41896  12.341   6.847  11.500  2.2805  2.8471 -0.8915
  304MOL0     H41897  12.250   6.774  11.720 -0.9052  0.8175  2.9192
  304MOL0     H41898  12.310   6.929  11.734  0.2735  1.2658 -2.2125
  304MOL0     H41899  12.379   6.791  11.925  1.9370 -1.3906  0.8388
  304MOL0     H41900  12.463   6.676  11.834 -1.9228 -0.3430  2.1119
  304MOL0     H41901  12.493   7.049  11.879  0.3635  1.7717  0.8268
  304MOL0     H41902  12.701   7.184  11.967  1.4056  4.0881 -0.2542
  304MOL0     H41903  12.678   7.231  11.801 -0.5336  2.3931  1.1782
  304MOL0     H41904  12.907   7.302  11.902  3.6053  0.3177 -1.8286
  304MOL0     H41905  12.932   7.129  11.927  0.5444  0.5624  0.4742
  304MOL0     H41906  12.919   7.117  11.665  0.1557  1.3884 -2.9402
  304MOL0     H41907  12.912   7.295  11.667  1.3434  0.2702 -0.6209
  304MOL0     H41908  13.152   7.237  11.637 -1.8805  0.4714 -1.0789
  304MOL0     H41909  13.133   7.271  11.812 -1.2893  1.1885  0.3831
  304MOL0     H41910  13.374   7.240  11.741  0.7583  1.6566  1.5994
  304MOL0     H41911  13.568   7.311  11.780 -0.9657 -0.5985 -0.2448
  304MOL0     H41912  13.672   7.195  11.696 -0.2580 -1.6990  1.0931
  304MOL0     H41913  13.688   7.221  11.876 -1.8048  1.0183  2.3651
  304MOL0     H41914  13.925   6.945  12.019 -2.1662 -1.2060  0.9468
  304MOL0     H41915  14.155   6.831  12.078  0.4879 -1.3491  1.6321
  304MOL0     H41916  14.151   6.388  12.167  1.5337 -2.2460  1.7196
  304MOL0     H41917  14.220   6.429  12.012 -3.3089 -1.5668  0.3395
  304MOL0     H41918  14.385   6.444  12.274 -2.4817  0.1997  0.7941
  304MOL0     H41919  14.386   6.313  12.153 -0.9392  0.6257  1.4324
  304MOL0     H41920  14.465   6.611  12.114 -1.8890 -1.3006  0.2676
  304MOL0     H41921  14.473   6.497  11.990 -0.6304  2.9771 -0.1181
  304MOL0     H41922  14.646   6.375  12.110 -1.7431 -0.5707  0.6090
  304MOL0     H41923  14.643   6.508  12.234  0.1490  2.8824 -0.3844
  304MOL0     H41924  14.717   6.524  11.943 -0.0399  0.5025  0.3881
  304MOL0     H41925  14.675   6.660  12.044 -1.3515 -0.8263  0.5214
  304MOL0     H41926  14.847   6.637  12.193 -0.8369 -0.0231  0.0086
  304MOL0     H41927  14.927   6.608  12.035  0.1708 -0.1415  1.2799
  304MOL0     H41928  14.929   6.360  12.080  0.2906 -0.6607  0.4274
  304MOL0     H41929  14.852   6.383  12.233 -0.7864 -0.1854 -0.6039
  304MOL0     H41930  15.117   6.520  12.170 -1.5551  1.7215 -0.1673
  304MOL0     H41931  15.102   6.376  12.266 -1.0350  0.1743 -0.9615
  304MOL0     H41932  13.961   6.454  12.068 -2.7615 -0.0724  1.6151
  304MOL0     H41933  13.751   6.557  12.011 -2.6153  2.8409  1.0830
  304MOL0     H41934  13.441   6.785  11.919  0.9641 -0.9469 -1.7118
  304MOL0     H41935  13.224   6.854  11.842 -0.5725  0.7942 -0.7201
  304MOL0     H41936  11.852   6.831  11.249 -1.8097  2.7353 -0.1941
  304MOL0     H41937  11.641   6.970  11.265 -1.4245 -0.4554  0.9670
  304MOL0     H41938  11.221   6.953  11.488  1.7299  1.6841  0.0489
  304MOL0     H41939  10.982   7.035  11.500  0.4025  0.1150  0.6401
  304MOL0     H41940  10.708   7.271  11.439  0.1143 -1.5596  1.2186
  304MOL0     H41941  10.797   7.131  11.505 -0.0465 -0.3725 -0.7149
  304MOL0     H41942  10.890   7.415  11.476 -0.7219  0.2690 -0.3544
  304MOL0     H41943  10.991   7.277  11.549 -0.3553 -1.1672 -1.6012
  304MOL0     H41944  10.743   7.413  11.656  0.4454  1.4455  1.3595
  304MOL0     H41945  10.810   7.263  11.726 -1.9079 -0.5503 -0.7832
  304MOL0     H41946  10.971   7.532  11.712 -1.7753 -0.5294 -1.9897
  304MOL0     H41947  11.029   7.377  11.783 -1.1229 -2.3429 -1.9277
  304MOL0     H41948  10.738   7.547  12.049  0.8542  0.2552  0.6937
  304MOL0     H41949  11.028   7.256  11.141 -2.0993 -1.7145  0.0940
  304MOL0     H41950  11.284   7.082  11.008  0.5029 -1.8404  2.4070
  304MOL0     H41951  11.288   7.264  11.035  2.2121 -0.1113 -2.7017
  304MOL0     H41952  11.398   7.165  11.114  0.0092  1.3067 -2.6237
  305MOL0     O41953   4.427   7.694   9.923 -0.5091  0.3877  0.1129
  305MOL0     C41954   4.540   7.740   9.930 -0.3859 -0.6641 -0.9123
  305MOL0     O41955   4.565   7.866   9.957 -0.8406  0.0477 -0.3023
  305MOL0     C41956   4.463   7.958   9.968  0.0346  0.9986 -0.5559
  305MOL0     C41957   4.395   7.978  10.085 -0.0699 -0.0335 -0.4871
  305MOL0     C41958   4.292   8.079  10.094 -0.1686 -0.3780  0.1916
  305MOL0     C41959   4.248   8.144   9.977  0.7845 -0.1893 -0.8363
  305MOL0     O41960   4.132   8.224   9.994 -0.6938 -0.3140  0.5019
  305MOL0     C41961   4.062   8.266   9.880 -0.1474  0.8378 -0.2410
  305MOL0     C41962   3.933   8.350   9.935 -0.0882  0.5675  0.4945
  305MOL0     C41963   3.873   8.436   9.824 -0.0373  0.0081  0.5112
  305MOL0     C41964   3.740   8.499   9.880 -0.4114 -0.5393  0.0023
  305MOL0     C41965   3.676   8.560   9.756  0.0677 -0.0884  0.9255
  305MOL0     C41966   3.536   8.615   9.778  0.0970 -0.4226 -0.0551
  305MOL0     C41967   3.488   8.690   9.649  0.3612 -0.3729  0.8381
  305MOL0     C41968   3.336   8.706   9.658  0.1147 -0.3594 -0.2997
  305MOL0     N41969   3.286   8.789   9.551  0.0208 -0.5562  0.3710
  305MOL0     C41970   3.277   8.923   9.556 -0.4995 -0.6713 -0.7167
  305MOL0     C41971   3.249   8.954   9.426 -0.2192 -0.4352  0.0391
  305MOL0     C41972   3.254   9.096   9.379 -0.0656  0.1741  0.5735
  305MOL0     C41973   3.327   9.111   9.243  0.4460 -0.0289 -0.1453
  305MOL0     C41974   3.477   9.093   9.251 -0.3917 -0.1109 -0.4410
  305MOL0     C41975   3.553   9.213   9.293  0.3226 -0.1922  0.9883
  305MOL0     O41976   3.692   9.175   9.298  0.1894  0.8162 -0.0879
  305MOL0     C41977   3.749   9.111   9.410 -0.1343 -0.5915  0.3738
  305MOL0     C41978   3.692   9.065   9.529 -0.0972  0.6268  0.0399
  305MOL0     C41979   3.767   9.005   9.627 -1.1570  0.2619 -0.1114
  305MOL0     C41980   3.702   8.971   9.762 -0.1610  0.5733  0.2463
  305MOL0     C41981   3.910   9.000   9.613 -0.1177 -0.7893  0.2131
  305MOL0     C41982   4.011   8.959   9.720 -0.3756  0.5882  0.1274
  305MOL0     O41983   4.134   8.989   9.685 -0.3058 -0.2445 -0.3848
  305MOL0     C41984   4.253   8.931   9.721  0.2228 -0.3101 -0.1014
  305MOL0     C41985   4.268   8.812   9.788 -0.6004  0.7814 -0.5798
  305MOL0     C41986   4.391   8.751   9.812 -1.2300 -0.1477  0.6121
  305MOL0     C41987   4.507   8.813   9.770 -0.2156 -0.2833  1.0336
  305MOL0     O41988   4.622   8.751   9.816  0.6998 -0.0844  0.4963
  305MOL0     C41989   4.727   8.824   9.875 -0.1182 -0.1322  0.6607
  305MOL0     C41990   4.700   8.836  10.032 -0.3124  1.0564 -0.3121
  305MOL0     C41991   4.778   8.963  10.090  0.3425  0.4836 -0.8943
  305MOL0     C41992   4.927   8.965  10.055 -0.8101  0.3644  0.2526
  305MOL0     C41993   4.995   9.100  10.081 -0.0365  0.0377 -0.8501
  305MOL0     C41994   5.139   9.081  10.046 -0.1885  0.1486 -0.8308
  305MOL0     C41995   5.215   9.216  10.047  0.2265 -0.1283  0.5437
  305MOL0     C41996   5.343   9.223   9.979 -0.6779  0.8075  0.1628
  305MOL0    Cl41997   5.480   9.139  10.074  0.1717 -0.0784 -0.0844
  305MOL0     C41998   4.498   8.944   9.714 -0.3927 -0.2258  0.5985
  305MOL0     C41999   4.374   9.004   9.691  0.4096 -0.3352  0.2527
  305MOL0     O42000   3.978   8.896   9.817  0.2953  0.1326 -0.4669
  305MOL0     C42001   3.964   9.045   9.496  0.2526 -0.6847  0.9733
  305MOL0     C42002   3.890   9.094   9.398  0.4820 -0.0188 -0.0841
  305MOL0     N42003   3.219   8.844   9.351  0.0566 -0.3052 -0.2891
  305MOL0     N42004   3.233   8.746   9.429  1.2016 -0.5586  0.4108
  305MOL0     C42005   4.308   8.113   9.859  0.2649 -0.0603 -0.1240
  305MOL0     C42006   4.423   8.026   9.856 -0.6061  0.2877 -0.2261
  305MOL0     C42007   4.661   7.657   9.915  0.2397 -0.1164 -0.4402
  305MOL0     C42008   4.773   7.691   9.996 -0.6110 -0.0491  0.7230
  305MOL0     C42009   4.899   7.635   9.968  0.0651  0.0790 -0.6762
  305MOL0     C42010   4.908   7.521   9.886 -0.4512 -0.5630 -0.3177
  305MOL0     O42011   5.032   7.464   9.878 -0.0864 -0.2225  0.8231
  305MOL0     C42012   5.027   7.324   9.855  0.2779  0.8796  0.2366
  305MOL0     C42013   5.162   7.265   9.891 -0.3984 -0.7696 -0.3500
  305MOL0     C42014   5.171   7.263  10.050 -0.0097 -0.2855 -0.0212
  305MOL0     C42015   5.291   7.166  10.081  1.0616 -0.0703 -0.0839
  305MOL0     C42016   5.341   7.170  10.220 -0.2024  0.0192  0.2596
  305MOL0     C42017   5.367   7.178  10.336  0.8842  0.2597 -0.1786
  305MOL0     C42018   4.791   7.469   9.831  0.1672 -0.1046 -0.4909
  305MOL0     C42019   4.668   7.537   9.837 -0.1277  0.5964  0.0514
  305MOL0     C42020   4.551   7.478   9.760 -0.2739 -0.5256  0.2005
  305MOL0     H42021   4.425   7.903  10.158  1.7996  0.0458 -1.1254
  305MOL0     H42022   4.234   8.099  10.183 -2.5915 -0.1971 -1.3473
  305MOL0     H42023   4.018   8.180   9.829  0.9285 -0.4560  0.9092
  305MOL0     H42024   4.127   8.330   9.821 -0.4535  3.9933  2.5780
  305MOL0     H42025   3.856   8.282   9.972 -1.4135  1.1910 -1.0265
  305MOL0     H42026   3.964   8.404  10.025 -1.1986  1.8918  0.1130
  305MOL0     H42027   3.946   8.516   9.804 -1.8507  1.8128  0.7649
  305MOL0     H42028   3.860   8.368   9.740 -1.3344 -2.1637  2.3650
  305MOL0     H42029   3.667   8.435   9.930 -2.3735  1.4393 -0.1777
  305MOL0     H42030   3.765   8.573   9.957 -0.3463  0.1227 -0.6403
  305MOL0     H42031   3.672   8.483   9.679 -1.2564 -0.0584  0.9324
  305MOL0     H42032   3.741   8.640   9.719 -2.6252  2.8211  1.9187
  305MOL0     H42033   3.472   8.527   9.792 -0.4285 -0.3883 -1.9858
  305MOL0     H42034   3.539   8.687   9.860  1.4182  0.1203 -0.5547
  305MOL0     H42035   3.506   8.630   9.560  2.0431 -0.4167  1.1628
  305MOL0     H42036   3.544   8.784   9.639 -1.5082  0.8442  1.3189
  305MOL0     H42037   3.303   8.602   9.648  2.7228 -1.1326 -1.7277
  305MOL0     H42038   3.296   8.743   9.753  0.2880  0.1780 -0.4346
  305MOL0     H42039   3.305   8.983   9.642 -2.7040  2.0099 -1.7275
  305MOL0     H42040   3.315   9.145   9.455  0.6272 -0.4000  0.3934
  305MOL0     H42041   3.152   9.134   9.384 -0.6896 -1.5175  1.8727
  305MOL0     H42042   3.289   9.042   9.167  1.8856  0.6876 -1.5768
  305MOL0     H42043   3.313   9.210   9.198  3.2430 -0.9368 -3.4401
  305MOL0     H42044   3.506   9.012   9.319 -1.7961 -0.5437 -0.3280
  305MOL0     H42045   3.520   9.062   9.155  3.3668  1.7706  0.4374
  305MOL0     H42046   3.545   9.285   9.211  2.2917  0.7688  1.5712
  305MOL0     H42047   3.527   9.255   9.391  0.7187 -1.6459  1.7484
  305MOL0     H42048   3.585   9.079   9.531  0.0335  1.7577 -0.1573
  305MOL0     H42049   3.598   9.004   9.766 -0.9851 -1.7756  0.0420
  305MOL0     H42050   3.759   9.022   9.840 -0.5118  0.3171  0.6772
  305MOL0     H42051   3.712   8.865   9.787  0.3269  1.1243  2.6331
  305MOL0     H42052   4.183   8.753   9.823  0.1257 -0.0227 -0.1298
  305MOL0     H42053   4.388   8.660   9.871 -3.3508 -0.5748 -0.0749
  305MOL0     H42054   4.824   8.776   9.859 -0.3128 -0.3147  0.0137
  305MOL0     H42055   4.742   8.922   9.829  0.1987 -0.4338  0.1123
  305MOL0     H42056   4.593   8.830  10.053 -0.1304  2.7002  1.3679
  305MOL0     H42057   4.738   8.743  10.074  1.4037  2.5734  1.7654
  305MOL0     H42058   4.759   8.970  10.198  1.5126  0.3942 -0.6777
  305MOL0     H42059   4.745   9.063  10.060  1.3471  0.1805 -3.1799
  305MOL0     H42060   4.952   8.936   9.953  1.7226 -0.7570  1.1059
  305MOL0     H42061   4.981   8.898  10.122 -1.0446  3.2506  3.5775
  305MOL0     H42062   4.951   9.173  10.013 -0.2752  1.3025  0.6035
  305MOL0     H42063   4.980   9.133  10.185  1.2773 -0.1042 -0.5930
  305MOL0     H42064   5.147   9.037   9.947  2.1238  0.6526 -0.9274
  305MOL0     H42065   5.184   9.016  10.122  0.0843  0.5030 -0.6868
  305MOL0     H42066   5.234   9.253  10.148 -1.4022  1.0550  0.4666
  305MOL0     H42067   5.150   9.287   9.994 -0.1618  0.2982  1.5673
  305MOL0     H42068   5.374   9.326   9.958  0.3065  0.9230  2.0102
  305MOL0     H42069   5.337   9.181   9.878  4.4386 -1.9555  0.7124
  305MOL0     H42070   4.591   8.993   9.687 -0.8044 -1.1726 -3.1132
  305MOL0     H42071   4.357   9.100   9.645  0.7912  0.3151  1.4314
  305MOL0     H42072   4.068   9.046   9.467 -0.4756 -0.3900 -1.8563
  305MOL0     H42073   3.942   9.127   9.308  1.2206  0.4018  0.4920
  305MOL0     H42074   4.274   8.155   9.765  0.6851 -0.2510 -0.3633
  305MOL0     H42075   4.478   8.011   9.763  0.3535  0.1491  0.3528
  305MOL0     H42076   4.756   7.770  10.069 -4.7317 -0.1330  0.1311
  305MOL0     H42077   4.986   7.667  10.025  0.0915 -1.2325  0.0525
  305MOL0     H42078   4.952   7.272   9.914  1.3928  0.2167  1.1176
  305MOL0     H42079   5.009   7.309   9.748 -0.2554 -0.2359  0.4716
  305MOL0     H42080   5.239   7.327   9.845 -1.3094  0.7160  0.0671
  305MOL0     H42081   5.175   7.170   9.839 -3.2906 -1.8209  0.6492
  305MOL0     H42082   5.193   7.367  10.075 -0.3083 -0.1299 -0.4012
  305MOL0     H42083   5.079   7.237  10.103  0.1517  0.8210  0.8415
  305MOL0     H42084   5.375   7.171  10.011  0.3307 -1.3750 -1.1058
  305MOL0     H42085   5.259   7.061  10.070  0.3422  0.3914 -3.9841
  305MOL0     H42086   5.398   7.185  10.439  0.7462  0.6042 -0.1600
  305MOL0     H42087   4.801   7.379   9.771  2.8470  0.4857 -1.0565
  305MOL0     H42088   4.528   7.550   9.681  0.1070 -0.1558  0.4262
  305MOL0     H42089   4.596   7.387   9.718  2.2683  0.4323  0.6616
  305MOL0     H42090   4.459   7.460   9.817 -0.9894  0.5983 -0.5636
  306MOL0     O42091   2.480   8.620  10.060 -0.0921 -1.2747 -0.2020
  306MOL0     C42092   2.407   8.631  10.166  0.3918  0.3686  0.6000
  306MOL0     O42093   2.455   8.636  10.294 -0.1670  0.1668 -0.2551
  306MOL0     C42094   2.591   8.604  10.314  0.0493 -0.0431 -0.0447
  306MOL0     C42095   2.657   8.509  10.240  0.7498  0.5459  0.1452
  306MOL0     C42096   2.790   8.475  10.279 -0.0225 -0.1240  0.4050
  306MOL0     C42097   2.852   8.539  10.390  0.6378 -0.2263  0.0861
  306MOL0     O42098   2.981   8.522  10.439 -0.6107  0.8553  0.1883
  306MOL0     C42099   3.039   8.399  10.397 -0.1670 -0.0847 -1.1304
  306MOL0     C42100   3.182   8.376  10.446  0.0947 -0.0239 -0.3790
  306MOL0     C42101   3.184   8.331  10.589  0.6919 -0.2887 -0.1036
  306MOL0     C42102   3.186   8.179  10.610 -0.5001  0.3080 -0.6498
  306MOL0     C42103   3.173   8.141  10.756  0.7502 -0.4519  0.4146
  306MOL0     C42104   3.054   8.174  10.831 -0.3576 -0.1035 -0.4077
  306MOL0     C42105   2.923   8.114  10.772  0.0200 -0.6100  0.4625
  306MOL0     C42106   2.810   8.135  10.868  0.7407  0.3315  0.0266
  306MOL0     N42107   2.768   8.275  10.904 -0.4545 -0.2255 -0.2893
  306MOL0     C42108   2.695   8.362  10.824 -0.2977 -0.2153  0.1305
  306MOL0     C42109   2.694   8.476  10.891 -0.5826  0.5115 -0.2196
  306MOL0     C42110   2.611   8.589  10.859  0.5366  0.1795  0.0195
  306MOL0     C42111   2.460   8.541  10.876 -0.9968 -0.1563  1.1747
  306MOL0     C42112   2.364   8.648  10.824  0.2020 -0.7303  0.5334
  306MOL0     C42113   2.218   8.609  10.865 -0.1216 -0.0078 -0.0095
  306MOL0     O42114   2.112   8.698  10.817  0.8003  0.1146 -0.0173
  306MOL0     C42115   2.055   8.786  10.904 -0.6787 -0.5732  0.6569
  306MOL0     C42116   1.921   8.821  10.883  0.1596 -0.8541 -0.4861
  306MOL0     C42117   1.858   8.915  10.965  0.6018  0.2352  0.2930
  306MOL0     C42118   1.700   8.928  10.950 -1.4092  0.7621  0.1547
  306MOL0     C42119   1.928   8.976  11.069 -0.1431 -0.3675 -0.5642
  306MOL0     C42120   1.871   9.086  11.156 -0.0944 -0.0672  0.3776
  306MOL0     O42121   1.951   9.136  11.256  0.5569  0.4986 -0.0877
  306MOL0     C42122   1.899   9.224  11.347  0.2081  0.3709 -0.8833
  306MOL0     C42123   1.766   9.215  11.404  0.1729 -0.1272 -0.3614
  306MOL0     C42124   1.720   9.322  11.486  0.1278  0.4956  0.2332
  306MOL0     C42125   1.799   9.438  11.515  0.0484 -0.2402  0.7070
  306MOL0     O42126   1.746   9.543  11.580 -0.5268 -0.4089 -0.2392
  306MOL0     C42127   1.614   9.575  11.550 -0.2347 -0.1510 -0.0923
  306MOL0     C42128   1.579   9.717  11.586  0.2718 -0.3563 -0.6238
  306MOL0     C42129   1.601   9.736  11.734 -0.6378 -0.6390 -0.5114
  306MOL0     C42130   1.545   9.871  11.777  0.8322 -0.7516  0.0999
  306MOL0     C42131   1.554   9.896  11.931 -0.0430  0.1531  0.5001
  306MOL0     C42132   1.453  10.010  11.960 -0.1172  0.4256 -0.0601
  306MOL0     C42133   1.510  10.151  11.926 -0.3118  0.2023  0.6594
  306MOL0     C42134   1.440  10.262  12.001  0.7264 -0.0254  0.3889
  306MOL0    Cl42135   1.265  10.304  11.941  0.4320  0.1858  0.0743
  306MOL0     C42136   1.928   9.446  11.464 -0.0776  0.4506  0.0115
  306MOL0     C42137   1.983   9.329  11.396  0.9116  0.1292 -0.1479
  306MOL0     O42138   1.754   9.124  11.129 -1.0417  0.2360  0.1489
  306MOL0     C42139   2.054   8.932  11.095 -0.2725 -0.8403  0.4973
  306MOL0     C42140   2.117   8.833  11.014  0.3153  0.9159  0.4306
  306MOL0     N42141   2.770   8.465  11.008  0.0453 -0.0547  0.4902
  306MOL0     N42142   2.820   8.341  11.011  1.1466 -0.3124  0.0089
  306MOL0     C42143   2.775   8.637  10.461 -0.1315 -0.1039  0.3216
  306MOL0     C42144   2.648   8.678  10.419 -0.2589 -0.3122  0.7446
  306MOL0     C42145   2.263   8.654  10.147 -0.0393  0.5555  0.2850
  306MOL0     C42146   2.210   8.637  10.012 -0.2283  0.1630  0.1475
  306MOL0     C42147   2.078   8.649   9.968 -0.2323  0.6145 -0.7480
  306MOL0     C42148   1.982   8.683  10.065  0.4257 -0.4899  0.7105
  306MOL0     O42149   1.846   8.697  10.043 -0.0297 -0.6390 -0.3327
  306MOL0     C42150   1.767   8.574  10.052 -0.8616  0.4855  0.6525
  306MOL0     C42151   1.696   8.576  10.190  0.2040 -0.1513 -0.4006
  306MOL0     C42152   1.626   8.711  10.238  0.1367  0.0725  0.7215
  306MOL0     C42153   1.539   8.755  10.117 -0.6045 -0.4623 -1.1082
  306MOL0     C42154   1.437   8.663  10.075  0.7154  0.0835 -0.3848
  306MOL0     C42155   1.362   8.584  10.023 -0.2666 -0.0567 -0.3488
  306MOL0     C42156   2.019   8.702  10.201 -0.2428 -0.6213 -0.2205
  306MOL0     C42157   2.155   8.678  10.242  0.1902  0.3413  1.4657
  306MOL0     C42158   2.179   8.690  10.387 -0.3470  0.3968 -0.4770
  306MOL0     H42159   2.601   8.453  10.165 -1.6521  0.4999  1.8669
  306MOL0     H42160   2.833   8.391  10.225 -3.2447  0.6920 -3.8935
  306MOL0     H42161   3.041   8.387  10.289 -0.6890  0.2669 -1.1811
  306MOL0     H42162   2.969   8.322  10.433 -1.6207  0.4909 -2.6102
  306MOL0     H42163   3.241   8.307  10.385  1.2949  1.2163 -0.6619
  306MOL0     H42164   3.232   8.473  10.441  0.3917 -0.1305  0.3217
  306MOL0     H42165   3.273   8.371  10.639 -0.0621 -1.1961  2.1100
  306MOL0     H42166   3.091   8.362  10.638  0.9644 -0.0314  0.2614
  306MOL0     H42167   3.112   8.132  10.546  1.9744 -2.6466 -1.5977
  306MOL0     H42168   3.280   8.136  10.573 -0.1104  0.3816  0.2055
  306MOL0     H42169   3.264   8.176  10.807  1.2657  0.5900 -1.1649
  306MOL0     H42170   3.184   8.033  10.761 -2.2281 -0.8265  0.6466
  306MOL0     H42171   3.066   8.142  10.935 -0.1575 -1.7369 -0.8923
  306MOL0     H42172   3.049   8.282  10.847 -0.9696 -0.1155 -0.4896
  306MOL0     H42173   2.924   8.006  10.755  2.4330 -0.5288 -0.3427
  306MOL0     H42174   2.902   8.166  10.678 -2.8225 -1.9093  0.2800
  306MOL0     H42175   2.718   8.090  10.829 -0.2479  0.5811  1.9724
  306MOL0     H42176   2.834   8.080  10.959 -0.5137  1.0663  0.8259
  306MOL0     H42177   2.631   8.344  10.739 -0.5077 -0.4295  0.3320
  306MOL0     H42178   2.631   8.610  10.754 -0.3687 -1.6936 -0.5651
  306MOL0     H42179   2.640   8.674  10.922 -1.3328 -0.1011  1.3584
  306MOL0     H42180   2.448   8.462  10.802 -0.1680  0.2278  0.6029
  306MOL0     H42181   2.437   8.514  10.980 -0.0257 -0.8628  1.2206
  306MOL0     H42182   2.397   8.742  10.869 -1.5865 -0.5475  1.5552
  306MOL0     H42183   2.367   8.658  10.715  2.1974 -1.1714  0.5121
  306MOL0     H42184   2.201   8.510  10.822 -0.4758  1.9396 -5.0460
  306MOL0     H42185   2.196   8.597  10.972 -3.5925  1.6833 -0.3853
  306MOL0     H42186   1.872   8.774  10.798 -0.5883 -1.1748  0.1157
  306MOL0     H42187   1.640   8.917  11.041 -0.3314 -0.1168  0.7810
  306MOL0     H42188   1.665   8.851  10.882  1.6798 -0.2359 -0.4396
  306MOL0     H42189   1.686   9.024  10.899  0.1544  0.3825 -1.0788
  306MOL0     H42190   1.707   9.128  11.379 -0.3208 -0.0443  0.5031
  306MOL0     H42191   1.623   9.309  11.532 -0.0012 -2.8348 -0.7130
  306MOL0     H42192   1.609   9.569  11.441  0.9627  0.3743 -0.1987
  306MOL0     H42193   1.537   9.512  11.595  0.1192 -1.1913 -0.9051
  306MOL0     H42194   1.640   9.788  11.529 -0.8136  2.1220  1.1334
  306MOL0     H42195   1.477   9.741  11.557  1.1365  2.6734 -1.4587
  306MOL0     H42196   1.707   9.732  11.758 -0.5327 -0.1375 -0.8730
  306MOL0     H42197   1.539   9.664  11.789  0.0647 -1.4019 -0.7059
  306MOL0     H42198   1.443   9.890  11.742  1.3481 -0.8727 -1.5927
  306MOL0     H42199   1.606   9.945  11.725 -0.1229 -0.9749 -1.4289
  306MOL0     H42200   1.530   9.800  11.976  1.6675 -0.7228 -0.3484
  306MOL0     H42201   1.653   9.930  11.963  0.7769  2.8252 -3.9335
  306MOL0     H42202   1.432   9.997  12.066  0.5370 -0.2221  0.0011
  306MOL0     H42203   1.355   9.996  11.914 -0.1327  0.8979 -0.1802
  306MOL0     H42204   1.514  10.161  11.817 -0.4068 -2.0403  0.3881
  306MOL0     H42205   1.612  10.152  11.966  0.3896  2.3157 -0.9792
  306MOL0     H42206   1.491  10.358  11.986 -3.5811  2.5548  0.6051
  306MOL0     H42207   1.430  10.242  12.108  0.7742 -1.3354  0.1585
  306MOL0     H42208   1.983   9.537  11.489 -0.6348  0.5772  0.8090
  306MOL0     H42209   2.085   9.341  11.359  0.9675 -1.8780 -0.8016
  306MOL0     H42210   2.117   8.984  11.166  0.3836 -2.5288  1.2021
  306MOL0     H42211   2.221   8.809  11.037 -0.4844  0.4259  4.1024
  306MOL0     H42212   2.816   8.693  10.544 -2.5324 -0.6173  1.9478
  306MOL0     H42213   2.593   8.757  10.468 -0.4657  0.0337 -0.0350
  306MOL0     H42214   2.286   8.617   9.938  0.0572  2.3746 -0.2438
  306MOL0     H42215   2.044   8.622   9.868 -0.3293  0.5772 -0.7051
  306MOL0     H42216   1.691   8.578   9.974 -1.6088  2.2841  1.4206
  306MOL0     H42217   1.822   8.482  10.030 -0.8929  0.7537 -0.6248
  306MOL0     H42218   1.760   8.543  10.273  0.7938 -0.2781 -0.9001
  306MOL0     H42219   1.616   8.504  10.172  1.6084 -1.9011  0.1047
  306MOL0     H42220   1.571   8.703  10.332 -2.1912  2.5435 -0.3193
  306MOL0     H42221   1.701   8.786  10.264  2.3256 -1.5127 -0.6343
  306MOL0     H42222   1.606   8.780  10.034 -1.0098 -0.6169 -1.4897
  306MOL0     H42223   1.484   8.849  10.132 -0.2489 -0.4798  0.4109
  306MOL0     H42224   1.302   8.508   9.977 -2.9015  1.3588  0.5613
  306MOL0     H42225   1.960   8.739  10.284 -0.1933  1.9477 -1.2459
  306MOL0     H42226   2.241   8.603  10.412 -0.1129  1.2225  2.1809
  306MOL0     H42227   2.239   8.777  10.415 -0.2558  0.3183 -0.4277
  306MOL0     H42228   2.096   8.665  10.453  0.2109  0.4928  0.2864
  307MOL0     O42229   2.759   9.995   8.203 -0.5159 -0.3690  0.4656
  307MOL0     C42230   2.822   9.907   8.140  0.5207  0.3873 -0.6212
  307MOL0     O42231   2.942   9.928   8.072 -0.2958  0.4558  0.0411
  307MOL0     C42232   2.973  10.052   8.028 -0.4104  0.3460  0.1653
  307MOL0     C42233   3.034  10.150   8.100 -0.3612 -0.2881 -0.3733
  307MOL0     C42234   3.079  10.273   8.054  0.1096 -0.7857  0.9790
  307MOL0     C42235   3.050  10.311   7.921  0.2210 -0.2224  0.2563
  307MOL0     O42236   3.078  10.427   7.858 -0.4988  0.0236 -1.1821
  307MOL0     C42237   3.216  10.446   7.858 -0.1978 -0.2987 -0.4378
  307MOL0     C42238   3.245  10.547   7.746 -0.0179 -0.2071 -0.4108
  307MOL0     C42239   3.366  10.643   7.781  0.8130  0.2699 -0.7723
  307MOL0     C42240   3.400  10.747   7.669  0.4963  0.4107 -0.1350
  307MOL0     C42241   3.486  10.685   7.558  0.1873  0.1672 -0.3048
  307MOL0     C42242   3.548  10.792   7.471 -0.1210  0.0045 -0.4445
  307MOL0     C42243   3.679  10.748   7.396 -0.2105 -0.1629  0.4334
  307MOL0     C42244   3.686  10.615   7.324 -0.0379 -0.7402 -0.0710
  307MOL0     N42245   3.810  10.588   7.255 -0.8000 -0.5742  0.8415
  307MOL0     C42246   3.839  10.616   7.127  0.8321  0.5243  0.1817
  307MOL0     C42247   3.957  10.549   7.111  0.9237 -0.2036  0.4385
  307MOL0     C42248   4.029  10.545   6.983  0.0684 -0.0021  0.4537
  307MOL0     C42249   4.161  10.610   6.989  0.1384 -0.1746  1.0848
  307MOL0     C42250   4.253  10.610   6.858  0.7970 -0.0801 -1.0499
  307MOL0     C42251   4.391  10.661   6.893  0.0133 -0.8400  0.0959
  307MOL0     O42252   4.462  10.610   7.004 -0.5566 -0.5670  0.1656
  307MOL0     C42253   4.595  10.610   7.006 -0.7655 -0.5550 -0.2722
  307MOL0     C42254   4.647  10.551   7.119 -0.9827 -0.3779  0.7431
  307MOL0     C42255   4.784  10.547   7.138 -0.1592 -0.1284  0.3422
  307MOL0     C42256   4.828  10.475   7.269 -1.0992  0.3937  0.5286
  307MOL0     C42257   4.880  10.601   7.035  0.0360  0.0317  0.7446
  307MOL0     C42258   5.022  10.590   7.056 -0.1598 -0.5390 -0.0861
  307MOL0     O42259   5.102  10.706   7.060 -0.0483 -0.4320  0.2867
  307MOL0     C42260   5.240  10.675   7.069 -0.7258 -0.0896  0.1110
  307MOL0     C42261   5.286  10.659   7.197  0.4452  0.1462 -0.4350
  307MOL0     C42262   5.422  10.660   7.223  0.2945  0.2991 -0.0506
  307MOL0     C42263   5.515  10.670   7.117  0.2035 -0.2395 -0.1831
  307MOL0     O42264   5.646  10.661   7.132 -0.4611  0.8271  0.1977
  307MOL0     C42265   5.700  10.603   7.248  0.0999  0.7968 -0.1824
  307MOL0     C42266   5.855  10.579   7.223  0.5709  0.6696 -0.5367
  307MOL0     C42267   5.906  10.474   7.320 -0.8403 -0.7503 -0.4876
  307MOL0     C42268   5.898  10.515   7.471  0.3405 -0.1452  0.0837
  307MOL0     C42269   5.962  10.406   7.562  0.7234  0.0996 -0.1019
  307MOL0     C42270   5.932  10.443   7.712 -0.8192 -0.7529 -1.0111
  307MOL0     C42271   5.990  10.577   7.759  0.4416 -0.2282  0.0311
  307MOL0     C42272   5.978  10.591   7.910 -0.0479  0.8128 -0.1299
  307MOL0    Cl42273   6.076  10.728   7.980  0.5499 -0.1040  0.0359
  307MOL0     C42274   5.470  10.680   6.988 -0.2880  0.0044 -0.2591
  307MOL0     C42275   5.334  10.673   6.960 -0.4448  0.2596 -0.2894
  307MOL0     O42276   5.061  10.475   7.051  0.6397 -0.2813  0.0662
  307MOL0     C42277   4.828  10.649   6.914  0.2307 -0.0908  0.6771
  307MOL0     C42278   4.687  10.651   6.899 -0.1607  0.3774 -0.0437
  307MOL0     N42279   3.988  10.477   7.224  0.3175 -0.0782  0.2996
  307MOL0     N42280   3.899  10.505   7.310 -0.7885 -0.4882  0.6211
  307MOL0     C42281   2.972  10.218   7.844  0.0257  0.2428  0.0708
  307MOL0     C42282   2.934  10.091   7.895 -0.4685  0.1540  0.5498
  307MOL0     C42283   2.754   9.774   8.132  0.3367 -0.0586 -0.4479
  307MOL0     C42284   2.640   9.757   8.214 -0.5519 -0.8863 -0.2496
  307MOL0     C42285   2.567   9.643   8.209 -0.2706 -0.9210  0.6036
  307MOL0     C42286   2.600   9.532   8.124 -0.4023  0.1530 -0.2615
  307MOL0     O42287   2.521   9.422   8.098 -0.6140  0.0275 -0.1399
  307MOL0     C42288   2.378   9.447   8.130  0.2347 -0.1492  0.6612
  307MOL0     C42289   2.285   9.335   8.081  0.1529  0.3638 -0.0291
  307MOL0     C42290   2.327   9.193   8.130 -0.0260  0.4684  0.3025
  307MOL0     C42291   2.202   9.107   8.136  0.9827 -0.5180 -0.5218
  307MOL0     C42292   2.223   8.976   8.202 -0.8222  0.5097 -0.2945
  307MOL0     C42293   2.233   8.869   8.259 -0.1497  0.0922 -0.1488
  307MOL0     C42294   2.715   9.541   8.048  0.1869 -0.2881 -0.1116
  307MOL0     C42295   2.797   9.659   8.054  0.0544 -0.3576 -0.2596
  307MOL0     C42296   2.923   9.665   7.967 -0.3812  0.9216  0.3084
  307MOL0     H42297   3.062  10.118   8.201  1.1646  0.5811 -0.4878
  307MOL0     H42298   3.127  10.343   8.122 -1.1107  0.6474  0.3973
  307MOL0     H42299   3.274  10.356   7.838 -0.0276 -0.0717 -0.9868
  307MOL0     H42300   3.234  10.491   7.957 -1.9134 -2.0166  0.7231
  307MOL0     H42301   3.266  10.481   7.661  0.2159 -4.1382  2.3875
  307MOL0     H42302   3.160  10.613   7.727  1.8506  2.0323 -1.5353
  307MOL0     H42303   3.347  10.701   7.872 -0.6272  3.4418 -2.8875
  307MOL0     H42304   3.452  10.578   7.796 -0.3209 -0.7512  1.9602
  307MOL0     H42305   3.312  10.791   7.622  0.1030 -0.3872 -0.1706
  307MOL0     H42306   3.452  10.829   7.719  1.3634 -2.1996  3.7058
  307MOL0     H42307   3.428  10.609   7.506 -2.2983  1.4917  0.3510
  307MOL0     H42308   3.565  10.627   7.606  0.4216  0.6736 -0.0655
  307MOL0     H42309   3.481  10.808   7.386 -1.1784 -1.7730  0.0076
  307MOL0     H42310   3.570  10.891   7.513  0.6981  0.8168 -2.6119
  307MOL0     H42311   3.764  10.746   7.466 -1.0645  1.9089  1.6364
  307MOL0     H42312   3.710  10.817   7.317 -2.4324  0.3147 -0.0883
  307MOL0     H42313   3.671  10.532   7.394 -0.9197 -1.0812 -0.6580
  307MOL0     H42314   3.608  10.621   7.248 -1.3670  2.2151  1.3673
  307MOL0     H42315   3.797  10.683   7.052  0.3464  1.8669  1.6049
  307MOL0     H42316   3.972  10.600   6.909 -1.4575 -0.6136  1.1280
  307MOL0     H42317   4.036  10.442   6.947  1.6488 -0.5276  2.1018
  307MOL0     H42318   4.140  10.716   7.004  2.2687  0.0976  2.5362
  307MOL0     H42319   4.220  10.568   7.071  4.4786  0.1251 -1.5594
  307MOL0     H42320   4.266  10.508   6.820 -2.0177 -0.9228  0.0443
  307MOL0     H42321   4.209  10.675   6.782 -2.6733  0.6678  1.3708
  307MOL0     H42322   4.447  10.629   6.804 -0.1334  0.3716 -0.4438
  307MOL0     H42323   4.391  10.770   6.898 -2.7443 -0.8223  1.6125
  307MOL0     H42324   4.571  10.519   7.189 -0.7459  0.0192  1.1922
  307MOL0     H42325   4.916  10.515   7.320  1.6930 -2.9040 -1.3016
  307MOL0     H42326   4.841  10.369   7.248  4.0398  0.9068  0.0455
  307MOL0     H42327   4.749  10.484   7.345 -0.6427 -0.2726  1.1019
  307MOL0     H42328   5.216  10.676   7.278 -0.6836  2.2515 -1.7462
  307MOL0     H42329   5.464  10.659   7.323  0.9792 -0.8103 -0.3331
  307MOL0     H42330   5.679  10.656   7.341 -3.6281 -0.6102 -0.0713
  307MOL0     H42331   5.649  10.507   7.262  0.6605  0.4522 -0.4492
  307MOL0     H42332   5.861  10.540   7.121 -0.0838 -0.3850 -0.1882
  307MOL0     H42333   5.912  10.671   7.238  1.0969  0.6580 -2.2643
  307MOL0     H42334   6.009  10.455   7.289 -0.0882 -1.2486  2.0436
  307MOL0     H42335   5.843  10.387   7.302 -0.1040 -1.0908 -1.4627
  307MOL0     H42336   5.796  10.535   7.507  0.4491 -0.2405  0.4513
  307MOL0     H42337   5.947  10.611   7.486  0.9993 -0.9703  4.3071
  307MOL0     H42338   5.918  10.307   7.544 -2.1949  1.8305 -3.7676
  307MOL0     H42339   6.070  10.406   7.546  1.1041 -0.1862  2.0885
  307MOL0     H42340   5.988  10.366   7.766  1.8185  1.5558 -0.2378
  307MOL0     H42341   5.825  10.433   7.733 -1.3005  2.8411 -1.0978
  307MOL0     H42342   5.928  10.660   7.723 -0.9945 -1.7205 -1.0885
  307MOL0     H42343   6.090  10.596   7.716 -0.2597  0.7239 -1.2571
  307MOL0     H42344   6.019  10.504   7.963 -0.3779  1.6563  1.5897
  307MOL0     H42345   5.873  10.611   7.933 -0.7585  0.2266 -2.5515
  307MOL0     H42346   5.532  10.684   6.899  0.1396  0.2534  0.0452
  307MOL0     H42347   5.294  10.670   6.859 -0.3069  1.0585 -0.3765
  307MOL0     H42348   4.903  10.680   6.842 -3.3229  2.8727 -2.1267
  307MOL0     H42349   4.644  10.696   6.810  0.9628  1.0520 -0.2739
  307MOL0     H42350   2.955  10.254   7.743 -0.1846 -2.3736 -0.8922
  307MOL0     H42351   2.881  10.017   7.836  3.6956 -2.6555 -0.0481
  307MOL0     H42352   2.606   9.832   8.285  0.3846 -1.0802  0.4116
  307MOL0     H42353   2.478   9.654   8.271 -0.5424 -0.6122  0.1600
  307MOL0     H42354   2.355   9.454   8.237 -2.0128  0.8281  0.1788
  307MOL0     H42355   2.349   9.544   8.089 -2.3151 -1.2206 -0.2884
  307MOL0     H42356   2.290   9.333   7.972 -0.3976 -0.4710 -0.0458
  307MOL0     H42357   2.187   9.369   8.113  0.5367  0.0008  1.6372
  307MOL0     H42358   2.402   9.152   8.062  0.2688 -1.3981  1.6882
  307MOL0     H42359   2.354   9.199   8.235 -1.3562 -2.6249  0.9237
  307MOL0     H42360   2.165   9.089   8.035  2.3707  1.0589 -1.3633
  307MOL0     H42361   2.128   9.165   8.192  1.4175  0.0485 -0.5254
  307MOL0     H42362   2.240   8.773   8.306  0.2346  1.0231  1.8042
  307MOL0     H42363   2.746   9.467   7.975  0.7951  1.6443 -1.9066
  307MOL0     H42364   3.002   9.689   8.039 -1.1988  0.5761  1.3544
  307MOL0     H42365   2.953   9.565   7.937  0.7506  0.9634  1.2193
  307MOL0     H42366   2.924   9.728   7.878 -1.1598  2.7961  1.5389
  308MOL0     O42367   3.617   1.688   3.213  0.1596  0.5615  0.7206
  308MOL0     C42368   3.613   1.634   3.106  1.0222  0.6734  0.0666
  308MOL0     O42369   3.713   1.639   3.014 -0.2048 -0.0907  0.2127
  308MOL0     C42370   3.844   1.673   3.040 -0.7714  0.1866 -0.3972
  308MOL0     C42371   3.896   1.768   3.137  0.4894  0.5370 -0.4864
  308MOL0     C42372   4.034   1.777   3.158 -1.0643  0.0758  0.5580
  308MOL0     C42373   4.131   1.694   3.088 -0.0734 -0.2004  1.0474
  308MOL0     O42374   4.265   1.713   3.109  0.2141  0.2667  0.7276
  308MOL0     C42375   4.303   1.650   3.238  0.4603 -1.2546 -0.5265
  308MOL0     C42376   4.444   1.696   3.254  0.1254 -0.1513  0.2280
  308MOL0     C42377   4.529   1.632   3.144 -0.3330  0.8195 -0.1952
  308MOL0     C42378   4.610   1.742   3.066  0.3908 -0.3084  0.4064
  308MOL0     C42379   4.720   1.679   2.976  0.5400  0.4776 -0.2568
  308MOL0     C42380   4.783   1.765   2.867  0.0842 -0.5382 -0.1947
  308MOL0     C42381   4.908   1.695   2.798 -0.0583  0.2642  0.2992
  308MOL0     C42382   5.037   1.714   2.881  0.1661 -0.0397  0.3132
  308MOL0     N42383   5.148   1.645   2.810  0.2998  0.0017 -0.7487
  308MOL0     C42384   5.178   1.508   2.802  1.0378  0.6485  0.4868
  308MOL0     C42385   5.282   1.513   2.718  0.9697 -0.1361  0.1170
  308MOL0     C42386   5.341   1.394   2.646 -0.2338 -1.3618 -0.0439
  308MOL0     C42387   5.282   1.383   2.499 -0.0496 -0.6730 -0.0405
  308MOL0     C42388   5.176   1.273   2.486 -0.2132  0.1578  0.1767
  308MOL0     C42389   5.053   1.304   2.567 -0.8138 -0.2508 -0.1548
  308MOL0     O42390   4.980   1.183   2.546  0.1750 -0.3652  0.9659
  308MOL0     C42391   4.859   1.176   2.615  0.4154  0.5347  0.0538
  308MOL0     C42392   4.795   1.057   2.623 -0.5331 -0.1379  0.2557
  308MOL0     C42393   4.673   1.035   2.693 -0.2558 -0.0673  1.1686
  308MOL0     C42394   4.597   0.902   2.668 -0.0164  0.6153  1.1997
  308MOL0     C42395   4.604   1.147   2.744 -0.1227 -0.2968 -0.2002
  308MOL0     C42396   4.458   1.143   2.794 -0.4630  0.1362 -1.0589
  308MOL0     O42397   4.398   1.264   2.810  0.0378  0.0335  0.4125
  308MOL0     C42398   4.278   1.261   2.860  0.2603  0.6803  0.4736
  308MOL0     C42399   4.163   1.206   2.795  0.2331  0.0278  0.6385
  308MOL0     C42400   4.043   1.212   2.869 -0.2360 -0.8065 -0.5616
  308MOL0     C42401   4.023   1.268   2.994 -0.3311  0.0924 -0.5519
  308MOL0     O42402   3.901   1.259   3.056 -0.3108 -0.3346  0.3664
  308MOL0     C42403   3.890   1.271   3.198  0.5032  0.1418 -0.9180
  308MOL0     C42404   3.783   1.181   3.253 -0.1741  0.2372 -0.5012
  308MOL0     C42405   3.648   1.242   3.237 -0.2331 -0.6439 -0.0061
  308MOL0     C42406   3.547   1.140   3.291  0.1081  0.0795  0.5795
  308MOL0     C42407   3.403   1.168   3.242 -0.4207  0.3214 -0.2323
  308MOL0     C42408   3.308   1.057   3.284  0.6008 -0.1606  0.3705
  308MOL0     C42409   3.280   0.967   3.172  0.5808  0.1029  0.8265
  308MOL0     C42410   3.174   0.862   3.206 -0.4439 -0.9494 -0.2341
  308MOL0    Cl42411   3.162   0.741   3.075 -0.4899  0.1690 -0.5722
  308MOL0     C42412   4.138   1.318   3.051  0.3313  0.2989 -0.5537
  308MOL0     C42413   4.262   1.320   2.991 -1.0941  0.5190  0.1336
  308MOL0     O42414   4.409   1.032   2.820  0.4523 -0.3859 -0.5856
  308MOL0     C42415   4.673   1.263   2.749 -0.5191  0.1421  0.0057
  308MOL0     C42416   4.803   1.276   2.685  0.4549  0.0986 -0.1642
  308MOL0     N42417   5.317   1.642   2.684  0.1042  0.5300  0.4220
  308MOL0     N42418   5.243   1.718   2.747  0.3204  0.2823 -0.8875
  308MOL0     C42419   4.079   1.610   2.987 -0.4187 -0.3993 -0.2165
  308MOL0     C42420   3.940   1.598   2.969 -0.4504 -0.3433  0.3070
  308MOL0     C42421   3.482   1.563   3.070  0.3925  0.2989  0.6562
  308MOL0     C42422   3.472   1.515   2.936 -0.2917  0.0869  0.0620
  308MOL0     C42423   3.368   1.440   2.896  0.1965  0.1748 -0.1837
  308MOL0     C42424   3.264   1.404   2.980  0.9560 -0.8269 -0.0982
  308MOL0     O42425   3.167   1.311   2.950  0.6701 -0.0395  0.5032
  308MOL0     C42426   3.108   1.304   2.816  0.3744 -0.1394  0.5934
  308MOL0     C42427   2.989   1.381   2.798  0.1933 -0.1748 -0.1410
  308MOL0     C42428   2.883   1.371   2.905 -0.2149 -0.0330  0.5212
  308MOL0     C42429   2.839   1.235   2.957  0.2221 -1.1103 -0.2727
  308MOL0     C42430   2.749   1.173   2.863 -0.3116 -0.5221 -0.4744
  308MOL0     C42431   2.671   1.131   2.780 -0.3785  0.3595  0.6344
  308MOL0     C42432   3.275   1.450   3.114 -0.4514  0.8013 -0.2831
  308MOL0     C42433   3.380   1.533   3.159  1.2026  0.8878 -0.0569
  308MOL0     C42434   3.377   1.575   3.304  0.2015  0.4204 -0.8436
  308MOL0     H42435   3.824   1.814   3.204 -2.2693 -1.6540 -1.7839
  308MOL0     H42436   4.083   1.828   3.241  3.1124 -1.8675 -0.4123
  308MOL0     H42437   4.297   1.540   3.235  0.4355 -1.2649 -0.0752
  308MOL0     H42438   4.223   1.680   3.306 -1.8650  0.5983 -3.8198
  308MOL0     H42439   4.446   1.805   3.267 -3.7288 -0.0573  1.4750
  308MOL0     H42440   4.480   1.652   3.348 -0.5387  0.7472  0.9239
  308MOL0     H42441   4.610   1.577   3.194 -0.1995 -0.9183 -2.1716
  308MOL0     H42442   4.478   1.558   3.081 -0.8739 -0.2544  1.4465
  308MOL0     H42443   4.535   1.781   2.996 -1.7181 -2.0793  1.5246
  308MOL0     H42444   4.646   1.823   3.130 -2.5441 -0.0929  1.9694
  308MOL0     H42445   4.683   1.587   2.931 -0.3511  0.4586  0.4939
  308MOL0     H42446   4.790   1.650   3.055 -1.6113  0.8972  1.9304
  308MOL0     H42447   4.693   1.783   2.808  0.0373 -0.1883 -0.0198
  308MOL0     H42448   4.821   1.861   2.904 -1.1238  0.0823 -0.5147
  308MOL0     H42449   4.923   1.740   2.699  1.4663  0.5685  0.6395
  308MOL0     H42450   4.890   1.591   2.771  1.9355 -0.3378  1.1336
  308MOL0     H42451   5.058   1.821   2.890 -0.9163  0.2341 -0.2984
  308MOL0     H42452   5.018   1.683   2.985 -2.2427  2.6162  0.7876
  308MOL0     H42453   5.123   1.424   2.843  1.1177  1.4585  2.3866
  308MOL0     H42454   5.320   1.301   2.699  0.8646 -0.5783  1.8589
  308MOL0     H42455   5.448   1.417   2.644 -0.8744  2.8921  2.1021
  308MOL0     H42456   5.255   1.476   2.449 -0.5273 -0.0566  1.3207
  308MOL0     H42457   5.366   1.351   2.438  1.5644  0.0259  1.7009
  308MOL0     H42458   5.149   1.263   2.380 -0.5381  2.7954 -0.0674
  308MOL0     H42459   5.232   1.184   2.517  3.9970  1.7336 -1.9538
  308MOL0     H42460   5.075   1.306   2.674 -3.7919 -2.9787  0.6784
  308MOL0     H42461   5.000   1.395   2.536 -1.2610 -0.2732  0.5176
  308MOL0     H42462   4.843   0.985   2.558  0.6093  0.5339  0.3143
  308MOL0     H42463   4.585   0.842   2.759  0.4465 -2.7402 -0.7989
  308MOL0     H42464   4.651   0.836   2.599 -0.1688  0.6244  1.0715
  308MOL0     H42465   4.504   0.920   2.614  0.1829  0.8675  0.9350
  308MOL0     H42466   4.163   1.152   2.700 -0.2253  0.6065  0.3025
  308MOL0     H42467   3.949   1.174   2.830 -2.7572 -0.4810  4.3516
  308MOL0     H42468   3.979   1.236   3.250 -1.7596 -1.2836  2.2792
  308MOL0     H42469   3.872   1.374   3.231 -0.6824  0.4679 -2.4192
  308MOL0     H42470   3.776   1.082   3.206  0.0674  0.5606 -1.2282
  308MOL0     H42471   3.804   1.164   3.359  1.0151 -1.0118 -0.9004
  308MOL0     H42472   3.635   1.254   3.129  2.0659  0.5091 -0.2079
  308MOL0     H42473   3.645   1.340   3.286  3.3349  0.3423 -1.4929
  308MOL0     H42474   3.569   1.136   3.398  4.9170 -3.0029 -0.1874
  308MOL0     H42475   3.569   1.036   3.263  1.1067  0.2917  0.5507
  308MOL0     H42476   3.366   1.260   3.289  1.8296  0.2732  1.8286
  308MOL0     H42477   3.408   1.175   3.133 -1.0359 -0.8463 -0.3553
  308MOL0     H42478   3.213   1.104   3.311  0.5776  0.3384 -0.5526
  308MOL0     H42479   3.339   1.008   3.377 -2.6513 -0.7464  1.2707
  308MOL0     H42480   3.373   0.923   3.132 -0.3232 -0.8406 -0.3253
  308MOL0     H42481   3.245   1.031   3.091  0.0573 -0.3303  0.7073
  308MOL0     H42482   3.078   0.908   3.231  0.1161 -0.8072  1.8680
  308MOL0     H42483   3.209   0.810   3.296 -1.2307 -1.3125 -0.1286
  308MOL0     H42484   4.131   1.366   3.148  0.6290  0.7217 -0.7358
  308MOL0     H42485   4.347   1.375   3.029  0.5349  0.7118 -3.4392
  308MOL0     H42486   4.628   1.352   2.791  0.3227  1.5734 -1.9516
  308MOL0     H42487   4.846   1.375   2.698 -1.3733  1.2000 -1.9880
  308MOL0     H42488   4.148   1.549   2.929  1.6020  0.7927  0.8051
  308MOL0     H42489   3.913   1.529   2.890 -1.3628 -2.7242  2.5579
  308MOL0     H42490   3.551   1.533   2.864  0.0879  0.2551  0.5144
  308MOL0     H42491   3.374   1.390   2.800  0.3981  1.7358 -1.0231
  308MOL0     H42492   3.182   1.326   2.738  0.7065 -1.5065  0.4842
  308MOL0     H42493   3.078   1.200   2.800  0.4918 -0.0052 -0.6009
  308MOL0     H42494   2.945   1.347   2.704 -0.3793  0.1515  0.0009
  308MOL0     H42495   3.012   1.488   2.796 -0.6785  0.0069 -1.2814
  308MOL0     H42496   2.914   1.426   2.994 -2.1071 -0.1697  1.3015
  308MOL0     H42497   2.803   1.430   2.859  1.0581  0.7310 -0.8164
  308MOL0     H42498   2.803   1.243   3.060 -0.2606  2.8911 -0.5803
  308MOL0     H42499   2.924   1.166   2.962  1.9383  0.9514  0.9836
  308MOL0     H42500   2.594   1.088   2.719  0.3679 -0.5412  0.3132
  308MOL0     H42501   3.194   1.415   3.178  0.3502 -0.7078 -0.0655
  308MOL0     H42502   3.294   1.535   3.363  1.0910  1.2158  1.0272
  308MOL0     H42503   3.468   1.537   3.351 -1.7164 -2.3436  0.9340
  308MOL0     H42504   3.383   1.684   3.309  0.3021  0.3633  0.4858
  309MOL0     O42505  10.392   4.027   7.332 -0.2338  0.1840  0.5966
  309MOL0     C42506  10.436   4.056   7.215 -0.8551  0.0600  0.2386
  309MOL0     O42507  10.376   4.029   7.097 -0.2442 -0.1896 -0.1118
  309MOL0     C42508  10.262   3.954   7.092  0.5000  0.1006  0.3799
  309MOL0     C42509  10.255   3.844   7.003 -0.0593 -0.0468 -0.2358
  309MOL0     C42510  10.128   3.777   6.994 -0.4178 -0.4550  0.4909
  309MOL0     C42511  10.023   3.807   7.074  0.0857  0.2410 -0.2458
  309MOL0     O42512   9.912   3.728   7.070 -0.5848 -0.3743  0.2936
  309MOL0     C42513   9.791   3.789   7.005  0.1260  0.6542 -0.1520
  309MOL0     C42514   9.673   3.782   7.108  1.0451 -0.8506  0.2181
  309MOL0     C42515   9.541   3.837   7.056 -0.1563 -0.0808 -0.8309
  309MOL0     C42516   9.458   3.719   7.003 -0.1537  0.5328  0.9411
  309MOL0     C42517   9.317   3.765   6.952 -1.0578  0.3862 -0.5387
  309MOL0     C42518   9.315   3.831   6.809 -0.1383  0.3139  0.0887
  309MOL0     C42519   9.183   3.913   6.809  0.4501 -0.2598  0.4732
  309MOL0     C42520   9.157   4.002   6.683  0.1800 -0.5934 -0.0006
  309MOL0     N42521   9.275   4.087   6.662  0.0454 -0.1272 -0.3107
  309MOL0     C42522   9.269   4.216   6.717 -0.0466  0.1416 -0.1782
  309MOL0     C42523   9.380   4.266   6.661 -0.8151  0.1624  0.2560
  309MOL0     C42524   9.434   4.398   6.697 -0.0034 -0.5525  0.0803
  309MOL0     C42525   9.494   4.405   6.838 -0.3358 -0.0800 -0.5313
  309MOL0     C42526   9.508   4.552   6.889 -0.2107 -0.4618 -0.4878
  309MOL0     C42527   9.581   4.558   7.025  0.9594  0.3744  1.0945
  309MOL0     O42528   9.711   4.503   7.015 -0.3289  0.1447  0.1504
  309MOL0     C42529   9.784   4.481   7.128  0.6709  0.5186  0.1377
  309MOL0     C42530   9.930   4.471   7.106  0.0740 -0.7989  0.8549
  309MOL0     C42531  10.008   4.421   7.200 -0.0730 -0.4396  0.0810
  309MOL0     C42532  10.149   4.373   7.168 -0.1003  0.3961 -0.7196
  309MOL0     C42533   9.960   4.415   7.334  0.3195 -0.9178 -0.6036
  309MOL0     C42534  10.055   4.388   7.444 -0.1238 -0.6218 -0.3091
  309MOL0     O42535  10.007   4.312   7.540  0.5557 -0.3345 -0.3665
  309MOL0     C42536  10.093   4.242   7.619  0.2120  0.4342  0.5236
  309MOL0     C42537  10.205   4.167   7.573 -0.8972  0.3390  0.0169
  309MOL0     C42538  10.280   4.093   7.660 -0.2167  0.1590  0.3864
  309MOL0     C42539  10.248   4.090   7.801 -0.0499 -0.7986 -0.6756
  309MOL0     O42540  10.332   4.029   7.885 -0.0050  0.4607 -0.2144
  309MOL0     C42541  10.341   4.086   8.015  0.0538  0.5714 -0.2183
  309MOL0     C42542  10.471   4.074   8.086  0.3815  0.1924  0.5750
  309MOL0     C42543  10.567   4.172   8.041 -0.7761 -0.4426  0.4551
  309MOL0     C42544  10.702   4.159   8.113 -0.8884 -0.3845  0.3376
  309MOL0     C42545  10.815   4.227   8.027  0.4011  0.2496 -0.0819
  309MOL0     C42546  10.789   4.380   8.032 -0.2894 -0.2002 -0.3554
  309MOL0     C42547  10.805   4.442   8.176  0.3146 -0.5514  0.9735
  309MOL0     C42548  10.799   4.598   8.177  0.1479 -0.1652  0.1301
  309MOL0    Cl42549  10.629   4.634   8.196  0.0531 -0.0844 -0.4844
  309MOL0     C42550  10.133   4.155   7.844  0.0207  0.2822  0.2940
  309MOL0     C42551  10.062   4.235   7.754 -0.0048  0.0375  0.4673
  309MOL0     O42552  10.153   4.464   7.460  0.1797 -0.1206  0.1064
  309MOL0     C42553   9.827   4.444   7.366 -0.2709 -1.0243  0.8703
  309MOL0     C42554   9.740   4.479   7.261  0.1660  0.3263  0.1333
  309MOL0     N42555   9.446   4.176   6.575  0.7374 -0.7904  0.4154
  309MOL0     N42556   9.378   4.065   6.582  0.1738 -0.2736  0.8746
  309MOL0     C42557  10.032   3.907   7.166  0.5216  0.0743 -0.3493
  309MOL0     C42558  10.144   3.989   7.176  0.1281 -0.1452 -0.1567
  309MOL0     C42559  10.579   4.125   7.205  0.6488  0.3844  0.2776
  309MOL0     C42560  10.636   4.128   7.078 -0.2517 -0.6556 -0.2296
  309MOL0     C42561  10.763   4.189   7.066  0.0899 -0.2464 -0.1552
  309MOL0     C42562  10.821   4.258   7.166 -0.3190  0.4105  0.1748
  309MOL0     O42563  10.939   4.319   7.140  0.5272 -0.1398  0.6431
  309MOL0     C42564  11.063   4.252   7.172 -0.1488  0.4709 -1.2519
  309MOL0     C42565  11.172   4.350   7.222  0.2234  0.9547 -0.1832
  309MOL0     C42566  11.134   4.458   7.314 -0.3360  0.0477  0.3858
  309MOL0     C42567  11.100   4.390   7.449 -0.1961 -0.6863 -0.2911
  309MOL0     C42568  11.046   4.493   7.545  0.5517 -0.3298  0.0578
  309MOL0     C42569  11.008   4.578   7.616  1.2524 -0.0105 -0.4507
  309MOL0     C42570  10.765   4.259   7.289  0.8253  0.9432 -0.5664
  309MOL0     C42571  10.642   4.188   7.313  0.1831  0.5097 -0.0366
  309MOL0     C42572  10.574   4.195   7.450  1.1431  0.0932  0.7277
  309MOL0     H42573  10.337   3.807   6.942  1.9659  2.2741  0.9335
  309MOL0     H42574  10.111   3.686   6.936 -0.5082  0.5905 -1.1675
  309MOL0     H42575   9.754   3.735   6.918 -1.4460 -0.2690  1.0226
  309MOL0     H42576   9.825   3.886   6.966  1.4330 -0.3841 -1.7183
  309MOL0     H42577   9.668   3.677   7.139 -1.4349 -1.8806 -3.1009
  309MOL0     H42578   9.700   3.848   7.191  0.2737  1.3503 -1.1902
  309MOL0     H42579   9.484   3.889   7.133  2.0905  0.0501  0.8152
  309MOL0     H42580   9.567   3.915   6.984 -0.6350  0.4685 -0.4098
  309MOL0     H42581   9.508   3.689   6.911  1.6985 -2.5091  2.7837
  309MOL0     H42582   9.450   3.634   7.071 -0.7983 -0.4321 -0.2925
  309MOL0     H42583   9.266   3.827   7.027 -1.6448 -2.5842  1.6942
  309MOL0     H42584   9.250   3.679   6.949  0.0775 -0.7845  2.6146
  309MOL0     H42585   9.401   3.896   6.794  0.4833 -1.0295 -3.1636
  309MOL0     H42586   9.313   3.761   6.725  3.5853 -2.4856  2.0545
  309MOL0     H42587   9.176   3.975   6.899  1.7720  1.1882 -0.3654
  309MOL0     H42588   9.102   3.840   6.800  0.9822 -0.7889 -0.1261
  309MOL0     H42589   9.164   3.932   6.599  2.0623 -2.4440  1.5763
  309MOL0     H42590   9.072   4.070   6.690  1.1065  0.7763 -1.4453
  309MOL0     H42591   9.192   4.253   6.783  0.3297 -0.8227  0.8412
  309MOL0     H42592   9.349   4.467   6.699  0.5989  0.2114 -0.0327
  309MOL0     H42593   9.499   4.434   6.616 -0.3471 -1.6359 -0.6978
  309MOL0     H42594   9.435   4.340   6.904 -2.4452  1.4407 -0.8378
  309MOL0     H42595   9.598   4.369   6.833  0.7096  2.5757  0.5614
  309MOL0     H42596   9.562   4.612   6.816  0.3788  0.5704  0.7539
  309MOL0     H42597   9.411   4.597   6.914 -1.9508 -4.0278 -0.2129
  309MOL0     H42598   9.585   4.662   7.058 -0.3451  0.2972  1.5471
  309MOL0     H42599   9.515   4.513   7.099 -1.2644  0.8751 -0.4786
  309MOL0     H42600   9.968   4.492   7.007 -0.9540 -1.6082  0.2611
  309MOL0     H42601  10.155   4.327   7.069 -1.5538  0.1021 -0.6996
  309MOL0     H42602  10.190   4.292   7.229  1.1068 -0.4952 -2.6135
  309MOL0     H42603  10.210   4.464   7.173 -0.3781  0.5335  0.4851
  309MOL0     H42604  10.230   4.178   7.468  0.4706  3.9876  0.5933
  309MOL0     H42605  10.357   4.039   7.605  0.3407  1.1813  0.1226
  309MOL0     H42606  10.312   4.191   8.024  0.7799  0.6340  2.4281
  309MOL0     H42607  10.261   4.034   8.070  0.1238 -0.2376 -0.8601
  309MOL0     H42608  10.452   4.090   8.192 -0.2073 -2.1124  0.8856
  309MOL0     H42609  10.507   3.970   8.095  2.5812  0.9579  1.3501
  309MOL0     H42610  10.514   4.267   8.055  2.3134  1.2233  1.7068
  309MOL0     H42611  10.593   4.163   7.935 -0.8434  1.0459  0.2896
  309MOL0     H42612  10.732   4.054   8.123  0.0580 -0.2677 -0.9396
  309MOL0     H42613  10.696   4.196   8.216 -1.5057  1.5843 -0.3593
  309MOL0     H42614  10.915   4.189   8.049 -1.5948 -4.4637  2.2132
  309MOL0     H42615  10.803   4.186   7.926  0.5659 -1.7789  0.6650
  309MOL0     H42616  10.691   4.410   7.993 -0.4524 -1.4139 -0.9269
  309MOL0     H42617  10.865   4.421   7.965 -1.0259 -3.6267 -3.6526
  309MOL0     H42618  10.901   4.426   8.228 -0.9214  0.7414  3.8783
  309MOL0     H42619  10.725   4.401   8.238  1.0322 -1.8539  1.0858
  309MOL0     H42620  10.835   4.635   8.080  2.5652 -0.2021  0.9325
  309MOL0     H42621  10.866   4.651   8.246  1.3256  2.4310 -2.7818
  309MOL0     H42622  10.098   4.158   7.946  1.2846  1.1522  0.7208
  309MOL0     H42623   9.974   4.275   7.801 -1.0826 -2.0280  0.3124
  309MOL0     H42624   9.799   4.451   7.471 -1.3760 -0.1958  0.5351
  309MOL0     H42625   9.638   4.502   7.289  0.3831  0.4384  0.8633
  309MOL0     H42626   9.946   3.921   7.231  1.3186  4.4320  0.0482
  309MOL0     H42627  10.148   4.064   7.254  1.9242  0.7827 -1.0770
  309MOL0     H42628  10.598   4.070   6.994  0.3074 -1.1938 -0.1254
  309MOL0     H42629  10.819   4.172   6.975  0.8705  1.2705  0.0235
  309MOL0     H42630  11.045   4.171   7.243 -0.5402  2.0453  0.5065
  309MOL0     H42631  11.096   4.200   7.081 -0.7028 -1.7472 -0.2526
  309MOL0     H42632  11.226   4.377   7.131  1.0474  1.5887  0.4786
  309MOL0     H42633  11.246   4.287   7.272 -2.2885 -1.8176  0.3188
  309MOL0     H42634  11.219   4.526   7.326  0.0435 -0.6307  1.6704
  309MOL0     H42635  11.055   4.515   7.264  0.6500 -0.2173 -1.6046
  309MOL0     H42636  11.187   4.349   7.503 -0.0054 -0.0971 -0.1452
  309MOL0     H42637  11.022   4.314   7.440 -0.1628 -0.5995 -1.5093
  309MOL0     H42638  10.977   4.671   7.658  1.4561 -0.6322  1.1348
  309MOL0     H42639  10.807   4.312   7.374 -3.7628 -0.5459  3.0246
  309MOL0     H42640  10.631   4.250   7.526  0.1637 -0.1291  1.6397
  309MOL0     H42641  10.479   4.246   7.430  0.9725 -0.3056  0.5152
  309MOL0     H42642  10.568   4.093   7.490  0.7457 -0.9639 -1.8622
  310MOL0     O42643   9.162   8.613   5.376  0.3864 -0.2199  0.5186
  310MOL0     C42644   9.083   8.536   5.429 -0.2012 -0.3297 -0.6096
  310MOL0     O42645   9.117   8.446   5.534 -0.0092 -0.3897 -0.4899
  310MOL0     C42646   9.252   8.439   5.574  0.0338 -0.1858 -0.6037
  310MOL0     C42647   9.307   8.307   5.597  0.0308  0.3527  0.1551
  310MOL0     C42648   9.438   8.290   5.644  0.4792 -0.5375  0.3883
  310MOL0     C42649   9.523   8.407   5.657 -0.1224  0.1733  0.6170
  310MOL0     O42650   9.652   8.394   5.693 -0.5420  0.6304  0.7233
  310MOL0     C42651   9.738   8.324   5.597  0.2849  0.7194  0.3180
  310MOL0     C42652   9.855   8.411   5.579 -0.1276 -0.2230 -0.8059
  310MOL0     C42653   9.967   8.390   5.677  0.4423  0.2449  0.2231
  310MOL0     C42654  10.048   8.265   5.638 -0.6995 -0.4760 -0.2770
  310MOL0     C42655  10.177   8.259   5.715  0.0921 -0.8419 -0.1360
  310MOL0     C42656  10.276   8.139   5.701 -0.0833  0.7119  0.3378
  310MOL0     C42657  10.418   8.180   5.755 -0.5259  0.8883  0.4483
  310MOL0     C42658  10.525   8.063   5.786  0.0979  0.3659  0.1858
  310MOL0     N42659  10.566   7.975   5.677 -0.3155 -0.0119  0.1254
  310MOL0     C42660  10.693   7.933   5.661 -0.4897 -0.0485  0.1286
  310MOL0     C42661  10.691   7.846   5.569 -0.3453  0.0725 -0.3604
  310MOL0     C42662  10.817   7.765   5.531  0.2538 -0.0855 -0.0319
  310MOL0     C42663  10.818   7.672   5.406  0.0395 -0.2171 -0.5271
  310MOL0     C42664  10.945   7.586   5.403  0.9946 -0.6796  0.3346
  310MOL0     C42665  10.922   7.488   5.288 -0.5699 -0.3970  0.2787
  310MOL0     O42666  11.043   7.423   5.279 -0.1742 -0.1372 -0.3503
  310MOL0     C42667  11.070   7.364   5.156  0.9993  0.9309 -0.1070
  310MOL0     C42668  11.200   7.321   5.134  0.0997  0.1499  0.5313
  310MOL0     C42669  11.255   7.277   5.008  1.2467 -0.4914 -1.9956
  310MOL0     C42670  11.405   7.288   4.987  0.4285  0.1365 -0.0073
  310MOL0     C42671  11.161   7.247   4.906 -0.0326 -0.1731 -0.4972
  310MOL0     C42672  11.203   7.180   4.781 -0.7278 -0.3036 -0.2459
  310MOL0     O42673  11.270   7.067   4.798 -0.0767  0.2373  0.3119
  310MOL0     C42674  11.324   7.002   4.683  0.1816  0.2263 -0.7700
  310MOL0     C42675  11.246   6.937   4.594  0.5755 -0.8063  0.1731
  310MOL0     C42676  11.303   6.883   4.472  0.4185  0.1731  0.2466
  310MOL0     C42677  11.440   6.902   4.446 -0.1419 -0.5671  0.3845
  310MOL0     O42678  11.515   6.853   4.337 -0.3086  0.2861 -0.9179
  310MOL0     C42679  11.466   6.856   4.198 -0.9020 -0.0120 -0.2245
  310MOL0     C42680  11.590   6.874   4.112 -0.2400  0.3016 -0.5569
  310MOL0     C42681  11.559   6.939   3.976 -0.6528  0.1590  0.1862
  310MOL0     C42682  11.689   6.928   3.889 -0.2293  0.6672 -0.0578
  310MOL0     C42683  11.804   6.998   3.943  0.5751 -0.0843  0.2864
  310MOL0     C42684  11.917   6.986   3.838 -0.4214  1.0469  0.3209
  310MOL0     C42685  12.034   7.080   3.873  0.7077 -0.0666 -0.5598
  310MOL0     C42686  12.130   7.061   3.757 -0.7815 -0.1338 -0.2306
  310MOL0    Cl42687  12.273   7.173   3.791  0.2955 -0.0046  0.0915
  310MOL0     C42688  11.519   6.968   4.541  0.1334  0.0216  0.4387
  310MOL0     C42689  11.461   7.011   4.662  0.4854  0.3427 -0.2255
  310MOL0     O42690  11.173   7.233   4.679  0.3404 -0.2336 -0.2887
  310MOL0     C42691  11.021   7.265   4.928 -0.0409  1.1176 -0.2658
  310MOL0     C42692  10.984   7.336   5.044 -0.8651  0.4728 -0.6357
  310MOL0     N42693  10.564   7.830   5.518  0.0098  0.1079 -0.2712
  310MOL0     N42694  10.490   7.907   5.588 -0.5890  0.1481 -0.2216
  310MOL0     C42695   9.474   8.536   5.628  0.3606 -0.1278 -0.4241
  310MOL0     C42696   9.329   8.552   5.601  0.5471  0.1692 -0.3603
  310MOL0     C42697   8.940   8.537   5.390  0.1105  0.2690 -0.1835
  310MOL0     C42698   8.906   8.570   5.260  0.6939  0.3128 -0.6370
  310MOL0     C42699   8.778   8.592   5.225  0.5508  0.1177 -0.2928
  310MOL0     C42700   8.673   8.570   5.313 -0.7391 -0.7715 -0.5887
  310MOL0     O42701   8.544   8.572   5.271 -0.4577 -0.0796  0.1059
  310MOL0     C42702   8.467   8.463   5.306  0.1371  0.3026  0.9297
  310MOL0     C42703   8.353   8.461   5.198  0.4247 -0.1221  0.1702
  310MOL0     C42704   8.275   8.592   5.193 -0.3290 -0.1467 -0.7342
  310MOL0     C42705   8.132   8.576   5.139  0.0303 -0.4639  0.2025
  310MOL0     C42706   8.031   8.513   5.226 -0.3163  0.4093 -0.2171
  310MOL0     C42707   7.941   8.477   5.299  0.3825 -0.6460  0.3089
  310MOL0     C42708   8.709   8.533   5.444 -0.5629  0.7185 -0.7304
  310MOL0     C42709   8.844   8.518   5.488 -0.1642 -0.1035  0.2917
  310MOL0     C42710   8.854   8.504   5.637 -0.3120 -0.8270  0.3560
  310MOL0     H42711   9.238   8.224   5.583  2.6817 -1.6377 -2.1533
  310MOL0     H42712   9.479   8.192   5.667  0.3244 -0.6669  0.1137
  310MOL0     H42713   9.687   8.308   5.501  1.1167 -2.2608  0.2455
  310MOL0     H42714   9.765   8.222   5.625 -1.2282 -0.0967 -1.0222
  310MOL0     H42715   9.894   8.383   5.481  2.8807  0.0427  0.2177
  310MOL0     H42716   9.837   8.519   5.587  2.6724  0.2045  1.4405
  310MOL0     H42717  10.031   8.478   5.668 -0.1463  0.7314  0.6722
  310MOL0     H42718   9.932   8.385   5.780 -1.4871 -1.4679 -0.4345
  310MOL0     H42719   9.993   8.172   5.657  0.5359 -0.8590  1.7668
  310MOL0     H42720  10.078   8.277   5.534  0.7442 -1.2305  0.0185
  310MOL0     H42721  10.142   8.265   5.818  0.2445 -0.6599 -0.0954
  310MOL0     H42722  10.233   8.352   5.700  0.7382 -0.7290  2.5108
  310MOL0     H42723  10.241   8.046   5.747  0.1688  0.7989  0.7060
  310MOL0     H42724  10.280   8.110   5.596  1.0666 -1.0411  0.8240
  310MOL0     H42725  10.396   8.240   5.844 -3.1665  1.2251 -0.3513
  310MOL0     H42726  10.471   8.248   5.688 -0.8964  1.8778  1.1243
  310MOL0     H42727  10.617   8.119   5.804  1.2969 -1.1368 -1.0504
  310MOL0     H42728  10.493   8.004   5.872  1.8206  2.2947  2.2849
  310MOL0     H42729  10.782   7.976   5.707 -1.2522  1.8033 -0.0407
  310MOL0     H42730  10.826   7.700   5.619 -0.3049 -0.1105  0.0083
  310MOL0     H42731  10.905   7.827   5.510  2.4278 -2.5747  1.2212
  310MOL0     H42732  10.725   7.615   5.411 -0.1115 -0.0696 -1.3792
  310MOL0     H42733  10.806   7.733   5.315  0.2863  1.5915  0.6026
  310MOL0     H42734  11.036   7.647   5.399 -0.7382  2.0208 -3.1269
  310MOL0     H42735  10.946   7.527   5.495  0.6803 -0.3639  0.5463
  310MOL0     H42736  10.849   7.411   5.312  2.6974 -3.1682  2.2970
  310MOL0     H42737  10.897   7.543   5.197  1.5580  1.0537  0.4947
  310MOL0     H42738  11.268   7.337   5.218  1.9876 -1.7751 -0.5378
  310MOL0     H42739  11.460   7.217   5.049  1.4023  0.1399 -0.8455
  310MOL0     H42740  11.437   7.388   5.019  3.0318 -0.0391 -1.7592
  310MOL0     H42741  11.434   7.275   4.883 -0.6894 -0.0360 -0.3108
  310MOL0     H42742  11.138   6.932   4.607  0.3641 -1.3203 -1.4980
  310MOL0     H42743  11.241   6.838   4.394  1.1075 -0.2647 -0.0583
  310MOL0     H42744  11.405   6.770   4.169 -2.6045  0.7923  0.8718
  310MOL0     H42745  11.397   6.939   4.189  0.0529  0.8983  0.5904
  310MOL0     H42746  11.660   6.936   4.169  0.7620 -0.3719 -1.0404
  310MOL0     H42747  11.626   6.772   4.099  3.7563  1.2282  1.5938
  310MOL0     H42748  11.526   7.043   3.974  2.9014  1.4189  0.6647
  310MOL0     H42749  11.490   6.876   3.919  1.0349 -2.1821  0.5393
  310MOL0     H42750  11.670   6.986   3.798  1.7078 -0.3586 -1.1932
  310MOL0     H42751  11.708   6.825   3.859 -0.2312  1.4016 -2.8727
  310MOL0     H42752  11.788   7.103   3.968 -1.4136  0.1660 -1.7572
  310MOL0     H42753  11.824   6.954   4.041 -3.1244 -1.5948  0.5428
  310MOL0     H42754  11.883   7.019   3.739 -0.6950  2.7926  0.9610
  310MOL0     H42755  11.953   6.883   3.824  1.4363  1.7843 -0.6822
  310MOL0     H42756  12.077   7.042   3.966  1.6215  1.8553 -0.1536
  310MOL0     H42757  11.995   7.182   3.887 -1.5126 -0.7195 -1.5448
  310MOL0     H42758  12.088   7.089   3.661  0.4152 -0.0203 -0.7395
  310MOL0     H42759  12.179   6.964   3.746 -0.2695  0.1442 -0.4107
  310MOL0     H42760  11.622   6.998   4.523  0.2367 -0.5097  0.1261
  310MOL0     H42761  11.526   7.067   4.728 -1.2577 -1.3991  3.2419
  310MOL0     H42762  10.939   7.234   4.865 -3.3853  3.7857  2.3873
  310MOL0     H42763  10.879   7.362   5.032 -1.1141 -1.0218 -1.9572
  310MOL0     H42764   9.534   8.626   5.621  0.8720 -0.3896  0.3858
  310MOL0     H42765   9.285   8.650   5.585  1.6960  0.9864  1.1928
  310MOL0     H42766   8.980   8.573   5.181 -0.2433 -0.0159 -1.5559
  310MOL0     H42767   8.745   8.610   5.123  1.2987 -0.5520 -0.6702
  310MOL0     H42768   8.515   8.364   5.299 -0.9227 -0.1913  0.4695
  310MOL0     H42769   8.429   8.482   5.407 -0.3231  1.5270  0.5431
  310MOL0     H42770   8.284   8.377   5.212 -0.4787  0.3544 -1.1541
  310MOL0     H42771   8.397   8.446   5.099  1.5425  0.4545  0.5735
  310MOL0     H42772   8.265   8.651   5.285  0.4075 -0.3967 -0.4925
  310MOL0     H42773   8.334   8.662   5.133 -1.1089  1.4299  0.2458
  310MOL0     H42774   8.136   8.525   5.042 -1.0098 -0.1889  0.0009
  310MOL0     H42775   8.082   8.673   5.126 -0.6165 -1.0663 -2.3858
  310MOL0     H42776   7.871   8.440   5.372  0.1619  1.3440  1.1676
  310MOL0     H42777   8.625   8.531   5.514 -0.0627 -1.2821 -0.1084
  310MOL0     H42778   8.915   8.586   5.676 -1.1898  0.8323 -1.5840
  310MOL0     H42779   8.753   8.511   5.677 -0.3529 -1.5736  0.3991
  310MOL0     H42780   8.903   8.409   5.662 -0.1491 -1.5440 -2.4405
  311MOL0     O42781   9.062   4.738   4.438  0.1060 -0.4861  0.0053
  311MOL0     C42782   9.062   4.840   4.373 -0.3993 -0.4141  0.2680
  311MOL0     O42783   8.961   4.931   4.362  0.8275 -0.7931 -0.6818
  311MOL0     C42784   8.854   4.931   4.457  0.6090  0.4975  0.7370
  311MOL0     C42785   8.869   4.900   4.592  0.0273  0.9049 -0.1860
  311MOL0     C42786   8.760   4.898   4.682  0.2926  0.4076 -0.0820
  311MOL0     C42787   8.636   4.940   4.637  0.2036  0.5095  0.0864
  311MOL0     O42788   8.520   4.958   4.712  0.0974  0.2563  0.2169
  311MOL0     C42789   8.522   4.911   4.846 -0.1316  1.1507 -0.4137
  311MOL0     C42790   8.389   4.915   4.924 -0.0476 -0.4762 -0.0743
  311MOL0     C42791   8.299   4.813   4.854 -0.8233 -0.2570 -1.3572
  311MOL0     C42792   8.164   4.796   4.911  0.6812  0.0920  0.3181
  311MOL0     C42793   8.100   4.659   4.879  0.3135 -0.4756 -0.0535
  311MOL0     C42794   7.957   4.646   4.936  0.6379  0.4021  0.1142
  311MOL0     C42795   7.914   4.492   4.941  0.3180 -0.0329  0.3644
  311MOL0     C42796   7.774   4.459   5.009 -0.4044  0.5022  0.2655
  311MOL0     N42797   7.670   4.473   4.910  0.1311  0.2865 -0.1229
  311MOL0     C42798   7.585   4.580   4.903  0.4032 -0.0806 -0.8581
  311MOL0     C42799   7.514   4.568   4.787 -0.8855  0.1419  0.3596
  311MOL0     C42800   7.406   4.658   4.732 -0.7032  0.8410  0.4273
  311MOL0     C42801   7.466   4.789   4.684 -0.3943  0.2396  0.0177
  311MOL0     C42802   7.581   4.773   4.577  0.2741  0.0479 -0.7816
  311MOL0     C42803   7.587   4.903   4.494  0.0332 -0.8322 -0.8307
  311MOL0     O42804   7.647   5.016   4.566  0.9857 -0.2351  0.2397
  311MOL0     C42805   7.780   5.018   4.591  0.1909  0.4479 -0.5926
  311MOL0     C42806   7.872   4.935   4.520 -0.1703 -0.4010 -0.4910
  311MOL0     C42807   8.012   4.963   4.514  0.5956  0.2934 -0.3817
  311MOL0     C42808   8.095   4.874   4.435  0.1548  0.6991 -0.2426
  311MOL0     C42809   8.064   5.072   4.588 -0.3006 -1.1076 -0.2448
  311MOL0     C42810   8.208   5.109   4.591  0.6602 -0.4051  0.0325
  311MOL0     O42811   8.242   5.195   4.694  0.1812 -0.4693  0.0418
  311MOL0     C42812   8.369   5.248   4.706 -0.7363 -0.4378  0.2553
  311MOL0     C42813   8.439   5.271   4.827 -1.0286 -0.0931  1.0119
  311MOL0     C42814   8.570   5.336   4.825  0.0213  0.4412  0.1026
  311MOL0     C42815   8.626   5.368   4.698 -0.3080  0.3018  0.0722
  311MOL0     O42816   8.751   5.430   4.687 -0.0059  0.3398  0.2956
  311MOL0     C42817   8.864   5.367   4.751 -1.0836 -0.3358  0.4266
  311MOL0     C42818   8.911   5.245   4.660 -0.2265  0.0501 -0.4033
  311MOL0     C42819   8.927   5.291   4.512 -0.2555 -0.0718 -0.2624
  311MOL0     C42820   9.054   5.242   4.449  0.1763 -0.4897  0.2709
  311MOL0     C42821   9.183   5.315   4.470 -0.5087 -0.7711 -0.4810
  311MOL0     C42822   9.266   5.296   4.599  0.4668  0.2179 -0.5400
  311MOL0     C42823   9.388   5.201   4.581  0.4960  0.1050 -0.3457
  311MOL0     C42824   9.357   5.062   4.526  0.4233  0.4223  0.1024
  311MOL0    Cl42825   9.254   4.981   4.662  0.5122 -0.2765 -0.0440
  311MOL0     C42826   8.549   5.361   4.583  0.4705  0.0033  0.1737
  311MOL0     C42827   8.416   5.307   4.586 -0.1616 -1.3081 -0.0500
  311MOL0     O42828   8.277   5.065   4.507  0.5687 -0.1865  1.1397
  311MOL0     C42829   7.974   5.143   4.680 -0.6181  0.4028 -0.6639
  311MOL0     C42830   7.837   5.124   4.669 -0.4278 -0.3938 -0.4161
  311MOL0     N42831   7.567   4.455   4.722  0.3746  0.7957  0.1840
  311MOL0     N42832   7.664   4.400   4.797  0.8654  0.3638 -0.0799
  311MOL0     C42833   8.612   4.968   4.496  0.6480 -0.0905 -0.7397
  311MOL0     C42834   8.723   4.963   4.411 -0.0081  1.0293  0.5113
  311MOL0     C42835   9.182   4.873   4.291 -0.1099 -0.7752  0.3434
  311MOL0     C42836   9.180   4.995   4.221 -0.8141 -0.5014 -0.8916
  311MOL0     C42837   9.293   5.038   4.153 -0.5719  0.2422  0.9777
  311MOL0     C42838   9.410   4.963   4.140 -0.2868  0.7456  0.2381
  311MOL0     O42839   9.528   4.995   4.078  0.4497 -0.2166  0.1821
  311MOL0     C42840   9.550   5.139   4.077 -0.3808  0.3551  0.3170
  311MOL0     C42841   9.703   5.171   4.045  0.8608  0.0914  1.5374
  311MOL0     C42842   9.812   5.121   4.145  0.4536  0.8740 -0.4515
  311MOL0     C42843   9.805   5.201   4.270 -0.4225 -0.7031 -0.4993
  311MOL0     C42844   9.924   5.176   4.362  1.1287 -0.6797 -0.1190
  311MOL0     C42845  10.024   5.156   4.428  0.9859 -0.2843  0.7803
  311MOL0     C42846   9.408   4.841   4.203  0.8802  0.6597 -0.2345
  311MOL0     C42847   9.304   4.794   4.284  0.3026 -0.3633  0.4914
  311MOL0     C42848   9.325   4.654   4.324  0.2891  0.0164 -0.4366
  311MOL0     H42849   8.967   4.881   4.635 -0.7079  0.6184  1.4522
  311MOL0     H42850   8.784   4.860   4.781 -1.3906 -2.2693 -0.5960
  311MOL0     H42851   8.585   4.973   4.910  1.8431 -1.3108  0.1753
  311MOL0     H42852   8.552   4.806   4.846  0.3226  1.2638  0.9304
  311MOL0     H42853   8.418   4.897   5.028  0.0617  0.5046  0.0713
  311MOL0     H42854   8.344   5.014   4.917 -0.2865 -0.6661 -1.6452
  311MOL0     H42855   8.305   4.810   4.745  0.4513  0.4143 -1.3231
  311MOL0     H42856   8.350   4.719   4.880 -0.1065  0.8486  1.7302
  311MOL0     H42857   8.165   4.817   5.019 -0.8531  1.2731  0.1463
  311MOL0     H42858   8.101   4.876   4.870  1.7437  1.2489  0.8562
  311MOL0     H42859   8.166   4.583   4.923 -0.2633  0.4853  2.6624
  311MOL0     H42860   8.103   4.650   4.770 -1.1071  3.8257 -0.6098
  311MOL0     H42861   7.960   4.689   5.037 -0.1787 -3.1283  1.8015
  311MOL0     H42862   7.888   4.702   4.873 -0.4631  1.1492  1.8893
  311MOL0     H42863   7.990   4.442   5.000  1.0153 -0.4263 -0.8339
  311MOL0     H42864   7.920   4.446   4.842 -1.7821  0.5640 -0.1066
  311MOL0     H42865   7.788   4.355   5.038  0.4117 -0.0320 -1.8516
  311MOL0     H42866   7.752   4.524   5.095 -0.0367  1.6122 -0.4537
  311MOL0     H42867   7.563   4.652   4.981  1.1824  0.7226 -1.3594
  311MOL0     H42868   7.336   4.690   4.809  1.1878 -0.6311  2.9264
  311MOL0     H42869   7.365   4.608   4.644  2.1394  0.7269 -0.9500
  311MOL0     H42870   7.376   4.845   4.658 -2.7062 -2.6513  1.2230
  311MOL0     H42871   7.519   4.825   4.772  0.2446 -2.2961  0.7555
  311MOL0     H42872   7.672   4.750   4.633 -1.4167 -1.0743  1.6958
  311MOL0     H42873   7.549   4.691   4.512 -0.6231  1.0046 -1.5904
  311MOL0     H42874   7.630   4.894   4.394  1.9509  1.7313 -0.3559
  311MOL0     H42875   7.487   4.933   4.460  1.3791  2.0816 -2.6390
  311MOL0     H42876   7.847   4.862   4.443  6.1943 -2.2056 -1.3996
  311MOL0     H42877   8.172   4.836   4.503 -2.9900 -2.3660  1.9565
  311MOL0     H42878   8.131   4.911   4.339  1.1631 -4.8859 -2.3960
  311MOL0     H42879   8.038   4.786   4.407 -1.9660  1.6152  0.9366
  311MOL0     H42880   8.387   5.250   4.920  3.6063 -2.0983  3.5172
  311MOL0     H42881   8.636   5.356   4.909 -0.1980 -1.3654  0.7509
  311MOL0     H42882   8.943   5.442   4.761 -1.2106  0.1572 -1.7386
  311MOL0     H42883   8.838   5.328   4.849  0.4061 -1.1903  0.5223
  311MOL0     H42884   9.004   5.204   4.699  0.4168  3.9070  2.6820
  311MOL0     H42885   8.835   5.166   4.658 -2.2394  1.8635  0.5704
  311MOL0     H42886   8.929   5.400   4.515 -1.0054 -0.0368  3.0787
  311MOL0     H42887   8.838   5.257   4.458 -1.0215  1.8909 -0.3008
  311MOL0     H42888   9.045   5.238   4.340  4.1433 -0.4765 -0.1891
  311MOL0     H42889   9.066   5.138   4.479  0.2294 -0.9030 -1.1146
  311MOL0     H42890   9.259   5.293   4.394  2.2319  2.5030  1.0260
  311MOL0     H42891   9.168   5.423   4.466  1.6171 -0.3574  0.7603
  311MOL0     H42892   9.212   5.272   4.691  3.8234 -3.2198  0.8048
  311MOL0     H42893   9.313   5.393   4.617  2.4163 -0.6961 -0.4809
  311MOL0     H42894   9.445   5.201   4.675 -1.9580  1.3845  1.2478
  311MOL0     H42895   9.455   5.245   4.506 -0.1937  1.0585 -0.4066
  311MOL0     H42896   9.447   5.002   4.513  0.0321 -1.2504  3.6452
  311MOL0     H42897   9.301   5.071   4.433 -0.8548  0.3438  0.8360
  311MOL0     H42898   8.578   5.409   4.490  0.5308 -0.5588 -0.0964
  311MOL0     H42899   8.348   5.312   4.502 -1.2602 -1.4795  0.8029
  311MOL0     H42900   8.016   5.214   4.751  2.3691 -0.5529 -1.2886
  311MOL0     H42901   7.762   5.177   4.727  1.8044 -0.8712  3.2666
  311MOL0     H42902   8.511   4.982   4.460 -0.2764 -3.8483 -0.0376
  311MOL0     H42903   8.720   4.980   4.303  4.3791 -2.3405 -0.4075
  311MOL0     H42904   9.092   5.057   4.237 -2.1311 -2.3498 -0.6110
  311MOL0     H42905   9.297   5.135   4.106  1.7382 -0.6022 -0.7880
  311MOL0     H42906   9.483   5.168   3.995  3.5000  2.4260 -2.4028
  311MOL0     H42907   9.520   5.181   4.174  2.0896 -0.9007  1.7157
  311MOL0     H42908   9.703   5.279   4.031 -2.3279 -0.0246 -0.3923
  311MOL0     H42909   9.725   5.124   3.949 -0.9728  4.1072 -1.1195
  311MOL0     H42910   9.800   5.012   4.155 -2.6474  1.1599 -0.0608
  311MOL0     H42911   9.902   5.142   4.086 -0.8555  1.7981 -2.2198
  311MOL0     H42912   9.704   5.187   4.309 -1.2245  0.4772 -1.9881
  311MOL0     H42913   9.802   5.309   4.252 -2.4243 -0.2388  2.0714
  311MOL0     H42914  10.110   5.120   4.481  0.5411 -0.6361  1.2761
  311MOL0     H42915   9.503   4.791   4.184  2.0453  3.3533 -2.2320
  311MOL0     H42916   9.347   4.645   4.431  0.9220 -0.7788 -0.6231
  311MOL0     H42917   9.230   4.601   4.312 -1.0282  1.7843  1.4449
  311MOL0     H42918   9.402   4.600   4.268 -0.5110 -2.7335  0.9137
  312MOL0     O42919   8.745   8.158   8.721  0.7395  0.1047  0.4653
  312MOL0     C42920   8.664   8.133   8.635 -0.0056  0.2080 -0.0247
  312MOL0     O42921   8.688   8.146   8.499  0.0113 -0.2726 -0.2108
  312MOL0     C42922   8.811   8.197   8.477  0.1569 -0.3972  0.4861
  312MOL0     C42923   8.928   8.122   8.489  0.9890 -0.0738 -0.1327
  312MOL0     C42924   9.053   8.186   8.455  0.0185 -0.4579 -1.0276
  312MOL0     C42925   9.061   8.319   8.428 -0.2380 -0.0768  0.1603
  312MOL0     O42926   9.193   8.360   8.409 -0.2936  0.1825 -0.0718
  312MOL0     C42927   9.200   8.487   8.329 -0.3479 -0.5283  0.2966
  312MOL0     C42928   9.212   8.605   8.429  0.2562 -0.9049 -0.2608
  312MOL0     C42929   9.347   8.682   8.418  0.8640 -0.4871 -0.6088
  312MOL0     C42930   9.367   8.770   8.546 -0.8003 -0.2942  0.0703
  312MOL0     C42931   9.493   8.850   8.514 -0.4692  0.3340  0.5863
  312MOL0     C42932   9.556   8.934   8.627  0.3879  0.1392  0.7252
  312MOL0     C42933   9.450   9.002   8.726 -0.9256 -0.9827  0.5811
  312MOL0     C42934   9.493   8.979   8.872  0.6303 -0.1691  0.4667
  312MOL0     N42935   9.623   9.024   8.920 -0.6517 -0.0226 -0.7807
  312MOL0     C42936   9.659   9.154   8.944 -0.3678 -0.2254  0.8624
  312MOL0     C42937   9.779   9.149   8.993 -0.0818 -0.2663 -0.0381
  312MOL0     C42938   9.852   9.276   9.031  0.0143  0.2870 -1.1368
  312MOL0     C42939   9.958   9.262   9.141  0.4490 -0.5907  0.3920
  312MOL0     C42940  10.086   9.200   9.080  0.2199  0.4127 -0.1240
  312MOL0     C42941  10.204   9.242   9.171  0.3322  0.0528  0.1138
  312MOL0     O42942  10.325   9.207   9.108 -0.0222  0.6484 -0.3021
  312MOL0     C42943  10.439   9.235   9.180 -0.2436 -0.8502  0.1221
  312MOL0     C42944  10.560   9.257   9.103 -0.9890  0.1438 -0.0785
  312MOL0     C42945  10.682   9.304   9.156  0.3291 -1.1169 -0.6108
  312MOL0     C42946  10.798   9.293   9.072 -0.4195  0.2805  0.0299
  312MOL0     C42947  10.686   9.339   9.294  0.5543  0.4037 -0.7166
  312MOL0     C42948  10.814   9.379   9.372  0.4687  0.0636 -1.0491
  312MOL0     O42949  10.924   9.417   9.305  0.2334  0.1818  0.5372
  312MOL0     C42950  11.040   9.456   9.357  0.2190  0.2403  0.5457
  312MOL0     C42951  11.084   9.446   9.488  0.5088  0.3683 -0.7200
  312MOL0     C42952  11.204   9.510   9.532  0.5596 -1.4171  0.4451
  312MOL0     C42953  11.287   9.577   9.434  1.1352  0.8482 -0.3482
  312MOL0     O42954  11.401   9.629   9.481  0.2856 -0.5061 -0.4944
  312MOL0     C42955  11.454   9.736   9.397  0.6400  0.3989 -1.0614
  312MOL0     C42956  11.371   9.862   9.395  0.3974 -0.0594 -0.1649
  312MOL0     C42957  11.368   9.930   9.529  0.7926  0.8787  0.6650
  312MOL0     C42958  11.322  10.072   9.514 -0.3772 -0.5217 -1.1418
  312MOL0     C42959  11.314  10.137   9.661  0.1042 -0.4822  0.2139
  312MOL0     C42960  11.242  10.272   9.651  0.2763 -0.0952 -0.1395
  312MOL0     C42961  11.247  10.364   9.774 -0.1525 -0.4371 -0.2759
  312MOL0     C42962  11.160  10.297   9.875 -0.4546 -0.3260 -0.4742
  312MOL0    Cl42963  10.995  10.365   9.885  0.2334 -0.5064  0.0201
  312MOL0     C42964  11.258   9.558   9.300  0.4115 -0.8428  0.4707
  312MOL0     C42965  11.138   9.494   9.266  0.3989  0.1764 -0.2508
  312MOL0     O42966  10.803   9.378   9.495 -0.0267 -0.1527  0.4513
  312MOL0     C42967  10.566   9.325   9.369 -0.5019 -0.2553 -0.9649
  312MOL0     C42968  10.445   9.275   9.313  0.3546 -0.4098  0.0696
  312MOL0     N42969   9.810   9.019   9.017 -0.9706 -0.1025 -0.0491
  312MOL0     N42970   9.717   8.941   8.974  0.6662 -0.5772  0.1290
  312MOL0     C42971   8.942   8.399   8.420 -0.6167  1.1489 -0.8040
  312MOL0     C42972   8.820   8.334   8.444 -0.1095  0.0538  0.6384
  312MOL0     C42973   8.525   8.107   8.685  0.3058  0.2329  1.0887
  312MOL0     C42974   8.504   8.083   8.824 -0.0843  0.8400 -0.1922
  312MOL0     C42975   8.374   8.057   8.881 -0.4146  0.0535  0.2876
  312MOL0     C42976   8.264   8.072   8.801  0.2844 -0.0135  0.3248
  312MOL0     O42977   8.134   8.040   8.837  0.6230 -0.2903 -1.0184
  312MOL0     C42978   8.091   8.091   8.968  0.8179  1.0750 -0.0993
  312MOL0     C42979   7.937   8.076   8.972  0.2704 -0.0104  0.4662
  312MOL0     C42980   7.857   8.200   8.926 -0.2927  0.2225  0.7548
  312MOL0     C42981   7.711   8.160   8.919  0.5556 -0.5871 -0.8042
  312MOL0     C42982   7.623   8.268   8.881 -0.5261 -0.7548  0.4774
  312MOL0     C42983   7.549   8.354   8.834  0.1560  0.7000 -0.1830
  312MOL0     C42984   8.281   8.092   8.661 -0.1669 -0.1919 -0.8353
  312MOL0     C42985   8.406   8.113   8.606 -0.5557 -0.2750  0.2627
  312MOL0     C42986   8.413   8.160   8.461 -0.3854  0.5821  0.5780
  312MOL0     H42987   8.919   8.019   8.520  1.9443 -0.6042 -1.5180
  312MOL0     H42988   9.147   8.136   8.474 -1.0411 -1.5863  1.8001
  312MOL0     H42989   9.118   8.485   8.256 -0.7665 -1.0487  0.7715
  312MOL0     H42990   9.296   8.479   8.277 -1.0749 -1.6077 -0.9424
  312MOL0     H42991   9.136   8.683   8.412  0.9120  0.2473  1.7366
  312MOL0     H42992   9.185   8.570   8.529 -1.5121 -1.0726 -0.7548
  312MOL0     H42993   9.424   8.604   8.425 -1.0602 -2.3033  3.2679
  312MOL0     H42994   9.351   8.751   8.333  1.6857  0.3595  0.0940
  312MOL0     H42995   9.278   8.827   8.575  0.1178  3.2090 -3.1837
  312MOL0     H42996   9.382   8.698   8.627  1.8101 -0.4026 -0.4096
  312MOL0     H42997   9.474   8.914   8.428  4.4298 -2.1483 -2.7983
  312MOL0     H42998   9.569   8.785   8.470  0.0204  1.7547 -0.7511
  312MOL0     H42999   9.614   8.865   8.689  1.3615  2.8525  3.0640
  312MOL0     H43000   9.627   9.005   8.584 -0.3919  0.9473  0.7394
  312MOL0     H43001   9.349   8.967   8.702 -0.2470 -1.2043 -2.2145
  312MOL0     H43002   9.448   9.111   8.716  1.0372 -0.9819 -0.3136
  312MOL0     H43003   9.423   9.028   8.941  3.4769  2.4963  1.6762
  312MOL0     H43004   9.479   8.872   8.888 -1.0748 -0.1321 -0.5152
  312MOL0     H43005   9.608   9.248   8.926  1.0725  0.8875  2.3476
  312MOL0     H43006   9.773   9.344   9.064 -1.5676 -1.1010 -1.9434
  312MOL0     H43007   9.897   9.322   8.942  0.4545  0.3778 -0.8698
  312MOL0     H43008   9.977   9.358   9.190  2.0551 -0.1769 -0.9411
  312MOL0     H43009   9.914   9.197   9.217  0.6116  0.5887  1.5304
  312MOL0     H43010  10.073   9.092   9.084 -3.0230  0.5850 -2.3781
  312MOL0     H43011  10.110   9.242   8.982  0.7950  0.9436  0.2347
  312MOL0     H43012  10.200   9.348   9.195  0.7153  0.7888 -2.6877
  312MOL0     H43013  10.187   9.179   9.259  1.2314 -1.0648 -0.4887
  312MOL0     H43014  10.544   9.231   8.999 -0.0582  0.0693 -0.2154
  312MOL0     H43015  10.859   9.384   9.065  1.7272 -0.9753  1.3615
  312MOL0     H43016  10.785   9.250   8.973  2.3489 -0.5724 -0.0457
  312MOL0     H43017  10.865   9.226   9.126  0.9576  1.4943 -0.0850
  312MOL0     H43018  11.014   9.408   9.562 -0.3774 -1.1295 -2.2638
  312MOL0     H43019  11.232   9.514   9.636  0.7635 -1.7012  0.4046
  312MOL0     H43020  11.556   9.759   9.430  0.4826  0.5909 -0.7081
  312MOL0     H43021  11.478   9.712   9.293  1.1314 -0.5393 -0.7505
  312MOL0     H43022  11.414   9.925   9.317  1.7957 -0.9367 -0.1397
  312MOL0     H43023  11.269   9.843   9.359  0.2404  0.0778  0.1960
  312MOL0     H43024  11.472   9.933   9.563  1.3957  0.0917 -1.0146
  312MOL0     H43025  11.318   9.880   9.613  0.6271  0.3346  0.2471
  312MOL0     H43026  11.220  10.076   9.475 -1.2914 -0.6517  1.1077
  312MOL0     H43027  11.389  10.131   9.450 -0.5391  0.5469 -0.3571
  312MOL0     H43028  11.261  10.075   9.735 -0.0262 -0.5980  0.0249
  312MOL0     H43029  11.416  10.150   9.698 -0.4354  0.0124  1.5856
  312MOL0     H43030  11.139  10.254   9.622 -0.5915  1.0870  1.9734
  312MOL0     H43031  11.280  10.327   9.565 -1.0584 -0.3970 -0.9390
  312MOL0     H43032  11.203  10.458   9.739  1.6353 -0.1568 -1.9893
  312MOL0     H43033  11.349  10.384   9.808 -0.9047 -0.2776  2.0806
  312MOL0     H43034  11.218  10.318   9.965  1.8426  1.2628 -2.2105
  312MOL0     H43035  11.150  10.188   9.870 -0.4406 -0.2894 -1.3624
  312MOL0     H43036  11.317   9.600   9.220 -0.5667  0.6331  0.4901
  312MOL0     H43037  11.105   9.482   9.163  0.8029  2.0384 -0.6462
  312MOL0     H43038  10.568   9.351   9.474  2.6694  1.2243 -1.2403
  312MOL0     H43039  10.359   9.266   9.378 -0.2023  0.1687 -0.5695
  312MOL0     H43040   8.946   8.506   8.403 -1.5820  1.3475  0.1172
  312MOL0     H43041   8.733   8.399   8.441  1.8721  2.9622 -4.2640
  312MOL0     H43042   8.582   8.082   8.900 -2.5000 -1.2035  2.5002
  312MOL0     H43043   8.368   8.027   8.985 -0.8465 -0.7746  0.0326
  312MOL0     H43044   8.137   8.040   9.053 -0.3088  0.6952  0.2933
  312MOL0     H43045   8.112   8.198   8.982  0.0661  1.2263 -0.1036
  312MOL0     H43046   7.920   8.048   9.076  3.8875 -0.4611  1.0357
  312MOL0     H43047   7.926   7.992   8.902  1.9707 -2.0540  2.5001
  312MOL0     H43048   7.881   8.284   8.992 -0.3783  0.0709  0.9801
  312MOL0     H43049   7.906   8.228   8.832  1.5863  0.8293  1.8608
  312MOL0     H43050   7.680   8.133   9.021  0.8608  1.5540 -0.0871
  312MOL0     H43051   7.693   8.071   8.858 -0.6151 -1.9871  1.4429
  312MOL0     H43052   7.473   8.414   8.788  1.3258  1.0349 -1.7407
  312MOL0     H43053   8.196   8.103   8.594 -0.4742 -0.2400 -0.4528
  312MOL0     H43054   8.467   8.255   8.455  0.1899  0.2055 -0.4197
  312MOL0     H43055   8.458   8.084   8.397  1.4574  0.3680  2.0296
  312MOL0     H43056   8.319   8.188   8.413  0.2246 -0.2714 -1.1937
  313MOL0     O43057   0.055   1.671   4.595 -0.2067  0.5116 -0.0513
  313MOL0     C43058  -0.036   1.642   4.662  0.1927  0.5336 -0.8754
  313MOL0     O43059  -0.044   1.662   4.794 -0.2423  0.9077  0.0947
  313MOL0     C43060   0.025   1.763   4.859  0.8478 -0.7778 -0.0445
  313MOL0     C43061   0.101   1.726   4.975  0.0514  0.5353  0.2375
  313MOL0     C43062   0.176   1.821   5.041  0.4702  0.7128  0.4394
  313MOL0     C43063   0.171   1.954   4.989  0.1129 -0.1802  0.2243
  313MOL0     O43064   0.235   2.060   5.041 -0.0647  0.0458 -0.0952
  313MOL0     C43065   0.201   2.103   5.171 -0.4761  0.2641 -0.3088
  313MOL0     C43066   0.277   2.226   5.206  0.0094 -0.8705 -0.7809
  313MOL0     C43067   0.431   2.206   5.233  0.1531 -0.4143  0.5783
  313MOL0     C43068   0.489   2.334   5.302  0.7067  0.1938  0.2787
  313MOL0     C43069   0.633   2.329   5.336 -0.7636 -0.0901  0.3021
  313MOL0     C43070   0.670   2.467   5.397 -0.4338  0.4414  0.6357
  313MOL0     C43071   0.804   2.438   5.469  0.4534 -1.0167 -1.1438
  313MOL0     C43072   0.855   2.566   5.537  0.5224 -0.3338  0.2483
  313MOL0     N43073   0.984   2.558   5.593 -0.2788 -0.3951 -0.5261
  313MOL0     C43074   1.043   2.666   5.667 -0.6071 -0.4465  0.6655
  313MOL0     C43075   1.167   2.629   5.697  0.3846 -0.0769  0.5534
  313MOL0     C43076   1.263   2.711   5.787 -0.9041  0.2630  0.2939
  313MOL0     C43077   1.386   2.624   5.827  0.3450 -1.0388 -0.9168
  313MOL0     C43078   1.504   2.683   5.908  0.4134  0.6652 -0.3514
  313MOL0     C43079   1.449   2.755   6.035 -1.3351  0.8225 -0.5793
  313MOL0     O43080   1.564   2.797   6.120 -0.1558 -0.4713  0.7180
  313MOL0     C43081   1.636   2.703   6.189  0.7386  0.0809 -0.5337
  313MOL0     C43082   1.617   2.564   6.197 -0.0698  0.7112 -0.6011
  313MOL0     C43083   1.693   2.490   6.286 -0.1313  0.2234 -0.1495
  313MOL0     C43084   1.668   2.332   6.290  0.6286  0.6498  0.3260
  313MOL0     C43085   1.789   2.551   6.374  0.3107 -0.4648  0.9255
  313MOL0     C43086   1.874   2.474   6.464 -0.2262 -0.7640  0.5031
  313MOL0     O43087   2.003   2.522   6.476  0.3157  0.1698  0.3928
  313MOL0     C43088   2.087   2.438   6.535  0.8247 -0.1362 -0.5688
  313MOL0     C43089   2.068   2.388   6.669  0.6016  0.7882 -0.0911
  313MOL0     C43090   2.164   2.312   6.732 -0.0770  0.7197  0.2328
  313MOL0     C43091   2.278   2.269   6.657  0.0043 -0.3802 -0.5018
  313MOL0     O43092   2.360   2.186   6.724 -0.5215 -0.8796 -0.1688
  313MOL0     C43093   2.455   2.111   6.652  0.5645 -0.0191 -0.2286
  313MOL0     C43094   2.599   2.170   6.670 -0.1656  0.3771  0.2482
  313MOL0     C43095   2.653   2.136   6.807 -0.0035  0.8793  1.1306
  313MOL0     C43096   2.781   2.209   6.840  0.1764  0.6558  0.4936
  313MOL0     C43097   2.888   2.202   6.728 -0.1335 -0.2439  0.2295
  313MOL0     C43098   3.035   2.192   6.776  0.5001 -0.2846 -0.0525
  313MOL0     C43099   3.137   2.168   6.662 -1.4078  0.3750 -0.6348
  313MOL0     C43100   3.281   2.216   6.708  0.2536 -0.1637  0.1139
  313MOL0    Cl43101   3.296   2.385   6.692 -0.2155 -0.2907  0.0195
  313MOL0     C43102   2.294   2.315   6.522  0.1152 -0.2122  0.8526
  313MOL0     C43103   2.197   2.400   6.463 -0.0089 -0.7128  1.1179
  313MOL0     O43104   1.819   2.390   6.529 -0.0637  0.4234  0.2745
  313MOL0     C43105   1.811   2.686   6.354 -0.4373 -0.6097 -0.1298
  313MOL0     C43106   1.732   2.761   6.272  0.1577 -0.1702  0.3046
  313MOL0     N43107   1.185   2.499   5.660 -0.1000  0.7413  0.8731
  313MOL0     N43108   1.078   2.458   5.606 -0.2373 -0.3489  0.2093
  313MOL0     C43109   0.103   1.982   4.876  0.2964 -0.0566  0.2957
  313MOL0     C43110   0.028   1.892   4.805 -0.2339  0.5118 -0.3327
  313MOL0     C43111  -0.165   1.599   4.591 -0.4715 -0.0036 -0.1996
  313MOL0     C43112  -0.286   1.603   4.666  0.4106 -0.3856 -0.6736
  313MOL0     C43113  -0.413   1.570   4.620  0.3184  0.5059 -0.7041
  313MOL0     C43114  -0.426   1.512   4.492  0.4203  0.1143  0.0764
  313MOL0     O43115  -0.532   1.457   4.440  0.2147  0.2437 -0.7685
  313MOL0     C43116  -0.629   1.387   4.519 -0.2050 -0.7689 -0.2281
  313MOL0     C43117  -0.743   1.347   4.425 -0.7799 -0.0857 -0.8840
  313MOL0     C43118  -0.813   1.472   4.371 -1.1233 -0.2354 -0.4741
  313MOL0     C43119  -0.888   1.437   4.239 -0.4429  0.4382 -0.3580
  313MOL0     C43120  -0.937   1.558   4.175  0.2626  0.3271  0.2675
  313MOL0     C43121  -0.954   1.658   4.112 -0.2535  0.0301  0.2444
  313MOL0     C43122  -0.305   1.483   4.422 -0.3586 -0.1183 -0.0246
  313MOL0     C43123  -0.177   1.533   4.466  0.5385 -0.6879 -0.7231
  313MOL0     C43124  -0.054   1.503   4.379  0.5777  0.5150  1.2420
  313MOL0     H43125   0.117   1.619   4.985  0.1509  0.6437  1.4565
  313MOL0     H43126   0.224   1.781   5.130 -1.9779 -0.9460  1.0924
  313MOL0     H43127   0.229   2.022   5.239 -3.7265 -1.0932 -0.4280
  313MOL0     H43128   0.094   2.123   5.176 -0.2251  2.9457 -2.8457
  313MOL0     H43129   0.254   2.306   5.135  1.4644  0.5352  0.2625
  313MOL0     H43130   0.227   2.269   5.294  0.2080  1.7433 -1.8404
  313MOL0     H43131   0.455   2.125   5.304  1.6768  1.1173  1.8806
  313MOL0     H43132   0.494   2.185   5.147 -1.7885  0.2039 -1.0640
  313MOL0     H43133   0.480   2.419   5.233  1.4905 -0.6760 -0.9331
  313MOL0     H43134   0.432   2.363   5.391 -0.6620  2.1036 -1.1202
  313MOL0     H43135   0.695   2.318   5.247 -0.6543 -0.8316  0.4714
  313MOL0     H43136   0.640   2.246   5.407 -1.0922 -0.1365  0.2844
  313MOL0     H43137   0.682   2.538   5.314 -0.9795 -0.0556  0.1243
  313MOL0     H43138   0.604   2.514   5.470 -1.0170 -1.9054  1.6931
  313MOL0     H43139   0.881   2.412   5.396  2.7665 -1.1679  1.1641
  313MOL0     H43140   0.788   2.361   5.545 -2.3731  1.2253  0.7354
  313MOL0     H43141   0.860   2.633   5.450  0.2086 -1.7456 -0.8916
  313MOL0     H43142   0.791   2.604   5.617 -0.1963 -0.3922 -0.2815
  313MOL0     H43143   1.000   2.762   5.693 -1.5862 -1.1767  1.8497
  313MOL0     H43144   1.199   2.739   5.871 -0.3649 -0.3825  0.9271
  313MOL0     H43145   1.294   2.802   5.735  0.4524 -0.7949 -0.8145
  313MOL0     H43146   1.362   2.527   5.872  4.6023 -2.3096 -0.9934
  313MOL0     H43147   1.423   2.609   5.725 -1.1314  1.7660 -1.9775
  313MOL0     H43148   1.573   2.604   5.937  0.7590  1.3170  0.6388
  313MOL0     H43149   1.569   2.751   5.852  1.5108 -2.0796 -2.6891
  313MOL0     H43150   1.388   2.843   6.013 -3.5959 -0.0636  1.6819
  313MOL0     H43151   1.381   2.689   6.090 -2.0103  1.1343 -1.0217
  313MOL0     H43152   1.543   2.510   6.138 -1.3393  1.4808  0.2411
  313MOL0     H43153   1.650   2.290   6.390  1.2145  0.4104  0.3329
  313MOL0     H43154   1.752   2.276   6.249 -1.4444 -1.2657 -1.5998
  313MOL0     H43155   1.581   2.305   6.230  1.2942  0.5812 -0.6230
  313MOL0     H43156   1.983   2.423   6.726  0.4981  0.4545 -0.0393
  313MOL0     H43157   2.142   2.264   6.827  2.3878 -0.9495  0.0768
  313MOL0     H43158   2.460   2.008   6.690 -0.1413 -0.3711 -1.0518
  313MOL0     H43159   2.425   2.107   6.547  0.2174  3.0763 -0.3409
  313MOL0     H43160   2.653   2.113   6.594 -0.1012 -1.1164  1.3649
  313MOL0     H43161   2.582   2.276   6.650  0.2906  0.5516  0.7546
  313MOL0     H43162   2.675   2.029   6.795 -0.4563  0.7409  1.5399
  313MOL0     H43163   2.588   2.155   6.892  0.4117  0.3353  1.5869
  313MOL0     H43164   2.828   2.168   6.930  3.2863 -2.3951 -2.2319
  313MOL0     H43165   2.755   2.314   6.856  2.0612  1.1849  0.3853
  313MOL0     H43166   2.878   2.108   6.673  2.3431 -0.9913  0.9479
  313MOL0     H43167   2.882   2.289   6.662 -2.5787  1.2407  2.2268
  313MOL0     H43168   3.048   2.118   6.855 -0.0165 -0.1864  0.1330
  313MOL0     H43169   3.055   2.288   6.826 -0.2912 -1.3784  2.5075
  313MOL0     H43170   3.115   2.227   6.573 -1.0093  0.5649 -0.6069
  313MOL0     H43171   3.135   2.063   6.631 -3.4680  0.8631 -2.4211
  313MOL0     H43172   3.358   2.174   6.643  1.4239 -1.2703  2.1286
  313MOL0     H43173   3.298   2.189   6.812  1.7016 -0.3773 -0.1502
  313MOL0     H43174   2.383   2.296   6.464 -1.1232  0.4033 -1.3667
  313MOL0     H43175   2.209   2.435   6.361  1.1130  0.1842  1.5348
  313MOL0     H43176   1.877   2.744   6.417 -1.0756  0.1485 -0.1506
  313MOL0     H43177   1.757   2.867   6.272  4.2788 -0.9631  0.6230
  313MOL0     H43178   0.108   2.086   4.844  0.0343 -0.0884  0.1448
  313MOL0     H43179  -0.009   1.927   4.709 -2.0426  1.6402  0.7218
  313MOL0     H43180  -0.286   1.647   4.765 -0.2991 -0.7285 -0.5142
  313MOL0     H43181  -0.496   1.572   4.690  1.2889 -1.4087  0.5828
  313MOL0     H43182  -0.576   1.296   4.549  0.6383 -0.1998  0.0534
  313MOL0     H43183  -0.667   1.449   4.601 -1.3225 -0.9705 -0.5721
  313MOL0     H43184  -0.812   1.276   4.472  1.0649 -2.6582 -1.8234
  313MOL0     H43185  -0.698   1.283   4.349  0.1109  0.3842 -0.7677
  313MOL0     H43186  -0.873   1.517   4.450  1.0290  2.8191 -0.3937
  313MOL0     H43187  -0.738   1.549   4.347 -1.3124 -0.0057 -0.3234
  313MOL0     H43188  -0.973   1.371   4.254 -1.1267  1.5122  0.6179
  313MOL0     H43189  -0.820   1.389   4.167 -0.4280  2.1907 -1.5984
  313MOL0     H43190  -0.957   1.754   4.065  2.6882  0.4132  0.6468
  313MOL0     H43191  -0.305   1.432   4.326  6.0120 -3.5520  1.2418
  313MOL0     H43192  -0.002   1.597   4.357 -0.3259  0.5594 -0.9086
  313MOL0     H43193   0.009   1.421   4.416  2.0991  1.4087  0.7172
  313MOL0     H43194  -0.084   1.468   4.280  3.2414  1.1629  0.0944
  314MOL0     O43195   5.570   9.127   6.921 -0.5553  0.2799  0.4298
  314MOL0     C43196   5.483   9.218   6.922 -0.1103 -0.4746  0.9866
  314MOL0     O43197   5.512   9.351   6.901 -0.0954 -0.1973  0.3776
  314MOL0     C43198   5.638   9.389   6.857 -0.1475 -0.4176 -0.2377
  314MOL0     C43199   5.745   9.411   6.946 -0.1210 -0.3281 -0.1543
  314MOL0     C43200   5.876   9.442   6.894 -0.1178  0.2634  0.8553
  314MOL0     C43201   5.895   9.439   6.757 -0.3110  0.5706 -0.8297
  314MOL0     O43202   6.027   9.466   6.722 -0.2650  0.0844 -0.8654
  314MOL0     C43203   6.080   9.419   6.604  0.0418 -0.3679  0.3635
  314MOL0     C43204   6.231   9.438   6.606 -0.1699  0.2974 -0.2303
  314MOL0     C43205   6.256   9.570   6.534 -0.9902  0.2605  0.8805
  314MOL0     C43206   6.388   9.631   6.590  0.3986 -0.0797  0.2131
  314MOL0     C43207   6.417   9.764   6.515 -0.1439 -0.4519  0.0451
  314MOL0     C43208   6.548   9.835   6.532  0.1423 -0.1348 -0.9758
  314MOL0     C43209   6.568   9.872   6.679 -0.3271 -0.0695  0.7465
  314MOL0     C43210   6.691   9.954   6.682  0.5012  0.4684  0.3636
  314MOL0     N43211   6.813   9.875   6.718  0.7903 -0.1074 -0.3532
  314MOL0     C43212   6.829   9.807   6.836  0.4611  1.1059 -0.3702
  314MOL0     C43213   6.955   9.755   6.836  0.1602 -0.0694 -0.3376
  314MOL0     C43214   7.030   9.687   6.944  0.4895  0.4604 -0.2982
  314MOL0     C43215   7.169   9.743   6.976  0.3079 -0.1236  0.2112
  314MOL0     C43216   7.240   9.678   7.088  0.7692 -0.3117 -0.2919
  314MOL0     C43217   7.185   9.727   7.222  1.2754  0.4261  0.3582
  314MOL0     O43218   7.231   9.650   7.335 -0.3117  0.1389 -0.0957
  314MOL0     C43219   7.352   9.687   7.391 -0.0419  0.2522 -0.8283
  314MOL0     C43220   7.435   9.801   7.357 -0.0548 -0.0768 -0.5790
  314MOL0     C43221   7.561   9.829   7.424  0.0483  0.1076  0.1908
  314MOL0     C43222   7.635   9.958   7.387 -1.0268 -0.4351 -0.0890
  314MOL0     C43223   7.594   9.749   7.532  0.3196  0.9308  0.0795
  314MOL0     C43224   7.716   9.767   7.610 -0.3912 -0.0471  0.1765
  314MOL0     O43225   7.835   9.785   7.540 -0.3630  0.0618 -0.8038
  314MOL0     C43226   7.947   9.815   7.612  0.3442 -0.1167  0.0034
  314MOL0     C43227   7.978   9.753   7.735 -0.1022 -0.8846 -0.1388
  314MOL0     C43228   8.097   9.770   7.800  0.3033  0.5855  0.0407
  314MOL0     C43229   8.187   9.864   7.753  0.3395 -0.1859 -0.0016
  314MOL0     O43230   8.308   9.891   7.812 -0.0979 -0.0741 -0.0465
  314MOL0     C43231   8.311   9.853   7.951 -0.2995  0.5467 -0.0368
  314MOL0     C43232   8.425   9.933   8.016 -0.6134  1.3236 -0.2116
  314MOL0     C43233   8.566   9.890   7.964  0.5575 -0.6252 -0.0179
  314MOL0     C43234   8.676   9.974   8.032  0.0745 -0.0288 -0.8883
  314MOL0     C43235   8.793   9.987   7.935  0.7468  0.3632  0.2787
  314MOL0     C43236   8.923  10.031   8.002 -0.2594 -0.4669  0.9835
  314MOL0     C43237   9.048  10.016   7.914 -0.3774 -0.4940 -0.1682
  314MOL0     C43238   9.041  10.126   7.798 -1.0637  0.2342 -0.4920
  314MOL0    Cl43239   9.049  10.294   7.857 -0.7055  0.5666 -0.1725
  314MOL0     C43240   8.165   9.931   7.634  0.1302  0.2449 -0.8871
  314MOL0     C43241   8.051   9.901   7.555  0.3635  0.2678 -0.3416
  314MOL0     O43242   7.691   9.769   7.729 -0.7069  0.0057 -0.0345
  314MOL0     C43243   7.516   9.637   7.563  0.0389 -0.1112 -0.4255
  314MOL0     C43244   7.403   9.605   7.495  0.2000  0.0699  0.2032
  314MOL0     N43245   7.002   9.784   6.709 -0.4338  0.2976 -0.5630
  314MOL0     N43246   6.924   9.862   6.647  0.3193 -0.7560  0.5489
  314MOL0     C43247   5.793   9.405   6.673  0.6758 -0.3446 -0.2117
  314MOL0     C43248   5.663   9.389   6.724  0.7528 -0.0906  0.1241
  314MOL0     C43249   5.345   9.174   6.931  0.3540 -0.5169 -0.3479
  314MOL0     C43250   5.318   9.103   7.046  0.0623  0.1085  0.6378
  314MOL0     C43251   5.180   9.067   7.065 -0.2677  0.1669  0.4620
  314MOL0     C43252   5.083   9.093   6.963 -0.4817  0.3269  0.4842
  314MOL0     O43253   4.953   9.075   6.979  0.6478 -0.0328  0.4445
  314MOL0     C43254   4.903   9.038   7.107  0.7445 -0.2102 -0.2803
  314MOL0     C43255   4.753   9.060   7.111 -0.4236  0.0140  0.4555
  314MOL0     C43256   4.697   9.034   7.249 -0.2289  0.5298 -0.2656
  314MOL0     C43257   4.544   9.005   7.246  0.0614 -0.6424 -0.6201
  314MOL0     C43258   4.491   9.004   7.385  0.2128  0.1856 -0.6112
  314MOL0     C43259   4.454   9.020   7.505 -0.4255  0.9882  0.5776
  314MOL0     C43260   5.126   9.152   6.844  0.0277  0.2792 -0.1144
  314MOL0     C43261   5.259   9.184   6.823  0.2280 -0.4281 -0.1182
  314MOL0     C43262   5.300   9.241   6.692 -0.4033  0.1139  0.1393
  314MOL0     H43263   5.738   9.413   7.054  1.4036 -0.2947 -0.0269
  314MOL0     H43264   5.962   9.460   6.958 -0.3080 -1.3042  1.5848
  314MOL0     H43265   6.040   9.468   6.514  0.4966  1.4454  1.0933
  314MOL0     H43266   6.058   9.312   6.599 -1.9060  0.0471 -2.0487
  314MOL0     H43267   6.270   9.427   6.707 -0.6163 -2.3246 -0.2637
  314MOL0     H43268   6.279   9.357   6.549 -1.7200 -0.2355 -0.8140
  314MOL0     H43269   6.258   9.546   6.428 -0.8062  3.0017  0.1958
  314MOL0     H43270   6.176   9.644   6.549 -1.1003  0.1273  0.9585
  314MOL0     H43271   6.372   9.649   6.696 -0.3578  1.1144 -0.0793
  314MOL0     H43272   6.475   9.565   6.591  2.6755  2.7071  1.5692
  314MOL0     H43273   6.335   9.833   6.534 -2.9279 -2.7478 -2.5690
  314MOL0     H43274   6.431   9.745   6.408 -1.6421 -0.2172 -0.2132
  314MOL0     H43275   6.629   9.765   6.509  0.0101 -0.7979  0.4348
  314MOL0     H43276   6.547   9.918   6.460  2.0309  0.9447  0.1631
  314MOL0     H43277   6.577   9.796   6.757 -3.5018 -1.5312 -0.1601
  314MOL0     H43278   6.485   9.929   6.723 -0.7725 -0.0849 -0.0490
  314MOL0     H43279   6.711  10.002   6.585 -1.5815  0.7855  0.0541
  314MOL0     H43280   6.684  10.039   6.750  1.7568  0.9633 -0.0987
  314MOL0     H43281   6.752   9.796   6.912 -0.9825  2.7600 -1.5133
  314MOL0     H43282   7.033   9.583   6.910 -1.0964  0.3887 -0.2900
  314MOL0     H43283   6.968   9.687   7.034 -3.4574  1.8128 -2.7344
  314MOL0     H43284   7.230   9.730   6.886  0.8274  2.4551  0.1061
  314MOL0     H43285   7.154   9.848   7.003  0.6262 -0.8692  3.7440
  314MOL0     H43286   7.219   9.570   7.084  0.0716 -0.1584 -1.8990
  314MOL0     H43287   7.346   9.703   7.084  0.6132  0.6900  1.3226
  314MOL0     H43288   7.201   9.835   7.224 -0.9568  0.8821 -1.5159
  314MOL0     H43289   7.077   9.714   7.214  1.4552 -0.1405 -1.6495
  314MOL0     H43290   7.397   9.866   7.279 -0.1576  1.2363  0.5227
  314MOL0     H43291   7.578  10.016   7.314  0.9746 -1.7988 -2.9353
  314MOL0     H43292   7.731   9.927   7.347 -1.4612 -1.1425 -0.6013
  314MOL0     H43293   7.649  10.016   7.479  1.7695 -0.7920 -0.2033
  314MOL0     H43294   7.897   9.690   7.771 -1.4402  1.8453  2.0001
  314MOL0     H43295   8.120   9.689   7.869 -1.3301  0.1766  0.1326
  314MOL0     H43296   8.223   9.891   8.004 -0.5823  1.4084 -1.0906
  314MOL0     H43297   8.319   9.745   7.964 -4.0705  0.0198 -0.9524
  314MOL0     H43298   8.407  10.041   8.015 -0.7803  1.3035  0.3918
  314MOL0     H43299   8.415   9.907   8.121 -1.8335  1.9274 -0.1637
  314MOL0     H43300   8.557   9.911   7.858  0.2013 -0.2063  0.0920
  314MOL0     H43301   8.587   9.785   7.988  0.5867 -0.3307  1.3558
  314MOL0     H43302   8.710   9.934   8.128  3.1881 -0.2609 -1.9793
  314MOL0     H43303   8.635  10.075   8.041  0.9742  0.1831  1.5305
  314MOL0     H43304   8.820   9.889   7.892 -1.5682 -0.5461  0.7454
  314MOL0     H43305   8.759  10.044   7.848  0.9415  0.1307  0.0486
  314MOL0     H43306   8.936   9.973   8.094  1.7199 -1.2777  0.2636
  314MOL0     H43307   8.907  10.135   8.030  0.9614 -0.2063  0.7620
  314MOL0     H43308   9.054   9.919   7.864 -3.7252 -0.3118 -1.1458
  314MOL0     H43309   9.138  10.039   7.972 -1.6499  3.7622  0.4932
  314MOL0     H43310   8.952  10.112   7.735  0.0704 -1.6237 -1.8154
  314MOL0     H43311   9.128  10.119   7.731 -0.1470  0.1328  0.6840
  314MOL0     H43312   8.243   9.998   7.601  2.4196 -0.9814  1.6887
  314MOL0     H43313   8.049   9.946   7.457 -0.4800 -1.7708 -1.3332
  314MOL0     H43314   7.545   9.566   7.641  2.1410  0.3466 -0.7194
  314MOL0     H43315   7.352   9.513   7.521 -2.2937  1.0653 -0.9343
  314MOL0     H43316   5.802   9.398   6.565 -1.2353  2.1326 -0.6383
  314MOL0     H43317   5.577   9.376   6.660 -2.6135  0.3318  4.1646
  314MOL0     H43318   5.397   9.082   7.117  0.1135 -1.6450  0.1151
  314MOL0     H43319   5.166   9.001   7.150 -0.0500 -3.0879 -1.8290
  314MOL0     H43320   4.937   8.940   7.141 -1.3238 -0.8577  0.0515
  314MOL0     H43321   4.941   9.106   7.185  1.7031  0.5129 -1.3450
  314MOL0     H43322   4.696   8.999   7.040  0.4983  1.8729 -2.0264
  314MOL0     H43323   4.730   9.159   7.069 -2.6282  0.3159  2.2074
  314MOL0     H43324   4.718   8.932   7.283 -4.2941 -0.3917  0.0341
  314MOL0     H43325   4.717   9.110   7.324 -0.1327  1.8695 -1.6149
  314MOL0     H43326   4.524   8.916   7.186 -3.2295  1.7879 -3.5680
  314MOL0     H43327   4.488   9.083   7.193  0.1729 -0.5622 -0.6207
  314MOL0     H43328   4.425   9.035   7.607  0.6203  0.0545  1.0321
  314MOL0     H43329   5.054   9.170   6.765 -0.3724 -0.2220  0.1283
  314MOL0     H43330   5.219   9.224   6.620  0.3934  1.4198 -1.1276
  314MOL0     H43331   5.312   9.350   6.685  1.5325 -0.0969 -0.1979
  314MOL0     H43332   5.393   9.189   6.670  0.7016  1.5535  1.2384
  315MOL0     O43333   4.240   5.552   4.775  0.7717 -0.0762 -0.1111
  315MOL0     C43334   4.309   5.531   4.875  0.1174 -0.3562  0.5964
  315MOL0     O43335   4.253   5.493   4.995  0.2018 -0.2261  0.2922
  315MOL0     C43336   4.124   5.447   5.012 -0.0608 -0.1957 -0.1529
  315MOL0     C43337   4.044   5.380   4.919  0.0028  0.1787  0.1052
  315MOL0     C43338   3.914   5.325   4.949  0.7684  1.3827  0.8373
  315MOL0     C43339   3.860   5.342   5.076 -0.0109 -0.3972  0.9949
  315MOL0     O43340   3.740   5.282   5.109 -0.5415  0.0201  0.2059
  315MOL0     C43341   3.684   5.292   5.237 -0.1290  0.4245  0.0194
  315MOL0     C43342   3.541   5.237   5.218 -0.1730  0.5949 -0.3511
  315MOL0     C43343   3.497   5.188   5.356 -0.0182  0.2807 -0.2198
  315MOL0     C43344   3.346   5.180   5.371  0.4104  0.5167  0.6103
  315MOL0     C43345   3.292   5.130   5.503  0.2925 -0.5829  0.7212
  315MOL0     C43346   3.325   5.219   5.633  0.5433 -0.7888  0.2666
  315MOL0     C43347   3.446   5.156   5.700  0.0220  0.1439 -0.1783
  315MOL0     C43348   3.477   5.223   5.837  0.2483 -0.7224 -0.6436
  315MOL0     N43349   3.590   5.184   5.917 -0.7260  0.0804  0.2476
  315MOL0     C43350   3.596   5.206   6.058  0.1442  0.3530 -0.1862
  315MOL0     C43351   3.727   5.163   6.081  1.0641 -0.1563  0.5032
  315MOL0     C43352   3.785   5.152   6.212 -0.8460  0.6588 -0.3661
  315MOL0     C43353   3.929   5.210   6.206  0.0978  0.2638 -0.6604
  315MOL0     C43354   4.042   5.094   6.235  0.6957 -0.7560  0.2874
  315MOL0     C43355   4.178   5.151   6.187  0.1085  0.5328  0.7914
  315MOL0     O43356   4.271   5.044   6.173 -0.4719  0.7633 -0.0260
  315MOL0     C43357   4.399   5.062   6.202 -0.4349 -1.4478  0.1765
  315MOL0     C43358   4.466   5.186   6.229  0.5557  0.1980  0.2939
  315MOL0     C43359   4.603   5.188   6.255 -0.3747  0.9813  0.2685
  315MOL0     C43360   4.664   5.323   6.301  0.1928 -0.0029 -0.2333
  315MOL0     C43361   4.685   5.069   6.267 -0.1016 -0.3263 -0.1271
  315MOL0     C43362   4.838   5.073   6.285 -0.2500 -0.7024 -0.7094
  315MOL0     O43363   4.924   5.182   6.254 -0.6451 -0.3062 -0.6703
  315MOL0     C43364   5.054   5.155   6.290 -0.0003 -0.4257  0.1237
  315MOL0     C43365   5.157   5.104   6.203  0.3369 -0.1660 -0.2347
  315MOL0     C43366   5.286   5.096   6.254  0.7606 -0.5765 -0.5955
  315MOL0     C43367   5.321   5.123   6.385  0.1712 -0.8229  0.4079
  315MOL0     O43368   5.440   5.089   6.443  0.1805 -0.2755 -0.0471
  315MOL0     C43369   5.490   4.959   6.413  0.7284 -0.4357 -1.1455
  315MOL0     C43370   5.571   4.911   6.531 -1.0109  0.4856 -1.2608
  315MOL0     C43371   5.702   4.990   6.539  0.8282  0.2587 -0.3703
  315MOL0     C43372   5.798   4.920   6.650 -0.4045 -0.2733  0.1329
  315MOL0     C43373   5.896   5.013   6.716 -0.7204 -0.5906  0.4174
  315MOL0     C43374   5.966   5.099   6.612 -0.0283 -0.2933 -0.4306
  315MOL0     C43375   6.068   5.179   6.682 -0.4022 -0.7410 -0.5165
  315MOL0     C43376   6.143   5.270   6.576  0.8027 -0.0775 -0.3186
  315MOL0    Cl43377   6.296   5.328   6.652 -0.0933  0.1365 -0.0535
  315MOL0     C43378   5.220   5.174   6.458  0.8178  0.5919  0.1685
  315MOL0     C43379   5.084   5.196   6.422  0.0731  0.6060  0.7984
  315MOL0     O43380   4.875   4.963   6.333  0.2413 -0.3669 -0.4869
  315MOL0     C43381   4.610   4.948   6.242  0.2620 -0.3571  0.3720
  315MOL0     C43382   4.473   4.945   6.213  0.1738  0.3463  0.3048
  315MOL0     N43383   3.790   5.119   5.961 -0.5479 -0.1120  0.7044
  315MOL0     N43384   3.708   5.138   5.870  0.6032  0.6159  0.0861
  315MOL0     C43385   3.932   5.423   5.171  0.8818  0.2993  0.0189
  315MOL0     C43386   4.061   5.469   5.138  0.0806  0.4716  0.4422
  315MOL0     C43387   4.451   5.521   4.859  0.3266  0.7308 -0.0374
  315MOL0     C43388   4.516   5.618   4.785  0.7359  0.2398  0.1301
  315MOL0     C43389   4.650   5.619   4.771 -1.0359  0.9516  0.5600
  315MOL0     C43390   4.725   5.516   4.833  0.4855  0.1679  1.3792
  315MOL0     O43391   4.857   5.495   4.804  0.1964 -0.3768 -0.2316
  315MOL0     C43392   4.923   5.582   4.714 -0.2581  0.2917 -0.9684
  315MOL0     C43393   5.067   5.543   4.712 -0.8119  0.2020  0.1620
  315MOL0     C43394   5.152   5.609   4.596 -0.3965 -0.6598  0.2547
  315MOL0     C43395   5.160   5.766   4.600  0.6570  0.2179 -0.3022
  315MOL0     C43396   5.258   5.817   4.512  0.2208 -0.3867 -0.0737
  315MOL0     C43397   5.352   5.850   4.445  0.1610  0.0457 -0.1999
  315MOL0     C43398   4.662   5.419   4.911 -0.0200  0.2053  0.1163
  315MOL0     C43399   4.523   5.419   4.917 -0.0074  0.5197 -0.1494
  315MOL0     C43400   4.461   5.304   4.988 -0.1529  0.2032  0.7707
  315MOL0     H43401   4.080   5.363   4.818 -2.1476  0.8759 -0.8573
  315MOL0     H43402   3.861   5.260   4.879  1.8994  1.5037 -0.1662
  315MOL0     H43403   3.663   5.391   5.279  0.4252 -0.2037  1.8910
  315MOL0     H43404   3.746   5.237   5.309 -1.0555 -0.3258  0.2572
  315MOL0     H43405   3.478   5.319   5.181  0.4151  0.6666 -1.2229
  315MOL0     H43406   3.543   5.154   5.146  1.7235  1.8532 -1.8636
  315MOL0     H43407   3.538   5.089   5.374 -0.9767 -0.3329 -1.2408
  315MOL0     H43408   3.529   5.258   5.433 -1.3882 -0.4331  1.0369
  315MOL0     H43409   3.302   5.278   5.348 -1.5439 -0.1026  1.5049
  315MOL0     H43410   3.303   5.110   5.299 -1.7065  1.4767  0.8647
  315MOL0     H43411   3.340   5.033   5.517  3.1829  0.3044 -1.8090
  315MOL0     H43412   3.184   5.115   5.495  0.1963  0.4062 -0.0819
  315MOL0     H43413   3.341   5.327   5.619  1.0907 -1.2136 -3.7281
  315MOL0     H43414   3.237   5.204   5.696 -1.1620 -0.4005 -1.8978
  315MOL0     H43415   3.531   5.162   5.632 -2.2325 -3.2162 -3.7517
  315MOL0     H43416   3.415   5.052   5.716 -1.8961  0.6415 -0.4673
  315MOL0     H43417   3.493   5.330   5.820  1.9668 -0.9080 -0.3432
  315MOL0     H43418   3.392   5.209   5.905  0.8596  0.4276  0.3841
  315MOL0     H43419   3.524   5.229   6.136  0.5540 -0.4168  0.4304
  315MOL0     H43420   3.791   5.044   6.229  2.0512  0.3495 -2.5781
  315MOL0     H43421   3.727   5.200   6.291  0.4125  0.7197  0.5353
  315MOL0     H43422   3.946   5.260   6.111 -0.7639  0.7084 -0.5850
  315MOL0     H43423   3.935   5.284   6.286 -1.5779 -0.8093  0.5226
  315MOL0     H43424   4.051   5.081   6.344 -1.3258 -3.6187  0.2272
  315MOL0     H43425   4.024   4.997   6.187  2.0414 -1.2854  0.7977
  315MOL0     H43426   4.176   5.210   6.095  0.6530  1.5561  1.4085
  315MOL0     H43427   4.210   5.217   6.268  1.8315 -1.7594  2.1020
  315MOL0     H43428   4.407   5.278   6.225  0.1817  0.0085  1.1814
  315MOL0     H43429   4.726   5.367   6.222 -0.0098  1.8414  0.5774
  315MOL0     H43430   4.736   5.312   6.383 -0.7924  0.7920  0.7744
  315MOL0     H43431   4.583   5.391   6.330  0.9633  2.1064 -2.6889
  315MOL0     H43432   5.129   5.080   6.101 -0.8216 -0.7978  0.2167
  315MOL0     H43433   5.355   5.048   6.186  1.1370 -4.5288  2.2138
  315MOL0     H43434   5.404   4.892   6.416  1.6471 -1.6215  0.7022
  315MOL0     H43435   5.538   4.957   6.314  0.1283  0.1483 -1.4589
  315MOL0     H43436   5.512   4.903   6.623  1.2784 -0.9377  0.1708
  315MOL0     H43437   5.592   4.807   6.502 -1.3247  0.3209 -0.8989
  315MOL0     H43438   5.674   5.092   6.567 -0.8319 -0.2615 -0.0418
  315MOL0     H43439   5.755   4.995   6.443  0.7539 -2.4928 -0.6364
  315MOL0     H43440   5.859   4.837   6.613  1.9907 -0.3734  3.7510
  315MOL0     H43441   5.731   4.883   6.729 -0.7188 -1.6035 -0.7239
  315MOL0     H43442   5.845   5.080   6.786  1.0479  2.1863 -0.7890
  315MOL0     H43443   5.973   4.953   6.764  1.4485  1.0318 -0.8621
  315MOL0     H43444   5.899   5.169   6.561  2.1734  0.6979 -2.1433
  315MOL0     H43445   6.011   5.036   6.535 -2.2889  0.1123 -2.1918
  315MOL0     H43446   6.149   5.117   6.722 -0.6349 -1.0901 -0.5837
  315MOL0     H43447   6.020   5.245   6.754  0.4789  0.1527 -0.7232
  315MOL0     H43448   6.087   5.359   6.549  0.7888 -0.6882 -2.4334
  315MOL0     H43449   6.154   5.215   6.482 -4.1327 -1.0093 -0.6117
  315MOL0     H43450   5.250   5.211   6.556  2.8600  1.8494 -0.8637
  315MOL0     H43451   5.018   5.252   6.488  1.7253  2.7655  0.7161
  315MOL0     H43452   4.673   4.860   6.242 -0.5724 -0.9865  1.7532
  315MOL0     H43453   4.424   4.849   6.202  1.0535 -0.0918  0.1322
  315MOL0     H43454   3.889   5.453   5.265 -1.8223  1.2190 -1.3964
  315MOL0     H43455   4.115   5.529   5.211  1.9859  1.4857 -1.7010
  315MOL0     H43456   4.460   5.701   4.742  0.2839  1.0305  2.1215
  315MOL0     H43457   4.680   5.691   4.696 -0.1361  0.2793  0.2511
  315MOL0     H43458   4.875   5.573   4.617  1.7717  1.3951 -2.1665
  315MOL0     H43459   4.913   5.687   4.743 -0.6026 -0.3673  1.5025
  315MOL0     H43460   5.083   5.435   4.703 -1.0078  0.0671  1.2649
  315MOL0     H43461   5.108   5.558   4.812  1.8911 -3.4652 -0.1996
  315MOL0     H43462   5.253   5.567   4.593 -0.4590 -0.9346  1.5252
  315MOL0     H43463   5.111   5.586   4.498 -1.7336 -0.6588  0.7946
  315MOL0     H43464   5.187   5.795   4.702 -1.4736  2.3200 -0.2295
  315MOL0     H43465   5.064   5.812   4.575  0.6877  0.4012 -0.0804
  315MOL0     H43466   5.431   5.887   4.383  0.4684  1.4425  0.9772
  315MOL0     H43467   4.716   5.333   4.950 -1.1259 -0.7439 -0.3617
  315MOL0     H43468   4.362   5.283   4.948  0.3007  0.1476 -0.3700
  315MOL0     H43469   4.518   5.211   4.975 -1.1394 -0.2214 -0.7131
  315MOL0     H43470   4.473   5.333   5.093  3.9811  2.7453 -0.1895
  316MOL0     O43471   1.818   8.467   1.763  0.4531 -0.1089  0.6748
  316MOL0     C43472   1.842   8.438   1.883 -0.1667 -0.1856 -0.0034
  316MOL0     O43473   1.747   8.394   1.968  0.5668 -0.6570  0.0807
  316MOL0     C43474   1.616   8.410   1.929  0.2561  0.0146 -0.0416
  316MOL0     C43475   1.545   8.535   1.917 -0.7320  0.4339  0.6218
  316MOL0     C43476   1.411   8.535   1.870 -0.6120 -0.0283 -0.4846
  316MOL0     C43477   1.342   8.416   1.860 -0.7096 -0.8360 -0.4266
  316MOL0     O43478   1.217   8.414   1.824  0.2230 -0.3003  0.2624
  316MOL0     C43479   1.130   8.523   1.823 -0.7594 -0.1716  0.6908
  316MOL0     C43480   1.111   8.581   1.967 -0.9469  0.2311  0.8540
  316MOL0     C43481   1.012   8.692   1.956 -0.5198 -0.1873  0.0029
  316MOL0     C43482   0.994   8.753   2.091  0.3619 -0.2608  0.6274
  316MOL0     C43483   0.880   8.863   2.092 -0.4740 -0.4391  0.8790
  316MOL0     C43484   0.920   8.995   2.020  0.0107 -0.1498  0.0254
  316MOL0     C43485   0.812   9.105   2.033 -1.3974 -0.4924  0.1309
  316MOL0     C43486   0.859   9.248   1.986  0.1714  1.3015  0.0373
  316MOL0     N43487   0.872   9.246   1.838  0.0301 -0.3813  0.7519
  316MOL0     C43488   0.970   9.187   1.761 -0.2916 -0.5315 -0.5302
  316MOL0     C43489   0.931   9.198   1.630  0.0439 -0.3694  0.5869
  316MOL0     C43490   1.007   9.174   1.503 -0.3666  0.5973 -0.3134
  316MOL0     C43491   1.163   9.189   1.506  0.4944 -0.0929  0.8089
  316MOL0     C43492   1.234   9.159   1.371 -0.0222 -0.1343 -0.0268
  316MOL0     C43493   1.383   9.161   1.375  0.2596  0.1127  0.0489
  316MOL0     O43494   1.436   9.292   1.396 -0.4495 -0.0166 -0.3300
  316MOL0     C43495   1.573   9.302   1.419 -0.1947 -0.0181  0.3725
  316MOL0     C43496   1.660   9.199   1.387 -0.2253  0.4882 -0.4194
  316MOL0     C43497   1.800   9.212   1.392 -0.1093 -0.1859  0.2620
  316MOL0     C43498   1.876   9.091   1.364  0.3088 -0.0516  0.5616
  316MOL0     C43499   1.857   9.340   1.437  0.1408  0.4051  1.1249
  316MOL0     C43500   2.005   9.368   1.450 -0.0295 -0.0152  0.9132
  316MOL0     O43501   2.033   9.463   1.547  0.2737  0.4122 -0.4008
  316MOL0     C43502   2.162   9.491   1.580 -0.1029  0.7474  0.3632
  316MOL0     C43503   2.246   9.386   1.614  0.1466  0.2491 -0.6617
  316MOL0     C43504   2.382   9.414   1.640  0.4193 -0.7591 -0.7990
  316MOL0     C43505   2.433   9.543   1.629  0.0087 -0.2866  0.3822
  316MOL0     O43506   2.561   9.575   1.642 -0.6681  0.4947 -0.4354
  316MOL0     C43507   2.657   9.481   1.705  0.4341 -0.3374  0.0576
  316MOL0     C43508   2.793   9.542   1.728 -0.0140  0.9201  0.4774
  316MOL0     C43509   2.799   9.670   1.814 -0.4110  0.3888  0.4541
  316MOL0     C43510   2.945   9.701   1.841  0.0184  0.4050 -0.0068
  316MOL0     C43511   2.965   9.807   1.943  1.5937 -0.1780  0.3267
  316MOL0     C43512   2.922   9.940   1.887  0.1397 -0.6092 -0.4276
  316MOL0     C43513   2.973  10.054   1.979  0.3805  1.3051  0.6527
  316MOL0     C43514   2.945  10.193   1.925 -0.4045 -0.7258  0.6076
  316MOL0    Cl43515   3.006  10.317   2.044  0.1835  0.3780  0.3616
  316MOL0     C43516   2.346   9.645   1.587  0.0338 -0.1282 -1.3469
  316MOL0     C43517   2.213   9.620   1.567  0.5603  0.2085  0.4824
  316MOL0     O43518   2.085   9.319   1.365 -0.5524  0.3530 -0.2073
  316MOL0     C43519   1.762   9.439   1.467 -0.4925  0.0329 -0.3076
  316MOL0     C43520   1.626   9.422   1.471 -0.8612 -0.2070 -0.4451
  316MOL0     N43521   0.809   9.256   1.639  1.1103  0.4357  0.0839
  316MOL0     N43522   0.769   9.291   1.760 -0.4082 -0.4361  0.7108
  316MOL0     C43523   1.411   8.297   1.874 -0.0091  0.0245 -0.2467
  316MOL0     C43524   1.545   8.292   1.911 -0.1140  0.4209  1.6419
  316MOL0     C43525   1.978   8.405   1.927 -0.5881  0.4151 -0.6580
  316MOL0     C43526   2.002   8.305   2.026  0.0845 -0.4801  0.2570
  316MOL0     C43527   2.123   8.291   2.090  0.8580 -0.3388  0.7529
  316MOL0     C43528   2.231   8.378   2.071  0.2805 -0.3881 -0.6631
  316MOL0     O43529   2.352   8.375   2.133  0.7791 -0.1546  0.1684
  316MOL0     C43530   2.385   8.261   2.210  0.2602 -1.0045 -0.2948
  316MOL0     C43531   2.525   8.282   2.264 -0.2186 -0.1802 -0.7913
  316MOL0     C43532   2.572   8.162   2.343 -0.4237 -0.3469 -0.0401
  316MOL0     C43533   2.713   8.184   2.392  0.0540 -0.2001  0.5349
  316MOL0     C43534   2.761   8.078   2.480 -0.0932  0.3205  0.2615
  316MOL0     C43535   2.816   7.999   2.554  0.1662 -0.1639  0.2245
  316MOL0     C43536   2.208   8.479   1.968 -0.2345  0.5575 -0.5752
  316MOL0     C43537   2.088   8.492   1.898 -0.1892  0.4127 -0.4833
  316MOL0     C43538   2.081   8.608   1.794 -0.3754  0.5571 -0.3706
  316MOL0     H43539   1.600   8.628   1.921  0.1816 -0.1027  0.8747
  316MOL0     H43540   1.366   8.632   1.852  1.9442  1.4482  0.4228
  316MOL0     H43541   1.040   8.481   1.778 -0.9497 -0.0992  1.0000
  316MOL0     H43542   1.164   8.593   1.747 -2.5871 -0.3929 -0.3952
  316MOL0     H43543   1.073   8.505   2.036  0.3195 -0.3158  0.9762
  316MOL0     H43544   1.205   8.614   2.013  0.8427 -1.3891 -1.3892
  316MOL0     H43545   1.050   8.757   1.877 -0.1710 -0.0241  0.2987
  316MOL0     H43546   0.921   8.635   1.935  0.3797 -1.7420  0.1796
  316MOL0     H43547   0.973   8.693   2.180 -0.2916  1.7290  1.8888
  316MOL0     H43548   1.087   8.805   2.118 -1.2547  2.1083  2.0593
  316MOL0     H43549   0.867   8.894   2.196  3.1437  2.6347  0.6285
  316MOL0     H43550   0.786   8.821   2.055 -0.5853 -0.9819  1.7430
  316MOL0     H43551   1.013   9.036   2.060 -0.5559  1.5674 -0.3275
  316MOL0     H43552   0.925   8.963   1.916 -0.8937 -1.9545  0.5042
  316MOL0     H43553   0.796   9.121   2.140  1.6072  1.5816  0.3887
  316MOL0     H43554   0.722   9.083   1.974 -0.7889  0.6121 -1.2741
  316MOL0     H43555   0.775   9.309   2.018 -2.2140 -1.0221 -1.3889
  316MOL0     H43556   0.954   9.280   2.031  0.7174  1.9443 -1.4895
  316MOL0     H43557   1.064   9.143   1.793  0.8616  2.1293 -0.0085
  316MOL0     H43558   0.961   9.254   1.444 -3.9315 -0.6294  0.5526
  316MOL0     H43559   0.992   9.072   1.467 -2.7273  1.0847 -0.8989
  316MOL0     H43560   1.185   9.291   1.540  2.2057  0.8349 -2.6492
  316MOL0     H43561   1.193   9.115   1.581  0.6244 -0.7524  0.1190
  316MOL0     H43562   1.213   9.057   1.335  1.8652 -0.5219 -0.1519
  316MOL0     H43563   1.195   9.232   1.300 -0.3284 -2.7401 -2.7645
  316MOL0     H43564   1.416   9.093   1.453  0.5949 -2.0234 -1.8434
  316MOL0     H43565   1.424   9.125   1.280  0.2357 -4.9796  1.6953
  316MOL0     H43566   1.626   9.098   1.368 -1.4566  0.4436  1.7168
  316MOL0     H43567   1.846   9.053   1.266 -1.4124  0.7444  0.7543
  316MOL0     H43568   1.849   9.003   1.423  1.6684 -1.6027 -0.9974
  316MOL0     H43569   1.985   9.100   1.355  0.3768 -2.3949 -3.2501
  316MOL0     H43570   2.198   9.291   1.631 -2.2225  1.7859  2.2853
  316MOL0     H43571   2.429   9.321   1.667  0.2172 -0.0015  2.6160
  316MOL0     H43572   2.613   9.447   1.799 -0.5128  0.3189 -0.1337
  316MOL0     H43573   2.682   9.391   1.648 -0.4893 -1.1948  0.9542
  316MOL0     H43574   2.862   9.471   1.775  1.3762  1.7235 -0.2828
  316MOL0     H43575   2.832   9.569   1.630 -1.0709  3.0162  0.5833
  316MOL0     H43576   2.749   9.644   1.907  0.0435  1.5592  1.0429
  316MOL0     H43577   2.750   9.753   1.763 -0.5373 -1.4834 -2.7548
  316MOL0     H43578   3.004   9.728   1.753  0.5508  2.4806  0.9300
  316MOL0     H43579   2.989   9.610   1.882  0.9623 -0.6964 -3.1482
  316MOL0     H43580   2.908   9.788   2.035 -1.1270  2.2263 -0.6977
  316MOL0     H43581   3.071   9.819   1.968  1.3272 -0.0201  1.4467
  316MOL0     H43582   2.815   9.941   1.865 -0.5172 -0.1764  2.3780
  316MOL0     H43583   2.969   9.959   1.790 -2.5325 -0.5213 -1.8087
  316MOL0     H43584   3.082  10.055   1.987  0.7418  3.4742 -2.3221
  316MOL0     H43585   2.924  10.029   2.073  0.2602  0.4501  0.3651
  316MOL0     H43586   2.839  10.217   1.912 -0.4266  0.1744  2.1687
  316MOL0     H43587   2.987  10.209   1.825 -0.9000  0.8290  0.6166
  316MOL0     H43588   2.380   9.747   1.580 -0.1842  0.1502  0.9361
  316MOL0     H43589   2.147   9.701   1.539  1.9319  0.3998 -2.5827
  316MOL0     H43590   1.802   9.534   1.499  0.6210 -0.3205 -0.6126
  316MOL0     H43591   1.555   9.496   1.506  0.2732  0.4969  0.4403
  316MOL0     H43592   1.352   8.208   1.853 -0.8905  0.4995  0.1390
  316MOL0     H43593   1.582   8.190   1.923 -0.7528  0.0826  0.7687
  316MOL0     H43594   1.920   8.241   2.054 -0.2211  0.2024  0.9493
  316MOL0     H43595   2.135   8.215   2.167  0.9914  1.5214  2.6860
  316MOL0     H43596   2.314   8.257   2.293 -0.0479  1.3145 -0.3630
  316MOL0     H43597   2.369   8.171   2.151 -0.7213 -1.1267  0.1341
  316MOL0     H43598   2.522   8.367   2.332  0.8854 -1.5288  1.0654
  316MOL0     H43599   2.585   8.303   2.175 -0.4227 -1.4356 -1.2489
  316MOL0     H43600   2.507   8.142   2.429  1.6596 -0.9387  1.4702
  316MOL0     H43601   2.563   8.075   2.277 -1.3332 -1.2375  1.2219
  316MOL0     H43602   2.719   8.278   2.448 -1.3423  0.0536  0.2908
  316MOL0     H43603   2.782   8.195   2.307 -0.8992 -0.0428 -0.2313
  316MOL0     H43604   2.863   7.931   2.621 -0.7135 -0.7590  0.2568
  316MOL0     H43605   2.284   8.552   1.942  0.1193  0.3400 -0.1678
  316MOL0     H43606   2.028   8.575   1.704 -0.9443  1.7908 -0.5145
  316MOL0     H43607   2.030   8.695   1.836 -1.3578 -0.2210  0.1126
  316MOL0     H43608   2.179   8.638   1.758 -0.2824 -1.1212 -1.6187
  317MOL0     O43609   8.302   5.537   5.152  0.0142  0.2107  0.0241
  317MOL0     C43610   8.353   5.585   5.045 -0.2249  0.2906 -0.2513
  317MOL0     O43611   8.486   5.612   5.029 -0.3542 -0.0154  0.2508
  317MOL0     C43612   8.575   5.624   5.139  0.0958 -0.3143  0.5719
  317MOL0     C43613   8.546   5.677   5.264  0.0637 -0.1273 -0.3540
  317MOL0     C43614   8.645   5.688   5.358  1.3453 -0.2545  0.0088
  317MOL0     C43615   8.769   5.642   5.339  0.2771  0.1553 -0.3055
  317MOL0     O43616   8.855   5.653   5.446  0.1807  0.0903  0.1855
  317MOL0     C43617   8.990   5.689   5.416 -0.4353 -0.8825  0.5231
  317MOL0     C43618   9.087   5.581   5.473 -0.1967  0.1037  0.2579
  317MOL0     C43619   9.234   5.601   5.428  0.4127  0.0643  0.6724
  317MOL0     C43620   9.314   5.492   5.497 -0.9886 -0.6355 -0.5130
  317MOL0     C43621   9.463   5.505   5.471 -0.8665  0.4406 -0.4314
  317MOL0     C43622   9.534   5.388   5.536  0.1949  0.1754 -0.6431
  317MOL0     C43623   9.683   5.411   5.523 -0.2436 -0.1406 -0.1368
  317MOL0     C43624   9.733   5.518   5.623  0.0394  0.5397  0.0038
  317MOL0     N43625   9.876   5.524   5.618  0.3375  0.0405  0.5068
  317MOL0     C43626   9.956   5.419   5.627 -0.6160  0.7444  0.2850
  317MOL0     C43627  10.082   5.468   5.608  0.5341 -0.3694  0.9358
  317MOL0     C43628  10.214   5.394   5.603 -0.3642  0.4365  0.4404
  317MOL0     C43629  10.324   5.469   5.677  0.5673  0.5784  0.3730
  317MOL0     C43630  10.459   5.393   5.671  0.6457 -0.1058 -0.4174
  317MOL0     C43631  10.538   5.387   5.531  0.4105  0.3045 -0.5109
  317MOL0     O43632  10.652   5.308   5.566  0.3692  0.4306  0.1627
  317MOL0     C43633  10.743   5.272   5.464  0.0580 -0.3236 -0.3675
  317MOL0     C43634  10.731   5.320   5.332 -0.4574 -0.4614  0.3246
  317MOL0     C43635  10.825   5.286   5.225  0.1122  0.0857 -0.1391
  317MOL0     C43636  10.791   5.356   5.088  0.8680  0.7010  0.9785
  317MOL0     C43637  10.939   5.200   5.264  0.7960 -0.1489  0.2387
  317MOL0     C43638  11.029   5.145   5.154 -0.5750  0.7780 -0.3557
  317MOL0     O43639  11.107   5.037   5.184 -0.0536 -0.1893 -0.1976
  317MOL0     C43640  11.223   4.993   5.117  0.2745  0.3035 -0.1310
  317MOL0     C43641  11.294   5.067   5.018 -0.0890 -0.4549 -0.1301
  317MOL0     C43642  11.403   5.016   4.951  0.3960 -0.1349 -0.1089
  317MOL0     C43643  11.451   4.884   4.981 -0.4367  0.7711  0.3694
  317MOL0     O43644  11.558   4.809   4.928 -0.6175 -0.6075 -0.6880
  317MOL0     C43645  11.647   4.881   4.832  0.5884  0.0296  0.2242
  317MOL0     C43646  11.689   4.783   4.722 -1.0148  0.2358  0.8209
  317MOL0     C43647  11.566   4.730   4.644 -1.0565  0.2372 -0.0408
  317MOL0     C43648  11.595   4.703   4.495  0.9016  0.2641 -0.6366
  317MOL0     C43649  11.705   4.602   4.468  0.6344  0.5212  0.9681
  317MOL0     C43650  11.715   4.589   4.315 -0.2896  0.0605  0.1388
  317MOL0     C43651  11.838   4.513   4.275 -0.5790  0.3592 -0.8601
  317MOL0     C43652  11.833   4.468   4.123  0.1133  0.7921  0.1174
  317MOL0    Cl43653  11.988   4.408   4.071  0.3550  0.1344 -0.2099
  317MOL0     C43654  11.374   4.813   5.080  0.4324  0.3176  0.3040
  317MOL0     C43655  11.261   4.864   5.141 -0.8153 -0.4110 -0.9715
  317MOL0     O43656  11.038   5.206   5.049  0.3496  0.4489 -0.0698
  317MOL0     C43657  10.947   5.162   5.395 -0.2839  0.1501  0.1325
  317MOL0     C43658  10.858   5.200   5.497 -0.0596 -0.3489 -0.0298
  317MOL0     N43659  10.065   5.603   5.568 -0.9477  0.4211 -0.1134
  317MOL0     N43660   9.941   5.638   5.579  1.1031 -0.0836 -0.6305
  317MOL0     C43661   8.801   5.594   5.215 -0.4659  0.4010  0.4859
  317MOL0     C43662   8.704   5.594   5.110 -0.1371  0.3446 -0.1776
  317MOL0     C43663   8.259   5.588   4.922 -1.0986 -0.4158 -0.1094
  317MOL0     C43664   8.324   5.612   4.801  0.1324 -0.1476  0.6890
  317MOL0     C43665   8.258   5.627   4.678 -0.9315  0.0809 -0.2991
  317MOL0     C43666   8.124   5.600   4.670 -1.0280 -1.1912 -0.3876
  317MOL0     O43667   8.061   5.639   4.558  0.2626  0.2586 -0.2453
  317MOL0     C43668   7.966   5.547   4.498 -0.3432 -0.5688  0.3906
  317MOL0     C43669   8.045   5.434   4.425 -0.7549  0.2588 -0.8129
  317MOL0     C43670   7.938   5.345   4.361  0.3326 -0.5202 -0.0646
  317MOL0     C43671   7.994   5.236   4.271 -0.5801  0.3756 -0.3239
  317MOL0     C43672   7.882   5.141   4.233 -0.0591  1.0571 -0.6067
  317MOL0     C43673   7.794   5.056   4.208  0.1169 -0.3885  0.0965
  317MOL0     C43674   8.056   5.566   4.792 -0.9474 -0.1359  0.4130
  317MOL0     C43675   8.119   5.563   4.919  0.6096  0.1985 -0.3575
  317MOL0     C43676   8.037   5.522   5.044 -0.1040  0.8252 -0.0063
  317MOL0     H43677   8.445   5.717   5.267  0.5752  1.6948 -3.1314
  317MOL0     H43678   8.622   5.700   5.463 -1.7864 -0.4033 -0.5846
  317MOL0     H43679   9.003   5.784   5.469  1.1188  0.7217 -2.4810
  317MOL0     H43680   9.004   5.710   5.310 -2.5726  0.5056  0.4588
  317MOL0     H43681   9.081   5.586   5.583 -2.0725 -0.2797  0.2156
  317MOL0     H43682   9.058   5.484   5.433  3.5229 -0.0812 -2.4495
  317MOL0     H43683   9.237   5.583   5.320 -0.6796  1.0410  0.4581
  317MOL0     H43684   9.270   5.703   5.447 -0.1098  1.0075 -2.7605
  317MOL0     H43685   9.291   5.487   5.604 -0.8546  5.1313  0.0719
  317MOL0     H43686   9.291   5.394   5.452  1.0610 -1.2960 -0.2604
  317MOL0     H43687   9.493   5.603   5.509  1.5632  0.2397 -1.6202
  317MOL0     H43688   9.479   5.500   5.362  3.2635  2.4682 -0.1184
  317MOL0     H43689   9.517   5.379   5.644  1.1352  0.0768 -0.4985
  317MOL0     H43690   9.497   5.297   5.488  0.5434 -0.9254  1.0863
  317MOL0     H43691   9.717   5.434   5.421  0.6397 -1.6300 -0.2110
  317MOL0     H43692   9.724   5.314   5.552 -2.5769 -1.4771 -0.9520
  317MOL0     H43693   9.680   5.614   5.614 -1.8551  0.2562  5.0109
  317MOL0     H43694   9.707   5.479   5.722 -1.0129  0.2784 -0.3568
  317MOL0     H43695   9.927   5.319   5.659 -1.7448  0.2382 -2.0845
  317MOL0     H43696  10.256   5.380   5.503  0.7027  1.2756  0.7496
  317MOL0     H43697  10.209   5.295   5.650  0.1818  1.4168  2.6907
  317MOL0     H43698  10.332   5.565   5.625  1.4111 -0.5817 -1.7596
  317MOL0     H43699  10.288   5.482   5.779  1.3659  0.1488  0.7165
  317MOL0     H43700  10.523   5.440   5.746  0.0869 -1.0687  0.7028
  317MOL0     H43701  10.443   5.293   5.711 -2.2952  1.2733  2.3033
  317MOL0     H43702  10.479   5.345   5.449 -0.4007  0.3466  0.0348
  317MOL0     H43703  10.576   5.486   5.505  2.5241 -0.6486 -1.2332
  317MOL0     H43704  10.638   5.372   5.310 -1.2780 -1.9189  0.2259
  317MOL0     H43705  10.684   5.369   5.072  1.2238  0.8939 -1.7973
  317MOL0     H43706  10.821   5.310   4.993 -0.6151  0.9084  0.3828
  317MOL0     H43707  10.829   5.458   5.088 -0.7124  1.3815  3.7635
  317MOL0     H43708  11.270   5.171   4.996  1.1344  0.2669  1.6697
  317MOL0     H43709  11.463   5.084   4.891 -0.1003 -0.2677 -0.7692
  317MOL0     H43710  11.598   4.966   4.785 -1.2446  0.5918  2.9493
  317MOL0     H43711  11.742   4.907   4.880  1.1705  1.7965 -1.7385
  317MOL0     H43712  11.768   4.831   4.665  1.2873 -2.6555  1.3219
  317MOL0     H43713  11.726   4.692   4.770 -1.3446  0.0736  0.7723
  317MOL0     H43714  11.483   4.801   4.655  1.1097  2.5696  2.9819
  317MOL0     H43715  11.535   4.638   4.695 -0.3962  0.0470  0.0234
  317MOL0     H43716  11.625   4.797   4.448 -1.8230  1.7748  0.4387
  317MOL0     H43717  11.505   4.676   4.439 -1.0348 -0.0169  2.3741
  317MOL0     H43718  11.802   4.642   4.501  1.2618 -0.1662  0.0148
  317MOL0     H43719  11.676   4.505   4.510 -1.1906 -0.0342 -1.3779
  317MOL0     H43720  11.715   4.689   4.272 -0.6453  0.4700  1.0655
  317MOL0     H43721  11.624   4.553   4.265 -0.8520  0.9709  0.4897
  317MOL0     H43722  11.844   4.423   4.339  0.2420 -0.7135 -2.3855
  317MOL0     H43723  11.929   4.572   4.287  0.6386 -1.6104  0.2581
  317MOL0     H43724  11.820   4.566   4.076  0.2364  2.2070  2.8344
  317MOL0     H43725  11.755   4.394   4.108  0.1014  1.2092 -2.3744
  317MOL0     H43726  11.392   4.708   5.101 -1.3568  0.3814  2.5027
  317MOL0     H43727  11.207   4.800   5.208 -1.2176  1.2571  0.3719
  317MOL0     H43728  11.025   5.089   5.415  0.7134  1.2894  0.5385
  317MOL0     H43729  10.878   5.172   5.599  2.2206  0.9649 -0.0668
  317MOL0     H43730   8.897   5.556   5.181 -2.1181 -2.4956 -1.3278
  317MOL0     H43731   8.735   5.582   5.007  2.1501  0.7794  0.4124
  317MOL0     H43732   8.432   5.612   4.793  0.1801  0.3949  1.2623
  317MOL0     H43733   8.304   5.655   4.583 -0.7762  0.5191 -0.0976
  317MOL0     H43734   7.900   5.500   4.572  2.4457 -3.0100  1.5445
  317MOL0     H43735   7.907   5.608   4.429 -1.5607 -0.4018  1.5322
  317MOL0     H43736   8.110   5.379   4.494 -0.1992 -0.7571 -2.1041
  317MOL0     H43737   8.105   5.487   4.350  1.4643 -0.2553  0.5136
  317MOL0     H43738   7.873   5.306   4.439  0.8879  0.8027  1.1074
  317MOL0     H43739   7.887   5.413   4.293  0.6984 -2.3570 -2.2896
  317MOL0     H43740   8.058   5.184   4.342 -0.4788  0.4242 -0.3810
  317MOL0     H43741   8.052   5.279   4.189  2.3042 -1.3640  0.6531
  317MOL0     H43742   7.737   4.973   4.172 -2.8777  1.8943 -0.8344
  317MOL0     H43743   7.948   5.556   4.790 -0.8081 -1.8072  0.2219
  317MOL0     H43744   8.018   5.610   5.105 -2.5922 -0.6004  1.4431
  317MOL0     H43745   7.941   5.475   5.017  1.0404 -1.3292 -0.6311
  317MOL0     H43746   8.089   5.451   5.109  0.8001  1.4448 -0.0349
  318MOL0     O43747   5.294   4.744   5.016 -0.0427  0.3045 -0.6203
  318MOL0     C43748   5.273   4.711   5.130  0.4521 -0.6497 -0.4365
  318MOL0     O43749   5.363   4.736   5.233  0.3551 -0.6931 -0.3732
  318MOL0     C43750   5.487   4.772   5.192 -0.3774 -0.8352  0.3355
  318MOL0     C43751   5.505   4.903   5.136 -0.8556  0.6817  1.3747
  318MOL0     C43752   5.638   4.956   5.123 -0.3553 -0.3285  0.5615
  318MOL0     C43753   5.753   4.883   5.147 -0.8545 -1.2409  0.2796
  318MOL0     O43754   5.876   4.926   5.110  0.5014  0.3228  0.2814
  318MOL0     C43755   5.976   4.938   5.218  0.0248 -1.5767 -0.2541
  318MOL0     C43756   6.102   5.004   5.161 -0.2309 -0.3005  0.2812
  318MOL0     C43757   6.204   5.047   5.272 -0.1351  0.3364 -0.0207
  318MOL0     C43758   6.322   5.115   5.205 -0.5931 -0.6604 -0.1843
  318MOL0     C43759   6.420   5.169   5.313  0.4039  0.1006  0.7032
  318MOL0     C43760   6.480   5.052   5.398  0.1254  0.6403 -0.1829
  318MOL0     C43761   6.608   5.089   5.475  0.3814 -0.1373 -0.1707
  318MOL0     C43762   6.565   5.202   5.569  0.3007  1.0350  0.1205
  318MOL0     N43763   6.675   5.247   5.653 -0.3843 -0.3341 -0.2670
  318MOL0     C43764   6.698   5.213   5.781  0.1861 -0.1951 -0.3264
  318MOL0     C43765   6.806   5.295   5.812  0.2751  0.6552  0.4909
  318MOL0     C43766   6.898   5.292   5.933  1.0399 -0.2051  0.7769
  318MOL0     C43767   6.988   5.177   5.938 -0.0219 -0.3649 -0.5227
  318MOL0     C43768   7.048   5.149   5.805 -0.2497  0.1437  0.4896
  318MOL0     C43769   7.180   5.077   5.820  0.8888  0.2822  0.1510
  318MOL0     O43770   7.280   5.174   5.846  0.0751 -0.1089 -0.1744
  318MOL0     C43771   7.384   5.189   5.752 -0.4580  0.1099 -0.4889
  318MOL0     C43772   7.396   5.119   5.638 -0.7535  0.5876 -0.0110
  318MOL0     C43773   7.510   5.134   5.555 -0.3120 -0.0277 -0.7110
  318MOL0     C43774   7.508   5.063   5.416  0.3030 -0.4818  0.0777
  318MOL0     C43775   7.624   5.210   5.599 -0.3782  0.4060  1.4928
  318MOL0     C43776   7.751   5.232   5.524 -0.3961  0.0556  0.2102
  318MOL0     O43777   7.848   5.288   5.603 -0.2786 -0.0131 -0.4642
  318MOL0     C43778   7.973   5.268   5.557 -0.7033  0.1236  0.8507
  318MOL0     C43779   8.041   5.146   5.589  0.5134  0.4994  0.0584
  318MOL0     C43780   8.167   5.126   5.539 -0.2729  0.0028  0.7564
  318MOL0     C43781   8.226   5.217   5.452  0.2862  0.0320 -1.0855
  318MOL0     O43782   8.350   5.182   5.416 -0.3495 -0.1274  0.7263
  318MOL0     C43783   8.437   5.287   5.360  0.6215 -0.0408  0.0276
  318MOL0     C43784   8.572   5.286   5.427 -0.1392  0.6424  0.5996
  318MOL0     C43785   8.639   5.155   5.394 -0.5368  0.7745  0.2404
  318MOL0     C43786   8.768   5.178   5.471 -0.1102  0.2124  1.2866
  318MOL0     C43787   8.872   5.082   5.427 -1.5201 -0.0407 -0.5069
  318MOL0     C43788   9.005   5.135   5.494 -0.7424 -0.4199 -0.3744
  318MOL0     C43789   9.113   5.028   5.480 -0.4199  0.2029  0.3513
  318MOL0     C43790   9.252   5.056   5.554 -0.6780 -0.0798 -0.3147
  318MOL0    Cl43791   9.226   5.078   5.729  0.0121 -0.1014 -0.2188
  318MOL0     C43792   8.153   5.333   5.416  0.5420  0.1486  0.3262
  318MOL0     C43793   8.032   5.369   5.485  1.1380  0.0154  0.3148
  318MOL0     O43794   7.768   5.178   5.413 -0.5072  0.0166 -0.0800
  318MOL0     C43795   7.603   5.283   5.721  0.5817 -0.0110  0.1851
  318MOL0     C43796   7.487   5.273   5.796  0.4439 -0.6178  0.5911
  318MOL0     N43797   6.847   5.372   5.701 -0.0940  0.8713 -0.2610
  318MOL0     N43798   6.766   5.335   5.610  0.8358  0.0872  0.7191
  318MOL0     C43799   5.732   4.762   5.209 -0.0302  0.1223  0.4279
  318MOL0     C43800   5.603   4.710   5.238  0.1829 -0.1666 -0.9058
  318MOL0     C43801   5.157   4.622   5.156 -0.2903  0.0941 -0.7182
  318MOL0     C43802   5.070   4.586   5.051 -0.2292  0.3163 -0.3689
  318MOL0     C43803   4.955   4.509   5.076 -0.6462  0.0898  0.4475
  318MOL0     C43804   4.929   4.461   5.206  0.5911 -0.1950  0.2053
  318MOL0     O43805   4.819   4.382   5.221 -0.0439 -0.7396 -0.2107
  318MOL0     C43806   4.786   4.332   5.350 -0.0553  0.3567 -0.4586
  318MOL0     C43807   4.648   4.281   5.358 -0.0099  0.8846  0.4271
  318MOL0     C43808   4.585   4.301   5.498  0.7047 -0.1642 -0.7993
  318MOL0     C43809   4.444   4.249   5.515 -0.2303  0.2489  0.0598
  318MOL0     C43810   4.456   4.108   5.533 -0.7706  0.0041  0.2854
  318MOL0     C43811   4.468   3.995   5.566 -0.0980 -0.8276  0.4513
  318MOL0     C43812   5.022   4.481   5.300 -0.8142  0.2163  0.7398
  318MOL0     C43813   5.135   4.567   5.288  0.2981 -0.9384  0.9814
  318MOL0     C43814   5.208   4.604   5.417  0.0675  2.0074  0.3917
  318MOL0     H43815   5.416   4.955   5.101 -0.6651  0.6864  0.8933
  318MOL0     H43816   5.654   5.036   5.051  0.2741 -1.9445 -1.1960
  318MOL0     H43817   6.014   4.847   5.265 -0.3883  0.8213  5.5202
  318MOL0     H43818   5.932   5.003   5.294  0.4965 -2.3562  0.7146
  318MOL0     H43819   6.157   4.945   5.087  0.4365  0.4519  0.1642
  318MOL0     H43820   6.081   5.099   5.111  2.8733  0.6724  0.6268
  318MOL0     H43821   6.152   5.118   5.338  0.6806  4.0000 -2.9803
  318MOL0     H43822   6.239   4.958   5.326 -0.5914 -0.2678 -0.7020
  318MOL0     H43823   6.374   5.043   5.141  1.4071  0.6761 -0.1335
  318MOL0     H43824   6.284   5.194   5.140 -1.9122 -1.3042 -0.2249
  318MOL0     H43825   6.353   5.228   5.377  0.0275 -0.6409  0.9980
  318MOL0     H43826   6.500   5.229   5.268  0.5403 -0.6312 -0.0629
  318MOL0     H43827   6.407   5.019   5.474  3.3559 -0.7264  2.5697
  318MOL0     H43828   6.516   4.971   5.335 -0.5269 -0.4575  0.8057
  318MOL0     H43829   6.684   5.122   5.404 -2.1807 -2.7294 -4.5658
  318MOL0     H43830   6.644   5.002   5.531  0.5026 -0.3555 -0.5831
  318MOL0     H43831   6.529   5.284   5.507 -1.2937  1.6689  1.8029
  318MOL0     H43832   6.481   5.165   5.628  0.6438 -0.0458 -0.0456
  318MOL0     H43833   6.642   5.135   5.832 -1.5621 -1.7755 -4.2670
  318MOL0     H43834   6.848   5.318   6.027 -0.4117 -0.5038  0.1234
  318MOL0     H43835   6.965   5.374   5.909  0.4886 -0.4059 -1.7226
  318MOL0     H43836   7.068   5.208   6.005 -1.7815 -1.7460  2.4299
  318MOL0     H43837   6.937   5.087   5.973  0.2312 -1.3623 -2.5710
  318MOL0     H43838   6.972   5.089   5.755 -0.9528 -0.5044  2.2595
  318MOL0     H43839   7.062   5.241   5.747 -0.7556 -0.5798 -0.8310
  318MOL0     H43840   7.179   5.017   5.912 -1.9168  5.2995  3.9214
  318MOL0     H43841   7.200   5.010   5.736 -2.8700 -0.6899 -0.1619
  318MOL0     H43842   7.329   5.042   5.598  0.6357 -1.3103  1.1468
  318MOL0     H43843   7.409   5.022   5.394  0.2800  0.9535 -3.1167
  318MOL0     H43844   7.571   4.974   5.413 -0.5344 -1.0643 -0.6781
  318MOL0     H43845   7.527   5.138   5.339 -3.1997 -0.2698 -0.7329
  318MOL0     H43846   7.986   5.069   5.642 -0.4717  1.7996  0.9798
  318MOL0     H43847   8.209   5.032   5.575 -1.6836 -0.4554  1.2995
  318MOL0     H43848   8.452   5.270   5.253 -1.5961  0.8801 -0.4937
  318MOL0     H43849   8.394   5.387   5.370  1.5810  0.2223  1.9203
  318MOL0     H43850   8.629   5.377   5.406  0.8015  0.3102  1.6558
  318MOL0     H43851   8.537   5.286   5.531 -1.3720  2.5176  0.2410
  318MOL0     H43852   8.648   5.130   5.288  0.7146 -0.9412  0.7187
  318MOL0     H43853   8.592   5.081   5.459 -0.7070  1.4564  0.9125
  318MOL0     H43854   8.753   5.171   5.579  1.4147 -2.4254  1.4215
  318MOL0     H43855   8.805   5.281   5.463  1.7695 -0.4668  0.7635
  318MOL0     H43856   8.839   4.989   5.475 -1.0826  0.4285  0.7432
  318MOL0     H43857   8.885   5.072   5.319  2.3925  2.4160 -0.4556
  318MOL0     H43858   8.987   5.149   5.601  1.4896 -0.7203  0.0929
  318MOL0     H43859   9.033   5.228   5.445 -0.5111  1.0187  2.2994
  318MOL0     H43860   9.131   5.014   5.373 -1.1187  1.7570  0.0013
  318MOL0     H43861   9.067   4.941   5.528  1.1851 -0.3540  0.9141
  318MOL0     H43862   9.288   5.147   5.505 -0.4452 -0.2188 -0.4076
  318MOL0     H43863   9.321   4.971   5.548  0.7276  0.2078  5.4754
  318MOL0     H43864   8.198   5.394   5.338 -1.0370  0.7523 -0.1542
  318MOL0     H43865   7.976   5.460   5.465  3.9062  1.2789 -2.7030
  318MOL0     H43866   7.676   5.352   5.761 -0.1877  1.1367 -0.3393
  318MOL0     H43867   7.477   5.321   5.892  2.5981 -1.0646  1.1098
  318MOL0     H43868   5.818   4.702   5.240  1.5128  1.3409 -1.2752
  318MOL0     H43869   5.592   4.620   5.297 -3.7709  1.4899  1.3246
  318MOL0     H43870   5.088   4.615   4.948  0.1308  0.9773 -0.1200
  318MOL0     H43871   4.891   4.480   4.994  0.3935 -2.3741  0.4425
  318MOL0     H43872   4.854   4.248   5.368 -1.4924 -0.7872 -0.1968
  318MOL0     H43873   4.802   4.411   5.423 -2.0922 -0.3117  0.7765
  318MOL0     H43874   4.643   4.176   5.328 -3.7640  1.0632 -0.0973
  318MOL0     H43875   4.598   4.329   5.273  3.2998 -0.4276 -2.5454
  318MOL0     H43876   4.649   4.258   5.576  0.5175 -0.4907 -0.8226
  318MOL0     H43877   4.587   4.410   5.511 -1.1576  0.3211 -3.5742
  318MOL0     H43878   4.387   4.279   5.426 -0.4597  2.3758  0.8523
  318MOL0     H43879   4.389   4.287   5.602 -0.7632  0.5963 -0.4187
  318MOL0     H43880   4.496   3.895   5.592  0.1042 -1.1623 -0.9897
  318MOL0     H43881   5.007   4.439   5.399  2.1281 -0.9118  0.8219
  318MOL0     H43882   5.311   4.570   5.400  0.3156  2.8900  0.0823
  318MOL0     H43883   5.219   4.713   5.425  2.3398  2.1517 -2.8057
  318MOL0     H43884   5.165   4.555   5.505  2.5810  2.8837  2.2249
  319MOL0     O43885   2.453   8.989  11.099 -0.4961 -0.4001 -0.0107
  319MOL0     C43886   2.535   8.987  11.190  0.5410 -0.9692 -0.3889
  319MOL0     O43887   2.525   8.913  11.302  0.3258 -0.5922  0.2898
  319MOL0     C43888   2.436   8.804  11.291 -0.4801  0.1485 -0.7936
  319MOL0     C43889   2.482   8.679  11.251  0.1057  1.5474 -0.2543
  319MOL0     C43890   2.386   8.574  11.240  0.1930  0.1288 -0.6761
  319MOL0     C43891   2.249   8.586  11.273 -0.5411  0.3482  1.2037
  319MOL0     O43892   2.159   8.479  11.261  0.1729 -0.5431  0.1686
  319MOL0     C43893   2.027   8.488  11.314 -0.6909  0.5037  0.6777
  319MOL0     C43894   1.937   8.556  11.222  0.2255  0.4073  0.7916
  319MOL0     C43895   1.803   8.601  11.263  0.2973  0.5091 -0.6555
  319MOL0     C43896   1.803   8.729  11.344  0.8663  0.0385 -0.1082
  319MOL0     C43897   1.659   8.743  11.408  0.0964 -0.8482 -0.1672
  319MOL0     C43898   1.575   8.824  11.314  0.9882  0.2332  0.2254
  319MOL0     C43899   1.431   8.841  11.353 -1.3489  0.7547 -0.6909
  319MOL0     C43900   1.357   8.913  11.248 -0.0242  0.1394  0.2069
  319MOL0     N43901   1.363   9.061  11.265  0.5585 -0.2500  1.0071
  319MOL0     C43902   1.445   9.137  11.183 -0.0155 -0.0089  0.6824
  319MOL0     C43903   1.405   9.264  11.209  0.1383  0.4666 -0.2363
  319MOL0     C43904   1.438   9.396  11.144  0.3596  0.4893 -0.4246
  319MOL0     C43905   1.578   9.421  11.096  0.6471  0.0982 -0.4832
  319MOL0     C43906   1.584   9.558  11.030 -0.0833  0.1510 -1.0372
  319MOL0     C43907   1.724   9.611  10.975  0.4557 -0.0288  0.3458
  319MOL0     O43908   1.819   9.596  11.079 -0.2741  0.4807  0.6211
  319MOL0     C43909   1.954   9.574  11.039  0.4479 -0.1700 -0.5753
  319MOL0     C43910   2.003   9.448  11.063  0.0122  0.2860  0.4242
  319MOL0     C43911   2.133   9.420  11.028  0.2173  0.7767 -0.0325
  319MOL0     C43912   2.180   9.290  11.069  0.6744  0.1541  0.6689
  319MOL0     C43913   2.217   9.523  10.976  0.3524  0.0455  0.2733
  319MOL0     C43914   2.362   9.500  10.947  0.4068 -0.8507 -0.2079
  319MOL0     O43915   2.406   9.547  10.830 -0.6888  0.1341 -0.0855
  319MOL0     C43916   2.544   9.536  10.808  1.2937  0.9818  0.6117
  319MOL0     C43917   2.637   9.632  10.842 -0.5275 -0.6082 -0.5227
  319MOL0     C43918   2.773   9.610  10.819  0.0652  0.6254  0.0149
  319MOL0     C43919   2.819   9.499  10.743 -0.0250  0.5094  0.1479
  319MOL0     O43920   2.956   9.487  10.710  0.1728 -0.2242  0.1511
  319MOL0     C43921   2.983   9.440  10.580 -0.1522 -0.6075  0.9410
  319MOL0     C43922   3.040   9.549  10.493 -0.3142 -0.2556  0.9198
  319MOL0     C43923   3.182   9.598  10.534 -0.2031 -0.1893  0.0934
  319MOL0     C43924   3.249   9.685  10.422  0.3223 -0.6661  0.7503
  319MOL0     C43925   3.372   9.768  10.464 -0.1802 -0.8637  0.0420
  319MOL0     C43926   3.470   9.669  10.525 -0.4768  0.3641 -1.0562
  319MOL0     C43927   3.602   9.727  10.537 -0.1757  0.4434 -0.7107
  319MOL0     C43928   3.705   9.638  10.614 -0.2206 -0.1842 -0.3004
  319MOL0    Cl43929   3.864   9.722  10.630 -0.4811 -0.1594 -0.1735
  319MOL0     C43930   2.722   9.395  10.705 -0.6418  0.0811 -0.1258
  319MOL0     C43931   2.584   9.419  10.738 -0.5489  0.5080  0.1742
  319MOL0     O43932   2.427   9.470  11.045  0.0061  0.4006  1.1592
  319MOL0     C43933   2.168   9.656  10.954  0.2285  0.6596 -0.6590
  319MOL0     C43934   2.037   9.673  10.986 -0.4612 -0.7379 -0.1623
  319MOL0     N43935   1.307   9.255  11.310 -0.1752  0.3566 -0.5223
  319MOL0     N43936   1.301   9.136  11.351  0.5843  0.4618  0.1512
  319MOL0     C43937   2.216   8.708  11.333 -0.0295 -0.0470 -0.2233
  319MOL0     C43938   2.306   8.816  11.340 -1.2955  0.5837 -0.4589
  319MOL0     C43939   2.643   9.087  11.180  0.3504  0.1399  0.5804
  319MOL0     C43940   2.611   9.219  11.153 -0.2844 -0.7575  0.2694
  319MOL0     C43941   2.709   9.322  11.147 -0.5045  0.1216 -0.4093
  319MOL0     C43942   2.842   9.297  11.181 -0.1167 -0.2079  0.0740
  319MOL0     O43943   2.935   9.397  11.171  0.2577 -0.0843  0.9967
  319MOL0     C43944   3.046   9.354  11.090 -0.7634 -0.8427 -0.0512
  319MOL0     C43945   3.148   9.466  11.089 -0.2033  0.3333 -0.4862
  319MOL0     C43946   3.273   9.430  11.026  0.9656 -0.2143  0.0713
  319MOL0     C43947   3.266   9.430  10.871  0.6050 -0.3272  0.7461
  319MOL0     C43948   3.383   9.375  10.806 -0.0953  0.1231 -0.3515
  319MOL0     C43949   3.472   9.321  10.750 -0.3384 -0.4414 -0.1823
  319MOL0     C43950   2.865   9.160  11.209  0.1611 -0.1556  0.3522
  319MOL0     C43951   2.775   9.052  11.200 -0.0497 -0.4151  0.5022
  319MOL0     C43952   2.815   8.908  11.225  0.1976  0.8717  0.6605
  319MOL0     H43953   2.588   8.667  11.232  0.2946 -0.5995  1.6724
  319MOL0     H43954   2.423   8.479  11.204 -0.2326  0.7628 -2.8884
  319MOL0     H43955   2.032   8.545  11.408  0.1505 -0.3707  1.1802
  319MOL0     H43956   1.989   8.387  11.332  2.0185 -0.6296  0.5347
  319MOL0     H43957   1.997   8.637  11.180 -0.8425  1.7117  1.7001
  319MOL0     H43958   1.929   8.476  11.147 -0.6106  0.7523  0.4933
  319MOL0     H43959   1.751   8.622  11.169  2.6460 -1.3254 -2.5098
  319MOL0     H43960   1.754   8.517  11.314  0.3645  0.3873 -0.7919
  319MOL0     H43961   1.875   8.744  11.425 -0.9700  0.3163  1.5278
  319MOL0     H43962   1.825   8.814  11.278 -1.4089 -0.1745 -1.2490
  319MOL0     H43963   1.653   8.808  11.496 -2.2222  0.7161 -1.4007
  319MOL0     H43964   1.610   8.650  11.439 -0.8866 -0.1021  0.6061
  319MOL0     H43965   1.624   8.922  11.306  0.1458  0.5917 -0.8338
  319MOL0     H43966   1.577   8.787  11.211  1.4326  0.2167  0.2397
  319MOL0     H43967   1.410   8.877  11.454  0.6239  0.8606 -0.2836
  319MOL0     H43968   1.380   8.744  11.351 -3.1500  1.6636 -1.4333
  319MOL0     H43969   1.391   8.879  11.150  1.3114  1.0799  0.3135
  319MOL0     H43970   1.252   8.883  11.256 -0.2668  1.1351  0.9304
  319MOL0     H43971   1.524   9.101  11.118  1.0896  1.1325  1.3532
  319MOL0     H43972   1.410   9.476  11.214 -0.3247  1.1284 -1.4125
  319MOL0     H43973   1.371   9.393  11.058  1.1137 -1.4240 -0.9869
  319MOL0     H43974   1.645   9.406  11.181  0.0359  0.2678  0.0368
  319MOL0     H43975   1.599   9.349  11.017 -2.0335 -0.7176 -0.5736
  319MOL0     H43976   1.513   9.544  10.947 -0.8910 -0.5225 -0.2478
  319MOL0     H43977   1.552   9.641  11.093  1.7609  0.2269 -0.1476
  319MOL0     H43978   1.755   9.551  10.889  0.3248 -0.2713  0.4653
  319MOL0     H43979   1.733   9.717  10.950 -0.0515  0.0205  0.3611
  319MOL0     H43980   1.931   9.381  11.107  1.7085 -1.3036  0.9134
  319MOL0     H43981   2.261   9.264  11.001  0.2583 -0.3723  0.3681
  319MOL0     H43982   2.098   9.220  11.051 -0.7781  1.0538  3.2219
  319MOL0     H43983   2.217   9.287  11.172  0.6245  0.3716  0.6936
  319MOL0     H43984   2.599   9.711  10.906 -0.8192 -0.0503 -1.3686
  319MOL0     H43985   2.856   9.669  10.856  0.6934 -0.9828  1.2664
  319MOL0     H43986   3.054   9.356  10.584 -0.0731 -0.6461 -0.6157
  319MOL0     H43987   2.900   9.406  10.518 -0.6103  1.7346  0.1499
  319MOL0     H43988   3.036   9.501  10.394  0.2461 -0.7006  1.1062
  319MOL0     H43989   2.983   9.642  10.481  1.8966  0.9796 -1.0641
  319MOL0     H43990   3.246   9.513  10.556  1.1581  0.2417 -1.9102
  319MOL0     H43991   3.181   9.654  10.628 -2.1797 -1.1985  0.7326
  319MOL0     H43992   3.174   9.758  10.390  1.3884  1.6565  3.2132
  319MOL0     H43993   3.271   9.617  10.339  0.8838  0.8579 -0.3754
  319MOL0     H43994   3.415   9.813  10.374 -0.0824 -0.8704  0.0866
  319MOL0     H43995   3.346   9.849  10.532 -0.9562  0.1057 -1.3555
  319MOL0     H43996   3.481   9.580  10.461 -0.0203  0.2919 -0.8783
  319MOL0     H43997   3.427   9.648  10.624 -0.3833 -0.2691 -1.1452
  319MOL0     H43998   3.597   9.823  10.589  0.5643 -0.7528  1.7720
  319MOL0     H43999   3.637   9.752  10.437 -0.5147 -0.1581 -0.9874
  319MOL0     H44000   3.719   9.541  10.566  2.4322 -0.5595  1.0872
  319MOL0     H44001   3.666   9.616  10.713  0.1335  0.8493  0.0869
  319MOL0     H44002   2.755   9.306  10.652 -3.6643 -0.6858 -0.9640
  319MOL0     H44003   2.513   9.341  10.710  0.4396 -0.9797  1.6340
  319MOL0     H44004   2.235   9.728  10.908 -1.0076  1.8413 -0.6751
  319MOL0     H44005   1.993   9.770  10.964 -1.3098 -0.8070  1.0992
  319MOL0     H44006   2.112   8.733  11.351  0.5556  0.4739  3.0946
  319MOL0     H44007   2.261   8.908  11.378 -2.4704  0.2930 -1.1177
  319MOL0     H44008   2.508   9.248  11.134  0.5083  1.3134 -1.3783
  319MOL0     H44009   2.683   9.421  11.112  0.8024  0.6561  0.0964
  319MOL0     H44010   3.104   9.269  11.126  1.7404 -0.9551 -3.8286
  319MOL0     H44011   3.018   9.349  10.985  3.2776 -0.4003 -1.3256
  319MOL0     H44012   3.176   9.494  11.191  0.9699 -0.0220 -0.6898
  319MOL0     H44013   3.102   9.555  11.046  1.8596  2.3739  1.2610
  319MOL0     H44014   3.358   9.495  11.049  0.8590  0.0399 -0.2472
  319MOL0     H44015   3.302   9.330  11.058  1.4165 -0.4411 -0.9950
  319MOL0     H44016   3.249   9.534  10.839  0.1940 -1.2391 -2.3182
  319MOL0     H44017   3.182   9.370  10.836 -0.3578  1.7987 -0.8408
  319MOL0     H44018   3.555   9.277  10.699 -1.3322  0.0570 -2.3463
  319MOL0     H44019   2.967   9.134  11.232  0.2156 -0.1145  0.1563
  319MOL0     H44020   2.791   8.863  11.321  2.6281 -1.2289  0.3942
  319MOL0     H44021   2.772   8.842  11.150 -0.7555 -0.1116  2.0315
  319MOL0     H44022   2.924   8.899  11.224  0.3495  2.0723  2.0509
  320MOL0     O44023  10.469   0.228   3.806 -0.6539 -0.4760  0.2401
  320MOL0     C44024  10.550   0.197   3.896 -0.0088 -0.0608 -0.0284
  320MOL0     O44025  10.684   0.228   3.894 -0.5192  0.2600  0.1097
  320MOL0     C44026  10.736   0.296   3.788  0.2565 -0.5296 -0.3195
  320MOL0     C44027  10.745   0.230   3.665 -0.0229  0.3880  0.6299
  320MOL0     C44028  10.828   0.284   3.558 -0.5797 -0.1599  0.5822
  320MOL0     C44029  10.896   0.401   3.579  0.5015 -0.7127 -0.3913
  320MOL0     O44030  10.976   0.452   3.486  0.1803 -0.6783  0.4249
  320MOL0     C44031  10.968   0.413   3.351 -0.2487  0.4763 -0.5515
  320MOL0     C44032  11.032   0.517   3.260 -0.0711 -0.0223  0.8247
  320MOL0     C44033  11.185   0.503   3.268  0.9442 -0.1661 -0.1969
  320MOL0     C44034  11.249   0.391   3.172  0.2679  0.7899 -0.4574
  320MOL0     C44035  11.407   0.402   3.154 -0.0072 -0.7809  0.7001
  320MOL0     C44036  11.486   0.358   3.273 -0.0556 -0.3854  0.4972
  320MOL0     C44037  11.637   0.349   3.231 -0.2279 -0.0638  0.0900
  320MOL0     C44038  11.663   0.219   3.145  0.7694  0.2080 -0.0580
  320MOL0     N44039  11.802   0.179   3.118  0.2450  0.6169 -0.3251
  320MOL0     C44040  11.862   0.145   2.999  0.2050 -0.0238  0.1205
  320MOL0     C44041  11.984   0.112   3.031 -0.1069  0.2230 -0.3803
  320MOL0     C44042  12.095   0.074   2.942 -0.7227  0.0311  0.2783
  320MOL0     C44043  12.226   0.152   2.992  0.1734  1.0612  0.0461
  320MOL0     C44044  12.327   0.056   3.050  0.1778  0.7909 -0.2220
  320MOL0     C44045  12.286  -0.004   3.186 -0.4868  0.6382  0.3345
  320MOL0     O44046  12.348  -0.124   3.235  0.0839 -0.8985 -0.0372
  320MOL0     C44047  12.480  -0.136   3.266  0.4977 -0.7053 -0.3612
  320MOL0     C44048  12.516  -0.264   3.318  0.1075  0.2959  0.4174
  320MOL0     C44049  12.647  -0.296   3.362  0.0910 -0.4190  0.2436
  320MOL0     C44050  12.670  -0.428   3.417 -0.2336 -0.4206 -0.0010
  320MOL0     C44051  12.742  -0.192   3.369 -0.1291 -0.4630  0.9520
  320MOL0     C44052  12.877  -0.192   3.429 -0.4714 -0.1648 -0.1838
  320MOL0     O44053  12.974  -0.119   3.369 -0.4571  0.0310 -0.1486
  320MOL0     C44054  13.099  -0.116   3.427  0.0629 -1.1144 -0.4212
  320MOL0     C44055  13.143   0.004   3.486 -0.3881  0.3622 -0.4312
  320MOL0     C44056  13.276   0.016   3.526 -0.8963 -0.4248  0.1534
  320MOL0     C44057  13.370  -0.082   3.520  0.1402 -0.2830 -0.8374
  320MOL0     O44058  13.490  -0.049   3.568  0.2044  0.8526  0.3176
  320MOL0     C44059  13.571  -0.167   3.593 -0.1533  0.2333  0.9715
  320MOL0     C44060  13.683  -0.139   3.685 -0.5841  0.3767  0.2549
  320MOL0     C44061  13.773  -0.010   3.666  0.7242  0.4773  0.3384
  320MOL0     C44062  13.909  -0.016   3.731 -0.4789 -0.3828 -0.5134
  320MOL0     C44063  14.002   0.097   3.705  0.2260  0.9680  0.4955
  320MOL0     C44064  14.057   0.163   3.833  0.1020 -0.7143  0.5569
  320MOL0     C44065  14.161   0.084   3.907 -1.4383  0.1970 -0.5725
  320MOL0     C44066  14.302   0.109   3.851 -0.1516  0.4220 -0.4081
  320MOL0    Cl44067  14.340   0.276   3.873 -0.0738 -0.1199  0.2002
  320MOL0     C44068  13.326  -0.201   3.458  0.4105  0.7760 -0.2943
  320MOL0     C44069  13.193  -0.216   3.410 -0.9029  0.1278  1.2236
  320MOL0     O44070  12.892  -0.249   3.537  0.2412  0.2182  0.8898
  320MOL0     C44071  12.695  -0.058   3.325 -0.0673 -0.1982 -0.5537
  320MOL0     C44072  12.573  -0.034   3.271  0.3131  0.0514  0.1980
  320MOL0     N44073  11.994   0.111   3.172  0.4584 -1.1186 -0.1935
  320MOL0     N44074  11.886   0.161   3.216  0.1639  0.5777 -0.5647
  320MOL0     C44075  10.884   0.468   3.697  0.6578  0.0667 -0.1420
  320MOL0     C44076  10.808   0.414   3.807  0.6800 -0.1305  1.0196
  320MOL0     C44077  10.494   0.104   4.002 -0.0910  0.6222  0.5552
  320MOL0     C44078  10.371   0.045   3.990 -0.7257  0.5216  0.3496
  320MOL0     C44079  10.317  -0.039   4.087  0.3069  0.5474  0.4108
  320MOL0     C44080  10.370  -0.059   4.215 -0.3652 -0.1840 -0.5253
  320MOL0     O44081  10.318  -0.128   4.319  0.1483 -0.1883 -0.5903
  320MOL0     C44082  10.195  -0.198   4.291 -0.7696  0.6667  0.4289
  320MOL0     C44083  10.188  -0.303   4.400 -0.2906  0.7743  0.2628
  320MOL0     C44084  10.067  -0.394   4.388  0.0313 -0.1292  0.0767
  320MOL0     C44085   9.938  -0.334   4.411  0.2152 -0.2124 -0.0504
  320MOL0     C44086   9.830  -0.437   4.386 -0.7634 -0.2275 -0.1750
  320MOL0     C44087   9.740  -0.516   4.365  0.6282  0.1674  0.3711
  320MOL0     C44088  10.497  -0.005   4.223  1.0231 -0.4535 -0.1964
  320MOL0     C44089  10.556   0.081   4.134 -0.7156 -0.1833  0.5621
  320MOL0     C44090  10.681   0.145   4.173 -0.9965  0.0560 -0.2726
  320MOL0     H44091  10.708   0.131   3.641  0.7428  0.0571  0.7986
  320MOL0     H44092  10.827   0.236   3.461 -0.3799  0.8838  0.0511
  320MOL0     H44093  10.869   0.387   3.312 -1.2478  2.1904  0.6814
  320MOL0     H44094  11.024   0.319   3.353  0.1519  0.6636 -1.9555
  320MOL0     H44095  11.011   0.486   3.157  3.6357 -2.4104  0.6138
  320MOL0     H44096  11.004   0.623   3.269  2.8492  1.4791 -4.0279
  320MOL0     H44097  11.222   0.602   3.240  0.4219  0.3306  0.8367
  320MOL0     H44098  11.222   0.497   3.371 -2.9024 -1.8755  1.2455
  320MOL0     H44099  11.215   0.292   3.203  3.4249 -0.8133 -1.6929
  320MOL0     H44100  11.208   0.411   3.073 -0.2815 -0.6786 -0.5361
  320MOL0     H44101  11.431   0.506   3.129 -0.9083 -0.4478  1.1834
  320MOL0     H44102  11.431   0.354   3.059  1.2713 -1.2098  1.2181
  320MOL0     H44103  11.480   0.430   3.355 -2.4674  0.2785 -0.1642
  320MOL0     H44104  11.457   0.256   3.301 -1.1869 -0.3334 -0.4346
  320MOL0     H44105  11.698   0.344   3.322  2.1135  0.9959 -1.3159
  320MOL0     H44106  11.678   0.440   3.187 -0.8035  0.9495  1.6041
  320MOL0     H44107  11.603   0.139   3.190  1.8534  0.6075  2.2551
  320MOL0     H44108  11.609   0.219   3.050  2.3479 -2.9159 -1.0761
  320MOL0     H44109  11.811   0.150   2.903  1.1214  0.3496 -0.3652
  320MOL0     H44110  12.076   0.109   2.840  2.7878 -0.5226 -0.7002
  320MOL0     H44111  12.104  -0.033   2.924  1.1664  0.2689 -0.4396
  320MOL0     H44112  12.276   0.195   2.906 -0.9265  1.1970 -0.5500
  320MOL0     H44113  12.203   0.224   3.072 -0.5699  0.7673  0.1090
  320MOL0     H44114  12.326  -0.028   2.980  1.7502 -0.6052  1.3168
  320MOL0     H44115  12.422   0.109   3.058 -0.2541  1.7774 -1.3962
  320MOL0     H44116  12.288   0.073   3.264 -1.0917 -0.2293  1.2384
  320MOL0     H44117  12.184  -0.042   3.175  0.1103 -1.7977  2.3090
  320MOL0     H44118  12.434  -0.334   3.327  0.7168 -0.3950  0.8050
  320MOL0     H44119  12.602  -0.498   3.369 -3.4086  2.5698 -0.2131
  320MOL0     H44120  12.647  -0.429   3.524  0.4455 -1.8874  0.1612
  320MOL0     H44121  12.774  -0.462   3.408 -0.4444 -0.6335 -2.5957
  320MOL0     H44122  13.071   0.085   3.490 -2.7763 -1.6479  1.8667
  320MOL0     H44123  13.301   0.112   3.569 -3.0372  0.7106 -0.9991
  320MOL0     H44124  13.504  -0.242   3.636 -1.1369 -0.2309 -1.2355
  320MOL0     H44125  13.615  -0.214   3.504  1.2519  1.3243  1.0687
  320MOL0     H44126  13.642  -0.154   3.786 -1.0943 -0.5979 -0.0837
  320MOL0     H44127  13.751  -0.222   3.666 -1.1284  0.3759 -1.8666
  320MOL0     H44128  13.728   0.083   3.701 -2.5168 -0.9533  0.2952
  320MOL0     H44129  13.780   0.012   3.559  1.0600  0.8814  0.4403
  320MOL0     H44130  13.965  -0.107   3.707  0.6349  0.3759 -0.8575
  320MOL0     H44131  13.904  -0.019   3.840  2.8147  0.0869 -0.2495
  320MOL0     H44132  14.086   0.061   3.646 -0.7936  0.3781 -0.6611
  320MOL0     H44133  13.951   0.167   3.639  0.9406 -0.9957 -2.3393
  320MOL0     H44134  13.974   0.183   3.901  1.2466 -4.4919  3.4382
  320MOL0     H44135  14.091   0.265   3.816 -0.0122 -0.6830  0.5089
  320MOL0     H44136  14.143  -0.024   3.903  0.2632 -0.0756 -1.7890
  320MOL0     H44137  14.171   0.110   4.013  2.2183 -2.4381 -0.0848
  320MOL0     H44138  14.298   0.079   3.746 -2.1043 -2.6575  0.3990
  320MOL0     H44139  14.377   0.045   3.899 -1.4816 -1.8076 -1.1658
  320MOL0     H44140  13.403  -0.278   3.461  1.1492  1.5224  1.2016
  320MOL0     H44141  13.163  -0.309   3.363  0.1193  0.5969 -0.4640
  320MOL0     H44142  12.775   0.014   3.338 -0.6768 -0.0541  5.1657
  320MOL0     H44143  12.543   0.067   3.245  0.7775  0.1563  0.0711
  320MOL0     H44144  10.947   0.553   3.720 -1.3118  1.6953 -0.5243
  320MOL0     H44145  10.795   0.456   3.907  1.6923  0.4517  0.9285
  320MOL0     H44146  10.327   0.053   3.891 -2.4953 -0.4322  1.0077
  320MOL0     H44147  10.227  -0.096   4.064  0.5281  0.0360  0.8075
  320MOL0     H44148  10.107  -0.134   4.284 -0.1692  1.3834 -1.0442
  320MOL0     H44149  10.208  -0.248   4.195 -0.1503 -0.2963  1.0033
  320MOL0     H44150  10.179  -0.260   4.500 -2.6973  0.3180  0.3229
  320MOL0     H44151  10.276  -0.368   4.402 -1.2211 -0.6239 -1.3331
  320MOL0     H44152  10.071  -0.423   4.283 -0.5264 -1.3867  0.3833
  320MOL0     H44153  10.075  -0.486   4.446  0.3418 -1.2091 -1.6080
  320MOL0     H44154   9.916  -0.254   4.340 -0.0544  0.9241  1.2842
  320MOL0     H44155   9.931  -0.304   4.516  0.4921 -1.4336  0.3391
  320MOL0     H44156   9.657  -0.582   4.349  1.7777 -1.9722  2.5528
  320MOL0     H44157  10.526  -0.012   4.328 -4.1030  3.5217  1.9337
  320MOL0     H44158  10.758   0.102   4.108 -1.9015 -0.3218 -1.1211
  320MOL0     H44159  10.681   0.253   4.155 -0.5667 -0.0579 -0.9757
  320MOL0     H44160  10.715   0.117   4.273 -0.5100 -1.3852 -0.8227
  321MOL0     O44161   8.791   7.469   9.334 -0.6369 -0.7801  0.1301
  321MOL0     C44162   8.769   7.353   9.302 -0.3377  0.7285  0.5110
  321MOL0     O44163   8.863   7.263   9.277 -0.1878  0.8001  0.4509
  321MOL0     C44164   8.994   7.303   9.259 -0.2731 -0.5939 -0.4017
  321MOL0     C44165   9.101   7.237   9.309 -0.1182  0.3615 -1.4518
  321MOL0     C44166   9.230   7.276   9.284  0.3777 -1.0460 -0.0490
  321MOL0     C44167   9.264   7.392   9.216  0.6884  0.0823 -0.0648
  321MOL0     O44168   9.389   7.437   9.185 -0.2114  0.1192  0.7000
  321MOL0     C44169   9.499   7.376   9.262  0.4601 -0.2814  0.0637
  321MOL0     C44170   9.634   7.434   9.219  0.7526  0.2997 -0.2176
  321MOL0     C44171   9.672   7.578   9.269 -0.3717 -0.1679  0.0533
  321MOL0     C44172   9.816   7.610   9.237 -0.1208 -0.0769  0.5463
  321MOL0     C44173   9.863   7.747   9.265  0.5482 -0.3014  0.0934
  321MOL0     C44174   9.999   7.785   9.196 -0.0620 -0.7060 -0.8125
  321MOL0     C44175  10.030   7.931   9.235  0.0741  0.0842  0.0457
  321MOL0     C44176  10.161   7.992   9.187 -0.5295 -0.7502  0.4863
  321MOL0     N44177  10.277   7.920   9.228  0.2267 -0.2003  0.4352
  321MOL0     C44178  10.315   7.894   9.351 -0.1688 -0.4222  0.5501
  321MOL0     C44179  10.401   7.794   9.349  0.3294 -1.8329  0.4330
  321MOL0     C44180  10.461   7.730   9.470  1.1352  1.0482  0.3128
  321MOL0     C44181  10.603   7.744   9.505  0.6888 -0.1014  0.4507
  321MOL0     C44182  10.691   7.656   9.420 -0.4624  0.1742  0.0922
  321MOL0     C44183  10.841   7.667   9.481  0.2962 -0.0687 -0.4780
  321MOL0     O44184  10.906   7.586   9.387  0.3418 -0.1516  0.6488
  321MOL0     C44185  11.020   7.644   9.333  1.1255 -1.0164  0.3150
  321MOL0     C44186  11.128   7.563   9.298  0.0508 -0.5034 -0.6389
  321MOL0     C44187  11.233   7.616   9.234  0.1185 -0.2850 -0.0548
  321MOL0     C44188  11.340   7.517   9.189  0.3866 -0.3187 -0.3060
  321MOL0     C44189  11.245   7.756   9.195 -0.7141 -0.0025  0.9122
  321MOL0     C44190  11.372   7.824   9.136 -0.0552  0.5156  0.7738
  321MOL0     O44191  11.480   7.743   9.099  0.2602  0.5530 -0.2426
  321MOL0     C44192  11.597   7.808   9.045  0.8249 -0.1380  0.1418
  321MOL0     C44193  11.600   7.935   8.972  0.0596  0.1847 -0.9113
  321MOL0     C44194  11.714   7.999   8.945 -0.0647 -0.6604  0.0442
  321MOL0     C44195  11.835   7.950   8.977  0.8196 -0.4182  0.0255
  321MOL0     O44196  11.954   8.021   8.944  0.8433 -0.0720 -0.1553
  321MOL0     C44197  11.964   8.104   8.827 -0.2534 -0.5794 -0.9453
  321MOL0     C44198  12.115   8.130   8.786 -0.6946 -0.1438  0.3832
  321MOL0     C44199  12.194   8.171   8.905  0.4919 -0.0637 -0.6525
  321MOL0     C44200  12.333   8.207   8.872  0.2788 -0.0928  0.8519
  321MOL0     C44201  12.411   8.096   8.813  0.0622 -0.1731  0.7226
  321MOL0     C44202  12.547   8.150   8.750  0.5589 -0.5127 -0.0328
  321MOL0     C44203  12.635   8.033   8.699 -0.3777 -0.0598 -0.4616
  321MOL0     C44204  12.786   8.073   8.695 -0.1731  0.9388 -0.1217
  321MOL0    Cl44205  12.879   7.975   8.573 -0.2961 -0.1722  0.1775
  321MOL0     C44206  11.843   7.825   9.045 -0.5522 -0.6185  0.8050
  321MOL0     C44207  11.727   7.758   9.075  0.0262  0.0349 -0.6868
  321MOL0     O44208  11.372   7.949   9.141 -0.6974  0.3516 -0.4424
  321MOL0     C44209  11.130   7.834   9.220 -0.4398 -0.0357 -0.6305
  321MOL0     C44210  11.022   7.776   9.277 -0.2583  0.0555 -1.2147
  321MOL0     N44211  10.409   7.754   9.220  0.3977  0.2788  0.6306
  321MOL0     N44212  10.334   7.825   9.148  0.7957  0.0386  0.1004
  321MOL0     C44213   9.160   7.471   9.169  0.5952  0.7043  1.1175
  321MOL0     C44214   9.029   7.423   9.193  0.1186 -0.1650 -0.3174
  321MOL0     C44215   8.625   7.317   9.288 -0.5843  0.1939  0.2046
  321MOL0     C44216   8.537   7.415   9.242 -0.2450  0.0208 -0.3920
  321MOL0     C44217   8.406   7.385   9.220  0.5520 -0.5258 -0.3627
  321MOL0     C44218   8.350   7.258   9.248 -0.4089 -0.3069  0.8882
  321MOL0     O44219   8.217   7.226   9.229  0.5171  0.2213 -0.0994
  321MOL0     C44220   8.119   7.332   9.243  0.4391 -0.1111  0.0632
  321MOL0     C44221   7.983   7.269   9.259 -0.4337  0.7427 -0.4652
  321MOL0     C44222   7.875   7.380   9.248 -0.5957  0.4349  0.4973
  321MOL0     C44223   7.741   7.327   9.197  1.0880  0.6901  0.6465
  321MOL0     C44224   7.674   7.268   9.315  0.2526 -0.5651  0.4060
  321MOL0     C44225   7.631   7.214   9.415  0.4513  0.0982  0.0098
  321MOL0     C44226   8.439   7.164   9.291 -0.6473 -0.4755  0.8862
  321MOL0     C44227   8.579   7.186   9.309  0.1115  0.4249 -0.1220
  321MOL0     C44228   8.660   7.070   9.357 -0.2707 -0.4213  0.1148
  321MOL0     H44229   9.075   7.142   9.355 -0.4563  0.4144 -1.5297
  321MOL0     H44230   9.312   7.217   9.325 -0.3042  0.1604  3.4355
  321MOL0     H44231   9.510   7.271   9.231  0.5537 -0.8471  1.8732
  321MOL0     H44232   9.494   7.379   9.371  4.3783  2.4160  0.3620
  321MOL0     H44233   9.702   7.359   9.261 -0.5488 -0.3135  0.8689
  321MOL0     H44234   9.636   7.444   9.110  1.6579  0.0441 -0.2344
  321MOL0     H44235   9.610   7.646   9.209  0.5074 -1.0957 -2.0012
  321MOL0     H44236   9.650   7.580   9.376  1.4220 -1.3798  0.4806
  321MOL0     H44237   9.885   7.539   9.284  0.6505 -1.2364 -2.1714
  321MOL0     H44238   9.827   7.584   9.132  0.3321 -1.1928  0.8557
  321MOL0     H44239   9.886   7.752   9.372  2.6950 -3.5420 -0.0958
  321MOL0     H44240   9.789   7.819   9.230  0.4444 -1.4149 -2.1513
  321MOL0     H44241  10.081   7.722   9.233 -0.6021 -0.8012  0.2690
  321MOL0     H44242   9.996   7.752   9.092  0.5861 -1.4451 -0.6126
  321MOL0     H44243  10.025   7.939   9.343 -0.4697  2.2775 -0.1084
  321MOL0     H44244   9.950   7.989   9.189 -1.1296 -1.2962  0.2979
  321MOL0     H44245  10.161   8.004   9.078  2.1397  1.8381  0.6525
  321MOL0     H44246  10.169   8.092   9.230  1.2888 -1.1768  1.2282
  321MOL0     H44247  10.281   7.939   9.444 -0.9051  2.5848 -1.0337
  321MOL0     H44248  10.434   7.624   9.466  0.9880  1.1082 -0.9032
  321MOL0     H44249  10.403   7.768   9.555  1.6992  0.3866  1.0055
  321MOL0     H44250  10.632   7.849   9.500  0.6854  0.0178  2.2352
  321MOL0     H44251  10.608   7.732   9.613 -0.5020  2.5555  0.8979
  321MOL0     H44252  10.638   7.560   9.413 -0.9967  0.5635 -1.5673
  321MOL0     H44253  10.697   7.695   9.318  0.1167 -0.8681 -0.2960
  321MOL0     H44254  10.871   7.772   9.479  1.6004 -0.4156  0.0216
  321MOL0     H44255  10.853   7.622   9.580  1.5672 -0.3286 -0.7300
  321MOL0     H44256  11.120   7.459   9.326 -1.6733 -0.3344 -0.3950
  321MOL0     H44257  11.303   7.416   9.203 -0.3675  0.0668  0.5439
  321MOL0     H44258  11.435   7.535   9.240  1.4726 -0.2494 -2.2329
  321MOL0     H44259  11.362   7.525   9.082 -0.1364 -0.9893 -0.4723
  321MOL0     H44260  11.510   7.984   8.936  0.5600  1.1778 -0.8195
  321MOL0     H44261  11.707   8.101   8.909 -2.2465 -1.0728 -0.8503
  321MOL0     H44262  11.909   8.068   8.739 -2.5522 -2.9273  1.2805
  321MOL0     H44263  11.920   8.200   8.855  0.8850 -0.6933  1.4572
  321MOL0     H44264  12.157   8.043   8.735  0.0459  0.5999 -0.3122
  321MOL0     H44265  12.117   8.195   8.697 -0.8238 -2.5677 -1.4960
  321MOL0     H44266  12.198   8.091   8.979 -0.4244  0.0737 -0.4387
  321MOL0     H44267  12.143   8.258   8.947  0.7799 -1.8877  4.0179
  321MOL0     H44268  12.378   8.231   8.968 -1.2651 -2.6030  2.3001
  321MOL0     H44269  12.338   8.297   8.809  0.1646 -1.4042 -1.1281
  321MOL0     H44270  12.430   8.026   8.895 -1.6940 -0.8084  0.6348
  321MOL0     H44271  12.351   8.038   8.743  0.1324  1.3737 -0.6840
  321MOL0     H44272  12.593   8.204   8.833  0.5643  0.2244 -0.5082
  321MOL0     H44273  12.528   8.219   8.668 -0.4564  0.9766  1.3745
  321MOL0     H44274  12.593   8.002   8.603 -0.8516 -1.7156  0.2416
  321MOL0     H44275  12.625   7.943   8.760 -0.6102 -0.0812 -0.5312
  321MOL0     H44276  12.823   8.045   8.794 -2.7768 -3.1617 -0.0773
  321MOL0     H44277  12.801   8.180   8.677 -1.9818  1.1096 -0.8493
  321MOL0     H44278  11.940   7.800   9.087  2.1260  5.2185 -0.9005
  321MOL0     H44279  11.728   7.674   9.144  0.8753  1.2905  0.8898
  321MOL0     H44280  11.132   7.939   9.193  3.8539  0.3613  0.5675
  321MOL0     H44281  10.930   7.833   9.276 -0.1596  0.3904  1.3079
  321MOL0     H44282   9.173   7.560   9.107 -2.9898 -0.2683 -1.3219
  321MOL0     H44283   8.949   7.482   9.150 -0.7116 -1.8376 -1.1560
  321MOL0     H44284   8.564   7.520   9.247 -2.6128  0.7852 -2.1438
  321MOL0     H44285   8.347   7.464   9.173 -1.1184 -0.7351  1.2661
  321MOL0     H44286   8.137   7.387   9.336 -0.3813  0.5134 -0.1346
  321MOL0     H44287   8.126   7.397   9.156  4.8597  0.6312  0.7187
  321MOL0     H44288   7.982   7.211   9.352 -1.2243  0.6699 -0.5116
  321MOL0     H44289   7.975   7.197   9.177  1.1886  0.9335 -0.8299
  321MOL0     H44290   7.857   7.433   9.341  3.1487 -0.4343  1.9317
  321MOL0     H44291   7.908   7.456   9.176  0.3969  1.1309  1.6566
  321MOL0     H44292   7.753   7.254   9.116 -0.3311  0.4114  0.6599
  321MOL0     H44293   7.683   7.411   9.157  0.1455  1.2080  2.9615
  321MOL0     H44294   7.584   7.171   9.501  2.1232 -0.5724  0.6274
  321MOL0     H44295   8.413   7.059   9.304  0.2216 -1.1301 -1.9209
  321MOL0     H44296   8.714   7.018   9.277 -0.3532 -1.3305  0.6339
  321MOL0     H44297   8.729   7.088   9.440  0.1682 -1.6199  0.0260
  321MOL0     H44298   8.593   6.994   9.400 -0.0741 -0.7599 -0.1729
  322MOL0     O44299   3.164   1.814   2.079 -0.8850 -0.7314 -0.2106
  322MOL0     C44300   3.204   1.728   2.162  0.2463 -0.3743 -0.2894
  322MOL0     O44301   3.321   1.662   2.165  0.1878 -0.5765 -0.0607
  322MOL0     C44302   3.425   1.703   2.084 -0.9973 -0.4307  0.4789
  322MOL0     C44303   3.494   1.822   2.123 -0.5834  0.9505 -0.6793
  322MOL0     C44304   3.607   1.857   2.050  0.8287 -0.1500  0.1538
  322MOL0     C44305   3.659   1.772   1.948  0.6922  0.8414 -0.3527
  322MOL0     O44306   3.768   1.803   1.873 -0.5098  0.2080 -0.2955
  322MOL0     C44307   3.872   1.888   1.922 -0.5913 -0.5595 -0.3851
  322MOL0     C44308   3.999   1.797   1.941  0.4429  0.8691 -0.1871
  322MOL0     C44309   4.053   1.756   1.806 -0.2978 -0.1927 -0.2676
  322MOL0     C44310   4.145   1.636   1.818 -0.7353  0.3316  0.4979
  322MOL0     C44311   4.213   1.609   1.682  0.2445  0.9265  0.3232
  322MOL0     C44312   4.120   1.534   1.584 -0.4481  0.7950 -0.2264
  322MOL0     C44313   4.067   1.399   1.646 -0.6162  0.2268  0.0623
  322MOL0     C44314   4.022   1.300   1.536 -0.4911  0.0105 -0.1223
  322MOL0     N44315   4.141   1.227   1.499 -0.2247  0.4901  1.0163
  322MOL0     C44316   4.211   1.259   1.388  0.2589  0.0660 -0.6848
  322MOL0     C44317   4.311   1.170   1.376 -0.0436  0.5630 -0.2816
  322MOL0     C44318   4.424   1.160   1.270 -0.0267  0.0987 -0.9609
  322MOL0     C44319   4.525   1.272   1.260  1.2371 -0.1829  0.1808
  322MOL0     C44320   4.576   1.319   1.395 -0.0348  0.3260  0.0795
  322MOL0     C44321   4.490   1.416   1.487 -0.2077  0.3365 -0.0154
  322MOL0     O44322   4.442   1.526   1.415 -0.2724 -0.0820 -0.4482
  322MOL0     C44323   4.529   1.629   1.375 -0.2732 -0.3112  0.1162
  322MOL0     C44324   4.594   1.704   1.471 -0.6317  0.4753  0.2583
  322MOL0     C44325   4.693   1.795   1.431  0.4182  0.3033  0.9154
  322MOL0     C44326   4.764   1.867   1.533  1.1538 -0.2267  0.6111
  322MOL0     C44327   4.717   1.814   1.290 -0.6009 -0.9460  0.9575
  322MOL0     C44328   4.832   1.892   1.235 -0.5571  1.0181 -0.3457
  322MOL0     O44329   4.941   1.921   1.315  0.0694  0.0641 -0.4481
  322MOL0     C44330   5.031   2.009   1.243  0.0478  0.0578 -0.0088
  322MOL0     C44331   5.048   2.133   1.295  0.2254 -0.6165 -0.5590
  322MOL0     C44332   5.138   2.218   1.240 -0.1345  0.7879  0.3753
  322MOL0     C44333   5.227   2.193   1.138  0.6161  0.0613  0.4528
  322MOL0     O44334   5.334   2.271   1.098 -0.0824  0.3579  0.7007
  322MOL0     C44335   5.391   2.353   1.207 -0.6328 -0.5513  0.9754
  322MOL0     C44336   5.487   2.276   1.300  1.2388  0.4893 -0.6401
  322MOL0     C44337   5.587   2.190   1.231 -0.9932  0.0404 -0.2000
  322MOL0     C44338   5.704   2.175   1.322  0.2409 -0.2677 -0.6528
  322MOL0     C44339   5.805   2.086   1.254  0.3392  1.4686  0.2551
  322MOL0     C44340   5.926   2.035   1.336 -0.3756 -0.1286  0.3629
  322MOL0     C44341   6.004   1.928   1.263  0.4500  0.1854 -0.3294
  322MOL0     C44342   6.154   1.938   1.268  0.8608 -0.9924  0.1866
  322MOL0    Cl44343   6.206   1.882   1.431  0.3596 -0.0669  0.3029
  322MOL0     C44344   5.207   2.060   1.076 -0.3876  0.5789  0.4337
  322MOL0     C44345   5.120   1.966   1.135  0.4434  0.3643 -0.0288
  322MOL0     O44346   4.820   1.929   1.118 -0.7881  0.3241  0.2714
  322MOL0     C44347   4.630   1.764   1.201 -0.1117 -0.0672 -0.5809
  322MOL0     C44348   4.538   1.670   1.244  1.0554 -0.9076  0.0646
  322MOL0     N44349   4.292   1.075   1.475  0.0857 -0.2875 -0.0833
  322MOL0     N44350   4.197   1.111   1.554  0.1306 -0.1039  0.0625
  322MOL0     C44351   3.591   1.649   1.919  0.4682  0.5033 -0.1028
  322MOL0     C44352   3.475   1.615   1.991  0.1285  0.4492  0.1470
  322MOL0     C44353   3.106   1.696   2.259 -1.1255  0.7608 -0.8283
  322MOL0     C44354   2.973   1.666   2.221 -1.1121 -0.3019 -0.1855
  322MOL0     C44355   2.879   1.637   2.322  0.3362 -0.1058 -0.4198
  322MOL0     C44356   2.916   1.629   2.451  0.7381  0.2039 -1.0118
  322MOL0     O44357   2.820   1.612   2.545  0.0457  0.2301 -0.1003
  322MOL0     C44358   2.720   1.719   2.566 -0.1433 -0.0775 -0.3950
  322MOL0     C44359   2.658   1.693   2.708 -0.3246  0.3370 -0.3559
  322MOL0     C44360   2.566   1.565   2.713  0.4020  0.5181  1.3250
  322MOL0     C44361   2.423   1.594   2.640 -0.1857 -0.1185 -0.2871
  322MOL0     C44362   2.342   1.474   2.661  1.2777  0.3701  0.2869
  322MOL0     C44363   2.275   1.377   2.697  0.2679 -0.3696 -0.7592
  322MOL0     C44364   3.042   1.650   2.491 -0.2409 -0.9630 -0.6343
  322MOL0     C44365   3.142   1.693   2.402  0.2345 -0.3603  0.7500
  322MOL0     C44366   3.263   1.763   2.458  0.4440  0.0577 -0.3339
  322MOL0     H44367   3.476   1.893   2.203  3.4909 -1.3563  2.6498
  322MOL0     H44368   3.642   1.958   2.070  1.9425 -0.8343  1.8609
  322MOL0     H44369   3.842   1.936   2.015 -0.6827 -2.6680  0.7442
  322MOL0     H44370   3.900   1.962   1.847  0.5698 -0.7564 -0.1721
  322MOL0     H44371   4.079   1.827   2.010 -0.9729 -0.5756  2.2166
  322MOL0     H44372   3.964   1.702   1.982 -1.0026  2.7776  3.5724
  322MOL0     H44373   3.976   1.730   1.733 -0.5101  0.7978 -0.4092
  322MOL0     H44374   4.105   1.844   1.767 -1.6445  0.5273 -0.4845
  322MOL0     H44375   4.227   1.667   1.884  0.5720 -1.7177 -0.1010
  322MOL0     H44376   4.097   1.548   1.861 -1.3055  0.2684 -0.2444
  322MOL0     H44377   4.299   1.543   1.696  1.0837  1.8266 -0.4377
  322MOL0     H44378   4.249   1.701   1.634  3.4819 -0.5292 -0.3081
  322MOL0     H44379   4.038   1.600   1.555 -0.0896  1.2647 -0.1914
  322MOL0     H44380   4.189   1.508   1.503  0.0514  1.3539  0.0105
  322MOL0     H44381   3.979   1.421   1.707 -0.7908  1.6951 -0.6721
  322MOL0     H44382   4.144   1.354   1.710 -2.0339 -0.6634  1.2172
  322MOL0     H44383   3.946   1.237   1.582 -0.0286 -0.4276  0.0568
  322MOL0     H44384   3.981   1.355   1.452  0.8368 -2.0455 -2.2482
  322MOL0     H44385   4.181   1.334   1.316  0.2544  1.4375  0.6805
  322MOL0     H44386   4.367   1.154   1.177 -1.8956  1.0776  0.0491
  322MOL0     H44387   4.481   1.070   1.296 -2.4695 -0.3618  4.0342
  322MOL0     H44388   4.619   1.255   1.205  1.6948  2.0074  0.2004
  322MOL0     H44389   4.469   1.355   1.214  1.2589  0.2710  0.9583
  322MOL0     H44390   4.606   1.231   1.453  1.5711 -0.1348 -1.3710
  322MOL0     H44391   4.663   1.383   1.382  0.4292 -0.5793 -1.5419
  322MOL0     H44392   4.421   1.348   1.538  1.1889 -0.6923  0.5968
  322MOL0     H44393   4.561   1.449   1.564  2.0838 -0.6455 -1.5759
  322MOL0     H44394   4.590   1.686   1.578  0.2176  0.8776  0.3640
  322MOL0     H44395   4.712   1.858   1.629  0.4121 -3.8783  0.0146
  322MOL0     H44396   4.737   1.968   1.500 -0.9138 -0.3368  1.8353
  322MOL0     H44397   4.869   1.837   1.534  1.3470  0.2083 -1.7450
  322MOL0     H44398   4.983   2.157   1.378  0.6833 -1.3287  0.0205
  322MOL0     H44399   5.132   2.319   1.282 -0.7136  0.1039  2.0294
  322MOL0     H44400   5.442   2.431   1.148 -2.2346 -1.4871 -1.8484
  322MOL0     H44401   5.309   2.405   1.258 -2.7257  0.7773 -3.1876
  322MOL0     H44402   5.531   2.354   1.363  0.9225  1.0407 -1.0827
  322MOL0     H44403   5.431   2.211   1.367  2.9735 -0.0175  0.3883
  322MOL0     H44404   5.614   2.244   1.139 -3.9644  2.2959  0.0993
  322MOL0     H44405   5.542   2.091   1.216  2.9945 -1.7904 -1.6533
  322MOL0     H44406   5.669   2.142   1.420 -0.9986  0.3911 -0.8551
  322MOL0     H44407   5.756   2.272   1.331 -0.5306  0.1595 -0.7459
  322MOL0     H44408   5.748   1.995   1.232  2.3560  0.2520 -0.2007
  322MOL0     H44409   5.839   2.127   1.159 -1.2044 -0.8470 -1.4089
  322MOL0     H44410   5.899   2.008   1.439 -0.7757  2.9141  1.1415
  322MOL0     H44411   5.994   2.121   1.344 -0.7730  0.2243 -0.0633
  322MOL0     H44412   5.974   1.941   1.158  0.1477  2.7009  0.0065
  322MOL0     H44413   5.968   1.828   1.290 -2.2924  1.1280 -0.1328
  322MOL0     H44414   6.177   2.044   1.256  4.4477 -1.8052 -1.5417
  322MOL0     H44415   6.195   1.871   1.192 -1.0097 -1.0748 -0.8049
  322MOL0     H44416   5.272   2.038   0.992 -1.3563  0.2589 -0.2502
  322MOL0     H44417   5.122   1.868   1.089 -2.1312  1.1582 -2.1163
  322MOL0     H44418   4.626   1.790   1.095  0.2275 -0.8550 -0.7892
  322MOL0     H44419   4.464   1.626   1.178  2.4960 -0.7632 -1.7286
  322MOL0     H44420   3.618   1.590   1.832 -0.5503  5.0234 -3.9031
  322MOL0     H44421   3.422   1.521   1.976  3.5003 -1.5733 -0.1148
  322MOL0     H44422   2.945   1.679   2.116  0.8559  0.3553 -0.6640
  322MOL0     H44423   2.771   1.630   2.310  0.4969  0.0550 -2.1408
  322MOL0     H44424   2.755   1.823   2.567 -0.6532  0.1806 -2.5316
  322MOL0     H44425   2.641   1.719   2.489  1.5323  2.7266 -2.3120
  322MOL0     H44426   2.599   1.782   2.732 -2.5813 -1.8140  2.8869
  322MOL0     H44427   2.737   1.677   2.781 -1.8545  4.7192  2.7040
  322MOL0     H44428   2.622   1.477   2.680 -0.8784 -0.1316  0.8497
  322MOL0     H44429   2.556   1.543   2.820  4.6666  3.0244  2.5103
  322MOL0     H44430   2.434   1.612   2.532  0.8552  1.7202  0.0679
  322MOL0     H44431   2.385   1.687   2.685 -0.4622  0.1552 -1.0636
  322MOL0     H44432   2.218   1.290   2.724  0.1879 -0.3856 -0.9857
  322MOL0     H44433   3.056   1.668   2.597  0.5302  2.0928 -1.1464
  322MOL0     H44434   3.354   1.752   2.399 -0.3186 -0.3411 -1.4875
  322MOL0     H44435   3.243   1.870   2.464  1.3653  0.2725 -0.8948
  322MOL0     H44436   3.295   1.716   2.551  3.5204  1.5243 -0.5549
  323MOL0     O44437   9.359  11.383   6.838 -0.0807 -0.0353 -0.3214
  323MOL0     C44438   9.264  11.311   6.801  0.2119  1.4918 -0.3257
  323MOL0     O44439   9.267  11.219   6.701 -0.3331  0.1195  0.5409
  323MOL0     C44440   9.375  11.205   6.605  0.2058  0.4823  0.0919
  323MOL0     C44441   9.507  11.235   6.634  0.8277 -0.0172  0.1116
  323MOL0     C44442   9.599  11.234   6.528 -0.6127 -0.0276 -0.5288
  323MOL0     C44443   9.564  11.176   6.408 -0.6834 -0.6764  0.3464
  323MOL0     O44444   9.671  11.174   6.326 -0.7140 -0.3028 -0.1102
  323MOL0     C44445   9.658  11.083   6.218  0.2159 -0.0688 -0.8859
  323MOL0     C44446   9.793  11.045   6.162 -0.2167 -0.4047  0.1563
  323MOL0     C44447   9.907  11.028   6.265 -1.3030 -0.9348 -0.1106
  323MOL0     C44448  10.046  11.026   6.196  0.0845  0.2363  0.1027
  323MOL0     C44449  10.158  11.031   6.299 -0.5048 -0.3740 -0.3247
  323MOL0     C44450  10.300  11.059   6.245  0.0645 -0.3614 -0.3118
  323MOL0     C44451  10.406  11.095   6.350 -0.5145  0.2821 -1.2013
  323MOL0     C44452  10.376  11.214   6.444 -0.2461  0.4560  0.1927
  323MOL0     N44453  10.506  11.246   6.502  0.9056 -0.1505  0.0849
  323MOL0     C44454  10.562  11.212   6.620  0.6967  0.0286 -1.0226
  323MOL0     C44455  10.679  11.287   6.632  0.1865 -0.0489  0.3909
  323MOL0     C44456  10.766  11.291   6.752 -0.0694  0.5350 -0.3834
  323MOL0     C44457  10.896  11.221   6.742  0.0236 -0.2820  0.4457
  323MOL0     C44458  10.888  11.068   6.757 -0.2986 -0.0636  1.3422
  323MOL0     C44459  11.020  10.989   6.781 -0.4865 -0.0088  0.2848
  323MOL0     O44460  11.063  11.010   6.912  0.3198 -0.3105  0.0028
  323MOL0     C44461  11.187  10.965   6.950 -0.0653 -0.0501  0.2395
  323MOL0     C44462  11.244  11.005   7.073  0.7586  0.0216 -0.1989
  323MOL0     C44463  11.381  10.980   7.105 -0.2175 -0.1319  0.7505
  323MOL0     C44464  11.430  11.050   7.231  1.3169 -0.0605  0.3533
  323MOL0     C44465  11.453  10.897   7.024 -0.4360  0.5643 -0.2449
  323MOL0     C44466  11.597  10.855   7.056 -0.3859  0.0691  0.5083
  323MOL0     O44467  11.672  10.921   7.149 -0.0709  0.3042 -0.3738
  323MOL0     C44468  11.813  10.896   7.152 -0.0211 -0.0325  0.0337
  323MOL0     C44469  11.889  10.880   7.261  0.1454  0.7705 -0.3499
  323MOL0     C44470  12.029  10.862   7.260  0.1579 -0.4415  0.1261
  323MOL0     C44471  12.102  10.879   7.143  0.0322 -0.6829 -0.7794
  323MOL0     O44472  12.240  10.887   7.169  0.2054 -0.2189  0.9881
  323MOL0     C44473  12.320  10.874   7.046 -0.4132 -0.3519 -0.2683
  323MOL0     C44474  12.466  10.879   7.085  0.9061 -0.6307 -0.5127
  323MOL0     C44475  12.500  10.800   7.217 -0.4899  0.6951  0.1514
  323MOL0     C44476  12.651  10.771   7.234 -0.0269  0.1033 -0.1729
  323MOL0     C44477  12.744  10.892   7.258  0.2067 -0.5204 -0.3131
  323MOL0     C44478  12.885  10.842   7.290 -1.0157  0.0185 -0.0553
  323MOL0     C44479  12.980  10.956   7.337  0.4594 -0.2406  0.7531
  323MOL0     C44480  13.126  10.910   7.337  0.3046  0.0446 -0.4623
  323MOL0    Cl44481  13.208  11.052   7.397  0.2105 -0.0489 -0.0639
  323MOL0     C44482  12.026  10.888   7.023  0.1041 -0.0039  1.2420
  323MOL0     C44483  11.884  10.903   7.028 -0.3384  0.6899 -0.4708
  323MOL0     O44484  11.629  10.753   6.992 -0.8160 -0.5664 -0.5439
  323MOL0     C44485  11.389  10.841   6.907  0.4230 -0.1504 -0.2631
  323MOL0     C44486  11.262  10.874   6.867 -0.1815 -0.2952 -0.0220
  323MOL0     N44487  10.692  11.351   6.514  0.1944  0.1775 -0.2132
  323MOL0     N44488  10.594  11.330   6.437 -0.5984 -0.1640  0.5134
  323MOL0     C44489   9.436  11.137   6.379 -0.1369 -1.2641  0.0952
  323MOL0     C44490   9.341  11.153   6.480  0.2482 -0.0359 -0.9433
  323MOL0     C44491   9.144  11.312   6.883  0.2319  0.1314 -0.4267
  323MOL0     C44492   9.077  11.185   6.899  0.2222  0.4777  0.0567
  323MOL0     C44493   8.956  11.179   6.964 -0.2558  0.2286  0.3169
  323MOL0     C44494   8.903  11.293   7.019  0.6779  0.6490 -1.6559
  323MOL0     O44495   8.776  11.271   7.075 -0.1165 -0.5369 -0.8287
  323MOL0     C44496   8.715  11.374   7.152  0.3137  0.6881  0.4262
  323MOL0     C44497   8.617  11.468   7.070 -1.2713  0.4650 -0.7456
  323MOL0     C44498   8.509  11.380   7.004 -0.3375 -0.2913 -0.5662
  323MOL0     C44499   8.399  11.476   6.953  0.0477  0.1855 -0.2318
  323MOL0     C44500   8.294  11.490   7.055 -0.5363  0.3582  1.0920
  323MOL0     C44501   8.226  11.504   7.150  0.2258 -0.4757  0.7905
  323MOL0     C44502   8.956  11.413   6.992  0.0050 -0.9154  0.2986
  323MOL0     C44503   9.073  11.430   6.923 -0.2791 -0.3774  0.2088
  323MOL0     C44504   9.139  11.571   6.921  0.0282  0.1811 -0.0512
  323MOL0     H44505   9.543  11.283   6.725 -1.8693  0.6724  0.9330
  323MOL0     H44506   9.701  11.267   6.543  0.2766 -2.9326  0.7340
  323MOL0     H44507   9.593  11.136   6.146 -2.4212 -2.7266 -0.6659
  323MOL0     H44508   9.602  10.993   6.247 -2.2759  1.9553  1.1380
  323MOL0     H44509   9.771  10.962   6.095 -1.1353 -1.3108  1.5232
  323MOL0     H44510   9.837  11.123   6.099  3.0051 -2.4864 -0.4118
  323MOL0     H44511   9.907  11.105   6.342  0.2419  0.9648 -1.8729
  323MOL0     H44512   9.908  10.934   6.319 -1.2249 -1.7948 -1.5422
  323MOL0     H44513  10.045  10.931   6.142  1.0598 -1.0482  2.2522
  323MOL0     H44514  10.056  11.112   6.129 -2.7516  1.2568  0.8197
  323MOL0     H44515  10.156  10.942   6.362 -3.0309 -0.5639 -0.5863
  323MOL0     H44516  10.124  11.124   6.347 -0.5441 -0.2195 -0.6472
  323MOL0     H44517  10.331  10.974   6.184 -0.5690 -0.5401 -0.3909
  323MOL0     H44518  10.292  11.139   6.171  2.2454  0.9650  0.8037
  323MOL0     H44519  10.505  11.107   6.306 -0.9869 -0.3596 -2.4917
  323MOL0     H44520  10.410  11.002   6.408 -0.6440 -0.4524 -2.3442
  323MOL0     H44521  10.342  11.302   6.388  1.6602  0.4109 -1.1315
  323MOL0     H44522  10.309  11.186   6.525  1.2473 -2.2729  0.5897
  323MOL0     H44523  10.520  11.151   6.699  1.2464  3.7440  2.4573
  323MOL0     H44524  10.708  11.245   6.832 -0.7708 -2.1603 -2.3131
  323MOL0     H44525  10.783  11.395   6.781 -1.9267  0.6008  0.5876
  323MOL0     H44526  10.951  11.236   6.648 -1.0135 -0.7552 -0.2537
  323MOL0     H44527  10.967  11.261   6.815  2.2626 -0.9274 -1.2464
  323MOL0     H44528  10.819  11.035   6.835 -0.8602  0.1131  0.9312
  323MOL0     H44529  10.843  11.036   6.662  0.2395 -0.0590  1.0849
  323MOL0     H44530  11.005  10.883   6.761  3.1721 -0.1292 -3.0676
  323MOL0     H44531  11.085  11.030   6.704 -0.8662 -0.8316 -0.4848
  323MOL0     H44532  11.181  11.067   7.136  3.1348  1.5651  0.7905
  323MOL0     H44533  11.491  11.139   7.218  0.9918  0.4713  2.1934
  323MOL0     H44534  11.489  10.980   7.291  1.6731 -1.1125 -1.1729
  323MOL0     H44535  11.343  11.072   7.294 -0.2864 -0.8763 -1.4725
  323MOL0     H44536  11.835  10.874   7.355  0.7687  1.4061  0.0568
  323MOL0     H44537  12.086  10.866   7.352  1.7794  1.2143 -0.8692
  323MOL0     H44538  12.303  10.773   7.008  1.4934 -0.1625 -1.7613
  323MOL0     H44539  12.287  10.943   6.968 -4.0599 -2.6283 -0.9971
  323MOL0     H44540  12.524  10.834   7.004 -0.7254 -2.1201 -0.9297
  323MOL0     H44541  12.494  10.982   7.110  0.5789 -1.1891  2.5093
  323MOL0     H44542  12.440  10.710   7.202 -0.3376  1.1572 -4.7322
  323MOL0     H44543  12.464  10.851   7.306 -0.7007 -2.1570  1.8301
  323MOL0     H44544  12.683  10.715   7.146  1.7767  1.8338 -0.6885
  323MOL0     H44545  12.659  10.705   7.321 -0.1416  0.2336 -0.0622
  323MOL0     H44546  12.739  10.948   7.164  0.2498 -1.7723 -1.0803
  323MOL0     H44547  12.706  10.946   7.345 -0.0590  0.3158 -0.9341
  323MOL0     H44548  12.926  10.784   7.207  0.0867 -0.8552  1.0644
  323MOL0     H44549  12.884  10.766   7.368  1.5252  0.6951  0.7394
  323MOL0     H44550  12.954  10.997   7.436  1.7237  0.6880  0.7288
  323MOL0     H44551  12.959  11.030   7.260  1.6811 -0.1360  0.4892
  323MOL0     H44552  13.163  10.879   7.238  1.0959  1.2331 -0.5618
  323MOL0     H44553  13.133  10.826   7.407  1.7644 -0.4808 -1.1760
  323MOL0     H44554  12.068  10.878   6.923 -3.2520 -0.7297 -0.2169
  323MOL0     H44555  11.833  10.898   6.933  1.8306  0.7402 -1.6878
  323MOL0     H44556  11.441  10.768   6.846  0.5630 -1.4002  1.2858
  323MOL0     H44557  11.225  10.835   6.773 -0.6908 -0.1981  0.1336
  323MOL0     H44558   9.412  11.100   6.280 -1.4449  1.4830 -0.7160
  323MOL0     H44559   9.236  11.128   6.468 -1.1783  3.6562  1.7907
  323MOL0     H44560   9.112  11.088   6.865 -0.1396  0.3300  0.0947
  323MOL0     H44561   8.923  11.080   6.994 -1.3694  0.5799  0.3057
  323MOL0     H44562   8.663  11.324   7.234  1.3244 -1.8745 -0.4136
  323MOL0     H44563   8.790  11.442   7.195  0.8569  0.7905 -0.6460
  323MOL0     H44564   8.677  11.513   6.990  0.5813 -3.3718 -1.7597
  323MOL0     H44565   8.578  11.542   7.141  2.3227  1.0017  0.9121
  323MOL0     H44566   8.551  11.331   6.916 -0.0578  1.5751 -1.5284
  323MOL0     H44567   8.464  11.318   7.082  1.5798  1.2532  1.9436
  323MOL0     H44568   8.350  11.425   6.868 -2.1468  1.3426  0.2614
  323MOL0     H44569   8.430  11.574   6.916  1.4382 -0.5006 -0.9673
  323MOL0     H44570   8.166  11.522   7.237  1.3954  0.8278  1.3737
  323MOL0     H44571   8.910  11.508   7.016  0.8630 -0.2768 -0.4824
  323MOL0     H44572   9.204  11.572   7.010 -0.5302  1.9431  0.3753
  323MOL0     H44573   9.202  11.601   6.837 -1.1088  0.0808 -0.9602
  323MOL0     H44574   9.064  11.650   6.929 -0.9854 -0.6777 -0.8760
  324MOL0     O44575   8.524   2.396   6.701 -0.5731 -0.3529 -0.3202
  324MOL0     C44576   8.509   2.506   6.751  1.2180  0.1039  0.5156
  324MOL0     O44577   8.603   2.571   6.820  0.0345  0.4323  0.0361
  324MOL0     C44578   8.739   2.530   6.805  0.4200 -0.9348  0.8126
  324MOL0     C44579   8.822   2.516   6.913 -1.1960  0.7742  0.4605
  324MOL0     C44580   8.962   2.486   6.893  0.1852 -0.2702 -0.5279
  324MOL0     C44581   9.014   2.479   6.764 -0.3784  0.4683 -0.4414
  324MOL0     O44582   9.145   2.446   6.728 -0.2917 -0.2262 -0.4544
  324MOL0     C44583   9.233   2.424   6.836 -0.1684  0.9826  0.9885
  324MOL0     C44584   9.358   2.378   6.779  0.0491  0.6089 -0.6245
  324MOL0     C44585   9.429   2.472   6.672 -0.0992  0.3376 -0.8654
  324MOL0     C44586   9.564   2.413   6.630 -0.2996 -0.1976  0.3444
  324MOL0     C44587   9.632   2.495   6.516  0.0521  0.3332 -0.0309
  324MOL0     C44588   9.578   2.457   6.382  0.4280  0.0727 -0.8554
  324MOL0     C44589   9.642   2.524   6.257 -0.2388  0.8187 -0.5697
  324MOL0     C44590   9.772   2.449   6.218  0.0100 -0.5528 -0.1809
  324MOL0     N44591   9.898   2.509   6.270  0.0256  0.7328  1.1834
  324MOL0     C44592   9.959   2.625   6.230  0.3147 -0.1025 -1.4093
  324MOL0     C44593  10.078   2.628   6.289 -0.4979  0.2809  0.0660
  324MOL0     C44594  10.180   2.730   6.274  0.4405 -0.0206  0.7307
  324MOL0     C44595  10.308   2.676   6.213  0.3584 -0.2356  0.3617
  324MOL0     C44596  10.299   2.624   6.066  0.5599  0.4248  0.4554
  324MOL0     C44597  10.428   2.548   6.035 -0.6028  0.0025  0.4747
  324MOL0     O44598  10.544   2.621   6.081 -0.4249  0.9096 -0.4041
  324MOL0     C44599  10.627   2.572   6.176  0.4592  0.3093  0.0635
  324MOL0     C44600  10.584   2.496   6.289 -0.0284 -1.3082  0.0624
  324MOL0     C44601  10.665   2.453   6.400  0.3277  0.1335 -0.0282
  324MOL0     C44602  10.597   2.379   6.513 -0.3275 -0.0246 -0.3668
  324MOL0     C44603  10.802   2.469   6.379 -0.0734 -0.1515  0.0174
  324MOL0     C44604  10.894   2.417   6.481 -0.0485  0.0105 -0.3339
  324MOL0     O44605  10.988   2.502   6.546  0.4024 -0.0267 -0.3592
  324MOL0     C44606  11.093   2.447   6.622 -0.7659 -0.8639 -0.2240
  324MOL0     C44607  11.225   2.503   6.613  0.0128 -0.2899 -0.4783
  324MOL0     C44608  11.326   2.451   6.686  0.3478  0.2170 -0.2908
  324MOL0     C44609  11.304   2.343   6.781 -0.0875 -0.1588  0.4708
  324MOL0     O44610  11.398   2.288   6.866 -0.1592  0.5107 -0.2465
  324MOL0     C44611  11.508   2.369   6.911  0.2902  0.4847 -0.1081
  324MOL0     C44612  11.555   2.304   7.037 -0.5099  0.6364 -0.2626
  324MOL0     C44613  11.658   2.205   7.010  0.4343 -0.6252  0.2314
  324MOL0     C44614  11.676   2.104   7.125  0.4859 -1.4728  0.0803
  324MOL0     C44615  11.782   2.002   7.095  0.3168  0.8683  0.7489
  324MOL0     C44616  11.924   2.028   7.122 -0.5740 -0.1760 -0.8021
  324MOL0     C44617  11.976   1.990   7.262  0.6647 -0.2009  0.3738
  324MOL0     C44618  12.125   1.998   7.266 -0.2014 -0.1698 -0.4566
  324MOL0    Cl44619  12.156   2.177   7.250  0.1260 -0.3025  0.0851
  324MOL0     C44620  11.170   2.285   6.792  1.0875  0.8199  0.8233
  324MOL0     C44621  11.069   2.342   6.711  0.8798 -0.6506  1.4587
  324MOL0     O44622  10.902   2.297   6.483  0.1504 -0.1818 -0.0215
  324MOL0     C44623  10.850   2.550   6.276  0.4021  0.3767 -0.3560
  324MOL0     C44624  10.762   2.599   6.176  0.3616 -0.3894 -0.5342
  324MOL0     N44625  10.078   2.524   6.381 -0.2407  0.3920  0.0549
  324MOL0     N44626   9.971   2.451   6.368 -0.6212 -0.9085  0.4284
  324MOL0     C44627   8.930   2.499   6.654  0.4602  0.7525 -1.1090
  324MOL0     C44628   8.795   2.525   6.672 -0.2874  0.2074  1.0304
  324MOL0     C44629   8.375   2.582   6.729  0.8548 -0.5697  0.7288
  324MOL0     C44630   8.287   2.564   6.617 -0.6465 -0.0677 -0.3827
  324MOL0     C44631   8.171   2.634   6.601 -0.0493  0.1870 -0.1452
  324MOL0     C44632   8.135   2.742   6.681 -0.3658 -0.5379  0.0447
  324MOL0     O44633   8.027   2.826   6.665  0.1182  0.0019  0.3799
  324MOL0     C44634   7.915   2.793   6.583  0.8094 -0.6509 -0.0360
  324MOL0     C44635   7.808   2.891   6.600  0.6961  0.6545  0.0512
  324MOL0     C44636   7.684   2.865   6.500  0.4390  0.5692  0.6373
  324MOL0     C44637   7.565   2.945   6.559  0.7652  0.3149 -0.3107
  324MOL0     C44638   7.457   2.950   6.458  0.8097  0.1935  0.3724
  324MOL0     C44639   7.377   2.980   6.375  0.6055 -0.6625  0.6184
  324MOL0     C44640   8.227   2.766   6.792  0.2660 -0.2249  0.5050
  324MOL0     C44641   8.343   2.690   6.814 -0.2524  0.2735 -0.9786
  324MOL0     C44642   8.408   2.702   6.956  0.8983  0.5966  0.3921
  324MOL0     H44643   8.787   2.541   7.012  1.1706  3.8144  0.6745
  324MOL0     H44644   9.022   2.469   6.981 -2.1575 -2.4494  0.7368
  324MOL0     H44645   9.195   2.354   6.910  2.7330 -0.9881  0.7537
  324MOL0     H44646   9.248   2.527   6.872  3.4713  0.5112  1.1916
  324MOL0     H44647   9.427   2.363   6.863  0.6779  1.3091 -1.0029
  324MOL0     H44648   9.340   2.278   6.739  0.9095  0.9186 -1.8375
  324MOL0     H44649   9.362   2.474   6.585 -1.5715 -3.5964 -0.0284
  324MOL0     H44650   9.451   2.570   6.716  2.4866  0.2886 -1.9204
  324MOL0     H44651   9.628   2.404   6.719 -0.4218 -2.4761  0.2769
  324MOL0     H44652   9.546   2.310   6.597  0.1520  1.2379 -5.4131
  324MOL0     H44653   9.739   2.481   6.497 -0.0986 -2.4853  0.6971
  324MOL0     H44654   9.608   2.600   6.533 -3.5282 -0.5935  1.6874
  324MOL0     H44655   9.581   2.350   6.362 -0.2095  0.3502 -2.6004
  324MOL0     H44656   9.474   2.490   6.391  0.8191  0.9870  0.8341
  324MOL0     H44657   9.657   2.630   6.276 -0.0473  0.7928 -0.5690
  324MOL0     H44658   9.573   2.507   6.174 -1.0123  1.9299 -0.1640
  324MOL0     H44659   9.769   2.349   6.261 -0.1061 -0.3556  0.2705
  324MOL0     H44660   9.781   2.435   6.110 -0.3938  0.0683 -0.3012
  324MOL0     H44661   9.919   2.695   6.157 -0.1680 -0.5152 -1.5479
  324MOL0     H44662  10.198   2.756   6.379 -0.8817 -0.6628  1.1335
  324MOL0     H44663  10.149   2.820   6.219  0.3704 -0.6805 -0.3362
  324MOL0     H44664  10.389   2.750   6.209  0.9666 -0.9139 -0.1471
  324MOL0     H44665  10.340   2.597   6.281  3.1442 -0.0020 -0.5469
  324MOL0     H44666  10.213   2.559   6.047 -0.2489  2.3446 -3.3910
  324MOL0     H44667  10.298   2.712   6.001 -1.0054 -1.7513 -2.7357
  324MOL0     H44668  10.416   2.450   6.082  0.2977 -0.0806  0.5553
  324MOL0     H44669  10.433   2.539   5.926  0.3739  2.4044  0.2484
  324MOL0     H44670  10.481   2.466   6.307 -0.6968  0.6192 -0.2512
  324MOL0     H44671  10.588   2.272   6.494  1.7843 -0.3524  0.1482
  324MOL0     H44672  10.499   2.425   6.527 -0.1101  0.8787 -1.6617
  324MOL0     H44673  10.648   2.390   6.610  0.5671 -0.1701 -0.8104
  324MOL0     H44674  11.250   2.586   6.546 -1.6825 -1.7223 -3.0554
  324MOL0     H44675  11.427   2.489   6.679  0.1994  0.5479 -0.6506
  324MOL0     H44676  11.590   2.384   6.840  1.3200  1.3435  1.2218
  324MOL0     H44677  11.485   2.474   6.932  1.9678  1.4782 -2.7307
  324MOL0     H44678  11.592   2.376   7.111 -0.9728 -0.3484  0.9566
  324MOL0     H44679  11.468   2.264   7.089 -1.4403  1.8072 -0.8729
  324MOL0     H44680  11.752   2.255   6.985  1.4770 -2.1289  0.9504
  324MOL0     H44681  11.626   2.141   6.927  1.9034  0.6026 -1.3589
  324MOL0     H44682  11.572   2.076   7.142 -0.6874 -1.0856 -5.0478
  324MOL0     H44683  11.713   2.159   7.213  0.9820 -1.1461 -0.3280
  324MOL0     H44684  11.754   1.910   7.149 -1.4715  0.4063 -0.8565
  324MOL0     H44685  11.769   1.983   6.988  3.2254  1.7307  0.1580
  324MOL0     H44686  11.953   2.132   7.105  3.6261 -0.8140  1.1683
  324MOL0     H44687  11.981   1.966   7.052 -0.1617  0.3735 -0.9552
  324MOL0     H44688  11.960   1.885   7.291  4.7815 -0.8778  0.7185
  324MOL0     H44689  11.939   2.043   7.351  0.3309 -0.5591  0.4541
  324MOL0     H44690  12.165   1.939   7.183 -1.1445 -1.5095  0.0133
  324MOL0     H44691  12.177   1.946   7.347 -1.0921  0.8694  0.8225
  324MOL0     H44692  11.148   2.205   6.862 -0.5611 -1.3093 -1.9406
  324MOL0     H44693  10.972   2.295   6.716  0.5596 -0.0628  0.9496
  324MOL0     H44694  10.957   2.570   6.270  0.3636  0.7907  0.3096
  324MOL0     H44695  10.796   2.638   6.081  0.3243 -0.1880 -0.4647
  324MOL0     H44696   8.977   2.495   6.556  1.0306  1.4446 -0.8673
  324MOL0     H44697   8.733   2.537   6.583 -0.8571 -2.6858  0.9543
  324MOL0     H44698   8.320   2.491   6.544  0.3051  0.3906 -0.4204
  324MOL0     H44699   8.093   2.603   6.532 -0.5139 -1.9818  1.2767
  324MOL0     H44700   7.948   2.786   6.479  3.6697 -2.7337  0.8943
  324MOL0     H44701   7.875   2.693   6.603  3.0237 -2.2982 -3.0631
  324MOL0     H44702   7.836   2.997   6.602 -0.9528  1.1153  0.3666
  324MOL0     H44703   7.765   2.877   6.700  0.7778 -3.3628 -0.3306
  324MOL0     H44704   7.721   2.899   6.403 -0.6283 -0.4183 -0.1315
  324MOL0     H44705   7.658   2.759   6.504 -0.2120  0.7035 -0.0237
  324MOL0     H44706   7.588   3.049   6.585  0.9564  0.1412  0.2221
  324MOL0     H44707   7.531   2.897   6.651  2.2789 -0.2641 -0.0379
  324MOL0     H44708   7.298   3.006   6.308  2.7664 -1.4585 -2.4899
  324MOL0     H44709   8.203   2.841   6.867 -1.4761 -1.8316  1.6427
  324MOL0     H44710   8.343   2.750   7.030 -1.9073 -0.8751 -0.9701
  324MOL0     H44711   8.439   2.605   6.997 -1.9005  0.4204  2.3568
  324MOL0     H44712   8.499   2.761   6.940  1.0448  0.3185  0.1754
  325MOL0     O44713   0.178   5.513   1.877  0.0243 -0.9671 -0.5698
  325MOL0     C44714   0.136   5.628   1.900 -0.0998  0.2324  0.8111
  325MOL0     O44715   0.206   5.725   1.960  0.2569  0.6782  0.4161
  325MOL0     C44716   0.331   5.708   2.010  1.2903 -0.4016  0.0084
  325MOL0     C44717   0.434   5.657   1.926  0.0779  0.0282  0.4019
  325MOL0     C44718   0.562   5.638   1.969  0.5123  0.1924 -0.5406
  325MOL0     C44719   0.605   5.681   2.104  0.8391  0.0281 -0.1286
  325MOL0     O44720   0.727   5.669   2.159 -0.5024 -0.5313 -0.2575
  325MOL0     C44721   0.832   5.621   2.070 -0.0046  0.3375  0.5474
  325MOL0     C44722   0.963   5.584   2.151 -0.4564 -0.6758  0.0171
  325MOL0     C44723   0.945   5.480   2.257  0.3235  0.1419  0.5762
  325MOL0     C44724   1.078   5.427   2.320  0.2641  0.0624  0.2142
  325MOL0     C44725   1.062   5.347   2.457  0.4465  0.3773  0.5492
  325MOL0     C44726   1.003   5.217   2.453  1.0963 -0.0849  0.3883
  325MOL0     C44727   1.001   5.164   2.595  0.2680 -0.0915 -0.3036
  325MOL0     C44728   0.929   5.019   2.584  0.3946  0.0912  0.2978
  325MOL0     N44729   1.041   4.932   2.540  0.5131  0.6549 -0.3688
  325MOL0     C44730   1.129   4.874   2.625 -0.7634  0.4793  0.4563
  325MOL0     C44731   1.217   4.806   2.541  0.9144  0.2012  0.1233
  325MOL0     C44732   1.322   4.711   2.588  0.2105 -0.2169  0.4086
  325MOL0     C44733   1.453   4.769   2.649 -0.2137  0.1346 -0.0020
  325MOL0     C44734   1.435   4.850   2.784 -0.6866  0.5489 -0.0134
  325MOL0     C44735   1.576   4.865   2.843  0.0640 -0.3326  0.4027
  325MOL0     O44736   1.637   4.739   2.868  0.2261 -0.4684 -0.0226
  325MOL0     C44737   1.758   4.760   2.926 -0.1078  0.6828  0.5375
  325MOL0     C44738   1.820   4.642   2.975  0.7222 -1.2540  0.0968
  325MOL0     C44739   1.945   4.647   3.041  0.1231  0.4501 -0.4565
  325MOL0     C44740   2.011   4.526   3.107  0.2973 -0.4681 -0.0124
  325MOL0     C44741   2.026   4.763   3.043  0.8971 -0.3622  1.7803
  325MOL0     C44742   2.162   4.767   3.097  0.1290  0.3558  0.4757
  325MOL0     O44743   2.172   4.833   3.213  0.4319 -0.5733  0.1504
  325MOL0     C44744   2.286   4.872   3.275  0.0548  0.5582  0.1511
  325MOL0     C44745   2.277   4.888   3.412  0.6806 -0.2374  0.1806
  325MOL0     C44746   2.387   4.907   3.488 -0.2668  0.2206 -0.6608
  325MOL0     C44747   2.515   4.922   3.432 -0.3469  0.5599 -0.8357
  325MOL0     O44748   2.630   4.944   3.509 -0.0401  0.4262  0.3081
  325MOL0     C44749   2.624   4.905   3.643  0.5769 -0.7521 -1.1653
  325MOL0     C44750   2.760   4.877   3.697 -0.5518 -0.1769  0.1728
  325MOL0     C44751   2.864   4.999   3.703  0.1544 -0.2493 -0.3462
  325MOL0     C44752   2.813   5.120   3.781  0.7699  0.1050 -0.0758
  325MOL0     C44753   2.931   5.207   3.832 -1.2785 -0.2334  0.0200
  325MOL0     C44754   2.894   5.318   3.935 -0.9195 -0.2793  0.2392
  325MOL0     C44755   2.772   5.405   3.915  0.6626  0.2843  0.5345
  325MOL0     C44756   2.775   5.495   3.784 -0.2359  0.9199  0.8907
  325MOL0    Cl44757   2.905   5.617   3.793 -0.2619  0.1773 -0.0555
  325MOL0     C44758   2.524   4.927   3.293 -0.8762  0.1616 -0.2880
  325MOL0     C44759   2.408   4.905   3.214  0.4828 -0.3894  0.3338
  325MOL0     O44760   2.255   4.713   3.035  0.1713 -0.0618  0.0476
  325MOL0     C44761   1.965   4.876   2.986 -0.6248 -0.3223 -0.7509
  325MOL0     C44762   1.832   4.880   2.938  0.3296 -0.1152  0.3403
  325MOL0     N44763   1.161   4.817   2.411 -0.1463  0.0387  0.7573
  325MOL0     N44764   1.058   4.891   2.411  1.2474 -1.2097  0.5293
  325MOL0     C44765   0.498   5.733   2.182  0.2071  0.0739  0.0193
  325MOL0     C44766   0.368   5.746   2.137 -0.5518  0.7733 -0.6744
  325MOL0     C44767  -0.001   5.650   1.865  0.0973 -0.4193 -0.6164
  325MOL0     C44768  -0.059   5.593   1.746 -0.7417  0.2307 -0.1577
  325MOL0     C44769  -0.196   5.605   1.706  0.7371 -0.3462  0.1973
  325MOL0     C44770  -0.284   5.669   1.790 -0.3928 -0.5629  0.4007
  325MOL0     O44771  -0.426   5.688   1.789 -0.5885 -0.2392  0.6904
  325MOL0     C44772  -0.494   5.618   1.685  0.0384  0.2570  0.5390
  325MOL0     C44773  -0.649   5.622   1.713  0.4588 -0.1586 -0.2009
  325MOL0     C44774  -0.714   5.761   1.711  0.2096 -0.0648  0.6762
  325MOL0     C44775  -0.657   5.864   1.811 -0.0615  0.8770  0.5990
  325MOL0     C44776  -0.759   5.957   1.860 -0.0940 -1.4605 -0.6030
  325MOL0     C44777  -0.847   6.030   1.909 -0.9765 -0.6271 -0.0027
  325MOL0     C44778  -0.222   5.731   1.899 -0.7516 -0.0895  0.3821
  325MOL0     C44779  -0.092   5.722   1.944  0.5134 -0.2669 -0.1746
  325MOL0     C44780  -0.043   5.785   2.076  0.4471 -0.4861  0.3836
  325MOL0     H44781   0.415   5.652   1.819 -0.7578 -0.9258  0.5843
  325MOL0     H44782   0.637   5.588   1.908  2.1074  1.0356  0.6778
  325MOL0     H44783   0.859   5.701   2.000  0.5541  0.4430  0.8724
  325MOL0     H44784   0.808   5.532   2.012  2.3933 -1.5115  2.1439
  325MOL0     H44785   1.031   5.557   2.069  0.3695  2.0344 -0.3047
  325MOL0     H44786   1.003   5.672   2.201 -0.0156 -1.7690  1.6816
  325MOL0     H44787   0.873   5.508   2.335 -1.1725  1.2429 -1.1273
  325MOL0     H44788   0.892   5.401   2.202 -1.2896  0.7017  1.2766
  325MOL0     H44789   1.122   5.357   2.248  1.6007  1.0347  0.0434
  325MOL0     H44790   1.142   5.513   2.342  0.7596  0.2464 -1.7433
  325MOL0     H44791   1.010   5.409   2.530  1.0623 -1.0447  2.2708
  325MOL0     H44792   1.166   5.338   2.490  1.3735  0.1984 -2.1438
  325MOL0     H44793   0.901   5.234   2.418  1.1400 -0.5972 -0.0063
  325MOL0     H44794   1.053   5.155   2.377 -1.2716  0.1457 -1.4766
  325MOL0     H44795   0.947   5.231   2.662  0.4738 -0.1915 -0.0354
  325MOL0     H44796   1.103   5.152   2.634 -1.0912 -2.8455  2.8379
  325MOL0     H44797   0.882   4.999   2.680  1.7612 -0.2013  0.9368
  325MOL0     H44798   0.855   5.024   2.504  1.1964 -0.3776 -0.4852
  325MOL0     H44799   1.134   4.875   2.733 -0.7688  0.2033  0.4617
  325MOL0     H44800   1.344   4.648   2.501 -1.7132  3.0730 -2.7036
  325MOL0     H44801   1.268   4.646   2.658 -0.1516 -2.1248 -1.5354
  325MOL0     H44802   1.525   4.689   2.670 -1.4199 -0.4177  2.3443
  325MOL0     H44803   1.504   4.841   2.584  0.3683  0.1113  0.4173
  325MOL0     H44804   1.387   4.944   2.759 -1.1936  0.1230 -0.6673
  325MOL0     H44805   1.368   4.798   2.852 -3.9828  2.3508 -1.6639
  325MOL0     H44806   1.629   4.917   2.762 -0.1327 -2.7215 -1.3759
  325MOL0     H44807   1.579   4.915   2.940 -0.0751 -1.3619  0.9527
  325MOL0     H44808   1.755   4.555   2.975 -1.8994  0.5862  0.9834
  325MOL0     H44809   2.062   4.556   3.199  1.0751 -2.1025  0.1264
  325MOL0     H44810   2.080   4.478   3.037 -0.0510 -0.8134 -0.1192
  325MOL0     H44811   1.932   4.455   3.131 -0.9216  0.7467 -0.3341
  325MOL0     H44812   2.183   4.897   3.465 -0.2753 -1.0749 -1.3029
  325MOL0     H44813   2.366   4.906   3.594 -2.7767  0.0051 -1.0974
  325MOL0     H44814   2.574   4.988   3.695  0.2266 -0.1476 -2.4393
  325MOL0     H44815   2.560   4.817   3.656 -1.6199  0.7274 -1.2986
  325MOL0     H44816   2.746   4.846   3.800  0.6114 -0.7028  0.1913
  325MOL0     H44817   2.802   4.793   3.640 -0.7366  2.2511 -4.0004
  325MOL0     H44818   2.902   5.029   3.605  1.1993 -0.2195  0.0575
  325MOL0     H44819   2.940   4.938   3.751 -1.9567 -2.8714 -0.1249
  325MOL0     H44820   2.755   5.081   3.865  0.3166  0.7724 -0.0648
  325MOL0     H44821   2.756   5.183   3.711  1.4621  1.0388  0.1795
  325MOL0     H44822   3.010   5.145   3.875 -0.5147  1.3164  0.9170
  325MOL0     H44823   2.980   5.257   3.748  0.5903  0.7743  1.6306
  325MOL0     H44824   2.983   5.378   3.953 -1.7812  1.3687 -0.7364
  325MOL0     H44825   2.865   5.273   4.031  2.2947  2.2728  2.6629
  325MOL0     H44826   2.773   5.479   3.995 -0.1905  1.1576 -0.2243
  325MOL0     H44827   2.680   5.345   3.911  1.2296 -0.5568 -1.9041
  325MOL0     H44828   2.675   5.537   3.766 -0.7530 -0.8264 -0.5712
  325MOL0     H44829   2.803   5.432   3.699  0.9613  1.0284  1.1833
  325MOL0     H44830   2.625   4.939   3.255 -0.2042 -2.9548  0.2698
  325MOL0     H44831   2.408   4.898   3.106  0.6036 -0.2599  0.3256
  325MOL0     H44832   2.020   4.970   2.983 -0.0273 -0.6822 -1.2431
  325MOL0     H44833   1.798   4.976   2.903 -1.4954 -0.8059  0.1061
  325MOL0     H44834   0.516   5.749   2.288  1.7535 -0.0050 -0.2045
  325MOL0     H44835   0.299   5.778   2.215 -0.9961  0.2654 -0.8498
  325MOL0     H44836   0.005   5.532   1.682 -1.4871 -2.1837  1.2446
  325MOL0     H44837  -0.228   5.568   1.609 -0.1948 -0.0016  0.3621
  325MOL0     H44838  -0.461   5.663   1.591  1.0711  1.6458  1.5107
  325MOL0     H44839  -0.463   5.514   1.681  1.7039  0.7446 -0.0231
  325MOL0     H44840  -0.661   5.578   1.812  1.7763  2.3107  1.1279
  325MOL0     H44841  -0.704   5.563   1.638  1.8658  2.7932 -3.8688
  325MOL0     H44842  -0.705   5.807   1.613  1.3491  2.8712  2.0295
  325MOL0     H44843  -0.820   5.754   1.738  0.2708  2.6316  1.9448
  325MOL0     H44844  -0.574   5.915   1.761  1.4629 -1.6324  0.4049
  325MOL0     H44845  -0.620   5.821   1.905 -1.3507  0.3967  0.9172
  325MOL0     H44846  -0.918   6.087   1.965 -2.3118 -3.7060  1.6058
  325MOL0     H44847  -0.287   5.787   1.965  1.5572 -0.4525  3.1635
  325MOL0     H44848  -0.131   5.816   2.134 -1.1496 -1.9562 -1.1335
  325MOL0     H44849   0.017   5.718   2.138  1.5393  2.0615  2.2889
  325MOL0     H44850   0.020   5.870   2.049 -1.3344  0.4649 -1.0445
  326MOL0     O44851   0.833   6.008   9.191 -0.1307  0.1458 -0.5184
  326MOL0     C44852   0.901   6.103   9.143  0.1248 -0.3195 -0.4394
  326MOL0     O44853   0.847   6.221   9.119  0.1582 -0.9378  0.1703
  326MOL0     C44854   0.720   6.242   9.168  0.2551 -0.1788 -0.2616
  326MOL0     C44855   0.712   6.333   9.278  0.5222  0.3128 -0.9019
  326MOL0     C44856   0.589   6.352   9.343  0.7359  0.2147  0.6345
  326MOL0     C44857   0.468   6.295   9.294 -0.2628 -0.2213  0.6234
  326MOL0     O44858   0.350   6.328   9.346 -0.0797 -0.2499  0.5918
  326MOL0     C44859   0.338   6.477   9.368  0.1488 -0.1278  1.1826
  326MOL0     C44860   0.199   6.529   9.328  0.9241  0.6731 -0.6925
  326MOL0     C44861   0.141   6.638   9.416  0.2088 -0.4050  0.0631
  326MOL0     C44862  -0.006   6.647   9.385  0.0249  0.5126 -0.5316
  326MOL0     C44863  -0.056   6.759   9.471  0.2176 -0.6669  0.7538
  326MOL0     C44864  -0.211   6.769   9.472 -0.1592 -0.3804  0.3870
  326MOL0     C44865  -0.254   6.881   9.568 -0.7116  0.1910  0.4332
  326MOL0     C44866  -0.405   6.911   9.551  0.5179 -0.4239  0.4981
  326MOL0     N44867  -0.473   6.809   9.635  0.0193 -0.4429  0.1487
  326MOL0     C44868  -0.488   6.815   9.766  0.2189 -0.4218 -0.9608
  326MOL0     C44869  -0.552   6.700   9.803  0.3272 -0.6251 -0.3066
  326MOL0     C44870  -0.618   6.692   9.933  0.1729  0.4729 -0.8537
  326MOL0     C44871  -0.511   6.672  10.049 -1.1118  0.7039 -0.4006
  326MOL0     C44872  -0.435   6.537  10.016  0.1396 -0.6191 -0.5685
  326MOL0     C44873  -0.288   6.576  10.015  0.2033  0.4325 -0.3462
  326MOL0     O44874  -0.246   6.656   9.904  0.0686 -0.5415  0.0044
  326MOL0     C44875  -0.113   6.685   9.897 -0.0562  0.0779  0.4814
  326MOL0     C44876  -0.061   6.809   9.928 -0.7022 -0.7825 -0.2338
  326MOL0     C44877   0.082   6.835   9.896 -0.0400  0.7880 -0.3614
  326MOL0     C44878   0.134   6.981   9.908 -0.2900  0.2413  0.1681
  326MOL0     C44879   0.156   6.729   9.833 -0.4165  0.7388  0.2003
  326MOL0     C44880   0.299   6.750   9.773 -0.2113 -0.1918 -0.4941
  326MOL0     O44881   0.341   6.640   9.705 -0.5342 -0.0209  0.0774
  326MOL0     C44882   0.474   6.635   9.677 -1.2559  0.1093  0.4145
  326MOL0     C44883   0.502   6.677   9.553  0.4520  0.0895 -0.9266
  326MOL0     C44884   0.633   6.681   9.518  0.3450  0.0017  0.0167
  326MOL0     C44885   0.735   6.632   9.594 -0.0675  0.8112 -1.0781
  326MOL0     O44886   0.871   6.649   9.558  0.0826 -0.2169 -0.9384
  326MOL0     C44887   0.901   6.639   9.423  0.7970 -0.4075 -0.4500
  326MOL0     C44888   1.034   6.571   9.410  0.0022 -0.2321  0.8138
  326MOL0     C44889   1.087   6.541   9.274 -0.6835 -0.5590 -0.2504
  326MOL0     C44890   1.185   6.646   9.221  0.3674  0.3342  1.1880
  326MOL0     C44891   1.246   6.597   9.080 -1.3709  0.3124 -0.1986
  326MOL0     C44892   1.350   6.702   9.042 -0.3501  0.5186 -0.1212
  326MOL0     C44893   1.426   6.676   8.916 -0.6331  0.2752  0.5446
  326MOL0     C44894   1.563   6.595   8.934 -0.4265 -0.1774 -0.0983
  326MOL0    Cl44895   1.622   6.549   8.771 -0.2566  0.1907 -0.4325
  326MOL0     C44896   0.702   6.584   9.720 -0.2293 -0.2955 -0.5275
  326MOL0     C44897   0.572   6.594   9.771  0.0199 -1.1351 -0.6499
  326MOL0     O44898   0.360   6.858   9.789 -0.2812  0.2438  0.3150
  326MOL0     C44899   0.092   6.608   9.823  0.0483  1.1742  0.1131
  326MOL0     C44900  -0.037   6.585   9.862 -0.3993  0.6948  0.9316
  326MOL0     N44901  -0.570   6.624   9.692  0.1790 -0.0176  0.4522
  326MOL0     N44902  -0.521   6.686   9.587  0.2213 -0.4944 -0.4148
  326MOL0     C44903   0.472   6.213   9.178 -0.9715 -0.4781 -0.0103
  326MOL0     C44904   0.598   6.189   9.112 -0.0367 -0.0606 -0.1707
  326MOL0     C44905   1.044   6.084   9.122  0.0762  0.2791  0.1675
  326MOL0     C44906   1.116   6.173   9.054  0.2792  0.1374 -0.6716
  326MOL0     C44907   1.254   6.164   9.019  0.3090 -0.6378  1.1789
  326MOL0     C44908   1.329   6.052   9.060  0.5405 -1.3610  0.7179
  326MOL0     O44909   1.460   6.059   9.041  0.1300 -0.6847  0.9738
  326MOL0     C44910   1.537   5.974   9.119  0.7132 -1.0683 -0.0728
  326MOL0     C44911   1.562   5.838   9.051  0.6975  0.0169 -0.4488
  326MOL0     C44912   1.658   5.759   9.133  0.3389 -0.4016  0.7753
  326MOL0     C44913   1.590   5.641   9.209  0.5559 -0.4249  0.3531
  326MOL0     C44914   1.499   5.692   9.321  0.2935 -0.1337  0.7638
  326MOL0     C44915   1.412   5.732   9.400 -0.1227  0.5669 -0.4777
  326MOL0     C44916   1.261   5.965   9.145 -0.2124  0.2431 -0.1418
  326MOL0     C44917   1.120   5.977   9.172 -0.0422 -0.0470 -0.6691
  326MOL0     C44918   1.067   5.868   9.261 -0.6049  0.3460 -0.5867
  326MOL0     H44919   0.803   6.384   9.307 -0.0415  1.9884 -1.9274
  326MOL0     H44920   0.578   6.402   9.439 -0.1781  0.0567  0.6231
  326MOL0     H44921   0.407   6.547   9.321  0.2305 -0.4090  0.8770
  326MOL0     H44922   0.352   6.480   9.476 -0.1189 -2.2380  1.3266
  326MOL0     H44923   0.192   6.553   9.221 -0.9816  0.4190 -0.6644
  326MOL0     H44924   0.131   6.443   9.321 -0.4746  1.5399  1.5133
  326MOL0     H44925   0.155   6.616   9.522 -0.9488  1.7646  0.7190
  326MOL0     H44926   0.193   6.732   9.398 -1.5093  0.7499  0.8436
  326MOL0     H44927  -0.025   6.672   9.280 -0.4110  3.8950  0.2702
  326MOL0     H44928  -0.045   6.548   9.413  0.4882  0.1492 -1.1251
  326MOL0     H44929  -0.024   6.851   9.421  0.5506 -1.3668 -0.3304
  326MOL0     H44930  -0.019   6.751   9.574  2.7160 -0.7506 -0.0928
  326MOL0     H44931  -0.250   6.778   9.370  1.0130 -0.1052 -0.0485
  326MOL0     H44932  -0.236   6.668   9.505  0.8860 -1.3529 -1.6477
  326MOL0     H44933  -0.204   6.968   9.525  0.4206 -1.4691 -1.8403
  326MOL0     H44934  -0.232   6.882   9.675  1.7413  1.7062 -0.0082
  326MOL0     H44935  -0.435   7.008   9.593 -0.4063 -1.5305  2.5773
  326MOL0     H44936  -0.437   6.917   9.447 -1.7625  2.0521  1.2303
  326MOL0     H44937  -0.478   6.902   9.831 -4.2470  0.2801 -0.8926
  326MOL0     H44938  -0.691   6.611   9.937 -0.8460  1.4005  0.4980
  326MOL0     H44939  -0.672   6.786   9.952 -1.5870 -0.4206 -1.1907
  326MOL0     H44940  -0.441   6.757  10.046  0.8390 -0.6372  2.3691
  326MOL0     H44941  -0.554   6.673  10.150 -1.1629 -3.8677 -0.1642
  326MOL0     H44942  -0.458   6.468  10.098  1.0270  0.0684  0.2758
  326MOL0     H44943  -0.470   6.490   9.923 -2.9717  0.2489  0.0758
  326MOL0     H44944  -0.264   6.618  10.113 -0.0270 -0.8538  0.2823
  326MOL0     H44945  -0.240   6.478  10.008 -1.1799 -0.3743  0.8733
  326MOL0     H44946  -0.123   6.884   9.975 -0.2358  1.8859 -3.5009
  326MOL0     H44947   0.056   7.042   9.956  0.2503 -0.1390  1.5778
  326MOL0     H44948   0.164   7.010   9.807 -0.7442  2.1067  0.5352
  326MOL0     H44949   0.215   7.012   9.974  0.2980  2.2793 -1.3999
  326MOL0     H44950   0.418   6.712   9.494  0.1695  0.9062 -0.0742
  326MOL0     H44951   0.662   6.724   9.422 -1.0777  0.5143 -0.2111
  326MOL0     H44952   0.827   6.583   9.365  0.3485 -0.1867 -0.0964
  326MOL0     H44953   0.908   6.742   9.387 -0.0511 -0.1149  0.1918
  326MOL0     H44954   1.109   6.629   9.464  0.3305  1.6921 -1.5630
  326MOL0     H44955   1.027   6.472   9.458  1.8973 -0.6871  0.2324
  326MOL0     H44956   0.998   6.536   9.211 -0.6835  0.8841 -0.4055
  326MOL0     H44957   1.143   6.448   9.263 -1.5488 -1.2604  0.9555
  326MOL0     H44958   1.258   6.672   9.299  0.5138  1.7539  0.6149
  326MOL0     H44959   1.119   6.731   9.207  0.2231  0.2471  1.3357
  326MOL0     H44960   1.291   6.499   9.100 -0.2585 -0.3011 -4.6002
  326MOL0     H44961   1.177   6.585   8.996 -0.2784 -3.9536 -0.6839
  326MOL0     H44962   1.405   6.735   9.131 -0.6730  3.4571 -0.9197
  326MOL0     H44963   1.281   6.785   9.021 -0.1842  1.3178  2.1512
  326MOL0     H44964   1.446   6.772   8.869 -0.5391 -0.1659 -0.3316
  326MOL0     H44965   1.370   6.616   8.844  0.2288 -0.6615  0.6270
  326MOL0     H44966   1.552   6.508   8.999 -0.1706 -0.7873 -0.8614
  326MOL0     H44967   1.637   6.662   8.978 -2.2373  2.4818 -0.8516
  326MOL0     H44968   0.780   6.542   9.781 -1.3662 -2.3036 -0.3654
  326MOL0     H44969   0.538   6.557   9.867  2.6503 -2.6070 -0.1768
  326MOL0     H44970   0.146   6.529   9.771 -0.8234 -0.7513  1.9547
  326MOL0     H44971  -0.082   6.489   9.838  0.6974  0.9592 -2.9603
  326MOL0     H44972   0.380   6.173   9.137 -1.5937  0.9624 -0.0617
  326MOL0     H44973   0.611   6.131   9.021  1.0026  2.2384 -1.5772
  326MOL0     H44974   1.062   6.264   9.027 -0.6877 -0.1156  0.3564
  326MOL0     H44975   1.300   6.251   8.973 -1.1347 -0.4220  0.0772
  326MOL0     H44976   1.631   6.026   9.143 -0.8281  1.5002  0.8865
  326MOL0     H44977   1.491   5.956   9.217 -1.0787 -1.2104 -0.9136
  326MOL0     H44978   1.601   5.855   8.951  0.3065  1.4024 -0.3768
  326MOL0     H44979   1.467   5.786   9.037  1.1339 -0.5097 -1.5994
  326MOL0     H44980   1.728   5.722   9.057 -0.1416 -2.1328  1.1257
  326MOL0     H44981   1.726   5.808   9.203  4.4968 -0.4005 -2.8381
  326MOL0     H44982   1.665   5.564   9.230  0.2403 -1.6872 -2.6389
  326MOL0     H44983   1.525   5.590   9.138  1.0060  1.7883 -1.8031
  326MOL0     H44984   1.331   5.749   9.468  0.4259 -0.3414  0.4271
  326MOL0     H44985   1.306   5.886   9.204  1.1119  1.4254  0.4782
  326MOL0     H44986   0.989   5.808   9.213 -0.1597  0.7568 -1.8633
  326MOL0     H44987   1.143   5.794   9.288  0.9091  1.9762 -0.2230
  326MOL0     H44988   1.033   5.903   9.359 -0.4291 -1.5215  0.1957
  327MOL0     O44989   3.286   1.175   7.195 -0.6152  0.2792 -0.0461
  327MOL0     C44990   3.283   1.260   7.285 -1.6762  0.3288  0.8917
  327MOL0     O44991   3.382   1.354   7.304 -0.3344  0.4149  0.0923
  327MOL0     C44992   3.463   1.372   7.199 -0.5253  0.0687  0.8364
  327MOL0     C44993   3.441   1.472   7.108 -0.9603  0.1453  0.2561
  327MOL0     C44994   3.529   1.494   6.997  0.2190 -0.4226 -0.1899
  327MOL0     C44995   3.635   1.409   6.969  0.4271 -0.3484 -0.3593
  327MOL0     O44996   3.714   1.434   6.858  0.3992  0.1226 -0.4851
  327MOL0     C44997   3.651   1.471   6.739  0.6696  0.5239  0.3583
  327MOL0     C44998   3.714   1.401   6.612  0.7421  0.2002  0.2386
  327MOL0     C44999   3.842   1.459   6.557  0.2707 -0.4369 -0.4007
  327MOL0     C45000   3.873   1.345   6.465 -0.0882  0.7695  0.7953
  327MOL0     C45001   4.019   1.375   6.401  0.6812 -0.2386 -0.1257
  327MOL0     C45002   4.055   1.267   6.294 -0.2074  0.5704 -0.3318
  327MOL0     C45003   4.179   1.294   6.216 -0.0919 -0.5738 -0.9457
  327MOL0     C45004   4.179   1.432   6.134 -0.2016 -0.3156 -0.6349
  327MOL0     N45005   4.302   1.471   6.066  0.2397  0.4967 -0.0030
  327MOL0     C45006   4.421   1.535   6.115 -0.4505  0.8106  0.6741
  327MOL0     C45007   4.513   1.533   6.024  0.5090 -0.2042  0.0370
  327MOL0     C45008   4.658   1.560   6.047 -0.1325 -0.4499 -0.3115
  327MOL0     C45009   4.721   1.635   5.935  0.2465  0.1374  0.0069
  327MOL0     C45010   4.855   1.693   5.978 -1.1788  0.3327  0.1787
  327MOL0     C45011   4.926   1.746   5.859 -0.4170 -0.0212  1.8292
  327MOL0     O45012   5.058   1.813   5.895  0.5268 -0.5880  0.0239
  327MOL0     C45013   5.154   1.810   5.802  0.0696 -0.0492 -0.0598
  327MOL0     C45014   5.125   1.829   5.667  0.0490 -1.2364 -0.2363
  327MOL0     C45015   5.221   1.838   5.567 -0.8703  0.1001 -0.7431
  327MOL0     C45016   5.178   1.852   5.425 -0.1952 -0.0945 -0.5561
  327MOL0     C45017   5.355   1.820   5.600  0.2143  0.1951 -0.4578
  327MOL0     C45018   5.469   1.835   5.504  0.4226 -1.0204  0.3442
  327MOL0     O45019   5.584   1.774   5.543  1.0318  0.1880  0.4344
  327MOL0     C45020   5.700   1.777   5.477  0.5927  0.0610  0.3843
  327MOL0     C45021   5.821   1.782   5.541  0.4291  0.4797 -0.5984
  327MOL0     C45022   5.944   1.750   5.486 -1.3742  0.5687  0.3233
  327MOL0     C45023   5.951   1.716   5.354 -0.1379 -0.3401  0.1229
  327MOL0     O45024   6.060   1.665   5.289 -0.2491  0.4239 -1.2110
  327MOL0     C45025   6.183   1.730   5.321 -0.3207 -0.1809  0.8346
  327MOL0     C45026   6.276   1.721   5.206  0.0436 -0.1206 -0.0167
  327MOL0     C45027   6.340   1.583   5.195 -0.2745 -0.3939 -0.4597
  327MOL0     C45028   6.458   1.586   5.100 -0.2255  1.1390  0.2681
  327MOL0     C45029   6.503   1.444   5.067 -0.0426 -0.0489  0.4632
  327MOL0     C45030   6.614   1.428   4.950 -0.4816 -0.1135 -1.3549
  327MOL0     C45031   6.657   1.287   4.913 -0.5539 -0.3560 -0.4657
  327MOL0     C45032   6.771   1.286   4.799  0.2655 -0.8839 -0.0966
  327MOL0    Cl45033   6.714   1.359   4.658 -0.4408  0.0746  0.1066
  327MOL0     C45034   5.835   1.717   5.274 -0.1127 -0.5381 -0.6724
  327MOL0     C45035   5.712   1.754   5.335  0.2671 -0.0572  0.6673
  327MOL0     O45036   5.456   1.915   5.412 -0.1539 -0.0694 -0.5645
  327MOL0     C45037   5.385   1.798   5.736  0.0214 -0.5905  0.1790
  327MOL0     C45038   5.289   1.791   5.836  1.0851 -0.0349  0.5431
  327MOL0     N45039   4.454   1.471   5.916 -0.2250  0.4221 -0.4228
  327MOL0     N45040   4.335   1.427   5.946 -0.1024  0.6064  0.5883
  327MOL0     C45041   3.647   1.298   7.060  0.4134 -0.4949 -0.4347
  327MOL0     C45042   3.560   1.278   7.170 -0.9010 -0.0676 -0.3477
  327MOL0     C45043   3.185   1.247   7.391 -0.2623  0.1177 -0.3369
  327MOL0     C45044   3.194   1.319   7.512 -0.4443  0.6399  0.2475
  327MOL0     C45045   3.089   1.311   7.609 -0.9512  0.1779  0.7213
  327MOL0     C45046   2.978   1.224   7.592 -0.8159 -0.4326 -0.3632
  327MOL0     O45047   2.868   1.211   7.674 -0.3235 -0.0372  0.0746
  327MOL0     C45048   2.866   1.288   7.793  0.0022  1.1782 -0.2018
  327MOL0     C45049   2.737   1.265   7.864 -0.0861  0.6695  0.0758
  327MOL0     C45050   2.741   1.320   8.004 -0.6131  0.1551 -0.5244
  327MOL0     C45051   2.610   1.311   8.087 -0.1277 -0.5316  0.8332
  327MOL0     C45052   2.634   1.361   8.223 -0.7689 -0.1333  0.5779
  327MOL0     C45053   2.635   1.395   8.335 -0.1298  0.3356 -0.9451
  327MOL0     C45054   2.973   1.156   7.476 -0.7323  0.7548  0.5710
  327MOL0     C45055   3.070   1.161   7.379 -0.5548 -0.2516 -0.5473
  327MOL0     C45056   3.030   1.084   7.250  0.5841 -0.6033  0.1503
  327MOL0     H45057   3.364   1.549   7.108  0.4022  1.6277 -2.2528
  327MOL0     H45058   3.516   1.581   6.933  0.2393 -0.9555 -0.9179
  327MOL0     H45059   3.642   1.578   6.721  1.8822  1.0347  2.4622
  327MOL0     H45060   3.548   1.434   6.742  0.3073  1.2734 -1.7173
  327MOL0     H45061   3.721   1.294   6.632 -0.1497  0.0029 -0.4145
  327MOL0     H45062   3.632   1.412   6.540  0.6701  0.8166  0.4110
  327MOL0     H45063   3.812   1.548   6.501  1.7322 -0.6335 -1.5521
  327MOL0     H45064   3.928   1.474   6.621  0.2516  0.0949 -0.4956
  327MOL0     H45065   3.874   1.242   6.503  2.0096 -0.0744 -1.2824
  327MOL0     H45066   3.794   1.358   6.390 -0.9721  1.9912  1.8999
  327MOL0     H45067   4.092   1.378   6.483 -0.9808  0.9837  1.4076
  327MOL0     H45068   4.013   1.473   6.353 -2.2744  1.0331  2.4412
  327MOL0     H45069   4.047   1.170   6.345 -2.6587  1.5971  1.4830
  327MOL0     H45070   3.977   1.262   6.217 -2.7334  2.6155  1.8853
  327MOL0     H45071   4.200   1.215   6.144 -0.4054 -3.6846  2.0925
  327MOL0     H45072   4.267   1.289   6.281 -2.1686  0.9185  2.2529
  327MOL0     H45073   4.102   1.423   6.056  0.0422 -0.8971 -0.8193
  327MOL0     H45074   4.143   1.516   6.193 -2.6288 -0.3597 -1.9140
  327MOL0     H45075   4.444   1.579   6.211 -0.9993  1.4542  0.5163
  327MOL0     H45076   4.713   1.465   6.055  0.4898  0.0229  1.5910
  327MOL0     H45077   4.662   1.624   6.136 -1.5344  1.0036 -1.2471
  327MOL0     H45078   4.746   1.563   5.856 -0.2806  0.3780 -0.3850
  327MOL0     H45079   4.659   1.717   5.896  2.0411  0.7112 -1.7898
  327MOL0     H45080   4.840   1.772   6.052 -3.2563  1.3800 -1.2738
  327MOL0     H45081   4.924   1.618   6.018  1.7603  2.3280 -0.7926
  327MOL0     H45082   4.945   1.657   5.798 -3.4161  1.3166 -1.3821
  327MOL0     H45083   4.865   1.820   5.806  1.6197  1.8792  2.0216
  327MOL0     H45084   5.018   1.841   5.648 -0.0506 -0.5474  0.7095
  327MOL0     H45085   5.248   1.800   5.359  2.5729  2.3358  0.2583
  327MOL0     H45086   5.173   1.957   5.397 -0.5796  0.6468  2.0630
  327MOL0     H45087   5.085   1.797   5.407  0.6884 -1.8238 -0.1145
  327MOL0     H45088   5.796   1.797   5.645 -2.8146 -0.2003 -1.1648
  327MOL0     H45089   6.026   1.747   5.558 -0.4820  1.8164 -0.6189
  327MOL0     H45090   6.164   1.830   5.359  1.0283 -0.6797  3.0605
  327MOL0     H45091   6.225   1.671   5.404  2.1570 -0.4526 -0.5046
  327MOL0     H45092   6.223   1.725   5.111  0.3307 -3.5853 -0.4523
  327MOL0     H45093   6.361   1.788   5.221 -0.1135 -0.1332  0.9948
  327MOL0     H45094   6.270   1.516   5.144 -0.2469 -1.9789  1.4766
  327MOL0     H45095   6.358   1.536   5.292  0.4200 -1.9315 -1.3003
  327MOL0     H45096   6.541   1.646   5.140 -0.2645  1.9531 -0.8164
  327MOL0     H45097   6.444   1.631   5.001  3.0295 -2.6703 -2.2106
  327MOL0     H45098   6.544   1.393   5.155  0.6202  0.9908  0.7833
  327MOL0     H45099   6.416   1.382   5.044 -0.4877 -0.1400  2.2375
  327MOL0     H45100   6.701   1.484   4.987  1.4260 -4.2315  1.1483
  327MOL0     H45101   6.568   1.474   4.862  1.2228  3.6089 -0.5078
  327MOL0     H45102   6.568   1.229   4.888 -0.7493 -0.5059  0.5676
  327MOL0     H45103   6.688   1.234   5.003 -2.4317 -2.5126 -0.9996
  327MOL0     H45104   6.800   1.181   4.791 -1.0087 -1.5008  2.2254
  327MOL0     H45105   6.864   1.336   4.828  1.0481 -2.5252  0.3367
  327MOL0     H45106   5.833   1.688   5.169 -1.3855 -2.9814 -0.0623
  327MOL0     H45107   5.620   1.754   5.278  0.3488 -0.3482  0.5348
  327MOL0     H45108   5.489   1.771   5.753  0.0404 -0.4946  0.2121
  327MOL0     H45109   5.307   1.776   5.942  0.2344  1.9258  1.0190
  327MOL0     H45110   3.729   1.229   7.041 -0.5206 -1.7647 -0.0202
  327MOL0     H45111   3.566   1.189   7.233  1.8603  0.3730  0.1284
  327MOL0     H45112   3.271   1.395   7.523  2.9305 -2.6682  1.7753
  327MOL0     H45113   3.089   1.375   7.696  0.0017 -0.6120  1.3252
  327MOL0     H45114   2.948   1.268   7.863  0.0896  2.2258  0.0054
  327MOL0     H45115   2.883   1.392   7.765  2.6472  0.5369 -1.3307
  327MOL0     H45116   2.715   1.158   7.869  0.2754  0.5451 -0.8803
  327MOL0     H45117   2.659   1.312   7.803 -0.9723  1.3783  1.6957
  327MOL0     H45118   2.803   1.242   8.051 -0.7589 -0.8870 -1.9648
  327MOL0     H45119   2.784   1.420   8.002  1.4556 -0.6572 -2.4139
  327MOL0     H45120   2.581   1.206   8.093  2.8629 -1.4656  0.4359
  327MOL0     H45121   2.527   1.370   8.048 -0.5859 -2.3207 -1.0492
  327MOL0     H45122   2.650   1.426   8.437  0.7667 -0.0444 -0.9506
  327MOL0     H45123   2.884   1.096   7.459 -0.4903  0.1078  1.4932
  327MOL0     H45124   3.106   1.010   7.224 -0.3435 -1.6290  0.3132
  327MOL0     H45125   2.931   1.040   7.236  0.7173 -0.7053 -0.4876
  327MOL0     H45126   3.022   1.163   7.175  0.2253 -0.7105  0.0732
  328MOL0     O45127   7.225   4.288   6.589 -0.3158 -0.8836  0.2395
  328MOL0     C45128   7.233   4.395   6.521  0.2232  0.2575 -0.1719
  328MOL0     O45129   7.341   4.434   6.442 -0.0773  0.0281  0.3510
  328MOL0     C45130   7.455   4.361   6.417  0.0910  0.5077  0.5483
  328MOL0     C45131   7.550   4.330   6.518 -0.0192  0.4311 -0.4383
  328MOL0     C45132   7.673   4.267   6.482  0.6940 -0.8958 -0.9863
  328MOL0     C45133   7.709   4.252   6.348 -0.4902  0.3227 -1.3076
  328MOL0     O45134   7.833   4.203   6.298 -0.4804 -0.5859  0.2497
  328MOL0     C45135   7.942   4.227   6.387  0.0663 -0.2011 -1.1289
  328MOL0     C45136   8.080   4.218   6.317  0.2472 -0.1323 -0.4741
  328MOL0     C45137   8.191   4.232   6.417 -0.1259  0.5894  0.2588
  328MOL0     C45138   8.330   4.234   6.358 -0.6871 -0.0166  1.3694
  328MOL0     C45139   8.433   4.273   6.459  0.1571  0.4216 -0.5413
  328MOL0     C45140   8.576   4.256   6.395  0.1160 -0.8151 -0.3299
  328MOL0     C45141   8.625   4.112   6.425  0.4001 -0.3020  1.0295
  328MOL0     C45142   8.709   4.125   6.548  0.5716 -0.2208 -0.4177
  328MOL0     N45143   8.758   3.999   6.603 -0.0021  0.2501  0.1573
  328MOL0     C45144   8.712   3.924   6.709  0.1384 -0.4090 -0.3528
  328MOL0     C45145   8.795   3.821   6.725  0.4655 -0.8739 -0.8230
  328MOL0     C45146   8.794   3.704   6.817 -0.1121 -0.9501  0.1615
  328MOL0     C45147   8.790   3.749   6.972 -0.0117 -0.5502  0.5533
  328MOL0     C45148   8.837   3.628   7.057 -0.4095  0.0271  0.8408
  328MOL0     C45149   8.899   3.656   7.192  0.1201 -0.2450 -0.4158
  328MOL0     O45150   9.032   3.705   7.158 -0.1193 -0.5141 -0.4105
  328MOL0     C45151   9.136   3.666   7.245  0.0975 -0.2997 -0.5962
  328MOL0     C45152   9.168   3.533   7.255  0.6246  0.0359  0.4137
  328MOL0     C45153   9.278   3.480   7.326 -0.4846 -0.1985  0.9285
  328MOL0     C45154   9.310   3.331   7.320  0.3443  0.0189  0.1012
  328MOL0     C45155   9.372   3.576   7.370 -0.2444  0.6681  0.7362
  328MOL0     C45156   9.487   3.524   7.457 -0.6440 -0.9153 -0.0043
  328MOL0     O45157   9.474   3.418   7.543  0.0934  0.5062 -0.2549
  328MOL0     C45158   9.569   3.359   7.627 -0.3963 -0.6304  0.1749
  328MOL0     C45159   9.639   3.449   7.703 -0.1446  0.4330 -0.9974
  328MOL0     C45160   9.748   3.404   7.779 -0.2060 -0.1776  0.6705
  328MOL0     C45161   9.792   3.267   7.769 -0.5310 -0.3416  0.5778
  328MOL0     O45162   9.901   3.212   7.835 -0.0868 -0.1779 -0.0236
  328MOL0     C45163   9.993   3.302   7.895  0.3512  0.1936 -0.0497
  328MOL0     C45164  10.092   3.359   7.793 -0.2770 -0.0311 -0.0857
  328MOL0     C45165  10.237   3.350   7.838  0.4261 -0.2441 -0.1508
  328MOL0     C45166  10.337   3.389   7.728  0.0145 -0.3837  0.1441
  328MOL0     C45167  10.472   3.442   7.787  0.5302  0.5654  0.3049
  328MOL0     C45168  10.552   3.340   7.869 -0.2859 -0.0982 -0.1897
  328MOL0     C45169  10.685   3.392   7.895 -0.0724 -0.3830  0.2448
  328MOL0     C45170  10.766   3.352   8.030  0.5592 -1.0766  0.1603
  328MOL0    Cl45171  10.789   3.172   8.011 -0.2282 -0.2768  0.0458
  328MOL0     C45172   9.714   3.185   7.690 -0.2084  0.6586 -0.3866
  328MOL0     C45173   9.606   3.231   7.616  0.2129 -0.0462 -0.1542
  328MOL0     O45174   9.589   3.594   7.445 -0.4549  0.0376 -0.0271
  328MOL0     C45175   9.347   3.714   7.356 -0.0195  0.5114  0.6505
  328MOL0     C45176   9.227   3.759   7.291 -0.4091  0.0145 -0.7059
  328MOL0     N45177   8.891   3.836   6.632 -0.1614  0.1271  0.1430
  328MOL0     N45178   8.861   3.934   6.553 -0.3977 -0.3151 -0.3760
  328MOL0     C45179   7.615   4.285   6.256  0.6470 -0.2640 -0.0149
  328MOL0     C45180   7.494   4.338   6.288  0.3128 -0.1898  1.3399
  328MOL0     C45181   7.123   4.493   6.536  0.5899  0.1375  1.1422
  328MOL0     C45182   7.152   4.621   6.566  0.2961 -0.3183  0.1996
  328MOL0     C45183   7.051   4.716   6.584  0.1390 -1.0122 -0.2333
  328MOL0     C45184   6.918   4.679   6.572 -0.2965 -0.7084  0.0861
  328MOL0     O45185   6.813   4.761   6.597 -0.1926  0.6171 -0.5730
  328MOL0     C45186   6.842   4.872   6.684 -0.6706  0.1938 -0.6964
  328MOL0     C45187   6.703   4.915   6.753 -0.3805  0.2848  0.0784
  328MOL0     C45188   6.609   4.976   6.652  0.3019 -0.1492 -0.5535
  328MOL0     C45189   6.483   5.022   6.730  0.1719  0.5144  0.0740
  328MOL0     C45190   6.404   4.906   6.779  0.4299  0.3040 -0.1162
  328MOL0     C45191   6.326   4.820   6.812 -0.4069 -0.3980 -0.1357
  328MOL0     C45192   6.895   4.556   6.525  0.4984  0.3615  0.8529
  328MOL0     C45193   6.991   4.456   6.504 -0.0588 -0.6923 -0.9600
  328MOL0     C45194   6.955   4.321   6.467  0.1576  0.5574 -0.2505
  328MOL0     H45195   7.525   4.347   6.622 -1.6279 -0.3132 -0.6738
  328MOL0     H45196   7.739   4.249   6.567  1.5352  0.9653 -1.2045
  328MOL0     H45197   7.942   4.153   6.468  1.1011  0.4432 -0.5094
  328MOL0     H45198   7.936   4.325   6.436 -2.1373 -1.5138  1.5046
  328MOL0     H45199   8.097   4.123   6.265 -1.4656 -1.4271  1.1668
  328MOL0     H45200   8.080   4.301   6.246  2.4993 -0.8272 -1.3480
  328MOL0     H45201   8.170   4.324   6.472 -1.0497 -1.1193  2.9699
  328MOL0     H45202   8.192   4.148   6.487  0.3262 -1.7755 -2.4432
  328MOL0     H45203   8.360   4.141   6.308 -0.1499  2.2183 -2.9660
  328MOL0     H45204   8.339   4.312   6.281 -0.1565 -0.6432  0.7820
  328MOL0     H45205   8.426   4.211   6.549  1.1573  0.7978 -0.1927
  328MOL0     H45206   8.412   4.378   6.477 -0.9551  0.1907 -0.4298
  328MOL0     H45207   8.575   4.270   6.287 -0.8557 -1.1754 -0.3762
  328MOL0     H45208   8.638   4.338   6.432 -1.7412  1.3353 -1.7616
  328MOL0     H45209   8.679   4.070   6.339 -0.3384 -0.1099  0.4580
  328MOL0     H45210   8.540   4.048   6.447  1.5931 -3.0582 -1.6138
  328MOL0     H45211   8.799   4.186   6.535  0.8771 -1.0501 -2.5350
  328MOL0     H45212   8.643   4.165   6.625 -0.2392 -1.5546 -0.3931
  328MOL0     H45213   8.626   3.953   6.767 -1.2031  0.7073 -2.7537
  328MOL0     H45214   8.885   3.648   6.795 -0.2381 -0.5142 -1.6006
  328MOL0     H45215   8.706   3.647   6.788 -0.0167 -0.7131 -0.6139
  328MOL0     H45216   8.868   3.825   6.985  2.0151 -2.5298  0.7526
  328MOL0     H45217   8.687   3.780   6.991  0.0328 -0.7704  1.1699
  328MOL0     H45218   8.745   3.571   7.075 -0.7391  0.8449  1.7711
  328MOL0     H45219   8.899   3.555   7.004  0.6588  0.6882  1.1398
  328MOL0     H45220   8.838   3.732   7.241 -0.7299 -0.3411 -1.2996
  328MOL0     H45221   8.900   3.570   7.259 -0.5217 -0.3338 -0.5140
  328MOL0     H45222   9.104   3.465   7.200  1.0913  1.5538 -2.1803
  328MOL0     H45223   9.418   3.318   7.306  0.6336  0.6907  1.5513
  328MOL0     H45224   9.269   3.288   7.228 -0.3779 -1.8879  1.2520
  328MOL0     H45225   9.268   3.271   7.401 -1.7590  1.2070 -0.0523
  328MOL0     H45226   9.631   3.557   7.690 -1.5756  0.1296 -3.1448
  328MOL0     H45227   9.796   3.481   7.838  2.0368  2.1710 -3.6907
  328MOL0     H45228   9.942   3.381   7.949  2.1197  1.3816 -0.0336
  328MOL0     H45229  10.056   3.251   7.968 -2.5835 -1.7982  1.2588
  328MOL0     H45230  10.078   3.311   7.696 -0.2402  1.1811 -0.7153
  328MOL0     H45231  10.063   3.462   7.770 -1.4685 -0.5203 -0.8916
  328MOL0     H45232  10.258   3.247   7.866  1.7119  0.3551  1.1782
  328MOL0     H45233  10.242   3.408   7.930 -1.4008 -4.4432  2.8798
  328MOL0     H45234  10.288   3.459   7.660  0.3263  1.0468  1.3459
  328MOL0     H45235  10.363   3.300   7.669 -0.4817  0.4877 -1.4631
  328MOL0     H45236  10.537   3.471   7.704 -0.9014  1.5566 -0.5165
  328MOL0     H45237  10.451   3.536   7.839  1.2143  0.0874  1.4867
  328MOL0     H45238  10.574   3.248   7.814  0.2647  0.7370 -1.4327
  328MOL0     H45239  10.494   3.307   7.955 -1.5230 -1.9914 -1.6756
  328MOL0     H45240  10.676   3.501   7.904 -3.6596 -0.2319 -2.6235
  328MOL0     H45241  10.738   3.377   7.800  1.5011  1.8775  0.6920
  328MOL0     H45242  10.701   3.370   8.116  0.0757 -2.4191  0.0886
  328MOL0     H45243  10.860   3.408   8.040  0.3102 -0.4400 -0.8536
  328MOL0     H45244   9.739   3.081   7.675  1.1459  0.7269  1.1325
  328MOL0     H45245   9.549   3.171   7.546 -0.2991  1.1711 -0.8125
  328MOL0     H45246   9.413   3.785   7.404  1.1037 -1.5711  2.3652
  328MOL0     H45247   9.204   3.864   7.281  1.5511  0.6717  1.0102
  328MOL0     H45248   7.643   4.273   6.152  1.2261 -4.1391  0.4393
  328MOL0     H45249   7.424   4.376   6.214 -0.0489 -0.1946  1.6833
  328MOL0     H45250   7.254   4.646   6.593  0.0657  0.4165  0.4113
  328MOL0     H45251   7.087   4.807   6.632 -1.1555  0.1184 -1.3297
  328MOL0     H45252   6.910   4.854   6.768  3.0554 -0.1263 -3.4847
  328MOL0     H45253   6.887   4.947   6.618  1.1229 -1.0532 -0.9809
  328MOL0     H45254   6.722   4.997   6.822  1.6570  0.4022 -0.5436
  328MOL0     H45255   6.664   4.831   6.811  0.8973 -0.2030  0.2774
  328MOL0     H45256   6.668   5.063   6.622 -1.0164  1.2079  0.6287
  328MOL0     H45257   6.599   4.905   6.569  3.3836 -1.7822  0.3257
  328MOL0     H45258   6.425   5.086   6.663 -1.9667 -0.9940  0.3766
  328MOL0     H45259   6.514   5.077   6.819  2.3637 -3.1826  1.8452
  328MOL0     H45260   6.250   4.748   6.834  1.2279 -1.8516  0.8946
  328MOL0     H45261   6.797   4.511   6.508  1.1385 -1.5818  2.0237
  328MOL0     H45262   6.851   4.306   6.435  0.9229  1.7054 -3.6620
  328MOL0     H45263   7.021   4.267   6.398  0.3752  1.7564 -0.9939
  328MOL0     H45264   6.979   4.267   6.560  2.7067  1.5872 -0.2333
  329MOL0     O45265   9.191   5.115   7.675  0.5346 -0.3837  0.4671
  329MOL0     C45266   9.137   5.155   7.573 -0.1741  0.0713  0.0392
  329MOL0     O45267   9.174   5.265   7.504  0.6864  0.2262 -0.3881
  329MOL0     C45268   9.274   5.339   7.547 -0.6116 -0.9069  0.0190
  329MOL0     C45269   9.268   5.420   7.662 -0.3064 -0.4200 -0.6902
  329MOL0     C45270   9.387   5.490   7.715  1.0436  0.8113 -0.3349
  329MOL0     C45271   9.505   5.482   7.645 -0.1152 -0.8044 -0.3108
  329MOL0     O45272   9.625   5.541   7.689  0.6330  0.6689  0.2949
  329MOL0     C45273   9.627   5.630   7.805 -0.3383 -0.0237 -0.2408
  329MOL0     C45274   9.766   5.685   7.828 -0.4081  0.9656  0.6904
  329MOL0     C45275   9.819   5.767   7.705  0.0090  0.9828  0.1343
  329MOL0     C45276   9.950   5.846   7.732 -0.5997  0.0369  0.4454
  329MOL0     C45277  10.013   5.902   7.602 -0.3933  0.0083  0.2792
  329MOL0     C45278  10.088   6.040   7.617  0.1734 -1.1860  0.3313
  329MOL0     C45279  10.176   6.074   7.490  0.8675  0.2041 -0.0870
  329MOL0     C45280  10.308   5.998   7.482  0.0330  1.0933  0.9787
  329MOL0     N45281  10.399   6.056   7.373 -0.0578 -0.0666 -0.4959
  329MOL0     C45282  10.522   5.997   7.346 -0.3387  0.2161  0.9176
  329MOL0     C45283  10.601   6.096   7.315 -0.3652  0.1309 -0.1088
  329MOL0     C45284  10.745   6.085   7.260  0.8635 -0.7341 -0.2928
  329MOL0     C45285  10.780   6.188   7.159 -0.4544 -0.0151 -0.1518
  329MOL0     C45286  10.923   6.155   7.119 -1.1611 -0.7098 -0.6155
  329MOL0     C45287  10.987   6.272   7.049  0.2290 -0.3873  0.1896
  329MOL0     O45288  11.128   6.256   7.065 -0.4187  0.0563 -0.0523
  329MOL0     C45289  11.200   6.362   7.016 -0.0104 -0.0758 -0.4910
  329MOL0     C45290  11.142   6.475   6.957 -0.4355 -0.4853  0.1532
  329MOL0     C45291  11.215   6.566   6.888  0.0667  0.3894  0.5763
  329MOL0     C45292  11.139   6.677   6.829  0.9635  0.1617 -0.6035
  329MOL0     C45293  11.355   6.556   6.874  0.3717 -0.1428  0.0518
  329MOL0     C45294  11.441   6.655   6.816  0.2997  0.2289  0.3676
  329MOL0     O45295  11.577   6.637   6.829 -0.5116 -0.8865  0.1635
  329MOL0     C45296  11.666   6.731   6.791 -0.1003 -0.5796  0.1434
  329MOL0     C45297  11.664   6.866   6.846  0.3595 -0.1706  0.3600
  329MOL0     C45298  11.762   6.958   6.809 -0.9286  0.2906  0.2449
  329MOL0     C45299  11.869   6.922   6.730 -0.4635  1.1006  0.6407
  329MOL0     O45300  11.972   7.005   6.695 -0.0475 -1.1204 -0.3978
  329MOL0     C45301  11.989   7.135   6.753  0.4736  0.4029  0.2779
  329MOL0     C45302  12.100   7.213   6.686  0.0018 -0.3425  0.7191
  329MOL0     C45303  12.121   7.342   6.764  0.2563  0.4658 -0.7007
  329MOL0     C45304  12.204   7.443   6.678 -0.1291  0.1716  0.3434
  329MOL0     C45305  12.217   7.580   6.740  0.0497 -0.2715  0.6593
  329MOL0     C45306  12.317   7.663   6.659  0.4722 -0.3258  0.4529
  329MOL0     C45307  12.465   7.635   6.695  0.2062  0.6372 -0.7925
  329MOL0     C45308  12.566   7.674   6.585  0.5669 -0.1223  0.1929
  329MOL0    Cl45309  12.552   7.850   6.570 -0.3992 -0.0337  0.3911
  329MOL0     C45310  11.868   6.791   6.682  0.3490  0.0400 -0.7768
  329MOL0     C45311  11.765   6.704   6.705 -0.0169  0.0347  0.1556
  329MOL0     O45312  11.393   6.757   6.756 -0.3888  1.0070  0.5755
  329MOL0     C45313  11.416   6.447   6.934  0.3944 -0.1742  0.1353
  329MOL0     C45314  11.344   6.359   7.010  0.7430  0.5873 -1.0353
  329MOL0     N45315  10.534   6.216   7.331 -0.5338  0.2647  0.1465
  329MOL0     N45316  10.416   6.193   7.372  1.1287  0.2748 -0.5537
  329MOL0     C45317   9.508   5.420   7.517  0.3860 -0.5286 -0.2995
  329MOL0     C45318   9.391   5.350   7.471  0.0180  1.4251  0.1612
  329MOL0     C45319   9.015   5.074   7.527 -0.1662 -0.1936  0.0897
  329MOL0     C45320   8.931   5.147   7.447  0.2865  0.0416  0.0448
  329MOL0     C45321   8.808   5.093   7.395 -0.3276  0.5371 -0.5202
  329MOL0     C45322   8.781   4.960   7.430  0.3748  0.0333  0.2736
  329MOL0     O45323   8.682   4.876   7.386 -0.7596 -0.2209 -0.3445
  329MOL0     C45324   8.566   4.928   7.332 -0.6162  0.0707  0.5349
  329MOL0     C45325   8.464   4.968   7.437 -0.0439  0.3360  0.3925
  329MOL0     C45326   8.407   4.857   7.532  0.6799  0.2004  0.3007
  329MOL0     C45327   8.320   4.752   7.455  0.6563  0.8687  0.3010
  329MOL0     C45328   8.235   4.678   7.554 -0.2861  0.9230 -0.3541
  329MOL0     C45329   8.166   4.628   7.643 -0.1158 -0.4087  0.3142
  329MOL0     C45330   8.874   4.892   7.508  0.0410  0.1603  0.3427
  329MOL0     C45331   8.994   4.941   7.566  1.0571 -0.7849  0.0826
  329MOL0     C45332   9.083   4.845   7.653  0.0703 -0.3114  0.1863
  329MOL0     H45333   9.178   5.413   7.723  1.4852 -1.7650  1.9653
  329MOL0     H45334   9.372   5.564   7.792 -1.4799  0.5957 -0.5085
  329MOL0     H45335   9.584   5.576   7.890 -0.8265 -0.8798 -1.0109
  329MOL0     H45336   9.560   5.714   7.783  1.9452  1.4994 -1.8089
  329MOL0     H45337   9.772   5.752   7.915  4.0595  1.3060  0.3384
  329MOL0     H45338   9.838   5.606   7.848 -1.3411  0.3045  1.5578
  329MOL0     H45339   9.834   5.701   7.619  1.0202 -0.9175  1.6907
  329MOL0     H45340   9.741   5.842   7.686 -0.2064  1.1136  1.4321
  329MOL0     H45341   9.927   5.923   7.806 -2.6176  0.9955 -1.1000
  329MOL0     H45342  10.030   5.781   7.769  1.8585  2.1898 -0.7448
  329MOL0     H45343   9.941   5.915   7.521  1.1398  1.0976 -0.9933
  329MOL0     H45344  10.082   5.829   7.558 -3.1638 -1.2334 -2.3193
  329MOL0     H45345  10.012   6.119   7.623  1.3111  0.1924 -2.0803
  329MOL0     H45346  10.151   6.038   7.706 -0.8309 -0.0297  1.1064
  329MOL0     H45347  10.197   6.180   7.476  0.0053  0.3727 -0.1409
  329MOL0     H45348  10.120   6.048   7.400 -0.9668 -1.0840  1.3571
  329MOL0     H45349  10.358   6.003   7.579  0.1587  1.8169  0.8862
  329MOL0     H45350  10.287   5.894   7.457  2.1109  1.6773 -5.0788
  329MOL0     H45351  10.550   5.893   7.337 -2.7598 -0.3380 -1.9643
  329MOL0     H45352  10.766   5.982   7.229  0.2422 -0.6901 -0.8592
  329MOL0     H45353  10.811   6.103   7.345 -0.6623  0.1649  0.7454
  329MOL0     H45354  10.716   6.189   7.071  1.7010 -0.1358 -1.7906
  329MOL0     H45355  10.788   6.284   7.211  2.7062 -0.5739  0.5979
  329MOL0     H45356  10.986   6.130   7.205 -0.0897 -0.5099 -1.3182
  329MOL0     H45357  10.915   6.071   7.049 -2.2828 -0.8329 -0.3558
  329MOL0     H45358  10.955   6.266   6.945  3.0038  2.6428 -1.0264
  329MOL0     H45359  10.955   6.367   7.095  1.0506  0.4840 -0.9828
  329MOL0     H45360  11.039   6.506   6.969 -0.2656  0.6610 -1.0196
  329MOL0     H45361  11.173   6.684   6.725  0.8316  1.9984 -0.5675
  329MOL0     H45362  11.169   6.771   6.876  1.1902 -0.3213  0.2326
  329MOL0     H45363  11.031   6.666   6.841  1.1522 -0.9845  0.2009
  329MOL0     H45364  11.596   6.904   6.922 -0.3905  1.5075 -1.0697
  329MOL0     H45365  11.758   7.057   6.854 -0.6542  1.7322 -2.6485
  329MOL0     H45366  11.897   7.194   6.752  0.9439  1.1660  0.9691
  329MOL0     H45367  12.013   7.131   6.860  2.4349 -0.3058 -0.1529
  329MOL0     H45368  12.192   7.154   6.681 -0.0606 -0.5173  1.5433
  329MOL0     H45369  12.081   7.231   6.579 -0.6571 -5.1231 -0.2112
  329MOL0     H45370  12.176   7.320   6.856  0.0378  0.3896 -0.5890
  329MOL0     H45371  12.023   7.380   6.794  0.1523  0.2171 -0.7279
  329MOL0     H45372  12.161   7.454   6.578  0.3999  1.3042  0.2326
  329MOL0     H45373  12.306   7.402   6.672  3.0314  6.6548  0.8965
  329MOL0     H45374  12.121   7.631   6.730  1.7265  3.1484  0.2912
  329MOL0     H45375  12.238   7.575   6.847  0.7184 -0.1762  0.5397
  329MOL0     H45376  12.281   7.765   6.672 -2.7726 -1.1853 -0.7177
  329MOL0     H45377  12.315   7.635   6.554 -0.2032 -0.5924  0.5323
  329MOL0     H45378  12.476   7.530   6.724  4.4595  1.4505  1.3343
  329MOL0     H45379  12.487   7.680   6.792 -2.1320  1.5075 -0.5971
  329MOL0     H45380  12.561   7.626   6.487  2.7551  1.2100 -0.6352
  329MOL0     H45381  12.667   7.646   6.618  1.8116  0.0307 -3.1596
  329MOL0     H45382  11.949   6.754   6.620 -0.9263 -1.4108 -1.6472
  329MOL0     H45383  11.768   6.605   6.660  0.2202  0.4291 -0.7189
  329MOL0     H45384  11.522   6.424   6.929  0.3665 -0.2322 -0.2853
  329MOL0     H45385  11.407   6.283   7.054 -0.7336  0.0614  0.2689
  329MOL0     H45386   9.596   5.418   7.455  0.6855  0.1312  0.0957
  329MOL0     H45387   9.395   5.290   7.381  1.6507  0.4713  0.8318
  329MOL0     H45388   8.941   5.251   7.418 -0.6222 -0.0674 -0.7101
  329MOL0     H45389   8.738   5.152   7.336  1.3185  2.3860 -0.7438
  329MOL0     H45390   8.592   5.016   7.272  0.6357 -0.0012  0.9593
  329MOL0     H45391   8.525   4.844   7.275 -0.5931 -0.7772  1.7289
  329MOL0     H45392   8.386   5.011   7.373 -0.5617 -0.1881  0.6608
  329MOL0     H45393   8.521   5.035   7.502 -0.7793 -0.2337  1.6527
  329MOL0     H45394   8.492   4.804   7.575  0.3073 -1.8164 -1.2906
  329MOL0     H45395   8.348   4.895   7.616 -2.6811 -2.6571 -0.4918
  329MOL0     H45396   8.385   4.683   7.399 -1.0353 -0.3406 -0.2426
  329MOL0     H45397   8.266   4.801   7.374  0.4007 -0.2722 -0.2424
  329MOL0     H45398   8.101   4.593   7.720  1.4464  0.8723  2.3139
  329MOL0     H45399   8.839   4.792   7.534 -1.4632 -0.4555 -3.3653
  329MOL0     H45400   9.045   4.830   7.755  2.2228 -0.7750  0.9785
  329MOL0     H45401   9.091   4.744   7.613  1.5142 -1.5837  3.2893
  329MOL0     H45402   9.188   4.874   7.662 -0.3629  0.9876  1.5146
  330MOL0     O45403   6.594   8.576   3.842 -0.3740  0.3625  0.4446
  330MOL0     C45404   6.529   8.505   3.769  0.5342  0.4905  0.6945
  330MOL0     O45405   6.584   8.416   3.676 -0.2234 -0.3340 -0.0938
  330MOL0     C45406   6.703   8.450   3.613 -0.3667 -0.3061  0.7139
  330MOL0     C45407   6.802   8.356   3.601 -0.1476  0.5468  0.9474
  330MOL0     C45408   6.923   8.387   3.545 -0.3117  0.1058 -0.2845
  330MOL0     C45409   6.951   8.509   3.481  0.5141 -0.3615 -0.7263
  330MOL0     O45410   7.071   8.536   3.429 -0.3445  0.8961 -0.1256
  330MOL0     C45411   7.176   8.556   3.521 -1.0817 -0.4812 -0.0777
  330MOL0     C45412   7.301   8.634   3.467 -0.1905  0.2467  0.0522
  330MOL0     C45413   7.413   8.534   3.444  0.2587 -1.1163 -0.2023
  330MOL0     C45414   7.554   8.596   3.435 -0.4846 -0.3211 -0.2131
  330MOL0     C45415   7.655   8.517   3.361  0.3629  0.4085 -0.0929
  330MOL0     C45416   7.800   8.570   3.354 -0.4523 -0.2740  0.1973
  330MOL0     C45417   7.901   8.473   3.290  0.5773  0.5802  1.3428
  330MOL0     C45418   8.046   8.524   3.290 -1.3565 -0.2216 -0.3034
  330MOL0     N45419   8.115   8.438   3.199 -0.5016  0.6017 -0.2375
  330MOL0     C45420   8.203   8.344   3.228 -0.0190 -0.2709  1.0464
  330MOL0     C45421   8.248   8.282   3.118  1.5534 -0.4639 -0.0989
  330MOL0     C45422   8.341   8.172   3.111 -0.6964  1.1915 -0.4265
  330MOL0     C45423   8.458   8.210   3.028  0.8026 -0.1311  0.0892
  330MOL0     C45424   8.542   8.100   2.976  0.0645 -0.2164  0.5619
  330MOL0     C45425   8.684   8.158   2.941 -0.0921  0.1434 -0.0548
  330MOL0     O45426   8.765   8.052   2.889  0.2180  0.2961 -0.0982
  330MOL0     C45427   8.893   8.059   2.928 -0.5049 -0.3586 -0.0898
  330MOL0     C45428   8.933   7.969   3.024  1.4715  0.1714 -0.7177
  330MOL0     C45429   9.065   7.950   3.071 -0.0225 -0.0140 -0.6513
  330MOL0     C45430   9.093   7.847   3.185 -0.4375 -0.7687 -0.1909
  330MOL0     C45431   9.152   8.040   3.009 -1.1069  0.1537 -0.4696
  330MOL0     C45432   9.293   8.048   3.071 -0.4741  0.8837  0.0495
  330MOL0     O45433   9.390   8.067   2.973  0.0030 -0.3657  0.2054
  330MOL0     C45434   9.522   8.072   3.002  0.2948  0.6082  0.6013
  330MOL0     C45435   9.598   7.971   3.068  0.8533 -0.3298 -0.2349
  330MOL0     C45436   9.737   7.972   3.090 -0.3356 -0.0190 -0.3920
  330MOL0     C45437   9.807   8.087   3.055 -0.0733 -0.6956  0.0242
  330MOL0     O45438   9.941   8.095   3.082 -0.3487 -0.0881  0.4752
  330MOL0     C45439  10.019   8.196   3.023 -1.1070  0.3943 -0.3055
  330MOL0     C45440  10.170   8.151   3.031 -0.4684 -0.2194 -0.2771
  330MOL0     C45441  10.221   8.122   3.172  0.2689 -0.1732  0.6107
  330MOL0     C45442  10.371   8.111   3.167 -0.2370  0.8311 -0.4489
  330MOL0     C45443  10.432   8.093   3.306 -0.5315 -0.7115  1.0156
  330MOL0     C45444  10.418   8.230   3.380  0.6202  1.2514 -0.0827
  330MOL0     C45445  10.489   8.213   3.519 -0.5596 -0.5846  0.4561
  330MOL0     C45446  10.459   8.319   3.619 -0.5774  0.4516  0.0108
  330MOL0    Cl45447  10.333   8.257   3.719 -0.3183  0.1679  0.1332
  330MOL0     C45448   9.734   8.199   2.997  0.4314  0.5658  0.6885
  330MOL0     C45449   9.604   8.182   2.964  0.8649 -0.7612  0.1371
  330MOL0     O45450   9.324   8.013   3.185  0.0103 -0.6868  0.2731
  330MOL0     C45451   9.117   8.130   2.912 -0.9553  0.4117 -1.5541
  330MOL0     C45452   8.991   8.136   2.871  0.0126  0.3980  0.1118
  330MOL0     N45453   8.171   8.330   3.018 -0.0163  0.3101 -0.0920
  330MOL0     N45454   8.086   8.428   3.064  0.4119  0.3323  0.1721
  330MOL0     C45455   6.854   8.615   3.498 -0.3518  0.3273  0.1232
  330MOL0     C45456   6.734   8.578   3.561 -0.4547 -0.7083  0.2345
  330MOL0     C45457   6.377   8.515   3.785  0.0610  0.6828  0.1309
  330MOL0     C45458   6.301   8.429   3.708  0.0085  0.0035 -0.7039
  330MOL0     C45459   6.160   8.438   3.700  0.3518  1.3094 -0.1979
  330MOL0     C45460   6.084   8.519   3.785  0.4262  0.3607 -0.7583
  330MOL0     O45461   5.945   8.517   3.795 -0.3015 -0.2996 -0.5691
  330MOL0     C45462   5.891   8.401   3.725 -0.2210  0.7776  0.2025
  330MOL0     C45463   5.743   8.406   3.756 -0.1857  0.2914 -0.2034
  330MOL0     C45464   5.679   8.272   3.735  0.2836  0.7880  0.4564
  330MOL0     C45465   5.528   8.259   3.730 -0.2306 -0.2991 -0.1363
  330MOL0     C45466   5.497   8.119   3.693  0.3154  0.0119  0.2761
  330MOL0     C45467   5.468   8.011   3.655 -0.0206  0.0622 -0.5933
  330MOL0     C45468   6.161   8.598   3.878  0.6251 -0.4576  0.8019
  330MOL0     C45469   6.308   8.595   3.880  0.8894  0.1151  0.7076
  330MOL0     C45470   6.376   8.698   3.965 -0.4402  0.0500 -0.2571
  330MOL0     H45471   6.791   8.254   3.636  1.7133  0.3083  0.9430
  330MOL0     H45472   6.999   8.310   3.533  1.3080  1.6250 -0.2728
  330MOL0     H45473   7.211   8.457   3.550  4.2657  1.6590  2.0919
  330MOL0     H45474   7.147   8.601   3.616  4.1235  1.2424  1.0517
  330MOL0     H45475   7.278   8.690   3.376  4.5061  0.3819 -1.3500
  330MOL0     H45476   7.329   8.701   3.549  3.0239 -3.6051  2.5024
  330MOL0     H45477   7.408   8.457   3.521  0.7668 -1.3416 -0.3833
  330MOL0     H45478   7.406   8.479   3.350  0.8788 -2.6993  0.6267
  330MOL0     H45479   7.553   8.692   3.383 -2.5538 -0.1678  0.0458
  330MOL0     H45480   7.595   8.615   3.535 -0.3182 -3.0958  0.3252
  330MOL0     H45481   7.610   8.507   3.262 -0.0873  0.0014  0.1456
  330MOL0     H45482   7.653   8.423   3.417 -2.1830  0.9717  0.9055
  330MOL0     H45483   7.804   8.662   3.295 -0.4828  0.4356  1.2654
  330MOL0     H45484   7.846   8.604   3.447  0.8631  4.3499 -1.8754
  330MOL0     H45485   7.868   8.455   3.187  1.7543 -1.3021  1.2543
  330MOL0     H45486   7.897   8.379   3.347  2.4402  0.8478  1.9752
  330MOL0     H45487   8.062   8.624   3.249  1.6393 -0.3692  0.2343
  330MOL0     H45488   8.092   8.525   3.390 -0.6663  1.7711 -0.5906
  330MOL0     H45489   8.253   8.312   3.318  4.7111  2.1460 -0.3721
  330MOL0     H45490   8.289   8.087   3.065 -0.1372  0.4470  0.3005
  330MOL0     H45491   8.376   8.132   3.206 -0.7793 -1.3716 -1.3946
  330MOL0     H45492   8.420   8.255   2.936 -1.9447 -0.2212  1.1031
  330MOL0     H45493   8.514   8.292   3.075 -0.1202 -0.3641  1.6786
  330MOL0     H45494   8.557   8.032   3.060 -2.5184  1.2012  2.2912
  330MOL0     H45495   8.506   8.045   2.888 -0.9096  0.1116  0.7396
  330MOL0     H45496   8.665   8.227   2.858 -0.2763 -0.2002 -0.3005
  330MOL0     H45497   8.732   8.197   3.031  1.9186 -1.7969 -0.2145
  330MOL0     H45498   8.851   7.918   3.074  2.7229 -0.1144  1.1411
  330MOL0     H45499   9.097   7.904   3.279 -0.2763  1.3205 -1.4112
  330MOL0     H45500   9.184   7.789   3.171  0.8169  1.5427 -2.4398
  330MOL0     H45501   9.011   7.776   3.198 -0.1493 -1.0712 -0.0161
  330MOL0     H45502   9.539   7.888   3.105 -1.5503  1.1158 -0.5431
  330MOL0     H45503   9.771   7.886   3.146  1.4813 -0.0611 -1.5059
  330MOL0     H45504  10.006   8.208   2.915  1.2615 -1.5046 -0.8849
  330MOL0     H45505  10.015   8.295   3.070 -1.3253  0.7004 -0.9503
  330MOL0     H45506  10.179   8.057   2.975  1.0743  0.2583 -0.8899
  330MOL0     H45507  10.238   8.221   2.980  2.6711 -2.0733  1.0778
  330MOL0     H45508  10.186   8.032   3.223  0.4901  0.6043  2.1786
  330MOL0     H45509  10.200   8.216   3.224  6.2490  2.1536 -0.4372
  330MOL0     H45510  10.405   8.204   3.122  1.2372  0.3035 -0.4781
  330MOL0     H45511  10.397   8.024   3.107  1.1868  2.6631 -2.6618
  330MOL0     H45512  10.382   8.010   3.354  0.3944 -1.5538  0.5620
  330MOL0     H45513  10.535   8.062   3.285 -0.2909 -0.5737  1.9772
  330MOL0     H45514  10.312   8.245   3.399  0.1508 -1.3928 -0.2637
  330MOL0     H45515  10.446   8.317   3.320  1.3899 -0.0661 -1.7213
  330MOL0     H45516  10.594   8.231   3.494 -1.2432  0.5957 -1.7985
  330MOL0     H45517  10.481   8.115   3.568  1.5428 -0.5880  0.9013
  330MOL0     H45518  10.427   8.416   3.578  2.6873  2.2638  1.3920
  330MOL0     H45519  10.553   8.330   3.674 -0.2336 -1.2682 -0.1705
  330MOL0     H45520   9.796   8.287   2.983 -1.3180  1.7143 -0.1563
  330MOL0     H45521   9.552   8.252   2.900 -1.7990 -1.2497  1.6147
  330MOL0     H45522   9.195   8.191   2.868 -1.5540  2.9096  0.5612
  330MOL0     H45523   8.961   8.207   2.794  1.6296  0.4519 -0.5032
  330MOL0     H45524   6.876   8.720   3.482 -1.4426  0.5604  0.0804
  330MOL0     H45525   6.663   8.659   3.566 -1.6373 -1.7073 -0.0777
  330MOL0     H45526   6.355   8.354   3.652 -0.7716 -1.5431  0.5608
  330MOL0     H45527   6.121   8.372   3.623  1.4165  0.2923  0.1153
  330MOL0     H45528   5.889   8.406   3.616 -2.3715  0.5689  0.1978
  330MOL0     H45529   5.936   8.309   3.763  2.4556  0.5176 -3.0724
  330MOL0     H45530   5.710   8.478   3.682  0.9620  0.8513 -0.1897
  330MOL0     H45531   5.721   8.445   3.856 -3.0974  1.5727 -1.2521
  330MOL0     H45532   5.714   8.246   3.635 -0.1818  1.5223  0.0994
  330MOL0     H45533   5.708   8.201   3.814  0.6038  1.5060  1.0018
  330MOL0     H45534   5.484   8.324   3.654 -1.0860 -0.4171  0.2513
  330MOL0     H45535   5.480   8.279   3.826  0.1931  0.5823 -0.0924
  330MOL0     H45536   5.449   7.914   3.613 -2.1320  1.3176 -2.7802
  330MOL0     H45537   6.104   8.661   3.945 -0.6025 -0.7454  0.0678
  330MOL0     H45538   6.324   8.759   4.040  0.4135  1.5930 -0.8717
  330MOL0     H45539   6.446   8.639   4.024  1.4836 -1.8895 -4.1088
  330MOL0     H45540   6.427   8.768   3.898  2.0437 -2.6113 -1.3395
  331MOL0     O45541   7.999   3.674   3.368  0.2961 -0.1549 -0.4825
  331MOL0     C45542   7.938   3.697   3.478 -0.2150  0.2230 -0.5301
  331MOL0     O45543   7.948   3.820   3.547  0.0045  0.3402 -0.3928
  331MOL0     C45544   8.068   3.897   3.538  0.9530  0.6855 -0.2110
  331MOL0     C45545   8.173   3.886   3.446 -0.0638  0.1291  0.0094
  331MOL0     C45546   8.279   3.975   3.453 -0.0342  1.1068  0.3691
  331MOL0     C45547   8.284   4.076   3.550 -0.0853 -0.7188  0.1913
  331MOL0     O45548   8.375   4.177   3.544 -0.4200 -0.3586  0.1575
  331MOL0     C45549   8.507   4.140   3.522 -0.5957  0.3947  0.3271
  331MOL0     C45550   8.590   4.255   3.590  0.4290 -0.4290  1.1312
  331MOL0     C45551   8.738   4.195   3.615 -0.4496  0.4883  0.6918
  331MOL0     C45552   8.823   4.193   3.483  0.0230 -0.4326 -0.5220
  331MOL0     C45553   8.956   4.119   3.514 -0.4453  0.7601  0.2866
  331MOL0     C45554   9.037   4.100   3.391 -0.1552  0.3090 -0.4033
  331MOL0     C45555   9.185   4.086   3.427 -0.3378  0.1429 -0.5476
  331MOL0     C45556   9.226   3.949   3.485  0.3045  0.0179 -0.1808
  331MOL0     N45557   9.360   3.961   3.526  0.1331  0.3973 -0.0241
  331MOL0     C45558   9.396   4.008   3.649 -0.6956  0.0020  0.0916
  331MOL0     C45559   9.531   4.018   3.643  0.1711  0.5685  1.0400
  331MOL0     C45560   9.628   4.058   3.765 -0.5617 -0.0138  0.2405
  331MOL0     C45561   9.546   4.074   3.895  0.2876  0.0053  0.4920
  331MOL0     C45562   9.621   4.090   4.024  0.4487  0.3698 -0.0790
  331MOL0     C45563   9.765   4.119   4.015 -0.3565  0.2375 -0.6752
  331MOL0     O45564   9.854   4.004   3.992 -0.0530 -0.4066 -0.1064
  331MOL0     C45565   9.990   4.026   3.998  0.1513  0.5074 -0.6383
  331MOL0     C45566  10.073   3.924   3.953  0.2187  0.2189  0.1954
  331MOL0     C45567  10.209   3.924   3.966  0.7658 -0.3911 -0.0444
  331MOL0     C45568  10.274   3.796   3.913  0.7547 -0.0376 -0.2723
  331MOL0     C45569  10.269   4.057   3.997  0.4424  0.3074  1.0501
  331MOL0     C45570  10.420   4.085   3.990  0.1707 -0.5841  0.3047
  331MOL0     O45571  10.491   3.988   3.926  0.9769  0.3150 -0.0226
  331MOL0     C45572  10.621   3.990   3.896 -0.2138  0.0970  0.3300
  331MOL0     C45573  10.671   3.861   3.873 -0.9059 -0.5692 -0.3687
  331MOL0     C45574  10.798   3.848   3.818 -0.2978  0.2631 -0.2211
  331MOL0     C45575  10.877   3.964   3.795 -0.3486 -0.4554  0.0966
  331MOL0     O45576  11.007   3.962   3.756 -0.0400  0.3542  0.1995
  331MOL0     C45577  11.040   4.041   3.646  0.7047 -0.5860  0.4558
  331MOL0     C45578  11.152   3.968   3.576 -0.6023  1.3549 -0.9788
  331MOL0     C45579  11.281   3.988   3.653  0.7409 -0.2911 -1.1006
  331MOL0     C45580  11.396   3.920   3.576 -0.8327 -0.3383 -0.2834
  331MOL0     C45581  11.533   3.909   3.645  0.4565  0.3213 -0.3218
  331MOL0     C45582  11.579   4.042   3.701  0.1183 -0.4661 -0.2477
  331MOL0     C45583  11.716   4.039   3.778  0.5966  0.0654 -0.2226
  331MOL0     C45584  11.741   4.156   3.876 -0.0918 -0.1554 -0.6147
  331MOL0    Cl45585  11.665   4.122   4.030  0.3902  0.0453  0.4065
  331MOL0     C45586  10.824   4.094   3.820  0.9239  0.1265 -0.0228
  331MOL0     C45587  10.695   4.108   3.864  0.2345 -0.3389  0.8350
  331MOL0     O45588  10.467   4.190   4.035  0.2030 -0.0429 -0.4615
  331MOL0     C45589  10.181   4.156   4.049 -0.7668  0.3238  0.4510
  331MOL0     C45590  10.038   4.149   4.044 -0.1580  1.0279  0.6610
  331MOL0     N45591   9.577   3.986   3.513  0.6162 -0.1681 -0.3475
  331MOL0     N45592   9.466   3.963   3.443 -0.4064 -0.6538 -0.2796
  331MOL0     C45593   8.176   4.089   3.635  0.4866  0.1763 -0.4355
  331MOL0     C45594   8.077   3.993   3.641  0.1104  0.6352  0.1271
  331MOL0     C45595   7.861   3.595   3.547  0.5587 -0.1232 -0.1734
  331MOL0     C45596   7.759   3.630   3.631  0.0742  0.4102  0.6180
  331MOL0     C45597   7.686   3.540   3.709 -0.1804  0.0326 -0.8280
  331MOL0     C45598   7.707   3.407   3.699 -0.3769  0.0017  0.3840
  331MOL0     O45599   7.627   3.331   3.780  0.3296  0.2464 -1.2686
  331MOL0     C45600   7.635   3.191   3.799 -0.3700 -0.1082 -0.0562
  331MOL0     C45601   7.741   3.166   3.899 -0.6511 -0.2562  0.1916
  331MOL0     C45602   7.808   3.029   3.893 -0.3746  0.3377  0.2389
  331MOL0     C45603   7.709   2.902   3.891 -0.3540 -0.3505  0.7789
  331MOL0     C45604   7.630   2.909   4.018 -0.0293 -0.1404  0.2205
  331MOL0     C45605   7.561   2.920   4.126  0.3618 -0.3523  0.3120
  331MOL0     C45606   7.805   3.365   3.608 -1.3524 -0.2369  0.9068
  331MOL0     C45607   7.887   3.458   3.533  0.5157 -0.1691  0.3357
  331MOL0     C45608   7.994   3.405   3.431  1.1787  0.5722 -0.1706
  331MOL0     H45609   8.173   3.815   3.364 -0.9413 -0.7524  0.7430
  331MOL0     H45610   8.363   3.968   3.383 -0.6233  1.3442 -0.3721
  331MOL0     H45611   8.528   4.120   3.417  1.3600 -2.1767  1.1136
  331MOL0     H45612   8.524   4.045   3.574 -0.9658 -1.5557 -2.8143
  331MOL0     H45613   8.593   4.347   3.530  1.7632 -0.8170  0.5492
  331MOL0     H45614   8.542   4.286   3.683 -4.4729  0.6922 -1.4411
  331MOL0     H45615   8.793   4.254   3.689  3.8548 -2.3028  0.0803
  331MOL0     H45616   8.729   4.093   3.652  1.2344 -0.6527 -1.8245
  331MOL0     H45617   8.775   4.123   3.414  2.8245 -2.9929 -0.0698
  331MOL0     H45618   8.840   4.289   3.434  1.0921  1.1285  2.6384
  331MOL0     H45619   8.936   4.024   3.564 -0.5860 -0.3113 -1.7212
  331MOL0     H45620   9.014   4.181   3.584  2.3692  0.7344 -1.8617
  331MOL0     H45621   9.000   4.018   3.328 -1.0886  1.7404 -1.8029
  331MOL0     H45622   9.026   4.193   3.334  4.2146  1.3263  0.0900
  331MOL0     H45623   9.218   4.164   3.496 -1.2282  0.3207 -0.3166
  331MOL0     H45624   9.235   4.098   3.331 -0.7096  1.0217 -0.6361
  331MOL0     H45625   9.168   3.925   3.575  0.5343  1.2487  0.3149
  331MOL0     H45626   9.218   3.867   3.413  0.2618  1.6787 -2.1512
  331MOL0     H45627   9.332   4.032   3.733  1.8768 -1.4989  2.6721
  331MOL0     H45628   9.683   4.149   3.742  2.2565 -1.8948 -0.9884
  331MOL0     H45629   9.711   3.988   3.773 -0.0848  0.4060 -0.7851
  331MOL0     H45630   9.474   4.157   3.891  0.3208  0.0237  0.2361
  331MOL0     H45631   9.486   3.986   3.916  0.7616  0.1960  2.8211
  331MOL0     H45632   9.571   4.175   4.071  1.8070  1.2667 -0.1790
  331MOL0     H45633   9.607   4.001   4.086 -0.8358  0.8273  0.3124
  331MOL0     H45634   9.783   4.192   3.936  2.2853  0.3790 -0.0348
  331MOL0     H45635   9.794   4.172   4.105  1.4845  1.2975 -1.8242
  331MOL0     H45636  10.021   3.833   3.925 -0.9697  0.4695  1.4737
  331MOL0     H45637  10.206   3.711   3.924 -0.0840  0.7967  1.4812
  331MOL0     H45638  10.358   3.760   3.974  1.0652  1.8333  0.4679
  331MOL0     H45639  10.313   3.819   3.814  1.0975 -0.4527 -0.2364
  331MOL0     H45640  10.615   3.773   3.902  0.6745 -1.9820 -1.4079
  331MOL0     H45641  10.837   3.748   3.809  0.3929  0.5524 -0.4885
  331MOL0     H45642  10.963   4.058   3.571  1.8291  1.3458 -0.3533
  331MOL0     H45643  11.081   4.136   3.683  2.2902 -1.0087 -0.1363
  331MOL0     H45644  11.130   3.861   3.583  0.1410  1.2731  0.5041
  331MOL0     H45645  11.171   4.003   3.474  2.0024  2.7341 -0.1201
  331MOL0     H45646  11.275   3.945   3.754 -1.7519  1.2505 -0.5071
  331MOL0     H45647  11.294   4.096   3.660 -0.0301 -0.1401 -1.8463
  331MOL0     H45648  11.413   3.975   3.483 -0.0811 -0.6616 -0.3453
  331MOL0     H45649  11.368   3.817   3.553  0.0521 -0.0824 -2.8003
  331MOL0     H45650  11.529   3.833   3.724  1.8265 -1.0337 -1.4956
  331MOL0     H45651  11.609   3.872   3.576 -0.2294 -0.6171 -0.6010
  331MOL0     H45652  11.503   4.067   3.775 -0.1045 -0.1877 -0.5685
  331MOL0     H45653  11.584   4.106   3.612 -0.5339  0.1527  0.1508
  331MOL0     H45654  11.784   4.033   3.693 -0.1631 -1.1310 -0.7812
  331MOL0     H45655  11.721   3.949   3.841 -2.0417  0.6068  0.9034
  331MOL0     H45656  11.715   4.253   3.833  0.0929 -0.9622 -2.6655
  331MOL0     H45657  11.849   4.158   3.895 -0.1950  0.5422 -0.0641
  331MOL0     H45658  10.876   4.189   3.810  2.1893 -0.5272  0.1813
  331MOL0     H45659  10.637   4.200   3.865 -3.4769 -2.3811 -1.8492
  331MOL0     H45660  10.224   4.250   4.083 -0.6647 -0.1641  1.7058
  331MOL0     H45661   9.975   4.235   4.065 -1.6237 -0.2645  1.7851
  331MOL0     H45662   8.177   4.171   3.706  0.5302 -0.1157 -0.0941
  331MOL0     H45663   8.013   3.987   3.728  0.2966  0.3489  0.2443
  331MOL0     H45664   7.720   3.731   3.628 -3.4770 -0.8134  0.9517
  331MOL0     H45665   7.616   3.574   3.785  3.9804  0.5000  3.2479
  331MOL0     H45666   7.539   3.150   3.833 -1.1393  1.1625 -0.6070
  331MOL0     H45667   7.661   3.140   3.706  5.5497  3.7029 -1.0287
  331MOL0     H45668   7.704   3.188   3.999  1.8223  1.2481  0.8513
  331MOL0     H45669   7.819   3.241   3.883 -1.0806  0.2113  0.2609
  331MOL0     H45670   7.860   3.029   3.797  0.0871  5.1098  0.2613
  331MOL0     H45671   7.885   3.023   3.970  0.2083  1.3415 -0.2647
  331MOL0     H45672   7.773   2.813   3.891  0.1118 -0.0498 -0.4665
  331MOL0     H45673   7.652   2.909   3.798  1.1316  1.0391 -0.0906
  331MOL0     H45674   7.516   2.921   4.223  1.5575  0.6786  0.8684
  331MOL0     H45675   7.831   3.259   3.603 -1.7448 -0.3197  0.4986
  331MOL0     H45676   8.089   3.459   3.429  0.7698  1.2993 -0.8513
  331MOL0     H45677   8.008   3.298   3.449 -0.3690  0.4478  0.4496
  331MOL0     H45678   7.948   3.426   3.333  1.9063 -1.3819 -0.9665
  332MOL0     O45679   7.711   9.263   4.296 -0.4095 -0.5322  0.0588
  332MOL0     C45680   7.597   9.321   4.278 -0.7640 -0.1683 -0.9907
  332MOL0     O45681   7.533   9.402   4.367 -0.0996 -0.3709 -0.4005
  332MOL0     C45682   7.592   9.458   4.481  0.1837 -0.0385 -0.2199
  332MOL0     C45683   7.584   9.397   4.602  0.0567  0.2014  0.5588
  332MOL0     C45684   7.648   9.453   4.715  0.1207 -0.0423  0.8688
  332MOL0     C45685   7.727   9.569   4.706 -0.0185  0.1747  0.1177
  332MOL0     O45686   7.815   9.616   4.808 -0.1885  0.2203 -0.2430
  332MOL0     C45687   7.795   9.564   4.943 -0.0487 -0.2411  0.6568
  332MOL0     C45688   7.911   9.610   5.020 -0.2935 -0.5604  0.4520
  332MOL0     C45689   7.891   9.545   5.159 -0.3528 -1.0063  0.3159
  332MOL0     C45690   7.988   9.592   5.278  0.3679  0.2257  0.1535
  332MOL0     C45691   7.952   9.518   5.405 -0.0493  0.0243 -0.8824
  332MOL0     C45692   8.059   9.519   5.512  0.1933  0.0218 -0.0975
  332MOL0     C45693   8.018   9.411   5.623  0.7305  0.2148 -0.3585
  332MOL0     C45694   8.107   9.416   5.749 -0.4323  0.6208 -0.3447
  332MOL0     N45695   8.245   9.365   5.748  0.3956 -0.8040  0.4978
  332MOL0     C45696   8.340   9.410   5.662 -0.0914 -0.0210 -0.0866
  332MOL0     C45697   8.426   9.303   5.649 -0.3961 -0.1757  0.1340
  332MOL0     C45698   8.534   9.281   5.549 -0.0118 -0.1992  0.3829
  332MOL0     C45699   8.662   9.293   5.633  0.2184 -0.5765  0.3789
  332MOL0     C45700   8.788   9.244   5.573  0.3323 -0.1439  0.2125
  332MOL0     C45701   8.913   9.286   5.651 -0.6302 -0.0304 -0.0706
  332MOL0     O45702   8.906   9.235   5.786 -0.1527 -0.1320 -0.2353
  332MOL0     C45703   9.019   9.230   5.861 -0.0571 -0.7056 -0.7282
  332MOL0     C45704   9.004   9.208   5.994  0.6196  0.4547  0.2282
  332MOL0     C45705   9.107   9.202   6.084  0.8374 -0.2758  0.9887
  332MOL0     C45706   9.079   9.189   6.241 -0.3791  0.1331 -0.0231
  332MOL0     C45707   9.240   9.215   6.037 -0.2074  0.3751  0.3708
  332MOL0     C45708   9.363   9.223   6.119 -0.7186 -0.2114  0.6357
  332MOL0     O45709   9.489   9.198   6.066  0.4222  0.7988  0.1583
  332MOL0     C45710   9.592   9.212   6.161  0.3099  0.8899  0.3119
  332MOL0     C45711   9.609   9.116   6.260 -0.3900  0.4455 -0.4944
  332MOL0     C45712   9.717   9.128   6.353 -0.0631  1.8823  0.2633
  332MOL0     C45713   9.814   9.233   6.334 -0.6215  0.8043  0.1163
  332MOL0     O45714   9.929   9.246   6.408  0.3365 -0.3154  0.2427
  332MOL0     C45715   9.966   9.143   6.498 -0.4921  0.5761 -0.4304
  332MOL0     C45716  10.032   9.021   6.423 -0.2284 -0.0681  0.3944
  332MOL0     C45717  10.048   8.879   6.507 -0.2977 -0.2035  0.2050
  332MOL0     C45718  10.109   8.775   6.406  0.2156  1.3030  0.0269
  332MOL0     C45719  10.113   8.636   6.475  0.3135  0.3461  0.4326
  332MOL0     C45720  10.182   8.529   6.386 -0.4893 -0.7553 -0.1928
  332MOL0     C45721  10.227   8.400   6.459 -0.9177  0.0693  0.3910
  332MOL0     C45722  10.354   8.407   6.537  0.7296  0.5983 -0.2549
  332MOL0    Cl45723  10.499   8.435   6.430 -0.2041 -0.0796  0.4025
  332MOL0     C45724   9.786   9.337   6.250  0.3548  0.0076  0.2974
  332MOL0     C45725   9.676   9.324   6.163 -0.3383 -1.8719  0.2511
  332MOL0     O45726   9.342   9.260   6.238 -0.6379  0.0264 -0.0994
  332MOL0     C45727   9.261   9.229   5.901 -0.2798 -1.0822  1.1151
  332MOL0     C45728   9.155   9.240   5.814  0.4742  0.1034  0.3077
  332MOL0     N45729   8.380   9.201   5.729  0.2374 -1.0492 -0.2042
  332MOL0     N45730   8.273   9.246   5.792  0.3098  0.1645  0.5062
  332MOL0     C45731   7.731   9.627   4.578 -0.9512  0.0503 -0.4041
  332MOL0     C45732   7.668   9.575   4.466  0.4704 -0.0897 -0.1964
  332MOL0     C45733   7.523   9.291   4.151 -0.0731  0.3123 -0.1988
  332MOL0     C45734   7.555   9.163   4.086  0.2892 -0.0059 -1.0756
  332MOL0     C45735   7.480   9.129   3.970  0.1085  0.0482  0.7265
  332MOL0     C45736   7.375   9.210   3.913  0.2755  0.3767 -0.4214
  332MOL0     O45737   7.295   9.183   3.801 -0.2312 -1.0636  0.3136
  332MOL0     C45738   7.305   9.054   3.737 -0.1108  0.1415  0.2431
  332MOL0     C45739   7.206   9.042   3.622 -0.5193 -0.0077 -0.1547
  332MOL0     C45740   7.057   9.034   3.673  0.0126  0.4098  0.6914
  332MOL0     C45741   6.960   9.011   3.553  0.7670  0.6125  0.5542
  332MOL0     C45742   6.829   8.973   3.601  0.4662 -0.8925  1.6381
  332MOL0     C45743   6.719   8.944   3.646  0.4134  0.0066  0.5331
  332MOL0     C45744   7.352   9.332   3.985 -0.4916  0.0092  0.0360
  332MOL0     C45745   7.420   9.371   4.101 -0.0641  0.8629 -0.8115
  332MOL0     C45746   7.382   9.504   4.158 -0.3853 -0.2303  0.5262
  332MOL0     H45747   7.517   9.311   4.599 -0.7006  0.7824  0.4000
  332MOL0     H45748   7.644   9.399   4.810 -2.8470 -0.2753  0.7085
  332MOL0     H45749   7.798   9.455   4.942  0.8585 -0.2134  0.1222
  332MOL0     H45750   7.699   9.599   4.984 -0.8976 -1.0904 -0.5080
  332MOL0     H45751   8.007   9.573   4.982  0.3571  1.5861 -0.0969
  332MOL0     H45752   7.916   9.719   5.027 -0.0496 -0.3233 -2.3931
  332MOL0     H45753   7.791   9.583   5.180  0.0364 -0.3763  1.0826
  332MOL0     H45754   7.887   9.436   5.147  2.7188 -1.5585  2.8348
  332MOL0     H45755   8.088   9.568   5.240  0.8728  2.4728 -0.1044
  332MOL0     H45756   7.997   9.700   5.292  0.2448 -0.0116  2.6337
  332MOL0     H45757   7.936   9.414   5.377  1.8706 -0.1358 -1.4954
  332MOL0     H45758   7.857   9.555   5.446  0.7764  0.9668  0.2293
  332MOL0     H45759   8.160   9.485   5.486  0.6084 -1.5812  3.1101
  332MOL0     H45760   8.070   9.617   5.559  3.1927 -1.5568  2.9668
  332MOL0     H45761   8.010   9.311   5.579  0.1718  0.8819 -1.8032
  332MOL0     H45762   7.918   9.435   5.658  0.2621 -0.3097 -1.3163
  332MOL0     H45763   8.120   9.516   5.792  1.9687  1.0692 -1.9362
  332MOL0     H45764   8.062   9.355   5.829  0.2842 -0.0667 -0.4526
  332MOL0     H45765   8.339   9.506   5.611 -2.5038 -0.0126 -0.1408
  332MOL0     H45766   8.536   9.341   5.458 -0.2445 -0.7894 -0.0172
  332MOL0     H45767   8.530   9.177   5.515  0.2714  0.3951 -1.5470
  332MOL0     H45768   8.673   9.400   5.653 -0.5285 -0.0023 -1.9360
  332MOL0     H45769   8.656   9.229   5.721  0.8490 -3.1254 -1.3408
  332MOL0     H45770   8.781   9.135   5.578 -0.1411 -0.0969  0.6608
  332MOL0     H45771   8.793   9.278   5.469  1.2840 -0.6385  0.0856
  332MOL0     H45772   9.003   9.247   5.603 -0.7312  0.9128 -1.0626
  332MOL0     H45773   8.931   9.394   5.658 -3.0788  0.5350 -1.3630
  332MOL0     H45774   8.906   9.196   6.040  1.2840 -2.0409  1.1441
  332MOL0     H45775   8.975   9.167   6.267 -0.7171  2.0572  0.3912
  332MOL0     H45776   9.102   9.287   6.282  0.7443 -0.8734  1.8988
  332MOL0     H45777   9.145   9.115   6.288 -2.7081 -2.0138  0.0784
  332MOL0     H45778   9.545   9.028   6.266 -1.1023  1.0731  2.8560
  332MOL0     H45779   9.743   9.050   6.423  2.2215  0.9119 -1.5144
  332MOL0     H45780  10.031   9.187   6.574  1.3471  1.2152 -2.2785
  332MOL0     H45781   9.880   9.103   6.553  0.9999 -0.0456  1.5774
  332MOL0     H45782   9.976   9.003   6.331  0.8099  0.4578 -0.3650
  332MOL0     H45783  10.133   9.047   6.389  0.4304 -0.3364  2.0481
  332MOL0     H45784   9.947   8.849   6.536 -0.2399 -0.1222  0.4911
  332MOL0     H45785  10.110   8.894   6.596 -0.8716 -1.3491  0.8272
  332MOL0     H45786  10.212   8.809   6.388  0.4494  1.7952  2.0206
  332MOL0     H45787  10.047   8.764   6.317 -2.2235 -0.2154  1.7813
  332MOL0     H45788  10.172   8.657   6.564  0.8991 -2.0655  0.6680
  332MOL0     H45789  10.014   8.602   6.510  0.0826  1.2409  0.6812
  332MOL0     H45790  10.266   8.565   6.326 -1.4824  1.3072 -0.4213
  332MOL0     H45791  10.111   8.494   6.311 -1.4203  4.5971 -2.2113
  332MOL0     H45792  10.238   8.314   6.392  1.4665 -0.0092  0.7945
  332MOL0     H45793  10.145   8.381   6.529 -0.6668  1.6301  1.1456
  332MOL0     H45794  10.370   8.318   6.599 -1.4691 -0.2335 -0.8040
  332MOL0     H45795  10.332   8.497   6.596 -2.5415  0.1542 -0.6322
  332MOL0     H45796   9.847   9.423   6.225 -0.5600  0.3887 -0.7124
  332MOL0     H45797   9.676   9.401   6.086  0.0178 -1.5960  0.5215
  332MOL0     H45798   9.359   9.240   5.856 -2.0201  1.6046 -2.5664
  332MOL0     H45799   9.181   9.275   5.714  0.5556  0.3990  0.4300
  332MOL0     H45800   7.785   9.721   4.587 -0.9554  0.0334 -0.1709
  332MOL0     H45801   7.672   9.624   4.369  1.1676 -3.2659 -1.9235
  332MOL0     H45802   7.625   9.094   4.133 -1.7350 -0.5486  1.3289
  332MOL0     H45803   7.498   9.036   3.917  0.1406  0.4229  0.0663
  332MOL0     H45804   7.406   9.040   3.697  0.4143  1.6772  0.9719
  332MOL0     H45805   7.282   8.979   3.814 -1.7875 -0.5695 -0.8837
  332MOL0     H45806   7.238   8.965   3.551  0.1538 -0.2779  0.4249
  332MOL0     H45807   7.218   9.132   3.562 -0.6649  1.1750  1.5220
  332MOL0     H45808   7.050   8.950   3.743 -1.9002 -0.0887 -0.0278
  332MOL0     H45809   7.027   9.128   3.720  2.5237  1.9667 -0.5940
  332MOL0     H45810   7.000   8.950   3.472 -0.9527 -0.1188  0.2219
  332MOL0     H45811   6.947   9.108   3.504  0.6306 -0.0722 -0.8010
  332MOL0     H45812   6.619   8.928   3.680  0.8269 -4.7500  0.1183
  332MOL0     H45813   7.281   9.401   3.941 -0.2081  0.1682 -0.1735
  332MOL0     H45814   7.306   9.543   4.089 -2.6585 -0.7937  2.5508
  332MOL0     H45815   7.338   9.489   4.257 -0.0337  1.5652  0.9878
  332MOL0     H45816   7.468   9.570   4.162 -1.8541  2.0779 -2.2277
  333MOL0     O45817  10.048   9.440   7.553  0.1301 -0.4156 -0.1401
  333MOL0     C45818  10.013   9.385   7.451 -0.8494 -0.0243  0.6431
  333MOL0     O45819  10.106   9.362   7.346 -0.6405 -0.3052  0.1021
  333MOL0     C45820  10.241   9.401   7.360  0.0131 -0.4775  0.5444
  333MOL0     C45821  10.304   9.478   7.262  0.2981 -0.2625  0.2534
  333MOL0     C45822  10.435   9.514   7.266  0.0887 -0.7572  0.0822
  333MOL0     C45823  10.517   9.480   7.374  0.2298 -0.3177  1.0891
  333MOL0     O45824  10.642   9.539   7.383 -0.1499  0.0553  0.2650
  333MOL0     C45825  10.727   9.513   7.496 -0.2417 -0.8169  1.0014
  333MOL0     C45826  10.856   9.604   7.495 -0.6142  0.1106  0.5068
  333MOL0     C45827  10.827   9.753   7.467 -0.6787  0.3664  0.3419
  333MOL0     C45828  10.948   9.853   7.467  0.0065  0.1474  0.1230
  333MOL0     C45829  10.909   9.990   7.419 -0.8612 -0.6754  0.2056
  333MOL0     C45830  11.032  10.075   7.410 -0.2379  0.0651  0.2098
  333MOL0     C45831  11.078  10.143   7.541 -0.1864 -0.2089 -0.0372
  333MOL0     C45832  11.233  10.162   7.538  1.0485  0.5426 -0.2513
  333MOL0     N45833  11.267  10.249   7.659  0.1811 -0.5473  0.3519
  333MOL0     C45834  11.304  10.200   7.783 -0.1225 -0.4373  0.3983
  333MOL0     C45835  11.361  10.309   7.848  0.0865  0.5634  0.1169
  333MOL0     C45836  11.430  10.310   7.987 -0.2885 -1.9028  0.4570
  333MOL0     C45837  11.568  10.366   7.973  0.7416 -0.7014  0.7686
  333MOL0     C45838  11.681  10.281   8.027  0.3211 -0.6001 -0.2328
  333MOL0     C45839  11.748  10.356   8.147  0.1135 -1.1030 -0.5967
  333MOL0     O45840  11.818  10.467   8.101 -0.2843 -0.1962  0.1544
  333MOL0     C45841  11.824  10.584   8.169  0.1690 -0.6716 -0.1829
  333MOL0     C45842  11.701  10.651   8.207 -0.7245  0.0713  0.4516
  333MOL0     C45843  11.701  10.755   8.298 -0.4139 -0.8675  0.5984
  333MOL0     C45844  11.566  10.800   8.358 -0.1459  0.3756  0.3298
  333MOL0     C45845  11.830  10.803   8.340  0.3301 -0.8443  0.5588
  333MOL0     C45846  11.835  10.908   8.436  0.1923 -0.9050 -0.3439
  333MOL0     O45847  11.925  10.897   8.533  0.7707  0.0872  0.2757
  333MOL0     C45848  11.939  10.991   8.628 -0.5187 -0.2261 -0.7119
  333MOL0     C45849  11.840  11.010   8.729  0.4254 -0.3822  1.1981
  333MOL0     C45850  11.861  11.099   8.840 -0.0218 -0.2461 -0.0414
  333MOL0     C45851  11.981  11.167   8.856  0.8314  0.6502  0.1816
  333MOL0     O45852  11.994  11.262   8.952 -0.5962 -0.2677 -0.6188
  333MOL0     C45853  12.005  11.223   9.089  0.8470  0.6118  0.1988
  333MOL0     C45854  11.982  11.342   9.186  0.3550  0.5879  0.1900
  333MOL0     C45855  12.096  11.453   9.175 -0.2304 -0.1626  0.1065
  333MOL0     C45856  12.074  11.564   9.072 -0.1185 -0.7231  0.3716
  333MOL0     C45857  12.200  11.658   9.053 -0.4975 -0.3189 -0.3394
  333MOL0     C45858  12.242  11.734   9.179 -0.0528  0.8352  0.3220
  333MOL0     C45859  12.376  11.792   9.136  0.0928 -0.1104  0.3279
  333MOL0     C45860  12.426  11.884   9.238  0.0219  0.0473  0.2459
  333MOL0    Cl45861  12.514  11.783   9.351 -0.0331 -0.3753  0.0401
  333MOL0     C45862  12.085  11.147   8.759  0.0368 -0.5044  0.0776
  333MOL0     C45863  12.049  11.074   8.640 -0.5641  0.0436 -0.1280
  333MOL0     O45864  11.751  10.996   8.432 -0.0200  0.1747 -0.4979
  333MOL0     C45865  11.949  10.754   8.289  0.6529  0.3791 -0.1932
  333MOL0     C45866  11.941  10.641   8.205 -0.0373  0.5800  0.8284
  333MOL0     N45867  11.355  10.415   7.760  0.1509  0.2272 -0.8967
  333MOL0     N45868  11.307  10.378   7.649  0.2982 -0.3131 -0.1133
  333MOL0     C45869  10.461   9.402   7.471 -0.4929  0.6119 -0.2844
  333MOL0     C45870  10.325   9.358   7.467  0.7166 -0.3457 -0.5239
  333MOL0     C45871   9.878   9.334   7.437 -0.2811  0.7392 -0.6067
  333MOL0     C45872   9.841   9.290   7.308  0.6514  0.8145  0.0680
  333MOL0     C45873   9.707   9.254   7.286 -1.2720 -0.3476  1.2041
  333MOL0     C45874   9.619   9.254   7.395 -0.2281  0.0014  0.2967
  333MOL0     O45875   9.480   9.222   7.382 -0.3466  1.0564 -0.1057
  333MOL0     C45876   9.412   9.235   7.254 -0.3968 -0.0753 -0.1879
  333MOL0     C45877   9.262   9.212   7.283 -0.3130  0.0881 -0.3459
  333MOL0     C45878   9.221   9.062   7.297  0.2855 -0.1124  0.5399
  333MOL0     C45879   9.085   9.048   7.228  0.0134 -0.5460  0.0985
  333MOL0     C45880   9.097   9.037   7.084  0.4791  0.0194  0.3117
  333MOL0     C45881   9.115   9.051   6.961 -0.2795  0.5037 -0.7797
  333MOL0     C45882   9.656   9.285   7.528  1.1022 -0.0123  0.5603
  333MOL0     C45883   9.786   9.326   7.551 -0.1491  0.0735  0.0095
  333MOL0     C45884   9.830   9.355   7.695  0.0296 -1.2233 -0.2541
  333MOL0     H45885  10.240   9.509   7.180  0.4746 -0.0015  0.2157
  333MOL0     H45886  10.475   9.577   7.188  0.3058 -1.2464 -0.2102
  333MOL0     H45887  10.764   9.410   7.494 -0.1483 -0.7763  0.6055
  333MOL0     H45888  10.667   9.533   7.585 -0.3230  1.7741  0.4384
  333MOL0     H45889  10.908   9.601   7.591 -1.7518  0.1505  1.1316
  333MOL0     H45890  10.923   9.563   7.418 -1.8184 -2.2662  0.6679
  333MOL0     H45891  10.768   9.745   7.375  0.7826 -1.6191 -0.4926
  333MOL0     H45892  10.755   9.789   7.540 -0.8015 -1.2925  1.0913
  333MOL0     H45893  10.996   9.875   7.563  1.1221  1.9984 -0.8060
  333MOL0     H45894  11.024   9.817   7.397 -0.0955  0.9139 -0.4034
  333MOL0     H45895  10.834  10.042   7.479  1.4500  1.0757  1.7608
  333MOL0     H45896  10.875   9.986   7.315  0.3164  1.2545 -0.3167
  333MOL0     H45897  11.120  10.026   7.366 -0.5813 -0.4138  0.0517
  333MOL0     H45898  11.011  10.150   7.333 -0.5987  0.4297  0.6614
  333MOL0     H45899  11.042  10.075   7.619 -0.9837 -1.8268 -1.7083
  333MOL0     H45900  11.025  10.238   7.549 -0.0654 -0.2340  1.1723
  333MOL0     H45901  11.272  10.063   7.563  2.3578  1.5930  2.2828
  333MOL0     H45902  11.269  10.210   7.447  0.6120  2.1439  0.3935
  333MOL0     H45903  11.290  10.100   7.824 -0.1144 -0.1413  1.1383
  333MOL0     H45904  11.426  10.209   8.028  1.5759 -3.0369 -1.9108
  333MOL0     H45905  11.373  10.371   8.057 -0.9992  1.0765 -2.4602
  333MOL0     H45906  11.595  10.385   7.868  0.2221 -1.8396  0.4096
  333MOL0     H45907  11.552  10.461   8.023 -0.6247  1.7955 -3.7841
  333MOL0     H45908  11.635  10.192   8.072  0.8728 -0.7746 -0.0107
  333MOL0     H45909  11.758  10.254   7.954  0.5819  2.3509 -1.1678
  333MOL0     H45910  11.680  10.377   8.230  0.4852 -1.5351 -0.1720
  333MOL0     H45911  11.816  10.281   8.189 -1.8920 -4.7258 -3.1821
  333MOL0     H45912  11.600  10.618   8.181 -2.5383  1.9533  4.3185
  333MOL0     H45913  11.482  10.739   8.322 -0.7571  2.1236 -1.3889
  333MOL0     H45914  11.543  10.902   8.325 -1.8691  0.8405  2.6715
  333MOL0     H45915  11.573  10.798   8.467  1.9602 -1.1665  0.2204
  333MOL0     H45916  11.750  10.950   8.719  0.7565 -0.4710 -3.0254
  333MOL0     H45917  11.781  11.130   8.905  1.3829  0.6244  1.3319
  333MOL0     H45918  11.927  11.152   9.120  0.7098  0.9310  0.5850
  333MOL0     H45919  12.099  11.175   9.117  0.8954 -0.6149 -1.8179
  333MOL0     H45920  11.885  11.389   9.165  0.7384  1.2303 -0.1453
  333MOL0     H45921  11.974  11.305   9.289  0.3316 -4.6066 -1.3733
  333MOL0     H45922  12.187  11.397   9.153 -0.7840 -0.9316 -0.2833
  333MOL0     H45923  12.097  11.510   9.268 -0.9134 -1.4023  0.9036
  333MOL0     H45924  11.999  11.635   9.107  0.8246  1.5339 -1.9178
  333MOL0     H45925  12.037  11.521   8.979 -0.1797  0.7168 -0.2918
  333MOL0     H45926  12.285  11.596   9.023 -1.7303 -1.8574 -0.8230
  333MOL0     H45927  12.178  11.732   8.976  0.6978 -1.3987 -1.7674
  333MOL0     H45928  12.251  11.665   9.263 -1.6381  1.3980  0.9815
  333MOL0     H45929  12.165  11.810   9.192 -1.2722  0.1691 -2.3250
  333MOL0     H45930  12.362  11.846   9.042  0.0822  0.6491  0.7575
  333MOL0     H45931  12.448  11.712   9.114  0.0466  0.3557 -1.7233
  333MOL0     H45932  12.342  11.935   9.286  0.8692  1.4619  0.2872
  333MOL0     H45933  12.487  11.963   9.193 -0.4151 -0.1461 -0.7022
  333MOL0     H45934  12.177  11.202   8.776  0.7252 -1.0387 -1.6757
  333MOL0     H45935  12.121  11.075   8.559  0.8998  3.0054  1.0634
  333MOL0     H45936  12.047  10.800   8.298  1.0824 -0.2133 -1.5454
  333MOL0     H45937  12.036  10.600   8.172 -0.5669  1.5788 -2.1547
  333MOL0     H45938  10.522   9.371   7.555  0.2242  2.7555  0.0477
  333MOL0     H45939  10.288   9.289   7.542 -1.8556 -1.6939 -2.8019
  333MOL0     H45940   9.911   9.291   7.225  1.7532 -2.4732  0.7855
  333MOL0     H45941   9.664   9.235   7.188 -1.9957  0.5454  1.3254
  333MOL0     H45942   9.429   9.338   7.219 -0.0500 -0.5904 -1.6204
  333MOL0     H45943   9.444   9.153   7.188 -0.0961  0.5737 -0.8684
  333MOL0     H45944   9.210   9.265   7.202 -0.7252  0.1790 -0.0273
  333MOL0     H45945   9.232   9.271   7.370  1.2086 -1.6802  1.4781
  333MOL0     H45946   9.296   8.992   7.259  0.1668 -0.2055  0.4766
  333MOL0     H45947   9.210   9.047   7.405 -2.0908  1.0945  0.5231
  333MOL0     H45948   9.026   9.136   7.255  0.4988  0.3041 -1.4735
  333MOL0     H45949   9.037   8.961   7.274  0.9497  0.0644  2.3629
  333MOL0     H45950   9.145   9.053   6.858  0.3529 -1.4175 -0.6645
  333MOL0     H45951   9.583   9.278   7.608  0.4330  1.5426  0.1112
  333MOL0     H45952   9.865   9.459   7.699  3.4884 -2.2951  0.5275
  333MOL0     H45953   9.748   9.337   7.765  0.0870 -1.4360 -0.2388
  333MOL0     H45954   9.916   9.292   7.720  1.9194  1.3578  0.1663
  334MOL0     O45955   7.151   0.431  10.262  0.8574  0.0632  0.4353
  334MOL0     C45956   7.162   0.313  10.249  0.1964  0.3736  1.0229
  334MOL0     O45957   7.264   0.242  10.305 -0.8131  0.0063  0.2616
  334MOL0     C45958   7.391   0.281  10.282 -0.3143 -0.3515  0.5112
  334MOL0     C45959   7.488   0.218  10.361  0.3682  0.1162  0.2844
  334MOL0     C45960   7.619   0.263  10.339 -0.0450  0.8221  0.5749
  334MOL0     C45961   7.667   0.354  10.230  0.3223 -0.0355 -0.7075
  334MOL0     O45962   7.796   0.378  10.203  0.1519 -0.2947 -0.4947
  334MOL0     C45963   7.892   0.304  10.280  0.0352 -0.5869 -0.0726
  334MOL0     C45964   8.023   0.357  10.221 -0.6317 -0.2779  0.0058
  334MOL0     C45965   8.152   0.330  10.308  0.1085 -0.6694  0.4375
  334MOL0     C45966   8.271   0.387  10.224  0.4040 -0.5104  0.2106
  334MOL0     C45967   8.403   0.368  10.299  0.7394  0.2336  0.0425
  334MOL0     C45968   8.497   0.478  10.256  0.6751 -0.3653 -0.4843
  334MOL0     C45969   8.644   0.449  10.308 -0.6658  0.4123  0.0256
  334MOL0     C45970   8.662   0.470  10.452 -0.1822 -0.0973  0.1206
  334MOL0     N45971   8.805   0.474  10.482  1.7637  0.6475 -0.3007
  334MOL0     C45972   8.882   0.588  10.471  0.3469  0.5932  0.9550
  334MOL0     C45973   9.003   0.532  10.504  0.5507  0.4541 -0.2669
  334MOL0     C45974   9.126   0.609  10.520  1.0823 -0.5514 -1.0944
  334MOL0     C45975   9.203   0.623  10.387 -0.2765 -0.3128 -1.3582
  334MOL0     C45976   9.336   0.692  10.414  0.4592  0.5811  0.6804
  334MOL0     C45977   9.412   0.708  10.281 -0.4204 -0.1109 -0.0056
  334MOL0     O45978   9.468   0.585  10.232  0.2661 -0.6430  0.7569
  334MOL0     C45979   9.553   0.594  10.130 -1.1772  0.1266  0.1628
  334MOL0     C45980   9.581   0.710  10.049  1.6495  0.1293  0.2967
  334MOL0     C45981   9.692   0.716   9.960  0.7364 -0.0704 -0.4379
  334MOL0     C45982   9.742   0.841   9.911 -0.0120 -1.4295 -0.1114
  334MOL0     C45983   9.753   0.595   9.927 -0.5990  0.4792 -0.1469
  334MOL0     C45984   9.841   0.581   9.812 -0.7315  0.8100 -0.3019
  334MOL0     O45985   9.941   0.493   9.829  0.0901  0.4528 -0.1409
  334MOL0     C45986  10.050   0.475   9.745 -0.6623 -0.2291  0.8410
  334MOL0     C45987  10.093   0.344   9.727  0.1335  0.3538 -0.1395
  334MOL0     C45988  10.188   0.313   9.634 -0.3407 -0.3809  0.3295
  334MOL0     C45989  10.241   0.416   9.551 -0.0405 -0.3504 -0.9249
  334MOL0     O45990  10.342   0.404   9.464 -0.0667  0.7025  0.0828
  334MOL0     C45991  10.377   0.268   9.433  0.2769  0.2906  0.8511
  334MOL0     C45992  10.500   0.267   9.341  0.3400  0.6726  0.0688
  334MOL0     C45993  10.534   0.120   9.320  0.1616  1.1515  0.3754
  334MOL0     C45994  10.653   0.101   9.215  1.2631  0.4416 -0.6911
  334MOL0     C45995  10.793   0.119   9.279 -0.2648  0.0554 -0.6366
  334MOL0     C45996  10.901   0.097   9.171  0.4706 -0.3002  0.7946
  334MOL0     C45997  11.050   0.133   9.225  0.1437 -0.2163  0.2031
  334MOL0     C45998  11.116   0.010   9.311  0.8492 -0.4438  0.2101
  334MOL0    Cl45999  11.080  -0.149   9.232 -0.2149  0.4942 -0.0211
  334MOL0     C46000  10.202   0.549   9.584 -1.0478 -0.5945 -0.8214
  334MOL0     C46001  10.112   0.575   9.682  0.8669  0.8185  0.6673
  334MOL0     O46002   9.824   0.640   9.713  0.5078 -0.6796 -0.1841
  334MOL0     C46003   9.732   0.475  10.002 -0.5275  0.0095  0.7887
  334MOL0     C46004   9.640   0.482  10.103 -0.6436  0.4511 -0.6781
  334MOL0     N46005   8.990   0.397  10.523 -0.2508 -0.1539  0.1771
  334MOL0     N46006   8.868   0.360  10.518 -0.0165 -0.4311 -0.4047
  334MOL0     C46007   7.567   0.403  10.150  0.2795 -0.6949 -0.7498
  334MOL0     C46008   7.434   0.363  10.172  0.5247 -0.2588  0.4938
  334MOL0     C46009   7.052   0.232  10.200 -0.0196  0.6129 -0.0691
  334MOL0     C46010   7.009   0.115  10.267 -0.2256  0.1292 -0.1116
  334MOL0     C46011   6.909   0.042  10.207  0.0460 -0.2389 -0.5339
  334MOL0     C46012   6.845   0.080  10.093 -0.0716  0.4031  0.2086
  334MOL0     O46013   6.741   0.017  10.030  0.3549  0.1367  0.7262
  334MOL0     C46014   6.677  -0.097  10.088  0.7760  0.0362  0.2398
  334MOL0     C46015   6.527  -0.102  10.064  1.0528  0.0724 -0.4040
  334MOL0     C46016   6.497  -0.115   9.910  0.5450  0.6179  0.3894
  334MOL0     C46017   6.356  -0.069   9.865  0.2282  0.3982  0.7937
  334MOL0     C46018   6.291  -0.157   9.766 -0.3836  0.1792 -0.5289
  334MOL0     C46019   6.243  -0.210   9.672 -0.8295  0.9802 -0.2771
  334MOL0     C46020   6.905   0.184  10.013 -0.7048 -0.3493 -0.2193
  334MOL0     C46021   7.002   0.266  10.070 -0.0185 -0.2050  0.3242
  334MOL0     C46022   7.054   0.374   9.973  1.2558  0.1891  0.1586
  334MOL0     H46023   7.467   0.147  10.440  0.8859  0.9549  1.1970
  334MOL0     H46024   7.700   0.222  10.400  1.3911 -0.4638 -2.0251
  334MOL0     H46025   7.885   0.197  10.259  0.9123 -0.6334 -0.1784
  334MOL0     H46026   7.886   0.334  10.385 -2.4550  3.6667 -1.2187
  334MOL0     H46027   8.036   0.314  10.121  1.8586  1.1347 -0.3619
  334MOL0     H46028   8.013   0.466  10.211 -1.4889 -0.5191 -2.3679
  334MOL0     H46029   8.140   0.391  10.398 -0.4038  1.1513 -0.8189
  334MOL0     H46030   8.164   0.222  10.327 -1.3351 -1.5485 -2.8968
  334MOL0     H46031   8.275   0.335  10.128  1.3643 -0.8283  0.4086
  334MOL0     H46032   8.255   0.490  10.192  1.4360 -1.2786 -3.1215
  334MOL0     H46033   8.436   0.271  10.260 -2.2372 -2.0210  2.5116
  334MOL0     H46034   8.387   0.369  10.408 -2.0782  2.2467 -0.2775
  334MOL0     H46035   8.488   0.495  10.148 -0.0005  0.1279 -0.3594
  334MOL0     H46036   8.456   0.571  10.298  0.1106  0.9863 -3.7090
  334MOL0     H46037   8.711   0.516  10.254 -0.3791 -0.4337 -0.6981
  334MOL0     H46038   8.682   0.351  10.278 -0.2591  0.5747  0.0020
  334MOL0     H46039   8.620   0.567  10.479  1.1558  1.6538 -3.4686
  334MOL0     H46040   8.617   0.386  10.507 -0.9137 -0.6422 -1.2733
  334MOL0     H46041   8.852   0.691  10.451 -3.6762 -0.0315  2.7836
  334MOL0     H46042   9.176   0.564  10.606 -0.0673 -1.6469 -0.9554
  334MOL0     H46043   9.097   0.707  10.558  1.8614 -0.8732  0.4292
  334MOL0     H46044   9.222   0.520  10.355  1.9175 -0.5604  0.5442
  334MOL0     H46045   9.153   0.670  10.301  1.6871 -0.7462 -2.8035
  334MOL0     H46046   9.313   0.790  10.457  2.8010  1.6414 -0.3459
  334MOL0     H46047   9.393   0.634  10.488  0.2368 -2.1857 -1.1692
  334MOL0     H46048   9.343   0.738  10.202  0.7496 -1.2276 -1.5122
  334MOL0     H46049   9.491   0.781  10.300  3.2413 -3.5523 -0.6983
  334MOL0     H46050   9.523   0.800  10.064  0.4726 -0.5045 -0.2785
  334MOL0     H46051   9.852   0.839   9.911  0.1248  0.7257 -2.0416
  334MOL0     H46052   9.710   0.913   9.987 -1.0598 -2.0868  0.0798
  334MOL0     H46053   9.702   0.881   9.817  2.3353  1.1605 -0.1607
  334MOL0     H46054  10.041   0.271   9.788  2.8952 -0.2706  1.6509
  334MOL0     H46055  10.199   0.206   9.616 -0.9144 -0.3152 -0.4811
  334MOL0     H46056  10.389   0.203   9.520  0.5054 -0.6193  0.1566
  334MOL0     H46057  10.292   0.232   9.374  2.9937  0.0921 -3.4374
  334MOL0     H46058  10.491   0.323   9.248  1.5075 -1.0813 -1.1606
  334MOL0     H46059  10.582   0.313   9.397  0.8286 -0.2421  0.1182
  334MOL0     H46060  10.448   0.068   9.277  1.5065  0.3637 -1.5333
  334MOL0     H46061  10.560   0.072   9.415 -0.0766  3.1631  1.4964
  334MOL0     H46062  10.624   0.175   9.139 -1.2592  1.5355  1.1710
  334MOL0     H46063  10.633   0.013   9.153 -2.9126 -1.4155  2.7742
  334MOL0     H46064  10.810   0.214   9.330 -1.9347 -1.7213  3.7335
  334MOL0     H46065  10.808   0.045   9.358 -2.5794 -0.0722 -0.2342
  334MOL0     H46066  10.879   0.156   9.082 -0.3642  2.0647  2.4710
  334MOL0     H46067  10.897  -0.009   9.143 -1.8617  0.2157 -1.0969
  334MOL0     H46068  11.049   0.223   9.288  0.5018  0.0688 -0.1879
  334MOL0     H46069  11.113   0.156   9.138 -0.1420 -0.6376 -0.1172
  334MOL0     H46070  11.072   0.015   9.411 -0.5280 -1.7393 -0.2793
  334MOL0     H46071  11.225   0.017   9.309  0.8440 -0.3738 -1.0015
  334MOL0     H46072  10.262   0.629   9.541  1.8078 -0.1499  3.3146
  334MOL0     H46073  10.077   0.677   9.691 -1.8805 -0.1221  1.7799
  334MOL0     H46074   9.776   0.378   9.982 -1.6123 -0.6727  1.5291
  334MOL0     H46075   9.610   0.396  10.162  3.0935  0.4512  1.5660
  334MOL0     H46076   7.590   0.468  10.066 -3.2307 -0.0536 -1.3739
  334MOL0     H46077   7.368   0.406  10.098  0.5466  0.0490  0.6499
  334MOL0     H46078   7.044   0.090  10.366  1.9669 -0.7711 -1.0369
  334MOL0     H46079   6.876  -0.042  10.267  0.4866 -1.7604 -2.3326
  334MOL0     H46080   6.725  -0.186  10.046 -0.5818  0.1402 -1.6298
  334MOL0     H46081   6.693  -0.100  10.197  0.6164 -0.0838  0.2613
  334MOL0     H46082   6.485  -0.007  10.097 -0.8373 -0.2961 -1.6053
  334MOL0     H46083   6.478  -0.180  10.123  1.7951  0.0186  0.1501
  334MOL0     H46084   6.562  -0.055   9.846 -2.0629 -0.1086 -3.3250
  334MOL0     H46085   6.510  -0.218   9.873  3.0011  0.2040  2.1730
  334MOL0     H46086   6.361   0.034   9.829 -1.9583  1.4297  3.1410
  334MOL0     H46087   6.284  -0.059   9.946 -1.9062  0.7780 -1.0393
  334MOL0     H46088   6.199  -0.265   9.591 -1.0612  0.3350  0.2711
  334MOL0     H46089   6.854   0.211   9.921 -0.3636  2.5021  0.3353
  334MOL0     H46090   7.128   0.320   9.912  0.8440 -0.4575  0.2219
  334MOL0     H46091   6.973   0.409   9.908  0.9147 -0.8949 -0.0224
  334MOL0     H46092   7.095   0.460  10.026  2.5227 -0.1300 -0.2759
  335MOL0     O46093   6.552   4.643  11.353  0.1746 -0.0938  0.4493
  335MOL0     C46094   6.506   4.597  11.244 -0.8712 -0.9208 -0.4008
  335MOL0     O46095   6.571   4.519  11.158 -0.6182  0.3368 -0.3259
  335MOL0     C46096   6.697   4.475  11.186  0.0258 -0.5989  1.3885
  335MOL0     C46097   6.706   4.343  11.241 -0.9993 -0.2171  0.4339
  335MOL0     C46098   6.836   4.279  11.247  0.5782  0.3335 -1.2952
  335MOL0     C46099   6.957   4.346  11.214  0.3447  0.1739 -0.1533
  335MOL0     O46100   7.082   4.287  11.220  0.6345 -0.1939  0.7065
  335MOL0     C46101   7.095   4.149  11.243 -0.4144 -0.1344 -0.0171
  335MOL0     C46102   7.054   4.055  11.131  0.5247  1.3472 -0.7048
  335MOL0     C46103   7.161   4.052  11.024 -0.8234  0.0852  0.6042
  335MOL0     C46104   7.143   3.937  10.922 -0.7155 -0.4028  0.3534
  335MOL0     C46105   7.273   3.917  10.834 -0.1666 -0.9116  1.2907
  335MOL0     C46106   7.318   4.040  10.752  0.2419 -0.1133  0.4799
  335MOL0     C46107   7.449   4.014  10.669  0.8751 -0.1313  0.5675
  335MOL0     C46108   7.424   3.935  10.535  0.4590 -0.5444 -1.8348
  335MOL0     N46109   7.536   3.848  10.494  0.1895  0.1442  0.2457
  335MOL0     C46110   7.649   3.888  10.437  0.6137 -0.7495  0.3466
  335MOL0     C46111   7.739   3.796  10.448 -0.1370 -0.6615  0.4733
  335MOL0     C46112   7.875   3.806  10.388  0.1145 -0.1986  0.5738
  335MOL0     C46113   7.979   3.846  10.488 -0.2287  0.0572 -0.0582
  335MOL0     C46114   8.098   3.906  10.417 -0.2565 -0.8220  0.0862
  335MOL0     C46115   8.228   3.935  10.497 -0.0807 -0.0236 -0.3328
  335MOL0     O46116   8.271   3.818  10.570 -0.2460 -0.8578 -0.3053
  335MOL0     C46117   8.393   3.813  10.637 -0.1753  0.3211 -0.7208
  335MOL0     C46118   8.442   3.705  10.711  0.5724 -0.0867 -0.0992
  335MOL0     C46119   8.571   3.708  10.760 -0.1437  0.5747 -0.2004
  335MOL0     C46120   8.615   3.576  10.833  0.1839 -0.5163  0.4794
  335MOL0     C46121   8.654   3.825  10.752 -0.2455 -0.5993 -0.1110
  335MOL0     C46122   8.789   3.837  10.816  0.6932  0.1594 -0.8688
  335MOL0     O46123   8.861   3.948  10.785  0.0246  0.5478  0.7628
  335MOL0     C46124   8.982   3.967  10.840 -0.1132  0.3506  0.4580
  335MOL0     C46125   9.005   3.945  10.973  0.0490 -0.2460 -1.0023
  335MOL0     C46126   9.131   3.964  11.034  0.0180 -0.2951 -1.0620
  335MOL0     C46127   9.235   4.016  10.957  0.2551  0.2290  0.4785
  335MOL0     O46128   9.361   4.031  11.000  0.0395 -0.9629 -0.0420
  335MOL0     C46129   9.395   4.028  11.138  0.0532 -0.1041  1.0124
  335MOL0     C46130   9.542   4.072  11.157 -0.8430  0.2825 -0.2458
  335MOL0     C46131   9.595   4.068  11.305  0.1888 -0.3515 -0.6162
  335MOL0     C46132   9.689   3.945  11.334  0.9267  0.1574 -0.3953
  335MOL0     C46133   9.734   3.961  11.482 -0.1756 -0.2443  0.1844
  335MOL0     C46134   9.814   3.833  11.522  0.0186 -0.5492 -0.3331
  335MOL0     C46135   9.738   3.704  11.532  0.2042 -0.7033 -0.6816
  335MOL0     C46136   9.780   3.627  11.662  0.3250  0.1070 -0.4575
  335MOL0    Cl46137   9.960   3.600  11.671 -0.8567  0.1040  0.5182
  335MOL0     C46138   9.207   4.039  10.817  0.1484  0.1808 -0.0100
  335MOL0     C46139   9.082   4.012  10.765 -0.2884 -1.0921 -0.0341
  335MOL0     O46140   8.826   3.748  10.891 -0.6139  1.0423 -0.5379
  335MOL0     C46141   8.605   3.930  10.681  0.3212 -0.1593 -0.6588
  335MOL0     C46142   8.473   3.927  10.624 -1.0613 -0.1802 -0.3288
  335MOL0     N46143   7.674   3.688  10.498 -0.7681  0.1924  0.6308
  335MOL0     N46144   7.554   3.714  10.519  0.1260  0.3984 -0.3637
  335MOL0     C46145   6.939   4.478  11.166 -0.8871  0.4999 -0.2868
  335MOL0     C46146   6.811   4.540  11.137 -0.8223  0.0395 -0.5051
  335MOL0     C46147   6.374   4.646  11.213 -0.2768 -0.0173  0.2148
  335MOL0     C46148   6.343   4.681  11.073  0.2746  0.1322  0.7020
  335MOL0     C46149   6.223   4.738  11.032 -0.2694  0.3110 -0.5628
  335MOL0     C46150   6.124   4.754  11.128 -0.1186  0.0838  0.3456
  335MOL0     O46151   5.988   4.767  11.093 -0.0651 -0.0862 -0.7298
  335MOL0     C46152   5.951   4.886  11.024 -0.5556 -0.4110 -0.0072
  335MOL0     C46153   5.988   5.014  11.097 -0.5319 -0.1672  0.6042
  335MOL0     C46154   5.908   5.134  11.034 -0.5367  0.1991 -0.5458
  335MOL0     C46155   5.914   5.279  11.085  0.4288  0.4420 -0.6085
  335MOL0     C46156   5.783   5.349  11.058 -0.7878  0.5545 -0.6014
  335MOL0     C46157   5.678   5.398  11.028  0.9236 -0.5083  0.2231
  335MOL0     C46158   6.149   4.726  11.259  0.5202  0.2242 -0.0986
  335MOL0     C46159   6.273   4.670  11.306 -0.5487 -0.7211 -0.3276
  335MOL0     C46160   6.279   4.623  11.449 -0.2045  0.4763  0.5654
  335MOL0     H46161   6.614   4.295  11.272  0.2073 -0.4982  4.1178
  335MOL0     H46162   6.840   4.176  11.279  2.4686  0.6081 -0.5615
  335MOL0     H46163   7.056   4.110  11.338  3.0099 -1.5542  0.9786
  335MOL0     H46164   7.204   4.137  11.253 -0.4882 -0.4071  0.4985
  335MOL0     H46165   7.046   3.954  11.174 -2.4460  0.5415 -2.8753
  335MOL0     H46166   6.961   4.092  11.088  0.5238  3.7680  1.1582
  335MOL0     H46167   7.180   4.146  10.971  1.0047  0.5535  1.9797
  335MOL0     H46168   7.255   4.038  11.078 -0.3504  3.7114  0.9913
  335MOL0     H46169   7.123   3.840  10.968 -1.5791  0.4728  1.8902
  335MOL0     H46170   7.070   3.971  10.848  0.3480  0.6147 -0.2687
  335MOL0     H46171   7.250   3.833  10.768 -0.5112  0.5522 -0.5498
  335MOL0     H46172   7.357   3.883  10.894  0.4357 -2.8519 -0.5186
  335MOL0     H46173   7.239   4.065  10.681 -0.2169  1.5984  1.5319
  335MOL0     H46174   7.312   4.134  10.807 -0.6871 -0.0138  0.2263
  335MOL0     H46175   7.535   3.967  10.717  2.3164  2.1484  0.3728
  335MOL0     H46176   7.474   4.116  10.637 -1.5992  0.4928  0.4395
  335MOL0     H46177   7.332   3.877  10.546  0.3030 -0.1936 -1.2494
  335MOL0     H46178   7.400   4.010  10.459 -0.6196 -0.0084 -0.9883
  335MOL0     H46179   7.683   3.985  10.399 -0.1680 -1.1663 -1.5194
  335MOL0     H46180   7.874   3.885  10.312  0.2087 -0.6391  0.1037
  335MOL0     H46181   7.900   3.711  10.339  0.4460  0.8561 -1.3988
  335MOL0     H46182   7.945   3.926  10.554 -2.1050 -0.9184  0.2328
  335MOL0     H46183   8.012   3.757  10.543  0.1452 -1.5099 -2.6908
  335MOL0     H46184   8.119   3.828  10.343  0.2512  0.6877 -1.4375
  335MOL0     H46185   8.066   3.998  10.366 -0.5956 -0.0985  1.5641
  335MOL0     H46186   8.303   3.978  10.430 -0.6168  2.7687  0.7441
  335MOL0     H46187   8.194   4.013  10.565 -1.9290 -1.8889  1.0039
  335MOL0     H46188   8.384   3.616  10.736  0.3858 -0.6157 -2.2164
  335MOL0     H46189   8.539   3.498  10.825  1.1010 -1.3737 -0.1591
  335MOL0     H46190   8.618   3.602  10.940 -0.1986  1.7009  0.0068
  335MOL0     H46191   8.707   3.528  10.799 -0.5179 -1.2529 -0.4126
  335MOL0     H46192   8.923   3.914  11.038  0.3815  0.4791 -0.2200
  335MOL0     H46193   9.150   3.946  11.139 -0.2688 -1.1253 -1.1404
  335MOL0     H46194   9.317   4.092  11.183 -3.5147 -2.2103 -1.6456
  335MOL0     H46195   9.387   3.921  11.162  1.4057 -0.4620 -0.0309
  335MOL0     H46196   9.614   4.014  11.098  1.2782  3.0654 -0.5748
  335MOL0     H46197   9.554   4.174  11.119  1.7775  1.3127  2.8464
  335MOL0     H46198   9.509   4.061  11.373  1.0487 -2.1197  0.3583
  335MOL0     H46199   9.652   4.158  11.329  0.6024 -1.3317  2.5412
  335MOL0     H46200   9.770   3.953  11.262 -0.8339 -0.2176 -2.5192
  335MOL0     H46201   9.641   3.847  11.323  0.5380  0.2201  0.6198
  335MOL0     H46202   9.800   4.049  11.485 -2.0981  1.4433 -2.3266
  335MOL0     H46203   9.644   3.971  11.544 -1.0884 -0.4462 -1.0760
  335MOL0     H46204   9.870   3.859  11.611  2.2943  0.3874 -1.9469
  335MOL0     H46205   9.893   3.816  11.448  1.6928  1.6412  0.8597
  335MOL0     H46206   9.763   3.634  11.452 -0.1805 -0.6439 -0.8565
  335MOL0     H46207   9.630   3.723  11.528  0.6156  1.9624 -1.1874
  335MOL0     H46208   9.730   3.532  11.684  1.3176 -0.1417  0.8481
  335MOL0     H46209   9.754   3.679  11.755 -2.2134 -1.6259 -0.0897
  335MOL0     H46210   9.287   4.055  10.745 -0.0193 -0.4783 -0.3538
  335MOL0     H46211   9.049   4.026  10.663  1.9042  1.3332 -0.5214
  335MOL0     H46212   8.670   4.014  10.663  0.7131 -0.4269 -0.4990
  335MOL0     H46213   8.448   4.019  10.572 -1.3851 -1.0383 -1.7440
  335MOL0     H46214   7.027   4.527  11.127  1.2358 -0.7444  2.6161
  335MOL0     H46215   6.807   4.642  11.100 -2.0741 -0.1545 -0.9506
  335MOL0     H46216   6.430   4.663  11.011 -1.1247  2.4037 -2.1436
  335MOL0     H46217   6.198   4.750  10.927 -2.2435 -3.3566 -0.6813
  335MOL0     H46218   6.002   4.904  10.929 -1.3295  0.1673 -0.3259
  335MOL0     H46219   5.844   4.876  11.004 -1.0861 -2.6629  3.1661
  335MOL0     H46220   6.094   5.030  11.077 -0.8605 -0.2859 -1.4719
  335MOL0     H46221   5.970   5.012  11.205 -2.4827  0.2849  0.3369
  335MOL0     H46222   5.927   5.142  10.927 -0.5001 -2.7054 -0.8223
  335MOL0     H46223   5.804   5.098  11.038 -0.1435 -1.0765 -1.1254
  335MOL0     H46224   5.996   5.331  11.034  4.3816 -3.5468  1.0480
  335MOL0     H46225   5.931   5.281  11.193  2.7909 -1.8281 -0.8245
  335MOL0     H46226   5.578   5.436  11.024  0.7211 -0.6685  2.4944
  335MOL0     H46227   6.072   4.739  11.334  2.6691  2.5977  1.8347
  335MOL0     H46228   6.362   4.557  11.474  0.7900  1.7206  0.6791
  335MOL0     H46229   6.296   4.713  11.509  1.4074 -0.9770  2.4160
  335MOL0     H46230   6.188   4.569  11.472 -0.4614  1.0281  0.8674
  336MOL0     O46231   9.192  11.396   6.322  0.1116  0.8148  0.4388
  336MOL0     C46232   9.141  11.433   6.426  1.3648  0.3846 -0.5744
  336MOL0     O46233   9.186  11.527   6.509  0.0482 -0.4003 -0.4226
  336MOL0     C46234   9.310  11.590   6.508 -0.6571 -0.2783 -0.1599
  336MOL0     C46235   9.309  11.712   6.578  0.1511 -0.5787  0.5123
  336MOL0     C46236   9.428  11.779   6.592 -0.0877  0.1058  0.1294
  336MOL0     C46237   9.546  11.714   6.548  0.1047 -0.4046 -0.6576
  336MOL0     O46238   9.668  11.781   6.563 -0.3964  0.6074  0.5524
  336MOL0     C46239   9.665  11.922   6.559 -0.8651 -0.4260 -0.3734
  336MOL0     C46240   9.806  11.978   6.540 -0.2030 -0.0590 -0.7895
  336MOL0     C46241   9.894  11.913   6.646  0.2551 -0.9594 -0.3967
  336MOL0     C46242  10.029  11.992   6.658  0.2892 -0.9510  0.4407
  336MOL0     C46243  10.142  11.901   6.703 -0.0807  0.7908  0.1367
  336MOL0     C46244  10.276  11.976   6.730  0.4603  0.0498 -0.3621
  336MOL0     C46245  10.383  11.885   6.790 -0.3375  0.7478  0.5928
  336MOL0     C46246  10.493  11.976   6.863 -0.4001  0.5645  0.8360
  336MOL0     N46247  10.573  12.043   6.765 -0.5424  0.1657 -0.4600
  336MOL0     C46248  10.554  12.178   6.735 -0.1381  0.3615 -0.3812
  336MOL0     C46249  10.657  12.206   6.647 -0.0694  0.2500 -0.3883
  336MOL0     C46250  10.695  12.350   6.602 -0.3180 -0.0049 -0.1924
  336MOL0     C46251  10.838  12.397   6.633 -0.1759 -0.0075  0.7730
  336MOL0     C46252  10.844  12.512   6.742  0.4849  0.3876  0.9023
  336MOL0     C46253  10.758  12.479   6.867  0.7413  0.0517  0.7894
  336MOL0     O46254  10.775  12.565   6.973  0.0134 -0.1193 -1.2326
  336MOL0     C46255  10.713  12.689   6.976  0.2077 -0.5067 -0.0891
  336MOL0     C46256  10.790  12.794   7.017  1.1723 -1.0178 -0.5065
  336MOL0     C46257  10.742  12.921   7.037  0.2525 -0.0538 -0.6415
  336MOL0     C46258  10.841  13.013   7.092 -0.1139  0.4779  0.4318
  336MOL0     C46259  10.604  12.947   7.006 -1.0739  0.4492  0.1638
  336MOL0     C46260  10.549  13.079   7.030 -0.6824  0.1155 -0.4526
  336MOL0     O46261  10.444  13.105   6.948 -0.1194 -0.2728 -0.4564
  336MOL0     C46262  10.354  13.205   6.977  0.3259  0.0084  0.3829
  336MOL0     C46263  10.280  13.185   7.089 -0.0024 -0.1293 -0.8083
  336MOL0     C46264  10.179  13.270   7.130  0.7417  0.2227  0.0725
  336MOL0     C46265  10.141  13.375   7.045  0.1686  0.1746  0.4311
  336MOL0     O46266  10.037  13.455   7.086  0.2822  0.3397  0.3182
  336MOL0     C46267   9.948  13.531   6.998 -0.5088 -0.2892  0.0227
  336MOL0     C46268   9.872  13.632   7.077  0.4935 -0.3494  0.8346
  336MOL0     C46269   9.775  13.719   7.001 -0.2644 -0.0311  0.0063
  336MOL0     C46270   9.767  13.867   7.059  0.3787  0.2539  0.8598
  336MOL0     C46271   9.656  13.946   6.977 -0.5088  0.4235 -0.0258
  336MOL0     C46272   9.653  14.084   7.037  0.3093  0.2042  0.0963
  336MOL0     C46273   9.536  14.167   6.973  0.4824  0.1100 -0.2688
  336MOL0     C46274   9.566  14.317   6.980  0.0788 -0.0815 -0.2245
  336MOL0    Cl46275   9.677  14.359   6.845 -0.4915  0.1513  0.1802
  336MOL0     C46276  10.216  13.403   6.933 -0.4796 -0.1698  0.7416
  336MOL0     C46277  10.324  13.314   6.895  0.3874  0.0655 -0.4583
  336MOL0     O46278  10.582  13.153   7.124  0.2701 -0.1152 -0.9534
  336MOL0     C46279  10.526  12.840   6.957 -0.0268  0.3298  0.3113
  336MOL0     C46280  10.583  12.711   6.947  0.3945  0.5096  0.5382
  336MOL0     N46281  10.728  12.090   6.623 -0.6050 -0.0740  0.2870
  336MOL0     N46282  10.680  11.994   6.693  0.7501 -0.4994  0.3032
  336MOL0     C46283   9.546  11.595   6.486 -0.4903 -0.0934 -0.9061
  336MOL0     C46284   9.428  11.529   6.454  0.7535  0.2801  0.2325
  336MOL0     C46285   9.011  11.359   6.468 -0.8063  0.7961  0.7246
  336MOL0     C46286   8.963  11.407   6.589 -0.6544 -0.9127 -0.3831
  336MOL0     C46287   8.853  11.354   6.649  0.1433  0.2609  0.3686
  336MOL0     C46288   8.784  11.250   6.587  0.3874 -0.2460 -1.4748
  336MOL0     O46289   8.664  11.203   6.638  0.3326  0.3590 -0.1611
  336MOL0     C46290   8.675  11.096   6.741  0.5197  0.3745  0.5711
  336MOL0     C46291   8.708  10.961   6.692  0.7412  0.3597  0.8326
  336MOL0     C46292   8.611  10.908   6.587 -0.5232 -0.0027  0.5759
  336MOL0     C46293   8.649  10.777   6.517  1.1413 -1.0737  0.2864
  336MOL0     C46294   8.767  10.799   6.446 -0.0305 -0.0508 -0.1759
  336MOL0     C46295   8.864  10.843   6.387 -0.1386  0.2157 -0.9977
  336MOL0     C46296   8.827  11.200   6.465  0.5977  0.1362  0.6726
  336MOL0     C46297   8.941  11.249   6.407  1.2299  0.0372  0.5335
  336MOL0     C46298   8.991  11.183   6.284  0.1393 -0.1749 -0.1786
  336MOL0     H46299   9.219  11.759   6.618  0.8215  1.5696 -0.3496
  336MOL0     H46300   9.419  11.878   6.635 -1.5562  0.4882 -0.9637
  336MOL0     H46301   9.625  11.967   6.650  3.0408  0.6578  1.0220
  336MOL0     H46302   9.609  11.947   6.468 -6.5251 -0.5020  2.6189
  336MOL0     H46303   9.842  11.964   6.438 -1.7981  1.6806 -1.6506
  336MOL0     H46304   9.800  12.086   6.558  0.4804 -0.0519 -0.5544
  336MOL0     H46305   9.849  11.918   6.746  2.9455 -0.6797  0.8730
  336MOL0     H46306   9.918  11.808   6.627 -0.0524 -1.0161 -0.4815
  336MOL0     H46307  10.067  12.042   6.568  2.4757 -1.6049  0.9376
  336MOL0     H46308  10.008  12.064   6.738 -3.7404  0.1259 -1.3198
  336MOL0     H46309  10.159  11.819   6.633 -3.5782  0.9951 -1.1485
  336MOL0     H46310  10.114  11.864   6.802 -1.8083 -0.1588 -0.6747
  336MOL0     H46311  10.321  12.029   6.645  0.8638  0.4880  0.1107
  336MOL0     H46312  10.245  12.056   6.799 -2.4383  2.0480 -3.6360
  336MOL0     H46313  10.433  11.821   6.717  0.9188  1.6733  0.6054
  336MOL0     H46314  10.344  11.821   6.869  1.2476 -1.2620 -0.1468
  336MOL0     H46315  10.439  12.038   6.936 -0.3570  0.9351  0.5526
  336MOL0     H46316  10.549  11.913   6.932 -1.7919 -0.1061  1.3950
  336MOL0     H46317  10.480  12.246   6.775  0.7116 -0.4066  2.8314
  336MOL0     H46318  10.625  12.427   6.636  0.1082  0.4425 -0.3080
  336MOL0     H46319  10.686  12.339   6.494  1.4306 -0.7418 -0.3001
  336MOL0     H46320  10.899  12.311   6.660  0.1284 -0.4348 -1.0954
  336MOL0     H46321  10.874  12.431   6.535 -1.5386  1.4452  0.7478
  336MOL0     H46322  10.949  12.528   6.768  0.8842  1.6490 -1.2775
  336MOL0     H46323  10.804  12.605   6.700 -0.6087  0.3917  1.8841
  336MOL0     H46324  10.651  12.469   6.846  0.8186 -0.7079  0.7271
  336MOL0     H46325  10.780  12.378   6.903 -0.1584 -0.4628 -0.0443
  336MOL0     H46326  10.894  12.768   7.037  0.9373 -1.3575  0.3192
  336MOL0     H46327  10.878  13.074   7.009 -0.8829 -0.2481 -0.4687
  336MOL0     H46328  10.918  12.959   7.149  2.0901  2.0640 -0.8753
  336MOL0     H46329  10.799  13.070   7.175  1.5384  1.7617  0.4568
  336MOL0     H46330  10.305  13.104   7.157 -0.7660  1.7410  1.8760
  336MOL0     H46331  10.128  13.247   7.223  1.4368 -0.6369  0.2625
  336MOL0     H46332  10.009  13.581   6.922  0.1982 -2.1474 -0.6951
  336MOL0     H46333   9.883  13.466   6.938  0.0708 -0.1934 -0.7358
  336MOL0     H46334   9.815  13.587   7.160  0.7107 -0.7694  0.7565
  336MOL0     H46335   9.953  13.701   7.102 -1.2377  2.2361 -0.2239
  336MOL0     H46336   9.678  13.667   7.000 -0.9432  1.0986 -2.9709
  336MOL0     H46337   9.806  13.734   6.897 -0.5330 -0.4425 -0.1367
  336MOL0     H46338   9.863  13.917   7.049  0.8812 -0.8545 -0.1061
  336MOL0     H46339   9.741  13.866   7.165  4.5231 -0.7460  2.0363
  336MOL0     H46340   9.674  13.958   6.870 -1.0750  0.2490 -0.1446
  336MOL0     H46341   9.559  13.895   6.982 -0.1901 -0.1193  1.1965
  336MOL0     H46342   9.751  14.131   7.024 -1.1209  3.1014 -1.0449
  336MOL0     H46343   9.642  14.076   7.146 -0.7509  0.0499 -0.0159
  336MOL0     H46344   9.449  14.138   7.032  3.9432 -3.3062  3.8663
  336MOL0     H46345   9.511  14.146   6.869 -1.3179  0.7594 -0.0004
  336MOL0     H46346   9.608  14.347   7.076  0.7997  1.4796 -0.9905
  336MOL0     H46347   9.471  14.371   6.969 -0.1168 -0.7849 -2.4046
  336MOL0     H46348  10.174  13.473   6.862 -3.8258 -1.4187  1.2899
  336MOL0     H46349  10.368  13.335   6.798  4.3105  1.2384  1.3498
  336MOL0     H46350  10.423  12.844   6.923  0.9864  0.0418 -3.1892
  336MOL0     H46351  10.516  12.630   6.919 -3.1225  3.8976 -1.9026
  336MOL0     H46352   9.636  11.552   6.444 -0.4985  0.5614 -1.6240
  336MOL0     H46353   9.418  11.432   6.408  2.0529 -1.6214  3.5997
  336MOL0     H46354   9.009  11.485   6.648  0.6404  0.1003 -2.5895
  336MOL0     H46355   8.809  11.405   6.734 -2.2627  0.2253 -0.7859
  336MOL0     H46356   8.736  11.124   6.827  0.3167  1.4140  0.3960
  336MOL0     H46357   8.573  11.091   6.780  0.4971 -0.0049  0.4663
  336MOL0     H46358   8.719  10.895   6.778 -1.4459 -2.3492 -0.8068
  336MOL0     H46359   8.810  10.975   6.654 -0.2549  1.0874 -1.7869
  336MOL0     H46360   8.509  10.897   6.625 -1.3290 -0.3268 -1.5216
  336MOL0     H46361   8.599  10.981   6.506  2.7775  0.0968  0.0348
  336MOL0     H46362   8.580  10.746   6.438  1.3993  0.8384 -0.7675
  336MOL0     H46363   8.671  10.700   6.591  1.8240  0.6735  1.9765
  336MOL0     H46364   8.950  10.878   6.335  0.8645 -0.4316  0.1729
  336MOL0     H46365   8.771  11.114   6.428  3.0805 -0.9562 -0.7946
  336MOL0     H46366   8.908  11.132   6.235 -0.1579 -0.5632  0.7117
  336MOL0     H46367   9.041  11.254   6.218  1.1904 -2.5993 -2.1475
  336MOL0     H46368   9.065  11.105   6.305  1.9538  1.3685 -0.5519
  337MOL0     O46369   8.047   6.822   4.347 -0.0976 -0.3554 -0.0053
  337MOL0     C46370   7.959   6.735   4.355 -0.0646 -1.5015 -0.2914
  337MOL0     O46371   7.977   6.610   4.296 -0.2302 -0.1263 -0.2728
  337MOL0     C46372   8.101   6.554   4.285 -0.3321 -0.6193 -0.5635
  337MOL0     C46373   8.132   6.479   4.169 -0.3944  0.3264 -0.2580
  337MOL0     C46374   8.262   6.423   4.142 -0.0161 -0.9147  0.0672
  337MOL0     C46375   8.361   6.437   4.238 -0.8262 -0.2277  0.6093
  337MOL0     O46376   8.485   6.374   4.209 -0.2098 -1.0977  0.0476
  337MOL0     C46377   8.500   6.252   4.283  0.1287  0.3637  0.5416
  337MOL0     C46378   8.485   6.118   4.203  0.4428 -0.2918  0.3099
  337MOL0     C46379   8.579   6.111   4.080 -0.3296  0.3708 -0.2841
  337MOL0     C46380   8.642   5.968   4.079  0.0820  0.5642 -0.0597
  337MOL0     C46381   8.758   5.953   3.972  0.0340  0.0988  0.0231
  337MOL0     C46382   8.710   5.980   3.827 -0.0804 -0.1370  0.1739
  337MOL0     C46383   8.835   5.963   3.732  0.1750 -1.3875  0.7511
  337MOL0     C46384   8.836   6.048   3.600 -0.0713 -0.5029  0.5197
  337MOL0     N46385   8.965   6.036   3.535 -0.8610 -0.2764  0.1124
  337MOL0     C46386   9.081   6.106   3.568  0.4030 -0.3978  0.7811
  337MOL0     C46387   9.167   6.078   3.471 -0.0737 -0.3944 -0.4782
  337MOL0     C46388   9.314   6.126   3.480 -0.3786 -0.0169  0.3247
  337MOL0     C46389   9.368   6.150   3.335  0.1567  0.5180 -0.3649
  337MOL0     C46390   9.500   6.228   3.352 -0.4712  0.1139 -0.0837
  337MOL0     C46391   9.566   6.248   3.220 -0.0544 -0.0562  0.5222
  337MOL0     O46392   9.484   6.333   3.144 -0.3232  0.1843  0.7531
  337MOL0     C46393   9.506   6.333   3.006  0.1563 -0.3102 -0.0224
  337MOL0     C46394   9.412   6.401   2.927  0.1427 -0.2345  0.2395
  337MOL0     C46395   9.436   6.411   2.796  0.1153  0.4675 -0.3076
  337MOL0     C46396   9.359   6.520   2.732 -0.2661  0.0270  0.1120
  337MOL0     C46397   9.540   6.348   2.727 -0.3964  0.6758 -0.9508
  337MOL0     C46398   9.569   6.347   2.580  0.7302  0.4063  0.6240
  337MOL0     O46399   9.682   6.280   2.534  0.8934 -0.0740 -0.3368
  337MOL0     C46400   9.727   6.299   2.405  0.7916 -0.2606 -1.2135
  337MOL0     C46401   9.777   6.428   2.369 -0.9373 -0.2386  0.8088
  337MOL0     C46402   9.821   6.447   2.238 -0.3955 -0.2167 -0.2924
  337MOL0     C46403   9.810   6.349   2.141 -0.5712  0.5985 -0.7712
  337MOL0     O46404   9.848   6.368   2.010 -0.1614 -0.0971  0.6493
  337MOL0     C46405   9.941   6.279   1.950  0.2998 -0.0333 -0.3056
  337MOL0     C46406  10.072   6.338   1.923  0.0082  0.3609  0.9653
  337MOL0     C46407  10.174   6.227   1.878  0.0474 -0.7174  0.4293
  337MOL0     C46408  10.143   6.159   1.748  0.3311  0.4005  0.1371
  337MOL0     C46409  10.244   6.055   1.715  0.7053  0.3194 -0.0606
  337MOL0     C46410  10.182   5.985   1.590 -0.7697  0.8374 -0.1894
  337MOL0     C46411  10.282   5.891   1.525 -0.2217 -0.2162  0.2861
  337MOL0     C46412  10.298   5.745   1.583 -0.0297 -0.3910 -0.8055
  337MOL0    Cl46413  10.155   5.651   1.540  0.6179 -0.3020 -0.1416
  337MOL0     C46414   9.762   6.226   2.183  0.9006  0.0383 -0.0610
  337MOL0     C46415   9.723   6.196   2.316 -0.0425 -0.1873  0.9262
  337MOL0     O46416   9.492   6.409   2.505 -0.8283 -0.3164 -0.1153
  337MOL0     C46417   9.630   6.276   2.802  0.6833  0.5136 -0.0337
  337MOL0     C46418   9.623   6.282   2.943  0.0142 -0.1941 -0.2247
  337MOL0     N46419   9.113   5.980   3.396  0.4900  0.5371  0.5581
  337MOL0     N46420   8.989   5.962   3.426 -0.0461  0.4243 -0.5022
  337MOL0     C46421   8.329   6.506   4.358 -0.5779  0.0460 -0.0725
  337MOL0     C46422   8.200   6.564   4.393  0.3199  0.2784  0.9718
  337MOL0     C46423   7.828   6.757   4.423 -0.2851 -0.2877  0.0179
  337MOL0     C46424   7.730   6.657   4.432 -0.7084 -0.2088  0.1185
  337MOL0     C46425   7.606   6.676   4.482 -0.1895  0.4935  0.2244
  337MOL0     C46426   7.580   6.798   4.548 -0.6462 -0.0148 -0.3546
  337MOL0     O46427   7.456   6.843   4.599 -0.7928 -0.4294 -0.0066
  337MOL0     C46428   7.337   6.766   4.580 -0.2137 -0.1755  0.7079
  337MOL0     C46429   7.217   6.860   4.617  0.3644  0.4345  0.6725
  337MOL0     C46430   7.199   6.980   4.517 -0.5013  0.6242  0.1560
  337MOL0     C46431   7.093   7.079   4.565 -0.8017  0.9026  0.2842
  337MOL0     C46432   6.961   7.020   4.580 -0.3161  0.3607  0.0530
  337MOL0     C46433   6.852   6.972   4.599  0.8216  0.0522  0.5634
  337MOL0     C46434   7.675   6.899   4.549 -0.1752 -0.2553  0.6657
  337MOL0     C46435   7.795   6.888   4.481 -0.9536 -0.6556  0.2608
  337MOL0     C46436   7.870   7.023   4.455 -0.0650 -0.7249  0.0223
  337MOL0     H46437   8.045   6.462   4.106 -1.8140  2.9675  0.8717
  337MOL0     H46438   8.289   6.371   4.051 -0.1586  1.6051 -1.5288
  337MOL0     H46439   8.424   6.252   4.361 -2.7078  2.4307 -1.9624
  337MOL0     H46440   8.601   6.259   4.326  0.3796 -3.3945  0.9079
  337MOL0     H46441   8.490   6.035   4.274 -1.6923 -0.1112  0.7508
  337MOL0     H46442   8.385   6.118   4.159  1.3385  0.4783 -1.8654
  337MOL0     H46443   8.523   6.129   3.988 -0.8602  0.5615  0.0715
  337MOL0     H46444   8.649   6.195   4.082  0.9771 -0.6903  1.6609
  337MOL0     H46445   8.689   5.939   4.173 -0.0887 -0.7985 -0.3680
  337MOL0     H46446   8.560   5.897   4.066 -0.3953  0.9199  0.9325
  337MOL0     H46447   8.787   5.849   3.985 -2.5314 -0.9198 -1.4245
  337MOL0     H46448   8.837   6.026   3.991  0.7134 -0.0720 -1.8753
  337MOL0     H46449   8.626   5.922   3.788  0.0820 -0.1336 -0.1811
  337MOL0     H46450   8.680   6.085   3.835 -0.9357 -0.4891  2.3175
  337MOL0     H46451   8.834   5.860   3.697 -4.0962 -0.6808 -1.9382
  337MOL0     H46452   8.924   5.993   3.788 -0.0160  2.1546 -0.5870
  337MOL0     H46453   8.761   6.005   3.534  0.5030 -1.1930  0.3053
  337MOL0     H46454   8.805   6.150   3.624 -1.2963 -0.7526  0.0622
  337MOL0     H46455   9.103   6.152   3.664  0.0280 -1.6793  1.4960
  337MOL0     H46456   9.365   6.040   3.526 -1.0582 -2.2268 -2.7091
  337MOL0     H46457   9.319   6.220   3.534 -0.0045 -0.2946  0.7843
  337MOL0     H46458   9.387   6.049   3.297  1.9370 -0.1869  2.1446
  337MOL0     H46459   9.294   6.214   3.286 -2.9540 -0.9208  2.1607
  337MOL0     H46460   9.477   6.324   3.398 -1.9653  0.4787 -1.4973
  337MOL0     H46461   9.576   6.180   3.415  1.0097  3.0242  0.5133
  337MOL0     H46462   9.664   6.294   3.238 -0.3015  1.5794 -1.8909
  337MOL0     H46463   9.572   6.154   3.165  0.6235  1.3850 -2.0310
  337MOL0     H46464   9.329   6.457   2.970 -1.1230 -0.2926 -1.9936
  337MOL0     H46465   9.293   6.478   2.654 -2.2830 -0.8599  2.1651
  337MOL0     H46466   9.430   6.595   2.699 -0.9206  0.6544  0.1042
  337MOL0     H46467   9.290   6.569   2.801 -0.3917  0.4192 -0.2910
  337MOL0     H46468   9.785   6.505   2.445  0.0228  0.3981  0.0872
  337MOL0     H46469   9.871   6.541   2.217  2.6773 -0.4067  4.5326
  337MOL0     H46470   9.954   6.188   2.010  0.4445  0.1146 -0.1109
  337MOL0     H46471   9.890   6.251   1.857 -2.2660  1.0185  0.7026
  337MOL0     H46472  10.066   6.419   1.850  1.5090  1.9191  2.4644
  337MOL0     H46473  10.101   6.381   2.020  2.1409  0.7395  0.2172
  337MOL0     H46474  10.178   6.148   1.954 -3.7544 -1.0793  0.4650
  337MOL0     H46475  10.272   6.274   1.867 -1.7236  3.3008  0.3253
  337MOL0     H46476  10.138   6.229   1.664  0.0760  0.1896 -0.0239
  337MOL0     H46477  10.045   6.112   1.759  1.6881 -1.9831  3.5188
  337MOL0     H46478  10.341   6.099   1.691  0.9088 -1.0144 -1.9028
  337MOL0     H46479  10.263   5.984   1.797 -0.3435  1.0197  0.8127
  337MOL0     H46480  10.140   6.062   1.525 -1.3571  0.7414  0.0729
  337MOL0     H46481  10.107   5.918   1.632 -0.8542 -0.2238 -1.9154
  337MOL0     H46482  10.378   5.943   1.527 -0.6781  0.9452 -3.0162
  337MOL0     H46483  10.255   5.893   1.420  0.9550  2.0436 -0.0335
  337MOL0     H46484  10.317   5.750   1.691  1.9475 -0.4389 -1.1089
  337MOL0     H46485  10.386   5.690   1.548  0.7624  1.3258 -1.6525
  337MOL0     H46486   9.751   6.146   2.110  1.5669 -3.1160  3.0214
  337MOL0     H46487   9.672   6.107   2.350 -0.7816  0.1210  0.6598
  337MOL0     H46488   9.717   6.228   2.759  0.1380  0.2766 -0.8981
  337MOL0     H46489   9.697   6.232   3.004 -1.9083 -1.4756  1.1853
  337MOL0     H46490   8.405   6.513   4.435 -0.5696 -2.6031  0.2557
  337MOL0     H46491   8.190   6.613   4.489  0.5763  0.4310  0.9211
  337MOL0     H46492   7.757   6.559   4.395  1.3415 -0.3341  1.7736
  337MOL0     H46493   7.525   6.603   4.481 -0.5661  0.7477  3.0825
  337MOL0     H46494   7.330   6.734   4.476  1.3484  0.5408  0.3363
  337MOL0     H46495   7.328   6.673   4.636 -1.8465 -1.4640 -1.5700
  337MOL0     H46496   7.214   6.890   4.722  1.4133  0.6194  0.6607
  337MOL0     H46497   7.126   6.802   4.602  0.4079  0.5547 -0.1057
  337MOL0     H46498   7.292   7.037   4.513 -0.1166  0.1316  1.6193
  337MOL0     H46499   7.178   6.935   4.419 -1.0020 -1.6606  1.2441
  337MOL0     H46500   7.072   7.147   4.482 -0.8332 -1.0305 -1.3957
  337MOL0     H46501   7.129   7.132   4.653  0.1011  1.1419 -0.2173
  337MOL0     H46502   6.747   6.954   4.611  0.1354  1.3364 -2.5041
  337MOL0     H46503   7.647   6.982   4.613  1.1199 -0.7591  1.9388
  337MOL0     H46504   7.868   7.040   4.347 -1.1108 -0.7013  0.0386
  337MOL0     H46505   7.820   7.110   4.497  2.0395  1.3412 -1.4930
  337MOL0     H46506   7.978   7.021   4.475 -0.1857 -0.3957  0.7151
  338MOL0     O46507   8.962   9.290   5.184  0.3036  0.2206  0.3360
  338MOL0     C46508   8.980   9.300   5.059  0.7305 -0.1394  0.7139
  338MOL0     O46509   9.102   9.310   4.989 -0.1349 -0.0576 -0.5242
  338MOL0     C46510   9.221   9.292   5.056 -0.2609  0.3835 -0.0160
  338MOL0     C46511   9.332   9.352   5.000 -0.1215  0.7551  0.1940
  338MOL0     C46512   9.462   9.311   5.037  0.1374  0.0026 -0.2770
  338MOL0     C46513   9.479   9.233   5.156 -1.1845 -0.4473 -0.1311
  338MOL0     O46514   9.596   9.198   5.218 -0.0602 -0.4464  0.7671
  338MOL0     C46515   9.720   9.255   5.176 -0.2301 -0.1325 -0.1493
  338MOL0     C46516   9.846   9.196   5.251 -0.2424 -0.0975  0.8331
  338MOL0     C46517   9.976   9.251   5.205  0.2048  0.0205 -0.0703
  338MOL0     C46518  10.098   9.189   5.276  0.5623  1.0245 -0.3913
  338MOL0     C46519  10.231   9.245   5.228 -0.1747 -0.1241  0.0340
  338MOL0     C46520  10.359   9.199   5.310 -1.0569  0.1266  0.0941
  338MOL0     C46521  10.380   9.052   5.270  0.0381 -0.5740 -0.5971
  338MOL0     C46522  10.519   9.005   5.323  0.1388  0.2763  0.4525
  338MOL0     N46523  10.623   9.082   5.253  0.4501  0.0201  0.3466
  338MOL0     C46524  10.629   9.102   5.120  0.0281  0.4694  0.7280
  338MOL0     C46525  10.743   9.171   5.101 -0.6044 -0.0365  0.4920
  338MOL0     C46526  10.779   9.258   4.980  0.5379 -0.3843  0.5043
  338MOL0     C46527  10.656   9.323   4.916 -0.2504  1.1288 -0.3161
  338MOL0     C46528  10.587   9.415   5.022 -0.0223  0.0205  0.3090
  338MOL0     C46529  10.533   9.548   4.967 -0.6269  0.5452  0.6999
  338MOL0     O46530  10.422   9.598   5.037  0.6596  0.2159  0.3474
  338MOL0     C46531  10.289   9.566   5.009  0.4109 -0.2484  0.2707
  338MOL0     C46532  10.250   9.474   4.913  0.0628 -0.1294 -0.3976
  338MOL0     C46533  10.115   9.449   4.887  0.4297 -0.3640  0.9323
  338MOL0     C46534  10.089   9.352   4.775 -0.4358  1.0193 -0.2680
  338MOL0     C46535  10.005   9.520   4.951  0.3408  0.3535 -0.2255
  338MOL0     C46536   9.862   9.513   4.926  0.2695  0.2363 -0.5066
  338MOL0     O46537   9.788   9.583   5.017 -0.3856 -0.6035  0.6787
  338MOL0     C46538   9.654   9.620   4.994  0.0689 -0.3934  0.0337
  338MOL0     C46539   9.596   9.647   4.868 -0.9581 -0.2169  0.4124
  338MOL0     C46540   9.456   9.686   4.868 -0.0617 -0.1592  0.0376
  338MOL0     C46541   9.383   9.706   4.988  0.1065  0.1655  0.5516
  338MOL0     O46542   9.258   9.752   4.989 -0.1135 -1.0191  0.1670
  338MOL0     C46543   9.239   9.867   4.901 -1.3918  0.6738 -0.2134
  338MOL0     C46544   9.102   9.921   4.927  0.4589 -0.1276  0.9742
  338MOL0     C46545   9.106   9.993   5.064  0.8019  0.4742 -0.2515
  338MOL0     C46546   8.969  10.014   5.133 -0.4101  0.8923  0.0208
  338MOL0     C46547   8.976  10.093   5.264 -0.2604  0.1681 -0.0438
  338MOL0     C46548   8.839  10.135   5.315  0.9438 -0.3720 -0.9390
  338MOL0     C46549   8.836  10.259   5.413  0.2052 -0.6839 -0.0158
  338MOL0     C46550   8.931  10.240   5.530  1.2800  0.4720 -0.3320
  338MOL0    Cl46551   8.872  10.107   5.636 -0.2704  0.0297 -0.1504
  338MOL0     C46552   9.453   9.686   5.112 -0.4420 -0.5333  0.0510
  338MOL0     C46553   9.583   9.644   5.109 -0.2497 -0.8499  0.1955
  338MOL0     O46554   9.816   9.454   4.829  0.0422  0.1544  0.6134
  338MOL0     C46555  10.055   9.611   5.053  0.2362 -0.0418 -0.1965
  338MOL0     C46556  10.193   9.630   5.087  0.0194  1.2466 -0.0567
  338MOL0     N46557  10.812   9.177   5.225  0.8128  0.2056  0.2196
  338MOL0     N46558  10.739   9.122   5.314 -0.1636  0.9310 -0.9753
  338MOL0     C46559   9.366   9.187   5.220 -0.2167  0.0229 -0.2953
  338MOL0     C46560   9.240   9.210   5.171  0.2801  0.2672  0.1329
  338MOL0     C46561   8.859   9.316   4.970  0.3692 -0.1466 -0.2698
  338MOL0     C46562   8.877   9.369   4.839 -0.5836 -1.1333 -0.6205
  338MOL0     C46563   8.780   9.372   4.745  0.3024  0.1328  0.1938
  338MOL0     C46564   8.652   9.345   4.787  0.2943 -0.7516  0.2409
  338MOL0     O46565   8.563   9.344   4.687 -0.1006  0.2565 -0.2591
  338MOL0     C46566   8.446   9.429   4.726 -0.2063  0.3085  0.2394
  338MOL0     C46567   8.361   9.468   4.604  0.0894  0.0647  0.5752
  338MOL0     C46568   8.282   9.594   4.639  0.3696  0.9711  0.7850
  338MOL0     C46569   8.192   9.642   4.519 -0.2130 -0.0206 -0.0109
  338MOL0     C46570   8.088   9.546   4.483  0.0158 -0.2193 -0.6980
  338MOL0     C46571   7.998   9.487   4.440  0.5122  0.5002 -0.3102
  338MOL0     C46572   8.628   9.321   4.916  1.3279  0.2194 -0.1927
  338MOL0     C46573   8.723   9.300   5.012  0.0870 -0.3499  0.1555
  338MOL0     C46574   8.670   9.239   5.140 -0.7590  0.2112 -0.3041
  338MOL0     H46575   9.329   9.411   4.909  0.5079 -0.9327 -0.9691
  338MOL0     H46576   9.543   9.362   4.986  0.7659 -0.6603  0.0430
  338MOL0     H46577   9.711   9.362   5.199  1.8163  0.5132 -2.0268
  338MOL0     H46578   9.727   9.255   5.066  0.1795 -1.0305 -0.1318
  338MOL0     H46579   9.831   9.189   5.360 -0.6626 -1.1920  0.7236
  338MOL0     H46580   9.852   9.092   5.217 -2.2216  0.8746 -2.9015
  338MOL0     H46581   9.989   9.221   5.100  2.7110 -0.7476  0.3809
  338MOL0     H46582   9.977   9.360   5.211  2.8597  0.1407 -1.0884
  338MOL0     H46583  10.088   9.214   5.382 -0.5560 -0.1610 -0.1878
  338MOL0     H46584  10.104   9.081   5.267  2.1034  0.9597  1.0029
  338MOL0     H46585  10.227   9.354   5.244 -0.1728 -0.1471  0.1975
  338MOL0     H46586  10.240   9.231   5.120  1.7268  1.9586 -0.1730
  338MOL0     H46587  10.447   9.260   5.288 -0.1902 -2.0300 -3.0577
  338MOL0     H46588  10.339   9.210   5.417  1.6496 -0.5148  0.7360
  338MOL0     H46589  10.355   9.029   5.166  1.5406 -2.0608 -0.6775
  338MOL0     H46590  10.316   8.988   5.331  1.5340 -3.3199 -1.7039
  338MOL0     H46591  10.511   9.023   5.431 -1.0201  2.3987  0.0586
  338MOL0     H46592  10.537   8.901   5.296 -0.5001  0.5309 -1.0475
  338MOL0     H46593  10.547   9.093   5.049 -0.1472  1.9662  0.7074
  338MOL0     H46594  10.829   9.201   4.901  0.0257  1.0354 -0.9043
  338MOL0     H46595  10.850   9.334   5.012 -0.6748  1.9056 -1.8677
  338MOL0     H46596  10.677   9.384   4.828 -0.8288 -1.0961 -2.1019
  338MOL0     H46597  10.589   9.241   4.889  1.3067  0.0086 -0.9127
  338MOL0     H46598  10.502   9.361   5.065 -0.4504 -0.8536 -1.5137
  338MOL0     H46599  10.662   9.435   5.098 -0.5252  2.1012  0.3182
  338MOL0     H46600  10.620   9.614   4.978  2.0865 -3.0582  3.2504
  338MOL0     H46601  10.509   9.536   4.861 -1.9533 -2.7818  1.2540
  338MOL0     H46602  10.331   9.434   4.852  1.1721  0.9234  0.3372
  338MOL0     H46603  10.182   9.327   4.724 -0.2559  0.3602  0.3765
  338MOL0     H46604  10.013   9.389   4.705  0.5909 -1.9040 -3.1866
  338MOL0     H46605  10.047   9.264   4.825  0.6645  0.9352  0.5249
  338MOL0     H46606   9.642   9.632   4.771 -0.8092 -2.2024  0.7510
  338MOL0     H46607   9.406   9.697   4.772 -0.5068 -0.7366  0.2012
  338MOL0     H46608   9.308   9.947   4.927 -1.0792  0.3456 -0.0183
  338MOL0     H46609   9.252   9.828   4.800  0.5838 -0.9139  0.5783
  338MOL0     H46610   9.080   9.997   4.852  0.2046  0.4212  1.5958
  338MOL0     H46611   9.031   9.839   4.923  1.0432 -0.6017 -1.2915
  338MOL0     H46612   9.159  10.089   5.059  2.7640 -0.5484  0.0474
  338MOL0     H46613   9.163   9.933   5.136  1.4923  1.5034  0.0784
  338MOL0     H46614   8.913   9.921   5.145  0.2258  0.7125  1.8720
  338MOL0     H46615   8.912  10.072   5.060 -0.3155  2.2544  0.9923
  338MOL0     H46616   9.034  10.041   5.342  4.1759  4.0322 -0.3225
  338MOL0     H46617   9.032  10.182   5.236 -1.1194  1.0273  0.8966
  338MOL0     H46618   8.782  10.062   5.373 -2.1223  3.0758  0.7924
  338MOL0     H46619   8.772  10.154   5.230 -0.5445  3.1154  0.8010
  338MOL0     H46620   8.733  10.268   5.449  0.3100 -0.8015  0.3099
  338MOL0     H46621   8.868  10.349   5.359  0.4512  1.5697  3.5520
  338MOL0     H46622   8.938  10.334   5.587  0.4655 -0.4732  1.4011
  338MOL0     H46623   9.034  10.215   5.505  0.9675 -1.2419  0.0016
  338MOL0     H46624   9.416   9.698   5.213  2.0554 -0.9207  1.1070
  338MOL0     H46625   9.649   9.641   5.196  0.6751  0.4747 -0.4223
  338MOL0     H46626   9.976   9.654   5.114  0.4662  1.0626 -0.6515
  338MOL0     H46627  10.223   9.698   5.165  2.7281  1.3340 -1.0640
  338MOL0     H46628   9.364   9.122   5.307 -2.1981 -0.3659 -0.5670
  338MOL0     H46629   9.164   9.152   5.222  1.2448 -3.8908 -2.6303
  338MOL0     H46630   8.979   9.391   4.809 -1.0483  0.3178 -1.2255
  338MOL0     H46631   8.805   9.416   4.649 -0.3196 -2.6225 -1.3245
  338MOL0     H46632   8.380   9.388   4.803 -1.2471  1.4909  0.0044
  338MOL0     H46633   8.484   9.521   4.771  0.3313 -0.2202  0.8992
  338MOL0     H46634   8.301   9.382   4.573 -0.2729  1.0094 -1.5750
  338MOL0     H46635   8.428   9.491   4.520  0.3244  1.5367  1.1365
  338MOL0     H46636   8.218   9.585   4.728 -0.5837  3.7532  0.4770
  338MOL0     H46637   8.355   9.674   4.654  1.2583  0.0133  1.7833
  338MOL0     H46638   8.267   9.656   4.440  1.5646 -1.8142  1.2570
  338MOL0     H46639   8.153   9.742   4.539 -2.3260 -0.6895 -0.5579
  338MOL0     H46640   7.931   9.418   4.393 -0.4339  0.6708  0.7279
  338MOL0     H46641   8.528   9.303   4.955  2.7819 -0.0947  3.8140
  338MOL0     H46642   8.734   9.159   5.178 -2.0350  0.3945  2.4474
  338MOL0     H46643   8.657   9.322   5.210  2.4230 -0.1343  0.8360
  338MOL0     H46644   8.577   9.185   5.118 -0.4710 -0.9452  1.1607
  339MOL0     O46645   7.536   1.301   7.793 -0.1205 -0.1578  0.3271
  339MOL0     C46646   7.630   1.281   7.864 -0.3922 -0.1781  0.1978
  339MOL0     O46647   7.640   1.304   8.000 -0.2268 -0.4101  0.1866
  339MOL0     C46648   7.527   1.351   8.056 -0.1155 -0.5845  0.6207
  339MOL0     C46649   7.461   1.281   8.151 -0.8594 -0.9916  0.3448
  339MOL0     C46650   7.371   1.346   8.241  0.1304 -0.6356 -0.3302
  339MOL0     C46651   7.346   1.485   8.243  0.5199  0.5542  0.3831
  339MOL0     O46652   7.276   1.533   8.347 -0.8000  0.1481 -0.6246
  339MOL0     C46653   7.265   1.676   8.366  0.2789 -0.4390  0.1954
  339MOL0     C46654   7.155   1.700   8.474 -0.5230 -0.0819 -0.1258
  339MOL0     C46655   7.010   1.685   8.427  0.7781  0.2559 -0.5739
  339MOL0     C46656   6.920   1.792   8.497 -0.9723 -0.6121  0.6412
  339MOL0     C46657   6.774   1.775   8.460 -0.0213  0.0062  0.3423
  339MOL0     C46658   6.693   1.846   8.563 -0.7367 -0.1890  0.4359
  339MOL0     C46659   6.541   1.851   8.546  0.2183  0.9118  0.2265
  339MOL0     C46660   6.498   1.918   8.417 -0.0897  0.8222  0.0152
  339MOL0     N46661   6.523   2.063   8.420  0.1187 -0.3483 -0.2718
  339MOL0     C46662   6.642   2.108   8.366 -0.5569 -0.2941  1.0982
  339MOL0     C46663   6.636   2.246   8.387 -0.0594  0.6869  0.4197
  339MOL0     C46664   6.753   2.338   8.356 -0.5163 -0.9612 -0.3387
  339MOL0     C46665   6.720   2.431   8.242  0.1116 -0.3163 -0.5942
  339MOL0     C46666   6.834   2.532   8.209  0.3114 -0.5017  0.2827
  339MOL0     C46667   6.961   2.457   8.179 -0.7913  0.2291  0.8240
  339MOL0     O46668   6.952   2.329   8.111 -0.2678 -0.4161  0.4003
  339MOL0     C46669   7.058   2.256   8.084  0.0145  0.8946  0.4355
  339MOL0     C46670   7.182   2.287   8.140 -0.3779  0.3560 -0.5073
  339MOL0     C46671   7.287   2.198   8.137 -0.3140  0.1451  1.1629
  339MOL0     C46672   7.399   2.234   8.212 -0.4861 -0.0547 -0.2397
  339MOL0     C46673   7.274   2.079   8.076 -0.0924  0.2738 -1.2409
  339MOL0     C46674   7.382   1.974   8.069  0.1380 -0.5003  0.3259
  339MOL0     O46675   7.513   2.024   8.090  0.5674  0.3192  0.0279
  339MOL0     C46676   7.605   1.925   8.114 -0.2733 -0.7067  1.0220
  339MOL0     C46677   7.709   1.903   8.019 -0.3639 -0.4974 -0.0837
  339MOL0     C46678   7.815   1.811   8.046  0.0921 -0.4768 -0.7623
  339MOL0     C46679   7.807   1.735   8.166 -0.2110  1.2491  0.9548
  339MOL0     O46680   7.899   1.642   8.185 -0.1600 -0.1476  0.5659
  339MOL0     C46681   7.864   1.512   8.224 -0.2924  0.2468  0.3613
  339MOL0     C46682   7.992   1.430   8.234  0.0818  0.2787 -0.0279
  339MOL0     C46683   8.085   1.451   8.354  0.3588  0.2257  0.0435
  339MOL0     C46684   8.183   1.335   8.359  0.7850  1.1020 -0.0034
  339MOL0     C46685   8.301   1.365   8.453 -0.1251  0.4825  0.9814
  339MOL0     C46686   8.273   1.315   8.589  0.4067 -0.5047  0.6581
  339MOL0     C46687   8.403   1.299   8.667 -0.9302 -0.3643 -0.6548
  339MOL0     C46688   8.504   1.196   8.626 -0.6602 -0.3044 -0.0130
  339MOL0    Cl46689   8.419   1.031   8.614  0.3359 -0.0796  0.4306
  339MOL0     C46690   7.703   1.754   8.253  0.1689 -1.2041 -0.3937
  339MOL0     C46691   7.609   1.862   8.234 -0.1109 -0.2788  0.0673
  339MOL0     O46692   7.352   1.859   8.063  0.5752  0.0644  0.5477
  339MOL0     C46693   7.151   2.049   8.014 -0.4823  0.3696  0.4876
  339MOL0     C46694   7.040   2.133   8.012 -0.6455 -0.6189 -0.6439
  339MOL0     N46695   6.511   2.280   8.437  0.4861 -0.1655 -0.5078
  339MOL0     N46696   6.447   2.172   8.462 -0.0391  0.0767 -0.2099
  339MOL0     C46697   7.415   1.553   8.148 -0.2111 -1.0631 -0.6940
  339MOL0     C46698   7.508   1.498   8.060  1.0110  0.5035  0.9476
  339MOL0     C46699   7.743   1.217   7.793 -0.4327 -0.2134 -0.7605
  339MOL0     C46700   7.740   1.216   7.649 -1.4842  0.2995 -0.1988
  339MOL0     C46701   7.859   1.178   7.581 -0.1008  0.0057  0.7684
  339MOL0     C46702   7.981   1.143   7.644  0.2789  0.0429 -0.7275
  339MOL0     O46703   8.072   1.109   7.551 -0.5449  0.2493 -0.4155
  339MOL0     C46704   8.203   1.070   7.603 -0.2001  0.5056  0.5548
  339MOL0     C46705   8.283   1.018   7.483 -1.0226  0.4020 -0.2487
  339MOL0     C46706   8.421   1.072   7.464 -0.9158  0.6469  0.5749
  339MOL0     C46707   8.520   1.058   7.577  0.1158  0.0614  0.5078
  339MOL0     C46708   8.550   0.917   7.614  0.0775 -0.6775  1.1443
  339MOL0     C46709   8.599   0.815   7.654 -1.2826 -0.0341  0.4538
  339MOL0     C46710   7.979   1.144   7.783  0.2944  1.0690 -0.0088
  339MOL0     C46711   7.861   1.170   7.855  0.2081 -0.6625 -0.3542
  339MOL0     C46712   7.872   1.146   7.998 -0.0787 -0.5255 -0.0504
  339MOL0     H46713   7.495   1.178   8.156  0.4880 -0.6810 -1.3992
  339MOL0     H46714   7.316   1.301   8.323 -2.7106  0.7180 -1.3524
  339MOL0     H46715   7.233   1.735   8.279  0.1504 -0.1006  0.4670
  339MOL0     H46716   7.366   1.711   8.387 -0.2936  2.1675 -0.9152
  339MOL0     H46717   7.178   1.627   8.552  2.0544  1.4519  0.6990
  339MOL0     H46718   7.170   1.805   8.500 -1.9327  0.5494 -1.7231
  339MOL0     H46719   7.016   1.698   8.319  0.9053  2.2233 -0.3563
  339MOL0     H46720   6.968   1.586   8.448  1.2432  0.3369  0.8869
  339MOL0     H46721   6.937   1.789   8.605 -0.0096 -1.7811  0.4825
  339MOL0     H46722   6.951   1.886   8.449  0.9563 -1.4934  0.0845
  339MOL0     H46723   6.751   1.668   8.468  0.4247 -0.0673  0.6811
  339MOL0     H46724   6.760   1.814   8.358  0.5890  1.0647  0.6506
  339MOL0     H46725   6.717   1.808   8.663  0.8317 -1.3761 -0.3655
  339MOL0     H46726   6.732   1.948   8.564 -0.7802 -0.1725  0.4883
  339MOL0     H46727   6.503   1.913   8.628 -1.8487 -0.2961  0.2408
  339MOL0     H46728   6.492   1.754   8.548 -3.3995  2.5949  0.0930
  339MOL0     H46729   6.545   1.868   8.331  1.0664  0.0659  1.0456
  339MOL0     H46730   6.392   1.897   8.406 -0.1226  0.9486  0.0894
  339MOL0     H46731   6.733   2.062   8.329 -0.6979  1.5764 -1.9156
  339MOL0     H46732   6.844   2.281   8.334  0.6984  0.7309  0.1102
  339MOL0     H46733   6.778   2.393   8.447 -0.7755  1.7950 -1.8193
  339MOL0     H46734   6.705   2.365   8.156 -0.6910 -0.2819 -0.4912
  339MOL0     H46735   6.629   2.487   8.267 -1.0994 -2.2421 -0.5028
  339MOL0     H46736   6.819   2.603   8.127  2.6423 -1.0741 -0.7381
  339MOL0     H46737   6.840   2.600   8.294  1.7161  2.2362 -1.8494
  339MOL0     H46738   7.030   2.524   8.129 -1.6100 -0.3123 -1.1045
  339MOL0     H46739   7.006   2.427   8.275 -2.5038  1.5974  2.1189
  339MOL0     H46740   7.191   2.369   8.210  3.2708 -0.4513  0.1897
  339MOL0     H46741   7.430   2.161   8.287  2.2621  2.0611  0.8497
  339MOL0     H46742   7.383   2.314   8.284 -0.8390 -2.9323  3.1605
  339MOL0     H46743   7.487   2.259   8.151  0.5084  0.6030  1.4015
  339MOL0     H46744   7.712   1.955   7.924 -1.0829 -0.1145  0.0938
  339MOL0     H46745   7.899   1.809   7.977 -0.1259 -1.5172 -1.0178
  339MOL0     H46746   7.813   1.519   8.320 -0.8482  1.5305 -0.0017
  339MOL0     H46747   7.800   1.477   8.143  0.0292  1.5104 -0.4773
  339MOL0     H46748   7.971   1.323   8.232  0.8806  0.1175 -0.3441
  339MOL0     H46749   8.054   1.444   8.145 -0.4306  0.5482 -0.3482
  339MOL0     H46750   8.037   1.464   8.452  2.8299 -0.5899  1.4461
  339MOL0     H46751   8.143   1.543   8.340 -2.6871  1.8784 -3.3141
  339MOL0     H46752   8.225   1.328   8.259 -0.4327  2.1725 -0.6229
  339MOL0     H46753   8.133   1.240   8.382 -1.8273  1.8590 -2.0240
  339MOL0     H46754   8.373   1.295   8.408 -0.8795 -0.9146  1.8961
  339MOL0     H46755   8.346   1.465   8.455 -0.7856  0.7727  1.3875
  339MOL0     H46756   8.219   1.221   8.603 -2.2324  0.1566 -3.4884
  339MOL0     H46757   8.221   1.399   8.635 -1.3048 -0.4026 -1.3246
  339MOL0     H46758   8.380   1.283   8.772  3.9190 -1.5844  0.4961
  339MOL0     H46759   8.454   1.395   8.655 -0.9496 -0.3436 -0.5696
  339MOL0     H46760   8.586   1.186   8.698 -2.4908 -2.0588  1.9582
  339MOL0     H46761   8.543   1.223   8.527 -0.8281  0.6684  0.1756
  339MOL0     H46762   7.702   1.694   8.343 -1.0807  0.9079  1.1084
  339MOL0     H46763   7.539   1.883   8.315  0.1065  0.8829 -0.0303
  339MOL0     H46764   7.159   1.950   7.970  1.4291 -0.1774  1.9105
  339MOL0     H46765   6.945   2.100   7.971 -2.3296 -0.9429  3.1437
  339MOL0     H46766   7.428   1.661   8.152  2.7122 -1.3408 -0.8578
  339MOL0     H46767   7.558   1.568   7.994  0.3116  0.7785  0.7072
  339MOL0     H46768   7.655   1.244   7.588 -2.4412 -1.2158  0.3712
  339MOL0     H46769   7.846   1.163   7.475 -1.7318 -1.5225  1.1406
  339MOL0     H46770   8.261   1.153   7.647 -1.4176  1.7802 -0.1625
  339MOL0     H46771   8.180   1.001   7.684  0.0249  1.8439  1.8025
  339MOL0     H46772   8.227   1.036   7.391 -1.4466  0.2932 -0.0153
  339MOL0     H46773   8.288   0.910   7.492  1.3038  0.5942  2.0883
  339MOL0     H46774   8.460   1.020   7.376  1.3669  0.8953  1.3710
  339MOL0     H46775   8.430   1.178   7.441 -0.4623  0.0931 -2.0566
  339MOL0     H46776   8.498   1.121   7.663 -3.9036 -1.3199  0.6916
  339MOL0     H46777   8.605   1.109   7.531 -1.3667  1.5603 -0.6619
  339MOL0     H46778   8.654   0.733   7.696 -1.2242  0.5864  1.6116
  339MOL0     H46779   8.071   1.113   7.830  1.8076  0.1773 -3.2812
  339MOL0     H46780   7.897   1.243   8.042  1.9908 -0.7925 -0.5281
  339MOL0     H46781   7.783   1.107   8.047  0.0206 -0.9105 -0.1743
  339MOL0     H46782   7.951   1.074   8.020  1.3669  1.2477  0.8792
  340MOL0     O46783   5.254   5.453   7.611 -0.4639 -0.0286  0.2336
  340MOL0     C46784   5.214   5.463   7.727 -0.0668  0.1285 -0.5964
  340MOL0     O46785   5.298   5.475   7.832 -0.1002 -0.0389 -0.5118
  340MOL0     C46786   5.421   5.530   7.833 -0.0518  0.0707  0.7352
  340MOL0     C46787   5.458   5.647   7.757  0.0519 -0.6531  0.2255
  340MOL0     C46788   5.598   5.698   7.778  0.6259  0.4575  0.3028
  340MOL0     C46789   5.696   5.635   7.862 -0.5763  0.0875 -0.5202
  340MOL0     O46790   5.828   5.682   7.881 -0.2435  0.1596  0.2802
  340MOL0     C46791   5.874   5.788   7.794  0.4751  0.2016 -0.6681
  340MOL0     C46792   6.031   5.774   7.778  0.2090  0.0587  0.2701
  340MOL0     C46793   6.092   5.903   7.722  0.4195  0.1350  0.1442
  340MOL0     C46794   6.242   5.884   7.695  0.5427 -1.0070  0.3778
  340MOL0     C46795   6.314   6.016   7.656  0.9480 -0.2245 -0.4624
  340MOL0     C46796   6.452   6.001   7.602  0.1862  0.5604 -0.6883
  340MOL0     C46797   6.559   5.987   7.719  0.7567  0.0713 -0.1100
  340MOL0     C46798   6.686   5.946   7.652  0.2023 -0.5575 -0.5566
  340MOL0     N46799   6.800   5.956   7.740  0.0934 -0.3307 -0.6949
  340MOL0     C46800   6.868   6.070   7.789 -0.4254 -0.4586  0.0576
  340MOL0     C46801   6.969   6.026   7.869 -0.4066 -0.3059 -0.1940
  340MOL0     C46802   7.075   6.117   7.932 -0.1492  0.8324  0.0978
  340MOL0     C46803   7.216   6.063   7.882 -0.3107  0.2759  0.1066
  340MOL0     C46804   7.262   5.953   7.977 -0.2363  0.1531 -0.7551
  340MOL0     C46805   7.408   5.913   7.931  0.8977 -0.2851  0.6373
  340MOL0     O46806   7.503   5.993   8.003  0.7329  0.2937  0.3145
  340MOL0     C46807   7.636   5.965   7.999  0.4839 -0.6111  0.3698
  340MOL0     C46808   7.722   6.047   8.081  0.2788 -0.9034 -0.3541
  340MOL0     C46809   7.858   6.056   8.060  0.6277 -1.1513  0.6361
  340MOL0     C46810   7.921   6.158   8.160  0.4445  0.7411  0.7969
  340MOL0     C46811   7.918   5.978   7.962 -0.9481  0.4620 -0.0514
  340MOL0     C46812   8.064   5.982   7.931  0.4899 -0.0158  0.8707
  340MOL0     O46813   8.146   6.070   7.988 -0.3625  0.6267 -0.3283
  340MOL0     C46814   8.282   6.076   7.963 -0.4276  1.2078 -1.2448
  340MOL0     C46815   8.332   6.092   7.832 -0.1045 -0.1189  0.7957
  340MOL0     C46816   8.466   6.120   7.813  0.6105 -0.2533 -0.5355
  340MOL0     C46817   8.554   6.140   7.921 -0.3471  0.0222  0.1029
  340MOL0     O46818   8.682   6.177   7.891 -0.0761  0.3781 -0.3503
  340MOL0     C46819   8.788   6.097   7.948 -0.2567 -0.0311  0.0196
  340MOL0     C46820   8.913   6.181   7.928  0.2355 -0.3729 -0.1552
  340MOL0     C46821   8.917   6.311   8.030 -0.1728 -0.0586  0.1476
  340MOL0     C46822   9.043   6.405   8.025  0.4240  0.6324  0.2197
  340MOL0     C46823   9.157   6.341   8.096  0.4327  1.0880  0.2739
  340MOL0     C46824   9.282   6.421   8.066  0.3532  0.1999  0.3631
  340MOL0     C46825   9.413   6.374   8.137  0.9234  0.3297 -0.1911
  340MOL0     C46826   9.529   6.475   8.112 -0.3561  0.7212 -0.3841
  340MOL0    Cl46827   9.677   6.421   8.208 -0.5617  0.1565 -0.3730
  340MOL0     C46828   8.500   6.125   8.056 -0.8598 -0.3341  0.2021
  340MOL0     C46829   8.364   6.102   8.079 -0.3113  0.2826  0.3369
  340MOL0     O46830   8.107   5.895   7.850  0.1384  0.3258  0.4141
  340MOL0     C46831   7.841   5.886   7.896 -0.5750  0.0502  0.0931
  340MOL0     C46832   7.697   5.889   7.902 -0.0630 -0.7193  0.2222
  340MOL0     N46833   6.952   5.891   7.899  0.2707 -0.5938 -0.3563
  340MOL0     N46834   6.846   5.859   7.818 -1.4902  0.3411  0.0438
  340MOL0     C46835   5.651   5.517   7.923  0.2143  0.3913 -0.5376
  340MOL0     C46836   5.521   5.467   7.905 -0.3900  0.0719 -0.0177
  340MOL0     C46837   5.073   5.451   7.760  0.5229 -0.8979 -0.6036
  340MOL0     C46838   4.991   5.392   7.663 -0.1954 -0.8171 -0.3426
  340MOL0     C46839   4.860   5.372   7.690 -0.5467  0.4879 -0.3560
  340MOL0     C46840   4.806   5.392   7.822  0.1793  0.0183  0.0934
  340MOL0     O46841   4.678   5.349   7.862 -0.1213  0.5062  0.0125
  340MOL0     C46842   4.607   5.247   7.783  0.9059  0.1780  0.6600
  340MOL0     C46843   4.521   5.317   7.683 -0.3014 -0.7643  0.6989
  340MOL0     C46844   4.492   5.232   7.552  0.6929 -0.4913 -0.7527
  340MOL0     C46845   4.410   5.326   7.466  0.3950 -0.0367  0.4179
  340MOL0     C46846   4.284   5.273   7.421 -0.1088  0.0518 -0.2258
  340MOL0     C46847   4.184   5.222   7.382  0.3792  0.1709 -0.0840
  340MOL0     C46848   4.886   5.456   7.920  0.6018  0.3111 -0.2755
  340MOL0     C46849   5.018   5.500   7.888 -0.0359 -0.0213  0.4126
  340MOL0     C46850   5.085   5.592   7.990 -0.1875  0.0689  0.2699
  340MOL0     H46851   5.378   5.696   7.702  2.2966  0.6788 -2.0735
  340MOL0     H46852   5.608   5.800   7.741  0.2721  0.7662  1.0332
  340MOL0     H46853   5.864   5.889   7.836  0.7282 -0.5943  1.4132
  340MOL0     H46854   5.825   5.800   7.697 -0.6342  1.2633 -0.0061
  340MOL0     H46855   6.070   5.754   7.878  1.6115 -1.4839 -0.5323
  340MOL0     H46856   6.070   5.692   7.717 -1.7312 -0.3997 -0.4399
  340MOL0     H46857   6.034   5.946   7.640  1.0960 -0.4148 -0.6422
  340MOL0     H46858   6.086   5.979   7.801 -1.0625  0.5692 -0.3558
  340MOL0     H46859   6.282   5.842   7.787  1.0610  0.9613  1.1070
  340MOL0     H46860   6.261   5.806   7.621  0.3472  1.3184 -2.3091
  340MOL0     H46861   6.301   6.086   7.739 -6.4283 -0.4934 -0.7369
  340MOL0     H46862   6.254   6.063   7.578 -0.3118 -0.7264  0.1875
  340MOL0     H46863   6.457   5.920   7.529  1.9850 -0.5397  0.5675
  340MOL0     H46864   6.481   6.089   7.543  1.9877  0.5200  0.0839
  340MOL0     H46865   6.523   5.916   7.794  0.2798  3.1554  2.8434
  340MOL0     H46866   6.582   6.082   7.769 -1.4255 -0.5992  2.3887
  340MOL0     H46867   6.682   5.842   7.617  0.4379 -0.1039 -1.9797
  340MOL0     H46868   6.698   6.014   7.568  1.8606  1.9061  1.5227
  340MOL0     H46869   6.845   6.170   7.753  0.9567  0.6664  2.1009
  340MOL0     H46870   7.073   6.118   8.041 -1.8070  1.0847  0.0973
  340MOL0     H46871   7.052   6.219   7.901 -1.7111  0.8583  1.2165
  340MOL0     H46872   7.209   6.021   7.781 -2.9516 -1.8050  1.0346
  340MOL0     H46873   7.285   6.148   7.884  2.3340 -1.7101 -0.6617
  340MOL0     H46874   7.250   5.984   8.082 -0.7868 -0.8011 -0.5223
  340MOL0     H46875   7.206   5.860   7.965  0.7349 -1.0041  2.4533
  340MOL0     H46876   7.406   5.805   7.947 -0.4976 -0.5752 -1.1870
  340MOL0     H46877   7.418   5.927   7.823 -3.4004  0.0979  0.1358
  340MOL0     H46878   7.672   6.108   8.155 -1.0482  0.1910 -2.0659
  340MOL0     H46879   7.974   6.092   8.229  1.7557  0.1573 -0.7044
  340MOL0     H46880   7.844   6.217   8.211 -0.5657  1.5904 -1.5540
  340MOL0     H46881   7.998   6.220   8.113  2.3762 -2.2195 -0.2387
  340MOL0     H46882   8.255   6.084   7.756  0.5069 -5.0476  0.3143
  340MOL0     H46883   8.496   6.137   7.709  0.2740  0.6141 -0.5031
  340MOL0     H46884   8.764   6.078   8.053 -2.4490 -2.2397 -0.7851
  340MOL0     H46885   8.798   6.002   7.895 -0.0320  0.6025 -1.1155
  340MOL0     H46886   8.998   6.114   7.941  0.3830 -0.9134 -3.0535
  340MOL0     H46887   8.921   6.212   7.823  1.1104 -0.8674 -0.2399
  340MOL0     H46888   8.907   6.286   8.136 -2.0861 -0.0231  0.0055
  340MOL0     H46889   8.834   6.379   8.012 -0.8267  0.1813  3.3742
  340MOL0     H46890   9.016   6.496   8.080 -1.4114 -1.3798  2.8791
  340MOL0     H46891   9.078   6.425   7.923 -0.7312 -2.8011 -0.9826
  340MOL0     H46892   9.145   6.328   8.204 -0.3842  0.5481  0.1200
  340MOL0     H46893   9.177   6.238   8.067  3.5061  1.2169  1.5401
  340MOL0     H46894   9.251   6.518   8.107 -2.4808 -1.0670  1.5694
  340MOL0     H46895   9.308   6.429   7.961  0.1550 -0.8138  0.2259
  340MOL0     H46896   9.438   6.272   8.107 -2.7019 -0.6827 -0.3604
  340MOL0     H46897   9.397   6.359   8.244  0.7797 -2.0925 -0.5021
  340MOL0     H46898   9.496   6.575   8.141 -1.2757  0.7116 -1.3573
  340MOL0     H46899   9.559   6.488   8.008 -3.0305  2.8814 -1.0113
  340MOL0     H46900   8.565   6.151   8.139  1.8878 -1.4827 -1.4397
  340MOL0     H46901   8.333   6.105   8.183 -0.4040  0.8037  0.2992
  340MOL0     H46902   7.878   5.800   7.840 -1.7672 -1.7609  1.9017
  340MOL0     H46903   7.639   5.833   7.830 -1.4971  4.2327 -2.9447
  340MOL0     H46904   5.714   5.476   8.001  0.4774 -0.2732 -1.0862
  340MOL0     H46905   5.507   5.365   7.942  3.4253 -1.2177 -1.5768
  340MOL0     H46906   5.036   5.368   7.567 -0.5990  2.0916 -1.3565
  340MOL0     H46907   4.793   5.328   7.617 -0.2901 -1.0106  0.2790
  340MOL0     H46908   4.679   5.179   7.737 -0.5243 -1.1754  0.3578
  340MOL0     H46909   4.547   5.178   7.842  0.1561 -0.6542 -1.0109
  340MOL0     H46910   4.575   5.402   7.641 -0.6979 -0.8185  0.0642
  340MOL0     H46911   4.423   5.341   7.726 -0.6674 -1.4380  0.2629
  340MOL0     H46912   4.578   5.194   7.496  1.5967 -1.9057  1.4452
  340MOL0     H46913   4.424   5.151   7.578 -0.1603  1.2171  3.1595
  340MOL0     H46914   4.471   5.340   7.377  0.1248 -2.0985 -0.1196
  340MOL0     H46915   4.391   5.426   7.507  3.8560  1.1339 -0.4740
  340MOL0     H46916   4.097   5.162   7.362  0.4273 -1.8432  4.5000
  340MOL0     H46917   4.844   5.474   8.018 -1.8092  0.4432 -1.2590
  340MOL0     H46918   5.001   5.630   8.049  0.4356  3.0081 -0.6134
  340MOL0     H46919   5.158   5.542   8.054 -1.2501 -0.2278  1.3015
  340MOL0     H46920   5.126   5.672   7.928 -1.7313  0.1173 -0.7442
  341MOL0     O46921   4.474   3.860   9.800  1.2399  0.6065 -0.1611
  341MOL0     C46922   4.491   3.962   9.736  0.1111 -0.3468 -0.4938
  341MOL0     O46923   4.613   4.022   9.703 -0.3406  0.0482 -0.3428
  341MOL0     C46924   4.730   3.984   9.757  0.1794  0.9724  0.4751
  341MOL0     C46925   4.848   3.993   9.679  0.1594  0.4817  0.1308
  341MOL0     C46926   4.973   3.970   9.742  0.3175 -0.0070  0.7073
  341MOL0     C46927   4.981   3.931   9.875 -0.5796 -0.1329 -0.1200
  341MOL0     O46928   5.101   3.904   9.924 -0.2038  0.8117  0.4289
  341MOL0     C46929   5.110   3.789  10.007  0.1175  0.4342 -0.0944
  341MOL0     C46930   5.146   3.837  10.158  0.5695  0.4002 -0.7864
  341MOL0     C46931   5.276   3.917  10.170  0.4068  0.5300  0.5140
  341MOL0     C46932   5.406   3.852  10.144 -0.2355  1.0617  0.2733
  341MOL0     C46933   5.524   3.913  10.222 -0.4519  0.2349 -0.3076
  341MOL0     C46934   5.646   3.823  10.216 -0.2168 -0.4613 -0.0965
  341MOL0     C46935   5.780   3.885  10.261  0.4590  0.2478 -0.6626
  341MOL0     C46936   5.900   3.776  10.255  0.3826  0.3619  0.1542
  341MOL0     N46937   6.014   3.803  10.344 -0.0638 -0.2397 -0.1879
  341MOL0     C46938   6.128   3.731  10.350  0.3770  0.8507  0.5339
  341MOL0     C46939   6.218   3.804  10.419 -0.5825  0.3529  0.8102
  341MOL0     C46940   6.364   3.770  10.439  0.2480 -0.4774  0.1872
  341MOL0     C46941   6.465   3.879  10.389  0.2049  0.6838  0.7298
  341MOL0     C46942   6.602   3.826  10.435 -0.9600 -0.2785 -0.1642
  341MOL0     C46943   6.709   3.894  10.355  0.4286  0.3464  0.0174
  341MOL0     O46944   6.711   3.835  10.219 -0.2167 -0.7863 -0.1894
  341MOL0     C46945   6.820   3.877  10.148 -0.4889  0.1774 -0.3568
  341MOL0     C46946   6.841   3.795  10.033 -0.4176  0.3471  0.1585
  341MOL0     C46947   6.951   3.823   9.942  0.0633 -0.3015  0.8282
  341MOL0     C46948   6.966   3.739   9.811 -0.2422 -0.3990 -0.0100
  341MOL0     C46949   7.038   3.934   9.964 -0.4583 -0.6597  0.3483
  341MOL0     C46950   7.160   3.963   9.877  0.8752 -0.1150  0.6913
  341MOL0     O46951   7.218   3.862   9.799  0.5053  0.2715 -0.3034
  341MOL0     C46952   7.326   3.885   9.714  0.7254 -0.3421  0.6295
  341MOL0     C46953   7.296   3.907   9.577 -0.1746  0.6398 -0.1561
  341MOL0     C46954   7.401   3.930   9.496  0.1871  0.2189  0.0548
  341MOL0     C46955   7.537   3.918   9.538 -0.0832  0.5581  0.1324
  341MOL0     O46956   7.642   3.930   9.447  1.3063 -0.4440  0.0043
  341MOL0     C46957   7.751   4.003   9.502 -0.4349  0.3080  0.4692
  341MOL0     C46958   7.782   4.111   9.391 -1.1445  0.0181  0.2722
  341MOL0     C46959   7.886   4.213   9.433 -0.4685  0.1584 -0.1102
  341MOL0     C46960   7.935   4.289   9.314  0.0675  0.0286 -0.8075
  341MOL0     C46961   8.016   4.412   9.362  0.2064 -0.8973 -0.1217
  341MOL0     C46962   8.144   4.450   9.278 -0.3000  0.3227  0.4187
  341MOL0     C46963   8.262   4.346   9.292 -0.4955 -0.8622 -0.1234
  341MOL0     C46964   8.292   4.322   9.442  0.3337 -0.2526  0.0848
  341MOL0    Cl46965   8.445   4.228   9.452 -0.2289 -0.2026  0.3579
  341MOL0     C46966   7.567   3.888   9.675  1.0652  0.8511 -0.0467
  341MOL0     C46967   7.460   3.876   9.757  0.7818  0.3015 -0.2494
  341MOL0     O46968   7.187   4.081   9.869 -0.0739 -0.4206  0.2273
  341MOL0     C46969   7.003   4.018  10.072 -0.0189  0.0887 -0.0680
  341MOL0     C46970   6.904   3.994  10.170  0.6796  0.4210 -0.8114
  341MOL0     N46971   6.151   3.923  10.456 -0.3763  0.0660  0.5686
  341MOL0     N46972   6.031   3.918  10.416  0.7955  0.4387 -0.0246
  341MOL0     C46973   4.866   3.927   9.950  0.3553 -0.0865  0.2618
  341MOL0     C46974   4.742   3.953   9.896 -1.5298 -0.1730 -0.0585
  341MOL0     C46975   4.367   4.028   9.679 -1.1130  0.3040  0.3919
  341MOL0     C46976   4.262   4.041   9.772 -0.6205  1.0239 -0.4911
  341MOL0     C46977   4.145   4.109   9.738 -0.5867  0.6217  0.4562
  341MOL0     C46978   4.130   4.156   9.608 -0.0056  0.5828  0.8992
  341MOL0     O46979   4.017   4.225   9.566 -0.3574  0.4428  0.3373
  341MOL0     C46980   3.895   4.147   9.539  0.5981  0.4083  0.0372
  341MOL0     C46981   3.908   4.081   9.403 -0.2820  0.9746 -0.5089
  341MOL0     C46982   3.909   3.932   9.415 -0.7344  0.4674 -0.6348
  341MOL0     C46983   3.863   3.866   9.288  0.1482 -1.0188 -0.3749
  341MOL0     C46984   3.874   3.720   9.277 -0.4538 -0.6890  0.5343
  341MOL0     C46985   3.870   3.596   9.280  0.5412 -0.0966  0.0512
  341MOL0     C46986   4.233   4.149   9.517 -0.0042 -0.2941  0.2841
  341MOL0     C46987   4.349   4.085   9.555 -0.3188 -0.1908  0.0398
  341MOL0     C46988   4.459   4.077   9.452  0.0359 -0.5095 -0.8483
  341MOL0     H46989   4.851   4.024   9.575  0.5475 -1.1866 -0.3716
  341MOL0     H46990   5.061   3.985   9.680 -0.8908  2.0553 -0.6239
  341MOL0     H46991   5.191   3.727   9.969 -0.1410  1.2610 -2.0992
  341MOL0     H46992   5.015   3.735  10.005 -0.8621  2.1075 -0.8857
  341MOL0     H46993   5.069   3.903  10.200  0.5787  1.5567 -2.4671
  341MOL0     H46994   5.153   3.745  10.217 -0.7057  2.0591  2.1722
  341MOL0     H46995   5.278   4.007  10.108  0.4753  0.4766  0.4369
  341MOL0     H46996   5.290   3.952  10.272  3.9458 -0.6098  0.5519
  341MOL0     H46997   5.391   3.756  10.194  0.0081  0.0337 -1.5499
  341MOL0     H46998   5.415   3.829  10.038 -0.0506 -1.5285  0.7819
  341MOL0     H46999   5.507   3.931  10.328  3.0207 -1.8734  0.7855
  341MOL0     H47000   5.544   4.008  10.172 -1.6450 -0.9080 -3.2331
  341MOL0     H47001   5.629   3.732  10.274  0.5619 -1.3136 -1.1562
  341MOL0     H47002   5.661   3.787  10.114 -2.0973  0.1432 -0.6350
  341MOL0     H47003   5.781   3.920  10.364 -1.9168 -0.7830 -0.2262
  341MOL0     H47004   5.792   3.974  10.198 -3.3694  1.0960 -0.4183
  341MOL0     H47005   5.871   3.672  10.273  0.3398  0.0597 -1.4895
  341MOL0     H47006   5.938   3.783  10.153  0.2604  1.7650  0.1855
  341MOL0     H47007   6.127   3.634  10.301  0.8520  1.5973 -1.0140
  341MOL0     H47008   6.379   3.674  10.389  2.4573 -1.2645  2.1682
  341MOL0     H47009   6.390   3.745  10.542  0.2993  0.9067  0.5364
  341MOL0     H47010   6.462   3.874  10.280 -0.2319  0.2931  0.7580
  341MOL0     H47011   6.447   3.974  10.440 -3.1916  0.0005  1.0261
  341MOL0     H47012   6.604   3.855  10.541 -0.5761  0.9781 -0.5076
  341MOL0     H47013   6.621   3.718  10.444  1.7419  0.0679 -1.0231
  341MOL0     H47014   6.682   3.999  10.348  0.7891  0.5334  1.2179
  341MOL0     H47015   6.807   3.887  10.403  0.2547 -0.3842  0.2788
  341MOL0     H47016   6.786   3.705  10.004  0.9987 -0.0709 -1.4514
  341MOL0     H47017   7.065   3.693   9.796  0.2243  0.8865 -1.0360
  341MOL0     H47018   6.969   3.802   9.722  3.7408 -1.6757 -0.9956
  341MOL0     H47019   6.893   3.658   9.814  0.1024 -0.6949  1.9249
  341MOL0     H47020   7.192   3.917   9.549  0.4216  1.2937 -2.2571
  341MOL0     H47021   7.366   3.956   9.397 -1.8961  1.0597  0.9571
  341MOL0     H47022   7.728   4.051   9.597 -1.2971  0.2371  0.3017
  341MOL0     H47023   7.840   3.941   9.514 -0.7214 -0.2440 -0.2159
  341MOL0     H47024   7.818   4.074   9.295 -0.9455  3.8941 -1.3255
  341MOL0     H47025   7.683   4.156   9.378 -1.8969 -0.5331  3.2644
  341MOL0     H47026   7.971   4.165   9.483  0.5077  0.5707 -1.3458
  341MOL0     H47027   7.831   4.274   9.505 -2.5516 -2.3002  0.5422
  341MOL0     H47028   7.859   4.328   9.244  2.0751  0.8828 -2.6375
  341MOL0     H47029   7.995   4.223   9.251 -3.1630 -1.3861 -2.6572
  341MOL0     H47030   7.944   4.493   9.347 -0.4829 -1.2124  1.2255
  341MOL0     H47031   8.036   4.417   9.470  1.3590 -1.8047 -0.2779
  341MOL0     H47032   8.177   4.548   9.315 -0.5526  1.0278 -1.1742
  341MOL0     H47033   8.118   4.455   9.172 -2.5066  0.4970  0.9219
  341MOL0     H47034   8.353   4.388   9.248 -0.9241  0.4477  0.1947
  341MOL0     H47035   8.238   4.251   9.242 -2.4163 -0.5187  0.0620
  341MOL0     H47036   8.204   4.269   9.480  0.6184 -0.5545  0.3322
  341MOL0     H47037   8.306   4.418   9.491 -1.9857  1.1056 -1.6993
  341MOL0     H47038   7.666   3.857   9.707  1.3352 -0.8548 -2.2512
  341MOL0     H47039   7.480   3.860   9.863 -1.4468  2.2397  0.5546
  341MOL0     H47040   7.067   4.102  10.095 -1.1393  0.7355  0.8087
  341MOL0     H47041   6.890   4.056  10.258  2.9495  0.6046 -0.4980
  341MOL0     H47042   4.873   3.902  10.055 -0.7204 -2.2206 -0.1021
  341MOL0     H47043   4.659   3.946   9.966 -1.0578 -0.8911  0.4496
  341MOL0     H47044   4.271   4.008   9.875  0.7318 -2.5424 -1.6057
  341MOL0     H47045   4.067   4.117   9.813 -0.8225 -2.9727  0.7771
  341MOL0     H47046   3.875   4.073   9.617 -1.6853 -0.3857 -1.2036
  341MOL0     H47047   3.808   4.214   9.541  0.8461  0.7434 -0.2674
  341MOL0     H47048   4.009   4.097   9.366 -0.2846  2.2594 -0.0424
  341MOL0     H47049   3.830   4.120   9.336  0.1275  1.4869 -0.6903
  341MOL0     H47050   4.011   3.909   9.447 -1.4822  1.0890  2.5061
  341MOL0     H47051   3.851   3.899   9.502  2.2790 -0.5543  1.1627
  341MOL0     H47052   3.902   3.917   9.199 -1.4389  1.0364  0.0283
  341MOL0     H47053   3.756   3.884   9.288  0.2843 -0.1637 -0.3316
  341MOL0     H47054   3.859   3.491   9.298 -0.5495 -0.2911 -1.5248
  341MOL0     H47055   4.218   4.193   9.419  0.1474 -2.3200 -0.6915
  341MOL0     H47056   4.432   4.128   9.359 -1.0434 -0.8816 -0.7573
  341MOL0     H47057   4.549   4.120   9.495 -1.2752  0.9972  0.5314
  341MOL0     H47058   4.484   3.971   9.443  1.0787 -0.3440 -0.0220
  342MOL0     O47059   7.035  10.213  10.520 -0.6359 -0.0107 -0.7198
  342MOL0     C47060   6.972  10.114  10.477  0.5709  0.3468 -0.3088
  342MOL0     O47061   7.037   9.992  10.455 -0.2840  0.9244 -0.4423
  342MOL0     C47062   7.176   9.994  10.443 -0.3312  0.0936 -0.2491
  342MOL0     C47063   7.242  10.026  10.323 -0.2604 -0.2531  0.0825
  342MOL0     C47064   7.386  10.018  10.318  0.9758 -0.3341 -0.3247
  342MOL0     C47065   7.469   9.994  10.427  0.7032 -0.1125 -0.6596
  342MOL0     O47066   7.601  10.006  10.432  0.0859  0.2919  0.0011
  342MOL0     C47067   7.643  10.118  10.352 -0.5865  0.0144 -0.3446
  342MOL0     C47068   7.792  10.142  10.371  0.6370 -0.2983  0.6860
  342MOL0     C47069   7.877  10.035  10.291  0.2886  0.6592  0.9388
  342MOL0     C47070   8.019  10.073  10.304 -0.2068  0.3880  0.6631
  342MOL0     C47071   8.108  10.001  10.197  0.0265 -0.4168 -0.1642
  342MOL0     C47072   8.131   9.850  10.219 -0.2017 -0.1276  0.1543
  342MOL0     C47073   8.243   9.794  10.134 -0.0884 -0.5313 -0.3739
  342MOL0     C47074   8.248   9.641  10.135 -0.2519 -0.3849 -0.3069
  342MOL0     N47075   8.348   9.594  10.038  0.7622 -0.0334 -0.2812
  342MOL0     C47076   8.485   9.624  10.027  0.3979  0.2159 -0.1855
  342MOL0     C47077   8.534   9.536   9.939  0.1704  1.0757 -0.1102
  342MOL0     C47078   8.668   9.510   9.897 -1.0142 -0.0903 -0.1632
  342MOL0     C47079   8.693   9.470   9.742 -0.0962 -0.2176 -0.3848
  342MOL0     C47080   8.812   9.380   9.739  0.6598 -1.0027  0.6657
  342MOL0     C47081   8.828   9.337   9.586  0.2533 -0.3090 -0.4383
  342MOL0     O47082   8.945   9.256   9.560 -0.0206 -0.3421 -0.2097
  342MOL0     C47083   9.064   9.318   9.580 -0.5118  0.5926 -0.1011
  342MOL0     C47084   9.171   9.227   9.606  0.1862 -0.3579 -0.7396
  342MOL0     C47085   9.304   9.259   9.618  0.8407  0.1925 -0.1843
  342MOL0     C47086   9.398   9.148   9.658 -0.7185 -1.0191 -0.0991
  342MOL0     C47087   9.338   9.393   9.610  0.1723  0.4634  0.6622
  342MOL0     C47088   9.477   9.452   9.617  0.6503  1.0975 -0.4452
  342MOL0     O47089   9.482   9.588   9.600 -0.1675  0.6191  0.2491
  342MOL0     C47090   9.600   9.660   9.595  0.2865  0.1657  0.8324
  342MOL0     C47091   9.593   9.797   9.624 -0.4840  0.6311 -0.8742
  342MOL0     C47092   9.711   9.870   9.629 -0.2417 -0.1882 -0.3365
  342MOL0     C47093   9.830   9.817   9.589 -0.4831  0.4047  0.0344
  342MOL0     O47094   9.953   9.884   9.596 -0.6073  0.2674 -0.1471
  342MOL0     C47095   9.957  10.019   9.629 -0.1756 -0.5555  0.0902
  342MOL0     C47096  10.098  10.045   9.678  0.0004  1.0251 -0.2065
  342MOL0     C47097  10.114  10.186   9.725  0.6131  0.3057 -0.1890
  342MOL0     C47098  10.245  10.218   9.805  0.3542  0.9731  0.1313
  342MOL0     C47099  10.266  10.370   9.830 -0.2770  0.1976  0.0504
  342MOL0     C47100  10.394  10.378   9.920 -0.0594  0.0700 -0.0234
  342MOL0     C47101  10.449  10.509   9.941  0.1877 -0.4759  0.9566
  342MOL0     C47102  10.353  10.598  10.019 -1.1179  0.2393  0.4362
  342MOL0    Cl47103  10.429  10.756  10.037 -0.1503 -0.7217  0.2494
  342MOL0     C47104   9.835   9.686   9.541 -0.1971  0.1610  0.1555
  342MOL0     C47105   9.719   9.607   9.547  0.0747 -0.9770 -0.3061
  342MOL0     O47106   9.564   9.374   9.662 -0.2203 -0.1802 -0.4915
  342MOL0     C47107   9.230   9.491   9.588  0.7604 -0.9264 -0.3729
  342MOL0     C47108   9.101   9.455   9.576 -0.1011  0.2440  0.0159
  342MOL0     N47109   8.435   9.457   9.886  0.4579  0.5370 -1.2273
  342MOL0     N47110   8.327   9.490   9.954 -0.2348  0.6326  0.8489
  342MOL0     C47111   7.397   9.956  10.537  0.6362  0.1556 -0.4752
  342MOL0     C47112   7.252   9.956  10.552  0.1302  0.1428 -1.1140
  342MOL0     C47113   6.823  10.102  10.457 -0.1858  0.3526  0.4682
  342MOL0     C47114   6.773   9.980  10.408  0.4110 -0.6532 -0.4318
  342MOL0     C47115   6.637   9.959  10.378  0.1415  0.5859  0.5071
  342MOL0     C47116   6.541  10.055  10.421 -0.2983  0.4903 -0.3046
  342MOL0     O47117   6.419  10.025  10.421 -0.0498  0.3931  0.2132
  342MOL0     C47118   6.367   9.900  10.361 -0.0787  0.4773  0.4521
  342MOL0     C47119   6.216   9.880  10.366 -0.4380 -0.1180 -0.0189
  342MOL0     C47120   6.155   9.964  10.256  0.7704  0.3964 -0.6283
  342MOL0     C47121   5.993   9.950  10.263 -0.6105  0.6501 -0.0437
  342MOL0     C47122   5.938   9.999  10.390 -0.7445 -1.5139 -0.3922
  342MOL0     C47123   5.887  10.030  10.498  0.0297 -0.2637 -0.3388
  342MOL0     C47124   6.588  10.180  10.476 -0.5796  0.3147  0.0684
  342MOL0     C47125   6.726  10.202  10.485 -0.0670  0.0723  0.1704
  342MOL0     C47126   6.762  10.347  10.519 -0.1244  0.1246  0.6485
  342MOL0     H47127   7.178  10.032  10.235 -0.7635 -0.9238  0.3951
  342MOL0     H47128   7.426  10.031  10.218 -1.0234  1.3732 -0.9790
  342MOL0     H47129   7.589  10.213  10.364 -0.6202  0.3348 -2.6988
  342MOL0     H47130   7.626  10.089  10.248 -1.5443  0.7491 -0.4117
  342MOL0     H47131   7.809  10.241  10.327  0.4355 -0.3675  0.4481
  342MOL0     H47132   7.817  10.147  10.477 -2.5739 -1.1688  1.6235
  342MOL0     H47133   7.853   9.934  10.323 -2.0624  0.5856 -0.7323
  342MOL0     H47134   7.854  10.039  10.184  4.0346 -0.8174 -0.0540
  342MOL0     H47135   8.023  10.180  10.285  1.5451  0.2843  0.2286
  342MOL0     H47136   8.058  10.052  10.405  0.9560 -0.6768  0.0185
  342MOL0     H47137   8.202  10.057  10.196 -0.9954  1.5115  1.6532
  342MOL0     H47138   8.071  10.021  10.096 -0.3536  0.9963  0.2306
  342MOL0     H47139   8.146   9.832  10.326  1.7736  2.4892  0.4358
  342MOL0     H47140   8.050   9.783  10.189  1.1959 -2.0402  0.5265
  342MOL0     H47141   8.336   9.840  10.168 -0.1572  0.1152 -1.0485
  342MOL0     H47142   8.233   9.843  10.037  1.3340  1.8161  0.5902
  342MOL0     H47143   8.256   9.607  10.238  0.0621 -0.6362 -0.4131
  342MOL0     H47144   8.154   9.603  10.093 -0.7362 -0.0775  0.4918
  342MOL0     H47145   8.542   9.689  10.093  1.1460 -0.7364  0.1388
  342MOL0     H47146   8.696   9.428   9.964  0.8622  1.0332  0.5209
  342MOL0     H47147   8.739   9.593   9.904 -1.9767  0.6121  2.5308
  342MOL0     H47148   8.609   9.424   9.689  0.8202 -2.1887 -0.2089
  342MOL0     H47149   8.712   9.560   9.684 -0.7069 -0.1337 -0.4672
  342MOL0     H47150   8.905   9.429   9.770  0.6297  0.8112 -1.8458
  342MOL0     H47151   8.798   9.288   9.797  2.0417 -0.9384  1.1371
  342MOL0     H47152   8.742   9.276   9.556  0.8689 -1.1539 -0.5049
  342MOL0     H47153   8.824   9.425   9.521 -0.3928 -0.0783 -0.0941
  342MOL0     H47154   9.137   9.124   9.612 -2.2014  0.1254 -3.6666
  342MOL0     H47155   9.475   9.141   9.580  0.2422  0.1093  0.7113
  342MOL0     H47156   9.345   9.053   9.673 -2.0917  0.0495  2.4789
  342MOL0     H47157   9.459   9.179   9.744  0.5425 -0.1682 -1.2567
  342MOL0     H47158   9.502   9.831   9.673  1.3165  1.0548  2.4208
  342MOL0     H47159   9.705   9.973   9.661 -2.8050 -0.4724  0.3010
  342MOL0     H47160   9.931  10.082   9.543 -1.5874  2.2621  2.3837
  342MOL0     H47161   9.887  10.052   9.707  1.1586  0.8162  0.7614
  342MOL0     H47162  10.116   9.975   9.760  0.5005  2.4795  0.9719
  342MOL0     H47163  10.172  10.018   9.602  0.8275 -0.7251  1.1320
  342MOL0     H47164  10.032  10.216   9.791 -0.6250  1.7574 -2.2709
  342MOL0     H47165  10.093  10.244   9.635 -2.4699 -1.9785 -1.1402
  342MOL0     H47166  10.331  10.189   9.744 -1.4894  0.2021 -2.2855
  342MOL0     H47167  10.236  10.146   9.886 -2.7567  0.6119 -0.3867
  342MOL0     H47168  10.284  10.431   9.741 -4.7013  0.0379 -1.1785
  342MOL0     H47169  10.181  10.409   9.886  0.2809 -0.6899  1.5777
  342MOL0     H47170  10.472  10.324   9.866  0.2525 -0.0717  0.5594
  342MOL0     H47171  10.377  10.332  10.018  2.2958 -1.1719 -0.1411
  342MOL0     H47172  10.473  10.554   9.844  0.5230  1.1237  1.7380
  342MOL0     H47173  10.547  10.509   9.990  0.4031  2.0586  0.6906
  342MOL0     H47174  10.327  10.548  10.112  0.7314 -0.7658  0.4398
  342MOL0     H47175  10.266  10.599   9.952  0.3452 -0.8642 -1.5855
  342MOL0     H47176   9.931   9.650   9.503 -0.7104  0.2414 -1.2871
  342MOL0     H47177   9.738   9.510   9.501  1.2332  0.0192 -2.0558
  342MOL0     H47178   9.254   9.597   9.587  0.6163 -0.8924 -2.0770
  342MOL0     H47179   9.020   9.528   9.576 -0.4712 -0.1348  1.2653
  342MOL0     H47180   7.442   9.920  10.629 -0.0796  0.6771  0.0959
  342MOL0     H47181   7.202   9.930  10.645 -0.6741 -2.5171 -2.2017
  342MOL0     H47182   6.836   9.897  10.378 -0.2064 -1.6239  0.8716
  342MOL0     H47183   6.618   9.860  10.338  0.7625  1.0452 -1.0054
  342MOL0     H47184   6.399   9.892  10.256  1.3324  2.9819  0.6118
  342MOL0     H47185   6.422   9.819  10.409  0.7953 -0.1638 -1.5001
  342MOL0     H47186   6.180   9.914  10.464 -1.8153 -3.0198  0.6030
  342MOL0     H47187   6.188   9.776  10.346  1.7110 -0.5466 -1.0203
  342MOL0     H47188   6.186  10.068  10.267 -0.7134  0.8080 -0.0428
  342MOL0     H47189   6.186   9.918  10.161  1.6280 -0.2398 -0.0499
  342MOL0     H47190   5.972   9.843  10.252  2.8911 -0.0023 -1.9468
  342MOL0     H47191   5.944  10.005  10.182 -2.0711 -0.0515  0.3288
  342MOL0     H47192   5.829  10.044  10.587 -0.6610  1.0937 -0.9670
  342MOL0     H47193   6.506  10.246  10.502 -1.3836 -0.1143 -1.2784
  342MOL0     H47194   6.836  10.392  10.453 -0.6359  0.8338  0.5490
  342MOL0     H47195   6.672  10.408  10.523  0.1148  0.4801  0.6925
  342MOL0     H47196   6.822  10.345  10.611  0.3190 -0.4847  0.3535
  343MOL0     O47197   7.432   5.086   1.060 -0.2653  0.5356  0.7127
  343MOL0     C47198   7.386   5.191   1.012 -0.1499 -0.0545 -0.3651
  343MOL0     O47199   7.444   5.312   1.029  0.5368  0.2655  0.2302
  343MOL0     C47200   7.539   5.343   1.128 -0.4499  0.2610  0.8019
  343MOL0     C47201   7.674   5.299   1.114  0.3517  0.1076  0.1818
  343MOL0     C47202   7.772   5.326   1.206 -0.1201  0.5478  0.4530
  343MOL0     C47203   7.738   5.397   1.315 -1.0433  0.1609  0.2964
  343MOL0     O47204   7.831   5.437   1.408 -0.5422  0.0587 -0.0991
  343MOL0     C47205   7.898   5.561   1.375  0.3106 -0.4407  0.0826
  343MOL0     C47206   8.004   5.576   1.474  0.6860 -0.3386 -0.7813
  343MOL0     C47207   7.948   5.618   1.614 -0.3434  1.0126 -1.0007
  343MOL0     C47208   7.994   5.511   1.721 -0.8882  0.6136  1.1052
  343MOL0     C47209   7.919   5.522   1.850 -0.8325 -0.5363  0.3065
  343MOL0     C47210   7.770   5.480   1.841  0.1108 -0.6652 -0.5844
  343MOL0     C47211   7.725   5.438   1.980 -0.0746 -0.5336 -0.1532
  343MOL0     C47212   7.569   5.387   1.992  0.0454  0.4482  0.3664
  343MOL0     N47213   7.476   5.497   1.940 -0.2570  0.1833  0.2248
  343MOL0     C47214   7.457   5.511   1.809 -0.5726  0.1608 -0.1336
  343MOL0     C47215   7.372   5.615   1.789 -0.2022  0.0820 -0.2484
  343MOL0     C47216   7.329   5.680   1.669 -0.7282 -0.2920  0.6046
  343MOL0     C47217   7.443   5.771   1.616 -0.1054 -0.2003 -0.8984
  343MOL0     C47218   7.420   5.807   1.472 -0.6225 -0.0597  0.9805
  343MOL0     C47219   7.545   5.864   1.403  0.1210 -0.1110  0.1126
  343MOL0     O47220   7.523   5.856   1.258 -0.1495 -0.2228  0.5954
  343MOL0     C47221   7.644   5.854   1.187  0.2624 -0.0164 -0.3793
  343MOL0     C47222   7.688   5.738   1.122  0.7711 -0.0634 -0.2071
  343MOL0     C47223   7.809   5.749   1.053  0.0246 -0.4644  1.1320
  343MOL0     C47224   7.836   5.622   0.980  0.7104  0.3780 -0.2769
  343MOL0     C47225   7.899   5.862   1.061  0.9708  0.2610  0.5675
  343MOL0     C47226   8.014   5.887   0.969 -0.2255 -0.7242  0.1287
  343MOL0     O47227   8.099   5.992   1.001 -0.3476  0.4722  0.2799
  343MOL0     C47228   8.174   6.048   0.897  1.3733 -0.1523 -0.2101
  343MOL0     C47229   8.102   6.090   0.787  0.1888  0.0366  0.1264
  343MOL0     C47230   8.173   6.174   0.699  0.2166  0.8235  1.1664
  343MOL0     C47231   8.304   6.202   0.700 -0.9016  0.5811 -0.0551
  343MOL0     O47232   8.353   6.267   0.589  0.3814  0.1621 -0.0600
  343MOL0     C47233   8.487   6.305   0.580  0.1131  0.6654 -0.4976
  343MOL0     C47234   8.576   6.202   0.503 -0.0257  0.3746 -1.0400
  343MOL0     C47235   8.709   6.260   0.494 -0.4850 -0.4072 -0.9904
  343MOL0     C47236   8.794   6.243   0.619  0.4753 -0.1647  0.3647
  343MOL0     C47237   8.949   6.256   0.591  0.3765  0.2278  0.2798
  343MOL0     C47238   9.030   6.295   0.717  0.1313  0.2322 -0.6509
  343MOL0     C47239   9.172   6.332   0.686 -0.3182 -0.1840 -0.5505
  343MOL0     C47240   9.260   6.308   0.803  0.4254  0.3430  0.4795
  343MOL0    Cl47241   9.431   6.369   0.786 -0.0743 -0.1611 -0.7192
  343MOL0     C47242   8.378   6.145   0.810  0.0075 -0.4404  0.1427
  343MOL0     C47243   8.311   6.065   0.903 -0.3880  0.3787  0.1902
  343MOL0     O47244   8.025   5.819   0.869 -0.0774 -0.0631  0.5007
  343MOL0     C47245   7.857   5.969   1.144  0.5923 -0.1525 -0.4236
  343MOL0     C47246   7.730   5.964   1.200  0.0893 -0.2293  0.0208
  343MOL0     N47247   7.328   5.651   1.917 -0.7522 -0.7479 -0.3350
  343MOL0     N47248   7.390   5.576   2.009 -0.6431  0.2415  0.1926
  343MOL0     C47249   7.610   5.454   1.327 -0.0494 -0.1397  0.0766
  343MOL0     C47250   7.511   5.425   1.230  0.6330  0.1369  0.2628
  343MOL0     C47251   7.249   5.180   0.954 -0.8474  0.2282 -0.1652
  343MOL0     C47252   7.165   5.298   0.970  0.8954  0.3407  0.4381
  343MOL0     C47253   7.025   5.291   0.949  0.4391  0.0375 -0.2318
  343MOL0     C47254   6.973   5.187   0.885  0.0349  0.3353 -0.4557
  343MOL0     O47255   6.842   5.183   0.853  0.4658 -0.0117  0.3784
  343MOL0     C47256   6.759   5.069   0.821  0.0461 -0.4866  0.2279
  343MOL0     C47257   6.622   5.106   0.869  0.4942 -0.0222 -0.6955
  343MOL0     C47258   6.613   5.146   1.016 -0.8699  0.5640  1.2433
  343MOL0     C47259   6.645   5.027   1.110  0.0836  0.8631  0.1090
  343MOL0     C47260   6.568   4.909   1.081 -0.4397 -0.3246  0.0341
  343MOL0     C47261   6.520   4.808   1.067  0.5562  0.2888 -0.5927
  343MOL0     C47262   7.052   5.072   0.858 -0.6430  0.6284 -0.8890
  343MOL0     C47263   7.188   5.067   0.894 -0.3886 -0.3470  0.2868
  343MOL0     C47264   7.256   4.930   0.868 -0.3715 -0.7929  0.0877
  343MOL0     H47265   7.699   5.255   1.018 -0.8475 -2.0760  0.8271
  343MOL0     H47266   7.876   5.299   1.187  0.0943  0.7379  1.3106
  343MOL0     H47267   7.833   5.648   1.382 -0.1471 -0.3126 -3.7536
  343MOL0     H47268   7.946   5.557   1.277  1.3148 -1.8424  0.5897
  343MOL0     H47269   8.070   5.489   1.479 -0.9857 -1.6341 -0.2225
  343MOL0     H47270   8.059   5.666   1.443 -0.4169  0.3047 -0.9064
  343MOL0     H47271   7.992   5.713   1.645 -2.1376  1.0391  1.8222
  343MOL0     H47272   7.838   5.619   1.614 -0.4303  1.1029  1.8747
  343MOL0     H47273   7.969   5.417   1.672  0.5887  0.4451  0.6412
  343MOL0     H47274   8.103   5.514   1.728 -0.7848 -2.0238  1.3661
  343MOL0     H47275   7.922   5.626   1.882 -0.2891  0.3384 -2.3504
  343MOL0     H47276   7.980   5.458   1.914 -1.0602  0.9554  2.0997
  343MOL0     H47277   7.701   5.561   1.814 -2.3227 -2.2048  0.6429
  343MOL0     H47278   7.751   5.396   1.774  1.2917 -0.6163 -0.9919
  343MOL0     H47279   7.741   5.521   2.050 -0.1388 -1.8758  1.5140
  343MOL0     H47280   7.792   5.354   1.999  1.8124  0.3849 -2.3299
  343MOL0     H47281   7.550   5.299   1.931  0.6093 -0.4933  1.5037
  343MOL0     H47282   7.544   5.354   2.094  0.4820 -3.5197 -0.6656
  343MOL0     H47283   7.506   5.448   1.736  0.8092 -1.6361  2.1986
  343MOL0     H47284   7.240   5.743   1.675 -0.8009 -0.4361  1.0278
  343MOL0     H47285   7.313   5.604   1.592 -0.0749  1.0589 -0.9224
  343MOL0     H47286   7.439   5.862   1.676  0.1158 -0.4049 -0.5699
  343MOL0     H47287   7.540   5.721   1.623 -0.5505 -1.0422 -0.5576
  343MOL0     H47288   7.384   5.721   1.415 -1.2806 -0.9759  2.6899
  343MOL0     H47289   7.349   5.889   1.459 -0.3307 -0.1450 -1.4952
  343MOL0     H47290   7.550   5.971   1.426  0.2981  0.0191 -0.4938
  343MOL0     H47291   7.634   5.808   1.433  0.3791 -0.4286 -1.1949
  343MOL0     H47292   7.633   5.644   1.118  1.7925 -0.6414 -2.2301
  343MOL0     H47293   7.831   5.539   1.050 -0.1162 -1.2697 -2.1733
  343MOL0     H47294   7.933   5.616   0.930  1.9682 -2.2867  2.2238
  343MOL0     H47295   7.757   5.605   0.906 -0.1630  4.4816 -0.5444
  343MOL0     H47296   8.004   6.050   0.766  0.1254  0.6069 -0.7136
  343MOL0     H47297   8.105   6.208   0.622 -1.3501  2.3372  3.0896
  343MOL0     H47298   8.490   6.397   0.521  0.4929  1.7308  1.1499
  343MOL0     H47299   8.518   6.335   0.680 -3.5244  0.6251  0.7981
  343MOL0     H47300   8.575   6.107   0.557  0.0690  0.5499 -0.7246
  343MOL0     H47301   8.529   6.178   0.407 -0.3279 -2.0369 -0.3388
  343MOL0     H47302   8.709   6.364   0.462  3.2333 -0.5590 -1.9297
  343MOL0     H47303   8.760   6.204   0.415  0.7741  0.1851 -0.6206
  343MOL0     H47304   8.781   6.140   0.653 -1.5426 -0.0236  0.1662
  343MOL0     H47305   8.767   6.325   0.686  3.1516  0.9142  0.2297
  343MOL0     H47306   8.997   6.160   0.567 -2.0214 -0.7926 -0.7563
  343MOL0     H47307   8.963   6.322   0.504  1.4959 -0.8513 -0.3996
  343MOL0     H47308   9.020   6.210   0.785  4.0846  1.0974  1.3590
  343MOL0     H47309   8.994   6.383   0.771  1.9515  0.6540 -0.0516
  343MOL0     H47310   9.178   6.440   0.670  1.3410  0.2199  2.1666
  343MOL0     H47311   9.211   6.290   0.593  0.1282  0.2213 -0.5500
  343MOL0     H47312   9.264   6.201   0.822 -0.0206  0.3648  0.7048
  343MOL0     H47313   9.215   6.362   0.887 -3.4240 -0.7635 -0.6600
  343MOL0     H47314   8.486   6.147   0.805 -0.0253 -0.5173 -0.9533
  343MOL0     H47315   8.360   6.031   0.994 -0.3034  0.5793  0.2219
  343MOL0     H47316   7.915   6.059   1.160 -0.0481  0.1647  0.1951
  343MOL0     H47317   7.699   6.050   1.258  0.1273 -0.4772  0.4123
  343MOL0     H47318   7.592   5.526   1.406 -1.4277  1.4029 -1.5528
  343MOL0     H47319   7.408   5.456   1.248 -0.5213 -3.2116  0.0442
  343MOL0     H47320   7.209   5.391   1.005  2.7298 -0.3622  0.1116
  343MOL0     H47321   6.959   5.375   0.967 -0.4712 -0.1544 -2.3674
  343MOL0     H47322   6.762   5.041   0.715  2.0995  0.6763 -0.0633
  343MOL0     H47323   6.789   4.979   0.876 -4.2108 -1.9988  0.4533
  343MOL0     H47324   6.547   5.028   0.854  2.7504 -2.2803 -0.8341
  343MOL0     H47325   6.586   5.191   0.811 -0.6849 -1.2529 -1.8333
  343MOL0     H47326   6.676   5.233   1.037 -1.5711  0.8462  2.2943
  343MOL0     H47327   6.509   5.177   1.031 -1.2755  0.8071 -1.5133
  343MOL0     H47328   6.628   5.058   1.213  5.9149  4.0802  0.5115
  343MOL0     H47329   6.745   4.986   1.098 -0.2754  0.0678 -0.2324
  343MOL0     H47330   6.467   4.716   1.053 -1.7784  1.4629 -0.0290
  343MOL0     H47331   6.998   4.985   0.821 -1.4326 -0.5039  2.5684
  343MOL0     H47332   7.284   4.877   0.959 -3.0019 -0.1219  1.3955
  343MOL0     H47333   7.192   4.877   0.797 -0.9983  1.9674 -1.5788
  343MOL0     H47334   7.350   4.942   0.815  0.0205  0.5146  1.0369
  344MOL0     O47335   9.009   0.927   5.630  0.2410  0.2427  0.7946
  344MOL0     C47336   8.957   0.961   5.522 -0.2588  0.6588 -0.0999
  344MOL0     O47337   8.992   1.062   5.445 -0.1221 -0.5655  0.5176
  344MOL0     C47338   9.100   1.141   5.464  0.4305 -0.7972 -0.5097
  344MOL0     C47339   9.149   1.195   5.588  0.1397  0.0564 -0.3583
  344MOL0     C47340   9.257   1.272   5.597  0.4160 -0.4947 -0.2144
  344MOL0     C47341   9.329   1.297   5.482  0.3685  0.0669 -0.3635
  344MOL0     O47342   9.447   1.372   5.496 -0.1792  0.1506  0.8228
  344MOL0     C47343   9.566   1.323   5.421  0.1473 -0.5578  0.3547
  344MOL0     C47344   9.689   1.380   5.492 -0.6294 -0.0820 -0.3351
  344MOL0     C47345   9.816   1.322   5.433 -0.4265  0.3106  0.1421
  344MOL0     C47346   9.938   1.362   5.524  0.6887 -1.1312  0.0609
  344MOL0     C47347  10.063   1.298   5.474 -0.4512  0.5215 -0.1236
  344MOL0     C47348  10.178   1.348   5.560 -0.5306 -0.4741 -0.0371
  344MOL0     C47349  10.315   1.298   5.511 -0.5794  0.1217  0.4426
  344MOL0     C47350  10.438   1.361   5.588 -0.3946  0.6803 -0.1951
  344MOL0     N47351  10.510   1.469   5.516 -0.1352  1.0970 -0.4745
  344MOL0     C47352  10.642   1.455   5.466 -0.0795 -0.4564  0.3629
  344MOL0     C47353  10.677   1.583   5.436 -0.6258  0.5090 -0.4658
  344MOL0     C47354  10.810   1.628   5.397 -0.1693 -0.3921 -0.3219
  344MOL0     C47355  10.912   1.582   5.511  0.1150 -0.4178  0.4284
  344MOL0     C47356  10.905   1.680   5.629 -0.1937  0.0331 -0.8916
  344MOL0     C47357  10.974   1.626   5.746 -0.2932  0.7095  0.0701
  344MOL0     O47358  11.112   1.638   5.722  0.0176  0.1286  0.2904
  344MOL0     C47359  11.202   1.603   5.825  0.6714 -0.0020  1.3132
  344MOL0     C47360  11.335   1.630   5.794 -0.1075  0.5565 -0.0252
  344MOL0     C47361  11.431   1.602   5.892  0.5403 -0.7843 -0.3218
  344MOL0     C47362  11.573   1.623   5.845 -0.4031 -0.0044  0.4536
  344MOL0     C47363  11.389   1.569   6.029 -0.1822 -0.5588 -1.4998
  344MOL0     C47364  11.484   1.570   6.141  0.3159  0.3847  0.3305
  344MOL0     O47365  11.421   1.566   6.262  0.5808  0.7474  0.0216
  344MOL0     C47366  11.462   1.484   6.373 -0.0819  0.1146  1.0346
  344MOL0     C47367  11.378   1.387   6.424 -0.0194  0.7636 -0.9098
  344MOL0     C47368  11.426   1.304   6.524  0.4144 -0.9652  0.2759
  344MOL0     C47369  11.557   1.313   6.571  0.1815  0.7271 -0.2909
  344MOL0     O47370  11.596   1.220   6.663 -0.1105 -0.0036  0.3052
  344MOL0     C47371  11.740   1.204   6.682 -0.5777 -0.2479  0.4017
  344MOL0     C47372  11.765   1.093   6.777  0.7142  0.4136  0.0585
  344MOL0     C47373  11.705   1.137   6.915  0.4458  0.0921 -0.3565
  344MOL0     C47374  11.785   1.068   7.025 -0.2985 -0.4526  0.0566
  344MOL0     C47375  11.912   1.145   7.060  0.6172  1.2622  0.0502
  344MOL0     C47376  11.992   1.062   7.151  0.4357  0.2885 -0.3425
  344MOL0     C47377  12.060   0.946   7.083  0.0308 -0.1686  0.5027
  344MOL0     C47378  12.171   0.982   6.992  0.7932  0.4740  0.4773
  344MOL0    Cl47379  12.293   0.854   6.990 -0.3447  0.0126 -0.1814
  344MOL0     C47380  11.645   1.412   6.524  0.6260  0.4623 -0.6897
  344MOL0     C47381  11.588   1.503   6.426 -0.3358  0.5561  0.4622
  344MOL0     O47382  11.608   1.550   6.135  0.9251 -0.4364  0.0019
  344MOL0     C47383  11.253   1.543   6.055  0.5772 -0.0554  0.1698
  344MOL0     C47384  11.163   1.554   5.943  0.0492 -0.5932 -0.4000
  344MOL0     N47385  10.575   1.664   5.477 -0.2166  0.8114  0.2244
  344MOL0     N47386  10.465   1.600   5.520  0.3634 -0.5156 -0.5057
  344MOL0     C47387   9.286   1.250   5.359 -1.1745 -0.7488  0.6774
  344MOL0     C47388   9.169   1.176   5.345  0.4640  0.1689  0.3012
  344MOL0     C47389   8.844   0.883   5.461  0.4118 -0.1854  0.8325
  344MOL0     C47390   8.778   0.790   5.539  0.2752 -0.5248  0.0119
  344MOL0     C47391   8.672   0.714   5.492  0.1543 -0.0515 -0.6459
  344MOL0     C47392   8.622   0.730   5.362 -0.1283 -0.5816 -1.0197
  344MOL0     O47393   8.530   0.636   5.317  0.2909 -0.3521 -0.4648
  344MOL0     C47394   8.401   0.649   5.375 -0.1017 -0.3092  0.8860
  344MOL0     C47395   8.285   0.638   5.283  0.7086 -0.8341  1.3783
  344MOL0     C47396   8.151   0.671   5.347 -0.7339 -0.1477 -0.1173
  344MOL0     C47397   8.033   0.678   5.247  0.7700 -0.6759 -0.5027
  344MOL0     C47398   7.907   0.680   5.319  0.8900  0.7056 -0.8339
  344MOL0     C47399   7.794   0.679   5.378 -0.3549 -0.7506  0.4631
  344MOL0     C47400   8.693   0.819   5.281 -0.4759  0.1118  0.0622
  344MOL0     C47401   8.800   0.904   5.327  1.1994 -0.1589  0.5312
  344MOL0     C47402   8.865   0.991   5.215 -0.6356 -0.3162 -0.0689
  344MOL0     H47403   9.090   1.184   5.679 -1.2898  1.4071 -1.0491
  344MOL0     H47404   9.292   1.312   5.692  4.9568 -1.3333 -1.2883
  344MOL0     H47405   9.558   1.358   5.318 -0.8790 -0.4576  0.4566
  344MOL0     H47406   9.570   1.214   5.430  2.2731 -0.4563  1.1191
  344MOL0     H47407   9.678   1.486   5.469  2.1352  0.6476  1.2580
  344MOL0     H47408   9.687   1.363   5.600 -1.9896 -1.8296 -0.5736
  344MOL0     H47409   9.818   1.213   5.441 -0.6539  0.3948  1.6701
  344MOL0     H47410   9.818   1.356   5.329 -1.4413  1.8233  0.5888
  344MOL0     H47411   9.961   1.469   5.519  1.1885 -1.1615  1.3555
  344MOL0     H47412   9.926   1.339   5.630  1.3556  0.6213  0.5534
  344MOL0     H47413  10.073   1.321   5.367  2.7564 -0.5706 -0.1786
  344MOL0     H47414  10.063   1.189   5.470  0.6221  0.4997  0.1046
  344MOL0     H47415  10.176   1.458   5.553  1.3687 -0.4432 -0.8354
  344MOL0     H47416  10.162   1.315   5.663 -0.7326  1.8735  0.7523
  344MOL0     H47417  10.316   1.304   5.402  1.7124  3.2316  0.5182
  344MOL0     H47418  10.330   1.190   5.524  5.0205  0.4683 -0.5950
  344MOL0     H47419  10.415   1.405   5.685 -1.4485 -1.9651  0.8632
  344MOL0     H47420  10.502   1.274   5.609 -3.2753 -1.5860 -0.0920
  344MOL0     H47421  10.707   1.368   5.466  0.5540 -0.0249 -1.4581
  344MOL0     H47422  10.820   1.735   5.379 -0.2946 -0.2706  0.2803
  344MOL0     H47423  10.842   1.578   5.306  2.0926  0.1872  0.0862
  344MOL0     H47424  10.899   1.477   5.539 -2.0697  0.1792  1.9649
  344MOL0     H47425  11.003   1.595   5.453 -1.1652 -0.6033 -1.7273
  344MOL0     H47426  10.959   1.768   5.593  1.5265 -0.6950 -0.1833
  344MOL0     H47427  10.800   1.705   5.649 -0.3382  0.6099 -2.2247
  344MOL0     H47428  10.945   1.679   5.837  0.0472 -0.7286  1.0604
  344MOL0     H47429  10.951   1.523   5.775  0.4905  1.3759  3.5864
  344MOL0     H47430  11.369   1.666   5.698 -0.2669  0.9318  0.0566
  344MOL0     H47431  11.586   1.571   5.750 -1.4290 -0.4542  0.5499
  344MOL0     H47432  11.651   1.582   5.910 -0.2834  0.8648  0.8778
  344MOL0     H47433  11.600   1.728   5.826  0.1397 -0.1008  0.6615
  344MOL0     H47434  11.279   1.380   6.381 -0.9828  0.2385  1.2509
  344MOL0     H47435  11.355   1.236   6.568 -1.8085  0.7886 -0.4274
  344MOL0     H47436  11.785   1.185   6.584  3.1701  0.3982  1.8661
  344MOL0     H47437  11.783   1.299   6.716 -2.0942  1.2372 -1.5223
  344MOL0     H47438  11.711   1.002   6.747 -0.9622  1.4168 -0.1048
  344MOL0     H47439  11.868   1.063   6.795  0.5089 -0.0270  0.5330
  344MOL0     H47440  11.605   1.093   6.912  1.0411 -1.3250 -0.2653
  344MOL0     H47441  11.718   1.245   6.924  3.0222 -0.1805 -0.0818
  344MOL0     H47442  11.792   0.965   6.988 -2.0113 -0.7736  0.5120
  344MOL0     H47443  11.716   1.070   7.111 -2.6247  2.1388 -1.6853
  344MOL0     H47444  11.975   1.177   6.977  1.9018 -0.4599  0.3064
  344MOL0     H47445  11.889   1.239   7.110 -3.4136  0.3309  0.2990
  344MOL0     H47446  11.926   1.017   7.226  1.1876  0.7382  0.6148
  344MOL0     H47447  12.066   1.123   7.204 -2.2136  3.0426  0.4509
  344MOL0     H47448  11.990   0.882   7.030  2.1393 -0.6578 -1.8434
  344MOL0     H47449  12.109   0.898   7.169 -0.8025  0.9034  1.6252
  344MOL0     H47450  12.208   1.083   7.009 -1.1143  1.1917  0.5776
  344MOL0     H47451  12.125   0.983   6.892  1.6053 -2.2748 -0.0119
  344MOL0     H47452  11.752   1.424   6.539  0.3906  0.0799  1.5267
  344MOL0     H47453  11.661   1.569   6.380 -1.3421  0.8788 -0.7232
  344MOL0     H47454  11.211   1.521   6.153  1.6935  0.4216  0.7758
  344MOL0     H47455  11.061   1.529   5.970 -0.3160 -0.5519 -1.7063
  344MOL0     H47456   9.353   1.271   5.276  2.4832 -1.2442  3.2369
  344MOL0     H47457   9.134   1.145   5.247  2.3948 -1.8796  0.2043
  344MOL0     H47458   8.808   0.772   5.642 -5.0151 -0.0525  1.9431
  344MOL0     H47459   8.639   0.636   5.559  1.3322 -0.2473 -0.2696
  344MOL0     H47460   8.395   0.575   5.455  1.3276 -2.1547 -0.6405
  344MOL0     H47461   8.392   0.747   5.424  2.5921 -0.2953  1.4559
  344MOL0     H47462   8.287   0.541   5.231 -0.5740  0.1926 -0.7288
  344MOL0     H47463   8.308   0.723   5.218 -0.4953  1.5131  3.8161
  344MOL0     H47464   8.130   0.602   5.430 -1.8456 -0.9403 -1.0278
  344MOL0     H47465   8.160   0.771   5.392  1.3317  0.1544 -1.0844
  344MOL0     H47466   8.038   0.598   5.172  1.0948 -0.8686 -0.2807
  344MOL0     H47467   8.040   0.771   5.190 -0.7173  1.0429  1.9591
  344MOL0     H47468   7.700   0.666   5.427 -0.9498 -2.0502 -0.9306
  344MOL0     H47469   8.651   0.830   5.181  4.2987  0.9576 -2.1427
  344MOL0     H47470   8.955   0.942   5.175 -2.3298 -0.1191 -4.8319
  344MOL0     H47471   8.792   1.004   5.134 -0.4762 -0.8999 -0.3145
  344MOL0     H47472   8.885   1.096   5.237  0.1823  0.1640 -2.7145
  345MOL0     O47473   3.223   8.412   6.064 -0.8843 -0.2179 -0.6219
  345MOL0     C47474   3.203   8.295   6.085  0.0213 -0.2915  0.3850
  345MOL0     O47475   3.190   8.237   6.211 -0.0212 -0.0458  0.5497
  345MOL0     C47476   3.229   8.302   6.328 -0.6320 -0.5509  0.5448
  345MOL0     C47477   3.127   8.316   6.423 -0.5367  0.7585  0.7304
  345MOL0     C47478   3.149   8.401   6.529 -0.5018  0.2394 -0.2732
  345MOL0     C47479   3.283   8.460   6.548  1.4609 -0.6165 -0.3332
  345MOL0     O47480   3.319   8.538   6.655 -0.4563  0.4411  0.0416
  345MOL0     C47481   3.252   8.513   6.774  0.0136  0.9071 -0.6601
  345MOL0     C47482   3.318   8.561   6.908  0.7086  0.0847 -0.8195
  345MOL0     C47483   3.446   8.491   6.946 -0.6429  0.6299  0.0413
  345MOL0     C47484   3.511   8.554   7.063  0.5942  0.6108 -0.3350
  345MOL0     C47485   3.655   8.501   7.083  0.6805 -0.0476  0.1917
  345MOL0     C47486   3.673   8.348   7.079 -0.0642  0.2187  0.0876
  345MOL0     C47487   3.815   8.307   7.115  0.4451  0.6234  0.8305
  345MOL0     C47488   3.839   8.156   7.120  0.4875 -1.1470 -0.2125
  345MOL0     N47489   3.788   8.097   6.991 -1.1719  0.1543  0.1887
  345MOL0     C47490   3.819   8.136   6.860 -0.0574  0.2211 -0.9594
  345MOL0     C47491   3.745   8.046   6.785 -0.0419  0.4360 -0.5567
  345MOL0     C47492   3.772   8.037   6.635 -0.3720  1.5118 -0.2830
  345MOL0     C47493   3.679   8.145   6.563  0.0752  0.1707 -0.2937
  345MOL0     C47494   3.672   8.111   6.415 -0.1317 -0.4015  1.4397
  345MOL0     C47495   3.799   8.084   6.346  0.1923  0.3824 -0.4676
  345MOL0     O47496   3.878   8.202   6.346  0.4002  0.2656 -0.2186
  345MOL0     C47497   4.015   8.191   6.303  0.1285  0.2803 -0.7594
  345MOL0     C47498   4.087   8.074   6.328  0.0411  0.8539  0.9244
  345MOL0     C47499   4.219   8.053   6.291  0.3659 -0.2473 -0.1532
  345MOL0     C47500   4.270   7.910   6.304 -0.3098 -0.3736  0.5358
  345MOL0     C47501   4.289   8.156   6.223 -0.7465  0.3582  0.1310
  345MOL0     C47502   4.436   8.144   6.183 -0.7349  0.5714  0.4345
  345MOL0     O47503   4.501   8.261   6.154 -0.2132 -0.2264 -0.5048
  345MOL0     C47504   4.639   8.269   6.165  0.4821  0.0012 -0.5159
  345MOL0     C47505   4.718   8.186   6.260  0.5648  0.2786  0.9127
  345MOL0     C47506   4.863   8.203   6.260  0.5826 -0.2184 -0.0660
  345MOL0     C47507   4.925   8.301   6.178 -0.0646  0.3220  0.0633
  345MOL0     O47508   5.057   8.330   6.177  1.2641 -0.2395  0.1446
  345MOL0     C47509   5.124   8.263   6.074 -0.6241 -0.2374  0.4073
  345MOL0     C47510   5.273   8.312   6.081 -0.1038  0.0604  0.1699
  345MOL0     C47511   5.299   8.451   6.014  0.5557  0.0259 -0.0309
  345MOL0     C47512   5.447   8.490   6.044 -0.1935 -0.3313 -0.1757
  345MOL0     C47513   5.480   8.644   6.025 -0.2354 -0.1560 -0.3445
  345MOL0     C47514   5.626   8.676   6.048 -0.1311 -0.3222  0.1988
  345MOL0     C47515   5.708   8.635   5.931  0.5197 -0.6249 -0.0351
  345MOL0     C47516   5.829   8.729   5.916 -0.4167  0.1129 -0.4275
  345MOL0    Cl47517   5.920   8.741   6.073 -0.4663  0.4407 -0.3330
  345MOL0     C47518   4.845   8.366   6.078  0.7128  0.5508 -0.2960
  345MOL0     C47519   4.702   8.357   6.076 -0.3144  0.6106  0.6473
  345MOL0     O47520   4.480   8.035   6.160 -0.6137  0.6273  0.0631
  345MOL0     C47521   4.211   8.274   6.195  0.0314 -0.2365 -0.2184
  345MOL0     C47522   4.076   8.296   6.236 -0.6628 -0.6241 -0.4802
  345MOL0     N47523   3.669   7.971   6.870 -0.2866  0.3477 -0.3609
  345MOL0     N47524   3.686   8.011   6.992 -0.6606 -0.2686 -0.0467
  345MOL0     C47525   3.382   8.427   6.466  0.8029 -0.4503  0.3815
  345MOL0     C47526   3.353   8.364   6.346 -1.1315 -0.2695  0.5953
  345MOL0     C47527   3.166   8.207   5.965 -0.5752 -0.1476 -0.3276
  345MOL0     C47528   3.074   8.112   5.987  0.8184 -0.0227 -0.2460
  345MOL0     C47529   3.054   8.010   5.892 -0.1874  0.7023 -0.3554
  345MOL0     C47530   3.080   8.035   5.761  0.2796 -0.2911  0.0888
  345MOL0     O47531   3.014   7.950   5.675  0.1795  0.5635  0.2100
  345MOL0     C47532   3.042   7.967   5.529  1.1300  1.2456 -0.9518
  345MOL0     C47533   2.952   8.078   5.471  0.9984 -0.6570 -0.3018
  345MOL0     C47534   2.915   8.043   5.324 -0.1339 -0.3950 -0.2832
  345MOL0     C47535   2.925   8.163   5.237  0.2098 -0.8512 -0.8430
  345MOL0     C47536   2.901   8.118   5.101  0.5898  0.3914 -0.7777
  345MOL0     C47537   2.886   8.089   4.980 -0.5000  0.4872 -0.2964
  345MOL0     C47538   3.160   8.144   5.730 -0.0331  0.0693 -0.1421
  345MOL0     C47539   3.204   8.233   5.830 -0.6507 -0.5375 -0.0175
  345MOL0     C47540   3.311   8.332   5.787  0.0939  0.1770 -0.2658
  345MOL0     H47541   3.027   8.277   6.410  0.0834 -0.0412 -2.5018
  345MOL0     H47542   3.069   8.418   6.601 -0.5421  0.9738 -0.4807
  345MOL0     H47543   3.247   8.405   6.785  3.7515  0.8361  2.9272
  345MOL0     H47544   3.153   8.559   6.777  0.3010  1.4919  0.5170
  345MOL0     H47545   3.349   8.665   6.891  2.7970 -0.8533 -3.4911
  345MOL0     H47546   3.244   8.535   6.985  1.5499  2.3658  0.8790
  345MOL0     H47547   3.418   8.390   6.976  1.2448 -0.2477 -0.9762
  345MOL0     H47548   3.512   8.490   6.859 -0.3092 -1.4037  0.2675
  345MOL0     H47549   3.511   8.663   7.053 -0.4958  0.4356 -2.9774
  345MOL0     H47550   3.455   8.527   7.154  0.6872  1.0052 -0.1607
  345MOL0     H47551   3.699   8.538   7.176  0.5690  0.0149  0.2199
  345MOL0     H47552   3.721   8.536   7.003 -1.3888  0.7748 -1.2312
  345MOL0     H47553   3.609   8.298   7.153 -0.4365 -0.8997 -0.9678
  345MOL0     H47554   3.643   8.315   6.979 -0.1567  3.4623 -1.0516
  345MOL0     H47555   3.841   8.363   7.205  1.0978  1.1264  0.3408
  345MOL0     H47556   3.878   8.350   7.037  1.1037  2.0531  2.0895
  345MOL0     H47557   3.946   8.134   7.125  0.8352 -0.2761 -2.5797
  345MOL0     H47558   3.798   8.124   7.216  1.4661 -0.5850  0.4154
  345MOL0     H47559   3.885   8.211   6.819  0.6835  0.2712  0.2807
  345MOL0     H47560   3.752   7.939   6.590  0.6579  2.0251 -1.9677
  345MOL0     H47561   3.877   8.043   6.605 -0.1996  0.7018  0.1296
  345MOL0     H47562   3.575   8.128   6.593 -0.7650  1.3480 -2.3432
  345MOL0     H47563   3.706   8.248   6.588 -0.3215 -0.5747  3.8942
  345MOL0     H47564   3.598   8.031   6.403  0.1480 -0.2508 -2.8504
  345MOL0     H47565   3.618   8.193   6.365 -1.5511 -2.3285 -0.3587
  345MOL0     H47566   3.841   7.999   6.401 -2.2198 -1.7874 -1.7453
  345MOL0     H47567   3.776   8.061   6.242 -1.4737 -1.5577  0.2781
  345MOL0     H47568   4.038   7.990   6.378 -1.0694 -0.9085 -2.8008
  345MOL0     H47569   4.326   7.869   6.220  0.5828  3.0352 -0.7061
  345MOL0     H47570   4.181   7.848   6.319 -2.7319  1.9562 -2.7376
  345MOL0     H47571   4.325   7.901   6.399  0.3915 -0.8061  0.0976
  345MOL0     H47572   4.662   8.115   6.321  1.8249 -2.8589 -1.3121
  345MOL0     H47573   4.928   8.145   6.323 -0.0018 -1.2513 -0.3935
  345MOL0     H47574   5.127   8.155   6.092  1.9013 -0.0830  1.2345
  345MOL0     H47575   5.090   8.291   5.974 -3.3739 -0.6021  1.1489
  345MOL0     H47576   5.311   8.309   6.184  1.6529  5.0162 -0.0432
  345MOL0     H47577   5.333   8.238   6.027 -0.9644 -1.2283  0.9219
  345MOL0     H47578   5.236   8.530   6.056 -0.3360 -1.9072  2.5504
  345MOL0     H47579   5.271   8.443   5.909  0.1679 -2.1144  0.1881
  345MOL0     H47580   5.518   8.427   5.989  1.7958 -0.2455  2.1263
  345MOL0     H47581   5.459   8.467   6.150 -0.1663  2.7490  0.5822
  345MOL0     H47582   5.459   8.677   5.922  1.9788 -0.1693 -0.8486
  345MOL0     H47583   5.420   8.710   6.088 -1.0668 -1.8382  0.6828
  345MOL0     H47584   5.673   8.628   6.135 -0.3599 -1.6546 -0.3948
  345MOL0     H47585   5.640   8.784   6.061  0.7192  0.0500 -3.0319
  345MOL0     H47586   5.665   8.647   5.832  0.9593  1.1235 -0.0469
  345MOL0     H47587   5.741   8.532   5.951 -1.5165 -1.6294 -1.4743
  345MOL0     H47588   5.811   8.835   5.894  4.9568  1.6090  1.0031
  345MOL0     H47589   5.894   8.695   5.835  0.9294  2.0015 -0.1993
  345MOL0     H47590   4.890   8.426   6.000 -2.5187  1.9778 -1.2226
  345MOL0     H47591   4.647   8.417   6.004  0.9467  1.7051  0.5637
  345MOL0     H47592   4.269   8.357   6.155 -3.3907  1.9591 -1.0711
  345MOL0     H47593   4.037   8.394   6.212  2.1008  0.1677 -2.2023
  345MOL0     H47594   3.485   8.459   6.475  0.4719  0.2311  2.3595
  345MOL0     H47595   3.424   8.343   6.267 -0.1175  0.0978  1.3871
  345MOL0     H47596   3.042   8.103   6.090  1.6706  1.8049  0.2059
  345MOL0     H47597   2.993   7.924   5.919  0.2963  0.6754  0.7115
  345MOL0     H47598   3.143   7.998   5.503  1.1079  2.0077 -0.1758
  345MOL0     H47599   3.028   7.869   5.485  0.8108  0.1705  1.3630
  345MOL0     H47600   2.993   8.178   5.483  0.5150 -0.4675 -0.1852
  345MOL0     H47601   2.861   8.082   5.532  0.7557 -1.3492 -0.6034
  345MOL0     H47602   2.988   7.969   5.290 -0.0737  0.0324 -1.0962
  345MOL0     H47603   2.813   8.007   5.337  0.1349 -1.0981 -0.0674
  345MOL0     H47604   3.024   8.208   5.246 -0.8096  1.1784  1.4937
  345MOL0     H47605   2.842   8.229   5.262 -0.6942 -2.9433  2.3357
  345MOL0     H47606   2.854   8.048   4.886 -3.6386 -0.5817  1.1057
  345MOL0     H47607   3.188   8.160   5.626  2.1290 -0.6967  0.2627
  345MOL0     H47608   3.372   8.355   5.875 -3.2151  0.1713  2.2276
  345MOL0     H47609   3.378   8.298   5.708  2.8903  3.0905  0.6527
  345MOL0     H47610   3.263   8.422   5.748  0.4729  0.4368 -0.1504
  346MOL0     O47611   1.732   4.103   9.053  0.9852 -0.2489 -0.8670
  346MOL0     C47612   1.712   4.025   8.962 -0.5130  0.3440 -0.0544
  346MOL0     O47613   1.789   3.909   8.942  0.2089  0.0789  0.1232
  346MOL0     C47614   1.882   3.879   9.033  0.0665  0.4679 -0.4659
  346MOL0     C47615   2.000   3.957   9.057  0.2658 -0.3041 -0.3761
  346MOL0     C47616   2.080   3.934   9.169  0.5950  0.1288  0.3485
  346MOL0     C47617   2.062   3.819   9.253  0.3201  0.0788  1.0563
  346MOL0     O47618   2.145   3.770   9.343  0.5650  0.1732 -0.3885
  346MOL0     C47619   2.232   3.870   9.402  0.1680  0.1192 -1.1245
  346MOL0     C47620   2.281   3.829   9.534  0.7584  0.4288 -0.0187
  346MOL0     C47621   2.190   3.851   9.665  0.6520 -0.5766 -0.4153
  346MOL0     C47622   2.243   3.965   9.760  0.0556  1.0339 -0.4327
  346MOL0     C47623   2.153   3.966   9.893 -0.8709 -0.3453 -0.7827
  346MOL0     C47624   2.203   4.076   9.992 -0.7773 -0.6004 -0.1262
  346MOL0     C47625   2.357   4.097   9.993  1.1231  0.0660 -0.8617
  346MOL0     C47626   2.408   4.188  10.104  0.1759  0.9912 -0.4725
  346MOL0     N47627   2.413   4.109  10.227  0.3888 -0.6721  0.0825
  346MOL0     C47628   2.310   4.103  10.317 -0.1265  0.7145  0.1381
  346MOL0     C47629   2.340   3.989  10.389 -0.0659 -0.8655 -0.0678
  346MOL0     C47630   2.261   3.921  10.497 -0.0648 -0.7604  0.3469
  346MOL0     C47631   2.130   3.875  10.444 -0.3427 -0.1952 -0.1344
  346MOL0     C47632   2.136   3.755  10.352  0.1886 -0.1854  0.3823
  346MOL0     C47633   2.200   3.759  10.217 -0.3585 -0.0861 -0.6740
  346MOL0     O47634   2.153   3.648  10.146  0.0072  0.0763 -0.1654
  346MOL0     C47635   2.222   3.618  10.030  0.0115 -0.2459  0.1317
  346MOL0     C47636   2.340   3.669   9.977 -0.0781  0.1414  0.3250
  346MOL0     C47637   2.384   3.627   9.858 -0.7337 -0.3949  0.0445
  346MOL0     C47638   2.521   3.700   9.822 -0.4185 -0.4420 -0.6285
  346MOL0     C47639   2.323   3.524   9.785 -0.0238  0.0832  0.2884
  346MOL0     C47640   2.374   3.463   9.656 -0.6091  0.3669 -0.3404
  346MOL0     O47641   2.302   3.356   9.597 -0.2198  0.5835  0.7266
  346MOL0     C47642   2.359   3.308   9.480 -0.3764  0.0469 -0.3298
  346MOL0     C47643   2.329   3.370   9.360  0.9535  0.2728 -0.0263
  346MOL0     C47644   2.370   3.316   9.240 -0.6619  0.4751  0.3529
  346MOL0     C47645   2.442   3.196   9.233  0.7301  0.0822 -0.8190
  346MOL0     O47646   2.480   3.129   9.127  0.4185  0.1584 -0.2679
  346MOL0     C47647   2.558   3.198   9.030 -0.3530  0.5824  0.1547
  346MOL0     C47648   2.656   3.104   8.960  1.5306  0.2889  0.3910
  346MOL0     C47649   2.790   3.094   9.038 -1.5623  0.1353  0.5402
  346MOL0     C47650   2.863   2.972   8.963 -0.2974 -0.1318 -1.0175
  346MOL0     C47651   3.005   2.959   9.018  0.9417 -0.0805  0.1464
  346MOL0     C47652   3.078   2.854   8.939 -0.2723  0.7098  1.0493
  346MOL0     C47653   3.231   2.859   8.973  0.8602  0.4648  0.1129
  346MOL0     C47654   3.307   2.763   8.881  0.0539 -0.3031 -0.2767
  346MOL0    Cl47655   3.330   2.850   8.728  0.0920 -0.0115  0.3054
  346MOL0     C47656   2.470   3.131   9.350 -0.7471 -0.0378  0.6686
  346MOL0     C47657   2.423   3.180   9.477 -0.5792 -0.4750  0.0360
  346MOL0     O47658   2.479   3.509   9.604  0.7364 -0.8332 -0.4028
  346MOL0     C47659   2.197   3.467   9.830  0.3385 -0.2382 -0.0998
  346MOL0     C47660   2.155   3.513   9.956  0.0578  0.1083  0.5026
  346MOL0     N47661   2.465   3.943  10.360 -1.0068 -0.3178  0.5049
  346MOL0     N47662   2.511   4.013  10.256  0.4509 -0.5623  0.1067
  346MOL0     C47663   1.948   3.742   9.225  0.3725  0.0014  0.6688
  346MOL0     C47664   1.854   3.778   9.119  0.4696 -0.4382  0.4664
  346MOL0     C47665   1.594   4.057   8.871 -0.4507  0.0894 -0.3868
  346MOL0     C47666   1.500   4.156   8.909  0.0868 -0.7566  0.4728
  346MOL0     C47667   1.400   4.196   8.811  0.8112 -0.5030 -0.0277
  346MOL0     C47668   1.376   4.130   8.695 -0.7033 -0.2695 -0.0429
  346MOL0     O47669   1.266   4.180   8.616  0.3255 -0.5044 -0.3372
  346MOL0     C47670   1.240   4.102   8.495 -0.2234  0.1917  0.9120
  346MOL0     C47671   1.120   4.160   8.419 -0.3075 -0.4387  0.7932
  346MOL0     C47672   1.005   4.201   8.505  0.1709  0.7839 -0.4921
  346MOL0     C47673   0.937   4.078   8.570  1.0926 -0.1650  0.6173
  346MOL0     C47674   0.841   4.135   8.665 -0.3205  0.3059  0.9838
  346MOL0     C47675   0.769   4.200   8.735  1.1330 -0.3236  0.3193
  346MOL0     C47676   1.464   4.030   8.649 -0.7960 -0.0651 -0.7121
  346MOL0     C47677   1.564   3.985   8.743 -0.6344  0.1764 -0.0925
  346MOL0     C47678   1.657   3.883   8.695  1.0718 -0.2884  0.2434
  346MOL0     H47679   2.026   4.036   8.987 -0.0562 -0.9679 -1.2690
  346MOL0     H47680   2.158   4.007   9.188 -0.5326  0.9918  2.0090
  346MOL0     H47681   2.186   3.968   9.386 -0.8455 -0.4486 -1.8267
  346MOL0     H47682   2.318   3.866   9.334  1.1622 -0.4458  0.1185
  346MOL0     H47683   2.295   3.721   9.522  0.5001  0.6137 -2.6074
  346MOL0     H47684   2.381   3.869   9.549  1.3297  0.0328 -2.3591
  346MOL0     H47685   2.084   3.866   9.643 -0.1601 -0.7829  2.8993
  346MOL0     H47686   2.179   3.764   9.731 -1.4645  1.0440  1.5359
  346MOL0     H47687   2.349   3.951   9.782  0.0114  0.6071 -0.4775
  346MOL0     H47688   2.239   4.058   9.703  0.5806  0.2967 -1.7157
  346MOL0     H47689   2.148   3.878   9.957 -1.6738  1.7773  2.3347
  346MOL0     H47690   2.057   3.996   9.851  0.5574  1.7610 -2.8422
  346MOL0     H47691   2.156   4.171   9.964  0.3176  0.1043  0.3690
  346MOL0     H47692   2.166   4.049  10.091 -0.3640 -0.8259 -0.0299
  346MOL0     H47693   2.382   4.143   9.897  0.2490  0.6908 -0.8031
  346MOL0     H47694   2.417   4.006  10.003  1.8131  0.7283  2.4141
  346MOL0     H47695   2.509   4.211  10.068  0.0299  0.4567 -1.2474
  346MOL0     H47696   2.351   4.281  10.115  0.2097  0.7989  1.6080
  346MOL0     H47697   2.220   4.162  10.333  0.0570  0.9501  0.3044
  346MOL0     H47698   2.247   3.994  10.577 -1.4743  0.3027 -0.7953
  346MOL0     H47699   2.322   3.835  10.526  2.1839  1.4490  2.7212
  346MOL0     H47700   2.077   3.842  10.534 -1.3734  0.7819 -0.3561
  346MOL0     H47701   2.074   3.958  10.399 -0.8573 -1.2039 -1.4330
  346MOL0     H47702   2.173   3.671  10.412 -0.2891 -2.0105 -1.7665
  346MOL0     H47703   2.030   3.736  10.331 -0.4523  1.4964  1.7764
  346MOL0     H47704   2.168   3.854  10.173  0.6184 -0.0755 -1.3805
  346MOL0     H47705   2.309   3.754  10.229 -0.1052  1.9531 -1.6898
  346MOL0     H47706   2.390   3.750  10.029 -1.6935  1.5936 -0.2850
  346MOL0     H47707   2.533   3.791   9.881  0.7246 -0.6614 -0.5016
  346MOL0     H47708   2.529   3.740   9.721  1.3293  0.3737 -0.1905
  346MOL0     H47709   2.598   3.624   9.840 -0.6596 -0.4391  0.4945
  346MOL0     H47710   2.281   3.467   9.363  3.0322  1.3573  1.4206
  346MOL0     H47711   2.359   3.363   9.143  2.6668 -0.5922 -0.6845
  346MOL0     H47712   2.494   3.250   8.958  0.4077  0.3584 -0.7043
  346MOL0     H47713   2.620   3.271   9.083  2.1724 -0.9336 -0.5213
  346MOL0     H47714   2.619   3.001   8.956  0.0776  0.8334 -1.2707
  346MOL0     H47715   2.667   3.133   8.855 -0.4944 -1.4367 -0.3710
  346MOL0     H47716   2.780   3.088   9.146 -0.6530  0.8302  0.6724
  346MOL0     H47717   2.842   3.188   9.020 -2.2985  0.1015 -2.3111
  346MOL0     H47718   2.867   2.990   8.855  2.2175 -0.0852 -0.9890
  346MOL0     H47719   2.804   2.885   8.990 -1.7008  0.3827 -2.2922
  346MOL0     H47720   3.048   3.058   9.001  1.5185 -0.3865 -0.2008
  346MOL0     H47721   2.997   2.927   9.122 -0.7163  0.2655  0.1556
  346MOL0     H47722   3.068   2.867   8.831 -1.1269  0.1198  1.0466
  346MOL0     H47723   3.030   2.758   8.963 -0.7661  0.6471 -0.1142
  346MOL0     H47724   3.254   2.840   9.078  0.3431  1.4130  0.4185
  346MOL0     H47725   3.259   2.965   8.964 -2.7500  1.6467  0.8012
  346MOL0     H47726   3.259   2.666   8.869 -1.6372  0.5000 -0.1902
  346MOL0     H47727   3.407   2.754   8.925  0.7596  0.9951 -1.5387
  346MOL0     H47728   2.516   3.034   9.338 -0.4213  0.1360  0.5059
  346MOL0     H47729   2.437   3.124   9.568  0.1608  0.4431  0.5055
  346MOL0     H47730   2.143   3.385   9.784 -1.3646 -1.1562  3.2688
  346MOL0     H47731   2.065   3.465   9.994  0.5930 -0.8265  0.6184
  346MOL0     H47732   1.933   3.644   9.271  0.1736 -0.2855  0.0125
  346MOL0     H47733   1.762   3.725   9.098  0.1032  1.7321 -4.8094
  346MOL0     H47734   1.501   4.212   9.002  3.3472  1.0703 -0.5061
  346MOL0     H47735   1.326   4.274   8.823  2.2603  0.5269  3.0780
  346MOL0     H47736   1.329   4.105   8.432 -0.8853  1.3877 -0.0300
  346MOL0     H47737   1.229   3.998   8.525 -2.1490  0.0178 -0.1877
  346MOL0     H47738   1.087   4.089   8.343 -0.4307 -3.2174  3.2770
  346MOL0     H47739   1.158   4.246   8.363 -2.0547 -0.5607 -0.6621
  346MOL0     H47740   1.038   4.271   8.582 -0.0468  0.5294 -0.1626
  346MOL0     H47741   0.935   4.256   8.442  0.6272 -0.5687 -2.2718
  346MOL0     H47742   1.004   4.011   8.625  1.1778 -0.0412  0.6660
  346MOL0     H47743   0.873   4.026   8.499 -0.7738  0.7518  1.5340
  346MOL0     H47744   0.706   4.253   8.803  0.5712 -0.3574 -0.1735
  346MOL0     H47745   1.466   3.979   8.553  0.8383 -4.0924  1.1996
  346MOL0     H47746   1.688   3.812   8.772 -0.9874  0.8261  2.2205
  346MOL0     H47747   1.609   3.825   8.615 -0.0220  0.8981  0.0171
  346MOL0     H47748   1.740   3.939   8.651 -0.1896  0.6606 -1.0214
  347MOL0     O47749   3.851   4.293  10.538 -0.0718  0.2067 -0.4866
  347MOL0     C47750   3.824   4.278  10.660 -0.1832 -0.7994  0.1587
  347MOL0     O47751   3.923   4.282  10.764  0.5492  0.2337  0.5161
  347MOL0     C47752   4.052   4.327  10.739  0.2470  0.2746 -0.3950
  347MOL0     C47753   4.151   4.227  10.734 -0.0339 -0.3589  0.0608
  347MOL0     C47754   4.285   4.257  10.726  0.1367 -0.0923 -0.3631
  347MOL0     C47755   4.320   4.383  10.716 -0.7336 -0.2021 -0.1309
  347MOL0     O47756   4.458   4.408  10.693 -0.1898  0.0767  0.0916
  347MOL0     C47757   4.499   4.547  10.706 -0.8589 -0.1980 -0.4395
  347MOL0     C47758   4.652   4.557  10.705  0.1644  0.0032  0.2605
  347MOL0     C47759   4.720   4.460  10.801  0.5421  0.8737  1.7474
  347MOL0     C47760   4.862   4.479  10.828  0.8115  0.3430 -0.3202
  347MOL0     C47761   4.938   4.506  10.701 -0.8648 -0.4002  0.2727
  347MOL0     C47762   5.085   4.538  10.730  0.4616  1.0206  0.2597
  347MOL0     C47763   5.170   4.532  10.601  0.1562  0.0191 -1.3963
  347MOL0     C47764   5.303   4.605  10.601 -0.8958  0.2485  0.0945
  347MOL0     N47765   5.400   4.527  10.683  0.3691 -0.2394  0.0753
  347MOL0     C47766   5.463   4.416  10.648  0.2902  0.5491  0.2832
  347MOL0     C47767   5.540   4.375  10.754 -0.1389  0.9761  0.0330
  347MOL0     C47768   5.623   4.252  10.765  0.1130  1.0783 -0.6066
  347MOL0     C47769   5.633   4.198  10.908  0.2750 -1.1070 -0.0774
  347MOL0     C47770   5.704   4.067  10.923  0.6953 -0.2530  0.0313
  347MOL0     C47771   5.722   4.023  11.062  0.5186 -0.2837  0.4409
  347MOL0     O47772   5.830   4.116  11.108 -0.9257  0.3643 -0.5007
  347MOL0     C47773   5.960   4.076  11.115 -0.0340 -0.2483 -0.0141
  347MOL0     C47774   6.059   4.167  11.164  0.1230 -0.7934 -0.3136
  347MOL0     C47775   6.198   4.154  11.157  0.6693  0.4188 -0.8327
  347MOL0     C47776   6.277   4.268  11.217 -0.4057  0.6633  0.0745
  347MOL0     C47777   6.253   4.033  11.107  0.4237  1.1129 -0.1372
  347MOL0     C47778   6.399   3.998  11.114  0.1498 -0.2637  0.1755
  347MOL0     O47779   6.424   3.877  11.055 -0.4226 -0.0052  0.3044
  347MOL0     C47780   6.556   3.835  11.052 -0.5351  0.0970 -0.6665
  347MOL0     C47781   6.576   3.709  11.099 -0.3171 -0.3863 -0.8770
  347MOL0     C47782   6.695   3.632  11.097  0.3027 -0.1766  0.4802
  347MOL0     C47783   6.805   3.696  11.035 -0.5716 -0.1191 -0.0004
  347MOL0     O47784   6.929   3.634  11.011  0.0155 -0.5714  0.1553
  347MOL0     C47785   6.946   3.501  11.061  0.3649  0.8696 -0.6330
  347MOL0     C47786   7.094   3.469  11.046 -0.4093 -0.1605  0.6869
  347MOL0     C47787   7.151   3.467  10.900  0.3453  1.0381 -0.2722
  347MOL0     C47788   7.306   3.461  10.913 -0.7002 -0.0241  0.7129
  347MOL0     C47789   7.376   3.487  10.785 -1.1384 -0.3896 -0.7018
  347MOL0     C47790   7.380   3.358  10.694 -0.0389 -0.2962 -0.3583
  347MOL0     C47791   7.467   3.375  10.559  0.2524 -0.4217  0.1413
  347MOL0     C47792   7.449   3.249  10.487  0.3675 -0.3558  0.2748
  347MOL0    Cl47793   7.598   3.208  10.389  0.3822 -0.3844  0.3827
  347MOL0     C47794   6.794   3.828  10.992 -0.2232 -0.3907  0.7790
  347MOL0     C47795   6.667   3.896  10.993  0.7676  0.4897 -0.1879
  347MOL0     O47796   6.487   4.067  11.161 -0.2018 -0.4556 -0.0507
  347MOL0     C47797   6.159   3.944  11.056  0.4535  0.0213  0.3806
  347MOL0     C47798   6.018   3.965  11.050 -0.6914  0.6258 -0.0721
  347MOL0     N47799   5.508   4.458  10.860  0.5990  0.3703 -0.7088
  347MOL0     N47800   5.431   4.549  10.817  0.3461 -0.0360  0.3737
  347MOL0     C47801   4.222   4.486  10.716 -0.1562  0.6959  0.1717
  347MOL0     C47802   4.088   4.458  10.722 -0.5395  0.0758 -0.0534
  347MOL0     C47803   3.681   4.277  10.707 -0.4695  0.3038 -0.1964
  347MOL0     C47804   3.655   4.326  10.840 -0.0752  0.3669  0.0007
  347MOL0     C47805   3.528   4.356  10.896  0.1548 -0.0301 -0.1591
  347MOL0     C47806   3.418   4.329  10.815  0.2238  0.8495  0.4467
  347MOL0     O47807   3.294   4.348  10.878  0.2073 -0.8658  0.2889
  347MOL0     C47808   3.212   4.451  10.813  0.0608 -0.3089  0.4795
  347MOL0     C47809   3.282   4.594  10.821 -0.0035  0.2779  0.4337
  347MOL0     C47810   3.187   4.707  10.794 -0.0156 -0.6155 -0.4815
  347MOL0     C47811   3.250   4.841  10.751  0.2230 -0.0708 -0.2949
  347MOL0     C47812   3.334   4.905  10.852  0.2628 -0.8341 -0.6797
  347MOL0     C47813   3.381   4.983  10.932 -0.2671 -0.2639 -1.1636
  347MOL0     C47814   3.441   4.282  10.688 -0.2880 -0.1308 -0.7222
  347MOL0     C47815   3.564   4.257  10.630 -1.1182 -0.6424  0.1247
  347MOL0     C47816   3.568   4.200  10.489 -0.1045  0.4909  0.5238
  347MOL0     H47817   4.120   4.124  10.743 -0.7250 -0.3366 -1.7887
  347MOL0     H47818   4.365   4.184  10.732 -0.1871 -0.3864  3.6768
  347MOL0     H47819   4.461   4.584  10.801 -0.4574  1.1693 -0.7963
  347MOL0     H47820   4.461   4.609  10.624 -0.4023  3.4961  1.9142
  347MOL0     H47821   4.688   4.545  10.603  3.0450  0.9158  1.0910
  347MOL0     H47822   4.673   4.657  10.745 -2.3358  0.5117  0.4629
  347MOL0     H47823   4.660   4.465  10.893 -1.9374  2.2593  0.1621
  347MOL0     H47824   4.706   4.360  10.758  0.8301  1.0295  1.2926
  347MOL0     H47825   4.883   4.563  10.896 -2.1126  0.4714  0.5939
  347MOL0     H47826   4.916   4.397  10.875 -0.9605 -0.9450 -0.4508
  347MOL0     H47827   4.892   4.596  10.659  1.6121  1.5311  1.4353
  347MOL0     H47828   4.917   4.418  10.640 -1.9230 -0.9371  1.3642
  347MOL0     H47829   5.090   4.639  10.770 -0.6696  1.3401 -0.3624
  347MOL0     H47830   5.134   4.461  10.791 -1.1830 -2.2588 -2.2182
  347MOL0     H47831   5.110   4.570  10.518 -0.4726  0.3572 -0.7901
  347MOL0     H47832   5.192   4.426  10.585  0.5263 -0.0884 -0.2486
  347MOL0     H47833   5.349   4.610  10.502 -1.5203  0.2968 -0.1982
  347MOL0     H47834   5.286   4.703  10.645  1.6949 -0.2261  2.4157
  347MOL0     H47835   5.458   4.371  10.550 -0.0662  0.4894  0.3261
  347MOL0     H47836   5.724   4.286  10.741  0.4337 -0.3156 -1.2798
  347MOL0     H47837   5.592   4.171  10.699  0.7598  1.1456 -0.9958
  347MOL0     H47838   5.691   4.277  10.955 -0.1294  0.7594 -2.5218
  347MOL0     H47839   5.533   4.185  10.952  0.2714  0.0557  0.2629
  347MOL0     H47840   5.641   3.993  10.871  1.3225  0.9255 -2.5511
  347MOL0     H47841   5.795   4.067  10.862  1.6244 -1.1745  1.3775
  347MOL0     H47842   5.633   4.039  11.123  0.1847  0.0294 -0.1170
  347MOL0     H47843   5.757   3.920  11.064  0.4873 -0.2863  2.1762
  347MOL0     H47844   6.025   4.265  11.195 -0.8516 -0.8614 -1.1217
  347MOL0     H47845   6.227   4.363  11.203 -0.9678  0.0124 -3.1565
  347MOL0     H47846   6.374   4.285  11.168 -0.8012 -0.8610 -1.3224
  347MOL0     H47847   6.296   4.251  11.324 -0.1417  2.2558  0.3014
  347MOL0     H47848   6.494   3.653  11.141 -0.0077  1.3434  2.3628
  347MOL0     H47849   6.698   3.532  11.138  0.5925 -1.3199 -2.1505
  347MOL0     H47850   6.914   3.494  11.165 -0.6937  1.8952 -0.8689
  347MOL0     H47851   6.891   3.437  10.991  0.0809  0.1606  0.2232
  347MOL0     H47852   7.162   3.533  11.105  1.1585 -1.8805  0.8536
  347MOL0     H47853   7.096   3.368  11.089 -0.5112 -0.1933  0.6115
  347MOL0     H47854   7.123   3.554  10.840 -0.0635  0.3985 -1.0414
  347MOL0     H47855   7.111   3.378  10.849 -1.9020  1.4272  0.6747
  347MOL0     H47856   7.328   3.363  10.956  2.4018 -0.7939 -2.2875
  347MOL0     H47857   7.328   3.540  10.986 -1.0967  1.1142 -0.3650
  347MOL0     H47858   7.330   3.581  10.750 -3.3262 -1.6249 -1.3304
  347MOL0     H47859   7.482   3.504  10.801 -0.6561 -2.2411 -1.6262
  347MOL0     H47860   7.274   3.334  10.679 -0.4809  0.3870  1.4175
  347MOL0     H47861   7.432   3.282  10.752  0.7690  0.6399  0.1704
  347MOL0     H47862   7.572   3.382  10.589  0.4832  3.1349 -1.0180
  347MOL0     H47863   7.430   3.456  10.495 -0.4521 -1.3611 -0.6656
  347MOL0     H47864   7.362   3.255  10.421  1.7051  0.6427 -1.4588
  347MOL0     H47865   7.437   3.169  10.561 -1.8908 -0.0205  0.3503
  347MOL0     H47866   6.887   3.877  10.962 -1.4480  0.5032 -1.9351
  347MOL0     H47867   6.664   3.999  10.959 -0.3531 -0.6432 -4.1438
  347MOL0     H47868   6.194   3.849  11.016 -0.0817 -0.1396  0.2762
  347MOL0     H47869   5.949   3.895  11.004 -1.1356 -0.5725  2.2834
  347MOL0     H47870   4.250   4.591  10.714  1.9458  0.1975 -2.3942
  347MOL0     H47871   4.014   4.538  10.724  0.5406  1.0904  0.0253
  347MOL0     H47872   3.734   4.343  10.912 -1.4247 -0.3543  1.7195
  347MOL0     H47873   3.515   4.388  10.999  0.0048  0.2544 -0.2675
  347MOL0     H47874   3.181   4.418  10.714  1.5978 -1.0646  0.2224
  347MOL0     H47875   3.118   4.462  10.867 -0.1214 -1.7532  0.4862
  347MOL0     H47876   3.374   4.600  10.762  1.2774  0.0566  2.3095
  347MOL0     H47877   3.322   4.603  10.922 -0.1576 -2.5353  0.8143
  347MOL0     H47878   3.126   4.668  10.712  0.7178 -2.3252 -0.2424
  347MOL0     H47879   3.128   4.725  10.885 -2.0454  0.1072 -1.8548
  347MOL0     H47880   3.162   4.903  10.731 -1.3061 -2.3037 -0.9886
  347MOL0     H47881   3.312   4.833  10.661  0.3382  1.0187 -0.3222
  347MOL0     H47882   3.421   5.063  10.992 -0.4532 -0.1697 -1.1630
  347MOL0     H47883   3.353   4.256  10.630 -0.6315  1.5243 -0.9817
  347MOL0     H47884   3.628   4.108  10.492  1.3187  1.3701  4.1990
  347MOL0     H47885   3.469   4.187  10.445  0.2729 -1.3823  0.1088
  347MOL0     H47886   3.624   4.274  10.431 -2.2625  2.3885  0.7405
  348MOL0     O47887   4.930   2.030   5.373 -0.5123  0.9452 -0.1484
  348MOL0     C47888   4.832   1.996   5.306 -0.1097  0.3067 -0.2272
  348MOL0     O47889   4.830   1.967   5.167  0.3265 -0.1269 -0.2875
  348MOL0     C47890   4.952   1.926   5.114  0.2021  0.6783 -0.8866
  348MOL0     C47891   4.988   1.788   5.100  0.7630 -0.1858  0.2324
  348MOL0     C47892   5.111   1.753   5.061  0.3772  0.3716  0.2127
  348MOL0     C47893   5.208   1.857   5.022 -0.5582  0.5257  0.1002
  348MOL0     O47894   5.332   1.817   4.977  0.5442  0.4856  0.7876
  348MOL0     C47895   5.332   1.758   4.842  0.4383 -0.2008 -0.0069
  348MOL0     C47896   5.345   1.869   4.736  0.1033 -0.6903  0.1123
  348MOL0     C47897   5.484   1.940   4.742  0.6593  0.6567 -0.2558
  348MOL0     C47898   5.479   2.029   4.616  0.6381  0.0604 -0.4593
  348MOL0     C47899   5.624   2.066   4.586 -0.8527 -0.2333  0.0242
  348MOL0     C47900   5.628   2.158   4.471  0.2044 -0.0946  0.1151
  348MOL0     C47901   5.758   2.231   4.440  0.0175 -0.1279  0.1487
  348MOL0     C47902   5.817   2.306   4.562  0.7884  0.1272 -0.1649
  348MOL0     N47903   5.933   2.377   4.523 -0.7772 -0.7431 -0.5988
  348MOL0     C47904   6.055   2.321   4.498  0.4639  0.2806 -0.3715
  348MOL0     C47905   6.139   2.425   4.467  0.2920  1.2324  0.5757
  348MOL0     C47906   6.283   2.424   4.427  0.0173  0.0960 -0.7932
  348MOL0     C47907   6.388   2.436   4.540  0.6808 -0.8696 -0.0287
  348MOL0     C47908   6.397   2.313   4.627  0.3731 -0.4499 -0.5829
  348MOL0     C47909   6.534   2.288   4.689  1.0503 -0.2087 -0.1404
  348MOL0     O47910   6.619   2.231   4.591 -0.4071 -0.0522  0.7662
  348MOL0     C47911   6.745   2.189   4.631 -1.0700  0.4788 -0.7262
  348MOL0     C47912   6.811   2.223   4.748  0.4293  0.0566  0.4272
  348MOL0     C47913   6.939   2.179   4.756 -0.5570  0.0322 -1.2303
  348MOL0     C47914   7.000   2.221   4.890  0.0215 -0.3839  1.1192
  348MOL0     C47915   7.015   2.118   4.655 -1.1178  1.4735  0.3920
  348MOL0     C47916   7.160   2.079   4.662  0.0529 -0.3712  0.0100
  348MOL0     O47917   7.220   2.029   4.767  0.5189 -0.7150  0.1854
  348MOL0     C47918   7.355   2.016   4.757  0.4321  0.0406 -0.1183
  348MOL0     C47919   7.441   2.117   4.796 -0.2829  1.4054  0.1205
  348MOL0     C47920   7.573   2.097   4.813 -0.2852  0.4228 -0.5499
  348MOL0     C47921   7.628   1.968   4.789 -0.1231  0.1752 -0.4538
  348MOL0     O47922   7.761   1.925   4.810  0.3139  0.2066  0.1552
  348MOL0     C47923   7.820   1.976   4.926 -0.6190  0.4323  0.4832
  348MOL0     C47924   7.970   1.958   4.910 -0.0212  0.7187 -0.1331
  348MOL0     C47925   8.019   1.831   4.987 -0.1717 -0.5674  0.2013
  348MOL0     C47926   7.994   1.699   4.908  0.1361  0.2925  0.3913
  348MOL0     C47927   8.068   1.584   4.962  1.2083  0.0342 -0.1054
  348MOL0     C47928   8.048   1.562   5.108 -0.7837 -0.6493  0.1769
  348MOL0     C47929   8.103   1.433   5.173 -0.9420  0.0941 -0.7750
  348MOL0     C47930   8.259   1.393   5.155  0.2670 -0.4124 -0.0707
  348MOL0    Cl47931   8.354   1.542   5.207 -0.3024 -0.3266  0.0108
  348MOL0     C47932   7.543   1.862   4.754  0.1402  0.1296  0.7806
  348MOL0     C47933   7.407   1.886   4.735  0.0963 -0.2517 -0.3087
  348MOL0     O47934   7.212   2.085   4.553  0.5168  0.8442 -0.2699
  348MOL0     C47935   6.943   2.074   4.542  0.1430 -0.3686  0.2320
  348MOL0     C47936   6.810   2.106   4.532  0.2348 -0.6422 -1.1340
  348MOL0     N47937   6.072   2.541   4.477 -0.4960  0.3314 -0.2960
  348MOL0     N47938   5.948   2.514   4.502  0.5413  0.5784  0.9296
  348MOL0     C47939   5.170   1.989   5.034  0.0378 -0.7853  0.0877
  348MOL0     C47940   5.043   2.029   5.082  0.9687 -0.4167  0.5002
  348MOL0     C47941   4.701   1.965   5.374  0.0052  0.2833  0.3892
  348MOL0     C47942   4.622   1.862   5.318 -0.3019  0.6587  0.2958
  348MOL0     C47943   4.494   1.830   5.361  0.3884 -0.5151 -0.1645
  348MOL0     C47944   4.435   1.897   5.475 -0.6713  0.2263  1.1620
  348MOL0     O47945   4.325   1.870   5.538  0.2242 -0.1288 -0.2186
  348MOL0     C47946   4.231   1.768   5.496  0.8382  0.0248  0.7548
  348MOL0     C47947   4.120   1.811   5.401 -0.1230  0.3850  0.0080
  348MOL0     C47948   4.177   1.833   5.261 -0.1166 -0.1029  0.6431
  348MOL0     C47949   4.069   1.886   5.159  0.2977 -0.7717 -0.6153
  348MOL0     C47950   3.974   1.779   5.124 -0.9865  0.0445 -0.2389
  348MOL0     C47951   3.898   1.692   5.088 -0.3352 -0.1055  0.3229
  348MOL0     C47952   4.520   1.999   5.532  0.0265  0.5630  0.5588
  348MOL0     C47953   4.649   2.037   5.481 -0.7837 -0.5413  0.8773
  348MOL0     C47954   4.714   2.164   5.523  0.8801 -0.8649 -0.0144
  348MOL0     H47955   4.921   1.706   5.124 -0.1219 -0.4911 -2.8307
  348MOL0     H47956   5.127   1.646   5.074 -1.2164  0.3382  2.5628
  348MOL0     H47957   5.236   1.706   4.841 -0.7000  1.7300  2.0513
  348MOL0     H47958   5.414   1.686   4.827  1.9885  1.7361 -1.3394
  348MOL0     H47959   5.319   1.829   4.637 -1.5897 -3.4496  1.5427
  348MOL0     H47960   5.275   1.948   4.763 -0.5668 -0.8792 -0.9912
  348MOL0     H47961   5.485   1.997   4.835  3.7130 -1.5363  1.2349
  348MOL0     H47962   5.560   1.863   4.732 -0.9920 -1.0874 -0.0481
  348MOL0     H47963   5.440   1.989   4.522  1.9719 -0.1763 -0.9375
  348MOL0     H47964   5.414   2.111   4.648  0.4698 -0.3477  0.2826
  348MOL0     H47965   5.680   1.976   4.561 -0.2617  0.5811 -1.7563
  348MOL0     H47966   5.673   2.111   4.673  1.3315 -2.6830  0.1933
  348MOL0     H47967   5.595   2.114   4.377 -1.0087 -1.3354  1.0956
  348MOL0     H47968   5.557   2.237   4.495  0.3917 -0.4852  2.2071
  348MOL0     H47969   5.734   2.304   4.362  1.9623  0.2781 -0.1057
  348MOL0     H47970   5.829   2.153   4.412  0.7166  1.3835 -2.6441
  348MOL0     H47971   5.739   2.378   4.587 -0.4303 -1.3703  0.5129
  348MOL0     H47972   5.830   2.242   4.650 -1.0299  0.5740  0.4783
  348MOL0     H47973   6.077   2.215   4.500 -0.3279  0.0937 -0.9401
  348MOL0     H47974   6.294   2.516   4.369  1.7700  0.7985  0.5735
  348MOL0     H47975   6.306   2.341   4.360  0.0961  2.1099 -3.3962
  348MOL0     H47976   6.478   2.436   4.478 -0.0170 -3.1630 -1.1473
  348MOL0     H47977   6.386   2.529   4.598 -2.0642 -0.0054 -1.3644
  348MOL0     H47978   6.322   2.322   4.706  1.3005 -0.9680  0.3815
  348MOL0     H47979   6.363   2.225   4.571  0.8885 -1.8808  1.2475
  348MOL0     H47980   6.588   2.371   4.736  2.0204 -1.7308  1.5817
  348MOL0     H47981   6.522   2.219   4.773  4.0653  0.5589  1.0684
  348MOL0     H47982   6.765   2.284   4.825  1.2496  1.8606 -0.4447
  348MOL0     H47983   7.095   2.274   4.881 -2.2260  3.7184 -3.0907
  348MOL0     H47984   7.012   2.130   4.948 -0.8439 -1.1093  0.2022
  348MOL0     H47985   6.941   2.302   4.935 -0.0540  0.3281 -0.1923
  348MOL0     H47986   7.405   2.215   4.826  1.5255  1.4625  2.3641
  348MOL0     H47987   7.634   2.181   4.844 -1.5551  2.1977 -2.5668
  348MOL0     H47988   7.800   2.083   4.940  1.5863  1.0735 -0.8001
  348MOL0     H47989   7.787   1.922   5.015 -0.2573  1.7162  1.4309
  348MOL0     H47990   8.001   1.952   4.805  0.5165  0.5534  0.0277
  348MOL0     H47991   8.026   2.042   4.953  0.7458 -0.4009  1.1655
  348MOL0     H47992   7.980   1.828   5.089 -0.3849  1.6264  0.2292
  348MOL0     H47993   8.128   1.840   4.997 -0.2413 -0.4556  0.8949
  348MOL0     H47994   8.022   1.716   4.804 -1.8178  1.4447  0.0074
  348MOL0     H47995   7.889   1.669   4.907 -0.0036  0.7917 -0.0693
  348MOL0     H47996   8.037   1.491   4.913  3.3764  0.0503 -1.6557
  348MOL0     H47997   8.176   1.597   4.943  1.0335 -1.2123 -2.3997
  348MOL0     H47998   7.943   1.559   5.138 -0.2047 -1.1789  2.3780
  348MOL0     H47999   8.096   1.641   5.167  1.6292  0.6263 -3.1818
  348MOL0     H48000   8.040   1.351   5.137 -0.7636  0.4544 -1.9513
  348MOL0     H48001   8.084   1.458   5.278  0.3819 -1.0265 -0.2448
  348MOL0     H48002   8.289   1.365   5.054  0.5059  0.9678 -0.4083
  348MOL0     H48003   8.278   1.313   5.228  1.2753  1.0050  1.3130
  348MOL0     H48004   7.582   1.763   4.734 -2.5632 -0.5600 -1.7434
  348MOL0     H48005   7.338   1.812   4.696 -1.8890  0.5422  1.5218
  348MOL0     H48006   7.002   2.014   4.473  0.4306  1.0164 -0.7642
  348MOL0     H48007   6.753   2.084   4.443  0.6421 -0.8983 -1.3365
  348MOL0     H48008   5.245   2.060   5.003  1.9975 -3.0351 -0.6538
  348MOL0     H48009   5.007   2.131   5.090  1.5280 -0.2471  0.9211
  348MOL0     H48010   4.676   1.797   5.250 -0.2212  0.9320  0.0923
  348MOL0     H48011   4.451   1.741   5.316  1.3045  1.0104 -4.5641
  348MOL0     H48012   4.281   1.675   5.467 -1.0068 -0.3095 -1.7780
  348MOL0     H48013   4.176   1.733   5.584 -2.9519 -0.9259 -1.7128
  348MOL0     H48014   4.081   1.900   5.452 -2.7821 -2.1575  2.8406
  348MOL0     H48015   4.043   1.734   5.403 -0.4000  0.6532  2.6460
  348MOL0     H48016   4.246   1.916   5.276  0.3065 -0.2470 -0.3770
  348MOL0     H48017   4.222   1.753   5.202 -1.1731  1.0779 -1.9677
  348MOL0     H48018   4.117   1.920   5.067  1.4146 -0.1035  0.1824
  348MOL0     H48019   4.016   1.967   5.211 -1.6304 -3.4433  1.8837
  348MOL0     H48020   3.840   1.611   5.049  2.1551 -2.1909  0.6354
  348MOL0     H48021   4.482   2.056   5.617 -3.9592 -1.6535  0.4943
  348MOL0     H48022   4.792   2.130   5.591  2.8610  3.4520  0.2484
  348MOL0     H48023   4.738   2.232   5.441 -1.7706 -1.5207 -1.4453
  348MOL0     H48024   4.649   2.227   5.585  0.6329  0.4940 -1.5928
  349MOL0     O48025   4.728   3.896   8.403 -0.2033  0.4378 -0.3421
  349MOL0     C48026   4.692   3.906   8.285 -0.3719  0.3725 -0.2355
  349MOL0     O48027   4.777   3.903   8.169  0.0156 -0.2668  0.3848
  349MOL0     C48028   4.913   3.893   8.204  0.1551  0.1766 -0.0464
  349MOL0     C48029   4.982   3.999   8.266  0.7372  0.7004 -0.7357
  349MOL0     C48030   5.119   3.989   8.291 -0.3592  0.7121  1.0588
  349MOL0     C48031   5.199   3.878   8.248  0.4984 -0.4645 -0.7532
  349MOL0     O48032   5.333   3.888   8.265 -0.0552  0.8264 -0.1210
  349MOL0     C48033   5.417   3.814   8.175  0.4184  0.3067  0.2447
  349MOL0     C48034   5.515   3.910   8.117 -0.2911 -0.1433 -0.6516
  349MOL0     C48035   5.603   3.974   8.227 -0.3100 -0.3571  0.1229
  349MOL0     C48036   5.718   4.059   8.172  0.2480  0.4696 -0.5143
  349MOL0     C48037   5.834   3.983   8.113 -0.1219 -0.3263  0.1782
  349MOL0     C48038   5.903   3.881   8.197 -0.0939 -0.7448 -0.0449
  349MOL0     C48039   6.033   3.832   8.130 -0.7918  0.6443  0.8147
  349MOL0     C48040   6.125   3.741   8.212 -0.0048 -0.2252  0.0927
  349MOL0     N48041   6.253   3.712   8.137 -0.3025  0.1977 -0.4485
  349MOL0     C48042   6.349   3.802   8.101 -0.5089 -0.0720 -0.3943
  349MOL0     C48043   6.449   3.739   8.036 -0.9895  0.7215 -0.1832
  349MOL0     C48044   6.567   3.793   7.956 -0.1476  0.1990 -0.0296
  349MOL0     C48045   6.699   3.723   7.994 -0.2351  0.3354 -0.0755
  349MOL0     C48046   6.820   3.794   7.927 -0.2409  0.5867  0.2640
  349MOL0     C48047   6.950   3.727   7.959 -0.4309 -0.1975 -0.0262
  349MOL0     O48048   7.051   3.817   7.899 -0.2033 -0.3852 -0.0687
  349MOL0     C48049   7.188   3.783   7.900 -0.1459  0.3960  0.0043
  349MOL0     C48050   7.246   3.661   7.925 -0.0627 -0.3103 -0.9951
  349MOL0     C48051   7.387   3.629   7.928 -0.6860 -0.0828  0.4948
  349MOL0     C48052   7.430   3.482   7.946 -0.3784 -0.5748  0.2594
  349MOL0     C48053   7.471   3.745   7.912 -0.7003 -0.0020  0.5679
  349MOL0     C48054   7.612   3.740   7.906 -0.6280  0.5285 -0.4583
  349MOL0     O48055   7.665   3.637   7.983  0.4156  0.2939 -0.4270
  349MOL0     C48056   7.794   3.599   7.973 -0.0999 -0.0006 -0.5582
  349MOL0     C48057   7.880   3.603   7.860 -0.6293  0.1964  0.5573
  349MOL0     C48058   8.019   3.575   7.873 -0.1042 -0.8289  0.2269
  349MOL0     C48059   8.070   3.541   8.000  0.7151  0.1555  0.3557
  349MOL0     O48060   8.199   3.509   8.029 -0.6103 -0.6667 -0.1975
  349MOL0     C48061   8.296   3.493   7.919  1.2781  0.0525 -0.1859
  349MOL0     C48062   8.432   3.481   7.973  0.0274  0.1757 -0.7060
  349MOL0     C48063   8.538   3.455   7.866  0.2908 -0.2655 -0.4451
  349MOL0     C48064   8.677   3.443   7.929  0.1519 -0.5369  1.1544
  349MOL0     C48065   8.719   3.569   7.994  0.2247 -0.3462  0.6233
  349MOL0     C48066   8.860   3.555   8.041 -0.4107  0.5503  0.1392
  349MOL0     C48067   8.904   3.695   8.096  0.0360  0.3569 -0.3488
  349MOL0     C48068   9.053   3.670   8.133  0.7271  0.3352 -0.8130
  349MOL0    Cl48069   9.091   3.832   8.208  0.2179  0.1248 -0.3915
  349MOL0     C48070   7.984   3.531   8.109 -0.7151 -0.0088 -0.0255
  349MOL0     C48071   7.849   3.561   8.094  0.5128 -0.0997  0.0040
  349MOL0     O48072   7.674   3.830   7.848  0.4320 -0.4871  0.0306
  349MOL0     C48073   7.415   3.872   7.882  0.3789  0.7726 -0.2362
  349MOL0     C48074   7.276   3.890   7.876 -0.1232  0.2622  0.8003
  349MOL0     N48075   6.410   3.610   8.032  0.2820  0.7232 -0.3975
  349MOL0     N48076   6.288   3.592   8.080  1.1774  0.0301 -0.2401
  349MOL0     C48077   5.131   3.773   8.188  0.3269  0.7268 -0.1481
  349MOL0     C48078   4.987   3.776   8.169  0.0505  0.7453 -1.2474
  349MOL0     C48079   4.550   3.919   8.260 -0.7800 -0.8917  0.7146
  349MOL0     C48080   4.501   3.964   8.131 -0.1315 -0.7132  0.3749
  349MOL0     C48081   4.366   3.978   8.109  0.3859  0.0254  0.6418
  349MOL0     C48082   4.275   3.929   8.199 -0.4053 -0.1154 -0.6338
  349MOL0     O48083   4.139   3.926   8.176  0.4861 -0.3063 -0.4108
  349MOL0     C48084   4.084   4.008   8.069 -1.0371 -0.0613 -0.3835
  349MOL0     C48085   3.929   3.995   8.075  0.2757 -0.4875  0.4192
  349MOL0     C48086   3.876   3.881   7.999  0.2356  0.0654  0.5992
  349MOL0     C48087   3.722   3.868   8.015  0.2575  1.0826  0.5117
  349MOL0     C48088   3.669   3.774   7.913  0.1851  0.3248 -0.3502
  349MOL0     C48089   3.624   3.690   7.844 -0.8320  0.1672  1.7199
  349MOL0     C48090   4.318   3.871   8.318  0.4712 -0.5907  0.2285
  349MOL0     C48091   4.448   3.873   8.357 -0.0277 -0.2120  0.2350
  349MOL0     C48092   4.477   3.812   8.492  0.0640  1.2085  0.3177
  349MOL0     H48093   4.933   4.094   8.284  0.9550  0.7018 -0.1269
  349MOL0     H48094   5.165   4.078   8.333  1.5325  0.5831 -0.5827
  349MOL0     H48095   5.359   3.774   8.092 -1.3956  2.4505  0.3931
  349MOL0     H48096   5.464   3.741   8.242 -2.6793 -0.0246  2.2870
  349MOL0     H48097   5.580   3.862   8.043 -0.9113  0.3162 -1.5113
  349MOL0     H48098   5.456   3.989   8.070  0.1553  0.4682 -0.2050
  349MOL0     H48099   5.540   4.041   8.288  1.4767  0.9037  0.6702
  349MOL0     H48100   5.651   3.895   8.285  0.4574  2.2070  3.3220
  349MOL0     H48101   5.677   4.126   8.095  0.9691  0.9353 -0.4986
  349MOL0     H48102   5.767   4.114   8.252  1.4232 -0.4692 -0.5671
  349MOL0     H48103   5.902   4.061   8.076 -1.2274  0.5901  0.0329
  349MOL0     H48104   5.800   3.933   8.022  2.4103  0.6337 -1.3868
  349MOL0     H48105   5.929   3.927   8.293  4.5520 -0.4705 -1.1768
  349MOL0     H48106   5.842   3.792   8.215  0.7355 -1.1129  1.1238
  349MOL0     H48107   6.091   3.920   8.100  1.6759 -0.8553  0.9813
  349MOL0     H48108   6.012   3.782   8.034 -0.8713  0.6122  0.8484
  349MOL0     H48109   6.154   3.793   8.304  1.0587  2.7401 -1.7682
  349MOL0     H48110   6.071   3.649   8.233  0.4148 -0.9647 -1.8380
  349MOL0     H48111   6.352   3.908   8.123  0.2089 -0.3191  0.7558
  349MOL0     H48112   6.581   3.900   7.974  2.4970 -0.5553  3.6568
  349MOL0     H48113   6.549   3.792   7.848  1.8441  1.8785 -0.4221
  349MOL0     H48114   6.722   3.726   8.101  3.4365  2.9788 -0.7184
  349MOL0     H48115   6.695   3.621   7.957 -0.0979  0.1936  0.2965
  349MOL0     H48116   6.798   3.796   7.820 -1.7698  0.0433  0.5378
  349MOL0     H48117   6.830   3.895   7.970  1.3160  0.8419 -0.6408
  349MOL0     H48118   6.962   3.722   8.068  0.3750 -1.2006 -0.1539
  349MOL0     H48119   6.965   3.628   7.915 -1.5807  0.3713 -1.7938
  349MOL0     H48120   7.192   3.576   7.966  2.5902 -0.6245  2.2770
  349MOL0     H48121   7.530   3.460   7.908 -0.9316  0.2859 -1.8577
  349MOL0     H48122   7.361   3.421   7.887  2.2520 -1.5157 -2.0743
  349MOL0     H48123   7.417   3.455   8.051 -2.5431 -0.1781  0.1309
  349MOL0     H48124   7.843   3.628   7.761 -1.1659  0.3130  0.7875
  349MOL0     H48125   8.077   3.557   7.783 -0.6362  0.5620 -0.4201
  349MOL0     H48126   8.270   3.397   7.872 -0.9138  1.6185 -2.4096
  349MOL0     H48127   8.289   3.573   7.846 -2.4542  2.2320  2.2601
  349MOL0     H48128   8.454   3.560   8.045  0.2344 -1.0016  0.5603
  349MOL0     H48129   8.419   3.391   8.034 -2.9562 -0.7230 -2.4766
  349MOL0     H48130   8.552   3.538   7.797 -3.1846 -0.0690 -1.1037
  349MOL0     H48131   8.518   3.364   7.808  3.0040 -0.8564 -0.5877
  349MOL0     H48132   8.753   3.402   7.862  0.2120 -1.9142  2.0185
  349MOL0     H48133   8.674   3.356   7.996  0.8398 -1.7548 -0.3217
  349MOL0     H48134   8.708   3.651   7.923  0.5382 -1.5251 -0.8487
  349MOL0     H48135   8.648   3.578   8.077  0.4271 -3.8960  1.3450
  349MOL0     H48136   8.922   3.512   7.961 -1.5863  2.4660 -1.9079
  349MOL0     H48137   8.863   3.488   8.128 -1.6994 -0.8457 -0.8585
  349MOL0     H48138   8.841   3.717   8.183 -0.1854 -0.1661 -0.3757
  349MOL0     H48139   8.898   3.773   8.019  2.9146 -0.4467 -1.5231
  349MOL0     H48140   9.113   3.648   8.044  1.5797  0.2794 -0.2347
  349MOL0     H48141   9.059   3.589   8.206  0.1893 -0.0191 -1.1543
  349MOL0     H48142   8.013   3.499   8.208  2.4316  0.2938 -0.7500
  349MOL0     H48143   7.798   3.556   8.189  2.6185 -1.9266  1.1485
  349MOL0     H48144   7.478   3.958   7.860  1.7259 -0.4042 -1.1390
  349MOL0     H48145   7.232   3.985   7.851 -1.5382 -0.7665 -0.8947
  349MOL0     H48146   5.179   3.681   8.155  0.7255  0.6339  0.6494
  349MOL0     H48147   4.934   3.691   8.126 -0.1908  0.0103  0.4274
  349MOL0     H48148   4.566   3.996   8.049  0.8007 -2.1910  0.5083
  349MOL0     H48149   4.334   4.015   8.012  3.1781  2.4914  0.5237
  349MOL0     H48150   4.114   4.112   8.085  2.8266 -0.8931 -1.2516
  349MOL0     H48151   4.120   3.978   7.970 -1.3315 -1.1146 -0.1806
  349MOL0     H48152   3.881   4.088   8.044  3.3154  1.0353 -0.0668
  349MOL0     H48153   3.896   3.982   8.178  2.0402 -0.9539  0.9623
  349MOL0     H48154   3.903   3.901   7.895  0.7392  0.0771  0.7299
  349MOL0     H48155   3.925   3.788   8.029  3.5806  1.6398  0.4981
  349MOL0     H48156   3.673   3.966   8.017 -1.0155  0.5750  4.8872
  349MOL0     H48157   3.706   3.828   8.116  0.6219 -1.5542 -0.3902
  349MOL0     H48158   3.595   3.599   7.794  0.6791  1.8007 -2.6501
  349MOL0     H48159   4.237   3.840   8.383 -1.9735  3.4916 -0.4437
  349MOL0     H48160   4.389   3.771   8.544 -0.0645 -1.3170 -1.6624
  349MOL0     H48161   4.530   3.718   8.473 -0.9680  1.0489 -2.2518
  349MOL0     H48162   4.527   3.884   8.556  2.2697 -1.5118  1.8952
  350MOL0     O48163  10.077   0.027   9.436 -0.3373  0.8331  0.0220
  350MOL0     C48164  10.015  -0.070   9.389  0.4867  0.1154 -0.4219
  350MOL0     O48165  10.053  -0.152   9.288  0.2000 -0.2598 -0.4529
  350MOL0     C48166  10.160  -0.123   9.203  0.6307  1.2751  0.0996
  350MOL0     C48167  10.159   0.002   9.146  1.0025  0.5232 -0.0876
  350MOL0     C48168  10.250   0.048   9.048 -0.7561  0.5027  0.6384
  350MOL0     C48169  10.347  -0.044   9.002  0.4178  0.5059 -0.4059
  350MOL0     O48170  10.441  -0.016   8.896  0.4940 -0.0449 -0.0826
  350MOL0     C48171  10.437   0.111   8.825 -0.3686  0.0323  0.6681
  350MOL0     C48172  10.532   0.081   8.709  0.2331  0.1126  0.6413
  350MOL0     C48173  10.677   0.072   8.759 -0.4738  0.0298  0.2132
  350MOL0     C48174  10.770   0.044   8.643 -0.2298  0.4893  0.2169
  350MOL0     C48175  10.910   0.020   8.708  0.3074 -0.5826  0.2946
  350MOL0     C48176  10.997   0.143   8.702 -0.2817  0.0802 -0.5681
  350MOL0     C48177  11.110   0.135   8.812  0.6640 -0.8504 -0.2079
  350MOL0     C48178  11.192  -0.003   8.820  0.3519  0.3774  0.4559
  350MOL0     N48179  11.311   0.028   8.907 -0.3252  0.0980 -0.8450
  350MOL0     C48180  11.419   0.102   8.864 -0.5160  0.5211 -0.0142
  350MOL0     C48181  11.518   0.078   8.950 -0.2207  0.6676 -0.0127
  350MOL0     C48182  11.661   0.120   8.932 -0.2396  1.0451  0.3985
  350MOL0     C48183  11.688   0.177   8.791 -0.3146 -0.7046 -0.8599
  350MOL0     C48184  11.835   0.225   8.788  0.4604 -0.0427 -0.0296
  350MOL0     C48185  11.877   0.259   8.645 -0.5663  0.2016 -0.1395
  350MOL0     O48186  11.995   0.337   8.633 -1.0703  0.1640  0.1405
  350MOL0     C48187  12.118   0.291   8.672  0.5607 -0.6766  0.1994
  350MOL0     C48188  12.211   0.393   8.675 -0.4936  0.0634 -0.0684
  350MOL0     C48189  12.342   0.368   8.719  0.5118 -0.5304 -0.7749
  350MOL0     C48190  12.445   0.477   8.730 -0.0175 -0.1942  0.5564
  350MOL0     C48191  12.380   0.237   8.759  0.9839  0.3021 -0.6335
  350MOL0     C48192  12.510   0.193   8.810 -0.3982  0.6650 -0.0251
  350MOL0     O48193  12.514   0.087   8.897  0.1429 -0.4915 -0.4411
  350MOL0     C48194  12.628   0.057   8.976  0.1963  0.4380  0.3756
  350MOL0     C48195  12.619   0.073   9.121 -0.4149  0.1969 -0.2818
  350MOL0     C48196  12.721   0.014   9.203 -0.4916  0.0379 -0.9128
  350MOL0     C48197  12.841  -0.032   9.148 -0.0610 -0.8158  0.2060
  350MOL0     O48198  12.962  -0.071   9.206  0.1040 -0.0476  0.8489
  350MOL0     C48199  12.987  -0.056   9.346  0.5882 -0.2820 -0.1189
  350MOL0     C48200  13.121  -0.129   9.375  0.1616  0.1595 -0.4835
  350MOL0     C48201  13.242  -0.062   9.305 -0.7612  0.1629 -0.2498
  350MOL0     C48202  13.378  -0.115   9.359  0.5972  0.9107  0.6521
  350MOL0     C48203  13.411  -0.055   9.494  0.2728 -0.3755  0.4405
  350MOL0     C48204  13.489  -0.154   9.585  0.0934  0.4439  0.1124
  350MOL0     C48205  13.504  -0.103   9.726  0.1201 -0.0960  0.4975
  350MOL0     C48206  13.573  -0.201   9.822 -0.2590 -0.1077  0.5880
  350MOL0    Cl48207  13.747  -0.215   9.792  0.0722  0.5758 -0.1694
  350MOL0     C48208  12.856  -0.031   9.011 -0.2218 -0.5955  0.3020
  350MOL0     C48209  12.741  -0.008   8.923 -0.2930 -0.0584  0.7085
  350MOL0     O48210  12.610   0.248   8.765 -0.2659  0.4243 -0.0410
  350MOL0     C48211  12.284   0.136   8.750 -0.5780  0.3818  0.0649
  350MOL0     C48212  12.155   0.160   8.704 -0.9131 -0.1970 -0.1351
  350MOL0     N48213  11.470  -0.011   9.042 -0.0127  0.1701 -0.1189
  350MOL0     N48214  11.346  -0.047   9.016 -1.0321  0.0390  0.1958
  350MOL0     C48215  10.334  -0.175   9.061  0.3373 -0.2258  1.0510
  350MOL0     C48216  10.247  -0.218   9.162  0.5424  0.1893 -0.1420
  350MOL0     C48217   9.891  -0.117   9.458  0.2872 -0.1699  0.8438
  350MOL0     C48218   9.858  -0.256   9.447 -0.3667 -0.4230 -0.0932
  350MOL0     C48219   9.744  -0.296   9.520 -0.7250 -0.9454 -0.8687
  350MOL0     C48220   9.667  -0.216   9.606 -0.1607 -0.4038  0.8201
  350MOL0     O48221   9.564  -0.282   9.673 -0.2147 -0.5386 -0.6502
  350MOL0     C48222   9.440  -0.202   9.704 -0.2296 -0.2093 -0.9467
  350MOL0     C48223   9.336  -0.299   9.743 -0.1065 -0.0554 -0.2262
  350MOL0     C48224   9.207  -0.233   9.795  0.0631 -0.3208  0.7831
  350MOL0     C48225   9.221  -0.112   9.889 -0.2564 -0.2228 -0.1760
  350MOL0     C48226   9.085  -0.064   9.914  0.4764 -0.2554  0.3746
  350MOL0     C48227   8.984  -0.000   9.915 -0.0227 -0.4067  1.1548
  350MOL0     C48228   9.698  -0.083   9.606 -0.1274  0.1593  0.0005
  350MOL0     C48229   9.809  -0.029   9.536  0.4475  0.1193  1.0860
  350MOL0     C48230   9.832   0.120   9.559  0.0049 -0.2649  0.1498
  350MOL0     H48231  10.084   0.068   9.190 -0.0076 -0.8366  0.2879
  350MOL0     H48232  10.251   0.148   9.007 -1.7962 -0.0409 -0.7662
  350MOL0     H48233  10.474   0.196   8.884  2.7173 -0.7241 -0.0059
  350MOL0     H48234  10.336   0.139   8.794  0.0161  0.3614 -0.3339
  350MOL0     H48235  10.502  -0.009   8.653 -0.4622  0.6686  0.1100
  350MOL0     H48236  10.524   0.163   8.637 -1.5154  0.8668  1.6597
  350MOL0     H48237  10.717   0.165   8.801  1.2684 -0.6088  0.0687
  350MOL0     H48238  10.682  -0.005   8.836 -0.2184  0.5054  0.6809
  350MOL0     H48239  10.748  -0.049   8.590 -0.2256  0.5112  0.1754
  350MOL0     H48240  10.764   0.120   8.565 -2.2752 -2.1429 -2.3962
  350MOL0     H48241  10.961  -0.058   8.650 -1.0457  0.3814 -2.3616
  350MOL0     H48242  10.897  -0.014   8.811 -3.4911 -0.7768 -0.1277
  350MOL0     H48243  11.039   0.150   8.601  0.3359  0.1509 -0.3117
  350MOL0     H48244  10.945   0.238   8.718  2.8094  1.9490 -0.7769
  350MOL0     H48245  11.068   0.164   8.909  3.0737  1.5628  0.2129
  350MOL0     H48246  11.184   0.210   8.782 -0.6174  0.0656 -1.2346
  350MOL0     H48247  11.135  -0.081   8.871 -0.0720  1.2569  1.3606
  350MOL0     H48248  11.220  -0.033   8.718 -0.9439 -1.0245  0.4881
  350MOL0     H48249  11.442   0.159   8.774  1.5514  0.0719  0.1860
  350MOL0     H48250  11.730   0.036   8.944 -3.2667 -1.6198  0.5415
  350MOL0     H48251  11.684   0.183   9.019  0.7958 -2.1293  2.6057
  350MOL0     H48252  11.672   0.093   8.723 -1.9121 -2.1457  1.1917
  350MOL0     H48253  11.621   0.259   8.767  0.8933  0.8772  0.8881
  350MOL0     H48254  11.844   0.316   8.848  1.0527  1.0439 -1.7082
  350MOL0     H48255  11.901   0.147   8.828 -0.3797 -0.3529  0.7738
  350MOL0     H48256  11.895   0.167   8.588  0.3885  0.2050  0.1277
  350MOL0     H48257  11.797   0.312   8.593  0.7781  1.1445 -1.3414
  350MOL0     H48258  12.193   0.494   8.638  4.4202  1.7837  1.4197
  350MOL0     H48259  12.391   0.567   8.700 -1.0844 -1.4452 -1.5268
  350MOL0     H48260  12.520   0.469   8.651  1.0907  1.4134  1.4079
  350MOL0     H48261  12.490   0.484   8.829 -1.4894 -0.1873  1.2540
  350MOL0     H48262  12.535   0.115   9.174 -1.1793 -1.0112 -0.5074
  350MOL0     H48263  12.717   0.010   9.311  0.7636  0.7474 -0.8165
  350MOL0     H48264  13.001   0.050   9.369 -0.5038  0.0047 -0.7269
  350MOL0     H48265  12.907  -0.099   9.406 -0.2206  1.0741 -0.1980
  350MOL0     H48266  13.129  -0.153   9.482 -2.3565  0.5220 -0.1525
  350MOL0     H48267  13.116  -0.233   9.339 -1.0203 -1.2198  3.1595
  350MOL0     H48268  13.246   0.046   9.324 -2.5273  0.6000 -2.0147
  350MOL0     H48269  13.235  -0.089   9.200 -0.6554 -2.3722  0.3420
  350MOL0     H48270  13.463  -0.084   9.297  2.5650 -1.1401  2.1636
  350MOL0     H48271  13.374  -0.225   9.358  0.8357  0.8973  1.0868
  350MOL0     H48272  13.463   0.042   9.490 -2.6573  1.5458  3.3374
  350MOL0     H48273  13.323  -0.027   9.554  0.4378 -0.4265  0.7055
  350MOL0     H48274  13.583  -0.185   9.539 -1.3405 -1.4105 -1.7823
  350MOL0     H48275  13.423  -0.240   9.597  0.5640  0.2074  1.1792
  350MOL0     H48276  13.403  -0.082   9.763  0.2224  1.3140  0.0160
  350MOL0     H48277  13.565  -0.013   9.724  1.2269 -0.7760  1.9379
  350MOL0     H48278  13.521  -0.298   9.817  0.1342 -0.2657 -0.5019
  350MOL0     H48279  13.561  -0.148   9.917  0.2154  0.4145  0.3552
  350MOL0     H48280  12.948  -0.054   8.958 -0.4408  2.8035 -1.8720
  350MOL0     H48281  12.747  -0.040   8.820  2.5263 -0.9108  1.0452
  350MOL0     H48282  12.301   0.033   8.782 -0.0858 -0.0364 -1.4794
  350MOL0     H48283  12.078   0.083   8.710  2.8201 -4.1861  3.5050
  350MOL0     H48284  10.399  -0.240   9.003 -1.2232  0.3493 -1.5201
  350MOL0     H48285  10.236  -0.316   9.205  0.2149 -0.0142 -0.6780
  350MOL0     H48286   9.920  -0.328   9.395  0.2086 -2.0819  2.6675
  350MOL0     H48287   9.731  -0.404   9.519  0.8394 -1.1705 -0.2119
  350MOL0     H48288   9.474  -0.141   9.788 -1.2951 -2.0834  0.9403
  350MOL0     H48289   9.408  -0.141   9.619 -0.2676 -1.1791 -1.6508
  350MOL0     H48290   9.384  -0.356   9.823  1.2917 -0.5346 -1.3619
  350MOL0     H48291   9.301  -0.347   9.652 -1.1931  1.6260 -0.7395
  350MOL0     H48292   9.149  -0.203   9.707  0.5851 -0.9744  0.2065
  350MOL0     H48293   9.151  -0.313   9.843  1.0348 -2.2762 -1.1739
  350MOL0     H48294   9.272  -0.036   9.830 -0.0715  0.0537  0.3346
  350MOL0     H48295   9.274  -0.138   9.981 -0.8482 -1.1802 -0.0869
  350MOL0     H48296   8.886   0.042   9.920  0.5212  1.0936 -0.0272
  350MOL0     H48297   9.641  -0.016   9.669 -0.2482 -0.4663  0.5528
  350MOL0     H48298   9.936   0.125   9.591  0.2623 -1.4612 -0.4431
  350MOL0     H48299   9.819   0.178   9.467 -1.8824 -0.1316  0.4660
  350MOL0     H48300   9.766   0.163   9.635  1.3474 -0.9094  1.7426
  351MOL0     O48301   4.586   2.143   2.122  0.4727 -0.5983 -0.3700
  351MOL0     C48302   4.510   2.107   2.207  0.4547  0.7662 -0.1692
  351MOL0     O48303   4.539   2.073   2.335 -0.8573  0.1272 -0.6159
  351MOL0     C48304   4.668   2.082   2.389 -0.2981 -0.0470 -0.2490
  351MOL0     C48305   4.675   2.131   2.517 -0.2086 -0.4158 -0.5140
  351MOL0     C48306   4.801   2.153   2.573 -0.0166 -0.2250  0.2834
  351MOL0     C48307   4.924   2.119   2.505 -0.4512  0.0719 -0.5822
  351MOL0     O48308   5.049   2.128   2.567  0.2719 -0.7381 -0.5234
  351MOL0     C48309   5.113   2.257   2.576  0.5057 -0.3719  0.1351
  351MOL0     C48310   5.174   2.282   2.437  0.3644 -0.7945  0.7038
  351MOL0     C48311   5.300   2.384   2.441  0.2000 -0.1372  0.0712
  351MOL0     C48312   5.398   2.375   2.563 -0.2992  0.0379  0.5879
  351MOL0     C48313   5.523   2.474   2.557 -0.0005 -0.1717 -0.2242
  351MOL0     C48314   5.618   2.405   2.456 -0.3340 -0.0104  0.4287
  351MOL0     C48315   5.742   2.494   2.437  0.3692  0.1966 -0.2469
  351MOL0     C48316   5.826   2.439   2.323  0.7675 -0.6675 -0.6891
  351MOL0     N48317   5.940   2.515   2.295 -0.1408  0.2172  0.0832
  351MOL0     C48318   6.059   2.501   2.378  0.1726 -0.6884 -0.2238
  351MOL0     C48319   6.140   2.592   2.325  0.4668  0.1628 -0.0082
  351MOL0     C48320   6.279   2.605   2.351 -0.0855 -0.2184  1.1152
  351MOL0     C48321   6.328   2.550   2.497 -0.6802  0.5139 -1.1797
  351MOL0     C48322   6.472   2.602   2.526  0.7096  0.7559 -0.2911
  351MOL0     C48323   6.578   2.514   2.455  0.0821  0.1382 -0.4687
  351MOL0     O48324   6.698   2.596   2.459 -0.0783  0.3238  0.3452
  351MOL0     C48325   6.750   2.666   2.353  0.1328  0.1956  0.6692
  351MOL0     C48326   6.887   2.696   2.347 -0.1396 -0.1411 -0.3793
  351MOL0     C48327   6.943   2.758   2.234 -0.3063 -1.5617  0.1259
  351MOL0     C48328   7.094   2.769   2.232  0.6265  0.0264  0.6934
  351MOL0     C48329   6.860   2.797   2.125 -0.6712 -0.2067 -0.3183
  351MOL0     C48330   6.916   2.845   2.001  0.1066 -0.5610  0.7074
  351MOL0     O48331   6.840   2.943   1.936 -0.1813 -0.9587  0.6226
  351MOL0     C48332   6.902   3.002   1.822 -0.3453 -0.0312  0.2782
  351MOL0     C48333   6.984   3.115   1.829  0.0475 -0.7232  0.2015
  351MOL0     C48334   7.038   3.179   1.714  0.5651 -0.1961  0.8970
  351MOL0     C48335   7.016   3.125   1.592  0.7763  0.0772  0.4294
  351MOL0     O48336   7.069   3.189   1.484 -0.5432 -0.0903 -0.9678
  351MOL0     C48337   7.196   3.134   1.444  0.0815 -0.2064  0.0302
  351MOL0     C48338   7.221   3.169   1.299 -0.3413  0.2689  0.5076
  351MOL0     C48339   7.374   3.130   1.255  0.8010 -0.4870  0.0891
  351MOL0     C48340   7.444   3.240   1.168 -0.3497 -0.2232 -0.1098
  351MOL0     C48341   7.540   3.179   1.064  0.1395 -0.4898  0.5711
  351MOL0     C48342   7.651   3.272   1.017 -0.3881 -0.3513 -0.1358
  351MOL0     C48343   7.756   3.188   0.933 -0.0809 -1.2355 -0.2327
  351MOL0     C48344   7.839   3.285   0.857 -1.7157 -0.1129 -0.4680
  351MOL0    Cl48345   7.989   3.203   0.816 -0.0162 -0.0747  0.0716
  351MOL0     C48346   6.941   3.005   1.586  0.3552  0.2322 -0.1212
  351MOL0     C48347   6.872   2.946   1.695  0.3500  0.2054  0.6671
  351MOL0     O48348   7.017   2.796   1.955  0.0240  0.3541 -0.2275
  351MOL0     C48349   6.722   2.768   2.138  0.5534  1.5044 -0.6582
  351MOL0     C48350   6.671   2.707   2.249 -0.1225 -0.0462  0.6500
  351MOL0     N48351   6.072   2.663   2.226 -0.5236  0.3215  0.2800
  351MOL0     N48352   5.961   2.604   2.199  0.2150  0.1691  0.2118
  351MOL0     C48353   4.909   2.062   2.379 -0.1933 -0.2005  0.0307
  351MOL0     C48354   4.783   2.044   2.319  0.4716 -1.2395 -0.8848
  351MOL0     C48355   4.369   2.103   2.179 -0.6252 -0.9316 -0.5599
  351MOL0     C48356   4.308   1.993   2.238 -0.6921 -0.0200 -0.7073
  351MOL0     C48357   4.169   1.986   2.236  0.7061  0.6367 -0.3173
  351MOL0     C48358   4.090   2.090   2.187 -0.4989 -0.2320  0.0631
  351MOL0     O48359   3.956   2.100   2.200 -0.0653  0.7689  0.2311
  351MOL0     C48360   3.903   2.040   2.320 -0.1969  0.3046 -0.0630
  351MOL0     C48361   3.757   2.095   2.336  0.6326 -0.5701  0.2352
  351MOL0     C48362   3.659   2.005   2.417 -1.2732 -0.1841  0.8106
  351MOL0     C48363   3.538   2.073   2.470  0.1515 -0.8870  0.0790
  351MOL0     C48364   3.467   2.146   2.359 -0.4597 -0.0145  0.6867
  351MOL0     C48365   3.412   2.200   2.264  0.6629 -0.1264 -0.3298
  351MOL0     C48366   4.154   2.193   2.128 -0.5986 -0.4973 -0.3105
  351MOL0     C48367   4.293   2.212   2.133  0.4746  0.7455 -0.4950
  351MOL0     C48368   4.363   2.328   2.080 -0.3718 -0.2728 -0.4132
  351MOL0     H48369   4.595   2.163   2.584 -2.2101 -2.8591 -1.5580
  351MOL0     H48370   4.801   2.204   2.669  0.9622 -0.5382  0.4614
  351MOL0     H48371   5.189   2.257   2.654 -0.9781  1.7821  1.7021
  351MOL0     H48372   5.047   2.336   2.613  2.8826  0.9219  1.8559
  351MOL0     H48373   5.211   2.184   2.406  1.7728  0.2795 -1.2073
  351MOL0     H48374   5.093   2.316   2.372  0.8191  0.3788  0.7342
  351MOL0     H48375   5.351   2.379   2.345  0.4533 -0.2545  0.2118
  351MOL0     H48376   5.258   2.485   2.444 -0.9317 -0.6000  0.1782
  351MOL0     H48377   5.346   2.395   2.657 -2.8814 -2.0667 -0.2747
  351MOL0     H48378   5.435   2.272   2.563 -0.9979 -0.2380 -0.8135
  351MOL0     H48379   5.573   2.480   2.654 -0.9177  1.3958  0.1895
  351MOL0     H48380   5.486   2.574   2.534 -4.9196 -1.9040 -0.9910
  351MOL0     H48381   5.634   2.303   2.493 -1.8785 -1.7919 -3.2814
  351MOL0     H48382   5.575   2.386   2.358  3.0996 -0.4419 -1.1506
  351MOL0     H48383   5.805   2.511   2.525 -1.4475 -1.1193  1.3977
  351MOL0     H48384   5.697   2.585   2.397  1.7276  0.5502 -0.9976
  351MOL0     H48385   5.846   2.333   2.341 -0.6367 -1.0815 -1.4066
  351MOL0     H48386   5.769   2.433   2.230  0.3079 -3.3605 -0.3290
  351MOL0     H48387   6.060   2.421   2.451 -0.9265  0.7904  1.4818
  351MOL0     H48388   6.320   2.704   2.329  0.6415 -0.8221 -0.4348
  351MOL0     H48389   6.326   2.544   2.273  1.1516  1.1080  0.7956
  351MOL0     H48390   6.242   2.591   2.551 -1.0455 -0.4911 -0.9832
  351MOL0     H48391   6.321   2.442   2.514 -1.1745  0.9501  1.8453
  351MOL0     H48392   6.483   2.703   2.484 -0.4384  1.5339  1.2103
  351MOL0     H48393   6.472   2.613   2.635 -1.9075 -1.7854  0.0877
  351MOL0     H48394   6.595   2.419   2.507 -2.0279 -0.4622 -0.7957
  351MOL0     H48395   6.542   2.489   2.355 -0.5105  0.1609 -0.2646
  351MOL0     H48396   6.934   2.665   2.440 -1.5694 -0.8428  0.1436
  351MOL0     H48397   7.140   2.674   2.202  0.4371 -0.0761  0.7292
  351MOL0     H48398   7.126   2.783   2.336  1.1530 -0.9875  0.6839
  351MOL0     H48399   7.143   2.851   2.178  1.6586 -2.1260 -1.8775
  351MOL0     H48400   7.011   3.138   1.931  0.2741 -0.6301  0.1222
  351MOL0     H48401   7.106   3.263   1.729 -1.1065  1.6515 -1.1887
  351MOL0     H48402   7.273   3.182   1.504  0.8356  0.3047 -1.3009
  351MOL0     H48403   7.205   3.026   1.458 -1.2142 -0.2181  0.9421
  351MOL0     H48404   7.155   3.120   1.227 -0.7606  1.9677 -0.3250
  351MOL0     H48405   7.202   3.277   1.288  0.5837  0.3026 -1.0453
  351MOL0     H48406   7.369   3.042   1.191  1.0175 -1.1185  0.9169
  351MOL0     H48407   7.430   3.116   1.348 -0.8669  0.3582  1.2857
  351MOL0     H48408   7.499   3.300   1.241  1.4423 -0.8088 -0.9138
  351MOL0     H48409   7.385   3.317   1.118 -0.5445 -0.2591  0.0637
  351MOL0     H48410   7.587   3.094   1.115 -0.6521 -1.0153  0.4452
  351MOL0     H48411   7.497   3.138   0.973  0.7592  1.5276 -0.6940
  351MOL0     H48412   7.705   3.307   1.105 -0.3506  1.3684 -0.8102
  351MOL0     H48413   7.610   3.362   0.971  0.6600 -0.0964 -0.6017
  351MOL0     H48414   7.704   3.114   0.871 -0.9297 -1.1907  0.3967
  351MOL0     H48415   7.807   3.129   1.009  1.3154 -0.5968 -0.6577
  351MOL0     H48416   7.856   3.369   0.925  1.6911 -0.7588 -0.3712
  351MOL0     H48417   7.798   3.305   0.758  1.6378  0.1885 -1.9108
  351MOL0     H48418   6.922   2.973   1.484 -1.6298  1.7228 -0.2786
  351MOL0     H48419   6.827   2.849   1.676 -1.4046  1.4605 -2.1356
  351MOL0     H48420   6.655   2.788   2.055  0.7925 -1.4951 -1.7061
  351MOL0     H48421   6.564   2.698   2.232  0.2322 -0.1092 -1.9724
  351MOL0     H48422   5.007   2.038   2.340 -1.2955 -2.4792 -1.5392
  351MOL0     H48423   4.772   2.018   2.214  0.7431  1.0750 -1.5420
  351MOL0     H48424   4.355   1.912   2.293 -3.1294 -0.7131  0.5012
  351MOL0     H48425   4.136   1.890   2.273  1.8000  0.1700 -0.5161
  351MOL0     H48426   3.902   1.931   2.327  1.0293  0.3862  2.3667
  351MOL0     H48427   3.963   2.076   2.403  0.4321  0.5648 -0.6210
  351MOL0     H48428   3.727   2.118   2.233  1.7914  0.0312  0.0218
  351MOL0     H48429   3.754   2.183   2.400 -0.7220 -0.5676  0.1944
  351MOL0     H48430   3.624   1.918   2.360  0.8570 -2.8521  3.2161
  351MOL0     H48431   3.713   1.969   2.505  0.7185  2.2431  0.6618
  351MOL0     H48432   3.568   2.153   2.538  1.2203 -0.0329 -1.3245
  351MOL0     H48433   3.482   2.013   2.542  1.6684 -1.4986  0.7756
  351MOL0     H48434   3.355   2.234   2.180  0.9789 -0.4711 -0.6911
  351MOL0     H48435   4.101   2.275   2.080 -0.1652 -0.0487 -0.0344
  351MOL0     H48436   4.429   2.381   2.150 -0.5313 -0.4774 -0.1039
  351MOL0     H48437   4.431   2.296   2.001  0.7284  0.6248  0.1333
  351MOL0     H48438   4.295   2.409   2.051  0.8532  1.6077  1.6252
  352MOL0     O48439   2.933   3.840   5.057  0.4354 -0.1813  0.1344
  352MOL0     C48440   2.838   3.903   5.104 -0.9441 -0.1926 -0.4519
  352MOL0     O48441   2.854   4.026   5.177 -0.4088 -0.0561  0.1392
  352MOL0     C48442   2.975   4.067   5.223 -0.6818  0.1538  0.5172
  352MOL0     C48443   3.034   4.006   5.345  0.0664  0.6018 -0.8205
  352MOL0     C48444   3.166   4.044   5.387 -0.2749  0.3094 -0.6409
  352MOL0     C48445   3.246   4.117   5.306 -0.0003 -0.5769  0.5330
  352MOL0     O48446   3.370   4.148   5.352 -1.1812  0.2747  0.0699
  352MOL0     C48447   3.469   4.167   5.256 -0.3874 -0.0794  0.3051
  352MOL0     C48448   3.477   4.318   5.219  0.0746 -0.4635 -0.6868
  352MOL0     C48449   3.496   4.332   5.062  0.2871  0.4104  0.1363
  352MOL0     C48450   3.486   4.480   5.035  0.4609  0.1083  0.3463
  352MOL0     C48451   3.538   4.507   4.888  0.6816 -0.7140  0.1511
  352MOL0     C48452   3.685   4.492   4.855  0.4218  0.3846 -0.3217
  352MOL0     C48453   3.732   4.539   4.719  0.1269  0.0178 -0.6206
  352MOL0     C48454   3.869   4.471   4.702 -0.3456 -0.4373  0.2734
  352MOL0     N48455   3.987   4.540   4.767  1.4889 -0.3755  0.5931
  352MOL0     C48456   4.047   4.652   4.725 -0.7230  0.9123  0.7209
  352MOL0     C48457   4.136   4.682   4.824 -0.5342  0.7657  0.5194
  352MOL0     C48458   4.235   4.804   4.817  0.7225  0.3760 -0.0733
  352MOL0     C48459   4.335   4.812   4.932 -0.6215 -1.1704 -0.4527
  352MOL0     C48460   4.409   4.943   4.901  0.2521  0.3263 -0.4634
  352MOL0     C48461   4.526   4.928   4.796 -0.4178  0.0320 -0.6739
  352MOL0     O48462   4.590   4.800   4.818  0.5722 -0.2705 -0.0775
  352MOL0     C48463   4.689   4.766   4.725  0.2944  0.7238 -0.1044
  352MOL0     C48464   4.712   4.624   4.723 -0.6343  0.0245 -0.2847
  352MOL0     C48465   4.828   4.570   4.674 -0.2440 -0.1137 -0.3668
  352MOL0     C48466   4.855   4.421   4.687 -0.3684  0.4133  0.0055
  352MOL0     C48467   4.932   4.660   4.617  1.4671 -0.5828 -0.8122
  352MOL0     C48468   5.061   4.623   4.552  0.6793  0.2341 -0.5854
  352MOL0     O48469   5.158   4.709   4.590  0.5704 -0.2474  0.3033
  352MOL0     C48470   5.286   4.683   4.554  0.5333 -0.2673 -0.1993
  352MOL0     C48471   5.380   4.660   4.655 -0.1897  0.1917 -0.5561
  352MOL0     C48472   5.518   4.649   4.630  1.4235  0.8090  0.5435
  352MOL0     C48473   5.563   4.658   4.497  0.7509  0.0822 -0.8455
  352MOL0     O48474   5.693   4.661   4.465 -0.5933 -0.6414  0.2526
  352MOL0     C48475   5.771   4.549   4.501 -0.2706 -0.2108  0.2482
  352MOL0     C48476   5.922   4.561   4.459  0.2358 -0.0972 -0.6350
  352MOL0     C48477   6.001   4.435   4.440 -0.6350  0.4102 -0.0460
  352MOL0     C48478   6.145   4.464   4.414 -0.0329 -0.1156  0.0486
  352MOL0     C48479   6.210   4.570   4.501 -0.1246 -0.5151  0.3049
  352MOL0     C48480   6.370   4.582   4.495  1.0161 -0.3410  0.6833
  352MOL0     C48481   6.433   4.447   4.533  0.4182 -0.5102 -0.3504
  352MOL0     C48482   6.569   4.480   4.611 -0.3362 -0.2276 -0.2772
  352MOL0    Cl48483   6.550   4.551   4.780 -0.1311  0.1629 -0.2961
  352MOL0     C48484   5.471   4.667   4.397 -0.1526  0.0198 -0.3665
  352MOL0     C48485   5.337   4.675   4.428  0.8780  0.5160  0.6483
  352MOL0     O48486   5.069   4.544   4.463  0.0390  0.6977 -0.0888
  352MOL0     C48487   4.890   4.796   4.604  0.4635  0.3810 -0.1060
  352MOL0     C48488   4.770   4.849   4.655 -0.7540 -0.9188 -0.2145
  352MOL0     N48489   4.144   4.568   4.904  0.0702 -1.1707 -0.0846
  352MOL0     N48490   4.052   4.483   4.872 -0.0640  1.1212  0.2277
  352MOL0     C48491   3.186   4.178   5.195 -0.4123 -0.9753 -0.7188
  352MOL0     C48492   3.054   4.155   5.148 -0.4661 -1.2519 -0.1490
  352MOL0     C48493   2.696   3.855   5.101 -0.6203 -0.0916 -0.0081
  352MOL0     C48494   2.607   3.934   5.180  0.6875  0.5217  0.6632
  352MOL0     C48495   2.467   3.905   5.191  0.1914 -1.0574  0.1060
  352MOL0     C48496   2.417   3.782   5.147 -0.2695  0.4408 -0.2089
  352MOL0     O48497   2.291   3.729   5.177 -0.0689  0.8819 -0.8156
  352MOL0     C48498   2.209   3.811   5.264  0.2093 -1.0821  0.6229
  352MOL0     C48499   2.060   3.774   5.250  0.1998 -0.0967  0.0227
  352MOL0     C48500   1.994   3.799   5.107  0.0674  0.9305 -0.8811
  352MOL0     C48501   1.842   3.766   5.110 -1.4325 -0.2815 -0.7342
  352MOL0     C48502   1.811   3.623   5.108  0.2108 -0.7575  0.4567
  352MOL0     C48503   1.792   3.507   5.107  0.1771 -0.2100  0.1154
  352MOL0     C48504   2.507   3.710   5.070 -0.1901  0.7223 -0.1491
  352MOL0     C48505   2.645   3.742   5.037 -0.5617  0.4006  0.9692
  352MOL0     C48506   2.728   3.649   4.962  0.9085 -1.0256  0.5203
  352MOL0     H48507   2.987   3.942   5.419  0.6229  3.1608  1.9144
  352MOL0     H48508   3.206   4.004   5.480 -0.2069  2.4558  0.3049
  352MOL0     H48509   3.475   4.106   5.165  0.1071 -2.2572  1.7239
  352MOL0     H48510   3.565   4.147   5.303 -0.6450  1.0170  1.3617
  352MOL0     H48511   3.395   4.379   5.259  0.3327 -1.3133  1.2477
  352MOL0     H48512   3.561   4.360   5.275 -1.2400  0.0374  0.9743
  352MOL0     H48513   3.598   4.301   5.039  0.3284  1.9347 -2.1493
  352MOL0     H48514   3.438   4.274   4.990  3.5470 -2.0553 -0.7511
  352MOL0     H48515   3.382   4.514   5.040  0.9529  1.9003 -0.8240
  352MOL0     H48516   3.551   4.541   5.099  2.6775 -0.5777 -1.1541
  352MOL0     H48517   3.516   4.611   4.862  1.2485 -0.1959  1.6542
  352MOL0     H48518   3.483   4.442   4.819  1.4111  0.3582 -1.5322
  352MOL0     H48519   3.742   4.538   4.935  0.6536  1.2211 -0.9523
  352MOL0     H48520   3.698   4.383   4.859  1.3178  0.4286 -1.4737
  352MOL0     H48521   3.730   4.647   4.708 -0.0253  0.1900  0.8696
  352MOL0     H48522   3.660   4.488   4.655  1.9191 -1.5232 -1.5325
  352MOL0     H48523   3.866   4.377   4.759  0.6983 -2.1355 -2.2753
  352MOL0     H48524   3.895   4.449   4.599  2.0762 -0.2225  0.7841
  352MOL0     H48525   4.018   4.693   4.629  2.2087 -0.0936 -0.7171
  352MOL0     H48526   4.175   4.894   4.822 -1.6923 -1.1337 -0.3331
  352MOL0     H48527   4.285   4.802   4.719  3.8274 -1.1098  1.3823
  352MOL0     H48528   4.296   4.813   5.034 -0.6660 -0.9149 -0.4706
  352MOL0     H48529   4.405   4.728   4.939 -0.4548 -0.8983  1.9787
  352MOL0     H48530   4.345   5.023   4.863 -0.5713 -0.2300 -0.2761
  352MOL0     H48531   4.449   4.976   4.998 -1.0536 -0.3512  0.3334
  352MOL0     H48532   4.482   4.922   4.696 -0.4992 -0.8853 -0.5849
  352MOL0     H48533   4.603   5.006   4.795  1.9525 -2.1751 -0.8425
  352MOL0     H48534   4.644   4.557   4.775  1.7500 -2.3784 -0.0513
  352MOL0     H48535   4.775   4.368   4.739  0.7720 -0.3712  1.0133
  352MOL0     H48536   4.946   4.384   4.736 -0.3271 -1.2591 -1.2364
  352MOL0     H48537   4.861   4.384   4.584 -0.4966  0.6781 -0.0989
  352MOL0     H48538   5.353   4.686   4.757  2.7496 -0.0263  0.3634
  352MOL0     H48539   5.588   4.656   4.713 -0.4791 -0.7619  2.4172
  352MOL0     H48540   5.775   4.549   4.611  0.4096  3.0465  0.3160
  352MOL0     H48541   5.728   4.453   4.470 -0.1487 -0.1454 -0.1184
  352MOL0     H48542   5.923   4.612   4.362  4.8625 -0.0626 -0.7943
  352MOL0     H48543   5.960   4.627   4.538  0.9591  0.2319 -1.2442
  352MOL0     H48544   5.959   4.370   4.362 -0.3536 -0.2602  0.3458
  352MOL0     H48545   5.985   4.383   4.535  0.3838  0.4335  0.1461
  352MOL0     H48546   6.155   4.488   4.308 -0.3027 -1.4041 -0.2897
  352MOL0     H48547   6.205   4.373   4.423 -0.0861 -0.0935  0.6582
  352MOL0     H48548   6.173   4.666   4.463  2.3269  0.7837  1.0182
  352MOL0     H48549   6.181   4.567   4.607 -2.7795 -1.9324 -0.3629
  352MOL0     H48550   6.397   4.666   4.559  0.9464 -0.1340  0.4392
  352MOL0     H48551   6.411   4.602   4.396  1.5288 -0.0530  0.9520
  352MOL0     H48552   6.456   4.382   4.448  0.1762  1.1462 -1.7234
  352MOL0     H48553   6.362   4.395   4.598 -1.0134 -0.7713 -2.0645
  352MOL0     H48554   6.625   4.550   4.549 -0.0719 -1.6244 -1.6869
  352MOL0     H48555   6.636   4.394   4.616 -0.1287 -0.0698 -0.3495
  352MOL0     H48556   5.503   4.677   4.293 -0.4307 -1.2185 -0.5863
  352MOL0     H48557   5.278   4.682   4.337 -0.2754 -2.0946  1.0850
  352MOL0     H48558   4.953   4.861   4.545  1.4766 -1.3000 -0.9436
  352MOL0     H48559   4.744   4.954   4.652 -0.0300 -0.7180  0.1789
  352MOL0     H48560   3.232   4.258   5.137  0.7925 -1.4939 -0.4899
  352MOL0     H48561   3.020   4.202   5.056  2.1227 -1.6312 -1.3968
  352MOL0     H48562   2.637   4.025   5.232 -2.4562  0.7156  2.3789
  352MOL0     H48563   2.410   3.979   5.247 -2.4515 -1.8036 -1.4545
  352MOL0     H48564   2.244   3.794   5.367  2.3456 -4.2548 -0.4615
  352MOL0     H48565   2.217   3.918   5.240 -0.7473 -0.6053  2.2556
  352MOL0     H48566   2.003   3.834   5.322  1.4609  1.3480 -0.1453
  352MOL0     H48567   2.054   3.672   5.289  0.9049 -0.2925 -0.3574
  352MOL0     H48568   2.013   3.901   5.072  2.4824  0.5174 -0.9806
  352MOL0     H48569   2.047   3.731   5.039  0.6101 -0.5421  0.9352
  352MOL0     H48570   1.795   3.823   5.029  0.0761  4.5988  1.4769
  352MOL0     H48571   1.801   3.810   5.201  0.7713 -1.9307  1.1621
  352MOL0     H48572   1.776   3.401   5.108  0.0560 -0.2399  2.5493
  352MOL0     H48573   2.474   3.612   5.038 -0.2846  0.2712  1.2841
  352MOL0     H48574   2.812   3.600   5.012  2.0659  0.1787 -0.1682
  352MOL0     H48575   2.662   3.576   4.914 -0.0770  0.8254 -1.0863
  352MOL0     H48576   2.771   3.708   4.881 -1.7065  0.1801 -0.0994
  353MOL0     O48577   5.346   0.957   1.186  0.2054 -0.2537  0.6242
  353MOL0     C48578   5.267   1.041   1.225 -0.3998 -0.1127 -0.6387
  353MOL0     O48579   5.265   1.094   1.350  0.1957  0.1119  0.3191
  353MOL0     C48580   5.316   1.022   1.454  0.2222 -0.1428  0.6517
  353MOL0     C48581   5.446   1.023   1.488 -0.1237  0.3853 -0.9369
  353MOL0     C48582   5.493   0.954   1.602  0.1477 -0.1976  0.3839
  353MOL0     C48583   5.399   0.892   1.693 -0.0425 -0.9561  0.8657
  353MOL0     O48584   5.433   0.805   1.796 -0.0428  0.2100 -0.5547
  353MOL0     C48585   5.467   0.676   1.744 -0.0392  0.0936 -0.2348
  353MOL0     C48586   5.535   0.604   1.863 -0.9425 -0.3740  0.0516
  353MOL0     C48587   5.561   0.468   1.818  0.2418  0.3092  0.9814
  353MOL0     C48588   5.619   0.383   1.919 -0.8772  0.3542  0.2239
  353MOL0     C48589   5.621   0.236   1.873  0.4627 -0.1014  0.0970
  353MOL0     C48590   5.705   0.150   1.968  0.3483  0.2344 -0.5538
  353MOL0     C48591   5.698  -0.006   1.945 -0.3290 -0.2804 -0.1119
  353MOL0     C48592   5.815  -0.081   2.024 -0.0670  0.0678 -0.1226
  353MOL0     N48593   5.964  -0.075   1.990 -0.5499 -0.1606  0.3964
  353MOL0     C48594   6.063  -0.001   2.057  0.4700  0.5046 -0.0420
  353MOL0     C48595   6.181  -0.044   2.008  0.3746 -0.0033 -1.1086
  353MOL0     C48596   6.324   0.009   2.039  0.4625 -0.0117  0.0400
  353MOL0     C48597   6.361  -0.022   2.184  0.4992  0.9013  0.4397
  353MOL0     C48598   6.500   0.039   2.232 -0.7868  0.1505 -0.8417
  353MOL0     C48599   6.606   0.030   2.121  0.2815 -0.0302 -0.3446
  353MOL0     O48600   6.733   0.064   2.171  0.0425  0.6664 -0.2228
  353MOL0     C48601   6.843   0.028   2.095  0.5048  0.4735  0.2419
  353MOL0     C48602   6.960   0.039   2.155 -0.3979 -0.0692  0.7121
  353MOL0     C48603   7.088   0.024   2.083  0.3744  0.0334  0.1073
  353MOL0     C48604   7.217   0.039   2.163 -0.1857 -0.3481 -0.0150
  353MOL0     C48605   7.082  -0.036   1.955 -0.1107 -1.3101 -0.0488
  353MOL0     C48606   7.204  -0.090   1.884  0.2359  0.3459 -0.6903
  353MOL0     O48607   7.202  -0.063   1.752 -0.2340  0.2465  0.1090
  353MOL0     C48608   7.285  -0.132   1.664  1.1457 -0.4107 -0.2987
  353MOL0     C48609   7.248  -0.259   1.627  0.2302 -0.4542 -0.1783
  353MOL0     C48610   7.325  -0.330   1.537  0.5684  1.1856 -0.2213
  353MOL0     C48611   7.445  -0.279   1.480 -0.1496  1.0532 -0.1577
  353MOL0     O48612   7.520  -0.366   1.411 -0.3874  0.0159  0.5139
  353MOL0     C48613   7.657  -0.330   1.389 -0.7543 -0.1466 -0.1517
  353MOL0     C48614   7.749  -0.438   1.336  0.5937  0.4115  0.2229
  353MOL0     C48615   7.713  -0.474   1.183  0.4099  0.5633 -0.2605
  353MOL0     C48616   7.811  -0.384   1.103  0.2056 -0.1089  0.5663
  353MOL0     C48617   7.807  -0.447   0.962 -0.5297 -0.2912  0.7730
  353MOL0     C48618   7.893  -0.367   0.859 -0.4440  0.0864  0.2518
  353MOL0     C48619   7.915  -0.423   0.717 -0.0884  0.4970  0.2005
  353MOL0     C48620   7.999  -0.324   0.630 -0.3299 -0.7272  0.5007
  353MOL0    Cl48621   8.164  -0.334   0.706 -0.0227  0.1509  0.0549
  353MOL0     C48622   7.476  -0.153   1.515 -0.6339 -0.0688 -0.7743
  353MOL0     C48623   7.398  -0.072   1.612  0.0235 -0.0968  0.1396
  353MOL0     O48624   7.287  -0.154   1.952 -0.0692  0.4914 -0.2047
  353MOL0     C48625   6.957  -0.057   1.899 -0.2833 -0.2257  0.0077
  353MOL0     C48626   6.837  -0.024   1.966 -0.1511 -0.0210 -0.7251
  353MOL0     N48627   6.159  -0.139   1.912  0.6994  0.4043  0.6362
  353MOL0     N48628   6.028  -0.157   1.896 -0.0239  0.0536 -0.2148
  353MOL0     C48629   5.262   0.891   1.647 -0.1884 -0.0378  0.9435
  353MOL0     C48630   5.227   0.948   1.525 -0.1428 -0.2783  0.3814
  353MOL0     C48631   5.148   1.088   1.142 -0.0376  1.0732 -0.2999
  353MOL0     C48632   5.022   1.135   1.195  0.0132 -0.3735 -0.4457
  353MOL0     C48633   4.917   1.181   1.111 -1.2431  0.9768 -0.1463
  353MOL0     C48634   4.940   1.178   0.978 -0.1231  0.7291  0.2064
  353MOL0     O48635   4.822   1.185   0.907 -0.3531 -0.1004  1.0183
  353MOL0     C48636   4.809   1.084   0.810  0.0532 -0.1481 -0.2589
  353MOL0     C48637   4.661   1.084   0.770 -0.3129 -0.2849  0.6662
  353MOL0     C48638   4.583   1.033   0.897  0.0269 -0.2853  1.1199
  353MOL0     C48639   4.435   1.012   0.873 -0.4576  0.4095 -0.7562
  353MOL0     C48640   4.397   0.882   0.805 -0.0823 -0.1409  0.4740
  353MOL0     C48641   4.377   0.773   0.753 -0.2573 -0.4123 -0.1876
  353MOL0     C48642   5.066   1.152   0.923  0.7919 -0.1041 -0.8292
  353MOL0     C48643   5.166   1.096   1.003  0.9492 -0.2409 -0.1013
  353MOL0     C48644   5.289   1.041   0.931  0.1954  0.6159 -0.5400
  353MOL0     H48645   5.510   1.085   1.426  1.1928 -0.5419 -0.5322
  353MOL0     H48646   5.599   0.945   1.623  0.7404  2.2940 -1.1918
  353MOL0     H48647   5.548   0.682   1.671 -0.6792  0.3204 -0.9407
  353MOL0     H48648   5.372   0.633   1.709 -1.4397  0.3789  2.8613
  353MOL0     H48649   5.635   0.646   1.877 -1.4841  0.8020  0.5223
  353MOL0     H48650   5.480   0.611   1.957  1.9118  0.1065  1.8100
  353MOL0     H48651   5.462   0.435   1.785  0.8926  1.1621 -2.1501
  353MOL0     H48652   5.630   0.462   1.733  0.0844 -1.0109  0.9277
  353MOL0     H48653   5.723   0.415   1.928 -0.6501  0.9472 -3.3386
  353MOL0     H48654   5.581   0.384   2.022  0.5224  0.2028  0.7770
  353MOL0     H48655   5.661   0.218   1.773 -1.3068 -2.0231 -0.3434
  353MOL0     H48656   5.518   0.201   1.886 -0.1674  1.8073  0.5162
  353MOL0     H48657   5.811   0.174   1.955  0.6069  0.5668  1.7651
  353MOL0     H48658   5.673   0.174   2.070  0.1237 -0.1513 -0.5308
  353MOL0     H48659   5.704  -0.044   1.842 -1.0041 -3.8990  1.0448
  353MOL0     H48660   5.601  -0.042   1.981 -0.8619  0.5693 -0.6732
  353MOL0     H48661   5.801  -0.047   2.127 -2.7012 -1.0400 -0.0246
  353MOL0     H48662   5.793  -0.188   2.013 -0.2462  0.1930 -1.0659
  353MOL0     H48663   6.041   0.076   2.129 -1.7299  0.9236 -1.0886
  353MOL0     H48664   6.323   0.115   2.015  0.9677  0.0469  0.2663
  353MOL0     H48665   6.398  -0.041   1.975  1.0247  1.6188 -0.6114
  353MOL0     H48666   6.287   0.011   2.257  1.2890  3.1265  0.2927
  353MOL0     H48667   6.363  -0.130   2.203 -1.6931  0.9389  1.1450
  353MOL0     H48668   6.491   0.144   2.261  1.9930 -0.4555  2.9891
  353MOL0     H48669   6.532  -0.015   2.321 -0.0197  1.8356 -0.0513
  353MOL0     H48670   6.599  -0.078   2.103 -0.6382 -0.2066  0.8829
  353MOL0     H48671   6.583   0.088   2.032 -2.4896 -2.7744 -1.6204
  353MOL0     H48672   6.961   0.065   2.260 -2.3128  0.4101  0.6419
  353MOL0     H48673   7.276  -0.049   2.191  0.2777  0.2876  1.0785
  353MOL0     H48674   7.195   0.092   2.256  2.9215 -1.4081  1.4669
  353MOL0     H48675   7.295   0.093   2.107 -1.8821  0.9685 -1.2248
  353MOL0     H48676   7.154  -0.297   1.665 -0.0849  0.1447 -0.3463
  353MOL0     H48677   7.306  -0.429   1.497 -0.0799  1.9701 -2.0023
  353MOL0     H48678   7.662  -0.241   1.326  1.3846  1.4760  2.1231
  353MOL0     H48679   7.706  -0.294   1.480 -1.2425 -0.4944  0.2541
  353MOL0     H48680   7.855  -0.412   1.347  0.3400  0.6399  2.6239
  353MOL0     H48681   7.735  -0.519   1.408  0.8200  0.6069  0.4888
  353MOL0     H48682   7.609  -0.448   1.162  1.0625  1.6140 -2.5064
  353MOL0     H48683   7.736  -0.580   1.167  0.4293  0.9862 -3.6512
  353MOL0     H48684   7.913  -0.388   1.141 -0.2890  0.3099  1.9926
  353MOL0     H48685   7.787  -0.278   1.099  0.3085 -0.0748  0.8051
  353MOL0     H48686   7.856  -0.544   0.977 -1.8145 -0.8294  1.7227
  353MOL0     H48687   7.705  -0.452   0.921  0.2546  3.8161 -2.3052
  353MOL0     H48688   7.989  -0.346   0.906 -0.2980 -2.0295  1.0114
  353MOL0     H48689   7.846  -0.269   0.848 -1.8742 -0.6771 -1.0173
  353MOL0     H48690   7.814  -0.442   0.680 -0.3771  1.8249  0.2425
  353MOL0     H48691   7.975  -0.513   0.727 -1.9236 -1.0167 -1.6787
  353MOL0     H48692   7.970  -0.220   0.643 -1.2638 -0.6744 -1.6242
  353MOL0     H48693   8.016  -0.338   0.523  0.9892 -0.8712  0.7139
  353MOL0     H48694   7.576  -0.116   1.494 -0.1357 -1.7596 -1.5268
  353MOL0     H48695   7.423   0.030   1.641 -1.1262  0.1105  0.4491
  353MOL0     H48696   6.959  -0.096   1.798 -0.5454  0.6127 -0.3310
  353MOL0     H48697   6.741  -0.048   1.922  0.7700 -1.4016 -2.1060
  353MOL0     H48698   5.189   0.836   1.706  1.0135 -0.9713  1.6140
  353MOL0     H48699   5.124   0.947   1.489 -0.9812  4.3382  2.0352
  353MOL0     H48700   5.000   1.133   1.301 -0.5848 -2.4440 -0.5648
  353MOL0     H48701   4.826   1.221   1.154 -0.8657  3.9642 -1.8503
  353MOL0     H48702   4.873   1.101   0.722 -1.8460  0.1480 -1.6672
  353MOL0     H48703   4.840   0.990   0.855  1.3377  1.1361  1.6900
  353MOL0     H48704   4.642   1.019   0.683 -0.9038  2.3749 -1.3227
  353MOL0     H48705   4.637   1.186   0.741  0.6225  0.7705  3.3499
  353MOL0     H48706   4.627   0.939   0.934  3.8016  0.3375 -1.2180
  353MOL0     H48707   4.600   1.103   0.979 -0.0829  0.3843  0.5827
  353MOL0     H48708   4.402   1.099   0.815 -4.0658 -0.0039  0.4218
  353MOL0     H48709   4.372   1.010   0.962  1.6253 -1.4480  0.7917
  353MOL0     H48710   4.364   0.679   0.702 -3.2113 -0.2761  0.0890
  353MOL0     H48711   5.079   1.146   0.815  0.7209 -1.7925 -0.7648
  353MOL0     H48712   5.278   1.052   0.823 -0.2820 -0.7186 -0.6478
  353MOL0     H48713   5.386   1.076   0.966 -0.0874 -2.1793  3.8212
  353MOL0     H48714   5.297   0.933   0.946 -3.8658  0.5198  2.7648
  354MOL0     O48715   3.835   2.977  10.197 -0.0041  0.2485 -0.3720
  354MOL0     C48716   3.830   2.897  10.288 -0.2878 -0.1648  0.4536
  354MOL0     O48717   3.933   2.867  10.372 -0.1048 -0.0833  1.1576
  354MOL0     C48718   4.052   2.929  10.350  0.6778 -0.1965  0.1979
  354MOL0     C48719   4.147   2.887  10.265 -0.2826  0.1032  0.8522
  354MOL0     C48720   4.281   2.933  10.263  0.3012 -0.2564  0.7746
  354MOL0     C48721   4.317   3.042  10.344  0.8077 -0.3114 -0.6288
  354MOL0     O48722   4.447   3.085  10.344 -0.3226  0.0572 -0.4464
  354MOL0     C48723   4.508   3.136  10.459  0.2969  0.3933 -0.9708
  354MOL0     C48724   4.642   3.203  10.446  0.8126 -0.1210  0.8022
  354MOL0     C48725   4.748   3.128  10.359  0.5457 -0.2636  0.3215
  354MOL0     C48726   4.889   3.200  10.369  0.3197  0.0201 -0.3387
  354MOL0     C48727   4.981   3.156  10.256 -0.1411  0.3856 -0.6910
  354MOL0     C48728   5.097   3.245  10.280 -0.4694 -0.0704  0.0900
  354MOL0     C48729   5.197   3.241  10.170  0.6635 -1.0716 -0.1601
  354MOL0     C48730   5.151   3.290  10.033  0.4454  0.2962 -0.4380
  354MOL0     N48731   5.271   3.322   9.955 -0.2297  1.0186 -0.6714
  354MOL0     C48732   5.377   3.405   9.997  0.0735  0.1166 -0.2201
  354MOL0     C48733   5.461   3.393   9.901  0.2947 -0.5525  0.4774
  354MOL0     C48734   5.572   3.488   9.896 -0.3719 -0.3913  0.4695
  354MOL0     C48735   5.697   3.426   9.956  0.9989 -0.3436 -0.0679
  354MOL0     C48736   5.798   3.542   9.971  0.1439 -0.9533  0.1664
  354MOL0     C48737   5.914   3.535   9.870  0.9664 -0.4210  0.0676
  354MOL0     O48738   6.014   3.623   9.904 -0.0567 -1.4135  0.0504
  354MOL0     C48739   6.136   3.580   9.863  0.2345 -0.0031 -1.0068
  354MOL0     C48740   6.241   3.617   9.956 -0.0700 -0.0152  0.8604
  354MOL0     C48741   6.372   3.572   9.940 -0.4913 -0.1241 -0.3510
  354MOL0     C48742   6.475   3.616  10.048  0.3402  0.0006 -0.0104
  354MOL0     C48743   6.397   3.494   9.827  0.9072  0.5416 -0.4215
  354MOL0     C48744   6.533   3.450   9.781  0.4187 -0.3487  0.4381
  354MOL0     O48745   6.535   3.334   9.708 -0.3686  0.1162  0.4701
  354MOL0     C48746   6.653   3.285   9.658 -0.6448 -0.0741  0.0645
  354MOL0     C48747   6.697   3.163   9.698  0.2936 -0.4560 -0.5089
  354MOL0     C48748   6.826   3.112   9.667  0.3650  0.3370  0.1644
  354MOL0     C48749   6.901   3.180   9.576  0.4667 -0.1276 -0.0440
  354MOL0     O48750   7.028   3.120   9.548  0.5220  0.5401  0.0743
  354MOL0     C48751   7.114   3.191   9.458 -0.5569 -0.1293  0.2801
  354MOL0     C48752   7.257   3.143   9.492 -0.4009  0.0140  0.4207
  354MOL0     C48753   7.260   2.997   9.458 -0.9398 -0.4476 -0.1276
  354MOL0     C48754   7.399   2.947   9.449  0.8745 -0.4388 -0.4431
  354MOL0     C48755   7.471   2.950   9.585  0.4446  0.4715 -0.7182
  354MOL0     C48756   7.621   2.912   9.577 -0.5109  0.1024  0.0507
  354MOL0     C48757   7.678   2.878   9.722 -0.5626  0.0134  0.6540
  354MOL0     C48758   7.824   2.840   9.715  0.8571 -0.1623  0.0869
  354MOL0    Cl48759   7.930   2.957   9.624 -0.1350 -0.1882  0.2886
  354MOL0     C48760   6.857   3.299   9.514  0.6919  0.2329 -0.8264
  354MOL0     C48761   6.734   3.354   9.562 -0.2329  0.1529  0.3505
  354MOL0     O48762   6.634   3.505   9.824  0.2939  0.0162  0.4533
  354MOL0     C48763   6.289   3.461   9.739 -0.3379 -0.3831  0.7441
  354MOL0     C48764   6.163   3.503   9.752  0.7181 -0.2678  0.0250
  354MOL0     N48765   5.420   3.309   9.801 -0.3412 -0.4646 -0.4579
  354MOL0     N48766   5.302   3.258   9.840 -0.2542 -0.5673 -0.2959
  354MOL0     C48767   4.221   3.095  10.426 -0.9112 -0.2240 -0.5910
  354MOL0     C48768   4.093   3.031  10.444 -0.3544 -0.6252  0.1187
  354MOL0     C48769   3.695   2.826  10.309 -0.4835  0.1439  0.0488
  354MOL0     C48770   3.680   2.730  10.413  0.3459 -0.9446  0.4630
  354MOL0     C48771   3.555   2.666  10.436 -0.2488 -0.1686  0.2293
  354MOL0     C48772   3.445   2.683  10.355  0.5484  0.1770  0.3709
  354MOL0     O48773   3.323   2.618  10.362 -0.1566 -0.0547 -0.1699
  354MOL0     C48774   3.297   2.525  10.471 -0.3743  0.4971 -0.2395
  354MOL0     C48775   3.363   2.394  10.420  0.6058 -0.6070  0.6929
  354MOL0     C48776   3.347   2.269  10.506  0.4380  0.0676  0.5322
  354MOL0     C48777   3.197   2.214  10.497 -0.1096 -0.7437  0.4754
  354MOL0     C48778   3.189   2.086  10.565 -0.7068  0.4383 -1.0485
  354MOL0     C48779   3.187   1.971  10.609  0.1948 -0.1810  0.1655
  354MOL0     C48780   3.462   2.778  10.252  0.6013  0.6853 -0.4196
  354MOL0     C48781   3.577   2.856  10.225 -0.6259  0.8585 -0.2525
  354MOL0     C48782   3.572   2.946  10.103  0.2670 -0.2636 -0.5594
  354MOL0     H48783   4.121   2.801  10.204 -0.1758 -0.8106  2.0528
  354MOL0     H48784   4.358   2.891  10.199 -0.1583 -0.7504  0.5389
  354MOL0     H48785   4.523   3.058  10.534  2.5929  2.8942  1.3532
  354MOL0     H48786   4.447   3.210  10.511  2.5852  1.3431  0.4886
  354MOL0     H48787   4.624   3.303  10.405 -1.8724 -0.5292  0.7914
  354MOL0     H48788   4.680   3.208  10.548  1.2712  1.3714  0.5878
  354MOL0     H48789   4.756   3.020  10.373  2.1982 -0.2316 -0.2288
  354MOL0     H48790   4.704   3.137  10.259 -2.6269  1.7807  1.7088
  354MOL0     H48791   4.869   3.308  10.367 -0.6724 -0.0945 -3.9342
  354MOL0     H48792   4.933   3.172  10.465 -0.3858 -0.6451 -0.2031
  354MOL0     H48793   4.944   3.182  10.156 -0.2149  0.6236 -0.6004
  354MOL0     H48794   4.998   3.048  10.255 -1.1670  0.2125 -0.6322
  354MOL0     H48795   5.067   3.350  10.289  3.0393  1.1019 -0.0898
  354MOL0     H48796   5.156   3.214  10.367  1.8973  0.8714 -1.0932
  354MOL0     H48797   5.239   3.140  10.171  1.4518 -0.7556 -0.3980
  354MOL0     H48798   5.284   3.304  10.193  0.9224 -1.2362 -0.6779
  354MOL0     H48799   5.104   3.204   9.986  0.1306  0.7505 -0.9640
  354MOL0     H48800   5.080   3.373  10.030 -1.1655 -1.0499 -1.2784
  354MOL0     H48801   5.381   3.472  10.083 -1.7385  1.4968 -1.1475
  354MOL0     H48802   5.557   3.581   9.951  4.3799  0.5174  0.5857
  354MOL0     H48803   5.589   3.519   9.792 -0.1269  0.4974  0.7722
  354MOL0     H48804   5.679   3.378  10.053  2.7273 -1.3187 -0.2005
  354MOL0     H48805   5.726   3.340   9.896 -2.6384 -1.5182 -0.4033
  354MOL0     H48806   5.761   3.645   9.967  0.3016 -0.9092 -0.1995
  354MOL0     H48807   5.852   3.535  10.066 -1.2686 -1.9248  0.9518
  354MOL0     H48808   5.947   3.431   9.868 -2.7748 -1.7322 -0.4748
  354MOL0     H48809   5.875   3.552   9.769 -1.0585  0.2597  0.9018
  354MOL0     H48810   6.205   3.688  10.030 -2.2029  1.8785 -1.7716
  354MOL0     H48811   6.532   3.700  10.007 -2.1574  1.5700 -0.4782
  354MOL0     H48812   6.540   3.530  10.065 -0.9522 -1.0399 -0.1490
  354MOL0     H48813   6.425   3.650  10.139 -2.5481  0.3135 -1.6056
  354MOL0     H48814   6.638   3.099   9.762  0.5219 -0.0574  0.1119
  354MOL0     H48815   6.868   3.028   9.723  0.9017  1.0545  0.8562
  354MOL0     H48816   7.088   3.180   9.353  2.6894  1.3063 -0.8185
  354MOL0     H48817   7.112   3.298   9.483 -0.4317  0.1313 -0.7948
  354MOL0     H48818   7.329   3.208   9.440  0.8998 -1.0934  0.7821
  354MOL0     H48819   7.284   3.155   9.597  0.5581 -1.8513  0.4315
  354MOL0     H48820   7.207   2.990   9.363 -1.6178 -0.4178  0.2461
  354MOL0     H48821   7.204   2.937   9.530  0.6299 -0.7079  0.9275
  354MOL0     H48822   7.458   3.008   9.380 -0.7848 -0.1960 -1.6884
  354MOL0     H48823   7.392   2.845   9.410 -1.9160 -0.2099 -0.7175
  354MOL0     H48824   7.469   3.045   9.639  2.6410  0.4088 -0.4567
  354MOL0     H48825   7.411   2.883   9.648 -2.8910  4.2195  0.5817
  354MOL0     H48826   7.670   3.003   9.540 -0.7940  0.1005 -0.3379
  354MOL0     H48827   7.636   2.835   9.501 -1.9253 -0.3385  0.1781
  354MOL0     H48828   7.629   2.795   9.775 -0.6459 -0.0678  0.4488
  354MOL0     H48829   7.658   2.964   9.787 -0.5817  0.7238 -0.2771
  354MOL0     H48830   7.835   2.741   9.669 -1.0733 -1.3164  1.9266
  354MOL0     H48831   7.858   2.831   9.819  0.4429  1.0262  0.3405
  354MOL0     H48832   6.909   3.349   9.433 -1.9345 -0.9194 -3.4045
  354MOL0     H48833   6.691   3.448   9.528 -2.3774 -1.5196 -1.9405
  354MOL0     H48834   6.307   3.414   9.643 -1.3721 -1.3226  0.9963
  354MOL0     H48835   6.085   3.487   9.678  1.4970 -2.3642 -0.4153
  354MOL0     H48836   4.240   3.186  10.484 -1.1467  0.4492 -1.5481
  354MOL0     H48837   4.024   3.071  10.518 -0.0689  2.8823 -1.3449
  354MOL0     H48838   3.769   2.707  10.470  0.2061 -0.5134  0.8648
  354MOL0     H48839   3.553   2.601  10.523 -1.7317  0.5058  0.7428
  354MOL0     H48840   3.329   2.555  10.571 -3.3807  0.9774  0.6540
  354MOL0     H48841   3.190   2.504  10.473 -0.2275 -0.5043 -1.4357
  354MOL0     H48842   3.469   2.419  10.428  0.8413 -0.0214 -2.6592
  354MOL0     H48843   3.333   2.378  10.316  0.3375  3.9147 -0.1049
  354MOL0     H48844   3.412   2.196  10.457 -1.0041 -0.4511 -0.6755
  354MOL0     H48845   3.392   2.283  10.605 -1.0592 -1.5582  1.4889
  354MOL0     H48846   3.171   2.203  10.391  2.3712  0.8216 -0.3814
  354MOL0     H48847   3.134   2.291  10.543 -1.1103 -0.7861 -0.7550
  354MOL0     H48848   3.183   1.872  10.651  1.0780 -0.2644  0.0607
  354MOL0     H48849   3.375   2.792  10.188  0.3953 -1.3882 -0.6584
  354MOL0     H48850   3.584   3.049  10.138  0.1404 -0.7888  1.1386
  354MOL0     H48851   3.647   2.912  10.031  1.1982 -2.0966  1.1825
  354MOL0     H48852   3.476   2.941  10.049  0.8554 -1.8493 -1.5356
  355MOL0     O48853   1.590  11.367  10.541  0.8488 -0.9389 -0.0134
  355MOL0     C48854   1.503  11.340  10.621 -0.1265 -0.3540  0.2970
  355MOL0     O48855   1.521  11.313  10.747  0.2519  0.1981  0.1309
  355MOL0     C48856   1.639  11.350  10.795 -0.5343 -0.3424  0.5177
  355MOL0     C48857   1.679  11.482  10.805  0.0229  0.1216  0.1383
  355MOL0     C48858   1.809  11.510  10.845  0.0801 -0.0491  0.4883
  355MOL0     C48859   1.907  11.409  10.875  1.0324 -0.0635  0.2774
  355MOL0     O48860   2.037  11.434  10.893 -0.1014 -0.2725 -0.0417
  355MOL0     C48861   2.145  11.342  10.918  0.4073  0.8391 -0.5672
  355MOL0     C48862   2.280  11.418  10.919 -0.3776 -0.1434 -0.5911
  355MOL0     C48863   2.303  11.506  10.797  0.4481  0.2167  0.9721
  355MOL0     C48864   2.288  11.440  10.656  0.4750  0.2790  0.4256
  355MOL0     C48865   2.314  11.549  10.547 -0.6482  0.2874 -0.2716
  355MOL0     C48866   2.327  11.480  10.405  0.5107  0.3894 -1.1596
  355MOL0     C48867   2.213  11.386  10.367  0.0484 -0.1936  0.2080
  355MOL0     C48868   2.225  11.327  10.225  0.0328 -0.4204  0.1837
  355MOL0     N48869   2.123  11.216  10.207 -0.1908 -0.1350  0.0210
  355MOL0     C48870   2.147  11.088  10.247 -0.6809  0.5910  0.7060
  355MOL0     C48871   2.023  11.026  10.226 -0.3634 -0.3393  0.7338
  355MOL0     C48872   1.972  10.895  10.266  0.2264 -0.2945  0.0553
  355MOL0     C48873   2.055  10.783  10.189 -0.2614  0.0291  0.0688
  355MOL0     C48874   1.990  10.762  10.044 -0.2226 -0.3111 -0.4824
  355MOL0     C48875   2.084  10.708   9.934  0.2609  0.7832 -0.4032
  355MOL0     O48876   2.186  10.809   9.919 -0.4553  1.1732 -0.2989
  355MOL0     C48877   2.317  10.779   9.913 -1.0922  0.6967 -0.2632
  355MOL0     C48878   2.374  10.662   9.860 -0.5298  0.2091  0.2169
  355MOL0     C48879   2.511  10.642   9.862  1.4802  1.2255 -0.4207
  355MOL0     C48880   2.574  10.513   9.826  0.2163 -0.1123 -0.4970
  355MOL0     C48881   2.590  10.761   9.881 -0.2634 -0.3098  0.1073
  355MOL0     C48882   2.738  10.774   9.862 -0.6513  0.3131  0.1425
  355MOL0     O48883   2.799  10.819   9.973 -0.1119  0.5115  0.0009
  355MOL0     C48884   2.938  10.844   9.979 -0.5670  0.3328  0.3623
  355MOL0     C48885   2.998  10.807  10.098  0.1216  0.8595  0.1481
  355MOL0     C48886   3.138  10.822  10.116  0.4623 -0.3689 -0.1154
  355MOL0     C48887   3.219  10.875  10.011  0.4939  0.3352 -0.1624
  355MOL0     O48888   3.352  10.894  10.048 -0.5020  0.3430 -0.8570
  355MOL0     C48889   3.452  10.955   9.963 -0.0954 -0.3642  0.4216
  355MOL0     C48890   3.594  10.903  10.000  0.2876  0.0896  0.1646
  355MOL0     C48891   3.705  10.980   9.921  0.0138  0.5107  0.0907
  355MOL0     C48892   3.836  10.929   9.975 -0.3795 -0.1251  0.7126
  355MOL0     C48893   3.955  10.995   9.911 -0.0841 -0.3051 -0.6841
  355MOL0     C48894   4.086  10.980   9.984 -0.5778  0.2431  0.8916
  355MOL0     C48895   4.196  11.056   9.902  0.5850  0.5973 -0.0872
  355MOL0     C48896   4.322  11.077   9.986  1.1570  0.3181 -0.3746
  355MOL0    Cl48897   4.463  11.147   9.904  0.2158 -0.3864 -0.5278
  355MOL0     C48898   3.161  10.905   9.889 -0.0793 -0.4309 -0.1768
  355MOL0     C48899   3.022  10.887   9.872 -0.5073 -0.1378  0.7541
  355MOL0     O48900   2.789  10.723   9.760  0.3315  0.2956  0.7318
  355MOL0     C48901   2.536  10.883   9.925 -0.6441 -0.4533 -0.3054
  355MOL0     C48902   2.398  10.888   9.936  0.6361  0.6357  0.5144
  355MOL0     N48903   1.942  11.116  10.163 -0.4239  0.2053  0.4293
  355MOL0     N48904   2.006  11.226  10.143  1.1184  0.4530  0.3694
  355MOL0     C48905   1.856  11.277  10.867  0.3248  0.1005  0.1276
  355MOL0     C48906   1.725  11.248  10.822 -0.0217  0.5148 -0.9892
  355MOL0     C48907   1.366  11.304  10.570  0.3655 -0.2293 -0.4953
  355MOL0     C48908   1.279  11.231  10.653 -0.5628 -0.0375 -0.0036
  355MOL0     C48909   1.151  11.198  10.623 -1.0912 -0.9789 -0.3064
  355MOL0     C48910   1.099  11.253  10.506 -0.5209 -0.5517  0.0145
  355MOL0     O48911   0.965  11.260  10.466  0.2639  0.3510  0.4634
  355MOL0     C48912   0.877  11.211  10.561 -0.1676 -0.2273  0.2415
  355MOL0     C48913   0.853  11.048  10.545 -0.1943 -0.7390  0.4016
  355MOL0     C48914   0.741  11.040  10.440 -0.5864  0.1116  0.9188
  355MOL0     C48915   0.736  10.914  10.355  0.0630 -0.6474  0.0524
  355MOL0     C48916   0.845  10.917  10.252 -0.4823  0.3892 -0.1637
  355MOL0     C48917   0.935  10.928  10.170 -0.2732 -0.7814 -0.1552
  355MOL0     C48918   1.191  11.310  10.412 -0.4651  0.8193  0.7040
  355MOL0     C48919   1.326  11.341  10.441  0.0163 -0.4234 -0.9437
  355MOL0     C48920   1.403  11.411  10.339 -0.3303  0.0642  0.3450
  355MOL0     H48921   1.614  11.557  10.762  1.5800 -0.2528 -3.2645
  355MOL0     H48922   1.839  11.615  10.850  0.3886 -0.0926 -0.2891
  355MOL0     H48923   2.143  11.254  10.853 -3.4737 -0.3797  0.8918
  355MOL0     H48924   2.128  11.289  11.012 -2.1828  1.2307 -0.7545
  355MOL0     H48925   2.282  11.473  11.014  3.3053 -3.7343  1.7968
  355MOL0     H48926   2.361  11.345  10.914 -0.0908  0.2670 -2.5729
  355MOL0     H48927   2.228  11.586  10.800  1.5713  1.4237 -1.2372
  355MOL0     H48928   2.404  11.548  10.802  1.1358 -1.4134  1.3935
  355MOL0     H48929   2.361  11.359  10.656 -1.8899 -1.9793  1.1413
  355MOL0     H48930   2.184  11.410  10.645  0.6193  0.5227 -2.0071
  355MOL0     H48931   2.406  11.606  10.561  0.9562 -1.7886 -1.7764
  355MOL0     H48932   2.231  11.621  10.546 -0.7109  0.3141  1.8186
  355MOL0     H48933   2.343  11.556  10.328 -2.7898  2.0637 -0.3836
  355MOL0     H48934   2.416  11.417  10.412 -1.0019 -1.7193  0.2209
  355MOL0     H48935   2.127  11.454  10.365 -0.4868 -0.5467  3.7272
  355MOL0     H48936   2.196  11.311  10.446  0.4814  1.9831  2.5160
  355MOL0     H48937   2.215  11.414  10.160  1.5208 -0.8557 -0.6798
  355MOL0     H48938   2.326  11.287  10.208  0.7601  1.6727 -0.7740
  355MOL0     H48939   2.238  11.047  10.290  0.2355  0.8823 -0.8846
  355MOL0     H48940   1.864  10.881  10.254  0.5499 -1.1448 -2.2641
  355MOL0     H48941   2.003  10.880  10.370 -0.3959  1.4060  0.5227
  355MOL0     H48942   2.154  10.828  10.181  0.8672 -1.8835  2.0660
  355MOL0     H48943   2.063  10.688  10.243  0.1742 -1.3324 -2.2656
  355MOL0     H48944   1.905  10.693  10.045  0.0030 -0.6353 -1.9002
  355MOL0     H48945   1.952  10.858  10.008  0.9879  0.3390 -0.0928
  355MOL0     H48946   2.122  10.613   9.971 -1.1971  0.7798  1.2255
  355MOL0     H48947   2.042  10.675   9.838  1.7207 -0.9504 -0.4912
  355MOL0     H48948   2.320  10.568   9.849 -2.5286  1.2947  0.3285
  355MOL0     H48949   2.656  10.483   9.891 -1.6117 -0.6450  1.7038
  355MOL0     H48950   2.608  10.521   9.722  0.2609  0.4191 -0.4416
  355MOL0     H48951   2.496  10.437   9.838 -1.3702  1.5932  0.5874
  355MOL0     H48952   2.941  10.784  10.187  0.4315  0.9956  0.3857
  355MOL0     H48953   3.183  10.813  10.214 -0.7793  1.3888  0.6685
  355MOL0     H48954   3.429  10.936   9.858 -2.5821  3.4470  0.1239
  355MOL0     H48955   3.454  11.064   9.971 -2.4867 -0.1627 -1.0549
  355MOL0     H48956   3.604  10.917  10.108  1.5521 -0.4555  0.1305
  355MOL0     H48957   3.596  10.795   9.984  3.5676  0.0765  0.1488
  355MOL0     H48958   3.691  11.086   9.940 -0.8366 -0.0193  2.9308
  355MOL0     H48959   3.697  10.953   9.815 -2.6956 -3.6819  1.0908
  355MOL0     H48960   3.838  10.820   9.961 -1.0100 -0.4342  2.6191
  355MOL0     H48961   3.828  10.958  10.080 -0.3942  1.0890  0.3830
  355MOL0     H48962   3.969  10.942   9.816  1.1057  0.9759 -1.2582
  355MOL0     H48963   3.925  11.099   9.897 -1.5112 -0.8705 -2.0820
  355MOL0     H48964   4.103  10.872   9.993  1.5553  0.4923  0.3312
  355MOL0     H48965   4.085  11.018  10.087  2.2779  1.2120  0.6475
  355MOL0     H48966   4.153  11.151   9.869 -2.6336 -0.6798  0.1286
  355MOL0     H48967   4.236  11.000   9.817  0.6751  1.7218 -0.8134
  355MOL0     H48968   4.353  10.980  10.027 -0.0464  0.2771  0.4904
  355MOL0     H48969   4.305  11.133  10.079  0.8378  1.5095 -1.1355
  355MOL0     H48970   3.231  10.942   9.815  1.4934  1.2746  2.0272
  355MOL0     H48971   2.980  10.922   9.778  2.5413  0.8849 -0.3553
  355MOL0     H48972   2.603  10.962   9.959 -0.2441 -0.3461 -1.2926
  355MOL0     H48973   2.349  10.981   9.961  0.3830  0.3420  1.1189
  355MOL0     H48974   1.916  11.195  10.906  0.6430  0.4834  0.4654
  355MOL0     H48975   1.699  11.142  10.825  1.1206  0.2362 -0.0561
  355MOL0     H48976   1.308  11.211  10.755 -2.3127  1.2246  0.7704
  355MOL0     H48977   1.091  11.142  10.694 -0.8000 -1.2021 -0.2321
  355MOL0     H48978   0.916  11.249  10.655 -2.1228  1.7858  0.3233
  355MOL0     H48979   0.783  11.265  10.547 -0.3423 -1.0114 -2.1469
  355MOL0     H48980   0.810  11.000  10.633 -0.3176 -3.5907 -1.1068
  355MOL0     H48981   0.943  10.993  10.515  0.0930 -0.4511  0.7206
  355MOL0     H48982   0.648  11.072  10.489 -1.5484 -0.8721 -0.2045
  355MOL0     H48983   0.750  11.116  10.362 -0.6545  0.2815  1.0750
  355MOL0     H48984   0.645  10.915  10.295  1.1682 -1.3621 -1.7322
  355MOL0     H48985   0.740  10.826  10.421 -0.0774 -2.0878 -1.7923
  355MOL0     H48986   1.000  10.952  10.088 -3.2289  1.9431 -1.9263
  355MOL0     H48987   1.142  11.349  10.324 -1.4712  0.2023  0.9761
  355MOL0     H48988   1.483  11.357  10.289 -1.2220  0.6842 -1.8726
  355MOL0     H48989   1.344  11.453  10.256  0.9656 -0.3028 -0.7994
  355MOL0     H48990   1.451  11.495  10.390  2.2921  0.4142 -2.4448
  356MOL0     O48991  10.447   9.973   5.775 -0.1131  0.1505  0.9872
  356MOL0     C48992  10.470   9.984   5.658 -0.0977 -0.6268  0.0497
  356MOL0     O48993  10.588  10.001   5.601 -0.0478  0.1345 -0.3861
  356MOL0     C48994  10.700   9.971   5.666 -0.5508 -0.3105 -0.0591
  356MOL0     C48995  10.785   9.867   5.622  0.3567  0.0450  0.6251
  356MOL0     C48996  10.905   9.842   5.689 -0.5777  0.1677  0.1976
  356MOL0     C48997  10.941   9.918   5.801 -0.1291  0.7550  0.2440
  356MOL0     O48998  11.058   9.882   5.869 -0.2952 -0.5330 -1.1692
  356MOL0     C48999  11.086   9.936   6.001  0.0539 -0.1373 -0.0783
  356MOL0     C49000  11.222   9.876   6.058 -0.0553 -0.3655  0.9316
  356MOL0     C49001  11.200   9.728   6.084  1.0559 -0.4001 -0.7107
  356MOL0     C49002  11.329   9.656   6.123  0.4191 -0.1147 -0.2761
  356MOL0     C49003  11.286   9.517   6.156 -0.7326  0.4989 -0.4055
  356MOL0     C49004  11.405   9.431   6.205 -0.0245 -1.1364  0.2209
  356MOL0     C49005  11.378   9.294   6.263 -0.2654 -0.2889 -0.3806
  356MOL0     C49006  11.378   9.198   6.152 -0.1746 -0.4187 -0.0305
  356MOL0     N49007  11.495   9.180   6.069  0.4522  0.6394  0.1112
  356MOL0     C49008  11.586   9.078   6.067 -0.0380 -0.0555 -0.2586
  356MOL0     C49009  11.632   9.076   5.948  0.1374 -0.1271 -0.4905
  356MOL0     C49010  11.745   8.982   5.913  0.5694  0.2489 -0.6028
  356MOL0     C49011  11.732   8.936   5.778  0.1883  0.8740 -0.0322
  356MOL0     C49012  11.863   8.875   5.725  0.4497 -0.2138 -0.0075
  356MOL0     C49013  11.847   8.853   5.576  0.2345  0.0623 -0.2320
  356MOL0     O49014  11.863   8.972   5.500  0.5045  0.1632 -0.2632
  356MOL0     C49015  11.777   9.000   5.400  0.2310  0.1967 -0.6316
  356MOL0     C49016  11.689   9.104   5.416  0.4999  0.4548 -0.3220
  356MOL0     C49017  11.577   9.112   5.326 -0.5921 -0.1634 -1.1465
  356MOL0     C49018  11.457   9.197   5.381  0.3802  0.4271  1.2485
  356MOL0     C49019  11.583   9.042   5.204 -0.1068  0.7968 -0.3072
  356MOL0     C49020  11.488   9.061   5.091 -0.1382  0.3611  0.3230
  356MOL0     O49021  11.538   9.005   4.974  0.9238  0.2988 -0.3412
  356MOL0     C49022  11.462   9.016   4.854 -0.5926  0.8189 -1.4373
  356MOL0     C49023  11.350   9.092   4.825 -0.5999 -0.4221 -0.2824
  356MOL0     C49024  11.287   9.078   4.704  0.0511 -0.3026 -0.1570
  356MOL0     C49025  11.335   8.991   4.602  0.6674  0.0460  0.5166
  356MOL0     O49026  11.275   8.977   4.477 -0.0119 -0.1186 -0.9513
  356MOL0     C49027  11.135   8.961   4.479  0.3002  0.5709  0.0395
  356MOL0     C49028  11.087   8.875   4.362  0.2700 -0.2071 -1.1488
  356MOL0     C49029  11.127   8.732   4.380 -0.7072 -0.3764  0.3997
  356MOL0     C49030  11.077   8.637   4.275 -0.0102 -0.3726  0.6337
  356MOL0     C49031  11.068   8.489   4.324  0.1983  0.0019  0.8988
  356MOL0     C49032  11.205   8.428   4.364  1.1093  0.4779 -0.0313
  356MOL0     C49033  11.199   8.277   4.394 -0.0432 -0.0414 -0.5722
  356MOL0     C49034  11.333   8.218   4.358 -0.0080  0.5871 -0.3712
  356MOL0    Cl49035  11.354   8.170   4.187  0.0536 -0.0759  0.0393
  356MOL0     C49036  11.446   8.920   4.627  0.2063  0.4312  0.0488
  356MOL0     C49037  11.517   8.933   4.753  1.1535 -0.3085  0.6769
  356MOL0     O49038  11.375   9.110   5.121  0.1166  0.0011 -0.5514
  356MOL0     C49039  11.679   8.940   5.192 -0.1838 -0.2815  0.4700
  356MOL0     C49040  11.773   8.915   5.286  0.1990 -1.0328 -0.4736
  356MOL0     N49041  11.570   9.168   5.865 -0.3359  0.0811  0.9038
  356MOL0     N49042  11.484   9.225   5.942 -0.9054  0.4255  0.1949
  356MOL0     C49043  10.859  10.028   5.842  0.0075 -0.0176 -0.5344
  356MOL0     C49044  10.734  10.053   5.777  0.1149 -0.0901  0.4520
  356MOL0     C49045  10.352   9.996   5.559 -0.5613  0.1520 -0.4745
  356MOL0     C49046  10.374   9.980   5.418  0.1163  0.4481 -0.3288
  356MOL0     C49047  10.272   9.965   5.323  0.0466  0.2212 -0.2819
  356MOL0     C49048  10.132   9.980   5.364 -0.3233  0.2236 -0.6338
  356MOL0     O49049  10.035   9.960   5.269  0.5714 -0.2430  0.1268
  356MOL0     C49050   9.889   9.969   5.298 -0.0094  0.8963  0.4523
  356MOL0     C49051   9.825  10.024   5.173  0.4220  0.5948  0.3901
  356MOL0     C49052   9.676  10.025   5.176  0.2658  0.8432  0.4005
  356MOL0     C49053   9.617  10.131   5.260 -0.6711  0.6265 -0.5030
  356MOL0     C49054   9.636  10.272   5.199  0.4429  0.8465  0.0808
  356MOL0     C49055   9.647  10.384   5.159  0.1893 -0.3351 -0.0283
  356MOL0     C49056  10.115  10.006   5.500  0.5269  0.2055  0.6632
  356MOL0     C49057  10.216  10.014   5.594  0.1864 -0.2482 -0.4749
  356MOL0     C49058  10.176  10.024   5.739 -0.5652  0.5887  0.0405
  356MOL0     H49059  10.752   9.803   5.541 -1.5600  0.8310  0.7404
  356MOL0     H49060  10.970   9.757   5.672  2.4893  2.5072 -0.5981
  356MOL0     H49061  11.003   9.902   6.064 -0.9809  2.0734 -0.1597
  356MOL0     H49062  11.093  10.045   6.000 -1.2533 -0.0076  1.6408
  356MOL0     H49063  11.308   9.906   5.996  1.3545  0.8892  3.3414
  356MOL0     H49064  11.244   9.914   6.158  3.5826 -1.4659  0.7075
  356MOL0     H49065  11.124   9.718   6.162  1.6637  1.1707  0.1276
  356MOL0     H49066  11.148   9.679   6.002  0.2228 -1.1580  0.2321
  356MOL0     H49067  11.397   9.658   6.038 -1.0303  0.2434 -1.4768
  356MOL0     H49068  11.371   9.703   6.212 -0.5575  0.0605  0.0991
  356MOL0     H49069  11.244   9.463   6.071  2.5995  0.5367 -2.2436
  356MOL0     H49070  11.216   9.501   6.239 -1.6466 -0.4726 -1.3303
  356MOL0     H49071  11.469   9.419   6.116 -0.7314 -0.8186 -0.3383
  356MOL0     H49072  11.454   9.496   6.278  2.1724  1.5834 -3.3274
  356MOL0     H49073  11.279   9.296   6.308  0.5258  0.2361  1.4361
  356MOL0     H49074  11.442   9.272   6.350  0.4002  0.1374 -0.7504
  356MOL0     H49075  11.338   9.100   6.178  0.2809 -1.0132 -1.4611
  356MOL0     H49076  11.302   9.235   6.082  0.4715 -1.1749 -1.1613
  356MOL0     H49077  11.606   9.002   6.142  1.6341 -0.1780 -0.8048
  356MOL0     H49078  11.743   8.898   5.982  0.4712 -0.1894 -1.1354
  356MOL0     H49079  11.845   9.026   5.926  1.1541 -1.4639  1.2894
  356MOL0     H49080  11.646   8.869   5.773  0.3375  0.2832  2.9474
  356MOL0     H49081  11.705   9.026   5.722  0.2105  0.0227 -1.4421
  356MOL0     H49082  11.953   8.931   5.750  0.1378  0.0015  0.6680
  356MOL0     H49083  11.871   8.778   5.776  3.5907 -0.4314 -0.7394
  356MOL0     H49084  11.924   8.785   5.538 -1.2216 -0.8727 -1.6106
  356MOL0     H49085  11.753   8.798   5.563  0.9585 -1.3107  0.0984
  356MOL0     H49086  11.677   9.163   5.506 -3.7933  0.2025 -0.5131
  356MOL0     H49087  11.464   9.288   5.321 -0.8205  0.3032  0.8930
  356MOL0     H49088  11.451   9.227   5.486  1.3184  2.9585  0.6422
  356MOL0     H49089  11.357   9.155   5.366  0.6297 -1.2640  3.6191
  356MOL0     H49090  11.312   9.174   4.885 -0.7872 -0.3461 -0.5028
  356MOL0     H49091  11.204   9.144   4.681  1.5262  2.7434  2.5010
  356MOL0     H49092  11.092   8.932   4.574 -1.1395 -0.7236 -0.9596
  356MOL0     H49093  11.093   9.060   4.457 -1.2851 -0.3428 -1.2706
  356MOL0     H49094  10.979   8.887   4.350 -0.2570 -0.7747  2.1323
  356MOL0     H49095  11.136   8.918   4.274 -1.2136  1.0129 -1.4259
  356MOL0     H49096  11.084   8.691   4.472 -2.1187 -0.0069 -0.0720
  356MOL0     H49097  11.237   8.738   4.383 -0.7429  0.0239  1.4758
  356MOL0     H49098  11.122   8.645   4.176 -2.7584 -1.8806 -0.8244
  356MOL0     H49099  10.973   8.664   4.256  0.2429 -1.0272 -1.9618
  356MOL0     H49100  11.012   8.483   4.418 -0.7716  1.0101  0.4150
  356MOL0     H49101  11.020   8.431   4.246  2.3094  1.3469 -1.5448
  356MOL0     H49102  11.239   8.478   4.455 -1.1008 -1.1047  1.7812
  356MOL0     H49103  11.283   8.446   4.289  1.1401  0.7348  0.0612
  356MOL0     H49104  11.123   8.227   4.333 -1.8786  0.0580  1.4977
  356MOL0     H49105  11.179   8.262   4.501  2.0213 -0.4013 -0.1858
  356MOL0     H49106  11.355   8.123   4.408  1.1419  1.8332  1.6536
  356MOL0     H49107  11.412   8.292   4.379 -0.3773  1.1243 -0.8482
  356MOL0     H49108  11.470   8.849   4.549 -2.8107 -2.4931  1.5667
  356MOL0     H49109  11.592   8.859   4.779 -0.1052 -1.3388  1.5314
  356MOL0     H49110  11.698   8.881   5.103  1.3430  0.5827  0.1876
  356MOL0     H49111  11.848   8.837   5.288  1.8305  0.4819  0.9882
  356MOL0     H49112  10.891  10.102   5.915 -1.6261  0.1624  0.0634
  356MOL0     H49113  10.661  10.122   5.818 -2.0539 -1.8599 -0.2203
  356MOL0     H49114  10.479   9.960   5.396  0.7873  0.8614  2.1659
  356MOL0     H49115  10.300   9.941   5.221 -0.6968  1.1917 -0.7330
  356MOL0     H49116   9.839   9.874   5.320 -1.4884  1.5209 -0.0932
  356MOL0     H49117   9.880  10.033   5.386 -1.2098 -0.9932  1.7895
  356MOL0     H49118   9.853   9.953   5.094  2.0123 -0.7972  2.0992
  356MOL0     H49119   9.852  10.128   5.154 -2.9342  1.6074  0.6721
  356MOL0     H49120   9.629  10.038   5.078  1.1553  0.3309 -0.1124
  356MOL0     H49121   9.647   9.924   5.207 -1.2080  0.6426 -1.4517
  356MOL0     H49122   9.657  10.127   5.362  0.8047 -4.1707 -1.0410
  356MOL0     H49123   9.510  10.117   5.274 -0.7355  0.2525 -1.3366
  356MOL0     H49124   9.666  10.479   5.114  0.7972 -0.3209  0.2516
  356MOL0     H49125  10.015  10.007   5.543  1.0514 -0.8031  2.0016
  356MOL0     H49126  10.204   9.935   5.797  1.2825  0.9997 -0.1712
  356MOL0     H49127  10.237  10.105   5.780  1.8023 -0.4030 -1.3325
  356MOL0     H49128  10.072  10.058   5.748 -1.1490 -1.3748  1.4623
  357MOL0     O49129   4.909   5.066   5.218  0.1913  0.6116  0.1784
  357MOL0     C49130   4.837   4.984   5.155 -1.1560 -0.1157 -0.9504
  357MOL0     O49131   4.853   4.950   5.024  0.8661  0.1775 -0.6055
  357MOL0     C49132   4.955   5.014   4.954 -0.2728  0.8187 -0.2989
  357MOL0     C49133   5.047   4.932   4.888 -0.1220 -0.3154  0.5512
  357MOL0     C49134   5.159   4.979   4.825  0.4599 -0.4444  0.5594
  357MOL0     C49135   5.173   5.122   4.813  0.3070 -0.4615 -0.2938
  357MOL0     O49136   5.262   5.186   4.739  0.0195 -0.3750 -0.0376
  357MOL0     C49137   5.380   5.109   4.697 -0.0835  0.0720 -0.0570
  357MOL0     C49138   5.467   5.078   4.817  0.3793 -0.8051 -0.2204
  357MOL0     C49139   5.597   5.010   4.775 -0.8117  0.4724  0.7336
  357MOL0     C49140   5.707   5.112   4.737  0.1556  0.1831 -0.0318
  357MOL0     C49141   5.841   5.039   4.705  0.6004  0.1445 -0.8332
  357MOL0     C49142   5.965   5.124   4.668 -0.7473  0.3468 -0.2337
  357MOL0     C49143   6.011   5.207   4.792 -0.1608  0.1664 -0.0025
  357MOL0     C49144   6.137   5.290   4.752  0.2592 -0.2647 -0.3707
  357MOL0     N49145   6.195   5.346   4.872 -0.3505  0.8405 -0.2739
  357MOL0     C49146   6.131   5.427   4.955 -0.6849 -1.1585  0.4308
  357MOL0     C49147   6.221   5.456   5.051  0.1991 -0.7213  0.1625
  357MOL0     C49148   6.202   5.540   5.175  0.3408 -0.7375  0.1801
  357MOL0     C49149   6.117   5.668   5.152  0.3520 -0.6902 -0.0300
  357MOL0     C49150   6.114   5.759   5.278  0.2971 -0.5021 -0.5006
  357MOL0     C49151   6.009   5.868   5.273 -0.1914  0.1698  0.0295
  357MOL0     O49152   5.881   5.807   5.288  0.1649 -0.5509 -0.3748
  357MOL0     C49153   5.775   5.851   5.211  0.7576  0.3553  0.1604
  357MOL0     C49154   5.660   5.896   5.267  1.1353 -0.5113 -0.7043
  357MOL0     C49155   5.545   5.939   5.196  0.0939  0.2445 -0.1504
  357MOL0     C49156   5.420   5.962   5.275  0.0442  0.5196 -0.0035
  357MOL0     C49157   5.551   5.924   5.050 -0.6446 -0.3447 -0.0521
  357MOL0     C49158   5.428   5.942   4.971 -1.0847 -0.2194  0.5162
  357MOL0     O49159   5.311   5.975   5.026 -0.3322  0.3178 -0.0791
  357MOL0     C49160   5.196   5.977   4.944  0.3722  0.8256 -0.4800
  357MOL0     C49161   5.090   5.896   4.988 -0.3712 -0.9420  0.3389
  357MOL0     C49162   4.966   5.895   4.916 -0.8929  0.0925  0.5291
  357MOL0     C49163   4.951   5.968   4.804 -0.9610 -0.5248  1.1414
  357MOL0     O49164   4.834   5.956   4.720  0.2413  0.7301 -0.7186
  357MOL0     C49165   4.787   6.080   4.672 -0.3135  0.2398  0.6813
  357MOL0     C49166   4.641   6.055   4.632 -0.4074 -0.3650 -0.7043
  357MOL0     C49167   4.564   6.020   4.752  0.9054  0.1250 -0.7783
  357MOL0     C49168   4.414   5.990   4.715  0.8337  0.7709  0.2378
  357MOL0     C49169   4.325   5.962   4.841  0.1249 -0.2800 -0.1013
  357MOL0     C49170   4.180   5.918   4.800 -0.6015  0.5179 -0.0995
  357MOL0     C49171   4.101   5.885   4.917  0.0151 -0.0108 -0.8071
  357MOL0     C49172   3.970   5.831   4.891 -0.1859 -0.6800 -0.7516
  357MOL0    Cl49173   3.889   5.815   5.054 -0.0049 -0.0565 -0.0712
  357MOL0     C49174   5.056   6.056   4.763  0.2119  0.9339  0.5152
  357MOL0     C49175   5.174   6.058   4.832  0.0744  0.7352 -0.3589
  357MOL0     O49176   5.440   5.920   4.847 -0.0806  0.0622 -0.5929
  357MOL0     C49177   5.671   5.883   4.984 -1.0058  0.3932  0.3401
  357MOL0     C49178   5.777   5.843   5.068 -0.4712 -0.2820 -0.5305
  357MOL0     N49179   6.340   5.403   5.025  0.1035  0.6057  0.2434
  357MOL0     N49180   6.320   5.333   4.912 -0.1296 -0.3902 -0.0050
  357MOL0     C49181   5.076   5.203   4.881  0.2001  0.9132 -0.7437
  357MOL0     C49182   4.963   5.147   4.944 -0.1075 -0.1250  0.2647
  357MOL0     C49183   4.727   4.923   5.226 -0.3398 -0.1206 -0.3297
  357MOL0     C49184   4.710   4.783   5.230 -0.2561 -0.2070  0.0039
  357MOL0     C49185   4.599   4.724   5.287  0.3915 -0.3811  0.7775
  357MOL0     C49186   4.493   4.811   5.336 -0.7672  0.1106  0.5764
  357MOL0     O49187   4.383   4.754   5.391 -1.0965  0.0840 -0.5088
  357MOL0     C49188   4.339   4.624   5.334  0.1355 -0.2519  0.4924
  357MOL0     C49189   4.202   4.599   5.383  0.0661 -0.9085  0.6975
  357MOL0     C49190   4.142   4.474   5.330  0.4308 -0.0217  0.1283
  357MOL0     C49191   3.995   4.460   5.382  1.3006  0.8169  0.3534
  357MOL0     C49192   3.923   4.344   5.334  0.7707  0.6051  0.6719
  357MOL0     C49193   3.859   4.258   5.280 -0.3421  0.4516 -0.0291
  357MOL0     C49194   4.510   4.952   5.336  0.0809  0.6805 -0.2201
  357MOL0     C49195   4.626   5.013   5.289  0.8633  0.3232  0.2011
  357MOL0     C49196   4.627   5.162   5.284  0.5299 -0.3017 -0.1269
  357MOL0     H49197   5.042   4.824   4.888  3.0773 -0.5684  0.6546
  357MOL0     H49198   5.238   4.918   4.782  0.7535  0.0731  0.3449
  357MOL0     H49199   5.440   5.171   4.629  2.6813 -3.1091 -0.7898
  357MOL0     H49200   5.358   5.021   4.636  0.3222 -0.5946  0.7492
  357MOL0     H49201   5.481   5.167   4.879  1.1926 -0.5738 -0.7077
  357MOL0     H49202   5.424   5.000   4.881  0.9517 -1.1690 -0.2714
  357MOL0     H49203   5.641   4.958   4.861  2.2164 -0.2220 -1.0958
  357MOL0     H49204   5.582   4.938   4.694 -0.9012  3.9670 -2.6077
  357MOL0     H49205   5.676   5.175   4.653 -1.0228 -0.4532 -0.1017
  357MOL0     H49206   5.717   5.178   4.823 -0.2714  0.6448 -0.3313
  357MOL0     H49207   5.827   4.962   4.629  0.2640 -0.8413  0.1975
  357MOL0     H49208   5.869   4.982   4.794 -1.1975  1.3389  0.5712
  357MOL0     H49209   6.036   5.050   4.630 -1.6831 -0.1835 -1.0131
  357MOL0     H49210   5.952   5.184   4.577  1.7152  1.7440  0.2561
  357MOL0     H49211   6.037   5.137   4.872  2.1447  1.5751  0.5657
  357MOL0     H49212   5.936   5.280   4.825 -0.2694 -0.2551  0.7120
  357MOL0     H49213   6.210   5.223   4.706  1.2820 -1.2541  2.4328
  357MOL0     H49214   6.096   5.367   4.686  1.0281 -0.9914 -1.7393
  357MOL0     H49215   6.032   5.472   4.946  0.1982  0.9441  0.7127
  357MOL0     H49216   6.296   5.584   5.208 -0.7973  2.7175 -0.7592
  357MOL0     H49217   6.166   5.475   5.255  2.3054 -0.9650  0.9272
  357MOL0     H49218   6.149   5.724   5.063 -0.3652 -1.0644 -0.5257
  357MOL0     H49219   6.015   5.636   5.130 -0.3227  0.5619  1.1514
  357MOL0     H49220   6.104   5.711   5.375  2.4274  1.3562  0.7411
  357MOL0     H49221   6.215   5.802   5.277  0.6377 -1.1485  1.9101
  357MOL0     H49222   6.029   5.945   5.348  1.9884  1.6253 -1.8977
  357MOL0     H49223   6.008   5.919   5.176  2.1312 -2.5181 -1.5623
  357MOL0     H49224   5.652   5.899   5.375 -1.1810  1.9581 -0.8299
  357MOL0     H49225   5.345   5.884   5.257  1.5170 -1.7126  2.7977
  357MOL0     H49226   5.367   6.056   5.259 -1.0779  0.4014  2.5732
  357MOL0     H49227   5.439   5.959   5.382 -1.1529  1.2081  0.2417
  357MOL0     H49228   5.098   5.850   5.086  0.1994 -1.7898 -0.0893
  357MOL0     H49229   4.894   5.824   4.954  0.8009 -1.4785  0.9233
  357MOL0     H49230   4.805   6.157   4.748  1.8864 -2.2527  2.9286
  357MOL0     H49231   4.834   6.118   4.582 -1.1054  0.8365  0.5014
  357MOL0     H49232   4.604   6.148   4.587  1.2412  0.4325 -0.4788
  357MOL0     H49233   4.628   5.973   4.561 -1.4580 -1.6629  0.9086
  357MOL0     H49234   4.561   6.094   4.833  4.0300 -0.9483  0.4656
  357MOL0     H49235   4.605   5.927   4.794  1.3778  0.6562 -0.0370
  357MOL0     H49236   4.417   5.896   4.659 -2.9230  0.0173  1.0590
  357MOL0     H49237   4.370   6.068   4.653  0.7734  0.1516 -0.5079
  357MOL0     H49238   4.378   5.885   4.898 -1.2971  0.0611  1.7638
  357MOL0     H49239   4.318   6.045   4.912  1.2554 -1.5570  1.5778
  357MOL0     H49240   4.175   5.841   4.723 -2.2592  0.2122  0.2794
  357MOL0     H49241   4.133   6.003   4.749  3.4038  2.9257 -0.2058
  357MOL0     H49242   4.095   5.961   4.996 -2.5058 -1.0726  0.1080
  357MOL0     H49243   4.158   5.798   4.952 -0.6836 -1.4315 -3.0322
  357MOL0     H49244   3.969   5.737   4.834 -0.8691 -1.4938  0.5568
  357MOL0     H49245   3.915   5.906   4.834 -1.0058  0.0444  0.9323
  357MOL0     H49246   5.042   6.116   4.674 -0.4305 -0.3283 -0.2591
  357MOL0     H49247   5.246   6.129   4.793 -0.2921  4.1134  4.2908
  357MOL0     H49248   5.693   5.885   4.877  2.1019 -1.0528  0.8515
  357MOL0     H49249   5.873   5.810   5.029 -0.3250 -1.2631  0.5745
  357MOL0     H49250   5.091   5.311   4.880  0.0479  0.9619 -3.0059
  357MOL0     H49251   4.893   5.206   5.002  0.3000 -2.5939  3.5381
  357MOL0     H49252   4.796   4.722   5.202 -0.9641 -0.3442 -2.0323
  357MOL0     H49253   4.598   4.616   5.279 -0.1960 -0.2572 -1.7850
  357MOL0     H49254   4.337   4.619   5.225 -1.0744 -1.4621  0.5437
  357MOL0     H49255   4.406   4.550   5.379  2.3967  0.9410 -0.7376
  357MOL0     H49256   4.142   4.683   5.348  1.5697 -0.2810 -0.5459
  357MOL0     H49257   4.204   4.590   5.492  2.0561 -3.4603  0.5467
  357MOL0     H49258   4.147   4.470   5.221 -0.4176  1.9803 -0.0263
  357MOL0     H49259   4.199   4.388   5.366 -2.0976 -1.3524  1.2482
  357MOL0     H49260   3.929   4.536   5.339  0.0519 -0.8138 -0.7679
  357MOL0     H49261   3.989   4.458   5.491 -3.3217 -1.4914  0.2795
  357MOL0     H49262   3.812   4.184   5.219 -0.7471  2.1900 -1.9397
  357MOL0     H49263   4.424   5.007   5.373 -0.1134  0.3142 -0.1267
  357MOL0     H49264   4.696   5.206   5.357  1.2993  1.6239 -1.9192
  357MOL0     H49265   4.662   5.186   5.183  1.0468 -2.4862 -0.5244
  357MOL0     H49266   4.527   5.203   5.296 -0.5317 -2.6262 -0.5605
  358MOL0     O49267   3.802   4.509   8.395  0.3380  0.5223 -0.7296
  358MOL0     C49268   3.787   4.538   8.278  0.3180 -0.6222  0.8310
  358MOL0     O49269   3.885   4.523   8.182 -0.1968 -0.0880  0.1070
  358MOL0     C49270   4.005   4.475   8.226  0.3249 -0.7661 -0.1490
  358MOL0     C49271   4.111   4.569   8.238  0.2041 -0.1882  0.3703
  358MOL0     C49272   4.238   4.531   8.282  0.2373  0.1581  0.1442
  358MOL0     C49273   4.257   4.402   8.331  0.1229  0.5598 -1.4769
  358MOL0     O49274   4.379   4.376   8.395  0.4147  0.6702  0.4566
  358MOL0     C49275   4.418   4.241   8.412  0.4886  0.7881 -0.1918
  358MOL0     C49276   4.549   4.222   8.481  0.5933  0.4742 -0.0568
  358MOL0     C49277   4.677   4.268   8.403  0.1880  0.3901 -0.3756
  358MOL0     C49278   4.807   4.239   8.482  0.0491 -0.3251  0.7359
  358MOL0     C49279   4.930   4.320   8.419  0.8943 -1.2756 -0.2953
  358MOL0     C49280   5.057   4.272   8.489 -0.4039 -0.2841  0.3195
  358MOL0     C49281   5.185   4.332   8.411  0.0184 -0.5567 -0.7255
  358MOL0     C49282   5.319   4.301   8.498  0.9935  0.3545 -0.1279
  358MOL0     N49283   5.440   4.360   8.445  0.1841 -0.1975  0.1399
  358MOL0     C49284   5.506   4.480   8.479  0.2406  0.3095 -0.1199
  358MOL0     C49285   5.609   4.488   8.390  0.1447  0.0023 -1.2960
  358MOL0     C49286   5.714   4.595   8.377  0.2439  0.0855  0.6764
  358MOL0     C49287   5.659   4.729   8.333  0.0943  0.0009 -0.5987
  358MOL0     C49288   5.763   4.831   8.287 -0.0657  0.2456  0.7679
  358MOL0     C49289   5.865   4.869   8.395 -0.2653 -0.4159  0.7744
  358MOL0     O49290   5.953   4.969   8.330 -0.0973  0.5016 -0.5223
  358MOL0     C49291   6.060   5.021   8.401 -0.2842  0.7567 -0.0472
  358MOL0     C49292   6.139   5.105   8.327 -0.2410  0.0353  0.0035
  358MOL0     C49293   6.263   5.166   8.367  0.1154 -0.5015 -0.1778
  358MOL0     C49294   6.334   5.261   8.282 -0.0161 -0.3419 -0.3958
  358MOL0     C49295   6.300   5.146   8.504  0.6416  0.2550  0.0670
  358MOL0     C49296   6.420   5.208   8.575  0.3406  0.6197  0.9113
  358MOL0     O49297   6.508   5.291   8.519  0.4384 -0.4954 -0.5870
  358MOL0     C49298   6.617   5.335   8.596 -0.0937 -0.4857 -0.0409
  358MOL0     C49299   6.685   5.270   8.702  0.1805 -0.6223  0.7161
  358MOL0     C49300   6.801   5.319   8.764 -0.5300 -1.1474 -0.0041
  358MOL0     C49301   6.859   5.434   8.706  0.1250 -0.2941 -0.0046
  358MOL0     O49302   6.974   5.481   8.770  0.8768 -0.8199  0.0407
  358MOL0     C49303   7.091   5.449   8.699  1.6969 -0.6453  0.6433
  358MOL0     C49304   7.203   5.521   8.763  0.6968  0.1064 -0.4979
  358MOL0     C49305   7.329   5.532   8.677  0.6183 -0.2083 -0.4708
  358MOL0     C49306   7.436   5.603   8.756 -0.3451  0.0559 -0.4259
  358MOL0     C49307   7.582   5.598   8.704  0.4346  0.1104  0.0836
  358MOL0     C49308   7.686   5.650   8.802  0.0404 -0.0514 -0.0495
  358MOL0     C49309   7.820   5.658   8.729  0.1420 -0.3985  0.2369
  358MOL0     C49310   7.889   5.525   8.724 -0.2034  0.5104  0.6587
  358MOL0    Cl49311   8.044   5.553   8.633  0.3053  0.2643 -0.1502
  358MOL0     C49312   6.799   5.506   8.601  0.1781  0.1069  0.4230
  358MOL0     C49313   6.672   5.461   8.555 -0.9017 -1.5080 -0.1373
  358MOL0     O49314   6.421   5.194   8.693  0.8854  0.4052 -0.6732
  358MOL0     C49315   6.210   5.064   8.583  0.2763  0.2940 -0.4350
  358MOL0     C49316   6.096   4.999   8.534 -0.1150 -0.3144 -0.0742
  358MOL0     N49317   5.613   4.379   8.305  0.9583  0.0096  0.1884
  358MOL0     N49318   5.510   4.304   8.341  0.4977 -0.2918 -0.6441
  358MOL0     C49319   4.152   4.306   8.325  0.1905  0.1851 -0.7758
  358MOL0     C49320   4.032   4.342   8.268  0.3064  0.5488 -0.0548
  358MOL0     C49321   3.656   4.576   8.229  1.1398  0.3718 -0.0598
  358MOL0     C49322   3.536   4.511   8.278 -0.3866 -0.6094 -0.1607
  358MOL0     C49323   3.408   4.555   8.228  0.4406  0.5189 -1.0204
  358MOL0     C49324   3.388   4.660   8.149 -0.1477  0.3937  0.9390
  358MOL0     O49325   3.269   4.698   8.105 -0.3310  0.0340 -0.3213
  358MOL0     C49326   3.150   4.633   8.151  0.0325 -0.0168  0.8137
  358MOL0     C49327   3.026   4.688   8.079 -0.3297 -0.2812  0.0378
  358MOL0     C49328   2.907   4.597   8.112  0.4229  0.5731 -0.5440
  358MOL0     C49329   2.778   4.625   8.017 -0.1777  0.2458 -0.7335
  358MOL0     C49330   2.684   4.518   8.017 -0.8591 -0.0015  0.2484
  358MOL0     C49331   2.613   4.420   8.028 -0.0066 -0.4549  0.4383
  358MOL0     C49332   3.498   4.726   8.101  0.1584 -1.0668  0.0253
  358MOL0     C49333   3.638   4.689   8.143 -0.7459 -0.1847  0.5040
  358MOL0     C49334   3.748   4.776   8.090 -0.9158  0.4901 -0.0643
  358MOL0     H49335   4.081   4.670   8.212 -1.1448 -0.6968 -0.1270
  358MOL0     H49336   4.313   4.608   8.298  1.2327 -0.4649 -1.3345
  358MOL0     H49337   4.418   4.189   8.316 -1.6894  1.7556 -0.7771
  358MOL0     H49338   4.336   4.199   8.472  0.7810 -1.1347 -1.0390
  358MOL0     H49339   4.540   4.280   8.573  2.8389  0.7161  0.0766
  358MOL0     H49340   4.547   4.115   8.505 -0.9191  0.1035 -1.6748
  358MOL0     H49341   4.680   4.204   8.315 -1.6114 -1.1383  0.6073
  358MOL0     H49342   4.669   4.373   8.373  1.1527  0.9736  1.2878
  358MOL0     H49343   4.783   4.287   8.578 -1.4948 -0.9542  0.6964
  358MOL0     H49344   4.831   4.134   8.504 -1.2193 -1.3119 -2.0784
  358MOL0     H49345   4.913   4.427   8.427 -2.8333 -1.6450 -1.5012
  358MOL0     H49346   4.932   4.302   8.311 -1.0877 -0.6544 -0.4701
  358MOL0     H49347   5.054   4.310   8.592 -1.8628 -0.0312  0.2100
  358MOL0     H49348   5.061   4.163   8.500 -0.6476 -0.5380 -1.8062
  358MOL0     H49349   5.182   4.441   8.402  1.7178 -0.4289 -0.1238
  358MOL0     H49350   5.182   4.287   8.312 -2.0311 -1.5408 -0.2692
  358MOL0     H49351   5.303   4.355   8.592  0.6693  0.3645 -0.1888
  358MOL0     H49352   5.342   4.196   8.518 -0.0306 -0.0258 -0.8702
  358MOL0     H49353   5.477   4.546   8.561  0.2460 -0.0159  0.1432
  358MOL0     H49354   5.792   4.563   8.308  1.5472  0.3134  2.0028
  358MOL0     H49355   5.765   4.615   8.472 -0.8471  1.5379  1.0030
  358MOL0     H49356   5.581   4.715   8.257  0.8490 -2.3191 -1.0201
  358MOL0     H49357   5.609   4.775   8.418  1.0540 -1.9295  1.0851
  358MOL0     H49358   5.819   4.795   8.199  0.4908  0.9701  0.8122
  358MOL0     H49359   5.711   4.923   8.257 -1.0624  0.0136  1.7531
  358MOL0     H49360   5.818   4.922   8.478 -3.8362  0.6153 -1.6820
  358MOL0     H49361   5.917   4.783   8.439  0.6495 -1.5879 -2.2619
  358MOL0     H49362   6.105   5.120   8.226 -2.6733 -3.4292  0.1296
  358MOL0     H49363   6.439   5.239   8.259  0.0675  0.2864 -0.6103
  358MOL0     H49364   6.316   5.361   8.322 -1.4305  0.5400 -3.0063
  358MOL0     H49365   6.293   5.276   8.182 -0.4784  0.7843 -0.0485
  358MOL0     H49366   6.645   5.188   8.762 -1.9804 -0.2868 -0.1568
  358MOL0     H49367   6.854   5.291   8.854 -1.3915  1.9842  1.6216
  358MOL0     H49368   7.106   5.342   8.684  0.1990 -0.8705  0.5665
  358MOL0     H49369   7.069   5.487   8.599  0.0637  1.6106  1.7694
  358MOL0     H49370   7.166   5.623   8.780  0.7450  0.4771 -2.3542
  358MOL0     H49371   7.216   5.477   8.862 -0.1877  0.1769 -0.3377
  358MOL0     H49372   7.306   5.583   8.583 -0.7287  0.2686  0.1016
  358MOL0     H49373   7.375   5.436   8.648 -0.8968 -1.3086  0.6497
  358MOL0     H49374   7.434   5.561   8.857 -2.9536 -0.8824 -0.7855
  358MOL0     H49375   7.407   5.709   8.761 -0.4519  0.0150 -0.1470
  358MOL0     H49376   7.609   5.501   8.661 -1.6608 -0.4004 -0.1803
  358MOL0     H49377   7.581   5.666   8.618  1.6976  1.5395  1.1373
  358MOL0     H49378   7.696   5.578   8.884  1.7284  0.1440 -0.0558
  358MOL0     H49379   7.661   5.749   8.840  1.3764  0.5443 -0.6833
  358MOL0     H49380   7.886   5.727   8.783  0.4942 -1.4093  1.1233
  358MOL0     H49381   7.827   5.698   8.627  0.4263  2.2845  1.2408
  358MOL0     H49382   7.823   5.457   8.670 -1.4932  1.8646  0.4629
  358MOL0     H49383   7.904   5.474   8.819 -1.4312 -4.2239 -1.4089
  358MOL0     H49384   6.848   5.595   8.564 -0.2995  0.3536  0.3872
  358MOL0     H49385   6.636   5.535   8.485 -0.2834  0.7655  1.8134
  358MOL0     H49386   6.214   5.059   8.691 -1.7285  1.5340 -0.2411
  358MOL0     H49387   6.038   4.933   8.598  0.8192 -0.0009  1.1387
  358MOL0     H49388   4.152   4.203   8.359 -0.8645  0.6433  0.6845
  358MOL0     H49389   3.957   4.264   8.258  0.6747  0.2491 -0.5098
  358MOL0     H49390   3.544   4.423   8.341 -0.7292 -0.2516  0.3890
  358MOL0     H49391   3.321   4.501   8.267  0.5449  0.5191 -0.7845
  358MOL0     H49392   3.145   4.525   8.130 -0.4552 -0.3273  2.3778
  358MOL0     H49393   3.135   4.653   8.257 -1.1711 -0.1463  0.6811
  358MOL0     H49394   3.047   4.687   7.972 -0.3619 -0.6595  0.0318
  358MOL0     H49395   3.014   4.794   8.103  3.9460  0.3067  0.3275
  358MOL0     H49396   2.938   4.492   8.107 -1.4960 -0.1204  0.7490
  358MOL0     H49397   2.881   4.603   8.218  2.7715  1.2902  0.0366
  358MOL0     H49398   2.813   4.650   7.916 -2.1515  1.6192 -1.1185
  358MOL0     H49399   2.726   4.715   8.050 -0.9499  0.2535 -1.9336
  358MOL0     H49400   2.541   4.341   8.041 -0.3475 -0.1740  0.2606
  358MOL0     H49401   3.482   4.793   8.017 -2.3307 -1.8075 -0.1799
  358MOL0     H49402   3.813   4.809   8.172 -2.7996 -0.5973  2.0029
  358MOL0     H49403   3.808   4.728   8.012  1.1921  0.3888  1.5085
  358MOL0     H49404   3.695   4.859   8.042 -0.4348  0.4949 -0.5869
  359MOL0     O49405   6.412   3.190  10.911  0.5248  0.1456  0.2040
  359MOL0     C49406   6.312   3.216  10.839 -0.0821  0.1470  0.4831
  359MOL0     O49407   6.318   3.281  10.714  0.3953  0.0835 -0.3828
  359MOL0     C49408   6.443   3.330  10.668 -0.4257  0.1940 -1.1280
  359MOL0     C49409   6.486   3.304  10.537  0.1131 -1.0367 -0.7293
  359MOL0     C49410   6.607   3.359  10.485  0.6474  0.1946 -0.1588
  359MOL0     C49411   6.692   3.434  10.573  0.0034 -0.2617 -0.2327
  359MOL0     O49412   6.804   3.500  10.531  0.6748  0.0018  0.2240
  359MOL0     C49413   6.911   3.511  10.627 -0.3471  0.4558  0.1141
  359MOL0     C49414   7.035   3.496  10.541  0.4621  0.0693 -0.1122
  359MOL0     C49415   7.050   3.604  10.437 -0.6643  0.5307 -0.2347
  359MOL0     C49416   7.138   3.561  10.312 -0.7030 -0.9609  0.3591
  359MOL0     C49417   7.209   3.677  10.233  1.3900 -1.1369 -1.1123
  359MOL0     C49418   7.300   3.623  10.120 -0.0471 -0.4271  0.0265
  359MOL0     C49419   7.394   3.727  10.067 -0.2336 -0.1972  0.8782
  359MOL0     C49420   7.502   3.772  10.175  0.4281 -0.6674 -0.0863
  359MOL0     N49421   7.622   3.824  10.117 -0.1667  0.5462 -0.1989
  359MOL0     C49422   7.727   3.749  10.074  0.0125  0.4928  0.6425
  359MOL0     C49423   7.814   3.839  10.020  0.5703  0.2881 -0.3481
  359MOL0     C49424   7.935   3.803   9.956 -0.1103  0.7114 -0.8469
  359MOL0     C49425   8.046   3.879  10.028 -0.6772 -0.7396 -0.3450
  359MOL0     C49426   8.184   3.823   9.973  0.0650  0.6662  0.1668
  359MOL0     C49427   8.305   3.898  10.031  0.2415  0.1733 -0.7543
  359MOL0     O49428   8.354   3.843  10.150  0.0333  0.7695 -0.4437
  359MOL0     C49429   8.474   3.889  10.199 -0.2698 -0.7125 -0.1523
  359MOL0     C49430   8.552   3.818  10.295 -0.2887 -0.2980 -0.3293
  359MOL0     C49431   8.683   3.857  10.332 -0.7796 -0.7804 -0.1396
  359MOL0     C49432   8.758   3.775  10.429  0.9862  1.1150  0.4519
  359MOL0     C49433   8.734   3.985  10.283 -0.1706 -0.2478  0.3694
  359MOL0     C49434   8.876   4.052  10.318  0.1970  0.2077  0.3816
  359MOL0     O49435   8.921   4.168  10.253 -0.0539  0.5103 -0.3527
  359MOL0     C49436   9.029   4.226  10.303  0.6383  0.2927  0.6320
  359MOL0     C49437   9.017   4.344  10.385  0.2865  0.6736 -0.2865
  359MOL0     C49438   9.136   4.376  10.459  0.1134 -0.1024  0.7444
  359MOL0     C49439   9.259   4.314  10.434  0.1008 -0.3881 -0.1914
  359MOL0     O49440   9.372   4.369  10.505  0.5201 -0.4437  0.2302
  359MOL0     C49441   9.497   4.309  10.500 -0.7666  0.3772  0.4692
  359MOL0     C49442   9.514   4.178  10.576  0.5138 -0.9015  0.2339
  359MOL0     C49443   9.554   4.195  10.719  0.4591 -1.1113  0.1346
  359MOL0     C49444   9.708   4.219  10.746  0.3317 -0.7257 -0.1583
  359MOL0     C49445   9.745   4.317  10.862 -0.0861 -0.4626 -0.6674
  359MOL0     C49446   9.693   4.460  10.869 -0.2067  0.4236  0.2054
  359MOL0     C49447   9.741   4.544  10.751 -0.3167  0.3747 -0.3091
  359MOL0     C49448   9.676   4.686  10.735  0.0428  0.3758 -0.0424
  359MOL0    Cl49449   9.727   4.765  10.584  0.5399 -0.1622 -0.1733
  359MOL0     C49450   9.265   4.197  10.365 -0.2117  0.0077 -0.4636
  359MOL0     C49451   9.153   4.161  10.296 -0.1941  0.3707  0.4047
  359MOL0     O49452   8.945   3.980  10.391  0.5037 -0.1038 -0.3703
  359MOL0     C49453   8.655   4.061  10.194 -0.5718  0.1342 -0.0499
  359MOL0     C49454   8.533   4.006  10.155 -0.0602  0.5051  0.7427
  359MOL0     N49455   7.767   3.966  10.040  0.0333 -0.2782  0.4800
  359MOL0     N49456   7.651   3.953  10.096  0.3871 -0.7907 -0.2088
  359MOL0     C49457   6.650   3.457  10.699  0.0771 -0.2293  0.3508
  359MOL0     C49458   6.529   3.409  10.754 -0.6802 -0.5018  0.6461
  359MOL0     C49459   6.174   3.188  10.882 -0.3814 -0.6148 -0.5905
  359MOL0     C49460   6.080   3.149  10.787  0.5201  1.1829 -0.0591
  359MOL0     C49461   5.951   3.111  10.826  0.0564  0.2665  0.7162
  359MOL0     C49462   5.906   3.112  10.958 -0.5854 -0.8099  0.3762
  359MOL0     O49463   5.785   3.081  11.001 -0.2800 -0.6198  0.0030
  359MOL0     C49464   5.675   3.119  10.911  0.2740  0.2783 -0.4482
  359MOL0     C49465   5.540   3.104  10.990 -0.1975 -0.4103  0.6923
  359MOL0     C49466   5.509   3.205  11.103  0.4135  0.2923  0.8275
  359MOL0     C49467   5.359   3.231  11.114 -0.6020 -0.7678 -0.2560
  359MOL0     C49468   5.289   3.105  11.142  0.4900 -0.7569  0.3648
  359MOL0     C49469   5.242   2.997  11.166 -0.2009  0.8662  0.1204
  359MOL0     C49470   6.007   3.143  11.055  0.1796  0.1523 -0.2058
  359MOL0     C49471   6.134   3.185  11.019  0.1147 -0.0155  1.2273
  359MOL0     C49472   6.218   3.225  11.138 -0.5530  0.1184 -0.7828
  359MOL0     H49473   6.418   3.251  10.472 -0.3646  1.8213 -2.7832
  359MOL0     H49474   6.645   3.341  10.385 -2.1968 -0.6605 -1.1591
  359MOL0     H49475   6.912   3.438  10.709  2.0185  0.1611 -0.1277
  359MOL0     H49476   6.918   3.603  10.685  1.0690  0.2420  0.3162
  359MOL0     H49477   7.125   3.508  10.601  2.7777 -3.6891 -2.4458
  359MOL0     H49478   7.034   3.395  10.498 -0.3281 -0.3906  0.9355
  359MOL0     H49479   6.951   3.633  10.402 -1.8113 -0.2435  2.1982
  359MOL0     H49480   7.086   3.698  10.482 -1.1858  0.8338 -0.4426
  359MOL0     H49481   7.218   3.503  10.359 -0.3826  0.6628  1.9668
  359MOL0     H49482   7.079   3.509  10.237 -2.3480  0.6825  0.4552
  359MOL0     H49483   7.265   3.744  10.299 -0.2320 -2.2149  1.5227
  359MOL0     H49484   7.129   3.734  10.186 -0.9850 -3.7293 -0.5257
  359MOL0     H49485   7.360   3.538  10.155 -1.7053 -1.2560  1.0027
  359MOL0     H49486   7.236   3.585  10.039 -1.0113  0.1077  0.5200
  359MOL0     H49487   7.338   3.812  10.028 -0.9727 -1.3550 -0.6824
  359MOL0     H49488   7.452   3.683   9.985  2.0619  2.5843  0.8601
  359MOL0     H49489   7.455   3.846  10.240 -0.0637  0.9271 -2.1727
  359MOL0     H49490   7.529   3.685  10.236  0.9840 -2.0511 -2.2011
  359MOL0     H49491   7.737   3.641  10.080 -0.7314  0.2833 -1.3395
  359MOL0     H49492   7.920   3.827   9.850 -2.8327 -0.9365 -0.9188
  359MOL0     H49493   7.964   3.699   9.969  0.3068  1.1338  2.1378
  359MOL0     H49494   8.044   3.988  10.021  1.8005 -0.5844  0.4351
  359MOL0     H49495   8.043   3.868  10.137 -1.6554  2.1610  0.0179
  359MOL0     H49496   8.197   3.715   9.985  1.2064  0.8704  0.8990
  359MOL0     H49497   8.184   3.837   9.865  1.0053 -1.9290 -0.2328
  359MOL0     H49498   8.385   3.885   9.958  1.9554 -0.1820  1.0719
  359MOL0     H49499   8.280   4.004  10.040 -1.3061  0.0008 -2.5593
  359MOL0     H49500   8.501   3.735  10.344 -0.5844 -0.7391 -1.3673
  359MOL0     H49501   8.776   3.828  10.523 -1.1579  1.5710  0.6576
  359MOL0     H49502   8.842   3.717  10.391  0.5848  0.0791  1.0886
  359MOL0     H49503   8.692   3.692  10.458  2.5436 -0.1983  0.3611
  359MOL0     H49504   8.920   4.388  10.404  0.4192  0.3084  1.3416
  359MOL0     H49505   9.142   4.465  10.521  2.2331  0.7848 -0.6140
  359MOL0     H49506   9.523   4.295  10.395 -1.3500 -1.7404  0.5715
  359MOL0     H49507   9.571   4.374  10.547  0.1476 -2.2204  2.8519
  359MOL0     H49508   9.420   4.125  10.561  1.6207 -3.4036  1.5399
  359MOL0     H49509   9.600   4.119  10.543  1.2949  0.0664  0.4899
  359MOL0     H49510   9.528   4.093  10.748 -0.6191 -0.9093 -0.0766
  359MOL0     H49511   9.487   4.266  10.767 -1.3382  0.6278 -4.4068
  359MOL0     H49512   9.758   4.255  10.656 -1.3716 -0.7689 -1.1673
  359MOL0     H49513   9.748   4.118  10.762 -3.6568 -2.4217  0.4160
  359MOL0     H49514   9.723   4.269  10.958  0.5048 -1.8467 -1.2055
  359MOL0     H49515   9.854   4.326  10.855 -0.2396 -0.1237 -3.2071
  359MOL0     H49516   9.727   4.502  10.964 -1.7066 -1.7634  1.8170
  359MOL0     H49517   9.584   4.449  10.864 -0.1644  0.6884 -2.5710
  359MOL0     H49518   9.721   4.488  10.659  0.1572  0.6106 -0.5618
  359MOL0     H49519   9.849   4.560  10.759 -0.5995  2.0046  0.7924
  359MOL0     H49520   9.698   4.758  10.815 -2.3168  0.4443  0.6220
  359MOL0     H49521   9.570   4.660  10.730  0.0540  0.3196  0.0078
  359MOL0     H49522   9.355   4.138  10.350 -0.2969 -0.4222  0.6484
  359MOL0     H49523   9.161   4.081  10.223  0.7916  0.9178 -0.1111
  359MOL0     H49524   8.690   4.158  10.160 -0.7513 -0.4248 -1.9207
  359MOL0     H49525   8.473   4.069  10.090  2.2277  0.5976 -1.4114
  359MOL0     H49526   6.714   3.523  10.757 -0.0176 -0.7676  1.0817
  359MOL0     H49527   6.505   3.441  10.855  0.9559  0.9718  0.6263
  359MOL0     H49528   6.107   3.152  10.682  2.7169  0.1680  0.4171
  359MOL0     H49529   5.878   3.092  10.748 -1.6130  2.6450  1.5684
  359MOL0     H49530   5.688   3.216  10.862 -0.6388  1.1188  0.9165
  359MOL0     H49531   5.667   3.041  10.834 -1.1301 -0.7660  0.6841
  359MOL0     H49532   5.528   3.010  11.046 -1.4290  1.1060  3.1904
  359MOL0     H49533   5.464   3.111  10.912 -0.6274  1.9588  1.2392
  359MOL0     H49534   5.548   3.165  11.197  1.4380  0.5132  0.5136
  359MOL0     H49535   5.556   3.304  11.093  0.2860  0.1914 -1.1782
  359MOL0     H49536   5.321   3.270  11.020 -0.9041  1.5967  0.7815
  359MOL0     H49537   5.341   3.293  11.203  3.2239 -1.0427  0.9030
  359MOL0     H49538   5.195   2.901  11.173 -1.2128  1.3261 -0.1067
  359MOL0     H49539   5.972   3.141  11.158  2.0646  1.6294  0.5361
  359MOL0     H49540   6.272   3.318  11.114  0.4618 -1.1800 -4.1891
  359MOL0     H49541   6.155   3.223  11.226 -1.9294 -0.8010 -1.7485
  359MOL0     H49542   6.305   3.165  11.168  0.0600  2.9822  4.2213
  360MOL0     O49543  10.023  10.542  10.744 -0.0477 -0.8167 -0.3455
  360MOL0     C49544  10.023  10.419  10.737 -0.2494  0.3515 -0.9436
  360MOL0     O49545  10.124  10.339  10.786 -0.8100  0.2098 -0.4048
  360MOL0     C49546  10.252  10.386  10.822 -0.6721  0.8135  0.5488
  360MOL0     C49547  10.302  10.516  10.804  0.0299  0.5639 -0.6952
  360MOL0     C49548  10.433  10.538  10.840  1.7564 -0.4134 -0.6508
  360MOL0     C49549  10.505  10.445  10.903 -0.8935 -0.3961 -0.4916
  360MOL0     O49550  10.634  10.471  10.947  0.5883 -0.0532 -0.3084
  360MOL0     C49551  10.695  10.599  10.927 -0.1021  0.3817 -0.5550
  360MOL0     C49552  10.830  10.611  11.015 -0.5059 -0.0586 -0.0086
  360MOL0     C49553  10.925  10.730  10.963 -0.3400  0.0116  0.4000
  360MOL0     C49554  11.038  10.757  11.059 -0.6468 -0.2927 -0.1482
  360MOL0     C49555  11.163  10.818  10.987  0.2611 -0.3701 -0.0456
  360MOL0     C49556  11.284  10.847  11.081  0.0988 -1.2151  0.3091
  360MOL0     C49557  11.410  10.913  11.006 -0.4623 -0.6956  1.1124
  360MOL0     C49558  11.512  10.981  11.097  0.0594 -0.8649  0.5978
  360MOL0     N49559  11.485  11.122  11.126 -0.4739 -0.8305  0.6249
  360MOL0     C49560  11.501  11.233  11.042 -1.2320  0.1223  0.0923
  360MOL0     C49561  11.482  11.341  11.120 -0.3668  0.3423  0.9774
  360MOL0     C49562  11.496  11.486  11.075 -0.0696 -0.3670 -0.2392
  360MOL0     C49563  11.631  11.504  11.013  0.3890  0.2331 -0.7530
  360MOL0     C49564  11.749  11.470  11.109 -1.0823 -0.4423  0.6861
  360MOL0     C49565  11.749  11.544  11.247  1.3149  0.7521 -0.5843
  360MOL0     O49566  11.876  11.543  11.310  0.4130 -0.0538  0.5870
  360MOL0     C49567  11.969  11.632  11.275  0.2524  0.0600  0.1631
  360MOL0     C49568  12.104  11.579  11.297 -0.3997  0.1182 -0.5525
  360MOL0     C49569  12.218  11.661  11.266  0.2235 -0.3611 -0.1375
  360MOL0     C49570  12.352  11.614  11.294  0.4947  0.9955 -0.1386
  360MOL0     C49571  12.197  11.789  11.226 -0.4470  0.1927  0.2400
  360MOL0     C49572  12.315  11.880  11.182 -0.2895 -1.0504 -0.4928
  360MOL0     O49573  12.320  12.015  11.225  0.1914  0.1791  0.4040
  360MOL0     C49574  12.415  12.089  11.166 -0.0890  0.3191 -0.8576
  360MOL0     C49575  12.547  12.075  11.227  0.3925 -0.2767  0.5811
  360MOL0     C49576  12.651  12.157  11.189 -0.4368  0.0134 -0.0404
  360MOL0     C49577  12.630  12.257  11.090  0.0990 -0.0307 -1.1118
  360MOL0     O49578  12.731  12.337  11.051  0.3574  0.4707 -0.3961
  360MOL0     C49579  12.861  12.321  11.101  0.0039  0.6708 -0.2085
  360MOL0     C49580  12.937  12.446  11.064 -0.2677  0.1607 -0.0338
  360MOL0     C49581  13.075  12.454  11.138  0.6637 -0.7633  0.1193
  360MOL0     C49582  13.147  12.587  11.115 -0.8067  0.6684  0.3544
  360MOL0     C49583  13.241  12.614  11.234  0.1584 -0.1376  0.7555
  360MOL0     C49584  13.322  12.742  11.215  0.4881 -0.7011 -0.4398
  360MOL0     C49585  13.368  12.786  11.356  1.3330  0.7253 -0.4699
  360MOL0     C49586  13.490  12.877  11.350  0.3230  0.2745 -0.6892
  360MOL0    Cl49587  13.540  12.930  11.514  0.1544  0.4027  0.2888
  360MOL0     C49588  12.504  12.272  11.032  0.1260  0.2052  0.6888
  360MOL0     C49589  12.392  12.192  11.078 -0.1745  0.2633  0.2841
  360MOL0     O49590  12.387  11.835  11.097  0.8325  0.1765 -0.0385
  360MOL0     C49591  12.070  11.841  11.215 -0.7880  0.0553  0.6195
  360MOL0     C49592  11.960  11.767  11.239  0.8189 -0.1363 -0.2998
  360MOL0     N49593  11.432  11.295  11.243 -0.1626 -0.2243 -0.3868
  360MOL0     N49594  11.433  11.162  11.249  0.3009  0.2711  0.0094
  360MOL0     C49595  10.459  10.321  10.936 -0.2338 -0.4376 -0.1118
  360MOL0     C49596  10.326  10.291  10.900  0.1797 -0.0912  0.1207
  360MOL0     C49597   9.904  10.351  10.673 -0.2042 -0.2926  0.1720
  360MOL0     C49598   9.785  10.434  10.665  0.0485 -0.4601  0.2790
  360MOL0     C49599   9.658  10.385  10.621 -0.4843  0.5250  0.5491
  360MOL0     C49600   9.650  10.248  10.579 -0.6851 -0.1737 -0.0170
  360MOL0     O49601   9.525  10.194  10.568  0.4983 -0.9217 -0.2570
  360MOL0     C49602   9.442  10.254  10.469  0.0682 -0.4091 -0.2462
  360MOL0     C49603   9.446  10.156  10.347 -0.6934 -0.7264  0.1897
  360MOL0     C49604   9.387  10.013  10.375 -0.1281 -0.6733  1.1860
  360MOL0     C49605   9.388   9.926  10.245 -0.0856  0.4888 -0.6663
  360MOL0     C49606   9.344   9.795  10.293 -0.0477  0.3510 -0.3428
  360MOL0     C49607   9.304   9.684  10.319  0.1085  0.1549  0.4727
  360MOL0     C49608   9.768  10.169  10.578 -1.3334 -0.6225  0.7221
  360MOL0     C49609   9.892  10.216  10.627 -0.6621  0.3452 -0.7702
  360MOL0     C49610  10.003  10.118  10.639 -0.1808  0.1414 -0.1262
  360MOL0     H49611  10.242  10.585  10.747 -1.8492 -1.4422 -1.2852
  360MOL0     H49612  10.482  10.632  10.815  2.2270  0.5004  3.0946
  360MOL0     H49613  10.630  10.680  10.960  1.1409  0.8076  0.9823
  360MOL0     H49614  10.712  10.611  10.820 -0.5273  1.2771 -0.5245
  360MOL0     H49615  10.802  10.623  11.120 -4.0067  1.0296 -0.9301
  360MOL0     H49616  10.882  10.515  11.003 -0.5724 -0.0069 -0.8128
  360MOL0     H49617  10.974  10.706  10.868  1.5012  1.2884  0.9606
  360MOL0     H49618  10.880  10.828  10.947 -1.0736 -0.3035  0.5092
  360MOL0     H49619  10.999  10.834  11.127 -0.7715  0.2214 -0.7885
  360MOL0     H49620  11.072  10.670  11.116 -0.3242 -0.5313 -0.7009
  360MOL0     H49621  11.132  10.911  10.938 -0.6878 -1.1271 -0.9578
  360MOL0     H49622  11.194  10.744  10.913 -0.2451 -2.2748  1.5522
  360MOL0     H49623  11.258  10.914  11.164  0.4489 -0.1821 -0.3895
  360MOL0     H49624  11.306  10.750  11.125  3.0527 -0.6582  0.2618
  360MOL0     H49625  11.367  10.974  10.926  0.4330 -0.1777  1.0126
  360MOL0     H49626  11.470  10.830  10.966  0.6703  0.9855 -0.8647
  360MOL0     H49627  11.510  10.924  11.191 -3.4423 -1.1664  0.4643
  360MOL0     H49628  11.614  10.969  11.058  0.9240  2.3104  1.5952
  360MOL0     H49629  11.539  11.234  10.941  0.7108  0.3583  0.7826
  360MOL0     H49630  11.495  11.559  11.156 -2.0421 -0.8476  0.2257
  360MOL0     H49631  11.414  11.516  11.010 -0.6834 -0.8240  0.3141
  360MOL0     H49632  11.639  11.443  10.922  1.3016 -0.6728 -0.0843
  360MOL0     H49633  11.645  11.607  10.980 -1.1811  1.0158  0.8770
  360MOL0     H49634  11.747  11.364  11.135 -3.0108 -0.5638  0.2116
  360MOL0     H49635  11.838  11.498  11.051 -2.2172  1.6216 -0.1636
  360MOL0     H49636  11.697  11.640  11.234 -1.2113 -0.6930 -2.0293
  360MOL0     H49637  11.681  11.476  11.299 -2.4903  3.4062 -1.6084
  360MOL0     H49638  12.105  11.481  11.345 -0.3957  0.3572 -0.0540
  360MOL0     H49639  12.362  11.510  11.325  4.6559  0.6412 -1.9795
  360MOL0     H49640  12.406  11.681  11.361  1.2753  0.5346 -0.2947
  360MOL0     H49641  12.411  11.605  11.202 -0.0850  1.4205 -0.5644
  360MOL0     H49642  12.557  12.001  11.305  0.8922 -1.4616 -0.5681
  360MOL0     H49643  12.739  12.127  11.244 -1.2579  0.2901  1.5083
  360MOL0     H49644  12.861  12.318  11.211 -0.6273  1.8324 -0.1605
  360MOL0     H49645  12.904  12.229  11.062 -2.3505 -0.3293 -0.5750
  360MOL0     H49646  12.942  12.440  10.955  2.8539 -0.5810  0.0655
  360MOL0     H49647  12.880  12.539  11.076  1.7367  1.4567 -0.0533
  360MOL0     H49648  13.125  12.361  11.110 -0.8340 -1.1792 -1.3880
  360MOL0     H49649  13.046  12.443  11.243  0.6020 -2.7388 -0.0735
  360MOL0     H49650  13.079  12.672  11.103  1.0257  1.8660 -3.0810
  360MOL0     H49651  13.213  12.584  11.028  0.7814  2.1552  1.4503
  360MOL0     H49652  13.169  12.623  11.316 -2.4500  1.1363 -1.5124
  360MOL0     H49653  13.312  12.531  11.245  0.2118 -0.2237 -0.1582
  360MOL0     H49654  13.258  12.823  11.179 -5.2613 -3.9463  1.3466
  360MOL0     H49655  13.402  12.727  11.142  1.7898 -0.3130  0.8460
  360MOL0     H49656  13.388  12.696  11.415 -0.0551  2.0826  2.2384
  360MOL0     H49657  13.288  12.837  11.410  0.8209 -0.9181  0.4121
  360MOL0     H49658  13.463  12.964  11.289  3.5800  0.4928 -2.0413
  360MOL0     H49659  13.574  12.827  11.300  2.6238  3.5266 -0.4018
  360MOL0     H49660  12.489  12.352  10.960 -0.9042  0.1780  0.8597
  360MOL0     H49661  12.289  12.207  11.046  0.8005 -1.7900 -4.9552
  360MOL0     H49662  12.070  11.949  11.203  2.1320  0.1901  1.3035
  360MOL0     H49663  11.868  11.824  11.241  0.5513 -0.5606 -0.3771
  360MOL0     H49664  10.518  10.252  10.996 -2.6750 -0.3771  2.5614
  360MOL0     H49665  10.298  10.191  10.929  4.0940 -1.4557 -0.3357
  360MOL0     H49666   9.790  10.538  10.697 -1.0151 -0.5950  0.9113
  360MOL0     H49667   9.558  10.421  10.646 -1.4525 -3.2552  2.8028
  360MOL0     H49668   9.342  10.254  10.513  0.0041 -0.0138 -0.3848
  360MOL0     H49669   9.462  10.357  10.439 -1.0539 -0.8234 -2.6369
  360MOL0     H49670   9.548  10.137  10.310  0.0562  3.3578 -0.3801
  360MOL0     H49671   9.390  10.204  10.266 -0.8338 -0.3162  0.5231
  360MOL0     H49672   9.443   9.973  10.460  0.3856 -1.4621  0.4907
  360MOL0     H49673   9.285  10.032  10.409 -0.5454  4.3945 -1.9051
  360MOL0     H49674   9.489   9.929  10.203  0.4933 -0.2091  0.5961
  360MOL0     H49675   9.317   9.963  10.171  0.6322  0.2366 -1.4955
  360MOL0     H49676   9.279   9.580  10.316 -0.8697  0.3353  1.7105
  360MOL0     H49677   9.760  10.069  10.538 -2.0034 -0.6283  0.8620
  360MOL0     H49678  10.098  10.148  10.595  0.9760  0.2364  2.2952
  360MOL0     H49679  10.019  10.083  10.742  0.6505 -0.1078 -0.3343
  360MOL0     H49680   9.976  10.024  10.589 -2.9429  0.4866  0.5565
  361MOL0     O49681  11.232   3.253   9.854  0.0822 -0.1211  0.6915
  361MOL0     C49682  11.134   3.215   9.929 -0.8987 -0.6833 -0.3322
  361MOL0     O49683  11.149   3.158  10.052 -0.0491  0.5631  0.4785
  361MOL0     C49684  11.272   3.167  10.121 -0.2532  0.1237 -0.8794
  361MOL0     C49685  11.273   3.203  10.259  0.9245 -0.1847  0.1891
  361MOL0     C49686  11.389   3.231  10.335  0.3038  0.9887  0.4546
  361MOL0     C49687  11.512   3.204  10.281 -0.6438  0.0413  0.2174
  361MOL0     O49688  11.629   3.241  10.342  0.6200 -0.1374  0.5627
  361MOL0     C49689  11.625   3.261  10.490 -0.1497  0.4418 -0.5010
  361MOL0     C49690  11.755   3.311  10.552  1.1833 -0.4270 -0.3859
  361MOL0     C49691  11.874   3.223  10.514 -0.1901  0.1581 -0.0040
  361MOL0     C49692  11.984   3.265  10.613 -0.2700  0.1707  0.3092
  361MOL0     C49693  12.108   3.189  10.559 -0.1677  0.0104 -0.4789
  361MOL0     C49694  12.226   3.186  10.649 -0.0460  1.0883 -0.3235
  361MOL0     C49695  12.331   3.091  10.607  0.3170 -0.3827  0.6908
  361MOL0     C49696  12.458   3.090  10.713  0.0703 -0.0793 -0.3515
  361MOL0     N49697  12.561   3.001  10.665 -0.4886 -0.5713 -0.2060
  361MOL0     C49698  12.546   2.863  10.643  0.8321 -0.7012 -0.9301
  361MOL0     C49699  12.670   2.820  10.623 -0.1784  0.7450  0.0940
  361MOL0     C49700  12.713   2.673  10.617 -0.5868 -0.4132  0.8488
  361MOL0     C49701  12.861   2.662  10.562 -0.2421 -0.3460 -0.5162
  361MOL0     C49702  12.870   2.695  10.415  0.0070 -0.4153  0.1995
  361MOL0     C49703  13.013   2.740  10.373  0.0851 -0.1694 -0.5495
  361MOL0     O49704  13.090   2.626  10.327 -0.0234  0.0449  0.6017
  361MOL0     C49705  13.222   2.645  10.317  0.0062  0.4300 -0.4926
  361MOL0     C49706  13.310   2.540  10.313  0.3602  0.2379 -0.5517
  361MOL0     C49707  13.449   2.550  10.308  0.5788 -0.5793 -0.1627
  361MOL0     C49708  13.535   2.429  10.274  1.2800  0.4364 -0.6478
  361MOL0     C49709  13.508   2.676  10.314 -0.2597 -0.4328  0.8562
  361MOL0     C49710  13.650   2.705  10.282  0.5270  0.0129  0.3777
  361MOL0     O49711  13.680   2.780  10.173 -0.4123  0.2543  0.2050
  361MOL0     C49712  13.818   2.795  10.150  0.6389 -0.0944 -0.1229
  361MOL0     C49713  13.887   2.908  10.205  0.3712 -0.4083  0.5306
  361MOL0     C49714  14.026   2.927  10.201  0.4185  0.2303  0.2172
  361MOL0     C49715  14.098   2.836  10.121 -0.5698 -0.2035 -0.9922
  361MOL0     O49716  14.236   2.858  10.123  0.1071 -0.5301 -0.0994
  361MOL0     C49717  14.293   2.820  10.003 -0.4124  0.6973 -0.2232
  361MOL0     C49718  14.431   2.887   9.999  0.6341 -0.2316  0.6827
  361MOL0     C49719  14.517   2.829   9.883  0.6080 -0.7453 -0.6559
  361MOL0     C49720  14.617   2.939   9.834 -0.1096  0.2199  0.2920
  361MOL0     C49721  14.726   2.887   9.734 -0.1083 -0.1335 -0.2337
  361MOL0     C49722  14.668   2.856   9.596  0.0870  0.2704 -0.3323
  361MOL0     C49723  14.774   2.808   9.491  0.0845 -0.1437  0.2404
  361MOL0     C49724  14.709   2.786   9.354 -0.1815 -0.3326 -0.1453
  361MOL0    Cl49725  14.832   2.701   9.249 -0.1137  0.2721  0.0570
  361MOL0     C49726  14.034   2.725  10.059 -0.5711  0.0268  1.2277
  361MOL0     C49727  13.893   2.699  10.079  0.1539  0.4824  0.2134
  361MOL0     O49728  13.733   2.655  10.368 -0.4936  0.5235  0.3020
  361MOL0     C49729  13.419   2.790  10.317  0.2252 -0.4829  0.7754
  361MOL0     C49730  13.282   2.771  10.319  0.1559 -0.7002 -0.2130
  361MOL0     N49731  12.755   2.925  10.625 -0.3932 -0.0916  0.5245
  361MOL0     N49732  12.688   3.038  10.638  0.2029  0.9730  0.2895
  361MOL0     C49733  11.521   3.155  10.149  0.0049 -0.1478  0.3401
  361MOL0     C49734  11.402   3.145  10.071 -0.1752  0.8850 -0.2820
  361MOL0     C49735  10.994   3.225   9.887 -0.3852 -0.5886  0.3293
  361MOL0     C49736  10.894   3.239   9.984 -1.0267  0.0211  0.3736
  361MOL0     C49737  10.761   3.246   9.947  0.0713 -0.3603  0.4055
  361MOL0     C49738  10.722   3.246   9.810 -0.0301  0.5019  0.5762
  361MOL0     O49739  10.584   3.260   9.789 -0.2315  0.0277  0.1161
  361MOL0     C49740  10.536   3.245   9.653  0.1298 -0.1630 -0.7722
  361MOL0     C49741  10.380   3.229   9.663 -0.1530 -0.1756  0.0011
  361MOL0     C49742  10.315   3.361   9.697  0.1277 -0.1805  0.1263
  361MOL0     C49743  10.161   3.346   9.692 -0.4200 -0.0473  0.8727
  361MOL0     C49744  10.086   3.461   9.742 -0.2526 -0.2867 -0.8958
  361MOL0     C49745  10.036   3.561   9.783 -0.3784  0.2989  0.2047
  361MOL0     C49746  10.821   3.231   9.711 -0.3643  0.1552 -0.5747
  361MOL0     C49747  10.958   3.226   9.746 -0.4583  0.1107  0.3612
  361MOL0     C49748  11.056   3.233   9.631  0.6904  1.0629 -0.2057
  361MOL0     H49749  11.178   3.219  10.308  0.1352 -0.2184 -1.2803
  361MOL0     H49750  11.366   3.277  10.431  0.1955  2.0849 -0.0819
  361MOL0     H49751  11.595   3.159  10.517 -2.6500  1.6619  1.7350
  361MOL0     H49752  11.552   3.333  10.529  1.3638  0.8278  1.8568
  361MOL0     H49753  11.776   3.416  10.530 -0.6523  0.0310 -0.0754
  361MOL0     H49754  11.732   3.309  10.659  0.7198  3.6442 -0.2557
  361MOL0     H49755  11.849   3.117  10.522  0.0924  0.0881 -0.0391
  361MOL0     H49756  11.898   3.248  10.411  0.3762  5.1058  1.0619
  361MOL0     H49757  12.011   3.369  10.591  0.4621 -0.0699  0.0318
  361MOL0     H49758  11.944   3.233  10.709 -0.3710 -3.5185 -0.7808
  361MOL0     H49759  12.119   3.224  10.456 -1.5173 -2.3816 -1.5451
  361MOL0     H49760  12.082   3.083  10.545 -2.7790  0.1039  2.4279
  361MOL0     H49761  12.272   3.285  10.657  1.6769  0.3196 -0.2191
  361MOL0     H49762  12.190   3.156  10.748 -0.7181 -0.3049 -0.9480
  361MOL0     H49763  12.372   3.116  10.509  3.7412 -1.4387  1.7110
  361MOL0     H49764  12.285   2.992  10.601 -0.6716  0.0727  0.4600
  361MOL0     H49765  12.492   3.194  10.716 -1.2915  0.4559 -1.6852
  361MOL0     H49766  12.436   3.055  10.814 -1.7519 -3.0822 -1.6555
  361MOL0     H49767  12.459   2.799  10.657  0.6752 -0.2602  0.2950
  361MOL0     H49768  12.642   2.619  10.553 -0.5498  0.7026 -0.1630
  361MOL0     H49769  12.713   2.627  10.716  0.8624 -1.2200  0.5004
  361MOL0     H49770  12.918   2.729  10.627 -1.0749 -0.2144  0.0992
  361MOL0     H49771  12.888   2.558  10.580 -2.3901 -1.2109 -1.8373
  361MOL0     H49772  12.850   2.614  10.343 -4.2219  0.1394  0.4594
  361MOL0     H49773  12.805   2.781  10.396 -0.1623 -0.3223  1.1698
  361MOL0     H49774  13.007   2.810  10.289  0.7281  1.5700  0.8015
  361MOL0     H49775  13.065   2.784  10.458  0.5648 -2.6469  0.5212
  361MOL0     H49776  13.277   2.437  10.311  0.5563  0.0468  2.0687
  361MOL0     H49777  13.640   2.454  10.256  1.8973 -0.9824  0.7291
  361MOL0     H49778  13.500   2.379  10.182 -0.7992  3.6052 -1.7393
  361MOL0     H49779  13.521   2.364  10.361 -2.6399  0.1737 -1.3030
  361MOL0     H49780  13.823   2.988  10.240  1.4970  0.7624 -0.0002
  361MOL0     H49781  14.075   3.012  10.247 -1.8337  3.0081 -2.0675
  361MOL0     H49782  14.307   2.711  10.000  0.3172  0.7925 -2.0598
  361MOL0     H49783  14.230   2.841   9.916 -0.6412  1.6234  0.1571
  361MOL0     H49784  14.420   2.995   9.991 -3.0078 -0.3537  2.0800
  361MOL0     H49785  14.478   2.876  10.098 -2.1533  0.1347  2.1457
  361MOL0     H49786  14.454   2.797   9.799 -0.3447 -1.5552  0.3426
  361MOL0     H49787  14.568   2.737   9.915 -0.2523 -0.6772  0.9958
  361MOL0     H49788  14.673   2.982   9.918 -0.4979  0.2005  0.5619
  361MOL0     H49789  14.568   3.020   9.778 -0.9233  0.1111  0.8324
  361MOL0     H49790  14.811   2.955   9.718  0.8850 -1.8660 -2.8910
  361MOL0     H49791  14.762   2.796   9.782 -1.3864 -0.7458 -0.4006
  361MOL0     H49792  14.625   2.951   9.562  1.8179 -0.4257 -5.1948
  361MOL0     H49793  14.591   2.779   9.606 -1.0594  1.6441  3.1543
  361MOL0     H49794  14.817   2.713   9.526  0.2799 -0.3455 -0.5339
  361MOL0     H49795  14.856   2.879   9.482  2.2683 -2.5450  0.0158
  361MOL0     H49796  14.679   2.883   9.314 -2.0230 -0.8974 -0.1968
  361MOL0     H49797  14.618   2.727   9.370  0.3706 -0.8430  1.3963
  361MOL0     H49798  14.090   2.651  10.002  2.1164  1.4860  1.8036
  361MOL0     H49799  13.840   2.607  10.056  1.8863 -0.4592 -0.1423
  361MOL0     H49800  13.458   2.891  10.311 -1.5970  0.3165  1.5903
  361MOL0     H49801  13.225   2.863  10.321  1.7265  0.5513 -3.8736
  361MOL0     H49802  11.611   3.111  10.107  0.3703  0.4867  0.4540
  361MOL0     H49803  11.414   3.106   9.971  1.4897 -0.8811  0.5385
  361MOL0     H49804  10.930   3.266  10.083  3.2008 -4.7062  0.5646
  361MOL0     H49805  10.686   3.247  10.025  0.3627  2.8062  0.7786
  361MOL0     H49806  10.570   3.326   9.587  2.8139  1.8383  2.7599
  361MOL0     H49807  10.571   3.151   9.608  2.1490  0.0958  0.1388
  361MOL0     H49808  10.375   3.164   9.750  1.3357 -0.2866  0.0236
  361MOL0     H49809  10.339   3.187   9.570  0.8539  2.8013 -1.9467
  361MOL0     H49810  10.344   3.388   9.799  1.9819  1.9559 -0.8789
  361MOL0     H49811  10.339   3.446   9.633 -2.6041 -0.7267 -1.8018
  361MOL0     H49812  10.138   3.258   9.753 -1.6318 -0.5181 -0.2209
  361MOL0     H49813  10.127   3.341   9.588  1.3302  1.3898  0.1656
  361MOL0     H49814   9.985   3.649   9.818  1.2144  1.8479 -1.1752
  361MOL0     H49815  10.803   3.238   9.604 -1.6350 -2.9374 -0.6648
  361MOL0     H49816  11.114   3.324   9.648 -0.9193  1.6643  2.8390
  361MOL0     H49817  11.128   3.152   9.641  1.8487  1.4500 -3.8966
  361MOL0     H49818  11.006   3.223   9.534  0.8797  0.2814 -0.2261
  362MOL0     O49819   2.753   5.135   0.187  0.5561 -0.3435  0.6222
  362MOL0     C49820   2.693   5.071   0.099 -0.1698 -0.0443  0.1783
  362MOL0     O49821   2.732   4.963   0.035  0.0133  0.7196  0.0707
  362MOL0     C49822   2.840   4.899   0.088  0.3359  0.2655 -0.5570
  362MOL0     C49823   2.823   4.773   0.149 -0.1221  0.6588 -0.5427
  362MOL0     C49824   2.922   4.711   0.223  0.0139  0.0323  0.3593
  362MOL0     C49825   3.050   4.773   0.229  0.1370 -0.5092  0.1396
  362MOL0     O49826   3.163   4.705   0.286 -0.2657 -0.7092 -0.5065
  362MOL0     C49827   3.140   4.595   0.378 -0.0146 -0.4570  0.2050
  362MOL0     C49828   3.156   4.452   0.329  0.5411 -0.1670 -0.3188
  362MOL0     C49829   3.304   4.417   0.320 -0.3289  0.2838  1.0456
  362MOL0     C49830   3.317   4.272   0.265  0.4155 -1.0614 -0.1062
  362MOL0     C49831   3.465   4.245   0.245  0.3929 -0.4989  0.1121
  362MOL0     C49832   3.536   4.306   0.117 -0.0525 -0.5903 -0.2192
  362MOL0     C49833   3.675   4.230   0.099 -0.5095  0.3298  0.1300
  362MOL0     C49834   3.713   4.213  -0.048 -0.7633  0.0511  0.0531
  362MOL0     N49835   3.740   4.337  -0.126  0.0597 -0.8708  0.5124
  362MOL0     C49836   3.856   4.364  -0.190  0.4118  0.8284  0.3911
  362MOL0     C49837   3.835   4.472  -0.267  0.1065 -0.6288  0.4684
  362MOL0     C49838   3.943   4.538  -0.350 -0.2648  0.3319  0.0670
  362MOL0     C49839   4.057   4.601  -0.270  0.3049  0.1628 -0.1185
  362MOL0     C49840   4.163   4.651  -0.367 -0.0951 -0.1601 -0.0079
  362MOL0     C49841   4.287   4.704  -0.297 -0.3384  0.6524 -0.5109
  362MOL0     O49842   4.330   4.603  -0.216 -0.0656  0.2901 -0.9044
  362MOL0     C49843   4.460   4.581  -0.193  0.2144 -0.1101 -0.7604
  362MOL0     C49844   4.499   4.472  -0.110  0.2896 -0.3530  0.6222
  362MOL0     C49845   4.637   4.439  -0.097  0.1062  0.6014 -0.0703
  362MOL0     C49846   4.668   4.324  -0.007  0.0977 -0.1214  0.5324
  362MOL0     C49847   4.738   4.506  -0.171  0.1109 -0.1028  0.0549
  362MOL0     C49848   4.887   4.480  -0.166  0.4525  0.4483 -0.7606
  362MOL0     O49849   4.968   4.588  -0.180 -0.6438 -0.4104 -0.6334
  362MOL0     C49850   5.107   4.573  -0.152 -0.9891 -0.6449 -0.1448
  362MOL0     C49851   5.204   4.602  -0.258  0.8921  0.3411 -0.3432
  362MOL0     C49852   5.347   4.593  -0.231  0.0539 -0.0412  0.2277
  362MOL0     C49853   5.397   4.561  -0.102  0.4975 -0.3503 -0.4110
  362MOL0     O49854   5.532   4.554  -0.068 -0.0044  0.7109  0.5169
  362MOL0     C49855   5.606   4.495  -0.176 -0.1879  0.0350  0.2434
  362MOL0     C49856   5.746   4.454  -0.128 -0.5032  0.4688  0.0575
  362MOL0     C49857   5.823   4.562  -0.054 -0.1253  0.5620  0.0616
  362MOL0     C49858   5.825   4.545   0.093 -0.1245  0.1881 -0.5580
  362MOL0     C49859   5.869   4.676   0.167 -0.2156  0.0043 -0.8301
  362MOL0     C49860   5.901   4.644   0.307  0.0057  0.0163 -0.6638
  362MOL0     C49861   5.972   4.763   0.355  0.0594  0.1867  0.4894
  362MOL0     C49862   6.010   4.754   0.498  0.9244 -0.5313  0.6361
  362MOL0    Cl49863   5.864   4.730   0.598  0.1417  0.2760  0.0885
  362MOL0     C49864   5.307   4.551  -0.003 -0.2268  0.4599  0.4064
  362MOL0     C49865   5.169   4.548  -0.028 -0.4381  0.2253  0.3839
  362MOL0     O49866   4.930   4.363  -0.155  0.1231 -0.0239 -0.1091
  362MOL0     C49867   4.698   4.618  -0.255  0.9944  0.3521  0.5195
  362MOL0     C49868   4.564   4.653  -0.254 -1.1537  0.2430  0.4109
  362MOL0     N49869   3.701   4.511  -0.251 -0.4130 -0.1434  0.4047
  362MOL0     N49870   3.643   4.422  -0.179  0.0214  1.5217  0.6497
  362MOL0     C49871   3.077   4.890   0.159 -0.7408  0.4950 -0.8433
  362MOL0     C49872   2.968   4.948   0.096  0.1554  0.3835 -0.0073
  362MOL0     C49873   2.556   5.121   0.055 -0.4151  1.3309 -0.5591
  362MOL0     C49874   2.477   5.032  -0.026 -0.0694  0.0786 -0.3112
  362MOL0     C49875   2.351   5.072  -0.080 -0.0705  0.1875 -0.7317
  362MOL0     C49876   2.298   5.201  -0.059 -0.8898 -0.1749  0.3428
  362MOL0     O49877   2.181   5.233  -0.128 -0.2299 -0.3149 -0.5053
  362MOL0     C49878   2.118   5.359  -0.109  0.4716  1.4430  0.7756
  362MOL0     C49879   2.014   5.396  -0.226  0.1677  0.4981  0.1154
  362MOL0     C49880   1.917   5.282  -0.258 -0.2843  1.4339  0.2433
  362MOL0     C49881   1.810   5.311  -0.365  0.2079 -0.3739 -0.8507
  362MOL0     C49882   1.731   5.199  -0.381 -0.4762  0.1204  0.9090
  362MOL0     C49883   1.660   5.104  -0.394 -0.7614  0.6371 -0.2729
  362MOL0     C49884   2.381   5.292   0.011  0.3306  1.0371  0.3905
  362MOL0     C49885   2.500   5.250   0.084  0.0462 -0.0174 -0.2617
  362MOL0     C49886   2.556   5.352   0.189  0.7131 -0.2620 -0.1880
  362MOL0     H49887   2.725   4.725   0.147  0.3755 -0.4276 -0.0856
  362MOL0     H49888   2.895   4.621   0.279 -2.5158 -0.3094 -1.2725
  362MOL0     H49889   3.039   4.611   0.415 -0.1586 -0.9291  0.0262
  362MOL0     H49890   3.209   4.611   0.461  2.5810  0.3847 -1.9704
  362MOL0     H49891   3.110   4.385   0.402  1.1070 -0.3548 -0.1323
  362MOL0     H49892   3.104   4.451   0.233  0.2714 -0.4768 -0.1715
  362MOL0     H49893   3.362   4.484   0.256 -2.6078  0.4307 -1.0120
  362MOL0     H49894   3.357   4.427   0.415 -1.1334 -0.4072  1.5841
  362MOL0     H49895   3.273   4.194   0.327 -0.1896 -2.4072 -2.1168
  362MOL0     H49896   3.265   4.258   0.170 -0.2293 -0.4077  0.1424
  362MOL0     H49897   3.468   4.136   0.234  1.6203 -0.5662  0.9192
  362MOL0     H49898   3.531   4.275   0.327  0.6888  2.5853 -1.1235
  362MOL0     H49899   3.472   4.298   0.029 -4.4854  3.6333  2.0544
  362MOL0     H49900   3.560   4.413   0.121  1.6643 -0.8478 -2.0429
  362MOL0     H49901   3.648   4.133   0.141 -0.9489  1.1181  1.7857
  362MOL0     H49902   3.760   4.271   0.154  1.0076 -0.9531 -1.1765
  362MOL0     H49903   3.806   4.155  -0.051 -0.2183  0.8566  0.9763
  362MOL0     H49904   3.634   4.156  -0.098 -0.9373 -1.0156  1.4972
  362MOL0     H49905   3.958   4.333  -0.169  1.1657  1.3488 -2.1338
  362MOL0     H49906   3.902   4.606  -0.426  1.2431  3.2995  1.7525
  362MOL0     H49907   3.991   4.462  -0.413 -0.8832 -1.1284  1.2874
  362MOL0     H49908   4.015   4.691  -0.223  0.0920  1.5248 -2.7420
  362MOL0     H49909   4.105   4.537  -0.196  1.6247  1.9588  0.6511
  362MOL0     H49910   4.199   4.574  -0.436  0.9873  0.8080 -0.5762
  362MOL0     H49911   4.131   4.731  -0.434  0.0306 -0.2098 -0.1285
  362MOL0     H49912   4.358   4.721  -0.379 -1.1374 -0.9659 -1.5788
  362MOL0     H49913   4.266   4.793  -0.237 -2.1767 -1.8442  2.9065
  362MOL0     H49914   4.412   4.419  -0.073 -1.8185  1.1370 -1.8810
  362MOL0     H49915   4.576   4.304   0.049 -0.0200 -4.0102 -0.7021
  362MOL0     H49916   4.756   4.344   0.054  3.2305  1.8179 -4.0672
  362MOL0     H49917   4.692   4.227  -0.052  0.3629 -0.3237  1.1035
  362MOL0     H49918   5.168   4.634  -0.355  1.2077  1.9522  0.0442
  362MOL0     H49919   5.419   4.608  -0.311  2.6640  1.3310  2.6738
  362MOL0     H49920   5.560   4.398  -0.202  1.5467 -1.1014  1.2324
  362MOL0     H49921   5.614   4.570  -0.256 -0.8601 -2.2448 -2.1209
  362MOL0     H49922   5.738   4.373  -0.055  1.3258 -1.5573 -1.8352
  362MOL0     H49923   5.811   4.419  -0.209  2.3303  1.3482  1.8158
  362MOL0     H49924   5.772   4.657  -0.075 -0.7198  0.3070  0.3407
  362MOL0     H49925   5.925   4.562  -0.092  0.6263  1.0727  1.9794
  362MOL0     H49926   5.889   4.460   0.119  2.1575  1.7596 -0.7223
  362MOL0     H49927   5.733   4.515   0.144  1.2508 -2.1659  0.7025
  362MOL0     H49928   5.953   4.715   0.108 -1.4071  1.3746 -1.7074
  362MOL0     H49929   5.786   4.747   0.162  0.0147  0.2715 -0.9709
  362MOL0     H49930   5.962   4.555   0.324 -0.7723 -0.3875  0.0746
  362MOL0     H49931   5.810   4.638   0.367 -0.6493  0.4808 -1.5766
  362MOL0     H49932   5.911   4.854   0.349 -0.2958  0.2529  3.4954
  362MOL0     H49933   6.063   4.771   0.294 -0.2765  0.1304 -0.0246
  362MOL0     H49934   6.068   4.839   0.535  0.6970 -0.8241  1.6886
  362MOL0     H49935   6.067   4.665   0.522 -0.8655 -1.8987  0.0253
  362MOL0     H49936   5.350   4.523   0.092  0.6935  3.0961  0.8484
  362MOL0     H49937   5.108   4.519   0.058  2.2456 -2.6055  1.5186
  362MOL0     H49938   4.761   4.689  -0.308 -2.8682  3.4199 -0.4459
  362MOL0     H49939   4.536   4.745  -0.305  3.6350  0.8728 -1.6552
  362MOL0     H49940   3.168   4.948   0.165 -0.9912  0.7585  4.1718
  362MOL0     H49941   2.993   5.044   0.052  0.0525  0.0285 -0.8742
  362MOL0     H49942   2.520   4.935  -0.046  0.0502  0.1049 -0.1857
  362MOL0     H49943   2.298   5.000  -0.142  1.4934 -0.2178 -1.6321
  362MOL0     H49944   2.064   5.349  -0.015 -0.1644  1.4128  0.4135
  362MOL0     H49945   2.193   5.438  -0.105  2.5187 -0.3250 -0.6042
  362MOL0     H49946   2.080   5.425  -0.309 -0.1504  1.4939  0.2020
  362MOL0     H49947   1.936   5.469  -0.204 -1.0803 -0.9610  0.6744
  362MOL0     H49948   1.972   5.193  -0.289 -0.4537  1.8532 -1.3816
  362MOL0     H49949   1.866   5.254  -0.166 -0.3357  0.1864 -0.1408
  362MOL0     H49950   1.856   5.339  -0.460  3.8601  3.7530  1.7427
  362MOL0     H49951   1.747   5.397  -0.341  0.5617 -0.5271  0.7192
  362MOL0     H49952   1.591   5.023  -0.409 -1.5416  0.3179  3.8120
  362MOL0     H49953   2.357   5.396   0.031  0.8012  1.6523 -2.0266
  362MOL0     H49954   2.515   5.323   0.286 -0.5074 -0.3877 -0.7211
  362MOL0     H49955   2.665   5.361   0.190  0.6762  0.3011 -0.4705
  362MOL0     H49956   2.511   5.451   0.173 -1.2658 -0.9745  0.6483
  363MOL0     O49957   0.922  10.983   4.502 -0.4000  0.0737  0.4967
  363MOL0     C49958   0.888  10.874   4.559  0.5690  0.1836  0.1815
  363MOL0     O49959   0.972  10.800   4.629 -0.3340 -0.1468  0.0524
  363MOL0     C49960   1.102  10.839   4.667 -0.4811 -0.3140 -0.1482
  363MOL0     C49961   1.099  10.916   4.781 -0.1373 -0.3162 -0.6830
  363MOL0     C49962   1.220  10.970   4.823 -0.6520 -0.0779 -0.1174
  363MOL0     C49963   1.338  10.941   4.759  0.0333  0.3294  1.0631
  363MOL0     O49964   1.436  11.013   4.803  0.8811  0.2692 -0.1108
  363MOL0     C49965   1.563  11.010   4.755 -0.2893  0.2105  0.6665
  363MOL0     C49966   1.651  10.939   4.857 -0.1500 -0.0467  0.6452
  363MOL0     C49967   1.793  10.948   4.817 -0.5483  0.0204 -0.3994
  363MOL0     C49968   1.865  11.070   4.864  0.0374  0.2397  0.1464
  363MOL0     C49969   2.011  11.054   4.815 -0.4607 -0.3453 -0.4725
  363MOL0     C49970   2.098  11.182   4.854  0.1991  0.4341 -0.4428
  363MOL0     C49971   2.243  11.161   4.796  0.6719  1.2509 -0.1007
  363MOL0     C49972   2.338  11.276   4.844  0.7216  0.1523 -0.8486
  363MOL0     N49973   2.472  11.248   4.809 -0.6641 -0.2067  0.9946
  363MOL0     C49974   2.562  11.162   4.874  0.3765  0.0143 -1.3421
  363MOL0     C49975   2.679  11.178   4.807  0.3468 -0.4714 -0.3833
  363MOL0     C49976   2.798  11.087   4.828 -0.2680  0.0707  0.1890
  363MOL0     C49977   2.862  11.100   4.972 -0.1387  0.7176  0.0595
  363MOL0     C49978   2.962  10.991   5.005 -0.8032 -0.1316  0.1942
  363MOL0     C49979   3.039  10.996   5.140 -0.6748  0.5306  0.3276
  363MOL0     O49980   3.077  11.132   5.174  0.2708  0.1721 -0.0099
  363MOL0     C49981   3.182  11.146   5.264  0.3931 -0.3145 -0.0187
  363MOL0     C49982   3.258  11.258   5.257 -0.4078  0.7539  0.1848
  363MOL0     C49983   3.385  11.282   5.309 -0.4728  0.5409 -0.0304
  363MOL0     C49984   3.440  11.420   5.277  0.0032 -0.3003  1.0364
  363MOL0     C49985   3.437  11.182   5.394  0.0859 -0.2726  0.6572
  363MOL0     C49986   3.563  11.203   5.466  0.1306  0.1514 -0.6406
  363MOL0     O49987   3.657  11.286   5.415 -0.4893  0.5015 -0.5283
  363MOL0     C49988   3.782  11.285   5.471  0.5865  0.3973  0.3400
  363MOL0     C49989   3.890  11.254   5.395 -0.2962  0.3083  0.0644
  363MOL0     C49990   4.027  11.257   5.443  0.0014 -0.0090  0.1477
  363MOL0     C49991   4.046  11.299   5.578  0.5250  0.1992 -0.5516
  363MOL0     O49992   4.168  11.295   5.639 -0.2174  0.5315 -0.1534
  363MOL0     C49993   4.283  11.348   5.558  0.3202 -0.4015  0.0457
  363MOL0     C49994   4.407  11.338   5.638 -0.5431  0.1894 -0.3143
  363MOL0     C49995   4.533  11.332   5.545  0.5782 -0.2821 -0.4930
  363MOL0     C49996   4.661  11.329   5.616  0.7265 -0.4282 -0.2516
  363MOL0     C49997   4.679  11.195   5.697  0.2088  0.9779  0.3586
  363MOL0     C49998   4.828  11.174   5.738 -0.4067 -0.4634 -0.1351
  363MOL0     C49999   4.892  11.282   5.808  0.4406  0.4390 -0.8823
  363MOL0     C50000   5.037  11.240   5.844 -0.1133 -0.3427  0.4306
  363MOL0    Cl50001   5.145  11.384   5.837  0.2173 -0.0445 -0.0513
  363MOL0     C50002   3.937  11.338   5.651  0.0347 -0.1901  0.2474
  363MOL0     C50003   3.805  11.337   5.604 -0.1387  0.1868 -0.3870
  363MOL0     O50004   3.573  11.135   5.573 -0.0327  0.8171  0.0513
  363MOL0     C50005   3.347  11.073   5.424 -0.9020 -0.3154  0.3289
  363MOL0     C50006   3.230  11.049   5.349 -0.1421  0.3705  0.2049
  363MOL0     N50007   2.662  11.285   4.718 -1.1166 -0.2899  0.1794
  363MOL0     N50008   2.542  11.323   4.716  0.7771  0.6957 -0.3031
  363MOL0     C50009   1.341  10.858   4.655  0.0739  0.5463  0.0078
  363MOL0     C50010   1.224  10.807   4.603 -0.3037  0.5402  0.6240
  363MOL0     C50011   0.756  10.813   4.534  0.0686  0.2055  0.4684
  363MOL0     C50012   0.755  10.670   4.513  0.1119 -0.4021 -0.2368
  363MOL0     C50013   0.631  10.607   4.487 -1.1990 -0.0057 -0.9628
  363MOL0     C50014   0.519  10.683   4.480  0.2366 -0.3859 -0.2147
  363MOL0     O50015   0.397  10.609   4.454  0.8175 -0.8277  0.4534
  363MOL0     C50016   0.275  10.673   4.498 -1.0320  0.9590  0.3801
  363MOL0     C50017   0.178  10.561   4.535 -0.1010 -0.4052  0.3158
  363MOL0     C50018   0.041  10.619   4.603  0.0122 -0.7093  0.4740
  363MOL0     C50019  -0.069  10.513   4.629  0.2026  0.7623 -0.1983
  363MOL0     C50020  -0.019  10.384   4.684 -0.7432  0.1070  0.0948
  363MOL0     C50021   0.031  10.288   4.743  0.3399 -1.0616  0.9368
  363MOL0     C50022   0.517  10.824   4.497 -0.2076  0.2933 -0.0801
  363MOL0     C50023   0.633  10.889   4.532 -0.5427 -0.5404  0.5305
  363MOL0     C50024   0.636  11.040   4.556  0.0781  0.3459 -0.5819
  363MOL0     H50025   1.005  10.938   4.831 -0.2011 -1.0218 -0.4806
  363MOL0     H50026   1.221  11.030   4.914 -0.3606 -1.0733  0.5543
  363MOL0     H50027   1.604  11.109   4.734 -0.8737 -0.1799 -2.8965
  363MOL0     H50028   1.571  10.963   4.657 -3.0306 -1.2281  1.0358
  363MOL0     H50029   1.638  10.992   4.952 -0.3770 -2.8935  2.3262
  363MOL0     H50030   1.609  10.839   4.869 -0.7759  0.2274  0.7732
  363MOL0     H50031   1.828  10.854   4.860 -0.9213  0.8824  1.8889
  363MOL0     H50032   1.799  10.938   4.708 -2.5969 -1.7766 -0.4162
  363MOL0     H50033   1.822  11.161   4.820  0.6717 -0.1705 -1.4092
  363MOL0     H50034   1.868  11.075   4.973 -0.6585 -0.3794  0.1984
  363MOL0     H50035   2.013  11.022   4.710 -1.2735 -1.8241 -0.0615
  363MOL0     H50036   2.050  10.971   4.873 -0.1502  0.3582  0.3479
  363MOL0     H50037   2.055  11.274   4.814 -2.2568  0.2650  1.5597
  363MOL0     H50038   2.091  11.194   4.963  0.3324  0.4868 -0.4396
  363MOL0     H50039   2.250  11.155   4.687  2.1920 -0.6421  0.0457
  363MOL0     H50040   2.282  11.065   4.831 -0.9833  0.3828 -0.5562
  363MOL0     H50041   2.313  11.370   4.793 -0.4807 -0.3100 -1.1348
  363MOL0     H50042   2.312  11.288   4.950 -2.9003 -2.4190 -1.2569
  363MOL0     H50043   2.529  11.098   4.956  2.4895  0.7289  0.1477
  363MOL0     H50044   2.874  11.117   4.755  0.5315  4.2888  2.4626
  363MOL0     H50045   2.765  10.984   4.809 -0.8893  0.6214 -1.8802
  363MOL0     H50046   2.911  11.197   4.975  0.1317  0.6120 -0.8215
  363MOL0     H50047   2.781  11.104   5.046 -0.5056  1.8318 -0.3890
  363MOL0     H50048   2.926  10.888   4.996  2.4886 -1.3331 -0.8172
  363MOL0     H50049   3.038  10.999   4.927 -2.4230  0.1383 -1.4034
  363MOL0     H50050   2.971  10.960   5.217 -3.3462 -0.2094 -2.1913
  363MOL0     H50051   3.119  10.924   5.125 -2.0043 -0.3624 -3.5469
  363MOL0     H50052   3.212  11.333   5.193 -2.6796  0.1162  0.9759
  363MOL0     H50053   3.537  11.408   5.226 -0.1171  1.4961  0.3330
  363MOL0     H50054   3.470  11.475   5.366  3.2629 -0.7479  0.3612
  363MOL0     H50055   3.377  11.473   5.205 -1.3575  0.1029  2.4893
  363MOL0     H50056   3.871  11.233   5.291  1.6139  3.1949 -0.9881
  363MOL0     H50057   4.113  11.217   5.389  3.6993  0.7009  4.8414
  363MOL0     H50058   4.302  11.280   5.474  3.5302 -3.4227  2.8593
  363MOL0     H50059   4.264  11.448   5.518  1.3050  1.2954  3.4431
  363MOL0     H50060   4.405  11.422   5.707 -0.6591  0.1368 -0.2527
  363MOL0     H50061   4.406  11.239   5.686 -1.5713  0.7307  0.8351
  363MOL0     H50062   4.518  11.422   5.483 -1.2136  0.2456  0.6403
  363MOL0     H50063   4.521  11.244   5.481  1.0872 -0.6034 -0.1522
  363MOL0     H50064   4.675  11.406   5.691  0.2304  0.0347 -0.6261
  363MOL0     H50065   4.742  11.339   5.543  1.1494  1.3905  0.4393
  363MOL0     H50066   4.617  11.203   5.787 -2.6452  2.3559 -1.5710
  363MOL0     H50067   4.634  11.117   5.634 -0.2476  3.4123 -2.5336
  363MOL0     H50068   4.900  11.146   5.660  1.7900  0.5142  1.4496
  363MOL0     H50069   4.834  11.090   5.808 -0.8290  0.2383  0.7611
  363MOL0     H50070   4.834  11.290   5.901  1.8764 -0.8569  0.1787
  363MOL0     H50071   4.883  11.370   5.744 -2.0565 -0.3165 -1.7062
  363MOL0     H50072   5.073  11.161   5.778  0.7135 -0.7426  1.3328
  363MOL0     H50073   5.030  11.193   5.943 -1.6271 -1.1567 -0.0225
  363MOL0     H50074   3.958  11.367   5.754  2.2464 -2.9687  0.7104
  363MOL0     H50075   3.728  11.377   5.669  1.3506 -1.0805  2.3332
  363MOL0     H50076   3.376  10.996   5.495 -0.8965  0.0395  0.7081
  363MOL0     H50077   3.181  10.955   5.368 -2.1991  1.1373 -0.9964
  363MOL0     H50078   1.435  10.816   4.619 -1.3119 -0.0143 -3.2923
  363MOL0     H50079   1.222  10.735   4.522 -0.6352  0.6654  0.5186
  363MOL0     H50080   0.848  10.613   4.511  0.5962  0.3889 -0.7440
  363MOL0     H50081   0.637  10.499   4.477 -2.5149 -0.3382  1.2508
  363MOL0     H50082   0.294  10.725   4.593  1.2452 -0.1581  0.6103
  363MOL0     H50083   0.237  10.747   4.427  2.0620 -0.3879 -2.9087
  363MOL0     H50084   0.226  10.479   4.589 -1.6958  0.1942  2.8265
  363MOL0     H50085   0.144  10.521   4.439  0.3086  0.8237 -0.3726
  363MOL0     H50086   0.068  10.660   4.701 -2.2480  0.1957  0.7873
  363MOL0     H50087  -0.005  10.699   4.544 -1.4546 -1.3279  0.7393
  363MOL0     H50088  -0.113  10.485   4.533 -2.6287 -1.1367  1.5138
  363MOL0     H50089  -0.145  10.553   4.697  0.1669 -0.9239  0.8129
  363MOL0     H50090   0.088  10.204   4.778  1.5597 -0.5408  0.2780
  363MOL0     H50091   0.423  10.877   4.484 -0.2392  0.5182  0.9696
  363MOL0     H50092   0.535  11.079   4.545  0.1797  0.4365 -1.2142
  363MOL0     H50093   0.685  11.036   4.654 -0.5657  1.8662 -0.1835
  363MOL0     H50094   0.702  11.095   4.488  0.4577  0.8912  0.2074
  364MOL0     O50095   6.744   4.693   7.191  0.7253 -0.3875 -0.2037
  364MOL0     C50096   6.695   4.607   7.272  0.6570 -1.2954  0.9605
  364MOL0     O50097   6.758   4.571   7.387  0.8869 -0.7350 -0.3031
  364MOL0     C50098   6.883   4.619   7.411 -0.4681 -0.0273  1.2832
  364MOL0     C50099   6.895   4.745   7.467 -0.6829 -0.4257  0.0207
  364MOL0     C50100   7.027   4.802   7.486 -0.4438 -0.0508  0.2539
  364MOL0     C50101   7.139   4.726   7.448 -0.2165  0.2195 -0.1906
  364MOL0     O50102   7.273   4.762   7.468  0.5324 -0.9129 -0.4155
  364MOL0     C50103   7.311   4.903   7.490 -0.6069 -0.2539  0.9615
  364MOL0     C50104   7.463   4.911   7.480 -0.0793 -0.4328 -0.0965
  364MOL0     C50105   7.497   5.059   7.492 -0.1223 -0.4559  1.0490
  364MOL0     C50106   7.650   5.072   7.463  0.2453 -0.8814 -0.3878
  364MOL0     C50107   7.727   5.040   7.596  0.3987  0.4224 -0.1351
  364MOL0     C50108   7.876   5.059   7.576  0.1442 -0.4602 -0.4583
  364MOL0     C50109   7.950   5.025   7.707  0.1390 -0.3112  0.1987
  364MOL0     C50110   8.083   5.097   7.731  0.8344 -0.1831 -0.7711
  364MOL0     N50111   8.154   5.078   7.856  0.1322  0.1258  0.0205
  364MOL0     C50112   8.101   5.099   7.983  0.5777 -0.6772  0.0791
  364MOL0     C50113   8.195   5.062   8.068 -0.1432 -0.4186 -0.1005
  364MOL0     C50114   8.200   5.077   8.213  0.1965 -0.2433 -0.1292
  364MOL0     C50115   8.147   5.218   8.260 -0.4913  1.3085  0.2103
  364MOL0     C50116   8.223   5.347   8.212  1.3870 -0.0010  0.4531
  364MOL0     C50117   8.366   5.354   8.264  0.2601 -0.3600  0.5984
  364MOL0     O50118   8.381   5.348   8.408  0.0553 -0.7056 -0.2426
  364MOL0     C50119   8.512   5.342   8.458 -0.2460 -0.3852  0.1489
  364MOL0     C50120   8.518   5.356   8.591  0.4901 -1.3829  0.6942
  364MOL0     C50121   8.642   5.357   8.664 -0.2983 -0.6010  0.0454
  364MOL0     C50122   8.641   5.395   8.807  0.3015 -0.4762  0.5203
  364MOL0     C50123   8.765   5.342   8.598  0.4023  0.1849  0.5414
  364MOL0     C50124   8.901   5.349   8.659 -0.7779 -0.1385 -0.3789
  364MOL0     O50125   8.926   5.406   8.777 -0.2813  0.2944 -0.3377
  364MOL0     C50126   9.053   5.376   8.833 -0.2106  0.4026 -0.0865
  364MOL0     C50127   9.136   5.484   8.869  0.2244 -0.3758  0.0216
  364MOL0     C50128   9.268   5.478   8.907 -0.3195  0.2971  0.0214
  364MOL0     C50129   9.324   5.349   8.927 -0.1657  0.1520  0.8455
  364MOL0     O50130   9.459   5.346   8.970 -0.1969 -0.7913 -0.0847
  364MOL0     C50131   9.520   5.225   9.015  0.0154  0.4819  0.5353
  364MOL0     C50132   9.647   5.265   9.085  0.6903  0.9313 -0.0879
  364MOL0     C50133   9.617   5.355   9.203 -0.2592  0.1581  0.5662
  364MOL0     C50134   9.752   5.374   9.285 -0.0321  0.2882  0.5003
  364MOL0     C50135   9.735   5.481   9.399 -0.0855 -0.5168 -0.0217
  364MOL0     C50136   9.832   5.442   9.510 -0.3089  0.1755 -0.2559
  364MOL0     C50137   9.829   5.549   9.625  0.1717  0.5216  0.5782
  364MOL0     C50138   9.820   5.482   9.765  0.1022  0.2094  0.0762
  364MOL0    Cl50139   9.977   5.480   9.856 -0.1521  0.3157 -0.3322
  364MOL0     C50140   9.240   5.236   8.903  0.4593  0.3563  0.3937
  364MOL0     C50141   9.105   5.251   8.851 -1.1089  0.0459  0.1595
  364MOL0     O50142   8.995   5.301   8.591 -0.4254 -0.4152 -0.1669
  364MOL0     C50143   8.749   5.312   8.456 -1.1553 -0.5803  0.5489
  364MOL0     C50144   8.637   5.325   8.381  0.0618  0.1455 -0.2111
  364MOL0     N50145   8.303   5.014   7.993 -0.4690 -0.4333 -0.1624
  364MOL0     N50146   8.279   5.026   7.867  0.8701  0.3565 -0.1084
  364MOL0     C50147   7.117   4.603   7.387  0.3612  0.2012 -0.2516
  364MOL0     C50148   6.995   4.548   7.370 -0.3609  1.2681 -0.5192
  364MOL0     C50149   6.571   4.529   7.231 -0.1717 -0.1591  0.2037
  364MOL0     C50150   6.574   4.391   7.271 -0.6513  0.0207 -0.3081
  364MOL0     C50151   6.468   4.307   7.243  1.0966  0.1385 -0.6269
  364MOL0     C50152   6.348   4.353   7.180  0.0263  0.6968  0.1458
  364MOL0     O50153   6.242   4.264   7.171  0.3591  0.3011 -0.1989
  364MOL0     C50154   6.113   4.312   7.217 -0.3962  0.5209 -0.2927
  364MOL0     C50155   6.045   4.196   7.291 -0.5544  0.5476  0.0845
  364MOL0     C50156   5.966   4.103   7.191  0.7582 -0.5960 -0.4899
  364MOL0     C50157   5.913   3.972   7.256 -0.6894  0.3296  0.1834
  364MOL0     C50158   5.895   3.872   7.149  0.2424 -0.0988 -0.9208
  364MOL0     C50159   5.898   3.799   7.058  0.4396  0.6187  0.4211
  364MOL0     C50160   6.346   4.491   7.146  0.1022 -0.5144 -0.0150
  364MOL0     C50161   6.462   4.577   7.164  0.2911  0.8744 -0.6899
  364MOL0     C50162   6.461   4.717   7.114 -0.2857 -0.9217 -0.0567
  364MOL0     H50163   6.815   4.799   7.518  1.0977  3.2597 -0.7643
  364MOL0     H50164   7.030   4.890   7.549  0.1588  0.5724 -0.6181
  364MOL0     H50165   7.265   4.932   7.585 -1.3970 -0.5015  0.6659
  364MOL0     H50166   7.263   4.962   7.412 -0.4144  0.6609  1.5095
  364MOL0     H50167   7.511   4.846   7.555 -1.9054 -1.1184  0.5188
  364MOL0     H50168   7.496   4.870   7.384 -1.1474 -0.9056 -0.2713
  364MOL0     H50169   7.455   5.131   7.421 -2.7378 -1.7578  1.1849
  364MOL0     H50170   7.483   5.092   7.595  3.0746 -1.0142  1.7678
  364MOL0     H50171   7.699   5.021   7.379  1.0982  0.0894 -0.4989
  364MOL0     H50172   7.680   5.176   7.443  3.0336 -1.6184 -0.4795
  364MOL0     H50173   7.709   4.933   7.609 -0.3913  0.4543 -0.8613
  364MOL0     H50174   7.691   5.097   7.682  0.0020  0.9711 -0.6577
  364MOL0     H50175   7.918   4.989   7.503  0.1491  0.3093 -1.2054
  364MOL0     H50176   7.883   5.164   7.545 -3.3491 -0.5014 -1.8831
  364MOL0     H50177   7.973   4.919   7.697 -0.0746 -0.4353  0.9606
  364MOL0     H50178   7.893   5.042   7.799  1.1931  0.4944  0.7270
  364MOL0     H50179   8.158   5.070   7.656  3.4069 -2.2131  2.2637
  364MOL0     H50180   8.050   5.200   7.720  0.7769 -0.3201 -1.9825
  364MOL0     H50181   8.008   5.150   8.007 -0.7633 -2.8553 -0.2109
  364MOL0     H50182   8.300   5.058   8.255 -0.3372  0.6744  1.6689
  364MOL0     H50183   8.132   5.002   8.254 -0.5194  0.3208 -0.2778
  364MOL0     H50184   8.039   5.228   8.241 -1.2622 -0.7969  2.9078
  364MOL0     H50185   8.155   5.224   8.369 -2.4560 -0.6843  0.5234
  364MOL0     H50186   8.204   5.357   8.105 -2.4092  0.6989  1.0489
  364MOL0     H50187   8.161   5.432   8.242  0.9094  0.0440 -0.6039
  364MOL0     H50188   8.404   5.259   8.227 -0.1683 -1.5709  3.0446
  364MOL0     H50189   8.410   5.444   8.218  0.1735 -0.3941  0.4490
  364MOL0     H50190   8.429   5.376   8.649  0.3563 -2.6429  0.9510
  364MOL0     H50191   8.537   5.396   8.841  0.3940 -0.9131  0.8282
  364MOL0     H50192   8.692   5.492   8.815  1.5094 -1.1178  0.9095
  364MOL0     H50193   8.690   5.321   8.871 -0.7847 -0.5812  1.2611
  364MOL0     H50194   9.090   5.582   8.868 -1.5149 -1.0922  2.2274
  364MOL0     H50195   9.319   5.571   8.926 -0.4589  1.1056 -3.1014
  364MOL0     H50196   9.459   5.168   9.085 -1.0768 -0.0564 -0.8238
  364MOL0     H50197   9.544   5.166   8.927  5.1298  2.2866  0.3837
  364MOL0     H50198   9.702   5.185   9.136  0.2826  1.1862  0.7532
  364MOL0     H50199   9.716   5.310   9.012 -0.1218  0.4598 -1.1822
  364MOL0     H50200   9.541   5.316   9.271  0.4350 -1.3757  0.5185
  364MOL0     H50201   9.586   5.456   9.173  1.5005  1.0156  1.4576
  364MOL0     H50202   9.835   5.393   9.216  0.2934  1.4462  1.1746
  364MOL0     H50203   9.760   5.274   9.327 -0.1361 -1.0226 -2.3492
  364MOL0     H50204   9.763   5.581   9.365  0.2506  1.3430  5.0048
  364MOL0     H50205   9.630   5.482   9.431 -0.6463  1.1540 -1.7091
  364MOL0     H50206   9.935   5.444   9.474  1.4282  2.1652  4.1918
  364MOL0     H50207   9.820   5.343   9.556  2.7237 -0.1755 -0.0248
  364MOL0     H50208   9.734   5.601   9.608  1.3468  1.6371 -4.1084
  364MOL0     H50209   9.906   5.625   9.612  1.1564 -0.6332 -0.6359
  364MOL0     H50210   9.767   5.386   9.760 -0.7266  0.3508  3.6261
  364MOL0     H50211   9.762   5.546   9.832  0.6057 -1.3563  2.1049
  364MOL0     H50212   9.288   5.139   8.905  1.0038  0.6155  0.1668
  364MOL0     H50213   9.050   5.162   8.824  0.8597 -0.8597 -1.1451
  364MOL0     H50214   8.840   5.278   8.406 -2.3212 -2.2506 -0.5243
  364MOL0     H50215   8.642   5.304   8.274 -1.1069 -1.4684  0.0111
  364MOL0     H50216   7.199   4.541   7.350 -0.9399 -1.2296 -0.8293
  364MOL0     H50217   6.988   4.444   7.341 -1.6331  1.3962 -0.7353
  364MOL0     H50218   6.664   4.350   7.315  0.3936  3.1013  0.6522
  364MOL0     H50219   6.475   4.203   7.272  1.0036  0.4413  0.5324
  364MOL0     H50220   6.131   4.392   7.289  2.7806  0.9104 -1.3836
  364MOL0     H50221   6.047   4.349   7.138  0.0196  2.5695  0.2790
  364MOL0     H50222   5.979   4.253   7.358 -1.8823 -0.0240 -0.6851
  364MOL0     H50223   6.104   4.138   7.363  0.5820  1.9069  0.2815
  364MOL0     H50224   5.896   4.170   7.139  1.5307  1.1084  0.5520
  364MOL0     H50225   6.037   4.074   7.114  0.1924  0.0804 -1.2877
  364MOL0     H50226   5.820   3.995   7.308 -0.6994 -0.0677  0.3424
  364MOL0     H50227   5.983   3.937   7.333 -0.4368 -0.7622 -0.5126
  364MOL0     H50228   5.918   3.737   6.973 -1.6803  1.6459 -0.9145
  364MOL0     H50229   6.264   4.530   7.085  0.2111 -0.5459 -0.1820
  364MOL0     H50230   6.361   4.743   7.078 -0.5375  0.2146  1.3457
  364MOL0     H50231   6.484   4.800   7.181  0.8098  3.5688 -5.2080
  364MOL0     H50232   6.531   4.726   7.030 -1.4297  1.8144 -0.8377
  365MOL0     O50233   8.478   0.744  10.526  0.8047  0.1532 -0.9994
  365MOL0     C50234   8.396   0.698  10.612 -0.1977 -0.2709 -0.4007
  365MOL0     O50235   8.434   0.648  10.737 -0.7137 -0.1104  0.7572
  365MOL0     C50236   8.573   0.627  10.766 -0.2533 -0.1596 -0.2772
  365MOL0     C50237   8.627   0.495  10.776  0.2351  0.0429  0.3917
  365MOL0     C50238   8.760   0.480  10.823  0.3855 -0.7924 -0.3777
  365MOL0     C50239   8.826   0.600  10.871 -0.1160  0.0471  0.2086
  365MOL0     O50240   8.949   0.594  10.938 -0.4750  0.3164 -0.7093
  365MOL0     C50241   9.045   0.497  10.897 -0.1543  0.2439  0.0980
  365MOL0     C50242   9.168   0.519  10.988  0.4967  0.3819  0.4221
  365MOL0     C50243   9.308   0.504  10.921  0.4096 -0.5737 -0.1038
  365MOL0     C50244   9.424   0.534  11.005 -0.3368 -0.2459  0.7210
  365MOL0     C50245   9.552   0.536  10.922 -0.4397  0.0843 -0.1463
  365MOL0     C50246   9.667   0.549  11.022  0.4415  0.4539  0.7467
  365MOL0     C50247   9.806   0.575  10.954 -0.4750 -0.2866 -0.3326
  365MOL0     C50248   9.821   0.724  10.920  0.0698 -0.0854  0.3182
  365MOL0     N50249   9.782   0.746  10.782 -0.1057 -0.2181  0.3166
  365MOL0     C50250   9.855   0.716  10.672  0.2694 -0.2270  0.5125
  365MOL0     C50251   9.791   0.781  10.570  0.4561  0.2585 -0.7770
  365MOL0     C50252   9.805   0.779  10.421 -0.2724  0.0300  0.4404
  365MOL0     C50253   9.940   0.704  10.374 -0.4732  0.9735  0.5093
  365MOL0     C50254   9.952   0.725  10.222  0.3467 -0.2564  0.4817
  365MOL0     C50255  10.069   0.666  10.147 -0.0439 -0.6825  0.2251
  365MOL0     O50256  10.187   0.723  10.202  0.0077 -0.1576  0.3501
  365MOL0     C50257  10.305   0.688  10.144 -0.1016 -0.2254  0.0029
  365MOL0     C50258  10.314   0.619  10.018 -0.2132 -0.5673 -0.1594
  365MOL0     C50259  10.442   0.595   9.971  0.0299  0.5803  0.3123
  365MOL0     C50260  10.458   0.514   9.840  0.0431 -0.4712 -0.1805
  365MOL0     C50261  10.559   0.631  10.041 -0.3209 -0.1088  0.1562
  365MOL0     C50262  10.691   0.616   9.984 -0.0140 -0.1200  1.0443
  365MOL0     O50263  10.794   0.591  10.070 -0.1792  0.6136  0.0418
  365MOL0     C50264  10.923   0.583  10.015 -0.1747  0.2371 -0.2352
  365MOL0     C50265  10.992   0.705   9.987 -0.7618 -0.4220  0.6334
  365MOL0     C50266  11.130   0.701   9.935 -0.5560  0.1841 -0.4158
  365MOL0     C50267  11.200   0.573   9.937  0.1532 -0.2738  0.2121
  365MOL0     O50268  11.331   0.552   9.896  0.1291 -0.0324  0.4474
  365MOL0     C50269  11.414   0.648   9.831  0.0229 -0.2529  0.5454
  365MOL0     C50270  11.555   0.580   9.830 -0.3615  0.8761  0.3086
  365MOL0     C50271  11.682   0.660   9.784  1.0888 -0.1226 -0.1491
  365MOL0     C50272  11.823   0.590   9.803 -0.1626  0.3180  0.1821
  365MOL0     C50273  11.943   0.639   9.712 -0.3998 -0.1709  0.1990
  365MOL0     C50274  12.081   0.574   9.736 -0.7146  0.7494 -0.0711
  365MOL0     C50275  12.200   0.661   9.684  0.3511 -0.4179 -0.1182
  365MOL0     C50276  12.316   0.669   9.784 -0.2272  0.2875 -0.8939
  365MOL0    Cl50277  12.295   0.787   9.912  0.2602 -0.0410  0.1034
  365MOL0     C50278  11.132   0.457   9.976 -0.1242  0.5258 -0.0109
  365MOL0     C50279  10.991   0.461  10.005  0.0400 -0.5179 -0.0435
  365MOL0     O50280  10.709   0.623   9.860 -0.3500  0.0329  0.3719
  365MOL0     C50281  10.549   0.694  10.166 -0.0299 -0.8321 -0.3327
  365MOL0     C50282  10.418   0.732  10.215  0.6989  0.3428 -0.2287
  365MOL0     N50283   9.682   0.845  10.632 -0.1369 -0.3799  0.0818
  365MOL0     N50284   9.680   0.823  10.753  0.3727 -0.7593  0.4307
  365MOL0     C50285   8.768   0.726  10.852 -0.3850  0.0810  0.5228
  365MOL0     C50286   8.645   0.738  10.803 -0.2054 -0.1068  0.3994
  365MOL0     C50287   8.250   0.699  10.572 -0.5236  0.3222 -0.4037
  365MOL0     C50288   8.213   0.765  10.455  0.2128 -0.0112  0.3895
  365MOL0     C50289   8.082   0.799  10.429  0.0139 -0.6175 -0.0163
  365MOL0     C50290   7.977   0.756  10.515 -1.1411  0.6825  0.2641
  365MOL0     O50291   7.841   0.774  10.479 -0.3061  0.4347  0.0093
  365MOL0     C50292   7.803   0.652  10.421 -0.1818  0.6462 -0.7175
  365MOL0     C50293   7.667   0.676  10.360  0.7980  0.1666 -1.3140
  365MOL0     C50294   7.555   0.732  10.447 -0.6241  0.0901 -0.7865
  365MOL0     C50295   7.424   0.712  10.368 -0.0062 -0.3587  0.1750
  365MOL0     C50296   7.371   0.848  10.350 -0.3065  0.1990  0.5690
  365MOL0     C50297   7.349   0.968  10.324  0.3848 -0.3991  0.3983
  365MOL0     C50298   8.010   0.672  10.621  0.1413 -0.0480  0.0402
  365MOL0     C50299   8.145   0.643  10.649 -0.0760  0.2593  0.8571
  365MOL0     C50300   8.169   0.535  10.750  0.7404  0.4255 -0.4516
  365MOL0     H50301   8.575   0.404  10.749 -0.6901  0.3324  1.1256
  365MOL0     H50302   8.809   0.388  10.854 -3.6313 -2.5172  1.5148
  365MOL0     H50303   9.062   0.500  10.789  2.1548 -0.3779  0.3986
  365MOL0     H50304   9.016   0.393  10.917  1.2272 -1.5422 -5.3990
  365MOL0     H50305   9.172   0.625  11.016  0.9312  0.5038 -0.0785
  365MOL0     H50306   9.156   0.469  11.085 -0.9895  0.6189  0.3780
  365MOL0     H50307   9.313   0.403  10.881 -0.0047 -0.5727 -0.1635
  365MOL0     H50308   9.308   0.576  10.838  0.3079  0.3077  0.6367
  365MOL0     H50309   9.408   0.628  11.060  0.7786  0.9074 -0.8391
  365MOL0     H50310   9.430   0.456  11.082  1.1611 -0.9859 -0.1078
  365MOL0     H50311   9.545   0.628  10.863 -1.9193 -1.1752 -2.0601
  365MOL0     H50312   9.566   0.462  10.843 -2.0659 -0.3957 -0.0217
  365MOL0     H50313   9.646   0.628  11.095  3.6651  2.7791 -0.6048
  365MOL0     H50314   9.677   0.454  11.075  0.9892 -1.3660 -2.3826
  365MOL0     H50315   9.812   0.512  10.865  0.1526  0.5487 -0.8980
  365MOL0     H50316   9.892   0.561  11.021 -0.4116  2.9241  0.4513
  365MOL0     H50317   9.755   0.781  10.986  1.6955  0.9323  1.1299
  365MOL0     H50318   9.924   0.757  10.935  0.4177 -1.7869  1.9146
  365MOL0     H50319   9.944   0.653  10.674  1.4445  1.3822  2.2249
  365MOL0     H50320   9.800   0.877  10.372  2.9750  0.5101  0.8736
  365MOL0     H50321   9.714   0.724  10.395 -2.5806  1.5617  4.3112
  365MOL0     H50322  10.032   0.731  10.426  0.5077  0.1397 -0.7292
  365MOL0     H50323   9.935   0.595  10.386  2.1061  0.6176 -0.9820
  365MOL0     H50324   9.861   0.677  10.186  0.7746 -0.0890 -0.8917
  365MOL0     H50325   9.947   0.831  10.195  1.6958 -0.1611  0.5112
  365MOL0     H50326  10.063   0.557  10.157 -5.5966 -0.6625  0.6667
  365MOL0     H50327  10.060   0.701  10.043  1.5802  0.3128  0.3966
  365MOL0     H50328  10.231   0.590   9.955 -0.4251  3.8929 -2.3186
  365MOL0     H50329  10.537   0.438   9.843  3.0905  2.2254 -3.2230
  365MOL0     H50330  10.483   0.574   9.752  1.1980 -2.8253 -1.5539
  365MOL0     H50331  10.362   0.468   9.817 -1.4760  1.0691  2.5904
  365MOL0     H50332  10.939   0.800   9.984  0.9681  0.5565 -1.9687
  365MOL0     H50333  11.183   0.789   9.900 -0.5276 -0.0435 -0.9471
  365MOL0     H50334  11.378   0.680   9.733  1.8987  0.1874 -0.0465
  365MOL0     H50335  11.411   0.740   9.890  1.6270  0.2166 -0.0631
  365MOL0     H50336  11.578   0.549   9.932  0.9643  0.7114 -0.0298
  365MOL0     H50337  11.555   0.489   9.770 -0.7747  1.1206 -0.0795
  365MOL0     H50338  11.668   0.755   9.837 -3.0345  0.3213 -1.6586
  365MOL0     H50339  11.654   0.692   9.684 -3.0269 -1.7830  0.2533
  365MOL0     H50340  11.811   0.487   9.767 -2.9071  0.5037  0.3660
  365MOL0     H50341  11.850   0.594   9.909 -2.0019 -0.4046  0.7053
  365MOL0     H50342  11.913   0.616   9.610 -0.2485 -0.4694  0.2206
  365MOL0     H50343  11.963   0.742   9.741 -3.1329  0.3413  0.4951
  365MOL0     H50344  12.090   0.485   9.674  0.8329  1.5892 -1.1414
  365MOL0     H50345  12.093   0.548   9.841 -0.3192  0.6545 -0.1367
  365MOL0     H50346  12.163   0.764   9.672 -3.2564 -1.5464  0.2769
  365MOL0     H50347  12.239   0.621   9.590  0.8901 -1.0384  0.3650
  365MOL0     H50348  12.413   0.695   9.741 -1.0674  3.4780 -1.1482
  365MOL0     H50349  12.322   0.571   9.832  1.6363  0.5862 -0.4167
  365MOL0     H50350  11.182   0.361   9.968  1.6645  1.4351 -0.2314
  365MOL0     H50351  10.941   0.365  10.013 -0.5832 -0.1981 -0.0369
  365MOL0     H50352  10.630   0.719  10.233 -1.0433  0.1689  0.5583
  365MOL0     H50353  10.413   0.757  10.321 -4.0555 -3.0476  0.7206
  365MOL0     H50354   8.830   0.810  10.882  0.6190 -0.2054 -0.6556
  365MOL0     H50355   8.598   0.835  10.787 -0.3213 -0.2900 -0.3894
  365MOL0     H50356   8.291   0.783  10.382  0.2294  0.7589  0.5910
  365MOL0     H50357   8.051   0.828  10.329  0.7812 -1.3643 -0.4906
  365MOL0     H50358   7.876   0.631  10.342  3.1888 -0.2737  2.3812
  365MOL0     H50359   7.818   0.568  10.490  2.9458  1.3326 -0.3939
  365MOL0     H50360   7.635   0.576  10.329  0.2855 -1.3859  3.3750
  365MOL0     H50361   7.674   0.739  10.271  0.1389 -1.0063 -2.2147
  365MOL0     H50362   7.544   0.678  10.542 -1.0430  0.6922 -0.4868
  365MOL0     H50363   7.589   0.833  10.470 -3.1977  1.1005 -1.1150
  365MOL0     H50364   7.342   0.656  10.414 -1.0828 -0.4797 -1.7589
  365MOL0     H50365   7.451   0.683  10.266  0.8006  1.0674 -0.0392
  365MOL0     H50366   7.327   1.065  10.284 -0.2291 -0.4808  0.5168
  365MOL0     H50367   7.925   0.626  10.671  1.2466 -1.0152  1.0778
  365MOL0     H50368   8.271   0.497  10.762  0.9240  1.1281  0.3281
  365MOL0     H50369   8.130   0.578  10.844  0.7346  2.5691 -1.3669
  365MOL0     H50370   8.112   0.446  10.725 -0.2005 -0.3111  3.6344
  366MOL0     O50371   6.831  10.232   8.465 -0.4653 -0.0505 -0.5558
  366MOL0     C50372   6.751  10.256   8.381 -0.3950 -1.1059  0.0932
  366MOL0     O50373   6.719  10.392   8.337  0.3683  0.4266  0.4163
  366MOL0     C50374   6.799  10.494   8.375 -0.6217 -0.3890 -0.5024
  366MOL0     C50375   6.936  10.497   8.339 -0.4308  0.2130  0.5234
  366MOL0     C50376   7.019  10.609   8.376  0.2844 -0.7696  0.3551
  366MOL0     C50377   6.962  10.710   8.459 -0.5726 -0.6353  0.0204
  366MOL0     O50378   7.048  10.808   8.499  0.1280  0.4236 -1.3736
  366MOL0     C50379   6.992  10.938   8.547 -0.6611 -0.8288 -0.2026
  366MOL0     C50380   7.093  11.048   8.564 -0.4815  0.2541  1.0330
  366MOL0     C50381   7.200  11.017   8.668 -0.9934 -0.6049  0.5065
  366MOL0     C50382   7.315  11.122   8.676  0.1737  0.6224  0.7096
  366MOL0     C50383   7.420  11.089   8.770  0.8714 -0.0849  0.0923
  366MOL0     C50384   7.531  11.201   8.770 -0.4960  0.8018 -0.4360
  366MOL0     C50385   7.647  11.194   8.873 -0.4603  1.0358  0.2022
  366MOL0     C50386   7.722  11.057   8.867  0.4110  0.7828  0.9452
  366MOL0     N50387   7.825  11.065   8.762 -0.0040  0.8158 -0.5546
  366MOL0     C50388   7.949  11.121   8.796  0.2805  0.1261 -0.8029
  366MOL0     C50389   8.014  11.119   8.682 -0.0547  0.0104  0.6662
  366MOL0     C50390   8.155  11.161   8.655 -0.2416 -0.4143  0.2519
  366MOL0     C50391   8.257  11.076   8.739 -0.1307  0.9003 -0.5418
  366MOL0     C50392   8.277  10.926   8.685 -0.2177 -0.6269  0.3866
  366MOL0     C50393   8.287  10.916   8.534  0.4237 -0.6118  1.1158
  366MOL0     O50394   8.390  10.995   8.472  0.1318  0.2005 -0.3103
  366MOL0     C50395   8.511  10.977   8.524  0.6448 -0.1089  0.0294
  366MOL0     C50396   8.565  10.855   8.574 -0.8604 -0.1705  0.3660
  366MOL0     C50397   8.701  10.851   8.613 -0.3723 -0.0265  0.2694
  366MOL0     C50398   8.767  10.713   8.643  0.2986  0.7031 -0.1770
  366MOL0     C50399   8.782  10.972   8.614 -0.4276  0.5813  0.0448
  366MOL0     C50400   8.918  10.983   8.677 -0.3586 -0.5068 -0.0896
  366MOL0     O50401   8.974  11.109   8.674  1.0604  0.2403 -0.0296
  366MOL0     C50402   9.099  11.116   8.715  0.0572  0.0789  0.5163
  366MOL0     C50403   9.136  11.141   8.845  0.3513  0.4514  0.1231
  366MOL0     C50404   9.273  11.138   8.886 -0.4659  0.0307 -0.1260
  366MOL0     C50405   9.372  11.113   8.788 -0.3788 -0.6589 -1.0240
  366MOL0     O50406   9.498  11.093   8.844 -0.5425 -0.2164  0.2137
  366MOL0     C50407   9.610  11.123   8.771 -0.4135 -0.3637  0.2651
  366MOL0     C50408   9.731  11.151   8.854  1.1455 -0.0102 -0.1971
  366MOL0     C50409   9.831  11.224   8.768  0.3313 -0.0179 -0.0198
  366MOL0     C50410   9.967  11.222   8.828  0.0330  0.2394  0.7350
  366MOL0     C50411  10.077  11.282   8.744  0.7590  0.5623  0.0678
  366MOL0     C50412  10.113  11.220   8.609  0.1035  0.0299 -0.5849
  366MOL0     C50413  10.013  11.266   8.499 -0.0211  0.7777 -0.5382
  366MOL0     C50414  10.079  11.373   8.421  0.1111 -0.3660 -0.7230
  366MOL0    Cl50415  10.125  11.506   8.549  0.3221  0.0104  0.5226
  366MOL0     C50416   9.344  11.113   8.658  0.0260 -0.2033 -0.3582
  366MOL0     C50417   9.201  11.116   8.621 -1.1968 -0.3489  0.3699
  366MOL0     O50418   8.985  10.878   8.703 -0.0948 -0.2440 -0.2319
  366MOL0     C50419   8.727  11.087   8.564 -0.0053 -0.5579 -0.3703
  366MOL0     C50420   8.595  11.089   8.521  0.1984  0.8180  0.1262
  366MOL0     N50421   7.935  11.057   8.577  0.6312 -0.2679 -0.4711
  366MOL0     N50422   7.819  11.030   8.632 -0.3871  0.4995  0.1959
  366MOL0     C50423   6.828  10.703   8.490 -0.2108 -0.8313 -0.2102
  366MOL0     C50424   6.746  10.590   8.452 -0.0152 -0.2839  0.6378
  366MOL0     C50425   6.682  10.145   8.316  0.3893 -0.1973 -0.3118
  366MOL0     C50426   6.593  10.169   8.207 -0.0605 -0.1938  0.2633
  366MOL0     C50427   6.535  10.074   8.129  0.9499  0.6574 -0.5258
  366MOL0     C50428   6.548   9.939   8.167  0.4071  0.9919  0.6636
  366MOL0     O50429   6.475   9.833   8.110 -0.3510 -0.2604 -0.6236
  366MOL0     C50430   6.370   9.858   8.016  0.0351 -1.0675 -0.4568
  366MOL0     C50431   6.244   9.895   8.105 -0.1705  0.3512  1.0315
  366MOL0     C50432   6.192   9.777   8.200 -0.2960  0.1212 -0.7818
  366MOL0     C50433   6.126   9.820   8.337 -0.2092 -0.9328  0.0342
  366MOL0     C50434   6.062   9.703   8.400 -0.9230  1.0287  0.2914
  366MOL0     C50435   6.012   9.607   8.454  0.4659  0.0758 -0.3281
  366MOL0     C50436   6.630   9.906   8.271 -1.2152 -0.6322 -0.1947
  366MOL0     C50437   6.705  10.008   8.346  1.1720 -0.1763 -0.8342
  366MOL0     C50438   6.797   9.948   8.452  0.3346 -0.3689 -0.4138
  366MOL0     H50439   6.971  10.409   8.286 -2.5947 -1.5127  1.7760
  366MOL0     H50440   7.124  10.622   8.350 -0.5011  2.0084 -1.8731
  366MOL0     H50441   6.936  10.926   8.641 -0.8554  0.4649 -0.1401
  366MOL0     H50442   6.930  10.986   8.471 -1.1263 -0.2837  0.5152
  366MOL0     H50443   7.150  11.064   8.472 -2.5989  1.5333 -0.1404
  366MOL0     H50444   7.041  11.143   8.584  1.9112  2.5181 -2.3458
  366MOL0     H50445   7.153  11.006   8.766 -3.5589  0.5558 -0.5105
  366MOL0     H50446   7.252  10.925   8.640 -1.8731 -0.8617 -0.3043
  366MOL0     H50447   7.365  11.117   8.578 -0.6666  0.5678  0.2768
  366MOL0     H50448   7.275  11.222   8.694  0.6901  0.7294  1.2910
  366MOL0     H50449   7.465  10.993   8.746  2.5954  0.4857  0.9345
  366MOL0     H50450   7.370  11.096   8.867 -1.6511 -2.2812 -0.9094
  366MOL0     H50451   7.582  11.200   8.673 -0.6147 -0.8568 -0.5121
  366MOL0     H50452   7.481  11.297   8.782 -0.5087  0.8714 -1.0356
  366MOL0     H50453   7.595  11.213   8.968  0.9665  2.1100  0.8044
  366MOL0     H50454   7.709  11.281   8.852  0.9704 -0.4818 -2.3919
  366MOL0     H50455   7.775  11.042   8.961 -3.0608  1.7507  3.2456
  366MOL0     H50456   7.652  10.974   8.853 -0.3954  1.3832  1.3790
  366MOL0     H50457   7.978  11.160   8.892 -0.9688  2.0670 -1.1515
  366MOL0     H50458   8.168  11.263   8.690 -0.8950 -0.6985  1.3902
  366MOL0     H50459   8.183  11.156   8.549  0.1030 -0.4171  0.3432
  366MOL0     H50460   8.351  11.131   8.733 -0.4612  1.3223 -3.7174
  366MOL0     H50461   8.228  11.071   8.844 -2.1895  0.3542 -1.0846
  366MOL0     H50462   8.364  10.885   8.738  0.7087  0.8077  0.0140
  366MOL0     H50463   8.191  10.862   8.706 -1.1110  0.1332 -0.8749
  366MOL0     H50464   8.304  10.814   8.497  0.5456 -0.0270 -0.5419
  366MOL0     H50465   8.192  10.943   8.487  1.3176  0.4635 -0.1279
  366MOL0     H50466   8.503  10.765   8.583 -1.5227  0.3491  1.1508
  366MOL0     H50467   8.847  10.693   8.570 -0.4250 -1.8049 -0.3785
  366MOL0     H50468   8.693  10.633   8.635  1.0400 -0.1966  1.4526
  366MOL0     H50469   8.812  10.707   8.743 -1.6396  0.7319  0.7397
  366MOL0     H50470   9.064  11.166   8.922 -0.2232 -1.0141  0.1011
  366MOL0     H50471   9.300  11.161   8.989 -4.2114  2.6219  0.4872
  366MOL0     H50472   9.614  11.035   8.707 -1.5977  0.2003 -0.6124
  366MOL0     H50473   9.588  11.215   8.716 -1.1550 -0.1367  0.9184
  366MOL0     H50474   9.707  11.212   8.941  0.1041  0.2316 -0.6400
  366MOL0     H50475   9.774  11.055   8.885  1.0188 -1.1253 -3.1232
  366MOL0     H50476   9.787  11.325   8.763 -0.9133 -0.4855  0.8565
  366MOL0     H50477   9.834  11.176   8.670 -0.3650  0.0044 -0.0610
  366MOL0     H50478   9.992  11.117   8.842 -0.2800 -0.1180 -1.1444
  366MOL0     H50479   9.960  11.269   8.926  0.3467  1.1166  0.3502
  366MOL0     H50480  10.050  11.387   8.731  1.7976  0.7760 -0.4827
  366MOL0     H50481  10.172  11.281   8.799  1.5807 -1.0248 -1.2931
  366MOL0     H50482  10.102  11.112   8.619 -1.8559  0.2352 -0.0484
  366MOL0     H50483  10.220  11.230   8.589 -0.1097  0.5744 -1.4953
  366MOL0     H50484   9.912  11.294   8.530 -1.0876 -2.1907 -1.0378
  366MOL0     H50485   9.990  11.188   8.426 -2.4087  2.9243 -2.2831
  366MOL0     H50486  10.029  11.419   8.335 -1.0055  2.3564  1.2257
  366MOL0     H50487  10.167  11.331   8.372  1.6729  1.8870  0.0059
  366MOL0     H50488   9.423  11.107   8.583 -1.2068  2.7277 -2.0371
  366MOL0     H50489   9.172  11.111   8.517 -3.3983 -4.6696  0.9633
  366MOL0     H50490   8.761  11.190   8.554 -3.4129  0.6682 -0.7853
  366MOL0     H50491   8.547  11.170   8.467  0.8469  1.1171 -0.0101
  366MOL0     H50492   6.789  10.785   8.550  4.1003 -0.7242  2.9088
  366MOL0     H50493   6.640  10.589   8.478  0.0285 -0.7917  0.8088
  366MOL0     H50494   6.571  10.268   8.169  0.2975 -0.5772 -0.9838
  366MOL0     H50495   6.477  10.102   8.042 -3.5970 -0.0050  1.9795
  366MOL0     H50496   6.394   9.944   7.953  3.5551 -1.3554  0.2637
  366MOL0     H50497   6.354   9.767   7.958 -1.6402 -0.9215 -0.2609
  366MOL0     H50498   6.164   9.917   8.033 -0.8035 -0.7359  1.3719
  366MOL0     H50499   6.260   9.984   8.168 -1.5667  1.0646  0.4420
  366MOL0     H50500   6.106   9.735   8.146 -0.0059 -0.8632 -0.4966
  366MOL0     H50501   6.268   9.699   8.208 -2.5519 -2.1042  0.4067
  366MOL0     H50502   6.052   9.896   8.313  1.6450  0.8932 -0.2003
  366MOL0     H50503   6.207   9.853   8.403 -0.0934 -3.1500  1.0858
  366MOL0     H50504   5.960   9.518   8.483 -0.2083 -0.7305 -3.5455
  366MOL0     H50505   6.642   9.800   8.290 -1.5011 -0.6941 -0.3734
  366MOL0     H50506   6.792   9.840   8.470 -1.5466 -0.5427 -1.7264
  366MOL0     H50507   6.903   9.973   8.440  0.5181 -0.2641  1.1820
  366MOL0     H50508   6.780   9.999   8.547 -1.1927 -3.1500  0.9248
  367MOL0     O50509   5.444   1.989  10.978 -0.0801 -0.1757 -0.0429
  367MOL0     C50510   5.494   1.878  10.937  0.0574 -0.6787 -0.3765
  367MOL0     O50511   5.419   1.772  10.893 -0.2495  0.0570  0.4341
  367MOL0     C50512   5.284   1.790  10.869 -0.2607 -0.9173 -0.3435
  367MOL0     C50513   5.243   1.867  10.763 -0.5592  0.2448  0.3454
  367MOL0     C50514   5.115   1.874  10.728  0.1461 -1.0264 -0.5882
  367MOL0     C50515   5.013   1.820  10.807  0.5243  0.5793  0.3265
  367MOL0     O50516   4.876   1.849  10.771 -0.5905 -0.2040 -0.7491
  367MOL0     C50517   4.786   1.850  10.880  0.7218 -0.1288  0.1502
  367MOL0     C50518   4.662   1.936  10.851  0.3577  0.5057 -0.5926
  367MOL0     C50519   4.683   2.085  10.885 -0.6820 -0.1349  0.5588
  367MOL0     C50520   4.553   2.165  10.893  0.2825 -0.0501  0.1264
  367MOL0     C50521   4.560   2.316  10.902 -0.3273  0.2721 -0.5830
  367MOL0     C50522   4.643   2.373  10.790 -0.1048 -0.4208 -0.4042
  367MOL0     C50523   4.659   2.523  10.809  0.3377 -0.0268 -0.5373
  367MOL0     C50524   4.748   2.574  10.689 -0.0964  0.2043 -0.3592
  367MOL0     N50525   4.773   2.711  10.699 -0.4847  0.3523  0.1630
  367MOL0     C50526   4.880   2.771  10.762  0.8504  0.6215  0.6278
  367MOL0     C50527   4.889   2.888  10.708 -0.1201  0.2817 -0.5167
  367MOL0     C50528   4.991   2.999  10.716 -0.2755  0.6115  0.2589
  367MOL0     C50529   4.925   3.113  10.796  0.4000  1.1710  0.6624
  367MOL0     C50530   5.022   3.201  10.875 -0.6329 -0.4001 -1.3349
  367MOL0     C50531   5.132   3.268  10.800 -0.0650  0.1799 -0.6702
  367MOL0     O50532   5.222   3.173  10.740  0.7906 -0.1632 -0.0238
  367MOL0     C50533   5.310   3.211  10.641 -0.8087  0.3877 -0.5295
  367MOL0     C50534   5.312   3.340  10.577 -0.1277  0.6497 -0.1623
  367MOL0     C50535   5.407   3.368  10.479 -0.2523  0.2183 -1.1322
  367MOL0     C50536   5.390   3.504  10.419  0.3160  0.1385 -0.5283
  367MOL0     C50537   5.508   3.278  10.445 -0.0273 -0.1517  0.0942
  367MOL0     C50538   5.624   3.303  10.343 -0.0598 -0.0773 -0.8386
  367MOL0     O50539   5.728   3.208  10.346 -0.7025  0.0624  0.3525
  367MOL0     C50540   5.841   3.244  10.282  0.5151  0.2704 -0.4943
  367MOL0     C50541   5.928   3.344  10.323 -0.1579 -0.0148 -0.5359
  367MOL0     C50542   6.050   3.354  10.262  0.4716 -0.2383 -0.0323
  367MOL0     C50543   6.095   3.278  10.151 -0.3546  0.1141  0.2096
  367MOL0     O50544   6.223   3.292  10.106 -0.2848 -0.1666 -0.0255
  367MOL0     C50545   6.266   3.191  10.012 -0.4542  0.4856  0.1066
  367MOL0     C50546   6.416   3.184  10.010 -0.3023 -0.2926  1.2595
  367MOL0     C50547   6.452   3.137  10.146  0.8014  0.4647 -0.1987
  367MOL0     C50548   6.574   3.040  10.145 -0.0531 -0.4302  0.7898
  367MOL0     C50549   6.635   3.010  10.286  0.5132 -0.0043 -0.5973
  367MOL0     C50550   6.538   2.928  10.370 -0.3837 -0.9554  0.3586
  367MOL0     C50551   6.588   2.914  10.511 -0.4415  0.2970  0.2956
  367MOL0     C50552   6.489   2.854  10.606  0.8898  0.7269 -0.5886
  367MOL0    Cl50553   6.350   2.968  10.639  0.4471 -0.0282 -0.0150
  367MOL0     C50554   5.995   3.194  10.095 -0.1846 -0.4091  0.0011
  367MOL0     C50555   5.881   3.169  10.170 -0.5147  0.0113  0.7476
  367MOL0     O50556   5.634   3.409  10.281 -0.3824 -0.0623 -0.0843
  367MOL0     C50557   5.505   3.150  10.506 -0.2119 -1.0677 -0.3614
  367MOL0     C50558   5.411   3.126  10.605 -0.2138  0.7950  0.2338
  367MOL0     N50559   4.784   2.904  10.615  0.1095 -0.5330 -0.1744
  367MOL0     N50560   4.716   2.794  10.616  0.3051 -0.0127  0.1902
  367MOL0     C50561   5.050   1.743  10.916  0.1054  0.6051 -0.2114
  367MOL0     C50562   5.191   1.725  10.946 -0.1881  0.6863  0.0033
  367MOL0     C50563   5.638   1.867  10.940 -0.5368 -0.0594 -0.3120
  367MOL0     C50564   5.699   1.878  11.062  0.8189  0.6371  0.4856
  367MOL0     C50565   5.833   1.867  11.076 -0.9200 -0.2858  0.6925
  367MOL0     C50566   5.924   1.831  10.975  0.2073  0.3789  0.1894
  367MOL0     O50567   6.062   1.819  10.988 -0.1505  0.5401  0.4567
  367MOL0     C50568   6.145   1.901  11.071  0.4808 -0.5023  0.0868
  367MOL0     C50569   6.144   2.048  11.031  0.0554 -0.2321  0.4581
  367MOL0     C50570   6.278   2.111  11.082  0.1950 -0.2365  0.3582
  367MOL0     C50571   6.294   2.251  11.025  0.9551  0.1192  0.8812
  367MOL0     C50572   6.184   2.342  11.069 -0.1387  0.5607  0.7396
  367MOL0     C50573   6.108   2.429  11.100 -0.0733  0.3617 -0.3849
  367MOL0     C50574   5.857   1.817  10.854  0.6200  0.0419  1.0246
  367MOL0     C50575   5.724   1.836  10.827  0.0637  0.0248  0.5947
  367MOL0     C50576   5.664   1.814  10.688  0.1241 -0.8731  0.5178
  367MOL0     H50577   5.317   1.908  10.695 -0.4820 -0.2349  0.1333
  367MOL0     H50578   5.084   1.942  10.649 -1.5088  0.2750  1.0831
  367MOL0     H50579   4.832   1.894  10.969 -1.4371 -1.8176  2.2184
  367MOL0     H50580   4.755   1.748  10.906  3.1789 -0.2058  3.4474
  367MOL0     H50581   4.645   1.935  10.743  1.4443  2.4006 -0.8224
  367MOL0     H50582   4.581   1.890  10.908  2.6046  0.1475  2.5470
  367MOL0     H50583   4.734   2.100  10.980 -1.3083  0.8352  0.7498
  367MOL0     H50584   4.745   2.130  10.807 -2.0515  2.2798  0.7766
  367MOL0     H50585   4.491   2.136  10.807 -2.9111  0.3854  2.1126
  367MOL0     H50586   4.490   2.135  10.977 -1.7210 -1.4815 -1.7626
  367MOL0     H50587   4.611   2.335  10.997 -1.5328  1.2569 -0.1092
  367MOL0     H50588   4.455   2.344  10.908 -1.1521 -2.5178 -0.4758
  367MOL0     H50589   4.742   2.328  10.787 -0.7754 -1.9468 -0.7541
  367MOL0     H50590   4.590   2.361  10.695 -0.5704 -0.6819 -0.1154
  367MOL0     H50591   4.703   2.535  10.909 -1.8918 -0.6635  0.5951
  367MOL0     H50592   4.567   2.581  10.794  0.2524  0.0643  0.2886
  367MOL0     H50593   4.839   2.516  10.673 -0.4327 -0.5769  0.4713
  367MOL0     H50594   4.701   2.558  10.591  1.2563 -1.3675 -0.7801
  367MOL0     H50595   4.958   2.728  10.824  1.6729 -1.1563 -1.5191
  367MOL0     H50596   5.017   3.034  10.615 -3.8094  1.2950 -0.5439
  367MOL0     H50597   5.074   2.953  10.770 -1.8176 -1.7688  0.7518
  367MOL0     H50598   4.845   3.171  10.749 -2.1252 -0.4372  2.6819
  367MOL0     H50599   4.863   3.058  10.868  1.5669 -1.5395 -0.2650
  367MOL0     H50600   4.957   3.268  10.931 -1.4600 -1.6669 -0.7324
  367MOL0     H50601   5.062   3.135  10.952 -2.0133 -0.9396 -1.0449
  367MOL0     H50602   5.075   3.324  10.726 -2.1373 -0.6041  0.2380
  367MOL0     H50603   5.192   3.340  10.856 -0.5441  0.6168 -0.7102
  367MOL0     H50604   5.231   3.405  10.607 -0.0098 -0.4290  2.9269
  367MOL0     H50605   5.397   3.499  10.310 -0.5347 -3.3922 -0.5341
  367MOL0     H50606   5.465   3.578  10.449  1.0626 -0.7357 -0.1688
  367MOL0     H50607   5.291   3.545  10.441 -0.4814 -1.3105 -1.3040
  367MOL0     H50608   5.914   3.415  10.404  0.7378 -0.0837 -0.3111
  367MOL0     H50609   6.121   3.428  10.297 -0.5476  0.8101 -0.1621
  367MOL0     H50610   6.217   3.093  10.016 -1.6514  0.9395 -1.9340
  367MOL0     H50611   6.238   3.221   9.911  2.2611  0.8795 -0.5929
  367MOL0     H50612   6.452   3.109   9.939 -1.4467 -0.8359  1.2334
  367MOL0     H50613   6.461   3.282   9.990  1.0495 -1.3603 -1.5131
  367MOL0     H50614   6.367   3.085  10.191 -0.1640 -0.3165 -2.7095
  367MOL0     H50615   6.481   3.229  10.198  0.8239  0.8747 -0.9258
  367MOL0     H50616   6.650   3.080  10.078  0.2602 -0.8063  0.9161
  367MOL0     H50617   6.551   2.945  10.097  2.3929 -0.2876 -0.7992
  367MOL0     H50618   6.722   2.943  10.281  1.7753  1.5464 -0.2277
  367MOL0     H50619   6.670   3.100  10.337 -0.8980  0.8198 -1.0339
  367MOL0     H50620   6.525   2.828  10.327 -1.8941 -0.5543 -0.1761
  367MOL0     H50621   6.439   2.974  10.368  1.0168  2.3156  0.6808
  367MOL0     H50622   6.624   3.006  10.557  0.7345 -0.6543  1.3658
  367MOL0     H50623   6.679   2.854  10.499  0.4962  1.6921  0.1867
  367MOL0     H50624   6.528   2.822  10.703 -1.6766  1.0198  0.6221
  367MOL0     H50625   6.455   2.769  10.547  0.3295  1.2742 -1.0725
  367MOL0     H50626   6.006   3.137  10.003 -1.0390  0.4263 -0.6333
  367MOL0     H50627   5.815   3.089  10.140  0.5472 -1.4639  2.1986
  367MOL0     H50628   5.583   3.074  10.496 -0.0290 -0.9387  0.0578
  367MOL0     H50629   5.408   3.028  10.652 -0.6008  1.6253  2.0356
  367MOL0     H50630   4.975   1.709  10.987  0.5928  0.3548  0.1954
  367MOL0     H50631   5.214   1.666  11.034  2.3756  0.0981 -0.9522
  367MOL0     H50632   5.629   1.897  11.143 -2.1982  0.1396 -1.7928
  367MOL0     H50633   5.867   1.887  11.177 -0.7087  3.1183  0.0419
  367MOL0     H50634   6.104   1.906  11.173 -1.6961 -0.2528 -0.7361
  367MOL0     H50635   6.248   1.866  11.078  0.9644  0.9546  0.8124
  367MOL0     H50636   6.055   2.104  11.062  0.4611  0.1881  0.8712
  367MOL0     H50637   6.147   2.044  10.922 -2.0919 -1.4781  0.3881
  367MOL0     H50638   6.289   2.114  11.190  0.8316 -0.0330  0.2910
  367MOL0     H50639   6.366   2.070  11.032 -0.4462 -0.2404 -0.8061
  367MOL0     H50640   6.291   2.248  10.915  0.9488  0.6311  0.8668
  367MOL0     H50641   6.390   2.292  11.058  1.6503 -1.0483  0.3665
  367MOL0     H50642   6.052   2.513  11.137  1.0243  0.4495  1.1814
  367MOL0     H50643   5.911   1.810  10.760 -3.0947 -0.6252 -1.2574
  367MOL0     H50644   5.734   1.825  10.604 -0.6531  2.5661  0.1592
  367MOL0     H50645   5.625   1.713  10.677  1.0585 -1.0445 -2.0136
  367MOL0     H50646   5.586   1.889  10.671  0.6495  0.0265  1.9043
  368MOL0     O50647   1.806   2.981  11.375  0.0431 -0.0429 -0.7716
  368MOL0     C50648   1.725   2.893  11.331  0.2612 -0.2534  0.3495
  368MOL0     O50649   1.758   2.783  11.255 -0.2029 -0.0039  0.2967
  368MOL0     C50650   1.881   2.741  11.221 -0.7911 -0.7768 -0.4341
  368MOL0     C50651   1.994   2.821  11.189  0.7746 -0.3270  0.2815
  368MOL0     C50652   2.122   2.767  11.168  0.3225 -0.8395 -0.7586
  368MOL0     C50653   2.144   2.632  11.172 -0.0052  0.2374  0.1590
  368MOL0     O50654   2.267   2.567  11.167  0.5992 -0.2191  0.5890
  368MOL0     C50655   2.389   2.642  11.143 -0.2620 -0.2125  0.0048
  368MOL0     C50656   2.508   2.543  11.148  0.8241  0.1118 -0.3406
  368MOL0     C50657   2.648   2.598  11.139  0.9036 -0.1542  0.4842
  368MOL0     C50658   2.672   2.687  11.016 -0.3324  0.3736  0.0788
  368MOL0     C50659   2.648   2.613  10.878  0.8882 -0.1160 -0.2894
  368MOL0     C50660   2.665   2.711  10.762 -0.0593  0.3910 -0.4216
  368MOL0     C50661   2.601   2.663  10.621  0.4303 -0.1487  0.4228
  368MOL0     C50662   2.604   2.774  10.504 -0.4997  0.0801  0.1517
  368MOL0     N50663   2.539   2.908  10.541 -0.5103 -0.2794  0.2072
  368MOL0     C50664   2.408   2.922  10.571 -0.3968 -0.2589 -0.3400
  368MOL0     C50665   2.394   3.057  10.591  0.3543  0.9379  1.0402
  368MOL0     C50666   2.258   3.119  10.609  0.5714 -0.5636  0.6829
  368MOL0     C50667   2.180   3.148  10.482 -0.0713 -0.5963  0.4102
  368MOL0     C50668   2.257   3.245  10.377 -0.1546 -0.2504 -0.1748
  368MOL0     C50669   2.188   3.296  10.251  0.4596 -0.1646 -0.1834
  368MOL0     O50670   2.154   3.199  10.150 -0.1466  0.0022  0.7365
  368MOL0     C50671   2.256   3.171  10.067  0.3356 -0.1323  0.3231
  368MOL0     C50672   2.220   3.078   9.967  0.7722 -0.0360 -0.7986
  368MOL0     C50673   2.306   3.037   9.871 -0.3585 -0.4730  0.7056
  368MOL0     C50674   2.264   2.940   9.772 -0.6862 -0.2593 -0.4160
  368MOL0     C50675   2.439   3.073   9.886 -0.1279  0.0401 -0.1272
  368MOL0     C50676   2.548   3.032   9.797  0.4168 -0.0303 -1.2527
  368MOL0     O50677   2.656   3.123   9.793  0.3984  0.3042  0.0796
  368MOL0     C50678   2.745   3.118   9.687 -0.0650 -0.2338 -0.6087
  368MOL0     C50679   2.779   3.232   9.613 -0.1533 -0.2929  0.5709
  368MOL0     C50680   2.875   3.222   9.509  0.3124 -0.0876  0.7002
  368MOL0     C50681   2.953   3.104   9.483  0.4580  0.1791 -0.6322
  368MOL0     O50682   3.052   3.081   9.390 -0.5187  0.9742  0.1619
  368MOL0     C50683   3.086   3.188   9.299  0.6517  0.2501 -0.5106
  368MOL0     C50684   3.220   3.160   9.241 -0.4741 -0.3389 -0.2468
  368MOL0     C50685   3.331   3.170   9.345 -0.1111  0.6931 -0.1718
  368MOL0     C50686   3.476   3.155   9.294  0.2052  1.5202  0.1234
  368MOL0     C50687   3.573   3.216   9.397 -0.2018 -0.5160  0.6745
  368MOL0     C50688   3.719   3.198   9.375 -0.1485  0.2805  0.0167
  368MOL0     C50689   3.815   3.251   9.485  0.0079  0.3374  0.8788
  368MOL0     C50690   3.961   3.227   9.435 -0.6428  0.3790  0.3987
  368MOL0    Cl50691   4.067   3.267   9.564 -0.3914 -0.2099 -0.6767
  368MOL0     C50692   2.936   2.999   9.575 -0.1643  0.7352  0.2462
  368MOL0     C50693   2.829   3.006   9.664 -0.1102 -0.4872 -0.3459
  368MOL0     O50694   2.545   2.927   9.742 -0.8069 -0.0329  0.5073
  368MOL0     C50695   2.477   3.161   9.994  0.7015  1.5903 -0.0947
  368MOL0     C50696   2.383   3.218  10.080 -0.5645  0.3178  0.1367
  368MOL0     N50697   2.517   3.119  10.568  0.6007 -0.6097  0.1840
  368MOL0     N50698   2.603   3.027  10.534 -0.3043 -0.4783 -0.5147
  368MOL0     C50699   2.037   2.548  11.211 -0.5242  1.3709  0.8157
  368MOL0     C50700   1.907   2.605  11.227 -0.1464 -0.8168 -0.3866
  368MOL0     C50701   1.581   2.921  11.342  0.1348 -0.0287 -0.2021
  368MOL0     C50702   1.538   3.052  11.329 -0.7375 -0.4972  1.0675
  368MOL0     C50703   1.400   3.090  11.359  0.0360 -0.0927 -0.1434
  368MOL0     C50704   1.307   2.991  11.372  0.6359  0.7082 -0.3485
  368MOL0     O50705   1.174   3.035  11.398 -0.1178  0.0664  0.4201
  368MOL0     C50706   1.073   2.943  11.441  0.1358  0.0383 -0.0953
  368MOL0     C50707   0.934   2.997  11.391  0.0426  0.6367  0.1612
  368MOL0     C50708   0.815   2.898  11.396  0.1731  0.3059 -0.0136
  368MOL0     C50709   0.691   2.935  11.315 -0.3165 -1.2404 -0.5257
  368MOL0     C50710   0.581   2.856  11.362  0.8507 -0.3129 -0.3049
  368MOL0     C50711   0.479   2.790  11.400 -0.5631 -0.2102  0.6364
  368MOL0     C50712   1.344   2.854  11.380 -0.2562 -0.3124 -0.2129
  368MOL0     C50713   1.485   2.822  11.365 -0.5253 -0.6723  0.0373
  368MOL0     C50714   1.521   2.679  11.387 -0.6173 -0.7468  0.1534
  368MOL0     H50715   1.984   2.928  11.180  2.2429 -0.2787 -1.4066
  368MOL0     H50716   2.201   2.839  11.146 -0.8824  0.8905  0.3005
  368MOL0     H50717   2.402   2.722  11.216  2.7164 -0.4911 -0.1160
  368MOL0     H50718   2.387   2.673  11.038  3.1468  0.1492 -0.0458
  368MOL0     H50719   2.505   2.489  11.243  1.8233  0.9670  0.2083
  368MOL0     H50720   2.481   2.473  11.069 -1.1151  1.0890 -0.6136
  368MOL0     H50721   2.673   2.651  11.231 -1.3227  2.2814 -0.1568
  368MOL0     H50722   2.718   2.516  11.121  0.8011 -0.4540  1.4080
  368MOL0     H50723   2.628   2.786  11.021 -0.0287  0.5294 -0.2572
  368MOL0     H50724   2.779   2.710  11.008 -0.7487  1.6530 -3.4408
  368MOL0     H50725   2.551   2.564  10.875  0.2349  0.5472  3.9260
  368MOL0     H50726   2.718   2.530  10.865 -1.9620 -2.6350 -0.5148
  368MOL0     H50727   2.611   2.802  10.792 -1.9535 -1.3909  2.0450
  368MOL0     H50728   2.765   2.752  10.746 -0.6865  1.3176 -2.2875
  368MOL0     H50729   2.497   2.633  10.637 -0.2678  1.9502  0.2478
  368MOL0     H50730   2.661   2.585  10.574  0.0978  0.5395 -1.2102
  368MOL0     H50731   2.707   2.802  10.482 -0.8020  0.0658 -1.3826
  368MOL0     H50732   2.565   2.728  10.413  0.8858 -2.5045  0.7594
  368MOL0     H50733   2.331   2.845  10.566  2.1277 -3.1011  0.8822
  368MOL0     H50734   2.266   3.210  10.669  2.1340  0.9067 -1.6153
  368MOL0     H50735   2.189   3.050  10.660 -0.0248 -2.0682 -1.9926
  368MOL0     H50736   2.164   3.049  10.440  3.7475 -0.5279 -1.6981
  368MOL0     H50737   2.090   3.202  10.512  0.6512  2.6490 -2.5880
  368MOL0     H50738   2.305   3.333  10.421  1.1043 -0.3307 -1.3062
  368MOL0     H50739   2.342   3.184  10.346 -0.7816 -1.1648 -0.1343
  368MOL0     H50740   2.088   3.328  10.283 -0.3920 -1.6047 -1.3001
  368MOL0     H50741   2.240   3.382  10.206 -0.2112  0.8903  0.9942
  368MOL0     H50742   2.120   3.036   9.970  2.7487 -5.6046  1.5103
  368MOL0     H50743   2.155   2.934   9.763 -0.5280 -1.2569 -2.0660
  368MOL0     H50744   2.300   2.840   9.798 -0.3774 -0.1678 -0.4829
  368MOL0     H50745   2.302   2.947   9.670 -0.4338 -1.3658 -0.4145
  368MOL0     H50746   2.732   3.328   9.632 -1.8288 -0.6202 -1.5157
  368MOL0     H50747   2.903   3.307   9.446  0.1455 -0.6983 -0.2208
  368MOL0     H50748   3.013   3.181   9.218 -1.4254 -0.4906  1.3229
  368MOL0     H50749   3.087   3.288   9.343  1.1375 -0.6194  1.5854
  368MOL0     H50750   3.221   3.060   9.198 -1.6639 -0.4865  0.0376
  368MOL0     H50751   3.232   3.228   9.155 -0.3031  0.7490  0.6115
  368MOL0     H50752   3.307   3.101   9.425  0.7508  0.3781 -0.1730
  368MOL0     H50753   3.318   3.262   9.403 -1.1384 -0.8446  2.1368
  368MOL0     H50754   3.494   3.192   9.193 -2.9748 -0.0045 -1.1279
  368MOL0     H50755   3.498   3.048   9.285  0.5143  1.6983 -1.6165
  368MOL0     H50756   3.550   3.323   9.390  1.1997 -0.0775  2.3004
  368MOL0     H50757   3.546   3.181   9.497 -0.7445 -1.9071  0.0641
  368MOL0     H50758   3.742   3.250   9.281 -0.0394  1.0670  0.4730
  368MOL0     H50759   3.736   3.091   9.363  0.0398  0.3457 -0.3132
  368MOL0     H50760   3.799   3.200   9.581 -2.1271 -2.4460 -0.7924
  368MOL0     H50761   3.799   3.358   9.503 -0.4673  0.5375 -0.5888
  368MOL0     H50762   3.981   3.291   9.349  0.7624 -0.1729  0.2877
  368MOL0     H50763   3.984   3.127   9.396 -1.7752 -0.1146  0.9553
  368MOL0     H50764   2.992   2.907   9.570 -4.1957 -1.9304 -1.2516
  368MOL0     H50765   2.824   2.921   9.731  1.8731 -1.8804 -1.8600
  368MOL0     H50766   2.581   3.192  10.002  1.5745  0.3033 -4.2247
  368MOL0     H50767   2.411   3.282  10.163  0.4178  1.1128 -0.7690
  368MOL0     H50768   2.057   2.442  11.219  2.2843  1.8813  1.6798
  368MOL0     H50769   1.820   2.551  11.263 -0.5120 -1.7245 -2.4609
  368MOL0     H50770   1.602   3.137  11.306 -0.2332 -0.8169  1.2627
  368MOL0     H50771   1.362   3.192  11.353 -0.7172 -0.2096  1.8086
  368MOL0     H50772   1.088   2.851  11.384  0.4899 -0.4921  0.8393
  368MOL0     H50773   1.073   2.919  11.548  3.5452 -0.7734 -0.1856
  368MOL0     H50774   0.951   3.014  11.284  1.6645 -0.0878  0.2711
  368MOL0     H50775   0.903   3.086  11.447 -0.1648  0.2504  0.6615
  368MOL0     H50776   0.841   2.796  11.365 -0.0726  0.2623 -0.0810
  368MOL0     H50777   0.780   2.892  11.500 -1.1565  4.1463 -0.0932
  368MOL0     H50778   0.704   2.928  11.207 -0.2428 -0.3947 -0.5727
  368MOL0     H50779   0.667   3.040  11.333 -2.0399 -1.5550 -0.8620
  368MOL0     H50780   0.409   2.715  11.430 -0.4853 -0.5357  0.0265
  368MOL0     H50781   1.279   2.771  11.403  2.6870 -2.4272  1.2043
  368MOL0     H50782   1.613   2.663  11.444 -0.0330 -1.1063 -0.8554
  368MOL0     H50783   1.450   2.627  11.452  0.9118 -0.8459  1.8283
  368MOL0     H50784   1.531   2.626  11.291  0.0506 -3.0031  1.3893
  369MOL0     O50785   6.836   6.458   7.753 -0.5225 -0.9089 -0.4332
  369MOL0     C50786   6.789   6.573   7.775  0.0701 -0.1497 -0.2577
  369MOL0     O50787   6.864   6.687   7.782  0.1924  0.7270 -0.7314
  369MOL0     C50788   6.999   6.674   7.762 -0.5993 -0.0905 -0.3696
  369MOL0     C50789   7.083   6.606   7.851 -0.4051 -0.1533 -0.0673
  369MOL0     C50790   7.215   6.590   7.806 -1.1213 -0.8282 -0.2399
  369MOL0     C50791   7.258   6.654   7.690 -0.7095  0.5691  1.2347
  369MOL0     O50792   7.385   6.607   7.651 -0.2055  0.0528 -0.1392
  369MOL0     C50793   7.465   6.698   7.571  0.7148  0.2415 -0.1410
  369MOL0     C50794   7.604   6.653   7.564 -0.2601  0.5908  0.0969
  369MOL0     C50795   7.629   6.516   7.499 -0.5711 -0.2372 -0.4179
  369MOL0     C50796   7.571   6.490   7.361 -0.4083 -0.4374 -0.2977
  369MOL0     C50797   7.670   6.447   7.254 -0.4469  0.8890 -0.3127
  369MOL0     C50798   7.619   6.457   7.109 -0.1054 -0.1353 -0.3264
  369MOL0     C50799   7.734   6.446   7.010  0.2704  1.0861 -0.4633
  369MOL0     C50800   7.690   6.452   6.858 -0.0124  0.3363 -0.5948
  369MOL0     N50801   7.801   6.498   6.766 -0.6961 -0.7045  0.1363
  369MOL0     C50802   7.935   6.451   6.763 -0.1278  0.4855 -0.1887
  369MOL0     C50803   7.999   6.516   6.667 -0.4679 -0.8150  0.2282
  369MOL0     C50804   8.143   6.488   6.615 -0.1082  0.3572  0.8337
  369MOL0     C50805   8.251   6.580   6.674  0.4463 -0.2996 -0.7829
  369MOL0     C50806   8.254   6.725   6.619  0.2057  0.4563 -0.1629
  369MOL0     C50807   8.387   6.784   6.677  1.0245 -0.3715 -0.2854
  369MOL0     O50808   8.362   6.829   6.810  0.0440  0.5658 -0.6941
  369MOL0     C50809   8.476   6.874   6.879  0.5369  0.2622  0.3090
  369MOL0     C50810   8.611   6.887   6.827 -0.6386 -0.2395 -0.6448
  369MOL0     C50811   8.718   6.944   6.903 -0.7078 -1.4004 -0.2139
  369MOL0     C50812   8.856   6.955   6.843  0.5064 -0.3954  1.0548
  369MOL0     C50813   8.688   6.978   7.043  0.1394  0.0471  0.3748
  369MOL0     C50814   8.794   7.032   7.128  0.4486 -0.1288  0.0364
  369MOL0     O50815   8.754   7.132   7.218 -0.2983  0.0164  0.8970
  369MOL0     C50816   8.854   7.220   7.256 -0.2855  1.2702 -0.0859
  369MOL0     C50817   8.928   7.289   7.157 -0.8664  0.0634 -0.3742
  369MOL0     C50818   9.039   7.368   7.181 -0.2978  0.7606 -0.2975
  369MOL0     C50819   9.082   7.384   7.320  0.4846 -0.3093  0.4052
  369MOL0     O50820   9.184   7.464   7.356  0.3958  0.2818 -0.1004
  369MOL0     C50821   9.247   7.542   7.247  0.0773  0.2249  0.4541
  369MOL0     C50822   9.377   7.610   7.288 -0.4480 -0.4321 -0.3230
  369MOL0     C50823   9.486   7.513   7.262  0.3675 -0.1234  0.0633
  369MOL0     C50824   9.614   7.560   7.330 -0.3863 -0.6164 -0.8771
  369MOL0     C50825   9.672   7.686   7.269  0.1362  0.9247 -0.0667
  369MOL0     C50826   9.798   7.728   7.339  0.2002  0.6600  0.9686
  369MOL0     C50827   9.798   7.741   7.486  0.0065 -0.1588 -0.4127
  369MOL0     C50828   9.704   7.841   7.545 -0.4752  0.2166 -0.9162
  369MOL0    Cl50829   9.528   7.808   7.549 -0.3087  0.0382 -0.4706
  369MOL0     C50830   9.009   7.314   7.421  0.1439  0.3144 -0.7624
  369MOL0     C50831   8.895   7.231   7.385  0.3426 -1.0617 -0.0777
  369MOL0     O50832   8.908   6.991   7.111 -0.6393  0.3435  0.0196
  369MOL0     C50833   8.556   6.966   7.094  0.2487  0.1926  0.4094
  369MOL0     C50834   8.454   6.910   7.013  0.8217 -0.1344  0.4025
  369MOL0     N50835   7.907   6.612   6.621 -1.0850 -0.2555 -0.0551
  369MOL0     N50836   7.794   6.604   6.675  0.2854  0.9449  0.0354
  369MOL0     C50837   7.176   6.741   7.623  0.6495  0.6025  1.5523
  369MOL0     C50838   7.050   6.751   7.657  0.0235  0.1705 -0.6182
  369MOL0     C50839   6.648   6.580   7.808 -0.9467 -0.3636 -0.1721
  369MOL0     C50840   6.610   6.691   7.888 -0.3426 -0.1973 -1.3930
  369MOL0     C50841   6.485   6.696   7.947 -0.1950  0.5378 -0.5289
  369MOL0     C50842   6.384   6.598   7.918  0.7107 -0.4048 -0.4858
  369MOL0     O50843   6.257   6.596   7.958  0.0235 -0.3151  0.3119
  369MOL0     C50844   6.230   6.632   8.095 -1.1260 -1.1508 -0.0396
  369MOL0     C50845   6.088   6.579   8.133  0.0084 -0.1663  0.0360
  369MOL0     C50846   6.023   6.668   8.239 -0.5388 -0.3309 -0.2388
  369MOL0     C50847   5.871   6.633   8.269 -0.0833 -0.0443 -0.0238
  369MOL0     C50848   5.789   6.674   8.153  0.2665  0.8137  0.5156
  369MOL0     C50849   5.706   6.688   8.067 -0.3545 -0.8259  0.3298
  369MOL0     C50850   6.412   6.502   7.824 -0.2404  0.5766 -0.4522
  369MOL0     C50851   6.544   6.492   7.774 -0.1211  0.4170  0.4349
  369MOL0     C50852   6.561   6.388   7.662 -0.1051 -0.0630  0.4558
  369MOL0     H50853   7.041   6.558   7.939 -1.0030 -0.1982 -0.3718
  369MOL0     H50854   7.292   6.523   7.844  1.1564  0.8998 -1.5480
  369MOL0     H50855   7.458   6.801   7.607 -0.8776 -0.0770  0.5371
  369MOL0     H50856   7.411   6.686   7.477  2.0996  1.0622 -1.0883
  369MOL0     H50857   7.656   6.720   7.494  1.1282 -1.1939 -0.6465
  369MOL0     H50858   7.651   6.661   7.662 -0.2095  2.3420 -0.0368
  369MOL0     H50859   7.734   6.487   7.511 -0.7293 -0.6726 -0.0220
  369MOL0     H50860   7.590   6.441   7.569  0.2361 -0.8635 -0.6171
  369MOL0     H50861   7.489   6.419   7.369 -1.9788  1.1947 -1.2767
  369MOL0     H50862   7.535   6.586   7.322  1.6271  0.0186 -1.1833
  369MOL0     H50863   7.697   6.342   7.263  0.5835  1.1590 -0.0978
  369MOL0     H50864   7.772   6.486   7.263 -0.2803  0.4542 -0.3092
  369MOL0     H50865   7.543   6.380   7.091  0.4107 -0.1986 -2.4984
  369MOL0     H50866   7.563   6.551   7.109  0.6174  0.3346  1.5076
  369MOL0     H50867   7.792   6.356   7.030 -2.6245 -0.6982  0.6688
  369MOL0     H50868   7.803   6.527   7.032  0.8735  0.3393  0.4734
  369MOL0     H50869   7.652   6.353   6.832  1.4012 -0.7413  1.2389
  369MOL0     H50870   7.610   6.526   6.845 -0.2629  0.4744  1.4247
  369MOL0     H50871   7.962   6.367   6.827 -2.1895  0.5723  0.8959
  369MOL0     H50872   8.136   6.501   6.506  0.9622 -1.6120  0.4943
  369MOL0     H50873   8.178   6.386   6.634 -0.3543  0.0823 -0.1168
  369MOL0     H50874   8.237   6.601   6.781  1.5951  4.3186 -1.3211
  369MOL0     H50875   8.352   6.542   6.660 -0.0289 -2.0115  0.1330
  369MOL0     H50876   8.258   6.721   6.510  0.0944  1.4111 -0.2148
  369MOL0     H50877   8.176   6.796   6.647 -1.4243 -1.3113 -0.0679
  369MOL0     H50878   8.463   6.705   6.684 -0.9512 -2.2230  3.4542
  369MOL0     H50879   8.431   6.866   6.620  1.8430  0.5016  1.5456
  369MOL0     H50880   8.640   6.840   6.733  1.5477 -3.8405  1.5723
  369MOL0     H50881   8.907   7.049   6.866 -0.2746  1.4628 -3.6556
  369MOL0     H50882   8.851   6.961   6.734  0.8400  0.0127  1.0579
  369MOL0     H50883   8.912   6.868   6.879  1.9952  1.0099  2.3412
  369MOL0     H50884   8.907   7.262   7.054  4.1647 -3.5041 -0.7839
  369MOL0     H50885   9.070   7.418   7.090 -1.9160  1.4399 -0.4995
  369MOL0     H50886   9.272   7.476   7.163 -2.5007  1.1934 -1.2101
  369MOL0     H50887   9.167   7.611   7.219 -2.1876 -1.6795  1.8380
  369MOL0     H50888   9.385   7.698   7.223 -4.2913 -1.2901 -2.2515
  369MOL0     H50889   9.367   7.643   7.392  2.5692 -1.6592  0.4609
  369MOL0     H50890   9.497   7.493   7.155 -2.5042 -1.2130 -0.1200
  369MOL0     H50891   9.459   7.419   7.311 -0.5669  0.4954  0.7690
  369MOL0     H50892   9.685   7.476   7.326 -2.5441 -2.5472 -0.5540
  369MOL0     H50893   9.580   7.575   7.433  3.4711 -0.6084  0.5663
  369MOL0     H50894   9.687   7.664   7.163  1.9798 -3.5540  0.8714
  369MOL0     H50895   9.598   7.766   7.281 -0.3283  0.4727  0.1850
  369MOL0     H50896   9.827   7.821   7.289  3.4175 -1.4416 -1.5590
  369MOL0     H50897   9.877   7.655   7.319 -1.1053 -0.2725 -1.1332
  369MOL0     H50898   9.902   7.754   7.518 -0.0365  3.7277 -1.4081
  369MOL0     H50899   9.763   7.649   7.533  1.2913  0.9863  3.0445
  369MOL0     H50900   9.730   7.936   7.497 -1.7798  1.1660  0.1526
  369MOL0     H50901   9.726   7.845   7.653  1.2690 -1.5488 -1.1511
  369MOL0     H50902   9.024   7.325   7.528 -0.3779 -0.0688 -0.6465
  369MOL0     H50903   8.830   7.188   7.460 -1.5606 -0.4176 -1.2835
  369MOL0     H50904   8.537   6.983   7.199 -1.6898 -3.1837  0.7541
  369MOL0     H50905   8.353   6.904   7.053 -0.8794  1.4027 -3.1856
  369MOL0     H50906   7.207   6.791   7.531 -1.1390  1.2700  1.2596
  369MOL0     H50907   6.974   6.806   7.602  0.4500  1.0699 -0.3297
  369MOL0     H50908   6.682   6.771   7.904 -2.4179  1.2654  1.5878
  369MOL0     H50909   6.468   6.777   8.017 -0.8640 -0.5647  0.6266
  369MOL0     H50910   6.307   6.589   8.160 -1.5360 -1.0297  0.5279
  369MOL0     H50911   6.239   6.741   8.103  3.0750 -0.8123 -4.3890
  369MOL0     H50912   6.105   6.477   8.170 -1.3760  0.3631  2.3610
  369MOL0     H50913   6.029   6.576   8.041  0.8044 -3.3851 -0.4943
  369MOL0     H50914   6.085   6.677   8.329  0.4312 -0.1295 -0.9252
  369MOL0     H50915   6.012   6.770   8.201  0.5447  1.3701  3.5109
  369MOL0     H50916   5.845   6.690   8.358 -0.9833  0.3559 -0.5353
  369MOL0     H50917   5.855   6.527   8.290 -2.0675  0.6085  2.0116
  369MOL0     H50918   5.634   6.691   7.988 -0.1753 -0.3274  0.1851
  369MOL0     H50919   6.342   6.426   7.792  1.9483 -1.6809 -0.2457
  369MOL0     H50920   6.622   6.303   7.697  1.7586  2.1496  3.0556
  369MOL0     H50921   6.463   6.350   7.632 -0.4254 -1.6757  3.1010
  369MOL0     H50922   6.615   6.422   7.574 -0.3035  2.8402  1.3623
  370MOL0     O50923   5.362   8.570  10.109  0.0996 -0.4364  0.2234
  370MOL0     C50924   5.310   8.684  10.110 -0.0750  0.5560 -0.5488
  370MOL0     O50925   5.332   8.783  10.213 -0.4897 -0.4907  0.2605
  370MOL0     C50926   5.369   8.757  10.339 -0.8068  1.1064  0.2481
  370MOL0     C50927   5.427   8.865  10.412  0.3181  0.4061  0.0804
  370MOL0     C50928   5.449   8.846  10.545 -0.5856 -0.3912 -0.0577
  370MOL0     C50929   5.417   8.722  10.616 -0.5211 -0.3321 -0.7264
  370MOL0     O50930   5.413   8.706  10.755  0.4257  0.1403  0.4705
  370MOL0     C50931   5.463   8.811  10.841 -0.6038  0.9655 -0.2913
  370MOL0     C50932   5.621   8.806  10.837  0.0881 -0.1232 -0.4927
  370MOL0     C50933   5.671   8.844  10.978  0.3943  0.7145  0.2996
  370MOL0     C50934   5.803   8.904  10.971 -1.3552 -0.2915 -0.4064
  370MOL0     C50935   5.860   8.929  11.109  0.5376 -0.1172  0.0470
  370MOL0     C50936   6.007   8.941  11.119 -0.5535  0.1430 -0.3390
  370MOL0     C50937   6.045   9.076  11.059 -0.5883 -0.4053 -0.9410
  370MOL0     C50938   6.178   9.130  11.108 -0.3693 -0.5156  0.2555
  370MOL0     N50939   6.280   9.029  11.119  0.7959  0.8491 -0.5595
  370MOL0     C50940   6.312   8.938  11.018  0.4313  0.0131  0.0352
  370MOL0     C50941   6.411   8.861  11.081  0.7050 -0.0698  0.5288
  370MOL0     C50942   6.492   8.738  11.019  0.0983 -0.7383  0.6182
  370MOL0     C50943   6.524   8.745  10.864  0.8971 -0.3629  0.2234
  370MOL0     C50944   6.588   8.628  10.798  0.0114  0.5082  0.4429
  370MOL0     C50945   6.592   8.644  10.645  0.3776  0.2238  0.0682
  370MOL0     O50946   6.670   8.535  10.582 -0.1723  0.1969 -0.0033
  370MOL0     C50947   6.710   8.538  10.455  0.5688  0.8881 -0.0815
  370MOL0     C50948   6.814   8.449  10.422 -0.0878  0.1187 -0.2827
  370MOL0     C50949   6.872   8.445  10.288 -0.3200 -0.5344  1.1458
  370MOL0     C50950   6.978   8.329  10.273  0.4284 -0.4512  0.2301
  370MOL0     C50951   6.829   8.539  10.186 -0.3368  0.3543  0.2704
  370MOL0     C50952   6.882   8.541  10.053  0.5623  0.1224  0.4851
  370MOL0     O50953   6.858   8.660   9.984  0.5106  1.1231 -0.5793
  370MOL0     C50954   6.926   8.699   9.875 -0.5285 -0.3733  0.0108
  370MOL0     C50955   6.968   8.612   9.773  0.4421 -0.4110 -0.6991
  370MOL0     C50956   7.022   8.666   9.656  0.0669  0.0968  0.5622
  370MOL0     C50957   7.045   8.807   9.645  0.4158 -0.0151  0.2737
  370MOL0     O50958   7.113   8.877   9.547 -0.5679 -0.8247  0.0284
  370MOL0     C50959   7.195   8.803   9.455 -0.4287  0.2711  0.9359
  370MOL0     C50960   7.252   8.903   9.351 -0.1676  0.5653 -0.1282
  370MOL0     C50961   7.132   8.957   9.271  0.1820  0.8452 -0.4195
  370MOL0     C50962   7.171   9.013   9.124 -0.1413  0.0914 -0.3000
  370MOL0     C50963   7.055   9.084   9.057 -0.2327 -0.3039 -0.3879
  370MOL0     C50964   7.004   9.204   9.139  0.6259  0.1414  0.4816
  370MOL0     C50965   6.909   9.281   9.040  0.1309 -0.4370 -0.0182
  370MOL0     C50966   6.866   9.419   9.101  0.3022  0.2314  0.3243
  370MOL0    Cl50967   6.729   9.383   9.207  0.2907  0.0017 -0.2500
  370MOL0     C50968   6.996   8.894   9.752 -0.7838 -0.2976  0.5733
  370MOL0     C50969   6.934   8.841   9.861  0.3029 -0.6621 -0.3350
  370MOL0     O50970   6.931   8.438   9.996 -0.3279 -0.3877  0.4384
  370MOL0     C50971   6.733   8.639  10.229  0.3802  0.6142 -0.3421
  370MOL0     C50972   6.666   8.627  10.357 -0.8881 -0.0722 -0.2021
  370MOL0     N50973   6.425   8.908  11.215 -0.6190 -0.2798  0.7013
  370MOL0     N50974   6.345   9.009  11.232  0.0266  0.6544 -0.2399
  370MOL0     C50975   5.358   8.619  10.537 -1.1193 -0.6162 -0.5564
  370MOL0     C50976   5.336   8.635  10.398 -0.5399  0.7122 -0.4527
  370MOL0     C50977   5.244   8.733   9.991  0.2007  0.7953 -0.8374
  370MOL0     C50978   5.307   8.823   9.908  0.1830 -0.6932  0.2728
  370MOL0     C50979   5.259   8.860   9.783 -0.1952  0.4733  0.1196
  370MOL0     C50980   5.136   8.802   9.742 -0.3397 -0.2525  0.7423
  370MOL0     O50981   5.103   8.837   9.614 -0.2652  0.6565  0.2586
  370MOL0     C50982   4.971   8.829   9.568  0.3391  0.3368  0.1203
  370MOL0     C50983   4.953   8.921   9.448  0.4617  0.3977 -0.1273
  370MOL0     C50984   4.811   8.903   9.392  0.2710  0.0187  0.4364
  370MOL0     C50985   4.762   9.033   9.321 -0.6377 -0.1791 -0.0265
  370MOL0     C50986   4.631   9.034   9.269  0.0350  0.4211  1.0248
  370MOL0     C50987   4.519   9.053   9.229  0.1874 -0.6691 -0.0308
  370MOL0     C50988   5.069   8.696   9.816 -0.7185 -0.0412 -1.0773
  370MOL0     C50989   5.121   8.672   9.944 -0.8416  0.0739 -0.2740
  370MOL0     C50990   5.060   8.562  10.029  0.3972 -0.0899  0.5655
  370MOL0     H50991   5.448   8.963  10.371 -0.7859  0.4705 -0.3630
  370MOL0     H50992   5.491   8.931  10.598 -0.7385 -0.4413  0.1460
  370MOL0     H50993   5.435   8.789  10.945 -3.3520 -1.7273 -1.4657
  370MOL0     H50994   5.419   8.906  10.809  0.3626  0.8508 -2.0747
  370MOL0     H50995   5.660   8.708  10.811  0.8550 -1.3271  4.2211
  370MOL0     H50996   5.663   8.864  10.754  0.4331  0.9302  0.3985
  370MOL0     H50997   5.606   8.911  11.035  0.7536  2.3006 -1.0825
  370MOL0     H50998   5.673   8.744  11.024  3.4078  0.0872 -0.9446
  370MOL0     H50999   5.868   8.837  10.914  0.5358  0.3001  0.9909
  370MOL0     H51000   5.790   9.000  10.922 -1.3277 -0.5264 -0.8764
  370MOL0     H51001   5.838   8.848  11.179 -3.2273  0.9909  0.3325
  370MOL0     H51002   5.814   9.022  11.145 -0.3757  1.6776 -4.8425
  370MOL0     H51003   6.043   8.937  11.222 -1.2265  2.1635  0.0194
  370MOL0     H51004   6.046   8.854  11.065 -1.4058  0.0538 -0.8334
  370MOL0     H51005   5.975   9.156  11.085  2.4657  2.0965  0.2265
  370MOL0     H51006   6.041   9.069  10.950 -0.5000  0.2830 -0.9932
  370MOL0     H51007   6.216   9.209  11.042 -2.0802 -1.6555 -2.2825
  370MOL0     H51008   6.181   9.166  11.211  3.5387 -0.3428  0.2372
  370MOL0     H51009   6.284   8.930  10.914 -2.2357 -0.9392  0.7522
  370MOL0     H51010   6.423   8.655  11.038 -0.3587 -0.5156 -0.0200
  370MOL0     H51011   6.586   8.722  11.073  0.1990 -0.6360  0.4763
  370MOL0     H51012   6.436   8.776  10.806  1.3398  1.0670  0.2854
  370MOL0     H51013   6.589   8.824  10.826 -0.9563  0.4055 -1.5375
  370MOL0     H51014   6.686   8.604  10.839 -0.1870  1.4404  1.5117
  370MOL0     H51015   6.532   8.534  10.808  0.4246 -0.1015 -2.3220
  370MOL0     H51016   6.491   8.643  10.603  0.8645 -0.1611 -1.1372
  370MOL0     H51017   6.641   8.740  10.627  5.8206 -2.1089  0.4169
  370MOL0     H51018   6.849   8.385  10.503 -0.5978  0.1770 -0.0143
  370MOL0     H51019   6.944   8.244  10.212  1.2983 -0.1198 -0.7453
  370MOL0     H51020   7.011   8.292  10.370 -3.6079 -2.9432  0.9111
  370MOL0     H51021   7.069   8.369  10.228  0.2110 -0.9357 -0.6560
  370MOL0     H51022   6.951   8.505   9.774  0.1964 -0.4119 -2.1317
  370MOL0     H51023   7.037   8.593   9.576  1.2713 -0.5894  1.3865
  370MOL0     H51024   7.265   8.746   9.516 -1.1261  0.6766  2.1523
  370MOL0     H51025   7.142   8.731   9.393  1.3948  2.9521 -4.3449
  370MOL0     H51026   7.306   8.991   9.388 -1.8367  1.3703  0.5278
  370MOL0     H51027   7.323   8.849   9.288 -0.9567  0.4715 -0.9568
  370MOL0     H51028   7.085   9.029   9.340  1.8641 -0.4180  2.2052
  370MOL0     H51029   7.055   8.881   9.254  0.6287  0.4905 -0.8729
  370MOL0     H51030   7.206   8.930   9.062  1.6162 -2.4918  3.6985
  370MOL0     H51031   7.250   9.089   9.132 -0.7050  0.5243  1.7806
  370MOL0     H51032   7.092   9.110   8.957 -0.6737  3.0763  0.1803
  370MOL0     H51033   6.968   9.019   9.041  0.0921 -0.3849 -2.0981
  370MOL0     H51034   7.085   9.267   9.177  0.3791  0.7863 -0.0397
  370MOL0     H51035   6.951   9.167   9.227 -0.5110 -0.1598 -0.3122
  370MOL0     H51036   6.817   9.226   9.019 -1.5987  2.5469 -0.9579
  370MOL0     H51037   6.948   9.307   8.941 -0.5587 -0.1746 -0.2254
  370MOL0     H51038   6.828   9.485   9.022  0.7475 -1.3676 -1.2925
  370MOL0     H51039   6.958   9.446   9.153  1.5393 -1.6266 -0.7937
  370MOL0     H51040   7.028   8.997   9.740  1.6529 -1.0953 -0.4419
  370MOL0     H51041   6.888   8.899   9.940 -0.6968  0.1952 -1.4992
  370MOL0     H51042   6.700   8.718  10.162  0.2577 -0.3028 -1.3890
  370MOL0     H51043   6.589   8.699  10.383 -0.6732  0.1496 -0.1779
  370MOL0     H51044   5.316   8.535  10.591 -1.5502  0.2754  0.5271
  370MOL0     H51045   5.293   8.560  10.334  1.1055  0.2769 -1.1049
  370MOL0     H51046   5.403   8.853   9.949  0.3206 -3.1154  1.9362
  370MOL0     H51047   5.325   8.916   9.718  0.5137  1.6461  1.7978
  370MOL0     H51048   4.959   8.724   9.541  1.0726 -0.2223  1.8132
  370MOL0     H51049   4.906   8.866   9.648 -0.1762  4.1420 -1.8280
  370MOL0     H51050   5.029   8.884   9.377  1.4287  0.5185  0.8261
  370MOL0     H51051   4.964   9.024   9.482  1.6991  0.0575  0.5722
  370MOL0     H51052   4.790   8.814   9.333 -1.3228  0.8958 -0.3860
  370MOL0     H51053   4.741   8.876   9.472  0.9421  3.5492  2.4240
  370MOL0     H51054   4.830   9.043   9.236  1.6027 -1.5756  1.5040
  370MOL0     H51055   4.772   9.118   9.389 -1.8448 -1.0273  1.2701
  370MOL0     H51056   4.425   9.073   9.183 -0.0946 -0.2323  0.7150
  370MOL0     H51057   4.987   8.634   9.780 -0.6791 -0.3474 -0.6512
  370MOL0     H51058   4.979   8.505   9.982  1.9752 -0.6163 -1.7029
  370MOL0     H51059   5.136   8.484  10.044 -1.8526 -2.2810  1.1986
  370MOL0     H51060   5.024   8.598  10.125  0.6543  1.4741  0.0930
  371MOL0     O51061   6.058   3.419   1.012 -0.1638  0.5281  0.1453
  371MOL0     C51062   5.947   3.378   0.992 -0.7183 -0.2610  0.4213
  371MOL0     O51063   5.895   3.258   1.036 -0.0811 -0.6295 -0.2184
  371MOL0     C51064   5.983   3.178   1.098  0.1506  1.0025 -0.6519
  371MOL0     C51065   6.070   3.087   1.033 -0.1055  0.2992  0.0867
  371MOL0     C51066   6.162   3.023   1.116 -0.0580  0.1380 -1.4275
  371MOL0     C51067   6.151   3.020   1.260  0.5912 -1.0288  1.0745
  371MOL0     O51068   6.251   2.953   1.316 -0.5929  1.0182 -1.0981
  371MOL0     C51069   6.239   2.928   1.457  0.1165 -0.1315 -0.0504
  371MOL0     C51070   6.368   2.878   1.521 -0.1022  1.2540  0.9919
  371MOL0     C51071   6.431   2.751   1.450  0.0253  0.6469 -0.2780
  371MOL0     C51072   6.563   2.730   1.520  0.1116  0.9488  0.2917
  371MOL0     C51073   6.634   2.610   1.467  0.0168 -1.0914  0.2602
  371MOL0     C51074   6.765   2.583   1.542 -0.5255  0.6025  0.4670
  371MOL0     C51075   6.852   2.461   1.487 -0.1702 -0.0044  0.0904
  371MOL0     C51076   6.988   2.448   1.562 -0.7584 -0.2210  0.2080
  371MOL0     N51077   7.068   2.574   1.558 -0.0132  0.2683 -0.5258
  371MOL0     C51078   7.091   2.641   1.673  0.3775 -1.2112 -0.2899
  371MOL0     C51079   7.166   2.745   1.630 -0.1869  0.5703  0.3694
  371MOL0     C51080   7.231   2.852   1.709 -0.3979 -0.3967 -1.3412
  371MOL0     C51081   7.364   2.809   1.780 -0.0388  0.0223  0.1289
  371MOL0     C51082   7.428   2.910   1.872  0.3970 -0.6656 -0.1938
  371MOL0     C51083   7.508   2.842   1.983 -0.0049 -0.5949 -0.6722
  371MOL0     O51084   7.621   2.778   1.922  0.1076 -0.4463  0.1046
  371MOL0     C51085   7.742   2.807   1.985 -0.0966 -0.0927 -0.0426
  371MOL0     C51086   7.820   2.908   1.937 -0.8107 -0.3892 -0.6032
  371MOL0     C51087   7.930   2.958   2.015  0.0044 -0.0497 -0.6306
  371MOL0     C51088   7.988   3.082   1.956 -0.6370 -0.3951  1.4475
  371MOL0     C51089   7.969   2.896   2.145  0.5574 -0.8486  0.7460
  371MOL0     C51090   8.065   2.953   2.245 -0.0661  0.0416  0.1653
  371MOL0     O51091   8.122   3.069   2.206  0.0909 -0.7819  0.4605
  371MOL0     C51092   8.219   3.122   2.287  0.1932 -0.8421  1.0899
  371MOL0     C51093   8.200   3.236   2.362 -0.1940 -0.0591  0.0755
  371MOL0     C51094   8.295   3.290   2.444 -0.0922 -0.4411 -0.0998
  371MOL0     C51095   8.421   3.228   2.447  0.3831  0.4589 -0.7689
  371MOL0     O51096   8.516   3.275   2.532 -0.7236  0.2193 -0.9501
  371MOL0     C51097   8.488   3.337   2.655 -0.5603 -0.1891 -0.3343
  371MOL0     C51098   8.613   3.313   2.748  0.5502 -0.1052  0.0204
  371MOL0     C51099   8.623   3.400   2.875 -0.1322 -0.2371  0.1604
  371MOL0     C51100   8.534   3.348   2.989 -0.1348  0.5592 -0.0509
  371MOL0     C51101   8.583   3.406   3.114  0.3202 -1.0005 -0.3639
  371MOL0     C51102   8.485   3.379   3.237 -0.4816 -0.2300  0.4969
  371MOL0     C51103   8.549   3.431   3.368 -0.2578  0.2771 -0.5880
  371MOL0     C51104   8.438   3.456   3.472  0.7654 -0.2332 -0.5023
  371MOL0    Cl51105   8.341   3.598   3.433 -0.3198  0.1116 -0.0742
  371MOL0     C51106   8.443   3.117   2.366 -0.0553 -0.1206 -0.0165
  371MOL0     C51107   8.346   3.070   2.281 -0.1662  0.5104 -0.4862
  371MOL0     O51108   8.100   2.886   2.343  0.0725 -0.3686  0.2801
  371MOL0     C51109   7.882   2.786   2.171 -0.0735 -0.9565  0.3202
  371MOL0     C51110   7.773   2.745   2.104 -0.2671  0.0816  0.1231
  371MOL0     N51111   7.172   2.738   1.491 -0.3444  0.1100 -0.0404
  371MOL0     N51112   7.121   2.633   1.448  0.0710 -0.1086  0.0717
  371MOL0     C51113   6.051   3.096   1.322  0.1347 -0.7333  0.1673
  371MOL0     C51114   5.975   3.184   1.238  1.0557  0.7131 -0.3749
  371MOL0     C51115   5.845   3.472   0.930  0.5276  0.6852 -1.2313
  371MOL0     C51116   5.876   3.604   0.910  0.4845  0.3295 -0.4042
  371MOL0     C51117   5.783   3.699   0.867  0.0391  0.5009  0.5486
  371MOL0     C51118   5.651   3.665   0.854 -1.0478  0.4119  0.1843
  371MOL0     O51119   5.564   3.765   0.847  0.2306  0.1659  0.3652
  371MOL0     C51120   5.500   3.797   0.978  0.1678 -0.0983 -0.2850
  371MOL0     C51121   5.588   3.870   1.082 -0.5321  0.2177 -0.3638
  371MOL0     C51122   5.601   4.020   1.046  0.1381  0.0753 -0.2855
  371MOL0     C51123   5.479   4.113   1.101  0.3387  0.9066  0.5008
  371MOL0     C51124   5.485   4.262   1.085 -0.2677  0.7294  0.5389
  371MOL0     C51125   5.498   4.382   1.071  0.3936 -0.3311  0.7872
  371MOL0     C51126   5.617   3.533   0.849  0.1248  0.6917 -1.4786
  371MOL0     C51127   5.708   3.431   0.891  0.1650  0.6468  0.5583
  371MOL0     C51128   5.660   3.286   0.873  0.5770 -0.4379  0.6975
  371MOL0     H51129   6.056   3.069   0.927 -5.1008 -0.7705  0.6870
  371MOL0     H51130   6.237   2.962   1.068 -0.4291  0.2160 -2.1189
  371MOL0     H51131   6.155   2.858   1.463 -0.6694  0.7400 -0.5232
  371MOL0     H51132   6.210   3.017   1.514 -0.2729  2.0755 -3.4411
  371MOL0     H51133   6.447   2.954   1.515  0.1135  0.9605 -0.1177
  371MOL0     H51134   6.340   2.858   1.625  0.0886 -0.4103  0.7507
  371MOL0     H51135   6.370   2.660   1.459  1.6727 -0.7079 -1.9660
  371MOL0     H51136   6.444   2.765   1.343 -1.6010  2.4969 -0.2781
  371MOL0     H51137   6.620   2.821   1.504 -2.8025  2.5684 -1.9765
  371MOL0     H51138   6.542   2.713   1.626 -1.3358  0.0060 -0.1135
  371MOL0     H51139   6.663   2.642   1.367  0.5951  1.2266  1.1110
  371MOL0     H51140   6.561   2.529   1.460 -0.6827 -0.3050 -3.1419
  371MOL0     H51141   6.816   2.679   1.539 -0.5274  0.6910  2.2838
  371MOL0     H51142   6.742   2.565   1.647 -1.6300 -1.5559 -0.0726
  371MOL0     H51143   6.883   2.476   1.383  1.3488 -0.2317  0.4764
  371MOL0     H51144   6.794   2.369   1.500  0.8397 -0.8289 -0.9602
  371MOL0     H51145   6.972   2.422   1.667 -2.0606  0.7404  0.2680
  371MOL0     H51146   7.040   2.376   1.498  0.3629  0.6399  0.1143
  371MOL0     H51147   7.049   2.625   1.772 -2.1002 -1.0901 -1.2587
  371MOL0     H51148   7.159   2.885   1.785  1.2348 -0.4730  0.2970
  371MOL0     H51149   7.256   2.940   1.650 -1.4654  1.5592  0.9252
  371MOL0     H51150   7.351   2.720   1.843  2.6651  0.0250  0.8418
  371MOL0     H51151   7.437   2.787   1.702 -1.2527 -1.1093 -0.7221
  371MOL0     H51152   7.491   2.981   1.818  0.0897 -0.5749 -0.4348
  371MOL0     H51153   7.350   2.968   1.923  1.3031  0.3590  0.0584
  371MOL0     H51154   7.543   2.919   2.052 -1.2222 -0.6425  0.0212
  371MOL0     H51155   7.452   2.763   2.033  0.0086  0.1878  0.6306
  371MOL0     H51156   7.795   2.959   1.845  0.7043  2.2110  0.3261
  371MOL0     H51157   7.944   3.112   1.860  1.5136  1.9378  1.1075
  371MOL0     H51158   8.095   3.069   1.936 -0.8938 -1.3336  0.5830
  371MOL0     H51159   7.980   3.173   2.016  1.8372  1.4779 -0.8539
  371MOL0     H51160   8.100   3.275   2.349  0.7777  2.0049 -2.0687
  371MOL0     H51161   8.289   3.384   2.497  1.8916 -0.8066  0.8787
  371MOL0     H51162   8.487   3.446   2.643  1.3720 -0.1167 -0.1882
  371MOL0     H51163   8.397   3.301   2.703 -0.0353 -0.1763  0.6961
  371MOL0     H51164   8.629   3.206   2.768  0.4185  0.0441  0.9534
  371MOL0     H51165   8.694   3.341   2.679 -0.1229  0.9247 -0.3726
  371MOL0     H51166   8.586   3.501   2.854  0.9566  0.7047  2.4580
  371MOL0     H51167   8.726   3.408   2.908 -0.8441 -1.7356  3.0855
  371MOL0     H51168   8.536   3.239   2.997 -1.1839  0.5039 -0.3846
  371MOL0     H51169   8.432   3.378   2.962  1.2773  3.2950 -3.0680
  371MOL0     H51170   8.686   3.380   3.137  0.2788  0.6020  2.0380
  371MOL0     H51171   8.585   3.514   3.096 -0.8984 -0.8869  0.0830
  371MOL0     H51172   8.456   3.274   3.241 -2.1910  0.0048 -2.8589
  371MOL0     H51173   8.393   3.434   3.215 -0.3945 -1.3440 -3.3044
  371MOL0     H51174   8.603   3.525   3.360 -0.1470  0.2405 -0.3059
  371MOL0     H51175   8.620   3.359   3.410 -2.2845 -2.1391 -1.0188
  371MOL0     H51176   8.482   3.482   3.569 -2.7855  1.5595  0.8367
  371MOL0     H51177   8.375   3.367   3.487 -0.6760  0.9324  0.7116
  371MOL0     H51178   8.544   3.077   2.358  0.7296  1.3621  1.8021
  371MOL0     H51179   8.368   2.984   2.218 -1.0331 -2.0444  2.4703
  371MOL0     H51180   7.892   2.744   2.270  0.1117  1.1568  1.2219
  371MOL0     H51181   7.727   2.652   2.134  1.1502 -0.1559  1.7034
  371MOL0     H51182   6.029   3.106   1.428 -3.4630  2.2582 -0.6096
  371MOL0     H51183   5.890   3.238   1.276  1.2231  0.4843  0.3399
  371MOL0     H51184   5.979   3.635   0.922  1.2414 -2.0798 -0.1430
  371MOL0     H51185   5.817   3.801   0.852  2.7473 -0.4140 -0.1617
  371MOL0     H51186   5.407   3.848   0.952 -1.2703 -2.0308  0.6891
  371MOL0     H51187   5.460   3.703   1.019 -1.8575  0.5380 -0.7062
  371MOL0     H51188   5.684   3.817   1.094  0.0035  1.5402  1.8888
  371MOL0     H51189   5.551   3.864   1.185 -0.5043 -0.0352 -0.3677
  371MOL0     H51190   5.695   4.061   1.085 -0.0665 -2.0355  2.7557
  371MOL0     H51191   5.604   4.025   0.937 -0.5589 -1.6872 -0.4087
  371MOL0     H51192   5.462   4.093   1.207  0.3788  0.6014  0.4517
  371MOL0     H51193   5.389   4.092   1.043  0.3670 -1.5348  1.2403
  371MOL0     H51194   5.482   4.483   1.040 -1.7106 -1.2909 -1.5704
  371MOL0     H51195   5.516   3.514   0.814  0.0423 -0.6022 -0.6087
  371MOL0     H51196   5.734   3.229   0.815 -1.4768 -0.6464 -1.8966
  371MOL0     H51197   5.633   3.231   0.964 -1.0517 -0.6874  0.1008
  371MOL0     H51198   5.575   3.291   0.805  2.1944  0.6773 -1.3522
  372MOL0     O51199   7.742  11.016   0.389  0.5108  0.2165  0.2264
  372MOL0     C51200   7.694  11.038   0.282  0.2376  0.6923  0.2611
  372MOL0     O51201   7.741  11.137   0.198  0.8549  0.4298  0.5890
  372MOL0     C51202   7.855  11.206   0.244  0.5155 -0.9414  0.8145
  372MOL0     C51203   7.972  11.166   0.191  0.4727 -0.0343  0.0684
  372MOL0     C51204   8.093  11.211   0.245  0.2110 -0.3934  0.4221
  372MOL0     C51205   8.090  11.313   0.344 -0.7577  0.0751 -0.1253
  372MOL0     O51206   8.208  11.355   0.401  0.4194  0.2101 -0.3511
  372MOL0     C51207   8.222  11.492   0.433  0.2870  0.2505  0.4991
  372MOL0     C51208   8.366  11.520   0.479  0.2942  0.1569 -0.3043
  372MOL0     C51209   8.430  11.401   0.561 -0.0380 -0.4425  0.6795
  372MOL0     C51210   8.362  11.379   0.693  0.4298  0.3462  0.5339
  372MOL0     C51211   8.449  11.297   0.787 -0.2131  0.3118 -0.1907
  372MOL0     C51212   8.418  11.337   0.929  0.4367 -0.5790  0.0656
  372MOL0     C51213   8.503  11.258   1.034 -0.0114  1.0177 -0.3090
  372MOL0     C51214   8.492  11.323   1.169  0.2334  0.2126  0.3930
  372MOL0     N51215   8.582  11.259   1.264 -0.5949  0.4067 -0.0366
  372MOL0     C51216   8.555  11.137   1.322  0.0272  0.7903  0.5791
  372MOL0     C51217   8.650  11.110   1.411  0.0832  0.3048 -0.1984
  372MOL0     C51218   8.659  11.008   1.520 -0.0234 -0.7791  0.5077
  372MOL0     C51219   8.741  10.894   1.454  0.4468  0.7016  0.2516
  372MOL0     C51220   8.887  10.918   1.452 -0.2720  0.2415 -0.0537
  372MOL0     C51221   8.962  10.787   1.431 -1.0724  0.2096  0.5031
  372MOL0     O51222   9.107  10.803   1.434 -0.2225 -0.5149 -0.9462
  372MOL0     C51223   9.177  10.766   1.552 -0.3251 -0.3701 -0.0158
  372MOL0     C51224   9.313  10.737   1.542  0.3805 -0.2035  0.3851
  372MOL0     C51225   9.393  10.709   1.661  0.9645  0.0856  0.6690
  372MOL0     C51226   9.537  10.675   1.641 -0.4270 -0.1110  0.0241
  372MOL0     C51227   9.331  10.699   1.790 -0.6269 -0.9107 -0.2321
  372MOL0     C51228   9.413  10.672   1.921  0.2890  1.0584  0.3318
  372MOL0     O51229   9.548  10.689   1.927  0.2697  0.1373  0.1384
  372MOL0     C51230   9.621  10.668   2.046 -0.2595 -0.9966 -0.5143
  372MOL0     C51231   9.572  10.704   2.172 -0.2971  0.0786  0.4009
  372MOL0     C51232   9.654  10.702   2.282  0.8410  0.4601 -0.6092
  372MOL0     C51233   9.782  10.656   2.276 -0.6307  0.2002  0.2817
  372MOL0     O51234   9.863  10.644   2.387 -0.0824 -0.0558 -0.2808
  372MOL0     C51235   9.821  10.701   2.512 -0.0253  0.5672 -0.4418
  372MOL0     C51236   9.926  10.678   2.625  0.2356  0.6514 -0.1431
  372MOL0     C51237   9.921  10.790   2.727  0.3190  0.6408 -1.5097
  372MOL0     C51238  10.019  10.767   2.848  0.1968 -0.1460 -0.7269
  372MOL0     C51239  10.012  10.894   2.942  0.3268  0.0365  0.1610
  372MOL0     C51240  10.082  10.863   3.078  0.0845  0.1778 -0.0393
  372MOL0     C51241  10.226  10.833   3.073 -1.0048 -0.9234  0.7437
  372MOL0     C51242  10.303  10.960   3.044 -0.1617 -0.6928  0.2296
  372MOL0    Cl51243  10.276  11.088   3.179  0.0548 -0.0162  0.0748
  372MOL0     C51244   9.838  10.614   2.154 -0.8132 -0.0198  0.0190
  372MOL0     C51245   9.759  10.631   2.039  0.2425 -0.7100  0.3424
  372MOL0     O51246   9.342  10.636   2.013  0.4100  0.0833  0.3918
  372MOL0     C51247   9.194  10.705   1.789 -0.0386  0.3392 -0.0932
  372MOL0     C51248   9.119  10.742   1.676  0.6854 -0.1142  0.3713
  372MOL0     N51249   8.746  11.215   1.394  0.5478  0.8075 -0.0232
  372MOL0     N51250   8.702  11.305   1.308 -0.0609  0.3991  0.7562
  372MOL0     C51251   7.969  11.357   0.402  0.0814  0.3089  0.6415
  372MOL0     C51252   7.846  11.304   0.346  0.6884 -0.2206  0.3668
  372MOL0     C51253   7.591  10.939   0.220 -0.1510 -0.8300  0.0665
  372MOL0     C51254   7.553  10.827   0.286  0.6916 -0.3840  0.1469
  372MOL0     C51255   7.451  10.741   0.242 -0.4813 -0.5281 -0.0461
  372MOL0     C51256   7.382  10.778   0.129 -0.6546  0.1394  0.3624
  372MOL0     O51257   7.295  10.679   0.090  0.0079  0.1646 -0.4013
  372MOL0     C51258   7.222  10.696  -0.034 -0.0423 -0.6820 -0.0941
  372MOL0     C51259   7.150  10.568  -0.068  0.7986  0.3876 -0.3776
  372MOL0     C51260   7.013  10.559  -0.007  0.1496  0.1282  0.8991
  372MOL0     C51261   6.916  10.672  -0.048  0.7158  0.6823 -0.5361
  372MOL0     C51262   6.777  10.623  -0.060 -0.2116  0.3030  0.5196
  372MOL0     C51263   6.661  10.583  -0.068  0.7471 -0.7469 -0.1594
  372MOL0     C51264   7.417  10.888   0.057  0.1671  0.8681 -0.3642
  372MOL0     C51265   7.519  10.971   0.095 -0.3711 -0.0236 -0.6861
  372MOL0     C51266   7.552  11.086  -0.003 -0.0386  0.1819 -0.5862
  372MOL0     H51267   7.977  11.081   0.124  1.0976 -1.1376  1.4544
  372MOL0     H51268   8.179  11.154   0.214 -2.1463 -3.1066 -1.6712
  372MOL0     H51269   8.153  11.510   0.516 -0.7105  0.1392 -0.2972
  372MOL0     H51270   8.197  11.553   0.346  0.0465  1.1979  1.2127
  372MOL0     H51271   8.431  11.532   0.392  1.9289 -0.9184  0.7048
  372MOL0     H51272   8.368  11.616   0.533 -1.5214 -0.0166  0.1385
  372MOL0     H51273   8.428  11.309   0.502 -2.1344 -1.4349  2.1705
  372MOL0     H51274   8.533  11.428   0.586 -0.6448  1.6700  1.1374
  372MOL0     H51275   8.339  11.477   0.737 -3.0767 -0.3515  0.5174
  372MOL0     H51276   8.261  11.340   0.678 -0.3534  1.9543  1.3455
  372MOL0     H51277   8.554  11.302   0.760 -0.3326  0.9847 -0.5472
  372MOL0     H51278   8.423  11.193   0.766  2.0383 -0.3778  0.2613
  372MOL0     H51279   8.465  11.434   0.945  3.0203 -1.8777  1.0677
  372MOL0     H51280   8.311  11.336   0.950  0.1987 -0.2244 -1.0868
  372MOL0     H51281   8.611  11.267   1.014  0.6503 -2.9988  0.6262
  372MOL0     H51282   8.470  11.154   1.038  0.0391  1.0082 -0.1480
  372MOL0     H51283   8.504  11.431   1.156 -1.4406  0.3516 -0.2552
  372MOL0     H51284   8.394  11.318   1.216 -0.9605  1.1515 -1.8389
  372MOL0     H51285   8.461  11.084   1.315  0.5601 -0.0328 -0.5614
  372MOL0     H51286   8.554  10.985   1.539 -1.0043  2.3110 -0.6086
  372MOL0     H51287   8.698  11.057   1.609 -1.1267  0.2825  0.4358
  372MOL0     H51288   8.719  10.799   1.503  2.2033 -0.1602 -0.5824
  372MOL0     H51289   8.709  10.873   1.351 -0.3374 -1.9380  0.9467
  372MOL0     H51290   8.908  10.991   1.373 -2.0819  1.5990  0.6312
  372MOL0     H51291   8.929  10.973   1.537  2.6387 -0.0451 -1.2034
  372MOL0     H51292   8.921  10.710   1.496 -2.9574  0.4136 -0.3828
  372MOL0     H51293   8.949  10.748   1.330  0.5163 -3.1729  1.4678
  372MOL0     H51294   9.346  10.751   1.439  2.3132  0.5512  1.0701
  372MOL0     H51295   9.551  10.574   1.681  1.4491  1.0486  2.5557
  372MOL0     H51296   9.606  10.744   1.689  0.4059 -0.5138 -0.5684
  372MOL0     H51297   9.561  10.658   1.536  1.1358 -0.9664  0.4807
  372MOL0     H51298   9.470  10.739   2.182 -0.5001 -0.0177 -1.1022
  372MOL0     H51299   9.597  10.726   2.372 -2.0803  0.5167 -2.3335
  372MOL0     H51300   9.799  10.808   2.500 -1.2415  0.6564  2.0309
  372MOL0     H51301   9.725  10.654   2.534 -0.2771  0.7908 -1.0420
  372MOL0     H51302   9.906  10.580   2.670 -0.4822  0.3912 -0.9961
  372MOL0     H51303  10.028  10.666   2.587  0.3694 -0.3347  0.4935
  372MOL0     H51304   9.819  10.802   2.766 -0.2785 -2.4990 -1.8602
  372MOL0     H51305   9.936  10.888   2.680 -2.4708  1.2226 -1.3507
  372MOL0     H51306  10.121  10.747   2.814  0.2590  2.3808 -2.2632
  372MOL0     H51307   9.985  10.680   2.905 -2.1969 -1.0927 -3.3664
  372MOL0     H51308  10.039  10.986   2.890 -4.4244  2.7466  1.9297
  372MOL0     H51309   9.907  10.911   2.965 -0.0460 -1.3103 -0.4502
  372MOL0     H51310  10.045  10.767   3.118  0.7760  0.8742  2.4128
  372MOL0     H51311  10.058  10.937   3.154  1.8181 -0.4082  1.1289
  372MOL0     H51312  10.244  10.772   2.984 -1.4295  0.7524 -0.5516
  372MOL0     H51313  10.266  10.788   3.164 -0.5665  1.4247  1.8037
  372MOL0     H51314  10.269  11.014   2.956  1.0900 -0.1549  0.0564
  372MOL0     H51315  10.411  10.939   3.041  0.8423  3.6557 -0.1225
  372MOL0     H51316   9.941  10.580   2.142 -0.4860  0.8783  0.1971
  372MOL0     H51317   9.803  10.615   1.941  0.2155 -1.1487  0.4014
  372MOL0     H51318   9.143  10.693   1.884 -0.0657  1.4930  0.0462
  372MOL0     H51319   9.012  10.760   1.686  0.3262 -0.8270 -1.7925
  372MOL0     H51320   7.971  11.434   0.478  0.3969 -0.3092  1.2711
  372MOL0     H51321   7.755  11.343   0.392 -0.0863 -0.5541 -0.8466
  372MOL0     H51322   7.597  10.807   0.384 -0.2198 -1.2263  0.4001
  372MOL0     H51323   7.425  10.652   0.298 -2.5413  0.4415  0.6145
  372MOL0     H51324   7.160  10.786  -0.030 -0.0653 -0.7118  0.2185
  372MOL0     H51325   7.286  10.714  -0.122 -2.1628 -0.5330 -1.6788
  372MOL0     H51326   7.212  10.484  -0.036 -0.4503  0.1503  1.6162
  372MOL0     H51327   7.144  10.562  -0.177  1.3894 -0.7457 -0.3703
  372MOL0     H51328   6.963  10.467  -0.037 -0.9585  0.9289  0.2250
  372MOL0     H51329   7.014  10.560   0.103  0.5491  1.8582  0.9107
  372MOL0     H51330   6.946  10.725  -0.139 -0.5817  4.7129  1.1647
  372MOL0     H51331   6.926  10.747   0.030  1.2994  0.7452 -0.6649
  372MOL0     H51332   6.568  10.533  -0.085 -0.0286  0.2164  1.1395
  372MOL0     H51333   7.374  10.919  -0.037  0.6350 -0.0840 -0.9015
  372MOL0     H51334   7.488  11.070  -0.090  0.0534 -1.1827 -0.4274
  372MOL0     H51335   7.539  11.179   0.053 -0.7521 -0.9247  1.1750
  372MOL0     H51336   7.653  11.070  -0.042  1.1286  0.9358  1.8907
  373MOL0     O51337  11.373   2.557   2.543 -0.3573  0.1403  0.0529
  373MOL0     C51338  11.390   2.625   2.640  0.1178 -0.9745 -0.1281
  373MOL0     O51339  11.498   2.630   2.718  0.2408  0.7177 -0.2307
  373MOL0     C51340  11.613   2.563   2.676  0.2154 -0.5997 -0.5336
  373MOL0     C51341  11.661   2.470   2.758 -1.3667  0.2841 -0.1218
  373MOL0     C51342  11.794   2.417   2.748  0.3064 -0.2421 -0.0098
  373MOL0     C51343  11.868   2.466   2.639 -0.6221 -0.4873  0.2174
  373MOL0     O51344  11.998   2.424   2.636  0.3390 -0.3201 -0.3514
  373MOL0     C51345  12.063   2.401   2.510  0.4841 -0.0898 -0.0309
  373MOL0     C51346  12.210   2.359   2.525 -0.2893  0.6627 -0.5688
  373MOL0     C51347  12.226   2.242   2.619  0.4411  0.8021 -0.5884
  373MOL0     C51348  12.370   2.219   2.665  0.4603  0.0260  0.4054
  373MOL0     C51349  12.386   2.118   2.777 -0.2766  0.6183 -0.0175
  373MOL0     C51350  12.343   1.969   2.745  0.5664  0.6605 -1.0742
  373MOL0     C51351  12.419   1.876   2.832 -0.1404  0.0780  0.6378
  373MOL0     C51352  12.391   1.731   2.793 -0.1803 -0.0584  0.3026
  373MOL0     N51353  12.465   1.636   2.883 -0.0570 -0.0494  0.3600
  373MOL0     C51354  12.597   1.656   2.913 -0.2386  0.5175 -0.3198
  373MOL0     C51355  12.616   1.581   3.022  0.4287  0.4227 -0.7172
  373MOL0     C51356  12.744   1.560   3.111 -0.2742 -0.7245 -0.1516
  373MOL0     C51357  12.875   1.618   3.060 -0.5905  0.7110  0.6484
  373MOL0     C51358  12.977   1.616   3.171  0.0664  0.1493  0.4255
  373MOL0     C51359  13.121   1.625   3.114 -0.4151 -0.8301 -0.5015
  373MOL0     O51360  13.145   1.744   3.042  0.6011 -0.2072  0.0488
  373MOL0     C51361  13.270   1.776   3.005 -0.0541  0.8301  0.1092
  373MOL0     C51362  13.313   1.908   3.009 -0.2986  0.6068 -0.4694
  373MOL0     C51363  13.447   1.942   2.986 -0.2956  0.4416  0.6565
  373MOL0     C51364  13.480   2.091   3.009  0.8145 -0.5453  0.6911
  373MOL0     C51365  13.540   1.849   2.959  0.5324  0.8503  0.0777
  373MOL0     C51366  13.674   1.869   2.915 -0.2452  0.1853  0.1151
  373MOL0     O51367  13.697   1.970   2.834 -0.6571  0.3090 -0.7170
  373MOL0     C51368  13.821   1.998   2.780 -0.2293  0.2065 -0.7850
  373MOL0     C51369  13.933   2.001   2.859  0.6701  0.4535 -0.9339
  373MOL0     C51370  14.060   2.028   2.811 -0.9747  0.4689 -0.5936
  373MOL0     C51371  14.080   2.048   2.680 -0.4948 -0.4688  0.1997
  373MOL0     O51372  14.209   2.071   2.643  0.0132 -0.6607  0.3568
  373MOL0     C51373  14.238   2.111   2.508 -0.3659  0.6859 -0.1779
  373MOL0     C51374  14.387   2.123   2.514 -1.2530  1.1864 -0.9263
  373MOL0     C51375  14.453   2.180   2.384 -0.2076  0.3622  0.1141
  373MOL0     C51376  14.441   2.085   2.269 -0.2043  0.8600 -0.0887
  373MOL0     C51377  14.329   2.132   2.169  0.1434 -0.0231  0.2620
  373MOL0     C51378  14.398   2.234   2.090 -1.0785 -0.2014  0.5331
  373MOL0     C51379  14.318   2.295   1.975  0.3064 -0.1215 -0.1388
  373MOL0     C51380  14.386   2.397   1.884  0.5936  0.4281 -0.0518
  373MOL0    Cl51381  14.265   2.462   1.767 -0.4925 -0.4730 -0.1539
  373MOL0     C51382  13.979   2.031   2.589 -0.0672 -0.3049  0.1127
  373MOL0     C51383  13.846   2.010   2.646  0.0617 -0.4747  1.0173
  373MOL0     O51384  13.760   1.781   2.938  0.6247  0.3332  0.8551
  373MOL0     C51385  13.493   1.711   2.947  0.5121  0.2406 -0.7238
  373MOL0     C51386  13.360   1.678   2.965  0.2596 -0.5997  0.0291
  373MOL0     N51387  12.503   1.501   3.043  0.0964  0.2627  0.1701
  373MOL0     N51388  12.410   1.548   2.967  0.1028 -0.1237 -0.6143
  373MOL0     C51389  11.811   2.550   2.544 -0.8804 -0.4720 -0.2213
  373MOL0     C51390  11.688   2.601   2.564 -1.2562  0.1200  0.0335
  373MOL0     C51391  11.279   2.724   2.673  0.6335 -0.1606 -0.5033
  373MOL0     C51392  11.149   2.687   2.642 -0.0870 -0.3363  0.0204
  373MOL0     C51393  11.037   2.763   2.679  0.1204  0.5327 -1.0376
  373MOL0     C51394  11.057   2.882   2.751  0.5848  0.2809  0.3449
  373MOL0     O51395  10.954   2.950   2.813  1.1362  0.6719  1.1615
  373MOL0     C51396  10.817   2.897   2.800  0.2354 -0.5721 -0.1699
  373MOL0     C51397  10.732   2.968   2.902 -0.5262 -0.0472  0.4721
  373MOL0     C51398  10.590   2.907   2.909  0.2779  0.4279 -0.6119
  373MOL0     C51399  10.510   2.968   3.030  1.0873 -0.6329  0.0585
  373MOL0     C51400  10.368   2.918   3.026 -0.3800  0.2454 -0.1200
  373MOL0     C51401  10.259   2.870   3.030  0.1672 -0.2098 -0.8163
  373MOL0     C51402  11.188   2.921   2.786  0.2360  0.1456  0.5626
  373MOL0     C51403  11.295   2.847   2.746  0.2937 -0.5241  1.1475
  373MOL0     C51404  11.430   2.904   2.775  0.5216  0.5696 -0.0440
  373MOL0     H51405  11.599   2.449   2.845 -0.4545 -1.2007  0.2055
  373MOL0     H51406  11.851   2.368   2.826  2.4335 -0.0252 -1.3483
  373MOL0     H51407  12.069   2.492   2.449  2.1031 -0.2461 -0.1568
  373MOL0     H51408  12.005   2.331   2.449  0.6669  0.2433 -0.5933
  373MOL0     H51409  12.253   2.329   2.428 -0.4875 -2.8523  0.2928
  373MOL0     H51410  12.256   2.449   2.567 -0.6335  0.5702  0.0071
  373MOL0     H51411  12.175   2.266   2.713  1.8174  2.3876 -0.2061
  373MOL0     H51412  12.173   2.154   2.580 -0.9935  0.5727  1.6880
  373MOL0     H51413  12.430   2.188   2.578 -1.1613  0.5468 -0.9631
  373MOL0     H51414  12.405   2.318   2.697  0.1638  0.4024 -0.3970
  373MOL0     H51415  12.346   2.144   2.875  1.5446 -2.2059  1.6249
  373MOL0     H51416  12.495   2.110   2.791  0.0082 -1.3176 -2.4824
  373MOL0     H51417  12.236   1.963   2.768  1.0356  0.1296  1.2304
  373MOL0     H51418  12.357   1.926   2.646 -0.9324 -2.7557  0.0481
  373MOL0     H51419  12.398   1.876   2.939 -2.8880 -1.1696  0.1889
  373MOL0     H51420  12.526   1.890   2.815 -0.3465 -0.8335 -1.8278
  373MOL0     H51421  12.283   1.715   2.801 -0.1116 -0.2577  0.8927
  373MOL0     H51422  12.411   1.707   2.688 -3.5741  1.6412 -0.8852
  373MOL0     H51423  12.678   1.710   2.866  0.4428 -1.0389 -1.0140
  373MOL0     H51424  12.769   1.454   3.117 -0.4366 -0.7604 -0.0870
  373MOL0     H51425  12.722   1.605   3.209  0.0387  0.7154 -0.7234
  373MOL0     H51426  12.917   1.562   2.976  2.1631  2.0674  1.0221
  373MOL0     H51427  12.863   1.724   3.034  3.4663  0.7814 -1.7309
  373MOL0     H51428  12.968   1.686   3.255  2.3334 -0.2242  1.0420
  373MOL0     H51429  12.968   1.520   3.225 -1.7916  0.1995  0.2773
  373MOL0     H51430  13.194   1.622   3.196 -1.8354 -1.8461  0.8114
  373MOL0     H51431  13.138   1.538   3.050  0.8729  0.5505 -2.0895
  373MOL0     H51432  13.245   1.984   3.046 -0.9911 -1.4367  2.8638
  373MOL0     H51433  13.459   2.126   3.110 -1.8545 -2.2904  0.8412
  373MOL0     H51434  13.439   2.157   2.932 -0.7716 -0.3223  1.6897
  373MOL0     H51435  13.589   2.101   3.011  0.7756  0.1700  0.0224
  373MOL0     H51436  13.927   1.990   2.967  1.5091  0.7386 -0.8495
  373MOL0     H51437  14.137   2.017   2.886 -1.4692 -3.0007 -0.4601
  373MOL0     H51438  14.204   2.042   2.430  0.1519  1.0272 -0.7173
  373MOL0     H51439  14.188   2.207   2.494 -1.3246  0.1946 -0.2359
  373MOL0     H51440  14.426   2.178   2.600  1.3275 -1.9535  0.1424
  373MOL0     H51441  14.437   2.028   2.535  0.0368  2.0308 -0.0119
  373MOL0     H51442  14.561   2.191   2.395  0.1905 -2.2581 -0.5976
  373MOL0     H51443  14.412   2.279   2.364  0.7953  2.0385  4.9784
  373MOL0     H51444  14.417   1.989   2.316  1.7484  1.8418  3.2191
  373MOL0     H51445  14.537   2.075   2.218  1.3016  0.1518  2.6597
  373MOL0     H51446  14.309   2.048   2.102 -2.1931  0.1500  0.6482
  373MOL0     H51447  14.241   2.167   2.223 -0.5859 -3.7802  1.8623
  373MOL0     H51448  14.492   2.195   2.050  0.1266 -0.7058  3.6024
  373MOL0     H51449  14.421   2.318   2.156 -3.0299  0.6237  0.2420
  373MOL0     H51450  14.237   2.347   2.027  1.8364 -1.5043  4.0291
  373MOL0     H51451  14.279   2.217   1.909 -0.9844  1.4866 -1.3443
  373MOL0     H51452  14.466   2.350   1.825 -0.3535  0.9181 -1.8187
  373MOL0     H51453  14.416   2.481   1.946 -0.1943  0.2415  0.6090
  373MOL0     H51454  13.974   2.054   2.483 -1.6859 -0.1963  0.1760
  373MOL0     H51455  13.768   1.996   2.572  1.0365  1.1626 -0.3832
  373MOL0     H51456  13.553   1.632   2.904  0.2479 -0.3347 -0.0629
  373MOL0     H51457  13.351   1.569   2.969  0.8449 -0.6239  2.1669
  373MOL0     H51458  11.876   2.584   2.464 -1.3616  2.0569  0.3644
  373MOL0     H51459  11.654   2.681   2.498 -3.0533 -4.3079 -5.1152
  373MOL0     H51460  11.130   2.598   2.583  0.6990  0.2587 -1.1787
  373MOL0     H51461  10.938   2.730   2.649  0.4277 -2.3774  0.7615
  373MOL0     H51462  10.763   2.911   2.706 -0.9773 -2.0660  0.2678
  373MOL0     H51463  10.823   2.790   2.819  1.3262 -0.4150  0.4421
  373MOL0     H51464  10.717   3.068   2.861 -3.1603 -0.8087 -0.5954
  373MOL0     H51465  10.791   2.953   2.993 -0.5466  1.2984  0.7170
  373MOL0     H51466  10.549   2.924   2.809  1.8520 -2.4448 -1.8821
  373MOL0     H51467  10.580   2.800   2.931 -2.2561  1.2834  3.2440
  373MOL0     H51468  10.499   3.076   3.014  1.7100 -0.6405 -0.4379
  373MOL0     H51469  10.566   2.949   3.122  1.4099  2.1429  0.5410
  373MOL0     H51470  10.158   2.836   3.040 -0.1741  0.2763 -2.3587
  373MOL0     H51471  11.220   3.021   2.816  0.3653  1.2556 -2.8387
  373MOL0     H51472  11.484   2.846   2.850  0.1292  2.3449  1.7072
  373MOL0     H51473  11.494   2.910   2.687  0.1044  0.5957 -0.3488
  373MOL0     H51474  11.422   3.004   2.817  1.5160  0.6998 -0.1499
  374MOL0     O51475   5.541   4.623   2.599  0.3723  0.0259 -0.3270
  374MOL0     C51476   5.531   4.738   2.556 -0.6312  0.1019 -0.2892
  374MOL0     O51477   5.639   4.809   2.510  0.2277  0.4683 -0.2046
  374MOL0     C51478   5.771   4.756   2.495  0.2260  0.0552 -0.1675
  374MOL0     C51479   5.811   4.626   2.496 -0.1927 -0.0852  0.6382
  374MOL0     C51480   5.941   4.584   2.469  0.7042  0.4020 -0.1532
  374MOL0     C51481   6.042   4.682   2.461  0.4882  0.7523  0.8668
  374MOL0     O51482   6.171   4.648   2.450 -0.4464  0.1720 -0.0863
  374MOL0     C51483   6.217   4.515   2.453 -0.1212 -0.0353 -0.5049
  374MOL0     C51484   6.368   4.515   2.465  0.0062  0.7664 -0.3079
  374MOL0     C51485   6.445   4.598   2.367 -0.0919 -0.1403  0.5651
  374MOL0     C51486   6.593   4.563   2.338  0.1615  0.2057 -0.5425
  374MOL0     C51487   6.652   4.652   2.225  0.4245 -0.1336 -0.3438
  374MOL0     C51488   6.800   4.643   2.207 -0.2141 -0.0001 -0.1745
  374MOL0     C51489   6.853   4.743   2.104  1.2515 -0.6364 -0.3513
  374MOL0     C51490   6.996   4.764   2.120  0.7823  0.0202 -0.9720
  374MOL0     N51491   7.090   4.652   2.116 -0.0459 -0.2366 -0.3439
  374MOL0     C51492   7.151   4.602   2.228  0.0413  0.0628  0.4135
  374MOL0     C51493   7.258   4.540   2.178 -0.3578 -0.3539 -0.4860
  374MOL0     C51494   7.364   4.466   2.258  0.9933  0.1440 -0.2196
  374MOL0     C51495   7.473   4.564   2.297 -0.3763  0.8785  0.2180
  374MOL0     C51496   7.594   4.489   2.351  1.0681  0.4346 -0.1784
  374MOL0     C51497   7.683   4.578   2.438 -0.6799  0.5767 -1.3064
  374MOL0     O51498   7.817   4.514   2.467  0.1182 -0.7652 -0.3001
  374MOL0     C51499   7.926   4.594   2.485  0.1786 -0.0464  0.4684
  374MOL0     C51500   8.052   4.533   2.483 -0.6105 -0.0843  0.7611
  374MOL0     C51501   8.171   4.615   2.468  0.0848  0.1673  0.2380
  374MOL0     C51502   8.287   4.525   2.462 -0.4434 -0.5791  0.9403
  374MOL0     C51503   8.156   4.755   2.476  0.4315  0.5022 -0.4272
  374MOL0     C51504   8.267   4.846   2.471 -1.6758 -0.4489 -0.1450
  374MOL0     O51505   8.246   4.975   2.509 -0.0957 -0.2472 -0.3116
  374MOL0     C51506   8.348   5.067   2.507  0.9071 -0.7523 -0.9635
  374MOL0     C51507   8.416   5.098   2.381  0.4829 -0.4935  0.3142
  374MOL0     C51508   8.513   5.196   2.369 -0.8747 -0.2841  0.6237
  374MOL0     C51509   8.562   5.258   2.487 -0.5197  1.4552 -0.6037
  374MOL0     O51510   8.650   5.362   2.463  0.1578 -0.1152  0.4579
  374MOL0     C51511   8.748   5.381   2.563  0.5813  0.3980 -0.0775
  374MOL0     C51512   8.839   5.509   2.541  0.9842 -0.2866 -0.7073
  374MOL0     C51513   8.779   5.635   2.473  0.4826  0.4061 -0.1534
  374MOL0     C51514   8.647   5.674   2.538 -0.0876 -0.1718  0.6964
  374MOL0     C51515   8.580   5.789   2.461  0.5901 -0.3063  0.3378
  374MOL0     C51516   8.471   5.851   2.542 -0.1087 -0.0755  0.0624
  374MOL0     C51517   8.384   5.756   2.631  0.0597  0.0781 -0.5600
  374MOL0     C51518   8.273   5.824   2.706  0.3751 -0.0012 -0.7287
  374MOL0    Cl51519   8.165   5.929   2.607  0.0725  0.1130  0.2800
  374MOL0     C51520   8.512   5.229   2.613 -0.3132 -0.0331 -1.3508
  374MOL0     C51521   8.401   5.130   2.626 -0.2003  0.4834 -0.7364
  374MOL0     O51522   8.372   4.805   2.427 -0.0073  0.2984 -0.0020
  374MOL0     C51523   8.028   4.809   2.503  0.2448 -0.9662  0.4426
  374MOL0     C51524   7.911   4.733   2.497  0.3476  0.8216  0.4474
  374MOL0     N51525   7.252   4.543   2.040 -0.1044  0.2249  0.4250
  374MOL0     N51526   7.156   4.618   2.003  0.0351  0.7362 -0.6613
  374MOL0     C51527   6.006   4.816   2.466 -0.1164 -0.2272  0.4955
  374MOL0     C51528   5.874   4.854   2.480  0.4505 -0.5033 -0.2712
  374MOL0     C51529   5.397   4.796   2.557 -0.8323  0.1892  0.0241
  374MOL0     C51530   5.378   4.903   2.476  0.0945  0.3440  0.2725
  374MOL0     C51531   5.253   4.977   2.475 -0.0774  0.2580 -0.1797
  374MOL0     C51532   5.146   4.941   2.562  0.3150 -0.1268  1.2189
  374MOL0     O51533   5.035   5.019   2.561  0.0940 -0.1006 -0.0059
  374MOL0     C51534   4.938   5.022   2.665  0.7218  0.7320 -0.9350
  374MOL0     C51535   4.823   4.926   2.601 -0.3095  0.2528 -0.0545
  374MOL0     C51536   4.743   4.996   2.487  0.7892  0.1337 -0.0093
  374MOL0     C51537   4.688   5.133   2.531 -0.3726  0.0127  0.8794
  374MOL0     C51538   4.582   5.185   2.441 -0.0630  0.5268  0.8729
  374MOL0     C51539   4.504   5.213   2.354 -0.3779 -0.7478 -0.1993
  374MOL0     C51540   5.175   4.838   2.645 -0.1030 -0.2686  0.1080
  374MOL0     C51541   5.292   4.759   2.649  0.3587 -0.3487  0.2670
  374MOL0     C51542   5.305   4.649   2.758 -0.2010 -0.5731 -0.6858
  374MOL0     H51543   5.736   4.548   2.499 -1.3383  0.8836 -1.1928
  374MOL0     H51544   5.954   4.477   2.455 -1.7634  0.0573 -0.1179
  374MOL0     H51545   6.194   4.478   2.353  0.1650  1.8119 -1.3104
  374MOL0     H51546   6.178   4.454   2.535 -0.4436  1.4032  0.4655
  374MOL0     H51547   6.398   4.525   2.569 -0.0134 -1.1003 -0.0806
  374MOL0     H51548   6.405   4.414   2.444  1.5394  1.3066 -0.2501
  374MOL0     H51549   6.395   4.590   2.270 -0.5144 -1.2047  0.8595
  374MOL0     H51550   6.435   4.702   2.398  0.3926  0.1247 -0.1155
  374MOL0     H51551   6.650   4.583   2.430 -0.2884  2.8059 -0.7777
  374MOL0     H51552   6.600   4.458   2.307 -2.1605 -0.2766  0.4173
  374MOL0     H51553   6.627   4.754   2.257 -1.2126 -0.9236  1.0903
  374MOL0     H51554   6.591   4.638   2.136 -2.0216 -0.1286  1.2500
  374MOL0     H51555   6.844   4.661   2.306 -3.8494 -0.9874  1.8019
  374MOL0     H51556   6.827   4.547   2.163 -2.8693 -1.0701  0.3205
  374MOL0     H51557   6.792   4.833   2.107  0.2770 -1.1535 -2.8115
  374MOL0     H51558   6.834   4.701   2.005 -1.0057 -0.3301 -0.0897
  374MOL0     H51559   7.012   4.842   2.044 -0.0966  0.3161 -0.8637
  374MOL0     H51560   7.006   4.817   2.215 -1.7205  0.2070 -0.7309
  374MOL0     H51561   7.131   4.615   2.333  1.7393 -3.0743  1.2476
  374MOL0     H51562   7.410   4.390   2.196 -0.9394  0.1424 -1.7463
  374MOL0     H51563   7.324   4.428   2.353 -1.6238  1.2799 -0.7780
  374MOL0     H51564   7.499   4.622   2.208  0.5341 -0.9080 -0.7256
  374MOL0     H51565   7.435   4.636   2.370 -0.3805  0.5826  0.5107
  374MOL0     H51566   7.556   4.404   2.409 -0.5958  1.2605 -0.0033
  374MOL0     H51567   7.655   4.446   2.271 -0.7132  1.8684 -2.4596
  374MOL0     H51568   7.695   4.672   2.382  1.6851  0.7632 -0.6149
  374MOL0     H51569   7.633   4.603   2.532 -0.4583  0.3029 -1.1156
  374MOL0     H51570   8.063   4.426   2.480 -3.4546 -0.4558  0.7257
  374MOL0     H51571   8.327   4.510   2.563 -0.2638  0.5493  1.0470
  374MOL0     H51572   8.368   4.557   2.396 -0.7327 -1.9569 -0.1415
  374MOL0     H51573   8.260   4.427   2.421  0.9288 -0.6092  0.0626
  374MOL0     H51574   8.372   5.055   2.291 -2.1505  3.3244 -0.4389
  374MOL0     H51575   8.557   5.226   2.275 -0.0701 -2.4902  0.2556
  374MOL0     H51576   8.706   5.389   2.663  1.0589  0.5023  0.1196
  374MOL0     H51577   8.812   5.293   2.573 -0.7024 -0.5157  0.2276
  374MOL0     H51578   8.878   5.534   2.641 -1.0776  1.4553 -0.2705
  374MOL0     H51579   8.929   5.489   2.481  1.5118  0.7587 -0.2982
  374MOL0     H51580   8.771   5.617   2.366 -2.3739 -0.1520  0.0804
  374MOL0     H51581   8.842   5.724   2.481 -0.4821  0.9784  1.8956
  374MOL0     H51582   8.658   5.706   2.642  0.7338  1.9349  0.0307
  374MOL0     H51583   8.577   5.590   2.533 -0.5893  0.2932 -1.4437
  374MOL0     H51584   8.660   5.858   2.434 -0.9165  1.3588 -0.0381
  374MOL0     H51585   8.542   5.756   2.364 -2.0127 -0.7116  1.4149
  374MOL0     H51586   8.409   5.897   2.464  0.6877  1.6608  0.4179
  374MOL0     H51587   8.522   5.933   2.593 -1.5285  1.5785 -1.0339
  374MOL0     H51588   8.444   5.699   2.704 -0.6133  0.6426  0.4656
  374MOL0     H51589   8.339   5.686   2.561  1.4980 -1.3385 -0.1414
  374MOL0     H51590   8.314   5.891   2.782  0.1209  1.0720 -1.5074
  374MOL0     H51591   8.209   5.749   2.752 -0.8518  1.0244 -0.7047
  374MOL0     H51592   8.550   5.279   2.701  2.3873  0.3702 -2.6394
  374MOL0     H51593   8.359   5.106   2.723 -1.5777  2.3155 -0.8101
  374MOL0     H51594   8.015   4.915   2.522  2.3063 -0.4364 -0.7221
  374MOL0     H51595   7.816   4.786   2.501  0.6019  1.7781 -3.1015
  374MOL0     H51596   6.079   4.894   2.450 -1.1766  0.5501 -0.7247
  374MOL0     H51597   5.840   4.957   2.484 -3.1698 -1.5529 -0.2869
  374MOL0     H51598   5.445   4.915   2.392  1.8350 -2.6016  1.1076
  374MOL0     H51599   5.239   5.052   2.398  0.0644  0.3095 -0.1554
  374MOL0     H51600   4.970   4.973   2.758  1.1916  1.1158 -0.8912
  374MOL0     H51601   4.909   5.121   2.702  0.8362  0.8707 -1.2162
  374MOL0     H51602   4.764   4.914   2.693 -1.3016  1.5936 -0.4947
  374MOL0     H51603   4.865   4.830   2.570 -0.7557  0.4358 -1.2684
  374MOL0     H51604   4.812   5.022   2.407 -1.3520  1.5599 -1.5267
  374MOL0     H51605   4.660   4.938   2.446  0.6361  1.3814 -1.5508
  374MOL0     H51606   4.769   5.205   2.518 -1.6418  1.0283 -2.7356
  374MOL0     H51607   4.655   5.118   2.634 -1.9422  0.9520  0.5537
  374MOL0     H51608   4.442   5.242   2.271 -0.4034  0.7760  0.3161
  374MOL0     H51609   5.110   4.813   2.728  0.7940 -1.4319  0.4991
  374MOL0     H51610   5.391   4.664   2.824 -0.2989 -0.2706 -0.6274
  374MOL0     H51611   5.214   4.635   2.817 -2.0244  3.6630 -2.1310
  374MOL0     H51612   5.324   4.547   2.723  1.6879 -0.4318 -0.1655
  375MOL0     O51613   4.589   6.703   1.100 -0.0605  0.0860 -0.2963
  375MOL0     C51614   4.537   6.791   1.037  0.3475  0.0486  0.2841
  375MOL0     O51615   4.610   6.879   0.961 -0.4220 -0.2226  0.6066
  375MOL0     C51616   4.736   6.855   0.927 -0.5006 -0.8011 -0.7032
  375MOL0     C51617   4.837   6.949   0.942 -0.5425  0.5159 -0.4987
  375MOL0     C51618   4.969   6.918   0.912  0.7705  0.2757  0.0628
  375MOL0     C51619   5.007   6.793   0.852 -0.8308 -0.9645 -0.3293
  375MOL0     O51620   5.133   6.777   0.802  0.0981  0.3697  0.1857
  375MOL0     C51621   5.238   6.875   0.818 -0.2958 -0.0354  0.6076
  375MOL0     C51622   5.346   6.833   0.718 -0.8822 -0.1099  0.1289
  375MOL0     C51623   5.474   6.923   0.711  0.1059 -0.1900  0.3175
  375MOL0     C51624   5.595   6.832   0.707 -1.2788  0.2028  0.3709
  375MOL0     C51625   5.731   6.899   0.683  0.0453  0.5727  0.0701
  375MOL0     C51626   5.844   6.785   0.677  0.6245 -0.8207  0.3439
  375MOL0     C51627   5.883   6.751   0.825 -0.4677 -0.8357  1.1984
  375MOL0     C51628   6.012   6.676   0.823 -0.6348  0.0769 -0.1609
  375MOL0     N51629   6.128   6.757   0.788 -0.3156 -0.6995 -0.1501
  375MOL0     C51630   6.220   6.739   0.683  1.2419 -0.3006 -0.1971
  375MOL0     C51631   6.318   6.824   0.713 -0.2139  0.0469  0.1995
  375MOL0     C51632   6.446   6.848   0.632 -0.8022 -0.1779 -0.0865
  375MOL0     C51633   6.408   6.924   0.500 -0.1180 -0.7179 -0.5261
  375MOL0     C51634   6.529   6.927   0.410 -0.5604  0.2081  0.0691
  375MOL0     C51635   6.625   7.037   0.444  0.0616 -1.0717 -1.1404
  375MOL0     O51636   6.709   7.072   0.335  0.6689  1.0387 -0.4258
  375MOL0     C51637   6.803   7.172   0.349 -0.3971 -1.0814  0.3722
  375MOL0     C51638   6.834   7.252   0.455 -0.4017  0.9681  0.7515
  375MOL0     C51639   6.933   7.352   0.450  0.9759  0.3889 -0.3704
  375MOL0     C51640   6.967   7.413   0.583  0.5065  0.7876  1.0386
  375MOL0     C51641   6.999   7.372   0.327 -0.7218  0.4518 -1.5809
  375MOL0     C51642   7.112   7.471   0.312 -0.5159 -0.7890  0.3028
  375MOL0     O51643   7.113   7.587   0.386  0.0395  0.1964 -0.1273
  375MOL0     C51644   7.227   7.653   0.371 -0.1079 -0.0636 -0.2307
  375MOL0     C51645   7.322   7.646   0.474  0.0862  0.7977  0.2340
  375MOL0     C51646   7.444   7.712   0.449 -0.1388 -1.0069 -0.5723
  375MOL0     C51647   7.469   7.790   0.336  0.1545 -0.3845  0.7215
  375MOL0     O51648   7.596   7.846   0.336  0.3518 -0.6432  0.1457
  375MOL0     C51649   7.664   7.841   0.212  0.5209  0.3137 -0.1775
  375MOL0     C51650   7.821   7.838   0.237 -0.0884 -0.0308  0.1744
  375MOL0     C51651   7.902   7.789   0.114 -0.7422 -0.1218 -0.9387
  375MOL0     C51652   8.046   7.800   0.136 -0.0610  0.6769  0.0958
  375MOL0     C51653   8.107   7.938   0.139  0.3013 -0.3403 -0.6354
  375MOL0     C51654   8.251   7.941   0.079  0.1627 -0.7658  0.3056
  375MOL0     C51655   8.305   8.081   0.051 -0.2626  0.5714 -0.0613
  375MOL0     C51656   8.457   8.077   0.067  0.4847 -0.7141 -0.2730
  375MOL0    Cl51657   8.516   8.063   0.230 -0.3883  0.4633 -0.2611
  375MOL0     C51658   7.367   7.801   0.232 -0.9947 -0.2552 -0.3148
  375MOL0     C51659   7.252   7.732   0.254 -0.3542 -0.1011 -0.9135
  375MOL0     O51660   7.199   7.436   0.226  0.3493 -0.4004  0.0266
  375MOL0     C51661   6.964   7.297   0.217  0.1847 -0.0163  0.0401
  375MOL0     C51662   6.868   7.204   0.228 -0.7046  0.7885 -1.0861
  375MOL0     N51663   6.301   6.870   0.845 -0.0943  0.2645  0.5983
  375MOL0     N51664   6.175   6.841   0.884  0.2371  0.0980  0.0404
  375MOL0     C51665   4.908   6.707   0.820 -0.7513 -0.8347  0.1460
  375MOL0     C51666   4.776   6.733   0.867  0.2273  0.3945 -0.2701
  375MOL0     C51667   4.393   6.831   1.051  0.0408  0.7968 -0.5889
  375MOL0     C51668   4.337   6.927   0.965  0.2375  1.2972  1.2058
  375MOL0     C51669   4.198   6.954   0.957  0.4996 -0.6425  0.3800
  375MOL0     C51670   4.114   6.889   1.046 -0.4395  0.0735 -0.5423
  375MOL0     O51671   3.986   6.922   1.049  0.1604 -0.1061  0.0944
  375MOL0     C51672   3.904   6.883   1.160 -0.2042  0.0973  0.0501
  375MOL0     C51673   3.780   6.965   1.131 -0.1529  0.5372  0.3290
  375MOL0     C51674   3.657   6.904   1.210  0.6878 -0.2680  0.2615
  375MOL0     C51675   3.522   6.951   1.149 -0.2898 -0.5176 -0.4777
  375MOL0     C51676   3.419   6.956   1.258  0.0315 -0.3536  0.8553
  375MOL0     C51677   3.328   6.948   1.342  0.5948 -0.3532  0.8662
  375MOL0     C51678   4.172   6.791   1.133 -0.0504  0.4308  0.6556
  375MOL0     C51679   4.304   6.756   1.129  0.5164  0.3693  0.0781
  375MOL0     C51680   4.346   6.638   1.215 -0.8800  0.6846 -0.6470
  375MOL0     H51681   4.815   7.046   0.986 -1.2904 -0.0360  0.3837
  375MOL0     H51682   5.035   7.002   0.932  0.5390  0.6577 -0.7649
  375MOL0     H51683   5.288   6.871   0.915  1.7532 -0.2994 -0.4256
  375MOL0     H51684   5.211   6.978   0.791  1.4836 -0.2849 -2.5339
  375MOL0     H51685   5.372   6.728   0.726 -2.4541 -0.5950 -0.6949
  375MOL0     H51686   5.295   6.848   0.622  1.5368 -0.6766 -1.3075
  375MOL0     H51687   5.481   6.999   0.633  0.1169 -1.8489 -1.3730
  375MOL0     H51688   5.482   6.979   0.805  0.1051  1.3783 -0.5932
  375MOL0     H51689   5.598   6.774   0.800 -2.2175  0.2996  0.4641
  375MOL0     H51690   5.584   6.757   0.629  0.8033  1.2281 -1.0227
  375MOL0     H51691   5.744   6.985   0.749  1.2837  0.4638 -0.0041
  375MOL0     H51692   5.717   6.937   0.581 -2.7424 -0.1311  0.1138
  375MOL0     H51693   5.799   6.694   0.637 -1.7725  0.3872  0.1488
  375MOL0     H51694   5.930   6.824   0.622  0.8896 -1.2771  0.4275
  375MOL0     H51695   5.810   6.683   0.870 -0.7188 -0.0448  2.0124
  375MOL0     H51696   5.893   6.839   0.889  0.2627  0.4542 -0.6221
  375MOL0     H51697   6.038   6.641   0.923  2.3888 -0.8787 -1.1832
  375MOL0     H51698   6.006   6.585   0.762 -1.2043  0.6602 -1.0074
  375MOL0     H51699   6.210   6.672   0.598  1.3637 -0.7975  0.1787
  375MOL0     H51700   6.498   6.757   0.603  0.6502  0.5862  0.0333
  375MOL0     H51701   6.522   6.908   0.682 -1.1529  3.7720 -3.7335
  375MOL0     H51702   6.326   6.871   0.451 -1.2071 -0.4235  0.9211
  375MOL0     H51703   6.381   7.026   0.528  1.4954 -0.5580  0.5930
  375MOL0     H51704   6.581   6.831   0.416  2.8368  1.8888 -0.3602
  375MOL0     H51705   6.490   6.935   0.309  0.6127 -2.7614 -0.7247
  375MOL0     H51706   6.567   7.124   0.475  0.1824 -1.7298  1.1235
  375MOL0     H51707   6.669   6.988   0.531 -4.5898  0.3245  2.3954
  375MOL0     H51708   6.776   7.228   0.544 -0.6100  0.5445  0.5054
  375MOL0     H51709   6.947   7.520   0.581 -0.4381  0.6002 -0.3088
  375MOL0     H51710   7.070   7.394   0.616  0.7056  2.7514  1.6814
  375MOL0     H51711   6.907   7.370   0.663  1.8230 -1.1210  1.0840
  375MOL0     H51712   7.303   7.580   0.559 -2.1270 -0.3258 -1.0513
  375MOL0     H51713   7.521   7.722   0.525  1.2963 -0.7246 -2.0027
  375MOL0     H51714   7.635   7.751   0.157  1.1864  0.4091 -0.6862
  375MOL0     H51715   7.637   7.927   0.151  1.8704  1.2152  0.4488
  375MOL0     H51716   7.857   7.937   0.268 -1.8940 -0.2017  3.1983
  375MOL0     H51717   7.842   7.774   0.323 -0.4691  1.0435  1.0899
  375MOL0     H51718   7.874   7.848   0.026 -0.0824  1.4932 -0.1151
  375MOL0     H51719   7.883   7.684   0.091 -0.0269 -0.2308 -1.0467
  375MOL0     H51720   8.086   7.748   0.049 -0.5118  2.1055 -0.9912
  375MOL0     H51721   8.079   7.738   0.220  1.2441  0.1063 -0.7972
  375MOL0     H51722   8.048   7.996   0.067 -1.4711 -1.5547 -0.2260
  375MOL0     H51723   8.102   7.973   0.242  1.8845 -3.1697  0.5056
  375MOL0     H51724   8.247   7.889  -0.018  0.6994 -2.0973  0.9604
  375MOL0     H51725   8.312   7.879   0.146  0.3674  1.3226  2.1508
  375MOL0     H51726   8.255   8.147   0.123 -1.8130 -0.5902 -0.0053
  375MOL0     H51727   8.265   8.108  -0.047 -1.6452  0.4679  0.4511
  375MOL0     H51728   8.499   8.165   0.016 -0.0615  0.3197  1.0010
  375MOL0     H51729   8.495   7.989   0.015 -1.3205 -1.9035  0.3471
  375MOL0     H51730   7.393   7.865   0.148 -2.1434  2.0281  0.9588
  375MOL0     H51731   7.173   7.749   0.182 -0.2793  0.1416 -0.9413
  375MOL0     H51732   7.008   7.308   0.119  0.3220  0.6769  0.1749
  375MOL0     H51733   6.856   7.144   0.139 -1.8033 -0.8157  0.0952
  375MOL0     H51734   4.923   6.618   0.759 -1.6735 -0.6274 -0.4100
  375MOL0     H51735   4.704   6.658   0.834  2.3318 -1.3920 -1.0183
  375MOL0     H51736   4.398   6.981   0.893  1.3354 -2.5469 -1.0398
  375MOL0     H51737   4.168   7.034   0.891  1.9194 -0.3595  0.0310
  375MOL0     H51738   3.884   6.776   1.158 -0.0678 -0.0092  2.1136
  375MOL0     H51739   3.950   6.896   1.258  0.0206  1.3213 -0.1964
  375MOL0     H51740   3.767   6.983   1.024  0.6789 -1.0775 -0.0814
  375MOL0     H51741   3.798   7.065   1.173 -2.6273  0.2875  2.2538
  375MOL0     H51742   3.662   6.795   1.218  1.0247 -0.1343  2.8278
  375MOL0     H51743   3.665   6.926   1.317  0.5960  0.0447  0.2045
  375MOL0     H51744   3.489   6.875   1.078 -0.6363  0.0851 -0.9783
  375MOL0     H51745   3.538   7.051   1.106  0.1839  0.0081  0.8651
  375MOL0     H51746   3.248   6.953   1.413  0.0249  0.8907  0.1663
  375MOL0     H51747   4.098   6.732   1.187 -1.8201  2.0747  0.1605
  375MOL0     H51748   4.412   6.571   1.158 -0.1859  1.2477 -0.5209
  375MOL0     H51749   4.394   6.660   1.311 -1.4943  0.2319 -0.2253
  375MOL0     H51750   4.259   6.573   1.233 -1.1946  1.7963  2.5418
  376MOL0     O51751   9.898  11.000  10.639  0.3000 -0.8697 -0.4959
  376MOL0     C51752   9.833  10.968  10.737  0.5613  1.0102 -0.1378
  376MOL0     O51753   9.885  10.915  10.856  0.3496 -0.3456  0.1730
  376MOL0     C51754  10.018  10.935  10.878 -1.1067 -0.1063  0.0082
  376MOL0     C51755  10.074  10.828  10.947 -0.4821  0.2768 -0.3111
  376MOL0     C51756  10.205  10.828  10.975  0.5620 -0.5308 -0.3002
  376MOL0     C51757  10.288  10.938  10.945 -0.2841  0.6622  0.7280
  376MOL0     O51758  10.424  10.938  10.982 -0.7253  0.2981  0.1825
  376MOL0     C51759  10.462  10.873  11.109  0.8105  0.6191  0.8502
  376MOL0     C51760  10.600  10.930  11.138 -0.7831 -1.2099 -0.0038
  376MOL0     C51761  10.596  11.076  11.179  0.9232 -0.1790  0.3147
  376MOL0     C51762  10.733  11.119  11.237 -0.5776 -0.3298  0.1541
  376MOL0     C51763  10.839  11.128  11.121 -0.0511  0.2865 -1.0271
  376MOL0     C51764  10.987  11.165  11.169  0.7700  0.0236  0.1573
  376MOL0     C51765  11.002  11.311  11.223 -0.1996  0.0654 -0.0232
  376MOL0     C51766  11.022  11.413  11.111  0.1224  0.0220  0.1013
  376MOL0     N51767  10.984  11.538  11.169 -0.4305 -0.5062 -0.5843
  376MOL0     C51768  11.069  11.615  11.237  0.9650  0.0195  0.0354
  376MOL0     C51769  10.998  11.719  11.284 -0.3334  0.4471 -0.1205
  376MOL0     C51770  11.055  11.824  11.376  0.3548  0.1847  0.0274
  376MOL0     C51771  11.143  11.931  11.298 -0.3791 -0.5403 -0.1804
  376MOL0     C51772  11.240  11.999  11.401 -0.1749 -0.7674  0.1464
  376MOL0     C51773  11.342  12.087  11.326 -0.0113  0.1118  0.1541
  376MOL0     O51774  11.409  12.021  11.227  0.1541  0.4518  0.2663
  376MOL0     C51775  11.522  12.093  11.184 -0.2177  1.3596  0.5900
  376MOL0     C51776  11.535  12.225  11.161 -0.4184  0.5535  1.0359
  376MOL0     C51777  11.653  12.293  11.129  0.0526  0.2776 -0.6988
  376MOL0     C51778  11.640  12.438  11.109 -0.3105 -0.8047 -0.1962
  376MOL0     C51779  11.770  12.211  11.110  1.2250 -0.8134 -0.2257
  376MOL0     C51780  11.908  12.256  11.097  0.4331  0.6801  0.3884
  376MOL0     O51781  11.927  12.388  11.112 -0.0422  0.0187  0.0726
  376MOL0     C51782  12.033  12.442  11.046  0.0216 -0.8625  0.0252
  376MOL0     C51783  12.076  12.395  10.924 -0.4198 -0.1007  0.3539
  376MOL0     C51784  12.183  12.441  10.860  0.3189 -0.1469  0.1064
  376MOL0     C51785  12.244  12.559  10.909 -0.3542  0.1902 -0.3126
  376MOL0     O51786  12.343  12.613  10.834  0.5196  1.0214  0.4323
  376MOL0     C51787  12.429  12.717  10.879  0.2363  0.8534  0.1758
  376MOL0     C51788  12.566  12.702  10.825 -0.3234 -0.9268 -0.5416
  376MOL0     C51789  12.578  12.727  10.682  0.6121  0.2477  0.4410
  376MOL0     C51790  12.722  12.726  10.624  0.1562 -0.5607 -0.2027
  376MOL0     C51791  12.707  12.704  10.473 -0.9052  0.2158 -0.8583
  376MOL0     C51792  12.837  12.733  10.400 -0.3092  0.2088 -1.1150
  376MOL0     C51793  12.833  12.716  10.243  0.2897 -0.1536 -0.5392
  376MOL0     C51794  12.749  12.833  10.176  0.3705 -0.1624  0.6548
  376MOL0    Cl51795  12.718  12.783  10.004  0.2038 -0.1120 -0.0246
  376MOL0     C51796  12.203  12.621  11.028 -0.0475  0.5196  0.1903
  376MOL0     C51797  12.102  12.557  11.093 -0.0277 -0.5339 -0.7501
  376MOL0     O51798  11.992  12.171  11.088 -1.0991  0.4889  0.6531
  376MOL0     C51799  11.749  12.070  11.115  0.7187  0.0916  0.5903
  376MOL0     C51800  11.629  12.011  11.158 -0.6556  0.6781  0.0751
  376MOL0     N51801  10.864  11.703  11.244  0.0095  0.1286 -0.0104
  376MOL0     N51802  10.860  11.589  11.172 -0.6897  0.1535 -0.2021
  376MOL0     C51803  10.230  11.048  10.884 -0.8969 -0.1232  0.2841
  376MOL0     C51804  10.093  11.050  10.847 -0.3932  0.1588  0.0160
  376MOL0     C51805   9.686  10.962  10.725 -1.1174  0.1613  1.3543
  376MOL0     C51806   9.616  10.865  10.785  0.3875  0.2353 -0.1095
  376MOL0     C51807   9.476  10.853  10.772 -0.0306 -0.0715  0.6969
  376MOL0     C51808   9.405  10.958  10.713  0.0133  1.4823 -0.1525
  376MOL0     O51809   9.271  10.936  10.723 -0.1898 -0.0004 -0.0129
  376MOL0     C51810   9.185  11.009  10.635 -0.6741 -0.2317  0.1210
  376MOL0     C51811   9.037  10.989  10.680  0.0264  0.3018 -0.4521
  376MOL0     C51812   8.958  11.117  10.683  0.2541  0.2010  0.5477
  376MOL0     C51813   8.793  11.101  10.677  0.9842  0.6533 -0.3050
  376MOL0     C51814   8.737  11.079  10.546 -0.3317 -0.3110 -0.7848
  376MOL0     C51815   8.676  11.064  10.440 -0.4685  0.0741 -0.0497
  376MOL0     C51816   9.475  11.063  10.657 -0.8655  0.6698  0.3075
  376MOL0     C51817   9.619  11.068  10.656  0.5920  0.4531 -0.3977
  376MOL0     C51818   9.688  11.180  10.584 -0.0021 -0.7967 -0.1659
  376MOL0     H51819  10.024  10.732  10.955  1.1354 -0.7499 -1.7243
  376MOL0     H51820  10.235  10.741  11.033  0.9947 -0.5783 -0.5932
  376MOL0     H51821  10.473  10.767  11.082 -0.0174  0.8910 -0.6181
  376MOL0     H51822  10.391  10.869  11.193  1.6828 -2.6508  1.5822
  376MOL0     H51823  10.645  10.882  11.226 -1.1073 -1.4103  0.0525
  376MOL0     H51824  10.659  10.919  11.047 -0.8275 -1.8572  0.0433
  376MOL0     H51825  10.577  11.138  11.091  1.0241  1.5040  1.4383
  376MOL0     H51826  10.521  11.098  11.255  0.4945  2.3717 -0.7366
  376MOL0     H51827  10.707  11.218  11.274  0.4483 -0.2409  0.6829
  376MOL0     H51828  10.776  11.055  11.315  2.4342  1.6406  0.2927
  376MOL0     H51829  10.799  11.203  11.052 -0.5746  1.3588  0.3864
  376MOL0     H51830  10.855  11.026  11.084  1.2459 -0.6670  1.8760
  376MOL0     H51831  11.019  11.090  11.243 -0.3151  0.2273  0.8488
  376MOL0     H51832  11.057  11.152  11.086 -3.1746  1.4722 -3.7710
  376MOL0     H51833  11.098  11.313  11.276  1.5948 -0.4449 -3.0028
  376MOL0     H51834  10.919  11.335  11.289  0.0856  0.2671  0.2650
  376MOL0     H51835  11.120  11.415  11.063  1.0853  2.0211  1.9736
  376MOL0     H51836  10.950  11.390  11.032 -0.2109 -1.0920  0.7009
  376MOL0     H51837  11.177  11.612  11.246  1.0538  0.4994 -0.8299
  376MOL0     H51838  11.112  11.768  11.451 -0.1923 -2.1190 -1.2005
  376MOL0     H51839  10.971  11.874  11.426 -0.8576  0.8838 -2.5737
  376MOL0     H51840  11.203  11.879  11.223 -1.1341  0.7851 -1.7599
  376MOL0     H51841  11.081  12.009  11.253 -1.1396 -0.0984  1.5380
  376MOL0     H51842  11.184  12.071  11.463  1.8315  2.2260 -1.2951
  376MOL0     H51843  11.279  11.930  11.477 -1.2898  1.3255  2.7885
  376MOL0     H51844  11.292  12.174  11.282  0.1215  1.4539  2.5358
  376MOL0     H51845  11.419  12.108  11.401  0.3678 -3.6070  0.9876
  376MOL0     H51846  11.443  12.282  11.169 -1.9262 -1.2632 -1.6212
  376MOL0     H51847  11.541  12.457  11.067 -1.3347 -0.9575  2.0321
  376MOL0     H51848  11.715  12.472  11.037 -1.6348 -1.9973 -2.2424
  376MOL0     H51849  11.651  12.489  11.205 -1.2251  1.6977 -1.3341
  376MOL0     H51850  12.020  12.311  10.882 -2.6656  1.8476 -0.8092
  376MOL0     H51851  12.217  12.403  10.764 -2.6079  1.8474 -1.8961
  376MOL0     H51852  12.390  12.814  10.847 -3.4104  0.4278  2.6444
  376MOL0     H51853  12.449  12.713  10.986  2.2175 -1.9585 -0.1958
  376MOL0     H51854  12.631  12.774  10.875 -0.1895 -2.6629  1.9706
  376MOL0     H51855  12.596  12.597  10.836 -1.1991 -1.2320 -1.0327
  376MOL0     H51856  12.525  12.819  10.656 -0.7174 -0.4951  0.4631
  376MOL0     H51857  12.515  12.658  10.626  1.5317 -0.2373 -0.0157
  376MOL0     H51858  12.776  12.645  10.675  0.7826  0.4022  0.7097
  376MOL0     H51859  12.771  12.822  10.645 -0.8054 -0.4007  1.4764
  376MOL0     H51860  12.670  12.602  10.455  0.4132 -0.5863  0.6920
  376MOL0     H51861  12.632  12.778  10.445  0.0578  0.8631 -1.8587
  376MOL0     H51862  12.917  12.667  10.437 -0.6374  1.0955  1.3902
  376MOL0     H51863  12.876  12.835  10.413  0.7073  0.3746 -4.5523
  376MOL0     H51864  12.778  12.623  10.227 -1.3064  1.1523 -3.6574
  376MOL0     H51865  12.935  12.705  10.204  0.5604 -1.4700  0.4919
  376MOL0     H51866  12.807  12.926  10.174  0.6066 -0.2912  1.3907
  376MOL0     H51867  12.653  12.845  10.227  0.3778 -0.7652  0.8126
  376MOL0     H51868  12.259  12.703  11.071  1.2985  1.1147 -2.4529
  376MOL0     H51869  12.059  12.607  11.180 -2.0263 -1.5417 -1.0846
  376MOL0     H51870  11.830  12.003  11.090 -0.0103  0.0267 -1.8302
  376MOL0     H51871  11.630  11.904  11.175 -1.2616  0.6913  0.2260
  376MOL0     H51872  10.288  11.138  10.862 -1.4766  0.1906  0.0065
  376MOL0     H51873  10.043  11.134  10.798  0.5927  0.5674 -0.2989
  376MOL0     H51874   9.654  10.787  10.849 -1.7076 -1.1278 -0.4238
  376MOL0     H51875   9.418  10.776  10.823  1.3903 -0.4171  1.8383
  376MOL0     H51876   9.201  11.117  10.628 -2.5685  0.1919  1.4035
  376MOL0     H51877   9.191  10.973  10.532 -1.6822 -1.1353  0.3613
  376MOL0     H51878   9.025  10.930  10.772  1.3730  0.5996 -0.0617
  376MOL0     H51879   9.000  10.931  10.595 -1.0193 -0.9040  0.7782
  376MOL0     H51880   8.994  11.183  10.763  0.7128 -0.0727  0.5716
  376MOL0     H51881   8.980  11.176  10.593  1.4223 -0.0672  0.6386
  376MOL0     H51882   8.748  11.193  10.716  0.7419 -0.2404  1.5994
  376MOL0     H51883   8.775  11.012  10.737 -0.4044  2.2083  1.7047
  376MOL0     H51884   8.624  11.040  10.349  0.8531  0.9468 -1.0833
  376MOL0     H51885   9.408  11.125  10.598 -0.5826 -2.3000 -3.5503
  376MOL0     H51886   9.736  11.147  10.491 -0.2842  0.6293 -0.8366
  376MOL0     H51887   9.611  11.250  10.552  1.3177  0.6403 -0.3339
  376MOL0     H51888   9.761  11.236  10.645  0.0125  1.1916 -1.8769
  377MOL0     O51889   6.004   3.732   8.537 -0.7104 -0.0207 -0.7478
  377MOL0     C51890   6.037   3.633   8.597  0.4458 -0.2347 -0.3372
  377MOL0     O51891   6.159   3.573   8.586 -0.5899  0.0578 -0.7999
  377MOL0     C51892   6.272   3.648   8.569 -0.0212  0.2231  0.8075
  377MOL0     C51893   6.302   3.774   8.628 -0.1843 -0.5080  1.2535
  377MOL0     C51894   6.428   3.841   8.616 -0.4532 -0.2386  0.6820
  377MOL0     C51895   6.533   3.772   8.554  0.3403 -0.4331 -0.1543
  377MOL0     O51896   6.652   3.831   8.553 -0.7207 -0.9986 -0.1663
  377MOL0     C51897   6.720   3.832   8.427 -0.1448  0.0467  0.0913
  377MOL0     C51898   6.763   3.976   8.400  0.3647 -0.2278 -0.2496
  377MOL0     C51899   6.639   4.061   8.393 -0.7510 -0.4916  0.5378
  377MOL0     C51900   6.687   4.193   8.329  0.8446 -0.7517  0.0260
  377MOL0     C51901   6.576   4.298   8.303 -0.3983 -0.0792 -0.6372
  377MOL0     C51902   6.616   4.415   8.210  0.2610  0.3907 -0.4344
  377MOL0     C51903   6.728   4.497   8.262  0.1373 -0.0166 -0.1842
  377MOL0     C51904   6.767   4.611   8.164  0.2111 -0.7081 -0.2324
  377MOL0     N51905   6.887   4.688   8.220  0.5145  0.2092 -0.7090
  377MOL0     C51906   6.895   4.824   8.221 -0.1541  0.4183  0.0919
  377MOL0     C51907   7.023   4.842   8.259 -0.4772 -0.3929  0.3126
  377MOL0     C51908   7.090   4.971   8.251 -0.1251 -0.0478 -0.1773
  377MOL0     C51909   7.219   4.976   8.337  0.4002 -0.5393 -0.1135
  377MOL0     C51910   7.281   5.109   8.350 -0.7125 -0.0267  0.3861
  377MOL0     C51911   7.401   5.109   8.448  0.8175 -0.0247 -0.3222
  377MOL0     O51912   7.353   5.101   8.575 -0.5386 -0.1472  0.3012
  377MOL0     C51913   7.448   5.117   8.676  0.1430 -0.1657 -0.0857
  377MOL0     C51914   7.412   5.177   8.796 -0.2746 -0.7084 -0.2667
  377MOL0     C51915   7.502   5.210   8.897  0.1010  0.0709  0.3328
  377MOL0     C51916   7.450   5.291   9.021 -0.1795 -0.3439 -0.0391
  377MOL0     C51917   7.641   5.171   8.888 -0.4032 -0.8239 -0.0500
  377MOL0     C51918   7.734   5.181   9.005 -0.1367  0.2727 -0.7853
  377MOL0     O51919   7.722   5.270   9.113 -0.0014  0.1696  0.7688
  377MOL0     C51920   7.822   5.295   9.206 -1.0670  0.2874  0.7225
  377MOL0     C51921   7.859   5.427   9.238  0.1181 -0.3248  0.6452
  377MOL0     C51922   7.963   5.446   9.339 -0.0488  0.1743  0.8539
  377MOL0     C51923   8.028   5.341   9.404  0.3458 -0.1079 -0.0231
  377MOL0     O51924   8.117   5.350   9.509 -0.4497 -0.5596 -0.0199
  377MOL0     C51925   8.186   5.478   9.517 -0.3215  0.1424 -0.1267
  377MOL0     C51926   8.292   5.473   9.623  0.3760  0.0327  0.6572
  377MOL0     C51927   8.411   5.384   9.580 -0.8394  0.8760 -0.5088
  377MOL0     C51928   8.530   5.385   9.673 -0.2806  0.6931 -0.1245
  377MOL0     C51929   8.656   5.327   9.603  0.3958 -0.0915  0.1965
  377MOL0     C51930   8.746   5.283   9.708 -0.2760 -0.8774 -0.1808
  377MOL0     C51931   8.865   5.225   9.648 -0.4785  0.2418  0.0981
  377MOL0     C51932   8.964   5.174   9.752  0.3858  0.3831  0.0941
  377MOL0    Cl51933   9.014   5.311   9.842 -0.2343 -0.1701  0.1676
  377MOL0     C51934   7.992   5.210   9.362  0.7226  0.8367  0.2622
  377MOL0     C51935   7.889   5.189   9.276 -0.4856  0.4652 -0.3406
  377MOL0     O51936   7.823   5.106   8.995 -0.3894  0.3010 -0.5354
  377MOL0     C51937   7.684   5.119   8.766  0.5620  0.0400  0.3422
  377MOL0     C51938   7.591   5.098   8.662  0.6389  1.2965  0.1387
  377MOL0     N51939   7.091   4.717   8.277  0.4852  0.1913 -0.1148
  377MOL0     N51940   7.002   4.623   8.268  0.1500 -0.0333 -0.1777
  377MOL0     C51941   6.507   3.652   8.490 -0.4280 -0.3994 -0.0895
  377MOL0     C51942   6.379   3.600   8.484  0.6769 -0.4057 -1.4016
  377MOL0     C51943   5.936   3.578   8.693  0.1066  0.3821  0.1556
  377MOL0     C51944   5.979   3.484   8.784 -0.2231  0.1280 -0.2446
  377MOL0     C51945   5.903   3.421   8.880 -0.2769  0.0500  0.9721
  377MOL0     C51946   5.766   3.443   8.879 -0.3516  0.5246 -1.0385
  377MOL0     O51947   5.667   3.382   8.953  0.0225  0.7858  0.5145
  377MOL0     C51948   5.710   3.298   9.065  0.4904  0.2992  0.1614
  377MOL0     C51949   5.749   3.152   9.026 -0.0118 -0.7738  0.2339
  377MOL0     C51950   5.777   3.039   9.137  1.1509 -0.0782  1.0429
  377MOL0     C51951   5.885   3.076   9.222  0.2852  0.1037 -0.4160
  377MOL0     C51952   5.913   2.962   9.303 -0.2369  0.6807 -0.1224
  377MOL0     C51953   5.934   2.867   9.375  0.5937  0.2185 -0.0573
  377MOL0     C51954   5.712   3.538   8.795 -0.0235 -0.5139  0.5845
  377MOL0     C51955   5.791   3.601   8.702  0.2354 -0.7309  0.5175
  377MOL0     C51956   5.718   3.705   8.609 -0.3510 -0.1929 -0.3533
  377MOL0     H51957   6.224   3.824   8.685 -1.7984  1.8723 -2.6171
  377MOL0     H51958   6.447   3.940   8.656  2.8647 -0.1841 -0.7066
  377MOL0     H51959   6.667   3.784   8.344  0.0297 -0.1485  0.0906
  377MOL0     H51960   6.801   3.760   8.444 -0.3750 -0.2422 -0.0235
  377MOL0     H51961   6.835   4.015   8.472 -1.6583  1.7002  0.8630
  377MOL0     H51962   6.813   3.967   8.303  1.2893 -1.1128  0.2919
  377MOL0     H51963   6.568   4.018   8.321  1.1692  1.4151 -2.7534
  377MOL0     H51964   6.591   4.087   8.488 -0.6397 -1.4493  0.8630
  377MOL0     H51965   6.769   4.233   8.389 -0.3986  0.7800  0.7802
  377MOL0     H51966   6.730   4.168   8.231 -1.2506 -0.6946 -0.9555
  377MOL0     H51967   6.550   4.317   8.407  1.6231  0.7510 -0.2292
  377MOL0     H51968   6.490   4.246   8.260  0.3123 -1.5433 -0.3352
  377MOL0     H51969   6.644   4.375   8.112  1.5862  1.6599 -0.5929
  377MOL0     H51970   6.521   4.468   8.201  1.2396  2.5729  1.0941
  377MOL0     H51971   6.816   4.438   8.291  0.0140 -1.5702 -2.6842
  377MOL0     H51972   6.695   4.545   8.355 -2.3122 -0.0783 -0.9428
  377MOL0     H51973   6.801   4.563   8.072 -0.1776  0.5809 -1.0848
  377MOL0     H51974   6.681   4.678   8.157 -0.2734 -1.3461 -0.4691
  377MOL0     H51975   6.816   4.893   8.195  1.0168  1.4678 -0.7691
  377MOL0     H51976   7.019   5.047   8.285 -0.7308  0.2696 -2.0406
  377MOL0     H51977   7.101   4.992   8.144  2.6459  0.6129  0.1622
  377MOL0     H51978   7.188   4.923   8.427 -0.7236 -0.0009 -0.1676
  377MOL0     H51979   7.296   4.915   8.289 -0.0234 -0.8923 -0.3511
  377MOL0     H51980   7.319   5.138   8.252 -0.3356 -0.6181  0.3536
  377MOL0     H51981   7.205   5.174   8.394  0.1309  1.5632 -0.4243
  377MOL0     H51982   7.474   5.031   8.421  2.0554  1.2905 -0.8958
  377MOL0     H51983   7.454   5.204   8.442  1.7522 -0.5238 -0.2009
  377MOL0     H51984   7.308   5.192   8.823 -0.2981 -1.8431  0.3212
  377MOL0     H51985   7.341   5.282   9.028  0.0345 -1.8720  2.4795
  377MOL0     H51986   7.479   5.396   9.010 -3.3417  0.5859 -0.6747
  377MOL0     H51987   7.489   5.249   9.114 -0.0098 -2.1958 -0.8906
  377MOL0     H51988   7.815   5.517   9.197 -0.0475 -1.4350 -1.7579
  377MOL0     H51989   7.983   5.550   9.362 -0.0478  0.3589  0.0184
  377MOL0     H51990   8.233   5.499   9.421  0.5830 -1.6573 -0.1129
  377MOL0     H51991   8.114   5.558   9.538 -0.2718  0.1812 -0.0994
  377MOL0     H51992   8.330   5.575   9.628  2.2394 -0.5012 -1.1553
  377MOL0     H51993   8.252   5.454   9.723 -0.5267  0.0418  0.3078
  377MOL0     H51994   8.456   5.413   9.485 -0.5632  1.1216 -0.3063
  377MOL0     H51995   8.367   5.284   9.570 -0.5944  0.4775  1.8334
  377MOL0     H51996   8.503   5.322   9.758  0.9910 -3.1993 -2.3521
  377MOL0     H51997   8.559   5.486   9.704 -1.0338  0.9863 -0.3519
  377MOL0     H51998   8.624   5.247   9.535 -2.2089  2.5136 -1.8785
  377MOL0     H51999   8.700   5.400   9.534 -2.6789 -1.6905 -3.8508
  377MOL0     H52000   8.692   5.212   9.772 -2.6710  0.6459 -0.3957
  377MOL0     H52001   8.767   5.376   9.760 -2.5919 -0.4442  0.0859
  377MOL0     H52002   8.923   5.301   9.594  0.2674  0.8915  1.7513
  377MOL0     H52003   8.832   5.143   9.583 -2.4448  1.1835 -0.1312
  377MOL0     H52004   9.047   5.127   9.698 -1.0233 -1.0109 -0.9305
  377MOL0     H52005   8.918   5.110   9.827 -0.1765  2.9963  2.1571
  377MOL0     H52006   8.030   5.117   9.402 -1.7624 -0.3662  0.0135
  377MOL0     H52007   7.861   5.088   9.247 -2.1215 -0.0808  2.6664
  377MOL0     H52008   7.789   5.101   8.742  0.6580 -2.4300  2.2883
  377MOL0     H52009   7.630   5.070   8.565  0.3128  1.1925  0.0381
  377MOL0     H52010   6.592   3.602   8.445  0.0117  0.0785  0.2049
  377MOL0     H52011   6.360   3.510   8.426  2.3324  0.0455 -2.7265
  377MOL0     H52012   6.084   3.458   8.789  0.5687  3.1599  2.1534
  377MOL0     H52013   5.950   3.348   8.946  0.9535 -1.6877 -1.6383
  377MOL0     H52014   5.787   3.353   9.119  0.5224  1.1227 -0.6896
  377MOL0     H52015   5.625   3.301   9.134  0.1290  1.8620 -0.2996
  377MOL0     H52016   5.842   3.160   8.969  1.6982  1.2477  3.0412
  377MOL0     H52017   5.681   3.111   8.950  0.8717 -0.8271 -0.5492
  377MOL0     H52018   5.686   3.030   9.196 -1.4656 -0.1943 -2.6757
  377MOL0     H52019   5.786   2.945   9.082 -2.3137 -1.1991  2.1692
  377MOL0     H52020   5.863   3.162   9.285  0.1052 -0.2061 -0.0506
  377MOL0     H52021   5.969   3.110   9.161 -0.6879  0.7870 -1.4143
  377MOL0     H52022   5.950   2.790   9.448 -0.4037 -0.2322 -0.2983
  377MOL0     H52023   5.605   3.558   8.800 -0.1478 -0.1948 -1.8637
  377MOL0     H52024   5.765   3.800   8.636  3.7432 -2.1887  0.3961
  377MOL0     H52025   5.743   3.701   8.503 -3.3575 -1.1226 -1.1244
  377MOL0     H52026   5.610   3.717   8.621 -0.2871 -0.0440  0.1354
  378MOL0     O52027   4.125   6.818   3.583 -0.3271  0.6135 -0.6840
  378MOL0     C52028   4.084   6.709   3.530  0.5235  0.7647 -0.6590
  378MOL0     O52029   4.145   6.632   3.437 -0.0181 -0.1313  0.2005
  378MOL0     C52030   4.268   6.676   3.387 -0.1728 -0.1858  0.1700
  378MOL0     C52031   4.279   6.712   3.253 -0.3051  0.0807  0.4105
  378MOL0     C52032   4.402   6.752   3.200 -0.4061  0.3902  0.6792
  378MOL0     C52033   4.523   6.746   3.273  0.4445  0.0512 -0.4951
  378MOL0     O52034   4.640   6.784   3.209  0.1690 -0.1615 -0.5618
  378MOL0     C52035   4.735   6.837   3.298 -0.0764 -0.3667  0.2975
  378MOL0     C52036   4.836   6.919   3.222 -1.1256  0.0805  0.1841
  378MOL0     C52037   4.971   6.910   3.300 -0.1155  0.0782 -0.4327
  378MOL0     C52038   5.074   7.011   3.238  0.2493  0.7119  0.8161
  378MOL0     C52039   5.204   7.015   3.308  0.2382 -0.4216 -0.2751
  378MOL0     C52040   5.284   7.138   3.269  0.3785 -0.3737  0.0156
  378MOL0     C52041   5.234   7.271   3.341 -0.7159  0.7403 -0.7134
  378MOL0     C52042   5.283   7.288   3.486  0.7505 -0.6827  0.6031
  378MOL0     N52043   5.430   7.266   3.513  0.3977 -1.0661  0.4158
  378MOL0     C52044   5.537   7.283   3.424 -0.8308 -0.0169 -1.6560
  378MOL0     C52045   5.642   7.236   3.497  0.1232  0.1963 -0.5829
  378MOL0     C52046   5.782   7.233   3.438  0.0555  0.5892  0.4234
  378MOL0     C52047   5.878   7.166   3.541 -0.4973  0.3319  0.2873
  378MOL0     C52048   6.010   7.148   3.463 -0.4585 -0.2953 -0.7417
  378MOL0     C52049   6.116   7.081   3.550 -0.5508  0.0464 -0.8642
  378MOL0     O52050   6.121   7.154   3.672 -0.0905  0.0822 -0.9459
  378MOL0     C52051   6.234   7.138   3.751  0.6235  0.8262 -0.5055
  378MOL0     C52052   6.295   7.018   3.764 -0.5171  0.6110  0.5243
  378MOL0     C52053   6.410   7.007   3.841  1.0146  0.2839 -0.1303
  378MOL0     C52054   6.465   6.867   3.854 -0.0366 -0.8485 -0.6137
  378MOL0     C52055   6.465   7.119   3.912  0.1204 -0.1050 -0.3001
  378MOL0     C52056   6.587   7.115   3.988 -0.1944 -0.0813  0.4085
  378MOL0     O52057   6.706   7.093   3.930 -0.5797 -0.5612  0.2492
  378MOL0     C52058   6.823   7.097   4.003  0.8992  1.0494 -0.0118
  378MOL0     C52059   6.850   7.023   4.119  0.4035 -0.6801 -0.1534
  378MOL0     C52060   6.971   7.039   4.186 -0.5996  1.4348 -0.4583
  378MOL0     C52061   7.074   7.113   4.128 -0.3713 -0.3148  0.4590
  378MOL0     O52062   7.187   7.124   4.207 -0.0986 -0.6342 -0.7941
  378MOL0     C52063   7.308   7.178   4.151  0.8399 -0.8202 -0.4091
  378MOL0     C52064   7.437   7.139   4.218  0.3943  0.1894  0.6879
  378MOL0     C52065   7.474   6.995   4.228 -0.0176  0.5164 -0.1561
  378MOL0     C52066   7.523   6.930   4.091 -0.0078 -1.1937 -1.3273
  378MOL0     C52067   7.593   6.806   4.127 -1.4325  0.3446 -0.2412
  378MOL0     C52068   7.607   6.712   4.014 -0.7281  0.0122  0.2402
  378MOL0     C52069   7.662   6.574   4.054 -0.0062  0.0117  0.4147
  378MOL0     C52070   7.637   6.461   3.957  0.5157 -0.5405 -0.7540
  378MOL0    Cl52071   7.684   6.502   3.788  0.4707  0.1530 -0.4163
  378MOL0     C52072   7.054   7.174   4.005  0.7519  0.0499  0.4839
  378MOL0     C52073   6.929   7.165   3.948 -0.2654  0.2164 -0.7222
  378MOL0     O52074   6.572   7.150   4.107 -0.2507  0.7979  0.0215
  378MOL0     C52075   6.390   7.235   3.903 -0.6828  0.3392 -0.9400
  378MOL0     C52076   6.279   7.246   3.817  0.0301 -0.0789  0.6863
  378MOL0     N52077   5.597   7.191   3.624  0.0430  0.6387  0.3018
  378MOL0     N52078   5.469   7.209   3.634  0.0320 -0.9655 -0.5566
  378MOL0     C52079   4.510   6.716   3.419  0.2325  0.3658  0.1525
  378MOL0     C52080   4.389   6.678   3.471 -0.5843  0.6360 -0.1187
  378MOL0     C52081   3.950   6.658   3.581 -0.3051  0.9017 -0.9583
  378MOL0     C52082   3.859   6.745   3.639  0.3609 -0.2064  0.1762
  378MOL0     C52083   3.735   6.699   3.685 -1.0084 -0.0683 -0.2114
  378MOL0     C52084   3.698   6.568   3.682  0.0613 -0.3162  0.6431
  378MOL0     O52085   3.583   6.534   3.749  0.2003 -0.2886  0.3526
  378MOL0     C52086   3.501   6.417   3.715  0.1819  0.6756 -0.2351
  378MOL0     C52087   3.349   6.452   3.734 -0.3290 -0.2438 -0.2778
  378MOL0     C52088   3.252   6.327   3.723 -0.1579  0.7330  0.5141
  378MOL0     C52089   3.274   6.240   3.600  0.3391 -0.8838 -0.0375
  378MOL0     C52090   3.171   6.132   3.601  0.2457  0.3730 -0.1551
  378MOL0     C52091   3.087   6.048   3.619  0.3257  0.2363 -0.0821
  378MOL0     C52092   3.785   6.481   3.624 -0.4836 -0.1564  0.1678
  378MOL0     C52093   3.905   6.524   3.577  0.8468 -0.1414 -0.1334
  378MOL0     C52094   3.985   6.413   3.514  0.5169  0.2396  0.2099
  378MOL0     H52095   4.189   6.713   3.192 -2.4771  1.7123  3.3610
  378MOL0     H52096   4.407   6.787   3.097  1.0864 -0.5420  0.4096
  378MOL0     H52097   4.786   6.760   3.356  4.0521  3.0319  1.7192
  378MOL0     H52098   4.674   6.899   3.364 -1.0558  1.8111 -2.4520
  378MOL0     H52099   4.854   6.874   3.124  0.0014 -1.3891  1.0250
  378MOL0     H52100   4.806   7.023   3.207 -0.0926  0.7118  2.2090
  378MOL0     H52101   4.932   6.935   3.399 -0.8150  1.3572 -1.0079
  378MOL0     H52102   5.011   6.808   3.298 -0.0815 -0.0804  2.8698
  378MOL0     H52103   5.086   6.984   3.132  2.5146  3.3402  0.2952
  378MOL0     H52104   5.028   7.110   3.240 -0.5116  0.3557  2.0530
  378MOL0     H52105   5.253   6.921   3.284 -0.2939 -1.4029  2.1397
  378MOL0     H52106   5.182   7.022   3.415 -1.1853 -0.2182 -0.5572
  378MOL0     H52107   5.390   7.122   3.291  1.4973  2.7563 -2.4261
  378MOL0     H52108   5.276   7.146   3.161 -0.7064  2.1007  0.2244
  378MOL0     H52109   5.124   7.277   3.342 -0.6356  2.5578  0.2891
  378MOL0     H52110   5.263   7.356   3.280  1.3502 -0.6040 -1.7135
  378MOL0     H52111   5.258   7.389   3.520  0.4068 -0.3759 -0.5037
  378MOL0     H52112   5.228   7.214   3.545 -0.4750  0.3372  0.7825
  378MOL0     H52113   5.528   7.311   3.319  0.1492  2.1139 -1.2381
  378MOL0     H52114   5.812   7.333   3.407 -1.7512  0.1417 -3.4121
  378MOL0     H52115   5.771   7.178   3.344  5.7610 -1.1159  0.3263
  378MOL0     H52116   5.907   7.229   3.626 -0.6145 -0.1930  0.7233
  378MOL0     H52117   5.833   7.072   3.576  0.2096  0.0644  0.5137
  378MOL0     H52118   5.994   7.085   3.375 -2.1448 -1.8956  0.6355
  378MOL0     H52119   6.039   7.250   3.435  0.6120 -1.1247 -2.8873
  378MOL0     H52120   6.093   6.976   3.574 -0.6119  0.5422  1.4677
  378MOL0     H52121   6.211   7.083   3.496 -0.9524 -0.7291 -1.6285
  378MOL0     H52122   6.265   6.928   3.711 -2.8961  3.4577 -3.3989
  378MOL0     H52123   6.545   6.863   3.779  1.7283  0.8689  1.0442
  378MOL0     H52124   6.403   6.779   3.833 -0.7597 -0.5173  0.1070
  378MOL0     H52125   6.507   6.854   3.955 -0.9515  2.4711  0.3186
  378MOL0     H52126   6.767   6.968   4.163  0.0717 -1.4406 -1.6614
  378MOL0     H52127   6.985   6.999   4.286 -1.8714 -1.3246 -1.2706
  378MOL0     H52128   7.307   7.155   4.044 -0.9911 -0.2880 -0.5414
  378MOL0     H52129   7.290   7.284   4.172 -2.2326 -1.7560  2.9054
  378MOL0     H52130   7.510   7.191   4.155 -0.7220 -1.0721 -1.8447
  378MOL0     H52131   7.428   7.171   4.322  0.7574  0.0112  0.7752
  378MOL0     H52132   7.402   6.929   4.279  3.6726 -1.6665  2.7988
  378MOL0     H52133   7.558   6.994   4.298  1.0524  0.3051 -1.4153
  378MOL0     H52134   7.598   6.992   4.039 -0.3088  0.1981 -0.1920
  378MOL0     H52135   7.436   6.914   4.027 -0.8060  0.1060 -0.6202
  378MOL0     H52136   7.691   6.818   4.174 -0.6575 -0.2685 -1.6319
  378MOL0     H52137   7.544   6.747   4.205  0.4617  0.0637  0.8068
  378MOL0     H52138   7.676   6.750   3.938  1.7196 -1.4754  1.5610
  378MOL0     H52139   7.506   6.703   3.975 -1.5727 -0.0460  2.3109
  378MOL0     H52140   7.626   6.538   4.151 -1.8901 -1.8846 -0.8989
  378MOL0     H52141   7.769   6.585   4.074 -0.0785  0.0023  0.8228
  378MOL0     H52142   7.530   6.438   3.962  0.3698  0.3124  1.5413
  378MOL0     H52143   7.700   6.375   3.982  0.1569 -0.8414 -0.8781
  378MOL0     H52144   7.128   7.228   3.946 -0.9409  1.1923 -0.6992
  378MOL0     H52145   6.916   7.218   3.854  0.0728  0.8336 -0.4209
  378MOL0     H52146   6.427   7.325   3.952  1.3186  0.1804 -2.0051
  378MOL0     H52147   6.233   7.342   3.799 -0.0415  0.0367  1.4429
  378MOL0     H52148   4.598   6.716   3.483 -0.7109  1.1982  1.4985
  378MOL0     H52149   4.379   6.636   3.570 -5.0504  0.4163 -0.4364
  378MOL0     H52150   3.881   6.851   3.644  0.9507 -0.3521  0.8956
  378MOL0     H52151   3.662   6.762   3.736  1.6609  3.2939 -0.2334
  378MOL0     H52152   3.508   6.384   3.611 -0.3872  0.6273 -0.2613
  378MOL0     H52153   3.525   6.334   3.781  1.2657  0.7888 -0.4796
  378MOL0     H52154   3.307   6.521   3.660 -1.5692 -1.5289 -0.8234
  378MOL0     H52155   3.351   6.492   3.835  4.0855  1.2754 -0.7574
  378MOL0     H52156   3.278   6.271   3.813  1.9081  1.5257  0.4741
  378MOL0     H52157   3.146   6.351   3.736  0.2980  2.2367  1.8310
  378MOL0     H52158   3.372   6.191   3.609  0.7610  0.0444  0.6679
  378MOL0     H52159   3.262   6.297   3.507  2.0351  0.4407  0.4888
  378MOL0     H52160   3.027   5.960   3.614  1.4543 -0.7077  1.7946
  378MOL0     H52161   3.759   6.376   3.637 -3.0313  0.5159  1.1997
  378MOL0     H52162   3.981   6.422   3.405 -5.0765  0.4493  0.1432
  378MOL0     H52163   4.086   6.412   3.555  0.3533  0.3711  0.6163
  378MOL0     H52164   3.949   6.313   3.539  1.0947 -0.2077 -0.6984
  379MOL0     O52165   7.195   9.680   0.762 -0.4162  0.4538 -1.0677
  379MOL0     C52166   7.163   9.716   0.650  0.1303 -0.2830  0.5361
  379MOL0     O52167   7.248   9.735   0.543  0.4831  0.5631 -0.1844
  379MOL0     C52168   7.391   9.727   0.550 -0.9468  0.0627 -0.5635
  379MOL0     C52169   7.474   9.667   0.646 -0.7554 -0.3661 -0.1092
  379MOL0     C52170   7.615   9.685   0.645  0.2201 -0.6723 -0.3004
  379MOL0     C52171   7.678   9.757   0.537 -0.0285 -0.0145  0.3058
  379MOL0     O52172   7.812   9.753   0.522  0.0039 -0.0541  0.1558
  379MOL0     C52173   7.873   9.621   0.537 -0.1623  0.0927  0.2778
  379MOL0     C52174   7.971   9.572   0.428  0.4077  0.1032  0.1245
  379MOL0     C52175   8.108   9.643   0.416 -0.1898 -0.1514 -0.0233
  379MOL0     C52176   8.196   9.606   0.288  0.2098 -0.0782  0.0003
  379MOL0     C52177   8.329   9.695   0.287  0.2657 -0.1958 -0.8759
  379MOL0     C52178   8.406   9.674   0.166  0.3040 -0.0241  0.7756
  379MOL0     C52179   8.537   9.749   0.165 -0.2376 -0.3528 -0.2286
  379MOL0     C52180   8.620   9.721   0.042  0.0048  0.5071  0.5727
  379MOL0     N52181   8.742   9.802   0.024 -0.7011 -0.5291  0.4953
  379MOL0     C52182   8.797   9.901   0.101  0.0427 -0.2205  0.4871
  379MOL0     C52183   8.909   9.948   0.039  0.5092  0.0215  0.0475
  379MOL0     C52184   9.002  10.059   0.089 -0.1901  0.2939 -0.1915
  379MOL0     C52185   9.137  10.064   0.017  0.9519  0.2540  0.2607
  379MOL0     C52186   9.161  10.174  -0.085 -0.3001  0.6612 -0.9145
  379MOL0     C52187   9.180  10.314  -0.025  0.2155  0.6239  0.3033
  379MOL0     O52188   9.268  10.310   0.086 -0.6649  0.4577 -0.3593
  379MOL0     C52189   9.411  10.288   0.071 -0.3107 -0.1020 -0.0262
  379MOL0     C52190   9.473  10.235   0.191  0.3373  0.2699 -0.4230
  379MOL0     C52191   9.614  10.202   0.190 -0.3932 -0.4140 -0.1752
  379MOL0     C52192   9.668  10.146   0.321  0.0034 -0.6660 -0.2660
  379MOL0     C52193   9.686  10.220   0.075 -1.1108  0.2737 -0.0705
  379MOL0     C52194   9.816  10.172   0.059  0.6554 -0.9949 -0.7437
  379MOL0     O52195   9.831  10.039   0.056 -0.1567  0.0753  0.2711
  379MOL0     C52196   9.960   9.987   0.026 -0.2459 -0.3740  1.2934
  379MOL0     C52197   9.971   9.876  -0.062  0.1732  0.1809 -0.1431
  379MOL0     C52198  10.099   9.818  -0.081  1.2184  0.0672 -0.4183
  379MOL0     C52199  10.214   9.870  -0.036 -0.7032  0.5159  0.5176
  379MOL0     O52200  10.340   9.805  -0.048  0.4117 -0.6705  0.3321
  379MOL0     C52201  10.346   9.679  -0.107 -1.0224  0.1266 -0.3722
  379MOL0     C52202  10.495   9.639  -0.092 -0.3287  0.9052 -0.0338
  379MOL0     C52203  10.531   9.635   0.059  1.5080 -0.1842  0.4315
  379MOL0     C52204  10.685   9.635   0.065  0.6649 -0.1711  0.1131
  379MOL0     C52205  10.734   9.620   0.206  0.0805 -0.2556 -0.7315
  379MOL0     C52206  10.882   9.596   0.241 -0.1194 -0.1155 -0.0809
  379MOL0     C52207  10.922   9.467   0.173  1.0468  0.1958  0.1752
  379MOL0     C52208  11.039   9.407   0.251 -0.3681  0.1613 -0.2138
  379MOL0    Cl52209  11.175   9.534   0.243 -0.0190 -0.0300 -0.3033
  379MOL0     C52210  10.207   9.982   0.048  0.1711 -0.1725 -0.3189
  379MOL0     C52211  10.084  10.047   0.078 -0.0666  0.1969 -0.3794
  379MOL0     O52212   9.904  10.259   0.031  0.0611  0.0009 -0.7432
  379MOL0     C52213   9.618  10.269  -0.037  0.1890 -0.0748  0.7596
  379MOL0     C52214   9.487  10.307  -0.045 -0.4839  0.0587 -0.3463
  379MOL0     N52215   8.922   9.876  -0.077 -0.3806  0.0359  0.0405
  379MOL0     N52216   8.830   9.784  -0.083  0.3899 -0.5755 -0.6838
  379MOL0     C52217   7.593   9.815   0.440  0.1650  0.2383  0.7396
  379MOL0     C52218   7.453   9.798   0.452 -0.3486  0.3601 -0.1508
  379MOL0     C52219   7.025   9.726   0.608  0.6457  0.7006  0.1318
  379MOL0     C52220   6.929   9.641   0.674 -0.2815  0.3859  1.1603
  379MOL0     C52221   6.796   9.641   0.629  0.3658 -0.0167  0.6211
  379MOL0     C52222   6.747   9.729   0.530 -0.2506  0.0709 -0.8354
  379MOL0     O52223   6.627   9.736   0.468 -0.8548 -0.0261 -0.1894
  379MOL0     C52224   6.510   9.688   0.538  0.1321  0.4530  0.0840
  379MOL0     C52225   6.469   9.563   0.460 -0.5696 -0.7065  0.5812
  379MOL0     C52226   6.438   9.565   0.309 -0.3616  0.3520  0.1069
  379MOL0     C52227   6.329   9.662   0.283  0.5662  0.4992 -0.7103
  379MOL0     C52228   6.295   9.647   0.142 -0.6455  0.7343 -0.0448
  379MOL0     C52229   6.283   9.626   0.024 -0.5575  0.1562  0.0468
  379MOL0     C52230   6.839   9.821   0.473 -0.3947  0.5536 -0.1105
  379MOL0     C52231   6.972   9.810   0.507 -0.2873  0.4879  0.1605
  379MOL0     C52232   7.065   9.901   0.428 -0.4086 -0.5583  0.4223
  379MOL0     H52233   7.423   9.612   0.724  1.6068 -3.1937 -0.3712
  379MOL0     H52234   7.675   9.632   0.718  1.6723  0.8329 -0.3426
  379MOL0     H52235   7.792   9.549   0.525  1.1764 -1.0014 -4.1056
  379MOL0     H52236   7.918   9.622   0.636  1.3678  1.3344 -0.3688
  379MOL0     H52237   7.983   9.464   0.435  1.0201  0.1952  0.5921
  379MOL0     H52238   7.913   9.594   0.338  0.3536 -0.2404  0.0750
  379MOL0     H52239   8.088   9.750   0.407  2.4296  0.2782 -1.7636
  379MOL0     H52240   8.156   9.623   0.513  0.1959  0.4134 -0.0967
  379MOL0     H52241   8.222   9.500   0.285 -0.0890 -0.1427 -1.8450
  379MOL0     H52242   8.131   9.618   0.200  0.2413 -0.3998 -0.0716
  379MOL0     H52243   8.380   9.650   0.373 -2.3985  0.3752  1.1741
  379MOL0     H52244   8.319   9.803   0.304 -1.0848 -0.2179 -1.4001
  379MOL0     H52245   8.411   9.567   0.144 -0.3264 -0.7502  3.6437
  379MOL0     H52246   8.361   9.718   0.077  1.0682 -1.3428 -0.2875
  379MOL0     H52247   8.596   9.708   0.247  2.7813  0.0487 -2.0486
  379MOL0     H52248   8.519   9.856   0.173  0.2799 -0.2710 -0.1342
  379MOL0     H52249   8.651   9.616   0.036 -1.3070  0.0334  1.6355
  379MOL0     H52250   8.563   9.741  -0.049  2.3898 -0.1493 -1.1822
  379MOL0     H52251   8.775   9.935   0.202  1.5243  1.5510  0.2726
  379MOL0     H52252   9.027  10.043   0.194 -3.4362 -2.4276  0.3518
  379MOL0     H52253   8.956  10.158   0.094  1.8232  1.2281  0.8655
  379MOL0     H52254   9.218  10.066   0.091  1.8940 -0.8025 -0.6908
  379MOL0     H52255   9.136   9.966  -0.032  0.1957  0.5516 -0.3303
  379MOL0     H52256   9.255  10.149  -0.136 -1.1593  1.1507 -2.8292
  379MOL0     H52257   9.085  10.175  -0.164 -0.5928  0.9146 -0.6316
  379MOL0     H52258   9.219  10.379  -0.104  0.5664 -1.0709 -0.9736
  379MOL0     H52259   9.084  10.356   0.007  1.1076  1.8470  1.4930
  379MOL0     H52260   9.418  10.232   0.284 -0.0068 -1.3173 -0.6553
  379MOL0     H52261   9.582  10.094   0.363 -1.5310  0.5635 -1.7395
  379MOL0     H52262   9.687  10.238   0.377  1.4038 -1.4965  0.6982
  379MOL0     H52263   9.768  10.101   0.313  0.9352  1.4595 -1.8245
  379MOL0     H52264   9.883   9.835  -0.110  1.9687 -0.5129 -3.1390
  379MOL0     H52265  10.097   9.729  -0.142 -0.2957 -0.6986  0.6753
  379MOL0     H52266  10.274   9.606  -0.069 -1.3707  0.0343 -1.1955
  379MOL0     H52267  10.327   9.684  -0.214  0.5257 -0.5384 -0.7083
  379MOL0     H52268  10.517   9.546  -0.145 -0.3108  0.2039  1.1667
  379MOL0     H52269  10.552   9.718  -0.140 -0.5712  1.2306  0.2127
  379MOL0     H52270  10.484   9.544   0.097 -1.0241  0.6789 -0.4429
  379MOL0     H52271  10.500   9.729   0.107  1.9023 -0.1007  0.5274
  379MOL0     H52272  10.717   9.728   0.016  0.9025  0.7709  1.9633
  379MOL0     H52273  10.712   9.545   0.009  1.7895 -0.5214  1.1830
  379MOL0     H52274  10.699   9.704   0.266  0.0022  0.0249 -1.1666
  379MOL0     H52275  10.680   9.537   0.254  1.0074 -0.4136  0.0671
  379MOL0     H52276  10.888   9.586   0.349  0.1644 -1.7225 -0.2193
  379MOL0     H52277  10.944   9.681   0.212 -1.1123  0.7642  0.2949
  379MOL0     H52278  10.942   9.489   0.067 -3.9349  2.7815 -0.5093
  379MOL0     H52279  10.840   9.395   0.174  1.2991 -0.2199 -2.4837
  379MOL0     H52280  11.082   9.315   0.209  0.4595  0.7054 -0.5722
  379MOL0     H52281  11.017   9.381   0.355  1.7725 -3.0323 -0.3856
  379MOL0     H52282  10.294  10.026   0.094  1.9503 -2.6579 -1.1031
  379MOL0     H52283  10.074  10.125   0.152  1.8385 -1.3064  1.5991
  379MOL0     H52284   9.672  10.282  -0.130 -2.6404  1.3456 -0.7945
  379MOL0     H52285   9.442  10.354  -0.132 -2.6224  0.1385  0.7294
  379MOL0     H52286   7.641   9.861   0.354  0.2966  0.3722  0.8841
  379MOL0     H52287   7.377   9.837   0.385 -4.2144  0.1172  3.6285
  379MOL0     H52288   6.965   9.572   0.749  0.1810 -0.7295 -0.0483
  379MOL0     H52289   6.722   9.575   0.674  1.7542 -0.3022  2.6512
  379MOL0     H52290   6.522   9.668   0.645 -0.8731  0.9328  0.2976
  379MOL0     H52291   6.425   9.756   0.530 -1.0141 -1.0466 -0.8942
  379MOL0     H52292   6.381   9.516   0.503 -0.4590 -1.3928  0.0834
  379MOL0     H52293   6.553   9.492   0.466  0.9800  0.9684 -0.2022
  379MOL0     H52294   6.532   9.597   0.263 -1.0937  1.4356 -0.6688
  379MOL0     H52295   6.409   9.468   0.269 -1.3182  0.3029  0.8901
  379MOL0     H52296   6.363   9.764   0.305  0.5027 -0.1006  2.6755
  379MOL0     H52297   6.239   9.648   0.344  0.5815  2.4363 -0.1768
  379MOL0     H52298   6.288   9.604  -0.081 -0.3938 -3.9327  0.7219
  379MOL0     H52299   6.828   9.888   0.389  3.4290 -0.0900 -1.2943
  379MOL0     H52300   7.011   9.964   0.356 -2.9637 -2.7336  0.3003
  379MOL0     H52301   7.123   9.955   0.503 -0.4201 -1.6110  1.2131
  379MOL0     H52302   7.129   9.832   0.372  2.1955  1.8075  0.2338
  380MOL0     O52303   5.080   6.825   4.879 -0.2378  0.0804  0.1255
  380MOL0     C52304   5.005   6.916   4.884  0.0411 -0.9329 -0.8072
  380MOL0     O52305   5.032   7.042   4.828 -0.5829 -0.6114  0.0290
  380MOL0     C52306   5.166   7.079   4.813  1.0148 -0.4095  0.8730
  380MOL0     C52307   5.191   7.155   4.701 -0.5935 -0.0902 -0.3873
  380MOL0     C52308   5.318   7.219   4.692  0.1756  0.9102  0.8508
  380MOL0     C52309   5.420   7.191   4.785 -0.1270 -0.4541 -0.4945
  380MOL0     O52310   5.546   7.235   4.776 -0.9684  0.6422 -0.3695
  380MOL0     C52311   5.605   7.200   4.650 -0.9363  0.2173  0.1207
  380MOL0     C52312   5.756   7.233   4.644 -0.1709 -0.0784 -0.0816
  380MOL0     C52313   5.823   7.150   4.742 -0.0809 -0.3085  0.3023
  380MOL0     C52314   5.975   7.146   4.728 -0.3590 -0.6438  0.5985
  380MOL0     C52315   6.025   7.049   4.829  0.3473  0.1013  0.5627
  380MOL0     C52316   6.177   7.012   4.804  1.1346 -0.9208 -0.5988
  380MOL0     C52317   6.233   6.949   4.925 -0.3968  0.5826 -0.7609
  380MOL0     C52318   6.363   7.003   4.976  0.4672 -0.3211 -1.0050
  380MOL0     N52319   6.441   6.909   5.052 -0.2120 -0.4000  0.2718
  380MOL0     C52320   6.486   6.784   5.006 -0.3722 -0.3096  0.2688
  380MOL0     C52321   6.547   6.737   5.125 -0.2930 -0.5696  0.0413
  380MOL0     C52322   6.593   6.597   5.145 -0.0301  0.1657  0.9724
  380MOL0     C52323   6.747   6.587   5.122  0.7401 -0.0153 -0.4338
  380MOL0     C52324   6.778   6.443   5.142  0.4729  0.8766 -0.7980
  380MOL0     C52325   6.926   6.403   5.124 -0.1310 -0.4481  0.0359
  380MOL0     O52326   6.996   6.474   5.227 -0.2875  0.4558  1.1607
  380MOL0     C52327   7.137   6.461   5.225  0.2068  0.4614 -1.0345
  380MOL0     C52328   7.202   6.360   5.168 -0.1702 -0.3779 -0.1285
  380MOL0     C52329   7.348   6.367   5.158  0.1245 -0.3193 -0.0683
  380MOL0     C52330   7.414   6.245   5.099  0.8758 -0.0666 -0.1036
  380MOL0     C52331   7.419   6.472   5.221 -0.1505 -0.8412 -0.8011
  380MOL0     C52332   7.564   6.480   5.254  0.2948  0.0446 -0.0365
  380MOL0     O52333   7.628   6.598   5.271 -1.1691 -0.2122  0.9947
  380MOL0     C52334   7.764   6.601   5.299  0.2903  0.0690  0.0713
  380MOL0     C52335   7.807   6.613   5.434  0.4968  0.6065  0.1004
  380MOL0     C52336   7.946   6.593   5.467  0.0546 -0.5139 -0.0596
  380MOL0     C52337   8.042   6.583   5.368 -0.8629 -1.4092 -0.0096
  380MOL0     O52338   8.181   6.578   5.380 -0.2660  0.1709  0.3445
  380MOL0     C52339   8.247   6.581   5.509  0.2160  0.4596  0.0157
  380MOL0     C52340   8.374   6.662   5.494 -0.2116 -0.9539  0.7302
  380MOL0     C52341   8.489   6.561   5.449  0.4407  0.2422  0.3289
  380MOL0     C52342   8.631   6.623   5.404  0.2061 -0.4144 -0.3702
  380MOL0     C52343   8.714   6.516   5.334 -0.3634 -0.2871 -0.3659
  380MOL0     C52344   8.861   6.567   5.329 -0.2579 -0.3831  0.0395
  380MOL0     C52345   8.950   6.484   5.232  0.0336  0.3677  0.9243
  380MOL0     C52346   9.107   6.513   5.252 -0.2934 -0.4032 -0.1809
  380MOL0    Cl52347   9.147   6.692   5.247  0.2767 -0.0324  0.3054
  380MOL0     C52348   8.005   6.591   5.236  0.3309 -0.1659  0.6778
  380MOL0     C52349   7.867   6.596   5.202 -0.2368 -0.7055  0.0683
  380MOL0     O52350   7.619   6.371   5.269 -0.4510  0.4542 -0.2348
  380MOL0     C52351   7.348   6.570   5.287 -0.7309 -0.0013  0.3422
  380MOL0     C52352   7.207   6.565   5.290 -0.2511 -0.6905 -0.3535
  380MOL0     N52353   6.543   6.836   5.223  0.4381  0.1607 -0.8552
  380MOL0     N52354   6.467   6.935   5.186 -0.4000  0.5475  0.4364
  380MOL0     C52355   5.392   7.108   4.892 -0.5894  0.1885 -0.0269
  380MOL0     C52356   5.269   7.046   4.903  0.4675  0.7441  0.3167
  380MOL0     C52357   4.862   6.903   4.924  0.3227  0.9636 -0.0301
  380MOL0     C52358   4.765   6.990   4.868  0.1669  1.1446  0.0159
  380MOL0     C52359   4.633   6.985   4.910 -0.0153  1.0534 -0.6694
  380MOL0     C52360   4.600   6.906   5.018  0.9759 -0.4158 -0.3037
  380MOL0     O52361   4.469   6.913   5.055  0.0951  0.3565  0.3913
  380MOL0     C52362   4.432   6.961   5.181 -0.2536  0.4447  0.4869
  380MOL0     C52363   4.309   6.866   5.234  0.2425 -0.7535  0.0793
  380MOL0     C52364   4.183   6.909   5.167 -0.8614  0.7770 -0.6022
  380MOL0     C52365   4.059   6.879   5.254 -0.6591  0.1008  0.2115
  380MOL0     C52366   4.056   6.731   5.282 -0.0584  0.1011  0.2997
  380MOL0     C52367   4.056   6.616   5.294  0.1971 -0.6541  0.3415
  380MOL0     C52368   4.696   6.830   5.079 -0.2605  0.2913  0.9161
  380MOL0     C52369   4.822   6.813   5.028 -0.4762  0.2360  0.4391
  380MOL0     C52370   4.910   6.711   5.097 -0.2548 -1.3381  0.1069
  380MOL0     H52371   5.123   7.154   4.617 -2.3540 -4.7334  0.7983
  380MOL0     H52372   5.337   7.277   4.602  1.5315 -1.2128 -0.3352
  380MOL0     H52373   5.556   7.253   4.567 -0.6011 -0.3936 -0.4737
  380MOL0     H52374   5.584   7.096   4.624  1.3710 -0.1234 -0.5789
  380MOL0     H52375   5.790   7.204   4.544  1.1076  1.5627 -0.1701
  380MOL0     H52376   5.773   7.341   4.658  1.3715 -0.1699 -1.0002
  380MOL0     H52377   5.805   7.205   4.835  0.6367  0.2919  0.0964
  380MOL0     H52378   5.777   7.051   4.744  2.2277 -1.6417 -3.1508
  380MOL0     H52379   6.012   7.113   4.630  1.6753  0.8249  0.8137
  380MOL0     H52380   6.022   7.243   4.747  0.6747 -0.1527 -3.4836
  380MOL0     H52381   5.970   6.955   4.816  0.3810  0.4755 -4.7701
  380MOL0     H52382   6.001   7.087   4.929  3.6191 -1.1432  1.9375
  380MOL0     H52383   6.187   6.944   4.718 -1.9374 -1.2191 -0.8414
  380MOL0     H52384   6.232   7.104   4.782 -0.5591  0.4929  0.8247
  380MOL0     H52385   6.250   6.843   4.906 -2.1149 -0.2791  2.0111
  380MOL0     H52386   6.163   6.960   5.008 -3.8694  1.0334 -3.4915
  380MOL0     H52387   6.426   7.036   4.892  2.5941  1.0269  0.9870
  380MOL0     H52388   6.345   7.093   5.035  0.2072 -0.5650 -0.7154
  380MOL0     H52389   6.456   6.730   4.917 -3.2402  0.5831  0.6052
  380MOL0     H52390   6.542   6.533   5.073 -0.6821  1.6598  0.0614
  380MOL0     H52391   6.567   6.565   5.246  0.9352 -0.6436  0.9844
  380MOL0     H52392   6.751   6.611   5.015 -2.8993  1.7329 -0.3348
  380MOL0     H52393   6.795   6.663   5.185 -0.2882 -2.0498  3.0262
  380MOL0     H52394   6.733   6.409   5.236 -2.7464  0.0332 -2.5240
  380MOL0     H52395   6.719   6.391   5.066 -1.3835  0.9533  0.5253
  380MOL0     H52396   6.930   6.296   5.146 -0.5606 -0.4100  0.3184
  380MOL0     H52397   6.957   6.422   5.021  0.1704 -0.4636  0.1228
  380MOL0     H52398   7.144   6.279   5.125 -0.1689 -1.5491  1.9439
  380MOL0     H52399   7.478   6.268   5.014  0.3468  0.1215 -0.4526
  380MOL0     H52400   7.342   6.173   5.060  2.2633 -1.0781 -0.8731
  380MOL0     H52401   7.471   6.197   5.179  1.0289  0.8965  0.3930
  380MOL0     H52402   7.729   6.609   5.509  1.4796 -2.1308  1.1168
  380MOL0     H52403   7.972   6.585   5.572 -2.5780 -0.6808  0.6518
  380MOL0     H52404   8.182   6.632   5.580  0.4610 -0.5133  0.9567
  380MOL0     H52405   8.273   6.482   5.547 -0.0629  0.8239  1.1988
  380MOL0     H52406   8.342   6.728   5.413 -4.4110 -1.1958  1.9705
  380MOL0     H52407   8.406   6.714   5.584  0.8238  0.9586 -0.6547
  380MOL0     H52408   8.457   6.505   5.360 -0.6648  0.6862  0.4323
  380MOL0     H52409   8.496   6.488   5.530  1.4086 -1.7814 -1.4886
  380MOL0     H52410   8.680   6.659   5.494  2.4448 -1.3925 -1.1314
  380MOL0     H52411   8.613   6.705   5.334 -1.1057 -1.9558 -1.9324
  380MOL0     H52412   8.695   6.424   5.390 -2.2116 -0.5844 -1.4237
  380MOL0     H52413   8.674   6.510   5.233 -1.1175 -0.5575 -0.0603
  380MOL0     H52414   8.907   6.565   5.428  0.8919 -0.5344 -0.4944
  380MOL0     H52415   8.867   6.673   5.300 -2.5099 -0.8074 -2.4155
  380MOL0     H52416   8.912   6.511   5.132 -0.9919  2.4683  1.8091
  380MOL0     H52417   8.926   6.378   5.243 -1.5248  0.6669  0.6287
  380MOL0     H52418   9.154   6.461   5.168 -1.8259  0.2690 -1.5091
  380MOL0     H52419   9.133   6.462   5.345  0.2359 -0.7411 -0.5131
  380MOL0     H52420   8.087   6.574   5.167 -0.0062 -0.3776  0.3220
  380MOL0     H52421   7.851   6.602   5.095 -3.6336 -1.1664  0.4126
  380MOL0     H52422   7.391   6.641   5.357 -1.3337 -0.6059  1.3527
  380MOL0     H52423   7.138   6.632   5.340  1.3931  0.1265  0.9161
  380MOL0     H52424   5.465   7.088   4.969  1.6987  3.8406 -0.9809
  380MOL0     H52425   5.252   6.989   4.993  0.5625  0.0389 -0.1017
  380MOL0     H52426   4.792   7.069   4.799 -0.7925  0.5620 -1.0758
  380MOL0     H52427   4.559   7.055   4.873 -0.6283  0.8902  0.2161
  380MOL0     H52428   4.521   6.940   5.242 -0.3911 -0.1984  0.4725
  380MOL0     H52429   4.410   7.068   5.181  2.5639  1.1064  0.4875
  380MOL0     H52430   4.298   6.888   5.341 -1.5075  1.7579 -0.5070
  380MOL0     H52431   4.328   6.764   5.202  2.1759  0.1622 -1.9442
  380MOL0     H52432   4.194   7.017   5.149 -0.4337  1.0819  1.3118
  380MOL0     H52433   4.186   6.859   5.070  3.6663  1.9050 -1.2765
  380MOL0     H52434   3.969   6.909   5.200 -0.9593  0.4294  0.8898
  380MOL0     H52435   4.061   6.938   5.346 -3.8557  0.3747  0.2028
  380MOL0     H52436   4.058   6.511   5.317  0.4824 -0.0145  3.8157
  380MOL0     H52437   4.649   6.765   5.153 -1.5310 -0.9702 -0.9198
  380MOL0     H52438   5.013   6.744   5.085 -1.6220  2.2250 -6.4936
  380MOL0     H52439   4.887   6.689   5.201  1.0220 -1.5345  0.3665
  380MOL0     H52440   4.891   6.619   5.040 -2.4232 -1.4011  0.8363
  381MOL0     O52441   3.954   2.065   2.718  0.2753  0.1950 -0.2316
  381MOL0     C52442   3.958   2.187   2.731 -0.1648  0.0384  1.0538
  381MOL0     O52443   3.898   2.254   2.829 -0.7859  0.6974 -0.3364
  381MOL0     C52444   3.782   2.209   2.887  0.4063  0.6988  0.1826
  381MOL0     C52445   3.658   2.259   2.855 -0.2928  0.7361  0.2825
  381MOL0     C52446   3.541   2.229   2.923  0.0104  0.0450 -0.6167
  381MOL0     C52447   3.543   2.141   3.034 -1.0252  0.5783  0.0485
  381MOL0     O52448   3.426   2.108   3.092  1.0109  0.0617  0.3239
  381MOL0     C52449   3.430   2.093   3.232 -0.1239  0.4284 -0.4119
  381MOL0     C52450   3.306   1.997   3.272 -0.8245 -0.0921 -0.4843
  381MOL0     C52451   3.319   1.956   3.418  0.8943  0.8115  0.9505
  381MOL0     C52452   3.195   1.877   3.468 -0.7989  0.1450  0.6369
  381MOL0     C52453   3.220   1.839   3.616  0.8166  0.1770 -0.1330
  381MOL0     C52454   3.094   1.768   3.668  0.0266 -0.4023  0.9403
  381MOL0     C52455   3.108   1.712   3.801 -0.0840 -0.8027  0.0108
  381MOL0     C52456   2.972   1.652   3.850 -0.1543  0.3089  0.3663
  381MOL0     N52457   2.995   1.621   3.986 -0.0637  0.6013  0.4114
  381MOL0     C52458   2.968   1.503   4.041 -0.9722  0.4524  0.4733
  381MOL0     C52459   2.979   1.519   4.175 -0.0127 -0.0765  0.1850
  381MOL0     C52460   2.957   1.423   4.288 -0.2909 -0.5617  0.2000
  381MOL0     C52461   2.918   1.502   4.412 -0.2514 -0.2217 -0.0595
  381MOL0     C52462   2.910   1.415   4.544 -1.0175  0.6425  0.6594
  381MOL0     C52463   2.888   1.500   4.670  0.1562 -0.0737  0.6099
  381MOL0     O52464   3.004   1.588   4.717  1.4682 -0.4411  0.6069
  381MOL0     C52465   3.114   1.522   4.765  0.4992  0.4172 -0.1531
  381MOL0     C52466   3.107   1.390   4.804  0.5423  0.6677 -0.5313
  381MOL0     C52467   3.227   1.312   4.827 -0.1032 -0.4059  0.1884
  381MOL0     C52468   3.215   1.176   4.878  0.5074  0.9294 -0.9795
  381MOL0     C52469   3.352   1.386   4.812 -0.2477  0.9516  0.7502
  381MOL0     C52470   3.482   1.318   4.828  0.5012  0.1979 -0.7062
  381MOL0     O52471   3.577   1.407   4.867  1.1479 -0.4285  0.7125
  381MOL0     C52472   3.700   1.362   4.885  0.0160  0.3279  0.5857
  381MOL0     C52473   3.802   1.427   4.822 -0.1181  0.4713 -0.1082
  381MOL0     C52474   3.932   1.388   4.845 -0.6051  0.4300  0.5912
  381MOL0     C52475   3.962   1.277   4.928 -0.1958 -0.2867  0.1877
  381MOL0     O52476   4.093   1.226   4.952  0.2403  0.2409 -0.6193
  381MOL0     C52477   4.205   1.310   4.913 -0.3881  0.2523  0.0726
  381MOL0     C52478   4.326   1.233   4.917  0.7906 -0.1862 -1.2421
  381MOL0     C52479   4.452   1.307   4.872  0.3366  0.5830 -0.5035
  381MOL0     C52480   4.582   1.242   4.918  0.1025 -0.6926 -0.3788
  381MOL0     C52481   4.706   1.300   4.857  0.1800  0.0967 -0.9434
  381MOL0     C52482   4.831   1.291   4.954 -0.6647 -0.7031 -0.8707
  381MOL0     C52483   4.943   1.359   4.878 -1.0602 -0.7312 -0.2122
  381MOL0     C52484   5.065   1.347   4.966 -0.9711  0.1191 -0.2581
  381MOL0    Cl52485   5.210   1.430   4.892 -0.0583 -0.4652 -0.2356
  381MOL0     C52486   3.860   1.218   5.008 -0.0807  0.0225  0.7470
  381MOL0     C52487   3.727   1.263   4.985 -0.7280  0.4296  0.1416
  381MOL0     O52488   3.500   1.202   4.790  0.4051  0.8692 -0.3506
  381MOL0     C52489   3.357   1.520   4.769  0.5000 -0.0453  0.5434
  381MOL0     C52490   3.232   1.583   4.750 -0.2524  0.0637 -0.3148
  381MOL0     N52491   3.002   1.652   4.193  0.2722 -0.2784 -0.2950
  381MOL0     N52492   3.015   1.716   4.080  0.4624 -0.7404  0.4678
  381MOL0     C52493   3.663   2.072   3.052 -0.5838 -0.4967 -0.1407
  381MOL0     C52494   3.781   2.104   2.985  0.4204 -0.2160 -0.3163
  381MOL0     C52495   4.032   2.271   2.629 -0.3232  0.8231 -0.0590
  381MOL0     C52496   3.989   2.406   2.613  0.2892 -0.6833  0.1909
  381MOL0     C52497   4.048   2.491   2.513  1.1080  0.1603 -1.2557
  381MOL0     C52498   4.159   2.445   2.444 -0.3591 -0.0324  0.5940
  381MOL0     O52499   4.241   2.518   2.365  0.7773 -0.0156 -0.3717
  381MOL0     C52500   4.209   2.658   2.363  0.3583 -0.4507  0.5678
  381MOL0     C52501   4.291   2.722   2.254 -1.2106 -0.1190  0.4151
  381MOL0     C52502   4.444   2.706   2.282  0.1286 -0.4446 -0.1027
  381MOL0     C52503   4.531   2.753   2.161 -0.0403  0.3537 -0.2300
  381MOL0     C52504   4.509   2.671   2.040 -0.0992  0.5227  1.2694
  381MOL0     C52505   4.486   2.616   1.937 -0.2883 -0.5847  0.3726
  381MOL0     C52506   4.197   2.313   2.457 -1.1085  0.0449 -0.3085
  381MOL0     C52507   4.143   2.223   2.549  0.3346  0.4018  0.7275
  381MOL0     C52508   4.194   2.084   2.567 -0.6293 -0.0183  0.7187
  381MOL0     H52509   3.646   2.323   2.768 -1.2558 -1.2862 -1.1558
  381MOL0     H52510   3.457   2.286   2.884  0.1246  0.1545 -0.7037
  381MOL0     H52511   3.435   2.188   3.286 -0.3489  2.1209 -3.2245
  381MOL0     H52512   3.520   2.049   3.277  0.0243  1.6358  0.5328
  381MOL0     H52513   3.222   2.066   3.259  1.9444  3.7898  0.5506
  381MOL0     H52514   3.307   1.906   3.211  1.4718 -0.8932  0.6520
  381MOL0     H52515   3.414   1.904   3.436  0.5935  0.0646  0.4167
  381MOL0     H52516   3.318   2.050   3.474 -0.7335  2.2498 -1.3203
  381MOL0     H52517   3.099   1.929   3.471 -1.6078 -1.3070  0.5850
  381MOL0     H52518   3.198   1.789   3.403  1.3486 -0.1934  1.0986
  381MOL0     H52519   3.248   1.927   3.674 -0.0682  0.9335 -0.8265
  381MOL0     H52520   3.303   1.769   3.623 -0.5983 -1.5848 -0.1439
  381MOL0     H52521   3.006   1.833   3.670 -0.3440 -0.8895  0.5408
  381MOL0     H52522   3.074   1.689   3.595 -0.6193 -0.1821  0.8744
  381MOL0     H52523   3.142   1.791   3.869 -4.3606  1.8274 -0.5016
  381MOL0     H52524   3.176   1.626   3.795  2.2909  1.0476 -1.5356
  381MOL0     H52525   2.892   1.724   3.829 -0.6456  0.2646  1.9576
  381MOL0     H52526   2.957   1.567   3.783  3.4617 -0.2628  0.0775
  381MOL0     H52527   2.945   1.411   3.988 -1.7026 -0.2832  1.9919
  381MOL0     H52528   3.055   1.381   4.310 -0.2753 -1.1623 -0.9365
  381MOL0     H52529   2.876   1.352   4.268  0.3790 -1.1223 -0.6010
  381MOL0     H52530   2.992   1.582   4.417  0.2777 -0.5503 -2.1204
  381MOL0     H52531   2.820   1.549   4.405 -0.6796 -0.8374  1.3492
  381MOL0     H52532   2.831   1.341   4.534  0.7645 -1.3172  0.2017
  381MOL0     H52533   2.999   1.352   4.551 -1.6772 -0.4653 -0.4318
  381MOL0     H52534   2.803   1.562   4.640 -1.2863 -0.8458  2.8453
  381MOL0     H52535   2.840   1.448   4.753 -0.6605  0.2218  0.3276
  381MOL0     H52536   3.013   1.335   4.812  1.7677 -2.2373 -3.5928
  381MOL0     H52537   3.129   1.159   4.944  0.0691 -0.6082 -1.8965
  381MOL0     H52538   3.305   1.157   4.937  0.9613 -0.4964 -2.0645
  381MOL0     H52539   3.204   1.110   4.791 -3.0426 -0.6328  0.4655
  381MOL0     H52540   3.791   1.508   4.752  1.7494  0.8560 -0.0141
  381MOL0     H52541   4.007   1.443   4.788 -1.4053 -1.0565 -2.0561
  381MOL0     H52542   4.201   1.349   4.810  2.3040  0.5839  0.0452
  381MOL0     H52543   4.205   1.394   4.983 -0.3998  0.4294 -0.1384
  381MOL0     H52544   4.341   1.211   5.023  2.8975 -0.2262 -1.5082
  381MOL0     H52545   4.307   1.139   4.864 -1.1844  0.1757 -1.2726
  381MOL0     H52546   4.443   1.409   4.911  0.2549  1.4966 -2.7474
  381MOL0     H52547   4.465   1.307   4.763  0.7524 -0.4195 -0.4657
  381MOL0     H52548   4.576   1.133   4.911  1.2385 -0.8929  1.3255
  381MOL0     H52549   4.590   1.260   5.025  0.8976  0.0571 -0.5482
  381MOL0     H52550   4.727   1.270   4.754 -0.8030  3.5102 -2.2869
  381MOL0     H52551   4.675   1.404   4.848 -1.4247 -0.3123 -0.4526
  381MOL0     H52552   4.857   1.185   4.963  1.3112 -0.3205 -1.4946
  381MOL0     H52553   4.818   1.333   5.054  0.3113 -1.0023 -0.6003
  381MOL0     H52554   4.921   1.462   4.847 -1.2179 -1.5546 -3.0459
  381MOL0     H52555   4.971   1.310   4.785  1.1471  1.4567 -0.8279
  381MOL0     H52556   5.082   1.241   4.983 -2.1464  0.2255  1.8798
  381MOL0     H52557   5.058   1.391   5.066  2.1295 -0.6031  0.3909
  381MOL0     H52558   3.873   1.141   5.082 -1.9718 -1.5400 -0.4387
  381MOL0     H52559   3.643   1.220   5.038  1.3111 -2.8143  1.0297
  381MOL0     H52560   3.449   1.571   4.742  2.0944 -0.3865  4.5631
  381MOL0     H52561   3.235   1.675   4.692 -3.2116  1.1404  1.0378
  381MOL0     H52562   3.653   1.991   3.123  0.1262 -0.2760  0.2193
  381MOL0     H52563   3.869   2.045   3.007  1.4746  1.8647  1.4594
  381MOL0     H52564   3.905   2.448   2.667  1.3441  0.3706  1.0703
  381MOL0     H52565   4.011   2.592   2.499  1.0177  0.6357  1.7072
  381MOL0     H52566   4.106   2.666   2.326 -0.3305 -1.1127  2.2738
  381MOL0     H52567   4.234   2.711   2.455 -1.5284  2.5518 -0.5002
  381MOL0     H52568   4.268   2.827   2.234 -1.5701 -0.1213  0.8267
  381MOL0     H52569   4.256   2.676   2.161  1.2003 -1.2071 -0.0301
  381MOL0     H52570   4.478   2.775   2.359 -0.3711 -1.1140  0.7334
  381MOL0     H52571   4.460   2.607   2.326 -3.5508 -1.2193 -0.2218
  381MOL0     H52572   4.631   2.736   2.201 -0.3344  1.5539  1.0934
  381MOL0     H52573   4.513   2.859   2.140  1.4923  0.8889  0.9775
  381MOL0     H52574   4.474   2.586   1.834  2.0857  2.1751 -0.8575
  381MOL0     H52575   4.292   2.274   2.421 -1.4330 -2.4789  1.2946
  381MOL0     H52576   4.200   2.072   2.676 -0.7064  0.9960  0.8420
  381MOL0     H52577   4.123   2.008   2.533 -1.4365  0.8220  0.4971
  381MOL0     H52578   4.297   2.078   2.529 -0.0687 -1.6716  2.3545
  382MOL0     O52579   1.301   4.660   1.422 -0.2387  0.2629  0.1534
  382MOL0     C52580   1.251   4.611   1.324 -0.5912 -0.6291 -0.4413
  382MOL0     O52581   1.325   4.564   1.220 -0.5677 -0.3440 -0.4526
  382MOL0     C52582   1.459   4.593   1.221 -0.8776 -0.1445 -0.0812
  382MOL0     C52583   1.555   4.497   1.243 -0.1703  0.2842 -0.0788
  382MOL0     C52584   1.691   4.530   1.243  0.1770  0.2422 -0.4328
  382MOL0     C52585   1.732   4.666   1.226  0.4106  0.5085 -0.1438
  382MOL0     O52586   1.862   4.709   1.248  0.9911 -0.7405  0.4957
  382MOL0     C52587   1.949   4.626   1.322 -0.1613  0.0657  0.1938
  382MOL0     C52588   2.066   4.699   1.382  0.2300 -0.4311 -0.6438
  382MOL0     C52589   2.168   4.613   1.452 -0.9805 -1.0373  0.0089
  382MOL0     C52590   2.285   4.705   1.498  0.7005 -0.0203  0.5164
  382MOL0     C52591   2.389   4.632   1.571  0.2797  0.2359  0.3481
  382MOL0     C52592   2.523   4.710   1.584  1.2573  0.3076  0.6349
  382MOL0     C52593   2.640   4.615   1.619 -0.3934 -0.2869  0.0295
  382MOL0     C52594   2.776   4.670   1.560  0.0199  0.3871 -0.3521
  382MOL0     N52595   2.805   4.618   1.425  0.7687  0.4639  0.4433
  382MOL0     C52596   2.878   4.511   1.403 -0.6460  1.3048  0.3783
  382MOL0     C52597   2.864   4.489   1.267 -0.1391  0.1917 -0.3190
  382MOL0     C52598   2.924   4.384   1.176 -0.1706 -0.3064 -0.6216
  382MOL0     C52599   3.061   4.436   1.130  0.3539  0.5661 -0.1236
  382MOL0     C52600   3.046   4.533   1.006 -0.2486  0.0782  0.2745
  382MOL0     C52601   3.167   4.562   0.924 -0.7100 -0.2119 -0.1191
  382MOL0     O52602   3.274   4.618   1.012  0.5626  0.2114 -0.3665
  382MOL0     C52603   3.403   4.605   0.988 -1.4735  0.7720 -0.5453
  382MOL0     C52604   3.457   4.572   0.862  0.4298 -1.1451 -0.2469
  382MOL0     C52605   3.594   4.573   0.846 -0.2942 -0.5043  0.1008
  382MOL0     C52606   3.632   4.565   0.699 -0.1794  0.3295 -0.4336
  382MOL0     C52607   3.682   4.591   0.952 -0.0152 -0.8090  0.4884
  382MOL0     C52608   3.827   4.591   0.946 -0.7667  0.9269 -0.3372
  382MOL0     O52609   3.895   4.571   0.830  0.8228 -0.1707  0.7300
  382MOL0     C52610   4.035   4.562   0.822 -0.4024 -0.6095 -0.0715
  382MOL0     C52611   4.119   4.664   0.876  0.3474 -0.1097 -0.6866
  382MOL0     C52612   4.250   4.654   0.857 -0.5458  0.7592  0.2661
  382MOL0     C52613   4.313   4.549   0.777  0.2118  0.2240 -0.3181
  382MOL0     O52614   4.452   4.538   0.767  0.2866 -0.0982 -0.2076
  382MOL0     C52615   4.530   4.631   0.838  0.2147 -0.2251 -0.2335
  382MOL0     C52616   4.677   4.614   0.806  0.0730 -0.3100 -0.5378
  382MOL0     C52617   4.722   4.479   0.877 -0.2359 -0.4812  0.0408
  382MOL0     C52618   4.783   4.508   1.011 -0.6236 -0.6221  0.5938
  382MOL0     C52619   4.854   4.381   1.058  0.2933  0.0073 -0.5870
  382MOL0     C52620   4.925   4.396   1.200  0.3187 -0.0359  0.8446
  382MOL0     C52621   4.990   4.260   1.244  0.2687 -0.0964  0.1498
  382MOL0     C52622   5.130   4.268   1.300 -0.2554 -1.0888 -0.5870
  382MOL0    Cl52623   5.170   4.099   1.347  0.1670 -0.7874 -0.5114
  382MOL0     C52624   4.227   4.460   0.713 -0.6997 -0.1443  0.2979
  382MOL0     C52625   4.086   4.469   0.731 -0.0131  0.1658 -1.0312
  382MOL0     O52626   3.884   4.572   1.054 -0.6482 -0.9093 -0.1326
  382MOL0     C52627   3.621   4.617   1.075 -0.4487  0.8046 -0.2559
  382MOL0     C52628   3.484   4.619   1.096 -0.2055  0.1884  0.2372
  382MOL0     N52629   2.783   4.587   1.214  0.5337  0.1260 -0.2203
  382MOL0     N52630   2.747   4.659   1.310  0.1187  1.3430  0.5887
  382MOL0     C52631   1.631   4.761   1.194 -1.1439  0.2985  0.4662
  382MOL0     C52632   1.501   4.722   1.200 -0.5336 -0.5161 -0.4716
  382MOL0     C52633   1.103   4.605   1.319  0.7329 -0.6172  0.8327
  382MOL0     C52634   1.030   4.561   1.433  0.3680 -0.4663  0.8656
  382MOL0     C52635   0.896   4.542   1.420 -0.3673  0.5229 -0.0285
  382MOL0     C52636   0.827   4.559   1.306  0.4759 -1.0124 -0.0605
  382MOL0     O52637   0.697   4.524   1.318  0.4735  0.9901  0.0971
  382MOL0     C52638   0.606   4.539   1.207 -0.0393  1.2224  0.0616
  382MOL0     C52639   0.454   4.516   1.248 -0.5364  0.0264 -0.6086
  382MOL0     C52640   0.444   4.367   1.269  0.1872 -0.8108 -0.4871
  382MOL0     C52641   0.319   4.320   1.349 -0.8607 -0.6404 -0.0232
  382MOL0     C52642   0.296   4.182   1.328 -0.6028  0.1605  0.0642
  382MOL0     C52643   0.287   4.061   1.324  0.1880  0.5316  0.3422
  382MOL0     C52644   0.894   4.616   1.193  0.4247 -0.2358 -0.1634
  382MOL0     C52645   1.028   4.642   1.197 -0.5717 -0.2904  0.3443
  382MOL0     C52646   1.103   4.693   1.076  0.7462 -0.6701  0.1376
  382MOL0     H52647   1.517   4.400   1.273  3.5527 -0.6520  2.3189
  382MOL0     H52648   1.769   4.457   1.261  0.5017  0.5817 -0.4537
  382MOL0     H52649   1.977   4.549   1.249 -2.2259  1.2250 -1.9631
  382MOL0     H52650   1.894   4.581   1.405 -1.0658  0.3958 -0.2169
  382MOL0     H52651   2.117   4.752   1.301  1.0170 -1.9494 -1.1683
  382MOL0     H52652   2.018   4.766   1.454  2.5129 -0.1373  0.7046
  382MOL0     H52653   2.120   4.566   1.538  1.0021 -0.4101  1.5535
  382MOL0     H52654   2.203   4.545   1.374  3.1539  0.4101  0.3020
  382MOL0     H52655   2.331   4.747   1.408  0.3878 -3.0004 -1.2010
  382MOL0     H52656   2.256   4.788   1.562 -1.8441  0.0829 -0.6628
  382MOL0     H52657   2.402   4.543   1.509  1.2060  1.6529 -1.5772
  382MOL0     H52658   2.354   4.597   1.669 -0.6178  1.9003  0.6711
  382MOL0     H52659   2.541   4.758   1.487  1.0890  1.1688  1.0201
  382MOL0     H52660   2.514   4.799   1.648 -0.7171  2.4403 -2.3403
  382MOL0     H52661   2.626   4.515   1.577  1.2866  0.6743 -3.1286
  382MOL0     H52662   2.645   4.607   1.728  0.3692 -4.5592 -0.1432
  382MOL0     H52663   2.772   4.779   1.565  0.2399  0.3462  3.2598
  382MOL0     H52664   2.853   4.632   1.627  0.8493  3.5396  0.6106
  382MOL0     H52665   2.936   4.449   1.470  0.8594  0.6741 -1.4073
  382MOL0     H52666   2.856   4.352   1.097 -0.9124 -0.6045  0.1207
  382MOL0     H52667   2.934   4.287   1.225 -1.3133  0.0428  0.3635
  382MOL0     H52668   3.111   4.484   1.215  1.3301  0.9999 -0.9186
  382MOL0     H52669   3.118   4.351   1.090 -0.6728  0.7595 -2.1153
  382MOL0     H52670   2.968   4.492   0.941 -1.4911  0.8931  1.1886
  382MOL0     H52671   3.004   4.631   1.031  0.1019  0.6785 -1.3793
  382MOL0     H52672   3.193   4.469   0.872 -1.6812 -1.3124  1.2691
  382MOL0     H52673   3.151   4.636   0.845 -3.3221 -1.6221 -1.0390
  382MOL0     H52674   3.380   4.566   0.785  0.3532  0.2532 -0.2938
  382MOL0     H52675   3.710   4.639   0.678 -2.5114  3.0305 -0.1116
  382MOL0     H52676   3.542   4.586   0.641  0.5411 -1.8507 -2.4804
  382MOL0     H52677   3.671   4.468   0.668  0.5021  0.9668 -1.6527
  382MOL0     H52678   4.074   4.725   0.954 -2.0006 -3.5949  0.9478
  382MOL0     H52679   4.319   4.728   0.896  1.6647 -0.4253 -1.1677
  382MOL0     H52680   4.496   4.726   0.794 -2.6636 -1.1218 -0.1360
  382MOL0     H52681   4.515   4.626   0.946  1.2911 -0.5884 -0.0967
  382MOL0     H52682   4.695   4.589   0.701  2.9844 -2.3466  0.3401
  382MOL0     H52683   4.730   4.707   0.830  0.2832 -0.6428  0.3080
  382MOL0     H52684   4.802   4.444   0.811 -0.3311 -1.6641  0.5368
  382MOL0     H52685   4.656   4.393   0.860  0.2519 -0.6019 -1.4160
  382MOL0     H52686   4.708   4.533   1.086 -0.9752  1.3099 -0.3419
  382MOL0     H52687   4.857   4.586   0.991 -0.5233 -0.9095 -0.1865
  382MOL0     H52688   4.772   4.309   1.059 -1.2357  1.6876  0.3067
  382MOL0     H52689   4.930   4.353   0.985  0.6060  1.0978 -0.7085
  382MOL0     H52690   4.859   4.431   1.281 -0.5026 -0.1817  0.2448
  382MOL0     H52691   5.007   4.467   1.185  0.4512 -0.7992 -3.0118
  382MOL0     H52692   4.999   4.188   1.162  3.0546 -2.4718  2.3243
  382MOL0     H52693   4.932   4.221   1.329  0.9997  0.8850  1.1242
  382MOL0     H52694   5.128   4.332   1.389 -0.2219  0.2328 -1.5201
  382MOL0     H52695   5.205   4.311   1.234  1.7012  0.3144  2.3186
  382MOL0     H52696   4.274   4.378   0.660 -1.7964 -1.3135  1.0805
  382MOL0     H52697   4.035   4.386   0.683  0.4631 -1.2637  0.8092
  382MOL0     H52698   3.683   4.629   1.164  1.2112 -2.7002 -0.7848
  382MOL0     H52699   3.443   4.644   1.193 -1.7810 -0.5037 -0.2194
  382MOL0     H52700   1.649   4.868   1.183 -1.4024  0.1881 -1.2748
  382MOL0     H52701   1.438   4.810   1.190  3.8866  3.0742 -0.2586
  382MOL0     H52702   1.076   4.556   1.532  2.6674 -0.7860 -0.1516
  382MOL0     H52703   0.836   4.525   1.509  1.1573  0.1851  0.9688
  382MOL0     H52704   0.619   4.636   1.157  0.7042 -0.5515 -3.5038
  382MOL0     H52705   0.643   4.461   1.140 -0.2996 -0.4933  1.8428
  382MOL0     H52706   0.385   4.556   1.173 -1.9313 -0.7448  0.2210
  382MOL0     H52707   0.427   4.575   1.335  0.3181 -0.3728 -0.0600
  382MOL0     H52708   0.441   4.325   1.168 -1.1089 -2.5642  0.2166
  382MOL0     H52709   0.523   4.323   1.330  0.4682 -0.0844 -0.3256
  382MOL0     H52710   0.233   4.377   1.313  0.1343  0.6260 -0.4809
  382MOL0     H52711   0.328   4.339   1.456 -2.2187  2.2035 -0.3239
  382MOL0     H52712   0.278   3.955   1.336  2.4033  0.5778  3.3236
  382MOL0     H52713   0.833   4.628   1.103 -0.9680  0.7279  0.8712
  382MOL0     H52714   1.155   4.607   1.033  2.3524 -0.2357  1.1399
  382MOL0     H52715   1.041   4.739   0.999  2.2314  0.2667 -0.5431
  382MOL0     H52716   1.184   4.760   1.105  0.6325 -0.5458  0.1730
  383MOL0     O52717   4.785   6.658   8.056 -0.4723 -0.2469  0.1319
  383MOL0     C52718   4.683   6.607   8.019 -0.1195  0.2535 -0.6882
  383MOL0     O52719   4.673   6.521   7.912 -0.2672  0.1241 -0.1233
  383MOL0     C52720   4.797   6.477   7.861 -0.0138  0.1862  0.3332
  383MOL0     C52721   4.865   6.566   7.788 -0.3550 -0.1632 -0.3222
  383MOL0     C52722   4.989   6.533   7.733  0.3279 -0.3748  0.2398
  383MOL0     C52723   5.042   6.401   7.740  0.1498 -0.4777 -0.1382
  383MOL0     O52724   5.165   6.388   7.677 -0.9225 -0.4077 -0.4165
  383MOL0     C52725   5.260   6.299   7.742  0.7538  0.3196  0.6384
  383MOL0     C52726   5.403   6.304   7.676 -0.5861  0.7090 -0.1695
  383MOL0     C52727   5.491   6.196   7.742 -0.4222 -0.5700 -0.4822
  383MOL0     C52728   5.639   6.205   7.682  0.0881  1.0775 -0.4023
  383MOL0     C52729   5.711   6.328   7.735 -0.5378 -0.8933  0.8577
  383MOL0     C52730   5.843   6.362   7.657  0.2552 -1.4796  0.2580
  383MOL0     C52731   5.899   6.485   7.725 -0.0698  0.7588  0.5214
  383MOL0     C52732   6.056   6.488   7.726  0.2917  0.6505  0.2570
  383MOL0     N52733   6.126   6.450   7.595  0.6180  0.0893  0.6250
  383MOL0     C52734   6.180   6.532   7.496 -0.0767 -0.1045 -1.1161
  383MOL0     C52735   6.211   6.447   7.402  0.6977  0.1401  0.5816
  383MOL0     C52736   6.253   6.488   7.264 -0.2377  0.4371 -0.3972
  383MOL0     C52737   6.396   6.436   7.240 -0.4770  0.1376  0.1772
  383MOL0     C52738   6.457   6.518   7.129 -0.4889 -0.2049  0.1807
  383MOL0     C52739   6.586   6.463   7.075 -0.9515 -0.4694 -0.2628
  383MOL0     O52740   6.675   6.446   7.181 -0.8379 -0.5682  0.1626
  383MOL0     C52741   6.803   6.393   7.165 -0.5113  0.2940 -0.0917
  383MOL0     C52742   6.870   6.344   7.276 -0.0468 -0.5120 -0.4245
  383MOL0     C52743   7.006   6.302   7.279  0.1162  0.6222 -0.2008
  383MOL0     C52744   7.060   6.297   7.425  0.8625 -1.1359  1.2250
  383MOL0     C52745   7.080   6.304   7.158  0.8036 -0.4822 -0.6692
  383MOL0     C52746   7.215   6.271   7.146 -0.4477 -0.3199 -0.8701
  383MOL0     O52747   7.264   6.180   7.232 -0.0811  0.5571 -0.0507
  383MOL0     C52748   7.396   6.144   7.231  0.1595  0.3964  0.3710
  383MOL0     C52749   7.447   6.146   7.355 -0.0273  0.2535 -0.4835
  383MOL0     C52750   7.569   6.081   7.374 -0.2804 -0.1840 -0.1945
  383MOL0     C52751   7.654   6.051   7.267 -0.0322  1.4344 -0.0620
  383MOL0     O52752   7.779   6.014   7.303 -0.0339  0.1132 -0.3359
  383MOL0     C52753   7.877   6.070   7.222 -0.9381  0.6019 -0.1925
  383MOL0     C52754   7.991   6.116   7.313 -0.3701  0.7659 -0.7281
  383MOL0     C52755   7.955   6.238   7.393  0.7363  0.0236  0.6423
  383MOL0     C52756   8.066   6.275   7.480 -0.0498 -0.3277  0.5210
  383MOL0     C52757   8.019   6.392   7.556 -0.7225  0.1153 -0.5588
  383MOL0     C52758   8.110   6.412   7.675  0.1188 -0.0022 -0.7568
  383MOL0     C52759   8.254   6.425   7.625  0.9554 -0.2668 -0.3392
  383MOL0     C52760   8.351   6.463   7.731  0.3481  0.3721  0.4768
  383MOL0    Cl52761   8.521   6.456   7.682  0.3880  0.2162  0.0917
  383MOL0     C52762   7.602   6.056   7.137  0.5870  0.6208  0.8703
  383MOL0     C52763   7.472   6.102   7.122 -0.5492  0.5905  0.7123
  383MOL0     O52764   7.278   6.340   7.066 -0.1346 -0.3167  0.1613
  383MOL0     C52765   7.013   6.367   7.050 -0.0945  0.0966 -0.1236
  383MOL0     C52766   6.879   6.407   7.051  0.5840 -0.4984  0.8693
  383MOL0     N52767   6.201   6.316   7.442  0.2619  0.2880  0.8362
  383MOL0     N52768   6.166   6.326   7.558  0.8860  0.6242  0.0476
  383MOL0     C52769   4.956   6.302   7.803 -0.1922  1.3644  0.8185
  383MOL0     C52770   4.840   6.346   7.876 -0.2957  0.3986  0.6446
  383MOL0     C52771   4.555   6.664   8.076  0.2398  0.4413  0.2538
  383MOL0     C52772   4.436   6.617   8.019 -0.1025  0.5965  0.1165
  383MOL0     C52773   4.315   6.675   8.061  0.2832  0.2970  0.0695
  383MOL0     C52774   4.307   6.778   8.156 -0.2949 -0.1050 -0.5890
  383MOL0     O52775   4.184   6.834   8.187 -0.0593 -0.9282 -0.2464
  383MOL0     C52776   4.161   6.934   8.294  1.1421 -0.2979  0.8430
  383MOL0     C52777   4.013   6.978   8.285 -1.3562 -0.0140 -0.0466
  383MOL0     C52778   3.985   7.058   8.158  0.1654 -0.1112  0.1097
  383MOL0     C52779   3.837   7.046   8.125  0.4689 -0.2881  0.1516
  383MOL0     C52780   3.756   7.096   8.236  0.0467 -0.0968  1.2823
  383MOL0     C52781   3.678   7.139   8.320  0.4033 -0.5994  0.2836
  383MOL0     C52782   4.424   6.828   8.200  0.7203 -0.4839  0.0185
  383MOL0     C52783   4.551   6.769   8.173  0.1638  0.2689 -0.8492
  383MOL0     C52784   4.669   6.829   8.242  0.8995 -0.1527 -0.5429
  383MOL0     H52785   4.810   6.659   7.774  1.0587  0.2870 -4.0749
  383MOL0     H52786   5.047   6.617   7.697 -2.0890  0.9528 -0.8014
  383MOL0     H52787   5.232   6.195   7.725  0.9938  0.3473  0.0357
  383MOL0     H52788   5.269   6.311   7.850  4.7306 -1.1346  0.6344
  383MOL0     H52789   5.391   6.269   7.573 -0.2756 -0.9741  0.3317
  383MOL0     H52790   5.432   6.409   7.676 -3.1806  1.4954 -0.9450
  383MOL0     H52791   5.501   6.210   7.850  3.6128  0.1197 -0.7806
  383MOL0     H52792   5.440   6.102   7.718 -1.1491 -0.4691  0.5683
  383MOL0     H52793   5.678   6.111   7.721  0.6727  0.4320 -2.4466
  383MOL0     H52794   5.635   6.189   7.574 -0.9223 -3.2001  0.1274
  383MOL0     H52795   5.731   6.327   7.843 -0.0069 -0.0128  0.7762
  383MOL0     H52796   5.649   6.415   7.714 -2.6565 -2.0802  1.8178
  383MOL0     H52797   5.906   6.272   7.657 -0.5801 -2.0833 -0.8685
  383MOL0     H52798   5.820   6.375   7.551  0.6668  0.5959  0.3810
  383MOL0     H52799   5.881   6.489   7.833  1.1460 -0.2941  0.7757
  383MOL0     H52800   5.859   6.576   7.679 -1.4069 -0.4956 -0.9057
  383MOL0     H52801   6.087   6.586   7.764 -0.6249  1.9615 -2.1969
  383MOL0     H52802   6.097   6.421   7.802 -2.9667 -1.2743  0.4899
  383MOL0     H52803   6.173   6.640   7.499  1.8570  0.0486 -0.0351
  383MOL0     H52804   6.240   6.595   7.249 -1.7821  0.7344  2.3906
  383MOL0     H52805   6.189   6.438   7.191 -3.8544  0.0063  2.7286
  383MOL0     H52806   6.465   6.430   7.324 -1.3431 -1.9581  0.8043
  383MOL0     H52807   6.391   6.335   7.197  1.4151  0.5977 -1.2264
  383MOL0     H52808   6.394   6.521   7.040  2.4164  2.1226 -1.9610
  383MOL0     H52809   6.464   6.619   7.170  1.5768  0.3179 -1.3289
  383MOL0     H52810   6.566   6.370   7.021  2.4244 -0.1284 -2.4083
  383MOL0     H52811   6.608   6.541   7.002 -1.9456  1.7841  1.7200
  383MOL0     H52812   6.811   6.363   7.365 -2.7705 -1.3098 -1.9385
  383MOL0     H52813   7.095   6.201   7.463  0.6176 -0.8958  2.0941
  383MOL0     H52814   6.982   6.335   7.493 -1.1758  0.8465 -1.9535
  383MOL0     H52815   7.143   6.369   7.429  0.7786 -0.8642 -0.8570
  383MOL0     H52816   7.391   6.183   7.439 -0.0418 -1.3879  0.2764
  383MOL0     H52817   7.612   6.085   7.473 -0.9019  3.1149  0.0784
  383MOL0     H52818   7.925   5.991   7.164 -0.4079  0.0984  0.9115
  383MOL0     H52819   7.848   6.158   7.164  0.9995 -0.5583 -3.1974
  383MOL0     H52820   8.008   6.033   7.382  0.1408  0.4983 -1.1576
  383MOL0     H52821   8.079   6.126   7.248 -0.2261 -0.4997 -0.7549
  383MOL0     H52822   7.871   6.210   7.456  0.4596  3.0097  1.7175
  383MOL0     H52823   7.927   6.320   7.327  0.3029 -0.6379 -0.0141
  383MOL0     H52824   8.150   6.295   7.412 -0.5493 -1.2758 -0.3957
  383MOL0     H52825   8.092   6.185   7.537 -1.1471 -0.7606  0.3498
  383MOL0     H52826   8.020   6.479   7.491 -2.0094  0.8269  0.3262
  383MOL0     H52827   7.915   6.386   7.589 -1.3138  1.0527 -2.1404
  383MOL0     H52828   8.106   6.329   7.747  0.7838 -2.5347 -3.4509
  383MOL0     H52829   8.077   6.502   7.728 -0.9654  0.0585 -1.4956
  383MOL0     H52830   8.254   6.502   7.548 -2.1805 -0.2862 -0.4683
  383MOL0     H52831   8.285   6.330   7.580  1.6074  0.1886 -0.8752
  383MOL0     H52832   8.339   6.413   7.827  0.0724 -0.0135  0.2413
  383MOL0     H52833   8.331   6.569   7.752 -3.4564 -0.6688  3.0341
  383MOL0     H52834   7.661   6.027   7.050 -0.6333  0.5119  0.0640
  383MOL0     H52835   7.425   6.087   7.025 -1.1996  1.8504  0.8122
  383MOL0     H52836   7.059   6.369   6.952 -2.3878  1.9206 -1.2760
  383MOL0     H52837   6.845   6.468   6.968  2.5575  1.8014  1.6160
  383MOL0     H52838   4.991   6.200   7.807  1.3567  1.7406 -1.3946
  383MOL0     H52839   4.800   6.270   7.942  3.0971 -2.3810 -0.1886
  383MOL0     H52840   4.429   6.536   7.946 -0.6972 -1.6032  2.4711
  383MOL0     H52841   4.226   6.633   8.016  0.5399 -0.0007 -0.1642
  383MOL0     H52842   4.186   6.889   8.391 -1.7233  0.4378  2.0504
  383MOL0     H52843   4.231   7.016   8.277  0.4611  0.4047  1.3315
  383MOL0     H52844   3.993   7.036   8.376  1.6341  0.5170  0.3793
  383MOL0     H52845   3.954   6.886   8.289  0.7707 -1.4000  1.2159
  383MOL0     H52846   4.014   7.162   8.172  2.9956 -0.8362  0.1304
  383MOL0     H52847   4.033   7.012   8.071  1.2773 -0.7673  1.0499
  383MOL0     H52848   3.798   6.945   8.105 -0.6159  0.1493 -0.0449
  383MOL0     H52849   3.821   7.105   8.034  0.2733  3.2005  2.2593
  383MOL0     H52850   3.626   7.184   8.402  2.8094 -0.4107  1.8436
  383MOL0     H52851   4.429   6.919   8.259 -0.9217 -1.0023  1.0235
  383MOL0     H52852   4.733   6.759   8.297  0.2400 -2.4720 -2.5397
  383MOL0     H52853   4.725   6.876   8.162 -0.0865  1.3004 -0.4175
  383MOL0     H52854   4.645   6.906   8.316 -1.4222  0.5075 -1.8710
  384MOL0     O52855   3.200   2.892   1.813 -0.0242 -0.3215 -0.4975
  384MOL0     C52856   3.175   2.944   1.709  0.0143 -0.6755  0.2495
  384MOL0     O52857   3.121   3.066   1.693  0.9853 -0.0028 -0.2425
  384MOL0     C52858   3.116   3.167   1.783 -0.5595 -0.8347 -0.1976
  384MOL0     C52859   2.997   3.243   1.799  1.1223  0.4034  0.7428
  384MOL0     C52860   3.003   3.345   1.885  0.3782 -0.5001  0.1319
  384MOL0     C52861   3.125   3.391   1.950  0.2379 -0.0303 -0.0191
  384MOL0     O52862   3.108   3.488   2.037 -0.1180  0.3447 -0.6154
  384MOL0     C52863   3.219   3.536   2.114  0.3817  0.2383 -0.6467
  384MOL0     C52864   3.327   3.630   2.037 -0.2623 -0.6032 -0.2856
  384MOL0     C52865   3.283   3.701   1.914 -0.1636  0.0186  0.3013
  384MOL0     C52866   3.402   3.764   1.844  0.3538 -0.5726 -0.7523
  384MOL0     C52867   3.363   3.840   1.715  0.8375  0.2246 -0.5537
  384MOL0     C52868   3.480   3.872   1.624  0.7110 -0.5281  0.2658
  384MOL0     C52869   3.560   3.993   1.680 -0.4420 -0.4399 -0.0624
  384MOL0     C52870   3.681   4.021   1.585  0.5676 -0.3344  0.3767
  384MOL0     N52871   3.800   3.949   1.639 -0.1450 -0.1929 -0.4269
  384MOL0     C52872   3.825   3.819   1.594 -0.4831 -0.2219  0.8064
  384MOL0     C52873   3.959   3.811   1.581 -0.3935 -0.1382  0.9055
  384MOL0     C52874   4.037   3.684   1.527  0.2933  0.3532  0.1452
  384MOL0     C52875   4.103   3.715   1.387 -0.4186  0.4300  0.3456
  384MOL0     C52876   4.195   3.835   1.383 -0.0441 -0.3872 -0.4586
  384MOL0     C52877   4.302   3.845   1.489  0.6844  0.5487 -0.0543
  384MOL0     O52878   4.383   3.726   1.481  0.5864  0.3092 -0.3818
  384MOL0     C52879   4.511   3.734   1.430 -1.0937  0.1363  0.2603
  384MOL0     C52880   4.575   3.835   1.359 -0.1748 -0.6102  0.5161
  384MOL0     C52881   4.701   3.822   1.309 -0.1662  0.9876 -0.3417
  384MOL0     C52882   4.759   3.946   1.248 -1.1338  0.3059 -0.0111
  384MOL0     C52883   4.777   3.700   1.323  0.2362 -0.3118  0.4969
  384MOL0     C52884   4.912   3.672   1.257  0.0773  0.6520  0.1856
  384MOL0     O52885   4.978   3.560   1.288  0.1828  0.2193  0.9798
  384MOL0     C52886   5.113   3.551   1.272  0.2106 -0.6602 -0.0098
  384MOL0     C52887   5.164   3.425   1.235  0.6162 -0.2988  0.1042
  384MOL0     C52888   5.299   3.414   1.207  0.0937  0.1733  0.3945
  384MOL0     C52889   5.388   3.521   1.215 -0.7584 -0.4670  0.1557
  384MOL0     O52890   5.522   3.497   1.194 -0.1333  0.1943  0.3419
  384MOL0     C52891   5.624   3.563   1.271  0.5506 -0.6536  0.0400
  384MOL0     C52892   5.612   3.516   1.412  0.3674 -0.7438 -0.5459
  384MOL0     C52893   5.615   3.356   1.435  0.7245 -0.7182  0.5907
  384MOL0     C52894   5.664   3.315   1.575  0.3891  0.2412 -0.2222
  384MOL0     C52895   5.633   3.173   1.626  0.2386  0.0658 -0.4355
  384MOL0     C52896   5.746   3.082   1.577 -0.1627  0.0268  0.3396
  384MOL0     C52897   5.717   2.946   1.620 -0.2875  0.6935 -0.6330
  384MOL0     C52898   5.807   2.839   1.552  0.3322 -0.4480  0.5734
  384MOL0    Cl52899   5.958   2.839   1.624 -0.2320  0.1572 -0.0617
  384MOL0     C52900   5.332   3.641   1.268  0.2581  0.5803  0.1486
  384MOL0     C52901   5.200   3.655   1.299 -0.4590 -0.3228  0.1159
  384MOL0     O52902   4.955   3.748   1.168 -0.9711 -0.0053  0.7206
  384MOL0     C52903   4.713   3.595   1.395 -0.4714 -0.3106 -0.2397
  384MOL0     C52904   4.578   3.616   1.450 -0.0514  0.2438  0.4812
  384MOL0     N52905   4.014   3.933   1.623  0.0578 -0.6190 -0.5282
  384MOL0     N52906   3.921   4.018   1.652  0.6645 -0.3977  0.5391
  384MOL0     C52907   3.246   3.317   1.929  0.5168  0.1231  0.4176
  384MOL0     C52908   3.232   3.203   1.856  0.0705  0.1757  0.2570
  384MOL0     C52909   3.186   2.863   1.585 -0.4537 -0.8298  0.3871
  384MOL0     C52910   3.200   2.928   1.458  0.1640  0.3250  0.1847
  384MOL0     C52911   3.213   2.864   1.335  0.1061 -0.0011  0.0854
  384MOL0     C52912   3.213   2.730   1.327  0.4205  0.8837 -0.1755
  384MOL0     O52913   3.229   2.653   1.213 -0.1356 -0.0509  0.2344
  384MOL0     C52914   3.270   2.717   1.089  0.2658  0.2583  0.2135
  384MOL0     C52915   3.293   2.615   0.969  0.6621  0.2050  0.3180
  384MOL0     C52916   3.427   2.543   0.993  0.5799  0.9896  0.4743
  384MOL0     C52917   3.465   2.440   0.886 -0.8475 -0.3033  0.2108
  384MOL0     C52918   3.603   2.402   0.898  0.4046  0.1828 -0.6128
  384MOL0     C52919   3.725   2.378   0.892  0.4998 -0.3513  0.3179
  384MOL0     C52920   3.209   2.657   1.446 -0.7971  0.0748  0.3060
  384MOL0     C52921   3.204   2.716   1.576  0.2622  0.5429 -0.1400
  384MOL0     C52922   3.195   2.619   1.689  0.4016 -0.7599 -0.1562
  384MOL0     H52923   2.903   3.228   1.748  0.5156  1.7423  1.4223
  384MOL0     H52924   2.910   3.396   1.910  1.3119  1.4643 -0.2733
  384MOL0     H52925   3.263   3.453   2.169  2.0782  1.0267 -0.7205
  384MOL0     H52926   3.186   3.600   2.196 -1.0213 -1.8360  0.4785
  384MOL0     H52927   3.356   3.709   2.107 -2.1776  1.6163 -1.8735
  384MOL0     H52928   3.417   3.573   2.014 -0.3833 -0.4083 -1.2698
  384MOL0     H52929   3.242   3.636   1.837 -0.3035  0.1795  0.2388
  384MOL0     H52930   3.197   3.765   1.936 -2.6610 -2.7794 -0.6099
  384MOL0     H52931   3.459   3.830   1.911 -2.7149 -0.4859  2.0028
  384MOL0     H52932   3.457   3.680   1.802  0.4678 -0.1130 -1.5410
  384MOL0     H52933   3.299   3.923   1.747  2.5905  1.8803 -1.1422
  384MOL0     H52934   3.295   3.763   1.680 -1.6376  1.0751  1.9869
  384MOL0     H52935   3.543   3.787   1.596 -0.7392 -1.6113  0.2250
  384MOL0     H52936   3.425   3.902   1.535 -3.4556 -2.6438  1.8387
  384MOL0     H52937   3.599   3.972   1.780  1.1333  0.6961 -0.4027
  384MOL0     H52938   3.488   4.076   1.686 -0.3931 -0.1960 -2.2273
  384MOL0     H52939   3.667   3.992   1.481  3.4001 -0.1133 -0.1325
  384MOL0     H52940   3.699   4.129   1.591  0.8048 -0.3382 -0.2116
  384MOL0     H52941   3.745   3.750   1.573 -2.2460  1.7798  0.6061
  384MOL0     H52942   3.970   3.599   1.511  0.7922  0.0233 -0.2489
  384MOL0     H52943   4.108   3.638   1.597 -0.3580 -1.1269 -0.1302
  384MOL0     H52944   4.157   3.629   1.346 -2.1167 -0.2553 -0.5498
  384MOL0     H52945   4.019   3.719   1.318 -1.2691 -0.1322  1.3180
  384MOL0     H52946   4.246   3.831   1.287  1.9269  2.7366  0.3181
  384MOL0     H52947   4.130   3.923   1.392  0.9473  0.5833 -2.3502
  384MOL0     H52948   4.359   3.936   1.468  2.3225 -0.1935  0.9228
  384MOL0     H52949   4.260   3.863   1.588 -0.2117  0.4567 -0.4103
  384MOL0     H52950   4.530   3.932   1.343  2.5824  0.7423  0.3153
  384MOL0     H52951   4.723   3.949   1.145  0.1816  1.7158 -0.4527
  384MOL0     H52952   4.867   3.954   1.260 -1.1303 -0.0855  0.2577
  384MOL0     H52953   4.721   4.026   1.313 -2.2513 -1.9470  2.2859
  384MOL0     H52954   5.110   3.332   1.223  0.4345 -0.0479 -1.0850
  384MOL0     H52955   5.336   3.321   1.166 -3.8324 -1.2132 -0.4408
  384MOL0     H52956   5.722   3.536   1.231 -0.3248 -1.8903 -1.3985
  384MOL0     H52957   5.617   3.671   1.257 -1.1872 -0.8553 -0.8985
  384MOL0     H52958   5.705   3.559   1.451 -0.3420 -0.2880  0.6948
  384MOL0     H52959   5.530   3.571   1.459  0.9591  3.5533 -3.8119
  384MOL0     H52960   5.669   3.302   1.357  0.3253 -3.2134  1.9286
  384MOL0     H52961   5.514   3.317   1.418  1.1995 -2.6461  1.7813
  384MOL0     H52962   5.607   3.374   1.646 -0.9811 -2.0379  0.6903
  384MOL0     H52963   5.772   3.337   1.579  1.4555 -4.1258  0.3262
  384MOL0     H52964   5.636   3.165   1.735  1.1794 -0.4602 -0.4902
  384MOL0     H52965   5.532   3.153   1.589  0.1520 -0.3360  0.0184
  384MOL0     H52966   5.840   3.120   1.620 -1.1060  3.6809 -0.4839
  384MOL0     H52967   5.754   3.090   1.468 -0.9496 -1.3726  0.1553
  384MOL0     H52968   5.615   2.921   1.587 -0.9892  1.4198  0.8900
  384MOL0     H52969   5.723   2.937   1.729  0.9732 -3.1223 -0.8847
  384MOL0     H52970   5.819   2.866   1.447  2.1757  1.3341  1.1645
  384MOL0     H52971   5.759   2.741   1.557  2.0907 -1.3895 -0.1661
  384MOL0     H52972   5.395   3.729   1.281 -2.1144  2.5803 -0.9708
  384MOL0     H52973   5.172   3.755   1.331 -2.4037 -1.2024  1.3467
  384MOL0     H52974   4.761   3.499   1.410  1.7296  0.9769  1.4288
  384MOL0     H52975   4.541   3.528   1.501 -0.1920 -0.6695 -1.1204
  384MOL0     H52976   3.337   3.336   1.985  0.3205 -0.4486  0.9380
  384MOL0     H52977   3.316   3.135   1.854  1.6082  2.0175 -0.7497
  384MOL0     H52978   3.186   3.036   1.454 -0.7448  0.1887 -3.0802
  384MOL0     H52979   3.214   2.916   1.239  1.8044  0.6954  0.4403
  384MOL0     H52980   3.192   2.789   1.061  0.8220  0.9974  0.5334
  384MOL0     H52981   3.361   2.778   1.101  0.6075 -0.4220  1.2242
  384MOL0     H52982   3.304   2.666   0.873  0.1108 -1.6106 -0.7565
  384MOL0     H52983   3.205   2.550   0.959  0.6457  0.0653  1.2858
  384MOL0     H52984   3.501   2.621   1.011 -0.5116  2.8177 -2.2326
  384MOL0     H52985   3.405   2.491   1.087  0.8452 -0.7266 -0.3862
  384MOL0     H52986   3.447   2.484   0.788 -0.9621 -2.0210 -0.5845
  384MOL0     H52987   3.399   2.353   0.896 -0.7029 -0.5003 -0.4886
  384MOL0     H52988   3.828   2.350   0.897  0.8479  0.1971 -2.3494
  384MOL0     H52989   3.220   2.549   1.449 -0.3039  0.0455 -1.4360
  384MOL0     H52990   3.202   2.513   1.661 -1.2967 -0.9456  0.0150
  384MOL0     H52991   3.279   2.650   1.751  0.1269 -2.4297  1.1000
  384MOL0     H52992   3.102   2.638   1.744  0.7906 -2.1837  1.0461
  385MOL0     O52993   5.086  10.775   7.693  0.4904  0.6745 -0.0611
  385MOL0     C52994   5.074  10.656   7.709 -0.7554 -0.8776 -0.3941
  385MOL0     O52995   5.174  10.569   7.754 -0.6066  0.0802 -0.0131
  385MOL0     C52996   5.301  10.624   7.747 -0.0548  0.5594 -0.4289
  385MOL0     C52997   5.354  10.651   7.623 -0.0477  0.4711 -0.1233
  385MOL0     C52998   5.472  10.717   7.626 -0.2291  0.5094  0.4083
  385MOL0     C52999   5.552  10.728   7.735 -0.5891  1.0562 -0.7442
  385MOL0     O53000   5.674  10.794   7.741  0.1670 -0.1256 -0.0774
  385MOL0     C53001   5.701  10.907   7.661 -0.2687 -0.0555 -0.4284
  385MOL0     C53002   5.767  11.030   7.732  0.8127  0.1637  0.2543
  385MOL0     C53003   5.906  10.986   7.787 -0.6003 -0.0135  0.2220
  385MOL0     C53004   5.985  11.107   7.850  0.3950 -0.3237  0.7906
  385MOL0     C53005   6.136  11.093   7.891 -0.3971  0.8402  0.5888
  385MOL0     C53006   6.219  11.042   7.761  0.1968 -0.3526 -0.6364
  385MOL0     C53007   6.370  11.051   7.796  0.7395  0.2362  0.5236
  385MOL0     C53008   6.465  11.011   7.685 -0.4707 -0.0543  0.4229
  385MOL0     N53009   6.599  11.078   7.704 -0.0288 -0.7559  0.6024
  385MOL0     C53010   6.670  11.067   7.822 -1.1227  0.9175 -0.1294
  385MOL0     C53011   6.794  11.127   7.799 -0.1578 -0.2727  0.3720
  385MOL0     C53012   6.916  11.117   7.893  0.0277 -0.6846 -0.1674
  385MOL0     C53013   7.044  11.081   7.808 -0.5163  0.0699 -0.4866
  385MOL0     C53014   7.162  11.029   7.888  0.4971  0.6729  0.7357
  385MOL0     C53015   7.289  11.030   7.802 -0.8197 -0.3998  0.0393
  385MOL0     O53016   7.403  11.011   7.875  0.3903 -0.1327 -0.5636
  385MOL0     C53017   7.524  10.973   7.817 -0.5733 -1.2688  0.1260
  385MOL0     C53018   7.553  10.993   7.677  0.2555  1.0658 -0.2684
  385MOL0     C53019   7.672  10.954   7.624  0.1498  0.8241 -0.0545
  385MOL0     C53020   7.702  11.000   7.481 -1.1254 -0.3967 -0.5350
  385MOL0     C53021   7.777  10.899   7.709  0.4866 -0.8955 -0.2714
  385MOL0     C53022   7.912  10.861   7.662  0.0819  0.6964 -0.3534
  385MOL0     O53023   7.910  10.802   7.540 -0.5441 -0.1233  0.5658
  385MOL0     C53024   8.007  10.707   7.500  0.0801  0.7634  0.3448
  385MOL0     C53025   8.061  10.608   7.581 -0.0458  0.6334 -0.5441
  385MOL0     C53026   8.158  10.518   7.528  0.2495  0.4325 -0.8576
  385MOL0     C53027   8.194  10.521   7.398  0.8301  0.1050  0.0680
  385MOL0     O53028   8.274  10.430   7.345 -0.5128 -0.2559  0.0933
  385MOL0     C53029   8.393  10.418   7.423  0.1481  0.5300 -0.0833
  385MOL0     C53030   8.513  10.365   7.333  1.1780  0.5254 -0.8707
  385MOL0     C53031   8.624  10.339   7.426 -0.1349 -0.2347 -0.2832
  385MOL0     C53032   8.698  10.217   7.366 -0.5109  0.2160  0.5768
  385MOL0     C53033   8.826  10.192   7.450  0.1047 -0.0046 -0.4542
  385MOL0     C53034   8.901  10.058   7.430  0.3961 -0.5079 -0.4874
  385MOL0     C53035   8.973  10.042   7.304  0.6089  0.1014  0.4053
  385MOL0     C53036   9.102  10.118   7.304 -0.4732 -0.1396 -0.1754
  385MOL0    Cl53037   9.205  10.089   7.456  0.4622 -0.0215 -0.0701
  385MOL0     C53038   8.144  10.613   7.314  1.0987  0.1926 -0.0175
  385MOL0     C53039   8.053  10.709   7.365  0.2762 -0.6180  0.1918
  385MOL0     O53040   8.002  10.871   7.742  0.1067 -0.1850 -0.0109
  385MOL0     C53041   7.746  10.889   7.843  0.3891 -0.3186  0.0320
  385MOL0     C53042   7.627  10.925   7.900  0.1702  0.5524  0.2489
  385MOL0     N53043   6.806  11.178   7.669  0.5699  0.5591 -0.0782
  385MOL0     N53044   6.683  11.156   7.615  0.8590  0.5058 -0.1581
  385MOL0     C53045   5.498  10.691   7.864  0.1613  0.1342  0.1208
  385MOL0     C53046   5.366  10.651   7.872 -0.3244 -0.4700 -0.0274
  385MOL0     C53047   4.943  10.596   7.692  0.2737 -0.4407  0.1942
  385MOL0     C53048   4.936  10.477   7.620  0.3498 -0.1495  0.2874
  385MOL0     C53049   4.816  10.411   7.603  0.6122  0.0089 -1.3736
  385MOL0     C53050   4.696  10.472   7.649 -0.2914  0.4416  0.4112
  385MOL0     O53051   4.585  10.398   7.630 -0.5589 -0.2104 -0.6510
  385MOL0     C53052   4.462  10.469   7.618  0.3246 -0.5335 -0.3621
  385MOL0     C53053   4.462  10.549   7.474  0.5798  0.2258 -0.6489
  385MOL0     C53054   4.367  10.666   7.470 -0.0564  0.4018  1.0595
  385MOL0     C53055   4.214  10.626   7.461  1.3156  0.6683 -0.4769
  385MOL0     C53056   4.133  10.749   7.455  1.2952 -0.1627  0.9608
  385MOL0     C53057   4.054  10.844   7.463  0.5753  0.2131 -0.0816
  385MOL0     C53058   4.705  10.587   7.715 -0.2328  0.4315  0.0996
  385MOL0     C53059   4.823  10.655   7.739 -0.5084  0.0260 -0.1155
  385MOL0     C53060   4.821  10.786   7.811  0.0499 -1.1008 -0.7519
  385MOL0     H53061   5.311  10.619   7.528  0.0936 -1.2967  0.3780
  385MOL0     H53062   5.519  10.761   7.538  0.1254  3.0523  1.7835
  385MOL0     H53063   5.608  10.956   7.631  1.1579  4.1399  1.2270
  385MOL0     H53064   5.756  10.871   7.574  0.2501  2.9833 -1.4756
  385MOL0     H53065   5.786  11.117   7.669  0.6432  0.3711  0.4856
  385MOL0     H53066   5.690  11.059   7.805  0.2716  1.4520 -0.7848
  385MOL0     H53067   5.898  10.901   7.856 -0.1672  1.3928  2.0876
  385MOL0     H53068   5.966  10.943   7.706 -2.8431 -0.7294 -1.1654
  385MOL0     H53069   5.971  11.191   7.780 -0.3411 -0.1062  1.1887
  385MOL0     H53070   5.927  11.142   7.936 -0.2872 -1.0470  0.6401
  385MOL0     H53071   6.133  11.019   7.972  0.6568 -2.1319 -1.8876
  385MOL0     H53072   6.173  11.191   7.923 -1.5566  1.3745  0.3374
  385MOL0     H53073   6.189  10.937   7.747 -0.6597 -0.3831  1.1945
  385MOL0     H53074   6.187  11.104   7.677 -2.3010  0.5850  0.8942
  385MOL0     H53075   6.378  10.982   7.880  0.7372 -0.9195 -0.4044
  385MOL0     H53076   6.388  11.153   7.831 -1.9862  1.0244 -0.2042
  385MOL0     H53077   6.474  10.903   7.679 -0.5959 -0.0422  0.0220
  385MOL0     H53078   6.416  11.038   7.591 -0.4254  0.3134  0.5010
  385MOL0     H53079   6.641  11.015   7.912 -2.7487 -3.8385 -3.0333
  385MOL0     H53080   6.892  11.032   7.956 -2.9463 -1.2349 -1.8543
  385MOL0     H53081   6.924  11.213   7.945  1.4209  0.2481 -1.9869
  385MOL0     H53082   7.027  10.993   7.745  1.6542 -1.1983  0.6071
  385MOL0     H53083   7.075  11.167   7.748 -0.9323  0.0416 -0.7493
  385MOL0     H53084   7.175  11.097   7.973 -2.8732  1.8544  0.4792
  385MOL0     H53085   7.138  10.928   7.924 -1.7325  0.9059  0.0837
  385MOL0     H53086   7.285  10.954   7.724  3.2635 -1.5614  0.7323
  385MOL0     H53087   7.301  11.127   7.752  0.9225 -1.0002 -0.7799
  385MOL0     H53088   7.469  11.028   7.617 -0.7059 -0.7078 -0.0201
  385MOL0     H53089   7.766  11.089   7.487 -0.6078 -0.8589  2.4057
  385MOL0     H53090   7.609  11.027   7.430 -0.2801  0.0744 -1.8915
  385MOL0     H53091   7.755  10.930   7.415  0.3977 -0.2041  0.4316
  385MOL0     H53092   8.029  10.600   7.684 -1.5992 -0.3974 -1.0766
  385MOL0     H53093   8.187  10.442   7.600 -3.1566  0.7930  1.1408
  385MOL0     H53094   8.430  10.511   7.466 -1.8936  0.7221  1.3653
  385MOL0     H53095   8.377  10.345   7.503  5.1686 -1.1731 -0.2625
  385MOL0     H53096   8.482  10.276   7.278 -0.3196  2.1559 -2.8710
  385MOL0     H53097   8.541  10.425   7.246  4.6053 -2.4645 -2.0626
  385MOL0     H53098   8.588  10.303   7.523  0.1732 -1.8744 -0.7436
  385MOL0     H53099   8.683  10.430   7.442  0.3040 -0.2853 -1.5265
  385MOL0     H53100   8.723  10.239   7.261 -1.8965 -1.9396 -0.2764
  385MOL0     H53101   8.648  10.121   7.349  1.2207 -0.3467 -1.9946
  385MOL0     H53102   8.883  10.285   7.449 -1.5078  1.0371 -1.8562
  385MOL0     H53103   8.791  10.180   7.553  1.5972 -0.3150  0.0477
  385MOL0     H53104   8.817   9.988   7.429  0.2676 -0.6111  3.0611
  385MOL0     H53105   8.960  10.040   7.520  1.8467  0.9328 -1.0987
  385MOL0     H53106   8.906  10.076   7.224 -0.7371 -2.6316  0.2763
  385MOL0     H53107   8.988   9.937   7.281 -0.1125 -0.3738  1.9785
  385MOL0     H53108   9.089  10.225   7.288  0.1542  0.1866  1.3692
  385MOL0     H53109   9.158  10.076   7.219 -2.2282 -0.7768 -1.0814
  385MOL0     H53110   8.174  10.613   7.210  1.6024 -2.5203  0.0491
  385MOL0     H53111   8.004  10.773   7.292  0.3208 -0.9151 -0.1053
  385MOL0     H53112   7.817  10.837   7.907  1.1735 -0.9521 -1.3043
  385MOL0     H53113   7.620  10.906   8.006 -0.0457 -0.8921  0.0005
  385MOL0     H53114   5.553  10.698   7.957  0.0940  0.7578  0.1215
  385MOL0     H53115   5.315  10.626   7.965  1.2195 -2.3435  0.3739
  385MOL0     H53116   5.025  10.433   7.576  0.8539 -1.3263  2.3055
  385MOL0     H53117   4.794  10.317   7.552 -4.1801 -2.1131  3.6404
  385MOL0     H53118   4.379  10.402   7.641  0.5669  0.0019  2.4750
  385MOL0     H53119   4.451  10.540   7.701 -2.4380 -1.5851  0.2775
  385MOL0     H53120   4.431  10.484   7.391  0.1976  3.1151 -2.9041
  385MOL0     H53121   4.561  10.594   7.461  2.0484 -2.5388  0.0300
  385MOL0     H53122   4.390  10.735   7.552 -0.2255 -0.3264  1.7245
  385MOL0     H53123   4.388  10.719   7.376 -0.4985 -1.1150  0.0737
  385MOL0     H53124   4.180  10.569   7.548 -1.4075  2.1568 -0.4416
  385MOL0     H53125   4.200  10.569   7.369 -2.4500  2.1884 -1.0228
  385MOL0     H53126   3.983  10.922   7.482  1.4747  2.2303 -4.0072
  385MOL0     H53127   4.615  10.633   7.754 -3.2045 -2.8115 -2.3586
  385MOL0     H53128   4.806  10.854   7.727  0.6846 -2.1224 -1.7281
  385MOL0     H53129   4.744  10.788   7.888 -0.7281 -0.1534 -1.5325
  385MOL0     H53130   4.912  10.816   7.864 -1.3747  0.3548  1.0015
  386MOL0     O53131   5.385   4.669   8.765 -0.0304  0.6333 -0.4711
  386MOL0     C53132   5.276   4.725   8.753  0.1565  0.1768 -0.2211
  386MOL0     O53133   5.253   4.860   8.744 -0.3394  0.4708 -0.8762
  386MOL0     C53134   5.352   4.944   8.704  0.1000  0.1211  0.1572
  386MOL0     C53135   5.416   4.931   8.584 -0.1629 -0.7807 -0.6207
  386MOL0     C53136   5.522   5.019   8.546 -0.4259  0.1509  0.6744
  386MOL0     C53137   5.563   5.114   8.641 -0.4819 -0.2433 -0.4387
  386MOL0     O53138   5.672   5.187   8.596 -0.7792  0.9361 -0.9176
  386MOL0     C53139   5.757   5.260   8.687  0.1601  0.4783  0.1186
  386MOL0     C53140   5.888   5.307   8.613  0.4885  0.0834  0.1190
  386MOL0     C53141   5.986   5.370   8.706 -0.0864 -0.0788 -0.4943
  386MOL0     C53142   6.106   5.437   8.641 -0.0253 -0.2809 -0.6292
  386MOL0     C53143   6.206   5.472   8.754  0.0787 -0.1080  0.4261
  386MOL0     C53144   6.309   5.567   8.707  0.0093  1.2570 -0.2969
  386MOL0     C53145   6.389   5.604   8.829  0.1003 -0.8929  0.2345
  386MOL0     C53146   6.491   5.718   8.803  0.4671 -0.3322  0.2498
  386MOL0     N53147   6.583   5.733   8.918  1.1504  0.2130 -0.2114
  386MOL0     C53148   6.715   5.707   8.886  0.6416 -0.6370 -0.2595
  386MOL0     C53149   6.777   5.730   9.002 -0.4306  0.5100 -0.3924
  386MOL0     C53150   6.937   5.724   9.026  0.5424 -0.0515 -0.0348
  386MOL0     C53151   6.996   5.863   9.041 -1.4100 -0.0664 -0.9094
  386MOL0     C53152   7.127   5.860   9.128  0.5425 -0.5321  0.3788
  386MOL0     C53153   7.203   5.994   9.115 -0.2970  0.8494  0.5149
  386MOL0     O53154   7.289   6.004   9.232 -0.2114 -0.0326  0.6161
  386MOL0     C53155   7.419   5.953   9.243  0.1105  0.2365 -0.1926
  386MOL0     C53156   7.501   5.969   9.357  0.4343  0.2668 -0.3228
  386MOL0     C53157   7.634   5.928   9.359 -0.1877  0.1900 -1.1416
  386MOL0     C53158   7.709   5.963   9.490 -0.0372 -0.0512  0.3109
  386MOL0     C53159   7.695   5.871   9.244 -0.2913 -0.5468  1.0657
  386MOL0     C53160   7.841   5.840   9.228 -0.0930 -1.1783  0.3366
  386MOL0     O53161   7.928   5.865   9.327  0.3875  0.3930 -0.0220
  386MOL0     C53162   8.070   5.845   9.323 -0.1928 -0.5547 -0.8894
  386MOL0     C53163   8.148   5.862   9.201  0.1468 -0.3189  0.3846
  386MOL0     C53164   8.286   5.865   9.199  0.1054  0.0155 -0.2655
  386MOL0     C53165   8.356   5.843   9.320 -0.3919 -0.7074  0.4869
  386MOL0     O53166   8.491   5.857   9.317 -0.5074  0.2799  0.5093
  386MOL0     C53167   8.561   5.843   9.446  0.4282 -0.1417  0.1462
  386MOL0     C53168   8.711   5.832   9.416  0.5895  1.1827  0.8847
  386MOL0     C53169   8.791   5.771   9.530  0.5836 -0.6752  0.7296
  386MOL0     C53170   8.927   5.721   9.499 -0.2546 -0.1677  0.5825
  386MOL0     C53171   8.985   5.648   9.626  0.0629 -0.3407  0.3532
  386MOL0     C53172   9.122   5.587   9.579 -0.2695 -0.3109 -0.7489
  386MOL0     C53173   9.232   5.689   9.553  0.4099 -0.5364  0.5765
  386MOL0     C53174   9.343   5.636   9.458 -0.1443 -0.4688  0.2638
  386MOL0    Cl53175   9.290   5.612   9.290 -0.2702 -0.2946  0.1686
  386MOL0     C53176   8.285   5.829   9.441 -0.0182 -0.1030 -0.0174
  386MOL0     C53177   8.144   5.828   9.440 -0.1340 -0.2659 -0.1348
  386MOL0     O53178   7.867   5.778   9.125 -0.4231 -0.2903 -0.3402
  386MOL0     C53179   7.613   5.843   9.133 -0.7684  0.6279 -0.2118
  386MOL0     C53180   7.476   5.879   9.135 -0.8261  0.7232 -0.4499
  386MOL0     N53181   6.676   5.763   9.099  0.0181 -0.3168  0.3769
  386MOL0     N53182   6.560   5.767   9.049  0.2037  0.1558  0.3533
  386MOL0     C53183   5.496   5.134   8.757  0.5797  0.1712  0.0764
  386MOL0     C53184   5.391   5.045   8.789  0.5074 -0.0613 -0.1139
  386MOL0     C53185   5.161   4.631   8.760  0.4861 -0.1368 -0.4289
  386MOL0     C53186   5.152   4.529   8.857 -0.0056  0.0732  0.4946
  386MOL0     C53187   5.034   4.446   8.859  0.4580 -0.2419 -0.2289
  386MOL0     C53188   4.929   4.470   8.774  0.2287 -0.9982 -0.1187
  386MOL0     O53189   4.812   4.412   8.788  0.2598 -0.2581  0.9138
  386MOL0     C53190   4.783   4.305   8.872 -0.2693  0.2693 -0.1442
  386MOL0     C53191   4.634   4.252   8.858 -0.5618 -0.0737  0.3784
  386MOL0     C53192   4.596   4.179   8.987 -0.5768 -1.0411 -1.1832
  386MOL0     C53193   4.447   4.160   8.995  0.0968 -0.0723  0.0672
  386MOL0     C53194   4.384   4.072   8.891  0.3242  0.4455 -0.6421
  386MOL0     C53195   4.328   4.008   8.800 -0.8609 -0.5435  1.2412
  386MOL0     C53196   4.940   4.568   8.680 -0.1132 -0.2437  0.7662
  386MOL0     C53197   5.053   4.644   8.669  0.2274 -0.6176  0.1989
  386MOL0     C53198   5.060   4.739   8.554 -1.0434  0.2944  0.2523
  386MOL0     H53199   5.377   4.847   8.528 -0.9262 -2.1139  1.7427
  386MOL0     H53200   5.583   5.008   8.457 -0.9698 -0.3023  0.3523
  386MOL0     H53201   5.766   5.200   8.778 -1.3274 -1.1716 -0.7685
  386MOL0     H53202   5.704   5.348   8.725 -2.4297 -1.9459  2.6695
  386MOL0     H53203   5.934   5.218   8.570  1.4766  0.7791 -0.3059
  386MOL0     H53204   5.845   5.379   8.542  0.4855 -1.0250 -1.0375
  386MOL0     H53205   5.942   5.432   8.784  1.4838 -1.5979  1.7456
  386MOL0     H53206   6.029   5.284   8.760  2.4301 -0.2225 -2.5482
  386MOL0     H53207   6.145   5.362   8.572 -1.3877  0.0176 -1.7425
  386MOL0     H53208   6.068   5.523   8.586 -1.5107 -0.3649  0.2335
  386MOL0     H53209   6.257   5.378   8.777 -0.9388 -0.1663  2.6571
  386MOL0     H53210   6.155   5.518   8.839 -0.6359 -0.7411  0.3487
  386MOL0     H53211   6.364   5.527   8.622  0.5352 -0.3387  0.7365
  386MOL0     H53212   6.264   5.662   8.678 -1.3280  0.6339 -0.3619
  386MOL0     H53213   6.446   5.513   8.854  2.6835 -0.0064 -1.9204
  386MOL0     H53214   6.316   5.628   8.907  1.3155  0.9091  0.8895
  386MOL0     H53215   6.545   5.696   8.711  1.4613 -0.3953  0.8371
  386MOL0     H53216   6.438   5.814   8.799 -1.8031 -1.5330 -0.5951
  386MOL0     H53217   6.769   5.663   8.804  2.0693 -1.4619  1.0773
  386MOL0     H53218   6.986   5.681   8.938 -0.5388 -0.1378 -0.6191
  386MOL0     H53219   6.959   5.652   9.106 -2.8888 -1.8354 -0.4922
  386MOL0     H53220   7.026   5.897   8.941 -0.2285  1.8948  0.0543
  386MOL0     H53221   6.919   5.922   9.092 -0.7541 -1.3332  1.6656
  386MOL0     H53222   7.097   5.835   9.230 -0.2801 -0.5233  0.1479
  386MOL0     H53223   7.185   5.779   9.083 -2.5331 -0.8017 -3.7133
  386MOL0     H53224   7.260   5.988   9.022  0.3301  1.3838  0.8594
  386MOL0     H53225   7.139   6.079   9.092  1.9565  2.5907  0.3113
  386MOL0     H53226   7.447   6.003   9.445 -1.1074  0.8446 -1.4533
  386MOL0     H53227   7.639   5.999   9.566  2.0386  2.3801  1.2367
  386MOL0     H53228   7.774   6.049   9.472 -0.6824  0.4328  0.2419
  386MOL0     H53229   7.762   5.876   9.529 -0.4555 -2.3177 -3.6986
  386MOL0     H53230   8.095   5.879   9.107  0.4672 -0.5784  0.1561
  386MOL0     H53231   8.340   5.892   9.109 -0.9673 -0.3228 -1.0336
  386MOL0     H53232   8.546   5.925   9.516  0.3189 -1.0713  1.2304
  386MOL0     H53233   8.524   5.757   9.501  0.0556 -0.1733 -0.1466
  386MOL0     H53234   8.726   5.765   9.331 -3.1869  2.9811 -1.4370
  386MOL0     H53235   8.754   5.931   9.398  1.4964  0.2706 -3.0384
  386MOL0     H53236   8.738   5.682   9.566  0.7059 -1.4930 -0.9912
  386MOL0     H53237   8.794   5.844   9.611  2.2760  0.4605 -0.2966
  386MOL0     H53238   8.980   5.810   9.463 -0.4881  0.5582  1.9733
  386MOL0     H53239   8.924   5.649   9.416  0.2740  1.2440 -0.7159
  386MOL0     H53240   9.014   5.717   9.705  0.4562 -0.0138 -0.0670
  386MOL0     H53241   8.914   5.569   9.652 -1.0448  0.2879 -0.6472
  386MOL0     H53242   9.119   5.530   9.486  2.8182 -0.0738 -1.0831
  386MOL0     H53243   9.146   5.515   9.658 -0.7130  0.8176  0.4650
  386MOL0     H53244   9.276   5.729   9.645  1.1269 -2.5631  1.1757
  386MOL0     H53245   9.198   5.772   9.491 -0.2387 -1.4601 -0.3502
  386MOL0     H53246   9.385   5.540   9.492  1.0298  0.0465  0.3305
  386MOL0     H53247   9.418   5.715   9.451 -1.8762  1.1168 -1.2309
  386MOL0     H53248   8.333   5.827   9.539 -0.8158  1.2171  0.4298
  386MOL0     H53249   8.085   5.809   9.529  0.8548  1.1588  0.8715
  386MOL0     H53250   7.649   5.800   9.040  1.3425  0.0743  0.7967
  386MOL0     H53251   7.417   5.840   9.053 -1.0857  1.2057 -0.4924
  386MOL0     H53252   5.523   5.206   8.835  0.7178  0.0146  0.1743
  386MOL0     H53253   5.338   5.060   8.883 -1.1476  0.4747 -1.0844
  386MOL0     H53254   5.221   4.499   8.935 -2.1063 -0.8645  2.1199
  386MOL0     H53255   5.023   4.367   8.933 -0.1841  1.2197  1.3090
  386MOL0     H53256   4.854   4.224   8.855  0.4626  1.0515 -0.9901
  386MOL0     H53257   4.780   4.338   8.977 -0.3416  0.8692 -0.3280
  386MOL0     H53258   4.624   4.186   8.771 -0.8116  0.6705 -0.1751
  386MOL0     H53259   4.566   4.336   8.842  1.1110  1.3960  0.5437
  386MOL0     H53260   4.644   4.081   8.996 -1.2959 -1.3175 -0.1330
  386MOL0     H53261   4.633   4.230   9.077  0.5240 -0.4803 -1.9296
  386MOL0     H53262   4.397   4.257   9.000  1.3669  0.6023  0.1649
  386MOL0     H53263   4.427   4.113   9.091 -1.0857  1.4795  0.6209
  386MOL0     H53264   4.272   3.954   8.726 -1.4933 -0.0807  1.3730
  386MOL0     H53265   4.859   4.586   8.609  1.6547  3.8342 -0.4733
  386MOL0     H53266   5.093   4.836   8.594 -1.0350  0.3633  0.0780
  386MOL0     H53267   5.150   4.711   8.500  0.7395  1.7073  2.3375
  386MOL0     H53268   4.964   4.752   8.502 -2.5713 -0.5239  2.6792
  387MOL0     O53269   3.294   7.357   7.132  0.0820  0.0392  0.3867
  387MOL0     C53270   3.331   7.363   7.013 -0.1000  0.5371 -0.1890
  387MOL0     O53271   3.461   7.374   6.976 -0.0046 -0.0134 -0.0149
  387MOL0     C53272   3.562   7.394   7.073 -0.7827 -0.3156  0.2157
  387MOL0     C53273   3.618   7.521   7.078  0.0212 -0.4554 -0.5193
  387MOL0     C53274   3.724   7.546   7.168 -0.4051  0.3994 -0.5572
  387MOL0     C53275   3.779   7.444   7.255  1.2394 -0.6122  0.1175
  387MOL0     O53276   3.891   7.456   7.334  0.7160 -0.3913  0.4581
  387MOL0     C53277   3.989   7.546   7.273  0.0248 -0.6407  0.0357
  387MOL0     C53278   4.112   7.540   7.367  1.0959 -0.1855  0.5716
  387MOL0     C53279   4.223   7.618   7.299  0.2582  0.4684  0.2823
  387MOL0     C53280   4.352   7.599   7.382 -0.1840  0.3170 -0.7893
  387MOL0     C53281   4.471   7.642   7.304  0.6182  0.4417 -0.1160
  387MOL0     C53282   4.593   7.625   7.393 -0.8051  0.0415  0.2684
  387MOL0     C53283   4.722   7.656   7.324  0.2007 -0.3680 -0.0155
  387MOL0     C53284   4.850   7.613   7.407 -0.2293  1.3431  0.4464
  387MOL0     N53285   4.986   7.663   7.375  0.2824  0.5363  0.1494
  387MOL0     C53286   4.996   7.784   7.323 -0.0352 -0.2903  0.3487
  387MOL0     C53287   5.127   7.806   7.314 -0.6428  1.5547  0.3192
  387MOL0     C53288   5.195   7.908   7.229 -0.1260 -1.0239 -0.3255
  387MOL0     C53289   5.341   7.877   7.193  0.3023  1.1838 -0.9462
  387MOL0     C53290   5.410   8.004   7.148 -0.3839 -0.4350 -0.0995
  387MOL0     C53291   5.365   8.071   7.013 -0.0826 -0.2507 -0.5560
  387MOL0     O53292   5.437   8.197   7.011  0.2669  0.0472  0.4322
  387MOL0     C53293   5.565   8.201   6.970 -0.6382  1.3256  0.4463
  387MOL0     C53294   5.644   8.095   6.917 -0.1744 -0.6370 -0.1496
  387MOL0     C53295   5.780   8.110   6.887 -0.1911 -0.4973  0.9607
  387MOL0     C53296   5.851   7.998   6.816 -0.3613 -1.0410 -0.3709
  387MOL0     C53297   5.847   8.224   6.924 -0.5407 -0.1938  0.0877
  387MOL0     C53298   5.986   8.260   6.895  0.4461  0.2589  0.1591
  387MOL0     O53299   6.058   8.316   6.998  0.0957 -0.2488  0.8741
  387MOL0     C53300   6.189   8.350   6.977 -0.2201 -0.2685  0.0296
  387MOL0     C53301   6.224   8.442   6.886  0.2899  0.1987  0.6115
  387MOL0     C53302   6.361   8.476   6.873  0.3851  0.2873  0.5150
  387MOL0     C53303   6.452   8.437   6.965 -1.7864  0.6867 -0.1304
  387MOL0     O53304   6.580   8.483   6.935  0.0494  0.6293 -0.2702
  387MOL0     C53305   6.653   8.512   7.055 -1.5166  0.5309 -0.8243
  387MOL0     C53306   6.782   8.589   7.029 -0.4411 -0.4788  0.7051
  387MOL0     C53307   6.880   8.508   6.941  0.3801  0.1323 -0.4230
  387MOL0     C53308   7.011   8.583   6.933 -0.5664 -0.5989  0.2825
  387MOL0     C53309   7.098   8.509   6.829 -0.0117 -0.6978 -0.9106
  387MOL0     C53310   7.240   8.565   6.811  0.3321 -0.0611  0.3183
  387MOL0     C53311   7.335   8.535   6.925  0.0360  0.4430  0.4461
  387MOL0     C53312   7.475   8.591   6.907 -0.5297 -0.6908 -0.8813
  387MOL0    Cl53313   7.534   8.528   6.764  0.3671 -0.1007 -0.0252
  387MOL0     C53314   6.414   8.348   7.066 -1.4188 -1.3044 -0.4628
  387MOL0     C53315   6.281   8.314   7.076 -0.1915  0.1963  0.1472
  387MOL0     O53316   6.025   8.252   6.776  0.0096  0.5257  0.0594
  387MOL0     C53317   5.771   8.325   6.983 -0.4513 -0.3067 -0.6023
  387MOL0     C53318   5.642   8.301   7.021 -0.5608  0.3929  0.3043
  387MOL0     N53319   5.195   7.707   7.396 -0.2708  0.1052  0.3782
  387MOL0     N53320   5.103   7.627   7.432  0.0609 -0.3554  0.1979
  387MOL0     C53321   3.719   7.320   7.246  0.0432  0.2609 -0.4753
  387MOL0     C53322   3.608   7.293   7.166 -0.1745  0.7540  0.2721
  387MOL0     C53323   3.211   7.366   6.916  0.7967  1.2141 -0.5985
  387MOL0     C53324   3.227   7.415   6.788 -0.8447  0.9414  0.6611
  387MOL0     C53325   3.135   7.420   6.693  0.7230  0.4608  0.6497
  387MOL0     C53326   3.006   7.377   6.721  0.0922  0.4841 -0.0367
  387MOL0     O53327   2.920   7.354   6.619  0.2648  0.6306  0.5172
  387MOL0     C53328   2.795   7.422   6.618  0.0789 -0.3590  1.1836
  387MOL0     C53329   2.816   7.562   6.565  0.6265 -0.1363 -0.8252
  387MOL0     C53330   2.887   7.563   6.435 -0.2666  0.1251 -0.9138
  387MOL0     C53331   2.837   7.469   6.327 -0.3024  0.0926 -0.0101
  387MOL0     C53332   2.692   7.489   6.304  0.1642 -0.0631 -1.0287
  387MOL0     C53333   2.572   7.506   6.289  0.5351  0.2609 -0.0076
  387MOL0     C53334   2.978   7.339   6.853  0.9070  0.0923  0.2254
  387MOL0     C53335   3.076   7.328   6.940 -1.0113 -0.3466  0.6557
  387MOL0     C53336   3.042   7.270   7.069  0.4937  0.6972  0.0215
  387MOL0     H53337   3.573   7.599   7.017  0.6204  1.7832  1.7534
  387MOL0     H53338   3.764   7.646   7.178 -1.2322  0.6733  0.1315
  387MOL0     H53339   3.958   7.651   7.278 -1.4619 -1.0790  0.3836
  387MOL0     H53340   4.019   7.520   7.171  2.3890 -0.1017  0.5352
  387MOL0     H53341   4.078   7.589   7.459  2.9473  0.0698  1.1500
  387MOL0     H53342   4.135   7.437   7.395 -2.5633 -1.0939  0.8201
  387MOL0     H53343   4.243   7.597   7.194  1.0199  0.5693  0.4025
  387MOL0     H53344   4.205   7.726   7.290 -1.3439  0.0756 -2.0781
  387MOL0     H53345   4.344   7.648   7.480 -0.8823 -1.4846  0.1013
  387MOL0     H53346   4.362   7.491   7.393 -0.6559  0.3397 -0.0501
  387MOL0     H53347   4.454   7.744   7.270 -0.7726 -0.1345 -1.2773
  387MOL0     H53348   4.481   7.574   7.219  2.6874  2.3326 -1.4647
  387MOL0     H53349   4.575   7.684   7.483  0.6453 -0.5530  0.9808
  387MOL0     H53350   4.600   7.518   7.417 -0.1614 -0.5359 -2.2139
  387MOL0     H53351   4.724   7.764   7.308  0.2780 -0.0601  1.8455
  387MOL0     H53352   4.714   7.608   7.227  0.2525 -1.8158  0.6716
  387MOL0     H53353   4.844   7.645   7.511  1.6946  1.8675  0.4260
  387MOL0     H53354   4.858   7.504   7.417  2.4662  1.4297 -0.1035
  387MOL0     H53355   4.914   7.847   7.290 -0.9762 -1.5128  0.2900
  387MOL0     H53356   5.193   7.993   7.297  0.1150 -1.5567  0.3602
  387MOL0     H53357   5.127   7.931   7.146 -1.0041  1.0460  0.8802
  387MOL0     H53358   5.394   7.847   7.284  0.4743 -0.2347 -1.4912
  387MOL0     H53359   5.338   7.791   7.126 -0.5953  0.6878 -0.2915
  387MOL0     H53360   5.394   8.081   7.224 -0.8288  0.7089 -1.2942
  387MOL0     H53361   5.518   7.986   7.144  0.1131  2.0948 -0.0534
  387MOL0     H53362   5.389   7.991   6.941 -0.0681 -1.3495  0.6282
  387MOL0     H53363   5.256   8.081   7.011 -0.6611 -4.5104 -0.8605
  387MOL0     H53364   5.607   7.998   6.886  4.1256 -2.2040 -0.9954
  387MOL0     H53365   5.828   7.989   6.710 -1.9609 -5.5092  0.1159
  387MOL0     H53366   5.813   7.905   6.860 -2.8644 -1.0121 -2.3004
  387MOL0     H53367   5.959   8.004   6.830 -0.2437 -3.1152 -0.0875
  387MOL0     H53368   6.143   8.488   6.831  1.6095  0.8015 -0.9437
  387MOL0     H53369   6.388   8.546   6.794  0.2472  0.3890  0.5564
  387MOL0     H53370   6.597   8.582   7.118  0.1670  1.2042 -0.0028
  387MOL0     H53371   6.682   8.417   7.102 -0.2892  0.3201 -1.9558
  387MOL0     H53372   6.753   8.688   6.994  0.2736 -1.0343 -1.6101
  387MOL0     H53373   6.841   8.619   7.117  0.5950  0.6664 -0.3487
  387MOL0     H53374   6.834   8.479   6.846  1.1574 -4.1613  0.2929
  387MOL0     H53375   6.900   8.414   6.993  2.7458  0.4760 -0.6075
  387MOL0     H53376   7.053   8.601   7.033 -0.0182 -2.5477  0.4311
  387MOL0     H53377   6.989   8.683   6.892 -2.8077 -0.6246  1.2885
  387MOL0     H53378   7.111   8.401   6.843 -0.6180 -0.4451  2.7185
  387MOL0     H53379   7.036   8.534   6.743 -3.9970  0.0821  1.8897
  387MOL0     H53380   7.230   8.674   6.815 -2.6194 -0.0462 -2.7278
  387MOL0     H53381   7.285   8.553   6.712 -2.5647  0.7440 -1.2172
  387MOL0     H53382   7.349   8.427   6.941 -0.3208  0.4977  1.1694
  387MOL0     H53383   7.301   8.575   7.021 -2.2261 -0.4971  0.0898
  387MOL0     H53384   7.528   8.551   6.994 -0.2249 -0.5180 -0.9861
  387MOL0     H53385   7.478   8.700   6.905 -2.2355 -0.5819  0.5269
  387MOL0     H53386   6.489   8.324   7.142 -1.7631 -0.9017  0.0086
  387MOL0     H53387   6.244   8.259   7.162 -0.0974  0.8107  0.5851
  387MOL0     H53388   5.819   8.418   7.012 -0.2706 -1.3666  2.9950
  387MOL0     H53389   5.593   8.381   7.076 -0.1407  1.7206 -1.1938
  387MOL0     H53390   3.767   7.235   7.293 -0.4639 -1.0282 -2.2078
  387MOL0     H53391   3.559   7.197   7.168  1.9127 -0.3897  3.6352
  387MOL0     H53392   3.326   7.445   6.753 -1.4476 -1.2898 -3.5671
  387MOL0     H53393   3.144   7.439   6.586 -2.0733 -2.9279 -0.3787
  387MOL0     H53394   2.727   7.356   6.564 -1.2592  0.6045  1.6474
  387MOL0     H53395   2.742   7.417   6.714  2.5413 -0.1978  2.6380
  387MOL0     H53396   2.865   7.621   6.643 -2.9281  1.8197  0.1290
  387MOL0     H53397   2.716   7.603   6.550 -0.5175 -0.6948  3.7766
  387MOL0     H53398   2.872   7.665   6.396 -0.5821  1.1940  1.8239
  387MOL0     H53399   2.994   7.553   6.454 -0.3845  0.4457 -0.0436
  387MOL0     H53400   2.863   7.368   6.358 -0.3662  0.7174  2.2484
  387MOL0     H53401   2.882   7.500   6.232 -1.7575  2.4054 -0.0321
  387MOL0     H53402   2.468   7.528   6.279  0.3486  0.0024  1.1702
  387MOL0     H53403   2.879   7.306   6.880  0.8185 -0.9190 -1.2421
  387MOL0     H53404   3.024   7.346   7.145 -3.7010  0.5257 -0.5548
  387MOL0     H53405   2.949   7.212   7.065  1.6954 -1.8372  3.4871
  387MOL0     H53406   3.122   7.206   7.108  2.0262  1.1355 -2.1940
  388MOL0     O53407   2.239   6.996   2.251 -0.0837 -1.0292 -0.1709
  388MOL0     C53408   2.212   7.027   2.368  0.5647  1.3115 -0.4839
  388MOL0     O53409   2.300   7.076   2.455 -0.8508  0.4394 -0.1333
  388MOL0     C53410   2.425   7.118   2.410 -0.0532 -0.3279 -0.7754
  388MOL0     C53411   2.527   7.024   2.389  0.3271  0.0996  0.1593
  388MOL0     C53412   2.653   7.068   2.346  0.1899 -0.6654 -0.6248
  388MOL0     C53413   2.671   7.202   2.315 -1.1988  0.4037  0.5075
  388MOL0     O53414   2.780   7.253   2.255  0.3371  0.3533 -0.4830
  388MOL0     C53415   2.884   7.157   2.212  1.0796 -1.2092 -0.8566
  388MOL0     C53416   2.999   7.161   2.319 -0.0896  0.7867  0.4103
  388MOL0     C53417   3.096   7.036   2.303  0.6464  0.8880  0.7800
  388MOL0     C53418   3.172   7.023   2.425  0.0995  0.0962 -0.3488
  388MOL0     C53419   3.265   6.906   2.406 -0.7059  0.3554  0.7113
  388MOL0     C53420   3.327   6.863   2.547  0.5968  0.2324 -0.1311
  388MOL0     C53421   3.451   6.783   2.517 -1.2041  0.5466 -0.2846
  388MOL0     C53422   3.577   6.877   2.471 -0.1382  0.5369 -0.4080
  388MOL0     N53423   3.705   6.804   2.466 -0.4674  0.2898 -0.1637
  388MOL0     C53424   3.764   6.728   2.564 -0.9809 -0.2044 -0.1448
  388MOL0     C53425   3.883   6.697   2.501  0.3368 -0.2499 -0.1450
  388MOL0     C53426   3.997   6.611   2.556  0.0149 -0.4107  0.4671
  388MOL0     C53427   4.093   6.699   2.635  0.0681 -1.0548  0.4484
  388MOL0     C53428   4.025   6.766   2.758 -0.1209  0.5866 -0.6045
  388MOL0     C53429   4.128   6.809   2.860  1.1105  0.0075 -0.9955
  388MOL0     O53430   4.076   6.882   2.974  0.4093  0.4181 -0.0607
  388MOL0     C53431   3.943   6.918   2.977  0.2853 -0.1104  0.1253
  388MOL0     C53432   3.840   6.833   3.029  0.1231 -0.3464  0.3088
  388MOL0     C53433   3.710   6.859   3.004 -0.0827  0.6433  0.3319
  388MOL0     C53434   3.618   6.753   3.058 -0.6751 -0.0575 -0.4675
  388MOL0     C53435   3.668   6.977   2.940 -0.3775 -0.2531  0.2574
  388MOL0     C53436   3.528   7.010   2.885  0.1397  0.8992 -0.0946
  388MOL0     O53437   3.422   6.982   2.973 -0.2672  0.5653  0.2458
  388MOL0     C53438   3.294   6.999   2.928  0.4647 -0.7131  0.3026
  388MOL0     C53439   3.237   7.130   2.918 -0.3425 -0.1324  1.0099
  388MOL0     C53440   3.106   7.136   2.867  0.2218  0.6289  0.4663
  388MOL0     C53441   3.031   7.023   2.825 -0.0835  0.1349 -0.3386
  388MOL0     O53442   2.896   7.029   2.804 -0.4046 -0.0526  0.2446
  388MOL0     C53443   2.819   7.045   2.929  0.8069  0.0313 -0.0881
  388MOL0     C53444   2.776   6.906   2.982 -0.6048  0.5600 -0.0631
  388MOL0     C53445   2.634   6.911   3.056 -0.3315  0.6669  0.2834
  388MOL0     C53446   2.638   7.022   3.159 -0.1375  0.1667  0.1014
  388MOL0     C53447   2.528   7.011   3.269 -0.7593 -0.6952 -0.2614
  388MOL0     C53448   2.384   7.004   3.204  0.1071  0.5101  0.5890
  388MOL0     C53449   2.282   7.006   3.314  0.3987  0.1005 -0.2111
  388MOL0     C53450   2.142   7.037   3.260  0.6646 -0.8441  0.3325
  388MOL0    Cl53451   2.026   7.096   3.387 -0.1243 -0.3506 -0.2591
  388MOL0     C53452   3.090   6.898   2.833 -0.3595 -0.4892 -0.6030
  388MOL0     C53453   3.222   6.890   2.884 -0.0717  0.0494  0.4741
  388MOL0     O53454   3.517   7.062   2.778  0.4704 -0.0622 -0.6244
  388MOL0     C53455   3.765   7.076   2.912 -0.0213 -0.2672  0.3292
  388MOL0     C53456   3.899   7.043   2.925  0.3886  0.2586 -0.8782
  388MOL0     N53457   3.887   6.753   2.371 -0.7905  0.0249  0.0092
  388MOL0     N53458   3.778   6.814   2.355 -0.5854  0.2940 -0.1401
  388MOL0     C53459   2.567   7.294   2.333 -0.2574  0.0787  0.3100
  388MOL0     C53460   2.447   7.254   2.382  0.7377 -0.0091  0.7478
  388MOL0     C53461   2.070   7.010   2.423  0.0205  1.3297  0.1879
  388MOL0     C53462   2.031   7.107   2.514 -0.3013  0.1905 -0.1424
  388MOL0     C53463   1.922   7.085   2.596 -0.1110  0.3364  0.4579
  388MOL0     C53464   1.846   6.967   2.569  0.1482  0.2893  0.8614
  388MOL0     O53465   1.726   6.930   2.620 -0.0416 -0.3256  0.0672
  388MOL0     C53466   1.666   7.023   2.713 -1.2184  0.2365  0.1096
  388MOL0     C53467   1.522   7.000   2.745  0.1284  0.6549 -0.5060
  388MOL0     C53468   1.522   6.891   2.860 -0.7872 -0.2960  0.7612
  388MOL0     C53469   1.377   6.882   2.912  0.1047  0.1450  0.2582
  388MOL0     C53470   1.332   6.999   2.995  0.3853 -0.1551  0.2678
  388MOL0     C53471   1.306   7.099   3.061  0.0693 -0.2422  0.7384
  388MOL0     C53472   1.883   6.876   2.473 -0.3126 -1.2941  0.5445
  388MOL0     C53473   1.994   6.896   2.392 -0.4382 -0.1984 -0.7090
  388MOL0     C53474   2.043   6.775   2.309  0.5571 -0.3978 -0.4019
  388MOL0     H53475   2.503   6.919   2.401 -1.1778  0.4811  0.6462
  388MOL0     H53476   2.721   6.983   2.346 -2.0544 -2.6024 -1.3193
  388MOL0     H53477   2.924   7.193   2.117 -2.0069  1.2247 -1.4230
  388MOL0     H53478   2.857   7.052   2.203 -0.8565 -0.8099 -0.2635
  388MOL0     H53479   3.070   7.244   2.319  1.1732 -0.2672  0.8740
  388MOL0     H53480   2.951   7.167   2.417 -2.5525 -0.0432 -0.6436
  388MOL0     H53481   3.039   6.947   2.274  1.2276  1.0004 -0.8181
  388MOL0     H53482   3.164   7.055   2.220  0.4139 -0.7616  0.1783
  388MOL0     H53483   3.228   7.114   2.447  0.9144 -0.7694  1.3650
  388MOL0     H53484   3.104   7.003   2.509 -1.5039  0.5671 -1.4865
  388MOL0     H53485   3.345   6.936   2.338 -0.8228  1.0012  0.8520
  388MOL0     H53486   3.225   6.819   2.352  2.8990 -1.1388  0.1611
  388MOL0     H53487   3.330   6.947   2.617  0.0843  0.8691 -0.8468
  388MOL0     H53488   3.253   6.795   2.590  1.3723  0.5348  1.7517
  388MOL0     H53489   3.431   6.699   2.450 -1.2438  1.5902 -1.6176
  388MOL0     H53490   3.485   6.737   2.610  0.1005 -0.1456 -1.0766
  388MOL0     H53491   3.550   6.905   2.369  0.1267 -4.6243 -2.2218
  388MOL0     H53492   3.577   6.952   2.551 -2.0469 -0.9533  1.0989
  388MOL0     H53493   3.728   6.695   2.661  0.2512  1.1846  0.8323
  388MOL0     H53494   4.053   6.561   2.477 -1.7372  0.6708 -1.5598
  388MOL0     H53495   3.950   6.535   2.620 -1.5836 -1.8530 -2.2123
  388MOL0     H53496   4.168   6.625   2.666  0.3876 -1.0965 -0.4054
  388MOL0     H53497   4.135   6.779   2.573  0.4992 -1.1575  0.5985
  388MOL0     H53498   3.967   6.853   2.727  0.4743  1.2480  0.1216
  388MOL0     H53499   3.959   6.691   2.805  0.6289  0.7079  0.7041
  388MOL0     H53500   4.191   6.726   2.895 -0.5619 -0.7755  0.3179
  388MOL0     H53501   4.197   6.883   2.818 -0.8814  3.9646  2.0417
  388MOL0     H53502   3.873   6.746   3.085  1.3255  0.2644  0.5799
  388MOL0     H53503   3.579   6.796   3.151  0.5179  0.7867 -0.3359
  388MOL0     H53504   3.666   6.660   3.088 -2.5866 -1.7451 -2.3534
  388MOL0     H53505   3.531   6.726   2.998 -1.8028  2.3635 -0.0618
  388MOL0     H53506   3.286   7.223   2.946  0.3473 -0.1112 -0.1897
  388MOL0     H53507   3.061   7.234   2.858  0.6748  0.8313  0.3694
  388MOL0     H53508   2.880   7.088   3.009  0.0399  0.8610  0.0715
  388MOL0     H53509   2.731   7.104   2.901 -0.5812 -1.1794  1.5389
  388MOL0     H53510   2.768   6.837   2.898  2.5415 -2.2739  1.7544
  388MOL0     H53511   2.848   6.867   3.054 -2.5001 -1.0370  1.0463
  388MOL0     H53512   2.623   6.815   3.107 -1.0549 -0.6423 -2.1687
  388MOL0     H53513   2.548   6.917   2.989 -1.6807  1.5607  2.0472
  388MOL0     H53514   2.641   7.118   3.106 -1.6277  0.1319 -0.0884
  388MOL0     H53515   2.736   7.021   3.208  0.5237 -0.1304 -1.2056
  388MOL0     H53516   2.538   6.920   3.329 -0.1398 -0.9356 -0.7252
  388MOL0     H53517   2.522   7.099   3.334 -1.7883 -0.3382 -0.8197
  388MOL0     H53518   2.375   6.911   3.145 -0.8001 -0.0826  1.6205
  388MOL0     H53519   2.373   7.093   3.142  3.8004 -0.7594 -2.2774
  388MOL0     H53520   2.301   7.081   3.391 -1.1241  0.6992 -0.3945
  388MOL0     H53521   2.292   6.904   3.352  1.4538 -1.0448 -3.2499
  388MOL0     H53522   2.102   6.949   3.209 -0.9799  0.1391 -0.1671
  388MOL0     H53523   2.156   7.113   3.182  1.4067  0.5538  1.7502
  388MOL0     H53524   3.024   6.813   2.820 -0.8857  0.0159 -1.3273
  388MOL0     H53525   3.262   6.791   2.903  0.8842  0.0791 -1.1309
  388MOL0     H53526   3.744   7.165   2.852  1.2947 -1.0769 -1.4132
  388MOL0     H53527   3.973   7.113   2.888  2.7226 -0.0611  2.7863
  388MOL0     H53528   2.580   7.401   2.328  0.3304 -0.0302 -0.6704
  388MOL0     H53529   2.368   7.326   2.400  1.8217  2.0063 -1.8465
  388MOL0     H53530   2.103   7.185   2.537 -0.0895 -0.3431  1.0426
  388MOL0     H53531   1.896   7.162   2.668 -0.0787  3.4105 -2.5789
  388MOL0     H53532   1.726   7.016   2.805  0.0291  1.4023 -0.5762
  388MOL0     H53533   1.679   7.122   2.669  0.2135  1.3854  2.8245
  388MOL0     H53534   1.464   6.971   2.657  1.1420  0.5221 -1.1502
  388MOL0     H53535   1.484   7.097   2.779  0.6420  1.0403 -1.0076
  388MOL0     H53536   1.556   6.791   2.832 -1.4918 -0.3187 -0.0704
  388MOL0     H53537   1.592   6.918   2.939 -0.9806 -0.6250  1.0498
  388MOL0     H53538   1.373   6.789   2.970  2.4831  0.0015  0.2909
  388MOL0     H53539   1.312   6.872   2.825 -0.1399  0.7552  0.3612
  388MOL0     H53540   1.271   7.172   3.131 -2.2715 -1.1741  0.6595
  388MOL0     H53541   1.825   6.786   2.456  1.1563 -2.1064 -0.3913
  388MOL0     H53542   2.045   6.784   2.200 -1.7810  1.3018 -0.4006
  388MOL0     H53543   2.147   6.756   2.338  0.4876 -1.8851 -1.0588
  388MOL0     H53544   1.989   6.687   2.343  0.2123  0.1591  0.5190
  389MOL0     O53545  11.056   0.626   2.506 -0.1483 -0.3340  0.2001
  389MOL0     C53546  11.054   0.616   2.628  0.1106  0.5834  0.4216
  389MOL0     O53547  11.158   0.560   2.707 -0.3889  0.2158 -0.1660
  389MOL0     C53548  11.277   0.517   2.658 -0.3844  0.6485  0.5647
  389MOL0     C53549  11.356   0.439   2.739  0.0876  0.1216 -0.2105
  389MOL0     C53550  11.478   0.385   2.698 -0.3140  1.2035  0.3324
  389MOL0     C53551  11.529   0.407   2.571 -0.3391 -0.5879  0.1057
  389MOL0     O53552  11.657   0.369   2.540  0.1065  0.0193 -0.0221
  389MOL0     C53553  11.763   0.414   2.631  0.1302  0.3721 -0.4543
  389MOL0     C53554  11.898   0.385   2.562 -0.1801 -0.1511  0.2311
  389MOL0     C53555  11.933   0.239   2.579 -0.0777 -0.2041 -0.0956
  389MOL0     C53556  12.062   0.208   2.508  0.5406  0.2146  0.0948
  389MOL0     C53557  12.193   0.268   2.565 -0.7887  0.3309 -0.2974
  389MOL0     C53558  12.316   0.232   2.485  0.5078  0.2840  0.2549
  389MOL0     C53559  12.449   0.283   2.548  0.7492  0.0626 -0.2964
  389MOL0     C53560  12.575   0.246   2.468 -0.1729 -1.3232  0.2862
  389MOL0     N53561  12.694   0.304   2.541 -0.8064  0.1494  0.1816
  389MOL0     C53562  12.783   0.234   2.618 -0.2374  0.4892  0.0802
  389MOL0     C53563  12.879   0.323   2.652 -0.3959  0.0079  0.6616
  389MOL0     C53564  13.006   0.290   2.716 -0.1785  0.7253  0.6310
  389MOL0     C53565  13.075   0.420   2.749  0.0450  0.2048 -0.6952
  389MOL0     C53566  13.153   0.477   2.627  0.8646 -0.5487  0.1690
  389MOL0     C53567  13.246   0.593   2.684 -0.0040  0.1316  0.0177
  389MOL0     O53568  13.345   0.544   2.768 -0.5975  0.0266 -1.0011
  389MOL0     C53569  13.451   0.618   2.788 -0.8220 -1.0570 -0.2989
  389MOL0     C53570  13.480   0.744   2.740  0.1247  0.3552  0.4809
  389MOL0     C53571  13.607   0.805   2.780 -0.1962  0.5208  0.9381
  389MOL0     C53572  13.645   0.948   2.729  0.5112 -1.0207  0.6938
  389MOL0     C53573  13.700   0.745   2.868  0.0632 -0.9373  0.0842
  389MOL0     C53574  13.822   0.812   2.925 -0.4159 -0.0673 -0.8774
  389MOL0     O53575  13.864   0.756   3.043  0.3149  0.0536  0.1276
  389MOL0     C53576  13.951   0.828   3.120 -0.5900 -0.0344  0.0988
  389MOL0     C53577  13.904   0.858   3.249 -0.4740  0.2567  0.5013
  389MOL0     C53578  13.978   0.942   3.331 -0.0055 -0.2413 -0.4654
  389MOL0     C53579  14.105   0.986   3.290 -0.4550 -0.0750 -0.0534
  389MOL0     O53580  14.197   1.055   3.369  0.4697 -0.0027 -0.8673
  389MOL0     C53581  14.147   1.102   3.494 -0.3336 -1.5676 -0.1405
  389MOL0     C53582  14.253   1.168   3.589 -0.7390 -1.2742 -0.2206
  389MOL0     C53583  14.299   1.291   3.522 -0.0853 -0.3966 -1.1290
  389MOL0     C53584  14.185   1.389   3.485 -0.0319 -0.7507  0.0445
  389MOL0     C53585  14.245   1.531   3.467  0.4843 -0.5058  0.0125
  389MOL0     C53586  14.122   1.615   3.410  0.7324  0.4377 -0.6299
  389MOL0     C53587  14.182   1.752   3.370  1.6902 -0.7107 -0.3213
  389MOL0     C53588  14.065   1.844   3.315  0.0358  0.6550 -0.4955
  389MOL0    Cl53589  14.003   1.780   3.161 -0.0150 -0.3798  0.5343
  389MOL0     C53590  14.155   0.957   3.166  0.1650 -0.4205 -0.4322
  389MOL0     C53591  14.073   0.881   3.082 -0.4510 -0.2351 -0.3057
  389MOL0     O53592  13.879   0.911   2.874 -0.5888  0.0520 -0.1922
  389MOL0     C53593  13.667   0.619   2.916 -0.3102 -0.3565  0.9187
  389MOL0     C53594  13.546   0.557   2.871  0.5778 -0.8549  0.7132
  389MOL0     N53595  12.837   0.442   2.597  1.0125 -0.8233  0.3564
  389MOL0     N53596  12.723   0.438   2.535  0.3011  0.4777 -0.2320
  389MOL0     C53597  11.454   0.486   2.481 -0.4122  0.2846 -0.3769
  389MOL0     C53598  11.333   0.538   2.534  0.4954 -0.1954 -0.3937
  389MOL0     C53599  10.916   0.636   2.695 -0.1776  0.8836 -0.0991
  389MOL0     C53600  10.893   0.576   2.824  0.0727  0.2811  0.3343
  389MOL0     C53601  10.776   0.604   2.897  0.1753 -0.1918 -0.2680
  389MOL0     C53602  10.674   0.685   2.847 -0.2055  0.3124  0.0199
  389MOL0     O53603  10.570   0.725   2.930 -0.3512  0.5113  0.3288
  389MOL0     C53604  10.469   0.807   2.875  0.8083  0.3396 -0.0219
  389MOL0     C53605  10.342   0.827   2.960 -0.5645  0.0736  0.6243
  389MOL0     C53606  10.370   0.890   3.105  0.8283  0.4585  0.0414
  389MOL0     C53607  10.355   0.795   3.232  0.2695 -0.8372  0.4694
  389MOL0     C53608  10.351   0.872   3.363  0.2439  0.3128  0.5510
  389MOL0     C53609  10.336   0.944   3.460 -0.4019  0.8846 -0.5597
  389MOL0     C53610  10.702   0.756   2.725  0.5856  0.7865 -0.3986
  389MOL0     C53611  10.821   0.730   2.647 -0.5697  0.4596 -0.9656
  389MOL0     C53612  10.846   0.830   2.530  0.1227  0.4823  0.2895
  389MOL0     H53613  11.330   0.414   2.842  1.0153 -1.8601 -0.4032
  389MOL0     H53614  11.542   0.313   2.749  0.9629 -1.7097 -4.6863
  389MOL0     H53615  11.764   0.350   2.720  0.1221  3.1956  1.7498
  389MOL0     H53616  11.765   0.520   2.660  0.9916 -0.3921  2.6776
  389MOL0     H53617  11.897   0.399   2.454  5.4874  0.6026 -0.0093
  389MOL0     H53618  11.980   0.448   2.600  0.4836 -0.6706 -0.3179
  389MOL0     H53619  11.943   0.225   2.687  2.9884 -1.4019 -0.4178
  389MOL0     H53620  11.864   0.160   2.548  0.3347 -0.2239 -0.9862
  389MOL0     H53621  12.075   0.100   2.500  0.8059 -0.0433  2.9208
  389MOL0     H53622  12.050   0.232   2.402 -1.6636 -3.6673 -0.7054
  389MOL0     H53623  12.207   0.207   2.654 -2.9548  1.0404  0.5855
  389MOL0     H53624  12.191   0.371   2.600 -0.9971  0.1261  0.2954
  389MOL0     H53625  12.308   0.123   2.479 -0.5376  0.4180 -1.2969
  389MOL0     H53626  12.310   0.266   2.381  0.4914 -0.9525 -0.1774
  389MOL0     H53627  12.450   0.225   2.640 -1.4278 -0.3751 -0.5061
  389MOL0     H53628  12.449   0.390   2.569  1.6972 -0.5334  3.3219
  389MOL0     H53629  12.590   0.139   2.452  1.2562 -1.1750  0.5054
  389MOL0     H53630  12.551   0.285   2.369 -0.6451 -0.5870  0.6771
  389MOL0     H53631  12.783   0.126   2.635  1.3291  0.1667 -1.6749
  389MOL0     H53632  13.055   0.218   2.649 -3.9509 -0.8196 -0.7423
  389MOL0     H53633  12.979   0.246   2.812  1.1698 -0.8466  0.3288
  389MOL0     H53634  13.002   0.489   2.792  1.2743  1.4941 -0.6153
  389MOL0     H53635  13.142   0.396   2.833  0.8978  0.4381 -1.2928
  389MOL0     H53636  13.204   0.399   2.571  0.6620 -0.6746  0.1607
  389MOL0     H53637  13.074   0.516   2.562  1.6697  0.7376 -0.0681
  389MOL0     H53638  13.283   0.645   2.595 -0.6935 -0.7112 -0.7914
  389MOL0     H53639  13.173   0.659   2.731  1.0833  0.5029  1.2480
  389MOL0     H53640  13.404   0.796   2.683 -0.0898 -3.6362 -3.4145
  389MOL0     H53641  13.562   0.993   2.675  1.5022 -0.6684 -0.5706
  389MOL0     H53642  13.732   0.959   2.664 -0.8208  2.0781 -0.7410
  389MOL0     H53643  13.658   1.015   2.815 -1.5015  1.2241 -0.6226
  389MOL0     H53644  13.812   0.823   3.295  1.1958 -0.3007  3.7589
  389MOL0     H53645  13.927   0.967   3.423  0.3746 -1.5892  0.1279
  389MOL0     H53646  14.056   1.162   3.482 -0.2568 -1.0056  1.6813
  389MOL0     H53647  14.122   1.003   3.534 -0.2017 -1.6787 -0.3355
  389MOL0     H53648  14.194   1.193   3.678 -0.6970  0.4636 -0.6499
  389MOL0     H53649  14.332   1.095   3.611 -1.6184 -2.5037 -1.0349
  389MOL0     H53650  14.356   1.269   3.431  0.9179 -2.6131 -0.0488
  389MOL0     H53651  14.356   1.349   3.595 -0.5581 -1.8550  0.4674
  389MOL0     H53652  14.105   1.391   3.560  1.8380 -0.9272  2.1440
  389MOL0     H53653  14.138   1.370   3.388 -1.7051  1.9755  0.2099
  389MOL0     H53654  14.277   1.566   3.566  0.4812  2.0564 -0.8171
  389MOL0     H53655  14.335   1.531   3.404 -0.1236 -2.7892 -0.9580
  389MOL0     H53656  14.042   1.631   3.483 -3.0351 -1.4610 -3.9075
  389MOL0     H53657  14.080   1.570   3.319 -2.9362  1.3329  0.4621
  389MOL0     H53658  14.248   1.731   3.285 -1.5415  0.5661 -3.3994
  389MOL0     H53659  14.233   1.797   3.456 -1.2680  1.2321  0.5609
  389MOL0     H53660  14.087   1.951   3.302 -0.0264  0.7897  0.4286
  389MOL0     H53661  13.995   1.842   3.399 -0.9634  1.9459 -1.2596
  389MOL0     H53662  14.249   0.998   3.131  0.8875 -1.2165  0.5264
  389MOL0     H53663  14.111   0.869   2.981 -2.1329  2.2719 -1.3418
  389MOL0     H53664  13.722   0.561   2.989  0.8626 -0.6220 -0.1470
  389MOL0     H53665  13.517   0.466   2.923 -0.0556 -0.0592  1.8154
  389MOL0     H53666  11.490   0.516   2.383  0.7481 -1.5560 -0.5870
  389MOL0     H53667  11.268   0.592   2.466 -0.7241 -1.7107 -0.4853
  389MOL0     H53668  10.965   0.502   2.859  1.3305  0.8418 -0.9912
  389MOL0     H53669  10.773   0.563   2.997 -0.3011  0.9335  0.1973
  389MOL0     H53670  10.495   0.908   2.842  1.6224 -0.1226 -0.8664
  389MOL0     H53671  10.441   0.757   2.781 -0.8844 -1.8817  1.5509
  389MOL0     H53672  10.288   0.733   2.975 -0.8419 -0.0185 -0.8368
  389MOL0     H53673  10.277   0.897   2.907  0.6217  3.3724  3.1945
  389MOL0     H53674  10.471   0.930   3.111  0.4216  1.3895  0.9825
  389MOL0     H53675  10.297   0.970   3.120  0.5974  0.2512  0.0368
  389MOL0     H53676  10.437   0.723   3.235  0.3924 -0.7237  0.0510
  389MOL0     H53677  10.261   0.741   3.215 -1.7313  3.0638 -2.4736
  389MOL0     H53678  10.311   1.008   3.542  0.9599  0.9839 -0.1947
  389MOL0     H53679  10.641   0.840   2.691  1.8776  2.5325  1.3555
  389MOL0     H53680  10.888   0.796   2.435 -0.9890 -0.5471  0.1329
  389MOL0     H53681  10.746   0.862   2.499 -0.4111 -1.4546 -0.1105
  389MOL0     H53682  10.895   0.918   2.573 -3.9461  2.7307  0.8527
  390MOL0     O53683   1.279   4.894   9.179  0.4607  0.0604  0.1670
  390MOL0     C53684   1.264   4.862   9.297  0.4011 -0.7358 -0.9327
  390MOL0     O53685   1.156   4.890   9.375  0.6150 -0.4829 -0.4254
  390MOL0     C53686   1.037   4.915   9.306  0.7413 -0.7424  0.4062
  390MOL0     C53687   0.935   4.819   9.323  0.2221  0.0487 -0.0727
  390MOL0     C53688   0.801   4.858   9.298 -0.5922  0.1423 -0.3258
  390MOL0     C53689   0.782   4.989   9.251 -0.0179  0.0233  0.6944
  390MOL0     O53690   0.657   5.048   9.229 -0.1026 -0.4067 -0.6700
  390MOL0     C53691   0.545   5.002   9.311  0.4308 -0.0322 -0.4661
  390MOL0     C53692   0.428   5.096   9.287 -0.3170 -0.7283  0.1645
  390MOL0     C53693   0.377   5.084   9.141 -0.5430  0.1378 -0.2941
  390MOL0     C53694   0.295   5.202   9.102  0.0356 -0.1265 -0.4424
  390MOL0     C53695   0.234   5.191   8.963 -0.7722 -0.2795  0.3420
  390MOL0     C53696   0.125   5.302   8.947  0.0231  0.8698  0.3450
  390MOL0     C53697   0.007   5.278   9.042  0.8513  0.2783  0.2840
  390MOL0     C53698  -0.113   5.363   9.010  0.8457 -0.8417 -0.0538
  390MOL0     N53699  -0.086   5.504   9.017  0.4037 -0.0122 -0.3161
  390MOL0     C53700  -0.047   5.594   8.920  0.1959 -0.1450 -0.0065
  390MOL0     C53701  -0.038   5.710   8.985 -0.5143  0.2453 -0.1046
  390MOL0     C53702  -0.021   5.845   8.919  0.3212  0.3077  0.1693
  390MOL0     C53703   0.103   5.862   8.840  0.2265  0.7707  0.0961
  390MOL0     C53704   0.233   5.892   8.921  0.0653 -0.7319 -0.0644
  390MOL0     C53705   0.342   5.908   8.815 -0.1466 -0.3801  0.2064
  390MOL0     O53706   0.467   5.887   8.882 -0.4368 -0.6190 -0.9483
  390MOL0     C53707   0.573   5.882   8.800 -0.1235 -0.0603  0.5085
  390MOL0     C53708   0.572   5.884   8.658 -0.0534 -0.0048 -0.7719
  390MOL0     C53709   0.684   5.882   8.582  0.2258 -0.7321 -0.5473
  390MOL0     C53710   0.660   5.902   8.440  0.4539  0.0133 -0.7724
  390MOL0     C53711   0.811   5.873   8.644 -0.1185 -0.2295  0.1115
  390MOL0     C53712   0.938   5.860   8.576 -0.2463  0.2819  0.3900
  390MOL0     O53713   1.047   5.826   8.660 -0.0036  1.2474  0.5702
  390MOL0     C53714   1.173   5.835   8.626 -0.1103 -0.4085 -0.4194
  390MOL0     C53715   1.221   5.803   8.496  0.7950 -0.3481 -0.0227
  390MOL0     C53716   1.356   5.797   8.459  0.0649  0.7081  0.0943
  390MOL0     C53717   1.445   5.839   8.559 -0.2205 -0.2042  0.2779
  390MOL0     O53718   1.578   5.852   8.539 -0.7773  0.4918  0.1454
  390MOL0     C53719   1.631   5.784   8.417  0.2475 -0.1191  1.1443
  390MOL0     C53720   1.774   5.792   8.405  0.5195  0.1275  0.3485
  390MOL0     C53721   1.844   5.742   8.534 -0.2607 -0.1693  0.2203
  390MOL0     C53722   1.990   5.762   8.525  0.0677 -0.0831 -0.2670
  390MOL0     C53723   2.035   5.892   8.594 -0.3679 -0.0617 -0.2060
  390MOL0     C53724   2.181   5.903   8.602  0.2571  0.9346  0.2424
  390MOL0     C53725   2.231   6.016   8.686 -0.1511 -0.2810 -1.0283
  390MOL0     C53726   2.384   6.026   8.696  0.9298  0.7064  0.2872
  390MOL0    Cl53727   2.446   5.897   8.805 -0.3820  0.1440 -0.0653
  390MOL0     C53728   1.402   5.880   8.685 -0.4099  0.4076 -0.9036
  390MOL0     C53729   1.269   5.883   8.718 -0.0672 -0.3642  0.2997
  390MOL0     O53730   0.953   5.895   8.460 -0.2597 -0.0521  0.3316
  390MOL0     C53731   0.821   5.870   8.783  0.3969  0.2388 -1.2678
  390MOL0     C53732   0.704   5.875   8.862  0.0233 -0.3973  0.6909
  390MOL0     N53733  -0.070   5.688   9.114 -0.7846 -0.3733 -0.1503
  390MOL0     N53734  -0.090   5.567   9.136 -0.8507 -0.3574  0.0744
  390MOL0     C53735   0.887   5.076   9.230 -0.0596  0.0017 -0.1984
  390MOL0     C53736   1.016   5.043   9.262  0.8380 -0.0091 -0.6907
  390MOL0     C53737   1.371   4.780   9.367 -0.3924  0.4486  0.2987
  390MOL0     C53738   1.333   4.701   9.475 -0.5695 -0.3406  0.2143
  390MOL0     C53739   1.422   4.631   9.551 -0.0241  0.1240 -0.2789
  390MOL0     C53740   1.559   4.621   9.517  0.0706  0.1990 -0.0686
  390MOL0     O53741   1.661   4.558   9.587  0.4223  0.6077  0.2815
  390MOL0     C53742   1.641   4.504   9.719  0.2870  0.4485  0.5014
  390MOL0     C53743   1.761   4.522   9.798 -1.4483 -0.1396 -0.7814
  390MOL0     C53744   1.884   4.452   9.746 -0.6927 -0.0904 -0.3373
  390MOL0     C53745   2.007   4.482   9.840  0.6841 -0.2218 -0.7880
  390MOL0     C53746   2.137   4.419   9.782 -0.0675 -0.2381 -0.6747
  390MOL0     C53747   2.240   4.368   9.746 -0.8221 -0.5545  0.1690
  390MOL0     C53748   1.600   4.693   9.396  0.2806  0.3837 -0.4778
  390MOL0     C53749   1.506   4.779   9.326 -0.3947  0.4448  0.4821
  390MOL0     C53750   1.579   4.852   9.211  0.1183  0.1212 -0.0585
  390MOL0     H53751   0.948   4.716   9.353 -3.0481 -0.7744 -1.1407
  390MOL0     H53752   0.712   4.800   9.319 -1.9701  2.2871 -0.0143
  390MOL0     H53753   0.573   5.005   9.417 -0.2511 -0.7417 -0.2531
  390MOL0     H53754   0.508   4.901   9.290  1.4133 -0.3286 -0.7741
  390MOL0     H53755   0.342   5.072   9.351 -1.4571 -0.4846 -1.2182
  390MOL0     H53756   0.451   5.201   9.302 -1.4629 -0.3180 -0.7412
  390MOL0     H53757   0.458   5.074   9.068  1.3632 -1.7663  1.9196
  390MOL0     H53758   0.324   4.989   9.132 -0.9046  0.0141  2.3174
  390MOL0     H53759   0.215   5.210   9.177 -1.9032 -2.3263 -2.1276
  390MOL0     H53760   0.356   5.291   9.114 -2.1215  1.8161 -2.7103
  390MOL0     H53761   0.194   5.090   8.949  2.1182 -1.8942  2.6235
  390MOL0     H53762   0.310   5.204   8.885  0.2398 -1.4852  1.0978
  390MOL0     H53763   0.165   5.399   8.976  2.3413 -0.8412  3.6118
  390MOL0     H53764   0.096   5.298   8.842  0.9107  2.2437  0.0294
  390MOL0     H53765   0.023   5.295   9.149 -2.8921 -1.9535  1.3731
  390MOL0     H53766  -0.017   5.172   9.028 -0.7890  0.9429 -2.7185
  390MOL0     H53767  -0.155   5.332   8.914  1.4795 -1.8152 -0.0180
  390MOL0     H53768  -0.185   5.334   9.088  1.6066 -0.8328  0.6638
  390MOL0     H53769  -0.012   5.574   8.819  0.4707  2.2533 -0.4574
  390MOL0     H53770  -0.017   5.922   8.997 -0.3710  0.0316  0.4819
  390MOL0     H53771  -0.103   5.859   8.849  0.9824 -2.9909 -1.4523
  390MOL0     H53772   0.122   5.776   8.774  0.4127  0.0320  1.0930
  390MOL0     H53773   0.086   5.953   8.782  0.5586  1.7787  1.5221
  390MOL0     H53774   0.231   5.980   8.986  2.3580 -0.3765 -0.3849
  390MOL0     H53775   0.254   5.805   8.983  2.3497 -0.3269 -0.1699
  390MOL0     H53776   0.331   5.828   8.742 -2.1448  1.0395 -1.1821
  390MOL0     H53777   0.327   6.001   8.759 -1.1961 -1.0592 -0.6892
  390MOL0     H53778   0.477   5.881   8.606  0.5852 -3.2319 -2.0468
  390MOL0     H53779   0.732   5.833   8.396 -1.2224 -2.1974 -0.2023
  390MOL0     H53780   0.672   6.008   8.413  0.0264  0.6733  1.4347
  390MOL0     H53781   0.562   5.868   8.408  0.5131 -0.0705 -0.8677
  390MOL0     H53782   1.154   5.764   8.420  1.0459  1.3095 -1.1508
  390MOL0     H53783   1.380   5.753   8.363 -0.3567  1.2283 -0.2555
  390MOL0     H53784   1.605   5.678   8.416  4.1993 -1.3589  3.9765
  390MOL0     H53785   1.594   5.837   8.329  2.9874 -0.6126 -0.4271
  390MOL0     H53786   1.812   5.745   8.314  0.1109  0.6799 -0.1133
  390MOL0     H53787   1.798   5.898   8.413 -0.7410  0.3570  1.2834
  390MOL0     H53788   1.814   5.638   8.550 -0.6661 -0.3947 -1.7405
  390MOL0     H53789   1.804   5.796   8.621 -0.6649  0.0681 -0.1053
  390MOL0     H53790   2.026   5.752   8.422  1.6074 -0.7144  0.3056
  390MOL0     H53791   2.035   5.678   8.578 -0.2032 -1.2912 -1.8619
  390MOL0     H53792   1.999   5.978   8.536  0.8195 -0.4066 -1.5117
  390MOL0     H53793   1.994   5.891   8.695 -1.2347 -0.0136 -0.5402
  390MOL0     H53794   2.229   5.914   8.505  0.5499  1.5318  0.4492
  390MOL0     H53795   2.199   5.806   8.649 -3.3969 -0.5988 -1.1211
  390MOL0     H53796   2.178   6.015   8.781  2.8950  0.7220  0.8546
  390MOL0     H53797   2.209   6.115   8.645 -0.0281  0.2874  0.2412
  390MOL0     H53798   2.409   6.125   8.736 -1.2309  1.7740 -0.8219
  390MOL0     H53799   2.418   6.021   8.592 -2.9961 -2.0766 -1.0855
  390MOL0     H53800   1.480   5.910   8.754 -1.4937  0.8673  0.1657
  390MOL0     H53801   1.241   5.911   8.819 -1.6795 -2.1693  0.4152
  390MOL0     H53802   0.915   5.872   8.836 -0.5017  0.0524  0.3934
  390MOL0     H53803   0.721   5.869   8.969 -0.1456 -0.8779  0.6907
  390MOL0     H53804   0.872   5.182   9.211  0.6642  1.2746  4.8782
  390MOL0     H53805   1.087   5.126   9.262 -1.1992  1.8231  0.4063
  390MOL0     H53806   1.229   4.689   9.502 -0.8029  1.9597  0.5420
  390MOL0     H53807   1.374   4.576   9.631 -1.9656  1.4181 -0.4845
  390MOL0     H53808   1.555   4.537   9.778 -1.7011 -1.8570 -0.9049
  390MOL0     H53809   1.619   4.399   9.698  4.3222 -0.7538  1.4990
  390MOL0     H53810   1.758   4.488   9.902  2.6522  0.2929 -0.3418
  390MOL0     H53811   1.781   4.629   9.794 -3.9602  0.3471 -1.9755
  390MOL0     H53812   1.872   4.344   9.755  2.8328 -0.5095  0.9707
  390MOL0     H53813   1.888   4.469   9.638 -2.5615  0.0790 -0.4129
  390MOL0     H53814   1.989   4.445   9.942 -0.9852  3.5034  0.4320
  390MOL0     H53815   2.021   4.590   9.846  3.4337 -0.5624 -0.1046
  390MOL0     H53816   2.333   4.341   9.701 -0.5670  1.0576 -0.3387
  390MOL0     H53817   1.704   4.688   9.368 -0.1162 -0.8607 -1.8339
  390MOL0     H53818   1.593   4.953   9.252  0.5844  0.4467 -0.9850
  390MOL0     H53819   1.675   4.805   9.189  0.5041  1.8703 -2.6513
  390MOL0     H53820   1.513   4.859   9.123 -1.3316 -0.9214  0.8922
  391MOL0     O53821   3.054   4.671   2.300  0.3979  0.1204  0.6363
  391MOL0     C53822   2.976   4.619   2.220  0.7028  0.6363 -0.0688
  391MOL0     O53823   3.009   4.541   2.113  0.0487  0.2259 -0.3048
  391MOL0     C53824   3.144   4.524   2.086  0.2598 -0.2302  0.8306
  391MOL0     C53825   3.233   4.444   2.156  0.2870  0.5988  0.5459
  391MOL0     C53826   3.370   4.459   2.136 -0.0759  0.6463 -0.8986
  391MOL0     C53827   3.423   4.529   2.030 -0.2549  0.7501  0.2129
  391MOL0     O53828   3.562   4.539   2.012  0.0535 -0.5985  1.2608
  391MOL0     C53829   3.604   4.477   1.884  0.7120 -0.4783  0.0655
  391MOL0     C53830   3.705   4.371   1.924 -0.0979 -0.1435  0.3701
  391MOL0     C53831   3.835   4.445   1.962  0.4728  1.4368 -0.6154
  391MOL0     C53832   3.939   4.336   1.971  0.0394  0.2591 -0.3044
  391MOL0     C53833   4.061   4.390   2.044 -0.4409 -0.3437 -0.6075
  391MOL0     C53834   4.187   4.291   2.021 -0.5260 -0.4852  0.5648
  391MOL0     C53835   4.299   4.331   2.127 -0.4711 -0.5925 -0.3629
  391MOL0     C53836   4.416   4.225   2.136 -0.6499 -0.6700 -0.3386
  391MOL0     N53837   4.537   4.283   2.194 -0.2612 -0.6201  0.0478
  391MOL0     C53838   4.639   4.349   2.126 -0.1559 -0.9878 -0.3651
  391MOL0     C53839   4.735   4.354   2.215  0.3906 -0.2672 -1.0778
  391MOL0     C53840   4.871   4.422   2.193  0.2056  0.6337 -0.3635
  391MOL0     C53841   4.888   4.529   2.300  0.9287  0.2327  0.9834
  391MOL0     C53842   5.020   4.588   2.278 -0.3313  0.2071 -0.3192
  391MOL0     C53843   5.147   4.508   2.326 -0.7015 -0.4238 -0.0734
  391MOL0     O53844   5.262   4.554   2.242  1.0864 -0.0273 -0.1341
  391MOL0     C53845   5.380   4.503   2.277 -0.0638  0.3124  1.4543
  391MOL0     C53846   5.408   4.416   2.374  0.0885 -0.2895  0.2177
  391MOL0     C53847   5.532   4.364   2.402 -0.9037 -0.7765 -0.1082
  391MOL0     C53848   5.556   4.273   2.519  0.9335  0.1373  0.6333
  391MOL0     C53849   5.636   4.397   2.304 -0.1423  1.1359  0.3481
  391MOL0     C53850   5.776   4.335   2.300 -0.2161  0.4141  0.3265
  391MOL0     O53851   5.858   4.365   2.189  0.7450 -0.6366  0.2222
  391MOL0     C53852   5.989   4.326   2.187 -0.2703 -0.7805  0.1644
  391MOL0     C53853   6.070   4.408   2.111 -0.7445 -0.0085 -0.0206
  391MOL0     C53854   6.208   4.383   2.099  1.2981  0.3238  0.1295
  391MOL0     C53855   6.268   4.276   2.161  0.4967 -0.1408 -0.0998
  391MOL0     O53856   6.408   4.280   2.152 -0.4712 -0.1060 -0.3102
  391MOL0     C53857   6.471   4.164   2.203  0.0415 -1.1592 -1.2300
  391MOL0     C53858   6.624   4.179   2.177 -0.4908  0.8874  0.2845
  391MOL0     C53859   6.650   4.175   2.022 -0.5862  0.7347 -0.0183
  391MOL0     C53860   6.794   4.128   1.996  0.4224 -0.0588 -0.0728
  391MOL0     C53861   6.833   4.159   1.849  0.5134  0.2025 -0.6496
  391MOL0     C53862   6.978   4.203   1.859 -0.3475 -0.3590  0.4294
  391MOL0     C53863   7.024   4.301   1.744  0.2765 -0.2209  0.1659
  391MOL0     C53864   7.030   4.236   1.600 -0.0718 -0.4734  0.0167
  391MOL0    Cl53865   7.141   4.097   1.596  0.2373 -0.3817 -0.0624
  391MOL0     C53866   6.192   4.197   2.241  0.0640  0.3164 -0.6084
  391MOL0     C53867   6.050   4.215   2.253 -0.6769  1.2440  0.3343
  391MOL0     O53868   5.811   4.261   2.388  0.2022  0.8286  0.1022
  391MOL0     C53869   5.609   4.486   2.202 -0.8138 -1.0213  0.3900
  391MOL0     C53870   5.478   4.542   2.188  0.2865  0.4672 -0.5224
  391MOL0     N53871   4.715   4.281   2.325 -0.3306 -0.8946 -0.5458
  391MOL0     N53872   4.595   4.253   2.313 -0.4493 -0.2871 -0.4555
  391MOL0     C53873   3.330   4.587   1.936 -0.3586 -0.5617 -0.1120
  391MOL0     C53874   3.197   4.582   1.968 -0.1560 -0.1079 -0.6564
  391MOL0     C53875   2.833   4.645   2.242 -0.2502 -1.0529  0.0856
  391MOL0     C53876   2.738   4.576   2.172 -0.3220  1.7149 -0.4866
  391MOL0     C53877   2.601   4.584   2.197 -0.4217  0.4494 -0.0343
  391MOL0     C53878   2.547   4.658   2.298 -0.7809 -0.4718  0.6151
  391MOL0     O53879   2.411   4.664   2.314  0.1015  0.8597 -0.0921
  391MOL0     C53880   2.359   4.684   2.449 -0.1410 -1.5767 -0.2254
  391MOL0     C53881   2.405   4.584   2.552  0.2307 -0.3642 -0.1342
  391MOL0     C53882   2.398   4.441   2.507 -0.2812 -0.1194  0.3312
  391MOL0     C53883   2.251   4.398   2.460 -0.4345  0.8614  0.1701
  391MOL0     C53884   2.237   4.253   2.457 -1.1426  0.7936  0.8061
  391MOL0     C53885   2.238   4.130   2.447  0.8728  0.1063  0.3320
  391MOL0     C53886   2.635   4.730   2.368 -0.6279  0.3062 -0.6319
  391MOL0     C53887   2.778   4.729   2.345  0.2621  0.1355  0.5673
  391MOL0     C53888   2.858   4.829   2.424 -0.1861  0.0446 -0.0031
  391MOL0     H53889   3.191   4.401   2.247  1.7258 -1.7132  0.1815
  391MOL0     H53890   3.437   4.407   2.204  1.5449  0.7311 -2.3644
  391MOL0     H53891   3.647   4.555   1.821  2.2761 -1.3551 -0.0141
  391MOL0     H53892   3.516   4.437   1.833 -0.1170 -0.5036  1.4797
  391MOL0     H53893   3.670   4.311   2.008  0.2148 -0.4343  0.2977
  391MOL0     H53894   3.725   4.299   1.844 -0.3959  1.2521 -1.0085
  391MOL0     H53895   3.871   4.524   1.895  1.0845  1.4437 -0.2864
  391MOL0     H53896   3.828   4.487   2.062 -4.6506 -1.0289  0.4181
  391MOL0     H53897   3.905   4.241   2.013 -1.7752 -0.7085 -3.6176
  391MOL0     H53898   3.971   4.328   1.866 -2.0663 -0.2945 -0.9531
  391MOL0     H53899   4.039   4.385   2.151 -0.0646  0.7320 -0.4746
  391MOL0     H53900   4.084   4.494   2.020  1.4121 -1.2739 -3.4091
  391MOL0     H53901   4.154   4.187   2.025 -0.2663 -0.5395  1.3258
  391MOL0     H53902   4.221   4.316   1.920  0.7660  0.7247  1.2747
  391MOL0     H53903   4.254   4.334   2.227  0.5033  0.0260  0.0629
  391MOL0     H53904   4.327   4.432   2.095 -1.1283  0.8584  3.2166
  391MOL0     H53905   4.386   4.136   2.193 -1.6859  1.0844  2.0160
  391MOL0     H53906   4.435   4.196   2.033  0.8993  2.4749 -1.0648
  391MOL0     H53907   4.637   4.385   2.024 -0.2348  1.3270  0.3958
  391MOL0     H53908   4.870   4.466   2.093  0.3463  0.2614 -0.5315
  391MOL0     H53909   4.942   4.339   2.193 -5.6200 -5.0921  0.2661
  391MOL0     H53910   4.811   4.605   2.283 -0.1525 -1.0504 -0.0329
  391MOL0     H53911   4.871   4.483   2.398  1.8150 -1.8094  0.2397
  391MOL0     H53912   5.037   4.615   2.174  4.8259 -2.8243 -0.6082
  391MOL0     H53913   5.019   4.682   2.335  0.3859 -0.9898  1.8031
  391MOL0     H53914   5.174   4.536   2.428  1.7664  3.1288 -1.5076
  391MOL0     H53915   5.132   4.400   2.326 -1.4212 -0.3324  0.2020
  391MOL0     H53916   5.339   4.373   2.446  2.2319 -3.2848  0.6412
  391MOL0     H53917   5.626   4.321   2.588  0.2300 -0.0034  1.4702
  391MOL0     H53918   5.586   4.173   2.485 -3.5221 -1.0888 -0.3745
  391MOL0     H53919   5.461   4.266   2.573 -0.0119  2.5876 -0.5402
  391MOL0     H53920   6.019   4.493   2.065 -0.7644  0.1319  0.2541
  391MOL0     H53921   6.281   4.449   2.054  3.0752 -1.0924  0.8356
  391MOL0     H53922   6.464   4.165   2.312 -2.5742 -1.1863 -1.3452
  391MOL0     H53923   6.425   4.075   2.159 -2.9352 -0.1838 -0.3016
  391MOL0     H53924   6.665   4.273   2.215 -0.3596  1.1780 -0.5557
  391MOL0     H53925   6.674   4.091   2.219 -2.0340 -0.9549 -1.4904
  391MOL0     H53926   6.620   4.270   1.977 -0.1697  0.5933 -0.6086
  391MOL0     H53927   6.586   4.101   1.973  0.3283 -0.1637  0.1074
  391MOL0     H53928   6.805   4.020   2.011  1.8431  0.0113 -0.4763
  391MOL0     H53929   6.855   4.181   2.069  0.5765 -0.4244  0.0650
  391MOL0     H53930   6.813   4.071   1.786 -1.4654  0.2381 -0.1442
  391MOL0     H53931   6.768   4.240   1.814  0.4902  0.4687  0.0088
  391MOL0     H53932   7.041   4.116   1.877 -1.7155 -0.8487  3.3647
  391MOL0     H53933   6.998   4.269   1.944  0.9440 -1.3433  0.9130
  391MOL0     H53934   7.117   4.346   1.779 -0.2930  3.2897 -2.3243
  391MOL0     H53935   6.952   4.382   1.731  0.5017 -0.2302 -1.3070
  391MOL0     H53936   7.069   4.319   1.540 -4.1057 -0.2598 -2.7459
  391MOL0     H53937   6.933   4.214   1.554  0.4757 -1.6477 -0.6220
  391MOL0     H53938   6.235   4.113   2.294  0.9923  0.2826 -1.3993
  391MOL0     H53939   6.000   4.134   2.306  0.6255  0.0784 -0.1640
  391MOL0     H53940   5.680   4.517   2.126 -0.2515 -0.6716  1.0510
  391MOL0     H53941   5.449   4.615   2.113 -2.0427  0.0531 -0.1137
  391MOL0     H53942   3.377   4.655   1.865  1.0622  0.6649  1.9157
  391MOL0     H53943   3.125   4.636   1.908  0.4039  0.9361 -0.3995
  391MOL0     H53944   2.765   4.511   2.089  0.0226 -1.3344  1.8505
  391MOL0     H53945   2.531   4.549   2.122 -1.7399 -1.7297  2.0860
  391MOL0     H53946   2.383   4.786   2.478 -0.1630 -2.0541  1.5805
  391MOL0     H53947   2.250   4.683   2.439 -0.0964  2.0463 -3.8173
  391MOL0     H53948   2.350   4.590   2.646 -0.7668  1.6803 -0.7933
  391MOL0     H53949   2.511   4.601   2.575  0.0914 -2.0504  2.1157
  391MOL0     H53950   2.462   4.433   2.419 -0.4337 -0.2656  0.2320
  391MOL0     H53951   2.417   4.377   2.594 -1.5128  0.9288  1.4008
  391MOL0     H53952   2.236   4.434   2.358  1.1732 -2.0448 -1.2164
  391MOL0     H53953   2.175   4.437   2.528  1.4148  1.6666  1.8717
  391MOL0     H53954   2.239   4.024   2.462  1.3304 -0.3386 -2.3055
  391MOL0     H53955   2.597   4.799   2.442  1.7974  1.5915 -0.4503
  391MOL0     H53956   2.885   4.916   2.363 -1.9310  1.4576  1.1730
  391MOL0     H53957   2.809   4.860   2.516 -0.1928 -2.5455  0.9455
  391MOL0     H53958   2.949   4.786   2.467  0.1242 -1.2802 -1.8435
  392MOL0     O53959   4.175   0.354   5.815 -0.2516 -0.0893  0.1105
  392MOL0     C53960   4.110   0.458   5.811 -0.2125 -0.5533 -0.6304
  392MOL0     O53961   4.144   0.566   5.884  0.1562 -0.9245  0.1800
  392MOL0     C53962   4.227   0.552   6.001  0.5778 -0.1944  0.0226
  392MOL0     C53963   4.192   0.469   6.105  1.2969 -0.8578 -0.4217
  392MOL0     C53964   4.263   0.465   6.228  0.3975 -0.4110  0.2436
  392MOL0     C53965   4.379   0.542   6.249 -0.9771  0.1715 -0.1343
  392MOL0     O53966   4.447   0.532   6.365  0.2707 -0.6914 -0.2158
  392MOL0     C53967   4.584   0.506   6.347  1.0553  0.7145  0.2702
  392MOL0     C53968   4.659   0.645   6.382 -0.4046  0.6905 -0.7257
  392MOL0     C53969   4.804   0.615   6.420 -0.3237 -0.9415 -0.1248
  392MOL0     C53970   4.898   0.731   6.416  0.6793 -0.0352 -1.1060
  392MOL0     C53971   5.030   0.699   6.475  1.0689  0.7809  0.3704
  392MOL0     C53972   5.123   0.630   6.377  0.0949  0.6740 -0.9925
  392MOL0     C53973   5.256   0.617   6.443 -0.2494  1.1391  0.1591
  392MOL0     C53974   5.347   0.523   6.363  0.0323 -0.4137 -0.0162
  392MOL0     N53975   5.477   0.536   6.420 -0.4198  0.2477  0.0830
  392MOL0     C53976   5.504   0.467   6.532  0.5686 -0.2790  0.5900
  392MOL0     C53977   5.638   0.494   6.551  1.1254 -0.3726  0.9924
  392MOL0     C53978   5.714   0.442   6.676 -0.3248 -0.6540 -0.2631
  392MOL0     C53979   5.676   0.525   6.802 -0.2482 -0.0040 -0.9860
  392MOL0     C53980   5.711   0.452   6.937  0.4557 -0.6835 -0.1173
  392MOL0     C53981   5.722   0.309   6.924 -0.0693  1.3043 -0.6286
  392MOL0     O53982   5.769   0.261   7.054 -0.2328  0.2361  0.5335
  392MOL0     C53983   5.866   0.163   7.071  0.2661 -0.0718 -0.0464
  392MOL0     C53984   5.873   0.054   6.979 -0.0321 -0.1655  0.0462
  392MOL0     C53985   5.980  -0.033   6.986 -1.4174 -0.0013 -0.1666
  392MOL0     C53986   5.996  -0.141   6.879 -0.0424 -0.6426 -0.3460
  392MOL0     C53987   6.080  -0.009   7.085 -0.3251 -0.3457 -0.3468
  392MOL0     C53988   6.211  -0.093   7.093  0.4490  0.1812  0.0220
  392MOL0     O53989   6.314  -0.032   7.154 -0.4898  0.1382 -0.0931
  392MOL0     C53990   6.443  -0.093   7.157  0.6875 -0.1438 -0.1698
  392MOL0     C53991   6.501  -0.160   7.054 -0.0143  0.7846  0.1507
  392MOL0     C53992   6.630  -0.200   7.065 -0.2407 -0.5287 -0.1617
  392MOL0     C53993   6.699  -0.187   7.192  0.2315 -0.4628 -0.6974
  392MOL0     O53994   6.831  -0.220   7.214 -0.8004  0.6896  0.1678
  392MOL0     C53995   6.891  -0.339   7.158 -0.0736 -0.8098 -0.2448
  392MOL0     C53996   7.027  -0.355   7.233  0.0951 -0.2314  0.0594
  392MOL0     C53997   7.106  -0.466   7.170 -0.4781 -0.3328  0.3033
  392MOL0     C53998   7.249  -0.465   7.228  0.3760 -0.1132  0.9373
  392MOL0     C53999   7.348  -0.558   7.151  0.1098  0.3740  0.0323
  392MOL0     C54000   7.485  -0.563   7.225  0.5549 -0.4092  0.2270
  392MOL0     C54001   7.578  -0.657   7.142 -0.0978  0.0672 -0.1885
  392MOL0     C54002   7.736  -0.650   7.178  0.6059 -0.1899 -0.2161
  392MOL0    Cl54003   7.836  -0.769   7.081 -0.0468  0.2855  0.0935
  392MOL0     C54004   6.637  -0.116   7.296  0.6444  0.3998 -0.1680
  392MOL0     C54005   6.502  -0.078   7.278  0.6057  0.4008  0.2271
  392MOL0     O54006   6.213  -0.208   7.048 -0.9484  0.5373  0.4772
  392MOL0     C54007   6.061   0.090   7.179 -0.0934  0.0703 -0.4623
  392MOL0     C54008   5.955   0.178   7.168 -0.4687  0.0938 -0.3984
  392MOL0     N54009   5.686   0.558   6.443  0.0415  0.4399  0.0834
  392MOL0     N54010   5.589   0.584   6.359  0.1366 -0.5644 -0.8224
  392MOL0     C54011   4.423   0.615   6.134  0.7974  0.2051  0.6600
  392MOL0     C54012   4.347   0.621   6.010 -0.0327  0.4698 -0.0592
  392MOL0     C54013   3.978   0.446   5.738 -1.0421 -1.6161  0.7679
  392MOL0     C54014   3.951   0.338   5.653  0.1269 -0.9311 -0.2746
  392MOL0     C54015   3.832   0.331   5.573 -0.1873 -0.3537  0.2612
  392MOL0     C54016   3.738   0.430   5.579  0.3182  0.3546 -0.2317
  392MOL0     O54017   3.620   0.439   5.511 -0.9142  0.6245 -0.1507
  392MOL0     C54018   3.593   0.340   5.406 -0.7589 -1.1382 -0.5232
  392MOL0     C54019   3.456   0.375   5.337 -0.1767  0.1897  0.9747
  392MOL0     C54020   3.335   0.336   5.416 -0.3351  0.2353  0.2127
  392MOL0     C54021   3.208   0.344   5.334  0.4105 -0.1563 -0.0534
  392MOL0     C54022   3.101   0.254   5.380  0.0110  0.4562 -0.5996
  392MOL0     C54023   3.013   0.174   5.402  0.6855 -0.8324 -0.0939
  392MOL0     C54024   3.754   0.536   5.666  0.4420  0.0210 -0.6780
  392MOL0     C54025   3.864   0.545   5.754 -0.5820 -0.2656  0.5963
  392MOL0     C54026   3.867   0.664   5.841  0.0989  0.0528 -0.8328
  392MOL0     H54027   4.097   0.416   6.100  2.0213 -2.7096  2.7481
  392MOL0     H54028   4.218   0.403   6.305 -1.6369 -2.8402 -2.6797
  392MOL0     H54029   4.617   0.473   6.248  1.6776 -1.8213  1.2343
  392MOL0     H54030   4.609   0.432   6.424 -0.7427  0.0314  0.2551
  392MOL0     H54031   4.656   0.714   6.297  1.5424 -0.6903 -1.9967
  392MOL0     H54032   4.609   0.695   6.465  1.0185 -4.1738  3.5539
  392MOL0     H54033   4.805   0.586   6.526 -1.9299  1.0466  0.5009
  392MOL0     H54034   4.849   0.550   6.344  0.4556 -1.1797  0.5250
  392MOL0     H54035   4.904   0.759   6.311 -2.8052  0.6368 -1.2320
  392MOL0     H54036   4.850   0.814   6.470  1.5558  0.0875 -0.4919
  392MOL0     H54037   5.023   0.621   6.551  0.2016 -0.8206 -1.2948
  392MOL0     H54038   5.074   0.785   6.528  1.3580  0.0131  1.4089
  392MOL0     H54039   5.083   0.533   6.347 -0.9631  1.0476 -0.8463
  392MOL0     H54040   5.135   0.704   6.297 -1.3800  0.6343 -1.2890
  392MOL0     H54041   5.248   0.577   6.544  1.0197 -0.4920 -0.3377
  392MOL0     H54042   5.310   0.712   6.452 -0.6932  1.1787  3.3274
  392MOL0     H54043   5.303   0.424   6.373 -3.0206  0.9731  1.7102
  392MOL0     H54044   5.352   0.555   6.258 -0.3304  0.9352  0.3502
  392MOL0     H54045   5.447   0.408   6.603  0.6861  1.8606  2.5978
  392MOL0     H54046   5.821   0.456   6.656 -1.0811  1.1201 -3.9511
  392MOL0     H54047   5.685   0.337   6.686  1.1599 -0.8947  2.3286
  392MOL0     H54048   5.728   0.621   6.791  2.5768 -1.4925 -1.3948
  392MOL0     H54049   5.569   0.548   6.793  0.0020  1.6178 -0.2577
  392MOL0     H54050   5.810   0.476   6.977  0.0237  0.1822  0.4517
  392MOL0     H54051   5.642   0.488   7.013 -2.1545  1.0221 -3.0644
  392MOL0     H54052   5.622   0.269   6.908  0.1646  0.8092 -0.9020
  392MOL0     H54053   5.795   0.278   6.848  0.9650 -0.1796  0.8710
  392MOL0     H54054   5.814   0.046   6.889  0.4817 -1.6775 -0.1944
  392MOL0     H54055   6.088  -0.146   6.820 -1.2533 -1.3363 -2.2789
  392MOL0     H54056   5.914  -0.130   6.808 -2.2334  1.8075  2.3249
  392MOL0     H54057   5.983  -0.237   6.930 -1.9300 -1.0399 -1.4461
  392MOL0     H54058   6.463  -0.153   6.952 -1.6322  2.1112  0.7854
  392MOL0     H54059   6.683  -0.236   6.978 -2.3132 -0.5658 -1.4852
  392MOL0     H54060   6.837  -0.430   7.183  1.2656 -1.4756  0.3066
  392MOL0     H54061   6.904  -0.330   7.050 -0.3231  1.8331 -0.1181
  392MOL0     H54062   7.090  -0.266   7.227  2.5162 -1.4190  3.9625
  392MOL0     H54063   7.006  -0.374   7.339 -1.0516  1.7142  0.2340
  392MOL0     H54064   7.116  -0.443   7.063  1.7094  1.0880  0.7357
  392MOL0     H54065   7.054  -0.562   7.183  0.9584 -0.9267  2.0136
  392MOL0     H54066   7.245  -0.483   7.336  0.6034 -0.0675  0.9549
  392MOL0     H54067   7.286  -0.364   7.205 -1.7619  0.8100  1.3173
  392MOL0     H54068   7.304  -0.658   7.147 -0.8985  0.7920  0.5325
  392MOL0     H54069   7.359  -0.516   7.050 -0.0837  1.0119  0.2685
  392MOL0     H54070   7.475  -0.597   7.329 -1.5405 -1.6543 -0.3204
  392MOL0     H54071   7.521  -0.460   7.227 -2.5120  0.7894 -1.2465
  392MOL0     H54072   7.564  -0.629   7.037 -1.3225 -0.3627 -0.1544
  392MOL0     H54073   7.542  -0.760   7.149 -4.3325  1.3446 -0.2507
  392MOL0     H54074   7.750  -0.674   7.284  0.9774 -1.5868 -0.5568
  392MOL0     H54075   7.761  -0.545   7.159 -0.7342  0.4729  1.3927
  392MOL0     H54076   6.686  -0.102   7.392 -0.6854  1.3988  0.3942
  392MOL0     H54077   6.449  -0.031   7.360 -0.1933  0.7299 -0.4659
  392MOL0     H54078   6.134   0.109   7.258  0.4627 -0.3199 -0.8791
  392MOL0     H54079   5.950   0.254   7.245  4.1652 -0.9562  1.2734
  392MOL0     H54080   4.513   0.672   6.155  0.4919 -0.3727  3.9800
  392MOL0     H54081   4.384   0.676   5.924  1.5164  1.2145  1.0363
  392MOL0     H54082   4.022   0.257   5.636 -0.5258 -1.3523 -1.0222
  392MOL0     H54083   3.841   0.244   5.508 -1.2217 -1.1104  1.1175
  392MOL0     H54084   3.674   0.356   5.334 -0.8619 -0.4607 -0.4905
  392MOL0     H54085   3.598   0.236   5.438 -0.5811 -0.1539  3.0658
  392MOL0     H54086   3.456   0.312   5.248 -4.1700  0.8929  0.2542
  392MOL0     H54087   3.450   0.474   5.290  0.0772 -1.7455 -3.6867
  392MOL0     H54088   3.346   0.233   5.453  0.4058  0.4458  0.5874
  392MOL0     H54089   3.323   0.401   5.503 -4.7327  1.0584 -0.7836
  392MOL0     H54090   3.222   0.327   5.227  0.1322  0.0836 -0.1289
  392MOL0     H54091   3.178   0.448   5.348  0.1915 -0.2721  0.3400
  392MOL0     H54092   2.934   0.103   5.419  0.9235 -1.1218 -0.1921
  392MOL0     H54093   3.674   0.611   5.665 -1.6865 -1.8179  3.7143
  392MOL0     H54094   3.928   0.744   5.799 -0.2087  1.2955  0.9371
  392MOL0     H54095   3.769   0.710   5.859 -0.1365  0.2726 -2.5316
  392MOL0     H54096   3.908   0.632   5.938 -4.1761  1.1998  1.6259
  393MOL0     O54097   8.724   7.516   1.929 -0.5809 -0.8347 -0.0525
  393MOL0     C54098   8.670   7.551   1.820  0.3576 -0.3493 -0.0025
  393MOL0     O54099   8.731   7.620   1.720 -0.4725 -0.3433 -0.4869
  393MOL0     C54100   8.872   7.630   1.730 -0.0391  0.1331 -0.1166
  393MOL0     C54101   8.932   7.729   1.810  1.3683 -0.7441 -0.2901
  393MOL0     C54102   9.066   7.747   1.801 -0.9946  0.2833  0.1326
  393MOL0     C54103   9.148   7.672   1.715 -0.5853 -0.7788  0.3072
  393MOL0     O54104   9.284   7.703   1.733 -0.0500 -0.0624 -0.7950
  393MOL0     C54105   9.396   7.629   1.683  0.4280 -0.4037 -0.5396
  393MOL0     C54106   9.482   7.559   1.801 -0.6071 -0.7061  1.0736
  393MOL0     C54107   9.404   7.462   1.882 -0.2472  0.6973 -0.7524
  393MOL0     C54108   9.488   7.417   1.996 -0.5389  0.1177 -0.9074
  393MOL0     C54109   9.413   7.304   2.070  0.1590  0.2302 -0.0603
  393MOL0     C54110   9.505   7.224   2.152 -0.0186  0.0103  0.6190
  393MOL0     C54111   9.573   7.302   2.273 -0.3176 -0.7224  0.3948
  393MOL0     C54112   9.671   7.203   2.340  0.2133 -0.9326 -0.2302
  393MOL0     N54113   9.775   7.272   2.418  0.4118  0.2458 -0.6887
  393MOL0     C54114   9.863   7.359   2.366 -1.4405 -0.4180  0.1336
  393MOL0     C54115   9.939   7.407   2.466  0.3807  0.4462  0.4352
  393MOL0     C54116  10.055   7.507   2.447  0.5772 -0.7784  0.6289
  393MOL0     C54117  10.180   7.472   2.527 -0.0412 -0.3801 -0.4914
  393MOL0     C54118  10.258   7.361   2.453  0.0947 -0.3365  0.0273
  393MOL0     C54119  10.400   7.361   2.503 -0.3875  0.3125  0.6787
  393MOL0     O54120  10.455   7.250   2.437 -0.1186 -0.4622  0.2113
  393MOL0     C54121  10.576   7.207   2.456 -0.5836 -0.1233  0.9189
  393MOL0     C54122  10.619   7.107   2.376  0.2551  0.9717 -0.2278
  393MOL0     C54123  10.756   7.064   2.387 -0.3758  0.7558 -0.5994
  393MOL0     C54124  10.789   6.958   2.297  0.4654  0.3149  0.6445
  393MOL0     C54125  10.844   7.110   2.480 -0.5601 -0.7356 -0.2660
  393MOL0     C54126  10.984   7.062   2.501 -0.1665 -0.5813 -0.1463
  393MOL0     O54127  11.071   7.140   2.568 -0.1378  0.3217 -0.3062
  393MOL0     C54128  11.207   7.111   2.553  0.7012  0.6038  0.2018
  393MOL0     C54129  11.285   7.077   2.664 -0.3139 -0.5326  0.1909
  393MOL0     C54130  11.422   7.072   2.639  0.5306  0.5109 -0.5478
  393MOL0     C54131  11.479   7.096   2.513  0.2666  0.2212  0.0452
  393MOL0     O54132  11.613   7.091   2.505  0.0923 -0.1747  0.1897
  393MOL0     C54133  11.670   7.057   2.379 -1.5800  0.5662  0.3294
  393MOL0     C54134  11.822   7.039   2.391 -0.7917 -0.8439  0.5432
  393MOL0     C54135  11.872   6.909   2.469 -0.0315  0.5742  0.8654
  393MOL0     C54136  12.019   6.918   2.503 -0.3469 -0.2791 -0.5861
  393MOL0     C54137  12.073   6.808   2.598 -0.5928  0.0046  0.6350
  393MOL0     C54138  12.216   6.847   2.645  0.3016  0.7461 -0.1898
  393MOL0     C54139  12.313   6.845   2.535 -0.5701  0.4106  0.3413
  393MOL0     C54140  12.462   6.827   2.575  0.3529  0.1636  0.5297
  393MOL0    Cl54141  12.497   6.947   2.719 -0.2054 -0.1019  0.1145
  393MOL0     C54142  11.397   7.122   2.406  0.5452  0.0427 -0.1222
  393MOL0     C54143  11.261   7.125   2.426  0.0736  0.0729  0.6101
  393MOL0     O54144  11.011   6.949   2.464 -1.3501 -0.2167  0.1083
  393MOL0     C54145  10.797   7.221   2.553 -0.3116  0.1472 -0.0468
  393MOL0     C54146  10.665   7.266   2.542  0.0151 -0.2012  0.4320
  393MOL0     N54147   9.880   7.363   2.587  0.1183 -0.1630 -0.0770
  393MOL0     N54148   9.791   7.281   2.552 -0.0684  0.8999  0.1840
  393MOL0     C54149   9.087   7.577   1.626 -0.4293 -0.4082  0.2179
  393MOL0     C54150   8.949   7.552   1.642 -0.4614 -0.3243 -0.5560
  393MOL0     C54151   8.520   7.548   1.817 -0.1527  0.5604 -0.0162
  393MOL0     C54152   8.460   7.638   1.726  0.0052 -0.5404  0.5799
  393MOL0     C54153   8.317   7.646   1.705  0.0847 -0.0584  0.1430
  393MOL0     C54154   8.242   7.568   1.785  0.8740  0.0259  0.2349
  393MOL0     O54155   8.107   7.575   1.770  0.3261 -0.6976 -0.2301
  393MOL0     C54156   8.026   7.529   1.886  0.1454  0.7093 -0.1825
  393MOL0     C54157   7.886   7.549   1.847  0.3110 -0.5860 -0.4596
  393MOL0     C54158   7.862   7.702   1.833  0.4403 -0.5459  0.3421
  393MOL0     C54159   7.715   7.736   1.865 -0.1872  1.2386 -0.1587
  393MOL0     C54160   7.623   7.658   1.783 -0.8231  0.2250 -0.2838
  393MOL0     C54161   7.549   7.604   1.701 -0.0265 -0.3091 -0.2078
  393MOL0     C54162   8.299   7.477   1.879  0.4219 -0.0314  0.3219
  393MOL0     C54163   8.438   7.471   1.903 -0.7116  0.0256 -0.4900
  393MOL0     C54164   8.485   7.381   2.022 -0.3487 -0.6332  0.3725
  393MOL0     H54165   8.867   7.784   1.877  2.9510 -1.3793  1.8849
  393MOL0     H54166   9.108   7.815   1.875 -2.3038  0.1437  1.0451
  393MOL0     H54167   9.467   7.696   1.633  1.4833 -1.0136  0.1092
  393MOL0     H54168   9.358   7.559   1.609 -0.6550  0.5252 -0.8914
  393MOL0     H54169   9.565   7.510   1.749 -0.7127  0.8052 -0.6173
  393MOL0     H54170   9.530   7.638   1.859  0.9692 -1.2180  0.5283
  393MOL0     H54171   9.312   7.508   1.921 -1.8566 -3.1050  0.4026
  393MOL0     H54172   9.364   7.381   1.821 -0.4706  1.0399 -1.0648
  393MOL0     H54173   9.580   7.365   1.967 -0.8064 -0.7710 -0.1841
  393MOL0     H54174   9.509   7.500   2.065  1.0123 -0.8888 -0.1174
  393MOL0     H54175   9.366   7.243   1.993  2.1049 -0.0118 -1.1177
  393MOL0     H54176   9.337   7.358   2.127  0.0829 -0.2522  0.3041
  393MOL0     H54177   9.456   7.132   2.185  0.0125  0.1086  0.9409
  393MOL0     H54178   9.588   7.199   2.084 -0.2738  2.7361 -0.8368
  393MOL0     H54179   9.501   7.327   2.351 -0.3347 -0.5661  0.3272
  393MOL0     H54180   9.630   7.388   2.237  1.9915 -1.4952  1.9221
  393MOL0     H54181   9.625   7.131   2.409 -0.1677 -1.9002 -1.4629
  393MOL0     H54182   9.713   7.140   2.261 -1.2909 -0.4512 -1.4710
  393MOL0     H54183   9.889   7.389   2.265  2.9837 -0.1563  1.1403
  393MOL0     H54184  10.027   7.609   2.476  1.7675 -0.8900  2.2484
  393MOL0     H54185  10.079   7.516   2.340  2.3635  0.3611  1.0871
  393MOL0     H54186  10.241   7.562   2.539 -0.3477 -0.5821  4.5143
  393MOL0     H54187  10.149   7.439   2.627 -1.8015  2.5352  0.0441
  393MOL0     H54188  10.199   7.273   2.480 -1.1665  0.6544  0.6056
  393MOL0     H54189  10.258   7.369   2.344  0.8540 -1.7962 -0.0970
  393MOL0     H54190  10.454   7.455   2.485 -1.7892  0.7709 -1.4812
  393MOL0     H54191  10.397   7.340   2.610 -0.8384 -0.2693  0.5604
  393MOL0     H54192  10.548   7.077   2.299  0.3961  2.2651 -0.8858
  393MOL0     H54193  10.875   6.982   2.234 -1.1846 -3.0819 -3.3777
  393MOL0     H54194  10.710   6.927   2.228  0.5985  2.9017 -0.7748
  393MOL0     H54195  10.818   6.867   2.352  0.5946 -0.7110 -1.0522
  393MOL0     H54196  11.252   7.062   2.766  0.4866  0.3132  0.5978
  393MOL0     H54197  11.486   7.049   2.724 -0.3056 -0.8365 -0.2510
  393MOL0     H54198  11.623   6.969   2.335  0.6815 -1.0557  0.9811
  393MOL0     H54199  11.660   7.142   2.312 -0.1780  1.5141  1.2574
  393MOL0     H54200  11.867   7.012   2.295  1.0501  1.0867  0.8060
  393MOL0     H54201  11.874   7.126   2.430  1.5645 -0.8689 -2.2027
  393MOL0     H54202  11.849   6.821   2.407  2.0345 -2.5196  4.0769
  393MOL0     H54203  11.813   6.908   2.561  0.2911 -1.3165  1.0930
  393MOL0     H54204  12.027   7.014   2.555 -0.6054  1.1955 -3.1225
  393MOL0     H54205  12.072   6.924   2.408 -0.5216 -1.2377 -0.7471
  393MOL0     H54206  12.012   6.804   2.689  2.9056  0.2271  3.1644
  393MOL0     H54207  12.081   6.711   2.547  2.0602  0.5379 -0.1115
  393MOL0     H54208  12.238   6.781   2.730 -2.1301  0.0643 -0.0116
  393MOL0     H54209  12.221   6.947   2.690 -0.7025  0.2211  1.1713
  393MOL0     H54210  12.300   6.944   2.491 -3.8090 -0.6570 -1.4571
  393MOL0     H54211  12.292   6.767   2.462 -0.8879  0.5471  0.2843
  393MOL0     H54212  12.525   6.849   2.489  1.5150 -3.3012  0.3523
  393MOL0     H54213  12.482   6.723   2.604  1.5250  0.2724  0.1570
  393MOL0     H54214  11.429   7.166   2.312 -1.1299  3.5661  0.7942
  393MOL0     H54215  11.200   7.150   2.340 -0.7832  2.0823  1.7268
  393MOL0     H54216  10.862   7.280   2.617  2.3315  0.4427 -2.7653
  393MOL0     H54217  10.631   7.361   2.582 -0.6125 -0.1363 -0.2363
  393MOL0     H54218   9.147   7.517   1.558  1.3400 -1.1119  2.2706
  393MOL0     H54219   8.905   7.479   1.575  2.6573 -0.1732 -3.0372
  393MOL0     H54220   8.525   7.691   1.657 -0.8838  1.8695  1.4927
  393MOL0     H54221   8.277   7.700   1.620 -0.1381 -0.9004 -0.2994
  393MOL0     H54222   8.026   7.420   1.894 -2.4754  0.6531 -0.1511
  393MOL0     H54223   8.060   7.565   1.983 -1.7148 -1.8649  1.5694
  393MOL0     H54224   7.822   7.506   1.924  1.6506 -0.5579  0.7125
  393MOL0     H54225   7.857   7.500   1.753 -2.0898  0.7748 -0.5006
  393MOL0     H54226   7.924   7.765   1.897  0.3551  0.0027 -0.1125
  393MOL0     H54227   7.897   7.729   1.733  2.4335  2.4991  1.7159
  393MOL0     H54228   7.689   7.840   1.842 -2.4930  0.5442 -0.8841
  393MOL0     H54229   7.691   7.722   1.971 -3.1258 -1.9513 -1.0771
  393MOL0     H54230   7.481   7.570   1.626  0.1113  1.0609 -0.9843
  393MOL0     H54231   8.235   7.417   1.942  1.0508  0.3957  1.4050
  393MOL0     H54232   8.394   7.346   2.071 -0.0320  0.6380  1.9314
  393MOL0     H54233   8.544   7.299   1.980  1.3675  0.1395  1.1726
  393MOL0     H54234   8.544   7.439   2.093 -0.6413 -0.3732  0.4016
  394MOL0     O54235   0.826   8.167   5.128  0.2694  0.3354 -0.7437
  394MOL0     C54236   0.770   8.240   5.049  0.7849 -0.0892  0.2519
  394MOL0     O54237   0.828   8.334   4.962 -0.0865 -0.2951  0.5086
  394MOL0     C54238   0.952   8.377   4.988 -0.1018  0.6834  0.6065
  394MOL0     C54239   1.053   8.343   4.896  0.2878 -0.8691 -0.3476
  394MOL0     C54240   1.183   8.359   4.937 -0.2610 -0.7454 -0.1734
  394MOL0     C54241   1.225   8.406   5.066  0.3401 -0.6303  0.6075
  394MOL0     O54242   1.351   8.421   5.091 -0.7897 -0.5229  0.4309
  394MOL0     C54243   1.385   8.473   5.220 -0.6154 -0.0320  0.6709
  394MOL0     C54244   1.529   8.509   5.221 -0.3028 -0.0842  0.3057
  394MOL0     C54245   1.578   8.556   5.357  0.1934  0.5724 -0.9659
  394MOL0     C54246   1.707   8.634   5.346 -0.8814 -0.2197 -0.1733
  394MOL0     C54247   1.800   8.647   5.468 -0.4129  0.0438  0.0245
  394MOL0     C54248   1.913   8.738   5.426 -0.2056  0.5574 -0.3202
  394MOL0     C54249   2.006   8.736   5.551 -0.2296  0.0574 -0.1368
  394MOL0     C54250   2.140   8.809   5.527 -0.3415  0.0152 -0.5298
  394MOL0     N54251   2.224   8.834   5.646 -0.2086  0.4860 -0.2002
  394MOL0     C54252   2.321   8.749   5.706  0.3775 -0.3156 -0.1859
  394MOL0     C54253   2.388   8.828   5.785 -1.0145 -0.8577 -0.4621
  394MOL0     C54254   2.503   8.776   5.861 -0.6260 -0.9746 -0.0951
  394MOL0     C54255   2.481   8.727   6.003  0.3104  0.4909  0.0519
  394MOL0     C54256   2.432   8.840   6.097 -1.2939 -0.0718  0.4914
  394MOL0     C54257   2.430   8.785   6.239 -0.7716 -0.5856  0.3556
  394MOL0     O54258   2.391   8.883   6.340  0.2974 -0.0803  0.2455
  394MOL0     C54259   2.486   8.963   6.391 -0.1411  0.1161 -0.2955
  394MOL0     C54260   2.480   9.100   6.372  0.2477  0.1976  0.0386
  394MOL0     C54261   2.573   9.188   6.421  0.8238 -0.0225 -1.2332
  394MOL0     C54262   2.555   9.330   6.405  0.0561 -0.8023  1.1644
  394MOL0     C54263   2.694   9.138   6.483  1.6698  1.1732 -0.1194
  394MOL0     C54264   2.809   9.223   6.528  1.0486 -0.1515  0.0616
  394MOL0     O54265   2.784   9.349   6.574 -0.2677  1.4566 -0.0580
  394MOL0     C54266   2.888   9.429   6.612 -0.6074 -0.8078 -0.6345
  394MOL0     C54267   2.992   9.390   6.700  0.6185  0.1875  0.4221
  394MOL0     C54268   3.090   9.481   6.741  0.5057  0.4992 -0.3624
  394MOL0     C54269   3.092   9.614   6.692  0.4657  1.2441 -0.7526
  394MOL0     O54270   3.192   9.691   6.737 -0.7244 -0.3395 -0.1200
  394MOL0     C54271   3.232   9.799   6.651  1.3971  0.2665 -0.2718
  394MOL0     C54272   3.338   9.889   6.705  0.6091 -0.0091 -0.1747
  394MOL0     C54273   3.293  10.014   6.794 -0.3721  0.7752 -0.1232
  394MOL0     C54274   3.308  10.151   6.719  0.4578  0.4041  0.0041
  394MOL0     C54275   3.259  10.269   6.811  0.6132  0.5123  0.3379
  394MOL0     C54276   3.318  10.400   6.767  0.6248  0.3518 -0.7154
  394MOL0     C54277   3.255  10.510   6.855 -0.4748  0.4640  0.3646
  394MOL0     C54278   3.329  10.643   6.830 -1.3547  0.1389 -0.5590
  394MOL0    Cl54279   3.289  10.759   6.962  0.2672 -0.1707 -0.1472
  394MOL0     C54280   2.989   9.658   6.604 -0.3783  0.1684  0.2996
  394MOL0     C54281   2.895   9.561   6.566  0.4936 -0.2671  0.4809
  394MOL0     O54282   2.921   9.172   6.522  0.6020 -0.0210 -0.2506
  394MOL0     C54283   2.702   8.992   6.498  0.1800  0.2866  0.3027
  394MOL0     C54284   2.594   8.911   6.464 -0.3050  0.6898  0.3030
  394MOL0     N54285   2.333   8.956   5.790  1.4423  0.0400  0.0302
  394MOL0     N54286   2.231   8.956   5.703  0.0504 -0.4714  0.5694
  394MOL0     C54287   1.115   8.448   5.151 -0.5632  0.7774  0.0122
  394MOL0     C54288   0.986   8.437   5.107  0.4685 -0.1284  0.3644
  394MOL0     C54289   0.621   8.218   5.032  0.5076 -0.9951  0.2629
  394MOL0     C54290   0.568   8.089   5.051 -0.4965  0.6631 -0.2454
  394MOL0     C54291   0.429   8.069   5.053  1.0801  0.2687  0.2411
  394MOL0     C54292   0.344   8.172   5.010 -0.0097  0.2377 -0.1097
  394MOL0     O54293   0.211   8.135   5.010 -0.3305  0.5226  0.3146
  394MOL0     C54294   0.107   8.236   4.994 -0.0165  0.0350 -0.1495
  394MOL0     C54295  -0.022   8.188   5.058  0.8569  0.2352 -0.2613
  394MOL0     C54296  -0.131   8.299   5.052 -0.5385  0.7814  0.4809
  394MOL0     C54297  -0.246   8.262   5.148  0.6424  0.3626 -0.4893
  394MOL0     C54298  -0.318   8.382   5.198 -0.3997  0.6676  0.9111
  394MOL0     C54299  -0.400   8.465   5.216  0.7513 -0.7101  0.4495
  394MOL0     C54300   0.399   8.300   4.985 -0.7330 -0.1965  0.3852
  394MOL0     C54301   0.535   8.325   5.007  0.2947  0.6420  0.0567
  394MOL0     C54302   0.577   8.469   5.000 -0.9474 -0.2637  0.3181
  394MOL0     H54303   1.022   8.300   4.801 -1.7817 -2.5542  0.9710
  394MOL0     H54304   1.275   8.344   4.882  0.4987 -3.1155  1.5609
  394MOL0     H54305   1.356   8.406   5.301  4.1862 -2.0347  1.1058
  394MOL0     H54306   1.337   8.571   5.215  2.4742  1.6052 -4.5270
  394MOL0     H54307   1.584   8.419   5.191 -1.7658 -1.0544  0.4503
  394MOL0     H54308   1.545   8.590   5.150 -0.8517  1.4423  1.8598
  394MOL0     H54309   1.491   8.604   5.402 -2.1476 -2.9649 -1.2892
  394MOL0     H54310   1.595   8.470   5.422  1.3533  3.3799  2.7916
  394MOL0     H54311   1.768   8.585   5.270  0.7104  0.8466  0.3561
  394MOL0     H54312   1.684   8.731   5.300  0.8647  0.1567 -0.3188
  394MOL0     H54313   1.841   8.547   5.484  1.8148  0.9052  0.0049
  394MOL0     H54314   1.740   8.674   5.556 -2.2294  0.4417 -1.2638
  394MOL0     H54315   1.966   8.688   5.345  0.7732 -1.0562  1.2599
  394MOL0     H54316   1.885   8.842   5.403  1.5087  0.9858 -0.6075
  394MOL0     H54317   2.026   8.637   5.593 -2.7810  0.4697  2.3989
  394MOL0     H54318   1.948   8.774   5.637 -0.8709 -0.7926 -0.1810
  394MOL0     H54319   2.202   8.752   5.456  0.8921 -0.6137  0.9975
  394MOL0     H54320   2.122   8.903   5.474  1.6882  0.5630 -0.3203
  394MOL0     H54321   2.344   8.645   5.681  2.0104  0.1889 -0.9049
  394MOL0     H54322   2.593   8.838   5.865 -1.2914 -0.0455  1.6265
  394MOL0     H54323   2.534   8.686   5.806  0.1188 -2.3267  2.3966
  394MOL0     H54324   2.400   8.654   5.990 -0.2066  1.3127 -1.6682
  394MOL0     H54325   2.565   8.670   6.044 -0.5443 -0.8953 -0.0526
  394MOL0     H54326   2.504   8.922   6.081  0.6546 -1.9968 -1.2118
  394MOL0     H54327   2.335   8.877   6.063 -1.7616  1.3809  3.0936
  394MOL0     H54328   2.364   8.698   6.236  1.7113 -2.5864 -1.4386
  394MOL0     H54329   2.530   8.747   6.266 -1.4384 -0.3216  3.6332
  394MOL0     H54330   2.387   9.138   6.333 -0.1582 -1.4775 -0.7105
  394MOL0     H54331   2.636   9.371   6.344 -0.8427 -0.1452  0.3708
  394MOL0     H54332   2.552   9.376   6.505  2.1342 -1.0430  1.3723
  394MOL0     H54333   2.464   9.355   6.350  1.4106 -0.7481 -1.1910
  394MOL0     H54334   2.989   9.289   6.740 -0.7096 -0.9473 -2.2763
  394MOL0     H54335   3.170   9.447   6.807 -0.0974 -0.0964  0.0699
  394MOL0     H54336   3.265   9.757   6.556  0.9172 -2.1496  0.5802
  394MOL0     H54337   3.151   9.872   6.640  2.6113  1.8866  1.0652
  394MOL0     H54338   3.418   9.829   6.750  0.3687 -0.2426 -0.0532
  394MOL0     H54339   3.370   9.938   6.612 -1.0260  2.3757  0.4256
  394MOL0     H54340   3.355  10.011   6.884  0.1654  1.4055 -0.4640
  394MOL0     H54341   3.193  10.006   6.838  0.4701 -0.1999  1.7421
  394MOL0     H54342   3.250  10.146   6.626 -0.5238  1.4666  0.5443
  394MOL0     H54343   3.413  10.166   6.691  0.9025 -0.0626  1.3796
  394MOL0     H54344   3.151  10.269   6.825  0.1796 -3.6599 -1.4415
  394MOL0     H54345   3.299  10.242   6.909  0.1779  0.2438  0.4426
  394MOL0     H54346   3.306  10.429   6.662 -2.1620  3.2928  0.2577
  394MOL0     H54347   3.425  10.391   6.785  0.3563  0.9475  1.4132
  394MOL0     H54348   3.255  10.488   6.963  0.6909  0.5004  0.3856
  394MOL0     H54349   3.152  10.525   6.822 -0.6603 -1.0176  0.2253
  394MOL0     H54350   3.300  10.676   6.731 -1.4295  2.6282  0.2327
  394MOL0     H54351   3.437  10.624   6.827 -1.4053 -0.1683 -0.4750
  394MOL0     H54352   2.987   9.756   6.557 -0.8793 -0.6710 -1.5222
  394MOL0     H54353   2.818   9.587   6.494 -0.2129  1.3902  1.7461
  394MOL0     H54354   2.793   8.946   6.533  1.9710  2.3724 -1.2910
  394MOL0     H54355   2.601   8.804   6.480  0.8426  0.3771 -1.8631
  394MOL0     H54356   1.141   8.483   5.251 -2.1568  0.4561  0.5730
  394MOL0     H54357   0.908   8.463   5.177 -0.7874  1.9170 -1.6614
  394MOL0     H54358   0.630   8.004   5.074 -0.8979 -0.6139 -3.3250
  394MOL0     H54359   0.400   7.966   5.068  0.7166  0.6476  2.4909
  394MOL0     H54360   0.138   8.327   5.045 -1.2531  0.3216  0.1301
  394MOL0     H54361   0.087   8.261   4.890 -0.0736  2.9871  0.4707
  394MOL0     H54362   0.007   8.159   5.159  1.9199 -1.1386 -0.9184
  394MOL0     H54363  -0.046   8.093   5.009  0.4173  0.4818 -0.5245
  394MOL0     H54364  -0.084   8.389   5.093 -1.0623  1.1042  0.3857
  394MOL0     H54365  -0.176   8.323   4.955 -0.6076 -2.5567 -0.4303
  394MOL0     H54366  -0.211   8.188   5.221 -1.6480 -1.1466 -0.8154
  394MOL0     H54367  -0.314   8.200   5.089  0.1687 -2.6192  2.8201
  394MOL0     H54368  -0.472   8.536   5.250  2.4861  1.4779 -0.1917
  394MOL0     H54369   0.340   8.388   4.959 -0.5004 -0.2182 -0.2356
  394MOL0     H54370   0.496   8.538   5.027  0.9194  1.4568  1.8308
  394MOL0     H54371   0.666   8.483   5.062  0.0854  1.2061 -1.4270
  394MOL0     H54372   0.603   8.500   4.899  2.2584  1.7260  1.5868
  395MOL0     O54373  11.265   3.449   0.543  0.0794 -0.3010  0.0597
  395MOL0     C54374  11.186   3.385   0.479  0.4678 -0.4066 -0.6618
  395MOL0     O54375  11.182   3.372   0.337  0.5153  0.5550  0.1186
  395MOL0     C54376  11.263   3.462   0.265  0.3249 -0.2130  0.8597
  395MOL0     C54377  11.334   3.404   0.163  0.2793  0.0270  0.0278
  395MOL0     C54378  11.421   3.475   0.085 -0.3459 -0.4775 -0.1313
  395MOL0     C54379  11.437   3.614   0.112 -0.5530  0.9531 -0.5807
  395MOL0     O54380  11.525   3.693   0.038  0.3724  0.0388  0.7849
  395MOL0     C54381  11.661   3.648   0.037  0.0373  0.5713  0.3179
  395MOL0     C54382  11.700   3.635  -0.116  0.3371 -0.5365  0.4048
  395MOL0     C54383  11.833   3.555  -0.135 -0.3883  0.3422 -0.6398
  395MOL0     C54384  11.952   3.639  -0.094  1.1121  0.3544  0.0596
  395MOL0     C54385  12.098   3.587  -0.115 -0.0414 -0.2136  0.1225
  395MOL0     C54386  12.196   3.697  -0.095  0.2434  0.7866 -0.8636
  395MOL0     C54387  12.337   3.654  -0.131 -0.3204 -1.2732  0.9681
  395MOL0     C54388  12.427   3.767  -0.084 -0.2029 -0.1878  0.5322
  395MOL0     N54389  12.559   3.723  -0.098 -0.7087  0.2477 -0.1350
  395MOL0     C54390  12.630   3.614  -0.033  0.2429 -0.2244  0.5483
  395MOL0     C54391  12.748   3.622  -0.104  0.7580 -0.7866 -0.0248
  395MOL0     C54392  12.871   3.528  -0.089 -0.7684  0.4191  0.4578
  395MOL0     C54393  12.956   3.540   0.041  0.6997  0.3346 -0.1417
  395MOL0     C54394  12.990   3.694   0.076 -0.1555  0.7091 -0.8733
  395MOL0     C54395  13.081   3.712   0.192 -1.3068  0.1240 -0.1595
  395MOL0     O54396  13.201   3.625   0.173  0.2486 -0.5645  0.1619
  395MOL0     C54397  13.280   3.612   0.290  0.1621 -0.0232 -0.3161
  395MOL0     C54398  13.233   3.559   0.409  0.1838  0.6993  0.2474
  395MOL0     C54399  13.324   3.517   0.512 -0.1037 -0.3642  0.1476
  395MOL0     C54400  13.267   3.448   0.626 -1.0884  0.0305 -0.7854
  395MOL0     C54401  13.458   3.556   0.506 -0.3758  0.8881  0.1359
  395MOL0     C54402  13.555   3.542   0.616 -0.1505 -0.5148  0.5854
  395MOL0     O54403  13.679   3.593   0.584 -0.0774  0.2648  0.4035
  395MOL0     C54404  13.782   3.573   0.665 -0.1759  0.0633 -0.7746
  395MOL0     C54405  13.825   3.690   0.725 -0.2301 -0.3579 -0.7321
  395MOL0     C54406  13.945   3.695   0.794 -1.1924 -0.2953  0.2440
  395MOL0     C54407  14.014   3.572   0.820 -0.0078  0.0345 -0.0152
  395MOL0     O54408  14.133   3.560   0.895  0.4965 -0.2605  0.2939
  395MOL0     C54409  14.199   3.681   0.927  0.2767  0.0086  0.3516
  395MOL0     C54410  14.322   3.638   1.010  0.0528  0.5566 -0.2086
  395MOL0     C54411  14.424   3.580   0.916  0.8514  0.2465  0.1900
  395MOL0     C54412  14.520   3.497   1.000 -0.1610 -0.6678 -0.3037
  395MOL0     C54413  14.647   3.455   0.926 -0.0796  0.6512  0.7893
  395MOL0     C54414  14.747   3.365   0.998 -0.7538  0.4115 -0.2034
  395MOL0     C54415  14.874   3.343   0.911 -1.1071 -0.0051  0.5478
  395MOL0     C54416  14.965   3.256   0.991 -0.5467  0.4284  0.3153
  395MOL0    Cl54417  14.897   3.099   1.032  0.5791 -0.4303  0.7024
  395MOL0     C54418  13.960   3.453   0.767  0.3445  0.9213 -1.0937
  395MOL0     C54419  13.847   3.456   0.687 -0.0232  0.1375 -0.9291
  395MOL0     O54420  13.532   3.490   0.723  0.5376 -0.9157 -0.1606
  395MOL0     C54421  13.508   3.618   0.394 -0.0501 -0.4194 -0.0091
  395MOL0     C54422  13.420   3.639   0.281 -0.0994  0.1027 -0.1150
  395MOL0     N54423  12.744   3.729  -0.197 -0.0540  0.6255 -0.7154
  395MOL0     N54424  12.638   3.785  -0.195 -0.5413 -0.0812 -0.7289
  395MOL0     C54425  11.356   3.669   0.206  0.0420 -1.1849 -0.3613
  395MOL0     C54426  11.273   3.598   0.291  0.0495  0.1463 -0.4964
  395MOL0     C54427  11.069   3.339   0.560 -0.2664 -1.3751  0.2448
  395MOL0     C54428  10.954   3.297   0.491 -0.0928 -0.8559 -0.5028
  395MOL0     C54429  10.841   3.252   0.551  0.4040 -1.1137 -0.2523
  395MOL0     C54430  10.834   3.260   0.692  0.6017  0.3475  0.3737
  395MOL0     O54431  10.721   3.219   0.772  0.6205  0.9442 -0.2980
  395MOL0     C54432  10.600   3.184   0.701 -0.2854 -0.7135  0.6258
  395MOL0     C54433  10.473   3.188   0.782 -0.2142  0.3366  0.1409
  395MOL0     C54434  10.460   3.065   0.872 -0.5172 -0.0833  0.5508
  395MOL0     C54435  10.334   3.081   0.955  0.0232  0.8093  0.7092
  395MOL0     C54436  10.353   3.188   1.055 -0.5091 -0.2779  1.0149
  395MOL0     C54437  10.361   3.274   1.140  0.9302 -0.1080  0.7375
  395MOL0     C54438  10.942   3.301   0.757  0.4450  0.1009 -0.1774
  395MOL0     C54439  11.056   3.352   0.700 -0.8041  0.4639 -0.0722
  395MOL0     C54440  11.160   3.404   0.786 -0.6594 -0.7868  0.0528
  395MOL0     H54441  11.320   3.297   0.155 -2.1552  0.0397  2.6203
  395MOL0     H54442  11.487   3.427   0.014  0.1368 -0.1551  0.0910
  395MOL0     H54443  11.683   3.549   0.079  0.2924 -0.3663 -1.8730
  395MOL0     H54444  11.732   3.710   0.091 -0.3595 -0.2803  1.8884
  395MOL0     H54445  11.611   3.601  -0.170 -0.3042  0.3846  0.8612
  395MOL0     H54446  11.720   3.736  -0.151 -1.4910 -0.6425 -1.1076
  395MOL0     H54447  11.846   3.473  -0.064  2.7111  2.1030  1.0441
  395MOL0     H54448  11.843   3.499  -0.228 -1.9359 -4.7041  1.8370
  395MOL0     H54449  11.936   3.735  -0.144 -1.3762  1.1160  2.0449
  395MOL0     H54450  11.937   3.661   0.013  1.2385  0.9904 -0.0465
  395MOL0     H54451  12.093   3.560  -0.221 -1.4793 -0.1651  0.1660
  395MOL0     H54452  12.121   3.500  -0.052 -0.3639  0.2554  0.9024
  395MOL0     H54453  12.161   3.777  -0.161 -0.7971 -1.3202 -3.0382
  395MOL0     H54454  12.190   3.714   0.013  1.0114  2.2269 -1.0333
  395MOL0     H54455  12.344   3.631  -0.238 -0.9254  2.3201  0.0076
  395MOL0     H54456  12.369   3.564  -0.079 -0.4244 -1.7796  0.1839
  395MOL0     H54457  12.412   3.859  -0.142 -3.6235 -0.6515  0.4890
  395MOL0     H54458  12.422   3.790   0.023 -1.1224  0.8107  0.2945
  395MOL0     H54459  12.597   3.540   0.038  2.3744  1.8830  4.0472
  395MOL0     H54460  12.926   3.545  -0.182 -0.2808  0.3171  0.7256
  395MOL0     H54461  12.846   3.422  -0.105 -0.5730  0.7164 -2.2472
  395MOL0     H54462  12.908   3.491   0.126 -2.5342 -0.2856 -2.1377
  395MOL0     H54463  13.048   3.484   0.019 -0.3845 -2.0098  0.8734
  395MOL0     H54464  13.035   3.745  -0.010 -1.1119 -0.4158 -2.0877
  395MOL0     H54465  12.904   3.753   0.111  0.1298  0.1496  0.8452
  395MOL0     H54466  13.111   3.817   0.192  2.9015 -0.8797  0.9584
  395MOL0     H54467  13.038   3.673   0.285  0.7794 -4.3571 -0.8082
  395MOL0     H54468  13.126   3.545   0.421  0.3090 -0.4315  0.0898
  395MOL0     H54469  13.270   3.523   0.706 -1.2442  0.3861 -1.1040
  395MOL0     H54470  13.329   3.370   0.671  2.7620  3.8104  1.2035
  395MOL0     H54471  13.163   3.419   0.605 -1.6246  1.6143 -0.5320
  395MOL0     H54472  13.774   3.784   0.703  0.6874 -0.2721 -2.7141
  395MOL0     H54473  13.975   3.793   0.828  0.3309 -0.4572 -0.5765
  395MOL0     H54474  14.224   3.737   0.836  0.6546  0.7449  0.9050
  395MOL0     H54475  14.131   3.743   0.985 -1.1936 -1.2546  0.0464
  395MOL0     H54476  14.366   3.729   1.050 -0.5477  0.6576  0.2309
  395MOL0     H54477  14.300   3.584   1.103  3.3371  2.1240  1.6374
  395MOL0     H54478  14.470   3.673   0.880  0.4444  0.2617 -0.3076
  395MOL0     H54479  14.380   3.526   0.832 -1.5412  1.8966  0.2463
  395MOL0     H54480  14.480   3.404   1.041 -1.1284  0.7196  2.0907
  395MOL0     H54481  14.547   3.567   1.079 -1.6944  2.6100 -2.4427
  395MOL0     H54482  14.621   3.390   0.842  1.9820  2.3352 -1.2989
  395MOL0     H54483  14.695   3.543   0.882  0.6731 -0.4084 -0.6228
  395MOL0     H54484  14.703   3.271   1.031  0.2479  0.0844  0.2626
  395MOL0     H54485  14.788   3.403   1.092 -1.1500 -2.9014  1.4369
  395MOL0     H54486  14.925   3.436   0.883  1.4833 -2.3925 -3.5734
  395MOL0     H54487  14.863   3.302   0.811  1.6447  0.6794 -0.1137
  395MOL0     H54488  14.999   3.312   1.078  2.6131  1.1623 -1.2310
  395MOL0     H54489  15.052   3.238   0.927  0.0801  2.2586  0.5836
  395MOL0     H54490  14.013   3.358   0.766 -0.6957  0.3223 -2.2465
  395MOL0     H54491  13.805   3.367   0.641  3.2801 -3.4278  2.2019
  395MOL0     H54492  13.613   3.642   0.378  0.1655 -1.4434 -0.2118
  395MOL0     H54493  13.455   3.669   0.182 -2.5836  1.0305 -0.8024
  395MOL0     H54494  11.372   3.776   0.217 -1.0387 -0.6778 -2.9970
  395MOL0     H54495  11.223   3.645   0.375 -0.2816 -0.2233 -0.4838
  395MOL0     H54496  10.972   3.289   0.384  3.9769  0.6645 -0.1151
  395MOL0     H54497  10.760   3.206   0.495  1.0797 -4.3386  1.1962
  395MOL0     H54498  10.600   3.243   0.610 -0.8854 -1.8912 -0.1586
  395MOL0     H54499  10.611   3.079   0.672 -0.3303 -1.7373  3.8683
  395MOL0     H54500  10.392   3.206   0.710  0.7820 -3.4461 -2.2151
  395MOL0     H54501  10.477   3.270   0.854 -1.2693 -0.0391  0.6437
  395MOL0     H54502  10.461   2.974   0.811  0.6509 -1.3527  2.3565
  395MOL0     H54503  10.550   3.057   0.934  1.6180  0.7191 -2.2274
  395MOL0     H54504  10.320   2.989   1.011  1.3139  0.9417  1.2986
  395MOL0     H54505  10.244   3.087   0.893  0.0261  3.8775  0.8554
  395MOL0     H54506  10.361   3.341   1.223  1.0181  0.2146  0.4758
  395MOL0     H54507  10.947   3.292   0.865  1.2206  1.4326 -0.0827
  395MOL0     H54508  11.199   3.503   0.760  3.4151 -2.5636 -1.3910
  395MOL0     H54509  11.124   3.411   0.889 -0.0386 -1.4332  0.3167
  395MOL0     H54510  11.252   3.345   0.793  0.8569  1.6495  3.3147
  396MOL0     O54511  10.600   9.529   0.535  0.4646  0.0319  0.5073
  396MOL0     C54512  10.551   9.551   0.643  0.3118 -1.0761 -0.9832
  396MOL0     O54513  10.613   9.608   0.754  0.4206  0.7624  0.9576
  396MOL0     C54514  10.732   9.660   0.729  0.5333  0.1552 -0.3783
  396MOL0     C54515  10.742   9.775   0.642 -0.0322  0.2945 -0.0130
  396MOL0     C54516  10.863   9.848   0.629 -0.5676 -0.1791 -0.2221
  396MOL0     C54517  10.984   9.821   0.706  0.3265 -0.2072  0.3275
  396MOL0     O54518  11.100   9.893   0.692  0.1768  0.1244  0.4787
  396MOL0     C54519  11.216   9.813   0.693  0.4241  1.3482  0.1285
  396MOL0     C54520  11.343   9.888   0.652 -0.3971 -0.2722 -0.4615
  396MOL0     C54521  11.452   9.786   0.617  0.1677  0.2334  0.4265
  396MOL0     C54522  11.594   9.847   0.570 -0.0496 -0.1061 -0.0442
  396MOL0     C54523  11.691   9.742   0.518  0.9097 -0.6510  0.3518
  396MOL0     C54524  11.791   9.788   0.411 -0.0866  0.6944  0.8724
  396MOL0     C54525  11.897   9.874   0.476  0.7815 -0.5885  0.0082
  396MOL0     C54526  11.994   9.925   0.377 -1.2887 -0.2603 -0.2724
  396MOL0     N54527  12.077  10.040   0.423  0.2098  0.2163 -0.7294
  396MOL0     C54528  12.043  10.172   0.418 -1.0897 -0.3376 -0.4822
  396MOL0     C54529  12.144  10.238   0.495 -0.2969  0.4728  0.0742
  396MOL0     C54530  12.133  10.384   0.555  0.1805 -0.4750 -0.6983
  396MOL0     C54531  12.269  10.462   0.556 -0.0328  0.2651  0.8091
  396MOL0     C54532  12.341  10.457   0.417 -0.0760  0.0019 -0.7567
  396MOL0     C54533  12.450  10.564   0.407  1.1225 -0.7644  0.2347
  396MOL0     O54534  12.444  10.597   0.268 -0.6499 -0.1167 -0.1745
  396MOL0     C54535  12.565  10.592   0.201 -0.3656  0.4296 -0.7831
  396MOL0     C54536  12.608  10.705   0.139 -0.8917 -1.1393  0.4644
  396MOL0     C54537  12.721  10.716   0.048 -0.3064 -0.7603  0.3468
  396MOL0     C54538  12.747  10.858  -0.013  0.3849  0.2533  0.3043
  396MOL0     C54539  12.805  10.600   0.049 -0.5566 -0.8503  0.3373
  396MOL0     C54540  12.938  10.605  -0.011  0.1156  0.7377 -0.5385
  396MOL0     O54541  12.988  10.714  -0.072 -0.1889 -0.0252  0.4239
  396MOL0     C54542  13.124  10.721  -0.116  0.1005  0.0029  0.4282
  396MOL0     C54543  13.154  10.834  -0.202 -0.2664 -0.8705  0.2924
  396MOL0     C54544  13.284  10.854  -0.258 -1.0986  0.0894  0.0646
  396MOL0     C54545  13.385  10.765  -0.220 -0.8071 -0.0950  0.2461
  396MOL0     O54546  13.514  10.787  -0.253  0.3909  0.0720  0.4890
  396MOL0     C54547  13.551  10.869  -0.366 -0.2379  0.3883  0.2817
  396MOL0     C54548  13.696  10.888  -0.358 -0.9645  0.5018  0.8493
  396MOL0     C54549  13.780  10.755  -0.375 -0.2041  0.1103  0.0067
  396MOL0     C54550  13.931  10.781  -0.373  0.2072 -0.1175 -0.4317
  396MOL0     C54551  14.019  10.651  -0.385  0.3230 -0.3030 -0.8086
  396MOL0     C54552  13.990  10.541  -0.273 -0.1457 -0.7124  0.4436
  396MOL0     C54553  14.082  10.578  -0.157  0.4440 -0.6958 -0.6232
  396MOL0     C54554  14.034  10.496  -0.036 -0.2947  0.1834  0.6595
  396MOL0    Cl54555  14.074  10.327  -0.072  0.3706  0.3146  0.2250
  396MOL0     C54556  13.358  10.661  -0.126  0.3647  0.0828  0.0196
  396MOL0     C54557  13.231  10.642  -0.079  0.1195  0.7446  0.2733
  396MOL0     O54558  13.001  10.501  -0.000  0.5702 -0.1126  0.3241
  396MOL0     C54559  12.771  10.484   0.119 -0.7356 -1.2242  0.2058
  396MOL0     C54560  12.650  10.485   0.194  0.0846  0.4958 -0.3448
  396MOL0     N54561  12.249  10.152   0.503 -0.9947  0.5030 -0.2413
  396MOL0     N54562  12.211  10.033   0.453  1.3572  0.2994  0.3122
  396MOL0     C54563  10.959   9.724   0.806  0.0115  0.3410  0.0618
  396MOL0     C54564  10.843   9.638   0.812 -0.2861 -0.0620  0.3739
  396MOL0     C54565  10.405   9.509   0.666  0.3857 -0.0332 -0.2761
  396MOL0     C54566  10.378   9.479   0.798  0.9397 -0.0469  0.2393
  396MOL0     C54567  10.248   9.445   0.834 -0.1838 -1.0144 -0.3930
  396MOL0     C54568  10.143   9.438   0.744 -0.1671 -1.2095  0.0646
  396MOL0     O54569  10.018   9.419   0.790  0.5641 -0.5154 -0.7009
  396MOL0     C54570   9.985   9.280   0.785  0.6940  0.5174  0.7900
  396MOL0     C54571   9.836   9.261   0.787 -0.0541 -0.4256 -0.2935
  396MOL0     C54572   9.765   9.361   0.694 -0.8538 -0.0158  0.7187
  396MOL0     C54573   9.615   9.347   0.707  0.2691 -0.4638  0.4507
  396MOL0     C54574   9.535   9.469   0.660  0.5301 -0.3783 -0.1266
  396MOL0     C54575   9.453   9.557   0.640 -0.0794  0.7181 -1.0253
  396MOL0     C54576  10.172   9.464   0.609 -0.6994  0.4186 -0.2689
  396MOL0     C54577  10.302   9.491   0.562  0.0713  0.0428 -0.0187
  396MOL0     C54578  10.327   9.521   0.414  0.0563  0.6797 -0.6481
  396MOL0     H54579  10.656   9.808   0.585 -0.4374 -1.7191 -0.6517
  396MOL0     H54580  10.875   9.925   0.554  1.1904  0.7809  0.9640
  396MOL0     H54581  11.204   9.732   0.619 -2.3197  1.9732 -0.2307
  396MOL0     H54582  11.221   9.760   0.789  0.5375 -4.7620 -2.7219
  396MOL0     H54583  11.337   9.970   0.579 -0.4017 -3.3955 -4.2978
  396MOL0     H54584  11.371   9.933   0.748  1.6827 -1.7815 -0.2862
  396MOL0     H54585  11.468   9.719   0.702 -1.0627  0.2530  0.6961
  396MOL0     H54586  11.424   9.734   0.525 -0.3802  1.8157 -0.3433
  396MOL0     H54587  11.575   9.922   0.492 -1.6301  0.1889  0.5767
  396MOL0     H54588  11.640   9.902   0.652 -1.6271 -0.6654  1.2688
  396MOL0     H54589  11.619   9.678   0.465  0.7562  0.2375 -0.5389
  396MOL0     H54590  11.737   9.667   0.583  2.1301 -1.8977 -1.8264
  396MOL0     H54591  11.828   9.693   0.371  0.9101  0.9303  1.1917
  396MOL0     H54592  11.738   9.828   0.325 -0.4671 -1.6742 -0.0901
  396MOL0     H54593  11.938   9.823   0.564 -0.4717 -0.8531  0.4519
  396MOL0     H54594  11.838   9.964   0.498  0.2386 -0.8023 -0.5440
  396MOL0     H54595  12.062   9.849   0.338  1.2266  1.3125  0.7988
  396MOL0     H54596  11.942   9.967   0.290 -1.0212 -0.6749 -0.6316
  396MOL0     H54597  11.949  10.211   0.381 -0.1227  1.4245 -1.1657
  396MOL0     H54598  12.085  10.378   0.653 -0.6352 -1.4993 -1.1497
  396MOL0     H54599  12.060  10.438   0.495  0.0201 -1.6447 -1.5725
  396MOL0     H54600  12.251  10.566   0.585  0.9682  1.0792 -1.2923
  396MOL0     H54601  12.333  10.418   0.633  2.8838  0.3190 -1.4238
  396MOL0     H54602  12.391  10.362   0.396  0.1380  0.1570 -0.9591
  396MOL0     H54603  12.260  10.469   0.345  0.1136 -1.7007 -1.2909
  396MOL0     H54604  12.429  10.650   0.471 -0.6505 -0.1630 -1.0596
  396MOL0     H54605  12.546  10.526   0.443  1.7833  0.2262 -0.4702
  396MOL0     H54606  12.552  10.793   0.168 -1.3670 -1.5562  0.8225
  396MOL0     H54607  12.663  10.926  -0.002 -1.1690 -1.1576 -1.9361
  396MOL0     H54608  12.754  10.841  -0.121 -0.9240 -0.3446  0.2922
  396MOL0     H54609  12.836  10.902   0.033  1.9316 -1.6035 -0.7426
  396MOL0     H54610  13.074  10.904  -0.221  2.3444  1.5540 -2.9703
  396MOL0     H54611  13.297  10.939  -0.324  2.2385  1.2027  1.9671
  396MOL0     H54612  13.529  10.816  -0.459  1.5726 -0.0184  0.0556
  396MOL0     H54613  13.502  10.966  -0.357 -0.8639 -0.0001  1.1699
  396MOL0     H54614  13.723  10.954  -0.441  0.0709 -0.0263  0.7498
  396MOL0     H54615  13.731  10.941  -0.269  2.7755 -2.1529  1.1924
  396MOL0     H54616  13.746  10.716  -0.471  0.2170  0.5319 -0.3140
  396MOL0     H54617  13.754  10.681  -0.298  0.6634  0.2013  0.3938
  396MOL0     H54618  13.955  10.838  -0.283 -2.0293 -0.1949  0.2692
  396MOL0     H54619  13.954  10.846  -0.458  1.5486 -0.7354 -0.5714
  396MOL0     H54620  13.984  10.603  -0.476  0.9027 -2.1573 -0.1009
  396MOL0     H54621  14.125  10.676  -0.396  1.3538 -3.6665  0.2264
  396MOL0     H54622  14.024  10.442  -0.304  0.7240 -1.7048  4.0376
  396MOL0     H54623  13.883  10.539  -0.250 -0.5256  2.2440 -0.6572
  396MOL0     H54624  14.068  10.683  -0.130 -0.5895 -0.6845 -1.1581
  396MOL0     H54625  14.183  10.560  -0.194  1.6772 -1.1781  2.6407
  396MOL0     H54626  13.926  10.508  -0.026 -0.0370  2.2757  1.4983
  396MOL0     H54627  14.082  10.526   0.057  2.0587  3.3309 -1.3614
  396MOL0     H54628  13.441  10.600  -0.091 -1.6660 -2.2670  1.0865
  396MOL0     H54629  13.211  10.559  -0.012  0.6798 -0.0327 -0.5008
  396MOL0     H54630  12.839  10.399   0.123  0.4395 -0.3123  0.1796
  396MOL0     H54631  12.628  10.400   0.258  0.4862  1.1591  0.7065
  396MOL0     H54632  11.040   9.713   0.877  0.7270 -1.4305 -0.9624
  396MOL0     H54633  10.820   9.585   0.904 -1.5460  1.8826  1.2598
  396MOL0     H54634  10.447   9.484   0.881  1.5215 -4.1880  0.2289
  396MOL0     H54635  10.227   9.431   0.940  0.2737 -0.8898 -0.2785
  396MOL0     H54636  10.027   9.247   0.689 -0.4702  1.0608  0.0761
  396MOL0     H54637  10.032   9.213   0.858  0.2267 -1.5808 -0.7333
  396MOL0     H54638   9.798   9.288   0.886  0.6866 -0.3368 -0.0287
  396MOL0     H54639   9.815   9.155   0.772 -0.5384 -0.6085  1.4220
  396MOL0     H54640   9.797   9.459   0.732 -2.2731 -0.2349  2.6862
  396MOL0     H54641   9.791   9.349   0.588 -1.4670  0.9723  0.4395
  396MOL0     H54642   9.586   9.317   0.808 -0.2185 -2.1237 -0.1339
  396MOL0     H54643   9.584   9.266   0.639 -1.6771  0.9288 -0.4204
  396MOL0     H54644   9.394   9.646   0.639  0.7352  1.2875 -2.6949
  396MOL0     H54645  10.092   9.454   0.536 -0.8260  3.0382 -0.5546
  396MOL0     H54646  10.413   9.459   0.389  0.0762  1.5986 -3.0769
  396MOL0     H54647  10.243   9.493   0.349 -0.9808 -0.7946  1.2249
  396MOL0     H54648  10.356   9.625   0.399  1.3323  0.0869 -2.6529
  397MOL0     O54649   0.895   5.568   7.098  0.3057 -0.5710 -0.2641
  397MOL0     C54650   0.935   5.454   7.124 -0.7640  0.2817  0.6702
  397MOL0     O54651   1.064   5.424   7.167  0.4201 -0.1097 -0.0837
  397MOL0     C54652   1.165   5.514   7.211  0.5649 -0.2800  0.2061
  397MOL0     C54653   1.139   5.641   7.256  0.9959 -0.3568  0.9237
  397MOL0     C54654   1.243   5.716   7.311  0.6028  0.1680  0.0924
  397MOL0     C54655   1.376   5.676   7.305 -0.1204 -0.2005  0.2229
  397MOL0     O54656   1.482   5.745   7.369 -0.0333  0.3188  0.0109
  397MOL0     C54657   1.604   5.775   7.293 -0.4627  0.1688 -0.9600
  397MOL0     C54658   1.719   5.804   7.386  0.0460 -0.6657 -0.3722
  397MOL0     C54659   1.849   5.823   7.307 -0.6763 -0.8025 -0.1633
  397MOL0     C54660   1.972   5.869   7.406 -0.6489  0.0771 -0.0744
  397MOL0     C54661   2.113   5.828   7.351 -0.4790 -0.1033  0.1314
  397MOL0     C54662   2.227   5.867   7.442 -0.1535  1.2004 -0.3107
  397MOL0     C54663   2.358   5.817   7.393 -0.3746 -0.1810 -0.4859
  397MOL0     C54664   2.465   5.819   7.502  0.2240 -0.6468 -0.7225
  397MOL0     N54665   2.593   5.756   7.482  0.2054  0.0445  0.5154
  397MOL0     C54666   2.676   5.711   7.587  0.1629  0.3011 -0.2800
  397MOL0     C54667   2.794   5.675   7.524  0.3175 -0.5695  0.3171
  397MOL0     C54668   2.918   5.623   7.590 -0.6879  0.7597  0.9860
  397MOL0     C54669   2.994   5.736   7.658  0.7335 -0.5424 -0.5362
  397MOL0     C54670   2.972   5.730   7.809 -0.0627  0.1745  0.4554
  397MOL0     C54671   3.057   5.827   7.890 -0.4100 -0.6206 -0.9951
  397MOL0     O54672   3.200   5.799   7.884 -0.2382  0.8021 -0.0216
  397MOL0     C54673   3.291   5.837   7.979 -0.6791 -0.6304  0.8064
  397MOL0     C54674   3.424   5.787   7.975 -0.4335 -0.4994 -0.6317
  397MOL0     C54675   3.524   5.817   8.072 -0.0287 -0.2222 -0.1467
  397MOL0     C54676   3.660   5.754   8.047  0.3603  0.3193 -0.8185
  397MOL0     C54677   3.494   5.911   8.177 -1.2162  0.4955 -0.0441
  397MOL0     C54678   3.588   5.950   8.287 -0.1444 -0.2887 -0.4301
  397MOL0     O54679   3.565   6.068   8.340  0.3700 -0.2055  0.3112
  397MOL0     C54680   3.631   6.119   8.447 -0.1999  0.8384  0.4806
  397MOL0     C54681   3.763   6.089   8.488  0.7483  0.6517 -0.2191
  397MOL0     C54682   3.808   6.160   8.602  0.5171  0.4530  0.0697
  397MOL0     C54683   3.721   6.255   8.672 -0.4032  0.2279 -0.5489
  397MOL0     O54684   3.777   6.310   8.794  0.2001  0.4610 -0.1077
  397MOL0     C54685   3.681   6.342   8.899 -0.6131  0.3887 -0.2622
  397MOL0     C54686   3.763   6.421   9.007 -0.6846 -0.2542  0.3031
  397MOL0     C54687   3.800   6.572   8.965  0.2790  0.1427 -0.0878
  397MOL0     C54688   3.881   6.651   9.071  0.5137  0.2646  0.2769
  397MOL0     C54689   3.937   6.784   9.014  0.0654  0.0445 -0.2492
  397MOL0     C54690   4.029   6.849   9.130  0.9960  0.8330  0.1815
  397MOL0     C54691   4.152   6.772   9.163 -0.3018  0.8508  0.0939
  397MOL0     C54692   4.246   6.848   9.257  0.1711 -0.4831 -0.8357
  397MOL0    Cl54693   4.342   6.944   9.142 -0.1203 -0.5356  0.0840
  397MOL0     C54694   3.595   6.272   8.622 -0.3125 -0.4057  0.9417
  397MOL0     C54695   3.551   6.221   8.505  0.1414 -0.3729  0.7826
  397MOL0     O54696   3.666   5.870   8.334 -0.9035  0.2771 -0.4936
  397MOL0     C54697   3.365   5.974   8.170 -0.2231 -0.5976 -0.8161
  397MOL0     C54698   3.269   5.933   8.080 -0.4403  0.6399 -0.9987
  397MOL0     N54699   2.772   5.690   7.393  0.1459 -0.1986 -0.2840
  397MOL0     N54700   2.655   5.742   7.364 -0.5952  0.1263  0.1061
  397MOL0     C54701   1.401   5.554   7.245 -0.3097 -0.0885 -0.0743
  397MOL0     C54702   1.300   5.474   7.205 -0.4762  0.7552  0.1065
  397MOL0     C54703   0.841   5.341   7.095  0.4325  0.6016  0.0532
  397MOL0     C54704   0.706   5.374   7.078  0.6720  0.2227 -0.9258
  397MOL0     C54705   0.604   5.287   7.040  0.4378  0.8815  0.1100
  397MOL0     C54706   0.640   5.153   7.041  0.3946 -0.1578 -0.1305
  397MOL0     O54707   0.554   5.049   7.019  0.0943 -0.0458 -0.6745
  397MOL0     C54708   0.419   5.068   6.983 -0.0476  0.2014  0.9956
  397MOL0     C54709   0.390   4.934   6.907 -0.2330  0.6832 -0.4009
  397MOL0     C54710   0.242   4.892   6.867 -0.1139  0.6543 -0.7471
  397MOL0     C54711   0.190   4.974   6.743  0.1562 -0.2733 -0.5070
  397MOL0     C54712   0.045   4.968   6.715 -0.1636 -0.1255 -0.2098
  397MOL0     C54713  -0.074   4.969   6.687  0.1591  0.3226 -1.2252
  397MOL0     C54714   0.767   5.116   7.067 -0.3164 -0.4149  0.2608
  397MOL0     C54715   0.869   5.203   7.087 -0.2975 -0.2106  0.1021
  397MOL0     C54716   1.006   5.151   7.098  0.5707 -0.1636  0.3260
  397MOL0     H54717   1.037   5.678   7.252  0.3493 -2.1569 -2.1301
  397MOL0     H54718   1.219   5.813   7.352 -0.3668 -0.2708  0.5820
  397MOL0     H54719   1.589   5.861   7.227 -0.9339  0.7894 -0.0687
  397MOL0     H54720   1.625   5.684   7.236 -1.2023 -1.1107  0.7267
  397MOL0     H54721   1.700   5.901   7.432 -1.8880 -0.0487 -2.3114
  397MOL0     H54722   1.728   5.716   7.450 -0.7602 -1.4061 -1.2436
  397MOL0     H54723   1.879   5.735   7.250  1.8842  0.5312 -1.0172
  397MOL0     H54724   1.845   5.905   7.235 -0.3891  0.3404  1.0762
  397MOL0     H54725   1.972   5.979   7.405  1.4155  0.2240  2.6330
  397MOL0     H54726   1.964   5.827   7.506 -0.1618 -1.7758 -0.7752
  397MOL0     H54727   2.131   5.874   7.253  0.9679  3.4859  1.9121
  397MOL0     H54728   2.115   5.721   7.330  2.1995  0.2681 -2.2439
  397MOL0     H54729   2.237   5.974   7.462  1.8869  0.7742  1.3136
  397MOL0     H54730   2.212   5.816   7.538 -1.2249  2.4575  0.2152
  397MOL0     H54731   2.396   5.863   7.301  0.5147 -0.3533 -0.2116
  397MOL0     H54732   2.341   5.712   7.367  0.2987 -0.0971 -1.2827
  397MOL0     H54733   2.488   5.921   7.535 -0.9519 -0.4345 -0.5362
  397MOL0     H54734   2.425   5.773   7.593 -0.4289  1.6142  0.2035
  397MOL0     H54735   2.644   5.715   7.691  1.0516  0.9726 -0.0268
  397MOL0     H54736   2.989   5.591   7.513 -0.2976 -2.2894  2.4940
  397MOL0     H54737   2.896   5.535   7.650 -2.0123  0.0996 -0.4285
  397MOL0     H54738   3.101   5.730   7.641  1.0001 -1.5758  1.2619
  397MOL0     H54739   2.965   5.835   7.622  0.0374 -0.4042  0.3638
  397MOL0     H54740   2.866   5.744   7.831 -0.3385  0.4309 -0.9688
  397MOL0     H54741   2.993   5.627   7.838 -4.8659 -1.1571  0.0139
  397MOL0     H54742   3.039   5.929   7.856 -1.5124  0.1826  1.7560
  397MOL0     H54743   3.026   5.826   7.995  1.8567 -0.6880 -0.2514
  397MOL0     H54744   3.446   5.706   7.906  1.5458 -1.9522  1.5507
  397MOL0     H54745   3.697   5.805   7.957 -1.0142 -0.0788 -1.6313
  397MOL0     H54746   3.660   5.647   8.027 -3.2393  0.0709 -0.1512
  397MOL0     H54747   3.729   5.762   8.132  0.4519 -1.3264 -0.7040
  397MOL0     H54748   3.832   6.028   8.430  0.3590  0.0322 -0.0313
  397MOL0     H54749   3.909   6.154   8.641  0.7992  2.5337 -0.2463
  397MOL0     H54750   3.601   6.405   8.860 -0.1744  1.1004 -0.0195
  397MOL0     H54751   3.638   6.255   8.949  0.3339 -2.1238 -3.4391
  397MOL0     H54752   3.711   6.434   9.102  1.6154 -0.7602  1.7100
  397MOL0     H54753   3.853   6.360   9.024 -1.8335 -2.9932 -2.4161
  397MOL0     H54754   3.706   6.621   8.940 -0.1431 -1.3732 -1.6574
  397MOL0     H54755   3.865   6.559   8.878  0.3106 -2.3569  0.2286
  397MOL0     H54756   3.971   6.593   9.092  0.7217 -0.6076 -2.4846
  397MOL0     H54757   3.827   6.666   9.165 -3.0474 -4.9548 -0.4374
  397MOL0     H54758   3.992   6.769   8.921  0.3218  0.9470 -0.2488
  397MOL0     H54759   3.849   6.847   9.000  1.0897  0.9031 -3.6691
  397MOL0     H54760   3.969   6.877   9.217  3.2647  1.8923  1.5275
  397MOL0     H54761   4.070   6.943   9.090  2.9240 -0.4421 -1.0020
  397MOL0     H54762   4.198   6.739   9.070  1.3137 -1.6179  1.6595
  397MOL0     H54763   4.138   6.679   9.218 -0.0934  0.8482  0.1424
  397MOL0     H54764   4.292   6.761   9.305 -2.1082 -0.7498  1.0461
  397MOL0     H54765   4.203   6.913   9.334  0.7761 -0.8207 -0.1994
  397MOL0     H54766   3.537   6.344   8.679 -1.7733 -1.4143  0.7870
  397MOL0     H54767   3.468   6.259   8.446  1.5727 -2.3476 -2.8023
  397MOL0     H54768   3.342   6.050   8.245  0.5763 -1.6672  0.5522
  397MOL0     H54769   3.171   5.980   8.087 -1.6848 -1.6427 -1.9408
  397MOL0     H54770   1.503   5.515   7.244 -1.0403 -2.1615 -2.0234
  397MOL0     H54771   1.316   5.374   7.166 -0.9861  0.1572  1.3927
  397MOL0     H54772   0.675   5.478   7.080 -1.8220 -0.4748 -0.0454
  397MOL0     H54773   0.503   5.322   7.019  0.6464  1.7445  0.5328
  397MOL0     H54774   0.353   5.090   7.067  0.3671  1.2565  1.0603
  397MOL0     H54775   0.407   5.143   6.904  1.5941 -2.0944 -1.6361
  397MOL0     H54776   0.429   4.852   6.967 -1.7001  0.0315 -0.2844
  397MOL0     H54777   0.447   4.948   6.814 -0.7584  1.6788 -0.5969
  397MOL0     H54778   0.251   4.786   6.846  2.1161  0.4559  0.8543
  397MOL0     H54779   0.172   4.904   6.951  0.0394  2.4082 -0.8347
  397MOL0     H54780   0.234   4.934   6.651 -1.6360  0.0468 -1.5610
  397MOL0     H54781   0.218   5.079   6.750 -0.9898 -0.0062  0.5134
  397MOL0     H54782  -0.179   4.972   6.667 -0.0640 -3.2448 -1.0929
  397MOL0     H54783   0.788   5.010   7.078  0.7323  0.0645  4.5533
  397MOL0     H54784   1.073   5.206   7.032 -0.6116  0.3547 -0.4895
  397MOL0     H54785   1.048   5.156   7.199  2.5051  1.4140 -0.5053
  397MOL0     H54786   0.996   5.052   7.053 -0.6191  0.5089 -0.9965
  398MOL0     O54787   3.193   2.975   0.743  0.2930 -0.2507  0.0718
  398MOL0     C54788   3.126   2.996   0.645  0.5112 -0.5132  1.2091
  398MOL0     O54789   3.036   3.096   0.635  0.0375  0.2126 -0.8395
  398MOL0     C54790   2.954   3.099   0.746 -0.4720  0.2701 -0.7067
  398MOL0     C54791   2.917   3.223   0.798 -0.3767 -0.3632 -0.2642
  398MOL0     C54792   2.835   3.241   0.912  0.1968  0.0146 -0.4518
  398MOL0     C54793   2.789   3.130   0.984  0.2783  0.2576 -0.5077
  398MOL0     O54794   2.716   3.157   1.103 -0.1681  0.5897  1.1959
  398MOL0     C54795   2.593   3.211   1.085  0.9785 -0.0998  0.2667
  398MOL0     C54796   2.519   3.215   1.224  0.0171 -0.2105  0.2501
  398MOL0     C54797   2.458   3.079   1.272  0.4707  0.4559  0.1341
  398MOL0     C54798   2.383   2.998   1.168 -0.0698 -0.5745 -0.0253
  398MOL0     C54799   2.345   2.857   1.211  0.3583  0.8968 -0.7271
  398MOL0     C54800   2.226   2.849   1.303  0.1820 -0.0673  0.5832
  398MOL0     C54801   2.161   2.705   1.314  0.4905 -0.4666  0.4859
  398MOL0     C54802   2.099   2.650   1.188  0.2188 -0.9059 -0.6738
  398MOL0     N54803   1.998   2.731   1.130  0.3875  0.3094  0.3143
  398MOL0     C54804   1.999   2.795   1.013  0.3347 -0.6482  0.4291
  398MOL0     C54805   1.874   2.852   0.995  0.1684  0.2456  0.0681
  398MOL0     C54806   1.853   2.949   0.883 -0.7374  0.2809 -0.5600
  398MOL0     C54807   1.862   2.864   0.755 -0.4967  0.3991  0.0847
  398MOL0     C54808   1.782   2.917   0.636  0.8043  0.3648  0.1808
  398MOL0     C54809   1.708   2.805   0.565  0.2921 -0.1857  0.8374
  398MOL0     O54810   1.654   2.870   0.452 -0.6013  0.4041  0.2796
  398MOL0     C54811   1.539   2.811   0.403 -0.3745  0.8380  0.2635
  398MOL0     C54812   1.531   2.672   0.398  0.2990  0.5206  0.1315
  398MOL0     C54813   1.405   2.621   0.363 -0.0089 -0.0471  0.0779
  398MOL0     C54814   1.406   2.467   0.338  0.1662  0.0660  0.1337
  398MOL0     C54815   1.294   2.700   0.339  0.4072 -0.5465  0.0465
  398MOL0     C54816   1.154   2.651   0.329  0.2776  0.1564 -0.1258
  398MOL0     O54817   1.067   2.724   0.397 -0.0465 -0.1374 -0.3814
  398MOL0     C54818   0.932   2.690   0.391  0.0694  0.0041  0.5403
  398MOL0     C54819   0.860   2.686   0.513 -0.4697 -0.8504  0.7430
  398MOL0     C54820   0.730   2.644   0.512 -0.0481  1.0312 -0.4935
  398MOL0     C54821   0.662   2.606   0.399  0.0274 -0.0225 -0.0468
  398MOL0     O54822   0.521   2.591   0.415 -0.8864 -0.0670  0.0328
  398MOL0     C54823   0.434   2.602   0.306 -0.9244 -0.5762  0.3445
  398MOL0     C54824   0.290   2.647   0.337 -0.1630 -0.3768 -0.2787
  398MOL0     C54825   0.285   2.776   0.421  0.8095 -1.3506  0.8898
  398MOL0     C54826   0.157   2.854   0.405 -0.6847 -0.9854  0.6945
  398MOL0     C54827   0.034   2.783   0.464  0.0957 -0.2341  0.0905
  398MOL0     C54828  -0.085   2.880   0.495 -0.2550  0.2905  0.9950
  398MOL0     C54829  -0.128   2.976   0.386 -0.0277  0.0796 -0.5204
  398MOL0     C54830  -0.273   3.010   0.385  0.4569  0.3689  0.4822
  398MOL0    Cl54831  -0.372   2.869   0.343 -0.0792  0.3683 -0.1935
  398MOL0     C54832   0.724   2.634   0.271 -0.4749  0.9328 -0.6064
  398MOL0     C54833   0.859   2.675   0.268  0.5830  0.0540 -1.2856
  398MOL0     O54834   1.130   2.552   0.259 -0.4311 -0.5951 -0.4192
  398MOL0     C54835   1.317   2.843   0.340  0.2045  0.0259 -0.2069
  398MOL0     C54836   1.439   2.898   0.378 -0.7640 -0.3291  0.3655
  398MOL0     N54837   1.793   2.809   1.096 -0.8294 -0.0548 -0.2063
  398MOL0     N54838   1.872   2.747   1.181 -0.3274  0.3550  0.3875
  398MOL0     C54839   2.820   3.003   0.936 -0.1919 -0.2818  0.0508
  398MOL0     C54840   2.897   2.983   0.819 -0.4582 -0.2168  0.7528
  398MOL0     C54841   3.130   2.913   0.532 -0.3909  0.9901  0.4018
  398MOL0     C54842   3.036   2.942   0.426  0.4369 -0.1356 -0.0222
  398MOL0     C54843   3.017   2.867   0.320 -0.7720 -0.2661  0.8717
  398MOL0     C54844   3.102   2.765   0.289  0.0184  0.5553  0.1233
  398MOL0     O54845   3.083   2.694   0.172 -0.1782  0.0987 -0.1968
  398MOL0     C54846   2.961   2.706   0.098 -0.7459 -0.4540 -0.5736
  398MOL0     C54847   2.958   2.593  -0.002  0.0471 -0.3296  0.0542
  398MOL0     C54848   3.085   2.583  -0.097 -0.7513 -0.0447 -0.0105
  398MOL0     C54849   3.086   2.645  -0.238  0.5409  0.1623 -0.2922
  398MOL0     C54850   3.186   2.578  -0.310 -0.4250 -0.0413  0.5728
  398MOL0     C54851   3.279   2.524  -0.362  0.0349  0.1839 -0.5087
  398MOL0     C54852   3.216   2.742   0.370 -0.3914  0.2896 -0.7220
  398MOL0     C54853   3.229   2.817   0.493  0.6917 -0.2645  0.6933
  398MOL0     C54854   3.350   2.770   0.578  0.7080  0.4364  0.1933
  398MOL0     H54855   2.955   3.312   0.748 -0.3875 -0.7637 -0.9993
  398MOL0     H54856   2.813   3.340   0.948 -1.5243 -0.7262  0.6629
  398MOL0     H54857   2.537   3.173   0.998 -0.9017  1.6038  0.6500
  398MOL0     H54858   2.608   3.317   1.064 -2.2068  0.7137  1.4719
  398MOL0     H54859   2.591   3.252   1.297 -1.9205  2.2080  1.0625
  398MOL0     H54860   2.448   3.297   1.236  1.7034  1.4774 -0.7760
  398MOL0     H54861   2.538   3.027   1.324  0.6672  1.4497  0.8740
  398MOL0     H54862   2.382   3.092   1.350 -2.6790 -1.6129 -2.3297
  398MOL0     H54863   2.300   3.061   1.133  2.0766  1.3746 -2.0057
  398MOL0     H54864   2.450   2.982   1.083  0.9632  1.0136  0.4394
  398MOL0     H54865   2.430   2.807   1.259  0.1263  1.7519  0.6256
  398MOL0     H54866   2.309   2.808   1.120 -0.9807 -2.2520  1.3508
  398MOL0     H54867   2.268   2.886   1.397 -1.6980  0.5600  1.2140
  398MOL0     H54868   2.148   2.924   1.287  1.3198  0.8934 -0.6049
  398MOL0     H54869   2.086   2.713   1.394 -1.6796  1.8780 -1.5920
  398MOL0     H54870   2.241   2.637   1.346  0.5326  0.5129  2.6896
  398MOL0     H54871   2.187   2.628   1.127  1.7319 -0.3622  1.1954
  398MOL0     H54872   2.059   2.551   1.210 -1.1213 -0.0871  0.8751
  398MOL0     H54873   2.083   2.817   0.947 -0.6756  0.0440 -0.6671
  398MOL0     H54874   1.932   3.024   0.875 -0.3098  0.1598  1.9587
  398MOL0     H54875   1.757   3.000   0.897  0.2153  1.3861  2.6956
  398MOL0     H54876   1.968   2.847   0.731 -0.9608 -3.2069  0.0198
  398MOL0     H54877   1.817   2.769   0.786  1.1210 -1.0280 -1.6588
  398MOL0     H54878   1.709   2.990   0.672  0.3284 -0.9992  2.1585
  398MOL0     H54879   1.851   2.965   0.565  1.7274 -1.3079 -0.1165
  398MOL0     H54880   1.766   2.723   0.524 -0.6405  0.0907 -1.1557
  398MOL0     H54881   1.634   2.758   0.630  0.8193  0.4542  1.9232
  398MOL0     H54882   1.607   2.594   0.405 -3.7262 -3.6996  1.1952
  398MOL0     H54883   1.324   2.419   0.392  0.1151 -0.1934 -0.1773
  398MOL0     H54884   1.505   2.429   0.363  1.0833 -0.6176 -3.9407
  398MOL0     H54885   1.377   2.454   0.234 -1.8102  2.2396  0.3253
  398MOL0     H54886   0.908   2.702   0.609 -1.3656 -1.0437  1.2344
  398MOL0     H54887   0.684   2.638   0.611  0.6483 -2.5625 -0.2632
  398MOL0     H54888   0.478   2.680   0.243  0.4369 -0.8059  0.9701
  398MOL0     H54889   0.424   2.507   0.254  0.9562 -0.3335 -0.5516
  398MOL0     H54890   0.234   2.653   0.244 -1.4072  0.3406  0.4964
  398MOL0     H54891   0.245   2.570   0.401 -2.5148  0.6081 -0.6513
  398MOL0     H54892   0.374   2.833   0.392 -0.5940  0.3332 -0.3264
  398MOL0     H54893   0.294   2.756   0.529 -0.4516  0.6564  1.4221
  398MOL0     H54894   0.139   2.866   0.298 -0.7048 -4.0913  0.2354
  398MOL0     H54895   0.177   2.955   0.442  5.5592 -0.4976 -2.6590
  398MOL0     H54896  -0.001   2.707   0.393  0.4597  0.1863 -0.5500
  398MOL0     H54897   0.059   2.724   0.553 -0.5092  0.1863  0.5516
  398MOL0     H54898  -0.057   2.928   0.590  2.8088  0.2130  0.2516
  398MOL0     H54899  -0.169   2.812   0.509  0.5263 -0.5024  2.0486
  398MOL0     H54900  -0.094   2.951   0.285 -0.5606  1.0917 -0.9636
  398MOL0     H54901  -0.077   3.067   0.416  0.7976  0.0523 -1.7453
  398MOL0     H54902  -0.290   3.079   0.301 -1.9471 -0.8289 -0.0762
  398MOL0     H54903  -0.311   3.045   0.481 -0.7506  1.2218 -0.2699
  398MOL0     H54904   0.671   2.624   0.177 -1.6468  0.3160  0.0959
  398MOL0     H54905   0.915   2.697   0.177  0.5383 -0.8103 -1.5289
  398MOL0     H54906   1.229   2.904   0.323  0.6557  0.0687 -2.7685
  398MOL0     H54907   1.448   3.006   0.388  2.5143 -0.5333  0.3805
  398MOL0     H54908   2.795   2.918   1.000  0.7801  0.7543  1.8923
  398MOL0     H54909   2.898   2.878   0.789 -0.3320  0.2476 -1.0246
  398MOL0     H54910   2.961   3.019   0.442  0.6318  0.1357 -0.4086
  398MOL0     H54911   2.933   2.887   0.253 -0.3021 -1.2563 -0.0394
  398MOL0     H54912   2.874   2.710   0.163 -1.4454 -0.3117 -1.4978
  398MOL0     H54913   2.964   2.793   0.031  1.1540 -1.4719 -1.8962
  398MOL0     H54914   2.872   2.605  -0.068 -0.2114 -0.2662  0.4037
  398MOL0     H54915   2.945   2.494   0.043 -1.2351 -0.9703 -1.6090
  398MOL0     H54916   3.179   2.621  -0.054 -0.9766  3.5617 -2.2945
  398MOL0     H54917   3.099   2.476  -0.115 -3.3977 -0.2344 -1.3447
  398MOL0     H54918   3.113   2.750  -0.223  5.8880 -1.1493  1.5421
  398MOL0     H54919   2.989   2.635  -0.286 -0.6226 -0.4337  2.0130
  398MOL0     H54920   3.369   2.469  -0.380 -0.1361  0.2563 -1.6610
  398MOL0     H54921   3.298   2.675   0.347 -0.5987 -0.8090  1.4657
  398MOL0     H54922   3.347   2.666   0.614 -0.5575  0.2683 -0.3359
  398MOL0     H54923   3.440   2.768   0.516  1.8066 -0.9472  1.7220
  398MOL0     H54924   3.377   2.837   0.659  1.0479 -1.4567  1.7334
  399MOL0     O54925   0.098   2.900   7.294  0.4721 -0.7804  0.1733
  399MOL0     C54926   0.022   2.827   7.353 -0.2195 -0.1888  0.2421
  399MOL0     O54927   0.039   2.789   7.484 -0.6612 -0.6065  0.0415
  399MOL0     C54928   0.129   2.864   7.560  0.4166  0.2292  0.0158
  399MOL0     C54929   0.079   2.957   7.647  0.3011 -0.2728 -0.6722
  399MOL0     C54930   0.168   3.021   7.738  0.2006 -1.0483 -0.2852
  399MOL0     C54931   0.306   2.995   7.736  0.1874 -0.4370 -0.2232
  399MOL0     O54932   0.396   3.068   7.809 -0.9674  0.2750  0.4564
  399MOL0     C54933   0.356   3.088   7.946  0.7940 -0.4041  0.0635
  399MOL0     C54934   0.472   3.087   8.047 -0.7713 -0.2911 -0.9990
  399MOL0     C54935   0.544   3.216   8.045  0.1227 -0.6577 -0.4816
  399MOL0     C54936   0.686   3.211   8.110 -0.0285 -0.4918  0.4433
  399MOL0     C54937   0.765   3.337   8.081  0.0878 -0.5597  0.0305
  399MOL0     C54938   0.887   3.362   8.169  0.7909  0.5315 -0.7412
  399MOL0     C54939   0.956   3.496   8.147  1.1814  0.0810  0.1929
  399MOL0     C54940   1.059   3.521   8.248  0.8809  1.0242 -0.1448
  399MOL0     N54941   1.139   3.629   8.210  0.3482  0.0280 -0.8690
  399MOL0     C54942   1.260   3.617   8.151  1.2148  0.7077  0.1167
  399MOL0     C54943   1.313   3.738   8.140  0.0559  1.1064 -0.1189
  399MOL0     C54944   1.449   3.766   8.078  0.2288  0.1768  0.3092
  399MOL0     C54945   1.567   3.760   8.180 -0.1041  0.5066  0.1940
  399MOL0     C54946   1.572   3.643   8.262  0.2297 -0.2881 -0.1189
  399MOL0     C54947   1.706   3.596   8.312  0.2949 -0.4045  0.2719
  399MOL0     O54948   1.772   3.709   8.376  0.5073 -0.1273 -0.7420
  399MOL0     C54949   1.910   3.710   8.374 -0.2200 -0.4110  0.1834
  399MOL0     C54950   1.990   3.594   8.380 -0.2971  0.4034  0.7541
  399MOL0     C54951   2.127   3.597   8.395 -0.4558  0.3071 -0.7016
  399MOL0     C54952   2.200   3.461   8.409 -0.2500 -0.0444 -0.5420
  399MOL0     C54953   2.186   3.720   8.399  0.1670 -0.5286 -0.0091
  399MOL0     C54954   2.332   3.735   8.395  0.3020 -0.2350  0.5637
  399MOL0     O54955   2.383   3.841   8.471  0.1166  0.4455 -0.3821
  399MOL0     C54956   2.515   3.880   8.482 -0.8040  0.4021  0.2334
  399MOL0     C54957   2.571   3.909   8.606  0.6286  0.1930 -0.1798
  399MOL0     C54958   2.702   3.956   8.607 -0.4311  0.3114  0.4996
  399MOL0     C54959   2.777   3.995   8.496  0.6595  0.7830  0.2690
  399MOL0     O54960   2.906   4.042   8.526  0.6122 -0.6406 -0.3551
  399MOL0     C54961   2.983   4.097   8.427  0.4194  0.5454 -0.1596
  399MOL0     C54962   2.928   4.233   8.375 -0.4085 -0.2468 -0.9153
  399MOL0     C54963   2.926   4.336   8.494  0.2789 -1.6207 -0.3195
  399MOL0     C54964   3.064   4.389   8.538  0.0315  0.4362  0.0024
  399MOL0     C54965   3.054   4.534   8.582 -0.8454  0.1130  0.2137
  399MOL0     C54966   3.196   4.585   8.611 -0.0513  0.2853  0.3442
  399MOL0     C54967   3.189   4.705   8.710 -0.2725 -0.4720 -0.2029
  399MOL0     C54968   3.188   4.645   8.850  0.9060 -0.2774 -0.1603
  399MOL0    Cl54969   3.339   4.557   8.903  0.4844 -0.1427 -0.0694
  399MOL0     C54970   2.720   3.963   8.372 -0.3718  0.2470 -0.3863
  399MOL0     C54971   2.592   3.906   8.360 -0.6185 -0.5194 -0.2405
  399MOL0     O54972   2.403   3.671   8.319 -0.4114 -0.0142  0.2746
  399MOL0     C54973   2.111   3.831   8.397  0.6933  0.0605  0.6699
  399MOL0     C54974   1.971   3.834   8.388  0.3494 -0.2110 -0.8842
  399MOL0     N54975   1.221   3.824   8.207 -0.5201  0.2478  0.5204
  399MOL0     N54976   1.116   3.757   8.250 -0.0732 -0.6048  0.4034
  399MOL0     C54977   0.345   2.886   7.656 -0.8471 -0.2379  0.3165
  399MOL0     C54978   0.263   2.819   7.567 -0.3005  0.8334 -0.0781
  399MOL0     C54979  -0.080   2.746   7.281 -1.1870  0.5863  0.3239
  399MOL0     C54980  -0.188   2.815   7.229 -0.3557  1.0951  0.2572
  399MOL0     C54981  -0.297   2.750   7.173 -0.3130 -0.1289  0.5064
  399MOL0     C54982  -0.293   2.610   7.150 -0.3142 -0.5724 -1.0187
  399MOL0     O54983  -0.388   2.546   7.082  0.2895 -0.0788  0.9220
  399MOL0     C54984  -0.507   2.618   7.038  1.1059  0.8993 -0.4971
  399MOL0     C54985  -0.597   2.510   6.983 -0.0542  0.9852  0.1433
  399MOL0     C54986  -0.716   2.578   6.908 -0.9617 -0.1502  0.5839
  399MOL0     C54987  -0.676   2.636   6.771  0.1950  0.4051  0.6182
  399MOL0     C54988  -0.795   2.687   6.699  0.2160 -0.6027 -0.5737
  399MOL0     C54989  -0.882   2.736   6.629  0.0435  0.6474  0.8761
  399MOL0     C54990  -0.187   2.535   7.205  0.2267 -0.2275 -0.0880
  399MOL0     C54991  -0.077   2.600   7.269 -0.2826  0.2935 -0.3377
  399MOL0     C54992   0.042   2.525   7.325 -0.0256 -0.5473  0.3421
  399MOL0     H54993  -0.027   2.978   7.638 -0.1108 -0.4020  2.5015
  399MOL0     H54994   0.134   3.099   7.805 -0.1164 -2.7224  1.6102
  399MOL0     H54995   0.276   3.023   7.980  2.3504 -2.5502 -0.1692
  399MOL0     H54996   0.308   3.186   7.955  3.6498  0.9773  1.7265
  399MOL0     H54997   0.428   3.075   8.147  0.1140 -0.5661 -0.6382
  399MOL0     H54998   0.540   3.002   8.032  2.9410  1.6940  2.5903
  399MOL0     H54999   0.560   3.256   7.944 -0.8691  0.7227 -0.1181
  399MOL0     H55000   0.488   3.288   8.105  1.9006  0.7374 -0.3876
  399MOL0     H55001   0.685   3.181   8.215 -0.5898  0.2279  0.6398
  399MOL0     H55002   0.738   3.134   8.051  0.5508  0.6294 -0.5506
  399MOL0     H55003   0.700   3.424   8.095 -0.3523 -0.3304 -2.8224
  399MOL0     H55004   0.790   3.327   7.975 -1.4722 -1.9252 -0.2359
  399MOL0     H55005   0.867   3.347   8.275  0.7563  1.8857 -0.5365
  399MOL0     H55006   0.960   3.286   8.140  1.3107  1.3375 -1.6196
  399MOL0     H55007   0.882   3.577   8.148  0.3178 -0.6856  1.8784
  399MOL0     H55008   1.001   3.491   8.047  0.7886 -1.0506  0.0594
  399MOL0     H55009   1.008   3.555   8.338  0.4581  0.4206 -0.1526
  399MOL0     H55010   1.118   3.434   8.280 -0.6518  1.1345  3.4393
  399MOL0     H55011   1.300   3.523   8.114 -0.4425 -1.0663  2.5207
  399MOL0     H55012   1.438   3.862   8.025 -4.1309 -0.7250 -0.8031
  399MOL0     H55013   1.465   3.689   8.002  1.2765 -0.5333  1.2257
  399MOL0     H55014   1.660   3.757   8.122  1.3985 -0.4227  2.4887
  399MOL0     H55015   1.564   3.847   8.245  1.4130 -1.8389  3.6990
  399MOL0     H55016   1.506   3.651   8.348  0.5902 -0.4768  0.1788
  399MOL0     H55017   1.536   3.564   8.195  1.5968 -2.0522  1.1232
  399MOL0     H55018   1.698   3.513   8.383 -0.2656 -0.5071  0.0871
  399MOL0     H55019   1.764   3.574   8.221  1.4502  4.2179 -0.3698
  399MOL0     H55020   1.936   3.501   8.368 -2.0491  1.6654 -2.2286
  399MOL0     H55021   2.225   3.446   8.514  1.3266  2.2808 -0.5237
  399MOL0     H55022   2.290   3.454   8.348 -0.8367  1.7630 -1.7004
  399MOL0     H55023   2.135   3.380   8.374 -1.2467  0.1992  0.6916
  399MOL0     H55024   2.528   3.888   8.703 -1.0908 -1.2613 -1.1851
  399MOL0     H55025   2.750   3.967   8.704  2.1889  1.7304 -0.8437
  399MOL0     H55026   3.087   4.110   8.460  0.6910 -1.0380 -0.3208
  399MOL0     H55027   2.983   4.029   8.341 -1.4593 -0.0076  0.2561
  399MOL0     H55028   2.995   4.264   8.293  0.9506 -2.6808 -0.8060
  399MOL0     H55029   2.826   4.227   8.338  0.1751 -0.3130 -2.6201
  399MOL0     H55030   2.878   4.291   8.582  0.6981 -1.3614  0.0433
  399MOL0     H55031   2.861   4.417   8.461 -0.9438 -2.0795  0.8849
  399MOL0     H55032   3.131   4.374   8.453  2.3959  1.6844  1.5443
  399MOL0     H55033   3.107   4.336   8.623  0.9011  2.3492  0.8084
  399MOL0     H55034   3.005   4.604   8.514 -2.3732  2.1289  3.1823
  399MOL0     H55035   2.992   4.536   8.673  1.3758 -0.5647  1.8404
  399MOL0     H55036   3.232   4.620   8.514  1.0383 -2.8295 -0.4985
  399MOL0     H55037   3.265   4.510   8.651  1.0383  0.1833 -1.5898
  399MOL0     H55038   3.104   4.774   8.701 -0.6014 -0.5733  1.7381
  399MOL0     H55039   3.284   4.758   8.699 -0.6843  0.3623  0.1509
  399MOL0     H55040   3.097   4.585   8.855  0.9003 -0.4067 -1.4668
  399MOL0     H55041   3.181   4.726   8.923  1.6572 -1.5862  1.4389
  399MOL0     H55042   2.768   3.993   8.280  3.1072  2.6938  2.0043
  399MOL0     H55043   2.546   3.873   8.268 -1.5425 -1.4332  0.5204
  399MOL0     H55044   2.166   3.925   8.403 -0.8167  1.1486 -1.2013
  399MOL0     H55045   1.920   3.929   8.397  1.5742  0.5235 -1.4663
  399MOL0     H55046   0.448   2.853   7.649 -0.5152  0.6079  0.9515
  399MOL0     H55047   0.303   2.739   7.507  1.5199  2.0868 -0.6226
  399MOL0     H55048  -0.194   2.923   7.241 -2.1159  0.8539  1.8894
  399MOL0     H55049  -0.378   2.812   7.136  0.1067 -0.0783 -0.3474
  399MOL0     H55050  -0.550   2.673   7.122 -0.9705  0.3951 -1.1548
  399MOL0     H55051  -0.482   2.699   6.969  0.1389  1.9071  0.2912
  399MOL0     H55052  -0.625   2.453   7.072  2.1897  0.4889  0.5882
  399MOL0     H55053  -0.546   2.436   6.920  1.5095  1.4613  0.7859
  399MOL0     H55054  -0.789   2.499   6.886 -3.4098  1.7981  1.2143
  399MOL0     H55055  -0.758   2.646   6.983 -1.0746 -1.2312  1.5284
  399MOL0     H55056  -0.629   2.557   6.712  1.7254 -0.3144  2.7303
  399MOL0     H55057  -0.602   2.715   6.785  0.4752  0.0265  1.2815
  399MOL0     H55058  -0.955   2.772   6.559  0.6423  3.8796  1.7517
  399MOL0     H55059  -0.191   2.427   7.196 -3.3018 -0.1835 -0.5470
  399MOL0     H55060   0.048   2.419   7.301  1.8967 -0.4173  0.1469
  399MOL0     H55061   0.127   2.588   7.296 -0.1606 -0.1412  0.8014
  399MOL0     H55062   0.025   2.533   7.433  0.3261  1.6446  0.2802
  400MOL0     O55063   3.685   4.197   8.299 -0.5407  0.0657 -0.2106
  400MOL0     C55064   3.641   4.089   8.341 -0.6780  0.0784  0.8341
  400MOL0     O55065   3.531   4.037   8.295  0.3971  0.0624  0.0914
  400MOL0     C55066   3.448   4.100   8.204  0.7790 -0.3401 -0.4363
  400MOL0     C55067   3.312   4.065   8.202 -0.0123 -0.3669 -0.4893
  400MOL0     C55068   3.215   4.117   8.115  0.4980 -0.2950  0.1840
  400MOL0     C55069   3.253   4.205   8.014  0.0147  0.4855  0.6606
  400MOL0     O55070   3.142   4.247   7.939  0.0897 -0.4352  0.4600
  400MOL0     C55071   3.154   4.345   7.834  0.0732  0.3445 -0.0216
  400MOL0     C55072   3.018   4.366   7.770 -0.3137  0.6873 -0.7841
  400MOL0     C55073   3.020   4.456   7.639 -0.0525 -0.1443  0.1475
  400MOL0     C55074   3.020   4.609   7.677  0.4584  0.4402  0.7029
  400MOL0     C55075   3.036   4.696   7.551 -0.0600 -0.5100 -0.7910
  400MOL0     C55076   3.005   4.845   7.581 -0.1565  1.3796 -0.3584
  400MOL0     C55077   2.987   4.934   7.457  0.1457  0.0787 -0.1514
  400MOL0     C55078   2.964   5.089   7.491  0.5733  0.4227  0.5162
  400MOL0     N55079   3.083   5.161   7.541 -0.1983 -0.3416  0.0845
  400MOL0     C55080   3.088   5.239   7.650  0.1848  0.4964  0.3844
  400MOL0     C55081   3.216   5.288   7.654  0.0970  0.7136 -0.1244
  400MOL0     C55082   3.270   5.368   7.773  0.0284  0.7730  0.0663
  400MOL0     C55083   3.391   5.451   7.730  0.2423  0.3070 -0.5421
  400MOL0     C55084   3.343   5.575   7.652  0.1489  0.4044 -0.9435
  400MOL0     C55085   3.458   5.660   7.599  0.0338 -0.3796 -0.0662
  400MOL0     O55086   3.575   5.671   7.684  0.8417  0.1760 -0.3522
  400MOL0     C55087   3.693   5.703   7.621  0.2651  0.2600 -0.6084
  400MOL0     C55088   3.814   5.638   7.667 -0.2302 -0.1800 -0.2430
  400MOL0     C55089   3.937   5.646   7.595  0.6047  0.3706  0.4205
  400MOL0     C55090   4.061   5.565   7.649 -0.2467 -0.4814  0.3587
  400MOL0     C55091   3.936   5.720   7.472  0.3951 -0.5661  0.6411
  400MOL0     C55092   4.052   5.736   7.379 -0.0558 -0.5038 -0.1357
  400MOL0     O55093   4.151   5.643   7.375  0.2388  0.8680  0.3301
  400MOL0     C55094   4.269   5.674   7.333  0.0543  0.1251  0.5822
  400MOL0     C55095   4.338   5.787   7.381  0.4208  0.2901 -0.8020
  400MOL0     C55096   4.477   5.805   7.351 -1.2212 -0.4674  0.4049
  400MOL0     C55097   4.543   5.718   7.260  0.1898 -0.4246 -0.2758
  400MOL0     O55098   4.669   5.726   7.218 -0.4483  0.2344 -0.0436
  400MOL0     C55099   4.746   5.846   7.256  0.2518  0.5274 -0.3994
  400MOL0     C55100   4.879   5.832   7.195  0.0984  0.1986  0.9800
  400MOL0     C55101   4.970   5.722   7.257  0.0348  0.2949 -0.6326
  400MOL0     C55102   5.106   5.726   7.195  0.5668 -0.3201  0.2706
  400MOL0     C55103   5.182   5.592   7.220 -0.6087 -0.5014 -0.1892
  400MOL0     C55104   5.319   5.613   7.159 -0.2954  0.4762  0.1251
  400MOL0     C55105   5.400   5.486   7.178  0.0751  0.3649  0.1441
  400MOL0     C55106   5.546   5.509   7.220  0.7431 -0.1146  0.7157
  400MOL0    Cl55107   5.646   5.567   7.081  0.1095 -0.3295  0.2632
  400MOL0     C55108   4.468   5.606   7.214  0.1510  0.0808  0.4205
  400MOL0     C55109   4.338   5.593   7.243  0.0614 -0.5390  0.3105
  400MOL0     O55110   4.049   5.839   7.312 -0.1517 -0.1500 -0.2940
  400MOL0     C55111   3.820   5.787   7.437  0.0327 -0.5007  0.0025
  400MOL0     C55112   3.704   5.782   7.506 -0.2901  0.6429  0.2053
  400MOL0     N55113   3.282   5.248   7.535  0.1819  0.4706 -0.7786
  400MOL0     N55114   3.204   5.164   7.476 -0.1071 -0.8917  0.4941
  400MOL0     C55115   3.387   4.244   8.008 -0.8012  0.0652  0.8448
  400MOL0     C55116   3.484   4.195   8.103  0.1140  0.4583  0.7835
  400MOL0     C55117   3.718   4.030   8.455  0.6495  0.0898  0.0051
  400MOL0     C55118   3.835   4.084   8.493 -0.3964 -0.7099 -0.3562
  400MOL0     C55119   3.912   4.028   8.591  0.6746 -0.2182  0.6316
  400MOL0     C55120   3.882   3.897   8.637  0.2178  0.2893 -0.9213
  400MOL0     O55121   3.980   3.839   8.707  0.3215  0.7969 -0.2831
  400MOL0     C55122   3.941   3.761   8.823 -0.1589 -1.2108  0.7757
  400MOL0     C55123   4.072   3.707   8.866 -0.2880 -0.7297  0.3343
  400MOL0     C55124   4.140   3.609   8.765  0.8021  0.7863  0.7507
  400MOL0     C55125   4.290   3.609   8.782  0.4731 -0.7339  0.3019
  400MOL0     C55126   4.350   3.524   8.674  0.2989 -0.4778  0.2277
  400MOL0     C55127   4.403   3.457   8.593 -0.4279 -0.5103  0.2996
  400MOL0     C55128   3.758   3.843   8.605  0.2034 -0.6575 -0.2698
  400MOL0     C55129   3.673   3.914   8.517 -0.4280  0.0279  0.5784
  400MOL0     C55130   3.544   3.846   8.496  0.4468 -0.4414 -0.3054
  400MOL0     H55131   3.275   3.996   8.276 -0.9786  0.2820 -0.3451
  400MOL0     H55132   3.110   4.089   8.121  0.4295 -0.2073 -0.5497
  400MOL0     H55133   3.225   4.338   7.751 -1.3202  0.3240 -1.2624
  400MOL0     H55134   3.184   4.437   7.886  1.2284  0.0949 -0.2137
  400MOL0     H55135   2.983   4.271   7.730  0.3551 -0.7770  1.8581
  400MOL0     H55136   2.947   4.402   7.845  2.2212  1.2051  1.5695
  400MOL0     H55137   3.100   4.424   7.571  1.6084  2.1653  0.8707
  400MOL0     H55138   2.924   4.436   7.591 -1.2647 -0.1571  2.4087
  400MOL0     H55139   2.924   4.640   7.719 -0.7826  0.7292 -2.1071
  400MOL0     H55140   3.100   4.623   7.751  2.1680 -3.2767 -0.1586
  400MOL0     H55141   2.965   4.658   7.476  0.8250 -2.5084 -0.6650
  400MOL0     H55142   3.139   4.689   7.514  0.7040 -1.0336  1.3226
  400MOL0     H55143   2.915   4.831   7.643 -0.6730 -2.6276 -1.7451
  400MOL0     H55144   3.085   4.891   7.640 -0.0970 -0.1497  0.8157
  400MOL0     H55145   2.894   4.903   7.407 -0.6932  0.8238  0.8918
  400MOL0     H55146   3.065   4.923   7.382 -0.5374 -3.9618 -0.4940
  400MOL0     H55147   2.921   5.131   7.399  0.4182 -0.5913  0.1101
  400MOL0     H55148   2.892   5.079   7.573  0.3137  1.0889  0.3756
  400MOL0     H55149   3.001   5.243   7.714 -0.6907 -0.6395 -0.6834
  400MOL0     H55150   3.297   5.294   7.848 -2.6992  0.9919  1.3819
  400MOL0     H55151   3.179   5.419   7.807 -2.4856 -2.6172 -0.9435
  400MOL0     H55152   3.438   5.487   7.823  0.6727 -0.1485 -0.5789
  400MOL0     H55153   3.463   5.394   7.670  0.1622  1.3920 -1.7150
  400MOL0     H55154   3.282   5.554   7.564  2.1873 -0.2054 -2.2777
  400MOL0     H55155   3.286   5.641   7.717 -0.3928  0.7885 -1.7982
  400MOL0     H55156   3.498   5.608   7.511  0.1749 -1.0702  0.3972
  400MOL0     H55157   3.413   5.758   7.579 -1.0300 -1.0819 -1.2026
  400MOL0     H55158   3.809   5.575   7.756  0.3715 -0.0309 -0.1003
  400MOL0     H55159   4.049   5.527   7.751  0.3760  0.0677  0.6404
  400MOL0     H55160   4.140   5.639   7.655 -0.7619 -0.0146  1.7425
  400MOL0     H55161   4.090   5.483   7.582  0.8329  1.0750 -1.1485
  400MOL0     H55162   4.293   5.847   7.459  1.7063 -2.1772  2.0632
  400MOL0     H55163   4.543   5.881   7.391 -0.7286 -1.2194  1.0424
  400MOL0     H55164   4.703   5.942   7.227  0.9211  0.1098 -2.9842
  400MOL0     H55165   4.771   5.840   7.362 -3.2078  2.0364  0.6606
  400MOL0     H55166   4.862   5.822   7.087 -1.0278  1.3478  1.0223
  400MOL0     H55167   4.931   5.927   7.208  4.3516 -1.7887 -0.0546
  400MOL0     H55168   4.929   5.623   7.236  2.3886 -0.9088  0.1123
  400MOL0     H55169   4.978   5.732   7.366  0.1380  1.5016 -0.7378
  400MOL0     H55170   5.157   5.817   7.228 -0.4111  0.0991  0.6443
  400MOL0     H55171   5.093   5.740   7.088 -0.4353 -3.8953 -0.2063
  400MOL0     H55172   5.200   5.573   7.326  2.0564  1.5484 -0.1535
  400MOL0     H55173   5.122   5.509   7.182 -2.7639  1.0489 -0.3384
  400MOL0     H55174   5.366   5.701   7.203 -1.8887  2.2510 -1.5571
  400MOL0     H55175   5.317   5.621   7.050  2.5181  2.5486  0.1155
  400MOL0     H55176   5.405   5.421   7.090  2.0551 -1.6985  1.6552
  400MOL0     H55177   5.350   5.432   7.258 -5.0038  0.4525 -2.5400
  400MOL0     H55178   5.573   5.404   7.238  3.1182  0.3664  0.2611
  400MOL0     H55179   5.559   5.562   7.315  0.3785 -0.8027  1.1610
  400MOL0     H55180   4.525   5.542   7.147  1.5725  3.0114 -1.3726
  400MOL0     H55181   4.273   5.517   7.200  0.5895 -0.7475 -0.1168
  400MOL0     H55182   3.816   5.847   7.346 -0.4644 -0.7793 -0.1630
  400MOL0     H55183   3.617   5.837   7.473 -1.2164  0.1037  1.6712
  400MOL0     H55184   3.409   4.317   7.932 -1.0669  3.2807  3.5966
  400MOL0     H55185   3.582   4.240   8.089 -0.8838  1.9579 -2.2204
  400MOL0     H55186   3.885   4.167   8.444 -0.1289 -0.1265  0.8598
  400MOL0     H55187   4.007   4.075   8.611  0.4965  0.0419  0.8738
  400MOL0     H55188   3.907   3.826   8.904  2.8813  3.3845 -1.1653
  400MOL0     H55189   3.870   3.679   8.810  0.1773 -1.5174  0.8413
  400MOL0     H55190   4.056   3.648   8.956 -0.4927 -1.2983 -0.0707
  400MOL0     H55191   4.140   3.792   8.873  1.1738 -1.6789 -1.4831
  400MOL0     H55192   4.101   3.508   8.780 -0.1319  0.9000 -0.7616
  400MOL0     H55193   4.113   3.640   8.664  0.9508  0.4558  0.6085
  400MOL0     H55194   4.320   3.563   8.876  1.2668  2.3642  1.6831
  400MOL0     H55195   4.324   3.713   8.781  2.5320 -1.3595  0.7573
  400MOL0     H55196   4.460   3.400   8.523 -1.4472 -1.0172 -0.1388
  400MOL0     H55197   3.738   3.745   8.648  1.2839 -0.5548  0.4983
  400MOL0     H55198   3.456   3.909   8.509 -0.2726 -1.6517  0.9389
  400MOL0     H55199   3.539   3.818   8.391 -0.7657  1.0169 -0.6672
  400MOL0     H55200   3.527   3.760   8.561  1.4556  1.3078  2.4474
  401MOL0     O55201   9.883  11.370   2.527 -0.0045 -0.3479  0.3472
  401MOL0     C55202   9.870  11.264   2.596  0.2252 -0.0850  0.0411
  401MOL0     O55203   9.805  11.148   2.554 -0.4557 -0.1656 -0.1644
  401MOL0     C55204   9.756  11.148   2.428  0.2692  0.0324  0.3568
  401MOL0     C55205   9.621  11.154   2.399  0.3807 -0.6523  0.6793
  401MOL0     C55206   9.565  11.128   2.277  0.2832 -0.2916  0.2282
  401MOL0     C55207   9.647  11.100   2.169  0.5705 -0.4469  0.3381
  401MOL0     O55208   9.600  11.072   2.037 -0.2428 -0.6673 -0.2642
  401MOL0     C55209   9.457  11.095   2.003  0.4734  1.1094 -0.1788
  401MOL0     C55210   9.441  11.063   1.859 -0.4987  0.5106 -0.1563
  401MOL0     C55211   9.293  11.086   1.825  0.8909 -0.3141 -0.5945
  401MOL0     C55212   9.258  11.233   1.794 -0.3028  0.1195  0.0139
  401MOL0     C55213   9.131  11.244   1.705 -0.7077  0.5102 -0.0782
  401MOL0     C55214   9.071  11.382   1.679  0.0250 -0.0532 -0.5547
  401MOL0     C55215   8.952  11.376   1.585 -0.4450  0.0821  0.4770
  401MOL0     C55216   8.884  11.509   1.565 -0.0011 -1.3086 -0.1256
  401MOL0     N55217   8.975  11.611   1.509  0.1351 -0.3303  0.0752
  401MOL0     C55218   8.975  11.626   1.370 -0.3160  0.4131 -0.1003
  401MOL0     C55219   9.074  11.715   1.350  0.4772  0.3344  0.1946
  401MOL0     C55220   9.100  11.775   1.213 -0.8228  0.4664  0.9401
  401MOL0     C55221   9.159  11.669   1.116  0.0886 -0.0733 -0.3617
  401MOL0     C55222   9.307  11.655   1.162  0.5791  0.3156  0.1635
  401MOL0     C55223   9.394  11.576   1.067 -0.9753 -0.2819 -0.3176
  401MOL0     O55224   9.515  11.558   1.140  0.4227 -0.0522  0.1048
  401MOL0     C55225   9.601  11.462   1.092 -0.0125 -0.2283 -0.7045
  401MOL0     C55226   9.642  11.478   0.956 -0.1874  0.1358 -0.8631
  401MOL0     C55227   9.702  11.378   0.880 -1.0229  0.0270  0.2091
  401MOL0     C55228   9.710  11.389   0.731 -0.0347 -0.7639 -0.2676
  401MOL0     C55229   9.752  11.255   0.947  0.8957 -0.6026  0.0083
  401MOL0     C55230   9.822  11.145   0.882 -0.0505 -1.4008 -0.1264
  401MOL0     O55231   9.834  11.029   0.954  0.2018  0.2096  0.5038
  401MOL0     C55232   9.905  10.927   0.905 -0.5481  0.1620 -0.8763
  401MOL0     C55233   9.857  10.862   0.792 -1.0486  0.2273 -0.7956
  401MOL0     C55234   9.922  10.748   0.756  0.2441 -0.1925  0.1520
  401MOL0     C55235  10.040  10.711   0.807  0.6118  0.4086 -0.2217
  401MOL0     O55236  10.100  10.607   0.738 -0.5608  0.0406 -0.2205
  401MOL0     C55237  10.242  10.587   0.758  0.9012 -0.3966 -0.4732
  401MOL0     C55238  10.327  10.699   0.690 -0.8694 -0.2240  0.0336
  401MOL0     C55239  10.476  10.665   0.678 -0.0431  0.7018  0.3965
  401MOL0     C55240  10.545  10.612   0.804 -0.0053  0.2855 -0.1543
  401MOL0     C55241  10.692  10.573   0.786 -0.3441 -0.2956 -0.9859
  401MOL0     C55242  10.777  10.703   0.781  0.4993  0.3801 -0.4220
  401MOL0     C55243  10.918  10.670   0.799 -0.4231  0.1647  0.4759
  401MOL0     C55244  10.998  10.798   0.765 -0.5182  0.8163  0.1861
  401MOL0    Cl55245  10.971  10.929   0.882 -0.3030 -0.2334  0.1405
  401MOL0     C55246  10.089  10.769   0.921  0.0592 -0.3196 -0.0048
  401MOL0     C55247  10.018  10.874   0.974 -0.6722  1.1605  0.4289
  401MOL0     O55248   9.875  11.165   0.778  0.5678 -0.0636  0.5084
  401MOL0     C55249   9.715  11.245   1.094 -0.1094  0.1444  0.4468
  401MOL0     C55250   9.631  11.343   1.154  0.1505  0.7440 -0.4006
  401MOL0     N55251   9.132  11.743   1.473  0.2615  0.8899 -0.6530
  401MOL0     N55252   9.075  11.685   1.568  0.6459 -0.3319  0.0688
  401MOL0     C55253   9.783  11.103   2.192  0.8674  0.4666 -0.2879
  401MOL0     C55254   9.837  11.120   2.318  0.7365 -0.7958 -0.7558
  401MOL0     C55255   9.909  11.266   2.743 -0.1040 -0.4468 -0.8102
  401MOL0     C55256   9.825  11.224   2.842  0.2261 -0.3021 -0.0540
  401MOL0     C55257   9.850  11.221   2.981 -0.0946 -0.3308  0.4831
  401MOL0     C55258   9.969  11.264   3.027  0.1635  0.3269  0.1475
  401MOL0     O55259   9.981  11.260   3.163 -0.1545 -0.2663 -0.3774
  401MOL0     C55260  10.068  11.369   3.218 -0.4139  0.3028  0.1525
  401MOL0     C55261  10.022  11.424   3.358  0.1764  0.1498  0.1011
  401MOL0     C55262   9.921  11.533   3.354 -0.8711 -0.2936  0.0409
  401MOL0     C55263   9.893  11.590   3.481  0.0679 -0.3946 -0.8059
  401MOL0     C55264   9.799  11.705   3.467  0.3273 -0.2635  0.3885
  401MOL0     C55265   9.733  11.807   3.447 -0.9057  0.0621  0.7191
  401MOL0     C55266  10.076  11.292   2.929 -0.5106  0.1652 -0.9621
  401MOL0     C55267  10.043  11.301   2.795 -0.8480  0.1349  0.4876
  401MOL0     C55268  10.154  11.338   2.700  1.0610 -0.0393 -0.3868
  401MOL0     H55269   9.564  11.185   2.485 -3.4544 -0.2481 -1.7801
  401MOL0     H55270   9.457  11.134   2.265  0.0955 -0.7997  1.5484
  401MOL0     H55271   9.425  11.199   2.020 -0.8152  0.8185 -0.6946
  401MOL0     H55272   9.392  11.034   2.067  2.5174 -0.7415  0.2484
  401MOL0     H55273   9.510  11.123   1.800  1.3737 -0.1433  1.2713
  401MOL0     H55274   9.465  10.957   1.845 -0.5800  0.5293 -0.4396
  401MOL0     H55275   9.272  11.031   1.732  0.4433  2.1685 -2.0661
  401MOL0     H55276   9.220  11.051   1.899  1.8203  0.4584  0.7185
  401MOL0     H55277   9.258  11.283   1.891  3.4548  0.5370 -0.0315
  401MOL0     H55278   9.340  11.290   1.749  0.2161 -0.3535  0.3424
  401MOL0     H55279   9.051  11.184   1.749 -0.0784  0.4693  1.0558
  401MOL0     H55280   9.157  11.200   1.608  0.1387  2.1736 -0.6391
  401MOL0     H55281   9.036  11.417   1.777  1.9300 -0.7777  0.4374
  401MOL0     H55282   9.153  11.448   1.652 -1.3033  2.6000  1.4220
  401MOL0     H55283   8.881  11.302   1.622 -1.2345 -0.6175 -2.2233
  401MOL0     H55284   9.000  11.335   1.496  2.9918 -0.9055  2.5683
  401MOL0     H55285   8.800  11.489   1.496 -1.8300 -0.2078  1.6834
  401MOL0     H55286   8.838  11.544   1.657  4.0277 -0.3718  1.7407
  401MOL0     H55287   8.908  11.582   1.298  0.2432 -1.8106  0.6565
  401MOL0     H55288   9.165  11.863   1.221 -1.6818  1.3900 -1.2778
  401MOL0     H55289   9.003  11.802   1.171 -1.1628 -1.9712  0.0027
  401MOL0     H55290   9.101  11.577   1.119  1.0057 -0.6525  0.5083
  401MOL0     H55291   9.168  11.697   1.011 -0.5907  0.0040 -0.4007
  401MOL0     H55292   9.350  11.755   1.174  1.6259 -0.2167  1.0238
  401MOL0     H55293   9.309  11.616   1.264 -0.8771  2.4945  1.0893
  401MOL0     H55294   9.344  11.488   1.027  0.9183 -2.9507  2.6388
  401MOL0     H55295   9.415  11.639   0.981  0.9570  2.0247  1.7001
  401MOL0     H55296   9.623  11.576   0.912 -0.5061  0.9434  0.9524
  401MOL0     H55297   9.648  11.312   0.682 -2.1246 -1.7626  3.5465
  401MOL0     H55298   9.814  11.385   0.698  0.7179 -2.3016  2.0567
  401MOL0     H55299   9.680  11.489   0.699 -1.3405 -0.2944  2.2229
  401MOL0     H55300   9.770  10.895   0.736 -3.0435  2.5600  3.1891
  401MOL0     H55301   9.900  10.697   0.662  3.7570 -2.7879  0.5010
  401MOL0     H55302  10.268  10.588   0.865 -3.1058  0.6252  0.6773
  401MOL0     H55303  10.278  10.492   0.719 -0.6085 -0.7843 -1.0020
  401MOL0     H55304  10.274  10.719   0.596 -1.3006 -1.6387 -0.0492
  401MOL0     H55305  10.305  10.788   0.750  1.4865  0.8412 -0.5731
  401MOL0     H55306  10.520  10.758   0.639  0.1426  0.4928  0.1103
  401MOL0     H55307  10.496  10.594   0.598  3.9086  0.9031  0.9845
  401MOL0     H55308  10.491  10.523   0.838 -1.2466  0.7251 -0.9163
  401MOL0     H55309  10.547  10.685   0.886 -0.4038  0.3651 -0.2155
  401MOL0     H55310  10.726  10.500   0.860 -1.1738  1.3131  1.0751
  401MOL0     H55311  10.704  10.525   0.689  1.3106 -1.2383 -0.3487
  401MOL0     H55312  10.738  10.765   0.862 -3.2342  1.8291 -3.0282
  401MOL0     H55313  10.762  10.755   0.686 -0.7390 -3.2763 -2.4353
  401MOL0     H55314  10.941  10.595   0.724 -1.4146  0.4082 -0.0888
  401MOL0     H55315  10.948  10.632   0.898  0.8677 -1.8549 -0.6240
  401MOL0     H55316  10.971  10.825   0.663  1.0559  0.1196 -0.4414
  401MOL0     H55317  11.106  10.781   0.769  0.1572  4.4578  0.1513
  401MOL0     H55318  10.171  10.720   0.972 -0.5746 -1.6552 -0.2388
  401MOL0     H55319  10.061  10.922   1.061  1.3901 -0.2240  0.2477
  401MOL0     H55320   9.738  11.148   1.139  2.0588 -1.4433 -3.5704
  401MOL0     H55321   9.584  11.312   1.247 -2.0641  2.3828 -0.9059
  401MOL0     H55322   9.850  11.097   2.107 -1.0504 -2.1804 -1.7441
  401MOL0     H55323   9.944  11.103   2.326  0.4211 -3.3322 -1.0893
  401MOL0     H55324   9.721  11.200   2.821  0.0929 -0.8445  1.1071
  401MOL0     H55325   9.775  11.191   3.054 -0.5327  0.2780  0.2850
  401MOL0     H55326  10.170  11.328   3.222 -1.0376 -1.6842 -1.9694
  401MOL0     H55327  10.070  11.452   3.146 -1.3814 -0.1950 -0.4673
  401MOL0     H55328  10.109  11.458   3.416 -1.2243  0.9819  1.7947
  401MOL0     H55329   9.985  11.338   3.415  0.3262  1.2351  1.9235
  401MOL0     H55330   9.957  11.613   3.289 -1.2220  0.2716  0.5407
  401MOL0     H55331   9.832  11.487   3.309  1.7652 -4.1468 -1.7694
  401MOL0     H55332   9.975  11.647   3.525 -0.0339 -0.1350 -0.9483
  401MOL0     H55333   9.856  11.525   3.560  3.1322 -2.2418 -0.7476
  401MOL0     H55334   9.663  11.888   3.436  1.6758  2.3488 -0.1445
  401MOL0     H55335  10.179  11.303   2.962 -1.5244  0.5944  2.3633
  401MOL0     H55336  10.157  11.268   2.616  2.5865 -0.8538  0.3048
  401MOL0     H55337  10.135  11.439   2.661  2.7511  0.8764  0.9865
  401MOL0     H55338  10.248  11.344   2.756 -0.2566  0.6619  1.8567
  402MOL0     O55339   8.673   3.784   0.430 -0.3367  0.5141 -0.3426
  402MOL0     C55340   8.693   3.905   0.423  0.4216 -0.0274  0.5962
  402MOL0     O55341   8.601   4.003   0.382  0.6715 -0.7253  0.4497
  402MOL0     C55342   8.484   3.963   0.321  0.7355  0.2868  0.2389
  402MOL0     C55343   8.476   3.869   0.218  0.5615  0.0279 -0.3228
  402MOL0     C55344   8.349   3.844   0.158  0.3545 -0.3700 -0.0959
  402MOL0     C55345   8.238   3.919   0.180  0.2508  0.3747  0.0285
  402MOL0     O55346   8.130   3.886   0.099 -0.3043 -0.2571  0.3466
  402MOL0     C55347   8.011   3.967   0.115 -0.3838 -0.7363 -0.5357
  402MOL0     C55348   7.903   3.953   0.007 -0.6449 -0.5354 -0.3953
  402MOL0     C55349   7.860   3.806  -0.002 -0.2485  0.0801  0.3050
  402MOL0     C55350   7.782   3.770   0.124 -0.1267 -0.4089  0.3165
  402MOL0     C55351   7.744   3.621   0.104 -0.1102  1.1738 -0.5005
  402MOL0     C55352   7.643   3.558   0.209 -0.4748 -0.6917  1.1134
  402MOL0     C55353   7.709   3.568   0.353 -1.1394  0.9323  0.5144
  402MOL0     C55354   7.669   3.684   0.433  0.7739 -0.0530 -0.2822
  402MOL0     N55355   7.736   3.677   0.563  0.7216  0.0446 -0.5158
  402MOL0     C55356   7.824   3.759   0.613  0.6925 -0.2212  0.7432
  402MOL0     C55357   7.839   3.716   0.738 -0.2851 -0.3509 -0.3347
  402MOL0     C55358   7.921   3.783   0.845 -0.5331  0.7190  0.3283
  402MOL0     C55359   8.061   3.737   0.850  0.8594 -0.2516  0.3732
  402MOL0     C55360   8.082   3.592   0.915  1.0887  0.2652 -0.6637
  402MOL0     C55361   8.225   3.552   0.886  0.2210  0.2608 -0.4888
  402MOL0     O55362   8.325   3.638   0.956  0.5302 -0.2552  0.2854
  402MOL0     C55363   8.420   3.578   1.034 -0.5913  0.3062  0.4986
  402MOL0     C55364   8.399   3.575   1.170  1.5839  0.0874 -0.0413
  402MOL0     C55365   8.481   3.508   1.266 -0.3926  0.2964  0.3460
  402MOL0     C55366   8.423   3.489   1.410 -0.4434  0.4723  0.4959
  402MOL0     C55367   8.602   3.459   1.213  0.2433  0.0597 -0.3513
  402MOL0     C55368   8.714   3.414   1.300  0.1916 -0.9767  0.3307
  402MOL0     O55369   8.837   3.394   1.238  0.0831  0.1529 -0.0531
  402MOL0     C55370   8.942   3.374   1.320 -0.7329  0.0131 -0.3349
  402MOL0     C55371   9.057   3.459   1.310 -0.3822 -0.5298 -0.3008
  402MOL0     C55372   9.163   3.452   1.402  0.3107 -0.4918  0.0955
  402MOL0     C55373   9.163   3.348   1.490  0.7548  0.1096  0.5791
  402MOL0     O55374   9.279   3.331   1.564 -0.2465 -0.5386  0.5032
  402MOL0     C55375   9.291   3.219   1.653 -0.6000  0.3709 -0.4617
  402MOL0     C55376   9.427   3.197   1.726  0.3084  0.6035 -0.3989
  402MOL0     C55377   9.469   3.319   1.796 -0.7325 -0.0453  0.0646
  402MOL0     C55378   9.395   3.360   1.920 -0.9411 -0.5929 -0.5285
  402MOL0     C55379   9.464   3.480   1.995  0.2006 -0.0641 -0.3448
  402MOL0     C55380   9.371   3.527   2.111  0.1914  0.2225  0.1698
  402MOL0     C55381   9.439   3.639   2.196 -0.5054 -0.2780  0.9539
  402MOL0     C55382   9.573   3.598   2.258 -0.4540  1.1158  0.2533
  402MOL0    Cl55383   9.703   3.605   2.143 -0.1164 -0.2603 -0.3110
  402MOL0     C55384   9.057   3.251   1.494 -0.2400 -0.2806 -0.2269
  402MOL0     C55385   8.949   3.264   1.406 -0.5792  0.5835  0.7772
  402MOL0     O55386   8.700   3.429   1.419 -0.4764  0.0072 -0.3336
  402MOL0     C55387   8.634   3.477   1.074  0.8898 -0.7266  1.4444
  402MOL0     C55388   8.542   3.546   0.991  0.4509  0.2063  0.2680
  402MOL0     N55389   7.771   3.598   0.756  0.0505 -0.4061 -0.4362
  402MOL0     N55390   7.715   3.575   0.642  0.7054  0.4743 -0.3600
  402MOL0     C55391   8.244   4.019   0.278 -0.3494 -0.0164  0.0879
  402MOL0     C55392   8.363   4.045   0.343 -0.0332 -0.1190  0.1342
  402MOL0     C55393   8.824   3.965   0.449 -0.1749 -0.3048 -0.3798
  402MOL0     C55394   8.833   4.107   0.449 -0.4851  0.2103  0.7144
  402MOL0     C55395   8.949   4.181   0.477  0.5742 -0.0787 -0.6733
  402MOL0     C55396   9.068   4.109   0.498 -0.1353  0.8727  1.2990
  402MOL0     O55397   9.188   4.174   0.517 -0.4406 -0.6012 -0.7275
  402MOL0     C55398   9.185   4.314   0.538  0.1201  0.6734  0.0424
  402MOL0     C55399   9.323   4.372   0.564  0.5206 -0.2725  0.1334
  402MOL0     C55400   9.417   4.307   0.457  0.7582 -0.8050 -0.0451
  402MOL0     C55401   9.567   4.346   0.471  0.4347 -0.5726  0.0489
  402MOL0     C55402   9.592   4.486   0.471 -0.4860 -0.4286 -0.4651
  402MOL0     C55403   9.607   4.607   0.483  0.2538 -0.3148  0.3587
  402MOL0     C55404   9.069   3.968   0.479 -0.0094 -0.2665  0.9069
  402MOL0     C55405   8.955   3.899   0.449  0.8820 -0.0287 -0.8332
  402MOL0     C55406   8.967   3.754   0.415 -0.2827  0.0590 -0.3891
  402MOL0     H55407   8.569   3.816   0.198  0.5884 -0.0673  0.0411
  402MOL0     H55408   8.342   3.760   0.089  0.6110  0.1559 -0.7815
  402MOL0     H55409   8.042   4.072   0.106  1.8417 -1.1164  1.5128
  402MOL0     H55410   7.967   3.946   0.213 -1.5555 -0.0337 -0.8918
  402MOL0     H55411   7.815   4.015   0.022 -0.4244  0.7414 -3.5852
  402MOL0     H55412   7.946   3.987  -0.088 -0.2952  0.3051  0.0550
  402MOL0     H55413   7.799   3.796  -0.093 -1.9757 -0.1450  1.4299
  402MOL0     H55414   7.951   3.748  -0.014 -0.9524 -1.3010  1.3843
  402MOL0     H55415   7.837   3.782   0.218  2.7370 -1.4062 -1.0816
  402MOL0     H55416   7.698   3.838   0.130  1.9370  2.7071 -2.3804
  402MOL0     H55417   7.840   3.568   0.103 -1.2331 -1.0301  0.8771
  402MOL0     H55418   7.694   3.608   0.007 -5.1634  1.3965  1.7539
  402MOL0     H55419   7.553   3.620   0.211  0.5199  0.7890  2.9973
  402MOL0     H55420   7.627   3.452   0.187 -3.8583  0.0008 -0.4427
  402MOL0     H55421   7.818   3.566   0.347 -1.2353 -0.0702 -2.0253
  402MOL0     H55422   7.683   3.476   0.407 -0.2958  0.5410  0.2569
  402MOL0     H55423   7.688   3.780   0.385 -0.5557  1.2766  1.7273
  402MOL0     H55424   7.561   3.668   0.441  0.5989  1.4874  0.7259
  402MOL0     H55425   7.851   3.853   0.565  2.2415 -1.3118 -0.5933
  402MOL0     H55426   7.879   3.772   0.945 -1.2002  0.3419  0.0195
  402MOL0     H55427   7.932   3.890   0.829 -3.0820  1.1177  0.8113
  402MOL0     H55428   8.112   3.729   0.754  0.1156 -0.7351  0.0134
  402MOL0     H55429   8.119   3.805   0.913  2.2553 -4.1252  3.6936
  402MOL0     H55430   8.083   3.578   1.023  0.1329 -1.9367 -0.8754
  402MOL0     H55431   8.013   3.516   0.875 -0.1813  1.3107 -0.5106
  402MOL0     H55432   8.241   3.447   0.908  0.1759  0.7762  2.3572
  402MOL0     H55433   8.245   3.550   0.778 -0.9410 -2.3625 -0.7142
  402MOL0     H55434   8.301   3.614   1.194  1.0680 -0.0986 -1.7374
  402MOL0     H55435   8.464   3.563   1.479 -0.9890  0.4553  0.8351
  402MOL0     H55436   8.447   3.385   1.432  0.1730 -0.3129 -3.1109
  402MOL0     H55437   8.314   3.497   1.409 -0.4572  1.1425  2.8774
  402MOL0     H55438   9.053   3.544   1.243 -0.0911 -0.3301 -0.0707
  402MOL0     H55439   9.244   3.524   1.410 -0.6197  0.3709  3.1948
  402MOL0     H55440   9.214   3.228   1.730  0.3805  0.7522  0.5003
  402MOL0     H55441   9.274   3.135   1.585  3.0891  1.3683 -2.8775
  402MOL0     H55442   9.423   3.114   1.796 -1.8554 -0.4158 -1.6161
  402MOL0     H55443   9.504   3.170   1.653 -0.8373 -0.0875 -1.4074
  402MOL0     H55444   9.470   3.408   1.733  0.4524 -0.6248 -0.7791
  402MOL0     H55445   9.572   3.299   1.830 -1.1654  0.6514  1.9348
  402MOL0     H55446   9.379   3.277   1.990 -1.1786  0.5952  0.8836
  402MOL0     H55447   9.294   3.387   1.890 -0.8315 -0.2290 -0.5662
  402MOL0     H55448   9.555   3.433   2.034  1.9719  0.9907 -2.9029
  402MOL0     H55449   9.489   3.564   1.929 -0.1298  0.9095  0.7312
  402MOL0     H55450   9.356   3.440   2.175 -1.5443 -1.7963 -2.7716
  402MOL0     H55451   9.279   3.570   2.070  0.0388  0.8568  1.1268
  402MOL0     H55452   9.360   3.646   2.271 -0.1078 -0.8026  1.4235
  402MOL0     H55453   9.446   3.727   2.131  1.3245 -1.5418 -0.6801
  402MOL0     H55454   9.565   3.501   2.308 -0.1260  1.0063  0.0947
  402MOL0     H55455   9.595   3.672   2.335  1.5945 -0.9962  1.8284
  402MOL0     H55456   9.066   3.165   1.560  2.4568  0.3497  0.3534
  402MOL0     H55457   8.876   3.184   1.394 -0.3264  0.4788 -0.1279
  402MOL0     H55458   8.732   3.448   1.037  1.1987  0.5864  1.1648
  402MOL0     H55459   8.557   3.565   0.885 -2.2576  1.6661  0.0399
  402MOL0     H55460   8.162   4.089   0.288  0.6404  1.4429 -1.4782
  402MOL0     H55461   8.370   4.125   0.415  1.7066 -1.1005  1.1168
  402MOL0     H55462   8.743   4.166   0.439 -0.6925 -0.1156  0.6431
  402MOL0     H55463   8.937   4.289   0.481 -0.3423 -0.1966  1.6326
  402MOL0     H55464   9.159   4.341   0.435  2.6579 -2.7488 -1.6933
  402MOL0     H55465   9.114   4.345   0.616  2.0352  0.6351  1.8844
  402MOL0     H55466   9.356   4.336   0.661 -0.9453 -1.2925  0.2908
  402MOL0     H55467   9.316   4.481   0.566 -1.5016 -0.3368 -0.7947
  402MOL0     H55468   9.424   4.198   0.453  2.7606 -0.6982 -0.3164
  402MOL0     H55469   9.386   4.351   0.361  1.2846  3.9854  1.7363
  402MOL0     H55470   9.626   4.306   0.388  0.8456 -0.2803  0.1921
  402MOL0     H55471   9.606   4.308   0.566 -1.8180  0.0772  1.3073
  402MOL0     H55472   9.608   4.714   0.492  1.0488 -0.5019  3.7667
  402MOL0     H55473   9.159   3.910   0.499 -0.0064 -0.9275 -0.8630
  402MOL0     H55474   8.970   3.739   0.307 -0.9595  2.1482 -0.7453
  402MOL0     H55475   9.062   3.716   0.452  0.0744  1.8837  0.7186
  402MOL0     H55476   8.896   3.693   0.472  0.5960 -1.1794 -0.5782
  403MOL0     O55477   6.725   5.079   0.315 -0.0397 -0.4225 -0.8246
  403MOL0     C55478   6.824   5.126   0.271 -0.0032 -0.1142 -0.1735
  403MOL0     O55479   6.953   5.102   0.313 -0.1549  0.0960  0.2645
  403MOL0     C55480   6.991   4.990   0.392  0.2496 -0.9703 -0.8860
  403MOL0     C55481   7.100   5.008   0.477 -0.5696 -0.5306  0.2121
  403MOL0     C55482   7.157   4.889   0.523  0.2503 -0.4967  0.0310
  403MOL0     C55483   7.098   4.771   0.504 -0.6796  1.4944  0.1929
  403MOL0     O55484   7.168   4.660   0.548  0.3659 -0.2576 -0.5183
  403MOL0     C55485   7.091   4.568   0.635 -0.3292  0.5400 -0.2241
  403MOL0     C55486   7.177   4.491   0.735  0.4851 -1.3180 -0.6588
  403MOL0     C55487   7.240   4.368   0.669  0.6909  0.1616 -0.4964
  403MOL0     C55488   7.303   4.264   0.766 -0.3525 -0.0409  0.1118
  403MOL0     C55489   7.378   4.157   0.691 -0.3455  1.1888 -0.4898
  403MOL0     C55490   7.524   4.195   0.671  0.6926 -0.7132 -0.0586
  403MOL0     C55491   7.603   4.102   0.567  0.4236 -0.8469 -0.8214
  403MOL0     C55492   7.580   4.131   0.423 -0.1788 -0.2180 -0.2214
  403MOL0     N55493   7.694   4.188   0.361  0.8615  0.4891 -0.6705
  403MOL0     C55494   7.742   4.306   0.397 -1.1342 -0.1952  0.6206
  403MOL0     C55495   7.866   4.308   0.340  0.1061  0.4950  0.4386
  403MOL0     C55496   7.957   4.411   0.359  0.3486 -0.4381 -0.0214
  403MOL0     C55497   8.009   4.429   0.506  1.0226 -0.3589  0.7075
  403MOL0     C55498   8.071   4.574   0.521 -0.0699 -0.0607  0.0654
  403MOL0     C55499   8.107   4.610   0.663  0.1469  0.2024  0.2822
  403MOL0     O55500   8.206   4.710   0.667 -0.1809  0.2856  0.4459
  403MOL0     C55501   8.337   4.657   0.670  0.4126 -0.1566 -0.1571
  403MOL0     C55502   8.381   4.530   0.632 -0.0695  0.7436  0.4500
  403MOL0     C55503   8.508   4.484   0.637 -0.5322  0.1797 -0.4842
  403MOL0     C55504   8.532   4.337   0.607  0.4145  0.0086  0.2674
  403MOL0     C55505   8.613   4.573   0.682 -0.2316  0.9400 -0.7463
  403MOL0     C55506   8.750   4.530   0.716  0.1999  0.4098  0.5762
  403MOL0     O55507   8.843   4.626   0.754 -0.0533 -0.1245  0.2770
  403MOL0     C55508   8.974   4.600   0.795  0.1588 -0.2823  0.2650
  403MOL0     C55509   9.010   4.484   0.873 -0.1992  0.1122 -0.5983
  403MOL0     C55510   9.139   4.469   0.920 -0.0018 -0.4353  0.4506
  403MOL0     C55511   9.245   4.549   0.864  0.8712 -0.4063 -0.0609
  403MOL0     O55512   9.375   4.540   0.901 -0.0005 -0.0907 -0.0364
  403MOL0     C55513   9.413   4.428   0.988  0.3390  0.1102  0.2381
  403MOL0     C55514   9.572   4.426   1.000  0.1173  0.2650  0.8603
  403MOL0     C55515   9.641   4.375   0.872  0.0815  0.8982 -0.1428
  403MOL0     C55516   9.800   4.365   0.884  0.7310  0.3165  0.6096
  403MOL0     C55517   9.877   4.325   0.751  0.8035  0.1192  1.0731
  403MOL0     C55518  10.024   4.337   0.753 -0.5186  0.3868 -0.2426
  403MOL0     C55519  10.074   4.480   0.769 -0.5800  0.0361 -0.3137
  403MOL0     C55520  10.222   4.477   0.747 -0.5036 -0.3781 -0.3954
  403MOL0    Cl55521  10.261   4.644   0.782 -0.3619  0.4776 -0.0067
  403MOL0     C55522   9.211   4.660   0.783 -0.0954  0.3626  0.2020
  403MOL0     C55523   9.076   4.681   0.744 -0.1730 -0.0554  0.1736
  403MOL0     O55524   8.780   4.412   0.703  0.4656 -0.5074 -0.4230
  403MOL0     C55525   8.576   4.704   0.709  0.5265  0.0196  0.0038
  403MOL0     C55526   8.442   4.744   0.709 -0.1959 -0.0352 -0.1614
  403MOL0     N55527   7.886   4.193   0.260 -0.4472 -0.5753  0.4722
  403MOL0     N55528   7.779   4.117   0.283 -0.3665 -0.3477 -0.1136
  403MOL0     C55529   6.992   4.761   0.422  0.2816  0.5604  0.7334
  403MOL0     C55530   6.932   4.866   0.369 -0.0505 -0.1174 -1.7315
  403MOL0     C55531   6.798   5.223   0.158 -0.0235 -0.3299 -0.0394
  403MOL0     C55532   6.887   5.332   0.146 -0.7444  0.6122  0.1911
  403MOL0     C55533   6.855   5.438   0.059 -0.3745  0.3289 -0.0334
  403MOL0     C55534   6.755   5.435  -0.034  0.3203  0.0448 -0.6010
  403MOL0     O55535   6.729   5.554  -0.105  0.0175  0.4264 -0.9802
  403MOL0     C55536   6.599   5.582  -0.151  0.5092 -0.1107  0.3601
  403MOL0     C55537   6.513   5.638  -0.032 -0.2047  0.7077 -1.0651
  403MOL0     C55538   6.366   5.643  -0.063 -0.0789  0.0732  0.5929
  403MOL0     C55539   6.324   5.787  -0.068  0.2263  0.1232 -0.4155
  403MOL0     C55540   6.192   5.805  -0.101  0.7569 -0.0196  0.2891
  403MOL0     C55541   6.081   5.838  -0.147 -0.4924  1.0437  0.0324
  403MOL0     C55542   6.677   5.317  -0.032 -0.0829  0.4297 -0.1594
  403MOL0     C55543   6.695   5.210   0.057 -0.1114  0.4601 -0.6391
  403MOL0     C55544   6.608   5.089   0.054 -0.0804  0.7341  0.0476
  403MOL0     H55545   7.137   5.108   0.496  0.9977 -0.8522 -0.9432
  403MOL0     H55546   7.243   4.890   0.589 -0.5752 -1.3222  1.1476
  403MOL0     H55547   7.048   4.488   0.574  1.5042  0.4450 -1.4924
  403MOL0     H55548   7.024   4.624   0.701  2.4967  1.2335  2.2553
  403MOL0     H55549   7.252   4.557   0.780  0.4726 -0.0975 -2.3438
  403MOL0     H55550   7.118   4.449   0.817  2.4461 -2.7008  0.1275
  403MOL0     H55551   7.154   4.318   0.622 -0.4337  1.8489 -0.3060
  403MOL0     H55552   7.308   4.393   0.587  2.6960 -1.8196  0.4427
  403MOL0     H55553   7.354   4.305   0.854 -1.2053  1.3905 -0.0349
  403MOL0     H55554   7.219   4.207   0.808 -3.0632  2.5080 -1.5268
  403MOL0     H55555   7.335   4.136   0.593  0.7000  1.3973 -0.9966
  403MOL0     H55556   7.381   4.064   0.748 -1.9590  1.1686 -0.3800
  403MOL0     H55557   7.524   4.293   0.623  1.2776 -2.4644 -4.0482
  403MOL0     H55558   7.573   4.199   0.769  0.3034 -1.4196  0.1697
  403MOL0     H55559   7.567   4.000   0.584 -1.3022 -0.6117 -2.6642
  403MOL0     H55560   7.709   4.107   0.593 -0.1044 -0.9760  1.5650
  403MOL0     H55561   7.538   4.045   0.370 -1.2946  0.8645 -1.1396
  403MOL0     H55562   7.501   4.206   0.423  1.2666  1.5521  3.4346
  403MOL0     H55563   7.692   4.379   0.461 -3.7906 -1.9189  0.6784
  403MOL0     H55564   7.913   4.504   0.322 -3.0300 -1.0235  2.1128
  403MOL0     H55565   8.048   4.401   0.298  1.9180  1.5591  1.8098
  403MOL0     H55566   7.928   4.418   0.579  1.1989 -2.7129  0.6241
  403MOL0     H55567   8.085   4.352   0.523  0.0906 -0.6952  4.1703
  403MOL0     H55568   8.161   4.579   0.459  1.0835 -2.3819  1.3951
  403MOL0     H55569   7.995   4.640   0.479 -0.0764 -0.8825 -1.2685
  403MOL0     H55570   8.016   4.648   0.711  1.4595  2.8872  0.8771
  403MOL0     H55571   8.127   4.524   0.727  2.6182 -0.4493 -1.2338
  403MOL0     H55572   8.309   4.455   0.601  1.2481 -0.1330 -0.5767
  403MOL0     H55573   8.528   4.277   0.698 -0.1889  2.8939  2.3067
  403MOL0     H55574   8.620   4.321   0.545 -1.5581  0.9016 -3.0026
  403MOL0     H55575   8.446   4.309   0.546  2.1535  0.5135 -2.6165
  403MOL0     H55576   8.931   4.419   0.909  0.8938  0.1080  2.0139
  403MOL0     H55577   9.163   4.402   1.002  1.9008 -1.0893 -0.5827
  403MOL0     H55578   9.364   4.446   1.084  0.4675  0.8193  0.1706
  403MOL0     H55579   9.375   4.336   0.943 -4.4365  2.5617 -1.3507
  403MOL0     H55580   9.604   4.526   1.029  1.6100 -0.6072  2.4069
  403MOL0     H55581   9.604   4.376   1.092 -0.8731  1.2856  1.7877
  403MOL0     H55582   9.614   4.446   0.792 -2.8508  0.2849  0.1742
  403MOL0     H55583   9.592   4.280   0.852  0.9480  0.2945  0.5410
  403MOL0     H55584   9.835   4.304   0.968  0.4027 -1.0903 -0.2371
  403MOL0     H55585   9.833   4.464   0.914 -0.1355  0.3762  1.4134
  403MOL0     H55586   9.854   4.221   0.723  1.8235 -0.3455  1.9235
  403MOL0     H55587   9.831   4.388   0.674  0.2531 -0.3283  1.0297
  403MOL0     H55588  10.034   4.305   0.649 -0.2133  2.4026 -0.8798
  403MOL0     H55589  10.066   4.266   0.824 -1.8444  0.2861  0.4765
  403MOL0     H55590  10.049   4.510   0.871 -0.4310 -0.3526 -0.1592
  403MOL0     H55591  10.021   4.542   0.696 -1.2102 -0.2734 -0.1333
  403MOL0     H55592  10.244   4.462   0.641  0.3580  3.4471 -0.9078
  403MOL0     H55593  10.275   4.411   0.816  0.0310 -0.1508 -0.5814
  403MOL0     H55594   9.281   4.734   0.745  0.7126  1.1014  2.8931
  403MOL0     H55595   9.043   4.762   0.680 -0.5395 -0.2782  0.0759
  403MOL0     H55596   8.657   4.773   0.732  0.1185  0.0512  1.4373
  403MOL0     H55597   8.416   4.846   0.734  0.1138 -0.3499  1.5235
  403MOL0     H55598   6.964   4.660   0.395  0.5810  0.4656  0.7679
  403MOL0     H55599   6.850   4.856   0.298 -1.1188 -3.3839 -0.2454
  403MOL0     H55600   6.971   5.333   0.215 -0.7378 -3.8401  0.5114
  403MOL0     H55601   6.924   5.520   0.040 -0.9238  0.7585 -0.2076
  403MOL0     H55602   6.593   5.657  -0.231  1.5793  1.4049  1.6311
  403MOL0     H55603   6.553   5.493  -0.195 -2.9091  1.0652  1.2074
  403MOL0     H55604   6.548   5.739  -0.011 -0.2682  0.5303 -0.0765
  403MOL0     H55605   6.529   5.569   0.052 -1.7939  0.6460 -0.7800
  403MOL0     H55606   6.340   5.585  -0.152 -2.8340  0.2048  1.2199
  403MOL0     H55607   6.309   5.600   0.019 -2.4753  3.2695  0.8294
  403MOL0     H55608   6.390   5.831  -0.143  1.2887  0.0461  0.4389
  403MOL0     H55609   6.333   5.833   0.031 -3.0130  0.3343 -0.1034
  403MOL0     H55610   5.993   5.859  -0.205  0.3899 -0.8418 -2.1062
  403MOL0     H55611   6.593   5.296  -0.098 -1.2383  0.3171  1.2848
  403MOL0     H55612   6.539   5.107   0.137  0.6966  3.5735  0.1960
  403MOL0     H55613   6.551   5.089  -0.040  0.0488  0.3620 -0.0294
  403MOL0     H55614   6.660   4.995   0.073  0.9925  0.7000 -2.6210
  404MOL0     O55615   4.906   2.472   1.213  0.5041  0.1874  0.5611
  404MOL0     C55616   4.876   2.589   1.225 -0.4699  0.8776 -0.5433
  404MOL0     O55617   4.942   2.687   1.311  0.2933  0.3859  0.6870
  404MOL0     C55618   5.051   2.647   1.375  0.6495  0.0809 -0.1362
  404MOL0     C55619   5.155   2.730   1.361 -0.1625  0.2103 -0.0321
  404MOL0     C55620   5.280   2.703   1.423  0.2575 -0.0484 -0.6665
  404MOL0     C55621   5.284   2.603   1.519 -0.2954 -0.1889  0.0599
  404MOL0     O55622   5.404   2.573   1.575 -0.9640 -1.7704  0.4513
  404MOL0     C55623   5.425   2.474   1.678 -0.2516  0.0222 -0.4042
  404MOL0     C55624   5.565   2.490   1.734 -0.2917  0.1975 -0.6698
  404MOL0     C55625   5.672   2.468   1.638  0.1694  0.2957  0.1488
  404MOL0     C55626   5.800   2.421   1.708 -0.1129 -0.3373  0.4508
  404MOL0     C55627   5.915   2.413   1.608  0.1924 -0.8277  0.3911
  404MOL0     C55628   6.056   2.367   1.681 -0.2450  0.1574  0.5871
  404MOL0     C55629   6.110   2.491   1.756 -0.7565  0.0730 -0.0053
  404MOL0     C55630   6.217   2.462   1.858  0.1714  0.1658 -0.7138
  404MOL0     N55631   6.282   2.589   1.892 -0.5661  0.0056  0.0472
  404MOL0     C55632   6.215   2.698   1.927 -0.2200  0.4006 -1.1487
  404MOL0     C55633   6.300   2.798   1.952 -0.1585  0.2249  0.0690
  404MOL0     C55634   6.261   2.928   2.010  0.6460 -0.0668  0.3748
  404MOL0     C55635   6.377   3.031   2.009  0.4454  0.0708 -0.7343
  404MOL0     C55636   6.431   3.065   1.867  0.3162  0.1244 -0.7483
  404MOL0     C55637   6.546   3.159   1.887  0.1204  0.2370  0.6539
  404MOL0     O55638   6.494   3.278   1.943 -0.1857 -0.8516 -0.7705
  404MOL0     C55639   6.586   3.384   1.970  0.1773  0.6254  0.0695
  404MOL0     C55640   6.535   3.508   2.006  0.4217  0.1963 -0.1796
  404MOL0     C55641   6.616   3.625   2.024 -0.4870 -0.5176 -0.8068
  404MOL0     C55642   6.555   3.755   2.059 -0.1304  0.6937  0.8870
  404MOL0     C55643   6.757   3.611   1.998  0.5040  0.4898 -0.4122
  404MOL0     C55644   6.860   3.717   2.022  0.2911 -0.2966  0.8783
  404MOL0     O55645   6.966   3.696   1.927  0.6580  0.4916 -0.8658
  404MOL0     C55646   7.089   3.759   1.954  0.5106  0.4122 -0.1041
  404MOL0     C55647   7.144   3.827   1.850  0.1887 -0.5695  0.1637
  404MOL0     C55648   7.272   3.876   1.868  0.4737 -0.3251 -0.2082
  404MOL0     C55649   7.338   3.866   1.996  0.6010  0.2503 -0.3118
  404MOL0     O55650   7.461   3.922   2.020 -0.3006  0.1283  0.3518
  404MOL0     C55651   7.546   3.930   1.907 -0.5021 -0.8596  1.3707
  404MOL0     C55652   7.682   3.984   1.937  0.2998 -0.0094  1.0480
  404MOL0     C55653   7.763   3.995   1.811 -0.0533 -0.3056 -0.6130
  404MOL0     C55654   7.912   4.033   1.847  0.6240 -0.1140 -0.5483
  404MOL0     C55655   7.996   3.930   1.931  0.4128 -0.5128  0.1139
  404MOL0     C55656   8.134   3.997   1.944  0.9549 -0.1951 -0.6657
  404MOL0     C55657   8.221   3.921   2.048 -0.0096 -0.4988 -0.0826
  404MOL0     C55658   8.368   3.975   2.046 -0.5056  0.1553 -0.1015
  404MOL0    Cl55659   8.372   4.136   2.128 -0.0107  0.3090 -0.3191
  404MOL0     C55660   7.271   3.808   2.103  0.0587 -0.4207  0.7294
  404MOL0     C55661   7.150   3.743   2.076 -0.0272  0.5182 -0.5383
  404MOL0     O55662   6.860   3.796   2.116 -0.2837  0.2401  0.1227
  404MOL0     C55663   6.805   3.484   1.945  0.0710  0.3322 -1.2561
  404MOL0     C55664   6.721   3.374   1.933 -0.2473  0.1112 -0.3204
  404MOL0     N55665   6.431   2.742   1.923 -0.0503  0.0402  0.2616
  404MOL0     N55666   6.415   2.621   1.872  0.6391 -0.6049 -0.2693
  404MOL0     C55667   5.172   2.528   1.547  0.2093  0.1132 -0.0851
  404MOL0     C55668   5.050   2.540   1.473  0.4112  0.8400  0.0833
  404MOL0     C55669   4.781   2.664   1.135 -0.2226  0.0603 -0.0492
  404MOL0     C55670   4.821   2.782   1.075  0.3448 -0.2700 -0.0611
  404MOL0     C55671   4.734   2.859   0.994 -0.6905  0.2317 -0.3163
  404MOL0     C55672   4.602   2.820   0.975 -0.9435  0.1779  0.1728
  404MOL0     O55673   4.508   2.883   0.895  1.1274  0.1802 -0.3106
  404MOL0     C55674   4.532   3.010   0.843  0.2850 -0.0658 -0.3743
  404MOL0     C55675   4.401   3.051   0.770 -0.3766 -0.3525 -0.2763
  404MOL0     C55676   4.280   3.076   0.866  0.2873 -0.2941  0.4535
  404MOL0     C55677   4.162   3.149   0.808  0.3372  0.2328 -0.3477
  404MOL0     C55678   4.046   3.138   0.902 -0.2018  0.1603 -0.1650
  404MOL0     C55679   3.955   3.121   0.979  0.1342 -0.3490 -0.3191
  404MOL0     C55680   4.562   2.696   1.025 -0.0270 -0.2223 -0.7872
  404MOL0     C55681   4.651   2.617   1.105 -0.5126 -0.3222  0.2440
  404MOL0     C55682   4.609   2.483   1.147  1.1895  0.4163 -0.3703
  404MOL0     H55683   5.157   2.815   1.293 -0.6706 -0.1824 -0.5436
  404MOL0     H55684   5.361   2.768   1.392  0.3981  0.0774 -0.0588
  404MOL0     H55685   5.400   2.375   1.639 -0.9285 -0.4564  1.1911
  404MOL0     H55686   5.361   2.498   1.763  1.0518  3.3491 -0.2134
  404MOL0     H55687   5.578   2.585   1.787 -1.3286 -0.0106 -0.0072
  404MOL0     H55688   5.573   2.410   1.808 -2.1912  0.0374 -0.5843
  404MOL0     H55689   5.646   2.387   1.570 -0.8997 -0.8216  1.8079
  404MOL0     H55690   5.676   2.559   1.578  1.4582  1.5008  1.9423
  404MOL0     H55691   5.824   2.494   1.785 -1.2514  1.2037 -0.5764
  404MOL0     H55692   5.774   2.324   1.751 -3.0056 -1.7742 -3.8324
  404MOL0     H55693   5.915   2.507   1.552  2.8518 -1.4931 -0.9062
  404MOL0     H55694   5.895   2.335   1.535  3.6937 -0.5767 -1.0273
  404MOL0     H55695   6.040   2.283   1.748 -0.2088 -1.0445 -0.8635
  404MOL0     H55696   6.124   2.333   1.602 -2.7987 -0.5603 -1.4474
  404MOL0     H55697   6.030   2.540   1.813 -0.2641  1.2877 -0.3154
  404MOL0     H55698   6.147   2.567   1.686 -0.2902 -0.1359  0.0099
  404MOL0     H55699   6.174   2.414   1.947  1.1378  1.0543  0.2572
  404MOL0     H55700   6.289   2.388   1.823  0.4103  0.8047 -1.5807
  404MOL0     H55701   6.107   2.707   1.937 -0.5357  0.9578 -4.1759
  404MOL0     H55702   6.228   2.918   2.114  1.0341  0.8899  0.5989
  404MOL0     H55703   6.170   2.960   1.958 -0.6074  0.6122  2.8364
  404MOL0     H55704   6.344   3.126   2.051 -1.6121 -1.3384  1.0516
  404MOL0     H55705   6.459   2.991   2.070  0.9967  1.6950 -0.3553
  404MOL0     H55706   6.473   2.977   1.817  0.9438 -0.2471  0.4012
  404MOL0     H55707   6.355   3.126   1.817  0.6096  1.0418 -0.0975
  404MOL0     H55708   6.614   3.097   1.947  0.0259 -1.6834 -1.1070
  404MOL0     H55709   6.592   3.191   1.793 -1.4512  3.3899  0.8259
  404MOL0     H55710   6.427   3.515   2.014  0.3724  0.8646 -1.2293
  404MOL0     H55711   6.593   3.814   1.976 -1.1761  1.4516  0.9201
  404MOL0     H55712   6.556   3.793   2.162 -6.6424  1.7372  1.0302
  404MOL0     H55713   6.448   3.754   2.036 -0.2576  0.0343  1.4899
  404MOL0     H55714   7.093   3.848   1.757 -3.1584 -2.3419  1.4209
  404MOL0     H55715   7.304   3.925   1.776 -0.0001  2.1655  0.8820
  404MOL0     H55716   7.561   3.828   1.872 -1.4184 -0.0600 -1.6849
  404MOL0     H55717   7.505   3.984   1.821  3.8625  0.4930 -0.1625
  404MOL0     H55718   7.675   4.078   1.992 -2.4118  0.0139  0.8122
  404MOL0     H55719   7.730   3.908   1.999 -1.3476 -1.2595  0.8747
  404MOL0     H55720   7.723   4.068   1.740 -1.4931 -0.2884  0.1840
  404MOL0     H55721   7.775   3.907   1.747  0.7640  0.4527 -1.5528
  404MOL0     H55722   7.914   4.126   1.904 -0.6302  0.2018 -0.9870
  404MOL0     H55723   7.970   4.051   1.755  2.0093  0.8167  0.4642
  404MOL0     H55724   7.954   3.935   2.032 -2.3349 -1.3818 -0.8914
  404MOL0     H55725   8.002   3.829   1.890  1.3274  1.0083 -4.0036
  404MOL0     H55726   8.118   4.103   1.965  1.0506 -0.7733  2.9984
  404MOL0     H55727   8.187   3.992   1.848 -0.9435 -0.2595 -1.7675
  404MOL0     H55728   8.221   3.812   2.032 -1.8952 -0.4384 -0.8514
  404MOL0     H55729   8.182   3.936   2.149 -3.4981 -0.3837 -1.2858
  404MOL0     H55730   8.404   3.989   1.944 -0.4426 -1.4178 -0.3189
  404MOL0     H55731   8.437   3.911   2.102  0.0590  2.9090  2.6733
  404MOL0     H55732   7.314   3.794   2.201 -0.8185 -2.5173  0.8749
  404MOL0     H55733   7.097   3.696   2.159 -0.1234  3.3965  1.1584
  404MOL0     H55734   6.910   3.473   1.919  0.2483  0.1889 -0.4966
  404MOL0     H55735   6.762   3.280   1.899 -1.6075  0.1169 -2.1484
  404MOL0     H55736   5.170   2.466   1.637 -0.5711  1.0155  0.5493
  404MOL0     H55737   4.966   2.473   1.491  0.7506  0.3995  0.0289
  404MOL0     H55738   4.921   2.820   1.095  1.2457 -2.2135 -0.6862
  404MOL0     H55739   4.774   2.956   0.964  0.8883 -0.5638 -0.9003
  404MOL0     H55740   4.570   3.067   0.929  4.4730 -0.7912 -1.5128
  404MOL0     H55741   4.617   3.005   0.774  3.1470  2.6961  2.5538
  404MOL0     H55742   4.369   2.980   0.694  1.8225  0.2348 -1.8467
  404MOL0     H55743   4.423   3.150   0.729 -1.7292 -0.0257 -0.2533
  404MOL0     H55744   4.251   2.980   0.909  1.3989 -1.2141 -0.7441
  404MOL0     H55745   4.313   3.142   0.947  1.3897 -1.3509  0.9016
  404MOL0     H55746   4.133   3.108   0.710  0.4759  2.1413 -1.2321
  404MOL0     H55747   4.205   3.249   0.802 -1.8396  1.2680  0.1425
  404MOL0     H55748   3.867   3.107   1.038  0.0735  0.7722 -0.1178
  404MOL0     H55749   4.460   2.666   1.003 -0.2570 -0.7396  0.8548
  404MOL0     H55750   4.677   2.409   1.104  3.1800  3.0521 -2.0973
  404MOL0     H55751   4.614   2.467   1.255  0.8097  0.3197 -0.3659
  404MOL0     H55752   4.511   2.452   1.109  1.2999 -1.5195  0.8291
  405MOL0     O55753  11.237   8.454   0.697 -0.7146 -1.1304  0.1866
  405MOL0     C55754  11.239   8.349   0.630 -0.1950 -0.4284  0.7450
  405MOL0     O55755  11.355   8.294   0.577  0.1194 -0.5242 -0.7231
  405MOL0     C55756  11.474   8.350   0.614 -0.3516 -0.7200 -0.6735
  405MOL0     C55757  11.558   8.418   0.530  0.8180  0.0350  0.2191
  405MOL0     C55758  11.682   8.466   0.565 -0.0207 -0.4278  0.3289
  405MOL0     C55759  11.729   8.432   0.696 -1.0193 -0.2953  0.0175
  405MOL0     O55760  11.864   8.448   0.718  0.1019  0.0188 -0.1638
  405MOL0     C55761  11.934   8.372   0.818  0.3408  0.0206 -0.5612
  405MOL0     C55762  12.091   8.383   0.801  0.5686  0.3300 -0.0442
  405MOL0     C55763  12.165   8.271   0.869  0.0523 -0.4940 -0.6755
  405MOL0     C55764  12.136   8.269   1.016 -0.4622  0.3907 -0.2046
  405MOL0     C55765  12.175   8.146   1.082 -0.2196 -0.2607 -1.0480
  405MOL0     C55766  12.326   8.136   1.110 -0.1224  0.1814 -0.1047
  405MOL0     C55767  12.351   7.991   1.144 -0.2580  0.7503 -0.0324
  405MOL0     C55768  12.428   7.931   1.027 -0.2291 -0.0960 -0.1264
  405MOL0     N55769  12.572   7.968   1.024  0.7279  0.2450 -0.0003
  405MOL0     C55770  12.632   8.009   0.910  0.5398  0.3561  0.2854
  405MOL0     C55771  12.759   8.039   0.949 -0.2270  0.0883  0.1036
  405MOL0     C55772  12.862   8.108   0.862  0.1753  0.0071  0.2610
  405MOL0     C55773  12.988   8.162   0.939 -0.0433 -0.7127  0.9057
  405MOL0     C55774  13.101   8.204   0.843  0.3195 -0.2564  0.8641
  405MOL0     C55775  13.237   8.180   0.901  0.2509 -0.9523 -0.4321
  405MOL0     O55776  13.272   8.045   0.893  0.3593  0.1968  0.6199
  405MOL0     C55777  13.396   8.008   0.932  0.0072 -0.5099 -0.3529
  405MOL0     C55778  13.432   7.883   0.891 -0.1554  1.1986  0.9094
  405MOL0     C55779  13.567   7.835   0.905  0.5370 -0.2896 -1.0256
  405MOL0     C55780  13.594   7.686   0.866  0.6941  0.0966 -0.7765
  405MOL0     C55781  13.666   7.921   0.970  0.6921 -0.0913  0.5619
  405MOL0     C55782  13.808   7.885   0.989 -0.4912 -0.9443 -1.1944
  405MOL0     O55783  13.841   7.759   0.956 -1.2521 -0.6208  0.6151
  405MOL0     C55784  13.969   7.703   0.971  0.1649  0.0592  0.4584
  405MOL0     C55785  14.044   7.736   1.082 -0.1376 -0.6811 -0.4567
  405MOL0     C55786  14.170   7.679   1.102 -0.5992  0.4613  0.2687
  405MOL0     C55787  14.225   7.590   1.007  0.3084  0.4313  0.1597
  405MOL0     O55788  14.349   7.529   1.011  0.7146 -0.1713  0.7132
  405MOL0     C55789  14.452   7.596   1.085  0.0190  0.0671  0.1797
  405MOL0     C55790  14.552   7.489   1.094 -0.9039  1.0918  0.1831
  405MOL0     C55791  14.692   7.527   1.145  0.6487 -0.6004  0.1072
  405MOL0     C55792  14.785   7.402   1.170  0.1016  0.7297 -0.5165
  405MOL0     C55793  14.924   7.423   1.146 -0.1047  0.8425  0.3073
  405MOL0     C55794  15.000   7.530   1.227 -0.8233 -0.1650 -0.5436
  405MOL0     C55795  15.039   7.473   1.370 -0.2810  0.5255 -0.1027
  405MOL0     C55796  15.138   7.560   1.435 -0.1664 -0.2511  0.5985
  405MOL0    Cl55797  15.298   7.554   1.361  0.3455 -0.2003  0.2713
  405MOL0     C55798  14.137   7.548   0.908 -0.1353 -0.0787  0.0323
  405MOL0     C55799  14.012   7.599   0.882 -0.5014 -0.6600  0.4383
  405MOL0     O55800  13.888   7.980   1.013 -0.4369 -0.1408  0.8338
  405MOL0     C55801  13.621   8.055   1.006 -0.1809  0.2217 -0.0584
  405MOL0     C55802  13.490   8.097   0.987  0.0354 -1.4899 -0.4414
  405MOL0     N55803  12.766   8.014   1.081 -0.0084 -0.5850  0.2028
  405MOL0     N55804  12.657   7.973   1.127 -0.0767  0.1595  0.4094
  405MOL0     C55805  11.648   8.352   0.778 -0.8071 -0.8792  0.3819
  405MOL0     C55806  11.519   8.312   0.746 -0.1385 -0.7096 -0.3657
  405MOL0     C55807  11.115   8.316   0.560  0.4093  0.4047 -0.2815
  405MOL0     C55808  11.010   8.416   0.566  0.0218  0.4498  0.0055
  405MOL0     C55809  10.904   8.409   0.481  0.3104  0.1784 -0.7990
  405MOL0     C55810  10.873   8.288   0.411 -0.3770 -0.6591  0.4848
  405MOL0     O55811  10.762   8.287   0.337  0.0224 -0.4412  0.2022
  405MOL0     C55812  10.689   8.163   0.325 -0.0191 -0.4936 -0.4349
  405MOL0     C55813  10.536   8.192   0.321 -0.1712 -0.4865 -0.0233
  405MOL0     C55814  10.501   8.291   0.208 -0.5481  0.0438  0.5981
  405MOL0     C55815  10.528   8.443   0.240  0.1227 -0.1809  0.2289
  405MOL0     C55816  10.436   8.484   0.346  0.1801 -0.3351 -0.3312
  405MOL0     C55817  10.351   8.513   0.426 -0.1778  0.7148 -0.2501
  405MOL0     C55818  10.960   8.179   0.428  0.5731 -0.5501 -0.2956
  405MOL0     C55819  11.078   8.192   0.499 -0.2698  0.9294 -0.4074
  405MOL0     C55820  11.165   8.072   0.504  0.3984 -0.5403  0.4388
  405MOL0     H55821  11.520   8.436   0.429 -0.5250 -3.3005  0.0099
  405MOL0     H55822  11.739   8.534   0.503  0.8002 -0.1595  1.3528
  405MOL0     H55823  11.903   8.268   0.800  0.4755 -0.2526  0.6642
  405MOL0     H55824  11.921   8.398   0.923 -0.9043 -5.1743  0.8858
  405MOL0     H55825  12.125   8.369   0.698  2.0140 -0.7038  0.5428
  405MOL0     H55826  12.127   8.478   0.843  1.3418 -0.1106  0.3065
  405MOL0     H55827  12.137   8.176   0.823 -1.4640  0.5178 -1.9539
  405MOL0     H55828  12.273   8.283   0.857  0.3677 -1.7000  0.6552
  405MOL0     H55829  12.194   8.343   1.072 -0.9077  0.4364  0.2005
  405MOL0     H55830  12.029   8.281   1.038 -0.6447  1.3631 -1.4370
  405MOL0     H55831  12.152   8.059   1.021  1.7055 -1.7731  0.2748
  405MOL0     H55832  12.110   8.134   1.169  0.3845  0.5814 -0.4583
  405MOL0     H55833  12.379   8.161   1.018  1.0951 -1.3551  0.1216
  405MOL0     H55834  12.356   8.207   1.188  2.5816 -0.6926 -0.2323
  405MOL0     H55835  12.260   7.936   1.169 -0.0930  0.7627  0.5995
  405MOL0     H55836  12.407   7.979   1.237  0.1163  0.7508 -0.2559
  405MOL0     H55837  12.423   7.822   1.043  2.4827 -0.6565 -2.2598
  405MOL0     H55838  12.381   7.956   0.932 -0.0154 -0.3406 -0.2990
  405MOL0     H55839  12.568   8.020   0.822 -0.0820 -3.8430  0.0002
  405MOL0     H55840  12.819   8.199   0.819  0.7343 -1.1173 -2.9076
  405MOL0     H55841  12.893   8.053   0.773 -1.5584  0.1884 -0.4935
  405MOL0     H55842  12.954   8.244   1.003 -1.4482  0.3017 -1.0377
  405MOL0     H55843  13.024   8.074   0.993  1.2999 -0.4430  0.4664
  405MOL0     H55844  13.099   8.155   0.745  1.5096 -3.6226  2.3747
  405MOL0     H55845  13.100   8.313   0.838  0.5977 -0.2649  0.5435
  405MOL0     H55846  13.315   8.242   0.856 -1.7058  0.8845 -1.4233
  405MOL0     H55847  13.225   8.209   1.006 -0.8065  0.5096 -0.9312
  405MOL0     H55848  13.358   7.822   0.838  2.1065  0.1705 -1.2893
  405MOL0     H55849  13.662   7.677   0.781  0.8148 -0.7310 -0.6040
  405MOL0     H55850  13.502   7.638   0.832  1.2064 -1.1506 -0.4549
  405MOL0     H55851  13.632   7.624   0.948 -1.8349 -0.1513  0.2949
  405MOL0     H55852  14.002   7.802   1.157  0.1905 -1.2764  0.2592
  405MOL0     H55853  14.232   7.703   1.188 -2.5782  3.2553  1.0352
  405MOL0     H55854  14.486   7.686   1.033 -1.0406  0.5881  0.3617
  405MOL0     H55855  14.429   7.622   1.189  1.2990  0.4431  0.3914
  405MOL0     H55856  14.519   7.402   1.152  0.0877  1.4798  1.3896
  405MOL0     H55857  14.547   7.445   0.994 -1.2315 -1.2778  1.1639
  405MOL0     H55858  14.684   7.580   1.240  0.2066  0.3369 -0.4338
  405MOL0     H55859  14.730   7.598   1.071  0.0627 -2.1307 -1.7417
  405MOL0     H55860  14.758   7.333   1.090 -1.4007  2.0076 -1.1476
  405MOL0     H55861  14.771   7.360   1.269  1.0579  1.1027 -0.2051
  405MOL0     H55862  14.961   7.324   1.173 -0.4851  0.6349  0.0662
  405MOL0     H55863  14.942   7.439   1.039  0.8954  1.8641  0.5988
  405MOL0     H55864  14.943   7.621   1.250 -0.1925  0.6378 -2.0198
  405MOL0     H55865  15.084   7.577   1.175 -1.9858  2.5089 -0.1926
  405MOL0     H55866  15.070   7.368   1.362 -0.9685  0.3376 -0.3454
  405MOL0     H55867  14.953   7.468   1.437 -1.3947 -3.1328 -1.5782
  405MOL0     H55868  15.156   7.526   1.537  1.4118 -2.6057 -0.3479
  405MOL0     H55869  15.095   7.660   1.432 -1.1805 -0.6864 -2.2694
  405MOL0     H55870  14.164   7.474   0.834 -1.3918  0.3180 -0.8481
  405MOL0     H55871  13.952   7.575   0.795 -1.6788 -1.8663  1.5183
  405MOL0     H55872  13.693   8.125   1.047 -0.4547  0.5599 -0.1455
  405MOL0     H55873  13.472   8.203   1.004  0.7733 -1.4796  0.3189
  405MOL0     H55874  11.679   8.315   0.876 -1.9064 -1.4082  0.5462
  405MOL0     H55875  11.477   8.254   0.827  2.6193  1.1778  2.6706
  405MOL0     H55876  11.027   8.508   0.621 -0.7436  0.0294  0.9801
  405MOL0     H55877  10.827   8.485   0.487  1.5315  1.4504 -0.5676
  405MOL0     H55878  10.713   8.104   0.236  1.0367 -0.8768  0.0761
  405MOL0     H55879  10.685   8.105   0.418  0.6145  2.1898  1.3704
  405MOL0     H55880  10.501   8.224   0.420  0.5269  0.9526 -0.2119
  405MOL0     H55881  10.484   8.097   0.309 -3.0413  0.0457  5.0803
  405MOL0     H55882  10.558   8.262   0.119 -1.0038 -0.3159  0.4128
  405MOL0     H55883  10.396   8.276   0.178  0.7186 -4.0198 -2.8530
  405MOL0     H55884  10.497   8.501   0.152 -1.0121  1.7567  1.8186
  405MOL0     H55885  10.634   8.465   0.257 -0.3784  0.6639  2.7103
  405MOL0     H55886  10.275   8.552   0.490  2.8827  2.6900  2.5193
  405MOL0     H55887  10.940   8.095   0.362 -1.2651 -0.8646  0.5967
  405MOL0     H55888  11.105   7.981   0.498 -0.9353  0.0004  3.5189
  405MOL0     H55889  11.247   8.065   0.432 -0.2064 -0.7900 -0.2367
  405MOL0     H55890  11.197   8.078   0.608 -0.4992  2.1684  0.6550
  406MOL0     O55891   6.675   9.635   1.843  1.0802  0.5219  0.3489
  406MOL0     C55892   6.657   9.628   1.968 -0.3501 -0.8192 -0.7336
  406MOL0     O55893   6.734   9.561   2.060 -0.0375  0.1115  0.7535
  406MOL0     C55894   6.866   9.530   2.030 -1.2241 -0.3730 -0.0145
  406MOL0     C55895   6.904   9.448   1.926  0.2505 -0.2484 -0.2745
  406MOL0     C55896   7.040   9.419   1.904 -0.4881  0.7562 -0.4602
  406MOL0     C55897   7.140   9.485   1.981  0.2308 -0.5238 -0.7011
  406MOL0     O55898   7.267   9.446   1.953  1.0458 -0.1634 -0.3980
  406MOL0     C55899   7.369   9.546   1.980  0.0595 -0.2044 -0.2185
  406MOL0     C55900   7.498   9.501   1.913 -0.1120 -0.3314 -0.4306
  406MOL0     C55901   7.607   9.602   1.931 -0.3738 -0.8617 -0.9139
  406MOL0     C55902   7.746   9.536   1.899 -0.4426 -0.5903 -0.8661
  406MOL0     C55903   7.858   9.623   1.951 -0.4331 -0.0047 -0.5502
  406MOL0     C55904   7.992   9.546   1.948  0.7154  0.3191  0.0350
  406MOL0     C55905   8.013   9.449   2.062  0.1033  0.2274 -0.4071
  406MOL0     C55906   8.134   9.352   2.041  0.6861 -0.4043  0.1049
  406MOL0     N55907   8.265   9.418   2.067  0.0846  0.1852 -0.2530
  406MOL0     C55908   8.361   9.431   1.969 -0.1114 -0.6987  0.0790
  406MOL0     C55909   8.465   9.492   2.031 -0.3337 -0.0696  0.2302
  406MOL0     C55910   8.602   9.535   1.975 -0.4958 -0.9741  1.0013
  406MOL0     C55911   8.727   9.485   2.055 -0.1169  0.1608  0.5254
  406MOL0     C55912   8.854   9.534   1.995  0.2096  0.4787  0.2909
  406MOL0     C55913   8.966   9.437   2.021  0.1810 -0.1729 -0.0641
  406MOL0     O55914   9.099   9.480   1.998 -0.1669  0.3592  0.3224
  406MOL0     C55915   9.129   9.515   1.864 -0.2228  1.1743  0.7325
  406MOL0     C55916   9.192   9.633   1.834  0.1971  0.1777 -0.6141
  406MOL0     C55917   9.228   9.666   1.702  0.9086  0.3870 -0.2379
  406MOL0     C55918   9.291   9.795   1.679  0.2140 -0.2020 -0.6094
  406MOL0     C55919   9.187   9.587   1.597  0.1660  0.2743  0.6175
  406MOL0     C55920   9.213   9.621   1.460  0.4380  0.2932 -0.8333
  406MOL0     O55921   9.112   9.643   1.375 -0.2794  0.1503 -0.3009
  406MOL0     C55922   8.980   9.644   1.405 -0.8287  0.3633 -0.5981
  406MOL0     C55923   8.883   9.576   1.327  0.5887  0.1423 -0.0958
  406MOL0     C55924   8.743   9.568   1.356 -0.4463 -0.1077  0.2781
  406MOL0     C55925   8.695   9.625   1.475  0.5676 -0.3096 -0.4158
  406MOL0     O55926   8.565   9.607   1.517  0.1438 -0.0857  0.6744
  406MOL0     C55927   8.496   9.495   1.479 -0.0347  0.9272  0.4603
  406MOL0     C55928   8.382   9.456   1.581  0.3049 -0.2062  0.6605
  406MOL0     C55929   8.275   9.370   1.522  0.0792  0.3232  0.4262
  406MOL0     C55930   8.142   9.385   1.603  0.2400  0.7644  0.0817
  406MOL0     C55931   8.009   9.323   1.562  0.5964  0.6368  0.3481
  406MOL0     C55932   8.028   9.170   1.558  0.0423 -0.1789  0.1475
  406MOL0     C55933   7.901   9.102   1.559  0.7487  0.7050 -0.0369
  406MOL0     C55934   7.897   8.949   1.551 -0.3914 -0.2366 -0.5611
  406MOL0    Cl55935   8.019   8.875   1.664 -0.4174 -0.0908  0.1633
  406MOL0     C55936   8.791   9.690   1.558 -0.3409 -0.1642  0.4359
  406MOL0     C55937   8.926   9.697   1.528  0.7586  0.1000  0.2632
  406MOL0     O55938   9.326   9.613   1.428  0.4238 -0.1678  0.3887
  406MOL0     C55939   9.126   9.463   1.627  0.1587 -0.0416 -1.2313
  406MOL0     C55940   9.104   9.422   1.763 -0.2174  0.2935  0.6551
  406MOL0     N55941   8.424   9.513   2.163 -1.0047  0.2807  0.3918
  406MOL0     N55942   8.305   9.475   2.180  0.1676  0.6697 -0.6712
  406MOL0     C55943   7.101   9.575   2.079 -0.2391 -0.9190 -0.1038
  406MOL0     C55944   6.966   9.594   2.103 -0.1038 -0.0751  0.1472
  406MOL0     C55945   6.524   9.681   2.022  0.2960 -1.0173 -0.4121
  406MOL0     C55946   6.511   9.676   2.162 -0.1840 -0.2457 -0.2702
  406MOL0     C55947   6.387   9.707   2.231  0.1442  0.1227  0.2546
  406MOL0     C55948   6.281   9.759   2.163  0.3597 -0.4898  0.1631
  406MOL0     O55949   6.157   9.773   2.218 -0.1672  0.3148  0.0734
  406MOL0     C55950   6.119   9.900   2.281 -1.4729 -0.6254 -0.3467
  406MOL0     C55951   6.056  10.006   2.192  0.3690  0.1612  1.2308
  406MOL0     C55952   6.043  10.153   2.245 -0.7659  0.0815  0.5252
  406MOL0     C55953   5.945  10.177   2.366 -0.7755  0.8492  0.3504
  406MOL0     C55954   5.815  10.113   2.338  0.1252 -0.5666  0.1801
  406MOL0     C55955   5.708  10.063   2.318  0.1404  0.2923 -0.3497
  406MOL0     C55956   6.294   9.786   2.022  0.3619 -0.2962 -0.3279
  406MOL0     C55957   6.415   9.749   1.952 -0.2726  0.2653 -0.5335
  406MOL0     C55958   6.405   9.766   1.802 -0.0177 -0.8222 -0.0154
  406MOL0     H55959   6.835   9.386   1.869  0.6078  0.7092 -1.7770
  406MOL0     H55960   7.068   9.334   1.843  1.7907 -0.9111  2.6489
  406MOL0     H55961   7.382   9.558   2.088 -0.9080 -0.6628 -0.0363
  406MOL0     H55962   7.342   9.642   1.937  2.4616 -0.5807 -2.8464
  406MOL0     H55963   7.519   9.403   1.957 -1.2547 -1.3320 -1.9712
  406MOL0     H55964   7.483   9.488   1.805  0.0460 -1.4159 -0.3320
  406MOL0     H55965   7.584   9.683   1.860  1.0169  0.4614  0.0713
  406MOL0     H55966   7.619   9.653   2.027  0.3269 -1.1159 -0.8643
  406MOL0     H55967   7.748   9.443   1.957 -2.2519  1.0706  2.1010
  406MOL0     H55968   7.745   9.514   1.791 -0.6792 -0.6276 -0.8563
  406MOL0     H55969   7.826   9.646   2.053 -2.5447 -3.0457 -0.4011
  406MOL0     H55970   7.871   9.721   1.903  1.5064 -0.5102 -1.1348
  406MOL0     H55971   7.995   9.497   1.850  1.7784  3.6588 -1.8015
  406MOL0     H55972   8.064   9.628   1.958 -1.1370  1.8912  1.3111
  406MOL0     H55973   7.926   9.386   2.082  0.2445  0.6479  1.6875
  406MOL0     H55974   8.032   9.503   2.155 -0.5095 -2.5044  1.4371
  406MOL0     H55975   8.115   9.264   2.104  0.9001 -0.3522  0.2451
  406MOL0     H55976   8.134   9.309   1.941 -3.0746 -1.6533  0.4732
  406MOL0     H55977   8.348   9.392   1.869 -3.4360 -0.4529  0.2768
  406MOL0     H55978   8.600   9.644   1.981  0.6315 -0.8785 -0.0274
  406MOL0     H55979   8.608   9.511   1.868  1.8000  0.4797  0.7295
  406MOL0     H55980   8.725   9.517   2.160  0.9883  0.0084  0.6044
  406MOL0     H55981   8.728   9.375   2.059 -1.4198  0.1040 -0.1249
  406MOL0     H55982   8.843   9.543   1.886 -0.7039 -0.9756  0.2338
  406MOL0     H55983   8.876   9.631   2.041  2.2434  0.2698 -0.1701
  406MOL0     H55984   8.958   9.381   2.115  1.4909 -1.5274 -0.7204
  406MOL0     H55985   8.944   9.354   1.954  1.1307  0.0784 -0.7007
  406MOL0     H55986   9.223   9.699   1.915 -3.0256 -1.7752  2.4997
  406MOL0     H55987   9.398   9.786   1.655  0.5884  2.8066 -0.5538
  406MOL0     H55988   9.291   9.866   1.763 -1.6680 -0.8742 -0.0013
  406MOL0     H55989   9.244   9.850   1.597 -0.8370 -1.2946 -0.7639
  406MOL0     H55990   8.920   9.541   1.231  0.3242 -0.3098 -0.0358
  406MOL0     H55991   8.680   9.531   1.276 -1.3620  1.3426  0.2958
  406MOL0     H55992   8.453   9.513   1.380  0.1034 -1.4959 -0.0926
  406MOL0     H55993   8.565   9.411   1.471 -0.8268  0.4005 -1.2683
  406MOL0     H55994   8.437   9.410   1.664  0.9947  0.4625  0.5878
  406MOL0     H55995   8.329   9.548   1.610 -1.6780  0.8747 -5.0732
  406MOL0     H55996   8.309   9.267   1.525  0.6154  0.3755 -1.8767
  406MOL0     H55997   8.250   9.384   1.416 -2.1928  0.3845  0.9107
  406MOL0     H55998   8.116   9.491   1.605 -2.3210  0.2384 -0.6364
  406MOL0     H55999   8.170   9.356   1.704 -1.1945  2.0588  0.8906
  406MOL0     H56000   7.933   9.360   1.631  0.5628 -1.4786  1.5486
  406MOL0     H56001   7.985   9.351   1.459 -0.7406 -1.6049 -0.0158
  406MOL0     H56002   8.087   9.136   1.644  2.1544  2.1154 -0.2781
  406MOL0     H56003   8.087   9.139   1.472  2.3239  1.2176  1.1058
  406MOL0     H56004   7.834   9.137   1.480  2.1939  1.4630 -0.9815
  406MOL0     H56005   7.847   9.122   1.652 -0.2438 -3.4417  0.4993
  406MOL0     H56006   7.917   8.925   1.447 -0.6461 -0.2481 -0.6080
  406MOL0     H56007   7.794   8.914   1.565  0.4005 -1.9727  1.4176
  406MOL0     H56008   8.754   9.744   1.644 -0.3777 -0.9409  0.9158
  406MOL0     H56009   8.979   9.753   1.604  0.7686  0.6165 -0.1142
  406MOL0     H56010   9.094   9.397   1.547  0.5738 -0.6800 -0.8793
  406MOL0     H56011   9.062   9.325   1.787 -0.2397  0.3761  0.9564
  406MOL0     H56012   7.177   9.633   2.130  0.6686  0.5429 -2.9118
  406MOL0     H56013   6.914   9.656   2.175 -1.5635 -1.5344  0.4293
  406MOL0     H56014   6.592   9.642   2.225  2.5534  1.6417 -2.5545
  406MOL0     H56015   6.376   9.683   2.336  1.1870 -3.3272 -0.2824
  406MOL0     H56016   6.051   9.886   2.365 -1.3770  0.6782 -0.0335
  406MOL0     H56017   6.214   9.938   2.320 -2.6130 -0.4024  2.4355
  406MOL0     H56018   5.959   9.975   2.150  1.1362  0.6520 -1.0535
  406MOL0     H56019   6.119  10.019   2.103  0.2885 -2.9056  0.6186
  406MOL0     H56020   6.143  10.193   2.263 -1.6141  1.9757  1.2930
  406MOL0     H56021   6.003  10.219   2.168  4.5465  0.9213 -1.9216
  406MOL0     H56022   5.923  10.279   2.397  2.4905  2.0467 -0.8299
  406MOL0     H56023   5.990  10.136   2.456  0.3757 -0.3516 -0.7183
  406MOL0     H56024   5.612  10.018   2.303 -0.5517  1.5382  0.2260
  406MOL0     H56025   6.218   9.839   1.965 -0.3757  2.3201  2.8135
  406MOL0     H56026   6.325   9.836   1.777  2.1582  1.4026 -1.1792
  406MOL0     H56027   6.494   9.815   1.761 -0.4597  2.3399  2.3767
  406MOL0     H56028   6.389   9.669   1.754 -3.4664 -0.2194 -0.3568
  407MOL0     O56029   4.514   8.905   0.537 -0.4346 -0.4342  0.2830
  407MOL0     C56030   4.437   8.891   0.446 -0.3420 -0.4642 -0.3648
  407MOL0     O56031   4.488   8.856   0.310  0.5953 -0.6912 -0.7972
  407MOL0     C56032   4.611   8.795   0.300  0.1297 -0.0435 -1.3685
  407MOL0     C56033   4.634   8.662   0.264 -0.0618  0.8934  0.9509
  407MOL0     C56034   4.766   8.617   0.234 -0.6812  0.1264 -0.2394
  407MOL0     C56035   4.877   8.707   0.246  0.2211  0.1532 -0.6250
  407MOL0     O56036   5.002   8.678   0.197 -0.4756 -0.1901  0.5776
  407MOL0     C56037   5.075   8.603   0.295  0.4190 -1.0298 -0.3005
  407MOL0     C56038   5.227   8.610   0.267 -0.1885  0.4554  0.2676
  407MOL0     C56039   5.313   8.575   0.391 -0.3866  0.4102  0.4022
  407MOL0     C56040   5.460   8.621   0.365  0.6522  0.3714  0.4673
  407MOL0     C56041   5.537   8.619   0.499  0.1030  0.1650  0.2962
  407MOL0     C56042   5.679   8.626   0.455  0.0605 -0.4460 -0.8468
  407MOL0     C56043   5.769   8.614   0.575  0.1614 -0.9321  0.2121
  407MOL0     C56044   5.806   8.473   0.604  0.1490  0.7638 -1.1463
  407MOL0     N56045   5.904   8.482   0.718 -0.2022  0.8759  0.4253
  407MOL0     C56046   6.039   8.451   0.709 -0.4927 -0.3545  0.3299
  407MOL0     C56047   6.091   8.466   0.833 -0.5822  0.2791 -0.3798
  407MOL0     C56048   6.235   8.475   0.889 -0.4368 -0.2810  0.3778
  407MOL0     C56049   6.299   8.605   0.835 -0.2291 -0.8888  0.4178
  407MOL0     C56050   6.340   8.595   0.691 -0.3092  0.1598  1.2855
  407MOL0     C56051   6.493   8.597   0.681 -0.9325  0.3383  0.4535
  407MOL0     O56052   6.532   8.728   0.735 -0.6761 -0.9859 -0.6624
  407MOL0     C56053   6.669   8.769   0.729  0.8634  0.7646 -0.5440
  407MOL0     C56054   6.697   8.877   0.805 -0.2331  0.5443 -0.0673
  407MOL0     C56055   6.828   8.935   0.815 -0.2396 -0.0730  0.1011
  407MOL0     C56056   6.851   9.055   0.906  0.2622  0.7947  0.6890
  407MOL0     C56057   6.931   8.865   0.748 -0.1879  0.4798  0.8636
  407MOL0     C56058   7.077   8.900   0.766  0.0590  0.5150  0.2787
  407MOL0     O56059   7.175   8.809   0.792  0.3951  0.0519  0.2980
  407MOL0     C56060   7.300   8.826   0.744  0.4296 -0.1133 -0.5237
  407MOL0     C56061   7.402   8.800   0.842 -0.0672  0.7004  1.2441
  407MOL0     C56062   7.537   8.815   0.805 -0.6997 -0.5079  0.6566
  407MOL0     C56063   7.573   8.850   0.675 -0.2262 -0.1376  0.1732
  407MOL0     O56064   7.706   8.868   0.646 -0.2744  0.1862 -0.2835
  407MOL0     C56065   7.743   8.806   0.523 -0.7716  0.0359  0.0942
  407MOL0     C56066   7.900   8.773   0.520 -0.7146 -0.1141 -0.7999
  407MOL0     C56067   7.934   8.644   0.588 -1.0454 -0.5418 -0.3365
  407MOL0     C56068   7.922   8.662   0.735 -0.1746  0.6237 -0.1364
  407MOL0     C56069   7.983   8.541   0.806  0.6717 -0.8024 -0.2177
  407MOL0     C56070   8.142   8.560   0.819 -0.5604  0.4423  1.2356
  407MOL0     C56071   8.209   8.440   0.902 -0.4112 -0.3267 -0.6518
  407MOL0     C56072   8.169   8.460   1.050  0.8440 -0.0889  0.3111
  407MOL0    Cl56073   8.285   8.365   1.147 -0.5750  0.1963  0.3103
  407MOL0     C56074   7.468   8.882   0.583 -0.7478 -0.1347 -1.2476
  407MOL0     C56075   7.334   8.861   0.611  0.4948 -0.4316  0.1808
  407MOL0     O56076   7.097   9.017   0.737  0.1205 -0.0032  0.3024
  407MOL0     C56077   6.906   8.751   0.663 -1.3792  0.4498 -0.4178
  407MOL0     C56078   6.778   8.700   0.662  0.0589 -0.6203  0.3989
  407MOL0     N56079   5.984   8.492   0.917 -0.0156  0.0412 -0.8324
  407MOL0     N56080   5.870   8.498   0.851 -0.7703 -0.2324 -0.0573
  407MOL0     C56081   4.851   8.838   0.290  0.4255 -0.2292  0.2896
  407MOL0     C56082   4.718   8.881   0.309 -0.0909  0.2159 -0.5177
  407MOL0     C56083   4.299   8.923   0.458  0.0001 -0.3161  0.4902
  407MOL0     C56084   4.222   8.963   0.346 -0.2198 -0.3512 -0.2256
  407MOL0     C56085   4.085   8.996   0.352  0.3032  0.3618 -0.1344
  407MOL0     C56086   4.015   8.962   0.469  0.5396 -0.0333  0.4258
  407MOL0     O56087   3.872   8.964   0.476 -0.8936 -0.3271 -0.2045
  407MOL0     C56088   3.796   8.991   0.359 -0.7793  0.1671 -0.1349
  407MOL0     C56089   3.782   8.870   0.265  0.3207  0.5901  0.2560
  407MOL0     C56090   3.664   8.780   0.301 -0.0804  0.2206  0.5170
  407MOL0     C56091   3.547   8.848   0.233 -0.1124  0.7912  0.7178
  407MOL0     C56092   3.425   8.822   0.310  0.0720  0.1987 -0.4331
  407MOL0     C56093   3.328   8.811   0.372 -0.1267  0.3907 -0.5702
  407MOL0     C56094   4.091   8.915   0.574  0.5495  0.2037 -0.2939
  407MOL0     C56095   4.230   8.901   0.577 -0.6241  0.3679  0.1050
  407MOL0     C56096   4.296   8.838   0.703 -0.2929  0.5552 -0.4895
  407MOL0     H56097   4.553   8.589   0.259  0.2230  0.6310 -0.0659
  407MOL0     H56098   4.778   8.513   0.206  0.3390  0.4234 -0.9697
  407MOL0     H56099   5.026   8.506   0.307 -0.0325 -0.6971  0.6450
  407MOL0     H56100   5.048   8.651   0.389 -0.1226  0.1634 -1.0320
  407MOL0     H56101   5.241   8.553   0.175 -1.4244 -0.0565  0.3728
  407MOL0     H56102   5.256   8.712   0.241 -3.1279  2.1394  2.9601
  407MOL0     H56103   5.264   8.606   0.484 -1.2255  3.2654 -0.8789
  407MOL0     H56104   5.321   8.466   0.394 -0.1762  0.4263  0.4496
  407MOL0     H56105   5.506   8.557   0.289  1.1610  3.4390 -2.0377
  407MOL0     H56106   5.456   8.721   0.320 -2.0110 -0.0568 -0.3938
  407MOL0     H56107   5.518   8.529   0.557  0.4735  2.5122  4.4558
  407MOL0     H56108   5.500   8.701   0.560 -1.0792  0.4202 -0.7210
  407MOL0     H56109   5.709   8.547   0.384  0.9740 -0.2043 -0.7461
  407MOL0     H56110   5.692   8.725   0.411  0.8643  0.0704  0.4987
  407MOL0     H56111   5.733   8.660   0.667  2.2629 -1.2702  1.2787
  407MOL0     H56112   5.860   8.671   0.552 -0.0550  0.4792  2.5292
  407MOL0     H56113   5.717   8.417   0.634  0.5843  0.7932  0.2799
  407MOL0     H56114   5.859   8.435   0.517  0.2074  0.6493 -1.0606
  407MOL0     H56115   6.089   8.428   0.616 -2.2234  0.8430 -0.9649
  407MOL0     H56116   6.304   8.394   0.859  0.9200  1.3783 -1.2853
  407MOL0     H56117   6.224   8.477   0.997 -3.5888  0.1125  0.1243
  407MOL0     H56118   6.231   8.690   0.847  0.0655 -0.6861  0.6454
  407MOL0     H56119   6.379   8.635   0.904  0.2459  0.6683 -0.7637
  407MOL0     H56120   6.299   8.506   0.641 -2.3287 -0.0168  3.0805
  407MOL0     H56121   6.303   8.678   0.631  3.4949 -0.4341 -2.3340
  407MOL0     H56122   6.525   8.508   0.736 -1.3293 -0.1891 -0.1556
  407MOL0     H56123   6.532   8.584   0.580  0.7092  0.4811  1.0300
  407MOL0     H56124   6.620   8.924   0.866  0.0910 -0.2976  1.0329
  407MOL0     H56125   6.876   9.132   0.832  0.3782  1.2491  1.1960
  407MOL0     H56126   6.937   9.034   0.970 -0.2604  1.6364  1.6934
  407MOL0     H56127   6.767   9.092   0.966  2.0432  1.7764  2.6936
  407MOL0     H56128   7.391   8.787   0.949 -0.0268  0.0598  1.1771
  407MOL0     H56129   7.624   8.795   0.866  0.7691 -1.4195 -1.6067
  407MOL0     H56130   7.694   8.710   0.510  0.6100 -0.9209  1.6378
  407MOL0     H56131   7.730   8.879   0.442  0.6413 -1.2936 -1.4299
  407MOL0     H56132   7.918   8.762   0.412 -4.0565 -2.2767 -1.2946
  407MOL0     H56133   7.948   8.856   0.572 -2.3416 -0.6882  1.8141
  407MOL0     H56134   8.040   8.628   0.564 -0.7101  1.5862 -0.4841
  407MOL0     H56135   7.878   8.563   0.541 -3.0434  1.5674 -1.7422
  407MOL0     H56136   7.821   8.669   0.775 -0.3799  3.2401 -0.9105
  407MOL0     H56137   7.965   8.757   0.770 -0.3279  1.2237 -1.5174
  407MOL0     H56138   7.939   8.534   0.906 -1.0812 -0.9823 -0.9643
  407MOL0     H56139   7.956   8.444   0.763  1.7268 -1.2109 -0.0123
  407MOL0     H56140   8.185   8.647   0.870  2.3162  0.8490 -1.5652
  407MOL0     H56141   8.186   8.554   0.719 -1.2052 -3.7174  1.0418
  407MOL0     H56142   8.317   8.426   0.903 -0.2897  0.4318  1.1676
  407MOL0     H56143   8.173   8.341   0.872  1.9771 -1.9532  1.4786
  407MOL0     H56144   8.069   8.421   1.064  1.4711 -1.3833  1.3076
  407MOL0     H56145   8.174   8.566   1.078 -1.2832 -0.2004  1.2734
  407MOL0     H56146   7.489   8.918   0.483  0.6610  2.5363 -0.1088
  407MOL0     H56147   7.263   8.885   0.533 -1.3820 -3.5190  0.7388
  407MOL0     H56148   6.989   8.700   0.615 -2.7142 -1.6511 -0.6594
  407MOL0     H56149   6.759   8.611   0.602  1.1009  0.5268 -1.7582
  407MOL0     H56150   4.934   8.903   0.314 -1.0746  2.3481 -1.0587
  407MOL0     H56151   4.688   8.984   0.325  0.2579  0.3984 -0.9995
  407MOL0     H56152   4.270   8.967   0.249 -1.9538  4.5146 -1.1460
  407MOL0     H56153   4.055   9.030   0.254  2.0727  2.2405 -0.0816
  407MOL0     H56154   3.695   9.024   0.384 -1.7003 -2.2125 -0.4754
  407MOL0     H56155   3.851   9.067   0.302  1.7120 -0.3178  1.4674
  407MOL0     H56156   3.876   8.813   0.267  0.5143  0.8656 -0.7235
  407MOL0     H56157   3.780   8.904   0.161 -0.9889  0.7302  0.3076
  407MOL0     H56158   3.687   8.678   0.270  0.0497  0.9503 -1.9905
  407MOL0     H56159   3.647   8.775   0.409  4.7871  2.1595  1.6420
  407MOL0     H56160   3.547   8.817   0.128  0.2550 -0.4185  1.0637
  407MOL0     H56161   3.551   8.958   0.229  0.1077  0.7470 -1.6009
  407MOL0     H56162   3.250   8.789   0.442 -1.9342  2.0504 -1.9813
  407MOL0     H56163   4.040   8.889   0.666 -0.3038 -0.4868 -0.9354
  407MOL0     H56164   4.325   8.735   0.685 -1.6931  0.2262 -0.9628
  407MOL0     H56165   4.378   8.904   0.732 -0.2023  0.5776 -0.7994
  407MOL0     H56166   4.217   8.830   0.779  1.4049 -0.7333  1.2380
  408MOL0     O56167   6.050   9.456   4.336 -0.7627 -0.3692 -0.3992
  408MOL0     C56168   6.005   9.571   4.371  0.4030 -0.7537 -0.0884
  408MOL0     O56169   6.084   9.675   4.411 -0.0449  0.2099 -0.2791
  408MOL0     C56170   6.220   9.657   4.424  0.3255 -0.7889 -0.0105
  408MOL0     C56171   6.312   9.677   4.308  0.0075 -0.5888 -0.8502
  408MOL0     C56172   6.444   9.640   4.326  0.3171 -0.3724 -0.8936
  408MOL0     C56173   6.494   9.593   4.449  0.6649 -0.1744  0.3432
  408MOL0     O56174   6.618   9.541   4.464  0.3334 -0.3749  0.6114
  408MOL0     C56175   6.734   9.591   4.407  0.3566 -0.3252 -0.5624
  408MOL0     C56176   6.833   9.601   4.520  0.1081 -0.1262 -0.5781
  408MOL0     C56177   6.966   9.650   4.463 -0.6873  0.5082  0.1528
  408MOL0     C56178   7.075   9.655   4.564  0.2121 -0.1193  0.5436
  408MOL0     C56179   7.210   9.660   4.494  0.1817 -1.1988 -0.0484
  408MOL0     C56180   7.220   9.800   4.415  0.0164  0.6941 -0.2210
  408MOL0     C56181   7.367   9.812   4.366 -0.3153  0.4819  0.3517
  408MOL0     C56182   7.380   9.931   4.272  0.4664  0.8186 -0.5965
  408MOL0     N56183   7.364   9.892   4.136  0.3435  0.1223 -0.6431
  408MOL0     C56184   7.471   9.882   4.055  0.4021 -0.2067  0.3972
  408MOL0     C56185   7.431   9.831   3.941  0.4885 -0.0525  0.0240
  408MOL0     C56186   7.505   9.769   3.827 -0.3403 -0.2420  1.1139
  408MOL0     C56187   7.528   9.615   3.855  0.4332  0.3257 -0.0080
  408MOL0     C56188   7.654   9.569   3.773 -0.8320 -0.3801  0.2595
  408MOL0     C56189   7.669   9.417   3.772 -0.6355  0.3112 -0.3401
  408MOL0     O56190   7.780   9.373   3.854 -0.1765  0.2102  0.0453
  408MOL0     C56191   7.821   9.239   3.861  0.3844 -0.7758 -0.4031
  408MOL0     C56192   7.762   9.135   3.789  0.2206  0.5799  0.4217
  408MOL0     C56193   7.809   9.001   3.799  0.5523  0.2136 -0.6621
  408MOL0     C56194   7.719   8.897   3.733  0.2707  0.7043 -0.0087
  408MOL0     C56195   7.915   8.972   3.876  1.2029  0.2542 -0.1337
  408MOL0     C56196   7.979   8.848   3.878  0.3605  0.5466 -0.4663
  408MOL0     O56197   8.065   8.827   3.986  0.3123 -0.1207  0.4771
  408MOL0     C56198   8.155   8.728   4.008 -0.2719  0.3492 -0.1134
  408MOL0     C56199   8.134   8.599   3.960  0.2506  0.1147  0.4391
  408MOL0     C56200   8.221   8.492   3.990 -0.5779  0.4126 -0.6671
  408MOL0     C56201   8.347   8.510   4.051 -0.7237  0.4150  0.1785
  408MOL0     O56202   8.418   8.403   4.075 -0.6302 -0.0401 -0.5855
  408MOL0     C56203   8.560   8.428   4.098  0.4469 -0.3424 -1.2010
  408MOL0     C56204   8.587   8.422   4.251  0.4980 -0.3070 -0.1510
  408MOL0     C56205   8.557   8.286   4.322  0.1819 -0.0410 -0.7914
  408MOL0     C56206   8.622   8.163   4.255 -0.6107 -1.3527 -0.2001
  408MOL0     C56207   8.773   8.153   4.244  0.8530 -0.8936 -0.0089
  408MOL0     C56208   8.833   8.188   4.373  0.5758 -0.0217 -0.5209
  408MOL0     C56209   8.984   8.158   4.380  0.0359 -0.1577 -0.5373
  408MOL0     C56210   9.054   8.223   4.500  0.3046 -0.2610  0.0893
  408MOL0    Cl56211   8.961   8.178   4.655  0.0178 -0.0826 -0.1307
  408MOL0     C56212   8.371   8.648   4.095 -1.2607  0.6573 -0.5646
  408MOL0     C56213   8.276   8.748   4.076  0.4014  0.0805  0.7312
  408MOL0     O56214   7.965   8.767   3.784  0.4900 -0.4540  0.0306
  408MOL0     C56215   7.988   9.083   3.931 -0.1765  0.7994 -0.8819
  408MOL0     C56216   7.938   9.211   3.921 -0.3669  0.5440 -0.6593
  408MOL0     N56217   7.293   9.815   3.957  0.9213 -0.4009  0.3508
  408MOL0     N56218   7.253   9.846   4.076 -0.3223  0.0014 -0.1530
  408MOL0     C56219   6.408   9.577   4.559 -0.1262  0.0756  0.8791
  408MOL0     C56220   6.274   9.613   4.550 -0.0334  1.2874 -0.3893
  408MOL0     C56221   5.857   9.585   4.369  0.1803 -0.2861 -0.6527
  408MOL0     C56222   5.779   9.497   4.288  0.4209  0.1127  0.5939
  408MOL0     C56223   5.645   9.491   4.287  0.4839 -0.0818  0.6945
  408MOL0     C56224   5.574   9.570   4.377  0.7575 -0.1598  0.2040
  408MOL0     O56225   5.435   9.577   4.378  0.6172  0.6807 -0.1788
  408MOL0     C56226   5.356   9.485   4.291  0.0165 -0.3209 -0.3145
  408MOL0     C56227   5.345   9.530   4.148 -0.0984 -0.2901  0.5120
  408MOL0     C56228   5.248   9.445   4.068 -0.4258  0.3717  0.1221
  408MOL0     C56229   5.096   9.462   4.094  0.8512  0.3864 -0.2811
  408MOL0     C56230   5.032   9.338   4.052  1.0825  0.4291  0.0687
  408MOL0     C56231   4.973   9.235   4.020 -0.5086  0.1555 -0.0855
  408MOL0     C56232   5.644   9.659   4.465 -0.2216  0.0796  0.3264
  408MOL0     C56233   5.787   9.668   4.457  0.3307  0.2814  0.0927
  408MOL0     C56234   5.845   9.792   4.510 -0.2334 -0.1273  0.7555
  408MOL0     H56235   6.266   9.714   4.217  0.1033  0.6315 -0.4120
  408MOL0     H56236   6.500   9.641   4.233 -0.3963  3.7395 -1.4767
  408MOL0     H56237   6.723   9.692   4.369  3.2548  0.8331  1.3342
  408MOL0     H56238   6.779   9.528   4.330  0.8386 -0.1306 -0.4421
  408MOL0     H56239   6.803   9.674   4.596  0.0180  2.9202 -3.3136
  408MOL0     H56240   6.842   9.499   4.558 -4.0802 -0.8666 -1.1832
  408MOL0     H56241   7.001   9.587   4.381 -1.0234 -2.0035  1.8145
  408MOL0     H56242   6.951   9.753   4.428  4.6091  1.7570  0.7719
  408MOL0     H56243   7.065   9.744   4.628 -0.1134  2.1592 -2.4392
  408MOL0     H56244   7.074   9.563   4.623 -1.4264  1.6029  3.4257
  408MOL0     H56245   7.215   9.581   4.418  1.5642  0.9955 -2.3997
  408MOL0     H56246   7.294   9.643   4.562  1.8008  1.2179 -1.3203
  408MOL0     H56247   7.154   9.790   4.329 -0.7475  2.0215  0.1920
  408MOL0     H56248   7.189   9.892   4.465  0.8656  1.5792 -1.2630
  408MOL0     H56249   7.408   9.720   4.322  0.1678 -0.2868  2.3185
  408MOL0     H56250   7.427   9.846   4.450 -1.1433 -0.9148  1.5464
  408MOL0     H56251   7.304  10.007   4.295 -0.3061 -0.4876  1.3917
  408MOL0     H56252   7.473   9.984   4.295 -1.7244  3.3260  3.7245
  408MOL0     H56253   7.577   9.892   4.074  0.3209 -1.9260  2.1434
  408MOL0     H56254   7.596   9.826   3.809 -0.0312 -1.4704 -1.6453
  408MOL0     H56255   7.444   9.779   3.736 -0.1339 -0.2718  0.9725
  408MOL0     H56256   7.541   9.612   3.963 -0.3969 -0.1731  0.0843
  408MOL0     H56257   7.438   9.559   3.827  1.5341 -1.4382 -0.1746
  408MOL0     H56258   7.632   9.595   3.669  0.5162 -2.4786 -0.6114
  408MOL0     H56259   7.735   9.628   3.816 -1.9739  2.5159 -1.3168
  408MOL0     H56260   7.574   9.368   3.797 -0.7649  0.8499  0.2322
  408MOL0     H56261   7.686   9.402   3.665 -0.2179 -0.9984 -0.1029
  408MOL0     H56262   7.672   9.153   3.731  1.3880 -0.2001 -1.7360
  408MOL0     H56263   7.635   8.949   3.688  0.4776  3.2433  2.3025
  408MOL0     H56264   7.678   8.825   3.805 -0.0794  1.0107  0.0990
  408MOL0     H56265   7.781   8.844   3.659  0.5781  1.7251 -0.4989
  408MOL0     H56266   8.040   8.567   3.916  0.1199 -0.3951  1.0730
  408MOL0     H56267   8.206   8.391   3.953  1.0671 -0.5874  1.2150
  408MOL0     H56268   8.616   8.351   4.043  2.0204 -0.0221 -0.1299
  408MOL0     H56269   8.592   8.527   4.062  1.9823 -0.1200  0.6132
  408MOL0     H56270   8.694   8.444   4.262  1.4922 -3.3444 -2.3125
  408MOL0     H56271   8.532   8.502   4.301 -0.3602 -2.0408  1.8331
  408MOL0     H56272   8.451   8.274   4.300 -0.3184  1.7820  0.4096
  408MOL0     H56273   8.569   8.285   4.431 -3.2782 -0.0249 -0.3062
  408MOL0     H56274   8.571   8.159   4.159 -3.6194  2.3608  0.9733
  408MOL0     H56275   8.583   8.072   4.301 -3.1398 -0.3017 -0.1013
  408MOL0     H56276   8.798   8.049   4.221  1.1696 -1.1910  1.5297
  408MOL0     H56277   8.807   8.220   4.165 -2.1456 -0.9504 -1.4593
  408MOL0     H56278   8.782   8.137   4.456  1.0650 -0.6365 -0.5911
  408MOL0     H56279   8.822   8.296   4.387  3.9940  0.6422 -1.9656
  408MOL0     H56280   9.021   8.198   4.285 -3.5443  0.0034 -1.9938
  408MOL0     H56281   9.004   8.051   4.378 -0.3347 -0.2836  1.0047
  408MOL0     H56282   9.064   8.331   4.489 -0.8756 -0.3068 -1.8899
  408MOL0     H56283   9.157   8.187   4.515  1.0183  0.6512 -2.1178
  408MOL0     H56284   8.454   8.672   4.160 -2.2164 -0.1665  1.0348
  408MOL0     H56285   8.292   8.851   4.107 -1.1855  1.3328 -2.1718
  408MOL0     H56286   8.081   9.081   3.985 -0.4733  3.2083 -0.1320
  408MOL0     H56287   8.000   9.287   3.968 -0.2278 -0.3087  0.5668
  408MOL0     H56288   6.445   9.537   4.653 -1.7642 -0.5477  1.2976
  408MOL0     H56289   6.217   9.601   4.641  2.3004  0.9510  1.1095
  408MOL0     H56290   5.837   9.444   4.213  1.1994  0.9118  0.6071
  408MOL0     H56291   5.587   9.430   4.220 -0.7249  1.6736  0.0668
  408MOL0     H56292   5.400   9.385   4.290  0.3910 -0.1556 -1.4238
  408MOL0     H56293   5.258   9.476   4.339  0.3545 -2.3484  0.1023
  408MOL0     H56294   5.439   9.530   4.092  2.6128  1.5650  4.5307
  408MOL0     H56295   5.301   9.630   4.143 -0.7078 -0.6129 -1.3235
  408MOL0     H56296   5.266   9.465   3.962 -0.9920 -0.5381 -0.1583
  408MOL0     H56297   5.264   9.339   4.090 -4.2741 -0.1579  1.2226
  408MOL0     H56298   5.054   9.545   4.037 -2.6991  1.4714  3.4219
  408MOL0     H56299   5.069   9.485   4.198  2.2646  2.5312 -0.3347
  408MOL0     H56300   4.918   9.144   4.002  1.9247 -1.2581 -0.8971
  408MOL0     H56301   5.582   9.716   4.532 -0.3278 -1.1991  1.3637
  408MOL0     H56302   5.770   9.860   4.553  0.2255  0.8872 -0.0037
  408MOL0     H56303   5.916   9.758   4.585 -1.2301 -3.7289  0.2619
  408MOL0     H56304   5.893   9.851   4.431 -0.8421 -1.6912 -0.8542
  409MOL0     O56305   9.918  11.121   7.470 -0.0095 -0.9559  0.5689
  409MOL0     C56306   9.858  11.117   7.573 -0.0548 -0.0137 -0.3318
  409MOL0     O56307   9.881  11.018   7.670  0.2768 -0.2703  0.0379
  409MOL0     C56308   9.979  10.924   7.660  0.3648 -0.2107 -0.4108
  409MOL0     C56309  10.058  10.889   7.544  0.4877  0.1257  0.0323
  409MOL0     C56310  10.168  10.809   7.550  0.1317 -0.7815 -0.9470
  409MOL0     C56311  10.201  10.750   7.676  0.2151  0.0331 -0.2141
  409MOL0     O56312  10.292  10.657   7.704 -0.1367  0.6459 -0.2672
  409MOL0     C56313  10.330  10.573   7.593 -0.4528 -0.2553 -0.9163
  409MOL0     C56314  10.428  10.470   7.649 -0.3010 -0.4387  0.2902
  409MOL0     C56315  10.574  10.529   7.646 -0.4379 -0.2255  0.3620
  409MOL0     C56316  10.675  10.446   7.734  0.4761  0.2395  0.3249
  409MOL0     C56317  10.822  10.457   7.702 -0.1549  0.2625 -0.4037
  409MOL0     C56318  10.878  10.598   7.687 -0.0203 -0.7236 -0.7700
  409MOL0     C56319  10.933  10.657   7.820  0.5541 -0.3115  0.7566
  409MOL0     C56320  10.989  10.809   7.820  0.8252 -0.2803 -0.1334
  409MOL0     N56321  11.074  10.833   7.704 -0.4433 -0.0232 -0.3883
  409MOL0     C56322  11.181  10.750   7.669 -0.2712 -0.2487  0.0609
  409MOL0     C56323  11.253  10.818   7.579  0.0449 -0.4889 -0.7887
  409MOL0     C56324  11.376  10.764   7.515 -0.7562  0.1369 -0.2825
  409MOL0     C56325  11.504  10.828   7.579 -0.3396 -0.5325  0.3049
  409MOL0     C56326  11.646  10.787   7.518 -0.4977  0.2351 -0.8281
  409MOL0     C56327  11.682  10.654   7.592 -0.7837 -0.0724 -0.3351
  409MOL0     O56328  11.803  10.603   7.532  0.0719 -0.3741 -0.0344
  409MOL0     C56329  11.926  10.643   7.582  0.3905 -0.3025  0.3433
  409MOL0     C56330  12.041  10.598   7.522  0.0186  0.8108 -0.0830
  409MOL0     C56331  12.167  10.639   7.561 -0.1768  0.5845  0.0530
  409MOL0     C56332  12.294  10.572   7.498 -0.0693 -0.0501 -0.3949
  409MOL0     C56333  12.178  10.740   7.659 -0.1853 -0.1694  0.5457
  409MOL0     C56334  12.309  10.810   7.685  0.1451  0.2228 -0.1444
  409MOL0     O56335  12.402  10.814   7.589  0.3641 -0.3939  0.3991
  409MOL0     C56336  12.528  10.867   7.617 -1.2743 -0.7252  0.6162
  409MOL0     C56337  12.544  10.998   7.655 -0.9425  0.6643 -0.7708
  409MOL0     C56338  12.671  11.045   7.704 -0.2915  0.3644  1.1323
  409MOL0     C56339  12.788  10.959   7.702  1.0501 -0.8002  0.5145
  409MOL0     O56340  12.913  10.984   7.758  0.4536  0.7856  0.1298
  409MOL0     C56341  12.969  11.113   7.728  0.4701 -0.4047 -0.3814
  409MOL0     C56342  13.110  11.125   7.771 -0.9040 -0.4070 -1.6657
  409MOL0     C56343  13.116  11.112   7.927 -0.1147  0.8132 -0.1741
  409MOL0     C56344  13.264  11.137   7.986  0.1816  0.7181 -0.3918
  409MOL0     C56345  13.257  11.107   8.139  1.4909  0.5935  0.0311
  409MOL0     C56346  13.394  11.116   8.204  0.0733 -0.8086  0.2736
  409MOL0     C56347  13.391  11.079   8.354  0.3727 -0.3638 -0.6998
  409MOL0     C56348  13.387  10.927   8.376 -0.8098  0.0842  0.4826
  409MOL0    Cl56349  13.366  10.902   8.553 -0.0744  0.3599 -0.1116
  409MOL0     C56350  12.773  10.833   7.643  0.1089 -0.8501  0.6257
  409MOL0     C56351  12.645  10.791   7.601  0.6506  0.3374  0.2332
  409MOL0     O56352  12.310  10.871   7.793 -0.1134 -0.0557 -0.0713
  409MOL0     C56353  12.069  10.790   7.716  1.3706  0.1305 -0.6432
  409MOL0     C56354  11.946  10.747   7.678 -0.2087  0.5164  0.8469
  409MOL0     N56355  11.174  10.932   7.544 -0.1170  0.2808 -0.2041
  409MOL0     N56356  11.073  10.943   7.616  0.2899  0.3451 -0.3993
  409MOL0     C56357  10.116  10.773   7.787  0.0502 -0.4793 -0.1677
  409MOL0     C56358  10.012  10.864   7.781 -0.3872 -0.1014  0.4984
  409MOL0     C56359   9.735  11.206   7.591 -0.6380  0.4391  0.0534
  409MOL0     C56360   9.655  11.180   7.707 -0.1140  0.2097  0.9653
  409MOL0     C56361   9.534  11.235   7.728 -0.0507 -0.0256 -0.1417
  409MOL0     C56362   9.491  11.349   7.647 -0.5845  1.1839 -0.3362
  409MOL0     O56363   9.375  11.407   7.656  1.0854  0.2426  0.1428
  409MOL0     C56364   9.313  11.435   7.792 -0.5321  0.1870 -0.7466
  409MOL0     C56365   9.189  11.514   7.782  0.8187  0.3715 -0.8358
  409MOL0     C56366   9.100  11.498   7.659 -0.1632  0.1374  0.1774
  409MOL0     C56367   8.981  11.597   7.675  0.5369 -0.0076  0.6640
  409MOL0     C56368   8.903  11.579   7.793 -0.7498 -0.4097 -0.5465
  409MOL0     C56369   8.850  11.580   7.900 -0.4935 -1.1278 -0.6419
  409MOL0     C56370   9.579  11.389   7.548 -0.7479  0.8396  0.0666
  409MOL0     C56371   9.695  11.319   7.512 -0.0182  0.1417  0.3812
  409MOL0     C56372   9.777  11.379   7.396 -0.1527 -0.0014  0.8268
  409MOL0     H56373  10.039  10.920   7.442 -0.6022 -1.6958 -0.3576
  409MOL0     H56374  10.229  10.786   7.463 -0.6760 -1.8494 -1.2454
  409MOL0     H56375  10.381  10.628   7.514 -0.1833 -2.0138 -2.0033
  409MOL0     H56376  10.245  10.518   7.552 -1.8951  0.4575  0.9288
  409MOL0     H56377  10.402  10.446   7.752  1.1617  0.9552  1.0235
  409MOL0     H56378  10.428  10.387   7.577 -1.8577  0.2267 -0.5405
  409MOL0     H56379  10.616  10.537   7.545  3.2810  2.4173  1.8552
  409MOL0     H56380  10.573  10.630   7.689  2.5005 -0.2122  0.6584
  409MOL0     H56381  10.668  10.484   7.836  1.0417 -0.3953  0.6166
  409MOL0     H56382  10.643  10.341   7.729  2.0001 -0.1988 -1.5661
  409MOL0     H56383  10.835  10.414   7.602 -0.4296  2.0641 -1.2403
  409MOL0     H56384  10.886  10.399   7.770  1.7303  3.0886  0.3782
  409MOL0     H56385  10.955  10.589   7.610 -2.2809  1.3259 -3.4431
  409MOL0     H56386  10.807  10.672   7.651  1.1345  0.9037  0.1943
  409MOL0     H56387  11.008  10.583   7.851  1.5466  1.4961  3.0005
  409MOL0     H56388  10.863  10.652   7.904 -1.1441  1.7865 -0.4381
  409MOL0     H56389  10.907  10.880   7.803  0.1155 -1.2547 -0.8361
  409MOL0     H56390  11.047  10.828   7.912 -1.6401 -2.9144  2.1429
  409MOL0     H56391  11.194  10.655   7.718 -0.4632  0.8850  2.4507
  409MOL0     H56392  11.377  10.769   7.406  0.9782 -2.1468 -0.4573
  409MOL0     H56393  11.379  10.657   7.539  0.9892  0.0828 -0.5512
  409MOL0     H56394  11.497  10.931   7.543  1.1763 -1.7629 -4.2135
  409MOL0     H56395  11.498  10.815   7.688  0.5882 -0.5608  0.3659
  409MOL0     H56396  11.653  10.774   7.410  0.5298 -2.0048 -0.5377
  409MOL0     H56397  11.718  10.864   7.547  0.8660 -1.7594  1.4674
  409MOL0     H56398  11.692  10.657   7.701 -0.9224  1.5918 -0.3484
  409MOL0     H56399  11.599  10.583   7.580  1.0071 -1.8558 -3.7287
  409MOL0     H56400  12.034  10.522   7.446 -1.4373 -1.2304  1.9866
  409MOL0     H56401  12.274  10.482   7.439 -0.7972 -0.0676 -0.1282
  409MOL0     H56402  12.381  10.566   7.564 -0.2183 -2.3934 -0.3297
  409MOL0     H56403  12.328  10.643   7.421  0.3151 -0.4610 -0.6074
  409MOL0     H56404  12.454  11.059   7.652 -1.5884 -0.0180  1.8179
  409MOL0     H56405  12.688  11.142   7.749  1.2222  0.3719  0.5904
  409MOL0     H56406  12.968  11.120   7.619  0.8411 -1.0975 -0.4359
  409MOL0     H56407  12.905  11.191   7.771  1.5770 -0.4110  1.3969
  409MOL0     H56408  13.189  11.058   7.735  2.2180  0.2623  3.0237
  409MOL0     H56409  13.149  11.224   7.744  2.3170 -0.1613  2.6410
  409MOL0     H56410  13.092  11.006   7.936  2.6754 -0.3530 -3.9151
  409MOL0     H56411  13.039  11.174   7.975 -0.5661  0.0554  0.1011
  409MOL0     H56412  13.289  11.240   7.960 -0.8433  0.9882 -0.3294
  409MOL0     H56413  13.333  11.071   7.932  1.4172  0.0728  1.8486
  409MOL0     H56414  13.192  11.183   8.183  1.6874  0.5477  0.4088
  409MOL0     H56415  13.217  11.006   8.156  1.2943  0.7430  0.4803
  409MOL0     H56416  13.431  11.219   8.199 -2.4936  0.5389  3.9879
  409MOL0     H56417  13.473  11.068   8.145  0.0063 -0.0190 -0.4825
  409MOL0     H56418  13.309  11.134   8.401 -0.0422 -2.9893  1.9473
  409MOL0     H56419  13.484  11.109   8.404 -0.9609 -1.0683  2.4694
  409MOL0     H56420  13.481  10.893   8.332 -0.3377  3.1224 -1.0793
  409MOL0     H56421  13.307  10.880   8.318 -1.2845  0.9244  0.4416
  409MOL0     H56422  12.859  10.770   7.625  2.1148  2.4093 -2.6610
  409MOL0     H56423  12.629  10.699   7.545  0.9716 -0.2706  1.1286
  409MOL0     H56424  12.073  10.884   7.771  0.9518 -0.0640 -0.2688
  409MOL0     H56425  11.866  10.810   7.715 -0.2911  1.0379 -0.1668
  409MOL0     H56426  10.138  10.716   7.877 -0.7605 -1.5301 -0.6157
  409MOL0     H56427   9.946  10.905   7.856 -0.8222  0.3207 -0.1099
  409MOL0     H56428   9.693  11.102   7.772  1.3650  1.6504  1.9245
  409MOL0     H56429   9.461  11.206   7.803 -1.4260  0.6597 -1.1493
  409MOL0     H56430   9.289  11.345   7.849 -2.0036  1.8498  1.4242
  409MOL0     H56431   9.385  11.489   7.854 -0.6714  1.4876 -1.6754
  409MOL0     H56432   9.213  11.619   7.803  2.0829 -0.1944  0.7700
  409MOL0     H56433   9.120  11.482   7.862 -1.1166  3.4291 -1.1020
  409MOL0     H56434   9.166  11.525   7.576 -1.7442  0.7171 -0.9641
  409MOL0     H56435   9.067  11.396   7.637 -2.4510  0.7623  0.4187
  409MOL0     H56436   8.926  11.580   7.581  1.9699 -3.0103  0.2301
  409MOL0     H56437   9.016  11.700   7.675  0.3588  0.0539  0.8640
  409MOL0     H56438   8.816  11.564   8.000  2.1894 -3.1240  0.0685
  409MOL0     H56439   9.547  11.484   7.508 -1.6159  2.0680  3.3565
  409MOL0     H56440   9.742  11.475   7.358  1.9597  0.2106 -0.7705
  409MOL0     H56441   9.883  11.390   7.422 -0.2770 -1.3741  2.0497
  409MOL0     H56442   9.767  11.300   7.321 -2.0618 -0.9355  1.9793
  410MOL0     O56443   3.933   1.554   5.587  0.0119 -0.1475  0.0810
  410MOL0     C56444   3.891   1.459   5.518  0.0716 -0.5874  0.6595
  410MOL0     O56445   3.973   1.378   5.454 -0.7614  0.3632  0.4824
  410MOL0     C56446   4.107   1.403   5.464 -0.5212  0.3561 -0.5956
  410MOL0     C56447   4.187   1.427   5.575 -0.2649  0.2149  0.0201
  410MOL0     C56448   4.326   1.446   5.569  0.6212  0.7501 -0.5289
  410MOL0     C56449   4.395   1.443   5.445 -0.2346  0.4585 -0.2012
  410MOL0     O56450   4.532   1.460   5.428 -0.2932 -0.8325  0.5704
  410MOL0     C56451   4.598   1.514   5.539 -0.3666 -0.3767  0.3343
  410MOL0     C56452   4.740   1.568   5.515 -0.2743  0.2558 -0.7038
  410MOL0     C56453   4.831   1.469   5.425 -0.0617  0.4362  0.0712
  410MOL0     C56454   4.974   1.512   5.431 -0.1364 -0.1237 -0.3161
  410MOL0     C56455   5.076   1.422   5.363  0.1510 -0.6755  0.8388
  410MOL0     C56456   5.210   1.481   5.350 -0.0776  0.5751 -1.2210
  410MOL0     C56457   5.316   1.397   5.281 -1.0311 -0.1068 -0.1496
  410MOL0     C56458   5.453   1.477   5.269 -0.5771  0.1855  0.7070
  410MOL0     N56459   5.556   1.378   5.213 -0.5930 -0.4587  0.1615
  410MOL0     C56460   5.676   1.338   5.271  0.0460 -0.4443  0.2094
  410MOL0     C56461   5.731   1.254   5.179 -0.5383  0.0041  0.5774
  410MOL0     C56462   5.867   1.198   5.192  0.0582  0.2465 -0.5303
  410MOL0     C56463   5.907   1.081   5.088  0.2794 -0.6876  0.8838
  410MOL0     C56464   5.915   1.135   4.944  1.2727  0.0839  0.5602
  410MOL0     C56465   6.003   1.043   4.863 -0.1411 -0.6510  0.4267
  410MOL0     O56466   6.137   1.049   4.907 -0.4906 -0.1060 -0.5594
  410MOL0     C56467   6.222   0.942   4.896 -0.6704 -0.2622  0.2224
  410MOL0     C56468   6.341   0.951   4.961 -0.4671  0.6983 -0.1590
  410MOL0     C56469   6.435   0.851   4.956 -0.3967 -0.2270 -1.1542
  410MOL0     C56470   6.563   0.878   5.029  0.6660 -0.4632  0.0441
  410MOL0     C56471   6.406   0.728   4.879  0.4380 -0.1243 -0.2112
  410MOL0     C56472   6.497   0.616   4.878 -0.2254 -0.2927  0.1545
  410MOL0     O56473   6.512   0.561   4.757 -0.1169  0.5639  0.0461
  410MOL0     C56474   6.621   0.477   4.733 -0.1349 -0.0046  1.1511
  410MOL0     C56475   6.606   0.418   4.600  0.0173  0.3769  0.6435
  410MOL0     C56476   6.707   0.334   4.542 -0.3964 -0.4965  0.2116
  410MOL0     C56477   6.831   0.321   4.608 -0.8487 -0.7182  0.3318
  410MOL0     O56478   6.950   0.270   4.559  1.1722 -0.3237  0.2606
  410MOL0     C56479   6.949   0.228   4.420  0.2601 -0.5712 -0.0175
  410MOL0     C56480   7.092   0.188   4.369 -0.3336 -0.4654 -0.3194
  410MOL0     C56481   7.144   0.074   4.440  0.3121 -0.2207 -0.4994
  410MOL0     C56482   7.245   0.133   4.550  0.0821  0.7011 -0.0635
  410MOL0     C56483   7.286   0.015   4.646  0.4966  0.5199  0.3749
  410MOL0     C56484   7.308   0.056   4.795  0.5601 -0.2733 -0.6510
  410MOL0     C56485   7.409   0.170   4.826 -0.0746 -0.2159  0.1559
  410MOL0     C56486   7.548   0.128   4.788  0.2068  0.0268 -0.0424
  410MOL0    Cl56487   7.592  -0.032   4.863  0.6005  0.3846 -0.1234
  410MOL0     C56488   6.841   0.382   4.747  0.1957  0.2634  0.4746
  410MOL0     C56489   6.740   0.457   4.799  0.3665 -0.1394 -0.8462
  410MOL0     O56490   6.563   0.581   4.984  0.6627  0.1669 -0.1763
  410MOL0     C56491   6.291   0.727   4.795 -0.1797 -0.0397 -0.6292
  410MOL0     C56492   6.204   0.830   4.810 -0.7795  0.2487 -1.4149
  410MOL0     N56493   5.645   1.235   5.078  0.3420  0.2523  0.0863
  410MOL0     N56494   5.548   1.321   5.092 -0.2197 -0.0793  0.7249
  410MOL0     C56495   4.319   1.417   5.333 -0.0579  0.0450  0.3826
  410MOL0     C56496   4.176   1.396   5.336 -0.5950  0.6011 -0.4170
  410MOL0     C56497   3.747   1.442   5.493 -0.4010  1.3799  0.3091
  410MOL0     C56498   3.711   1.405   5.364 -0.8653  0.5440  0.2464
  410MOL0     C56499   3.575   1.382   5.325  0.3579  0.2741 -0.2773
  410MOL0     C56500   3.473   1.399   5.422 -0.0793 -0.1988 -0.3881
  410MOL0     O56501   3.347   1.347   5.382 -0.0578  0.0312 -0.4386
  410MOL0     C56502   3.233   1.383   5.470  0.1023 -0.4114  0.0029
  410MOL0     C56503   3.199   1.272   5.562  0.0124 -0.4780 -0.6337
  410MOL0     C56504   3.183   1.142   5.479  1.1035 -0.1247 -0.9204
  410MOL0     C56505   3.100   1.035   5.561  0.0326 -0.2145  0.2352
  410MOL0     C56506   2.963   1.063   5.584 -0.1338 -0.0993  0.2731
  410MOL0     C56507   2.850   1.103   5.609  0.3582  1.0407  0.3015
  410MOL0     C56508   3.508   1.438   5.559  1.0011 -0.1430  0.1990
  410MOL0     C56509   3.643   1.446   5.596  0.4787  0.5878 -0.7927
  410MOL0     C56510   3.675   1.487   5.737 -0.2056  1.0028 -0.3382
  410MOL0     H56511   4.139   1.428   5.672  0.7029 -0.0477  0.5211
  410MOL0     H56512   4.385   1.451   5.660  1.6106 -0.2592 -1.0898
  410MOL0     H56513   4.605   1.431   5.610 -0.2356 -2.2811 -1.8158
  410MOL0     H56514   4.552   1.601   5.588  1.8495  1.9808 -1.4971
  410MOL0     H56515   4.726   1.661   5.459 -1.4270  1.3956  1.3797
  410MOL0     H56516   4.786   1.603   5.608 -1.6459  0.6447 -0.1446
  410MOL0     H56517   4.822   1.369   5.469 -3.4939  0.9198  0.7460
  410MOL0     H56518   4.805   1.464   5.319 -1.0818  1.4569  0.2630
  410MOL0     H56519   4.981   1.608   5.378 -0.6449  1.4172  2.1901
  410MOL0     H56520   4.997   1.542   5.534  0.5494 -0.8115 -0.2657
  410MOL0     H56521   5.043   1.410   5.259 -0.8044  0.5303  0.9724
  410MOL0     H56522   5.081   1.328   5.418 -3.3081 -1.0056  0.8364
  410MOL0     H56523   5.206   1.576   5.296  1.8111  2.4332  1.6428
  410MOL0     H56524   5.239   1.503   5.453  1.3645 -1.8239 -1.0493
  410MOL0     H56525   5.276   1.359   5.187 -1.4335 -2.0228  0.7488
  410MOL0     H56526   5.335   1.303   5.335  2.6025 -0.5600 -1.9156
  410MOL0     H56527   5.456   1.558   5.196 -0.8688  1.9087  2.5235
  410MOL0     H56528   5.487   1.521   5.363 -0.4458 -2.2169  1.8719
  410MOL0     H56529   5.725   1.367   5.363  1.8668  3.8004 -1.8325
  410MOL0     H56530   5.874   1.158   5.294  0.4550  0.9784 -0.2622
  410MOL0     H56531   5.952   1.266   5.183  1.4586 -1.5353 -1.7021
  410MOL0     H56532   6.007   1.046   5.114  0.0308 -1.1846  1.1769
  410MOL0     H56533   5.841   0.994   5.090  2.4807 -2.4573  0.2909
  410MOL0     H56534   5.822   1.166   4.897  0.4596 -0.5290  1.7182
  410MOL0     H56535   5.967   1.232   4.944  1.0870  0.2982 -3.0768
  410MOL0     H56536   5.963   0.941   4.866  0.7555 -1.0620 -0.8505
  410MOL0     H56537   5.997   1.083   4.761 -0.8595  0.3513  0.8389
  410MOL0     H56538   6.367   1.034   5.025 -1.0682 -0.3696  1.5609
  410MOL0     H56539   6.552   0.837   5.130 -3.2178  1.5983  0.6697
  410MOL0     H56540   6.567   0.986   5.048 -1.6844 -0.4729  0.9225
  410MOL0     H56541   6.648   0.845   4.969  0.3571  1.0585 -1.3281
  410MOL0     H56542   6.515   0.445   4.548 -0.4231 -2.1414 -0.0279
  410MOL0     H56543   6.691   0.308   4.438  2.9214 -1.6743 -0.1072
  410MOL0     H56544   6.880   0.144   4.411 -0.9405  0.4623 -0.8924
  410MOL0     H56545   6.920   0.314   4.358  1.5095  0.4403  0.7545
  410MOL0     H56546   7.082   0.154   4.266  1.6656 -2.2057 -0.0129
  410MOL0     H56547   7.159   0.275   4.366 -2.2111  1.0235 -2.2645
  410MOL0     H56548   7.188  -0.005   4.380 -2.2378 -3.9432  2.0933
  410MOL0     H56549   7.068   0.017   4.494  1.6862 -2.0860 -0.4724
  410MOL0     H56550   7.194   0.212   4.605 -0.7284  0.5469 -0.5621
  410MOL0     H56551   7.336   0.176   4.508  0.0065  1.2128  0.2898
  410MOL0     H56552   7.210  -0.065   4.647  1.4448 -0.3980  1.2073
  410MOL0     H56553   7.373  -0.030   4.599  0.8233  0.6813  0.8231
  410MOL0     H56554   7.341  -0.026   4.860  1.6814  1.3090  0.8865
  410MOL0     H56555   7.209   0.084   4.832  0.5180  2.2909 -2.4538
  410MOL0     H56556   7.409   0.181   4.935  2.0754  2.0354  0.0306
  410MOL0     H56557   7.390   0.263   4.771  2.5775  0.7800  0.7557
  410MOL0     H56558   7.617   0.196   4.838 -0.1330 -1.0011  1.9191
  410MOL0     H56559   7.559   0.124   4.679 -2.3153  3.0006 -0.5552
  410MOL0     H56560   6.932   0.373   4.806  0.5476 -0.4506 -0.1563
  410MOL0     H56561   6.758   0.517   4.888  1.0758 -0.0232 -1.0557
  410MOL0     H56562   6.267   0.648   4.724  0.4795  0.0101 -0.9089
  410MOL0     H56563   6.119   0.827   4.742  1.0637 -0.8286 -3.8642
  410MOL0     H56564   4.365   1.408   5.235  1.1979  1.5939  0.7807
  410MOL0     H56565   4.111   1.372   5.253  0.8416 -1.9885 -0.9047
  410MOL0     H56566   3.780   1.407   5.281  0.3017  0.0117  1.1885
  410MOL0     H56567   3.542   1.362   5.224  1.7225 -1.6034 -0.4089
  410MOL0     H56568   3.248   1.469   5.535 -2.2438 -0.2953  0.5116
  410MOL0     H56569   3.145   1.413   5.411  0.0789 -0.0502  0.2197
  410MOL0     H56570   3.114   1.311   5.620  1.7780  3.7091 -0.5129
  410MOL0     H56571   3.284   1.256   5.628  0.6720  1.0464 -1.0700
  410MOL0     H56572   3.118   1.159   5.393  1.3643  0.5369 -0.9945
  410MOL0     H56573   3.283   1.106   5.455  2.5355  3.3392 -0.8380
  410MOL0     H56574   3.157   1.023   5.653  0.6379 -0.1206 -0.1245
  410MOL0     H56575   3.111   0.937   5.515  0.3274 -0.1888  0.2514
  410MOL0     H56576   2.749   1.110   5.644  0.4135 -0.6358  0.9097
  410MOL0     H56577   3.438   1.453   5.641  2.5664 -0.0364  1.5577
  410MOL0     H56578   3.606   1.444   5.810  1.1940 -0.7528  0.0081
  410MOL0     H56579   3.770   1.446   5.772 -0.4543  1.5127  0.9808
  410MOL0     H56580   3.684   1.596   5.733 -2.0860  1.1768 -3.8326
  411MOL0     O56581   5.370   8.201   3.280  0.3172  0.1770 -0.1524
  411MOL0     C56582   5.275   8.271   3.235 -0.1608 -0.4598 -0.2062
  411MOL0     O56583   5.289   8.402   3.202  0.6413  0.6816 -0.1941
  411MOL0     C56584   5.416   8.455   3.210 -0.1807 -0.1170 -0.2618
  411MOL0     C56585   5.490   8.497   3.098  0.7305 -0.3497  0.4966
  411MOL0     C56586   5.616   8.563   3.116 -0.4674  0.5948 -0.2857
  411MOL0     C56587   5.662   8.594   3.239 -0.0794  0.1166 -0.0739
  411MOL0     O56588   5.783   8.654   3.237  0.6999 -0.5308 -0.5087
  411MOL0     C56589   5.845   8.670   3.365 -0.3597  0.5218 -0.3585
  411MOL0     C56590   5.981   8.737   3.341  0.0361 -0.1747 -0.4516
  411MOL0     C56591   6.075   8.650   3.266  0.9442  0.1664  0.1604
  411MOL0     C56592   6.198   8.731   3.230 -0.1845 -0.4023  0.4699
  411MOL0     C56593   6.292   8.655   3.141 -0.5366 -0.0876  0.5125
  411MOL0     C56594   6.337   8.525   3.200 -0.1198  0.1530 -0.4700
  411MOL0     C56595   6.453   8.457   3.128  0.4617  0.1830 -0.5833
  411MOL0     C56596   6.446   8.310   3.177 -0.2419 -0.2004  0.1468
  411MOL0     N56597   6.578   8.242   3.174  0.1913 -0.3386  1.0310
  411MOL0     C56598   6.690   8.256   3.258 -0.5918 -0.5895  0.9102
  411MOL0     C56599   6.786   8.174   3.206  0.4531 -0.6095  0.3979
  411MOL0     C56600   6.931   8.143   3.248  0.9027  0.4225 -0.2515
  411MOL0     C56601   6.952   8.013   3.330  0.8072  0.2812  0.5315
  411MOL0     C56602   6.872   7.896   3.258 -0.8383 -0.5892 -0.7297
  411MOL0     C56603   6.906   7.749   3.310 -0.2559 -0.1505 -0.2422
  411MOL0     O56604   6.872   7.738   3.455  0.5964  0.8851  0.0812
  411MOL0     C56605   6.959   7.648   3.527 -0.0015  0.3438  0.5279
  411MOL0     C56606   6.989   7.521   3.486 -0.0370  0.2420 -0.1853
  411MOL0     C56607   7.078   7.446   3.559 -0.0393 -0.6919  0.1303
  411MOL0     C56608   7.142   7.323   3.490  0.2948 -0.0447 -0.2776
  411MOL0     C56609   7.125   7.498   3.686  0.0049 -0.3522 -0.2888
  411MOL0     C56610   7.231   7.433   3.751  0.1328 -0.7922 -0.2075
  411MOL0     O56611   7.330   7.508   3.804 -0.2970  0.4503 -0.0821
  411MOL0     C56612   7.443   7.441   3.846 -0.0765 -0.3807  0.1180
  411MOL0     C56613   7.481   7.473   3.980  0.8250 -1.0435 -0.1570
  411MOL0     C56614   7.596   7.413   4.025  0.3144  0.9641 -0.2616
  411MOL0     C56615   7.672   7.319   3.948 -0.0249  0.3276  0.9452
  411MOL0     O56616   7.773   7.256   4.011  0.3296 -0.1369  0.0780
  411MOL0     C56617   7.849   7.156   3.943  0.9223  0.2038 -0.9057
  411MOL0     C56618   7.955   7.206   3.835  1.0105  0.6805 -1.3221
  411MOL0     C56619   8.017   7.073   3.770 -0.3298 -0.5420 -0.2128
  411MOL0     C56620   8.096   7.085   3.638 -1.0132 -0.2548  0.5780
  411MOL0     C56621   8.133   6.941   3.593 -0.2743  0.0889  0.3664
  411MOL0     C56622   8.206   6.923   3.452 -0.5039  0.0518 -0.4764
  411MOL0     C56623   8.255   6.780   3.428 -0.1743  0.0820  0.3798
  411MOL0     C56624   8.169   6.695   3.334 -0.5247  0.3695  0.5379
  411MOL0    Cl56625   7.997   6.662   3.376  0.0290  0.2736 -0.1319
  411MOL0     C56626   7.634   7.291   3.814  1.0111 -0.1931  0.5233
  411MOL0     C56627   7.520   7.355   3.760 -0.8198  0.2866  0.1166
  411MOL0     O56628   7.236   7.309   3.750  0.2146 -0.4966 -0.2916
  411MOL0     C56629   7.085   7.624   3.728 -0.1703 -0.1278 -0.1336
  411MOL0     C56630   7.005   7.702   3.643 -0.2912  0.5187  0.1699
  411MOL0     N56631   6.729   8.114   3.095 -0.8914 -0.0433  0.0686
  411MOL0     N56632   6.607   8.157   3.074  0.3020  0.5869  0.0420
  411MOL0     C56633   5.588   8.555   3.352 -1.3238 -0.0962 -0.6884
  411MOL0     C56634   5.467   8.490   3.337 -0.4693  1.1465  0.0543
  411MOL0     C56635   5.147   8.205   3.201  0.6320  1.2891 -1.1851
  411MOL0     C56636   5.106   8.098   3.281  0.6545  0.2522  0.2741
  411MOL0     C56637   4.982   8.030   3.269 -0.1404  0.2877  1.0365
  411MOL0     C56638   4.897   8.067   3.170  0.3410 -1.2973 -0.4105
  411MOL0     O56639   4.787   7.992   3.157  0.4705 -0.1312 -0.3499
  411MOL0     C56640   4.687   8.033   3.066 -0.6740 -0.5872  0.3017
  411MOL0     C56641   4.552   7.971   3.098  0.3775 -0.0046 -0.4104
  411MOL0     C56642   4.556   7.829   3.051  0.0775 -0.2714 -0.6626
  411MOL0     C56643   4.415   7.763   3.042  0.2588 -0.1175  0.2432
  411MOL0     C56644   4.416   7.625   3.088  0.5210 -1.2133  0.0289
  411MOL0     C56645   4.434   7.510   3.128  0.4901 -0.1155 -0.2614
  411MOL0     C56646   4.933   8.169   3.080  0.6588 -0.2930  0.3167
  411MOL0     C56647   5.055   8.239   3.095 -0.5142 -0.2702  0.5487
  411MOL0     C56648   5.100   8.323   2.982  0.5906 -0.2204 -0.2285
  411MOL0     H56649   5.451   8.485   2.997  0.3002  1.7508  0.3584
  411MOL0     H56650   5.682   8.588   3.033  2.6008  1.1683  2.1472
  411MOL0     H56651   5.862   8.574   3.414  0.3606  0.5423 -0.5486
  411MOL0     H56652   5.773   8.729   3.422 -2.4289 -1.2306 -1.0343
  411MOL0     H56653   5.965   8.831   3.287  3.0607  1.3084  1.0285
  411MOL0     H56654   6.017   8.770   3.438 -1.8168 -2.1048  0.9917
  411MOL0     H56655   6.090   8.556   3.320 -1.2046 -1.3441 -1.6781
  411MOL0     H56656   6.036   8.608   3.173  1.2340 -0.1302  0.1681
  411MOL0     H56657   6.179   8.826   3.180  4.1743  0.0754 -0.6789
  411MOL0     H56658   6.250   8.759   3.322  0.7565  2.1570 -0.7612
  411MOL0     H56659   6.386   8.710   3.129  0.2231 -1.5324 -0.5664
  411MOL0     H56660   6.240   8.648   3.045 -0.4221  0.9483  0.3675
  411MOL0     H56661   6.368   8.545   3.303 -0.1574 -2.0019  0.0097
  411MOL0     H56662   6.254   8.454   3.207 -0.9675  1.0396 -1.2028
  411MOL0     H56663   6.547   8.492   3.171  1.4332 -0.0889 -2.3690
  411MOL0     H56664   6.444   8.466   3.019 -1.5468  1.9621 -0.3416
  411MOL0     H56665   6.411   8.308   3.281  0.7938 -1.9190  0.4991
  411MOL0     H56666   6.373   8.255   3.116 -0.7136  1.9234 -1.3348
  411MOL0     H56667   6.696   8.308   3.353 -0.4300 -2.3647  1.9048
  411MOL0     H56668   6.946   8.229   3.314  1.5208 -0.5131  0.8728
  411MOL0     H56669   6.987   8.146   3.154  0.0234 -4.4495 -1.2273
  411MOL0     H56670   7.056   7.980   3.322 -0.1500 -2.7084 -1.0670
  411MOL0     H56671   6.915   8.024   3.433 -1.2982  2.2087 -0.3401
  411MOL0     H56672   6.768   7.922   3.278 -0.6810 -1.4585  1.5474
  411MOL0     H56673   6.886   7.906   3.150  0.7319 -0.4064 -0.5282
  411MOL0     H56674   6.845   7.680   3.251  0.4680 -0.2799 -0.8580
  411MOL0     H56675   7.010   7.725   3.288 -0.3007  1.2013 -2.2003
  411MOL0     H56676   6.952   7.481   3.392  0.1968  0.5617 -0.4139
  411MOL0     H56677   7.247   7.299   3.510  0.6096  0.9748 -0.6532
  411MOL0     H56678   7.141   7.322   3.381 -1.5087 -0.9614 -0.2993
  411MOL0     H56679   7.085   7.238   3.530  1.0323  0.8532  3.0008
  411MOL0     H56680   7.416   7.540   4.037  1.9667 -0.2055  0.2104
  411MOL0     H56681   7.642   7.425   4.123  3.1511 -1.2892 -1.1772
  411MOL0     H56682   7.901   7.095   4.018 -1.4987 -0.6571  0.1907
  411MOL0     H56683   7.781   7.091   3.888  1.5504  2.3691 -4.5533
  411MOL0     H56684   7.913   7.260   3.750 -1.6596  0.0903 -0.4805
  411MOL0     H56685   8.036   7.265   3.878  0.1218  0.7892  0.2832
  411MOL0     H56686   7.931   7.010   3.748 -0.1360 -0.0531 -2.6632
  411MOL0     H56687   8.079   7.036   3.853 -2.0888  0.5338  1.6719
  411MOL0     H56688   8.178   7.158   3.638 -0.8418 -0.4074 -1.1076
  411MOL0     H56689   8.032   7.130   3.562  1.3125  0.9279 -0.7995
  411MOL0     H56690   8.200   6.901   3.670 -1.8139  2.2427  3.0246
  411MOL0     H56691   8.050   6.871   3.581 -0.0438 -0.1469  0.1629
  411MOL0     H56692   8.283   7.001   3.445 -3.4403  2.9916 -3.9616
  411MOL0     H56693   8.138   6.951   3.371 -0.6047  2.7547  0.4539
  411MOL0     H56694   8.260   6.725   3.522  0.5051 -1.8129 -0.7054
  411MOL0     H56695   8.359   6.790   3.394  0.5294  2.1290  2.8245
  411MOL0     H56696   8.221   6.599   3.322  1.0821  1.4144 -1.4389
  411MOL0     H56697   8.173   6.750   3.240 -0.2240  2.2758  1.6328
  411MOL0     H56698   7.703   7.233   3.753  1.1457  0.1139  0.3790
  411MOL0     H56699   7.488   7.346   3.657  1.9574 -0.0511 -0.7868
  411MOL0     H56700   7.126   7.671   3.817 -0.8779 -0.4734  0.3935
  411MOL0     H56701   6.983   7.805   3.672  1.7376  1.5356 -1.6368
  411MOL0     H56702   5.633   8.576   3.449  1.2485  2.0180 -2.1870
  411MOL0     H56703   5.410   8.463   3.425  2.7765 -1.3081  1.6108
  411MOL0     H56704   5.172   8.054   3.356 -1.0403 -0.4955  1.3960
  411MOL0     H56705   4.966   7.935   3.319  1.9582 -0.9282 -0.4437
  411MOL0     H56706   4.676   8.142   3.059 -1.0001 -0.6956 -1.2284
  411MOL0     H56707   4.713   8.008   2.963 -0.0517 -0.5546  0.4498
  411MOL0     H56708   4.478   8.025   3.036 -0.2204 -1.2755 -0.8384
  411MOL0     H56709   4.522   7.983   3.202  2.3550 -0.6539  0.2635
  411MOL0     H56710   4.605   7.813   2.955  0.7904 -0.9664 -0.1979
  411MOL0     H56711   4.618   7.764   3.114 -1.7094  0.0203  1.5401
  411MOL0     H56712   4.381   7.769   2.938  0.4032  1.1114  0.2559
  411MOL0     H56713   4.350   7.827   3.102  1.3090  1.0650  0.1571
  411MOL0     H56714   4.436   7.410   3.167  0.4729 -0.1387 -0.3195
  411MOL0     H56715   4.866   8.192   2.998  2.2320 -3.7383 -2.1722
  411MOL0     H56716   5.131   8.422   3.014  0.1227 -0.6086  1.5686
  411MOL0     H56717   5.178   8.262   2.936  1.1163 -0.0896  0.4735
  411MOL0     H56718   5.020   8.325   2.907 -0.9300 -0.0635  1.3291
  412MOL0     O56719   6.311   2.478   7.015  0.7389 -0.0222  0.3530
  412MOL0     C56720   6.266   2.555   7.089  0.2534 -0.6914 -0.5719
  412MOL0     O56721   6.335   2.618   7.185  0.2656 -0.2199  0.1758
  412MOL0     C56722   6.465   2.589   7.220 -0.0798 -0.5185  0.3927
  412MOL0     C56723   6.546   2.486   7.172 -0.2603  0.3659 -0.4992
  412MOL0     C56724   6.689   2.493   7.196  0.1242 -0.1232  0.4633
  412MOL0     C56725   6.738   2.592   7.281 -0.5824  1.0611 -0.2243
  412MOL0     O56726   6.865   2.598   7.318 -0.3886 -0.3634 -0.4985
  412MOL0     C56727   6.955   2.496   7.289 -0.1611  0.2964 -1.2349
  412MOL0     C56728   7.088   2.526   7.352 -0.4086 -0.1012  0.1631
  412MOL0     C56729   7.129   2.669   7.314 -0.4936 -0.3409  0.2714
  412MOL0     C56730   7.251   2.721   7.389 -0.0796 -0.0924  0.7433
  412MOL0     C56731   7.378   2.642   7.343  0.0528  0.5060  0.0001
  412MOL0     C56732   7.496   2.689   7.420 -0.0115  0.3401  0.4620
  412MOL0     C56733   7.635   2.634   7.379 -0.5009 -0.8259 -0.0500
  412MOL0     C56734   7.760   2.722   7.420  0.6088 -0.0710  0.4119
  412MOL0     N56735   7.764   2.762   7.562 -0.3659 -0.0706  0.2153
  412MOL0     C56736   7.799   2.682   7.663  0.0695  0.4713 -0.4947
  412MOL0     C56737   7.763   2.749   7.772 -0.3307 -0.0408 -0.2014
  412MOL0     C56738   7.790   2.693   7.908  0.5581 -0.0050 -0.3453
  412MOL0     C56739   7.935   2.719   7.948  1.2162  0.2307 -0.7777
  412MOL0     C56740   7.960   2.665   8.095  0.3474  0.4279  0.1150
  412MOL0     C56741   8.106   2.697   8.140  0.4977  0.3108 -0.1850
  412MOL0     O56742   8.196   2.615   8.072  0.2948  0.2656  0.3031
  412MOL0     C56743   8.330   2.610   8.093 -0.7022  0.5850  0.0587
  412MOL0     C56744   8.399   2.489   8.058 -0.6824 -0.5845 -0.2712
  412MOL0     C56745   8.532   2.470   8.097  1.1002  0.0330  0.4424
  412MOL0     C56746   8.583   2.331   8.053 -0.1784 -0.9678  0.2516
  412MOL0     C56747   8.610   2.566   8.168 -0.4162  1.0656 -0.2194
  412MOL0     C56748   8.757   2.558   8.196  0.5118  0.4789  0.0362
  412MOL0     O56749   8.811   2.431   8.188 -1.2542 -0.8889  0.0025
  412MOL0     C56750   8.946   2.423   8.220  0.2198  0.2676 -1.0301
  412MOL0     C56751   8.994   2.411   8.352  0.3762 -0.0231  0.5845
  412MOL0     C56752   9.126   2.403   8.385 -0.3809  0.0023 -0.4031
  412MOL0     C56753   9.227   2.416   8.286  0.3923  0.7025  0.2053
  412MOL0     O56754   9.355   2.418   8.330 -0.0660  0.3877  0.0138
  412MOL0     C56755   9.453   2.361   8.233 -0.5746 -0.5022 -1.1690
  412MOL0     C56756   9.597   2.355   8.285 -0.1895  0.0950 -0.4955
  412MOL0     C56757   9.686   2.302   8.170  0.0305 -0.7895  1.2968
  412MOL0     C56758   9.809   2.234   8.231  1.5937 -1.1199 -0.3753
  412MOL0     C56759   9.904   2.191   8.121 -0.1934 -0.0911  0.3056
  412MOL0     C56760  10.023   2.098   8.161 -0.8556 -1.0991  1.0280
  412MOL0     C56761  10.148   2.109   8.058 -0.1999 -0.7066 -0.0408
  412MOL0     C56762  10.287   2.062   8.106  0.4362 -0.2594  0.1560
  412MOL0    Cl56763  10.422   2.119   8.003  0.4835  0.0875  0.4921
  412MOL0     C56764   9.185   2.426   8.153  0.5410  0.7994 -0.1112
  412MOL0     C56765   9.045   2.426   8.120  0.0803 -0.3292  1.0433
  412MOL0     O56766   8.819   2.664   8.221  0.1893  0.4515 -0.4563
  412MOL0     C56767   8.538   2.682   8.197 -0.0382 -0.3337 -0.7134
  412MOL0     C56768   8.405   2.700   8.165  0.6805 -0.3306  0.3697
  412MOL0     N56769   7.712   2.872   7.734 -0.0585  0.9298 -0.5277
  412MOL0     N56770   7.716   2.879   7.608  0.8784 -0.1270  0.3112
  412MOL0     C56771   6.660   2.682   7.330  0.1513 -0.1640  0.0704
  412MOL0     C56772   6.528   2.686   7.300 -0.4074  0.0458 -0.4815
  412MOL0     C56773   6.119   2.583   7.081 -0.1003  0.4789 -0.6581
  412MOL0     C56774   6.065   2.656   7.187  0.2129 -1.0796  0.1844
  412MOL0     C56775   5.929   2.684   7.196  0.2601  0.5286  0.1893
  412MOL0     C56776   5.847   2.644   7.091  0.4559  0.0925  0.1020
  412MOL0     O56777   5.715   2.649   7.100  0.9849  0.7174  0.3640
  412MOL0     C56778   5.657   2.728   7.204  0.2887  0.4641 -0.6187
  412MOL0     C56779   5.509   2.739   7.195  0.5658 -1.2918  0.4466
  412MOL0     C56780   5.465   2.786   7.049 -0.4293 -1.1700 -0.0100
  412MOL0     C56781   5.313   2.760   7.036 -0.5419 -0.3589  0.2608
  412MOL0     C56782   5.230   2.843   7.122 -0.7385 -0.1659  0.5142
  412MOL0     C56783   5.169   2.922   7.186 -1.0201  0.1381  1.1303
  412MOL0     C56784   5.900   2.567   6.984 -0.1209 -0.1566  0.7427
  412MOL0     C56785   6.037   2.544   6.975 -0.5306 -0.0652 -0.3484
  412MOL0     C56786   6.091   2.488   6.839  0.4133  0.2244 -0.1192
  412MOL0     H56787   6.511   2.411   7.102 -1.7635 -3.3616  3.7580
  412MOL0     H56788   6.747   2.418   7.144 -1.9141 -2.0003  0.7202
  412MOL0     H56789   6.955   2.475   7.182  1.3542  1.6048 -1.5251
  412MOL0     H56790   6.923   2.400   7.331  1.7353  0.5320  0.9403
  412MOL0     H56791   7.083   2.507   7.459  0.0858  2.6148  0.7575
  412MOL0     H56792   7.163   2.457   7.313 -2.4373 -2.5056  0.3051
  412MOL0     H56793   7.150   2.676   7.207 -2.0943 -1.1877 -0.1379
  412MOL0     H56794   7.046   2.738   7.333  0.0661 -0.0941  2.0684
  412MOL0     H56795   7.288   2.821   7.364  1.5011 -0.6838  0.5935
  412MOL0     H56796   7.229   2.711   7.496  0.6908  1.7077  1.1064
  412MOL0     H56797   7.388   2.653   7.235 -1.1931 -3.3437 -0.6790
  412MOL0     H56798   7.370   2.534   7.363  1.8869  0.2387 -0.5073
  412MOL0     H56799   7.503   2.795   7.396  1.5507  0.2013  0.1392
  412MOL0     H56800   7.474   2.680   7.527  1.7202  1.2559  0.9284
  412MOL0     H56801   7.645   2.631   7.270 -1.8660 -1.1413 -0.1812
  412MOL0     H56802   7.661   2.533   7.413  0.4423 -1.2244 -1.8048
  412MOL0     H56803   7.855   2.677   7.389  0.9497  0.9500 -0.0860
  412MOL0     H56804   7.769   2.814   7.362 -0.9881  0.1372  0.4644
  412MOL0     H56805   7.854   2.589   7.649  1.1099  0.7571  1.3435
  412MOL0     H56806   7.753   2.590   7.912  2.0817 -0.5518  0.5588
  412MOL0     H56807   7.738   2.752   7.983 -0.4609  1.9468 -2.4700
  412MOL0     H56808   7.997   2.657   7.882  1.5500  1.2703 -1.4535
  412MOL0     H56809   7.962   2.825   7.943 -1.0014  1.0632  2.1187
  412MOL0     H56810   7.900   2.723   8.166  0.6505 -0.0819  0.7993
  412MOL0     H56811   7.940   2.557   8.098 -3.4278  0.9780  0.4255
  412MOL0     H56812   8.107   2.802   8.109 -2.4740  0.6698  0.6497
  412MOL0     H56813   8.119   2.677   8.247  1.5733 -1.0290 -0.5309
  412MOL0     H56814   8.346   2.413   8.000 -1.4517  0.0784 -0.4520
  412MOL0     H56815   8.625   2.288   8.144  2.3741 -1.8407 -1.2377
  412MOL0     H56816   8.656   2.340   7.972 -2.0544  0.5874 -1.3968
  412MOL0     H56817   8.500   2.274   8.008 -1.1019 -0.1911  0.9267
  412MOL0     H56818   8.924   2.392   8.432 -1.8387  0.7498 -1.0517
  412MOL0     H56819   9.159   2.380   8.486  1.3336  0.6100 -0.7947
  412MOL0     H56820   9.421   2.259   8.209 -1.6463 -0.6737  0.7759
  412MOL0     H56821   9.457   2.425   8.144  0.1568  0.9510 -0.1269
  412MOL0     H56822   9.627   2.456   8.312  0.7376 -0.0328 -1.0215
  412MOL0     H56823   9.596   2.286   8.370  1.1658 -0.7225 -1.1090
  412MOL0     H56824   9.717   2.392   8.115 -2.4249 -0.1998  0.7832
  412MOL0     H56825   9.636   2.233   8.102 -0.0654  0.3482  0.1713
  412MOL0     H56826   9.773   2.145   8.285  0.2617  1.0882  2.7213
  412MOL0     H56827   9.858   2.298   8.305 -1.4963  0.0194  0.8258
  412MOL0     H56828   9.853   2.128   8.047 -0.2285  0.1640  0.1121
  412MOL0     H56829   9.934   2.273   8.055 -1.7259 -0.9016 -1.4749
  412MOL0     H56830   9.978   1.999   8.171 -1.9941 -0.6759  0.3322
  412MOL0     H56831  10.058   2.136   8.257 -1.4229 -0.6645  1.0696
  412MOL0     H56832  10.174   2.213   8.038 -1.7473 -0.1752  0.5540
  412MOL0     H56833  10.130   2.068   7.958  0.5416  0.9892 -0.9054
  412MOL0     H56834  10.288   1.953   8.113 -2.0272 -0.3480 -0.0498
  412MOL0     H56835  10.300   2.100   8.207  1.9277 -1.5769  0.5103
  412MOL0     H56836   9.251   2.432   8.066 -1.3046  0.0236 -1.6215
  412MOL0     H56837   9.018   2.448   8.017 -2.0218 -0.7850  1.4503
  412MOL0     H56838   8.580   2.762   8.256  2.2147 -2.0494  0.1644
  412MOL0     H56839   8.358   2.790   8.201 -2.3253 -2.0304  1.0122
  412MOL0     H56840   6.706   2.753   7.398 -0.3491 -0.1804  0.4332
  412MOL0     H56841   6.471   2.769   7.339  1.8857  0.6415  1.8462
  412MOL0     H56842   6.119   2.705   7.267 -1.0868 -1.3516  1.2707
  412MOL0     H56843   5.890   2.740   7.281 -0.7991  1.4052 -0.8493
  412MOL0     H56844   5.689   2.689   7.300  3.8388 -0.2315 -1.9425
  412MOL0     H56845   5.692   2.831   7.192 -1.1214  1.0501 -0.0011
  412MOL0     H56846   5.458   2.801   7.269 -0.7239 -2.8305  0.9067
  412MOL0     H56847   5.478   2.634   7.204  1.4636 -1.6635 -0.5318
  412MOL0     H56848   5.487   2.892   7.032  1.6216 -1.1646  2.2184
  412MOL0     H56849   5.514   2.732   6.968  1.2176 -2.9531  2.0804
  412MOL0     H56850   5.295   2.655   7.056  1.4139 -0.8920 -0.5241
  412MOL0     H56851   5.291   2.778   6.930  0.0013 -2.2951 -0.2158
  412MOL0     H56852   5.121   2.988   7.255 -0.7699  0.8380  0.6518
  412MOL0     H56853   5.834   2.553   6.898 -0.7243  1.6947  0.8762
  412MOL0     H56854   6.016   2.505   6.761  0.1166  0.0457  0.1276
  412MOL0     H56855   6.182   2.536   6.802 -0.4680  0.2082 -2.5551
  412MOL0     H56856   6.108   2.381   6.849 -0.9827 -0.0950 -0.8762
  413MOL0     O56857   9.401   6.065   6.174 -0.6487 -0.0033  0.4083
  413MOL0     C56858   9.354   5.974   6.234 -0.5740 -0.2576 -0.3646
  413MOL0     O56859   9.422   5.877   6.308 -0.5927 -0.0482 -0.4658
  413MOL0     C56860   9.557   5.885   6.323 -0.2814 -0.1040  0.3344
  413MOL0     C56861   9.600   5.844   6.448 -0.0923  0.0521  0.6884
  413MOL0     C56862   9.733   5.826   6.482 -0.4442  0.5573  0.4445
  413MOL0     C56863   9.835   5.843   6.391  0.1794  0.5941 -0.1012
  413MOL0     O56864   9.970   5.812   6.418  0.3203  0.0602 -0.7025
  413MOL0     C56865  10.067   5.880   6.338 -0.0128  0.1600 -0.9321
  413MOL0     C56866  10.197   5.885   6.413 -0.1395 -0.0309 -0.5396
  413MOL0     C56867  10.299   5.955   6.326  0.3011 -1.3100  0.8706
  413MOL0     C56868  10.425   5.996   6.399 -0.1069 -0.0437 -0.3339
  413MOL0     C56869  10.516   6.064   6.299  0.2996 -0.1523  0.2028
  413MOL0     C56870  10.665   6.090   6.354  0.8765 -0.6227  0.7292
  413MOL0     C56871  10.754   6.136   6.239 -0.3050  0.3116 -0.2793
  413MOL0     C56872  10.901   6.115   6.276 -0.0137 -0.3993 -0.3696
  413MOL0     N56873  10.994   6.169   6.173  0.0610  0.4136 -0.3085
  413MOL0     C56874  10.994   6.290   6.125 -0.5213 -0.2038  0.1613
  413MOL0     C56875  11.088   6.285   6.026  0.8362  0.6171  0.3582
  413MOL0     C56876  11.120   6.409   5.948  0.0433  0.0854  0.6770
  413MOL0     C56877  11.064   6.402   5.800  0.3831 -0.3951 -0.1962
  413MOL0     C56878  11.177   6.372   5.702  0.1276 -0.5463  0.6174
  413MOL0     C56879  11.111   6.367   5.558 -0.0484  0.2799 -0.1323
  413MOL0     O56880  11.195   6.289   5.471  0.0810 -0.5655  0.3437
  413MOL0     C56881  11.327   6.321   5.461  0.7198 -0.2326  0.5783
  413MOL0     C56882  11.421   6.245   5.522  0.7250  0.5913  0.1924
  413MOL0     C56883  11.558   6.256   5.507 -0.1425 -0.0617 -0.0951
  413MOL0     C56884  11.652   6.160   5.584  0.3165 -0.3793 -0.2830
  413MOL0     C56885  11.607   6.365   5.430  0.1496 -0.3941 -1.1066
  413MOL0     C56886  11.752   6.386   5.405  0.8058 -0.2220  0.1578
  413MOL0     O56887  11.778   6.467   5.297 -0.3969 -0.2520  0.0693
  413MOL0     C56888  11.908   6.509   5.272 -0.3243  0.6851  0.2711
  413MOL0     C56889  11.935   6.527   5.137  0.1451  0.4041  0.1342
  413MOL0     C56890  12.059   6.573   5.100 -0.8231  0.4837  0.5410
  413MOL0     C56891  12.158   6.603   5.191  0.7548  0.4267  0.2519
  413MOL0     O56892  12.282   6.614   5.135 -0.3076 -0.3872  0.0879
  413MOL0     C56893  12.396   6.601   5.218 -0.1880 -0.2507 -0.8859
  413MOL0     C56894  12.451   6.743   5.244 -0.2136 -0.3295 -0.1710
  413MOL0     C56895  12.565   6.792   5.148  0.9890 -0.3667  0.3049
  413MOL0     C56896  12.698   6.723   5.166  0.0178 -0.2799  0.3384
  413MOL0     C56897  12.812   6.785   5.091 -0.6347  0.1830 -0.4010
  413MOL0     C56898  12.953   6.748   5.145  0.8716 -0.4161  0.3320
  413MOL0     C56899  13.063   6.797   5.060 -0.5597 -0.1538  1.0095
  413MOL0     C56900  13.064   6.941   5.020  0.0795  0.9122 -0.3085
  413MOL0    Cl56901  13.082   7.032   5.179  0.0182  0.1654  0.2868
  413MOL0     C56902  12.122   6.597   5.327  0.9317  1.0020 -0.0845
  413MOL0     C56903  11.999   6.555   5.369  0.1812 -0.1874  0.5983
  413MOL0     O56904  11.830   6.319   5.464  0.1230 -0.2734  0.5806
  413MOL0     C56905  11.512   6.439   5.367  0.3479 -0.2233  0.4726
  413MOL0     C56906  11.376   6.420   5.378  0.0808 -0.2746 -0.0808
  413MOL0     N56907  11.136   6.151   6.008  0.7550  0.0855 -0.0629
  413MOL0     N56908  11.069   6.084   6.096  0.3650 -0.4164 -0.5434
  413MOL0     C56909   9.791   5.876   6.256 -0.2378  0.5173  0.0273
  413MOL0     C56910   9.656   5.889   6.225 -0.4595  0.3069  0.0933
  413MOL0     C56911   9.203   5.959   6.242 -0.1358 -0.1348 -0.0475
  413MOL0     C56912   9.148   5.867   6.330 -0.4259  0.5378 -0.6510
  413MOL0     C56913   9.013   5.851   6.356  0.1247 -0.0903 -0.4768
  413MOL0     C56914   8.917   5.934   6.285 -0.1847  0.6685 -1.0219
  413MOL0     O56915   8.782   5.910   6.301 -0.0884 -0.5493  0.0917
  413MOL0     C56916   8.679   5.999   6.254 -0.7559  0.7192  0.0657
  413MOL0     C56917   8.629   5.966   6.116  0.0048 -0.4284 -0.0480
  413MOL0     C56918   8.573   5.820   6.103  0.0150  0.3208 -0.0323
  413MOL0     C56919   8.447   5.781   6.171  0.3744  0.2624 -0.5647
  413MOL0     C56920   8.438   5.635   6.141  0.9767 -0.2956  0.2407
  413MOL0     C56921   8.441   5.521   6.113 -0.5973 -0.2040 -0.0398
  413MOL0     C56922   8.968   6.023   6.192 -0.4661 -0.9404 -0.1918
  413MOL0     C56923   9.110   6.036   6.168  0.6025 -0.6668  0.9485
  413MOL0     C56924   9.150   6.141   6.069  0.5019  0.2999  0.1770
  413MOL0     H56925   9.535   5.807   6.527  3.4965 -1.0873  3.3939
  413MOL0     H56926   9.754   5.788   6.582  1.5139  0.6981  0.1262
  413MOL0     H56927  10.043   5.985   6.323 -0.4449  0.4581  1.3617
  413MOL0     H56928  10.078   5.829   6.242  2.0643 -1.9723  0.3411
  413MOL0     H56929  10.184   5.934   6.510  0.0705  2.6745 -1.8158
  413MOL0     H56930  10.239   5.786   6.434  3.7520  1.7022  0.7005
  413MOL0     H56931  10.327   5.896   6.238 -0.3095  2.1994 -1.9038
  413MOL0     H56932  10.254   6.049   6.292  1.5653 -0.5492  1.2612
  413MOL0     H56933  10.397   6.067   6.477 -0.5624 -2.7324  2.1458
  413MOL0     H56934  10.472   5.905   6.437  1.4185  1.1923  0.8126
  413MOL0     H56935  10.479   6.159   6.259  2.7322  0.5831 -0.4705
  413MOL0     H56936  10.529   6.000   6.211 -0.4965  3.0888 -2.4384
  413MOL0     H56937  10.647   6.169   6.426  1.9925  0.2531  0.0820
  413MOL0     H56938  10.715   6.003   6.399  2.7542 -0.2083 -0.4319
  413MOL0     H56939  10.737   6.243   6.222 -0.6577  0.5451  1.3851
  413MOL0     H56940  10.742   6.078   6.147 -1.6288  0.3361 -0.1384
  413MOL0     H56941  10.923   6.160   6.373 -0.4752 -1.4630  0.2529
  413MOL0     H56942  10.914   6.008   6.297 -4.0083 -0.9368  0.3761
  413MOL0     H56943  10.928   6.372   6.151  1.8826  2.3850 -1.3055
  413MOL0     H56944  11.226   6.438   5.945 -0.6822  2.9634 -0.9594
  413MOL0     H56945  11.083   6.494   6.006  0.4306  0.8220 -0.1337
  413MOL0     H56946  10.998   6.317   5.784 -0.9476  0.9003 -1.9525
  413MOL0     H56947  11.011   6.497   5.791 -1.7809 -1.5115  0.2020
  413MOL0     H56948  11.253   6.451   5.711  0.6459 -1.2151  2.8468
  413MOL0     H56949  11.228   6.278   5.726  0.0176 -1.4326 -2.2282
  413MOL0     H56950  11.011   6.324   5.564  0.0071  0.3073  1.2654
  413MOL0     H56951  11.091   6.464   5.512 -2.0399 -0.6121 -1.2952
  413MOL0     H56952  11.383   6.174   5.595  0.7066  0.8283  0.4180
  413MOL0     H56953  11.714   6.213   5.658  0.7680 -1.6481  0.2717
  413MOL0     H56954  11.713   6.110   5.509  0.6561  2.7140 -2.2659
  413MOL0     H56955  11.582   6.090   5.630 -3.3743  2.4845 -1.0454
  413MOL0     H56956  11.866   6.493   5.060 -1.0922  1.8440  0.5584
  413MOL0     H56957  12.092   6.574   4.997  1.0273  0.3575  1.0840
  413MOL0     H56958  12.365   6.561   5.315 -3.3362  0.5213 -1.4630
  413MOL0     H56959  12.465   6.534   5.166  0.7469  1.9074 -2.5929
  413MOL0     H56960  12.376   6.823   5.250  2.3550  2.4261 -1.6248
  413MOL0     H56961  12.508   6.740   5.337 -0.6626 -0.3672  0.1035
  413MOL0     H56962  12.578   6.899   5.162 -1.7802  0.1313 -0.4651
  413MOL0     H56963  12.521   6.780   5.049 -1.4945 -2.0499  1.5183
  413MOL0     H56964  12.691   6.614   5.159  0.3011 -0.1908 -1.9950
  413MOL0     H56965  12.727   6.739   5.270  1.8464  2.1463 -0.4652
  413MOL0     H56966  12.808   6.748   4.988 -0.5178 -0.5501 -0.1453
  413MOL0     H56967  12.794   6.893   5.087  3.4176  0.9835 -2.3431
  413MOL0     H56968  12.972   6.641   5.156  3.0606  0.1138  2.8098
  413MOL0     H56969  12.967   6.794   5.243 -0.7109  2.6238 -0.7399
  413MOL0     H56970  13.057   6.730   4.974  0.5243 -0.6301  1.2938
  413MOL0     H56971  13.154   6.766   5.112  1.6957  0.0882 -2.4732
  413MOL0     H56972  12.976   6.984   4.971 -1.3189 -1.7299 -0.3190
  413MOL0     H56973  13.142   6.953   4.945  2.4175 -0.1846  1.8032
  413MOL0     H56974  12.189   6.614   5.411  1.1333  1.4212 -0.3231
  413MOL0     H56975  11.966   6.558   5.472 -1.9596 -0.0878 -0.0495
  413MOL0     H56976  11.544   6.517   5.298 -4.9305  2.1008  0.1512
  413MOL0     H56977  11.313   6.491   5.325 -2.5600 -0.2187  2.8426
  413MOL0     H56978   9.857   5.879   6.170 -1.4263  1.5092 -0.8823
  413MOL0     H56979   9.618   5.912   6.126 -1.5942  1.2395  0.7286
  413MOL0     H56980   9.213   5.808   6.394 -2.6201 -0.4221  0.8225
  413MOL0     H56981   8.966   5.789   6.432 -0.7308 -0.8556 -1.6050
  413MOL0     H56982   8.594   6.006   6.322 -0.8946  0.7235 -0.1080
  413MOL0     H56983   8.720   6.101   6.257  0.0871  0.3918 -0.0086
  413MOL0     H56984   8.711   5.976   6.045  0.2295 -3.7014 -0.4241
  413MOL0     H56985   8.556   6.041   6.086  1.1388  0.4115 -0.7971
  413MOL0     H56986   8.559   5.795   5.997 -0.8413 -0.8793  0.3355
  413MOL0     H56987   8.656   5.759   6.140  0.1517 -0.1695 -1.0946
  413MOL0     H56988   8.367   5.839   6.123 -1.4640 -2.2273 -0.6599
  413MOL0     H56989   8.449   5.807   6.278  0.8287  0.3681 -0.5972
  413MOL0     H56990   8.457   5.416   6.093  1.6211  0.1377 -0.3972
  413MOL0     H56991   8.896   6.081   6.135  3.2026  3.0906 -1.3184
  413MOL0     H56992   9.061   6.198   6.041  1.5463  4.3437  3.9649
  413MOL0     H56993   9.203   6.223   6.120  1.7811 -0.5586  0.2747
  413MOL0     H56994   9.201   6.093   5.985 -3.1416  2.0005 -3.3792
  414MOL0     O56995   4.395  10.863   9.521  0.0309 -0.1980  0.6949
  414MOL0     C56996   4.440  10.759   9.566 -0.3275 -0.1411  1.1369
  414MOL0     O56997   4.390  10.637   9.542  0.9352 -0.1322 -0.1612
  414MOL0     C56998   4.267  10.623   9.485  0.5283  0.9525 -0.2017
  414MOL0     C56999   4.150  10.642   9.560  1.2564 -0.0560  0.2482
  414MOL0     C57000   4.025  10.618   9.488 -0.1086 -0.1020 -0.4048
  414MOL0     C57001   4.019  10.566   9.364 -0.0883  0.0764 -0.3474
  414MOL0     O57002   3.895  10.553   9.320 -0.5890 -0.2853  0.9273
  414MOL0     C57003   3.870  10.622   9.196  0.1752  0.1185  0.1700
  414MOL0     C57004   3.744  10.577   9.133  0.1209 -0.6117 -0.1799
  414MOL0     C57005   3.629  10.555   9.230 -0.6173  0.5088  0.0556
  414MOL0     C57006   3.488  10.570   9.172 -0.3473 -0.8504 -0.0664
  414MOL0     C57007   3.389  10.506   9.256 -0.0533 -0.3948 -0.3278
  414MOL0     C57008   3.251  10.537   9.206  0.1815  0.7562  1.2879
  414MOL0     C57009   3.187  10.442   9.097 -1.0242  1.1498 -0.0289
  414MOL0     C57010   3.060  10.507   9.037 -0.1874  0.1498  0.0196
  414MOL0     N57011   2.976  10.402   8.973 -0.8737  0.0198  0.0483
  414MOL0     C57012   3.024  10.289   8.901 -0.5112 -0.6035 -0.8902
  414MOL0     C57013   2.908  10.235   8.862 -0.2001 -0.2864 -0.1059
  414MOL0     C57014   2.899  10.115   8.769 -0.3361 -0.2793 -0.2303
  414MOL0     C57015   2.905  10.174   8.621 -0.6080  0.2426  0.1431
  414MOL0     C57016   2.908  10.064   8.514 -0.0672 -0.8081  1.0545
  414MOL0     C57017   3.051  10.006   8.505  0.7473  0.0296  0.0954
  414MOL0     O57018   3.139  10.107   8.463 -0.2425 -0.0970  0.2651
  414MOL0     C57019   3.279  10.087   8.480  0.6973 -0.4966  0.0988
  414MOL0     C57020   3.360  10.191   8.443 -0.0498  0.5648 -0.3466
  414MOL0     C57021   3.506  10.176   8.437 -0.7567  0.5011  0.2867
  414MOL0     C57022   3.583  10.299   8.394 -0.1869  0.0392  0.1717
  414MOL0     C57023   3.558  10.045   8.466 -0.4946 -0.2388  0.7895
  414MOL0     C57024   3.694  10.003   8.430 -0.8211  0.0956  0.2524
  414MOL0     O57025   3.705   9.872   8.380 -0.1721 -0.0014  0.7292
  414MOL0     C57026   3.824   9.820   8.331 -0.4235 -0.1643 -0.0537
  414MOL0     C57027   3.842   9.684   8.365 -0.3934 -1.4690  0.5464
  414MOL0     C57028   3.954   9.615   8.324  0.3783  1.0174  0.7188
  414MOL0     C57029   4.053   9.689   8.247  0.0599  0.3190 -0.0562
  414MOL0     O57030   4.164   9.620   8.228  0.3288 -0.1131  0.1232
  414MOL0     C57031   4.285   9.684   8.179 -0.1978 -0.5034 -0.2580
  414MOL0     C57032   4.402   9.591   8.166  1.0111 -0.9267  0.8764
  414MOL0     C57033   4.447   9.542   8.297  0.0837  0.0167 -0.3337
  414MOL0     C57034   4.588   9.479   8.283 -0.1328 -1.1892 -0.7441
  414MOL0     C57035   4.621   9.376   8.401  0.0498 -0.1982  0.4025
  414MOL0     C57036   4.763   9.311   8.386 -0.0123 -0.4085 -0.6686
  414MOL0     C57037   4.860   9.354   8.500  0.1168 -0.6923 -0.2984
  414MOL0     C57038   5.001   9.309   8.476  0.4602  1.0107 -0.1742
  414MOL0    Cl57039   5.011   9.147   8.429  0.2524  0.0756 -0.2322
  414MOL0     C57040   4.032   9.824   8.214  0.2729 -0.3102 -0.8710
  414MOL0     C57041   3.917   9.887   8.251 -0.6471  0.2655 -0.3609
  414MOL0     O57042   3.792  10.070   8.468  0.2520  1.0228  0.0924
  414MOL0     C57043   3.476   9.945   8.512 -0.1376  0.4075 -0.3975
  414MOL0     C57044   3.337   9.961   8.506  0.3496  0.2509  0.0383
  414MOL0     N57045   2.802  10.306   8.917 -0.5147 -0.5080 -0.7248
  414MOL0     N57046   2.840  10.399   8.984 -0.3704  0.3611  0.2633
  414MOL0     C57047   4.137  10.532   9.302 -0.0645  0.4483 -0.5267
  414MOL0     C57048   4.259  10.559   9.363 -0.4995 -0.0517  0.5465
  414MOL0     C57049   4.574  10.774   9.631  0.0978 -1.0342 -0.2514
  414MOL0     C57050   4.623  10.908   9.664 -0.1483  0.0923 -0.8157
  414MOL0     C57051   4.744  10.928   9.730  0.5387  0.7084 -0.5367
  414MOL0     C57052   4.828  10.817   9.768 -0.3552  0.0652  0.1917
  414MOL0     O57053   4.955  10.838   9.817  0.4240 -1.1033  0.0798
  414MOL0     C57054   4.979  10.951   9.894  0.0090  0.2912  0.0008
  414MOL0     C57055   5.081  10.921  10.001 -0.2559 -0.6535 -0.0138
  414MOL0     C57056   5.020  10.950  10.139  0.3599 -0.0169  0.1495
  414MOL0     C57057   5.100  10.919  10.264  0.0121  0.0416 -0.0142
  414MOL0     C57058   5.230  10.981  10.267 -0.4594 -0.1305 -0.0826
  414MOL0     C57059   5.338  11.041  10.255 -0.5355  0.3843  0.4687
  414MOL0     C57060   4.783  10.691   9.746 -0.2518 -0.1827 -0.7580
  414MOL0     C57061   4.650  10.670   9.684 -1.3091 -0.1359  0.1675
  414MOL0     C57062   4.595  10.532   9.681  0.3970  0.7264  0.2455
  414MOL0     H57063   4.152  10.678   9.662  2.6844 -0.5702  0.4178
  414MOL0     H57064   3.930  10.636   9.538 -1.1429  0.6341 -2.5163
  414MOL0     H57065   3.948  10.598   9.123  0.4183  1.2957  0.0205
  414MOL0     H57066   3.863  10.730   9.216 -0.4795  0.2425 -0.6463
  414MOL0     H57067   3.725  10.660   9.064  4.5499 -0.0590 -1.0394
  414MOL0     H57068   3.758  10.485   9.075 -1.9535 -1.1257  0.0274
  414MOL0     H57069   3.638  10.453   9.268 -0.3917  0.5339  0.0727
  414MOL0     H57070   3.622  10.631   9.309  0.4075  0.7741 -0.0906
  414MOL0     H57071   3.469  10.675   9.147  3.3882 -0.6552 -3.1716
  414MOL0     H57072   3.496  10.515   9.077  1.6029 -0.7746  0.0073
  414MOL0     H57073   3.393  10.544   9.359 -0.8010  0.0392 -0.4501
  414MOL0     H57074   3.411  10.399   9.258  3.1782  0.1964  0.7593
  414MOL0     H57075   3.185  10.546   9.293  0.2466  0.1641  1.4010
  414MOL0     H57076   3.253  10.638   9.165  1.1387 -0.1359 -1.0096
  414MOL0     H57077   3.161  10.356   9.159  0.7589  2.1150  2.2409
  414MOL0     H57078   3.262  10.416   9.022 -0.6840 -1.9945  1.2683
  414MOL0     H57079   2.999  10.557   9.112  0.3688  1.6993 -0.5150
  414MOL0     H57080   3.092  10.579   8.960  0.6373 -2.2713 -2.0386
  414MOL0     H57081   3.124  10.256   8.874 -0.2023  0.6513 -1.3452
  414MOL0     H57082   2.800  10.069   8.771 -1.3264  1.7569  0.8769
  414MOL0     H57083   2.971  10.036   8.790 -0.3746 -0.5554 -1.0787
  414MOL0     H57084   2.820  10.237   8.592 -0.8950  0.0262  0.5004
  414MOL0     H57085   2.993  10.238   8.607 -0.1952  0.1749  2.0760
  414MOL0     H57086   2.835   9.987   8.540 -0.8356 -0.7664 -0.8334
  414MOL0     H57087   2.867  10.113   8.425  0.2173  0.5079  1.6171
  414MOL0     H57088   3.085   9.979   8.606  0.2272  2.8022  1.1224
  414MOL0     H57089   3.058   9.924   8.434  4.6648  0.3463 -0.0953
  414MOL0     H57090   3.306  10.283   8.421 -0.2626  1.0419  1.9672
  414MOL0     H57091   3.577  10.304   8.285 -0.8741 -1.1719  0.1336
  414MOL0     H57092   3.680  10.294   8.443 -1.1109 -3.0665  1.9546
  414MOL0     H57093   3.526  10.387   8.424  0.4817  0.9551 -1.1413
  414MOL0     H57094   3.762   9.632   8.416 -0.5407  0.2303  2.1863
  414MOL0     H57095   3.966   9.508   8.332  2.1098  1.0586 -0.6126
  414MOL0     H57096   4.271   9.736   8.084  2.3648  1.9154  0.5539
  414MOL0     H57097   4.322   9.767   8.241  1.2388 -2.5344  1.8000
  414MOL0     H57098   4.368   9.511   8.100  2.1703  0.1912 -1.1763
  414MOL0     H57099   4.478   9.649   8.114 -1.6394  1.6406 -0.4771
  414MOL0     H57100   4.379   9.463   8.329  1.1350 -0.1574  1.6635
  414MOL0     H57101   4.439   9.622   8.371  1.9674  1.0293 -1.1536
  414MOL0     H57102   4.656   9.563   8.299  1.4728 -2.7664  1.3234
  414MOL0     H57103   4.602   9.437   8.183  1.5101  1.2074 -1.6088
  414MOL0     H57104   4.623   9.432   8.495 -0.7101 -0.4101  0.5484
  414MOL0     H57105   4.541   9.302   8.401 -1.3658  1.2636  1.3323
  414MOL0     H57106   4.806   9.339   8.289 -1.4323  2.6580 -0.4977
  414MOL0     H57107   4.752   9.202   8.390  0.5310 -0.5023  4.2915
  414MOL0     H57108   4.834   9.314   8.599 -0.4482 -1.7726 -0.8622
  414MOL0     H57109   4.855   9.463   8.509 -0.8726 -0.6172 -1.5226
  414MOL0     H57110   5.075   9.327   8.554 -2.0706 -0.9741  2.9122
  414MOL0     H57111   5.032   9.369   8.390 -2.4733  1.6172 -0.9057
  414MOL0     H57112   4.106   9.898   8.185  0.4367  1.7466  3.8706
  414MOL0     H57113   3.896   9.991   8.226  1.1721  0.4310 -1.3630
  414MOL0     H57114   3.528   9.850   8.522  0.6207  0.8295 -0.2095
  414MOL0     H57115   3.270   9.879   8.529  0.2819 -0.3328 -1.9915
  414MOL0     H57116   4.141  10.487   9.204 -1.0749 -1.1776  0.1266
  414MOL0     H57117   4.347  10.538   9.303 -1.0431 -1.0613  0.0735
  414MOL0     H57118   4.574  11.002   9.641  3.2470  1.8699 -1.4677
  414MOL0     H57119   4.785  11.028   9.735  0.5277  0.6534  1.6386
  414MOL0     H57120   5.015  11.029   9.826 -1.6924  2.3891  1.3624
  414MOL0     H57121   4.886  10.995   9.932  0.9150  0.8117  1.7388
  414MOL0     H57122   5.171  10.981   9.986  0.0543 -1.6937 -3.0571
  414MOL0     H57123   5.101  10.813   9.997 -1.2800 -0.8308 -2.5674
  414MOL0     H57124   4.989  11.055  10.137  1.1787  0.2345  0.4806
  414MOL0     H57125   4.928  10.891  10.138  0.1280  0.3398 -0.4275
  414MOL0     H57126   5.103  10.810  10.273  0.9320  0.0238 -0.4510
  414MOL0     H57127   5.037  10.945  10.350 -1.7883 -2.9974 -0.2530
  414MOL0     H57128   5.431  11.093  10.270  0.9726 -2.6931  3.0707
  414MOL0     H57129   4.851  10.610   9.773  0.6482  1.1794  1.2863
  414MOL0     H57130   4.583  10.479   9.586  1.4450  0.8467  0.0301
  414MOL0     H57131   4.646  10.455   9.740 -1.2377  0.6710  1.6613
  414MOL0     H57132   4.499  10.532   9.733  1.4334 -0.2857  2.2699
  415MOL0     O57133   2.937   4.392   9.145  0.0667 -0.1260 -0.9100
  415MOL0     C57134   2.912   4.492   9.074 -0.4453 -0.6623 -0.3701
  415MOL0     O57135   2.964   4.622   9.081 -0.4527  0.4717 -0.2042
  415MOL0     C57136   3.029   4.653   9.202  0.3165 -1.2121  0.6958
  415MOL0     C57137   3.139   4.586   9.239 -0.7132  0.4617 -0.4428
  415MOL0     C57138   3.195   4.632   9.359 -0.7911  0.0419 -0.5418
  415MOL0     C57139   3.143   4.733   9.437 -0.3343  0.1834  0.7524
  415MOL0     O57140   3.206   4.754   9.555 -0.0622 -0.5702 -0.7295
  415MOL0     C57141   3.170   4.879   9.618 -0.0432  0.7128 -0.2700
  415MOL0     C57142   3.253   4.922   9.738 -0.6514 -0.1958 -0.0250
  415MOL0     C57143   3.400   4.900   9.718 -0.0481 -0.0442 -0.0049
  415MOL0     C57144   3.469   4.954   9.840 -0.0923 -1.0359  0.0998
  415MOL0     C57145   3.619   4.911   9.837 -0.3812  0.7828  0.4788
  415MOL0     C57146   3.700   5.007   9.923 -0.3093 -0.0259  0.0993
  415MOL0     C57147   3.842   4.942   9.927 -0.0233 -0.7168 -0.2356
  415MOL0     C57148   3.945   5.044   9.967 -0.6616  0.0446 -0.5080
  415MOL0     N57149   4.086   5.011   9.934 -0.0034  0.0299 -0.3159
  415MOL0     C57150   4.146   4.888   9.929 -0.2999  0.5816  0.6416
  415MOL0     C57151   4.280   4.907   9.935 -0.4502  0.3152 -0.7277
  415MOL0     C57152   4.391   4.802   9.938  1.7259  0.9363 -0.2354
  415MOL0     C57153   4.516   4.854  10.006  0.4470  0.0336 -0.3348
  415MOL0     C57154   4.635   4.917   9.931  0.3782 -0.1707  0.0720
  415MOL0     C57155   4.758   4.965  10.020  0.6910 -0.0457  0.0878
  415MOL0     O57156   4.835   5.027   9.926 -0.2455 -0.4441 -0.1561
  415MOL0     C57157   4.952   5.084   9.961 -0.7626 -0.2781 -0.4198
  415MOL0     C57158   5.046   5.098   9.860 -0.1621  0.5695  0.4895
  415MOL0     C57159   5.176   5.154   9.890 -0.9373 -0.3945 -0.7509
  415MOL0     C57160   5.286   5.153   9.781 -0.1499  0.6249 -0.1012
  415MOL0     C57161   5.201   5.207  10.016 -0.3598  1.3527 -0.1937
  415MOL0     C57162   5.335   5.245  10.058  0.0034 -0.1739 -0.1068
  415MOL0     O57163   5.434   5.288   9.975  0.7327  0.1097  0.1706
  415MOL0     C57164   5.564   5.295  10.020 -1.0248 -0.3979  0.4208
  415MOL0     C57165   5.625   5.205  10.106  0.0331  0.7281 -0.0490
  415MOL0     C57166   5.756   5.229  10.144  0.2345  0.3333  0.7049
  415MOL0     C57167   5.831   5.330  10.093  0.5641 -1.0312  0.5024
  415MOL0     O57168   5.961   5.345  10.138  0.1648  0.6054  0.5899
  415MOL0     C57169   6.042   5.452  10.083  0.0832 -1.0356  0.1311
  415MOL0     C57170   6.176   5.424  10.149 -0.2530 -0.4986 -0.1089
  415MOL0     C57171   6.208   5.537  10.263  0.4258 -0.4526  0.9883
  415MOL0     C57172   6.342   5.514  10.324 -0.3148  0.8269 -0.1031
  415MOL0     C57173   6.447   5.610  10.265  0.3224 -1.0153 -0.1727
  415MOL0     C57174   6.570   5.619  10.354  0.6288  0.2950  0.4033
  415MOL0     C57175   6.681   5.689  10.271 -0.1807  0.1294 -0.3520
  415MOL0     C57176   6.811   5.707  10.348 -0.3158 -0.9290 -0.2029
  415MOL0    Cl57177   6.931   5.809  10.262 -0.1122  0.0084  0.2252
  415MOL0     C57178   5.770   5.423  10.004 -0.0941  1.0016 -0.0974
  415MOL0     C57179   5.639   5.401   9.963  0.5451 -0.0378  0.6554
  415MOL0     O57180   5.346   5.230  10.182 -0.8427  0.9454  0.3016
  415MOL0     C57181   5.097   5.204  10.121 -0.6024 -0.0751  1.1700
  415MOL0     C57182   4.969   5.144  10.090  0.2971  0.5680  0.1720
  415MOL0     N57183   4.302   5.043   9.946  0.2697  0.0542  0.7459
  415MOL0     N57184   4.182   5.112   9.951 -0.5448 -0.1367  0.1421
  415MOL0     C57185   3.025   4.800   9.394 -0.3992  0.4179 -0.9623
  415MOL0     C57186   2.972   4.760   9.271  0.1253 -0.0527 -0.3830
  415MOL0     C57187   2.813   4.468   8.962 -0.2914  0.5889  0.4607
  415MOL0     C57188   2.722   4.570   8.920 -0.0585 -0.0528  0.2782
  415MOL0     C57189   2.625   4.546   8.819 -0.0316  0.7109  0.0011
  415MOL0     C57190   2.620   4.423   8.760 -0.2161  0.7505 -0.7272
  415MOL0     O57191   2.526   4.416   8.663  0.9789 -0.4127 -0.4808
  415MOL0     C57192   2.544   4.328   8.559  0.2959 -0.4358  0.6001
  415MOL0     C57193   2.441   4.347   8.449 -0.5610  0.1710 -0.1870
  415MOL0     C57194   2.296   4.322   8.495 -0.1915  0.1833  0.1579
  415MOL0     C57195   2.199   4.428   8.462 -0.1458 -0.1231 -0.2435
  415MOL0     C57196   2.233   4.557   8.534  0.0228  0.2760 -0.2974
  415MOL0     C57197   2.255   4.662   8.590  0.5514 -0.4487 -0.1575
  415MOL0     C57198   2.709   4.319   8.788 -0.7714  0.1862 -0.6542
  415MOL0     C57199   2.805   4.343   8.889  1.1940 -0.8351 -0.7837
  415MOL0     C57200   2.895   4.229   8.922  0.0073  0.3162  0.4249
  415MOL0     H57201   3.166   4.495   9.186  0.3618  0.6596 -0.2604
  415MOL0     H57202   3.276   4.569   9.396  0.0706 -0.9799 -3.8377
  415MOL0     H57203   3.069   4.869   9.659 -0.5383  1.4828 -1.2679
  415MOL0     H57204   3.162   4.959   9.544  0.3023  0.4140 -0.6388
  415MOL0     H57205   3.229   5.029   9.740 -2.9991 -0.6313 -1.1683
  415MOL0     H57206   3.219   4.873   9.829  0.1558  0.7680  0.8099
  415MOL0     H57207   3.419   4.793   9.704 -0.3332  0.1600 -2.4943
  415MOL0     H57208   3.439   4.947   9.627  0.8670 -1.2676 -0.2849
  415MOL0     H57209   3.464   5.061   9.858  0.8015 -1.1231  0.9259
  415MOL0     H57210   3.434   4.908   9.933  0.5981 -0.3746  0.6890
  415MOL0     H57211   3.666   4.921   9.738  3.9406  1.5565  2.3653
  415MOL0     H57212   3.641   4.810   9.870 -0.9466  0.1775 -0.9207
  415MOL0     H57213   3.706   5.101   9.868  2.1369  1.1745  2.2052
  415MOL0     H57214   3.671   5.018  10.028 -0.6144  0.4316 -0.0319
  415MOL0     H57215   3.876   4.917   9.826 -0.2241 -1.7820 -0.0543
  415MOL0     H57216   3.863   4.859   9.995  1.0689  1.7888  2.7461
  415MOL0     H57217   3.932   5.137   9.911  2.9502  0.2302 -1.2759
  415MOL0     H57218   3.936   5.060  10.075 -1.3950  0.8471 -0.6748
  415MOL0     H57219   4.093   4.794   9.940 -0.1050  0.6265  2.0625
  415MOL0     H57220   4.417   4.764   9.838 -1.0920 -1.3048 -0.2359
  415MOL0     H57221   4.353   4.717   9.995  1.8084  0.4741 -0.8577
  415MOL0     H57222   4.492   4.910  10.097  0.0844 -2.9282  1.5368
  415MOL0     H57223   4.566   4.764  10.044 -1.0237 -1.0963 -0.9737
  415MOL0     H57224   4.677   4.854   9.851 -0.6939  0.3834 -0.9598
  415MOL0     H57225   4.593   5.007   9.887  1.0152 -1.1194 -2.7154
  415MOL0     H57226   4.719   5.034  10.095 -0.6055  1.1696 -1.6491
  415MOL0     H57227   4.800   4.876  10.069  1.0919 -0.2416 -0.5949
  415MOL0     H57228   5.028   5.063   9.760  2.6744  2.0595 -0.6776
  415MOL0     H57229   5.238   5.112   9.692 -0.3506  0.8638 -0.1040
  415MOL0     H57230   5.373   5.090   9.802 -2.2915 -2.3493  0.6363
  415MOL0     H57231   5.311   5.257   9.760 -1.0345  0.6894 -0.8948
  415MOL0     H57232   5.580   5.117  10.152 -0.8923  2.0702  1.7436
  415MOL0     H57233   5.802   5.157  10.211  1.6601  0.6550  0.1057
  415MOL0     H57234   6.039   5.451   9.973  2.4695  1.1168 -0.0607
  415MOL0     H57235   6.012   5.549  10.122 -0.1925 -0.6018 -1.1011
  415MOL0     H57236   6.188   5.323  10.189  2.3579  0.7420  2.6261
  415MOL0     H57237   6.256   5.435  10.076 -0.9359 -1.8682 -1.1168
  415MOL0     H57238   6.144   5.517  10.349 -1.8209  2.8115  0.2437
  415MOL0     H57239   6.195   5.640  10.229  0.0920 -0.8839 -0.2383
  415MOL0     H57240   6.387   5.415  10.319 -0.3215  0.8004  0.2765
  415MOL0     H57241   6.341   5.515  10.434  2.3447  0.3131  0.0013
  415MOL0     H57242   6.480   5.594  10.162  1.0003  1.3645 -0.3820
  415MOL0     H57243   6.409   5.712  10.265  2.9327  0.0326 -0.0687
  415MOL0     H57244   6.600   5.516  10.373  2.0263  0.4513 -0.7495
  415MOL0     H57245   6.550   5.682  10.441  0.0990 -0.6713  0.9952
  415MOL0     H57246   6.644   5.787  10.240 -3.8974 -0.5876  1.3146
  415MOL0     H57247   6.709   5.619  10.191 -0.3022 -3.1925  2.2762
  415MOL0     H57248   6.855   5.611  10.374 -0.7534 -0.6750  1.6045
  415MOL0     H57249   6.790   5.757  10.443 -0.6911 -2.3212  0.4683
  415MOL0     H57250   5.824   5.510   9.967 -0.9541  1.6300  0.0793
  415MOL0     H57251   5.579   5.461   9.896 -1.3500  0.9573  3.0550
  415MOL0     H57252   5.105   5.245  10.222  0.2668 -0.8211  1.4158
  415MOL0     H57253   4.894   5.158  10.168  0.6458  4.3218  0.0479
  415MOL0     H57254   2.971   4.876   9.449 -0.0015 -0.8609  1.3135
  415MOL0     H57255   2.877   4.801   9.236  0.2565 -0.3174 -1.0663
  415MOL0     H57256   2.722   4.670   8.961 -1.2559 -0.2316  0.7552
  415MOL0     H57257   2.545   4.616   8.798 -1.2625 -0.8534 -0.7374
  415MOL0     H57258   2.635   4.364   8.511 -1.7283  0.5775 -2.8032
  415MOL0     H57259   2.548   4.223   8.592  2.4680 -0.7009 -0.3093
  415MOL0     H57260   2.462   4.275   8.370 -2.6035  0.2064 -0.8215
  415MOL0     H57261   2.451   4.445   8.402  0.1713 -0.1560 -0.7219
  415MOL0     H57262   2.256   4.230   8.451  2.3860 -1.6541  1.3151
  415MOL0     H57263   2.302   4.298   8.602 -0.7779 -3.2657 -0.4457
  415MOL0     H57264   2.101   4.380   8.473  0.3279 -2.4157 -4.2400
  415MOL0     H57265   2.211   4.463   8.359  1.6609 -1.0191 -0.3856
  415MOL0     H57266   2.272   4.756   8.637 -1.2211 -2.1454  4.5729
  415MOL0     H57267   2.698   4.222   8.741  1.5558 -0.0980 -0.6969
  415MOL0     H57268   2.853   4.180   9.010 -0.7281  1.8500  0.9636
  415MOL0     H57269   2.910   4.150   8.848  1.5856 -0.7629  1.8256
  415MOL0     H57270   3.000   4.255   8.937  0.3238 -0.8837  0.4319
  416MOL0     O57271   8.485   6.820   9.236 -0.4060 -0.1370 -0.2870
  416MOL0     C57272   8.502   6.711   9.186  0.3622 -0.1174  0.2030
  416MOL0     O57273   8.611   6.631   9.202  0.6771 -0.4519  0.0556
  416MOL0     C57274   8.729   6.700   9.230  0.3957  0.9174  0.0714
  416MOL0     C57275   8.772   6.806   9.153  0.7366 -0.3403 -0.4130
  416MOL0     C57276   8.888   6.871   9.181 -0.5852  0.0825  0.0560
  416MOL0     C57277   8.964   6.836   9.297  0.2465 -0.0831 -0.2914
  416MOL0     O57278   9.073   6.905   9.334  0.0712 -0.0400 -0.2208
  416MOL0     C57279   9.196   6.836   9.363  0.0652  0.1827  0.0255
  416MOL0     C57280   9.319   6.932   9.366  0.2350 -0.1440 -0.1535
  416MOL0     C57281   9.450   6.862   9.405  0.8364 -0.0265  0.3986
  416MOL0     C57282   9.561   6.961   9.412 -0.3686 -0.5895 -0.2040
  416MOL0     C57283   9.661   6.940   9.534 -0.5424 -0.7337 -0.4446
  416MOL0     C57284   9.748   7.064   9.569 -0.1711 -0.3117  0.0123
  416MOL0     C57285   9.865   7.032   9.672  0.3617 -0.4998 -0.0021
  416MOL0     C57286   9.927   7.158   9.738  0.1418  0.0281  0.6806
  416MOL0     N57287  10.004   7.221   9.629  0.3158 -0.0526  0.0764
  416MOL0     C57288  10.140   7.225   9.628 -0.7342 -0.1557  0.4234
  416MOL0     C57289  10.165   7.319   9.523 -0.2383  0.6732 -0.3516
  416MOL0     C57290  10.307   7.352   9.483  0.5628 -0.6017 -0.1722
  416MOL0     C57291  10.376   7.233   9.435  0.1788 -0.1566  0.4473
  416MOL0     C57292  10.524   7.261   9.437  0.1973  0.5868  0.3981
  416MOL0     C57293  10.608   7.157   9.360 -0.1109 -0.5366 -0.2775
  416MOL0     O57294  10.751   7.186   9.375  0.1514  0.4339  0.3927
  416MOL0     C57295  10.844   7.130   9.288  0.3068 -0.6222  0.5413
  416MOL0     C57296  10.826   7.007   9.220 -0.4216  0.4420 -0.1408
  416MOL0     C57297  10.931   6.955   9.152 -1.0594 -0.6732  0.3548
  416MOL0     C57298  10.914   6.813   9.098  0.3054  1.2917 -0.5182
  416MOL0     C57299  11.046   7.036   9.119  0.6183  0.3238  0.5316
  416MOL0     C57300  11.146   6.986   9.021  0.8331  0.3649  0.4674
  416MOL0     O57301  11.276   7.017   9.055 -0.4367 -0.4796 -0.3214
  416MOL0     C57302  11.380   6.979   8.976  0.3016  0.7723 -0.1838
  416MOL0     C57303  11.438   6.850   8.993  0.4253 -0.7250 -0.3288
  416MOL0     C57304  11.538   6.803   8.905  0.5873 -0.0578 -0.2777
  416MOL0     C57305  11.610   6.895   8.821 -0.4422 -0.5445  0.2508
  416MOL0     O57306  11.721   6.866   8.743 -0.7533  0.1917  0.2093
  416MOL0     C57307  11.751   6.732   8.724 -0.1114  0.1616  0.1425
  416MOL0     C57308  11.872   6.719   8.621  0.2855 -0.1566 -0.0588
  416MOL0     C57309  12.007   6.770   8.687  1.0168 -1.2132 -0.5254
  416MOL0     C57310  12.126   6.728   8.598 -0.5242  0.4286  0.2172
  416MOL0     C57311  12.254   6.785   8.654  0.5346 -0.3593 -0.0788
  416MOL0     C57312  12.380   6.741   8.575  0.1595 -0.1368 -0.4269
  416MOL0     C57313  12.500   6.803   8.660  0.1121 -0.0423  0.1542
  416MOL0     C57314  12.603   6.887   8.577 -0.9049 -0.3590 -0.7220
  416MOL0    Cl57315  12.725   6.968   8.684 -0.0550  0.5361 -0.5248
  416MOL0     C57316  11.561   7.028   8.818 -0.6333 -0.3859 -0.5352
  416MOL0     C57317  11.450   7.068   8.895  0.0971  0.0327 -0.3801
  416MOL0     O57318  11.114   6.912   8.931  0.0611 -0.2943  0.1900
  416MOL0     C57319  11.066   7.153   9.194  1.0157  0.3883  0.1408
  416MOL0     C57320  10.958   7.202   9.275  0.1823 -0.0537 -0.4404
  416MOL0     N57321  10.047   7.353   9.469  0.4279  0.7685  0.1448
  416MOL0     N57322   9.951   7.306   9.537  0.8044  0.1087 -0.1146
  416MOL0     C57323   8.918   6.736   9.380  0.1949  0.9148 -0.6887
  416MOL0     C57324   8.794   6.667   9.346 -0.5001 -0.1184  0.7543
  416MOL0     C57325   8.393   6.644   9.107  0.2544 -0.4037  0.5612
  416MOL0     C57326   8.399   6.504   9.090  0.8151 -0.4113 -0.3433
  416MOL0     C57327   8.286   6.442   9.040 -0.2610 -0.0566 -0.4314
  416MOL0     C57328   8.173   6.504   8.998  0.0889 -0.1799  0.0120
  416MOL0     O57329   8.081   6.428   8.929 -0.7473 -0.2229 -0.2921
  416MOL0     C57330   8.007   6.506   8.836  0.0329  0.1684  0.2411
  416MOL0     C57331   7.934   6.411   8.740 -0.1271 -0.6313  0.2552
  416MOL0     C57332   7.881   6.477   8.616 -0.6692  0.0596  0.5947
  416MOL0     C57333   7.819   6.381   8.515  1.0494  0.4293 -0.2666
  416MOL0     C57334   7.681   6.323   8.539 -0.9763 -0.3151 -0.1523
  416MOL0     C57335   7.563   6.290   8.541 -0.0796 -0.0175  0.4102
  416MOL0     C57336   8.168   6.645   9.015  0.6027  0.1238  0.3206
  416MOL0     C57337   8.277   6.712   9.065  0.3016  0.5141  0.2618
  416MOL0     C57338   8.265   6.866   9.067 -1.3146  0.4489  0.0867
  416MOL0     H57339   8.709   6.841   9.072 -0.5484  1.7246  1.3718
  416MOL0     H57340   8.930   6.950   9.120 -0.4956  1.0690  1.3501
  416MOL0     H57341   9.224   6.754   9.296  0.0187  0.0618  0.1547
  416MOL0     H57342   9.180   6.790   9.461 -1.1868  1.9652  0.7252
  416MOL0     H57343   9.336   6.988   9.273  2.8932 -0.2284  0.1937
  416MOL0     H57344   9.291   7.007   9.440 -1.6182 -0.7588 -0.1748
  416MOL0     H57345   9.429   6.814   9.501  0.7901 -0.4484  0.1816
  416MOL0     H57346   9.481   6.787   9.331  0.4893 -1.1725  1.3945
  416MOL0     H57347   9.618   6.953   9.319  1.9721  1.8258  0.9131
  416MOL0     H57348   9.527   7.064   9.420  1.2475 -0.1756  2.8123
  416MOL0     H57349   9.729   6.856   9.518  2.3068  0.7901  2.5665
  416MOL0     H57350   9.600   6.907   9.618 -1.2131 -1.0193 -1.0272
  416MOL0     H57351   9.781   7.104   9.473 -2.0804 -0.4363 -0.7310
  416MOL0     H57352   9.695   7.149   9.612  1.3229  1.5426 -1.6113
  416MOL0     H57353   9.945   6.967   9.636  1.1936 -1.5173  3.3410
  416MOL0     H57354   9.806   6.978   9.747 -0.0885 -0.8449 -0.5970
  416MOL0     H57355   9.847   7.228   9.763 -1.3529 -1.8294  1.2404
  416MOL0     H57356   9.992   7.140   9.824  0.0129  0.8372  0.9575
  416MOL0     H57357  10.212   7.192   9.701 -2.3161  1.1227  2.6703
  416MOL0     H57358  10.360   7.401   9.564  2.8833  2.1015 -3.0527
  416MOL0     H57359  10.312   7.432   9.409  3.4993  0.1184  0.6973
  416MOL0     H57360  10.358   7.150   9.504 -1.8090 -1.0277 -1.0301
  416MOL0     H57361  10.333   7.216   9.336  2.3650 -1.3100 -0.3605
  416MOL0     H57362  10.544   7.362   9.400  0.4135  0.8652  1.2539
  416MOL0     H57363  10.554   7.243   9.541 -4.1726 -0.3783  1.6876
  416MOL0     H57364  10.593   7.053   9.389  3.7566 -2.4402 -4.0629
  416MOL0     H57365  10.575   7.160   9.255 -4.7254  1.0149  0.9757
  416MOL0     H57366  10.741   6.949   9.254  1.2835 -0.8489  2.3290
  416MOL0     H57367  10.831   6.760   9.146 -0.2166  1.2375 -1.4444
  416MOL0     H57368  11.003   6.751   9.112 -1.6120 -1.9491 -1.5162
  416MOL0     H57369  10.894   6.823   8.991  0.6705 -1.5329 -0.9432
  416MOL0     H57370  11.392   6.785   9.066  0.1135 -0.2395 -0.0814
  416MOL0     H57371  11.561   6.697   8.906 -1.0478 -0.4463 -1.1958
  416MOL0     H57372  11.789   6.687   8.817  0.7960 -0.3777 -0.4718
  416MOL0     H57373  11.660   6.682   8.690 -1.5976  1.6617  1.7481
  416MOL0     H57374  11.886   6.616   8.586  1.0682  0.5796 -2.0399
  416MOL0     H57375  11.833   6.776   8.536 -1.7165 -0.6075  0.5100
  416MOL0     H57376  12.011   6.744   8.793  0.6788 -0.3200 -0.2851
  416MOL0     H57377  11.986   6.877   8.681 -0.0355 -1.4681 -1.8197
  416MOL0     H57378  12.107   6.759   8.495  0.2705 -1.5578 -0.5805
  416MOL0     H57379  12.137   6.619   8.592 -1.1955  0.4206 -1.6394
  416MOL0     H57380  12.244   6.894   8.658 -0.2658 -0.4739  1.6827
  416MOL0     H57381  12.263   6.751   8.757  0.9125 -0.3813 -0.1167
  416MOL0     H57382  12.371   6.777   8.471  0.4063  0.2898 -0.3055
  416MOL0     H57383  12.403   6.635   8.579 -1.7849 -0.5798  3.9474
  416MOL0     H57384  12.548   6.717   8.707 -0.8999 -0.2749  0.7855
  416MOL0     H57385  12.465   6.874   8.736  2.6453 -1.1774  2.5328
  416MOL0     H57386  12.558   6.973   8.527  2.0669  0.5694 -2.0288
  416MOL0     H57387  12.637   6.814   8.503 -2.0866 -1.0753 -0.5923
  416MOL0     H57388  11.620   7.097   8.758 -1.3031  3.2239  2.6100
  416MOL0     H57389  11.412   7.170   8.890 -2.8723 -0.9840 -0.4373
  416MOL0     H57390  11.153   7.218   9.196  0.2589  1.4611 -0.5792
  416MOL0     H57391  10.958   7.303   9.316  0.9528  0.5691 -1.8825
  416MOL0     H57392   8.966   6.724   9.476 -0.1448  0.6380 -0.5521
  416MOL0     H57393   8.744   6.593   9.408 -3.0107 -1.0098 -2.1266
  416MOL0     H57394   8.487   6.447   9.118  0.5031  1.1261  4.7167
  416MOL0     H57395   8.279   6.333   9.038 -1.3569  0.0037 -0.2261
  416MOL0     H57396   7.936   6.567   8.893  1.1599 -0.3299  2.2812
  416MOL0     H57397   8.076   6.571   8.781  2.0366  0.2251  2.6351
  416MOL0     H57398   7.846   6.377   8.796 -0.4211 -1.4861 -0.7113
  416MOL0     H57399   7.996   6.327   8.709  0.7697  1.0960 -3.0348
  416MOL0     H57400   7.803   6.548   8.644  0.2915  1.0245  0.9325
  416MOL0     H57401   7.970   6.526   8.575 -0.1963 -0.2772  1.1978
  416MOL0     H57402   7.891   6.303   8.488 -0.4009 -0.2125 -2.5741
  416MOL0     H57403   7.808   6.430   8.418  1.2227 -0.2867 -0.6561
  416MOL0     H57404   7.460   6.267   8.556  0.1427 -1.2912  0.0725
  416MOL0     H57405   8.080   6.701   8.982 -0.3705  0.7358  3.5796
  416MOL0     H57406   8.244   6.906   9.167 -0.6000  4.3191 -1.1462
  416MOL0     H57407   8.359   6.907   9.029 -0.7690 -1.4587 -0.7591
  416MOL0     H57408   8.191   6.897   8.994 -1.9860 -2.6307 -0.6830
  417MOL0     O57409   7.376   1.375  10.935 -0.1078  0.9342  0.1628
  417MOL0     C57410   7.405   1.254  10.919 -0.2759  0.2013 -0.1445
  417MOL0     O57411   7.322   1.155  10.958 -0.3795  0.2721  0.2446
  417MOL0     C57412   7.195   1.182  11.010  0.0946  0.0931  0.8767
  417MOL0     C57413   7.180   1.242  11.138  0.4085 -0.1529 -0.4789
  417MOL0     C57414   7.049   1.267  11.187  0.2332  0.4100 -0.5640
  417MOL0     C57415   6.932   1.227  11.109  0.5249  0.5024 -0.0269
  417MOL0     O57416   6.801   1.251  11.133  0.0158 -0.6778 -0.0748
  417MOL0     C57417   6.759   1.340  11.237 -0.0278  0.0041  0.2045
  417MOL0     C57418   6.614   1.389  11.225 -0.7766  0.5239 -0.5034
  417MOL0     C57419   6.525   1.270  11.257  0.4386  0.3763 -0.1009
  417MOL0     C57420   6.371   1.300  11.229 -0.6986  0.3767 -0.1721
  417MOL0     C57421   6.287   1.176  11.253  0.2385 -0.0473  0.2603
  417MOL0     C57422   6.134   1.196  11.243 -0.6464 -0.3028 -0.0943
  417MOL0     C57423   6.069   1.079  11.317  0.1201 -0.2032 -0.0263
  417MOL0     C57424   5.914   1.087  11.339 -0.3304 -1.4265  0.0381
  417MOL0     N57425   5.874   1.156  11.470  0.2505  0.3207  0.1817
  417MOL0     C57426   5.905   1.287  11.500  0.4651 -0.3990 -0.0262
  417MOL0     C57427   5.821   1.318  11.607  0.0323 -0.8369 -0.3050
  417MOL0     C57428   5.818   1.443  11.686  0.5987  0.7636 -0.1421
  417MOL0     C57429   5.668   1.476  11.730  0.1828 -0.4517 -0.5540
  417MOL0     C57430   5.661   1.619  11.790 -0.0263 -0.1968  0.1301
  417MOL0     C57431   5.761   1.654  11.891  0.6371  0.3944  0.0461
  417MOL0     O57432   5.863   1.718  11.815  0.0529 -0.5818 -0.1333
  417MOL0     C57433   5.986   1.725  11.880  0.1191 -0.2197  0.1229
  417MOL0     C57434   6.003   1.721  12.016  0.4626 -0.7305 -0.2418
  417MOL0     C57435   6.131   1.727  12.076 -0.0480  0.2292  0.2175
  417MOL0     C57436   6.127   1.727  12.231 -0.5868  0.1183  0.5529
  417MOL0     C57437   6.244   1.718  11.996  0.0793 -0.4882  0.7561
  417MOL0     C57438   6.375   1.708  12.052 -0.1387 -0.5560  0.1244
  417MOL0     O57439   6.451   1.613  11.998 -0.0124 -0.6925 -0.4630
  417MOL0     C57440   6.581   1.596  12.049  0.0717  0.0147 -0.1749
  417MOL0     C57441   6.609   1.497  12.145 -0.5122 -0.9488 -0.0790
  417MOL0     C57442   6.735   1.484  12.187  0.2737  0.2872 -0.2067
  417MOL0     C57443   6.848   1.566  12.157  0.3705 -0.0266 -1.0705
  417MOL0     O57444   6.977   1.557  12.215 -0.3329  0.1392 -0.3155
  417MOL0     C57445   6.983   1.560  12.355 -0.3404  0.3694 -0.0185
  417MOL0     C57446   6.914   1.670  12.430 -0.6293 -0.7484  0.6870
  417MOL0     C57447   6.982   1.803  12.406  0.0628 -0.5342  0.1791
  417MOL0     C57448   6.912   1.918  12.476  0.1965 -0.6879  0.4082
  417MOL0     C57449   6.939   1.932  12.631  0.6153 -0.7680 -0.8165
  417MOL0     C57450   6.880   2.064  12.691 -0.0530 -0.9251 -0.6606
  417MOL0     C57451   6.875   2.051  12.847 -0.6164  0.3366  0.6001
  417MOL0     C57452   6.741   2.071  12.908  0.4137 -0.7253  1.2254
  417MOL0    Cl57453   6.613   1.961  12.855  0.1918 -0.2509  0.1515
  417MOL0     C57454   6.825   1.664  12.064  0.1997 -0.8356 -0.6725
  417MOL0     C57455   6.688   1.681  12.005 -1.1003  0.7685 -0.4307
  417MOL0     O57456   6.400   1.777  12.149 -0.4450 -0.2096 -0.0928
  417MOL0     C57457   6.228   1.720  11.860  0.9209  0.2062  0.4771
  417MOL0     C57458   6.096   1.721  11.799 -0.1719  0.5546  0.4074
  417MOL0     N57459   5.753   1.201  11.638  0.5205  0.4534 -0.6215
  417MOL0     N57460   5.780   1.106  11.559  0.5047  0.0778  0.6694
  417MOL0     C57461   6.948   1.166  10.978 -0.4135  0.6013  0.4576
  417MOL0     C57462   7.086   1.145  10.929 -1.0242  0.2500 -0.2253
  417MOL0     C57463   7.541   1.210  10.870 -0.6531 -0.5300  0.2083
  417MOL0     C57464   7.653   1.275  10.913  0.1615  0.2814 -0.9293
  417MOL0     C57465   7.787   1.235  10.892 -0.4526 -0.5053  0.7015
  417MOL0     C57466   7.807   1.124  10.811  0.2046  1.5780 -0.3394
  417MOL0     O57467   7.933   1.082  10.809  0.7278  0.7036  0.5173
  417MOL0     C57468   7.964   0.949  10.796 -0.2396 -0.3481  0.3863
  417MOL0     C57469   8.042   0.892  10.913 -0.6169  0.5699 -0.4744
  417MOL0     C57470   8.199   0.885  10.891  0.7397 -0.0701 -0.1479
  417MOL0     C57471   8.289   0.887  11.010  0.6633 -0.8769 -1.2484
  417MOL0     C57472   8.226   0.884  11.149 -0.5463 -0.3080 -0.0373
  417MOL0     C57473   8.192   0.884  11.266  0.4251 -0.4505 -0.7244
  417MOL0     C57474   7.690   1.052  10.758  0.1633 -0.5062  0.1605
  417MOL0     C57475   7.560   1.100  10.785 -0.5611 -0.7709 -1.2867
  417MOL0     C57476   7.447   1.033  10.714  0.1243 -0.1978  0.5885
  417MOL0     H57477   7.271   1.269  11.190 -1.0465 -1.2799  2.9366
  417MOL0     H57478   7.032   1.317  11.282 -0.6631 -1.1698  0.1492
  417MOL0     H57479   6.829   1.424  11.248  2.6702 -1.9297 -1.0694
  417MOL0     H57480   6.764   1.290  11.334 -1.9147 -1.1747 -0.2426
  417MOL0     H57481   6.593   1.474  11.291 -0.4702  1.4297 -1.5310
  417MOL0     H57482   6.608   1.420  11.120  3.4457  0.1479 -1.0248
  417MOL0     H57483   6.554   1.195  11.182  0.5348  0.1962  0.1118
  417MOL0     H57484   6.527   1.234  11.361  0.1955 -0.5478 -0.4038
  417MOL0     H57485   6.347   1.381  11.298  2.3519  0.0477  1.4068
  417MOL0     H57486   6.347   1.339  11.129  3.3718  0.4044 -1.3321
  417MOL0     H57487   6.316   1.137  11.351  0.9260 -2.8392 -0.9279
  417MOL0     H57488   6.312   1.101  11.176 -6.4451 -1.5247 -1.0992
  417MOL0     H57489   6.112   1.291  11.292  3.5876 -0.1979  2.1479
  417MOL0     H57490   6.115   1.207  11.136  0.3784 -0.9929 -0.3706
  417MOL0     H57491   6.114   1.081  11.417  0.3962 -1.0241 -0.1288
  417MOL0     H57492   6.095   0.981  11.275  0.0830 -0.8473  1.3885
  417MOL0     H57493   5.877   1.156  11.263 -2.9491 -3.4043 -0.6230
  417MOL0     H57494   5.870   0.992  11.310  0.4374 -1.5710 -0.6782
  417MOL0     H57495   5.969   1.358  11.449 -1.5522  1.7878  0.3454
  417MOL0     H57496   5.845   1.525  11.618 -0.1085  0.1743 -1.1659
  417MOL0     H57497   5.881   1.421  11.773 -0.2663 -1.8258 -0.0988
  417MOL0     H57498   5.596   1.469  11.649  0.1227 -2.7304 -0.3523
  417MOL0     H57499   5.657   1.398  11.806  1.2654 -0.2662 -0.1864
  417MOL0     H57500   5.670   1.693  11.710  3.7642  1.0312  1.5185
  417MOL0     H57501   5.568   1.643  11.843  0.7340  0.8726  1.0106
  417MOL0     H57502   5.715   1.726  11.960 -0.5593  1.6832 -2.0194
  417MOL0     H57503   5.807   1.566  11.937 -1.5008 -0.1121  1.4035
  417MOL0     H57504   5.914   1.716  12.078 -1.6493  0.4109 -2.9822
  417MOL0     H57505   6.162   1.634  12.277  0.4562 -0.7523 -1.8517
  417MOL0     H57506   6.024   1.741  12.265 -1.4989 -1.2169 -1.4432
  417MOL0     H57507   6.183   1.814  12.266  1.2586 -0.3760 -0.9882
  417MOL0     H57508   6.526   1.434  12.175 -1.0537  0.3506  1.2991
  417MOL0     H57509   6.765   1.405  12.256  2.6120 -0.6660 -2.1920
  417MOL0     H57510   6.939   1.467  12.391  0.9502 -0.7837 -1.2912
  417MOL0     H57511   7.087   1.571  12.388 -0.5949  1.7403  0.4007
  417MOL0     H57512   6.818   1.679  12.378  1.5507 -1.7262 -4.0300
  417MOL0     H57513   6.927   1.648  12.536 -1.8105  0.6473  1.1524
  417MOL0     H57514   6.983   1.834  12.301  0.9670  0.8995  0.5761
  417MOL0     H57515   7.088   1.803  12.433  0.0174  0.8145  0.4329
  417MOL0     H57516   6.805   1.924  12.455  0.4048  0.3590 -0.4509
  417MOL0     H57517   6.940   2.013  12.431 -0.8421  0.1508  1.4680
  417MOL0     H57518   6.899   1.846  12.685 -1.9709  0.8713  0.0386
  417MOL0     H57519   7.046   1.940  12.653  0.0863 -2.0716  3.0446
  417MOL0     H57520   6.775   2.081  12.667 -0.1689  0.3130  0.5734
  417MOL0     H57521   6.936   2.148  12.652  2.5671 -1.4691  1.5809
  417MOL0     H57522   6.943   2.128  12.885  2.1956 -1.2964 -0.8947
  417MOL0     H57523   6.920   1.955  12.873  2.1596  1.6665  1.1105
  417MOL0     H57524   6.717   2.174  12.880  1.3302 -0.7121  0.4460
  417MOL0     H57525   6.751   2.062  13.017  1.4682 -2.3719  1.0325
  417MOL0     H57526   6.896   1.740  12.035 -2.2271  1.4074 -1.0444
  417MOL0     H57527   6.659   1.759  11.935  0.5434  2.2631  0.4614
  417MOL0     H57528   6.315   1.704  11.798  0.6989 -0.4168  0.3285
  417MOL0     H57529   6.072   1.730  11.693 -0.6531 -1.4350  0.3025
  417MOL0     H57530   6.860   1.133  10.925 -0.1917  0.3478  0.2408
  417MOL0     H57531   7.109   1.120  10.826  0.4840  0.6432 -0.0128
  417MOL0     H57532   7.642   1.345  10.996  0.8259 -0.8147  0.1106
  417MOL0     H57533   7.869   1.287  10.940  1.3731 -2.9964  0.4790
  417MOL0     H57534   7.878   0.882  10.787 -0.0677 -0.4250 -0.8171
  417MOL0     H57535   8.027   0.930  10.709 -2.2260  2.1988 -1.7613
  417MOL0     H57536   8.022   0.787  10.937 -1.0703  1.1492  1.8864
  417MOL0     H57537   8.012   0.954  10.997  1.2881  0.1061  0.6186
  417MOL0     H57538   8.217   0.791  10.838 -1.3632 -1.2098  1.0299
  417MOL0     H57539   8.238   0.966  10.829  1.4906  0.5889  1.1326
  417MOL0     H57540   8.338   0.984  11.021 -2.6410  0.5509  4.2922
  417MOL0     H57541   8.374   0.817  11.003  0.7609 -1.2398  2.0228
  417MOL0     H57542   8.171   0.876  11.371  0.4757 -0.7325 -0.7349
  417MOL0     H57543   7.705   0.981  10.677  1.5487  0.7591 -0.7562
  417MOL0     H57544   7.476   0.987  10.619  0.6503  2.3558 -0.5734
  417MOL0     H57545   7.404   0.953  10.775 -0.1793 -0.9339 -0.5697
  417MOL0     H57546   7.369   1.108  10.694  0.0007 -0.6637 -0.7760
  418MOL0     O57547   5.302   2.151   4.386  0.1676  0.1559 -0.4299
  418MOL0     C57548   5.238   2.212   4.468 -0.3582 -1.0907 -0.0219
  418MOL0     O57549   5.246   2.345   4.486 -0.1250 -0.0101  0.2193
  418MOL0     C57550   5.337   2.426   4.418 -0.4850  0.1681  0.4033
  418MOL0     C57551   5.387   2.406   4.291 -0.5691 -0.9086 -0.7060
  418MOL0     C57552   5.467   2.508   4.234 -0.3828  0.3081  0.5201
  418MOL0     C57553   5.508   2.623   4.308 -0.1711  0.6021  0.5383
  418MOL0     O57554   5.587   2.711   4.236 -0.1675  0.8407  0.5711
  418MOL0     C57555   5.709   2.747   4.298 -1.1021 -0.5708 -0.1905
  418MOL0     C57556   5.801   2.828   4.203  0.7830 -0.0900  0.1425
  418MOL0     C57557   5.934   2.872   4.282  0.7753 -0.5477  0.0951
  418MOL0     C57558   6.034   2.945   4.197 -0.5056 -0.5104 -0.4419
  418MOL0     C57559   6.172   2.931   4.267  0.1108 -0.2449 -0.3275
  418MOL0     C57560   6.273   3.028   4.200  0.2167 -0.2892 -0.4690
  418MOL0     C57561   6.281   3.018   4.044  0.3603 -0.4614  0.0403
  418MOL0     C57562   6.375   3.132   3.993 -0.4000  0.8065  0.4255
  418MOL0     N57563   6.515   3.117   4.047  0.7250 -0.5249  0.2947
  418MOL0     C57564   6.605   3.219   4.084  0.6721 -0.8676 -0.8765
  418MOL0     C57565   6.728   3.166   4.090 -0.3438  0.0151 -0.7524
  418MOL0     C57566   6.866   3.219   4.113 -0.8317  0.0248 -0.2938
  418MOL0     C57567   6.877   3.286   4.253 -0.4801  0.0715 -0.6076
  418MOL0     C57568   6.847   3.191   4.367  0.4050  0.5290  0.0635
  418MOL0     C57569   6.965   3.108   4.404  0.3786  0.2676  0.8835
  418MOL0     O57570   7.071   3.187   4.455  0.0385 -0.0604 -0.7614
  418MOL0     C57571   7.193   3.133   4.489 -0.0160 -0.6682 -1.0864
  418MOL0     C57572   7.228   2.999   4.495  0.0305 -0.3724 -0.7994
  418MOL0     C57573   7.361   2.965   4.517 -0.2002  0.5879 -0.0415
  418MOL0     C57574   7.392   2.824   4.478 -0.2330 -0.6244  0.5785
  418MOL0     C57575   7.459   3.062   4.544 -0.4990  0.2990  0.0608
  418MOL0     C57576   7.606   3.033   4.582  0.4217 -0.4986 -0.0517
  418MOL0     O57577   7.694   3.142   4.560  0.1800  0.4000 -0.4503
  418MOL0     C57578   7.825   3.113   4.521  0.4067 -0.4584  0.2232
  418MOL0     C57579   7.857   3.080   4.389 -0.0454  0.0015  0.1700
  418MOL0     C57580   7.988   3.073   4.346  0.3083  0.5311 -0.4113
  418MOL0     C57581   8.091   3.077   4.444  0.7420  0.0905  0.0867
  418MOL0     O57582   8.222   3.065   4.420 -0.1729  0.0079 -0.2929
  418MOL0     C57583   8.267   3.052   4.280  0.0687  0.1767 -0.7742
  418MOL0     C57584   8.411   3.026   4.260  0.1139 -0.4249 -1.0557
  418MOL0     C57585   8.459   2.876   4.296 -0.0704 -0.2081 -0.0301
  418MOL0     C57586   8.422   2.785   4.180 -0.4320 -0.0637  0.3349
  418MOL0     C57587   8.455   2.633   4.211  0.0001 -0.0378 -0.5743
  418MOL0     C57588   8.451   2.547   4.083 -1.1749 -0.5452 -0.2129
  418MOL0     C57589   8.307   2.498   4.059 -0.1787 -0.1114  0.5693
  418MOL0     C57590   8.267   2.373   4.146  0.3246  0.4274  0.1926
  418MOL0    Cl57591   8.107   2.326   4.094 -0.1636 -0.3598 -0.4271
  418MOL0     C57592   8.061   3.089   4.578  0.1507 -0.3452 -0.3852
  418MOL0     C57593   7.931   3.118   4.610  0.7367  0.1769  0.4901
  418MOL0     O57594   7.637   2.922   4.621  0.0304 -0.3041 -0.6798
  418MOL0     C57595   7.412   3.189   4.562 -0.0785  0.2107  0.6023
  418MOL0     C57596   7.286   3.228   4.517 -0.4013 -0.8849  0.1379
  418MOL0     N57597   6.709   3.033   4.082 -0.0202  0.2404 -0.0105
  418MOL0     N57598   6.586   3.000   4.065  0.3072  0.3131  0.2405
  418MOL0     C57599   5.465   2.630   4.447 -0.5748  0.3043 -0.0172
  418MOL0     C57600   5.371   2.541   4.493  0.4135 -0.5420 -0.2221
  418MOL0     C57601   5.139   2.120   4.529 -0.4914  0.4659 -0.8971
  418MOL0     C57602   5.124   1.987   4.488  0.3074  0.4173  0.1001
  418MOL0     C57603   5.029   1.892   4.539 -0.4518 -0.3284 -0.8211
  418MOL0     C57604   4.967   1.928   4.658 -0.8682  0.3578 -0.7187
  418MOL0     O57605   4.882   1.840   4.730  0.4634 -0.2984 -0.0602
  418MOL0     C57606   4.781   1.765   4.656 -0.5331 -0.8954 -0.0196
  418MOL0     C57607   4.693   1.700   4.749  0.3394  0.6933  0.9154
  418MOL0     C57608   4.596   1.790   4.832 -0.8839 -0.1840 -0.5010
  418MOL0     C57609   4.511   1.725   4.944  0.6140 -0.0662  0.0148
  418MOL0     C57610   4.585   1.649   5.041  0.2723  0.0409 -0.5402
  418MOL0     C57611   4.661   1.589   5.117 -0.5929  1.1009  0.5791
  418MOL0     C57612   4.992   2.060   4.711  0.6217 -0.1233  0.1603
  418MOL0     C57613   5.065   2.160   4.649  0.3852 -0.6113 -0.0201
  418MOL0     C57614   5.066   2.297   4.707 -0.4417 -0.2539 -0.2472
  418MOL0     H57615   5.368   2.319   4.229  0.5348 -2.4478  1.0043
  418MOL0     H57616   5.504   2.495   4.133  0.4679 -0.0550  0.8637
  418MOL0     H57617   5.771   2.665   4.336  0.1599  0.8163  0.8658
  418MOL0     H57618   5.693   2.806   4.389  2.5956  0.1117  0.1899
  418MOL0     H57619   5.818   2.778   4.107 -4.5803  0.4833 -1.4159
  418MOL0     H57620   5.749   2.917   4.165  2.4967  0.2105 -1.6711
  418MOL0     H57621   5.913   2.928   4.373 -0.5133  1.5093 -1.3703
  418MOL0     H57622   5.978   2.775   4.308 -1.5218 -2.0977 -1.4115
  418MOL0     H57623   6.034   2.897   4.099 -2.1861 -0.9721 -0.2410
  418MOL0     H57624   6.009   3.052   4.198 -1.4670 -0.7272 -0.4329
  418MOL0     H57625   6.214   2.830   4.265  2.2395  0.5866 -2.4144
  418MOL0     H57626   6.160   2.952   4.374  0.9706 -1.4965  0.0339
  418MOL0     H57627   6.238   3.128   4.227  0.1677 -0.8159  1.5148
  418MOL0     H57628   6.369   3.006   4.246  0.5846 -0.9528 -1.5222
  418MOL0     H57629   6.183   3.028   3.997  1.1935 -1.9641 -2.1692
  418MOL0     H57630   6.318   2.918   4.022  1.4852 -0.0549 -0.0128
  418MOL0     H57631   6.376   3.129   3.883  0.1445  0.2103  0.4450
  418MOL0     H57632   6.332   3.231   4.014 -0.8058  0.4749  1.2170
  418MOL0     H57633   6.588   3.326   4.073  1.7013 -0.6585 -0.4884
  418MOL0     H57634   6.878   3.294   4.034 -2.5958  0.3218 -0.3304
  418MOL0     H57635   6.936   3.136   4.101  0.6614  1.2131 -0.0946
  418MOL0     H57636   6.969   3.341   4.274 -1.0126 -0.0879  2.7428
  418MOL0     H57637   6.796   3.360   4.264 -0.3671  0.0877  0.1731
  418MOL0     H57638   6.813   3.237   4.460 -0.6425  3.2225 -1.5423
  418MOL0     H57639   6.773   3.120   4.328 -0.7968  1.2042  1.0463
  418MOL0     H57640   6.938   3.040   4.485 -1.8545  0.2793  0.2177
  418MOL0     H57641   7.001   3.046   4.321  1.5000  0.2483  1.3579
  418MOL0     H57642   7.156   2.922   4.471  1.3153 -1.2119 -2.1439
  418MOL0     H57643   7.432   2.768   4.563  2.5343 -0.2959 -0.3977
  418MOL0     H57644   7.468   2.813   4.400  0.4876  1.5506  0.9127
  418MOL0     H57645   7.303   2.777   4.434 -0.7942  2.9494 -2.5785
  418MOL0     H57646   7.782   3.068   4.312 -2.0354 -1.3539  2.1891
  418MOL0     H57647   8.012   3.053   4.242 -0.0022 -3.4835  0.1315
  418MOL0     H57648   8.216   2.967   4.233  1.6830 -1.2807  0.0201
  418MOL0     H57649   8.239   3.142   4.225  2.4884  1.1602 -0.5315
  418MOL0     H57650   8.440   3.046   4.156  0.7178  0.9146 -0.6528
  418MOL0     H57651   8.466   3.098   4.321  1.4969 -2.0664 -0.2857
  418MOL0     H57652   8.410   2.841   4.388 -2.3843 -2.9283 -2.1172
  418MOL0     H57653   8.564   2.867   4.326 -1.0729 -3.0252  3.3629
  418MOL0     H57654   8.469   2.806   4.084 -1.7432 -0.6382 -0.4496
  418MOL0     H57655   8.315   2.791   4.158  0.0721  0.9612 -2.1308
  418MOL0     H57656   8.550   2.615   4.263  0.7149 -2.3576 -2.5363
  418MOL0     H57657   8.378   2.591   4.276 -0.6697  0.7523 -0.8274
  418MOL0     H57658   8.527   2.468   4.086 -0.6693 -0.0560  0.1137
  418MOL0     H57659   8.482   2.604   3.995  0.1954  0.9176  1.1647
  418MOL0     H57660   8.312   2.468   3.954  0.7886 -0.5359  0.7226
  418MOL0     H57661   8.227   2.571   4.074 -0.1125 -0.1466  1.0995
  418MOL0     H57662   8.268   2.391   4.254 -0.4426 -0.6513  0.3974
  418MOL0     H57663   8.331   2.286   4.130 -1.3706 -1.0638  1.0786
  418MOL0     H57664   8.138   3.099   4.654 -2.2621  1.3438  2.0083
  418MOL0     H57665   7.916   3.123   4.717  0.3762 -1.0497  0.5056
  418MOL0     H57666   7.479   3.264   4.603  0.7681 -1.2555  1.9942
  418MOL0     H57667   7.256   3.332   4.512 -0.6403 -0.9982 -1.2019
  418MOL0     H57668   5.503   2.715   4.502  3.8396  2.5875 -5.6245
  418MOL0     H57669   5.329   2.574   4.587 -0.8519  2.7122 -1.7566
  418MOL0     H57670   5.178   1.960   4.398  0.8875  3.2626 -0.5119
  418MOL0     H57671   5.014   1.795   4.494  0.4289  0.9207 -4.0973
  418MOL0     H57672   4.729   1.836   4.590  2.6373  2.1752  0.4808
  418MOL0     H57673   4.825   1.689   4.591  4.5984  1.5066  0.2086
  418MOL0     H57674   4.748   1.641   4.823  1.0372  1.3203  0.9207
  418MOL0     H57675   4.622   1.635   4.698  1.2699 -0.7829  1.4317
  418MOL0     H57676   4.651   1.869   4.885 -2.0881 -0.2762  0.9454
  418MOL0     H57677   4.533   1.840   4.758 -0.7321 -1.9897 -1.9305
  418MOL0     H57678   4.452   1.646   4.897  1.9239 -1.6746  0.9374
  418MOL0     H57679   4.458   1.804   4.997 -0.0008  0.2608 -1.0749
  418MOL0     H57680   4.711   1.503   5.158 -0.3076  0.1730 -1.5790
  418MOL0     H57681   4.925   2.065   4.797  0.6247  1.4993  0.1070
  418MOL0     H57682   5.170   2.324   4.727 -1.0108  2.7004 -0.7343
  418MOL0     H57683   5.032   2.364   4.628  1.2177  0.9610  0.0122
  418MOL0     H57684   5.003   2.321   4.793  2.6242  1.1932  1.7743
  419MOL0     O57685  10.842  10.559   5.906 -0.3392  0.6681  0.1328
  419MOL0     C57686  10.827  10.473   5.814  0.6925  0.9127 -0.3656
  419MOL0     O57687  10.915  10.376   5.790  0.3409  0.7600  0.2548
  419MOL0     C57688  11.046  10.389   5.834  0.4604 -0.3266 -0.6808
  419MOL0     C57689  11.158  10.416   5.746 -0.2618 -0.3814  0.5563
  419MOL0     C57690  11.288  10.426   5.791 -0.3583  0.0649 -0.0267
  419MOL0     C57691  11.306  10.414   5.926 -0.2863  0.0049  0.3226
  419MOL0     O57692  11.441  10.415   5.954  0.3723 -0.2551  0.2026
  419MOL0     C57693  11.499  10.423   6.086  0.6968 -0.2291  0.3389
  419MOL0     C57694  11.531  10.280   6.133 -0.6703 -0.4339 -0.0221
  419MOL0     C57695  11.650  10.227   6.045 -0.4761  1.1098  0.8137
  419MOL0     C57696  11.792  10.278   6.094 -0.7972  0.2536 -0.0772
  419MOL0     C57697  11.903  10.178   6.072 -0.2008  0.3624 -1.1513
  419MOL0     C57698  12.030  10.224   6.143  1.2450 -0.2650 -0.3798
  419MOL0     C57699  12.171  10.162   6.121  0.6981  0.0345  0.0180
  419MOL0     C57700  12.277  10.226   6.219 -0.2972 -0.5509  0.6745
  419MOL0     N57701  12.378  10.125   6.230 -0.4676  1.1007  0.0898
  419MOL0     C57702  12.442  10.063   6.125  1.3921 -0.0076  0.0985
  419MOL0     C57703  12.518   9.965   6.189 -0.0528 -0.2095  0.1322
  419MOL0     C57704  12.599   9.861   6.118 -0.1017 -0.1343  0.6707
  419MOL0     C57705  12.544   9.719   6.127 -0.7405  0.5673 -0.4091
  419MOL0     C57706  12.616   9.619   6.034  0.4040 -0.1757 -0.2196
  419MOL0     C57707  12.755   9.589   6.095  0.4272 -0.3668  0.2367
  419MOL0     O57708  12.741   9.506   6.202 -0.1478  0.9308  0.5880
  419MOL0     C57709  12.852   9.480   6.273  0.1217 -0.2848 -0.4987
  419MOL0     C57710  12.824   9.457   6.411  0.0508  0.0167 -0.4990
  419MOL0     C57711  12.921   9.403   6.493 -0.2988  0.2263 -0.2535
  419MOL0     C57712  12.876   9.349   6.623  0.2888 -0.0665 -0.5288
  419MOL0     C57713  13.057   9.390   6.442  0.2555  0.2980  0.1362
  419MOL0     C57714  13.161   9.354   6.529  0.0025  0.4562 -0.0029
  419MOL0     O57715  13.168   9.406   6.651  0.0433  0.3519 -0.1825
  419MOL0     C57716  13.252   9.367   6.759 -0.5434 -0.4648  0.7182
  419MOL0     C57717  13.228   9.422   6.887  0.7714 -0.2369 -0.5959
  419MOL0     C57718  13.293   9.386   7.004 -0.5724  0.1163  0.2402
  419MOL0     C57719  13.395   9.289   6.988  0.1292 -0.6953 -0.5003
  419MOL0     O57720  13.483   9.256   7.090  0.3709  0.7399  0.3643
  419MOL0     C57721  13.485   9.320   7.223 -0.9217  0.3780 -0.3631
  419MOL0     C57722  13.619   9.289   7.288  0.3684 -0.2546  0.1959
  419MOL0     C57723  13.640   9.389   7.410 -0.1758 -0.5287  0.2134
  419MOL0     C57724  13.640   9.319   7.550 -0.2730 -0.4783  0.2889
  419MOL0     C57725  13.505   9.275   7.604 -0.3574 -0.3760 -1.1347
  419MOL0     C57726  13.420   9.388   7.660 -0.3478 -0.0128  0.0655
  419MOL0     C57727  13.290   9.338   7.711  0.2578 -0.0764 -0.2066
  419MOL0     C57728  13.181   9.437   7.699 -1.4125  0.1525 -1.1756
  419MOL0    Cl57729  13.048   9.359   7.789  0.1795  0.1710 -0.1125
  419MOL0     C57730  13.428   9.241   6.867 -0.4159 -0.4159 -0.1895
  419MOL0     C57731  13.357   9.276   6.748  0.8778 -1.1298  0.4900
  419MOL0     O57732  13.238   9.278   6.480 -0.0205 -0.2575  0.2850
  419MOL0     C57733  13.082   9.401   6.302  0.4833 -0.1354  0.7726
  419MOL0     C57734  12.982   9.459   6.220 -0.5372  0.3586 -0.1481
  419MOL0     N57735  12.504   9.976   6.324  0.1674 -0.0920 -0.3762
  419MOL0     N57736  12.419  10.072   6.344  0.1318 -0.5584  0.3380
  419MOL0     C57737  11.203  10.381   6.018  0.2800  0.3970 -0.3537
  419MOL0     C57738  11.069  10.382   5.972 -0.8499  0.0994 -0.3651
  419MOL0     C57739  10.694  10.470   5.754  0.5260 -1.0068 -0.2780
  419MOL0     C57740  10.666  10.356   5.671 -0.1100 -0.5827  0.1240
  419MOL0     C57741  10.536  10.326   5.624 -0.0314 -0.8007 -0.5837
  419MOL0     C57742  10.442  10.432   5.645  0.6145 -0.1348  0.6979
  419MOL0     O57743  10.314  10.448   5.591  0.1048 -0.1086 -0.1832
  419MOL0     C57744  10.264  10.358   5.499 -0.9148 -0.1094 -0.3326
  419MOL0     C57745  10.335  10.381   5.368 -0.0735 -0.5503 -0.4216
  419MOL0     C57746  10.291  10.506   5.281  0.0602  0.1572  0.2691
  419MOL0     C57747  10.179  10.467   5.179  1.0889  0.5682 -0.6987
  419MOL0     C57748  10.060  10.401   5.240 -0.2958  0.5487 -0.4435
  419MOL0     C57749   9.962  10.351   5.286  0.6495 -0.5629  0.4112
  419MOL0     C57750  10.472  10.531   5.731  0.1550 -0.3163  0.0816
  419MOL0     C57751  10.589  10.557   5.782  0.2612 -0.7301 -0.6319
  419MOL0     C57752  10.593  10.679   5.875 -0.2094  0.3827 -0.0742
  419MOL0     H57753  11.134  10.439   5.643  0.3862 -2.0162  0.0010
  419MOL0     H57754  11.369  10.457   5.726  0.4318  1.8597  1.7056
  419MOL0     H57755  11.428  10.471   6.154  2.0573  4.8520 -1.3259
  419MOL0     H57756  11.585  10.491   6.088 -0.5921  1.4632  0.4893
  419MOL0     H57757  11.546  10.270   6.241 -1.5997 -3.1653 -0.0615
  419MOL0     H57758  11.450  10.208   6.116 -0.9603  0.0485 -0.7335
  419MOL0     H57759  11.653  10.118   6.036 -0.5610  1.1001  0.8942
  419MOL0     H57760  11.625  10.251   5.941 -0.8594 -1.4002  0.2577
  419MOL0     H57761  11.818  10.366   6.034  0.9820 -1.6827 -2.2933
  419MOL0     H57762  11.787  10.312   6.198 -1.8379 -3.3286  1.1816
  419MOL0     H57763  11.908  10.157   5.965 -2.9467 -0.3507 -1.2086
  419MOL0     H57764  11.869  10.085   6.119 -0.0648  0.1905 -1.3926
  419MOL0     H57765  12.054  10.329   6.126  2.3641 -0.3785  0.3703
  419MOL0     H57766  12.011  10.212   6.250 -0.7422 -1.4589 -0.8142
  419MOL0     H57767  12.193  10.180   6.015 -0.8764 -0.0135 -0.3461
  419MOL0     H57768  12.175  10.053   6.125  1.0736  0.0523  0.0979
  419MOL0     H57769  12.321  10.317   6.178 -1.1254  0.5285  2.0790
  419MOL0     H57770  12.229  10.255   6.313 -0.6668 -1.4006  0.7666
  419MOL0     H57771  12.421  10.074   6.019 -3.3027  0.5480  0.8605
  419MOL0     H57772  12.698   9.871   6.163  0.2829 -2.1912  0.4111
  419MOL0     H57773  12.590   9.891   6.013 -3.7725  5.0033  2.0364
  419MOL0     H57774  12.542   9.681   6.230  0.2687 -1.3961 -1.0682
  419MOL0     H57775  12.441   9.728   6.093 -1.0709  0.0141  0.4159
  419MOL0     H57776  12.549   9.533   6.024  2.3611 -1.8351  0.2670
  419MOL0     H57777  12.636   9.673   5.941  0.7146  2.2264  1.1810
  419MOL0     H57778  12.817   9.543   6.018 -0.5835 -2.3432  0.5507
  419MOL0     H57779  12.791   9.681   6.144 -0.1274 -0.4520  0.8222
  419MOL0     H57780  12.722   9.484   6.435  0.1906  0.7515 -0.6909
  419MOL0     H57781  12.925   9.403   6.705  2.0339 -2.6279  0.2250
  419MOL0     H57782  12.908   9.247   6.645  2.1737  1.0593  2.7626
  419MOL0     H57783  12.769   9.356   6.644  0.7898  0.2761  2.2897
  419MOL0     H57784  13.146   9.491   6.904 -1.0595 -2.4500  0.2807
  419MOL0     H57785  13.263   9.420   7.103 -0.4453 -0.9959  0.6723
  419MOL0     H57786  13.474   9.428   7.214 -1.2403  0.5328  1.4146
  419MOL0     H57787  13.406   9.276   7.285  0.2201 -0.8299  0.3127
  419MOL0     H57788  13.635   9.187   7.322  3.1438  1.6961  6.1134
  419MOL0     H57789  13.700   9.310   7.216 -0.5678 -3.2769 -1.9157
  419MOL0     H57790  13.572   9.473   7.423 -0.5727 -0.8124 -0.0101
  419MOL0     H57791  13.741   9.429   7.395  0.3233 -1.1536  1.7466
  419MOL0     H57792  13.678   9.394   7.620 -0.0077 -1.7518  1.5507
  419MOL0     H57793  13.706   9.232   7.544 -1.0732 -1.0113 -3.4728
  419MOL0     H57794  13.449   9.222   7.526 -0.9613 -2.5022  0.6517
  419MOL0     H57795  13.525   9.204   7.686 -0.6278 -1.2076 -1.7711
  419MOL0     H57796  13.398   9.456   7.578 -0.1738 -1.0949 -0.9089
  419MOL0     H57797  13.464   9.439   7.746 -3.4403 -0.5664  2.1604
  419MOL0     H57798  13.294   9.311   7.817  1.0231 -1.2297 -0.5033
  419MOL0     H57799  13.268   9.245   7.658 -2.5697  0.5631 -0.2957
  419MOL0     H57800  13.161   9.456   7.593  1.9012  0.7959 -1.7982
  419MOL0     H57801  13.208   9.531   7.748 -0.6224 -0.1940 -0.9319
  419MOL0     H57802  13.515   9.177   6.854 -1.0003 -1.2823  0.1412
  419MOL0     H57803  13.401   9.245   6.654 -2.5715  0.3000 -1.8247
  419MOL0     H57804  13.181   9.375   6.267  0.4857 -0.6990  1.1984
  419MOL0     H57805  13.003   9.470   6.114 -1.6227  4.6940 -0.1103
  419MOL0     H57806  11.222  10.372   6.125 -1.6971 -1.1154 -0.0848
  419MOL0     H57807  10.989  10.363   6.042 -0.4725 -1.0463 -0.2275
  419MOL0     H57808  10.746  10.285   5.655 -1.4018 -2.0783  0.0936
  419MOL0     H57809  10.519  10.246   5.553  0.0667  2.1977 -4.3003
  419MOL0     H57810  10.246  10.255   5.531 -3.5848  0.5928  0.6293
  419MOL0     H57811  10.161  10.391   5.485 -0.6052  1.0455 -0.0160
  419MOL0     H57812  10.322  10.294   5.303  2.4358  0.4486 -2.4702
  419MOL0     H57813  10.443  10.386   5.384 -0.1786  0.4405  0.0720
  419MOL0     H57814  10.257  10.585   5.349  0.8458  0.2085  0.6157
  419MOL0     H57815  10.382  10.544   5.235  0.5491 -1.6386 -0.3421
  419MOL0     H57816  10.197  10.394   5.100  2.1202  0.1453 -0.0955
  419MOL0     H57817  10.159  10.562   5.129  2.2666  0.3949 -1.5591
  419MOL0     H57818   9.873  10.298   5.316  2.1637 -2.9665  0.9325
  419MOL0     H57819  10.387  10.593   5.756 -2.3835 -1.8945 -3.6626
  419MOL0     H57820  10.677  10.745   5.853  1.6192 -2.1912 -1.3456
  419MOL0     H57821  10.499  10.735   5.880 -0.5306 -0.2202  2.3572
  419MOL0     H57822  10.613  10.647   5.978  1.2091  0.6025 -0.2643
  420MOL0     O57823   6.535  11.167   0.835 -0.0961  0.5922 -0.2713
  420MOL0     C57824   6.484  11.159   0.718  0.1376  0.7525  0.2795
  420MOL0     O57825   6.521  11.217   0.604  0.3878  0.3663 -0.2573
  420MOL0     C57826   6.628  11.309   0.619  0.4345  0.9206 -0.9917
  420MOL0     C57827   6.623  11.420   0.708 -0.4321  0.6175 -0.7514
  420MOL0     C57828   6.731  11.507   0.719  0.6161  0.0322 -0.1215
  420MOL0     C57829   6.840  11.489   0.641 -0.1980  0.4488  0.2400
  420MOL0     O57830   6.951  11.576   0.670 -0.3321  0.4496 -0.4662
  420MOL0     C57831   7.048  11.581   0.562  1.2941  0.1291  0.2411
  420MOL0     C57832   7.158  11.688   0.588  0.8400  0.3780 -0.7166
  420MOL0     C57833   7.214  11.694   0.732  0.2553  0.5265 -0.3228
  420MOL0     C57834   7.300  11.571   0.760 -0.1017 -0.8766  0.6993
  420MOL0     C57835   7.328  11.545   0.909  0.4191 -0.5239 -0.9202
  420MOL0     C57836   7.413  11.425   0.935  0.6390  0.0364 -0.3058
  420MOL0     C57837   7.391  11.381   1.083 -0.4098  1.0826  1.2210
  420MOL0     C57838   7.461  11.254   1.122 -0.5520  0.9880  1.0531
  420MOL0     N57839   7.411  11.133   1.059 -0.0559 -0.8708  0.4732
  420MOL0     C57840   7.330  11.037   1.123 -0.5018  0.5175  0.2115
  420MOL0     C57841   7.338  10.922   1.051  0.9580  0.6523  0.8291
  420MOL0     C57842   7.271  10.792   1.087  0.3631  0.0882 -0.4887
  420MOL0     C57843   7.220  10.712   0.964  0.0434 -0.2967  0.3313
  420MOL0     C57844   7.111  10.609   0.989  0.1668 -0.4096 -0.2977
  420MOL0     C57845   7.081  10.541   0.853  0.6536  0.1112 -0.3282
  420MOL0     O57846   7.006  10.418   0.873  0.5990  0.4912  0.1835
  420MOL0     C57847   6.868  10.426   0.886  0.1554 -0.9451  0.3293
  420MOL0     C57848   6.790  10.529   0.840  1.0165  0.5265  0.4072
  420MOL0     C57849   6.650  10.534   0.863 -0.2223  0.4764 -1.2725
  420MOL0     C57850   6.580  10.647   0.808 -0.6315  1.1154  0.5239
  420MOL0     C57851   6.584  10.428   0.931 -0.1634 -0.6037  0.3134
  420MOL0     C57852   6.442  10.421   0.966 -0.3828 -0.0128  0.2546
  420MOL0     O57853   6.396  10.293   0.985  0.3209 -0.7035 -0.2448
  420MOL0     C57854   6.263  10.273   1.010  0.1988 -0.7623 -0.3604
  420MOL0     C57855   6.166  10.297   0.910  0.6141 -0.0914 -0.0545
  420MOL0     C57856   6.028  10.277   0.933 -0.3709 -0.7586  0.1223
  420MOL0     C57857   5.990  10.222   1.055  0.3970  0.5021  0.4087
  420MOL0     O57858   5.851  10.205   1.073  0.4480 -0.8003  0.6239
  420MOL0     C57859   5.800  10.102   1.159 -0.5758 -0.3338 -0.0348
  420MOL0     C57860   5.721  10.161   1.281 -0.6357  0.3715  0.4404
  420MOL0     C57861   5.664  10.054   1.374  0.3395  0.1813 -0.3915
  420MOL0     C57862   5.780   9.966   1.443  0.3175  0.1477 -0.0609
  420MOL0     C57863   5.797   9.819   1.394 -0.2004 -0.2999 -0.9104
  420MOL0     C57864   5.888   9.745   1.486 -0.6404 -0.0784 -0.3395
  420MOL0     C57865   5.824   9.695   1.619  0.1370 -0.2895  0.2392
  420MOL0     C57866   5.903   9.582   1.683  0.7058 -0.5977 -0.0873
  420MOL0    Cl57867   6.073   9.650   1.702 -0.2823 -0.1316 -0.4624
  420MOL0     C57868   6.084  10.202   1.158  0.3608  0.1660 -0.6667
  420MOL0     C57869   6.222  10.236   1.136  0.6446  0.8065  0.2553
  420MOL0     O57870   6.377  10.523   0.968 -0.4480 -0.0681 -0.5087
  420MOL0     C57871   6.663  10.312   0.944 -0.0139 -0.6088 -0.8624
  420MOL0     C57872   6.805  10.313   0.928 -0.4756 -0.0669 -0.0299
  420MOL0     N57873   7.420  10.957   0.945 -0.4976  0.8130  0.2628
  420MOL0     N57874   7.463  11.075   0.945  0.3363  0.0485 -0.1116
  420MOL0     C57875   6.847  11.377   0.558 -0.1476 -0.1204 -0.5136
  420MOL0     C57876   6.736  11.292   0.538  0.1401  0.0503  0.0940
  420MOL0     C57877   6.372  11.063   0.710  0.0777 -0.3089 -0.4751
  420MOL0     C57878   6.373  10.950   0.787  0.3911  0.2946  0.1638
  420MOL0     C57879   6.272  10.852   0.786 -0.2845  0.5297 -0.6272
  420MOL0     C57880   6.171  10.864   0.696  0.0700  0.2044  0.6249
  420MOL0     O57881   6.083  10.771   0.649 -0.0520 -0.5895  0.1058
  420MOL0     C57882   6.060  10.655   0.729  0.1751 -0.3185 -0.3005
  420MOL0     C57883   5.932  10.583   0.686  0.2961  0.4611  0.1621
  420MOL0     C57884   5.958  10.480   0.575  0.8200  0.3319  0.0419
  420MOL0     C57885   5.832  10.468   0.482 -0.2504  0.3835 -0.0691
  420MOL0     C57886   5.731  10.404   0.565  0.0914  0.0419 -0.2934
  420MOL0     C57887   5.640  10.360   0.634 -0.1895  0.7232  0.6727
  420MOL0     C57888   6.164  10.975   0.616 -0.2552 -0.9507  1.0686
  420MOL0     C57889   6.261  11.085   0.622  0.5220  0.3847  0.2484
  420MOL0     C57890   6.241  11.209   0.551  0.4108  1.0259 -0.5466
  420MOL0     H57891   6.534  11.423   0.770 -0.4241 -0.6459 -0.6550
  420MOL0     H57892   6.738  11.584   0.796  0.1809  2.1205 -2.0384
  420MOL0     H57893   6.985  11.596   0.474  3.4773 -0.0162 -1.4117
  420MOL0     H57894   7.092  11.483   0.545  1.3756  0.5225 -2.1261
  420MOL0     H57895   7.238  11.670   0.516  0.2544 -1.0914 -1.0455
  420MOL0     H57896   7.107  11.781   0.558 -3.3325 -1.0208  1.2546
  420MOL0     H57897   7.274  11.783   0.754  0.6279  0.4567 -1.0409
  420MOL0     H57898   7.128  11.682   0.799 -1.3303  1.9383 -1.9886
  420MOL0     H57899   7.248  11.482   0.724  1.2940 -1.4971  0.1424
  420MOL0     H57900   7.393  11.583   0.703 -2.2158 -2.6521 -3.5794
  420MOL0     H57901   7.233  11.526   0.959 -0.0766  1.5367 -1.0153
  420MOL0     H57902   7.368  11.636   0.954 -1.6948  0.0245 -0.0099
  420MOL0     H57903   7.385  11.347   0.863  0.5251 -1.3710  1.1857
  420MOL0     H57904   7.517  11.454   0.918 -0.2608  2.8107 -1.6629
  420MOL0     H57905   7.288  11.360   1.112  0.3348 -0.5580  2.8204
  420MOL0     H57906   7.428  11.459   1.150 -0.5601  0.3155  2.2034
  420MOL0     H57907   7.565  11.252   1.089 -0.5618 -1.2733  0.9493
  420MOL0     H57908   7.458  11.239   1.231  2.1220  3.6723  1.5993
  420MOL0     H57909   7.273  11.050   1.214 -0.8100 -0.7679  0.2128
  420MOL0     H57910   7.183  10.806   1.150  0.8072 -0.4849  0.2690
  420MOL0     H57911   7.339  10.731   1.146 -1.3641 -0.4519  1.0402
  420MOL0     H57912   7.180  10.785   0.892  3.5182  0.0838 -1.4407
  420MOL0     H57913   7.309  10.671   0.915 -0.3182 -1.6031  0.7541
  420MOL0     H57914   7.154  10.542   1.064 -0.9490 -2.4046 -1.3640
  420MOL0     H57915   7.019  10.646   1.036  0.4900 -0.9088  0.7727
  420MOL0     H57916   7.034  10.607   0.780 -3.2630  0.3170  2.1285
  420MOL0     H57917   7.182  10.523   0.814  0.0348  0.6215 -2.2407
  420MOL0     H57918   6.826  10.619   0.792  1.3285  0.0519 -0.2667
  420MOL0     H57919   6.535  10.705   0.890 -0.3962 -2.3704  3.3743
  420MOL0     H57920   6.497  10.617   0.743 -2.8827  2.1321  2.7494
  420MOL0     H57921   6.644  10.704   0.740  0.2608  0.1349  0.5187
  420MOL0     H57922   6.211  10.332   0.818  1.8551  1.0849  0.9702
  420MOL0     H57923   5.959  10.306   0.855 -1.9243  1.7248  2.2506
  420MOL0     H57924   5.741  10.039   1.091 -2.9566  1.8472 -0.1589
  420MOL0     H57925   5.886  10.048   1.199  0.4836  1.9409  0.9712
  420MOL0     H57926   5.780  10.229   1.343  1.5043  0.1120 -1.1912
  420MOL0     H57927   5.635  10.221   1.248 -1.9175 -0.0769  2.7620
  420MOL0     H57928   5.601   9.988   1.313 -1.2838 -0.4308  1.8112
  420MOL0     H57929   5.608  10.110   1.450 -0.3039  0.1442 -0.8362
  420MOL0     H57930   5.752   9.967   1.549 -1.7802 -0.7261 -0.5607
  420MOL0     H57931   5.873  10.020   1.423  1.2307 -1.4229 -0.1688
  420MOL0     H57932   5.698   9.772   1.398  0.2184 -1.1898 -0.7304
  420MOL0     H57933   5.834   9.822   1.291  0.3451  2.8826 -0.7402
  420MOL0     H57934   5.977   9.802   1.514 -0.9070 -0.5542  1.6789
  420MOL0     H57935   5.917   9.648   1.443 -2.2568 -1.9397  2.4192
  420MOL0     H57936   5.726   9.654   1.592  0.1019  0.2871 -0.5439
  420MOL0     H57937   5.810   9.776   1.690  1.4770  0.7505 -0.6173
  420MOL0     H57938   5.914   9.489   1.628 -2.2877  0.0575 -2.0255
  420MOL0     H57939   5.863   9.557   1.782  1.4244 -1.1711  0.0721
  420MOL0     H57940   6.044  10.179   1.256 -2.6299  0.1087 -1.7957
  420MOL0     H57941   6.290  10.217   1.218  0.3222 -2.4986 -0.0819
  420MOL0     H57942   6.613  10.226   0.987 -1.4496  1.7883  2.7801
  420MOL0     H57943   6.866  10.227   0.953  0.4366 -0.1999 -2.4764
  420MOL0     H57944   6.944  11.346   0.521  0.7898 -0.3211  1.9291
  420MOL0     H57945   6.741  11.212   0.465  1.6536  2.9299 -3.2451
  420MOL0     H57946   6.458  10.941   0.853  0.3090 -0.9528  0.1164
  420MOL0     H57947   6.277  10.762   0.845 -1.1404  0.4742 -0.6283
  420MOL0     H57948   6.144  10.586   0.719  0.0702 -0.8611  2.0812
  420MOL0     H57949   6.036  10.682   0.832 -2.9539 -1.9378 -0.4725
  420MOL0     H57950   5.856  10.655   0.656 -1.3745 -1.6042 -0.8160
  420MOL0     H57951   5.880  10.534   0.769 -2.2751  1.4940 -0.7565
  420MOL0     H57952   6.041  10.520   0.516  0.7636 -2.8826 -2.4894
  420MOL0     H57953   5.988  10.393   0.633 -0.3226 -0.9384 -1.1937
  420MOL0     H57954   5.869  10.402   0.403  1.2866 -2.1754  2.6139
  420MOL0     H57955   5.805  10.567   0.444  0.8348  1.2118  1.2026
  420MOL0     H57956   5.558  10.314   0.687  2.0512 -3.5761  0.8703
  420MOL0     H57957   6.089  10.990   0.539  0.7740 -0.6047  0.0900
  420MOL0     H57958   6.296  11.206   0.456  0.8056 -1.5555 -0.3081
  420MOL0     H57959   6.136  11.216   0.523  0.4573 -2.2492 -1.9848
  420MOL0     H57960   6.273  11.290   0.617 -0.2914  1.1742 -0.3833
  421MOL0     O57961   7.094   4.673   7.835 -0.2595 -0.3320  0.5780
  421MOL0     C57962   7.087   4.795   7.855 -0.5309 -0.4631 -0.0060
  421MOL0     O57963   7.190   4.875   7.874  0.0093  0.0313  0.3101
  421MOL0     C57964   7.319   4.826   7.909  0.2869  0.6808 -1.0169
  421MOL0     C57965   7.427   4.901   7.867  0.1093 -0.7306  0.5760
  421MOL0     C57966   7.554   4.864   7.907 -1.0051  0.3913 -0.3239
  421MOL0     C57967   7.582   4.748   7.970  0.1044 -0.2882 -0.0732
  421MOL0     O57968   7.709   4.722   8.014  0.2482  0.5102  0.3812
  421MOL0     C57969   7.810   4.722   7.909  0.3215 -0.1813  0.1633
  421MOL0     C57970   7.954   4.751   7.962  0.2569 -0.0558 -0.3089
  421MOL0     C57971   7.994   4.702   8.105  0.3018  0.1845  0.2413
  421MOL0     C57972   8.146   4.709   8.110 -0.8512  0.7439 -0.5885
  421MOL0     C57973   8.213   4.581   8.071  0.2999  0.1098 -0.7207
  421MOL0     C57974   8.363   4.596   8.105  0.6375 -0.2530 -0.0017
  421MOL0     C57975   8.459   4.498   8.044 -0.3778  0.2612 -0.4533
  421MOL0     C57976   8.510   4.515   7.903  0.0294 -0.4245  0.6736
  421MOL0     N57977   8.604   4.620   7.877 -0.2836 -0.6350 -0.3736
  421MOL0     C57978   8.579   4.753   7.855 -0.5039  0.2742  0.5603
  421MOL0     C57979   8.705   4.803   7.852 -0.4835  0.3795 -0.0059
  421MOL0     C57980   8.750   4.941   7.843  0.5573 -0.5948 -0.3289
  421MOL0     C57981   8.727   5.024   7.966 -0.6362 -0.0847 -1.1094
  421MOL0     C57982   8.847   4.993   8.071 -1.0764  0.3267  0.0353
  421MOL0     C57983   8.834   5.088   8.191 -0.2617  0.2853  0.1166
  421MOL0     O57984   8.872   5.216   8.152  1.0916 -0.7850  0.0772
  421MOL0     C57985   9.004   5.253   8.140  0.7243  0.1838 -0.8954
  421MOL0     C57986   9.034   5.385   8.114 -0.1214 -0.3455  0.7088
  421MOL0     C57987   9.163   5.435   8.114 -0.0344  0.5092  0.0389
  421MOL0     C57988   9.174   5.582   8.096  0.3105  0.0720 -0.3812
  421MOL0     C57989   9.273   5.350   8.140 -1.1102  0.1301  0.6628
  421MOL0     C57990   9.412   5.400   8.138 -0.0469  1.0944 -0.6733
  421MOL0     O57991   9.503   5.293   8.151  0.0538 -0.8279 -0.2251
  421MOL0     C57992   9.632   5.332   8.173  0.2128 -0.1704  0.3233
  421MOL0     C57993   9.729   5.344   8.069  0.3599 -0.7466 -0.6744
  421MOL0     C57994   9.848   5.417   8.104  0.0643  0.2887 -0.8037
  421MOL0     C57995   9.867   5.470   8.234 -1.1030  0.1996  0.0583
  421MOL0     O57996   9.993   5.527   8.262  0.1067 -0.1871 -0.3037
  421MOL0     C57997  10.005   5.611   8.380  0.4186  0.1822 -0.1958
  421MOL0     C57998  10.119   5.714   8.358  0.4389 -1.1124 -0.0656
  421MOL0     C57999  10.101   5.787   8.232 -0.4114  0.0148  0.4957
  421MOL0     C58000  10.164   5.919   8.233 -0.4636  0.1233 -1.0851
  421MOL0     C58001  10.150   5.987   8.102 -0.4104 -0.4571  0.4379
  421MOL0     C58002  10.243   6.106   8.095 -0.7875  0.5380  0.4986
  421MOL0     C58003  10.258   6.167   7.948  0.1404  0.4462  0.8781
  421MOL0     C58004  10.135   6.251   7.917  0.3992 -0.3804 -0.8438
  421MOL0    Cl58005  10.186   6.371   7.783 -0.1781 -0.1363  0.2084
  421MOL0     C58006   9.773   5.445   8.329  0.1018 -0.9538  0.4526
  421MOL0     C58007   9.664   5.368   8.303  0.2450 -0.3814  0.7196
  421MOL0     O58008   9.445   5.516   8.125 -0.2469  0.3601  0.2372
  421MOL0     C58009   9.243   5.212   8.163 -1.3027  0.0958 -0.4999
  421MOL0     C58010   9.114   5.170   8.172 -0.1035 -0.0210 -0.5664
  421MOL0     N58011   8.803   4.707   7.862 -0.5159 -0.3827 -0.4326
  421MOL0     N58012   8.741   4.594   7.886  0.0191 -0.8761  0.6055
  421MOL0     C58013   7.478   4.658   7.988  0.2737  0.4959  0.4096
  421MOL0     C58014   7.348   4.695   7.957  0.6827 -0.4907  0.0926
  421MOL0     C58015   6.953   4.860   7.847  0.0928  1.2208 -0.1316
  421MOL0     C58016   6.941   4.998   7.877 -0.6820  0.0057  0.5978
  421MOL0     C58017   6.823   5.064   7.892 -0.7291 -0.5638  0.6775
  421MOL0     C58018   6.700   4.995   7.872 -0.1558  0.5816 -0.4568
  421MOL0     O58019   6.597   5.085   7.899  0.1787 -0.1723  0.0390
  421MOL0     C58020   6.472   5.016   7.917 -0.5421 -0.4631  0.7016
  421MOL0     C58021   6.478   4.962   8.063 -1.0175  0.8940 -0.5202
  421MOL0     C58022   6.340   4.921   8.102  0.7972  0.5348 -0.5129
  421MOL0     C58023   6.292   4.796   8.032 -0.1663 -0.0279 -0.3266
  421MOL0     C58024   6.175   4.733   8.091  0.3505  0.5532 -0.4600
  421MOL0     C58025   6.075   4.689   8.140 -0.4429 -0.4043 -0.6072
  421MOL0     C58026   6.704   4.863   7.836 -0.1240  0.2235  1.0754
  421MOL0     C58027   6.822   4.794   7.823 -0.8797  0.0980  0.1466
  421MOL0     C58028   6.804   4.646   7.797 -0.0285 -0.2168  0.3486
  421MOL0     H58029   7.409   4.987   7.803 -1.8327  0.3021  2.4030
  421MOL0     H58030   7.630   4.937   7.879  0.4167 -1.3282 -1.1514
  421MOL0     H58031   7.802   4.801   7.835  5.1796  0.3428 -0.1507
  421MOL0     H58032   7.804   4.620   7.869  1.4950 -0.7355  1.3070
  421MOL0     H58033   8.026   4.717   7.886  0.9462  3.0699 -1.2211
  421MOL0     H58034   7.975   4.858   7.954  0.6675 -0.0752  0.4388
  421MOL0     H58035   7.945   4.768   8.177 -2.0849  0.0218 -1.1390
  421MOL0     H58036   7.954   4.604   8.133  0.4419  0.3418  1.0191
  421MOL0     H58037   8.194   4.776   8.038  2.0216 -2.0396 -1.5013
  421MOL0     H58038   8.179   4.736   8.211 -0.7330 -2.2502  0.2625
  421MOL0     H58039   8.199   4.569   7.963 -0.6777  1.4461 -0.7591
  421MOL0     H58040   8.178   4.492   8.124  0.8506  0.7449  0.7593
  421MOL0     H58041   8.396   4.700   8.090  0.0817  0.1260  1.3222
  421MOL0     H58042   8.372   4.581   8.213 -0.8467  1.1511  0.3572
  421MOL0     H58043   8.418   4.396   8.043 -0.1749  0.1358  1.4132
  421MOL0     H58044   8.543   4.482   8.111 -1.0885  2.1784  0.9862
  421MOL0     H58045   8.549   4.416   7.876  0.4471  0.2441 -1.3581
  421MOL0     H58046   8.422   4.538   7.842  0.8633 -1.3003 -0.9224
  421MOL0     H58047   8.488   4.812   7.850  0.1992  1.3147 -2.9548
  421MOL0     H58048   8.695   4.987   7.761 -0.3977 -0.7253  0.2271
  421MOL0     H58049   8.856   4.945   7.817 -0.0689 -0.1555 -3.1732
  421MOL0     H58050   8.730   5.130   7.940  1.2944 -0.1549 -1.2527
  421MOL0     H58051   8.627   5.002   8.007  0.2098 -0.8393  0.6892
  421MOL0     H58052   8.839   4.887   8.097 -0.8061  0.4406  0.6156
  421MOL0     H58053   8.949   5.003   8.033 -1.3809  0.7663 -0.6749
  421MOL0     H58054   8.728   5.092   8.217 -0.2931  3.5747 -0.0981
  421MOL0     H58055   8.896   5.048   8.272 -0.6500  0.6164  0.5850
  421MOL0     H58056   8.951   5.454   8.107 -1.5068 -2.0893 -1.6720
  421MOL0     H58057   9.213   5.599   7.995 -1.2664 -1.8504 -1.3834
  421MOL0     H58058   9.242   5.622   8.172  2.0506 -2.2482 -0.5684
  421MOL0     H58059   9.080   5.636   8.105  0.6051  0.3766  1.1521
  421MOL0     H58060   9.710   5.305   7.970  0.3392 -1.1885 -0.4977
  421MOL0     H58061   9.928   5.421   8.032 -0.8395  0.3636 -1.8209
  421MOL0     H58062   9.909   5.660   8.399  0.4140 -0.3556  1.3155
  421MOL0     H58063  10.038   5.551   8.465  1.8549 -0.5039 -1.2095
  421MOL0     H58064  10.104   5.787   8.438 -1.3961  0.2767 -1.5666
  421MOL0     H58065  10.211   5.655   8.365  0.9600 -0.1144  2.2985
  421MOL0     H58066   9.995   5.803   8.213  0.5596  5.3137 -2.3123
  421MOL0     H58067  10.138   5.725   8.149  2.9806  0.5102  1.4725
  421MOL0     H58068  10.271   5.906   8.257 -0.8107 -0.9628 -0.0005
  421MOL0     H58069  10.124   5.976   8.318  0.3998 -0.3221 -0.3576
  421MOL0     H58070  10.178   5.918   8.022 -1.0425 -0.5757  0.3109
  421MOL0     H58071  10.047   6.020   8.084 -0.7922 -2.1714 -0.8104
  421MOL0     H58072  10.341   6.068   8.124 -2.0853 -1.6991  2.3307
  421MOL0     H58073  10.218   6.192   8.158 -4.2622  0.3016 -0.3546
  421MOL0     H58074  10.283   6.104   7.862 -2.0211  0.3482  0.2685
  421MOL0     H58075  10.335   6.244   7.953 -1.3197  2.0305 -0.0821
  421MOL0     H58076  10.103   6.305   8.007 -2.2315  0.7686 -2.3316
  421MOL0     H58077  10.047   6.198   7.878 -0.6803  2.5062 -2.6643
  421MOL0     H58078   9.793   5.481   8.430 -0.9999  0.9747  0.0280
  421MOL0     H58079   9.589   5.349   8.379  1.3688 -1.8382  1.4991
  421MOL0     H58080   9.316   5.136   8.191 -0.0141  2.6537  4.0432
  421MOL0     H58081   9.101   5.072   8.217  1.1735 -0.0627 -0.2364
  421MOL0     H58082   7.488   4.567   8.045 -1.3572  1.3062  2.1063
  421MOL0     H58083   7.269   4.627   7.988  1.2043  0.3950  3.8625
  421MOL0     H58084   7.026   5.057   7.907 -1.4351  1.3560  0.1331
  421MOL0     H58085   6.817   5.170   7.911  0.4104 -0.4554  0.4833
  421MOL0     H58086   6.392   5.089   7.904 -0.5533 -0.1311  2.4121
  421MOL0     H58087   6.453   4.942   7.838  4.0146 -1.3121  0.0797
  421MOL0     H58088   6.502   5.042   8.133 -3.0504 -0.0184  1.3040
  421MOL0     H58089   6.555   4.886   8.081  0.1654  1.3542 -3.1080
  421MOL0     H58090   6.326   4.895   8.207 -2.9306 -3.4120 -1.7180
  421MOL0     H58091   6.257   4.986   8.073 -1.6606 -2.2141 -0.1276
  421MOL0     H58092   6.366   4.716   8.043 -1.0742 -0.6677  1.4882
  421MOL0     H58093   6.266   4.809   7.926  1.3135  0.4248 -0.6639
  421MOL0     H58094   5.993   4.656   8.199 -0.4983  4.6802  2.7941
  421MOL0     H58095   6.612   4.808   7.822  0.2406 -0.5073  1.4514
  421MOL0     H58096   6.870   4.576   7.849  1.8935 -0.4894 -2.2763
  421MOL0     H58097   6.703   4.615   7.825  0.0144 -0.7065 -0.0270
  421MOL0     H58098   6.806   4.641   7.688 -1.4346 -3.3838  0.3627
  422MOL0     O58099   2.330   3.149   4.190 -0.1833 -0.0194  0.6269
  422MOL0     C58100   2.253   3.159   4.280  1.1928  0.4357 -0.1693
  422MOL0     O58101   2.277   3.204   4.408  0.4181  0.0583  0.0036
  422MOL0     C58102   2.408   3.224   4.442 -0.4874  0.0827 -0.5144
  422MOL0     C58103   2.408   3.327   4.530 -0.0619  0.2547  0.4834
  422MOL0     C58104   2.520   3.355   4.596 -0.2678 -0.4880 -0.1451
  422MOL0     C58105   2.642   3.294   4.566  0.3232 -0.6945 -0.2697
  422MOL0     O58106   2.751   3.343   4.632 -0.3359  0.0514  0.3376
  422MOL0     C58107   2.882   3.319   4.588 -0.3120  0.1021 -0.0001
  422MOL0     C58108   2.955   3.444   4.630 -0.0075 -0.3762 -0.3675
  422MOL0     C58109   3.100   3.409   4.608 -0.2083  0.2250 -0.7452
  422MOL0     C58110   3.200   3.512   4.660 -0.0549  0.4575 -0.1781
  422MOL0     C58111   3.335   3.459   4.654  0.3919  0.8275  0.6514
  422MOL0     C58112   3.404   3.456   4.511 -0.2915  0.5110 -0.8795
  422MOL0     C58113   3.534   3.366   4.497 -0.0070  0.4821  0.2744
  422MOL0     C58114   3.570   3.351   4.353  0.2018 -0.1286  1.2245
  422MOL0     N58115   3.700   3.286   4.328 -0.0916  0.3911 -0.5077
  422MOL0     C58116   3.701   3.157   4.282  0.0426  0.0499 -0.4455
  422MOL0     C58117   3.831   3.141   4.234  0.3355  0.4079  0.6476
  422MOL0     C58118   3.889   3.010   4.171 -0.4495  0.3447 -0.2166
  422MOL0     C58119   4.010   2.958   4.245  0.7996 -0.1945  0.4479
  422MOL0     C58120   4.132   3.042   4.244 -0.0824 -0.0452 -0.4132
  422MOL0     C58121   4.250   2.979   4.328  0.2239 -0.0881 -0.5989
  422MOL0     O58122   4.217   2.962   4.469  0.0949 -0.0463 -0.3389
  422MOL0     C58123   4.162   2.842   4.509  0.3074  1.0092 -0.4598
  422MOL0     C58124   4.074   2.849   4.616  0.3008  0.7108 -0.1515
  422MOL0     C58125   3.998   2.744   4.655 -0.6465  0.2660  0.0199
  422MOL0     C58126   3.883   2.776   4.747  0.4438  0.3727  0.3348
  422MOL0     C58127   4.026   2.605   4.617  0.2877 -0.6021  0.1231
  422MOL0     C58128   3.978   2.496   4.690  0.5425  0.4615 -1.3282
  422MOL0     O58129   3.938   2.508   4.816  0.1319 -0.3958 -0.2656
  422MOL0     C58130   3.868   2.401   4.861  0.7530  0.3587  0.4586
  422MOL0     C58131   3.937   2.303   4.938 -0.3704 -0.0433  0.7233
  422MOL0     C58132   3.860   2.204   5.004 -0.1201 -1.0449  0.0961
  422MOL0     C58133   3.723   2.195   4.984 -0.8017  0.1849 -0.4786
  422MOL0     O58134   3.639   2.094   5.036  0.4173  0.6343 -0.0505
  422MOL0     C58135   3.638   2.075   5.182 -0.4040 -0.2809 -0.4587
  422MOL0     C58136   3.526   1.981   5.228 -0.5413 -1.0475  0.9694
  422MOL0     C58137   3.530   1.846   5.156 -0.4551 -0.2755 -1.0331
  422MOL0     C58138   3.455   1.722   5.239  0.9951  0.4439 -0.1690
  422MOL0     C58139   3.308   1.748   5.245 -0.1388 -0.1261 -0.3002
  422MOL0     C58140   3.235   1.737   5.108 -0.9308 -0.0308 -0.4621
  422MOL0     C58141   3.084   1.758   5.130  0.4689  0.1823 -0.3962
  422MOL0     C58142   3.022   1.784   4.997  0.1158 -0.3870  0.5261
  422MOL0    Cl58143   2.862   1.858   5.016  0.1373 -0.1663 -0.2250
  422MOL0     C58144   3.665   2.292   4.907  0.2244 -1.1495  0.4101
  422MOL0     C58145   3.728   2.396   4.841 -0.1740  0.1236 -0.3297
  422MOL0     O58146   3.980   2.389   4.628 -0.5168 -0.0274  0.5765
  422MOL0     C58147   4.133   2.601   4.525 -0.1823 -0.1593  0.4566
  422MOL0     C58148   4.187   2.710   4.457  0.0216 -0.0987 -0.0842
  422MOL0     N58149   3.896   3.259   4.234  0.2850  0.4562  0.7455
  422MOL0     N58150   3.823   3.345   4.299 -0.0878 -0.9338 -0.4090
  422MOL0     C58151   2.647   3.191   4.466  0.2932  0.2147  0.1965
  422MOL0     C58152   2.527   3.160   4.403 -0.1157 -0.0935  1.2762
  422MOL0     C58153   2.104   3.124   4.242  0.2073 -0.4468 -0.5042
  422MOL0     C58154   2.076   2.996   4.180 -0.7135 -0.6764 -0.0232
  422MOL0     C58155   1.941   2.973   4.144  0.1348 -0.2279 -0.1611
  422MOL0     C58156   1.840   3.066   4.155  0.6884  0.9318 -1.0125
  422MOL0     O58157   1.710   3.029   4.127 -0.0395  0.1772 -0.9950
  422MOL0     C58158   1.609   3.056   4.238 -0.5423  0.0087  0.3736
  422MOL0     C58159   1.509   2.947   4.260 -0.0637  0.6431 -1.4580
  422MOL0     C58160   1.441   2.908   4.125 -0.4188 -0.5949  0.5942
  422MOL0     C58161   1.418   2.755   4.115  0.1495 -0.2084  0.3207
  422MOL0     C58162   1.549   2.688   4.094 -0.8473  0.4951  0.6054
  422MOL0     C58163   1.653   2.632   4.096 -0.0223  0.7201 -0.2591
  422MOL0     C58164   1.872   3.189   4.216 -0.6090 -0.1299  0.0390
  422MOL0     C58165   2.004   3.224   4.254  0.7214  0.2688  0.3432
  422MOL0     C58166   2.025   3.357   4.320 -0.0236  0.6070  0.0282
  422MOL0     H58167   2.310   3.372   4.546 -2.3523 -4.4489  1.6025
  422MOL0     H58168   2.525   3.444   4.658 -0.5416  0.1972 -1.0900
  422MOL0     H58169   2.888   3.314   4.479 -0.4328  0.4598 -0.0238
  422MOL0     H58170   2.923   3.229   4.635 -1.0325 -0.9941 -1.3710
  422MOL0     H58171   2.938   3.534   4.569 -0.3619  1.7322  2.6184
  422MOL0     H58172   2.942   3.469   4.735 -0.6529  1.3525 -0.8198
  422MOL0     H58173   3.125   3.319   4.665  0.6639  2.7127  3.1315
  422MOL0     H58174   3.106   3.381   4.502 -1.6474 -2.3618 -0.2261
  422MOL0     H58175   3.194   3.609   4.610 -2.0262 -0.3379 -1.6038
  422MOL0     H58176   3.173   3.528   4.765 -2.1624  2.1732 -0.9156
  422MOL0     H58177   3.338   3.359   4.698  0.2267 -1.0244 -3.1315
  422MOL0     H58178   3.396   3.516   4.724 -2.3671  2.7545  1.6586
  422MOL0     H58179   3.327   3.426   4.439  1.1262  1.0467 -2.6799
  422MOL0     H58180   3.423   3.558   4.477 -0.2410  0.2793 -1.5534
  422MOL0     H58181   3.505   3.268   4.535 -0.1119  0.7888  0.9912
  422MOL0     H58182   3.623   3.399   4.552  0.4177 -0.3908  0.1246
  422MOL0     H58183   3.487   3.298   4.306  0.1905 -2.4834  3.6416
  422MOL0     H58184   3.580   3.451   4.310 -1.7455 -1.0038 -1.5539
  422MOL0     H58185   3.627   3.079   4.266 -0.2694  0.7156 -2.6937
  422MOL0     H58186   3.913   3.039   4.069 -0.7726  2.1325  0.1885
  422MOL0     H58187   3.811   2.934   4.159 -0.9928  0.4426  2.0998
  422MOL0     H58188   3.976   2.934   4.346  0.0993  0.2709  0.3292
  422MOL0     H58189   4.035   2.868   4.187  2.6694 -0.1175  1.0796
  422MOL0     H58190   4.167   3.045   4.140  1.0375  0.7806 -0.0482
  422MOL0     H58191   4.108   3.138   4.291 -1.6371 -1.2793  1.4246
  422MOL0     H58192   4.268   2.881   4.283  0.7605 -0.5040  0.5046
  422MOL0     H58193   4.344   3.034   4.320  0.7023 -0.5853  1.2131
  422MOL0     H58194   4.070   2.948   4.659  0.4934  0.7650 -0.2597
  422MOL0     H58195   3.794   2.744   4.691  0.0310  0.4662  0.9341
  422MOL0     H58196   3.860   2.883   4.747 -0.2565  0.2426 -1.0821
  422MOL0     H58197   3.887   2.750   4.853 -1.9139 -1.1059  0.1392
  422MOL0     H58198   4.046   2.303   4.941 -0.3367 -2.3755  2.8059
  422MOL0     H58199   3.905   2.126   5.065 -1.0593 -0.6383  1.3423
  422MOL0     H58200   3.730   2.023   5.211 -0.4879 -0.8885 -1.2533
  422MOL0     H58201   3.642   2.170   5.235  2.7543  0.1224 -1.2021
  422MOL0     H58202   3.525   1.976   5.338 -2.2433  2.3870  1.2531
  422MOL0     H58203   3.425   2.022   5.213 -0.9918 -0.7366  4.1648
  422MOL0     H58204   3.635   1.818   5.145  0.1722  1.0071  1.0457
  422MOL0     H58205   3.487   1.854   5.056  0.3495 -1.5975 -1.5215
  422MOL0     H58206   3.496   1.702   5.338 -0.5626  1.8843  0.8003
  422MOL0     H58207   3.471   1.632   5.178  0.0469  1.5037 -2.0730
  422MOL0     H58208   3.261   1.679   5.315 -2.8539  2.6701  0.8770
  422MOL0     H58209   3.286   1.845   5.290 -0.5562 -0.4076  0.1125
  422MOL0     H58210   3.251   1.638   5.064  1.8637  0.7853 -1.4675
  422MOL0     H58211   3.276   1.809   5.036  3.2092 -1.2439  0.4397
  422MOL0     H58212   3.067   1.840   5.201  1.2609 -1.8756  2.3678
  422MOL0     H58213   3.046   1.668   5.179  2.4646 -0.3144  0.3322
  422MOL0     H58214   3.017   1.702   4.925  0.0906  2.9254 -3.6006
  422MOL0     H58215   3.088   1.845   4.936 -0.4532  0.8272  1.1006
  422MOL0     H58216   3.558   2.277   4.893 -0.4287  0.3883  3.0373
  422MOL0     H58217   3.676   2.475   4.789 -0.7267  2.4008  3.3804
  422MOL0     H58218   4.168   2.501   4.500 -1.6072 -0.7270  0.6707
  422MOL0     H58219   4.260   2.691   4.379 -2.5880 -2.1392 -2.2404
  422MOL0     H58220   2.739   3.134   4.457 -0.5432 -1.1037 -0.2358
  422MOL0     H58221   2.529   3.071   4.341 -0.0819 -0.0947  1.2798
  422MOL0     H58222   2.149   2.917   4.163  2.2105  2.3471 -3.2683
  422MOL0     H58223   1.917   2.875   4.104  3.5460 -0.3179 -2.4130
  422MOL0     H58224   1.665   3.060   4.332 -1.8305 -2.7422  1.3699
  422MOL0     H58225   1.568   3.151   4.203  0.5372 -0.3453 -2.0205
  422MOL0     H58226   1.432   2.982   4.329 -0.1278 -0.0224 -1.1775
  422MOL0     H58227   1.560   2.869   4.318 -1.7296  0.5183 -0.0873
  422MOL0     H58228   1.346   2.961   4.132  0.6891  1.3124  5.5266
  422MOL0     H58229   1.500   2.949   4.043 -1.2699 -1.2106 -0.3521
  422MOL0     H58230   1.344   2.729   4.038 -1.1368  3.8747 -0.0459
  422MOL0     H58231   1.368   2.724   4.208  2.1398  0.5845  1.7245
  422MOL0     H58232   1.735   2.565   4.108 -0.1411  0.3859 -1.2285
  422MOL0     H58233   1.795   3.261   4.244  0.2330  0.2984  1.3780
  422MOL0     H58234   1.957   3.363   4.405  1.1421 -0.1190  1.0560
  422MOL0     H58235   2.124   3.380   4.363 -0.2409 -1.6037  1.8928
  422MOL0     H58236   1.997   3.432   4.246  0.0537  0.6041 -0.0048
  423MOL0     O58237   6.659  10.687   7.574 -0.4736  0.2695  0.0103
  423MOL0     C58238   6.635  10.723   7.457 -0.2304 -0.1359 -0.4659
  423MOL0     O58239   6.733  10.721   7.361 -0.4442 -0.1678 -0.5765
  423MOL0     C58240   6.864  10.718   7.404 -0.8601  0.1672  0.6624
  423MOL0     C58241   6.943  10.622   7.335  0.0033 -0.1481 -0.3880
  423MOL0     C58242   7.074  10.601   7.373  0.3697 -0.6426  0.1121
  423MOL0     C58243   7.139  10.679   7.473  0.5679  0.2192  0.1744
  423MOL0     O58244   7.262  10.661   7.513  0.0162 -0.4769 -0.3498
  423MOL0     C58245   7.341  10.562   7.454 -0.0748  0.1698  0.7662
  423MOL0     C58246   7.476  10.552   7.538  0.5926 -0.4160  0.6556
  423MOL0     C58247   7.575  10.453   7.483 -0.6397 -0.1455  0.1291
  423MOL0     C58248   7.711  10.470   7.558  0.6633  0.0813  0.1141
  423MOL0     C58249   7.821  10.364   7.514  0.1941 -0.0777 -0.3239
  423MOL0     C58250   7.861  10.359   7.373 -0.1126 -0.7577  0.0914
  423MOL0     C58251   7.961  10.241   7.342 -0.2298  1.0410  0.4864
  423MOL0     C58252   7.980  10.205   7.191  0.2002  0.6136 -0.3998
  423MOL0     N58253   8.068  10.088   7.190  0.1883 -0.3832  0.4284
  423MOL0     C58254   8.206  10.086   7.210  0.1981 -0.2823 -0.1423
  423MOL0     C58255   8.236   9.955   7.211 -0.5573 -0.6568  0.1615
  423MOL0     C58256   8.372   9.901   7.240 -0.1198  0.7491 -0.5347
  423MOL0     C58257   8.452   9.884   7.112 -0.6061 -0.3273  0.3305
  423MOL0     C58258   8.592   9.832   7.152  0.8157 -0.1662  1.0186
  423MOL0     C58259   8.661   9.783   7.028  1.0825  0.3947  0.3606
  423MOL0     O58260   8.682   9.884   6.930 -0.0274 -0.5417  0.0206
  423MOL0     C58261   8.817   9.939   6.933 -0.0093  0.7795  0.0749
  423MOL0     C58262   8.830  10.082   6.947 -0.4352  0.8416  0.3547
  423MOL0     C58263   8.958  10.147   6.951 -0.3626  0.1240  0.2161
  423MOL0     C58264   8.959  10.302   6.962 -0.1697 -0.5491  0.8587
  423MOL0     C58265   9.074  10.063   6.949  0.2943  0.2708  0.5746
  423MOL0     C58266   9.218  10.108   6.974  0.9014 -0.0195  0.3449
  423MOL0     O58267   9.317  10.016   6.981  0.1445  0.4838 -0.1353
  423MOL0     C58268   9.434  10.053   7.036  1.0198  0.2519  0.8924
  423MOL0     C58269   9.459  10.032   7.170  0.8847  0.1017 -0.2827
  423MOL0     C58270   9.578  10.070   7.230 -0.8595 -0.0379  0.6555
  423MOL0     C58271   9.673  10.136   7.159  0.4291  0.4581  0.4147
  423MOL0     O58272   9.780  10.174   7.233  0.2012  0.9461  0.0847
  423MOL0     C58273   9.897  10.226   7.165 -0.1564  0.0851  1.3357
  423MOL0     C58274  10.017  10.250   7.254  0.2747 -0.3045 -1.1070
  423MOL0     C58275  10.128  10.314   7.164 -0.1313  0.0943 -0.3578
  423MOL0     C58276  10.255  10.326   7.247  0.1543  0.2441 -0.4493
  423MOL0     C58277  10.367  10.375   7.162 -0.6436  0.0272 -0.0400
  423MOL0     C58278  10.493  10.390   7.243 -0.5051 -0.0573  0.4598
  423MOL0     C58279  10.608  10.292   7.181  0.1435  0.5173 -0.4011
  423MOL0     C58280  10.740  10.309   7.254  1.1136 -0.1349 -0.0075
  423MOL0    Cl58281  10.717  10.262   7.420 -0.0894 -0.2772  0.6888
  423MOL0     C58282   9.647  10.156   7.022  0.1218  0.1587  0.0783
  423MOL0     C58283   9.534  10.111   6.962  0.1510 -0.3588  0.1304
  423MOL0     O58284   9.230  10.228   7.010 -0.0790 -0.3583 -0.2004
  423MOL0     C58285   9.057   9.917   6.934 -0.7655 -0.6031 -0.7224
  423MOL0     C58286   8.931   9.857   6.911 -0.1110 -0.0629  1.0528
  423MOL0     N58287   8.120   9.883   7.185 -0.0927  0.2106 -0.2909
  423MOL0     N58288   8.024   9.959   7.169 -0.1810 -0.7578 -0.4506
  423MOL0     C58289   7.061  10.784   7.535 -0.7731  0.3586  0.8921
  423MOL0     C58290   6.926  10.800   7.502  0.1750 -0.1439 -0.3487
  423MOL0     C58291   6.493  10.752   7.426  0.2857 -0.2197  0.2842
  423MOL0     C58292   6.474  10.875   7.364  0.4530 -0.3274  0.6375
  423MOL0     C58293   6.352  10.937   7.344 -0.3640 -1.3442 -0.4530
  423MOL0     C58294   6.237  10.873   7.388  0.6328  0.3373  0.3481
  423MOL0     O58295   6.107  10.920   7.374  0.0932 -0.5263  0.2383
  423MOL0     C58296   6.082  11.028   7.274 -0.3289  0.9865  0.0508
  423MOL0     C58297   5.939  11.027   7.211 -0.2944  0.0859  0.3359
  423MOL0     C58298   5.822  11.010   7.309  0.5520  0.2194  0.1473
  423MOL0     C58299   5.689  11.070   7.247 -0.6129 -0.2279  0.5304
  423MOL0     C58300   5.577  11.042   7.339  0.9783 -0.0005 -0.4562
  423MOL0     C58301   5.483  11.008   7.401  0.4334 -0.5820  0.0792
  423MOL0     C58302   6.248  10.752   7.452 -0.5103  0.1564  0.0954
  423MOL0     C58303   6.373  10.685   7.472 -0.6569  0.0519 -0.5033
  423MOL0     C58304   6.385  10.564   7.565 -0.6295 -0.0178  0.1853
  423MOL0     H58305   6.902  10.565   7.253  0.4376  1.8052 -2.0375
  423MOL0     H58306   7.127  10.526   7.315  1.2351  0.6766 -0.8689
  423MOL0     H58307   7.357  10.593   7.351 -2.2182  2.8446  1.1235
  423MOL0     H58308   7.298  10.461   7.455 -3.0819  1.3021 -1.3887
  423MOL0     H58309   7.523  10.651   7.531  1.6572 -0.9184  0.5756
  423MOL0     H58310   7.457  10.525   7.642  2.7826 -2.8140  0.5120
  423MOL0     H58311   7.543  10.349   7.491  3.2888 -1.5264 -0.3481
  423MOL0     H58312   7.589  10.477   7.377  1.2849  0.7298  0.5495
  423MOL0     H58313   7.754  10.570   7.544  2.5190 -0.8487 -1.3232
  423MOL0     H58314   7.689  10.462   7.665 -3.3106  0.3717 -0.5182
  423MOL0     H58315   7.794  10.261   7.537  0.6751 -0.5247 -1.6706
  423MOL0     H58316   7.902  10.390   7.583  0.5148  0.6615 -0.9597
  423MOL0     H58317   7.763  10.355   7.324  0.0826  0.7100 -0.4937
  423MOL0     H58318   7.907  10.456   7.349  1.0305 -1.1539  0.6218
  423MOL0     H58319   7.917  10.151   7.385 -1.8740  0.7807 -1.5667
  423MOL0     H58320   8.062  10.258   7.382  0.2074 -1.2300  0.4838
  423MOL0     H58321   7.886  10.181   7.140 -0.1073 -1.2337  0.9125
  423MOL0     H58322   8.019  10.290   7.135 -1.9078  1.1869 -1.1181
  423MOL0     H58323   8.274  10.168   7.230  0.6424 -0.3240 -1.4114
  423MOL0     H58324   8.375   9.811   7.301 -1.5974  0.7930 -0.3806
  423MOL0     H58325   8.420   9.976   7.304  0.3585 -0.8024  1.0060
  423MOL0     H58326   8.413   9.814   7.036  2.1683 -1.0466 -0.5714
  423MOL0     H58327   8.456   9.981   7.063  0.9049 -1.3068 -1.6730
  423MOL0     H58328   8.661   9.905   7.196  2.3233 -2.4800  2.7361
  423MOL0     H58329   8.582   9.751   7.225  0.7011 -0.4673  0.6685
  423MOL0     H58330   8.754   9.734   7.059  1.4062 -0.5502 -1.8580
  423MOL0     H58331   8.597   9.704   6.989  0.3521  1.7796 -1.4576
  423MOL0     H58332   8.736  10.135   6.961 -0.5006  0.2190  2.5674
  423MOL0     H58333   9.024  10.329   6.878 -0.9652  0.7040  0.6150
  423MOL0     H58334   9.004  10.330   7.058 -0.9885 -0.1408  1.1320
  423MOL0     H58335   8.865  10.354   6.940  0.1018  0.3483  1.7257
  423MOL0     H58336   9.386   9.978   7.229 -1.5227  3.0425 -0.3449
  423MOL0     H58337   9.586  10.053   7.337 -2.2205 -1.5979  0.5502
  423MOL0     H58338   9.933  10.166   7.080 -0.2735  2.9195 -0.8694
  423MOL0     H58339   9.868  10.324   7.125 -2.8569 -0.2667  2.2689
  423MOL0     H58340  10.003  10.322   7.335 -1.9581 -2.6645  0.8056
  423MOL0     H58341  10.050  10.156   7.300 -2.5195 -0.3970  0.9755
  423MOL0     H58342  10.111  10.408   7.111  0.9209  0.4118 -0.1590
  423MOL0     H58343  10.152  10.244   7.083  1.0239 -1.6911  1.4468
  423MOL0     H58344  10.285  10.231   7.294  0.0609  1.7514  2.9167
  423MOL0     H58345  10.231  10.397   7.327 -0.9451 -0.1989 -0.3692
  423MOL0     H58346  10.391  10.309   7.079  4.8874  0.7340  0.5897
  423MOL0     H58347  10.340  10.468   7.112 -1.8483 -0.8880 -1.1851
  423MOL0     H58348  10.485  10.354   7.346  1.8288  1.4406  1.2499
  423MOL0     H58349  10.531  10.491   7.254  0.5832 -0.6120  2.1662
  423MOL0     H58350  10.632  10.315   7.077  0.3989  0.2339 -0.4034
  423MOL0     H58351  10.572  10.189   7.193 -2.6351  1.4004 -0.4322
  423MOL0     H58352  10.783  10.409   7.249  1.3070 -0.1751  0.6788
  423MOL0     H58353  10.805  10.247   7.192  0.5447 -3.6675  2.5892
  423MOL0     H58354   9.714  10.210   6.956 -0.6924  1.2410  0.1131
  423MOL0     H58355   9.532  10.116   6.853  0.5622  0.2368  0.1457
  423MOL0     H58356   9.140   9.850   6.918  1.1820  1.5225  0.0072
  423MOL0     H58357   8.911   9.761   6.863 -2.3296  0.7441  0.2253
  423MOL0     H58358   7.109  10.854   7.603 -0.5535  0.1356  0.9690
  423MOL0     H58359   6.860  10.871   7.550  3.1455  0.2234  3.7020
  423MOL0     H58360   6.559  10.932   7.328  0.7171 -1.2813 -0.3146
  423MOL0     H58361   6.352  11.038   7.304  3.8682 -0.3619  1.4094
  423MOL0     H58362   6.098  11.127   7.316  0.0463  0.7637  0.4304
  423MOL0     H58363   6.147  11.004   7.189 -1.2109  0.8255 -0.6088
  423MOL0     H58364   5.940  10.942   7.142 -1.4155  0.7610 -0.5369
  423MOL0     H58365   5.912  11.122   7.164 -0.5848 -1.3793 -2.7273
  423MOL0     H58366   5.794  10.905   7.321  0.0746  0.1511 -1.3526
  423MOL0     H58367   5.846  11.060   7.403  1.1954 -0.4743  0.3623
  423MOL0     H58368   5.670  11.032   7.146 -0.3687  0.9135  0.0425
  423MOL0     H58369   5.706  11.178   7.239  3.1382 -0.6194  1.4112
  423MOL0     H58370   5.397  10.978   7.457  1.5176 -2.1357  0.9857
  423MOL0     H58371   6.162  10.704   7.498 -0.7413 -2.4180 -2.6829
  423MOL0     H58372   6.302  10.495   7.548 -1.4846  1.0754 -0.1630
  423MOL0     H58373   6.477  10.506   7.557 -0.8188 -0.3905  0.6653
  423MOL0     H58374   6.391  10.601   7.668  3.4133 -0.8803  0.4400
  424MOL0     O58375   6.927   5.272   2.351  0.2455 -0.0836  0.2554
  424MOL0     C58376   6.990   5.372   2.311  0.6965 -0.7561 -0.5421
  424MOL0     O58377   6.934   5.491   2.283  0.2820  0.4565  0.1246
  424MOL0     C58378   6.799   5.513   2.283 -0.3971  0.1324 -0.5546
  424MOL0     C58379   6.724   5.490   2.398 -0.1410  0.3931 -0.0248
  424MOL0     C58380   6.589   5.532   2.399  0.0365 -0.2881  0.3708
  424MOL0     C58381   6.532   5.591   2.286 -0.8367 -0.1708 -0.0949
  424MOL0     O58382   6.399   5.627   2.296  0.2894  0.0775 -0.2742
  424MOL0     C58383   6.302   5.527   2.314 -0.5258 -0.0551  0.6540
  424MOL0     C58384   6.169   5.568   2.270  0.4575  0.4419  1.0830
  424MOL0     C58385   6.114   5.674   2.365 -0.4621 -0.3203 -0.2396
  424MOL0     C58386   6.049   5.620   2.495  0.5712 -0.5063  0.1153
  424MOL0     C58387   6.018   5.743   2.583 -0.7671 -0.3756 -0.3871
  424MOL0     C58388   5.949   5.714   2.722  0.0975  0.0883 -0.2097
  424MOL0     C58389   5.957   5.835   2.819 -0.4962 -0.4343 -0.6209
  424MOL0     C58390   5.920   5.790   2.968 -0.2149  0.3139  0.2424
  424MOL0     N58391   5.775   5.782   2.984  0.0143 -0.7447 -0.6115
  424MOL0     C58392   5.685   5.884   2.982  0.3817  0.6171 -0.8018
  424MOL0     C58393   5.566   5.827   2.982 -0.5258  0.9545  0.2154
  424MOL0     C58394   5.442   5.908   3.002 -0.3854  0.1340 -0.8257
  424MOL0     C58395   5.342   5.834   3.080 -0.1080 -0.3792  0.4026
  424MOL0     C58396   5.390   5.785   3.220  0.3810  0.0816 -0.1636
  424MOL0     C58397   5.451   5.893   3.310  0.2919  1.1293 -0.0896
  424MOL0     O58398   5.577   5.845   3.360 -0.0643  0.2031  0.6220
  424MOL0     C58399   5.690   5.919   3.326  1.0156 -0.4905 -0.1442
  424MOL0     C58400   5.808   5.851   3.364  0.3272 -0.6667 -0.8499
  424MOL0     C58401   5.938   5.903   3.324 -0.4130  0.5427 -0.0073
  424MOL0     C58402   6.056   5.817   3.373  0.2648 -0.6149  0.2057
  424MOL0     C58403   5.940   6.027   3.245 -0.7796 -0.4106  0.7853
  424MOL0     C58404   6.074   6.081   3.192 -0.4539  0.0387  0.6887
  424MOL0     O58405   6.186   6.074   3.273 -0.5722 -0.4573  0.3753
  424MOL0     C58406   6.292   6.152   3.242  0.4869 -0.1914  0.5997
  424MOL0     C58407   6.282   6.294   3.233 -0.3893 -0.3027  0.5092
  424MOL0     C58408   6.383   6.367   3.176  0.0050  0.9619 -0.1538
  424MOL0     C58409   6.512   6.318   3.156  0.3646 -0.4518  0.9742
  424MOL0     O58410   6.605   6.400   3.115 -0.2342 -0.4663 -0.1400
  424MOL0     C58411   6.744   6.354   3.097  0.5097  0.5381  0.4024
  424MOL0     C58412   6.814   6.465   3.010  0.0175  0.4605 -0.4849
  424MOL0     C58413   6.849   6.598   3.087 -0.0127  0.6189 -0.5297
  424MOL0     C58414   6.934   6.685   3.000  0.3982  1.0246 -0.0149
  424MOL0     C58415   6.979   6.820   3.063 -0.7311 -0.7863 -0.7733
  424MOL0     C58416   6.857   6.899   3.113  0.2891 -1.0233  0.8908
  424MOL0     C58417   6.904   7.044   3.136 -0.3815 -0.2574 -0.4948
  424MOL0     C58418   6.787   7.132   3.172  0.6385  1.0972 -0.0747
  424MOL0    Cl58419   6.814   7.298   3.155  0.2524  0.2409  0.4931
  424MOL0     C58420   6.524   6.180   3.159 -0.1364 -0.1833  0.2591
  424MOL0     C58421   6.419   6.096   3.203 -0.1353  0.1232 -0.4211
  424MOL0     O58422   6.071   6.133   3.082  0.5379  1.0157 -0.2197
  424MOL0     C58423   5.821   6.097   3.217  0.6327  1.2614  0.6805
  424MOL0     C58424   5.698   6.042   3.254  0.5211  0.2050  0.1055
  424MOL0     N58425   5.579   5.686   2.977  0.1874 -0.0688  0.4439
  424MOL0     N58426   5.701   5.667   2.990  0.0328  0.5476  0.1283
  424MOL0     C58427   6.614   5.623   2.180  0.7752  0.1932  1.0860
  424MOL0     C58428   6.740   5.578   2.177 -0.1262 -0.4387  0.8658
  424MOL0     C58429   7.134   5.349   2.320 -0.0382 -0.5903  0.5145
  424MOL0     C58430   7.210   5.463   2.306 -0.8763  0.4554 -1.0289
  424MOL0     C58431   7.349   5.454   2.326 -0.4158 -1.7592  0.3803
  424MOL0     C58432   7.412   5.346   2.353  0.0733  0.3771  0.5669
  424MOL0     O58433   7.548   5.330   2.374 -0.8949  0.4984  0.7935
  424MOL0     C58434   7.628   5.456   2.362  0.2774 -0.1028  0.4278
  424MOL0     C58435   7.762   5.422   2.419 -0.7328  0.4754  0.1264
  424MOL0     C58436   7.831   5.312   2.339 -0.4369  0.2206 -0.3061
  424MOL0     C58437   7.948   5.251   2.402 -0.6906 -0.0847  0.4003
  424MOL0     C58438   8.055   5.350   2.436  0.1746  0.0517 -0.0420
  424MOL0     C58439   8.146   5.411   2.485 -1.1449  0.0387 -0.0875
  424MOL0     C58440   7.333   5.226   2.340  0.2016  0.1206  0.1419
  424MOL0     C58441   7.201   5.220   2.320  0.0131  0.2477 -0.1560
  424MOL0     C58442   7.143   5.087   2.292 -0.0853 -1.0803 -0.0626
  424MOL0     H58443   6.761   5.442   2.488  0.1607  3.2389  1.4698
  424MOL0     H58444   6.529   5.512   2.488 -0.7995  0.6902  0.0509
  424MOL0     H58445   6.295   5.489   2.417  0.5691 -3.1099 -0.2936
  424MOL0     H58446   6.332   5.443   2.251 -0.4691 -0.0167  0.6296
  424MOL0     H58447   6.172   5.607   2.168 -0.1940 -0.0439  0.8738
  424MOL0     H58448   6.105   5.480   2.273 -0.3660  0.8864 -1.2343
  424MOL0     H58449   6.184   5.751   2.397 -0.3345 -0.2533 -0.6758
  424MOL0     H58450   6.029   5.720   2.315  0.0655  1.7240  0.6654
  424MOL0     H58451   5.956   5.566   2.475  0.5023 -0.9133  1.4129
  424MOL0     H58452   6.118   5.559   2.553 -1.7252 -0.4255  3.2635
  424MOL0     H58453   5.950   5.808   2.526 -0.3334 -0.0338 -0.5181
  424MOL0     H58454   6.103   5.808   2.602 -1.3361  0.8354 -1.7654
  424MOL0     H58455   5.844   5.690   2.703 -0.1433 -0.2869  1.4416
  424MOL0     H58456   6.007   5.638   2.776 -0.8031 -0.0204  0.6261
  424MOL0     H58457   5.880   5.907   2.788 -1.6946  0.4830  3.8478
  424MOL0     H58458   6.058   5.876   2.823 -0.4578 -0.6490  2.5370
  424MOL0     H58459   5.966   5.694   2.995 -1.1286 -0.7004 -1.6357
  424MOL0     H58460   5.963   5.866   3.034  1.5629 -1.3220  1.0746
  424MOL0     H58461   5.713   5.988   2.990 -2.7130  1.5029 -0.4095
  424MOL0     H58462   5.400   5.931   2.903  1.4423  0.7815 -1.4822
  424MOL0     H58463   5.468   6.004   3.046 -1.3601  0.1916 -0.3403
  424MOL0     H58464   5.255   5.900   3.091  0.1853 -0.0427  0.7196
  424MOL0     H58465   5.304   5.748   3.024  0.5412  0.3944 -1.2903
  424MOL0     H58466   5.310   5.729   3.270  0.3613 -0.9851 -1.3430
  424MOL0     H58467   5.464   5.704   3.207  0.1919 -0.4320  1.6649
  424MOL0     H58468   5.450   5.982   3.247  0.4700  0.8998 -0.4155
  424MOL0     H58469   5.390   5.912   3.399 -2.7721 -0.1836 -1.7689
  424MOL0     H58470   5.808   5.765   3.430 -0.3547 -0.0135  0.0347
  424MOL0     H58471   6.143   5.807   3.307  1.4044  0.6691  1.4708
  424MOL0     H58472   6.023   5.717   3.404  0.4570 -1.0056 -0.8104
  424MOL0     H58473   6.098   5.871   3.458 -0.8338 -1.0917  1.0841
  424MOL0     H58474   6.193   6.353   3.251 -0.7318 -0.7233  0.1907
  424MOL0     H58475   6.372   6.470   3.144  1.9420  1.0126 -0.8120
  424MOL0     H58476   6.799   6.348   3.191  0.4584 -0.0176  0.4040
  424MOL0     H58477   6.745   6.255   3.050 -0.4964  0.5997  0.2408
  424MOL0     H58478   6.911   6.432   2.969  0.3092 -2.3240  2.1214
  424MOL0     H58479   6.747   6.488   2.927  0.2937  0.9636 -0.5702
  424MOL0     H58480   6.905   6.568   3.175 -0.4647  0.6413 -0.2300
  424MOL0     H58481   6.756   6.645   3.120 -0.4274 -0.6166  0.1092
  424MOL0     H58482   6.892   6.718   2.905  1.3628  0.5189 -0.6305
  424MOL0     H58483   7.027   6.631   2.981 -0.6521 -1.3015  1.0070
  424MOL0     H58484   7.052   6.795   3.141 -0.0318 -0.0470 -1.1779
  424MOL0     H58485   7.029   6.881   2.987 -2.4161 -0.5135 -1.7014
  424MOL0     H58486   6.824   6.856   3.208 -1.2373 -0.2091  0.7701
  424MOL0     H58487   6.775   6.906   3.040  2.3586  3.1801 -1.3939
  424MOL0     H58488   6.955   7.083   3.047  1.9522 -2.1828 -0.0666
  424MOL0     H58489   6.980   7.049   3.214  1.6885 -0.8726 -2.3713
  424MOL0     H58490   6.757   7.107   3.275  3.9388 -2.8666  0.1775
  424MOL0     H58491   6.712   7.118   3.094  0.6337  1.1897 -0.0859
  424MOL0     H58492   6.625   6.141   3.151  0.1821  0.3200  1.5116
  424MOL0     H58493   6.427   5.987   3.199 -3.1249 -0.1690 -1.4035
  424MOL0     H58494   5.822   6.200   3.184  0.0083  0.9637 -0.3125
  424MOL0     H58495   5.613   6.106   3.236  1.8535  2.9350  2.5238
  424MOL0     H58496   6.562   5.669   2.097  0.2189  0.3371  1.5042
  424MOL0     H58497   6.803   5.603   2.092 -2.5990  1.0715 -0.6469
  424MOL0     H58498   7.168   5.555   2.264 -0.8571 -0.5514 -3.4020
  424MOL0     H58499   7.405   5.545   2.307 -3.2658 -0.5449 -3.6900
  424MOL0     H58500   7.644   5.501   2.263  0.8600  0.3508  0.7232
  424MOL0     H58501   7.582   5.544   2.408  0.2538  0.6114 -0.9015
  424MOL0     H58502   7.749   5.388   2.522 -0.2257 -1.1509 -0.3120
  424MOL0     H58503   7.830   5.507   2.404  0.5938 -0.5815 -0.0142
  424MOL0     H58504   7.764   5.228   2.321  0.2553 -0.0051 -2.1187
  424MOL0     H58505   7.864   5.346   2.240 -0.1757 -1.0514 -0.6702
  424MOL0     H58506   7.992   5.171   2.342 -0.7069 -0.8725  1.3972
  424MOL0     H58507   7.916   5.194   2.490  1.0685 -0.2598  0.9701
  424MOL0     H58508   8.215   5.474   2.537 -0.8817 -1.7532  1.8817
  424MOL0     H58509   7.386   5.131   2.345 -0.1348 -0.1015 -0.3801
  424MOL0     H58510   7.056   5.087   2.225  1.1595 -1.5658 -1.7373
  424MOL0     H58511   7.209   5.015   2.243 -2.1404 -0.9803 -3.2794
  424MOL0     H58512   7.113   5.050   2.391 -0.7474 -0.1665  0.0888
  425MOL0     O58513   2.844   9.825   0.761 -0.3268 -0.1175  0.1313
  425MOL0     C58514   2.831   9.927   0.818  0.0970 -0.5004  0.6848
  425MOL0     O58515   2.943  10.000   0.858 -0.1460  0.0855 -0.4896
  425MOL0     C58516   3.070   9.985   0.800 -0.5863 -0.6742  0.3291
  425MOL0     C58517   3.159   9.887   0.845  0.7233  0.5809 -0.1165
  425MOL0     C58518   3.276   9.856   0.780  0.5099  0.5088 -1.0234
  425MOL0     C58519   3.307   9.917   0.659 -1.8976 -0.3575 -0.1003
  425MOL0     O58520   3.432   9.883   0.597 -0.0519 -0.0199 -0.1181
  425MOL0     C58521   3.438   9.889   0.453 -1.3410 -0.7827  0.6813
  425MOL0     C58522   3.553   9.797   0.409  0.0854 -0.6235 -0.1713
  425MOL0     C58523   3.696   9.856   0.445  0.2281  0.1449 -0.6476
  425MOL0     C58524   3.806   9.779   0.369 -0.0787 -0.0693  0.0020
  425MOL0     C58525   3.949   9.842   0.368  0.7526 -0.4529 -0.0767
  425MOL0     C58526   4.001   9.822   0.508 -0.3982 -0.1072  0.6087
  425MOL0     C58527   4.146   9.879   0.531 -0.7907  0.5410 -0.0305
  425MOL0     C58528   4.253   9.800   0.454 -0.1774  0.5031 -0.4016
  425MOL0     N58529   4.379   9.869   0.453 -0.3433  0.8458 -0.4345
  425MOL0     C58530   4.395   9.993   0.392 -0.0819 -0.0913 -0.6443
  425MOL0     C58531   4.527  10.020   0.418 -0.1722 -0.6729  0.2131
  425MOL0     C58532   4.611  10.139   0.375  0.5349  0.0739 -0.2456
  425MOL0     C58533   4.721  10.101   0.275  0.3423 -0.3170  0.0318
  425MOL0     C58534   4.857  10.051   0.335  0.4342 -0.4459 -0.0691
  425MOL0     C58535   4.957  10.034   0.215 -0.2487  0.1819 -0.1961
  425MOL0     O58536   4.972  10.168   0.153  0.5081  0.1255  0.6627
  425MOL0     C58537   5.085  10.226   0.138 -0.2428  0.8102 -0.7797
  425MOL0     C58538   5.214  10.188   0.187  0.1174 -0.4452  0.2674
  425MOL0     C58539   5.326  10.267   0.157  0.2770  0.4996  0.1084
  425MOL0     C58540   5.456  10.203   0.212 -0.2769  0.4097 -0.4760
  425MOL0     C58541   5.315  10.386   0.070  0.1666  0.6148 -0.5991
  425MOL0     C58542   5.430  10.470   0.035 -0.1745 -0.9971 -0.2614
  425MOL0     O58543   5.409  10.550  -0.077  0.0903 -0.6492 -0.1319
  425MOL0     C58544   5.497  10.652  -0.112 -0.3115 -0.4105  0.7234
  425MOL0     C58545   5.443  10.766  -0.180  0.3368 -0.5005 -0.9516
  425MOL0     C58546   5.526  10.871  -0.223 -0.1570  0.1425 -0.3323
  425MOL0     C58547   5.665  10.858  -0.220  0.6613  0.4612  0.4910
  425MOL0     O58548   5.739  10.968  -0.258 -1.1914 -0.6421 -0.2202
  425MOL0     C58549   5.882  10.942  -0.279 -0.5921  0.0894 -0.3216
  425MOL0     C58550   5.936  11.069  -0.341  0.0375 -0.6100 -0.4865
  425MOL0     C58551   6.087  11.051  -0.355 -0.5811  0.0312 -0.2207
  425MOL0     C58552   6.147  11.177  -0.423  0.1062  0.1939 -0.4038
  425MOL0     C58553   6.296  11.159  -0.435  0.5436  0.3124 -0.2990
  425MOL0     C58554   6.368  11.287  -0.469  0.3222  0.3965 -0.2444
  425MOL0     C58555   6.516  11.255  -0.473 -0.0616  0.3116  0.9173
  425MOL0     C58556   6.590  11.374  -0.417 -0.1088 -0.1704  0.2063
  425MOL0    Cl58557   6.747  11.328  -0.371  0.1059 -0.3203 -0.1232
  425MOL0     C58558   5.722  10.748  -0.159  0.2418 -0.2685  0.5231
  425MOL0     C58559   5.642  10.639  -0.110 -0.2304  0.1826 -0.9118
  425MOL0     O58560   5.525  10.464   0.107  0.3752  0.0867 -0.3738
  425MOL0     C58561   5.191  10.413   0.023 -0.0189  0.1054  0.1698
  425MOL0     C58562   5.077  10.336   0.048 -0.2125 -0.6103 -0.1847
  425MOL0     N58563   4.575   9.924   0.503 -0.0757  0.3399 -0.6056
  425MOL0     N58564   4.487   9.830   0.533 -0.3271 -0.2721  0.2679
  425MOL0     C58565   3.222  10.008   0.608 -0.5374  0.0109 -0.5450
  425MOL0     C58566   3.111  10.052   0.678  0.4645 -0.0584 -0.6151
  425MOL0     C58567   2.694   9.941   0.878  0.3828  0.1882  0.4699
  425MOL0     C58568   2.677  10.035   0.976  0.4215 -0.1893  0.4835
  425MOL0     C58569   2.558  10.064   1.039  0.6800  0.0395 -0.0666
  425MOL0     C58570   2.441   9.985   1.010  0.1693  1.2700  0.0431
  425MOL0     O58571   2.319  10.005   1.067  0.1294 -0.3640 -0.0343
  425MOL0     C58572   2.304  10.115   1.164  0.1227  0.0884  1.1742
  425MOL0     C58573   2.173  10.097   1.229 -0.0248 -0.6440 -0.5049
  425MOL0     C58574   2.142  10.215   1.329 -0.4166 -0.5872 -0.4600
  425MOL0     C58575   2.007  10.185   1.403 -0.2006  0.0693 -0.5735
  425MOL0     C58576   1.959  10.296   1.479 -0.2985  0.8965 -1.2584
  425MOL0     C58577   1.913  10.382   1.549  0.0713 -0.6656 -0.8774
  425MOL0     C58578   2.454   9.897   0.898  0.0044 -0.3042 -0.7501
  425MOL0     C58579   2.580   9.871   0.835 -0.0689  0.1744 -0.1803
  425MOL0     C58580   2.579   9.762   0.721 -0.2683 -0.5279 -0.3149
  425MOL0     H58581   3.129   9.833   0.934 -0.6222  1.9789  0.3109
  425MOL0     H58582   3.337   9.775   0.818  1.3434  2.5489  2.4062
  425MOL0     H58583   3.456   9.989   0.411  1.1048 -1.5278 -0.1997
  425MOL0     H58584   3.347   9.859   0.400 -0.7819 -2.8088  0.7959
  425MOL0     H58585   3.537   9.698   0.453 -0.3689 -1.5159 -2.2471
  425MOL0     H58586   3.557   9.787   0.301 -0.2915  2.0365 -0.4900
  425MOL0     H58587   3.709   9.963   0.426  2.2445  0.2428  0.9175
  425MOL0     H58588   3.703   9.830   0.551  0.4032 -0.9707 -0.9270
  425MOL0     H58589   3.806   9.676   0.405 -1.3762  0.0443  0.3741
  425MOL0     H58590   3.784   9.780   0.262  0.3896  2.2874 -0.1316
  425MOL0     H58591   3.951   9.949   0.347  1.1201 -0.4253  0.0914
  425MOL0     H58592   4.018   9.786   0.304  0.2085 -0.3614 -0.7533
  425MOL0     H58593   3.936   9.892   0.562  1.5259  4.1308 -1.9524
  425MOL0     H58594   3.992   9.718   0.538  0.1678 -0.0602  0.9612
  425MOL0     H58595   4.160   9.880   0.640  0.2606  0.2940 -0.1607
  425MOL0     H58596   4.157   9.983   0.499  1.8170  1.6199  3.7460
  425MOL0     H58597   4.278   9.708   0.508 -2.2973 -1.0094 -1.8211
  425MOL0     H58598   4.226   9.782   0.350  1.6039 -0.3453 -0.7681
  425MOL0     H58599   4.321  10.046   0.333  1.1953  1.2593 -1.0873
  425MOL0     H58600   4.654  10.187   0.464 -0.5952 -1.0479  0.9346
  425MOL0     H58601   4.535  10.200   0.325 -1.7436 -2.9300 -0.6666
  425MOL0     H58602   4.685  10.016   0.216 -0.3338 -2.5634  3.3823
  425MOL0     H58603   4.748  10.193   0.223 -1.6259  0.1011 -0.3318
  425MOL0     H58604   4.891  10.129   0.403  0.2677  0.8463 -1.4320
  425MOL0     H58605   4.846   9.957   0.390  1.4422 -0.7538 -0.3621
  425MOL0     H58606   5.052   9.995   0.252  0.1762  1.4839  0.1395
  425MOL0     H58607   4.918   9.969   0.136 -0.8440  1.9319 -1.4120
  425MOL0     H58608   5.223  10.113   0.265  3.5602 -0.0468  0.4123
  425MOL0     H58609   5.528  10.212   0.130  0.9937 -2.3355  0.2545
  425MOL0     H58610   5.447  10.099   0.243 -2.6460  0.4603 -0.8045
  425MOL0     H58611   5.486  10.260   0.300 -2.7500  3.2768 -1.3134
  425MOL0     H58612   5.335  10.775  -0.185  0.0286 -1.5157  2.0777
  425MOL0     H58613   5.480  10.966  -0.249 -1.3665 -0.3062  0.0973
  425MOL0     H58614   5.927  10.914  -0.183 -0.1324  2.8305  0.3410
  425MOL0     H58615   5.899  10.868  -0.358 -0.8607  0.4674 -0.7323
  425MOL0     H58616   5.891  11.090  -0.438 -1.3407 -1.1759 -0.0034
  425MOL0     H58617   5.923  11.160  -0.282  1.6052 -0.5794 -0.1490
  425MOL0     H58618   6.116  10.968  -0.420  0.6693 -1.7501  2.4184
  425MOL0     H58619   6.131  11.046  -0.255 -1.2248  0.2943  0.0824
  425MOL0     H58620   6.122  11.265  -0.363 -0.0961 -1.4127  1.9989
  425MOL0     H58621   6.113  11.180  -0.527  0.9389 -1.7073 -0.7633
  425MOL0     H58622   6.334  11.115  -0.342  0.3671 -0.0778 -0.4078
  425MOL0     H58623   6.316  11.086  -0.514 -0.2054 -1.2376  0.8666
  425MOL0     H58624   6.337  11.356  -0.390  0.5717  0.6234 -0.3441
  425MOL0     H58625   6.335  11.335  -0.562 -1.5207  2.1534  1.2102
  425MOL0     H58626   6.561  11.221  -0.566  2.3203  1.9508  1.3713
  425MOL0     H58627   6.549  11.177  -0.403  2.1366  1.7633  1.6011
  425MOL0     H58628   6.535  11.407  -0.329  1.6781 -1.1365  1.7551
  425MOL0     H58629   6.585  11.462  -0.483 -0.6518  0.2297  0.7798
  425MOL0     H58630   5.830  10.734  -0.154  0.3671 -0.0254 -0.9294
  425MOL0     H58631   5.696  10.552  -0.077 -1.9515 -0.6076 -0.0680
  425MOL0     H58632   5.170  10.499  -0.040 -2.0155 -0.8673 -0.6048
  425MOL0     H58633   4.988  10.365  -0.007 -0.9951 -0.3199  1.2140
  425MOL0     H58634   3.254  10.052   0.515 -0.8968  1.3961 -0.0427
  425MOL0     H58635   3.057  10.141   0.647  2.3961  1.4742  0.2415
  425MOL0     H58636   2.757  10.105   0.997  0.3995  0.3474 -1.0459
  425MOL0     H58637   2.574  10.144   1.110  1.4507  1.5562 -1.8454
  425MOL0     H58638   2.383  10.107   1.238  0.8445 -1.2855  0.2947
  425MOL0     H58639   2.314  10.213   1.116 -1.6337 -0.7766 -1.1736
  425MOL0     H58640   2.173  10.004   1.287  4.0979  1.2162  3.0431
  425MOL0     H58641   2.097  10.108   1.150  0.4846  1.0251 -0.7974
  425MOL0     H58642   2.226  10.217   1.399 -0.2638  1.9687 -0.6241
  425MOL0     H58643   2.146  10.310   1.274  3.4796  0.2605  0.9403
  425MOL0     H58644   2.015  10.101   1.472 -2.1716  1.1036  1.0220
  425MOL0     H58645   1.926  10.163   1.333  0.5480 -0.8473 -1.1759
  425MOL0     H58646   1.867  10.450   1.618  1.1937 -1.8191  1.0884
  425MOL0     H58647   2.373   9.832   0.868  0.3174 -0.5168 -1.1436
  425MOL0     H58648   2.643   9.680   0.756 -1.0637 -0.3061  1.8198
  425MOL0     H58649   2.479   9.726   0.695 -0.6043 -0.3113  0.6322
  425MOL0     H58650   2.622   9.795   0.626 -0.3677 -2.1739 -0.9736
  426MOL0     O58651   1.030   6.360   6.974 -0.1206 -0.6924  0.3450
  426MOL0     C58652   1.027   6.310   6.863  0.1789 -0.7123  0.6972
  426MOL0     O58653   1.106   6.353   6.764 -0.0934  0.8562 -0.8904
  426MOL0     C58654   1.208   6.434   6.801 -0.4864 -0.5613 -0.4871
  426MOL0     C58655   1.214   6.572   6.788 -0.3449 -0.0908  0.5184
  426MOL0     C58656   1.310   6.657   6.847  0.1718  1.0956 -0.1370
  426MOL0     C58657   1.411   6.595   6.914 -0.9394  0.1712 -0.0494
  426MOL0     O58658   1.509   6.672   6.971  0.0057  0.5671  0.7232
  426MOL0     C58659   1.463   6.786   7.043 -0.5530 -0.5863  0.2344
  426MOL0     C58660   1.574   6.857   7.135  0.3213 -0.5509 -0.1635
  426MOL0     C58661   1.692   6.913   7.052 -0.8456  0.7782  0.0131
  426MOL0     C58662   1.682   7.068   7.038 -0.3939  0.7805 -1.5149
  426MOL0     C58663   1.802   7.130   6.976  0.8900 -0.1583  0.0191
  426MOL0     C58664   1.810   7.110   6.822 -0.0624  0.1195 -0.1980
  426MOL0     C58665   1.925   7.197   6.760  0.0759  1.1654 -0.6498
  426MOL0     C58666   2.064   7.144   6.796  0.0424 -0.8463  0.0878
  426MOL0     N58667   2.127   7.058   6.698  0.4225 -0.4573 -0.6504
  426MOL0     C58668   2.239   7.099   6.629  0.7931 -0.0371 -0.0184
  426MOL0     C58669   2.255   7.017   6.521  0.4068 -0.1166  0.2233
  426MOL0     C58670   2.348   7.026   6.395  0.2192  0.0379  0.4582
  426MOL0     C58671   2.331   7.131   6.283  0.3730 -0.1135 -0.1673
  426MOL0     C58672   2.439   7.128   6.173  0.4976 -0.3022 -0.3787
  426MOL0     C58673   2.410   7.213   6.046  0.4444 -0.6055 -0.4506
  426MOL0     O58674   2.487   7.144   5.949  0.8964  0.5146 -0.2968
  426MOL0     C58675   2.620   7.137   5.965 -0.2687 -0.7780 -0.5802
  426MOL0     C58676   2.685   7.018   5.925  0.7887 -0.1298  0.3931
  426MOL0     C58677   2.816   6.991   5.950 -0.9632  0.5185  0.1664
  426MOL0     C58678   2.863   6.858   5.885  0.6605  0.4791  0.5704
  426MOL0     C58679   2.898   7.087   6.010 -0.1025 -0.1406  0.2509
  426MOL0     C58680   3.051   7.073   6.031 -0.3616 -0.1641  0.2408
  426MOL0     O58681   3.125   7.184   6.032  0.2040 -0.2245 -0.8864
  426MOL0     C58682   3.261   7.195   6.015  0.0896  0.4600 -0.1372
  426MOL0     C58683   3.339   7.134   5.911  0.7552 -0.1401 -0.0681
  426MOL0     C58684   3.479   7.161   5.896  0.1651 -0.2057  0.1174
  426MOL0     C58685   3.542   7.234   5.994  0.8183  0.8971 -0.8630
  426MOL0     O58686   3.671   7.264   6.000  0.0918 -0.0212  0.0065
  426MOL0     C58687   3.759   7.224   5.892 -0.0668  0.2777 -0.3394
  426MOL0     C58688   3.883   7.317   5.880 -0.0703  0.0403  0.3928
  426MOL0     C58689   3.842   7.466   5.868 -0.3131  0.0400  0.1409
  426MOL0     C58690   3.948   7.559   5.810 -0.1053 -0.9547  0.1624
  426MOL0     C58691   4.078   7.534   5.892  0.8629 -0.1554  0.0799
  426MOL0     C58692   4.202   7.593   5.826 -0.7814  0.5944 -0.6912
  426MOL0     C58693   4.309   7.651   5.921 -0.6668  0.1025 -0.3744
  426MOL0     C58694   4.442   7.663   5.853 -0.7534 -0.0355 -0.9598
  426MOL0    Cl58695   4.556   7.522   5.850 -0.3032 -0.2438 -0.2656
  426MOL0     C58696   3.472   7.297   6.097 -0.0798  0.8635 -0.2503
  426MOL0     C58697   3.335   7.275   6.105  0.0171 -0.0519  0.1332
  426MOL0     O58698   3.099   6.955   6.036  0.2623 -0.9345 -1.0010
  426MOL0     C58699   2.841   7.211   6.037  0.0129  0.5000 -0.2799
  426MOL0     C58700   2.706   7.233   6.020  0.1476 -0.5559 -0.7466
  426MOL0     N58701   2.149   6.924   6.522  0.6255 -0.6238  0.5468
  426MOL0     N58702   2.070   6.960   6.624  0.9526  0.3211  0.1411
  426MOL0     C58703   1.412   6.457   6.939  0.9547 -0.0045 -0.1035
  426MOL0     C58704   1.318   6.379   6.873 -0.9600 -0.4522  0.2325
  426MOL0     C58705   0.925   6.202   6.840  0.1441 -0.4909 -0.2984
  426MOL0     C58706   0.829   6.171   6.944  0.3893 -0.3441  0.5658
  426MOL0     C58707   0.734   6.072   6.937 -0.0180 -0.2749  0.9872
  426MOL0     C58708   0.714   6.000   6.815  0.1305  0.1409 -0.1771
  426MOL0     O58709   0.614   5.902   6.804  0.0956  0.0396  0.0365
  426MOL0     C58710   0.643   5.760   6.826 -0.1420 -0.4169 -0.0495
  426MOL0     C58711   0.523   5.675   6.809  0.1929 -0.0683 -0.3259
  426MOL0     C58712   0.459   5.662   6.953 -0.4857 -0.5354 -0.4362
  426MOL0     C58713   0.315   5.610   6.965  0.0267 -0.6337 -0.2438
  426MOL0     C58714   0.287   5.478   6.914  0.0708 -0.2165 -0.1560
  426MOL0     C58715   0.232   5.379   6.865 -0.0042  0.1613  0.6068
  426MOL0     C58716   0.805   6.022   6.714  0.9088  0.4779 -0.2142
  426MOL0     C58717   0.907   6.123   6.724  0.3164  0.2774 -0.0689
  426MOL0     C58718   0.997   6.132   6.602  0.0800 -0.1474  0.2712
  426MOL0     H58719   1.127   6.607   6.733 -0.7724 -2.5611 -0.5493
  426MOL0     H58720   1.301   6.764   6.838  0.3336  0.9940 -1.8959
  426MOL0     H58721   1.380   6.746   7.103 -0.0840 -1.1512  0.5262
  426MOL0     H58722   1.425   6.860   6.972 -0.2127 -0.0125  0.6427
  426MOL0     H58723   1.531   6.939   7.192 -1.0078  0.5689 -2.6280
  426MOL0     H58724   1.610   6.782   7.207  0.7942  0.3053  0.5026
  426MOL0     H58725   1.787   6.891   7.103  0.0451  1.7254 -1.1835
  426MOL0     H58726   1.690   6.861   6.956 -0.6509  0.2831  0.2706
  426MOL0     H58727   1.589   7.094   6.987 -2.2467 -1.6797  0.3436
  426MOL0     H58728   1.670   7.109   7.139 -1.6052  2.0188 -2.1301
  426MOL0     H58729   1.891   7.078   7.014 -0.1239 -1.6285  0.4707
  426MOL0     H58730   1.813   7.234   7.008 -1.9166 -0.3117  1.7980
  426MOL0     H58731   1.819   7.003   6.804  2.0123  0.0784  0.7804
  426MOL0     H58732   1.719   7.143   6.772 -0.1242 -0.0980 -0.2306
  426MOL0     H58733   1.909   7.302   6.786 -0.1620  1.0256 -0.2155
  426MOL0     H58734   1.924   7.190   6.651  1.2960 -0.9563 -0.5844
  426MOL0     H58735   2.136   7.227   6.798 -0.9782  0.0884 -0.6022
  426MOL0     H58736   2.060   7.109   6.899 -1.3799  0.8305  0.6627
  426MOL0     H58737   2.303   7.179   6.664  0.3943  0.2209  0.1266
  426MOL0     H58738   2.328   6.930   6.348  3.2583 -0.0193 -0.9600
  426MOL0     H58739   2.452   7.014   6.428  0.4052  0.2089 -0.0651
  426MOL0     H58740   2.238   7.107   6.232  1.4240 -4.6507 -0.3640
  426MOL0     H58741   2.331   7.231   6.328  0.8267 -0.4064  0.4938
  426MOL0     H58742   2.535   7.157   6.218 -0.3964  0.1999  1.2916
  426MOL0     H58743   2.442   7.024   6.139 -1.1154 -1.0311  1.4808
  426MOL0     H58744   2.304   7.209   6.021  0.0040  0.0569  1.1738
  426MOL0     H58745   2.448   7.316   6.051  1.7689 -1.1294  2.7136
  426MOL0     H58746   2.618   6.945   5.881 -2.4500  2.8328  0.0358
  426MOL0     H58747   2.802   6.846   5.796  1.0122 -2.2287  0.5903
  426MOL0     H58748   2.842   6.773   5.952 -0.0870 -0.6027 -0.9850
  426MOL0     H58749   2.971   6.858   5.866  0.6507 -1.9226  0.1418
  426MOL0     H58750   3.291   7.075   5.834 -2.8535 -0.2542  2.0220
  426MOL0     H58751   3.519   7.118   5.804  2.0080  2.7775 -0.6270
  426MOL0     H58752   3.784   7.118   5.903  2.1074  0.8450  0.8018
  426MOL0     H58753   3.703   7.230   5.799  0.7034 -1.5247 -0.9717
  426MOL0     H58754   3.937   7.299   5.973 -1.2229 -0.9482  0.8881
  426MOL0     H58755   3.938   7.292   5.789  0.6234  2.3286  0.1030
  426MOL0     H58756   3.809   7.494   5.969 -0.8895 -1.3400  0.3656
  426MOL0     H58757   3.748   7.469   5.812  0.9277  1.6784 -1.9890
  426MOL0     H58758   3.923   7.664   5.830  0.9122 -1.3444  4.1732
  426MOL0     H58759   3.972   7.532   5.706 -1.6034 -0.9135 -0.2117
  426MOL0     H58760   4.054   7.564   5.995  2.8275 -1.3592  0.9538
  426MOL0     H58761   4.086   7.425   5.894 -0.5065 -0.3891 -2.5510
  426MOL0     H58762   4.172   7.673   5.758 -2.2929  0.5413 -0.1306
  426MOL0     H58763   4.249   7.516   5.764 -1.4071  0.9029 -1.5783
  426MOL0     H58764   4.318   7.590   6.011  1.6406 -0.4769 -0.9394
  426MOL0     H58765   4.273   7.751   5.948  2.7656  0.9937  1.3521
  426MOL0     H58766   4.500   7.739   5.906 -0.4707 -0.4379 -0.6796
  426MOL0     H58767   4.437   7.703   5.752 -2.0392  0.7813 -0.5938
  426MOL0     H58768   3.524   7.350   6.176  1.3082  2.2852 -2.0314
  426MOL0     H58769   3.272   7.309   6.187  0.5362 -0.3845  0.6805
  426MOL0     H58770   2.902   7.291   6.078 -1.0972  0.9186  0.6141
  426MOL0     H58771   2.664   7.326   6.057 -1.9015 -1.3053 -1.0544
  426MOL0     H58772   1.481   6.420   7.014 -1.1443  0.6482  2.2619
  426MOL0     H58773   1.324   6.271   6.883 -0.6825 -0.4379  0.2294
  426MOL0     H58774   0.840   6.230   7.035  0.9096  3.7020 -1.8703
  426MOL0     H58775   0.674   6.061   7.027  0.5382 -1.5104  1.2327
  426MOL0     H58776   0.716   5.732   6.750  2.0088  0.3865  1.6495
  426MOL0     H58777   0.688   5.744   6.924 -1.4719 -2.2510  0.3165
  426MOL0     H58778   0.563   5.577   6.781 -0.5097 -0.5605  0.3728
  426MOL0     H58779   0.452   5.708   6.733 -0.3182 -1.3018 -0.4029
  426MOL0     H58780   0.513   5.599   7.024  0.7628 -0.8890 -1.6444
  426MOL0     H58781   0.459   5.759   7.002  0.3585 -0.5312 -0.4377
  426MOL0     H58782   0.252   5.688   6.921  0.7526  0.1320  0.0495
  426MOL0     H58783   0.282   5.600   7.068 -0.9914 -0.2962 -0.5174
  426MOL0     H58784   0.190   5.294   6.815  1.1684 -0.5298  0.7639
  426MOL0     H58785   0.799   5.965   6.622 -3.1823  0.2672 -0.0043
  426MOL0     H58786   0.963   6.077   6.513  0.9627  0.8363 -0.7066
  426MOL0     H58787   1.015   6.234   6.566  2.7742 -0.3041  1.0308
  426MOL0     H58788   1.098   6.103   6.630  0.7931  1.8166 -0.1497
  427MOL0     O58789   6.152   8.150  10.955  0.2536 -0.7621  0.2967
  427MOL0     C58790   6.118   8.167  11.074 -0.9262 -0.4955 -0.3645
  427MOL0     O58791   6.191   8.239  11.166 -0.0506  0.2455 -0.0151
  427MOL0     C58792   6.321   8.277  11.156  0.6933 -0.8102 -0.3155
  427MOL0     C58793   6.365   8.376  11.236 -0.1582 -0.8347 -1.5408
  427MOL0     C58794   6.495   8.417  11.234  0.8819  0.7669  0.1242
  427MOL0     C58795   6.590   8.364  11.151 -0.7059  0.0509  0.8111
  427MOL0     O58796   6.717   8.421  11.169 -0.2782 -1.0812  0.0084
  427MOL0     C58797   6.820   8.406  11.072  0.1164 -0.2067  0.6567
  427MOL0     C58798   6.922   8.520  11.054 -0.9502 -1.4704  0.2786
  427MOL0     C58799   6.990   8.476  10.928 -0.1930 -0.6293  0.9310
  427MOL0     C58800   7.078   8.586  10.864  0.0829  0.4556  0.1350
  427MOL0     C58801   7.133   8.551  10.722 -0.1241 -0.2870  0.0606
  427MOL0     C58802   7.247   8.640  10.703 -0.8115 -0.4014 -0.7374
  427MOL0     C58803   7.311   8.626  10.565  0.9266  0.6445  0.8196
  427MOL0     C58804   7.213   8.644  10.437  0.3410 -0.5454 -0.9243
  427MOL0     N58805   7.284   8.690  10.315 -0.3825 -0.0231  0.2246
  427MOL0     C58806   7.250   8.668  10.186 -0.4353  0.4231 -0.0264
  427MOL0     C58807   7.320   8.755  10.117 -0.1876  0.7327 -0.6512
  427MOL0     C58808   7.307   8.763   9.970  0.2715  0.3161  0.1482
  427MOL0     C58809   7.287   8.625   9.896 -0.3800  0.1525  0.3081
  427MOL0     C58810   7.373   8.616   9.773  0.0857  0.5585 -1.0745
  427MOL0     C58811   7.337   8.491   9.687 -0.2346 -0.4888 -0.7141
  427MOL0     O58812   7.339   8.365   9.762  0.2813 -0.0153 -0.7381
  427MOL0     C58813   7.464   8.310   9.753  1.1665 -0.0296 -0.4897
  427MOL0     C58814   7.498   8.241   9.641 -0.0390 -0.8010  0.4367
  427MOL0     C58815   7.635   8.215   9.620  0.1760  0.4302  0.0960
  427MOL0     C58816   7.674   8.146   9.501 -0.4976 -0.1247 -0.8557
  427MOL0     C58817   7.731   8.252   9.722 -0.8819  0.6866 -0.0524
  427MOL0     C58818   7.881   8.249   9.711  0.6040 -0.8299 -0.2349
  427MOL0     O58819   7.954   8.230   9.830 -0.5596  0.4986 -0.2739
  427MOL0     C58820   8.090   8.227   9.818  0.3672  0.1250 -0.0705
  427MOL0     C58821   8.149   8.133   9.736  0.2602  0.6090 -1.0604
  427MOL0     C58822   8.291   8.115   9.721 -0.0632 -0.0433  0.8696
  427MOL0     C58823   8.375   8.218   9.770  0.3259 -0.1064 -0.1037
  427MOL0     O58824   8.513   8.216   9.766 -0.0000 -0.7915 -1.1205
  427MOL0     C58825   8.563   8.080   9.768 -0.6924 -0.2895 -0.0565
  427MOL0     C58826   8.716   8.082   9.743  0.7221  0.1300 -0.1636
  427MOL0     C58827   8.777   7.945   9.765  0.2972  0.3785  0.4592
  427MOL0     C58828   8.932   7.937   9.765 -0.0517 -0.2776 -0.2125
  427MOL0     C58829   8.991   7.797   9.759 -0.4493  0.1128 -0.2622
  427MOL0     C58830   9.143   7.806   9.763  0.7153 -0.7278 -0.0230
  427MOL0     C58831   9.208   7.754   9.894 -1.0758 -0.1125 -0.5688
  427MOL0     C58832   9.359   7.774   9.878 -0.5692  0.7452  0.4455
  427MOL0    Cl58833   9.452   7.686  10.005  0.3267  0.1509 -0.1216
  427MOL0     C58834   8.314   8.329   9.839  0.3800  1.2217 -0.0363
  427MOL0     C58835   8.177   8.321   9.871  0.3322 -0.4284 -0.0719
  427MOL0     O58836   7.928   8.254   9.594  0.6917 -0.3117  0.0173
  427MOL0     C58837   7.679   8.309   9.844  0.0241  0.0019  0.1082
  427MOL0     C58838   7.546   8.336   9.858  0.0925 -0.2462  0.1958
  427MOL0     N58839   7.396   8.834  10.194 -0.7821 -0.2504 -0.4747
  427MOL0     N58840   7.368   8.802  10.319  0.6450  0.5440  0.3208
  427MOL0     C58841   6.553   8.255  11.073 -0.3200 -0.6163  0.1361
  427MOL0     C58842   6.421   8.211  11.081 -0.6519  0.8091 -0.3363
  427MOL0     C58843   5.979   8.130  11.108  0.5616  0.6266 -0.7119
  427MOL0     C58844   5.905   8.216  11.193  0.6866 -0.0166  0.3066
  427MOL0     C58845   5.768   8.188  11.219 -0.2256 -0.7117  0.7049
  427MOL0     C58846   5.700   8.086  11.156  0.9440  0.5716  1.1774
  427MOL0     O58847   5.565   8.080  11.165 -0.8284 -0.2497  0.1819
  427MOL0     C58848   5.492   8.192  11.220  0.7572  0.2013  0.4277
  427MOL0     C58849   5.352   8.133  11.225 -0.2997  0.4984 -0.5472
  427MOL0     C58850   5.238   8.218  11.282 -0.5513  0.4634 -0.2211
  427MOL0     C58851   5.177   8.319  11.187 -0.8215  0.2583  0.2392
  427MOL0     C58852   5.079   8.401  11.254 -0.4334 -0.0353 -0.7529
  427MOL0     C58853   5.004   8.484  11.300  0.1100 -1.3039 -0.5364
  427MOL0     C58854   5.769   8.005  11.064 -0.0444  0.0049 -0.4429
  427MOL0     C58855   5.910   8.021  11.047 -0.3102 -0.5212 -0.1924
  427MOL0     C58856   5.989   7.905  10.986 -0.6211  0.6142 -0.1733
  427MOL0     H58857   6.295   8.427  11.301 -1.0353 -2.3937 -1.2049
  427MOL0     H58858   6.528   8.495  11.302 -1.8715  0.7983  1.5283
  427MOL0     H58859   6.773   8.405  10.973  1.6057  0.5177 -0.0936
  427MOL0     H58860   6.876   8.315  11.094  1.4696 -0.3592 -2.8032
  427MOL0     H58861   6.881   8.621  11.046  0.7646 -0.4965  2.5008
  427MOL0     H58862   6.988   8.523  11.142  0.1353  2.0515 -0.4891
  427MOL0     H58863   7.046   8.384  10.946  0.0342 -0.6724  0.0830
  427MOL0     H58864   6.916   8.451  10.851  0.1242 -3.4240  1.4402
  427MOL0     H58865   7.021   8.679  10.863 -1.7610 -0.6105  0.3820
  427MOL0     H58866   7.155   8.598  10.940 -1.2517 -2.6915  2.2124
  427MOL0     H58867   7.059   8.573  10.645 -0.5435  1.4884  0.9090
  427MOL0     H58868   7.181   8.453  10.729  1.1754  0.4112  1.7598
  427MOL0     H58869   7.209   8.742  10.715 -1.4378 -0.9408  2.9525
  427MOL0     H58870   7.322   8.626  10.782 -1.7789  1.8630  0.6595
  427MOL0     H58871   7.348   8.523  10.559 -0.0015  0.3907 -1.7905
  427MOL0     H58872   7.399   8.691  10.560  0.4922  1.1534 -0.9251
  427MOL0     H58873   7.160   8.549  10.428 -2.1458  0.6575  0.0169
  427MOL0     H58874   7.146   8.724  10.470  0.4503 -1.6918  2.4097
  427MOL0     H58875   7.175   8.597  10.155 -2.4206  1.9130  1.1344
  427MOL0     H58876   7.399   8.816   9.942  2.1102 -1.9500  1.5025
  427MOL0     H58877   7.222   8.827   9.943 -0.7991 -0.1990  2.1685
  427MOL0     H58878   7.323   8.552   9.968  0.6133  1.1267  0.8294
  427MOL0     H58879   7.179   8.607   9.886 -0.1928 -0.5376 -0.5533
  427MOL0     H58880   7.360   8.708   9.716 -3.2273  0.5789 -0.4904
  427MOL0     H58881   7.477   8.601   9.805 -0.0134  2.3033  0.1841
  427MOL0     H58882   7.235   8.500   9.649 -0.7041 -1.6204  0.1846
  427MOL0     H58883   7.399   8.486   9.597 -1.1012  1.6098 -1.4840
  427MOL0     H58884   7.426   8.225   9.561 -2.8095  0.2500  2.5834
  427MOL0     H58885   7.718   8.050   9.527 -1.9268 -0.4786  0.3790
  427MOL0     H58886   7.746   8.207   9.445 -3.2409  3.3881 -0.8893
  427MOL0     H58887   7.591   8.124   9.433 -2.1131 -0.4657  1.1362
  427MOL0     H58888   8.091   8.049   9.699  1.0388  0.0363 -1.0052
  427MOL0     H58889   8.330   8.033   9.662 -1.1421  1.3925 -2.0219
  427MOL0     H58890   8.548   8.032   9.865  0.2145  3.1823  1.9483
  427MOL0     H58891   8.521   8.012   9.693 -0.1315 -0.3345 -0.3340
  427MOL0     H58892   8.743   8.121   9.644 -0.2101  2.1396  0.3139
  427MOL0     H58893   8.760   8.151   9.816 -0.7626 -0.2134  1.1367
  427MOL0     H58894   8.748   7.883   9.680  2.3558 -0.0838  0.0337
  427MOL0     H58895   8.740   7.900   9.858 -0.8604  1.8424  0.7437
  427MOL0     H58896   8.981   7.987   9.849 -1.7060 -1.5816  1.6257
  427MOL0     H58897   8.963   7.987   9.673 -2.3909 -0.3555 -1.1061
  427MOL0     H58898   8.965   7.735   9.846  3.0316 -0.4253  0.5242
  427MOL0     H58899   8.958   7.726   9.681 -1.6307 -0.3810  0.6442
  427MOL0     H58900   9.176   7.908   9.741 -3.2455  0.4604 -1.1868
  427MOL0     H58901   9.171   7.749   9.674 -0.3391 -0.1523 -0.7441
  427MOL0     H58902   9.190   7.647   9.903 -1.9072  0.1353  1.2118
  427MOL0     H58903   9.170   7.816   9.976  0.0934  0.6795 -0.5991
  427MOL0     H58904   9.376   7.881   9.892 -0.3241  0.3686  3.6063
  427MOL0     H58905   9.375   7.741   9.774 -1.5845  2.1629 -0.1926
  427MOL0     H58906   8.379   8.400   9.890  3.4231  0.4702 -2.5423
  427MOL0     H58907   8.131   8.392   9.939  1.0875 -0.4296  0.4520
  427MOL0     H58908   7.739   8.342   9.929  0.5024  3.3835 -1.3924
  427MOL0     H58909   7.498   8.380   9.945  0.9100  1.9127 -0.4092
  427MOL0     H58910   6.617   8.208  10.999 -1.6778  0.0043 -1.4878
  427MOL0     H58911   6.394   8.127  11.017 -2.3601 -0.2540  1.6577
  427MOL0     H58912   5.953   8.302  11.238 -0.7274  1.5891 -1.0877
  427MOL0     H58913   5.710   8.262  11.273 -0.2650 -1.1296  1.2437
  427MOL0     H58914   5.515   8.210  11.325  0.7023  0.1799  0.4442
  427MOL0     H58915   5.498   8.284  11.161  0.9402 -0.0435  0.0600
  427MOL0     H58916   5.349   8.037  11.278 -0.9638  1.8748  2.0599
  427MOL0     H58917   5.313   8.109  11.125 -2.7888 -0.0753  0.5009
  427MOL0     H58918   5.159   8.152  11.319 -0.4818  1.9849  2.9320
  427MOL0     H58919   5.257   8.273  11.374 -1.0949  0.4730 -0.1133
  427MOL0     H58920   5.123   8.262  11.110 -0.9728  2.6760 -1.5576
  427MOL0     H58921   5.255   8.377  11.137  0.5823  0.4402  2.5128
  427MOL0     H58922   4.954   8.568  11.345  1.3026 -0.5013 -0.6628
  427MOL0     H58923   5.707   7.928  11.019 -0.6002 -0.2839  0.7877
  427MOL0     H58924   6.071   7.934  10.919 -1.6461 -0.5127 -1.9966
  427MOL0     H58925   6.032   7.851  11.070  1.3184  0.5365 -1.1731
  427MOL0     H58926   5.916   7.843  10.933 -1.8135  2.9408 -1.4389
  428MOL0     O58927   7.978   3.579   1.325 -0.0173 -1.0647  0.3577
  428MOL0     C58928   7.896   3.662   1.365  0.3272  0.8025 -0.1313
  428MOL0     O58929   7.925   3.773   1.436 -0.0475 -0.4433  0.3862
  428MOL0     C58930   8.051   3.777   1.479 -0.2318 -0.0117  0.1719
  428MOL0     C58931   8.076   3.751   1.613 -0.7001  0.1336  0.0839
  428MOL0     C58932   8.215   3.763   1.653  0.3363  0.3993 -0.4623
  428MOL0     C58933   8.322   3.803   1.571 -1.0108  0.2026  0.1387
  428MOL0     O58934   8.448   3.811   1.637  0.2569 -0.4337  0.1111
  428MOL0     C58935   8.558   3.855   1.561 -0.1497 -0.1729 -0.8323
  428MOL0     C58936   8.682   3.859   1.664  0.2899  0.6084 -0.0068
  428MOL0     C58937   8.752   3.732   1.672  1.0906  0.2949  0.6624
  428MOL0     C58938   8.851   3.728   1.782  0.3328  0.4476 -1.1660
  428MOL0     C58939   8.942   3.606   1.762 -0.3077 -0.3184 -0.2531
  428MOL0     C58940   8.887   3.463   1.746  0.5873 -0.5630  0.2263
  428MOL0     C58941   8.767   3.416   1.833  0.7132 -0.7262  1.0380
  428MOL0     C58942   8.742   3.272   1.813  0.3474 -0.2730 -0.2003
  428MOL0     N58943   8.862   3.184   1.846  1.1211  0.1329  1.1047
  428MOL0     C58944   8.919   3.170   1.963 -0.0213  0.0700  0.0066
  428MOL0     C58945   9.018   3.080   1.957 -0.2175  0.3108 -0.0406
  428MOL0     C58946   9.091   3.005   2.066 -0.1550 -0.4664  0.6056
  428MOL0     C58947   9.239   3.061   2.072 -0.0208  0.2030  0.4589
  428MOL0     C58948   9.336   2.956   2.130 -0.5819 -0.1654 -0.7231
  428MOL0     C58949   9.475   3.029   2.147  0.8089  0.0852  0.2667
  428MOL0     O58950   9.560   2.940   2.209  0.0686 -0.9792 -0.6464
  428MOL0     C58951   9.683   2.998   2.258 -0.5072  0.4313  0.1194
  428MOL0     C58952   9.719   3.133   2.273  0.2905  0.0776 -0.0690
  428MOL0     C58953   9.846   3.170   2.320  0.0674  0.0588  0.2599
  428MOL0     C58954   9.874   3.317   2.328  0.5794  0.6466  0.3719
  428MOL0     C58955   9.946   3.075   2.350  0.1433  0.4150  0.9826
  428MOL0     C58956  10.073   3.113   2.410 -0.7463  0.2861 -0.0036
  428MOL0     O58957  10.088   3.078   2.539  0.6767 -0.1553  0.0085
  428MOL0     C58958  10.194   3.147   2.604  0.2072  0.4765 -0.2403
  428MOL0     C58959  10.315   3.084   2.631 -0.8155  0.4581 -1.0738
  428MOL0     C58960  10.430   3.158   2.672  0.5470 -0.0842  0.2593
  428MOL0     C58961  10.414   3.298   2.705  0.5327 -0.0207  0.4029
  428MOL0     O58962  10.516   3.376   2.755 -0.4809  0.7370 -0.2112
  428MOL0     C58963  10.653   3.359   2.711  0.3978  0.1198 -0.1871
  428MOL0     C58964  10.672   3.396   2.560 -0.1523  0.4809  0.5059
  428MOL0     C58965  10.821   3.417   2.514 -0.2545  0.1005  0.1473
  428MOL0     C58966  10.913   3.289   2.519  0.5566 -0.1323 -0.4449
  428MOL0     C58967  11.058   3.332   2.497  1.1061 -0.3458 -0.5573
  428MOL0     C58968  11.138   3.197   2.485 -0.1115  0.0957 -0.0921
  428MOL0     C58969  11.282   3.228   2.451 -0.3449 -1.3729  1.3788
  428MOL0     C58970  11.381   3.124   2.493 -0.3557  0.3997 -0.2635
  428MOL0    Cl58971  11.345   2.972   2.409  0.1321 -0.3194  0.3423
  428MOL0     C58972  10.284   3.354   2.687 -0.1647 -0.4674 -0.1779
  428MOL0     C58973  10.176   3.286   2.631  0.0118 -0.3006  0.0266
  428MOL0     O58974  10.148   3.176   2.342  0.1157 -0.8091 -0.2802
  428MOL0     C58975   9.913   2.943   2.341  0.3336 -0.2146  0.9311
  428MOL0     C58976   9.784   2.903   2.295 -0.0754 -0.5191  1.0555
  428MOL0     N58977   9.024   3.041   1.825 -0.4328 -0.4539  0.0990
  428MOL0     N58978   8.929   3.103   1.754 -0.7041 -0.2159 -0.3309
  428MOL0     C58979   8.292   3.824   1.435 -0.1237 -0.0486  0.2807
  428MOL0     C58980   8.154   3.827   1.396 -0.1607 -0.1279 -0.5764
  428MOL0     C58981   7.758   3.657   1.317 -0.1755  0.1418  0.5085
  428MOL0     C58982   7.724   3.596   1.194  0.4733 -0.6132 -0.4493
  428MOL0     C58983   7.597   3.607   1.131  0.3277 -0.2241 -0.2574
  428MOL0     C58984   7.487   3.646   1.203  0.1605 -0.3344  0.0516
  428MOL0     O58985   7.365   3.652   1.142  0.0129 -0.1064 -0.2380
  428MOL0     C58986   7.247   3.653   1.225 -0.2575  0.6671  0.7064
  428MOL0     C58987   7.132   3.585   1.153  0.4680  0.0857 -0.2623
  428MOL0     C58988   7.005   3.558   1.234 -0.9644  0.4764  0.1711
  428MOL0     C58989   6.913   3.677   1.223  0.1345 -0.6112 -0.0840
  428MOL0     C58990   6.958   3.792   1.305  0.3126  0.5799 -0.5565
  428MOL0     C58991   6.988   3.887   1.370  0.4948  0.3738 -0.7152
  428MOL0     C58992   7.511   3.702   1.335 -0.2261 -0.2552  0.4462
  428MOL0     C58993   7.648   3.718   1.388 -0.4465 -0.1563 -0.3797
  428MOL0     C58994   7.673   3.807   1.508  0.2519 -0.3692 -0.7221
  428MOL0     H58995   7.996   3.729   1.684  0.3152  2.4967  2.1366
  428MOL0     H58996   8.238   3.743   1.757  2.7525  1.0531 -0.8181
  428MOL0     H58997   8.543   3.956   1.520 -2.1633  0.3957  1.0874
  428MOL0     H58998   8.571   3.791   1.474 -0.7918 -0.5074 -0.6935
  428MOL0     H58999   8.762   3.922   1.624  1.4596 -1.5827 -1.3366
  428MOL0     H59000   8.649   3.893   1.762 -0.6159 -0.1760 -0.0209
  428MOL0     H59001   8.685   3.648   1.689  0.2026  0.7045 -0.7123
  428MOL0     H59002   8.809   3.728   1.579 -0.4948  0.8280 -0.3632
  428MOL0     H59003   8.912   3.819   1.786  1.0628 -0.0831  1.2462
  428MOL0     H59004   8.811   3.721   1.883  0.5459 -0.5379 -1.1391
  428MOL0     H59005   8.993   3.607   1.859 -0.9290 -0.6507  0.0822
  428MOL0     H59006   9.015   3.622   1.682 -1.5970 -0.0789 -1.4145
  428MOL0     H59007   8.872   3.447   1.638  0.8188  1.1035 -0.0851
  428MOL0     H59008   8.972   3.397   1.769  2.2491  0.2714 -2.8258
  428MOL0     H59009   8.677   3.471   1.804  0.5686 -2.1083 -1.4331
  428MOL0     H59010   8.785   3.436   1.939  0.4464 -1.3400  1.2073
  428MOL0     H59011   8.660   3.235   1.876  1.8455 -1.4907  1.1066
  428MOL0     H59012   8.706   3.267   1.710 -2.5350  2.8114  0.4379
  428MOL0     H59013   8.886   3.211   2.058 -0.9888  1.3324 -0.8501
  428MOL0     H59014   9.092   2.897   2.048  3.8613 -0.6758  1.0880
  428MOL0     H59015   9.037   3.029   2.158 -1.4829  2.5996 -0.8215
  428MOL0     H59016   9.259   3.071   1.965 -1.6285  2.2921  0.2794
  428MOL0     H59017   9.253   3.155   2.126 -1.3748  1.0965 -0.6365
  428MOL0     H59018   9.311   2.916   2.229  0.4760 -0.0699 -0.4083
  428MOL0     H59019   9.348   2.867   2.067  0.0262 -1.6654  1.3717
  428MOL0     H59020   9.512   3.065   2.050  1.1687  1.4175  0.8694
  428MOL0     H59021   9.458   3.117   2.209 -2.1522 -2.0602  2.7910
  428MOL0     H59022   9.652   3.215   2.252  0.1188  0.2028  0.8827
  428MOL0     H59023   9.790   3.372   2.373  1.2336  1.6852  0.3453
  428MOL0     H59024   9.883   3.362   2.230 -0.1818 -3.1197 -1.6328
  428MOL0     H59025   9.967   3.326   2.384  2.4857 -1.9396 -2.0822
  428MOL0     H59026  10.332   2.980   2.606 -2.2666 -0.5431  1.6798
  428MOL0     H59027  10.528   3.118   2.694  1.2125  1.8111  0.9869
  428MOL0     H59028  10.718   3.423   2.771  1.4133 -2.6376  1.8540
  428MOL0     H59029  10.691   3.256   2.717 -0.1711 -0.1107 -0.4218
  428MOL0     H59030  10.627   3.315   2.502  0.0201 -0.2857  1.4229
  428MOL0     H59031  10.622   3.490   2.535 -0.3380  0.1052 -0.5690
  428MOL0     H59032  10.860   3.497   2.577 -2.1740 -0.4512  2.1522
  428MOL0     H59033  10.825   3.462   2.414 -0.8458  1.0863  0.5600
  428MOL0     H59034  10.879   3.217   2.445  1.8347 -1.5945  0.3354
  428MOL0     H59035  10.902   3.245   2.619 -3.8457  0.1261 -0.6292
  428MOL0     H59036  11.064   3.400   2.412 -1.2227  1.7653  0.8025
  428MOL0     H59037  11.096   3.391   2.581  2.0660 -2.0823  0.2922
  428MOL0     H59038  11.089   3.141   2.405 -2.1641  1.6267  0.0318
  428MOL0     H59039  11.130   3.141   2.579 -2.9397  1.5558  0.6568
  428MOL0     H59040  11.315   3.319   2.502  3.1194 -1.0939 -1.0032
  428MOL0     H59041  11.296   3.250   2.345  0.5330  1.7726  2.0493
  428MOL0     H59042  11.363   3.109   2.600 -0.9406 -2.0091 -0.6518
  428MOL0     H59043  11.487   3.147   2.481  0.2771 -2.5675 -1.1079
  428MOL0     H59044  10.280   3.461   2.709  1.6634 -0.0178 -1.7004
  428MOL0     H59045  10.088   3.340   2.597  1.5082  2.8592  0.7486
  428MOL0     H59046   9.999   2.877   2.349 -0.0169 -1.0698 -1.6891
  428MOL0     H59047   9.767   2.797   2.278  2.6493 -0.5248 -2.8933
  428MOL0     H59048   8.378   3.841   1.371 -1.3788 -1.5398 -1.9025
  428MOL0     H59049   8.126   3.849   1.293  2.4247 -1.4063 -1.6456
  428MOL0     H59050   7.809   3.565   1.134 -0.7646 -2.0979 -1.5017
  428MOL0     H59051   7.579   3.549   1.041  1.7082 -0.8310 -0.1603
  428MOL0     H59052   7.274   3.605   1.319  2.9506 -0.9540 -0.8800
  428MOL0     H59053   7.214   3.755   1.246 -2.3038  0.0911  0.5485
  428MOL0     H59054   7.177   3.489   1.125  0.1547  0.9115 -4.1143
  428MOL0     H59055   7.104   3.639   1.062  2.2630  1.8194  0.1444
  428MOL0     H59056   6.950   3.472   1.194 -2.9248  0.4238  2.6866
  428MOL0     H59057   7.031   3.529   1.336 -2.6323 -1.3919  0.1171
  428MOL0     H59058   6.819   3.637   1.263  0.7092 -0.6004  1.3420
  428MOL0     H59059   6.894   3.712   1.121 -1.3011  0.3965  0.5089
  428MOL0     H59060   7.036   3.965   1.426 -0.3953 -1.5835  3.1512
  428MOL0     H59061   7.431   3.731   1.403 -1.2158 -0.8604 -0.4261
  428MOL0     H59062   7.732   3.895   1.481  0.8063 -0.4948  0.0441
  428MOL0     H59063   7.578   3.841   1.552 -0.6042 -1.1854 -1.8717
  428MOL0     H59064   7.733   3.753   1.583  2.5366  1.6684 -0.9630
  429MOL0     O59065   2.522   5.645  11.360  0.3078 -0.1585 -0.1636
  429MOL0     C59066   2.441   5.736  11.397  0.2008 -0.3629 -0.6366
  429MOL0     O59067   2.472   5.829  11.495  0.1554 -0.3636  0.3490
  429MOL0     C59068   2.588   5.814  11.569  0.4631 -0.2026  0.7485
  429MOL0     C59069   2.714   5.852  11.503 -0.0616 -0.8567 -0.2267
  429MOL0     C59070   2.829   5.835  11.577  0.3612 -0.3329  0.4921
  429MOL0     C59071   2.831   5.775  11.699 -0.1579  0.1569 -0.2452
  429MOL0     O59072   2.945   5.758  11.779  0.2299 -0.4461  0.3939
  429MOL0     C59073   3.071   5.795  11.727 -0.0468  0.2284 -0.3096
  429MOL0     C59074   3.175   5.806  11.837 -0.1386  0.9793  0.0032
  429MOL0     C59075   3.260   5.680  11.854 -0.9451  0.5504  0.6341
  429MOL0     C59076   3.371   5.725  11.959  0.5096 -0.2979  0.2574
  429MOL0     C59077   3.463   5.606  11.980 -0.5789 -0.6714  0.2697
  429MOL0     C59078   3.536   5.617  12.114 -0.2710  0.3237  1.0308
  429MOL0     C59079   3.654   5.522  12.119  0.0395  0.2378 -0.1434
  429MOL0     C59080   3.704   5.508  12.261  0.3747  0.5737 -0.0969
  429MOL0     N59081   3.829   5.436  12.251 -0.7479  0.1537 -0.1430
  429MOL0     C59082   3.845   5.321  12.320 -0.9143  0.3522  0.0188
  429MOL0     C59083   3.979   5.291  12.304 -0.0695  0.1831 -0.0476
  429MOL0     C59084   4.033   5.178  12.384  0.0802 -0.1878 -0.2076
  429MOL0     C59085   4.166   5.142  12.332 -1.1573  0.5100 -0.2608
  429MOL0     C59086   4.222   5.041  12.429 -0.4924 -0.1350 -0.2066
  429MOL0     C59087   4.356   4.993  12.381  0.5728  0.6004 -0.4180
  429MOL0     O59088   4.401   4.878  12.462 -0.1573 -0.2262  0.0624
  429MOL0     C59089   4.527   4.873  12.520  0.5819  0.1962 -0.2854
  429MOL0     C59090   4.545   4.801  12.638  0.3259 -1.0122 -0.1494
  429MOL0     C59091   4.673   4.774  12.700 -0.1997 -0.5364  0.2286
  429MOL0     C59092   4.675   4.703  12.833  0.2778  1.1308 -0.3015
  429MOL0     C59093   4.785   4.833  12.632 -0.2021  0.0048  0.0214
  429MOL0     C59094   4.931   4.821  12.682 -0.0938 -0.4542 -1.0700
  429MOL0     O59095   5.019   4.816  12.582  0.8144 -0.0689  0.1197
  429MOL0     C59096   5.149   4.816  12.614  0.5604  0.5647 -0.0841
  429MOL0     C59097   5.233   4.707  12.585 -0.1506 -0.0181 -0.2296
  429MOL0     C59098   5.369   4.705  12.630  0.3683  0.9386 -0.5338
  429MOL0     C59099   5.419   4.807  12.708  0.3784  0.0153  0.5849
  429MOL0     O59100   5.550   4.791  12.747 -0.5987 -0.2238  0.8989
  429MOL0     C59101   5.600   4.883  12.844  0.0940 -0.0062 -0.1748
  429MOL0     C59102   5.716   4.823  12.908 -0.7475 -0.5792 -0.9652
  429MOL0     C59103   5.832   4.787  12.816 -0.1799 -0.8057 -0.5002
  429MOL0     C59104   5.938   4.703  12.885 -0.1179 -0.1392  0.1759
  429MOL0     C59105   6.054   4.656  12.797 -0.6463  0.3044  0.7620
  429MOL0     C59106   6.114   4.769  12.717 -0.2479  0.0551 -0.0784
  429MOL0     C59107   6.263   4.774  12.684  0.8048  0.1751  0.2522
  429MOL0     C59108   6.340   4.802  12.813  0.0522 -0.4326  0.3196
  429MOL0    Cl59109   6.298   4.950  12.898 -0.4541  0.1236  0.2280
  429MOL0     C59110   5.342   4.921  12.728 -0.0235  0.5545 -0.4289
  429MOL0     C59111   5.208   4.926  12.676 -0.5397 -0.0404 -0.5120
  429MOL0     O59112   4.953   4.799  12.801 -0.0544  0.7494  0.1135
  429MOL0     C59113   4.766   4.898  12.508  2.2094 -0.1382  0.8431
  429MOL0     C59114   4.638   4.922  12.449  0.4582  0.4487 -0.2550
  429MOL0     N59115   4.038   5.387  12.222 -0.0560 -1.1875 -0.0037
  429MOL0     N59116   3.952   5.480  12.196 -0.6549 -0.1501 -0.8767
  429MOL0     C59117   2.710   5.740  11.759 -0.7525 -0.0992  0.3940
  429MOL0     C59118   2.586   5.762  11.697 -0.2276 -0.0954 -0.0600
  429MOL0     C59119   2.311   5.732  11.325 -0.3280 -0.1423  1.0993
  429MOL0     C59120   2.307   5.664  11.202 -0.4418  0.2068  0.8504
  429MOL0     C59121   2.204   5.691  11.106 -0.6512  1.6873 -1.1413
  429MOL0     C59122   2.102   5.770  11.134 -0.0274  0.0751 -0.9013
  429MOL0     O59123   2.015   5.785  11.034 -0.1226  0.0518 -0.0134
  429MOL0     C59124   1.880   5.750  11.051 -0.0502 -0.1084  0.5791
  429MOL0     C59125   1.846   5.661  10.933 -0.3029  0.7477 -0.5372
  429MOL0     C59126   1.815   5.731  10.805 -0.2631 -0.3112 -0.2638
  429MOL0     C59127   1.932   5.806  10.744  0.5173 -0.5776 -0.1300
  429MOL0     C59128   2.041   5.713  10.722 -0.0073  0.3159  0.7374
  429MOL0     C59129   2.138   5.632  10.718  0.2508  0.1922  0.0752
  429MOL0     C59130   2.087   5.815  11.264  0.0500  0.4202  0.3786
  429MOL0     C59131   2.190   5.793  11.365 -0.0961  0.1458 -0.4768
  429MOL0     C59132   2.160   5.851  11.502  0.3472  0.4311  0.0454
  429MOL0     H59133   2.715   5.902  11.407  1.4323  1.9193  1.1409
  429MOL0     H59134   2.927   5.852  11.533  0.5863  1.6960  1.6764
  429MOL0     H59135   3.061   5.899  11.693  2.1219  0.6613  0.2440
  429MOL0     H59136   3.104   5.733  11.643 -2.3659 -1.0900 -0.3552
  429MOL0     H59137   3.244   5.888  11.813  2.9158 -1.6858 -1.1397
  429MOL0     H59138   3.119   5.830  11.927 -0.5429  0.9004 -0.2248
  429MOL0     H59139   3.202   5.596  11.892  1.1945 -0.9354  0.7899
  429MOL0     H59140   3.300   5.655  11.755 -3.5920  0.5393 -0.5129
  429MOL0     H59141   3.425   5.815  11.929  2.0846 -1.2259  0.1916
  429MOL0     H59142   3.319   5.739  12.054 -1.9342 -2.1442 -0.6968
  429MOL0     H59143   3.532   5.598  11.896 -0.9975 -0.6140 -0.0829
  429MOL0     H59144   3.402   5.515  11.974 -4.7933  1.9536 -1.2718
  429MOL0     H59145   3.560   5.723  12.124 -3.0353  1.0584  0.5785
  429MOL0     H59146   3.462   5.595  12.191 -2.2363  1.3955 -0.4586
  429MOL0     H59147   3.737   5.562  12.060 -0.9866  2.0722 -0.4022
  429MOL0     H59148   3.628   5.423  12.080  2.2361  0.0404 -1.2628
  429MOL0     H59149   3.720   5.607  12.302 -3.3864  1.5874 -0.7038
  429MOL0     H59150   3.630   5.463  12.328 -0.2718  3.8684  1.5747
  429MOL0     H59151   3.771   5.262  12.373 -0.2170 -0.9516 -0.4332
  429MOL0     H59152   3.965   5.092  12.387  0.7395 -0.6955  2.4293
  429MOL0     H59153   4.057   5.220  12.482  0.3636  3.3255 -1.6454
  429MOL0     H59154   4.153   5.102  12.230 -0.8748 -0.8104  0.2068
  429MOL0     H59155   4.239   5.222  12.323 -0.1095 -0.4165 -0.1678
  429MOL0     H59156   4.245   5.078  12.529  3.9718  1.1191 -1.4729
  429MOL0     H59157   4.154   4.955  12.430 -1.8509  0.9153  0.7100
  429MOL0     H59158   4.345   4.961  12.277 -2.1399  1.6203 -0.5112
  429MOL0     H59159   4.421   5.081  12.385  0.2130  0.8989 -1.0737
  429MOL0     H59160   4.462   4.762  12.696  0.6858 -2.8665 -0.8158
  429MOL0     H59161   4.724   4.763  12.910 -0.0971  2.1330 -0.8250
  429MOL0     H59162   4.726   4.606  12.836 -1.5362  0.0636 -1.4964
  429MOL0     H59163   4.573   4.692  12.870 -0.6390  3.2139 -1.9679
  429MOL0     H59164   5.193   4.615  12.542  1.8358 -0.1982 -1.8019
  429MOL0     H59165   5.443   4.626  12.619  1.4805  1.8767 -0.0038
  429MOL0     H59166   5.624   4.982  12.805 -0.8998 -0.3947 -1.8577
  429MOL0     H59167   5.532   4.906  12.927  1.5460  0.1635  1.0226
  429MOL0     H59168   5.751   4.896  12.982 -1.5678 -0.0757 -1.0641
  429MOL0     H59169   5.690   4.730  12.960 -2.9212 -0.3487 -1.5579
  429MOL0     H59170   5.879   4.871  12.764 -2.1805  0.6751 -0.0246
  429MOL0     H59171   5.784   4.740  12.729  0.7517 -0.2583 -1.3349
  429MOL0     H59172   5.898   4.618  12.942  0.9875 -0.7722  0.0421
  429MOL0     H59173   5.988   4.767  12.958  0.6858  0.5503 -0.9357
  429MOL0     H59174   6.125   4.605  12.863  0.1966 -1.5471 -1.4417
  429MOL0     H59175   6.025   4.576  12.728  0.1147 -0.0087  0.7975
  429MOL0     H59176   6.099   4.863  12.770  1.3206  0.5563 -0.4556
  429MOL0     H59177   6.072   4.778  12.616  1.9450  0.2694 -1.0430
  429MOL0     H59178   6.285   4.852  12.611 -3.0999 -0.3526 -1.7868
  429MOL0     H59179   6.297   4.679  12.644  0.3881  0.0032  0.2954
  429MOL0     H59180   6.446   4.806  12.786 -0.2951 -0.2176 -1.1425
  429MOL0     H59181   6.331   4.711  12.872  1.1217 -0.3056  0.7162
  429MOL0     H59182   5.371   5.004  12.791  1.2595  0.4620 -0.8755
  429MOL0     H59183   5.140   5.005  12.706  1.0863  1.3100 -0.2440
  429MOL0     H59184   4.848   4.942  12.453 -0.4305 -0.3434 -3.7213
  429MOL0     H59185   4.631   4.959  12.347  1.7336  0.4575 -0.3442
  429MOL0     H59186   2.718   5.697  11.859 -3.5372 -3.0126 -0.4808
  429MOL0     H59187   2.489   5.753  11.744  0.0217  1.7757  0.9410
  429MOL0     H59188   2.385   5.598  11.164 -0.8906 -0.8657  1.7349
  429MOL0     H59189   2.229   5.644  11.011  1.2183  2.0925 -0.8728
  429MOL0     H59190   1.864   5.697  11.145  3.6293 -1.5807  0.5383
  429MOL0     H59191   1.818   5.840  11.044  1.0864  0.7364  0.9441
  429MOL0     H59192   1.753   5.613  10.965  0.6769 -0.9252 -0.0971
  429MOL0     H59193   1.926   5.589  10.913 -1.3104 -0.7857  0.7395
  429MOL0     H59194   1.777   5.664  10.727  2.2440  0.9050 -2.7053
  429MOL0     H59195   1.731   5.797  10.830 -2.4013 -2.7786 -0.4875
  429MOL0     H59196   1.966   5.894  10.800  0.7447  0.0690 -1.2672
  429MOL0     H59197   1.894   5.835  10.646  1.7099 -2.4283 -1.2175
  429MOL0     H59198   2.216   5.559  10.708 -2.1029 -3.1254  3.1371
  429MOL0     H59199   1.996   5.863  11.297 -1.7937 -2.6982  0.2154
  429MOL0     H59200   2.177   5.957  11.482  0.8859  0.4815  0.7363
  429MOL0     H59201   2.056   5.835  11.531 -0.1399  2.2296 -0.5755
  429MOL0     H59202   2.230   5.823  11.581  1.5447  2.7380 -0.0975
  430MOL0     O59203   3.040   8.300   4.681  0.7348 -0.1095 -0.5002
  430MOL0     C59204   2.995   8.379   4.764  0.5585 -1.0210  0.5466
  430MOL0     O59205   3.042   8.401   4.898  0.6678  0.8331  0.3052
  430MOL0     C59206   3.154   8.339   4.946 -0.3578  0.0231 -0.1022
  430MOL0     C59207   3.247   8.400   5.027  0.0479 -1.0598  0.4095
  430MOL0     C59208   3.376   8.344   5.058 -0.7564  0.3278  0.5957
  430MOL0     C59209   3.412   8.220   4.997 -0.6245 -0.9954 -0.3959
  430MOL0     O59210   3.541   8.174   5.001  0.5982  0.9539 -0.2890
  430MOL0     C59211   3.604   8.216   4.883  0.3151 -0.0611  0.3615
  430MOL0     C59212   3.755   8.186   4.905 -0.1219  0.4276 -0.6299
  430MOL0     C59213   3.831   8.160   4.780  0.9342 -0.2420 -0.9566
  430MOL0     C59214   3.980   8.163   4.816  0.2562  0.0012  0.6266
  430MOL0     C59215   4.083   8.184   4.707 -0.7197  0.5819  0.5098
  430MOL0     C59216   4.215   8.227   4.769  0.0006  0.0730  0.3731
  430MOL0     C59217   4.333   8.206   4.667  0.7213  0.4021  0.6895
  430MOL0     C59218   4.478   8.244   4.711  0.5448  0.4626  0.2797
  430MOL0     N59219   4.525   8.180   4.838  0.3334  0.1757 -0.0877
  430MOL0     C59220   4.551   8.046   4.844 -0.6270  0.8631 -1.3471
  430MOL0     C59221   4.600   8.028   4.971  0.0807 -0.2507  0.4821
  430MOL0     C59222   4.648   7.898   5.022 -0.1005  0.1604  0.5094
  430MOL0     C59223   4.801   7.906   5.029 -0.1191 -0.1914 -0.6481
  430MOL0     C59224   4.853   7.770   5.084  0.1972 -0.9231  0.0259
  430MOL0     C59225   5.002   7.781   5.129 -0.1144  0.3004 -1.1805
  430MOL0     O59226   5.028   7.653   5.187  0.0663 -0.6661  0.5099
  430MOL0     C59227   5.145   7.635   5.268  0.3246 -0.4498 -0.6382
  430MOL0     C59228   5.159   7.526   5.349  0.6658 -0.4705  0.3547
  430MOL0     C59229   5.282   7.500   5.425  0.4446  0.1894 -0.0492
  430MOL0     C59230   5.273   7.363   5.503  0.5217 -0.3257 -0.0424
  430MOL0     C59231   5.391   7.591   5.419 -0.7605  0.4584  0.2937
  430MOL0     C59232   5.518   7.574   5.491  0.8699 -0.6070  0.2821
  430MOL0     O59233   5.584   7.684   5.530 -0.2808 -0.2589  0.1736
  430MOL0     C59234   5.705   7.671   5.596 -0.7039  0.5064 -0.0680
  430MOL0     C59235   5.715   7.723   5.725  0.1900 -0.1908  0.1501
  430MOL0     C59236   5.837   7.741   5.787 -1.1626  0.2638 -0.1310
  430MOL0     C59237   5.952   7.696   5.717  0.0558  0.2834 -0.7917
  430MOL0     O59238   6.077   7.731   5.764 -0.1309 -0.8099  0.1536
  430MOL0     C59239   6.131   7.640   5.853  0.7892  1.0562  0.7665
  430MOL0     C59240   6.270   7.698   5.885  0.6191 -0.1872  0.4524
  430MOL0     C59241   6.355   7.626   5.992 -0.3167 -0.9329 -0.4129
  430MOL0     C59242   6.507   7.664   5.996  0.2948  1.1102  0.3496
  430MOL0     C59243   6.567   7.581   6.112  0.6366 -0.1319  0.1056
  430MOL0     C59244   6.709   7.628   6.134 -0.2119  0.4531  0.1646
  430MOL0     C59245   6.783   7.548   6.240  1.0273  0.6057  0.3612
  430MOL0     C59246   6.931   7.527   6.214  0.2521  0.6257 -0.1086
  430MOL0    Cl59247   7.003   7.437   6.348  0.2405 -0.1672  0.2072
  430MOL0     C59248   5.943   7.631   5.594  0.5624  0.2725  0.2167
  430MOL0     C59249   5.816   7.619   5.531  0.2224 -0.7772  0.6051
  430MOL0     O59250   5.561   7.460   5.506  0.2013  0.1794 -0.1174
  430MOL0     C59251   5.375   7.693   5.332 -0.7372  0.0632  0.2641
  430MOL0     C59252   5.247   7.720   5.267 -0.5053  0.4992  0.4824
  430MOL0     N59253   4.603   8.154   5.039  0.3918 -0.2139 -0.3292
  430MOL0     N59254   4.555   8.245   4.955 -0.8523  0.3563 -0.5939
  430MOL0     C59255   3.323   8.155   4.925  0.4566  0.4161 -0.5982
  430MOL0     C59256   3.193   8.208   4.898  0.2301  0.4941  0.3011
  430MOL0     C59257   2.876   8.459   4.712  0.3876  0.1133  0.1118
  430MOL0     C59258   2.894   8.592   4.730  0.8203 -0.2792  0.3673
  430MOL0     C59259   2.791   8.679   4.693  0.2453 -0.4117  0.3075
  430MOL0     C59260   2.683   8.635   4.628  0.3621  0.1891  0.8085
  430MOL0     O59261   2.596   8.736   4.589 -0.4296  0.5535 -0.0812
  430MOL0     C59262   2.479   8.699   4.508 -0.4824 -0.7497 -0.2669
  430MOL0     C59263   2.355   8.678   4.603  0.3492 -0.1398  0.0772
  430MOL0     C59264   2.305   8.796   4.688 -0.1254 -0.2840  0.2908
  430MOL0     C59265   2.166   8.784   4.746 -0.8102 -0.1188  0.1688
  430MOL0     C59266   2.072   8.817   4.639  0.0807 -0.3357  0.0342
  430MOL0     C59267   1.987   8.851   4.564 -0.0270 -0.0436 -0.0516
  430MOL0     C59268   2.667   8.497   4.606  0.4326  0.0987 -0.0808
  430MOL0     C59269   2.765   8.408   4.651  0.0099  0.7229  0.6745
  430MOL0     C59270   2.750   8.260   4.639 -0.6558  0.5170  0.1964
  430MOL0     H59271   3.204   8.487   5.075 -1.0947 -1.2495 -0.2219
  430MOL0     H59272   3.448   8.402   5.115  1.4993 -0.4317 -1.3292
  430MOL0     H59273   3.594   8.324   4.873 -1.5644 -0.2380 -0.0500
  430MOL0     H59274   3.563   8.171   4.792  1.0410  2.6565 -1.4357
  430MOL0     H59275   3.807   8.268   4.955  0.4820 -1.8108  2.7882
  430MOL0     H59276   3.777   8.094   4.962  1.8817  0.2705 -1.5839
  430MOL0     H59277   3.810   8.059   4.742  1.7933 -0.3346 -1.2087
  430MOL0     H59278   3.790   8.231   4.708 -1.1261  0.5500  0.8802
  430MOL0     H59279   3.987   8.248   4.884  1.6078  1.7967 -1.6087
  430MOL0     H59280   4.005   8.065   4.856  1.0933 -0.1459 -0.2307
  430MOL0     H59281   4.054   8.247   4.623 -2.9520  0.1653  0.9058
  430MOL0     H59282   4.111   8.084   4.671  0.7187  0.8827  0.7569
  430MOL0     H59283   4.214   8.333   4.795  0.5025  0.7337 -2.0749
  430MOL0     H59284   4.239   8.154   4.846  1.6390  0.2078  0.0198
  430MOL0     H59285   4.304   8.280   4.592  0.5712  1.7448  2.0412
  430MOL0     H59286   4.325   8.102   4.632  0.8260 -0.0499  1.9516
  430MOL0     H59287   4.556   8.240   4.634 -1.8042 -0.1526 -2.2584
  430MOL0     H59288   4.465   8.350   4.734 -0.2707  0.3084  0.5751
  430MOL0     H59289   4.544   7.965   4.772 -2.5389  0.1150 -0.4004
  430MOL0     H59290   4.609   7.815   4.964  2.3052 -1.1936  0.6855
  430MOL0     H59291   4.610   7.885   5.124 -1.5009 -1.1371 -0.1430
  430MOL0     H59292   4.834   7.930   4.927  2.3984  0.3601  0.2375
  430MOL0     H59293   4.835   7.993   5.087  3.5521  0.6932 -3.7077
  430MOL0     H59294   4.797   7.726   5.167 -1.8728 -0.9517 -1.3268
  430MOL0     H59295   4.836   7.698   5.004 -2.3242 -1.4482  0.9391
  430MOL0     H59296   5.072   7.801   5.047  3.4070 -0.0760  1.5172
  430MOL0     H59297   5.015   7.861   5.201 -1.4736 -1.0698  0.6855
  430MOL0     H59298   5.083   7.448   5.349  1.1853 -0.9943  1.1655
  430MOL0     H59299   5.171   7.325   5.490  1.8738 -4.1550 -0.8724
  430MOL0     H59300   5.303   7.378   5.607 -1.7122  1.0400  0.4709
  430MOL0     H59301   5.337   7.296   5.445  4.2425  1.7633  1.3395
  430MOL0     H59302   5.620   7.748   5.771  1.1025  1.2307  1.3621
  430MOL0     H59303   5.837   7.776   5.890 -0.7731  1.1674 -0.4263
  430MOL0     H59304   6.072   7.638   5.944  0.9030 -1.1830  0.8502
  430MOL0     H59305   6.135   7.540   5.810  0.8024  0.8261  1.3028
  430MOL0     H59306   6.327   7.692   5.792 -3.6863  1.4745 -2.6151
  430MOL0     H59307   6.253   7.803   5.911  0.2108 -0.1844  0.1801
  430MOL0     H59308   6.343   7.519   5.975 -0.2374 -1.0013 -0.0475
  430MOL0     H59309   6.332   7.654   6.095  3.2607  0.9855  0.0360
  430MOL0     H59310   6.517   7.772   6.011 -1.3185  1.3057  0.2129
  430MOL0     H59311   6.549   7.645   5.897  0.2987 -1.2803  0.7509
  430MOL0     H59312   6.509   7.579   6.205  0.4604 -0.8104 -0.0186
  430MOL0     H59313   6.558   7.477   6.079 -1.3427  0.5183 -1.6320
  430MOL0     H59314   6.712   7.735   6.156  2.4265  1.2316 -3.1311
  430MOL0     H59315   6.773   7.630   6.045  0.1148 -1.5451  0.3093
  430MOL0     H59316   6.739   7.448   6.245  2.3825 -0.1835 -2.1266
  430MOL0     H59317   6.776   7.600   6.336 -0.0368 -1.5907  1.5425
  430MOL0     H59318   6.981   7.622   6.196  4.1783 -1.3648 -0.8070
  430MOL0     H59319   6.943   7.470   6.121 -1.5127 -0.5036  0.2940
  430MOL0     H59320   6.033   7.598   5.545  0.9076 -0.7127  1.4676
  430MOL0     H59321   5.803   7.568   5.436  0.8017  0.2951 -0.0751
  430MOL0     H59322   5.454   7.766   5.317 -1.5873  1.2248  1.2712
  430MOL0     H59323   5.236   7.811   5.209 -3.2485  0.5881  0.9904
  430MOL0     H59324   3.358   8.073   4.864  1.2129  0.2339  0.0702
  430MOL0     H59325   3.129   8.156   4.827  1.7918  0.0128 -0.8055
  430MOL0     H59326   2.989   8.637   4.757  0.5611  1.4894 -1.4161
  430MOL0     H59327   2.802   8.784   4.719  0.3874 -0.4844  0.5453
  430MOL0     H59328   2.446   8.786   4.450 -2.9144 -0.8502  0.8523
  430MOL0     H59329   2.491   8.620   4.433  1.8149  1.2280 -2.1368
  430MOL0     H59330   2.372   8.584   4.657  1.2167 -0.6815 -1.0999
  430MOL0     H59331   2.271   8.654   4.538  0.4762  2.4206 -1.1688
  430MOL0     H59332   2.376   8.813   4.769 -0.8710 -0.8816  1.0784
  430MOL0     H59333   2.311   8.886   4.626 -2.2151 -0.9087 -0.9111
  430MOL0     H59334   2.148   8.855   4.827  1.3798  2.9757 -1.7909
  430MOL0     H59335   2.167   8.680   4.780 -0.4335  0.2889  1.4572
  430MOL0     H59336   1.915   8.865   4.486  0.4092 -1.6559 -0.7834
  430MOL0     H59337   2.567   8.475   4.572 -0.3571  2.1401  0.7580
  430MOL0     H59338   2.839   8.215   4.595 -0.0623  0.2741  1.5839
  430MOL0     H59339   2.718   8.215   4.734 -0.4429  0.5946  0.3046
  430MOL0     H59340   2.665   8.243   4.572  1.3591 -2.5963 -1.8463
  431MOL0     O59341   8.197  10.164   1.489 -0.1747 -0.8159  0.8552
  431MOL0     C59342   8.247  10.153   1.605 -0.0082  0.4799  0.2077
  431MOL0     O59343   8.366  10.095   1.632  0.2713 -0.6266 -0.1213
  431MOL0     C59344   8.455  10.067   1.529  0.0909 -1.4381  0.5294
  431MOL0     C59345   8.487   9.941   1.474  0.1452 -0.3642 -0.0828
  431MOL0     C59346   8.587   9.930   1.375  0.5082  0.2795 -0.3059
  431MOL0     C59347   8.651  10.038   1.326 -0.6887 -0.7482 -0.2978
  431MOL0     O59348   8.743  10.027   1.230  0.0042 -0.9206 -0.4490
  431MOL0     C59349   8.823   9.910   1.222 -0.6247 -0.7169 -1.0606
  431MOL0     C59350   8.969   9.943   1.180 -0.0461  0.0842 -0.1372
  431MOL0     C59351   9.047  10.048   1.260  0.6937  0.1854 -0.1662
  431MOL0     C59352   9.098  10.005   1.398 -0.3027  0.5489  0.1667
  431MOL0     C59353   9.195  10.114   1.453 -0.5492 -0.6249 -0.5253
  431MOL0     C59354   9.135  10.256   1.452  0.1870  0.4339 -0.4044
  431MOL0     C59355   9.213  10.360   1.523 -0.1773 -0.6579  0.1113
  431MOL0     C59356   9.227  10.335   1.671 -0.6769 -0.6059  0.0436
  431MOL0     N59357   9.094  10.319   1.728  0.2504 -0.1255  0.3764
  431MOL0     C59358   9.034  10.192   1.755 -0.8128 -0.4214 -0.2385
  431MOL0     C59359   8.910  10.220   1.816 -0.7544 -0.1006 -0.7750
  431MOL0     C59360   8.816  10.117   1.865 -0.2388 -0.0484  0.6274
  431MOL0     C59361   8.781   9.986   1.789  0.6250 -0.2154 -0.4725
  431MOL0     C59362   8.694   9.889   1.888 -0.5387  0.1900  0.0979
  431MOL0     C59363   8.551   9.940   1.911  0.9338 -0.0628  0.2302
  431MOL0     O59364   8.481   9.847   2.006 -0.1911 -0.4278  0.1644
  431MOL0     C59365   8.347   9.867   2.016 -0.7571  0.3397 -0.3474
  431MOL0     C59366   8.296   9.816   2.131  0.3078 -0.1448 -0.6850
  431MOL0     C59367   8.155   9.817   2.167  0.5900  0.3241  0.2149
  431MOL0     C59368   8.110   9.747   2.290 -0.4373  0.1658 -0.4282
  431MOL0     C59369   8.057   9.882   2.088  0.4692 -0.8616 -0.0534
  431MOL0     C59370   7.915   9.907   2.107 -0.1216 -0.1171  0.1187
  431MOL0     O59371   7.835   9.947   2.007 -0.2747 -0.5153  0.7377
  431MOL0     C59372   7.697   9.953   2.011 -0.0082  0.3827 -0.6181
  431MOL0     C59373   7.627   9.982   1.891  0.5270  0.0383 -0.2341
  431MOL0     C59374   7.481   9.995   1.894  0.8517 -0.3285  0.2965
  431MOL0     C59375   7.405   9.953   2.005  0.5024  0.2878 -0.0341
  431MOL0     O59376   7.266   9.956   2.003 -0.5125  0.1878 -0.0634
  431MOL0     C59377   7.195  10.038   1.907  0.3813 -0.2635  0.8663
  431MOL0     C59378   7.053  10.077   1.950 -0.8682 -1.0577 -0.2836
  431MOL0     C59379   6.963   9.952   1.979 -0.0339  0.5169 -0.6982
  431MOL0     C59380   6.819   9.985   1.975 -0.5717  0.1751  0.9401
  431MOL0     C59381   6.782  10.050   2.113 -0.6567 -0.4168 -0.2756
  431MOL0     C59382   6.625  10.082   2.127 -0.3811  0.7274  0.5245
  431MOL0     C59383   6.590  10.148   2.267  0.9882 -0.4403 -0.0436
  431MOL0     C59384   6.453  10.103   2.310  0.2510  0.3120  0.0440
  431MOL0    Cl59385   6.374  10.208   2.440 -0.0226 -0.4104  0.4890
  431MOL0     C59386   7.475   9.919   2.123  0.0866  0.2195  0.0958
  431MOL0     C59387   7.619   9.917   2.123 -0.1228 -0.4864 -0.2388
  431MOL0     O59388   7.879   9.900   2.224  1.0561 -0.1770 -0.1706
  431MOL0     C59389   8.110   9.924   1.959 -0.4879 -0.5257 -0.4258
  431MOL0     C59390   8.249   9.920   1.923 -0.8747  1.1855 -0.6473
  431MOL0     N59391   8.900  10.363   1.818 -0.3300 -0.7614 -0.7457
  431MOL0     N59392   9.006  10.418   1.768 -0.2949  0.2516 -0.4538
  431MOL0     C59393   8.615  10.163   1.372  0.6320 -0.9570  0.5321
  431MOL0     C59394   8.525  10.174   1.476  0.5083  0.3815  0.3326
  431MOL0     C59395   8.164  10.208   1.714 -0.1613 -0.2540  0.6186
  431MOL0     C59396   8.024  10.194   1.708 -0.5697 -0.3286  0.5632
  431MOL0     C59397   7.941  10.239   1.805  0.9087  0.3640 -0.1407
  431MOL0     C59398   7.990  10.305   1.921 -0.8993  0.3653 -0.3241
  431MOL0     O59399   7.910  10.361   2.019 -0.1196  0.5486 -0.4466
  431MOL0     C59400   7.772  10.318   2.027 -1.0441 -0.3863 -0.4005
  431MOL0     C59401   7.690  10.400   2.139 -0.9454 -0.1590  0.1687
  431MOL0     C59402   7.548  10.350   2.145 -0.4335  0.0514 -0.0468
  431MOL0     C59403   7.447  10.455   2.207  0.2042 -0.4341 -0.1915
  431MOL0     C59404   7.318  10.389   2.232 -0.2405 -0.5945 -0.3686
  431MOL0     C59405   7.220  10.319   2.266 -0.0092  0.1686 -0.3477
  431MOL0     C59406   8.123  10.312   1.929 -0.0362 -0.0530  0.2628
  431MOL0     C59407   8.216  10.269   1.829  1.4469 -0.2373 -0.4769
  431MOL0     C59408   8.354  10.303   1.843 -0.2025 -0.8110 -0.6750
  431MOL0     H59409   8.439   9.850   1.508  1.4223 -1.4631 -1.1401
  431MOL0     H59410   8.607   9.829   1.339  4.5411  1.7112 -2.7360
  431MOL0     H59411   8.786   9.835   1.151  2.0774  0.1779 -3.6089
  431MOL0     H59412   8.829   9.872   1.324 -0.9063 -0.3314 -0.8951
  431MOL0     H59413   9.023   9.848   1.188  0.0949  0.1426 -0.4055
  431MOL0     H59414   8.967   9.963   1.073 -1.7384 -0.0560 -0.1616
  431MOL0     H59415   9.128  10.080   1.194 -0.6271 -0.2327 -2.0932
  431MOL0     H59416   8.976  10.129   1.281  1.0718  0.2836  0.7941
  431MOL0     H59417   9.016  10.001   1.470 -0.4373 -1.0976 -0.0493
  431MOL0     H59418   9.160   9.916   1.386  0.9999  1.4407  0.0833
  431MOL0     H59419   9.284  10.118   1.389  0.1139  1.0894  0.4180
  431MOL0     H59420   9.227  10.087   1.554  2.5059  1.3264 -0.8343
  431MOL0     H59421   9.121  10.280   1.346 -0.8942 -2.8897 -1.1644
  431MOL0     H59422   9.033  10.240   1.488 -0.1046 -0.8497 -1.6919
  431MOL0     H59423   9.160  10.454   1.506  3.1686  1.0916 -1.7729
  431MOL0     H59424   9.312  10.365   1.476 -0.9475  2.1812 -1.3778
  431MOL0     H59425   9.289  10.248   1.695 -1.4094 -0.6234  2.0834
  431MOL0     H59426   9.282  10.422   1.708 -1.3365  0.1462 -0.7132
  431MOL0     H59427   9.082  10.096   1.743 -1.3037 -0.5509 -1.2367
  431MOL0     H59428   8.724  10.165   1.900 -1.0536 -0.6757 -0.5844
  431MOL0     H59429   8.857  10.093   1.963  0.1906  3.9532  1.5745
  431MOL0     H59430   8.731  10.013   1.695  4.1447  0.6608 -2.2612
  431MOL0     H59431   8.879   9.942   1.773  2.1188  1.9285  2.0283
  431MOL0     H59432   8.683   9.794   1.836  0.9244  0.0528  0.0046
  431MOL0     H59433   8.734   9.872   1.989 -2.0094 -1.5409  0.4424
  431MOL0     H59434   8.546  10.046   1.937 -1.4288  0.0010 -0.2684
  431MOL0     H59435   8.494   9.930   1.818 -1.5060  1.5394  1.4483
  431MOL0     H59436   8.357   9.764   2.204  2.7376 -1.6762 -3.5787
  431MOL0     H59437   8.186   9.686   2.339  0.7713  2.9531  1.4393
  431MOL0     H59438   8.015   9.696   2.268 -0.6808  1.9110 -4.1214
  431MOL0     H59439   8.086   9.826   2.362 -0.1961  1.8585 -2.1326
  431MOL0     H59440   7.681  10.020   1.805  1.3804  1.0068  0.7037
  431MOL0     H59441   7.429  10.020   1.802  1.5744 -2.3223 -0.7082
  431MOL0     H59442   7.250  10.131   1.893 -1.5512  0.6234 -1.5465
  431MOL0     H59443   7.198   9.989   1.809  1.4963 -2.0621  1.7377
  431MOL0     H59444   7.053  10.157   2.024  0.7150 -0.6364 -0.7179
  431MOL0     H59445   7.002  10.127   1.867 -1.3888  0.4128  0.8906
  431MOL0     H59446   6.997   9.904   2.072  2.8549  2.9568 -0.3682
  431MOL0     H59447   6.976   9.872   1.905  1.5561  1.0941 -1.0656
  431MOL0     H59448   6.767   9.893   1.948 -0.0454  1.1098 -4.5238
  431MOL0     H59449   6.792  10.053   1.893 -1.6444  0.3997  1.4517
  431MOL0     H59450   6.808   9.982   2.195  1.2847 -0.2467 -0.7186
  431MOL0     H59451   6.855  10.129   2.130  1.2983 -2.4490  1.4063
  431MOL0     H59452   6.560  10.000   2.095 -2.9852  2.8584 -0.0187
  431MOL0     H59453   6.594  10.151   2.048  3.0620  1.0222 -0.7343
  431MOL0     H59454   6.582  10.257   2.268 -2.3801 -0.5700  1.2443
  431MOL0     H59455   6.662  10.120   2.344  1.0483 -0.0902  0.0253
  431MOL0     H59456   6.448  10.002   2.352 -1.7508  0.6522  0.7229
  431MOL0     H59457   6.393  10.090   2.219  1.3707 -0.0295 -0.6673
  431MOL0     H59458   7.422   9.891   2.213 -0.0200 -1.8197 -0.5406
  431MOL0     H59459   7.639   9.870   2.219 -2.0836  1.4058  1.1861
  431MOL0     H59460   8.040   9.977   1.894  0.3247  1.2741  0.0910
  431MOL0     H59461   8.290   9.954   1.828  1.1865  0.3910 -0.0808
  431MOL0     H59462   8.671  10.248   1.334  0.3368  0.1122  2.3874
  431MOL0     H59463   8.505  10.264   1.535 -0.3839  1.0356 -0.9178
  431MOL0     H59464   7.986  10.143   1.620 -0.4289 -1.8608  1.3576
  431MOL0     H59465   7.835  10.235   1.782  1.0642  0.7092 -0.9661
  431MOL0     H59466   7.724  10.328   1.929 -0.0431 -0.8206 -0.9511
  431MOL0     H59467   7.776  10.210   2.046  2.6739 -0.7186 -2.1361
  431MOL0     H59468   7.695  10.506   2.113  2.7456 -0.6235 -1.7519
  431MOL0     H59469   7.747  10.392   2.232 -1.0533  0.0769  0.2554
  431MOL0     H59470   7.512  10.327   2.044 -2.2146 -0.8835  0.7524
  431MOL0     H59471   7.539  10.255   2.199  0.2729  0.2355  0.4001
  431MOL0     H59472   7.428  10.534   2.134 -0.4770  1.6478  2.1316
  431MOL0     H59473   7.495  10.499   2.295 -0.6430  2.5379 -1.0953
  431MOL0     H59474   7.133  10.265   2.297 -0.0869 -1.1848 -2.7146
  431MOL0     H59475   8.160  10.365   2.017 -0.0230 -0.3459  0.4350
  431MOL0     H59476   8.358  10.346   1.944 -2.0303  0.1757 -0.9827
  431MOL0     H59477   8.407  10.207   1.849  0.1293 -0.5764  0.3636
  431MOL0     H59478   8.386  10.365   1.760  1.7929  0.6017  1.0298
  432MOL0     O59479   4.270  10.602   3.139  0.3936 -0.3625  0.0552
  432MOL0     C59480   4.211  10.623   3.243 -0.0644 -0.0471  0.5223
  432MOL0     O59481   4.271  10.646   3.366  0.4591  1.1721 -0.6234
  432MOL0     C59482   4.409  10.659   3.379 -1.6885 -0.1378 -0.1776
  432MOL0     C59483   4.461  10.753   3.469  0.4401 -0.7394  0.7285
  432MOL0     C59484   4.590  10.776   3.501  0.1415  0.0283  0.0144
  432MOL0     C59485   4.689  10.705   3.425  0.5082  0.3087  0.0977
  432MOL0     O59486   4.823  10.731   3.447 -0.4742  0.3847  0.2206
  432MOL0     C59487   4.862  10.871   3.429 -0.1283  0.3738  0.7790
  432MOL0     C59488   5.009  10.879   3.404 -0.7562  0.3717 -0.0763
  432MOL0     C59489   5.055  10.889   3.258  0.3965 -0.6232  0.1911
  432MOL0     C59490   5.211  10.878   3.257  0.2658 -0.4926 -0.7586
  432MOL0     C59491   5.250  10.895   3.114  0.4000  0.2134  0.5938
  432MOL0     C59492   5.279  11.048   3.087  0.6649 -0.0482  0.2245
  432MOL0     C59493   5.337  11.073   2.952 -0.2068  0.4241 -0.6410
  432MOL0     C59494   5.400  11.212   2.938 -0.3771 -0.1837 -0.1016
  432MOL0     N59495   5.464  11.232   2.804 -0.4648 -0.1966 -0.0262
  432MOL0     C59496   5.418  11.173   2.684 -0.4687  0.5500 -1.1544
  432MOL0     C59497   5.506  11.217   2.592  0.0944 -0.2929 -0.0129
  432MOL0     C59498   5.477  11.212   2.444  0.0214  0.0717 -0.5783
  432MOL0     C59499   5.576  11.271   2.348 -0.5349  0.1885 -0.5923
  432MOL0     C59500   5.697  11.175   2.344 -0.0496  0.7945 -0.1304
  432MOL0     C59501   5.819  11.232   2.413  0.8616 -0.2177 -0.0003
  432MOL0     O59502   5.907  11.135   2.468 -0.2560 -0.0828 -0.3045
  432MOL0     C59503   6.002  11.089   2.378 -0.4797  0.1546 -0.2270
  432MOL0     C59504   5.962  11.008   2.269  0.2499  0.4258  0.4153
  432MOL0     C59505   6.050  10.949   2.180 -0.5062 -0.9948 -0.3727
  432MOL0     C59506   5.989  10.848   2.084  0.0127 -0.1074 -0.2471
  432MOL0     C59507   6.184  10.981   2.193 -0.6249  0.1058 -0.0208
  432MOL0     C59508   6.283  10.946   2.090 -0.6800  0.0496  0.1497
  432MOL0     O59509   6.406  10.972   2.130  0.5528 -0.3993 -0.0149
  432MOL0     C59510   6.503  11.002   2.024  0.0287  0.4870 -0.3256
  432MOL0     C59511   6.471  11.065   1.905 -0.0098 -0.1981  0.6354
  432MOL0     C59512   6.568  11.100   1.811  0.3661 -0.0240 -0.1301
  432MOL0     C59513   6.705  11.083   1.830 -0.1082  0.3094  0.1642
  432MOL0     O59514   6.806  11.107   1.744  0.2323 -0.6474  0.5500
  432MOL0     C59515   6.779  11.134   1.612 -0.9181 -0.9510  0.3121
  432MOL0     C59516   6.918  11.114   1.544  0.9309  0.8867 -0.6104
  432MOL0     C59517   6.902  11.130   1.396 -0.2481  0.5253  0.1588
  432MOL0     C59518   7.044  11.140   1.316  0.7963  0.9791 -0.2882
  432MOL0     C59519   7.016  11.181   1.170 -0.1366  0.7227 -0.4189
  432MOL0     C59520   6.957  11.076   1.076  0.2070 -0.2233  0.9704
  432MOL0     C59521   6.937  11.128   0.929  0.1304  0.1534 -0.6585
  432MOL0     C59522   6.843  11.026   0.863 -0.4893  0.1009 -0.5100
  432MOL0    Cl59523   6.941  10.885   0.823 -0.3264  0.2795  0.1529
  432MOL0     C59524   6.732  11.034   1.954  0.0973  0.1394  1.2068
  432MOL0     C59525   6.637  10.999   2.050 -0.4499  0.2159  0.7646
  432MOL0     O59526   6.253  10.881   1.991  0.4814  0.1116  0.5124
  432MOL0     C59527   6.226  11.047   2.304 -0.7260  0.0583 -0.3035
  432MOL0     C59528   6.139  11.097   2.400 -0.1718 -0.8114  0.0281
  432MOL0     N59529   5.605  11.296   2.661 -0.4589  0.1017  0.0927
  432MOL0     N59530   5.571  11.304   2.784  0.0901 -0.8623 -0.1150
  432MOL0     C59531   4.641  10.613   3.326  0.4515 -0.1100 -0.1181
  432MOL0     C59532   4.503  10.589   3.311 -0.0673  0.5240 -0.1568
  432MOL0     C59533   4.063  10.629   3.241  0.1491  0.0986  0.0319
  432MOL0     C59534   3.990  10.628   3.364  0.3909  0.3727  1.1820
  432MOL0     C59535   3.854  10.610   3.367 -0.0389  0.7874  0.1637
  432MOL0     C59536   3.773  10.618   3.253  0.7354  0.1002  0.3279
  432MOL0     O59537   3.638  10.623   3.250 -0.3123 -0.3096  0.3540
  432MOL0     C59538   3.560  10.645   3.370  0.6213  0.2422 -0.9266
  432MOL0     C59539   3.563  10.796   3.398  0.3069 -0.2156 -0.7174
  432MOL0     C59540   3.498  10.879   3.291 -0.1811 -0.7898 -0.3564
  432MOL0     C59541   3.380  10.966   3.343  0.4828 -0.1187  0.2667
  432MOL0     C59542   3.272  10.891   3.399  0.3865  0.6461 -1.0598
  432MOL0     C59543   3.181  10.819   3.451 -0.1678 -0.5845 -0.6655
  432MOL0     C59544   3.841  10.622   3.124 -0.4253 -0.6934  0.1465
  432MOL0     C59545   3.983  10.622   3.120  0.4497 -0.6721  0.5664
  432MOL0     C59546   4.040  10.613   2.982 -0.0051  0.4764  0.3281
  432MOL0     H59547   4.384  10.811   3.517  0.4350 -0.7442  0.7259
  432MOL0     H59548   4.622  10.847   3.577 -0.3730  0.2397  0.0354
  432MOL0     H59549   4.834  10.923   3.520 -1.0440  2.3313 -0.5534
  432MOL0     H59550   4.801  10.923   3.354  1.1069  2.3210  1.0518
  432MOL0     H59551   5.048  10.967   3.456  0.5346  0.9996 -1.9984
  432MOL0     H59552   5.053  10.796   3.459 -3.0506 -0.4301  0.6869
  432MOL0     H59553   5.008  10.818   3.189  0.1854  2.5400 -3.2322
  432MOL0     H59554   5.020  10.986   3.224  2.9863  0.5358  0.5435
  432MOL0     H59555   5.264  10.950   3.320  1.1734 -1.3146 -0.5673
  432MOL0     H59556   5.239  10.779   3.293 -1.6313 -0.8945 -0.2308
  432MOL0     H59557   5.182  10.857   3.037  3.3183 -0.5479 -1.7877
  432MOL0     H59558   5.342  10.838   3.101  0.2924  0.2679 -0.4607
  432MOL0     H59559   5.187  11.105   3.101  1.6815  1.1329  2.7043
  432MOL0     H59560   5.348  11.092   3.159  0.9336  0.6778 -0.4508
  432MOL0     H59561   5.260  11.048   2.878  2.7619 -2.0757 -3.1712
  432MOL0     H59562   5.404  10.988   2.933 -0.7570  0.3062 -2.1550
  432MOL0     H59563   5.322  11.287   2.957 -0.5626  0.4485 -2.9600
  432MOL0     H59564   5.477  11.218   3.015 -0.8934 -1.6254  0.5577
  432MOL0     H59565   5.338  11.101   2.673 -0.5259  0.1052  1.5126
  432MOL0     H59566   5.389  11.275   2.428  0.1196  0.1061 -0.9967
  432MOL0     H59567   5.457  11.108   2.416 -0.2693 -0.4784  1.4864
  432MOL0     H59568   5.529  11.274   2.249 -1.6994  1.3919 -0.0367
  432MOL0     H59569   5.603  11.372   2.380 -0.3128  1.0338 -3.2012
  432MOL0     H59570   5.677  11.072   2.376 -2.0297  0.8481 -1.0648
  432MOL0     H59571   5.720  11.159   2.238 -2.8584 -3.1750 -0.3619
  432MOL0     H59572   5.876  11.299   2.347  1.1800 -2.6331 -2.3317
  432MOL0     H59573   5.771  11.294   2.489 -1.7262 -0.4336 -1.3287
  432MOL0     H59574   5.857  10.983   2.258  0.4678 -0.6425  0.6256
  432MOL0     H59575   5.989  10.887   1.982 -1.1546  0.4191 -0.0514
  432MOL0     H59576   5.885  10.826   2.107  0.3679 -3.3764 -1.1043
  432MOL0     H59577   6.044  10.754   2.069 -1.2782 -0.7481 -1.0978
  432MOL0     H59578   6.368  11.085   1.877 -0.0917 -1.1980  0.1721
  432MOL0     H59579   6.523  11.143   1.722  0.4459  0.1600 -0.0823
  432MOL0     H59580   6.707  11.064   1.567  1.6805 -2.5774 -1.6258
  432MOL0     H59581   6.756  11.239   1.594  0.5490 -0.8035 -0.8968
  432MOL0     H59582   6.983  11.195   1.579 -1.7588  1.7602  2.7760
  432MOL0     H59583   6.957  11.015   1.570 -1.3599 -0.5650 -2.3299
  432MOL0     H59584   6.836  11.214   1.373 -0.2512  0.6853  0.7436
  432MOL0     H59585   6.851  11.038   1.364  0.8569 -0.2138  0.4673
  432MOL0     H59586   7.101  11.047   1.316 -1.8844 -0.8077 -2.2180
  432MOL0     H59587   7.098  11.212   1.378 -3.5606  3.8814  0.6182
  432MOL0     H59588   6.945  11.264   1.165 -1.1350 -0.1953 -2.2073
  432MOL0     H59589   7.110  11.212   1.123  0.7436  1.3046  1.6118
  432MOL0     H59590   6.860  11.045   1.117 -1.7189  3.5752 -0.2258
  432MOL0     H59591   7.015  10.983   1.077  1.9415  0.7887 -0.1375
  432MOL0     H59592   7.032  11.140   0.877  0.0342 -0.8872 -1.0888
  432MOL0     H59593   6.888  11.226   0.935 -1.2719 -0.5846  2.9085
  432MOL0     H59594   6.799  11.070   0.773 -2.4884 -1.3547 -0.3124
  432MOL0     H59595   6.758  10.999   0.928 -0.5976  2.0462  0.2021
  432MOL0     H59596   6.838  11.018   1.971 -0.0149 -0.5925  1.2584
  432MOL0     H59597   6.660  10.953   2.146  0.8714 -0.5694  0.1013
  432MOL0     H59598   6.328  11.082   2.316 -0.1376 -2.2136  2.4010
  432MOL0     H59599   6.180  11.149   2.486 -0.8908 -0.5064  0.1913
  432MOL0     H59600   4.708  10.551   3.267 -1.8118 -3.0203  0.1479
  432MOL0     H59601   4.467  10.511   3.245  1.5147 -2.4887  2.2617
  432MOL0     H59602   4.044  10.625   3.459  3.7535 -1.2338 -0.5937
  432MOL0     H59603   3.809  10.604   3.465 -0.6352  2.0478 -0.0072
  432MOL0     H59604   3.454  10.620   3.366  0.7303 -0.4202  0.1475
  432MOL0     H59605   3.599  10.587   3.454  0.8186  2.0112  0.2704
  432MOL0     H59606   3.666  10.829   3.417  0.7112 -2.1307  0.7689
  432MOL0     H59607   3.500  10.815   3.486 -1.9646  1.1483 -2.5241
  432MOL0     H59608   3.572  10.939   3.237  0.4777  0.4006  1.7353
  432MOL0     H59609   3.459  10.808   3.218 -1.6367  0.2064 -0.6062
  432MOL0     H59610   3.341  11.018   3.255 -0.2394 -4.3728 -2.1924
  432MOL0     H59611   3.408  11.039   3.420  1.2264 -0.0570 -0.0507
  432MOL0     H59612   3.112  10.762   3.509  2.0597 -1.8315  0.9221
  432MOL0     H59613   3.790  10.636   3.029  1.5384 -1.0031 -1.0136
  432MOL0     H59614   4.102  10.523   2.979 -0.3697  0.2352 -1.8826
  432MOL0     H59615   3.964  10.591   2.906  1.2469 -1.2795 -0.4903
  432MOL0     H59616   4.099  10.701   2.956  0.6656 -0.2670 -0.7745
  433MOL0     O59617   9.172   2.889  10.317  0.1821 -0.3225 -0.1510
  433MOL0     C59618   9.078   2.971  10.321 -0.6205 -0.0796 -0.3226
  433MOL0     O59619   9.046   3.045  10.436 -0.0714 -0.6105 -0.0287
  433MOL0     C59620   9.135   3.055  10.543  0.8409 -0.4001  0.4404
  433MOL0     C59621   9.267   3.103  10.534 -0.7379  0.6045 -0.7421
  433MOL0     C59622   9.352   3.110  10.640 -0.6207 -1.1480 -0.3940
  433MOL0     C59623   9.302   3.076  10.769  0.6150  0.3145  0.2518
  433MOL0     O59624   9.381   3.074  10.880 -0.0625  0.1285 -0.1693
  433MOL0     C59625   9.408   3.201  10.933 -0.2410  0.3616  0.3635
  433MOL0     C59626   9.451   3.188  11.080  0.2974 -0.4838  1.1977
  433MOL0     C59627   9.342   3.134  11.163  0.7047  0.8033 -0.8343
  433MOL0     C59628   9.378   3.158  11.310  0.3111  0.0256  0.1133
  433MOL0     C59629   9.504   3.100  11.360 -0.2612  0.1539 -0.5005
  433MOL0     C59630   9.534   3.128  11.506  0.4545 -0.9438  0.5244
  433MOL0     C59631   9.654   3.039  11.550 -0.3837 -0.4749  0.6514
  433MOL0     C59632   9.620   2.891  11.538  0.2694  0.5181 -0.7764
  433MOL0     N59633   9.728   2.812  11.583 -0.4212  0.0961 -0.5246
  433MOL0     C59634   9.846   2.802  11.513  0.0756  0.9519 -0.0263
  433MOL0     C59635   9.906   2.693  11.563  0.1543  0.9454  0.2905
  433MOL0     C59636  10.030   2.616  11.501 -0.5097  0.4557 -0.8852
  433MOL0     C59637  10.148   2.669  11.561 -0.3401 -0.5465  0.0935
  433MOL0     C59638  10.185   2.815  11.518 -0.0873 -0.3798  0.7461
  433MOL0     C59639  10.331   2.854  11.488 -0.2438 -0.7015  0.0028
  433MOL0     O59640  10.375   2.764  11.378  0.3352 -0.2882 -0.4387
  433MOL0     C59641  10.505   2.790  11.348 -0.6627  1.1579 -0.0761
  433MOL0     C59642  10.596   2.880  11.409 -0.2807 -0.5677  0.7414
  433MOL0     C59643  10.726   2.889  11.375  0.2606 -0.2372 -0.3067
  433MOL0     C59644  10.812   2.985  11.454 -0.1766  0.3471  0.1938
  433MOL0     C59645  10.767   2.828  11.259 -0.3065  0.1085  0.3846
  433MOL0     C59646  10.895   2.860  11.195  0.0992  0.3621  0.4911
  433MOL0     O59647  10.944   2.988  11.197  0.3929  0.0850  0.7648
  433MOL0     C59648  11.074   3.021  11.171 -0.3288  0.4579 -0.4713
  433MOL0     C59649  11.097   3.154  11.176  0.2067 -0.2821 -0.2013
  433MOL0     C59650  11.220   3.207  11.179 -0.2314 -0.7299  0.4430
  433MOL0     C59651  11.330   3.122  11.148  0.3749  0.3694  0.0096
  433MOL0     O59652  11.453   3.180  11.149  0.0104 -0.1164 -0.0733
  433MOL0     C59653  11.537   3.111  11.241 -0.3190 -0.1210  0.0272
  433MOL0     C59654  11.658   3.207  11.282 -0.1661 -0.3612 -0.6938
  433MOL0     C59655  11.746   3.154  11.397  0.2964 -0.5737  0.5780
  433MOL0     C59656  11.673   3.128  11.529 -0.0155  1.2182 -0.8041
  433MOL0     C59657  11.748   3.197  11.645 -0.2232 -0.0348  0.1950
  433MOL0     C59658  11.880   3.124  11.669  0.2070 -0.0915 -0.1296
  433MOL0     C59659  11.922   3.110  11.821 -0.3603 -0.6800  0.0094
  433MOL0     C59660  12.058   3.048  11.838 -0.6068  0.8044  0.4999
  433MOL0    Cl59661  12.201   3.137  11.755  0.2195 -0.6693 -0.1631
  433MOL0     C59662  11.316   2.985  11.137  1.0830 -0.2976  0.2029
  433MOL0     C59663  11.182   2.936  11.144  1.0704 -1.0092  0.5325
  433MOL0     O59664  10.943   2.772  11.126  0.3503  0.3477  0.0014
  433MOL0     C59665  10.683   2.733  11.202 -0.4143  0.1024 -0.0542
  433MOL0     C59666  10.550   2.714  11.247  0.1420 -0.7336  0.7532
  433MOL0     N59667   9.818   2.628  11.654  0.4434  0.1294 -0.0427
  433MOL0     N59668   9.724   2.704  11.676  0.6040 -0.2187 -0.4129
  433MOL0     C59669   9.170   3.026  10.779  0.0370 -0.0298 -0.8875
  433MOL0     C59670   9.086   3.022  10.665  0.2890 -0.0974  0.2637
  433MOL0     C59671   9.006   3.003  10.193  0.7405 -0.0337  0.2233
  433MOL0     C59672   8.871   3.045  10.208 -0.4318 -0.3249  0.2306
  433MOL0     C59673   8.796   3.082  10.093 -0.9777  0.4853  0.2869
  433MOL0     C59674   8.845   3.070   9.964 -0.4126  0.3287  0.4124
  433MOL0     O59675   8.770   3.116   9.859  0.3413 -0.5277  0.0304
  433MOL0     C59676   8.805   3.085   9.721 -0.7176 -0.1660 -0.0054
  433MOL0     C59677   8.747   3.198   9.636 -0.1894 -0.7997  0.1269
  433MOL0     C59678   8.591   3.218   9.643 -0.2335  0.4582 -0.3861
  433MOL0     C59679   8.522   3.082   9.620  0.0287  0.1726  0.4457
  433MOL0     C59680   8.375   3.104   9.589  0.2651  0.4071  0.1944
  433MOL0     C59681   8.253   3.126   9.573 -0.7601  0.0302 -0.6834
  433MOL0     C59682   8.977   3.023   9.948 -0.3501  0.6738 -0.2794
  433MOL0     C59683   9.062   3.003  10.062  0.3300 -0.0683  0.1342
  433MOL0     C59684   9.209   2.967  10.050 -0.6095 -0.2952 -0.8811
  433MOL0     H59685   9.303   3.118  10.432  1.0708 -1.3060 -0.4438
  433MOL0     H59686   9.458   3.125  10.622 -0.3219 -1.8426  0.7104
  433MOL0     H59687   9.314   3.255  10.912 -1.4066 -0.8735  2.1338
  433MOL0     H59688   9.485   3.247  10.870 -1.1132  1.4432  0.0460
  433MOL0     H59689   9.538   3.123  11.088 -0.0827 -1.1115  0.4260
  433MOL0     H59690   9.470   3.291  11.111 -1.0311 -0.0046  0.5080
  433MOL0     H59691   9.256   3.196  11.136  0.1169  0.9842  1.2550
  433MOL0     H59692   9.316   3.030  11.139 -2.6721  0.9841  1.3441
  433MOL0     H59693   9.383   3.267  11.319  2.0723  0.0268 -0.4992
  433MOL0     H59694   9.288   3.132  11.368 -0.9896 -0.7080 -2.1192
  433MOL0     H59695   9.588   3.144  11.305  1.4076 -1.2055  0.8301
  433MOL0     H59696   9.497   2.991  11.348  1.4202  0.1300 -1.6513
  433MOL0     H59697   9.577   3.228  11.522  0.6835 -1.3851  3.0235
  433MOL0     H59698   9.445   3.124  11.568 -0.5220  0.8313 -0.6732
  433MOL0     H59699   9.682   3.067  11.652  7.0729  2.4982 -1.5684
  433MOL0     H59700   9.747   3.067  11.500  0.4720 -0.2853  2.2688
  433MOL0     H59701   9.531   2.881  11.601 -0.8970  0.6749 -2.3132
  433MOL0     H59702   9.598   2.857  11.436 -1.8280  0.5879 -0.4064
  433MOL0     H59703   9.876   2.860  11.426  2.0493  1.0708  0.6795
  433MOL0     H59704  10.038   2.614  11.392  2.4030  3.0661 -0.8551
  433MOL0     H59705  10.012   2.514  11.536  0.0131  0.3300 -0.9705
  433MOL0     H59706  10.146   2.666  11.670 -0.8814 -0.3622  0.0934
  433MOL0     H59707  10.225   2.600  11.524 -0.2082 -1.5457  2.1382
  433MOL0     H59708  10.133   2.841  11.425  1.0316  0.0443  0.2132
  433MOL0     H59709  10.153   2.878  11.601  1.1554 -1.7035  2.2908
  433MOL0     H59710  10.326   2.961  11.469 -1.0162 -0.8172 -0.4920
  433MOL0     H59711  10.379   2.824  11.581 -0.8882 -1.8716 -0.0205
  433MOL0     H59712  10.553   2.945  11.485 -1.5304  0.4622 -0.8025
  433MOL0     H59713  10.917   2.958  11.437 -0.7006 -1.0105 -1.2229
  433MOL0     H59714  10.788   2.975  11.560  0.7690 -3.0021  0.2197
  433MOL0     H59715  10.801   3.089  11.424 -0.7571  0.5238  1.0141
  433MOL0     H59716  11.009   3.216  11.186  0.1709 -0.4726  0.6840
  433MOL0     H59717  11.238   3.314  11.186  2.9279 -1.1764  0.8018
  433MOL0     H59718  11.476   3.086  11.328 -1.3329  3.0644  0.3687
  433MOL0     H59719  11.586   3.022  11.200  0.3501  1.2472 -2.2885
  433MOL0     H59720  11.723   3.227  11.196  1.8593 -0.4783  0.7559
  433MOL0     H59721  11.617   3.306  11.303 -0.9443  0.2479 -4.3356
  433MOL0     H59722  11.810   3.242  11.409 -0.3443  0.3780 -2.2351
  433MOL0     H59723  11.806   3.066  11.373  1.3847  0.5436 -0.9738
  433MOL0     H59724  11.661   3.022  11.554  1.3966  1.6142  1.9027
  433MOL0     H59725  11.575   3.176  11.533 -1.4571 -1.4986 -1.2143
  433MOL0     H59726  11.764   3.304  11.630 -0.1130 -0.0689  0.0683
  433MOL0     H59727  11.692   3.181  11.738  0.5403 -0.0546  0.6632
  433MOL0     H59728  11.958   3.163  11.603 -1.2103 -1.7974 -3.0034
  433MOL0     H59729  11.878   3.023  11.627 -0.4494  0.1220 -0.6293
  433MOL0     H59730  11.855   3.035  11.865 -1.3751  0.5116  0.5678
  433MOL0     H59731  11.922   3.205  11.875  2.6153  0.4807 -1.7966
  433MOL0     H59732  12.056   2.940  11.818 -4.5395  0.6976  0.7203
  433MOL0     H59733  12.066   3.062  11.947 -2.4994  2.3975  0.5044
  433MOL0     H59734  11.406   2.925  11.129  1.9094  0.9161  0.0470
  433MOL0     H59735  11.177   2.828  11.153  0.4513 -0.8462  2.5643
  433MOL0     H59736  10.718   2.668  11.122 -2.8827 -0.5666 -0.6632
  433MOL0     H59737  10.477   2.647  11.203  0.3719 -0.7233  0.3458
  433MOL0     H59738   9.128   2.992  10.873 -1.5031  0.0708 -1.5137
  433MOL0     H59739   8.983   2.991  10.676  0.6266 -1.0004  0.9819
  433MOL0     H59740   8.812   3.059  10.299  0.2068 -1.2761  0.8039
  433MOL0     H59741   8.694   3.119  10.099 -1.2204 -0.1723  0.3697
  433MOL0     H59742   8.912   3.077   9.701 -0.9344 -3.6744 -0.4684
  433MOL0     H59743   8.755   2.992   9.692 -0.3076 -0.4241  0.1127
  433MOL0     H59744   8.784   3.178   9.535  0.8313  1.5286 -0.0188
  433MOL0     H59745   8.794   3.294   9.657 -1.4909 -0.4315  1.5351
  433MOL0     H59746   8.563   3.265   9.738  1.2609  2.0338 -0.6642
  433MOL0     H59747   8.567   3.298   9.572  1.9167  1.6097  0.0965
  433MOL0     H59748   8.530   3.027   9.714  2.3242 -0.5543 -0.1214
  433MOL0     H59749   8.562   3.022   9.538 -0.6743 -1.4883  1.2794
  433MOL0     H59750   8.153   3.145   9.539  0.3932  3.1003 -2.8599
  433MOL0     H59751   9.031   3.013   9.854 -1.8672  0.2607 -1.1316
  433MOL0     H59752   9.218   2.862  10.078  0.0423 -0.7008 -2.5211
  433MOL0     H59753   9.242   2.968   9.945 -0.0530 -1.6864 -0.7418
  433MOL0     H59754   9.274   3.031  10.111 -2.5137  0.7987  0.0827
  434MOL0     O59755   5.881   7.020   0.347 -0.3554  0.2508  0.6046
  434MOL0     C59756   5.946   7.083   0.256 -0.0856 -0.2321  0.1197
  434MOL0     O59757   5.918   7.079   0.117 -0.4215 -0.3070 -0.5643
  434MOL0     C59758   5.808   7.019   0.075  0.4012  0.3789  0.1393
  434MOL0     C59759   5.802   6.886   0.036  0.6962 -0.3931 -0.7458
  434MOL0     C59760   5.693   6.833  -0.028 -0.6573  0.6072  0.2441
  434MOL0     C59761   5.577   6.909  -0.033  0.5607 -0.3848 -0.7558
  434MOL0     O59762   5.458   6.860  -0.090 -0.9700 -0.5990  0.1737
  434MOL0     C59763   5.487   6.765  -0.191  0.9298  0.7314  0.7480
  434MOL0     C59764   5.352   6.750  -0.269  0.0018  0.1641 -0.8571
  434MOL0     C59765   5.366   6.638  -0.378 -1.4145 -0.8919 -1.0074
  434MOL0     C59766   5.242   6.566  -0.410 -1.3240 -0.3335  0.0558
  434MOL0     C59767   5.263   6.436  -0.496  0.8474  0.8164 -0.9212
  434MOL0     C59768   5.344   6.324  -0.417 -0.0966  0.2368 -0.5942
  434MOL0     C59769   5.330   6.176  -0.471  0.4486  0.5218  0.2275
  434MOL0     C59770   5.373   6.069  -0.373  0.3984  0.2491  0.7035
  434MOL0     N59771   5.502   6.086  -0.306 -0.8737  0.3464 -0.6247
  434MOL0     C59772   5.524   6.166  -0.201 -0.2258  0.1647  0.0282
  434MOL0     C59773   5.660   6.159  -0.178 -0.8526 -0.3660  0.1006
  434MOL0     C59774   5.744   6.227  -0.067  0.0843  0.4323 -0.0613
  434MOL0     C59775   5.844   6.325  -0.131 -0.7243 -0.0198 -0.2656
  434MOL0     C59776   5.777   6.443  -0.189 -0.9868 -0.9846 -0.4963
  434MOL0     C59777   5.877   6.547  -0.243  0.2124  0.0484 -0.5543
  434MOL0     O59778   5.813   6.633  -0.346  0.0717  0.2026 -0.0491
  434MOL0     C59779   5.889   6.745  -0.383 -0.2336 -0.2593  0.6163
  434MOL0     C59780   5.828   6.852  -0.451  0.8078  0.0944  0.1539
  434MOL0     C59781   5.894   6.967  -0.489 -0.3867 -0.3328 -0.4637
  434MOL0     C59782   5.821   7.066  -0.576 -0.2239 -0.5181  0.1065
  434MOL0     C59783   6.028   6.982  -0.443  0.3615  0.7778  0.2922
  434MOL0     C59784   6.125   7.084  -0.488 -0.0500  1.0368  0.7330
  434MOL0     O59785   6.235   7.108  -0.411 -0.9944 -0.4784 -0.0384
  434MOL0     C59786   6.327   7.198  -0.469  0.5269  0.6350  0.4260
  434MOL0     C59787   6.394   7.168  -0.586  0.6743  0.3670  0.3974
  434MOL0     C59788   6.498   7.237  -0.636  0.2512  0.3546 -0.1340
  434MOL0     C59789   6.529   7.362  -0.576 -1.2390  0.4382 -0.3985
  434MOL0     O59790   6.631   7.447  -0.617  0.8458 -0.2514  0.3378
  434MOL0     C59791   6.693   7.424  -0.741 -0.1212 -0.1550  0.0093
  434MOL0     C59792   6.810   7.522  -0.776  0.7116  1.2093  0.3082
  434MOL0     C59793   6.918   7.541  -0.676 -0.1299 -0.0795  0.3439
  434MOL0     C59794   7.033   7.632  -0.747  0.0221  0.2012  0.1178
  434MOL0     C59795   7.089   7.573  -0.880 -0.7510  0.0469  0.6820
  434MOL0     C59796   7.229   7.624  -0.917  0.6837  0.0181  0.4941
  434MOL0     C59797   7.292   7.539  -1.027 -0.0089  0.7184  0.2647
  434MOL0     C59798   7.418   7.602  -1.076 -0.7091  0.1349 -0.1345
  434MOL0    Cl59799   7.574   7.545  -0.990  0.3116  0.2273 -0.1633
  434MOL0     C59800   6.458   7.399  -0.456  0.5399  0.1351 -0.3730
  434MOL0     C59801   6.355   7.311  -0.410 -0.6064 -0.2844  0.5618
  434MOL0     O59802   6.100   7.143  -0.593 -0.0088 -1.0217  0.0375
  434MOL0     C59803   6.082   6.888  -0.354  0.1119  0.3598 -0.0344
  434MOL0     C59804   6.016   6.776  -0.324  0.3022 -0.2833 -0.3793
  434MOL0     N59805   5.716   6.080  -0.274  0.7871  0.5897 -0.4173
  434MOL0     N59806   5.618   6.045  -0.356  0.7032 -0.0158 -0.0820
  434MOL0     C59807   5.573   7.042   0.014  0.2813  0.5955  0.1602
  434MOL0     C59808   5.690   7.103   0.063 -1.1465  0.6516 -0.2561
  434MOL0     C59809   6.047   7.173   0.306  0.2533 -1.1219  1.0958
  434MOL0     C59810   6.097   7.259   0.208  0.6625 -0.6913  1.3678
  434MOL0     C59811   6.190   7.355   0.235  0.4824  0.1948 -0.1947
  434MOL0     C59812   6.234   7.363   0.365  0.1314 -0.7101  0.5173
  434MOL0     O59813   6.336   7.450   0.393  0.4280 -0.2165 -0.5082
  434MOL0     C59814   6.467   7.391   0.397  0.0969 -0.3211  0.4144
  434MOL0     C59815   6.559   7.512   0.380  0.8331  0.9488 -0.7162
  434MOL0     C59816   6.559   7.564   0.234  0.4740 -0.0573  0.6559
  434MOL0     C59817   6.677   7.513   0.155 -0.3694  0.3312 -0.0625
  434MOL0     C59818   6.631   7.482   0.021  0.0309 -0.3340 -0.1896
  434MOL0     C59819   6.582   7.452  -0.082 -0.2697  0.4206  0.3636
  434MOL0     C59820   6.189   7.283   0.467 -0.9219  0.1721  0.1524
  434MOL0     C59821   6.107   7.179   0.433  0.3842  0.8083 -0.2531
  434MOL0     C59822   6.080   7.076   0.542  0.4559 -0.3482 -0.3483
  434MOL0     H59823   5.894   6.829   0.046  1.3790  1.0349  1.8052
  434MOL0     H59824   5.707   6.730  -0.058  1.6617  1.2830 -1.1901
  434MOL0     H59825   5.503   6.666  -0.147  0.4792 -0.7405 -2.1552
  434MOL0     H59826   5.564   6.788  -0.265  2.2078  0.4979  1.9681
  434MOL0     H59827   5.285   6.719  -0.188  0.7959 -1.1082 -0.6642
  434MOL0     H59828   5.322   6.849  -0.305  3.3617  1.1472 -1.3145
  434MOL0     H59829   5.424   6.681  -0.461 -1.1285  0.0708 -0.3166
  434MOL0     H59830   5.425   6.563  -0.323 -0.7479  0.4784  0.2089
  434MOL0     H59831   5.186   6.546  -0.319 -2.4797 -1.1475 -0.8044
  434MOL0     H59832   5.192   6.643  -0.471 -1.4492 -0.8638 -0.5203
  434MOL0     H59833   5.317   6.440  -0.591  2.1733  1.1727 -0.1836
  434MOL0     H59834   5.161   6.401  -0.514  1.2475  0.8849 -3.8070
  434MOL0     H59835   5.447   6.360  -0.420  0.3357 -0.7752  0.9717
  434MOL0     H59836   5.314   6.323  -0.312  4.5930  0.2946  0.9794
  434MOL0     H59837   5.394   6.154  -0.557  1.3698  1.3925  0.6763
  434MOL0     H59838   5.222   6.158  -0.480  0.7635 -1.4013 -0.0703
  434MOL0     H59839   5.290   6.070  -0.302  0.2917 -0.2051  0.5852
  434MOL0     H59840   5.371   5.971  -0.422  0.8333  0.8150 -0.4916
  434MOL0     H59841   5.463   6.237  -0.146  0.1788  0.5427 -0.0072
  434MOL0     H59842   5.794   6.143  -0.018 -1.0936 -0.0495  0.3584
  434MOL0     H59843   5.681   6.291  -0.005 -4.2032 -0.0905 -3.3570
  434MOL0     H59844   5.917   6.349  -0.054 -0.0907  2.2535 -1.4946
  434MOL0     H59845   5.894   6.278  -0.216 -1.5605 -1.4375 -0.0051
  434MOL0     H59846   5.711   6.412  -0.271 -0.3365 -1.6982 -0.7664
  434MOL0     H59847   5.718   6.491  -0.111  0.3530  0.9745 -0.6338
  434MOL0     H59848   5.902   6.606  -0.154  0.4509 -2.4704  1.1378
  434MOL0     H59849   5.959   6.494  -0.291 -2.5836 -6.6759  0.9583
  434MOL0     H59850   5.720   6.848  -0.462  0.6425 -1.5068  1.9216
  434MOL0     H59851   5.717   7.079  -0.542 -0.1956 -1.9081  0.7717
  434MOL0     H59852   5.819   7.038  -0.681 -0.1416 -0.9904  0.2329
  434MOL0     H59853   5.874   7.162  -0.568 -0.9538 -0.1930  1.2764
  434MOL0     H59854   6.360   7.077  -0.634 -0.1733  1.6168 -1.5041
  434MOL0     H59855   6.559   7.194  -0.716  0.8640 -0.5991  0.8247
  434MOL0     H59856   6.733   7.322  -0.741  0.2840 -0.0249 -1.2037
  434MOL0     H59857   6.623   7.434  -0.825  0.4838  1.5874 -0.3458
  434MOL0     H59858   6.852   7.481  -0.869  2.4487  1.7590  0.8271
  434MOL0     H59859   6.760   7.616  -0.802  2.0500  2.1068  0.8754
  434MOL0     H59860   6.960   7.443  -0.653  0.4362  0.2435  0.6923
  434MOL0     H59861   6.882   7.586  -0.583  0.8482 -0.6576  1.0064
  434MOL0     H59862   7.109   7.634  -0.669 -0.2939  0.9482  0.4216
  434MOL0     H59863   6.997   7.734  -0.764 -0.3948  0.1652  0.7736
  434MOL0     H59864   7.092   7.464  -0.872 -0.4076  0.1168  1.6044
  434MOL0     H59865   7.025   7.598  -0.965 -0.0767 -2.0579 -0.5367
  434MOL0     H59866   7.291   7.620  -0.827  0.2479 -0.6757  0.7703
  434MOL0     H59867   7.218   7.725  -0.958 -2.4795 -0.6571 -0.6168
  434MOL0     H59868   7.219   7.533  -1.109  2.8276  1.8973 -2.5685
  434MOL0     H59869   7.319   7.437  -0.995  1.8522  1.1525  0.2123
  434MOL0     H59870   7.418   7.712  -1.082  0.5856  0.5126  4.0676
  434MOL0     H59871   7.438   7.552  -1.171 -1.5358  1.9312 -1.3150
  434MOL0     H59872   6.481   7.497  -0.414 -1.2858  0.7521 -0.6737
  434MOL0     H59873   6.305   7.345  -0.320  1.4410  0.5274  1.4483
  434MOL0     H59874   6.181   6.902  -0.311  0.7105  0.6769 -1.4469
  434MOL0     H59875   6.064   6.718  -0.247 -3.3029 -3.2227 -0.0560
  434MOL0     H59876   5.482   7.099   0.028  1.0960  1.5414  2.0346
  434MOL0     H59877   5.684   7.208   0.089 -1.2049  0.3991  0.7765
  434MOL0     H59878   6.044   7.264   0.113 -0.0054  2.8084  1.8010
  434MOL0     H59879   6.239   7.420   0.164  1.0044  0.3855  0.3259
  434MOL0     H59880   6.486   7.334   0.488 -1.1366  1.2440  1.7308
  434MOL0     H59881   6.465   7.320   0.314 -0.9134  0.2576 -0.0812
  434MOL0     H59882   6.657   7.492   0.424  0.4316  3.2956  1.5208
  434MOL0     H59883   6.516   7.583   0.452  0.5508 -2.4086  2.7435
  434MOL0     H59884   6.463   7.542   0.186  0.0508 -3.5380  2.7929
  434MOL0     H59885   6.564   7.673   0.232 -2.0561  0.1201  1.5093
  434MOL0     H59886   6.706   7.420   0.205 -4.1571 -1.3308 -0.6279
  434MOL0     H59887   6.765   7.577   0.144 -0.8624  0.8959 -0.9252
  434MOL0     H59888   6.562   7.440  -0.186  1.0997 -1.4376  0.2649
  434MOL0     H59889   6.249   7.289   0.557 -1.3857  2.1289  0.3928
  434MOL0     H59890   6.159   7.086   0.618  0.2501 -2.3967  0.1888
  434MOL0     H59891   5.990   7.107   0.595  0.1100 -1.2991 -0.3695
  434MOL0     H59892   6.074   6.969   0.517  2.6959 -0.6383  0.0826
  435MOL0     O59893   1.516   8.070  11.044 -0.0533 -0.5316  0.1647
  435MOL0     C59894   1.452   8.006  11.124  0.4464 -0.3134 -0.1830
  435MOL0     O59895   1.314   7.993  11.128  0.2376  0.0474  0.1177
  435MOL0     C59896   1.242   8.079  11.051  0.1540 -0.1812  0.0904
  435MOL0     C59897   1.163   8.172  11.112  0.4413  0.1189 -0.7339
  435MOL0     C59898   1.085   8.262  11.035 -0.8730 -0.3414 -0.0992
  435MOL0     C59899   1.098   8.261  10.898  0.0188  0.2360  0.0854
  435MOL0     O59900   1.026   8.350  10.823  0.0575  0.1409  0.3403
  435MOL0     C59901   1.082   8.479  10.831 -0.2779  0.1885 -0.7595
  435MOL0     C59902   0.994   8.574  10.910 -0.8597 -0.1124 -0.0996
  435MOL0     C59903   1.045   8.715  10.908  0.0523  0.5446  0.1661
  435MOL0     C59904   1.009   8.800  11.035  1.2155  0.5486  0.1307
  435MOL0     C59905   1.005   8.947  10.993  0.0451  0.0689 -0.0769
  435MOL0     C59906   0.981   9.042  11.114  0.0777 -0.0978  0.3754
  435MOL0     C59907   0.994   9.192  11.069 -0.9908  0.1156 -0.2601
  435MOL0     C59908   0.925   9.281  11.181 -0.3082 -0.1966 -0.6737
  435MOL0     N59909   0.951   9.423  11.160  0.3280 -0.4854 -0.0077
  435MOL0     C59910   1.043   9.497  11.230 -0.2579  0.0284 -0.7566
  435MOL0     C59911   1.041   9.619  11.170 -0.3591 -0.5100 -0.2071
  435MOL0     C59912   1.123   9.735  11.217  0.8500 -0.1519  1.0362
  435MOL0     C59913   1.239   9.762  11.124  0.6979  0.3019  0.4210
  435MOL0     C59914   1.188   9.832  10.995  0.5339  0.8269 -0.1969
  435MOL0     C59915   1.297   9.853  10.889 -0.6885 -1.0414  0.1496
  435MOL0     O59916   1.403   9.936  10.949  0.1130  0.3293  0.4689
  435MOL0     C59917   1.527   9.948  10.890  0.4461  0.4095 -0.5129
  435MOL0     C59918   1.570   9.878  10.780  0.1890  0.2545  0.3170
  435MOL0     C59919   1.704   9.889  10.735  0.7684 -0.3294  0.1046
  435MOL0     C59920   1.731   9.798  10.616 -0.5595 -1.2912  0.5613
  435MOL0     C59921   1.800   9.969  10.805 -0.2848 -0.4916 -0.4822
  435MOL0     C59922   1.943   9.972  10.764 -0.1748 -0.4526  0.0651
  435MOL0     O59923   2.028  10.003  10.867  0.0069 -0.0264  0.1420
  435MOL0     C59924   2.170  10.013  10.852  0.8508 -0.1728 -0.2493
  435MOL0     C59925   2.239  10.059  10.966 -0.1333 -0.1498 -0.4952
  435MOL0     C59926   2.372  10.081  10.957  0.2520 -0.1117  0.0654
  435MOL0     C59927   2.446  10.017  10.861 -0.1086  0.3773 -0.1786
  435MOL0     O59928   2.582  10.015  10.850  0.3061  0.1852  0.3174
  435MOL0     C59929   2.662  10.087  10.947 -0.0766  0.2886  0.2102
  435MOL0     C59930   2.808  10.102  10.891  0.6289 -0.0706 -0.2860
  435MOL0     C59931   2.898  10.184  10.983  0.3135 -0.0486 -0.3632
  435MOL0     C59932   3.043  10.179  10.939 -0.3046 -0.2200  0.0488
  435MOL0     C59933   3.130  10.156  11.058  0.3222  0.4261  0.7097
  435MOL0     C59934   3.127  10.275  11.155 -0.7405  0.7237  0.7500
  435MOL0     C59935   3.225  10.260  11.266 -1.4971  0.0312 -0.3728
  435MOL0     C59936   3.202  10.378  11.356 -0.2843  0.0622 -0.5057
  435MOL0    Cl59937   3.275  10.356  11.525  0.0813 -0.1062  0.0846
  435MOL0     C59938   2.376   9.952  10.761 -0.0783  0.4206  0.3373
  435MOL0     C59939   2.240   9.953  10.753 -0.6043  0.7254  0.6566
  435MOL0     O59940   1.981   9.964  10.648  0.2511  0.2973 -0.0474
  435MOL0     C59941   1.755  10.042  10.918 -0.3707  0.4324 -0.7657
  435MOL0     C59942   1.617  10.035  10.952 -0.6555 -0.1375 -0.1126
  435MOL0     N59943   0.953   9.620  11.071 -0.5940  0.1026  1.2545
  435MOL0     N59944   0.895   9.507  11.059  0.2177  0.0186  0.0121
  435MOL0     C59945   1.163   8.152  10.832 -0.2801  0.1762  0.1465
  435MOL0     C59946   1.229   8.052  10.911  0.3302  0.0097 -0.6392
  435MOL0     C59947   1.525   7.914  11.213 -0.1428  0.5278 -0.5264
  435MOL0     C59948   1.652   7.862  11.172 -0.2070  1.3865 -0.5517
  435MOL0     C59949   1.727   7.792  11.265  0.0130  0.6185 -0.0950
  435MOL0     C59950   1.680   7.763  11.392 -0.2994  0.8268 -0.1300
  435MOL0     O59951   1.759   7.690  11.486  0.4122 -0.3127 -0.1558
  435MOL0     C59952   1.843   7.583  11.444 -1.0340 -0.4083 -0.3701
  435MOL0     C59953   1.954   7.585  11.554  0.0808  0.6678  0.5085
  435MOL0     C59954   2.073   7.505  11.509  0.2460  0.2001  0.1280
  435MOL0     C59955   2.195   7.556  11.593 -0.5492  0.4170  0.6546
  435MOL0     C59956   2.322   7.510  11.540 -0.6414  0.4034 -0.4812
  435MOL0     C59957   2.428   7.479  11.502  0.0743  0.5657 -0.1447
  435MOL0     C59958   1.559   7.815  11.437  1.1579 -0.1618  1.1421
  435MOL0     C59959   1.478   7.892  11.348 -0.5782  0.2304 -0.2387
  435MOL0     C59960   1.343   7.934  11.396  0.0038 -0.0360 -0.7762
  435MOL0     H59961   1.164   8.178  11.221 -1.0748  0.7417 -0.7271
  435MOL0     H59962   1.031   8.348  11.071 -1.0460  0.5456 -2.3369
  435MOL0     H59963   1.102   8.520  10.731  4.0661  0.7626  0.1340
  435MOL0     H59964   1.185   8.471  10.866 -0.7511 -1.4810  0.3397
  435MOL0     H59965   0.896   8.569  10.863 -0.9503  2.0296 -0.2131
  435MOL0     H59966   0.978   8.541  11.014 -0.4387  0.3042  0.0971
  435MOL0     H59967   1.154   8.720  10.907  0.0051  2.4446 -0.4347
  435MOL0     H59968   1.013   8.762  10.815  2.1240 -2.1862 -2.0952
  435MOL0     H59969   0.915   8.773  11.084  1.5161  2.0293  1.6167
  435MOL0     H59970   1.090   8.779  11.105  2.1012  0.8862 -0.7652
  435MOL0     H59971   0.922   8.953  10.921 -0.2560 -1.1959  0.1488
  435MOL0     H59972   1.100   8.965  10.942  0.9104 -0.4012  1.3301
  435MOL0     H59973   0.888   9.023  11.167  1.5794  1.4265  3.9068
  435MOL0     H59974   1.052   9.020  11.194 -0.8657 -0.6554  1.0781
  435MOL0     H59975   0.960   9.214  10.968  2.4918 -2.3782 -2.1991
  435MOL0     H59976   1.103   9.206  11.067 -1.1582  1.5445 -1.8922
  435MOL0     H59977   0.816   9.286  11.170 -0.5068  3.6925  1.2595
  435MOL0     H59978   0.953   9.243  11.280  3.0302  1.0769 -0.9869
  435MOL0     H59979   1.105   9.466  11.313 -1.1840 -0.3457 -0.1830
  435MOL0     H59980   1.166   9.708  11.314  1.6800 -0.3704  0.6185
  435MOL0     H59981   1.059   9.822  11.227 -0.1411 -0.2837 -2.6966
  435MOL0     H59982   1.313   9.836  11.156  0.3647  1.6050 -1.6093
  435MOL0     H59983   1.281   9.664  11.098  0.6094  0.4175 -0.1889
  435MOL0     H59984   1.107   9.774  10.951  1.1667 -0.8871  0.8186
  435MOL0     H59985   1.137   9.923  11.029  2.6569  1.9948  0.0170
  435MOL0     H59986   1.329   9.753  10.858 -0.2630 -0.2695 -2.1179
  435MOL0     H59987   1.251   9.910  10.808  0.1636 -1.0596 -0.3540
  435MOL0     H59988   1.500   9.818  10.723  1.6306 -1.3013  0.1108
  435MOL0     H59989   1.641   9.759  10.568 -0.6507 -0.4604  0.0274
  435MOL0     H59990   1.787   9.713  10.656 -1.5874 -1.2269  2.2022
  435MOL0     H59991   1.803   9.842  10.546  0.6761 -1.2275  1.8143
  435MOL0     H59992   2.176  10.109  11.039  3.0324  0.3363  2.1385
  435MOL0     H59993   2.427  10.139  11.030  2.6126 -0.8937 -0.9962
  435MOL0     H59994   2.622  10.188  10.964  0.9591  0.5935  0.9582
  435MOL0     H59995   2.661  10.045  11.048  0.6352  2.0996  1.0239
  435MOL0     H59996   2.846  10.003  10.864  0.7659  0.6137 -2.9156
  435MOL0     H59997   2.805  10.161  10.799  2.6254  1.0330  0.2995
  435MOL0     H59998   2.878  10.144  11.083  1.2754  4.2778  1.7731
  435MOL0     H59999   2.866  10.288  10.978  1.1593  0.1690 -1.4061
  435MOL0     H60000   3.075  10.273  10.891  1.3660 -0.0763  1.3361
  435MOL0     H60001   3.061  10.108  10.858  1.1925  0.8801 -0.6296
  435MOL0     H60002   3.098  10.064  11.108  0.9472 -0.4095 -0.3811
  435MOL0     H60003   3.234  10.151  11.023  0.0347  0.0119 -0.1091
  435MOL0     H60004   3.029  10.277  11.205 -0.0784 -1.2485  2.2837
  435MOL0     H60005   3.151  10.371  11.110 -0.6803 -0.0374 -0.8779
  435MOL0     H60006   3.327  10.245  11.230 -2.1498 -1.6606 -1.6371
  435MOL0     H60007   3.196  10.172  11.325 -2.9001  0.1700 -0.8092
  435MOL0     H60008   3.097  10.405  11.371 -0.8010 -2.8097  2.1099
  435MOL0     H60009   3.256  10.462  11.312  0.1557 -0.1424 -0.3643
  435MOL0     H60010   2.430   9.916  10.674 -3.1844  0.7905 -1.9140
  435MOL0     H60011   2.207   9.909  10.659  1.9727  3.0851 -1.5509
  435MOL0     H60012   1.813  10.107  10.981  1.4890 -1.1316 -0.7666
  435MOL0     H60013   1.575  10.097  11.030 -3.9786 -1.2293 -0.8909
  435MOL0     H60014   1.150   8.150  10.724 -0.0293  0.4575  0.1081
  435MOL0     H60015   1.286   7.976  10.859  2.1558 -0.2047  1.5012
  435MOL0     H60016   1.694   7.889  11.076 -0.3045  0.1254 -0.9715
  435MOL0     H60017   1.827   7.761  11.238 -0.6791 -3.4727  1.3253
  435MOL0     H60018   1.791   7.487  11.449 -1.7075 -0.0067  2.7070
  435MOL0     H60019   1.887   7.599  11.346  1.0868  0.4991  0.6564
  435MOL0     H60020   1.917   7.541  11.647 -1.9899 -0.3393 -0.7379
  435MOL0     H60021   1.989   7.688  11.565  3.3456 -0.3115  0.3168
  435MOL0     H60022   2.056   7.399  11.528  1.2284 -0.0032 -0.0945
  435MOL0     H60023   2.091   7.522  11.402 -3.2613  1.1612 -0.4347
  435MOL0     H60024   2.168   7.528  11.695 -2.3379  0.3450  0.2013
  435MOL0     H60025   2.183   7.665  11.594  0.0242  0.5334  3.9080
  435MOL0     H60026   2.527   7.461  11.466 -0.6123 -0.1397 -1.8277
  435MOL0     H60027   1.517   7.780  11.531  1.1722 -1.8556  0.5556
  435MOL0     H60028   1.258   7.906  11.333 -1.8719  2.1908  0.5956
  435MOL0     H60029   1.319   7.887  11.491  0.8148  1.4942  0.2368
  435MOL0     H60030   1.342   8.043  11.408 -2.1614  0.0890 -1.6869
  436MOL0     O60031   8.132  10.278   7.773  0.2858  0.2582  0.3030
  436MOL0     C60032   8.073  10.338   7.864  0.5757 -0.4916  0.3082
  436MOL0     O60033   8.137  10.437   7.942 -0.4343 -0.3841 -0.2865
  436MOL0     C60034   8.259  10.479   7.896 -0.6789  0.4296  0.0945
  436MOL0     C60035   8.265  10.604   7.846 -0.0589 -0.0397 -0.6221
  436MOL0     C60036   8.384  10.657   7.805  0.6969 -0.6189 -0.6018
  436MOL0     C60037   8.503  10.584   7.819  0.3258 -0.0866 -0.3775
  436MOL0     O60038   8.631  10.621   7.795  0.3514 -0.0893 -0.3084
  436MOL0     C60039   8.653  10.737   7.719 -0.2631  0.2155  0.1975
  436MOL0     C60040   8.802  10.758   7.702  0.3836  0.2793 -0.5294
  436MOL0     C60041   8.863  10.635   7.635 -0.9201  0.1022  0.4018
  436MOL0     C60042   9.009  10.653   7.606 -0.0767  0.3204 -0.1383
  436MOL0     C60043   9.063  10.529   7.544 -0.2741 -0.2894 -0.8040
  436MOL0     C60044   9.218  10.554   7.514  0.9542 -0.0545  0.8152
  436MOL0     C60045   9.271  10.440   7.424  0.0168 -0.1519  0.1164
  436MOL0     C60046   9.421  10.456   7.388  0.4802 -0.2011 -0.1811
  436MOL0     N60047   9.441  10.528   7.256  0.3381  0.4547  0.1397
  436MOL0     C60048   9.441  10.464   7.136 -0.8924  0.4114 -0.0455
  436MOL0     C60049   9.470  10.559   7.048 -0.3844 -0.1863 -0.1364
  436MOL0     C60050   9.496  10.563   6.899 -0.0167  0.2903 -0.8183
  436MOL0     C60051   9.638  10.517   6.859  0.2130 -0.0659  0.2197
  436MOL0     C60052   9.744  10.599   6.933  0.1882 -0.4103  1.0941
  436MOL0     C60053   9.882  10.586   6.857  0.5737  0.0237  0.6730
  436MOL0     O60054   9.917  10.450   6.850 -0.5472  0.6259  0.1778
  436MOL0     C60055  10.048  10.401   6.833  0.4668 -0.6242 -0.8588
  436MOL0     C60056  10.166  10.481   6.819  0.5644  0.4475  0.3390
  436MOL0     C60057  10.302  10.424   6.814  0.1823 -0.4586 -1.0248
  436MOL0     C60058  10.420  10.529   6.812 -0.7442  0.5101 -0.4149
  436MOL0     C60059  10.316  10.289   6.806 -1.3945 -0.4044 -0.2840
  436MOL0     C60060  10.446  10.216   6.794  0.0417  0.6028  0.0504
  436MOL0     O60061  10.565  10.293   6.799  0.3976  0.2656  0.0379
  436MOL0     C60062  10.685  10.222   6.802 -0.0599 -0.5144 -0.0211
  436MOL0     C60063  10.777  10.258   6.703 -1.0139 -0.2924  0.6068
  436MOL0     C60064  10.900  10.187   6.702  1.3250  0.3421 -0.2423
  436MOL0     C60065  10.925  10.086   6.798 -0.5420 -0.7139 -0.1008
  436MOL0     O60066  11.035  10.002   6.794 -0.1430 -0.5746  0.2078
  436MOL0     C60067  11.113   9.982   6.911 -1.3704  0.7390 -1.1567
  436MOL0     C60068  11.232  10.084   6.913  0.0921 -0.7472  0.2353
  436MOL0     C60069  11.353  10.034   6.983 -0.1043 -0.3436  0.3944
  436MOL0     C60070  11.332   9.996   7.137  0.7612 -0.0870  0.6812
  436MOL0     C60071  11.458   9.964   7.206 -1.0542  0.0160  0.1054
  436MOL0     C60072  11.442   9.942   7.351 -0.2795  0.4757 -0.6750
  436MOL0     C60073  11.581   9.892   7.397  0.1913  0.6865 -0.5512
  436MOL0     C60074  11.600   9.881   7.547  0.1710 -0.5760  0.1131
  436MOL0    Cl60075  11.574  10.036   7.636  0.2983  0.1523 -0.0781
  436MOL0     C60076  10.833  10.060   6.894  0.2366  0.2493  0.2264
  436MOL0     C60077  10.715  10.127   6.900  0.1695 -0.4299  0.4609
  436MOL0     O60078  10.442  10.093   6.776  0.2037  0.2725  0.0243
  436MOL0     C60079  10.199  10.213   6.803  0.6702 -0.2288 -0.2587
  436MOL0     C60080  10.062  10.262   6.819 -0.0300  0.2790 -0.2111
  436MOL0     N60081   9.483  10.673   7.123 -0.9818  0.3727  0.3698
  436MOL0     N60082   9.485  10.652   7.243  0.4124 -0.2077 -0.2496
  436MOL0     C60083   8.491  10.450   7.871 -0.5099  0.2353 -0.2694
  436MOL0     C60084   8.373  10.399   7.921  0.6598  0.6975  0.4400
  436MOL0     C60085   7.925  10.322   7.898 -0.1184 -0.1518  0.2652
  436MOL0     C60086   7.854  10.437   7.944  0.2751 -0.1184 -1.2126
  436MOL0     C60087   7.719  10.431   7.971  0.6308 -0.0773 -0.0408
  436MOL0     C60088   7.644  10.320   7.939  0.3714 -0.2940  0.2193
  436MOL0     O60089   7.509  10.325   7.978 -0.9578  0.5428  0.5758
  436MOL0     C60090   7.405  10.246   7.915  0.4153  0.2565  0.1695
  436MOL0     C60091   7.417  10.244   7.758  0.5199  0.4228  0.0617
  436MOL0     C60092   7.337  10.126   7.706  0.1390  0.2958 -1.1870
  436MOL0     C60093   7.237  10.151   7.595  0.5396  0.2795  0.0586
  436MOL0     C60094   7.189  10.020   7.544 -0.3709  0.1707 -0.2986
  436MOL0     C60095   7.138   9.927   7.481  0.2192  0.4821  0.2855
  436MOL0     C60096   7.712  10.209   7.893  1.0532  0.2129  0.3716
  436MOL0     C60097   7.844  10.211   7.865 -0.5286 -0.0665  0.7399
  436MOL0     C60098   7.912  10.082   7.830  0.3165  0.8222 -0.1282
  436MOL0     H60099   8.178  10.668   7.839 -0.9643 -1.1391  0.2424
  436MOL0     H60100   8.394  10.757   7.762 -2.6197 -0.0797 -0.3418
  436MOL0     H60101   8.615  10.822   7.777 -1.1677 -0.5941  0.8334
  436MOL0     H60102   8.604  10.733   7.621 -0.3128 -1.3635  0.2629
  436MOL0     H60103   8.824  10.852   7.651 -0.4963  1.8088  1.7137
  436MOL0     H60104   8.852  10.771   7.799 -1.0480 -0.1825  0.2970
  436MOL0     H60105   8.852  10.550   7.703  0.8974 -0.0874  0.5070
  436MOL0     H60106   8.807  10.610   7.545  1.1735 -0.7531 -0.7271
  436MOL0     H60107   9.019  10.732   7.531 -0.1236 -0.7651 -1.3213
  436MOL0     H60108   9.057  10.676   7.701 -1.2131  0.5165  0.4159
  436MOL0     H60109   9.019  10.492   7.451 -1.4943 -0.2372 -0.2704
  436MOL0     H60110   9.061  10.447   7.616  0.3676 -0.0666 -0.5221
  436MOL0     H60111   9.241  10.648   7.462  0.7706 -0.2765  0.3273
  436MOL0     H60112   9.278  10.549   7.605  1.5231 -2.1157  0.3688
  436MOL0     H60113   9.204  10.427   7.338 -0.5268  0.5975  0.4102
  436MOL0     H60114   9.260  10.349   7.483 -2.8069 -1.4693 -2.2223
  436MOL0     H60115   9.478  10.503   7.468 -0.4676  1.1747 -0.2843
  436MOL0     H60116   9.465  10.356   7.379 -0.6317 -0.5680 -2.4217
  436MOL0     H60117   9.432  10.358   7.115  3.1378 -0.1783  0.4524
  436MOL0     H60118   9.483  10.667   6.869  1.0725  0.7927  0.3217
  436MOL0     H60119   9.425  10.494   6.854 -1.2472  0.2581  1.0552
  436MOL0     H60120   9.654  10.410   6.873 -1.7425 -0.8231 -2.5882
  436MOL0     H60121   9.649  10.540   6.753 -0.2480  2.4258  0.6464
  436MOL0     H60122   9.715  10.705   6.936 -2.9545 -0.8930 -3.1196
  436MOL0     H60123   9.754  10.567   7.037 -0.4529  1.7541  1.8882
  436MOL0     H60124   9.863  10.621   6.755  0.9214 -0.5956  0.3966
  436MOL0     H60125   9.956  10.649   6.907  0.8330  1.0508 -0.9452
  436MOL0     H60126  10.148  10.588   6.813 -1.3846  0.1317 -0.2011
  436MOL0     H60127  10.480  10.511   6.722 -0.1445 -0.6794  0.2089
  436MOL0     H60128  10.483  10.504   6.897  0.9657  0.3299 -1.6874
  436MOL0     H60129  10.380  10.629   6.832 -3.4035 -0.7180  0.8569
  436MOL0     H60130  10.758  10.345   6.640 -1.7123 -1.0391 -0.2462
  436MOL0     H60131  10.983  10.212   6.635  0.9641  2.8036  0.1103
  436MOL0     H60132  11.061  10.005   7.004  1.9566 -0.1135  1.0872
  436MOL0     H60133  11.149   9.879   6.910  1.5951  1.6688  0.3660
  436MOL0     H60134  11.258  10.104   6.809  2.6964  1.3293  1.1461
  436MOL0     H60135  11.210  10.179   6.962  0.0910  0.1724 -1.4735
  436MOL0     H60136  11.416  10.123   6.984  0.2547 -0.5174  3.2929
  436MOL0     H60137  11.394   9.958   6.917 -2.1934 -0.1361 -1.2336
  436MOL0     H60138  11.276   9.903   7.148 -1.0781  0.9227  0.3162
  436MOL0     H60139  11.278  10.082   7.180 -0.0711  0.0057 -0.5079
  436MOL0     H60140  11.503   9.868   7.179  2.7030  1.6142  0.0292
  436MOL0     H60141  11.535  10.038   7.181 -0.3662 -0.7280 -0.0276
  436MOL0     H60142  11.359   9.875   7.376 -0.9462  1.4271 -0.2311
  436MOL0     H60143  11.415  10.037   7.399 -0.8144  0.0924 -0.1998
  436MOL0     H60144  11.661   9.957   7.361  0.7777  0.1783 -0.1882
  436MOL0     H60145  11.598   9.787   7.372 -0.4111 -1.0981  5.0485
  436MOL0     H60146  11.707   9.865   7.564  0.8477 -1.2191 -3.8859
  436MOL0     H60147  11.548   9.793   7.588 -1.4900 -0.2288 -1.1449
  436MOL0     H60148  10.842   9.976   6.961 -1.9034 -0.8687 -0.7779
  436MOL0     H60149  10.638  10.100   6.972 -1.1032  1.4845 -0.1174
  436MOL0     H60150  10.201  10.105   6.804  0.1481 -0.2660  1.6684
  436MOL0     H60151   9.974  10.199   6.811 -1.0418  1.6284 -0.0791
  436MOL0     H60152   8.582  10.391   7.880  1.6752  3.4419  0.5316
  436MOL0     H60153   8.362  10.295   7.952  0.4459  0.4159 -0.5575
  436MOL0     H60154   7.890  10.538   7.957 -2.0616  0.4108  3.8660
  436MOL0     H60155   7.656  10.513   8.002  2.3739  1.4543 -0.3708
  436MOL0     H60156   7.416  10.152   7.970 -0.5037  0.7654  1.2658
  436MOL0     H60157   7.307  10.283   7.945  0.5539  1.0127 -0.2728
  436MOL0     H60158   7.517  10.239   7.713  0.9314  1.7954  0.7803
  436MOL0     H60159   7.378  10.337   7.716 -1.7969  0.4838  2.1072
  436MOL0     H60160   7.404  10.046   7.673 -1.0415 -0.1135 -2.7577
  436MOL0     H60161   7.275  10.075   7.781 -0.9264  1.3940 -1.2940
  436MOL0     H60162   7.269  10.212   7.510  1.6939 -0.5708 -0.1459
  436MOL0     H60163   7.145  10.199   7.630  0.6211  0.5348 -0.0760
  436MOL0     H60164   7.067   9.859   7.438 -0.4826 -0.9042  3.3921
  436MOL0     H60165   7.646  10.127   7.866  0.0207  0.9234  0.7056
  436MOL0     H60166   7.992  10.064   7.902 -1.2646  1.3317  1.8447
  436MOL0     H60167   7.848   9.994   7.844  0.9402  0.5558  1.2340
  436MOL0     H60168   7.941  10.098   7.726  0.6653  0.3018 -0.1178
  437MOL0     O60169   0.208   9.934   1.200  0.5907  0.6642 -0.2838
  437MOL0     C60170   0.135   9.874   1.122 -0.9392  0.6068  0.3773
  437MOL0     O60171   0.176   9.797   1.012  0.1160 -0.0319 -0.1404
  437MOL0     C60172   0.301   9.747   0.999  0.1285 -0.6970 -1.1619
  437MOL0     C60173   0.358   9.682   1.114  1.2412 -0.1135  0.5432
  437MOL0     C60174   0.498   9.648   1.114  1.0475  0.1282  0.2822
  437MOL0     C60175   0.574   9.663   0.998  0.6231  0.0376 -0.7242
  437MOL0     O60176   0.710   9.626   0.996 -0.3567 -0.2443 -0.3154
  437MOL0     C60177   0.786   9.616   1.117 -0.2307 -0.3640  0.2863
  437MOL0     C60178   0.936   9.600   1.091  0.2946  0.1141 -0.5014
  437MOL0     C60179   0.961   9.463   1.025 -1.2242 -0.3826 -0.0396
  437MOL0     C60180   1.106   9.450   0.966 -0.2604 -0.7170  0.3804
  437MOL0     C60181   1.136   9.336   0.877 -0.4000  0.0306 -0.4748
  437MOL0     C60182   1.059   9.336   0.743 -0.4235  0.2218  0.0575
  437MOL0     C60183   1.107   9.218   0.662  0.5598  0.3861  0.6936
  437MOL0     C60184   1.053   9.227   0.516 -0.7119 -0.8506 -0.2695
  437MOL0     N60185   1.086   9.100   0.450 -0.1018 -0.8371  0.7400
  437MOL0     C60186   1.191   9.020   0.492 -0.0251  0.3729 -0.2420
  437MOL0     C60187   1.183   8.924   0.396 -1.1536 -0.0922 -0.6867
  437MOL0     C60188   1.267   8.790   0.393 -0.6557  0.0138  0.0378
  437MOL0     C60189   1.250   8.680   0.287  0.2591 -0.2216  0.1652
  437MOL0     C60190   1.147   8.572   0.339 -0.4715 -0.8936 -0.0949
  437MOL0     C60191   1.002   8.629   0.363 -1.3546 -0.1215  0.1924
  437MOL0     O60192   0.904   8.525   0.355 -0.2613  0.1994 -0.0287
  437MOL0     C60193   0.780   8.571   0.326  0.0247 -0.1294 -0.7438
  437MOL0     C60194   0.696   8.467   0.294 -0.3751  0.3410 -0.4039
  437MOL0     C60195   0.558   8.492   0.268  0.1905  0.6704  0.7953
  437MOL0     C60196   0.473   8.371   0.241  0.1048  0.4172 -0.5370
  437MOL0     C60197   0.504   8.623   0.277 -0.2784 -0.4331  0.0896
  437MOL0     C60198   0.370   8.666   0.239 -0.2096  0.7325 -0.4119
  437MOL0     O60199   0.351   8.803   0.230  0.2759 -0.4385 -0.5994
  437MOL0     C60200   0.228   8.833   0.187 -0.4911  0.6558 -0.5500
  437MOL0     C60201   0.125   8.839   0.278  0.3515 -0.0374  0.0911
  437MOL0     C60202  -0.004   8.882   0.237  0.4366  0.3505 -0.4554
  437MOL0     C60203  -0.033   8.925   0.111  0.7040  0.3448  0.8627
  437MOL0     O60204  -0.162   8.973   0.096  0.4083  0.3323 -0.0332
  437MOL0     C60205  -0.219   8.981  -0.035 -0.4286 -0.8592 -0.0368
  437MOL0     C60206  -0.343   9.063   0.000  0.0667  0.0897 -0.8496
  437MOL0     C60207  -0.448   9.064  -0.119 -1.1016  0.0056 -0.3769
  437MOL0     C60208  -0.553   9.163  -0.090 -0.2991 -0.0009 -0.2895
  437MOL0     C60209  -0.627   9.193  -0.215 -0.2979 -0.2985 -0.2252
  437MOL0     C60210  -0.744   9.287  -0.195  0.0317  0.4885 -0.1721
  437MOL0     C60211  -0.874   9.212  -0.145  0.2765  0.3387  0.0917
  437MOL0     C60212  -0.937   9.144  -0.265  0.2644 -0.0714 -0.6577
  437MOL0    Cl60213  -1.113   9.102  -0.238  0.6353 -0.3928 -0.1778
  437MOL0     C60214   0.074   8.923   0.016  0.6737  1.1122  0.2413
  437MOL0     C60215   0.198   8.868   0.058 -0.0409 -1.1826 -0.4506
  437MOL0     O60216   0.297   8.580   0.193  0.1350  0.1822 -0.3525
  437MOL0     C60217   0.593   8.721   0.315  0.4300 -0.4822  0.4247
  437MOL0     C60218   0.723   8.696   0.353 -0.5906 -0.7215 -0.3690
  437MOL0     N60219   1.081   8.943   0.303 -0.2140 -0.8463 -0.4807
  437MOL0     N60220   1.020   9.054   0.340 -0.0279 -0.1460  0.4396
  437MOL0     C60221   0.517   9.715   0.889 -0.5190 -1.0051  0.1886
  437MOL0     C60222   0.388   9.769   0.893  0.9604  0.4714  0.2662
  437MOL0     C60223  -0.011   9.905   1.131 -0.8765  0.2045 -0.0828
  437MOL0     C60224  -0.062  10.039   1.161 -0.1170  0.5286 -0.3653
  437MOL0     C60225  -0.203  10.069   1.167  0.5961  0.5858  0.1254
  437MOL0     C60226  -0.293   9.968   1.144  0.3523  0.8713  0.1267
  437MOL0     O60227  -0.432   9.996   1.147 -0.5337 -0.4147  0.0125
  437MOL0     C60228  -0.530   9.893   1.109 -0.2185 -0.3237 -0.3885
  437MOL0     C60229  -0.663   9.940   1.129  0.5741  0.2647 -0.6681
  437MOL0     C60230  -0.777   9.832   1.092 -0.2348 -0.5634  0.1385
  437MOL0     C60231  -0.919   9.893   1.137 -0.6551 -0.4838  0.1191
  437MOL0     C60232  -1.020   9.792   1.106 -0.6958  0.1815 -0.1172
  437MOL0     C60233  -1.105   9.698   1.094 -0.4548 -0.3778  0.8165
  437MOL0     C60234  -0.247   9.837   1.130 -0.1443  0.4608  0.3671
  437MOL0     C60235  -0.107   9.805   1.124 -0.2860  0.7667  0.1278
  437MOL0     C60236  -0.086   9.649   1.106  0.1982 -0.4649 -0.5947
  437MOL0     H60237   0.297   9.666   1.202 -0.8997 -0.9038 -0.9881
  437MOL0     H60238   0.541   9.600   1.200 -0.7405 -0.6674  0.7830
  437MOL0     H60239   0.757   9.529   1.178 -2.3494 -0.0281 -0.1857
  437MOL0     H60240   0.772   9.711   1.168 -1.6894  0.1550 -1.0247
  437MOL0     H60241   0.962   9.687   1.031 -1.5722  0.4184 -0.9300
  437MOL0     H60242   0.994   9.605   1.183  0.1007 -1.0180 -0.2957
  437MOL0     H60243   0.955   9.392   1.108  0.0479 -0.0474  0.3687
  437MOL0     H60244   0.891   9.452   0.943  0.4543 -0.5291 -1.5143
  437MOL0     H60245   1.120   9.536   0.900 -0.2651 -1.4845 -0.6518
  437MOL0     H60246   1.165   9.452   1.057 -0.9398  1.0968  0.8339
  437MOL0     H60247   1.104   9.240   0.919  4.2049 -1.3148  0.6013
  437MOL0     H60248   1.243   9.315   0.868 -0.5882 -1.1973 -0.1055
  437MOL0     H60249   0.950   9.341   0.756 -0.3383  0.3720  0.7400
  437MOL0     H60250   1.089   9.428   0.693  3.3514 -1.0402 -0.2823
  437MOL0     H60251   1.082   9.123   0.709 -1.5327  0.2503 -0.5560
  437MOL0     H60252   1.213   9.242   0.652  0.5654 -0.3680 -1.3562
  437MOL0     H60253   0.945   9.245   0.507 -0.2613  1.9863 -1.2707
  437MOL0     H60254   1.103   9.313   0.470  3.4156 -1.1586  3.0811
  437MOL0     H60255   1.259   9.022   0.577  0.1034 -0.2401 -0.3285
  437MOL0     H60256   1.260   8.741   0.490  2.7222  0.7698  0.7851
  437MOL0     H60257   1.370   8.824   0.379 -0.0983 -2.3406 -2.4320
  437MOL0     H60258   1.220   8.726   0.192 -0.6794  0.9109  0.9692
  437MOL0     H60259   1.349   8.637   0.270  0.0954 -0.2767 -0.6942
  437MOL0     H60260   1.142   8.492   0.265  1.4899 -1.4921  0.3780
  437MOL0     H60261   1.184   8.522   0.428  3.0110 -0.2843 -1.0425
  437MOL0     H60262   1.005   8.682   0.459  1.3768 -1.5770  1.0261
  437MOL0     H60263   0.997   8.699   0.279  1.1422 -1.5037 -1.2158
  437MOL0     H60264   0.732   8.367   0.273 -0.7580 -0.1302  1.0695
  437MOL0     H60265   0.421   8.374   0.145 -0.3875 -2.0267 -0.4161
  437MOL0     H60266   0.396   8.364   0.318  2.9437 -1.1111  2.4300
  437MOL0     H60267   0.535   8.282   0.255 -0.6237  0.1908  1.6464
  437MOL0     H60268   0.152   8.816   0.381  2.6477  1.0528 -0.2129
  437MOL0     H60269  -0.082   8.899   0.311  1.5308 -1.6125  1.2513
  437MOL0     H60270  -0.153   9.035  -0.104 -2.4995  1.2551 -0.4809
  437MOL0     H60271  -0.237   8.881  -0.076  0.3529 -0.3531 -1.6976
  437MOL0     H60272  -0.403   9.027   0.084  0.9048  2.8693  1.1060
  437MOL0     H60273  -0.325   9.167   0.028  1.0887 -0.6264  1.4113
  437MOL0     H60274  -0.496   8.968  -0.138 -2.1294  0.5636 -0.6694
  437MOL0     H60275  -0.399   9.086  -0.214 -2.1903 -2.2808 -1.5454
  437MOL0     H60276  -0.521   9.261  -0.054 -0.9288  0.9655 -2.1965
  437MOL0     H60277  -0.629   9.127  -0.021 -1.7925 -0.9221 -2.3240
  437MOL0     H60278  -0.567   9.237  -0.296 -3.1276 -0.9815 -2.9203
  437MOL0     H60279  -0.662   9.100  -0.261  0.8260 -1.0256  0.3566
  437MOL0     H60280  -0.774   9.330  -0.290 -1.9641 -2.0741 -0.8490
  437MOL0     H60281  -0.713   9.365  -0.125 -0.0199  0.8474 -0.5480
  437MOL0     H60282  -0.944   9.287  -0.107 -0.4077 -0.9774  1.4980
  437MOL0     H60283  -0.858   9.135  -0.070  2.6993  0.5672 -0.0931
  437MOL0     H60284  -0.882   9.052  -0.282  1.0498  0.4150 -0.7675
  437MOL0     H60285  -0.938   9.207  -0.355  0.4104  2.5632  1.0825
  437MOL0     H60286   0.062   8.962  -0.084  1.0704  2.1881  0.5947
  437MOL0     H60287   0.285   8.881  -0.005  0.4945  0.1895  0.5070
  437MOL0     H60288   0.556   8.823   0.321  1.0539 -0.3160  4.1216
  437MOL0     H60289   0.781   8.780   0.390 -2.5316  0.6083 -0.2012
  437MOL0     H60290   0.570   9.732   0.796 -0.5068 -2.0714 -0.0157
  437MOL0     H60291   0.347   9.821   0.807 -0.6653  1.9100  1.8269
  437MOL0     H60292   0.015  10.113   1.184  1.8157 -1.1374 -1.1785
  437MOL0     H60293  -0.245  10.168   1.184 -0.3556  0.0327  1.0799
  437MOL0     H60294  -0.518   9.864   1.004  3.3588  0.0239 -0.1878
  437MOL0     H60295  -0.524   9.807   1.175  2.3219 -0.3320 -0.5336
  437MOL0     H60296  -0.690  10.027   1.068  2.0814  0.8460 -0.5583
  437MOL0     H60297  -0.670   9.980   1.231  0.5122  0.8886 -0.9102
  437MOL0     H60298  -0.781   9.808   0.985 -1.5526 -3.3010  0.6867
  437MOL0     H60299  -0.764   9.736   1.143 -2.0154 -0.5479  0.6999
  437MOL0     H60300  -0.955   9.985   1.091  0.1057 -1.5156 -2.7250
  437MOL0     H60301  -0.916   9.903   1.246 -0.5434  0.2121  0.0630
  437MOL0     H60302  -1.181   9.624   1.078 -0.2218  0.0588 -3.3432
  437MOL0     H60303  -0.325   9.761   1.127 -0.3520  0.6414  0.9581
  437MOL0     H60304   0.001   9.627   1.044 -0.6306 -2.4857 -1.1226
  437MOL0     H60305  -0.066   9.611   1.207  3.0517  3.1098  0.4062
  437MOL0     H60306  -0.167   9.603   1.049  0.8054  0.2737 -2.1088
  438MOL0     O60307   1.348   4.342   2.024 -0.8357 -0.6442 -0.3151
  438MOL0     C60308   1.292   4.248   2.081  0.5131 -0.9868  0.1564
  438MOL0     O60309   1.324   4.118   2.069 -0.2638  0.7465 -0.2737
  438MOL0     C60310   1.443   4.070   2.018  0.1791  0.3712  0.2765
  438MOL0     C60311   1.506   4.135   1.915 -0.2839  0.7089 -0.0337
  438MOL0     C60312   1.610   4.061   1.856 -0.5151  0.4575  0.1183
  438MOL0     C60313   1.667   3.939   1.911  0.0264 -0.5754  0.2625
  438MOL0     O60314   1.776   3.882   1.860  0.3015 -0.4187  0.4724
  438MOL0     C60315   1.899   3.855   1.934  1.1771 -0.2939 -0.4157
  438MOL0     C60316   2.005   3.819   1.832  0.4054 -0.3426 -0.0377
  438MOL0     C60317   1.971   3.676   1.790  0.3017  0.4238  1.1693
  438MOL0     C60318   2.076   3.624   1.687  0.5576 -0.0195  0.4949
  438MOL0     C60319   2.067   3.476   1.645  0.6741  0.1717 -0.4014
  438MOL0     C60320   2.116   3.397   1.764  0.3325 -0.6483 -0.1747
  438MOL0     C60321   2.129   3.245   1.735  0.2527  0.6232  1.4326
  438MOL0     C60322   2.205   3.161   1.841 -0.5446  0.1826 -0.1658
  438MOL0     N60323   2.348   3.201   1.871 -0.2759  0.2570  0.6885
  438MOL0     C60324   2.400   3.295   1.954  0.2797  0.0792  0.1403
  438MOL0     C60325   2.532   3.278   1.948  0.2950  0.3136  0.5920
  438MOL0     C60326   2.632   3.368   2.009  0.1717  0.3891 -0.3791
  438MOL0     C60327   2.710   3.282   2.103 -0.1935  0.0751  0.9844
  438MOL0     C60328   2.794   3.377   2.187 -0.8849  1.2481 -0.8632
  438MOL0     C60329   2.919   3.316   2.260 -0.8866 -0.3368 -0.1758
  438MOL0     O60330   2.881   3.201   2.336  0.0438  0.0208  0.3221
  438MOL0     C60331   2.941   3.081   2.307 -0.0872  0.2271  0.5278
  438MOL0     C60332   2.953   2.995   2.411  0.8239  0.2119 -0.1057
  438MOL0     C60333   3.020   2.869   2.394 -0.8031 -0.3618  0.6832
  438MOL0     C60334   3.034   2.778   2.519 -0.0407  0.2046 -0.0260
  438MOL0     C60335   3.081   2.835   2.269  0.3749 -0.4076 -0.2584
  438MOL0     C60336   3.149   2.714   2.244 -0.7571  0.3771 -1.0227
  438MOL0     O60337   3.268   2.732   2.187  0.8438  0.0535  0.2352
  438MOL0     C60338   3.334   2.628   2.136 -0.1383  0.3591  0.3383
  438MOL0     C60339   3.276   2.513   2.077  1.1114  0.4283  0.2105
  438MOL0     C60340   3.360   2.420   2.009  0.4104 -0.5327  0.1256
  438MOL0     C60341   3.501   2.445   1.992  1.3207  0.3826 -0.0913
  438MOL0     O60342   3.570   2.353   1.912 -0.3598 -0.7368 -0.3023
  438MOL0     C60343   3.716   2.335   1.929 -0.3088 -0.3420  0.2125
  438MOL0     C60344   3.792   2.361   1.798  0.2478  0.1629 -0.6829
  438MOL0     C60345   3.940   2.347   1.823 -0.0909 -0.0584  0.3076
  438MOL0     C60346   4.019   2.380   1.687 -0.4820 -0.1281 -0.6432
  438MOL0     C60347   4.166   2.332   1.709  0.2247  0.2150 -0.3139
  438MOL0     C60348   4.209   2.195   1.656 -0.6308  0.7949 -1.1312
  438MOL0     C60349   4.342   2.139   1.712 -1.0262  0.1821 -0.0323
  438MOL0     C60350   4.413   2.032   1.622  0.5214 -0.5265 -0.1706
  438MOL0    Cl60351   4.491   2.108   1.495 -0.0247  0.1151  0.2677
  438MOL0     C60352   3.550   2.564   2.053 -0.2166 -0.1267  0.7271
  438MOL0     C60353   3.467   2.649   2.123  0.2847 -0.8669  0.1946
  438MOL0     O60354   3.107   2.605   2.288  0.7309 -0.7911  0.0939
  438MOL0     C60355   3.059   2.923   2.158  0.2051  0.3859 -0.1158
  438MOL0     C60356   2.989   3.042   2.181  0.6747  0.2042  0.0227
  438MOL0     N60357   2.556   3.169   1.868 -0.7751  0.5191 -0.3690
  438MOL0     N60358   2.449   3.127   1.820 -0.3347 -0.3577  0.7031
  438MOL0     C60359   1.613   3.893   2.030  0.0313 -0.1297 -0.0233
  438MOL0     C60360   1.496   3.955   2.073  0.3071 -0.0859  0.1977
  438MOL0     C60361   1.148   4.273   2.116 -0.2675 -0.2807  0.3655
  438MOL0     C60362   1.055   4.173   2.071  0.2677  0.6541 -0.4203
  438MOL0     C60363   0.915   4.194   2.083  0.4103 -0.3083  0.0033
  438MOL0     C60364   0.872   4.299   2.158 -0.2986 -0.0158  0.1329
  438MOL0     O60365   0.740   4.329   2.196 -0.0382  0.1511 -1.0480
  438MOL0     C60366   0.637   4.301   2.100 -0.7994  0.1092  0.2424
  438MOL0     C60367   0.498   4.359   2.118  0.3398  0.1584 -0.6706
  438MOL0     C60368   0.479   4.379   2.273  0.1634  0.1008 -0.2593
  438MOL0     C60369   0.356   4.471   2.297 -0.1743 -0.0921  0.2538
  438MOL0     C60370   0.350   4.500   2.443  0.2704 -0.1262 -0.2078
  438MOL0     C60371   0.353   4.525   2.559 -0.4471  0.1322  0.8598
  438MOL0     C60372   0.965   4.382   2.219 -0.1071  0.4575 -0.9650
  438MOL0     C60373   1.103   4.374   2.201  0.9703  0.0940 -0.2712
  438MOL0     C60374   1.188   4.476   2.277 -0.3839  0.0647 -0.3699
  438MOL0     H60375   1.479   4.231   1.872  3.3143  2.1430  0.5668
  438MOL0     H60376   1.661   4.110   1.773 -1.0983 -0.9295 -1.1016
  438MOL0     H60377   1.884   3.771   2.002  1.0018  0.3141  0.3147
  438MOL0     H60378   1.933   3.941   1.993  1.2275 -1.2730  1.0174
  438MOL0     H60379   2.005   3.889   1.748 -0.1380  1.1417  1.1512
  438MOL0     H60380   2.101   3.822   1.884 -0.1683  0.6770  1.0255
  438MOL0     H60381   1.945   3.606   1.870 -4.6103  0.3089 -0.1772
  438MOL0     H60382   1.874   3.677   1.740 -0.3653  1.2987  2.4177
  438MOL0     H60383   2.072   3.693   1.603 -1.3189 -0.8865 -0.1719
  438MOL0     H60384   2.174   3.647   1.731 -0.0258  0.8233  1.3839
  438MOL0     H60385   2.135   3.463   1.559 -2.4857  0.3961 -3.1349
  438MOL0     H60386   1.965   3.450   1.617  0.4959  0.0044  0.4062
  438MOL0     H60387   2.211   3.447   1.787 -0.8870  1.6844  0.0960
  438MOL0     H60388   2.049   3.413   1.849  0.3529 -0.4766 -0.1914
  438MOL0     H60389   2.168   3.234   1.634  2.5751 -0.0435  2.3349
  438MOL0     H60390   2.029   3.202   1.725  0.4845  0.4944 -0.8513
  438MOL0     H60391   2.153   3.164   1.937 -1.1394 -4.2750 -0.1438
  438MOL0     H60392   2.200   3.059   1.803 -3.5931 -1.4625  3.9509
  438MOL0     H60393   2.352   3.372   2.011  0.8173  0.6964 -0.2246
  438MOL0     H60394   2.580   3.440   2.074  1.0320  0.1762  0.5798
  438MOL0     H60395   2.689   3.428   1.938 -1.4315 -0.5365 -2.5768
  438MOL0     H60396   2.647   3.229   2.174  1.1490 -1.9892  0.7211
  438MOL0     H60397   2.761   3.206   2.043 -3.6322 -0.8355 -1.0466
  438MOL0     H60398   2.831   3.455   2.120 -2.7439  1.2460 -1.9770
  438MOL0     H60399   2.725   3.425   2.257  1.4503  2.5445  0.6903
  438MOL0     H60400   2.995   3.294   2.185 -0.0975  1.6354 -0.0131
  438MOL0     H60401   2.969   3.386   2.327 -1.2231  0.2103 -0.4814
  438MOL0     H60402   2.909   3.035   2.502  0.7733  2.4504 -1.0633
  438MOL0     H60403   3.024   2.848   2.603  3.0393 -0.4575  1.0426
  438MOL0     H60404   3.132   2.730   2.530  0.1735  0.8171  0.8970
  438MOL0     H60405   2.953   2.706   2.513 -0.0849  0.2888 -0.5011
  438MOL0     H60406   3.170   2.492   2.078  0.6296  2.4459 -1.8481
  438MOL0     H60407   3.314   2.338   1.953 -3.1424  1.6016 -0.3772
  438MOL0     H60408   3.753   2.405   2.005  1.0494 -0.4062 -0.3617
  438MOL0     H60409   3.734   2.231   1.957 -2.7186 -0.7665  0.3983
  438MOL0     H60410   3.759   2.296   1.717  1.4263  0.2871 -1.2847
  438MOL0     H60411   3.755   2.460   1.771 -1.0069  0.3834  1.5978
  438MOL0     H60412   3.977   2.250   1.857  1.2219  0.2592 -0.1457
  438MOL0     H60413   3.965   2.425   1.896 -4.8895  2.2312 -0.1446
  438MOL0     H60414   4.018   2.488   1.669  0.7551  0.1664  0.8174
  438MOL0     H60415   3.973   2.326   1.603 -1.6791 -0.8691  0.4549
  438MOL0     H60416   4.219   2.418   1.667 -0.7529  0.9667 -0.0554
  438MOL0     H60417   4.187   2.330   1.816 -0.6708 -0.7644 -0.1342
  438MOL0     H60418   4.209   2.198   1.546  0.9836 -1.9377 -1.3199
  438MOL0     H60419   4.140   2.113   1.677  1.4592 -0.6308  0.5259
  438MOL0     H60420   4.317   2.079   1.799 -2.1989 -1.2013 -1.2712
  438MOL0     H60421   4.415   2.221   1.723 -2.3450  1.5798 -1.2213
  438MOL0     H60422   4.353   1.943   1.604 -1.5216  0.1257  2.6335
  438MOL0     H60423   4.496   1.985   1.675  0.4140 -2.0808 -1.3124
  438MOL0     H60424   3.655   2.590   2.055 -0.8249  2.5307  1.3224
  438MOL0     H60425   3.506   2.744   2.159 -0.8240 -0.1993 -0.3127
  438MOL0     H60426   3.100   2.893   2.062  1.2353 -2.3280  1.0695
  438MOL0     H60427   2.978   3.100   2.089 -1.2858  1.0499  0.7420
  438MOL0     H60428   1.652   3.799   2.067  0.8318 -0.0536 -0.6577
  438MOL0     H60429   1.450   3.910   2.160 -0.0639 -1.6268 -0.7540
  438MOL0     H60430   1.083   4.078   2.026 -0.0368  0.4979 -0.2802
  438MOL0     H60431   0.839   4.126   2.045 -1.7176 -0.3141  3.8001
  438MOL0     H60432   0.668   4.323   1.997  0.6029 -2.9171 -0.1023
  438MOL0     H60433   0.624   4.193   2.103  0.9454 -0.1579  4.0545
  438MOL0     H60434   0.413   4.305   2.075  2.8141 -2.5592 -2.5607
  438MOL0     H60435   0.482   4.459   2.078 -1.1289  1.2928  2.4328
  438MOL0     H60436   0.453   4.289   2.330 -0.3929  0.2411 -0.2853
  438MOL0     H60437   0.567   4.428   2.318 -0.0341 -0.7584  1.1144
  438MOL0     H60438   0.276   4.412   2.252 -0.1594 -0.6606  0.9600
  438MOL0     H60439   0.364   4.565   2.241  2.9357 -1.0521 -1.1879
  438MOL0     H60440   0.345   4.531   2.666 -0.2927  1.1341  0.8269
  438MOL0     H60441   0.921   4.454   2.288 -0.2443 -1.3971  0.9898
  438MOL0     H60442   1.197   4.456   2.384  1.2809  2.2942 -0.0245
  438MOL0     H60443   1.287   4.481   2.230  0.0121  0.3884  0.4778
  438MOL0     H60444   1.151   4.579   2.274 -1.1569 -0.1843  0.4166
  439MOL0     O60445   9.130   6.974  10.638 -0.0663  0.0862 -0.2464
  439MOL0     C60446   9.023   6.977  10.708 -0.7381 -0.1719 -0.2375
  439MOL0     O60447   9.024   7.026  10.837 -0.0455  0.4655  0.0058
  439MOL0     C60448   9.148   7.049  10.891 -0.2524 -0.7283  0.7967
  439MOL0     C60449   9.230   7.158  10.849 -0.1140  0.7089  0.1999
  439MOL0     C60450   9.355   7.173  10.909  0.3721 -0.6419  0.1144
  439MOL0     C60451   9.404   7.087  11.007  0.6959  0.0704  0.3872
  439MOL0     O60452   9.519   7.114  11.073  0.3422 -0.8973  0.3199
  439MOL0     C60453   9.629   7.144  10.991 -1.2295  0.2541  0.2691
  439MOL0     C60454   9.705   7.248  11.070 -0.1276  1.6465 -0.5933
  439MOL0     C60455   9.856   7.264  11.023 -0.1795  0.5817  0.1537
  439MOL0     C60456   9.868   7.344  10.897 -0.6342 -0.6917 -0.0249
  439MOL0     C60457  10.016   7.364  10.859 -0.1986 -0.0802 -0.4328
  439MOL0     C60458  10.104   7.462  10.951  0.1381  0.1058  0.5778
  439MOL0     C60459  10.233   7.499  10.884  1.4840 -0.5713  1.1457
  439MOL0     C60460  10.195   7.599  10.765  0.4909 -0.4706 -0.5856
  439MOL0     N60461  10.331   7.604  10.704 -0.6765  0.0065  0.0555
  439MOL0     C60462  10.438   7.688  10.744  0.1732  0.4291 -0.0892
  439MOL0     C60463  10.530   7.683  10.652  0.3786 -0.6239  0.3479
  439MOL0     C60464  10.672   7.735  10.646 -0.4071 -0.5191  0.3792
  439MOL0     C60465  10.755   7.611  10.704 -1.0151  0.4134  0.4491
  439MOL0     C60466  10.902   7.646  10.709  0.0616 -0.3269 -0.7844
  439MOL0     C60467  10.995   7.526  10.739  0.7311 -0.2047  0.5628
  439MOL0     O60468  11.128   7.570  10.729  0.2943  0.2140 -0.3826
  439MOL0     C60469  11.232   7.476  10.727 -0.1899 -0.4067  0.7409
  439MOL0     C60470  11.358   7.533  10.715  1.0405 -0.6265  0.6376
  439MOL0     C60471  11.467   7.456  10.677  0.4236  0.2831  1.5824
  439MOL0     C60472  11.589   7.537  10.643  1.0781  0.1394 -0.0000
  439MOL0     C60473  11.458   7.316  10.687 -0.2155  0.0885 -0.3516
  439MOL0     C60474  11.581   7.227  10.667  0.1641  0.8658 -0.8425
  439MOL0     O60475  11.558   7.092  10.667  0.8189  0.0600 -0.5159
  439MOL0     C60476  11.661   7.013  10.719 -0.1792  0.6975  0.5969
  439MOL0     C60477  11.654   6.953  10.848  0.0044  0.2758 -0.8996
  439MOL0     C60478  11.766   6.889  10.899  0.5743  0.1418  0.1274
  439MOL0     C60479  11.883   6.875  10.827  0.5258 -0.7509  0.3204
  439MOL0     O60480  11.997   6.815  10.867  0.5901  0.0155 -0.4641
  439MOL0     C60481  12.005   6.725  10.986 -0.3060 -0.4203 -0.5559
  439MOL0     C60482  12.148   6.684  11.009 -0.8690 -0.1541 -0.0974
  439MOL0     C60483  12.169   6.560  11.102 -0.1238 -0.7531  0.3254
  439MOL0     C60484  12.318   6.520  11.108  0.3270 -0.8288  0.2195
  439MOL0     C60485  12.330   6.370  11.135 -0.0990 -1.2912 -0.1285
  439MOL0     C60486  12.472   6.322  11.092 -0.3234 -0.1913  0.6221
  439MOL0     C60487  12.585   6.397  11.161 -0.4636 -0.0324 -0.2086
  439MOL0     C60488  12.708   6.311  11.172 -0.7529 -1.1927 -0.5468
  439MOL0    Cl60489  12.826   6.400  11.284 -0.0297  0.0567 -0.1039
  439MOL0     C60490  11.886   6.934  10.701  0.3093 -0.7454  0.6307
  439MOL0     C60491  11.777   6.991  10.641 -0.4562 -0.2735  0.4473
  439MOL0     O60492  11.693   7.274  10.668 -0.3008 -0.5470  1.3329
  439MOL0     C60493  11.341   7.254  10.718  0.2583  0.9098  0.4517
  439MOL0     C60494  11.227   7.337  10.741 -0.6835  0.2262  0.6866
  439MOL0     N60495  10.472   7.601  10.554 -0.2133 -0.2175  0.8744
  439MOL0     N60496  10.357   7.558  10.587 -0.4132 -0.2663  1.3858
  439MOL0     C60497   9.329   6.972  11.037 -0.1931 -0.6168  0.0742
  439MOL0     C60498   9.198   6.953  10.981 -0.4632  0.3160 -0.3599
  439MOL0     C60499   8.890   6.939  10.647  0.7220 -0.0370 -0.0158
  439MOL0     C60500   8.785   6.905  10.738 -0.6433  0.5981  0.1091
  439MOL0     C60501   8.659   6.881  10.694 -0.4173  0.1266 -0.4116
  439MOL0     C60502   8.627   6.900  10.558 -0.8365  0.1132 -0.0775
  439MOL0     O60503   8.500   6.886  10.523 -0.3636  0.4420  0.3005
  439MOL0     C60504   8.447   7.021  10.512 -0.7476  0.3494  0.1019
  439MOL0     C60505   8.367   7.010  10.383 -0.3148  0.4950 -0.9198
  439MOL0     C60506   8.246   7.110  10.384 -0.6119  0.6751 -1.0701
  439MOL0     C60507   8.175   7.114  10.253 -0.0282 -0.1920 -0.2015
  439MOL0     C60508   8.264   7.160  10.147  0.3610  0.6041 -0.8322
  439MOL0     C60509   8.322   7.224  10.061  0.2388 -0.7977 -0.1523
  439MOL0     C60510   8.726   6.911  10.465 -0.1221 -0.2194  0.8097
  439MOL0     C60511   8.860   6.931  10.507 -0.3810  0.3176 -1.1442
  439MOL0     C60512   8.969   6.933  10.398  0.4238  1.1524 -0.5664
  439MOL0     H60513   9.181   7.216  10.772 -1.5871 -1.0026 -0.2049
  439MOL0     H60514   9.409   7.265  10.890 -0.0107 -0.2454  0.8505
  439MOL0     H60515   9.607   7.180  10.890 -0.0355  1.3206  0.3647
  439MOL0     H60516   9.692   7.057  10.975  1.6772  2.3208 -0.2754
  439MOL0     H60517   9.648   7.339  11.050 -1.2218  0.7925 -1.4975
  439MOL0     H60518   9.697   7.220  11.175 -1.2977  0.3402 -1.0053
  439MOL0     H60519   9.916   7.310  11.102  0.3987 -1.3881  0.9202
  439MOL0     H60520   9.900   7.164  11.013 -0.7449  0.3910 -0.5035
  439MOL0     H60521   9.819   7.287  10.818 -1.4055 -3.3712  2.2011
  439MOL0     H60522   9.808   7.435  10.900 -0.5921 -0.6878  1.3852
  439MOL0     H60523  10.009   7.386  10.752  1.1709  0.4056 -0.4413
  439MOL0     H60524  10.063   7.266  10.864 -0.6348 -0.2970 -0.5069
  439MOL0     H60525  10.032   7.543  10.965 -0.2754  0.0932 -1.1433
  439MOL0     H60526  10.130   7.411  11.044  1.5117  4.0735  2.5794
  439MOL0     H60527  10.281   7.412  10.836  1.4297 -0.3001  0.5946
  439MOL0     H60528  10.310   7.542  10.949  1.7857  0.1972  0.2948
  439MOL0     H60529  10.114   7.549  10.711  1.9411 -3.7029  0.0206
  439MOL0     H60530  10.161   7.695  10.805 -0.8403 -0.8606 -0.7365
  439MOL0     H60531  10.440   7.733  10.843 -0.6681  3.7963 -1.4950
  439MOL0     H60532  10.683   7.824  10.708  1.3250 -0.0335 -0.5658
  439MOL0     H60533  10.690   7.762  10.542 -0.8956 -0.7995  0.2193
  439MOL0     H60534  10.717   7.588  10.804 -0.6154 -2.6872  0.0009
  439MOL0     H60535  10.728   7.515  10.658  2.0912 -1.9906  3.1065
  439MOL0     H60536  10.939   7.698  10.620  2.7000 -1.3170 -0.3603
  439MOL0     H60537  10.928   7.710  10.794  1.8876 -2.2657  0.2218
  439MOL0     H60538  10.978   7.498  10.843  0.4283  5.4370  2.3729
  439MOL0     H60539  10.979   7.451  10.661 -0.5564  0.8271 -0.2137
  439MOL0     H60540  11.364   7.641  10.718  1.5572 -0.6004 -0.6697
  439MOL0     H60541  11.661   7.522  10.724 -1.0604  1.0116  2.1907
  439MOL0     H60542  11.560   7.642  10.648 -1.2682 -0.4991  1.2926
  439MOL0     H60543  11.636   7.511  10.548 -0.0853  1.6495 -1.0422
  439MOL0     H60544  11.558   6.950  10.898 -0.3359  0.8467 -1.5032
  439MOL0     H60545  11.765   6.829  10.989  0.5464 -1.2429 -0.7750
  439MOL0     H60546  11.964   6.782  11.070 -0.2096 -0.9447 -0.1544
  439MOL0     H60547  11.950   6.631  10.977  0.6511 -1.0395 -0.0300
  439MOL0     H60548  12.197   6.671  10.912  2.8522 -1.2001  1.7265
  439MOL0     H60549  12.197   6.768  11.059  0.0908 -0.7926  0.0800
  439MOL0     H60550  12.110   6.485  11.049 -0.9692  0.2039 -0.1315
  439MOL0     H60551  12.132   6.566  11.205  2.7559 -2.6654  1.5991
  439MOL0     H60552  12.362   6.580  11.188 -2.1242  0.2360  0.8745
  439MOL0     H60553  12.362   6.542  11.010 -0.5359  0.6016  0.1142
  439MOL0     H60554  12.312   6.348  11.241 -0.6056 -1.7028 -0.2946
  439MOL0     H60555  12.264   6.309  11.073 -0.9384  0.2533 -0.7733
  439MOL0     H60556  12.486   6.333  10.984  1.4053  2.8622  1.0611
  439MOL0     H60557  12.469   6.215  11.116  0.0539 -0.0617  1.2614
  439MOL0     H60558  12.556   6.417  11.264  1.5150 -0.8529  0.5652
  439MOL0     H60559  12.604   6.494  11.113  0.1163 -0.1192 -0.1618
  439MOL0     H60560  12.755   6.309  11.073 -1.3640 -1.3049 -0.8385
  439MOL0     H60561  12.681   6.211  11.207 -2.5133 -0.6926 -0.3683
  439MOL0     H60562  11.980   6.923  10.648  0.8080 -1.2886  1.5877
  439MOL0     H60563  11.766   7.040  10.544 -0.2186 -0.3170  0.3973
  439MOL0     H60564  11.350   7.148  10.738  1.3333  0.1669 -3.1999
  439MOL0     H60565  11.133   7.298  10.779  1.1436 -4.4334  1.1122
  439MOL0     H60566   9.356   6.916  11.126 -0.9996 -2.5606 -0.8458
  439MOL0     H60567   9.131   6.870  11.002 -0.0940 -1.4987 -5.1971
  439MOL0     H60568   8.812   6.884  10.841 -0.1082  0.0360 -0.1390
  439MOL0     H60569   8.577   6.847  10.757  0.6532 -1.2702  0.2760
  439MOL0     H60570   8.380   7.037  10.597 -2.1718 -3.1503 -0.1868
  439MOL0     H60571   8.524   7.099  10.510  1.9817 -2.1946 -0.2116
  439MOL0     H60572   8.333   6.908  10.365 -0.2181  0.2698  0.1085
  439MOL0     H60573   8.442   7.017  10.303  0.3555 -0.1186 -0.3631
  439MOL0     H60574   8.173   7.086  10.462  1.4146  1.0881  1.0500
  439MOL0     H60575   8.287   7.206  10.415  0.3904 -0.3765  1.0411
  439MOL0     H60576   8.094   7.187  10.241  1.0071  0.8328 -1.3293
  439MOL0     H60577   8.126   7.020  10.228 -0.1277 -0.3562  0.5957
  439MOL0     H60578   8.377   7.290   9.996 -0.7660 -1.1156 -1.3512
  439MOL0     H60579   8.698   6.894  10.361 -2.9206 -1.6787  1.6852
  439MOL0     H60580   8.919   6.906  10.305  1.2534  0.6955 -0.8888
  439MOL0     H60581   9.014   7.032  10.407 -1.2771  1.9004  0.2794
  439MOL0     H60582   9.050   6.861  10.406 -2.2959 -2.0254  1.2077
  440MOL0     O60583   3.679  10.941   4.125 -0.7612  0.7055  0.1473
  440MOL0     C60584   3.658  11.063   4.136  0.0011 -0.4946 -1.1551
  440MOL0     O60585   3.751  11.162   4.145 -0.4153  0.3330 -0.2060
  440MOL0     C60586   3.886  11.123   4.150  0.3483 -0.5344 -0.2707
  440MOL0     C60587   3.930  11.020   4.228 -0.2037 -0.0345  0.5453
  440MOL0     C60588   4.068  10.989   4.232  0.4797 -0.0532  0.0366
  440MOL0     C60589   4.159  11.070   4.167 -0.0768 -0.4923 -0.3951
  440MOL0     O60590   4.292  11.040   4.178 -0.6308  0.8559  0.0842
  440MOL0     C60591   4.395  11.142   4.185  0.3614  0.0993  0.4395
  440MOL0     C60592   4.523  11.077   4.240 -0.4894  0.2684 -0.2107
  440MOL0     C60593   4.631  11.183   4.219 -0.4519  0.2695 -0.4742
  440MOL0     C60594   4.763  11.111   4.203 -1.0966  0.1281 -0.3492
  440MOL0     C60595   4.873  11.211   4.210 -0.3599  0.1990  0.8970
  440MOL0     C60596   4.895  11.291   4.076  0.0961 -0.2667  0.5990
  440MOL0     C60597   5.035  11.347   4.051 -0.6208 -0.0381  0.0910
  440MOL0     C60598   5.045  11.438   3.923 -0.2944 -0.2949 -0.0527
  440MOL0     N60599   5.166  11.531   3.935 -0.1854  0.0495  0.3349
  440MOL0     C60600   5.185  11.642   4.015 -0.7429  0.5464 -0.3049
  440MOL0     C60601   5.298  11.707   3.971  0.4540  0.4016  0.0024
  440MOL0     C60602   5.352  11.840   4.022 -0.1069  0.3631 -0.2591
  440MOL0     C60603   5.266  11.960   3.993  0.7887  0.8132 -0.2645
  440MOL0     C60604   5.257  12.011   3.846 -0.2552  0.9056 -0.2768
  440MOL0     C60605   5.379  12.089   3.788  0.0466 -0.5256  0.7266
  440MOL0     O60606   5.405  12.212   3.867 -0.3747 -0.2026  0.2331
  440MOL0     C60607   5.513  12.287   3.834  0.0698 -0.0882  0.3883
  440MOL0     C60608   5.600  12.272   3.723 -0.4532  0.8104 -0.3724
  440MOL0     C60609   5.716  12.353   3.713  0.1153  0.9826 -0.0329
  440MOL0     C60610   5.775  12.334   3.581 -0.6361  0.2724 -0.5141
  440MOL0     C60611   5.736  12.465   3.805 -0.2926  0.1756 -0.0225
  440MOL0     C60612   5.863  12.548   3.807  0.7975 -0.1468  0.0028
  440MOL0     O60613   5.954  12.524   3.710  0.7541 -0.8365  0.4092
  440MOL0     C60614   6.047  12.619   3.693 -0.0943  0.9379 -0.5337
  440MOL0     C60615   6.054  12.701   3.579  0.0021  0.1438 -0.4279
  440MOL0     C60616   6.150  12.794   3.555  0.2152  0.2415 -0.3152
  440MOL0     C60617   6.254  12.813   3.642 -0.0602  0.4433 -0.5644
  440MOL0     O60618   6.345  12.911   3.607 -0.7237  0.5463 -0.0079
  440MOL0     C60619   6.406  12.974   3.717 -0.5958 -0.0725  0.1918
  440MOL0     C60620   6.448  13.119   3.683 -0.2064 -0.4255 -1.2033
  440MOL0     C60621   6.331  13.198   3.640  0.3326  0.5104  0.1567
  440MOL0     C60622   6.348  13.350   3.646  0.0990 -0.4868  0.2721
  440MOL0     C60623   6.226  13.422   3.573  0.3683  0.5481 -1.1899
  440MOL0     C60624   6.229  13.576   3.594  0.8968 -0.8390  0.1633
  440MOL0     C60625   6.080  13.629   3.576  0.6210 -0.0891 -0.2880
  440MOL0     C60626   6.081  13.786   3.601 -0.0579 -0.9142  0.6632
  440MOL0    Cl60627   5.916  13.863   3.574 -0.6727 -0.1516 -0.1955
  440MOL0     C60628   6.258  12.729   3.752  0.5891 -0.7452  0.3865
  440MOL0     C60629   6.160  12.632   3.778  0.3386 -0.1343 -0.2149
  440MOL0     O60630   5.870  12.645   3.882  0.6399  0.3520 -0.5011
  440MOL0     C60631   5.639  12.489   3.907 -0.5935  0.2627  0.5064
  440MOL0     C60632   5.536  12.394   3.921  0.6926  0.2688  0.2754
  440MOL0     N60633   5.340  11.632   3.857 -0.1015  0.6158 -0.4261
  440MOL0     N60634   5.262  11.532   3.840  0.4145 -0.2216  0.2950
  440MOL0     C60635   4.120  11.176   4.089 -0.0314  0.3036 -0.6831
  440MOL0     C60636   3.978  11.202   4.081 -0.4397  0.3421 -0.8398
  440MOL0     C60637   3.520  11.127   4.127  1.1461  0.5762  0.2786
  440MOL0     C60638   3.507  11.270   4.123  0.9471 -0.4896 -0.0996
  440MOL0     C60639   3.379  11.332   4.126 -0.1559  0.3372 -0.6484
  440MOL0     C60640   3.254  11.261   4.118  0.3991 -0.5063  0.1774
  440MOL0     O60641   3.139  11.336   4.115 -1.0089  0.5874  0.1417
  440MOL0     C60642   3.015  11.275   4.139  0.2012  0.0578 -0.1261
  440MOL0     C60643   2.974  11.276   4.282  0.5270  0.1086 -0.3735
  440MOL0     C60644   3.081  11.223   4.377  0.7784  0.3887  0.3377
  440MOL0     C60645   3.055  11.276   4.519  0.3615 -0.9502  0.2885
  440MOL0     C60646   3.131  11.224   4.624  0.4007  0.1039 -0.0038
  440MOL0     C60647   3.199  11.162   4.702  0.7352  0.3568  0.4611
  440MOL0     C60648   3.269  11.119   4.108 -0.4906  0.3842 -0.7514
  440MOL0     C60649   3.397  11.059   4.123  0.4831  0.9368  1.0101
  440MOL0     C60650   3.396  10.908   4.131  0.5225 -0.1202 -0.3403
  440MOL0     H60651   3.861  10.959   4.285 -0.8349  1.3023  1.2593
  440MOL0     H60652   4.108  10.899   4.278 -0.9943 -1.4169 -1.2545
  440MOL0     H60653   4.358  11.218   4.254  0.8868  0.7460  0.0161
  440MOL0     H60654   4.428  11.187   4.091  4.3323 -0.8060  1.2136
  440MOL0     H60655   4.515  11.059   4.348  1.2733 -0.9426 -0.2378
  440MOL0     H60656   4.555  10.983   4.194  2.5263  0.6445  0.9210
  440MOL0     H60657   4.609  11.242   4.130 -4.3591 -0.4695 -0.1863
  440MOL0     H60658   4.647  11.256   4.299  0.0439  2.8637 -2.7837
  440MOL0     H60659   4.773  11.047   4.291  1.6863  3.1543  1.8142
  440MOL0     H60660   4.769  11.046   4.116 -0.3559 -0.9444  0.4799
  440MOL0     H60661   4.971  11.172   4.241 -1.5469 -3.1443  0.8653
  440MOL0     H60662   4.860  11.288   4.286 -1.2280  2.2684 -1.2251
  440MOL0     H60663   4.877  11.213   4.002  0.4136  2.5835 -2.7595
  440MOL0     H60664   4.832  11.379   4.063 -0.2502 -0.7920 -1.5761
  440MOL0     H60665   5.114  11.273   4.038 -1.1660 -0.5480 -0.3545
  440MOL0     H60666   5.070  11.416   4.129  2.8688 -1.0093 -0.4408
  440MOL0     H60667   5.059  11.373   3.835  1.1348 -0.1835  0.0658
  440MOL0     H60668   4.967  11.514   3.911  1.3480  1.6669  1.0296
  440MOL0     H60669   5.122  11.668   4.100  2.5287  1.4661  2.0359
  440MOL0     H60670   5.455  11.865   3.994  0.0038 -0.4265 -0.5774
  440MOL0     H60671   5.354  11.838   4.132  1.1977  0.3303 -0.2606
  440MOL0     H60672   5.166  11.933   4.029  0.7299  2.4230  0.8897
  440MOL0     H60673   5.296  12.046   4.053 -1.8623  2.7538 -1.5094
  440MOL0     H60674   5.229  11.923   3.787 -0.5271  0.6546  0.2129
  440MOL0     H60675   5.174  12.082   3.836 -0.0250  1.1817 -0.2250
  440MOL0     H60676   5.463  12.019   3.790 -1.3826 -2.5879 -2.8105
  440MOL0     H60677   5.354  12.115   3.685  0.0707 -1.3755  0.4965
  440MOL0     H60678   5.561  12.194   3.658 -3.2826  2.4025 -0.7045
  440MOL0     H60679   5.876  12.294   3.595 -0.7610 -0.6436 -1.9940
  440MOL0     H60680   5.783  12.438   3.546  3.1846  0.3703  0.1485
  440MOL0     H60681   5.720  12.276   3.506  2.5880 -3.7189 -0.1381
  440MOL0     H60682   5.985  12.690   3.495  1.0050 -0.6532 -1.1720
  440MOL0     H60683   6.154  12.852   3.464  0.2894  1.0006  0.1609
  440MOL0     H60684   6.338  12.975   3.803 -1.6087  2.2868 -0.5670
  440MOL0     H60685   6.503  12.928   3.739 -0.2859 -2.1554 -4.4151
  440MOL0     H60686   6.495  13.173   3.765 -0.6127 -1.1581 -0.4781
  440MOL0     H60687   6.522  13.125   3.602 -1.6399 -2.5775 -2.7961
  440MOL0     H60688   6.240  13.162   3.689  1.0016 -2.6453 -0.6865
  440MOL0     H60689   6.316  13.174   3.534  1.3336 -1.5928  0.4359
  440MOL0     H60690   6.435  13.374   3.585 -1.1422  1.2880 -0.8664
  440MOL0     H60691   6.368  13.369   3.752 -2.4327 -0.7052  0.8540
  440MOL0     H60692   6.227  13.404   3.465 -3.3288 -0.2032 -1.2247
  440MOL0     H60693   6.133  13.387   3.620  2.2899 -2.4445  0.7017
  440MOL0     H60694   6.303  13.621   3.528  1.8519 -0.1260  1.6647
  440MOL0     H60695   6.256  13.604   3.697  1.1170  0.3652 -0.2179
  440MOL0     H60696   6.018  13.584   3.653  2.7239 -2.0570  0.3491
  440MOL0     H60697   6.032  13.602   3.481 -0.4099  1.9757 -0.4237
  440MOL0     H60698   6.156  13.834   3.536  0.7928 -1.6478  1.0823
  440MOL0     H60699   6.122  13.815   3.698  1.7424  0.1300 -0.3409
  440MOL0     H60700   6.347  12.729   3.814  2.3297  1.0274 -1.9284
  440MOL0     H60701   6.159  12.558   3.857 -2.4137 -2.2142 -2.0037
  440MOL0     H60702   5.651  12.570   3.978 -3.7854  1.3268 -0.0030
  440MOL0     H60703   5.459  12.412   3.995  2.0237  2.9177  1.1229
  440MOL0     H60704   4.199  11.224   4.033  0.6464 -0.8285 -0.7193
  440MOL0     H60705   3.947  11.286   4.020  1.9777  0.3758 -2.1289
  440MOL0     H60706   3.595  11.333   4.135  0.1253  1.0393 -1.7369
  440MOL0     H60707   3.381  11.441   4.126 -0.4240  0.3493  0.3807
  440MOL0     H60708   2.932  11.331   4.096 -0.8115 -0.1082  1.5118
  440MOL0     H60709   3.024  11.170   4.111  0.8045 -0.0584  0.4695
  440MOL0     H60710   2.883  11.216   4.291  1.0578 -1.0612 -2.1226
  440MOL0     H60711   2.961  11.382   4.305  0.4196  0.2657 -1.1142
  440MOL0     H60712   3.067  11.114   4.380  0.1097  0.4652  0.2469
  440MOL0     H60713   3.182  11.251   4.347  1.5641 -1.1393  1.4042
  440MOL0     H60714   2.950  11.261   4.546 -0.7254  0.0439 -2.8740
  440MOL0     H60715   3.078  11.383   4.526 -2.4747 -0.3752  3.3659
  440MOL0     H60716   3.251  11.093   4.765  2.5945  0.7993 -0.5031
  440MOL0     H60717   3.184  11.058   4.078 -0.5885  0.4392 -0.5854
  440MOL0     H60718   3.448  10.874   4.040  2.0607  1.1650  0.0146
  440MOL0     H60719   3.458  10.862   4.208 -1.4276 -1.7836  0.3223
  440MOL0     H60720   3.297  10.863   4.134  0.3579 -0.3611 -3.9865
  441MOL0     O60721   5.357   1.731   3.530  0.0427  0.1752  0.1754
  441MOL0     C60722   5.264   1.779   3.472 -0.5975  0.9286 -0.7056
  441MOL0     O60723   5.128   1.781   3.508  0.3757 -0.3947 -0.0672
  441MOL0     C60724   5.083   1.723   3.615 -0.1307 -0.9278 -0.1795
  441MOL0     C60725   4.942   1.730   3.621  0.7014  0.5900  0.3605
  441MOL0     C60726   4.868   1.670   3.724 -0.4521 -1.4671 -0.1111
  441MOL0     C60727   4.933   1.595   3.832  0.0229 -0.1664 -0.1188
  441MOL0     O60728   4.853   1.528   3.925  0.2145  0.2866  0.1714
  441MOL0     C60729   4.923   1.437   4.013  0.4834  0.0917  0.4230
  441MOL0     C60730   4.810   1.361   4.089  0.5661 -0.8310  0.1657
  441MOL0     C60731   4.720   1.290   3.987 -0.2987 -0.1943  0.3421
  441MOL0     C60732   4.625   1.198   4.065  0.2651 -0.1151 -0.1505
  441MOL0     C60733   4.535   1.124   3.965 -0.4455  0.4657 -0.1036
  441MOL0     C60734   4.395   1.097   4.027 -0.1561  0.0007  0.2954
  441MOL0     C60735   4.301   1.218   4.014  0.2344  0.2304 -0.2616
  441MOL0     C60736   4.274   1.252   3.868  0.0195  1.1377 -0.8042
  441MOL0     N60737   4.193   1.145   3.803 -0.0632  0.1330 -0.5765
  441MOL0     C60738   4.246   1.042   3.735  0.8965 -0.5489  0.8464
  441MOL0     C60739   4.146   0.973   3.677  0.7096 -0.2047  0.3142
  441MOL0     C60740   4.146   0.851   3.591 -0.3589  0.2280  0.4437
  441MOL0     C60741   4.293   0.824   3.538  0.2986 -0.2164 -0.6161
  441MOL0     C60742   4.289   0.705   3.443  0.5421  0.1931  0.6392
  441MOL0     C60743   4.435   0.680   3.401  0.6514  0.2368  0.0187
  441MOL0     O60744   4.502   0.583   3.494  0.0205  0.1094 -0.4726
  441MOL0     C60745   4.641   0.574   3.496  0.6216 -0.2199  0.3818
  441MOL0     C60746   4.708   0.536   3.612 -0.2624 -0.2295 -0.7212
  441MOL0     C60747   4.850   0.523   3.615 -0.5131 -0.2624  0.0936
  441MOL0     C60748   4.916   0.484   3.746  0.0476 -0.0271 -0.1169
  441MOL0     C60749   4.929   0.547   3.501  0.3978 -0.0240  0.3200
  441MOL0     C60750   5.073   0.559   3.503  0.7586 -0.3494 -0.2115
  441MOL0     O60751   5.136   0.476   3.423  0.1098 -0.3746 -0.1069
  441MOL0     C60752   5.266   0.488   3.408  0.2948 -0.3749 -1.1314
  441MOL0     C60753   5.364   0.433   3.490 -0.4311  0.1401 -0.1727
  441MOL0     C60754   5.499   0.434   3.457  0.7980  0.7074 -0.8821
  441MOL0     C60755   5.543   0.513   3.353  0.0137  0.1836 -0.2343
  441MOL0     O60756   5.672   0.524   3.310 -0.5187 -0.4698  0.1245
  441MOL0     C60757   5.765   0.435   3.354  0.0928  0.1956 -0.7701
  441MOL0     C60758   5.907   0.454   3.302 -0.8150 -0.0267  1.5910
  441MOL0     C60759   5.958   0.599   3.341 -0.4022  1.3507  0.2313
  441MOL0     C60760   6.101   0.644   3.284 -0.5138  0.9777  0.6566
  441MOL0     C60761   6.114   0.791   3.313  0.5624 -0.1495 -0.2233
  441MOL0     C60762   6.249   0.842   3.257 -1.3370 -0.5028 -0.3002
  441MOL0     C60763   6.288   0.983   3.278  0.8175  0.3294  0.4523
  441MOL0     C60764   6.265   1.052   3.410 -0.0995 -0.1068  0.2281
  441MOL0    Cl60765   6.362   0.988   3.547  0.0224  0.2654 -0.1791
  441MOL0     C60766   5.444   0.590   3.283  0.2809  0.1568 -0.6983
  441MOL0     C60767   5.307   0.572   3.301 -0.2978 -0.7380  0.7601
  441MOL0     O60768   5.127   0.648   3.568 -0.0801 -0.1751  0.0112
  441MOL0     C60769   4.858   0.594   3.387  0.5704 -0.1824  0.9252
  441MOL0     C60770   4.714   0.606   3.383 -0.6363 -0.5088  0.2906
  441MOL0     N60771   4.031   1.045   3.707  0.8264  0.4101  0.0379
  441MOL0     N60772   4.059   1.153   3.783 -0.3092 -0.1236  0.6643
  441MOL0     C60773   5.077   1.591   3.830  0.8023 -0.1283  0.0479
  441MOL0     C60774   5.141   1.655   3.721  0.4118  0.2736 -0.3002
  441MOL0     C60775   5.283   1.829   3.335  0.4183  0.0068 -0.0281
  441MOL0     C60776   5.185   1.905   3.269  0.3349  0.2263  0.4997
  441MOL0     C60777   5.203   1.957   3.138  0.1102  0.5969 -0.3960
  441MOL0     C60778   5.321   1.934   3.070  0.1931 -0.3367 -0.6691
  441MOL0     O60779   5.340   1.995   2.944 -0.5860  0.0021  0.6388
  441MOL0     C60780   5.464   1.972   2.871  0.1826  0.5422 -0.9105
  441MOL0     C60781   5.441   2.042   2.733  0.0075 -0.5279 -0.1399
  441MOL0     C60782   5.580   2.041   2.653  0.2780 -1.0087  0.1400
  441MOL0     C60783   5.684   2.134   2.728  0.3797 -0.8513 -0.3336
  441MOL0     C60784   5.809   2.139   2.639  0.3741 -0.2396  0.2908
  441MOL0     C60785   5.912   2.148   2.574 -0.2239 -0.2163  0.0357
  441MOL0     C60786   5.416   1.852   3.134  0.2926 -0.4572  1.0291
  441MOL0     C60787   5.398   1.798   3.264 -0.5675 -0.1222  0.6088
  441MOL0     C60788   5.498   1.696   3.294  0.0204  0.3570 -0.3042
  441MOL0     H60789   4.899   1.775   3.531  2.5580  2.4343  0.3084
  441MOL0     H60790   4.760   1.678   3.721 -0.5648 -1.9410  1.6227
  441MOL0     H60791   4.985   1.501   4.076  2.0527 -2.5541  1.7279
  441MOL0     H60792   4.980   1.360   3.961 -1.1553  0.0159 -1.4059
  441MOL0     H60793   4.848   1.290   4.162  0.6824  0.1974  1.1388
  441MOL0     H60794   4.742   1.420   4.151 -2.2562 -0.9280 -2.6091
  441MOL0     H60795   4.658   1.365   3.936 -1.4610 -0.7698  0.8838
  441MOL0     H60796   4.782   1.229   3.920 -0.0061 -1.0298  1.3602
  441MOL0     H60797   4.675   1.125   4.129 -2.2216 -0.4701  1.5030
  441MOL0     H60798   4.566   1.263   4.130 -1.1276 -2.5263  1.1518
  441MOL0     H60799   4.578   1.026   3.942  0.4468 -0.7164  5.1975
  441MOL0     H60800   4.522   1.181   3.873 -1.4147 -1.3116 -1.1305
  441MOL0     H60801   4.346   1.014   3.975  2.2749 -1.0507 -0.4876
  441MOL0     H60802   4.401   1.060   4.130  1.4060  1.0960  0.6348
  441MOL0     H60803   4.342   1.306   4.063 -4.1438  1.8669  0.9023
  441MOL0     H60804   4.205   1.209   4.066 -0.2377  0.1802 -1.1058
  441MOL0     H60805   4.228   1.351   3.861  1.6901  1.9762 -0.3768
  441MOL0     H60806   4.367   1.260   3.811  0.2772  1.4381 -0.3410
  441MOL0     H60807   4.351   1.016   3.732  0.0893 -4.5666 -2.3112
  441MOL0     H60808   4.068   0.850   3.515 -1.7626  1.1376  1.8105
  441MOL0     H60809   4.118   0.773   3.663 -1.0706  1.6568  1.7649
  441MOL0     H60810   4.332   0.916   3.494  0.4343  0.0432  0.0355
  441MOL0     H60811   4.361   0.799   3.620 -1.8655 -2.5873  0.6137
  441MOL0     H60812   4.248   0.615   3.490  0.1789  0.7692  1.4633
  441MOL0     H60813   4.228   0.735   3.358  1.5428  2.2324  0.5640
  441MOL0     H60814   4.441   0.640   3.299  0.4040 -1.0944  0.4980
  441MOL0     H60815   4.495   0.770   3.414 -0.1525  0.6474  1.0075
  441MOL0     H60816   4.651   0.509   3.701  0.9693  0.6180  0.3550
  441MOL0     H60817   4.990   0.403   3.739  0.6582  0.3887  1.1968
  441MOL0     H60818   4.849   0.459   3.829  0.4568 -1.0272 -0.0786
  441MOL0     H60819   4.979   0.564   3.787  0.7807 -0.4227 -0.4409
  441MOL0     H60820   5.323   0.370   3.568  1.0004  1.0968  1.4234
  441MOL0     H60821   5.569   0.377   3.518 -0.2885  0.4400  0.1423
  441MOL0     H60822   5.767   0.462   3.460 -1.5382  2.3834 -1.2263
  441MOL0     H60823   5.738   0.330   3.338  2.2462 -0.8766  1.6952
  441MOL0     H60824   5.977   0.376   3.333  1.2714  0.7207 -0.8588
  441MOL0     H60825   5.903   0.445   3.193  3.5318 -0.2424  1.2694
  441MOL0     H60826   5.969   0.605   3.449 -0.6349  2.7970  0.1888
  441MOL0     H60827   5.890   0.679   3.310 -1.2494 -0.1703 -2.1316
  441MOL0     H60828   6.104   0.608   3.181 -1.0631 -1.4986  1.4423
  441MOL0     H60829   6.183   0.590   3.333  0.3111  2.7923  1.3602
  441MOL0     H60830   6.036   0.853   3.268  0.9734 -0.3416 -1.2255
  441MOL0     H60831   6.115   0.802   3.422 -2.8658  0.2719 -0.1208
  441MOL0     H60832   6.237   0.835   3.149 -1.7936  5.2064 -0.9102
  441MOL0     H60833   6.337   0.790   3.296  0.0195  2.4091  0.8264
  441MOL0     H60834   6.236   1.044   3.205 -1.1671 -0.4346  1.1584
  441MOL0     H60835   6.397   0.993   3.265  0.7731  0.0914 -0.1481
  441MOL0     H60836   6.158   1.046   3.434 -0.3006 -2.5368 -1.0346
  441MOL0     H60837   6.288   1.159   3.402  1.2479 -0.3619  0.5887
  441MOL0     H60838   5.487   0.659   3.211 -0.1756  1.2937  0.0844
  441MOL0     H60839   5.236   0.620   3.235  1.9982 -1.6236 -2.6117
  441MOL0     H60840   4.910   0.623   3.296 -0.8195  1.5514  0.6297
  441MOL0     H60841   4.667   0.645   3.294  0.9357  2.9585  0.8073
  441MOL0     H60842   5.138   1.547   3.909 -1.2920 -0.7110  1.4446
  441MOL0     H60843   5.248   1.641   3.728  0.1398 -1.1983  3.7092
  441MOL0     H60844   5.093   1.929   3.321 -0.0993 -1.5286  0.6219
  441MOL0     H60845   5.123   2.011   3.088  1.1600  2.5404 -0.0881
  441MOL0     H60846   5.552   2.006   2.925  0.1017 -2.9161  1.6688
  441MOL0     H60847   5.476   1.866   2.847  2.7133  1.3307 -3.8587
  441MOL0     H60848   5.409   2.146   2.742 -1.5414 -0.8406 -1.4957
  441MOL0     H60849   5.367   1.981   2.681  0.1399  0.4325 -1.5018
  441MOL0     H60850   5.610   1.936   2.647 -0.1139 -1.0794 -0.9087
  441MOL0     H60851   5.575   2.080   2.551 -1.9016  1.2378  1.0112
  441MOL0     H60852   5.705   2.105   2.831 -2.2726 -1.9961 -0.0221
  441MOL0     H60853   5.643   2.234   2.741  1.1220 -0.3827 -1.4721
  441MOL0     H60854   5.996   2.161   2.509 -0.3097  0.3553  0.0343
  441MOL0     H60855   5.496   1.810   3.073 -0.1833 -0.2850  0.2737
  441MOL0     H60856   5.565   1.734   3.373 -0.7857  0.2663  0.4381
  441MOL0     H60857   5.453   1.606   3.335 -1.2645  2.5724  3.7289
  441MOL0     H60858   5.569   1.658   3.220 -1.3111  1.0408 -1.9890
  442MOL0     O60859   7.534   8.053   2.993  0.1368  0.9368 -0.0595
  442MOL0     C60860   7.507   8.139   3.076 -0.2573  0.2436 -0.3117
  442MOL0     O60861   7.579   8.167   3.192  0.2647  0.2455  0.1412
  442MOL0     C60862   7.693   8.094   3.206 -0.5370  0.4079 -0.0719
  442MOL0     C60863   7.824   8.140   3.168 -0.4494  0.7844  0.8974
  442MOL0     C60864   7.937   8.059   3.191 -0.3932  0.5288 -0.4559
  442MOL0     C60865   7.918   7.941   3.276 -0.3873  0.4829  0.2847
  442MOL0     O60866   8.019   7.863   3.335  0.4615 -1.4557 -0.0970
  442MOL0     C60867   8.139   7.862   3.249 -0.5616  0.4131 -0.7935
  442MOL0     C60868   8.241   7.768   3.310 -0.0045 -0.2976 -0.4742
  442MOL0     C60869   8.361   7.749   3.220  0.8863 -0.3269  0.0899
  442MOL0     C60870   8.462   7.637   3.267  0.1172  0.2157 -0.1270
  442MOL0     C60871   8.576   7.626   3.176 -0.4627  0.4109 -0.3082
  442MOL0     C60872   8.681   7.539   3.234  0.4966  0.2443 -0.1916
  442MOL0     C60873   8.808   7.552   3.155 -0.4228  0.2987 -0.2178
  442MOL0     C60874   8.910   7.451   3.223 -0.2876  0.1280 -0.1171
  442MOL0     N60875   9.035   7.434   3.152 -1.5974  0.0346 -0.5095
  442MOL0     C60876   9.114   7.525   3.091  0.2332 -0.5016  0.4558
  442MOL0     C60877   9.230   7.456   3.064  0.4116  0.0668  0.3637
  442MOL0     C60878   9.347   7.513   2.981 -0.3478 -0.5059  0.8287
  442MOL0     C60879   9.473   7.441   3.005 -0.2758 -0.0376 -1.1402
  442MOL0     C60880   9.585   7.510   2.937  0.3077 -0.5520 -0.0104
  442MOL0     C60881   9.719   7.444   2.965 -0.3207 -0.6789  0.3978
  442MOL0     O60882   9.783   7.522   3.064 -0.0841  0.4149 -0.3479
  442MOL0     C60883   9.920   7.506   3.080  1.1142  0.2739  1.1910
  442MOL0     C60884   9.993   7.607   3.139  0.2402  0.1555  0.0895
  442MOL0     C60885  10.127   7.591   3.161 -0.4205  0.7983 -1.1041
  442MOL0     C60886  10.189   7.707   3.228 -0.3316 -0.1264  0.0684
  442MOL0     C60887  10.196   7.467   3.138  0.2689  0.5540 -1.2678
  442MOL0     C60888  10.337   7.428   3.185  0.4255  0.2401  0.4292
  442MOL0     O60889  10.375   7.501   3.291  0.0751  0.3496  0.0314
  442MOL0     C60890  10.507   7.498   3.319 -0.4692 -0.3363 -0.9192
  442MOL0     C60891  10.593   7.601   3.275  0.0762 -0.0413 -0.0216
  442MOL0     C60892  10.723   7.604   3.325 -0.3358 -0.0574 -0.2668
  442MOL0     C60893  10.766   7.508   3.411  0.2861  0.4115 -0.6731
  442MOL0     O60894  10.897   7.515   3.455 -0.0354  0.5093 -0.4688
  442MOL0     C60895  10.923   7.487   3.591  0.2217 -0.0430  0.5698
  442MOL0     C60896  11.015   7.586   3.663  0.3692 -0.5095  0.4514
  442MOL0     C60897  11.164   7.555   3.632 -0.2821 -0.3067  0.6594
  442MOL0     C60898  11.269   7.651   3.700  0.4750  0.4981  0.4611
  442MOL0     C60899  11.419   7.640   3.658  0.0372 -0.2365  0.5714
  442MOL0     C60900  11.468   7.501   3.668 -0.0886 -1.0561 -0.1414
  442MOL0     C60901  11.619   7.487   3.659 -0.1311  0.4852  0.2827
  442MOL0     C60902  11.674   7.353   3.722 -0.0555  0.2148  0.5752
  442MOL0    Cl60903  11.852   7.317   3.675 -0.1802 -0.4318  0.3824
  442MOL0     C60904  10.679   7.409   3.457 -0.1268 -0.7933 -0.8984
  442MOL0     C60905  10.551   7.406   3.411  0.2499  0.2001  0.0995
  442MOL0     O60906  10.396   7.329   3.128 -0.0097  0.0104 -0.7791
  442MOL0     C60907  10.126   7.370   3.060  0.8259  0.5703 -0.3095
  442MOL0     C60908   9.992   7.388   3.039  0.9627 -0.1021  0.1907
  442MOL0     N60909   9.215   7.331   3.110 -0.1107  0.1715  0.6485
  442MOL0     N60910   9.108   7.315   3.170  0.0406 -0.6014 -0.1203
  442MOL0     C60911   7.799   7.896   3.315  0.6792  0.1477 -0.5979
  442MOL0     C60912   7.686   7.971   3.277  0.3338  0.2989 -0.0133
  442MOL0     C60913   7.392   8.223   3.053 -0.0375 -0.1227  0.3951
  442MOL0     C60914   7.374   8.294   2.932 -0.9291  0.0058 -0.6312
  442MOL0     C60915   7.255   8.365   2.910 -0.3393  0.0829  0.1758
  442MOL0     C60916   7.163   8.387   3.015 -0.4043 -0.1166  0.0683
  442MOL0     O60917   7.059   8.464   2.977 -0.2374  0.1202  0.2133
  442MOL0     C60918   6.986   8.513   3.095  0.0448 -0.4822 -0.5789
  442MOL0     C60919   6.894   8.634   3.052  0.6652  0.3039 -1.1053
  442MOL0     C60920   6.820   8.677   3.177  0.0086 -1.1020  0.8743
  442MOL0     C60921   6.707   8.784   3.132  0.1043 -0.5677  0.3095
  442MOL0     C60922   6.622   8.812   3.248  0.0077  0.2492  0.5444
  442MOL0     C60923   6.541   8.826   3.335  0.7618 -0.9421 -0.8170
  442MOL0     C60924   7.198   8.325   3.136  0.5075  0.6838 -0.4606
  442MOL0     C60925   7.303   8.239   3.160  0.2547 -0.2028 -0.2860
  442MOL0     C60926   7.312   8.181   3.298 -0.7930 -0.4575 -0.1555
  442MOL0     H60927   7.822   8.237   3.120  1.6923  0.8817  0.9097
  442MOL0     H60928   8.034   8.096   3.158  1.2494 -1.7347  1.5678
  442MOL0     H60929   8.176   7.964   3.236 -0.1606  0.4325  0.3626
  442MOL0     H60930   8.113   7.840   3.145  0.7250  1.1926 -1.3006
  442MOL0     H60931   8.269   7.808   3.408  0.4601  2.9731 -1.8066
  442MOL0     H60932   8.185   7.678   3.335  0.8200 -0.8803 -0.6602
  442MOL0     H60933   8.323   7.720   3.122  0.1206 -0.9211  0.5511
  442MOL0     H60934   8.405   7.849   3.216 -1.7734  0.8951 -0.5672
  442MOL0     H60935   8.494   7.655   3.371 -1.8212 -1.5471  0.8252
  442MOL0     H60936   8.420   7.537   3.271  3.9760 -1.5682  0.5333
  442MOL0     H60937   8.613   7.728   3.162  2.3113 -0.1995  1.6582
  442MOL0     H60938   8.545   7.586   3.079 -0.1221 -0.5779 -0.0200
  442MOL0     H60939   8.705   7.562   3.338  1.3574  2.2091 -0.7757
  442MOL0     H60940   8.651   7.434   3.233 -0.4494  0.3204  3.7929
  442MOL0     H60941   8.842   7.655   3.162 -1.3078  0.4815  2.7458
  442MOL0     H60942   8.795   7.525   3.049  0.9512  3.4426 -1.3022
  442MOL0     H60943   8.930   7.485   3.325  2.6927 -0.4399 -0.4304
  442MOL0     H60944   8.862   7.354   3.232  0.8138 -0.3973  0.2019
  442MOL0     H60945   9.094   7.626   3.056  0.3270 -1.4844 -2.7152
  442MOL0     H60946   9.357   7.619   3.007  1.0286 -0.9653  2.3453
  442MOL0     H60947   9.309   7.513   2.878 -1.2936 -1.6714  1.1706
  442MOL0     H60948   9.484   7.431   3.113  0.1635 -1.0093 -1.2622
  442MOL0     H60949   9.470   7.339   2.966  0.5227 -0.4398 -0.1899
  442MOL0     H60950   9.567   7.510   2.830 -1.4459  0.9557  0.2242
  442MOL0     H60951   9.597   7.612   2.974  0.5472 -0.1221 -1.2293
  442MOL0     H60952   9.700   7.344   3.006 -1.9218 -0.7617 -0.4660
  442MOL0     H60953   9.776   7.437   2.872 -0.9404 -1.1557  0.0423
  442MOL0     H60954   9.938   7.696   3.165  2.6088  1.4452  0.9385
  442MOL0     H60955  10.288   7.725   3.185  0.5444 -0.5648  1.7931
  442MOL0     H60956  10.207   7.700   3.336 -0.8481  2.8659  0.4395
  442MOL0     H60957  10.136   7.802   3.220  0.2981  0.2730  0.5563
  442MOL0     H60958  10.556   7.687   3.219  0.5810 -1.1240 -2.1073
  442MOL0     H60959  10.801   7.673   3.292 -0.1393 -0.1592 -0.0187
  442MOL0     H60960  10.825   7.484   3.639 -1.2154 -3.8288 -2.1658
  442MOL0     H60961  10.954   7.383   3.603 -3.4074 -1.0972  2.5217
  442MOL0     H60962  10.983   7.685   3.629 -0.5965 -0.3843  1.6399
  442MOL0     H60963  10.991   7.572   3.769 -4.1220 -0.2911 -0.3319
  442MOL0     H60964  11.181   7.566   3.524 -0.7874 -2.4789  0.3081
  442MOL0     H60965  11.185   7.451   3.658 -0.4663 -0.0733  1.7854
  442MOL0     H60966  11.270   7.630   3.807  1.2904 -3.1953 -0.1487
  442MOL0     H60967  11.240   7.755   3.679  0.5002  0.0154 -2.3573
  442MOL0     H60968  11.431   7.666   3.553  1.0190  0.7163  0.8963
  442MOL0     H60969  11.476   7.709   3.722  0.7338 -0.7685  0.5299
  442MOL0     H60970  11.427   7.441   3.586 -0.6843  0.1703 -0.7747
  442MOL0     H60971  11.428   7.460   3.761 -1.1739 -1.8756 -0.9334
  442MOL0     H60972  11.669   7.568   3.714  0.2390  1.0430 -0.8326
  442MOL0     H60973  11.643   7.493   3.552 -1.1095 -0.5111 -0.0101
  442MOL0     H60974  11.608   7.271   3.690 -0.6941 -0.1127  2.6007
  442MOL0     H60975  11.668   7.361   3.831  1.3542 -0.3843  0.7093
  442MOL0     H60976  10.716   7.348   3.539 -2.2212  2.3320  2.6969
  442MOL0     H60977  10.485   7.331   3.454  0.1014 -0.8268 -1.7910
  442MOL0     H60978  10.175   7.276   3.033 -0.9058 -0.6569  0.6159
  442MOL0     H60979   9.941   7.308   2.985  0.1024  0.8967 -0.5110
  442MOL0     H60980   7.777   7.810   3.377  0.9260  0.9942  0.6913
  442MOL0     H60981   7.593   7.942   3.325 -0.0029  2.3850  0.6683
  442MOL0     H60982   7.447   8.275   2.854  0.8296  0.2703  0.8952
  442MOL0     H60983   7.236   8.401   2.809 -1.3228 -1.3338 -0.1854
  442MOL0     H60984   6.922   8.435   3.138 -1.0433  0.0942 -1.1412
  442MOL0     H60985   7.059   8.548   3.169 -0.3759  1.6251 -1.1056
  442MOL0     H60986   6.830   8.607   2.968  0.2139  0.7061 -0.8901
  442MOL0     H60987   6.963   8.716   3.030  1.6230  0.8880  3.1472
  442MOL0     H60988   6.771   8.591   3.224 -0.4551 -0.1304  2.2583
  442MOL0     H60989   6.882   8.725   3.253  1.3382  0.3462 -1.0164
  442MOL0     H60990   6.642   8.750   3.051  0.0857  0.7812 -0.2625
  442MOL0     H60991   6.760   8.874   3.099 -0.0538 -0.3302  0.7014
  442MOL0     H60992   6.461   8.845   3.404  1.8866  1.3221 -0.0526
  442MOL0     H60993   7.129   8.345   3.217 -1.5692 -0.5646 -1.8280
  442MOL0     H60994   7.366   8.086   3.300 -0.2812 -0.1941 -0.9272
  442MOL0     H60995   7.374   8.246   3.361  1.3020 -4.3811  2.2418
  442MOL0     H60996   7.214   8.166   3.343  0.1870  1.8056  3.0923
  443MOL0     O60997   6.828  10.963  10.722  0.1838  0.7529 -0.0006
  443MOL0     C60998   6.783  10.901  10.626 -0.6427  0.4558 -0.0696
  443MOL0     O60999   6.863  10.823  10.545 -0.1903  0.6533  0.4668
  443MOL0     C61000   6.988  10.792  10.582  1.0458 -0.8037  1.0449
  443MOL0     C61001   7.091  10.879  10.556  0.1943 -0.5070  0.1602
  443MOL0     C61002   7.218  10.858  10.608  0.0424  0.0186 -0.1207
  443MOL0     C61003   7.234  10.753  10.697 -0.2478  0.4157 -0.6196
  443MOL0     O61004   7.356  10.732  10.754  0.0533 -0.1198  0.8785
  443MOL0     C61005   7.366  10.669  10.886 -0.5405  0.1020  0.1442
  443MOL0     C61006   7.514  10.660  10.930  0.3388 -0.3513 -0.7220
  443MOL0     C61007   7.592  10.556  10.841  1.1914 -0.3467  0.0994
  443MOL0     C61008   7.719  10.618  10.782  0.9163  0.4237  0.6615
  443MOL0     C61009   7.791  10.521  10.688  0.8896 -0.2717 -0.5936
  443MOL0     C61010   7.925  10.554  10.628  0.1646 -0.3116 -1.0142
  443MOL0     C61011   7.977  10.420  10.566 -0.2156 -0.7401 -1.1148
  443MOL0     C61012   8.127  10.405  10.573  0.8380 -0.2826  0.4428
  443MOL0     N61013   8.192  10.482  10.468 -0.0361  0.3058 -0.0655
  443MOL0     C61014   8.242  10.612  10.474  0.0490  0.3401 -0.3606
  443MOL0     C61015   8.299  10.649  10.357 -0.1545  0.1566 -0.0382
  443MOL0     C61016   8.379  10.775  10.319  0.4230 -0.2426 -0.9563
  443MOL0     C61017   8.530  10.766  10.331  0.3812 -0.8286 -0.6334
  443MOL0     C61018   8.587  10.626  10.295 -0.6627  0.2723  0.8877
  443MOL0     C61019   8.742  10.623  10.280  1.0069  0.0223 -0.3586
  443MOL0     O61020   8.812  10.674  10.392 -0.5802  0.4948 -0.0845
  443MOL0     C61021   8.947  10.658  10.394 -0.1340 -0.4038 -0.8139
  443MOL0     C61022   9.031  10.636  10.284 -0.2107  0.4121  0.1542
  443MOL0     C61023   9.171  10.620  10.288  0.1150 -0.4738 -0.5421
  443MOL0     C61024   9.246  10.602  10.157  0.2895  0.5736  0.3398
  443MOL0     C61025   9.235  10.631  10.418 -0.9099 -0.0201  0.3206
  443MOL0     C61026   9.382  10.636  10.446 -0.1974  0.6949  0.4229
  443MOL0     O61027   9.459  10.666  10.338 -0.3266  0.4902 -0.1856
  443MOL0     C61028   9.593  10.672  10.359  0.4489  0.1184  0.3047
  443MOL0     C61029   9.646  10.794  10.396  0.7425 -0.2462 -0.1000
  443MOL0     C61030   9.782  10.807  10.403 -0.0189 -0.8604  0.2908
  443MOL0     C61031   9.862  10.690  10.372 -0.3015  0.3000 -0.3633
  443MOL0     O61032   9.999  10.696  10.375 -0.3278  1.0309 -0.0144
  443MOL0     C61033  10.053  10.762  10.490  0.2153  0.1937  0.6660
  443MOL0     C61034  10.191  10.713  10.523 -1.2215  0.8032  0.6542
  443MOL0     C61035  10.297  10.741  10.404  0.3092 -0.9157 -0.1161
  443MOL0     C61036  10.435  10.737  10.460 -0.8061  0.3208  0.0309
  443MOL0     C61037  10.474  10.836  10.571 -0.9773  1.1654  0.0543
  443MOL0     C61038  10.628  10.845  10.585 -0.1329  0.8018  0.2056
  443MOL0     C61039  10.671  10.920  10.703 -0.2103 -0.3360  0.3557
  443MOL0     C61040  10.637  11.063  10.716  0.2113  0.3804 -0.1990
  443MOL0    Cl61041  10.731  11.162  10.610 -0.2701 -0.1649 -0.0553
  443MOL0     C61042   9.810  10.573  10.347 -0.2884  0.2058 -0.5319
  443MOL0     C61043   9.669  10.560  10.338 -0.3085  0.5353 -0.2737
  443MOL0     O61044   9.424  10.622  10.564 -0.2391 -0.0114  0.1223
  443MOL0     C61045   9.150  10.657  10.530 -0.0824  0.9207  0.0246
  443MOL0     C61046   9.008  10.669  10.516  0.0574  0.0599  0.1916
  443MOL0     N61047   8.264  10.541  10.272 -0.7517 -0.1496 -0.1517
  443MOL0     N61048   8.205  10.444  10.337 -0.2756  0.1018  0.6256
  443MOL0     C61049   7.129  10.656  10.714 -1.1095  0.0435 -0.1734
  443MOL0     C61050   7.011  10.671  10.642  0.1108 -0.8662  0.2215
  443MOL0     C61051   6.638  10.914  10.599 -0.2269  0.3988 -0.1348
  443MOL0     C61052   6.578  11.038  10.621  0.5458  1.0164 -0.1453
  443MOL0     C61053   6.437  11.068  10.609  0.0593  0.5393 -0.7194
  443MOL0     C61054   6.359  10.967  10.564  0.3039 -0.7240  0.3309
  443MOL0     O61055   6.224  10.995  10.535  0.3721 -1.2428  0.2538
  443MOL0     C61056   6.123  10.934  10.629  0.6671 -0.4664  0.9174
  443MOL0     C61057   5.985  10.988  10.600  0.3178  0.4947  0.3680
  443MOL0     C61058   5.947  10.979  10.450 -0.5476 -0.4754  0.0473
  443MOL0     C61059   5.798  10.967  10.422  0.0957  0.0268 -0.1456
  443MOL0     C61060   5.709  11.065  10.488 -0.2538 -0.2244  0.0016
  443MOL0     C61061   5.647  11.155  10.526  0.7424 -0.7474 -0.5375
  443MOL0     C61062   6.412  10.846  10.537 -0.4703 -0.2393  0.6107
  443MOL0     C61063   6.549  10.813  10.551 -0.3707  0.6502  0.4014
  443MOL0     C61064   6.590  10.671  10.522 -0.5182  0.2341 -0.4441
  443MOL0     H61065   7.061  10.966  10.498 -0.1613 -1.7570 -1.5933
  443MOL0     H61066   7.301  10.924  10.586  1.9707 -1.7331  1.4986
  443MOL0     H61067   7.339  10.563  10.881  0.1569 -0.0255 -1.3657
  443MOL0     H61068   7.312  10.724  10.963  1.4791  2.2293  0.1299
  443MOL0     H61069   7.547  10.764  10.936 -2.0009  0.3767  1.5184
  443MOL0     H61070   7.507  10.614  11.029  0.9140  0.3395 -0.3536
  443MOL0     H61071   7.618  10.463  10.892  1.5247  0.5006  1.5500
  443MOL0     H61072   7.526  10.523  10.760 -3.0862 -0.0432  3.1246
  443MOL0     H61073   7.693  10.710  10.729 -0.5440 -0.3857 -0.1024
  443MOL0     H61074   7.792  10.645  10.859  1.0069  0.7022  0.4808
  443MOL0     H61075   7.725  10.492  10.605  0.2821  1.4838 -0.7644
  443MOL0     H61076   7.810  10.432  10.750  3.0763 -0.4066 -1.3615
  443MOL0     H61077   7.926  10.629  10.548  0.6242 -3.2478 -3.9810
  443MOL0     H61078   7.985  10.592  10.710 -2.7647  1.5380  0.4391
  443MOL0     H61079   7.949  10.420  10.460 -0.4295  0.2695 -1.0628
  443MOL0     H61080   7.934  10.328  10.606  0.3991  0.1021  1.7625
  443MOL0     H61081   8.162  10.420  10.675  0.0847  0.8558  0.5446
  443MOL0     H61082   8.144  10.298  10.554  1.0359 -0.4045  1.2678
  443MOL0     H61083   8.236  10.673  10.563 -1.9303 -0.2368 -0.0370
  443MOL0     H61084   8.346  10.853  10.388 -0.3225 -0.5570 -0.9415
  443MOL0     H61085   8.347  10.813  10.221 -0.2162 -1.3744 -1.2099
  443MOL0     H61086   8.572  10.840  10.263 -1.5547 -0.0050 -1.0079
  443MOL0     H61087   8.559  10.789  10.434 -0.3905 -3.2060  0.1760
  443MOL0     H61088   8.573  10.550  10.372 -0.4307  0.1611  0.8209
  443MOL0     H61089   8.551  10.589  10.198  4.5003 -0.0785 -1.2302
  443MOL0     H61090   8.774  10.519  10.271 -0.0248 -0.5954  2.2980
  443MOL0     H61091   8.763  10.684  10.192 -0.3687  1.7735  0.4650
  443MOL0     H61092   8.991  10.646  10.184  0.7424  2.6085 -0.0504
  443MOL0     H61093   9.311  10.686  10.130  2.1870 -0.3309  1.8208
  443MOL0     H61094   9.176  10.587  10.075  1.6141 -0.2797 -0.6765
  443MOL0     H61095   9.315  10.517  10.165  0.8020  1.0930  1.8702
  443MOL0     H61096   9.575  10.872  10.420 -0.2476 -2.0249  3.4188
  443MOL0     H61097   9.804  10.913  10.410  0.3635 -0.6553 -2.8058
  443MOL0     H61098  10.056  10.868  10.465 -1.6380  0.3263  0.8801
  443MOL0     H61099   9.989  10.746  10.577  0.2588  2.3104  1.1321
  443MOL0     H61100  10.222  10.767  10.613 -0.4169  0.5724  0.5210
  443MOL0     H61101  10.197  10.605  10.539  0.5628  0.6040 -0.9748
  443MOL0     H61102  10.271  10.832  10.350 -0.2907  0.0549  1.6938
  443MOL0     H61103  10.270  10.667  10.328 -2.5765 -0.4575  0.3416
  443MOL0     H61104  10.516  10.746  10.387  1.0032 -0.4464  1.8304
  443MOL0     H61105  10.446  10.637  10.502  2.0107 -0.3190 -1.9405
  443MOL0     H61106  10.450  10.938  10.540  1.2348  0.8668 -3.1437
  443MOL0     H61107  10.427  10.808  10.666 -0.3714 -2.2372 -0.4995
  443MOL0     H61108  10.682  10.878  10.495 -0.5663  0.6081 -0.1285
  443MOL0     H61109  10.659  10.741  10.599  1.0365  1.3187  1.6833
  443MOL0     H61110  10.778  10.900  10.694 -0.5715 -2.4574  0.3435
  443MOL0     H61111  10.624  10.867  10.787 -1.3081 -0.3944 -0.2909
  443MOL0     H61112  10.647  11.083  10.823  0.0971  2.4581 -0.5437
  443MOL0     H61113  10.535  11.088  10.685  1.4064  2.1814 -3.0056
  443MOL0     H61114   9.878  10.493  10.322  0.9350  1.0085  0.1581
  443MOL0     H61115   9.629  10.461  10.320  1.8638 -0.3366 -0.6532
  443MOL0     H61116   9.182  10.687  10.629  1.4971 -0.0636 -0.1562
  443MOL0     H61117   8.944  10.687  10.603  0.4308 -0.9427  0.6909
  443MOL0     H61118   7.141  10.576  10.786 -4.1898 -0.8265 -0.4924
  443MOL0     H61119   6.931  10.597  10.639  0.2870 -1.1351 -3.4388
  443MOL0     H61120   6.646  11.114  10.657  0.8481  0.7257 -0.0999
  443MOL0     H61121   6.389  11.163  10.632  0.4551  0.3490  1.0029
  443MOL0     H61122   6.115  10.825  10.625 -2.7997 -0.2643 -0.8044
  443MOL0     H61123   6.154  10.962  10.731 -1.1386 -0.3541  1.4675
  443MOL0     H61124   5.993  11.093  10.628  1.2394  0.1272  1.5750
  443MOL0     H61125   5.903  10.946  10.659  0.1137  2.2030  1.3710
  443MOL0     H61126   5.983  11.062  10.389  0.2240 -1.4781 -0.9107
  443MOL0     H61127   6.009  10.903  10.403  2.7413  0.9129  1.7853
  443MOL0     H61128   5.776  10.860  10.431  0.1293  0.0672  0.4538
  443MOL0     H61129   5.789  10.991  10.315  1.9962 -3.6566 -1.2902
  443MOL0     H61130   5.606  11.249  10.559  2.3534  0.8459 -2.7289
  443MOL0     H61131   6.352  10.761  10.506 -0.7761  0.6188 -1.3169
  443MOL0     H61132   6.618  10.606  10.605 -0.4912 -3.0366 -2.8061
  443MOL0     H61133   6.514  10.613  10.468  1.9837 -2.0817 -1.7486
  443MOL0     H61134   6.671  10.666  10.448  0.1153  1.1742  0.1692
  444MOL0     O61135   5.962   7.881   8.465 -0.0188 -0.2710  0.1436
  444MOL0     C61136   5.899   7.928   8.369 -0.4644  0.1787  0.0782
  444MOL0     O61137   5.953   7.945   8.244  0.6376  0.5138 -0.0800
  444MOL0     C61138   6.084   7.902   8.220 -0.4860  0.2561  0.4943
  444MOL0     C61139   6.107   7.768   8.177 -0.8378 -0.8061  1.0631
  444MOL0     C61140   6.223   7.732   8.125  0.0908 -0.4887  0.6252
  444MOL0     C61141   6.330   7.822   8.120  0.0745 -0.7681 -0.4681
  444MOL0     O61142   6.444   7.770   8.054 -0.5776 -0.0700 -0.4289
  444MOL0     C61143   6.563   7.851   8.052  1.0455 -0.1340 -0.6261
  444MOL0     C61144   6.667   7.787   7.976  0.0709 -0.2737 -0.0469
  444MOL0     C61145   6.801   7.863   7.993 -0.0432  0.7491 -0.5399
  444MOL0     C61146   6.875   7.869   7.858  0.0932  0.2009 -0.2937
  444MOL0     C61147   7.016   7.923   7.874 -0.8652  0.0429  0.1254
  444MOL0     C61148   7.097   7.946   7.746  0.0116 -0.7938  0.3828
  444MOL0     C61149   7.170   7.828   7.684  0.9328  0.1003  0.6313
  444MOL0     C61150   7.289   7.784   7.768  0.3758  0.6353  0.4068
  444MOL0     N61151   7.390   7.880   7.801 -0.8235  0.2712  0.2452
  444MOL0     C61152   7.521   7.874   7.753 -0.6164 -0.4097 -0.0559
  444MOL0     C61153   7.593   7.963   7.832  0.7503 -0.4931 -0.8451
  444MOL0     C61154   7.732   8.007   7.794 -1.0215 -0.5346 -0.3230
  444MOL0     C61155   7.847   7.955   7.885 -0.9913 -0.1915  0.4661
  444MOL0     C61156   7.827   7.964   8.037  0.2351 -0.6283 -0.0728
  444MOL0     C61157   7.964   7.972   8.119 -0.4415 -0.2080 -0.2968
  444MOL0     O61158   8.048   7.864   8.078 -0.1514 -0.1980 -0.7079
  444MOL0     C61159   8.185   7.878   8.083  0.4729 -0.2710 -1.1144
  444MOL0     C61160   8.259   7.781   8.022  0.2558  0.5387  0.2780
  444MOL0     C61161   8.400   7.773   8.023  0.4080 -0.1419 -0.2390
  444MOL0     C61162   8.468   7.650   7.973  0.7333  0.3281 -0.3270
  444MOL0     C61163   8.468   7.877   8.082  0.3691  0.4150  0.4731
  444MOL0     C61164   8.611   7.886   8.100 -0.4471  0.3707  0.3173
  444MOL0     O61165   8.664   8.019   8.093 -0.1780  0.0676 -0.4457
  444MOL0     C61166   8.797   8.059   8.116  0.1184  0.4568 -0.7345
  444MOL0     C61167   8.825   8.192   8.073  0.7074  0.5166  0.7123
  444MOL0     C61168   8.957   8.235   8.076 -0.2456  0.0002 -0.2145
  444MOL0     C61169   9.061   8.150   8.125 -0.3611 -0.0297 -0.1661
  444MOL0     O61170   9.190   8.200   8.131  0.1757 -0.4806 -0.1348
  444MOL0     C61171   9.274   8.123   8.048 -0.4688  0.3104  0.4612
  444MOL0     C61172   9.420   8.172   8.043 -0.7279 -0.4230 -0.0047
  444MOL0     C61173   9.434   8.329   8.030  0.5302 -0.5289  0.0142
  444MOL0     C61174   9.584   8.371   8.009  0.6519  0.8499 -0.0069
  444MOL0     C61175   9.601   8.520   8.005 -0.3577 -1.2111 -0.0623
  444MOL0     C61176   9.744   8.570   8.048 -0.0411  0.9307 -0.0149
  444MOL0     C61177   9.774   8.543   8.196  0.6175 -0.0805  0.3263
  444MOL0     C61178   9.858   8.656   8.253 -0.0774  0.2192 -0.4535
  444MOL0    Cl61179  10.026   8.663   8.173  0.0752 -0.3879 -0.0706
  444MOL0     C61180   9.032   8.019   8.150  0.2273  0.2921 -0.6949
  444MOL0     C61181   8.903   7.975   8.143 -0.3401  1.1842  0.6249
  444MOL0     O61182   8.680   7.783   8.117 -0.3442  0.5390 -0.5791
  444MOL0     C61183   8.388   7.979   8.145 -0.8392  1.1844 -0.5231
  444MOL0     C61184   8.247   7.983   8.155  0.6080 -0.2319  1.2028
  444MOL0     N61185   7.504   8.016   7.921 -0.6920  0.5640 -0.6791
  444MOL0     N61186   7.388   7.961   7.910 -0.3709 -0.0311 -0.6545
  444MOL0     C61187   6.316   7.957   8.167 -0.1963  0.2395 -0.3528
  444MOL0     C61188   6.188   7.991   8.223 -0.1852  0.3657  0.4168
  444MOL0     C61189   5.763   7.962   8.377  0.0787 -0.0717 -0.6172
  444MOL0     C61190   5.668   7.890   8.303  0.1126 -0.1000 -0.2760
  444MOL0     C61191   5.534   7.915   8.311  0.1212 -0.6181 -0.2979
  444MOL0     C61192   5.484   8.008   8.393  0.7511 -0.2013 -0.7058
  444MOL0     O61193   5.347   8.019   8.391  0.4444  0.6404 -0.8476
  444MOL0     C61194   5.285   8.063   8.511  0.8711  0.0796 -0.4785
  444MOL0     C61195   5.136   8.026   8.495 -0.6190  0.5013 -0.9176
  444MOL0     C61196   5.061   8.106   8.389 -0.3046  0.4319 -0.2314
  444MOL0     C61197   4.903   8.083   8.396 -0.7048  0.3138  0.7445
  444MOL0     C61198   4.866   7.936   8.382 -0.3663 -0.1489 -0.7435
  444MOL0     C61199   4.826   7.824   8.360  1.0198 -0.6692 -0.9032
  444MOL0     C61200   5.570   8.087   8.466  0.1668 -0.4404 -0.5881
  444MOL0     C61201   5.715   8.068   8.462  0.3742  0.6688  0.6052
  444MOL0     C61202   5.796   8.168   8.528 -0.3293 -0.0467  1.0066
  444MOL0     H61203   6.023   7.699   8.177 -2.8017  1.4316 -0.0567
  444MOL0     H61204   6.228   7.635   8.076 -0.9034  0.6039 -1.7914
  444MOL0     H61205   6.591   7.870   8.156 -1.1892  1.3513 -0.2101
  444MOL0     H61206   6.553   7.947   8.001 -0.9711 -0.7973 -1.6252
  444MOL0     H61207   6.690   7.689   8.017  0.1272 -1.1991 -2.1536
  444MOL0     H61208   6.637   7.775   7.871 -0.3221 -2.0439  0.2474
  444MOL0     H61209   6.792   7.963   8.036  1.4794  0.5003  0.4494
  444MOL0     H61210   6.862   7.809   8.066 -1.0102 -1.4645 -1.2631
  444MOL0     H61211   6.887   7.771   7.810  0.8046  0.2864 -0.3082
  444MOL0     H61212   6.822   7.933   7.787  0.0277  0.3716 -0.0897
  444MOL0     H61213   7.067   7.848   7.934  0.0271  0.7303  0.2374
  444MOL0     H61214   7.011   8.021   7.922 -0.8320  0.1661 -0.1179
  444MOL0     H61215   7.032   7.978   7.665 -0.0216 -1.4596  0.1400
  444MOL0     H61216   7.158   8.035   7.762 -3.4547  1.4356  2.2968
  444MOL0     H61217   7.203   7.839   7.580  4.2116 -0.6242  1.4949
  444MOL0     H61218   7.098   7.746   7.692  1.5451 -0.7135 -1.5737
  444MOL0     H61219   7.254   7.748   7.865  0.4658 -4.8500 -1.2483
  444MOL0     H61220   7.327   7.698   7.712 -1.6771 -0.3811  0.4937
  444MOL0     H61221   7.562   7.812   7.674 -1.8085 -1.4904  0.1372
  444MOL0     H61222   7.740   8.116   7.792  2.0562 -0.6550 -2.6313
  444MOL0     H61223   7.756   7.968   7.695 -1.0317 -0.1800 -0.4680
  444MOL0     H61224   7.853   7.849   7.859 -1.2662  0.1745 -1.2337
  444MOL0     H61225   7.939   7.999   7.847  0.0442 -2.0365  0.7142
  444MOL0     H61226   7.772   8.055   8.061  1.2247  0.3026 -1.2049
  444MOL0     H61227   7.771   7.878   8.075 -0.2476 -0.1947  0.1933
  444MOL0     H61228   8.001   8.074   8.103 -2.7784  0.5868 -1.0765
  444MOL0     H61229   7.948   7.960   8.226  1.2293  1.6805  0.2241
  444MOL0     H61230   8.207   7.699   7.972  0.7532  1.0922 -1.2027
  444MOL0     H61231   8.407   7.574   7.924  1.2403 -1.0607  1.0993
  444MOL0     H61232   8.517   7.603   8.058  0.6065 -1.6841 -1.3274
  444MOL0     H61233   8.541   7.669   7.894  1.5770 -5.6423 -1.4140
  444MOL0     H61234   8.742   8.255   8.044  0.5960 -0.3288 -0.9626
  444MOL0     H61235   8.978   8.340   8.056 -2.1194  0.6524  0.9794
  444MOL0     H61236   9.285   8.018   8.076  1.5364  0.0316 -1.1224
  444MOL0     H61237   9.238   8.134   7.945  0.6882 -0.0669  0.0050
  444MOL0     H61238   9.481   8.140   8.128  0.4770  0.6899 -0.4168
  444MOL0     H61239   9.462   8.123   7.955 -2.1756 -0.9321 -0.4430
  444MOL0     H61240   9.383   8.391   8.105  2.0848  1.7357 -0.6925
  444MOL0     H61241   9.372   8.354   7.943 -0.5808 -1.2626  0.5674
  444MOL0     H61242   9.616   8.335   7.911  1.9649  1.0126  0.3458
  444MOL0     H61243   9.640   8.327   8.091  0.9946 -2.2107 -1.7290
  444MOL0     H61244   9.579   8.545   7.901 -0.5710  1.0796  0.4669
  444MOL0     H61245   9.532   8.572   8.072  2.4220  1.0409  1.2694
  444MOL0     H61246   9.750   8.679   8.034  1.6511  0.9109  0.3843
  444MOL0     H61247   9.822   8.517   7.992  0.1662  1.2293 -0.0141
  444MOL0     H61248   9.836   8.453   8.200  1.9826  0.6099 -2.4862
  444MOL0     H61249   9.678   8.533   8.247  0.8651 -1.9630  0.5118
  444MOL0     H61250   9.869   8.631   8.359  0.2379  0.1975 -0.4896
  444MOL0     H61251   9.804   8.750   8.247  1.8639  1.3201 -1.3938
  444MOL0     H61252   9.116   7.961   8.186  3.5509  4.2821 -1.3466
  444MOL0     H61253   8.877   7.877   8.183  0.8965  0.5592 -0.0541
  444MOL0     H61254   8.438   8.064   8.190  0.0374 -0.8829  2.7206
  444MOL0     H61255   8.203   8.059   8.220 -1.2128 -1.6603  1.6895
  444MOL0     H61256   6.388   8.038   8.170  0.2471 -0.1721  1.2721
  444MOL0     H61257   6.171   8.090   8.263 -1.5650  0.0544  0.6848
  444MOL0     H61258   5.699   7.811   8.236  1.8213 -0.4959  0.9037
  444MOL0     H61259   5.466   7.849   8.256 -1.8688  0.8545  0.2790
  444MOL0     H61260   5.335   8.005   8.589  1.9663  0.2573 -1.0263
  444MOL0     H61261   5.298   8.170   8.533 -0.1092  0.2181 -0.5215
  444MOL0     H61262   5.090   8.045   8.592 -2.6904 -1.5317 -1.4061
  444MOL0     H61263   5.131   7.920   8.470  2.5013  0.0523  0.0003
  444MOL0     H61264   5.093   8.210   8.402  0.8485  0.0695 -0.0451
  444MOL0     H61265   5.097   8.085   8.288  1.0571 -1.1687  0.5313
  444MOL0     H61266   4.860   8.149   8.321  1.6017  0.4752 -0.5422
  444MOL0     H61267   4.877   8.122   8.495 -2.9513  0.0095  0.3246
  444MOL0     H61268   4.807   7.719   8.349 -0.5482 -0.6407  0.8481
  444MOL0     H61269   5.531   8.171   8.523 -0.3925 -0.7506 -0.5082
  444MOL0     H61270   5.752   8.208   8.620  1.0679  1.6231  0.9961
  444MOL0     H61271   5.899   8.139   8.550  0.0796  0.2624 -0.3974
  444MOL0     H61272   5.802   8.255   8.461 -0.9616  0.4369  1.5615
  445MOL0     O61273   6.462   6.543   1.884 -0.1326 -0.4357  0.2711
  445MOL0     C61274   6.388   6.622   1.944 -0.3563  0.2296 -0.6038
  445MOL0     O61275   6.421   6.680   2.062  0.1617 -0.2151  0.4016
  445MOL0     C61276   6.539   6.672   2.114 -1.4351 -0.2645  0.5337
  445MOL0     C61277   6.582   6.787   2.179 -0.6096  0.5729  0.1469
  445MOL0     C61278   6.713   6.797   2.232  0.6242 -0.1622 -0.5011
  445MOL0     C61279   6.806   6.694   2.226 -0.0202  0.5858  0.2705
  445MOL0     O61280   6.928   6.724   2.282 -0.3127  0.8062  0.2347
  445MOL0     C61281   7.026   6.623   2.289  0.8260  0.6201 -0.2763
  445MOL0     C61282   7.154   6.689   2.331 -0.5463  0.2421 -0.1528
  445MOL0     C61283   7.217   6.769   2.214 -0.3109 -1.1066 -0.6577
  445MOL0     C61284   7.263   6.689   2.101  0.1984  0.1720  0.1969
  445MOL0     C61285   7.340   6.761   1.984  0.4008 -0.1717 -0.0788
  445MOL0     C61286   7.390   6.653   1.890 -0.2525  0.0032  0.2760
  445MOL0     C61287   7.498   6.722   1.798  0.2283  0.6069 -0.0060
  445MOL0     C61288   7.586   6.609   1.751 -0.5262  0.8499 -0.3916
  445MOL0     N61289   7.706   6.663   1.693 -0.5106  0.0817 -0.0340
  445MOL0     C61290   7.835   6.690   1.734 -0.6405  0.4832  1.4447
  445MOL0     C61291   7.896   6.736   1.625 -0.2068 -0.6065 -0.7188
  445MOL0     C61292   8.041   6.787   1.625  0.5251  0.2787  0.3433
  445MOL0     C61293   8.139   6.668   1.616  0.0442 -0.0863 -0.2868
  445MOL0     C61294   8.284   6.727   1.609  0.1702 -0.6848  0.6679
  445MOL0     C61295   8.377   6.673   1.718  0.1177 -0.3559 -0.0275
  445MOL0     O61296   8.496   6.746   1.737 -0.2353 -0.2747  0.3799
  445MOL0     C61297   8.625   6.715   1.690  0.1497  0.4735 -0.2130
  445MOL0     C61298   8.664   6.650   1.569 -0.5166 -0.3383 -0.3146
  445MOL0     C61299   8.788   6.636   1.526 -0.6009 -0.6559 -0.2609
  445MOL0     C61300   8.814   6.600   1.380 -0.1762 -1.2069  0.1046
  445MOL0     C61301   8.900   6.679   1.612 -0.0972 -0.0848  0.7070
  445MOL0     C61302   9.047   6.673   1.572 -0.0647 -0.0525 -0.1226
  445MOL0     O61303   9.144   6.733   1.659  0.3981 -0.0080 -0.1626
  445MOL0     C61304   9.281   6.719   1.637 -0.1137 -0.8800 -0.7706
  445MOL0     C61305   9.359   6.662   1.739 -0.4125 -0.7538  0.0156
  445MOL0     C61306   9.493   6.626   1.723 -0.3568 -0.1987  0.8314
  445MOL0     C61307   9.548   6.647   1.599  0.0053  0.6582  0.2156
  445MOL0     O61308   9.681   6.616   1.562 -0.4513  0.2319 -0.2217
  445MOL0     C61309   9.757   6.538   1.657  0.1890  0.5293  0.0707
  445MOL0     C61310   9.885   6.485   1.594  0.5294  0.9286 -0.0057
  445MOL0     C61311   9.985   6.588   1.576  0.2844 -0.2655 -0.3737
  445MOL0     C61312  10.104   6.529   1.497  0.5309 -0.7453 -0.4690
  445MOL0     C61313  10.197   6.641   1.449  0.8396  0.0458  1.1308
  445MOL0     C61314  10.310   6.589   1.362  1.2256 -0.5591  0.0449
  445MOL0     C61315  10.387   6.719   1.317  0.5655 -0.0425 -0.2762
  445MOL0     C61316  10.493   6.688   1.215  0.0871 -0.1935 -0.5650
  445MOL0    Cl61317  10.538   6.847   1.139  0.4885 -0.2127 -0.2383
  445MOL0     C61318   9.469   6.702   1.496  0.1657  0.5152 -0.5203
  445MOL0     C61319   9.334   6.744   1.507 -0.7502  0.1058 -0.0821
  445MOL0     O61320   9.077   6.624   1.465 -0.6558  0.7517 -0.3463
  445MOL0     C61321   8.864   6.733   1.734 -0.1221  0.1860 -0.4725
  445MOL0     C61322   8.730   6.756   1.774  0.6984  0.0804 -0.4064
  445MOL0     N61323   7.812   6.742   1.519 -0.8139  0.1372 -0.9035
  445MOL0     N61324   7.698   6.686   1.557  0.3498  0.1755 -0.4451
  445MOL0     C61325   6.764   6.573   2.161 -0.8615 -0.5496 -0.4341
  445MOL0     C61326   6.636   6.564   2.106  0.0936 -0.2203 -0.5853
  445MOL0     C61327   6.252   6.637   1.894 -0.0457 -0.0887 -0.0187
  445MOL0     C61328   6.150   6.676   1.978 -0.3492  1.2604 -0.5004
  445MOL0     C61329   6.016   6.685   1.944 -0.1676 -0.3464  0.7019
  445MOL0     C61330   5.989   6.654   1.804  0.8223  0.2510  0.0350
  445MOL0     O61331   5.860   6.650   1.748 -0.2825 -0.0316  0.1928
  445MOL0     C61332   5.775   6.547   1.807  0.0392 -0.0400 -0.2438
  445MOL0     C61333   5.623   6.594   1.794 -0.5796  0.5954 -0.6148
  445MOL0     C61334   5.570   6.607   1.655 -0.9152 -0.4557 -0.1307
  445MOL0     C61335   5.602   6.477   1.573  0.5725  0.3363  0.5122
  445MOL0     C61336   5.501   6.484   1.469  1.1240 -0.3590 -0.6470
  445MOL0     C61337   5.421   6.499   1.378 -0.2125  0.7798 -0.1769
  445MOL0     C61338   6.091   6.625   1.715 -1.3177  0.2746  0.3366
  445MOL0     C61339   6.226   6.620   1.757  0.8595 -0.1859 -0.2881
  445MOL0     C61340   6.324   6.599   1.648 -0.8159 -0.3373  0.0336
  445MOL0     H61341   6.521   6.876   2.178 -0.6740  0.5244 -0.1766
  445MOL0     H61342   6.739   6.886   2.289 -2.2669  0.1476  0.5083
  445MOL0     H61343   7.033   6.569   2.194  0.3461  2.5554 -1.4552
  445MOL0     H61344   7.005   6.537   2.353  1.7429  0.7276  0.1780
  445MOL0     H61345   7.157   6.751   2.422  1.1925 -0.4178  0.2886
  445MOL0     H61346   7.233   6.620   2.363  2.9867  4.8971  2.6894
  445MOL0     H61347   7.166   6.858   2.176  1.9947 -0.3678 -2.2813
  445MOL0     H61348   7.309   6.820   2.245 -0.9643 -0.1242 -0.2792
  445MOL0     H61349   7.332   6.610   2.132 -0.1658  0.0295  0.6601
  445MOL0     H61350   7.179   6.632   2.059 -1.2258  1.8131  0.6776
  445MOL0     H61351   7.424   6.806   2.038  0.0929 -2.2305  2.2815
  445MOL0     H61352   7.273   6.833   1.937 -2.3824  0.2831  4.0529
  445MOL0     H61353   7.433   6.568   1.944  0.8250  1.1566  1.3131
  445MOL0     H61354   7.312   6.605   1.831 -0.1375 -0.6349  0.6300
  445MOL0     H61355   7.553   6.803   1.847  2.7341  0.4575 -2.2753
  445MOL0     H61356   7.446   6.771   1.715  2.5074  2.3223 -0.5344
  445MOL0     H61357   7.623   6.552   1.837  0.2172  0.4032 -0.9954
  445MOL0     H61358   7.532   6.545   1.680 -0.7909  1.6902 -0.9606
  445MOL0     H61359   7.882   6.679   1.831  0.3042  1.1310  1.0807
  445MOL0     H61360   8.050   6.854   1.711 -2.5721  0.7516  0.4008
  445MOL0     H61361   8.057   6.854   1.540 -2.4797  0.3905 -0.2486
  445MOL0     H61362   8.114   6.616   1.709  0.2203  0.8207  0.2795
  445MOL0     H61363   8.122   6.604   1.529  2.0198 -0.5773 -0.3503
  445MOL0     H61364   8.324   6.684   1.517 -0.4732 -0.7026  0.3920
  445MOL0     H61365   8.281   6.836   1.615  1.2054 -0.6178  0.1886
  445MOL0     H61366   8.332   6.675   1.818  0.2101  0.8752  0.0097
  445MOL0     H61367   8.402   6.572   1.685 -1.1122 -0.5256 -0.4960
  445MOL0     H61368   8.573   6.624   1.516 -2.3051  1.7165  1.5439
  445MOL0     H61369   8.868   6.506   1.367  3.3055  0.4845  1.2673
  445MOL0     H61370   8.873   6.679   1.334  0.3105 -0.1766  2.3811
  445MOL0     H61371   8.717   6.597   1.329  0.1224  0.4833 -0.6016
  445MOL0     H61372   9.324   6.651   1.842 -0.4699 -1.6332 -0.0978
  445MOL0     H61373   9.557   6.586   1.801  0.8620  0.6804  0.3029
  445MOL0     H61374   9.782   6.592   1.749  1.3610  0.8391 -0.4174
  445MOL0     H61375   9.694   6.450   1.673  0.9299  0.0888  0.6618
  445MOL0     H61376   9.926   6.410   1.662 -0.3544  0.2222 -0.2432
  445MOL0     H61377   9.854   6.436   1.502  1.1126  0.5678 -0.0180
  445MOL0     H61378  10.013   6.622   1.676 -1.1449 -0.3383  0.0749
  445MOL0     H61379   9.944   6.675   1.524  2.8741  0.1788 -1.8419
  445MOL0     H61380  10.082   6.467   1.409 -1.5123 -4.5045  2.4020
  445MOL0     H61381  10.159   6.467   1.568  0.1866  0.9930  1.3920
  445MOL0     H61382  10.143   6.723   1.401  0.0575  1.0412  3.5236
  445MOL0     H61383  10.234   6.699   1.534 -0.5935 -2.6874  3.8185
  445MOL0     H61384  10.272   6.539   1.272 -0.6385 -0.5437  0.7749
  445MOL0     H61385  10.382   6.520   1.407 -0.8809 -3.0686 -0.2105
  445MOL0     H61386  10.432   6.781   1.394 -1.2626  4.5445 -2.5420
  445MOL0     H61387  10.313   6.778   1.261  1.3340  0.6195 -0.6052
  445MOL0     H61388  10.451   6.624   1.137 -0.8198  0.5269 -0.6871
  445MOL0     H61389  10.578   6.639   1.263 -2.0860 -3.3765  0.4098
  445MOL0     H61390   9.510   6.710   1.395  1.6738  1.3223  0.1310
  445MOL0     H61391   9.287   6.793   1.423  2.6051  1.6380 -1.2293
  445MOL0     H61392   8.949   6.762   1.794  0.5070 -1.7109 -0.4010
  445MOL0     H61393   8.693   6.804   1.864 -0.8548  0.4856 -1.2282
  445MOL0     H61394   6.824   6.483   2.167  0.5340  0.4377  2.6944
  445MOL0     H61395   6.612   6.470   2.057  2.1109 -1.5431  0.7953
  445MOL0     H61396   6.178   6.694   2.081  1.9226 -1.2899 -0.5521
  445MOL0     H61397   5.935   6.709   2.011 -1.0536  2.7229 -1.2739
  445MOL0     H61398   5.787   6.452   1.753 -1.5143 -0.5654  0.2817
  445MOL0     H61399   5.802   6.532   1.912  0.6834  1.1189 -0.2304
  445MOL0     H61400   5.612   6.687   1.850  0.2068  0.1221  0.3621
  445MOL0     H61401   5.556   6.526   1.847  0.7091 -0.1557  0.1024
  445MOL0     H61402   5.463   6.630   1.661 -1.2553 -2.0867  0.6376
  445MOL0     H61403   5.610   6.693   1.601 -1.2468 -0.8963 -1.0988
  445MOL0     H61404   5.586   6.384   1.629  1.1854 -0.9582 -1.3576
  445MOL0     H61405   5.700   6.480   1.525  0.8211  1.3289  1.0582
  445MOL0     H61406   5.366   6.520   1.288 -2.4645  2.6532  1.5031
  445MOL0     H61407   6.066   6.618   1.609 -1.3059  0.7221  0.3032
  445MOL0     H61408   6.288   6.641   1.554  3.0762  0.7753 -1.1120
  445MOL0     H61409   6.426   6.636   1.662  0.2431 -3.3119  1.1309
  445MOL0     H61410   6.346   6.492   1.636 -0.0677  0.0309 -2.2061
  446MOL0     O61411   5.126   9.711   9.512  0.0568 -0.1992  0.8968
  446MOL0     C61412   5.081   9.753   9.407  0.0911 -0.2365  0.5251
  446MOL0     O61413   5.148   9.787   9.297  0.1341 -0.3667 -0.3818
  446MOL0     C61414   5.262   9.706   9.272 -0.3419 -0.6589 -0.1652
  446MOL0     C61415   5.390   9.757   9.278 -0.0909 -0.8615 -0.3956
  446MOL0     C61416   5.504   9.678   9.270  0.1128 -0.1132  0.8449
  446MOL0     C61417   5.485   9.542   9.232  0.2161 -0.1652  0.8549
  446MOL0     O61418   5.589   9.455   9.211  0.2082 -0.2189  0.3592
  446MOL0     C61419   5.675   9.428   9.321 -0.5462 -0.3563  0.7571
  446MOL0     C61420   5.801   9.371   9.274 -0.4706  0.1358 -0.1322
  446MOL0     C61421   5.888   9.472   9.199 -1.5618  0.1370  0.2184
  446MOL0     C61422   6.027   9.403   9.170 -0.0008 -0.5269 -0.7940
  446MOL0     C61423   6.120   9.478   9.072  0.5453  0.4140 -0.7342
  446MOL0     C61424   6.253   9.404   9.070  0.3537 -0.4259 -0.2336
  446MOL0     C61425   6.348   9.477   8.958 -0.2210  0.2118  0.3915
  446MOL0     C61426   6.480   9.412   8.963 -0.0190 -0.0856 -0.6771
  446MOL0     N61427   6.474   9.266   8.926  0.2769 -0.0189 -0.6563
  446MOL0     C61428   6.520   9.235   8.804  0.1713  0.5993 -0.5253
  446MOL0     C61429   6.523   9.101   8.809  0.1298  0.0601  0.0778
  446MOL0     C61430   6.573   9.013   8.703  0.6298 -0.0020 -0.4372
  446MOL0     C61431   6.732   9.019   8.714  0.1379 -0.3110  0.9115
  446MOL0     C61432   6.801   8.890   8.761 -0.6285  0.1526  0.0805
  446MOL0     C61433   6.945   8.883   8.754  0.6961 -0.9885 -0.2165
  446MOL0     O61434   6.988   8.872   8.618  0.5394 -0.4272 -0.0116
  446MOL0     C61435   7.122   8.853   8.604 -0.0413  0.1278 -0.8042
  446MOL0     C61436   7.171   8.724   8.607 -0.0614 -0.1086  0.8354
  446MOL0     C61437   7.307   8.707   8.613 -0.3799  0.1241  0.5993
  446MOL0     C61438   7.344   8.567   8.580  0.8591 -0.0426 -0.6322
  446MOL0     C61439   7.398   8.817   8.627  0.5079  0.4083  0.3585
  446MOL0     C61440   7.540   8.796   8.653 -0.4899 -0.1465  0.2947
  446MOL0     O61441   7.580   8.682   8.713 -0.2289 -0.1877  0.7166
  446MOL0     C61442   7.711   8.661   8.734 -0.9542 -0.1454  0.5870
  446MOL0     C61443   7.794   8.731   8.826  0.3380  0.2215 -0.2724
  446MOL0     C61444   7.931   8.705   8.843 -0.0316  0.3770  0.2953
  446MOL0     C61445   7.994   8.619   8.755  0.4639 -0.4085 -1.0367
  446MOL0     O61446   8.127   8.596   8.780 -0.1621  0.3727  0.1984
  446MOL0     C61447   8.190   8.476   8.723 -0.4848 -0.1241 -0.8800
  446MOL0     C61448   8.328   8.440   8.787  0.0494  0.7202  1.0195
  446MOL0     C61449   8.432   8.548   8.782 -0.5847 -0.6870  0.2889
  446MOL0     C61450   8.564   8.519   8.715  0.8936 -0.4789 -0.2936
  446MOL0     C61451   8.665   8.637   8.746  0.0590 -0.6528  0.6317
  446MOL0     C61452   8.787   8.599   8.672 -1.0241  0.2989  0.1765
  446MOL0     C61453   8.899   8.702   8.697 -0.8537 -0.3453 -0.6163
  446MOL0     C61454   8.971   8.691   8.837 -0.1302  0.7020 -0.5830
  446MOL0    Cl61455   9.087   8.833   8.862 -0.4394  0.0355 -0.0598
  446MOL0     C61456   7.919   8.545   8.667 -0.5090  0.0228  0.2673
  446MOL0     C61457   7.782   8.570   8.653  0.3643  0.4554 -0.9588
  446MOL0     O61458   7.620   8.887   8.620 -0.0008  0.9999 -0.0485
  446MOL0     C61459   7.344   8.946   8.615  0.1608 -0.2048  0.0322
  446MOL0     C61460   7.208   8.962   8.605 -0.7097 -0.5680 -0.9838
  446MOL0     N61461   6.482   9.062   8.933  0.0930  0.3345 -0.4436
  446MOL0     N61462   6.471   9.163   9.007  0.3334  0.8509 -0.2999
  446MOL0     C61463   5.360   9.492   9.207  0.7910  0.7602  0.2703
  446MOL0     C61464   5.251   9.568   9.236  0.0979  0.9029 -0.6450
  446MOL0     C61465   4.934   9.792   9.403  0.6327 -0.0272 -0.3470
  446MOL0     C61466   4.892   9.855   9.524  0.3377 -0.7103 -0.6280
  446MOL0     C61467   4.767   9.908   9.537  0.5409  0.4022 -1.5756
  446MOL0     C61468   4.670   9.889   9.439  1.1375 -0.8196 -0.6210
  446MOL0     O61469   4.538   9.937   9.470 -0.0530  0.1847 -0.6593
  446MOL0     C61470   4.421   9.882   9.406 -1.2794 -0.1877  0.0324
  446MOL0     C61471   4.295   9.928   9.487  0.7022 -0.2120 -0.5735
  446MOL0     C61472   4.310   9.900   9.637  0.4984 -0.2146  0.0746
  446MOL0     C61473   4.346   9.755   9.668  0.2878 -0.4541 -0.3408
  446MOL0     C61474   4.365   9.732   9.815 -0.2011  0.4882  0.0032
  446MOL0     C61475   4.383   9.709   9.936  0.2773 -0.0934  0.1746
  446MOL0     C61476   4.707   9.824   9.326  0.1863 -0.1961 -0.2212
  446MOL0     C61477   4.845   9.782   9.303  0.8028 -0.7925  0.3204
  446MOL0     C61478   4.867   9.722   9.166  0.3255  0.5105 -0.6093
  446MOL0     H61479   5.409   9.863   9.293  0.2568 -1.1294  1.2652
  446MOL0     H61480   5.603   9.722   9.266  0.5914 -1.0199  2.0992
  446MOL0     H61481   5.631   9.356   9.392 -0.8576 -0.7920  0.1285
  446MOL0     H61482   5.689   9.522   9.375 -1.7981  1.3363 -1.6738
  446MOL0     H61483   5.858   9.349   9.365  0.4764  1.6791 -0.3298
  446MOL0     H61484   5.785   9.277   9.220  0.6844 -0.1966  0.0767
  446MOL0     H61485   5.842   9.510   9.107  1.2615  1.1177 -0.9073
  446MOL0     H61486   5.902   9.560   9.263  3.4632 -0.8421  0.9263
  446MOL0     H61487   6.076   9.376   9.265 -1.1745  0.1176  0.0211
  446MOL0     H61488   5.999   9.310   9.120  0.2886  1.5824 -5.3048
  446MOL0     H61489   6.138   9.582   9.100 -1.9394 -0.0176  3.2718
  446MOL0     H61490   6.072   9.487   8.975  0.9608  1.1320 -0.8801
  446MOL0     H61491   6.291   9.399   9.172 -1.4117 -2.1271  0.3984
  446MOL0     H61492   6.237   9.302   9.035  0.8126 -0.1663 -1.2692
  446MOL0     H61493   6.358   9.586   8.961 -2.2162  0.5855 -2.4440
  446MOL0     H61494   6.296   9.460   8.863  2.5056  0.5731 -1.2773
  446MOL0     H61495   6.552   9.459   8.896 -1.2405 -1.9614 -3.4905
  446MOL0     H61496   6.513   9.411   9.068  2.7564 -0.4385 -1.4663
  446MOL0     H61497   6.561   9.295   8.724 -0.8404  1.6782 -0.2581
  446MOL0     H61498   6.534   9.048   8.607  0.1589  2.5653  0.6154
  446MOL0     H61499   6.529   8.914   8.719 -0.4664  0.7257  1.3254
  446MOL0     H61500   6.755   9.044   8.611 -1.1720  2.1937  1.1559
  446MOL0     H61501   6.764   9.102   8.777 -0.0912 -0.4929  1.2734
  446MOL0     H61502   6.776   8.872   8.866  1.8886  1.5148  1.0115
  446MOL0     H61503   6.763   8.811   8.696 -0.5470  0.5442 -0.4504
  446MOL0     H61504   6.990   8.975   8.795 -0.9694 -0.8979  1.5836
  446MOL0     H61505   6.987   8.807   8.820  2.7749 -0.7562 -1.1832
  446MOL0     H61506   7.105   8.639   8.599 -0.6068  0.1708  2.0738
  446MOL0     H61507   7.447   8.560   8.544  0.1078  0.7111 -3.1398
  446MOL0     H61508   7.277   8.523   8.506 -1.3124 -2.0936  2.3133
  446MOL0     H61509   7.334   8.511   8.674  1.4469  0.0218 -0.5265
  446MOL0     H61510   7.754   8.814   8.883 -1.8099 -0.9016 -0.0306
  446MOL0     H61511   7.996   8.755   8.914 -0.9719  0.7116  0.9300
  446MOL0     H61512   8.122   8.390   8.725 -1.3278  0.5279 -0.6910
  446MOL0     H61513   8.219   8.488   8.618  0.5356 -1.0822 -0.7244
  446MOL0     H61514   8.305   8.411   8.889 -0.7430 -1.4859  0.2808
  446MOL0     H61515   8.373   8.361   8.725  2.5769  3.3052 -0.6749
  446MOL0     H61516   8.464   8.581   8.881  2.4955 -1.6240 -0.3126
  446MOL0     H61517   8.396   8.642   8.738  0.6711  1.0016  2.6811
  446MOL0     H61518   8.539   8.505   8.609 -1.3309 -0.4415  0.1763
  446MOL0     H61519   8.602   8.425   8.756 -0.7846 -0.8628  0.4680
  446MOL0     H61520   8.625   8.729   8.703  0.8215 -0.8633 -0.5873
  446MOL0     H61521   8.680   8.635   8.855  1.9320  2.3581  0.5542
  446MOL0     H61522   8.782   8.582   8.564  1.4437 -1.4281  0.2553
  446MOL0     H61523   8.826   8.502   8.705  0.2589  0.7740  0.1100
  446MOL0     H61524   8.859   8.803   8.702 -0.6927 -0.3314  0.6343
  446MOL0     H61525   8.977   8.697   8.621 -2.0922  0.7360 -2.0095
  446MOL0     H61526   9.030   8.599   8.837 -1.2817 -0.0776  1.0375
  446MOL0     H61527   8.902   8.684   8.921  1.0834  0.6941  0.4433
  446MOL0     H61528   7.964   8.462   8.614 -1.9765 -0.5886 -0.0817
  446MOL0     H61529   7.718   8.512   8.587  0.9171 -0.9718 -0.2853
  446MOL0     H61530   7.412   9.030   8.625 -0.6955  0.5601 -0.4124
  446MOL0     H61531   7.167   9.063   8.603 -1.7762 -0.9805 -0.2618
  446MOL0     H61532   5.345   9.393   9.164  2.3973  0.2319  0.8116
  446MOL0     H61533   5.152   9.535   9.206  0.3680 -0.0066 -0.5622
  446MOL0     H61534   4.958   9.871   9.609  0.6074 -3.4708 -0.2442
  446MOL0     H61535   4.736   9.957   9.628  0.6339  0.4138 -1.5492
  446MOL0     H61536   4.417   9.929   9.307  2.4259  2.9404  1.0979
  446MOL0     H61537   4.429   9.774   9.396 -0.5487  0.0663 -3.4428
  446MOL0     H61538   4.209   9.873   9.448  0.5613  0.1636 -0.7901
  446MOL0     H61539   4.277  10.034   9.469 -1.6920 -0.3144  0.7527
  446MOL0     H61540   4.381   9.973   9.677  0.4356  0.2368 -0.6362
  446MOL0     H61541   4.220   9.912   9.698  0.6872 -0.8776  0.5048
  446MOL0     H61542   4.440   9.734   9.615  1.4652  1.0305  1.0484
  446MOL0     H61543   4.265   9.692   9.630  0.3315  0.2337 -1.6514
  446MOL0     H61544   4.415   9.687  10.036 -0.3798 -2.1576 -0.0170
  446MOL0     H61545   4.631   9.828   9.249 -1.5429  2.6435  1.4548
  446MOL0     H61546   4.784   9.658   9.137 -0.3139  1.2424 -0.4177
  446MOL0     H61547   4.883   9.798   9.089  0.4480 -0.8800 -2.0120
  446MOL0     H61548   4.960   9.665   9.174  0.1342 -0.5248 -4.0406
  447MOL0     O61549   7.076   2.722   6.365 -0.1978 -0.0057  0.0518
  447MOL0     C61550   6.986   2.665   6.437 -0.7165  0.4475 -0.2859
  447MOL0     O61551   7.021   2.578   6.535  0.2772 -1.2643  0.5509
  447MOL0     C61552   7.155   2.552   6.554  0.2203  0.0222 -0.0596
  447MOL0     C61553   7.204   2.423   6.513 -0.7059  0.6699 -0.0188
  447MOL0     C61554   7.345   2.397   6.508 -0.2308 -1.0665  0.1914
  447MOL0     C61555   7.434   2.501   6.556  0.3543  0.5416 -0.0765
  447MOL0     O61556   7.570   2.495   6.561  0.1746  0.0147  1.1058
  447MOL0     C61557   7.640   2.372   6.541  0.0174  0.0926 -0.2575
  447MOL0     C61558   7.667   2.309   6.678  0.1885 -0.0262 -0.5564
  447MOL0     C61559   7.748   2.176   6.673  0.2632  0.6644  0.2798
  447MOL0     C61560   7.882   2.186   6.616  0.3306  0.3552 -0.6213
  447MOL0     C61561   7.970   2.061   6.652  0.4885  0.2571  0.6549
  447MOL0     C61562   8.119   2.098   6.616  0.4451  0.4817 -1.1072
  447MOL0     C61563   8.208   1.992   6.661 -0.6720  0.1819 -0.2778
  447MOL0     C61564   8.348   2.022   6.614  0.7764 -0.2238  0.0745
  447MOL0     N61565   8.448   1.931   6.640 -0.1066 -0.0777  0.0157
  447MOL0     C61566   8.492   1.890   6.762 -0.3412  0.2021 -0.0891
  447MOL0     C61567   8.580   1.796   6.741  0.3345 -0.7052 -0.0779
  447MOL0     C61568   8.671   1.738   6.848 -0.3747  0.3670 -0.3204
  447MOL0     C61569   8.824   1.774   6.816  0.3518 -0.5407  0.4891
  447MOL0     C61570   8.906   1.720   6.935 -0.6185  0.7282  0.4709
  447MOL0     C61571   9.057   1.757   6.935 -0.3517  0.9871  0.0166
  447MOL0     O61572   9.127   1.684   6.837 -0.0575  0.0341 -0.0773
  447MOL0     C61573   9.259   1.718   6.835 -0.2680  0.8702  0.3815
  447MOL0     C61574   9.320   1.835   6.889 -0.2504  0.8582 -0.5496
  447MOL0     C61575   9.459   1.863   6.879  0.9200 -0.6996  0.0342
  447MOL0     C61576   9.504   1.986   6.944  0.6881 -0.3430  0.5418
  447MOL0     C61577   9.539   1.788   6.791 -0.2458  0.7784 -0.0498
  447MOL0     C61578   9.688   1.804   6.763  0.5377  0.0003 -0.4305
  447MOL0     O61579   9.738   1.723   6.667 -0.0651 -0.1917  0.6216
  447MOL0     C61580   9.875   1.706   6.643 -0.1079 -1.3914  0.2990
  447MOL0     C61581   9.988   1.708   6.726 -0.0103 -0.1555  0.2943
  447MOL0     C61582  10.119   1.725   6.668 -0.2890  0.2541 -0.3982
  447MOL0     C61583  10.135   1.713   6.532 -0.4069 -0.7832  0.4320
  447MOL0     O61584  10.260   1.723   6.470 -0.0948 -0.4170 -0.1784
  447MOL0     C61585  10.320   1.850   6.497 -1.4546  0.2308  0.0024
  447MOL0     C61586  10.373   1.902   6.366 -0.2059 -0.6892  0.1652
  447MOL0     C61587  10.263   1.955   6.271  0.3722 -0.5166 -0.1500
  447MOL0     C61588  10.315   2.077   6.193 -0.0505 -0.6283  0.2117
  447MOL0     C61589  10.193   2.124   6.099 -0.3712 -0.6485  0.2636
  447MOL0     C61590  10.164   2.270   6.109  0.3958 -0.3282  0.4103
  447MOL0     C61591  10.034   2.315   6.048 -0.5333 -0.7238  0.5254
  447MOL0     C61592  10.049   2.310   5.901 -0.3983 -0.3141  0.3760
  447MOL0    Cl61593   9.902   2.371   5.822 -0.0262  0.2897 -0.1501
  447MOL0     C61594  10.026   1.708   6.446  0.4212 -0.4549 -0.8578
  447MOL0     C61595   9.898   1.698   6.504  0.6174 -0.4089 -0.6513
  447MOL0     O61596   9.743   1.892   6.823  0.1730  0.8581  0.0025
  447MOL0     C61597   9.477   1.675   6.722 -0.1332 -0.3273  0.1484
  447MOL0     C61598   9.344   1.638   6.753  0.8915  0.3964  0.0956
  447MOL0     N61599   8.586   1.772   6.604  0.1158 -0.7936 -0.3227
  447MOL0     N61600   8.516   1.866   6.545  0.5834 -0.3108 -0.2362
  447MOL0     C61601   7.374   2.617   6.611 -0.1669 -0.5354  0.1674
  447MOL0     C61602   7.240   2.640   6.602  0.2156 -0.8630  0.1372
  447MOL0     C61603   6.840   2.691   6.411  0.1967  0.7066 -0.2781
  447MOL0     C61604   6.747   2.643   6.506  0.5548  0.5696  0.4480
  447MOL0     C61605   6.611   2.667   6.484 -0.3696  0.0971 -0.4981
  447MOL0     C61606   6.560   2.724   6.366 -0.6208  0.5524  0.6949
  447MOL0     O61607   6.430   2.721   6.327  0.2732 -0.2075 -0.1727
  447MOL0     C61608   6.331   2.661   6.412 -0.6418  0.2207  0.4005
  447MOL0     C61609   6.182   2.676   6.372  0.1081  0.4738  0.0975
  447MOL0     C61610   6.070   2.643   6.477  0.5298 -0.7824 -0.5074
  447MOL0     C61611   5.926   2.664   6.430  1.0725  0.5419  0.0989
  447MOL0     C61612   5.833   2.650   6.538 -0.6106  0.7231 -0.3010
  447MOL0     C61613   5.758   2.634   6.636 -1.0901  1.1013  0.4720
  447MOL0     C61614   6.656   2.768   6.277 -0.0061 -0.8038  0.0129
  447MOL0     C61615   6.792   2.757   6.298  0.1149 -0.7138  0.4924
  447MOL0     C61616   6.877   2.804   6.183 -0.1035 -0.1127  0.0855
  447MOL0     H61617   7.131   2.356   6.468 -0.1795 -1.0751  1.5534
  447MOL0     H61618   7.385   2.306   6.466  2.5146 -0.2088  0.7918
  447MOL0     H61619   7.738   2.391   6.496  0.4539  0.2876  0.7244
  447MOL0     H61620   7.593   2.300   6.474  0.4613  0.2476 -0.7352
  447MOL0     H61621   7.723   2.381   6.738 -0.7655  1.0440 -0.9151
  447MOL0     H61622   7.571   2.288   6.725 -0.1071  2.0448 -0.1382
  447MOL0     H61623   7.758   2.128   6.771  0.4351 -0.1032 -0.1010
  447MOL0     H61624   7.691   2.098   6.621  2.8819 -1.6661  0.6791
  447MOL0     H61625   7.881   2.199   6.507  0.6448 -0.0709 -0.6746
  447MOL0     H61626   7.931   2.271   6.665 -3.5301  2.6515 -0.2758
  447MOL0     H61627   7.930   1.983   6.586  0.2571  0.1043  0.9753
  447MOL0     H61628   7.962   2.040   6.759 -0.2580  2.8916  1.1879
  447MOL0     H61629   8.128   2.102   6.508 -0.7814  0.2929 -1.2356
  447MOL0     H61630   8.149   2.192   6.665 -0.6331 -0.9207  2.6031
  447MOL0     H61631   8.173   1.898   6.616 -1.7013  0.6268 -0.4353
  447MOL0     H61632   8.208   1.974   6.769 -0.7779 -2.5919 -0.6595
  447MOL0     H61633   8.357   2.040   6.506 -4.4632 -2.7155 -1.1327
  447MOL0     H61634   8.371   2.113   6.669 -0.1153 -0.1723  0.3814
  447MOL0     H61635   8.450   1.923   6.856 -0.0492  2.0748 -0.5904
  447MOL0     H61636   8.672   1.629   6.852  2.0501  0.3589  0.6952
  447MOL0     H61637   8.629   1.773   6.943 -3.1417 -1.7828 -0.6181
  447MOL0     H61638   8.847   1.723   6.722 -0.9013  0.6578 -0.4966
  447MOL0     H61639   8.843   1.880   6.796 -1.6982 -0.1944  0.2595
  447MOL0     H61640   8.863   1.759   7.028 -0.4001  1.4364  0.2780
  447MOL0     H61641   8.899   1.611   6.926  1.6757  0.4680  1.2653
  447MOL0     H61642   9.058   1.865   6.917 -1.2354  1.0792  0.4904
  447MOL0     H61643   9.104   1.734   7.031 -0.5719 -1.0618 -0.3242
  447MOL0     H61644   9.259   1.900   6.952 -0.1186 -1.4669  2.2076
  447MOL0     H61645   9.580   1.955   7.016  0.3242 -0.1048  1.0352
  447MOL0     H61646   9.421   2.038   6.993  0.6300  0.5446 -0.4477
  447MOL0     H61647   9.555   2.065   6.888  0.2612 -0.5595 -0.1777
  447MOL0     H61648   9.966   1.704   6.833  1.4232  1.8491  0.7184
  447MOL0     H61649  10.195   1.742   6.744 -1.1312  2.2850  0.0662
  447MOL0     H61650  10.250   1.920   6.543 -1.4438  0.4627 -0.3287
  447MOL0     H61651  10.416   1.853   6.549  0.1820 -0.6135 -2.7683
  447MOL0     H61652  10.451   1.977   6.386 -0.9515  0.0184  0.4432
  447MOL0     H61653  10.428   1.824   6.312  0.3929  0.1243 -0.4321
  447MOL0     H61654  10.182   1.988   6.336 -0.1055 -2.9675  0.6131
  447MOL0     H61655  10.241   1.876   6.199 -1.2330 -0.1941 -0.0385
  447MOL0     H61656  10.398   2.033   6.136 -1.5998 -2.0378 -1.0546
  447MOL0     H61657  10.358   2.162   6.247 -0.3333 -0.5493  0.3157
  447MOL0     H61658  10.224   2.089   5.999  2.2988  2.1005 -0.0079
  447MOL0     H61659  10.100   2.077   6.131 -0.2243 -0.6694  0.6694
  447MOL0     H61660  10.242   2.313   6.046 -3.0276  2.5168 -2.2938
  447MOL0     H61661  10.153   2.303   6.213  2.0026 -0.1205  0.5321
  447MOL0     H61662  10.014   2.420   6.073 -0.0866 -0.9441  1.9252
  447MOL0     H61663   9.954   2.247   6.080 -0.6954 -0.5646  0.4637
  447MOL0     H61664  10.060   2.206   5.867 -0.6824 -1.1548  2.6760
  447MOL0     H61665  10.142   2.360   5.872  0.4360 -0.2898  2.8814
  447MOL0     H61666  10.031   1.706   6.338 -2.8727 -0.3298 -1.0985
  447MOL0     H61667   9.804   1.698   6.449 -1.3281 -0.2604  2.3864
  447MOL0     H61668   9.539   1.610   6.661 -1.1607 -2.5642  1.3447
  447MOL0     H61669   9.300   1.549   6.709 -0.4948 -1.2246  4.2244
  447MOL0     H61670   7.428   2.704   6.646 -0.3140  0.5973 -2.2747
  447MOL0     H61671   7.204   2.738   6.632 -0.2514 -0.4840 -1.5540
  447MOL0     H61672   6.772   2.587   6.596 -2.3940 -1.7731 -0.0425
  447MOL0     H61673   6.551   2.633   6.568  0.7148 -3.0324 -0.8564
  447MOL0     H61674   6.351   2.555   6.430 -3.6054 -0.8495 -1.8333
  447MOL0     H61675   6.333   2.706   6.511 -2.5350 -0.3622  0.7372
  447MOL0     H61676   6.167   2.612   6.285 -0.9378 -1.0835  1.3742
  447MOL0     H61677   6.163   2.779   6.340  0.9467 -0.2275 -3.0005
  447MOL0     H61678   6.086   2.541   6.512  0.5983 -1.1453 -1.5523
  447MOL0     H61679   6.084   2.708   6.564  1.3805  0.9111 -1.8463
  447MOL0     H61680   5.887   2.593   6.356 -1.6853  1.9810  0.0281
  447MOL0     H61681   5.908   2.766   6.396 -0.0520  0.0789 -0.7664
  447MOL0     H61682   5.683   2.631   6.712 -2.4336 -1.0325 -0.8506
  447MOL0     H61683   6.612   2.813   6.189 -0.1443 -0.3032  0.3305
  447MOL0     H61684   6.935   2.895   6.204  1.0456 -0.8281  0.1408
  447MOL0     H61685   6.948   2.728   6.148  0.8867  1.2579 -1.0270
  447MOL0     H61686   6.812   2.828   6.098 -1.2018  1.0280  1.2087
  448MOL0     O61687   2.738   7.220   3.538  0.0151  0.1680  0.5450
  448MOL0     C61688   2.632   7.270   3.582 -0.2437  0.0146  0.1441
  448MOL0     O61689   2.614   7.402   3.603 -0.0253 -0.4278 -0.0750
  448MOL0     C61690   2.725   7.495   3.572  0.8855  0.8759 -0.3150
  448MOL0     C61691   2.713   7.574   3.462  0.0774 -0.1938  0.8401
  448MOL0     C61692   2.819   7.656   3.427 -1.4201 -0.0197  0.3331
  448MOL0     C61693   2.928   7.667   3.514  0.2215  0.1000  0.4252
  448MOL0     O61694   3.048   7.734   3.496 -0.3557 -0.4207 -0.3358
  448MOL0     C61695   3.103   7.728   3.361 -0.2388  0.1297  0.2274
  448MOL0     C61696   3.212   7.826   3.329 -0.0180 -0.4028 -0.2382
  448MOL0     C61697   3.162   7.974   3.313  0.1737  0.0484  0.2031
  448MOL0     C61698   3.278   8.063   3.297  0.3546  0.0687  0.7903
  448MOL0     C61699   3.245   8.217   3.306  0.3022  0.0904 -0.3686
  448MOL0     C61700   3.367   8.299   3.268 -0.0990  0.8934 -0.0787
  448MOL0     C61701   3.346   8.455   3.270 -0.3788 -0.1923 -0.3167
  448MOL0     C61702   3.487   8.523   3.253  0.9736 -0.0777 -1.2857
  448MOL0     N61703   3.479   8.659   3.292  0.0776 -0.1653 -0.3943
  448MOL0     C61704   3.585   8.756   3.283  0.3406 -0.5835 -0.4036
  448MOL0     C61705   3.525   8.867   3.338  0.3819  0.1290  0.3842
  448MOL0     C61706   3.583   9.006   3.349 -0.2774  0.4015  0.7979
  448MOL0     C61707   3.658   9.036   3.222  0.6908  0.4124 -0.5061
  448MOL0     C61708   3.688   9.188   3.221  0.2878 -0.2650  0.6306
  448MOL0     C61709   3.759   9.238   3.089  0.5010  0.4337  0.1381
  448MOL0     O61710   3.864   9.149   3.057  0.5882  0.2697 -0.2967
  448MOL0     C61711   3.963   9.196   2.972  0.1345  0.1412 -0.3543
  448MOL0     C61712   3.944   9.274   2.865 -0.8816  0.6908  0.4272
  448MOL0     C61713   4.049   9.318   2.777  0.7263 -0.6808  0.5292
  448MOL0     C61714   4.000   9.408   2.663  0.4139 -0.1703 -0.0029
  448MOL0     C61715   4.179   9.267   2.798  0.0606  0.5191 -0.2566
  448MOL0     C61716   4.300   9.298   2.718  0.3866 -1.0233  0.1599
  448MOL0     O61717   4.416   9.259   2.772 -0.2677 -0.6213  0.2174
  448MOL0     C61718   4.539   9.270   2.703  0.3380 -0.6719  0.1890
  448MOL0     C61719   4.566   9.244   2.569 -0.0107 -0.0998  0.6043
  448MOL0     C61720   4.701   9.244   2.529  1.2330 -0.0481 -0.6501
  448MOL0     C61721   4.805   9.283   2.612 -1.3951  0.0468 -0.5203
  448MOL0     O61722   4.934   9.281   2.570  0.5366  0.4116 -0.2778
  448MOL0     C61723   5.037   9.364   2.629  1.1451 -0.0123  0.0639
  448MOL0     C61724   5.183   9.337   2.581 -1.1179  0.1259  0.5405
  448MOL0     C61725   5.266   9.466   2.615 -0.0829  0.8124 -0.6631
  448MOL0     C61726   5.416   9.453   2.581 -0.7517 -1.2893 -0.1092
  448MOL0     C61727   5.482   9.337   2.645  0.3929  0.0916 -0.1413
  448MOL0     C61728   5.632   9.373   2.664 -0.1788  0.3299 -0.7767
  448MOL0     C61729   5.710   9.247   2.711 -0.0483 -0.1653 -0.3582
  448MOL0     C61730   5.862   9.272   2.708  0.1603  0.8617  0.7131
  448MOL0    Cl61731   5.917   9.248   2.537  0.3776  0.5117 -0.1809
  448MOL0     C61732   4.772   9.316   2.747  0.5611  0.3384  0.5239
  448MOL0     C61733   4.642   9.309   2.789  0.2665 -0.1070  0.0951
  448MOL0     O61734   4.281   9.362   2.614  0.1209  0.3196  0.0215
  448MOL0     C61735   4.192   9.195   2.917 -0.5278 -0.1900 -0.5693
  448MOL0     C61736   4.085   9.160   3.000  0.5159 -0.3747 -0.5936
  448MOL0     N61737   3.399   8.842   3.381  0.5370  1.0959  0.1481
  448MOL0     N61738   3.370   8.721   3.352  0.0142 -0.0212  0.7726
  448MOL0     C61739   2.924   7.604   3.642  0.2398  0.2779  1.1189
  448MOL0     C61740   2.823   7.519   3.675 -0.2885 -1.5049 -0.1579
  448MOL0     C61741   2.519   7.183   3.622  0.3365  0.6219  0.4448
  448MOL0     C61742   2.544   7.057   3.680 -0.3382  0.3329 -0.1578
  448MOL0     C61743   2.446   6.980   3.738 -0.1626 -0.2229 -0.1470
  448MOL0     C61744   2.313   7.013   3.728  0.7284 -0.2369  0.2647
  448MOL0     O61745   2.225   6.911   3.765 -0.5221 -0.1941 -0.4073
  448MOL0     C61746   2.083   6.919   3.755  1.0380 -1.0281 -0.2904
  448MOL0     C61747   2.024   6.825   3.647 -0.5214 -0.0329  1.0161
  448MOL0     C61748   1.876   6.800   3.657  0.7044  0.1653 -1.1031
  448MOL0     C61749   1.824   6.732   3.523  0.3649  0.4848 -0.1908
  448MOL0     C61750   1.693   6.666   3.544  0.2171  0.2297 -0.9278
  448MOL0     C61751   1.600   6.587   3.565 -0.6301 -0.0518 -0.2392
  448MOL0     C61752   2.282   7.140   3.676  0.8183  0.0416  0.5666
  448MOL0     C61753   2.380   7.215   3.618  0.4353 -0.9253 -0.9823
  448MOL0     C61754   2.332   7.357   3.562  0.4105  0.3979  0.3140
  448MOL0     H61755   2.623   7.564   3.402  1.8346  0.4334 -2.0791
  448MOL0     H61756   2.812   7.708   3.332 -0.5071  0.5146  0.5516
  448MOL0     H61757   3.023   7.739   3.287 -0.5866  0.3069  0.6197
  448MOL0     H61758   3.149   7.631   3.343  0.2227  0.1721  1.1342
  448MOL0     H61759   3.294   7.800   3.396  1.6023 -0.8864 -2.3130
  448MOL0     H61760   3.246   7.791   3.231  2.9331 -1.4390  1.0786
  448MOL0     H61761   3.101   7.979   3.223 -2.7660  0.1709  2.0859
  448MOL0     H61762   3.091   7.998   3.393 -1.2280  0.3182 -1.0914
  448MOL0     H61763   3.354   8.044   3.373  0.7240  1.6200  0.8505
  448MOL0     H61764   3.319   8.029   3.201 -0.1539 -1.7572  1.1935
  448MOL0     H61765   3.212   8.240   3.408 -0.9213 -1.2171 -0.4314
  448MOL0     H61766   3.165   8.246   3.237  0.0926 -1.1446 -0.6757
  448MOL0     H61767   3.445   8.272   3.340 -0.3049  2.0412  0.6071
  448MOL0     H61768   3.405   8.269   3.170  3.9577  3.4662  0.4248
  448MOL0     H61769   3.306   8.477   3.370  0.4929  2.3723 -0.4645
  448MOL0     H61770   3.271   8.496   3.200 -2.6166 -0.6750  1.6558
  448MOL0     H61771   3.560   8.476   3.319 -0.2366  0.0763  0.2172
  448MOL0     H61772   3.518   8.514   3.148  1.2563 -2.7021 -1.0391
  448MOL0     H61773   3.684   8.741   3.242 -0.4198 -0.0198 -2.5695
  448MOL0     H61774   3.646   9.004   3.438 -2.0353 -0.3359  2.0703
  448MOL0     H61775   3.507   9.083   3.364 -0.2459  1.0398 -1.7416
  448MOL0     H61776   3.752   8.981   3.216  0.1457 -0.4541 -1.2740
  448MOL0     H61777   3.603   9.010   3.131 -2.1090  3.2899  0.1410
  448MOL0     H61778   3.599   9.249   3.241  0.8196  0.2907  1.3367
  448MOL0     H61779   3.761   9.211   3.298  0.5020  1.9578 -0.1492
  448MOL0     H61780   3.694   9.232   3.001 -0.0334 -2.4716  0.6077
  448MOL0     H61781   3.787   9.343   3.094  3.6941 -0.3837  2.3268
  448MOL0     H61782   3.849   9.322   2.844 -0.3088  1.0689 -1.5431
  448MOL0     H61783   3.998   9.352   2.569  0.8122  2.6563 -1.8079
  448MOL0     H61784   4.074   9.487   2.651  1.2767 -1.1076 -1.1497
  448MOL0     H61785   3.898   9.441   2.683  0.2926  0.4148 -1.4800
  448MOL0     H61786   4.488   9.211   2.501  1.2861 -1.1937 -0.4387
  448MOL0     H61787   4.722   9.189   2.438 -1.0035 -3.8965  0.9045
  448MOL0     H61788   5.010   9.461   2.586  2.8019  0.0632 -0.9052
  448MOL0     H61789   5.027   9.382   2.736  0.9115  0.7784 -0.0866
  448MOL0     H61790   5.229   9.246   2.620  1.0434  1.4839  1.3350
  448MOL0     H61791   5.176   9.323   2.472 -1.5996 -2.1156  0.8004
  448MOL0     H61792   5.265   9.479   2.724 -0.1590 -1.5832 -0.3301
  448MOL0     H61793   5.233   9.551   2.554  0.6207  0.9589 -0.8461
  448MOL0     H61794   5.459   9.544   2.624  0.4591 -2.0867  0.4582
  448MOL0     H61795   5.434   9.456   2.474 -0.4417  3.5281 -0.1246
  448MOL0     H61796   5.451   9.337   2.750 -0.8834  0.5931 -0.5025
  448MOL0     H61797   5.460   9.247   2.587  0.9220 -0.1732  0.0613
  448MOL0     H61798   5.643   9.450   2.741 -3.1184  1.3981 -1.3034
  448MOL0     H61799   5.673   9.407   2.569  0.3430 -3.0753 -1.9031
  448MOL0     H61800   5.690   9.164   2.643  2.8664 -1.6642  0.4155
  448MOL0     H61801   5.683   9.210   2.810 -0.7547 -1.0643 -0.8679
  448MOL0     H61802   5.908   9.195   2.771  2.5284  2.6005  1.2149
  448MOL0     H61803   5.890   9.370   2.746  0.9111  0.3513  1.5118
  448MOL0     H61804   4.852   9.346   2.814  1.5866 -0.0256 -0.5009
  448MOL0     H61805   4.631   9.331   2.894  3.4548  2.0947  0.1065
  448MOL0     H61806   4.289   9.161   2.953 -0.3572 -0.3683 -1.1746
  448MOL0     H61807   4.107   9.109   3.093 -0.6614  0.6173  0.2622
  448MOL0     H61808   3.001   7.614   3.718  0.5445 -2.1689  1.2109
  448MOL0     H61809   2.815   7.469   3.771  2.6065 -0.6593  0.5910
  448MOL0     H61810   2.646   7.023   3.695 -0.2963 -0.4394 -1.9898
  448MOL0     H61811   2.469   6.887   3.789 -1.6548 -0.9316 -0.7064
  448MOL0     H61812   2.036   6.879   3.846 -0.5782 -0.6782 -0.9312
  448MOL0     H61813   2.057   7.023   3.733 -1.0322 -1.9488 -2.6841
  448MOL0     H61814   2.062   6.722   3.655 -2.6971 -0.9874 -0.0992
  448MOL0     H61815   2.039   6.857   3.544 -3.7850  1.4279  0.8957
  448MOL0     H61816   1.855   6.732   3.740  0.2068  1.7785  0.1479
  448MOL0     H61817   1.828   6.897   3.673  0.7843  0.0205  0.1517
  448MOL0     H61818   1.897   6.664   3.478  2.3330  1.2835  1.5846
  448MOL0     H61819   1.814   6.806   3.443  1.2491 -0.4583 -1.2114
  448MOL0     H61820   1.516   6.526   3.590  1.1561 -1.4839  2.9204
  448MOL0     H61821   2.180   7.176   3.673  0.1335 -1.7285  1.0579
  448MOL0     H61822   2.385   7.366   3.467  0.1633  1.5645  0.2639
  448MOL0     H61823   2.226   7.349   3.538  0.9721 -0.8465 -1.9434
  448MOL0     H61824   2.352   7.442   3.629  0.7199  1.4998 -1.1294
  449MOL0     O61825   5.008   2.757   2.848 -0.2558 -0.2043 -0.0431
  449MOL0     C61826   5.072   2.654   2.829 -0.4566 -0.0318  0.4104
  449MOL0     O61827   5.186   2.650   2.760  0.0634  0.0571 -0.2132
  449MOL0     C61828   5.238   2.755   2.698 -0.1716  0.2719 -0.5886
  449MOL0     C61829   5.171   2.835   2.611 -0.3684  0.5481  0.1078
  449MOL0     C61830   5.238   2.941   2.546  0.4876 -0.2636  0.7088
  449MOL0     C61831   5.373   2.952   2.558 -0.8332  0.5167  0.3345
  449MOL0     O61832   5.453   3.042   2.495 -0.4533  0.9638 -0.4658
  449MOL0     C61833   5.387   3.165   2.473 -1.4200  0.5711 -0.2041
  449MOL0     C61834   5.477   3.285   2.432 -0.3959 -0.3033  0.0094
  449MOL0     C61835   5.584   3.314   2.539 -0.8816 -0.5340 -0.4529
  449MOL0     C61836   5.692   3.401   2.482 -0.7369  0.7946  0.3917
  449MOL0     C61837   5.822   3.385   2.559  0.1080  0.6822 -0.6709
  449MOL0     C61838   5.938   3.463   2.483  0.2564  0.8402 -0.1865
  449MOL0     C61839   5.954   3.608   2.527 -0.6839  0.6564 -0.3830
  449MOL0     C61840   5.986   3.636   2.674 -0.0553  0.5198  0.0198
  449MOL0     N61841   6.132   3.629   2.703  0.1707  0.0205 -0.1267
  449MOL0     C61842   6.199   3.704   2.797 -0.1455 -0.0764 -0.0937
  449MOL0     C61843   6.324   3.646   2.796  0.7479  0.5681 -0.1990
  449MOL0     C61844   6.435   3.661   2.889 -0.6424 -1.2143 -0.7338
  449MOL0     C61845   6.409   3.615   3.035 -0.0655  0.4431 -0.0758
  449MOL0     C61846   6.546   3.639   3.117  0.0430  0.4152  0.2389
  449MOL0     C61847   6.660   3.546   3.093  0.0755  0.4243 -0.1702
  449MOL0     O61848   6.623   3.417   3.137  0.2701 -0.0169 -0.1732
  449MOL0     C61849   6.717   3.320   3.142  0.5574  0.1685  0.3787
  449MOL0     C61850   6.678   3.196   3.193 -0.3117  0.1388 -0.7719
  449MOL0     C61851   6.770   3.096   3.222  1.3202  0.5129 -0.1903
  449MOL0     C61852   6.705   2.982   3.304  0.5760  0.1270  0.1383
  449MOL0     C61853   6.901   3.097   3.176  0.4904  0.3432  0.3410
  449MOL0     C61854   7.001   2.989   3.206  0.6792 -0.2316 -0.2403
  449MOL0     O61855   6.957   2.876   3.258 -0.4363  0.0128  0.6315
  449MOL0     C61856   7.042   2.765   3.284 -0.5674 -0.0584  0.3170
  449MOL0     C61857   6.992   2.637   3.250 -0.5302  0.6655 -0.1273
  449MOL0     C61858   7.050   2.524   3.310  0.5586 -0.2049  0.2480
  449MOL0     C61859   7.161   2.532   3.398 -0.7097 -0.7024 -0.4123
  449MOL0     O61860   7.198   2.403   3.431  0.5768  0.2974 -0.1718
  449MOL0     C61861   7.262   2.402   3.552 -0.1453 -0.8865 -0.3359
  449MOL0     C61862   7.261   2.262   3.613  0.4435  1.1203  0.2249
  449MOL0     C61863   7.121   2.190   3.633  0.3221  0.5402 -0.1176
  449MOL0     C61864   7.034   2.242   3.744  0.8449 -0.1466 -0.7318
  449MOL0     C61865   6.884   2.214   3.725  0.2479 -0.1344 -0.8214
  449MOL0     C61866   6.831   2.313   3.622 -0.3181  0.3800  0.0720
  449MOL0     C61867   6.683   2.302   3.600 -0.5101  0.1556 -0.1678
  449MOL0     C61868   6.640   2.363   3.466  0.0562 -0.2375  0.7300
  449MOL0    Cl61869   6.693   2.276   3.325  0.0546 -0.1027  0.1367
  449MOL0     C61870   7.219   2.659   3.418  0.7621 -0.2255  0.5592
  449MOL0     C61871   7.156   2.768   3.360 -0.3131 -0.1532 -0.1789
  449MOL0     O61872   7.113   3.017   3.182 -0.5556  0.4737  0.6396
  449MOL0     C61873   6.938   3.221   3.119 -0.0191 -0.6493 -0.2831
  449MOL0     C61874   6.846   3.325   3.094  0.7215 -0.3112  0.2348
  449MOL0     N61875   6.334   3.557   2.702  0.0869  0.3342 -0.4126
  449MOL0     N61876   6.217   3.542   2.647  0.4216  1.2418  0.0408
  449MOL0     C61877   5.443   2.853   2.631 -0.7561  0.2973  0.1618
  449MOL0     C61878   5.380   2.756   2.704 -0.0949 -0.1170 -0.6455
  449MOL0     C61879   5.023   2.532   2.885  0.1989 -0.2070  1.0916
  449MOL0     C61880   4.883   2.512   2.880  1.2674 -0.5374  0.3191
  449MOL0     C61881   4.822   2.396   2.923 -0.5758 -0.0587  0.0238
  449MOL0     C61882   4.901   2.294   2.967 -0.8357  0.5193  0.1753
  449MOL0     O61883   4.849   2.174   3.012 -0.8822  0.0011  0.5345
  449MOL0     C61884   4.711   2.150   3.002 -0.1524 -0.1782 -0.1854
  449MOL0     C61885   4.654   2.204   3.129  0.5938  0.6186  0.6823
  449MOL0     C61886   4.687   2.139   3.257  0.6283  0.9157 -1.2127
  449MOL0     C61887   4.627   2.213   3.384  0.1613  0.4833  0.0332
  449MOL0     C61888   4.701   2.345   3.404 -0.9381  0.3560  0.7649
  449MOL0     C61889   4.761   2.452   3.399 -0.3170 -0.1437  0.4843
  449MOL0     C61890   5.040   2.311   2.984 -0.1765  0.2726 -0.1845
  449MOL0     C61891   5.106   2.429   2.934  0.4572  1.1585 -0.1494
  449MOL0     C61892   5.261   2.439   2.948  0.3512 -0.0978  0.4000
  449MOL0     H61893   5.064   2.821   2.595 -0.6066  1.4930  0.7868
  449MOL0     H61894   5.196   3.012   2.476 -1.6433  0.8126  2.9344
  449MOL0     H61895   5.324   3.194   2.557  2.9521  2.4085  2.7742
  449MOL0     H61896   5.327   3.148   2.383  0.7306 -0.5428 -1.5151
  449MOL0     H61897   5.529   3.258   2.339  2.2504  2.6387  0.4817
  449MOL0     H61898   5.419   3.374   2.408  3.1394  1.6997 -1.9076
  449MOL0     H61899   5.533   3.366   2.620  0.6333  0.0672  0.1587
  449MOL0     H61900   5.633   3.224   2.578 -2.8697 -0.8727  1.4129
  449MOL0     H61901   5.709   3.378   2.377  0.1620 -1.7150  1.0325
  449MOL0     H61902   5.649   3.501   2.498  0.2133  1.4779 -1.1289
  449MOL0     H61903   5.856   3.281   2.556  1.8611  1.1916  0.4080
  449MOL0     H61904   5.819   3.404   2.666 -0.4411 -0.6520 -0.4281
  449MOL0     H61905   6.037   3.422   2.506  1.1966  2.8810 -0.3815
  449MOL0     H61906   5.920   3.465   2.375 -7.0471 -0.2331  0.5018
  449MOL0     H61907   5.862   3.659   2.501 -2.1592 -0.9382  1.4049
  449MOL0     H61908   6.043   3.649   2.477  0.8242 -1.8445  0.0342
  449MOL0     H61909   5.941   3.733   2.699 -0.4686  0.4620 -0.4746
  449MOL0     H61910   5.944   3.554   2.732 -0.1181  0.0835 -0.6274
  449MOL0     H61911   6.168   3.776   2.873  2.4452  0.8164  0.2066
  449MOL0     H61912   6.465   3.766   2.884 -1.0439 -1.0942 -0.6793
  449MOL0     H61913   6.513   3.596   2.848 -1.5048 -2.7523 -0.0017
  449MOL0     H61914   6.325   3.669   3.080  2.1333  3.0144  1.1985
  449MOL0     H61915   6.385   3.508   3.028 -1.0705  0.7345 -1.3513
  449MOL0     H61916   6.584   3.737   3.087 -1.2807  0.7906 -0.2430
  449MOL0     H61917   6.523   3.640   3.224  1.5820  0.3411  0.5913
  449MOL0     H61918   6.683   3.549   2.986  0.2006  0.5601 -0.1396
  449MOL0     H61919   6.752   3.583   3.139  0.3493 -1.4908  0.9120
  449MOL0     H61920   6.577   3.198   3.232  0.4971  1.1624  1.4025
  449MOL0     H61921   6.754   2.978   3.402  0.6564  0.5453  0.1183
  449MOL0     H61922   6.708   2.895   3.238 -0.5249  1.3034 -1.5651
  449MOL0     H61923   6.599   3.002   3.320  0.2619 -0.4793 -1.0666
  449MOL0     H61924   6.898   2.629   3.197 -0.4605  3.7165 -0.9070
  449MOL0     H61925   7.017   2.423   3.292 -0.7870 -0.6392  4.1189
  449MOL0     H61926   7.363   2.441   3.538 -1.0181  2.1429  0.9763
  449MOL0     H61927   7.207   2.465   3.623 -0.7516 -1.4718 -0.2796
  449MOL0     H61928   7.324   2.192   3.557  2.2400  0.0581  3.3014
  449MOL0     H61929   7.301   2.270   3.715 -3.0257 -2.6456  2.1896
  449MOL0     H61930   7.139   2.083   3.641  0.6943  0.5013 -1.2444
  449MOL0     H61931   7.066   2.191   3.538 -2.3729  1.5449  1.3527
  449MOL0     H61932   7.037   2.349   3.766 -2.0523 -0.7700  4.5220
  449MOL0     H61933   7.068   2.202   3.840  0.8691  1.0198 -0.2458
  449MOL0     H61934   6.844   2.115   3.701 -1.6566  0.7977 -1.6697
  449MOL0     H61935   6.832   2.231   3.820  0.0700  2.1981 -1.2827
  449MOL0     H61936   6.888   2.306   3.529  2.5821  1.9189  1.6060
  449MOL0     H61937   6.866   2.412   3.651  1.7646  0.1004 -1.2783
  449MOL0     H61938   6.642   2.360   3.683  1.5403 -1.1669  1.8935
  449MOL0     H61939   6.649   2.199   3.600 -1.6141  0.4686  1.6542
  449MOL0     H61940   6.685   2.462   3.461  2.7905 -1.3722  0.8559
  449MOL0     H61941   6.531   2.368   3.474 -0.0365 -0.3463 -0.3040
  449MOL0     H61942   7.308   2.670   3.480 -0.3595  3.4864  1.7795
  449MOL0     H61943   7.205   2.863   3.384 -4.5314  1.7614  1.9321
  449MOL0     H61944   7.042   3.234   3.090 -0.1898  1.4167 -0.1389
  449MOL0     H61945   6.886   3.414   3.046  1.9204 -0.0293  1.6926
  449MOL0     H61946   5.551   2.851   2.630 -0.7823 -1.0433 -0.6765
  449MOL0     H61947   5.443   2.680   2.749 -0.5252  0.5746  1.2266
  449MOL0     H61948   4.810   2.583   2.843 -0.8652 -2.0357  1.4563
  449MOL0     H61949   4.714   2.402   2.912 -0.7092  0.2198  1.3839
  449MOL0     H61950   4.681   2.185   2.903  1.7586 -1.1745 -1.1824
  449MOL0     H61951   4.692   2.042   3.010 -1.4372  0.0216 -0.3745
  449MOL0     H61952   4.545   2.196   3.122  0.6581  0.4200 -0.3656
  449MOL0     H61953   4.684   2.308   3.144 -3.0633  1.5038  3.2057
  449MOL0     H61954   4.654   2.034   3.258 -0.4695  1.1591  2.4039
  449MOL0     H61955   4.796   2.137   3.263  0.6462  0.5585 -1.5834
  449MOL0     H61956   4.633   2.151   3.474  1.4164  0.7582  0.1542
  449MOL0     H61957   4.520   2.233   3.374 -0.1737 -0.5214  1.2637
  449MOL0     H61958   4.811   2.546   3.387  3.0595 -1.6047  1.7056
  449MOL0     H61959   5.100   2.229   3.021 -1.7293 -0.8060  0.0276
  449MOL0     H61960   5.301   2.406   3.044  1.6348 -0.3607 -0.2038
  449MOL0     H61961   5.302   2.367   2.877  0.5246  1.0174 -0.6621
  449MOL0     H61962   5.290   2.544   2.938 -0.9837  0.1678 -0.9050
  450MOL0     O61963   1.094   4.898  11.037 -0.2293  0.1546  0.6687
  450MOL0     C61964   1.032   4.794  11.019 -0.1352 -0.7835 -0.4397
  450MOL0     O61965   1.086   4.682  10.953 -0.8873 -0.2777  0.5709
  450MOL0     C61966   1.221   4.685  10.919  0.5234 -0.2789  0.3550
  450MOL0     C61967   1.276   4.780  10.831 -0.3444  0.0892 -0.1766
  450MOL0     C61968   1.411   4.775  10.803  0.2377 -0.1401 -0.3925
  450MOL0     C61969   1.487   4.659  10.826 -0.3651 -0.2713 -0.5457
  450MOL0     O61970   1.614   4.660  10.782 -0.0589  0.4181  0.8239
  450MOL0     C61971   1.707   4.563  10.844 -0.1871 -0.2153  0.3945
  450MOL0     C61972   1.857   4.570  10.786 -0.4781 -0.7068  0.1774
  450MOL0     C61973   1.915   4.713  10.779 -0.0589 -0.6203 -0.3347
  450MOL0     C61974   2.050   4.724  10.720 -0.1404  0.4729  0.4255
  450MOL0     C61975   2.114   4.861  10.693 -0.6002 -0.8897 -0.5274
  450MOL0     C61976   2.120   4.953  10.822  0.2082 -0.0864  0.4964
  450MOL0     C61977   2.216   5.078  10.808 -0.0697 -0.0797 -0.0705
  450MOL0     C61978   2.204   5.160  10.934  0.6571  0.5594  0.0315
  450MOL0     N61979   2.296   5.268  10.923 -0.0471 -0.1420  0.2335
  450MOL0     C61980   2.430   5.250  10.949 -0.1180 -0.4842  0.2756
  450MOL0     C61981   2.482   5.374  10.912  0.3842 -0.5963 -0.0420
  450MOL0     C61982   2.625   5.409  10.943  0.3880  0.5540  0.9744
  450MOL0     C61983   2.723   5.299  10.987 -0.1212  0.5089 -0.3501
  450MOL0     C61984   2.720   5.255  11.145  0.0202  0.0926  0.2110
  450MOL0     C61985   2.799   5.349  11.235 -0.0254  0.1377  0.3853
  450MOL0     O61986   2.938   5.357  11.193 -0.3324 -0.1487  0.1530
  450MOL0     C61987   3.041   5.362  11.285 -0.4999  0.2235  0.0910
  450MOL0     C61988   3.021   5.411  11.410 -0.5218 -1.1066  0.8392
  450MOL0     C61989   3.121   5.402  11.507 -0.4432 -0.2007  0.3455
  450MOL0     C61990   3.077   5.438  11.652  0.0159  0.1910 -0.5739
  450MOL0     C61991   3.247   5.348  11.479 -0.7864  0.7426 -0.3743
  450MOL0     C61992   3.351   5.326  11.584  0.1191  0.1627  0.6522
  450MOL0     O61993   3.469   5.316  11.529 -0.2642 -0.1724  0.1841
  450MOL0     C61994   3.574   5.318  11.621  0.7950  0.0033 -0.0169
  450MOL0     C61995   3.619   5.429  11.678 -0.3212 -0.7915 -0.5296
  450MOL0     C61996   3.749   5.437  11.724 -0.4844 -0.4949  0.4181
  450MOL0     C61997   3.827   5.314  11.723  0.3318  1.1207  0.2232
  450MOL0     O61998   3.957   5.300  11.765  0.3347  0.6136  0.2732
  450MOL0     C61999   4.006   5.399  11.857  0.1173 -0.0791  0.4980
  450MOL0     C62000   4.155   5.370  11.889  0.6095 -0.2019  0.4581
  450MOL0     C62001   4.237   5.419  11.761 -0.2552  0.8532 -0.6691
  450MOL0     C62002   4.383   5.393  11.782  0.9787 -0.2816 -0.5863
  450MOL0     C62003   4.465   5.460  11.682  1.1799  0.3618  0.5801
  450MOL0     C62004   4.608   5.478  11.713 -0.4547 -0.5226 -0.1183
  450MOL0     C62005   4.682   5.349  11.744 -0.3732  0.2884 -0.6645
  450MOL0     C62006   4.796   5.379  11.845 -0.4869 -0.1078 -0.1117
  450MOL0    Cl62007   4.750   5.427  12.014 -0.5418  0.2883 -0.2948
  450MOL0     C62008   3.776   5.195  11.667  0.3853  0.3940  0.0659
  450MOL0     C62009   3.644   5.194  11.618 -0.6067 -0.3633  0.1308
  450MOL0     O62010   3.329   5.320  11.706  0.3517 -0.1000  0.2644
  450MOL0     C62011   3.265   5.328  11.343 -0.4984  0.8471 -0.4070
  450MOL0     C62012   3.171   5.330  11.249  0.3481 -0.4783 -0.7191
  450MOL0     N62013   2.372   5.463  10.886 -0.6181 -0.1650 -0.1733
  450MOL0     N62014   2.269   5.391  10.893  0.5386 -0.5289  0.3919
  450MOL0     C62015   1.433   4.551  10.903  0.5616 -0.6951 -0.2650
  450MOL0     C62016   1.301   4.575  10.947 -0.4462 -0.3562  0.6056
  450MOL0     C62017   0.891   4.784  11.072 -0.5265 -0.1264  0.1729
  450MOL0     C62018   0.836   4.659  11.073  0.3311 -0.0744 -0.3107
  450MOL0     C62019   0.700   4.640  11.078 -0.2037  0.2144  0.5003
  450MOL0     C62020   0.614   4.746  11.100  0.6334  0.4808 -0.0817
  450MOL0     O62021   0.476   4.717  11.108 -0.1049 -0.2985  0.2123
  450MOL0     C62022   0.384   4.798  11.171 -0.3667 -0.5836 -0.2004
  450MOL0     C62023   0.287   4.717  11.238 -0.3506  0.4486 -0.4909
  450MOL0     C62024   0.348   4.632  11.350  0.1311 -0.8470 -0.3360
  450MOL0     C62025   0.246   4.569  11.446  0.0680  0.2484  0.3133
  450MOL0     C62026   0.330   4.472  11.523 -0.4839  0.3690  0.1916
  450MOL0     C62027   0.411   4.399  11.586  0.2661 -0.0214 -0.0451
  450MOL0     C62028   0.674   4.872  11.104  1.1301 -0.1012  0.8776
  450MOL0     C62029   0.811   4.892  11.100  1.0623 -0.6437  0.6079
  450MOL0     C62030   0.874   5.038  11.116  0.0068 -0.3675  0.1398
  450MOL0     H62031   1.214   4.866  10.806  0.4436  1.4799  2.2146
  450MOL0     H62032   1.454   4.844  10.731 -1.0999  1.5138  0.3505
  450MOL0     H62033   1.685   4.457  10.830  2.8047 -0.5175 -4.0039
  450MOL0     H62034   1.723   4.585  10.950  2.0163 -1.8892  0.4817
  450MOL0     H62035   1.925   4.510  10.847  0.0618 -0.0906  0.1962
  450MOL0     H62036   1.866   4.537  10.682  1.0150  0.5100 -0.1213
  450MOL0     H62037   1.854   4.791  10.733  1.2612  0.1333 -0.8503
  450MOL0     H62038   1.928   4.745  10.883 -0.4342  0.8048 -0.7083
  450MOL0     H62039   2.123   4.659  10.770  1.1101  1.0680 -0.5594
  450MOL0     H62040   2.037   4.685  10.619  0.9666 -1.6978  1.0707
  450MOL0     H62041   2.062   4.912  10.611  0.7549  2.1465  0.3764
  450MOL0     H62042   2.215   4.849  10.653 -0.9247 -1.6489 -1.1494
  450MOL0     H62043   2.016   4.978  10.842 -0.2202 -1.6320  0.3268
  450MOL0     H62044   2.148   4.892  10.908  0.6239 -2.2173 -1.0810
  450MOL0     H62045   2.195   5.129  10.713  2.0951 -0.8457 -1.0189
  450MOL0     H62046   2.320   5.047  10.792  0.2984  1.8068 -1.6697
  450MOL0     H62047   2.106   5.208  10.932  0.9105  1.0820 -0.1348
  450MOL0     H62048   2.220   5.100  11.024 -0.4266  0.1416 -0.0434
  450MOL0     H62049   2.483   5.162  10.984 -1.2333 -0.9101  0.9377
  450MOL0     H62050   2.618   5.491  11.015 -0.1555 -0.9180  2.6832
  450MOL0     H62051   2.662   5.457  10.852  1.0177 -0.3307  0.7533
  450MOL0     H62052   2.716   5.212  10.922  1.9380 -1.4956  1.9309
  450MOL0     H62053   2.822   5.344  10.972 -0.0002  0.0425 -0.9815
  450MOL0     H62054   2.616   5.248  11.176 -0.6235  3.0054 -0.9778
  450MOL0     H62055   2.756   5.152  11.149 -1.8020 -0.5446  1.3536
  450MOL0     H62056   2.749   5.446  11.228 -1.3877 -0.6213 -1.1264
  450MOL0     H62057   2.788   5.313  11.337 -0.5514 -0.1645  0.2271
  450MOL0     H62058   2.926   5.460  11.426 -2.0059 -1.9905 -3.8445
  450MOL0     H62059   3.069   5.352  11.718  0.0457  0.5084 -0.1496
  450MOL0     H62060   2.983   5.494  11.654 -0.1898 -0.1545 -0.5035
  450MOL0     H62061   3.155   5.496  11.703  0.8505 -0.2512 -1.3206
  450MOL0     H62062   3.568   5.525  11.676  0.5785 -0.1220  2.9261
  450MOL0     H62063   3.788   5.529  11.767  2.0548 -2.9880  4.1042
  450MOL0     H62064   3.999   5.500  11.816  3.1671  1.5580  3.5095
  450MOL0     H62065   3.943   5.395  11.946  0.2988  0.5618  0.6567
  450MOL0     H62066   4.185   5.432  11.974  0.1310  2.1125 -0.9588
  450MOL0     H62067   4.171   5.268  11.926  0.8957 -0.7762 -1.1662
  450MOL0     H62068   4.206   5.523  11.742 -2.5719  0.4031  0.3376
  450MOL0     H62069   4.207   5.368  11.669 -2.3484  0.4562  0.1944
  450MOL0     H62070   4.397   5.285  11.779  1.3937 -0.2174 -1.2668
  450MOL0     H62071   4.410   5.421  11.884 -0.7825 -2.4278  0.5490
  450MOL0     H62072   4.456   5.389  11.599 -0.6327  0.8794  0.2970
  450MOL0     H62073   4.421   5.553  11.646  3.1995  1.4175  0.6637
  450MOL0     H62074   4.624   5.546  11.796  2.1658 -0.7724 -0.3535
  450MOL0     H62075   4.651   5.519  11.621  0.5533 -1.1772  0.0558
  450MOL0     H62076   4.743   5.309  11.662  1.0354  1.3809 -0.1845
  450MOL0     H62077   4.613   5.274  11.784 -0.1825  0.1777 -0.5439
  450MOL0     H62078   4.850   5.469  11.814 -2.3309  1.9372  2.1460
  450MOL0     H62079   4.868   5.297  11.847 -1.8913 -1.4182 -0.8746
  450MOL0     H62080   3.844   5.111  11.663  0.1820 -0.0317  3.0557
  450MOL0     H62081   3.608   5.107  11.564  0.4051  0.0978 -1.3661
  450MOL0     H62082   3.365   5.298  11.315  0.0781  2.1844  0.1426
  450MOL0     H62083   3.188   5.313  11.143  1.0102  2.5641 -1.1841
  450MOL0     H62084   1.481   4.459  10.935  3.2767  0.8375  0.3413
  450MOL0     H62085   1.254   4.492  10.999 -0.4831  0.8847  2.6793
  450MOL0     H62086   0.886   4.566  11.047  0.8787  0.2186 -0.3090
  450MOL0     H62087   0.664   4.538  11.075 -0.2858  0.2364 -2.2312
  450MOL0     H62088   0.428   4.863  11.247 -2.6661 -2.6631  3.1594
  450MOL0     H62089   0.347   4.860  11.088 -0.6822  0.8560  0.9670
  450MOL0     H62090   0.232   4.653  11.168 -2.1161  1.9565 -0.5638
  450MOL0     H62091   0.208   4.784  11.274 -2.0040 -2.1505  1.1051
  450MOL0     H62092   0.420   4.562  11.306  3.2597  0.8822  1.6551
  450MOL0     H62093   0.409   4.702  11.407 -0.8091 -0.2263 -0.0714
  450MOL0     H62094   0.161   4.522  11.396  1.3185  0.0278 -1.7386
  450MOL0     H62095   0.210   4.643  11.517  1.2704  0.9183  0.2411
  450MOL0     H62096   0.474   4.329  11.637  1.5899  1.4811  0.4506
  450MOL0     H62097   0.606   4.956  11.114 -1.8331 -2.3106  0.6735
  450MOL0     H62098   0.792   5.108  11.135  1.3868  1.0958  0.9128
  450MOL0     H62099   0.942   5.043  11.201  1.2631 -1.7421 -0.7378
  450MOL0     H62100   0.918   5.064  11.019 -1.3623 -2.4156 -1.1149
  451MOL0     O62101   2.698  11.147   9.414 -0.4726 -0.3606 -0.4955
  451MOL0     C62102   2.650  11.067   9.488  0.6129  0.9396  0.5054
  451MOL0     O62103   2.697  11.034   9.608  0.3217 -0.0954 -0.2560
  451MOL0     C62104   2.812  11.101   9.655  0.1774 -0.6611 -0.3735
  451MOL0     C62105   2.945  11.107   9.595 -0.3310 -0.9038 -0.0923
  451MOL0     C62106   3.050  11.174   9.670  0.1992  0.0016  0.3985
  451MOL0     C62107   3.025  11.233   9.796 -0.5562  0.6563  0.1496
  451MOL0     O62108   3.121  11.295   9.884 -0.5628  0.5646 -0.1038
  451MOL0     C62109   3.217  11.386   9.819  0.1103 -0.1253 -0.2216
  451MOL0     C62110   3.341  11.305   9.780 -0.0122 -0.0825 -0.6180
  451MOL0     C62111   3.462  11.390   9.769  0.2414  0.7327 -0.7229
  451MOL0     C62112   3.509  11.418   9.913  1.0884  0.0211 -0.5987
  451MOL0     C62113   3.646  11.480   9.942  0.5449  0.3273  0.3532
  451MOL0     C62114   3.685  11.443  10.086  0.1365 -0.3285  1.0187
  451MOL0     C62115   3.813  11.512  10.129 -0.5220 -0.0685 -0.5173
  451MOL0     C62116   3.866  11.458  10.264  0.1874  0.1540 -0.4677
  451MOL0     N62117   3.928  11.563  10.340  0.2694  0.1965 -0.0708
  451MOL0     C62118   4.060  11.585  10.369  0.3749  1.0926 -1.2890
  451MOL0     C62119   4.053  11.685  10.456 -0.1950 -0.4573 -0.2660
  451MOL0     C62120   4.179  11.746  10.513 -0.3841  0.4274 -0.5353
  451MOL0     C62121   4.230  11.673  10.637 -0.1075  0.4082  0.4648
  451MOL0     C62122   4.186  11.731  10.765 -0.2143 -0.1339  0.2958
  451MOL0     C62123   4.266  11.680  10.883 -0.5023  0.2742  0.9043
  451MOL0     O62124   4.196  11.719  11.003 -0.0919 -1.2703  1.0091
  451MOL0     C62125   4.259  11.697  11.123 -0.2142 -0.2586  0.2857
  451MOL0     C62126   4.364  11.621  11.143 -0.2491 -0.5875 -0.6249
  451MOL0     C62127   4.428  11.619  11.268  0.2029  0.6513  0.4118
  451MOL0     C62128   4.550  11.540  11.280 -0.2411  0.6019  0.4581
  451MOL0     C62129   4.392  11.705  11.374 -0.4326 -0.4583 -0.0448
  451MOL0     C62130   4.446  11.718  11.508  0.1407 -0.3034  0.1068
  451MOL0     O62131   4.428  11.838  11.588 -0.0945 -0.2259 -0.2251
  451MOL0     C62132   4.496  11.847  11.708  0.6451  0.1224  0.2809
  451MOL0     C62133   4.430  11.803  11.825 -0.7038  0.7050  0.4891
  451MOL0     C62134   4.490  11.828  11.951 -0.0141 -0.5589 -0.3317
  451MOL0     C62135   4.615  11.883  11.964  0.4813  0.3221 -0.3167
  451MOL0     O62136   4.664  11.880  12.098  1.2083 -0.1328  0.2686
  451MOL0     C62137   4.794  11.926  12.128  0.4153  0.0354  0.3290
  451MOL0     C62138   4.812  11.941  12.284  0.7674  0.8763  0.2130
  451MOL0     C62139   4.751  12.067  12.337 -0.3405  0.2888 -0.1192
  451MOL0     C62140   4.783  12.073  12.491 -0.0472 -0.2275 -0.5838
  451MOL0     C62141   4.734  12.203  12.560 -0.4321 -0.3806 -0.3447
  451MOL0     C62142   4.759  12.206  12.709 -0.0648 -0.4130  0.1536
  451MOL0     C62143   4.724  12.076  12.781  0.1600 -0.5131 -0.0927
  451MOL0     C62144   4.725  12.102  12.928  0.7595  0.2579  0.0879
  451MOL0    Cl62145   4.892  12.103  12.994 -0.5166 -0.1421 -0.0837
  451MOL0     C62146   4.688  11.919  11.844 -0.1252 -0.0268  0.5437
  451MOL0     C62147   4.623  11.913  11.714  0.0587  1.4221  0.1644
  451MOL0     O62148   4.505  11.619  11.557 -0.2969  0.8768 -0.1150
  451MOL0     C62149   4.288  11.797  11.347 -0.4897 -0.4777 -0.3065
  451MOL0     C62150   4.224  11.785  11.227 -0.1030 -0.5885 -0.0618
  451MOL0     N62151   3.922  11.725  10.483 -0.1548 -0.8707 -0.1415
  451MOL0     N62152   3.849  11.656  10.402  0.1546 -0.7666  0.3917
  451MOL0     C62153   2.898  11.217   9.845 -0.0044  0.3858 -0.0111
  451MOL0     C62154   2.797  11.148   9.784  0.3168  0.6273 -0.1801
  451MOL0     C62155   2.510  11.025   9.457  0.2114  0.9112  0.1972
  451MOL0     C62156   2.447  10.938   9.549 -0.2516  0.3085  0.6728
  451MOL0     C62157   2.308  10.913   9.534  0.0265  0.1314  0.1310
  451MOL0     C62158   2.233  10.962   9.426  0.0668  0.4978 -0.9251
  451MOL0     O62159   2.100  10.944   9.409 -0.3231  0.4599 -0.6766
  451MOL0     C62160   2.023  10.882   9.515  1.4010 -0.5542  0.1539
  451MOL0     C62161   1.873  10.875   9.461  0.3169  0.7340  0.0222
  451MOL0     C62162   1.779  10.764   9.521  0.5288  0.0181  0.6399
  451MOL0     C62163   1.627  10.782   9.479 -1.0133  0.3553  0.4041
  451MOL0     C62164   1.574  10.904   9.544 -0.0411 -0.1892  0.1724
  451MOL0     C62165   1.526  11.002   9.599 -0.2215 -0.6167 -0.2373
  451MOL0     C62166   2.302  11.029   9.334 -0.0534 -0.2969  0.4464
  451MOL0     C62167   2.435  11.075   9.346  0.3553 -0.7660 -0.4197
  451MOL0     C62168   2.492  11.162   9.231 -0.2137  0.0650 -0.1232
  451MOL0     H62169   2.969  11.074   9.495  1.7786  1.1448 -0.3571
  451MOL0     H62170   3.153  11.157   9.638 -0.2421 -0.3902 -0.8661
  451MOL0     H62171   3.240  11.466   9.891  0.0009 -0.1747 -0.1304
  451MOL0     H62172   3.167  11.432   9.734 -0.0941  2.0271  0.9831
  451MOL0     H62173   3.363  11.221   9.846 -1.0416 -1.5448 -2.0353
  451MOL0     H62174   3.330  11.265   9.679 -0.1670  0.4200 -0.8069
  451MOL0     H62175   3.535  11.328   9.715 -0.2693 -2.1105  1.5683
  451MOL0     H62176   3.440  11.483   9.716 -0.8917  0.2920 -1.0663
  451MOL0     H62177   3.431  11.481   9.956  2.0684  2.1959 -1.8472
  451MOL0     H62178   3.511  11.320   9.962  1.4859  0.5875  0.5436
  451MOL0     H62179   3.637  11.586   9.920 -1.0987  0.2373  0.4895
  451MOL0     H62180   3.727  11.445   9.877  0.6320  0.2813  0.4861
  451MOL0     H62181   3.599  11.456  10.154 -0.3374  0.3854  0.2996
  451MOL0     H62182   3.696  11.334  10.095 -0.0516 -0.3346  1.1926
  451MOL0     H62183   3.796  11.620  10.130  0.1090  0.0341 -0.0131
  451MOL0     H62184   3.894  11.496  10.057 -0.4413 -1.9074 -0.0597
  451MOL0     H62185   3.780  11.416  10.318 -1.3334  2.0142 -1.3139
  451MOL0     H62186   3.936  11.376  10.245 -1.6547 -1.6538  0.1321
  451MOL0     H62187   4.144  11.529  10.331 -0.9856 -1.8946 -0.1911
  451MOL0     H62188   4.163  11.852  10.532  3.6281  1.2038 -0.5549
  451MOL0     H62189   4.251  11.736  10.431  1.7939  0.9045  1.2430
  451MOL0     H62190   4.208  11.566  10.640  3.1308 -0.4054 -0.3804
  451MOL0     H62191   4.338  11.692  10.633 -0.3857  1.9030 -0.7898
  451MOL0     H62192   4.189  11.841  10.765  1.6999 -0.1545  0.3795
  451MOL0     H62193   4.081  11.710  10.784  0.2067 -2.4212  0.4088
  451MOL0     H62194   4.271  11.571  10.879 -0.9164  0.2643  0.6763
  451MOL0     H62195   4.371  11.711  10.870 -0.4125 -1.3286 -4.9679
  451MOL0     H62196   4.387  11.562  11.055 -1.6312  0.7895 -1.9664
  451MOL0     H62197   4.565  11.488  11.185  1.4954  2.3311 -0.2773
  451MOL0     H62198   4.555  11.466  11.360  0.8865  0.0112 -0.1275
  451MOL0     H62199   4.634  11.608  11.296 -1.3384  1.8579  1.0890
  451MOL0     H62200   4.344  11.738  11.812 -0.2438 -0.1914  1.6795
  451MOL0     H62201   4.447  11.778  12.037  0.4392 -4.0768 -1.9623
  451MOL0     H62202   4.861  11.852  12.083  0.6731  0.9789 -0.9018
  451MOL0     H62203   4.810  12.022  12.079 -1.6725 -0.0197 -0.5609
  451MOL0     H62204   4.777  11.853  12.339 -0.7483 -0.4210 -2.5800
  451MOL0     H62205   4.921  11.947  12.291  0.9828  0.3009 -1.8937
  451MOL0     H62206   4.643  12.059  12.320 -0.3640 -4.2968  0.9571
  451MOL0     H62207   4.796  12.153  12.287  0.5248 -0.1021 -0.0326
  451MOL0     H62208   4.884  12.042  12.520 -0.4070 -0.6359  0.2698
  451MOL0     H62209   4.718  11.993  12.527 -2.6665  1.7723 -0.5627
  451MOL0     H62210   4.789  12.286  12.513 -1.0117 -0.7578 -1.7173
  451MOL0     H62211   4.628  12.219  12.539 -0.8737 -0.8146  1.3816
  451MOL0     H62212   4.704  12.291  12.750  0.7189 -0.1193  0.6162
  451MOL0     H62213   4.864  12.235  12.721 -0.0658  0.0312 -0.8293
  451MOL0     H62214   4.798  11.998  12.758  2.2443  0.4828  2.6638
  451MOL0     H62215   4.621  12.049  12.757  0.1847 -0.4943 -0.2202
  451MOL0     H62216   4.672  12.021  12.979  1.6172  0.1035  0.7549
  451MOL0     H62217   4.671  12.192  12.958  0.7434  0.4168 -0.4117
  451MOL0     H62218   4.795  11.936  11.839  0.4076 -2.4725  1.7866
  451MOL0     H62219   4.683  11.936  11.627  1.3264 -1.3012  0.2120
  451MOL0     H62220   4.275  11.880  11.416 -1.9976 -1.1325  0.2510
  451MOL0     H62221   4.145  11.858  11.212 -0.2599 -0.8476 -0.5079
  451MOL0     H62222   2.872  11.263   9.940  0.2654  1.9074 -0.6535
  451MOL0     H62223   2.698  11.144   9.828 -0.6443 -1.3760 -2.3249
  451MOL0     H62224   2.495  10.882   9.629 -1.2310  0.3065  1.2856
  451MOL0     H62225   2.252  10.861   9.611  1.6772 -1.5123  0.2986
  451MOL0     H62226   2.063  10.781   9.529 -0.0537 -1.1920 -0.1403
  451MOL0     H62227   2.034  10.935   9.610 -3.1853  0.4999  0.2855
  451MOL0     H62228   1.889  10.852   9.356 -0.6266  0.9977 -0.1833
  451MOL0     H62229   1.827  10.974   9.458  3.4215  2.2682 -1.1727
  451MOL0     H62230   1.809  10.665   9.484  1.4584  0.7768 -0.7269
  451MOL0     H62231   1.789  10.761   9.630 -1.9036 -2.3704  0.9073
  451MOL0     H62232   1.567  10.698   9.516 -2.9082  2.3571  2.1989
  451MOL0     H62233   1.619  10.778   9.370  0.0001  0.8168  0.3050
  451MOL0     H62234   1.463  11.078   9.641 -1.4234  0.2103 -3.2901
  451MOL0     H62235   2.245  11.038   9.242  1.9646  1.5958 -0.7159
  451MOL0     H62236   2.506  11.263   9.271  1.6393  0.2352 -1.0720
  451MOL0     H62237   2.584  11.119   9.191  0.1521  0.3696  0.3750
  451MOL0     H62238   2.417  11.157   9.152 -0.3306  0.4493 -0.0373
  452MOL0     O62239   4.711   1.260  11.248 -0.7639  0.2609 -0.7183
  452MOL0     C62240   4.752   1.250  11.364  0.3902  0.2759 -1.3071
  452MOL0     O62241   4.689   1.296  11.480 -0.0431  0.3495 -0.0479
  452MOL0     C62242   4.550   1.318  11.466  0.3478 -0.0228 -0.4241
  452MOL0     C62243   4.496   1.441  11.420  0.3959 -0.6395  0.0744
  452MOL0     C62244   4.356   1.456  11.404 -0.1609 -0.6853  0.4032
  452MOL0     C62245   4.272   1.342  11.408 -0.1099  0.9355  0.1053
  452MOL0     O62246   4.138   1.344  11.367 -0.0514 -0.0679 -0.2508
  452MOL0     C62247   4.038   1.395  11.459  0.3232  0.1313  0.2637
  452MOL0     C62248   3.928   1.448  11.370  1.3519  0.8570 -0.3271
  452MOL0     C62249   3.798   1.467  11.443  0.8821  0.3679  0.0141
  452MOL0     C62250   3.687   1.514  11.345 -1.2077 -0.2385 -0.2821
  452MOL0     C62251   3.565   1.580  11.405 -0.4916  0.2305 -0.0508
  452MOL0     C62252   3.474   1.646  11.304  0.2503  0.4941 -0.0128
  452MOL0     C62253   3.370   1.732  11.379 -0.0121 -0.1023 -0.2213
  452MOL0     C62254   3.245   1.758  11.287 -0.2536  0.3037  0.0588
  452MOL0     N62255   3.273   1.819  11.157  0.2832 -0.1278 -0.5939
  452MOL0     C62256   3.337   1.937  11.144 -0.1931 -0.4966  0.2035
  452MOL0     C62257   3.346   1.952  11.014 -0.9328 -0.1639  0.2705
  452MOL0     C62258   3.405   2.074  10.942 -0.2636 -0.1590  0.0474
  452MOL0     C62259   3.560   2.085  10.964 -0.3788 -0.1670 -0.7394
  452MOL0     C62260   3.614   2.190  10.870  0.0012  0.6340  0.2742
  452MOL0     C62261   3.756   2.226  10.908 -0.5550  0.1214 -0.0115
  452MOL0     O62262   3.772   2.289  11.034  0.8526 -0.0515 -0.0114
  452MOL0     C62263   3.868   2.386  11.048  0.2757  0.2401  0.5519
  452MOL0     C62264   3.834   2.491  11.131 -1.3925  0.0287 -0.1594
  452MOL0     C62265   3.926   2.597  11.142 -0.7273 -0.3667  0.0403
  452MOL0     C62266   3.891   2.715  11.230 -0.0929 -0.8234 -0.5915
  452MOL0     C62267   4.052   2.592  11.076 -0.2279  0.9247 -0.3242
  452MOL0     C62268   4.159   2.698  11.090 -0.9558 -0.5548  0.1280
  452MOL0     O62269   4.246   2.707  10.991  0.5183  0.5004  0.0963
  452MOL0     C62270   4.314   2.822  10.966  0.7688  1.1412 -0.6015
  452MOL0     C62271   4.447   2.814  10.929  0.2398 -0.4619 -0.6442
  452MOL0     C62272   4.522   2.932  10.908  0.9368 -0.6517 -0.7399
  452MOL0     C62273   4.461   3.059  10.919  0.5395 -0.4300  0.2898
  452MOL0     O62274   4.540   3.168  10.891 -1.2028 -0.3205  0.5417
  452MOL0     C62275   4.491   3.293  10.926  0.1271 -0.3814 -0.3435
  452MOL0     C62276   4.613   3.381  10.930 -0.0562 -0.6631  0.8766
  452MOL0     C62277   4.673   3.408  11.063 -0.6253  0.4542  0.7334
  452MOL0     C62278   4.798   3.508  11.066 -0.9234 -0.3132 -0.7861
  452MOL0     C62279   4.872   3.508  11.203 -0.0939  0.8144 -0.9548
  452MOL0     C62280   5.000   3.426  11.192  0.5382 -0.2741  0.2239
  452MOL0     C62281   5.087   3.450  11.322  0.3684  0.3454 -0.5779
  452MOL0     C62282   5.172   3.579  11.312 -0.2322  0.0228  0.5998
  452MOL0    Cl62283   5.293   3.584  11.446  0.0303  0.0142 -0.4191
  452MOL0     C62284   4.320   3.072  10.951 -0.0485  0.3288 -0.6441
  452MOL0     C62285   4.250   2.949  10.979  0.4086  0.0711  0.4851
  452MOL0     O62286   4.168   2.756  11.199 -0.4841 -0.0558 -0.0963
  452MOL0     C62287   4.072   2.489  10.986 -0.0230  0.1793  0.4403
  452MOL0     C62288   3.986   2.385  10.984  0.0895  0.8471 -1.1260
  452MOL0     N62289   3.271   1.860  10.947 -0.4086  0.1856  0.5616
  452MOL0     N62290   3.226   1.774  11.034  0.1595 -0.0485 -0.5063
  452MOL0     C62291   4.329   1.214  11.456  1.1100 -0.2960  0.6126
  452MOL0     C62292   4.459   1.213  11.488 -0.5996 -0.1271 -0.0845
  452MOL0     C62293   4.889   1.218  11.391  0.0915  0.4328 -0.2891
  452MOL0     C62294   4.954   1.320  11.473  0.0899  0.4249  0.1520
  452MOL0     C62295   5.080   1.278  11.510  0.0229 -0.8972 -0.7444
  452MOL0     C62296   5.147   1.160  11.476  0.2616  0.1887  0.1261
  452MOL0     O62297   5.275   1.135  11.524  0.6159  0.3005 -0.2077
  452MOL0     C62298   5.394   1.169  11.446 -0.2307  0.1729  0.5473
  452MOL0     C62299   5.468   1.043  11.388  0.5965  1.2497 -0.1653
  452MOL0     C62300   5.480   0.924  11.488  0.2004  0.1255  0.0613
  452MOL0     C62301   5.554   0.802  11.429  0.4239 -0.0462  0.9270
  452MOL0     C62302   5.466   0.726  11.333 -0.1555 -0.2207  0.1194
  452MOL0     C62303   5.383   0.661  11.276  0.2942 -0.1182  0.1930
  452MOL0     C62304   5.091   1.090  11.374 -0.2093 -0.4177  0.0392
  452MOL0     C62305   4.959   1.109  11.331 -0.2920  0.4448  0.0660
  452MOL0     C62306   4.902   1.028  11.219 -0.4966 -0.4711 -1.0645
  452MOL0     H62307   4.570   1.521  11.412 -1.2654  0.9924  0.2046
  452MOL0     H62308   4.323   1.549  11.358 -4.0478 -0.8792  2.3604
  452MOL0     H62309   4.077   1.481  11.515  1.1457 -0.9719  1.4413
  452MOL0     H62310   4.008   1.319  11.532  1.0010 -3.6602 -3.0415
  452MOL0     H62311   3.965   1.542  11.329  2.3250  2.3062  3.4783
  452MOL0     H62312   3.906   1.369  11.297  0.0951 -1.0824  2.0090
  452MOL0     H62313   3.770   1.376  11.498  2.5058  1.4265  2.8236
  452MOL0     H62314   3.830   1.544  11.514  2.0943 -1.2124  1.2646
  452MOL0     H62315   3.734   1.573  11.265 -2.1912 -1.2212 -1.6294
  452MOL0     H62316   3.658   1.425  11.288 -0.3319  0.9107 -2.6550
  452MOL0     H62317   3.589   1.654  11.482 -1.7608  0.7846 -0.1550
  452MOL0     H62318   3.511   1.502  11.460  0.3541 -0.1285  0.2913
  452MOL0     H62319   3.529   1.698  11.226  2.1016 -1.4586 -0.0855
  452MOL0     H62320   3.412   1.572  11.251  0.0573  0.9048 -0.3661
  452MOL0     H62321   3.419   1.826  11.406  2.0411 -0.6740 -1.7089
  452MOL0     H62322   3.340   1.684  11.473  3.2711 -1.0924  0.4783
  452MOL0     H62323   3.199   1.660  11.268 -0.3533  0.6257 -1.5460
  452MOL0     H62324   3.176   1.821  11.343 -0.1552  0.1085  0.4021
  452MOL0     H62325   3.383   1.999  11.220 -1.9269  0.8763  0.1934
  452MOL0     H62326   3.354   2.165  10.974  2.0678  2.5584 -3.1953
  452MOL0     H62327   3.383   2.068  10.835 -0.6175  0.1971  0.1003
  452MOL0     H62328   3.575   2.120  11.066  0.5016 -0.5027 -0.7431
  452MOL0     H62329   3.620   1.995  10.947  0.0482 -0.3633  1.4867
  452MOL0     H62330   3.619   2.150  10.768 -0.1493 -0.4887  0.6938
  452MOL0     H62331   3.546   2.275  10.880  1.9187  2.0281  2.3181
  452MOL0     H62332   3.826   2.142  10.898  0.3489  1.0682 -2.2671
  452MOL0     H62333   3.793   2.301  10.838 -0.1107  0.1601  0.2563
  452MOL0     H62334   3.742   2.498  11.188 -0.3438  1.8471  1.4355
  452MOL0     H62335   3.895   2.795  11.155 -2.4995 -1.6406 -1.6739
  452MOL0     H62336   3.968   2.736  11.305  0.5705  0.6625 -1.6306
  452MOL0     H62337   3.790   2.702  11.269 -1.0884  1.1852 -2.3029
  452MOL0     H62338   4.492   2.715  10.934 -0.0872 -0.5689  0.3337
  452MOL0     H62339   4.627   2.930  10.883  0.9924  1.6487 -0.8682
  452MOL0     H62340   4.423   3.337  10.852  0.0870  2.2227  1.1109
  452MOL0     H62341   4.439   3.289  11.023  2.4646  0.1085  0.9991
  452MOL0     H62342   4.680   3.354  10.848 -1.6127  2.2370 -1.5694
  452MOL0     H62343   4.586   3.477  10.885  5.4090  0.3543 -0.9704
  452MOL0     H62344   4.710   3.313  11.103 -2.0623 -0.2012  0.5634
  452MOL0     H62345   4.598   3.450  11.130  0.9176  2.5993  1.2196
  452MOL0     H62346   4.775   3.614  11.053  2.1722  0.3677 -1.5817
  452MOL0     H62347   4.867   3.485  10.984  1.3212 -3.2263  1.6318
  452MOL0     H62348   4.894   3.613  11.223 -0.3496  0.6841  0.0775
  452MOL0     H62349   4.804   3.480  11.284 -0.5401  0.0470 -1.5798
  452MOL0     H62350   5.059   3.469  11.110  1.0725 -1.4671 -0.0390
  452MOL0     H62351   4.980   3.320  11.172 -0.3210  0.3715 -2.8782
  452MOL0     H62352   5.152   3.363  11.338 -2.6005 -1.7185  1.5299
  452MOL0     H62353   5.019   3.444  11.407 -2.5379 -3.3748 -2.8025
  452MOL0     H62354   5.109   3.668  11.310  1.6196  1.4041 -1.8735
  452MOL0     H62355   5.229   3.580  11.218  0.9586 -2.0182  1.2451
  452MOL0     H62356   4.265   3.166  10.944  1.3454  1.2659  0.4767
  452MOL0     H62357   4.145   2.956  11.005  0.5530  4.1498  0.5087
  452MOL0     H62358   4.166   2.491  10.932 -0.9694  1.8831 -1.2576
  452MOL0     H62359   4.031   2.305  10.926 -0.3567 -1.8115  1.8694
  452MOL0     H62360   4.276   1.119  11.450 -0.3403  0.5081 -0.0082
  452MOL0     H62361   4.504   1.118  11.518  0.5029 -0.6076 -2.8884
  452MOL0     H62362   4.918   1.417  11.506 -0.2125  2.1978 -4.6171
  452MOL0     H62363   5.132   1.349  11.574 -0.2074 -2.1626  0.9064
  452MOL0     H62364   5.370   1.248  11.375 -1.9896 -0.2575  0.6076
  452MOL0     H62365   5.469   1.221  11.506  2.1133 -1.3461 -0.9031
  452MOL0     H62366   5.572   1.075  11.374  1.6923 -2.3493 -1.1396
  452MOL0     H62367   5.422   1.000  11.299  1.3495  3.1178 -1.5241
  452MOL0     H62368   5.542   0.955  11.573  2.0392 -1.5931 -0.5659
  452MOL0     H62369   5.379   0.902  11.522  1.2658  1.1745  4.4736
  452MOL0     H62370   5.594   0.739  11.509  1.5860 -1.9353 -1.0107
  452MOL0     H62371   5.638   0.829  11.364 -0.1804 -2.4186 -1.0192
  452MOL0     H62372   5.308   0.601  11.228 -1.2820  1.0740  1.0959
  452MOL0     H62373   5.146   0.999  11.349  0.9867  0.2669  0.0889
  452MOL0     H62374   4.792   1.026  11.222 -0.5539  1.5785 -0.8693
  452MOL0     H62375   4.934   1.078  11.128  0.2275  0.0255 -0.5440
  452MOL0     H62376   4.926   0.921  11.210 -1.7729 -0.7185 -1.8324
  453MOL0     O62377  10.614   8.433   8.569 -0.5641 -0.6025  0.3789
  453MOL0     C62378  10.605   8.337   8.646 -0.6665  0.0466 -1.1310
  453MOL0     O62379  10.659   8.208   8.615  0.4286  0.6844  0.2069
  453MOL0     C62380  10.707   8.195   8.490  0.1612 -0.2284 -0.1084
  453MOL0     C62381  10.844   8.218   8.461  0.4287  0.7850 -0.2732
  453MOL0     C62382  10.874   8.213   8.329 -0.4721  0.4099  0.6015
  453MOL0     C62383  10.782   8.176   8.222 -0.5040  0.0053 -0.1280
  453MOL0     O62384  10.812   8.162   8.085 -0.3567 -1.1963 -0.5419
  453MOL0     C62385  10.913   8.251   8.027  0.6807 -0.0765 -0.2317
  453MOL0     C62386  10.942   8.236   7.883  0.2125  0.3380 -0.4403
  453MOL0     C62387  11.057   8.325   7.837  0.0312 -0.1794  0.3516
  453MOL0     C62388  11.055   8.345   7.682 -0.9622  0.1935  0.0369
  453MOL0     C62389  11.165   8.442   7.629  0.2991  0.4348  0.3121
  453MOL0     C62390  11.307   8.389   7.647 -0.1441 -0.1212 -0.4628
  453MOL0     C62391  11.417   8.474   7.586  0.5832  0.0134  0.2801
  453MOL0     C62392  11.552   8.404   7.608  1.1497 -1.1182 -0.0723
  453MOL0     N62393  11.671   8.473   7.555 -0.1370  0.6417 -0.4668
  453MOL0     C62394  11.671   8.543   7.433  0.0733 -0.1025 -0.4274
  453MOL0     C62395  11.805   8.556   7.408 -0.8706 -0.2077  0.3202
  453MOL0     C62396  11.862   8.634   7.294 -1.3030 -0.9970 -0.2042
  453MOL0     C62397  11.874   8.781   7.342  0.4481 -0.1392 -0.8325
  453MOL0     C62398  12.011   8.818   7.396  0.0162  0.4151 -0.4972
  453MOL0     C62399  12.059   8.750   7.517 -0.7589  0.0746 -0.4988
  453MOL0     O62400  12.155   8.830   7.593 -0.0019 -0.0297  0.4379
  453MOL0     C62401  12.284   8.835   7.545  0.4396  0.2454  0.1233
  453MOL0     C62402  12.345   8.781   7.436  0.3916  0.9103  0.6118
  453MOL0     C62403  12.486   8.771   7.423  0.6083 -0.6158 -0.4183
  453MOL0     C62404  12.530   8.692   7.305  0.6600 -0.2237 -0.2948
  453MOL0     C62405  12.568   8.824   7.523  0.0641  0.2411  0.4871
  453MOL0     C62406  12.715   8.823   7.524 -1.0187  0.3305 -0.4429
  453MOL0     O62407  12.768   8.826   7.657 -0.1902  0.2615  0.0078
  453MOL0     C62408  12.891   8.768   7.657 -0.5422 -0.4895  0.2072
  453MOL0     C62409  12.906   8.625   7.652 -0.4653 -0.3653  0.7106
  453MOL0     C62410  13.036   8.571   7.680  0.2444 -0.2244  0.4904
  453MOL0     C62411  13.145   8.668   7.688 -0.5769  0.5495 -1.0090
  453MOL0     O62412  13.269   8.618   7.697 -0.3300  0.0145 -0.5740
  453MOL0     C62413  13.335   8.610   7.565  0.0418 -0.0149  0.3715
  453MOL0     C62414  13.476   8.539   7.561 -0.6377 -0.4568  0.7595
  453MOL0     C62415  13.564   8.583   7.678  0.4342 -0.3028  0.2927
  453MOL0     C62416  13.615   8.732   7.686 -0.3118 -0.1420  0.1931
  453MOL0     C62417  13.692   8.744   7.816  0.4661  0.5130  0.1501
  453MOL0     C62418  13.762   8.877   7.835  0.5799 -0.2262 -0.0002
  453MOL0     C62419  13.863   8.909   7.721  0.9725  0.4721 -0.0090
  453MOL0     C62420  13.949   9.028   7.755  0.1516  1.2173 -0.2491
  453MOL0    Cl62421  13.854   9.174   7.775  0.0590  0.1615  0.4123
  453MOL0     C62422  13.127   8.800   7.687 -0.4721 -0.0149  0.5478
  453MOL0     C62423  13.002   8.848   7.665  0.5861 -0.1457  0.0318
  453MOL0     O62424  12.789   8.818   7.424  0.3076 -0.0670  0.7078
  453MOL0     C62425  12.511   8.891   7.630  1.0065 -0.2213 -0.6079
  453MOL0     C62426  12.370   8.891   7.642 -0.1591  0.0835  0.0888
  453MOL0     N62427  11.875   8.478   7.497 -0.6615 -0.4830  0.3075
  453MOL0     N62428  11.795   8.424   7.580 -0.1785 -0.1819  0.3054
  453MOL0     C62429  10.655   8.136   8.258  0.2373 -0.4160 -0.6053
  453MOL0     C62430  10.613   8.151   8.392  0.3981 -0.3651 -0.1934
  453MOL0     C62431  10.538   8.356   8.776 -0.1159  0.6470  0.1688
  453MOL0     C62432  10.445   8.254   8.821 -0.1343  0.3324  0.2894
  453MOL0     C62433  10.376   8.265   8.937  0.4899 -0.0316 -0.0247
  453MOL0     C62434  10.397   8.379   9.018 -0.2088 -0.7815  0.4001
  453MOL0     O62435  10.339   8.373   9.140 -0.1623  0.0010  0.1162
  453MOL0     C62436  10.367   8.480   9.230 -0.7244 -0.2056  0.1517
  453MOL0     C62437  10.282   8.468   9.355 -0.3075  0.5255  0.3489
  453MOL0     C62438  10.128   8.462   9.323 -0.6754  0.4729 -0.2241
  453MOL0     C62439  10.050   8.497   9.457  0.5061 -0.3179  0.5817
  453MOL0     C62440   9.905   8.509   9.418  0.4459  0.3947  0.1740
  453MOL0     C62441   9.786   8.506   9.375  0.7603  0.3731  0.0760
  453MOL0     C62442  10.480   8.480   8.972  0.9816  0.3755 -0.0299
  453MOL0     C62443  10.550   8.468   8.857 -0.2963 -0.9577 -0.1128
  453MOL0     C62444  10.663   8.566   8.837 -1.1082  0.4182  0.5956
  453MOL0     H62445  10.917   8.265   8.526  0.4173  1.3426 -0.6647
  453MOL0     H62446  10.977   8.234   8.299 -0.8566  0.1928 -0.9688
  453MOL0     H62447  11.002   8.228   8.086  1.2029 -1.2383 -1.4165
  453MOL0     H62448  10.871   8.351   8.042  1.7025  0.0481  2.1704
  453MOL0     H62449  10.955   8.129   7.862 -2.9652 -0.0955 -0.6628
  453MOL0     H62450  10.850   8.261   7.830  1.0847  2.4877 -1.0583
  453MOL0     H62451  11.076   8.418   7.892 -0.4964 -0.1217  0.4372
  453MOL0     H62452  11.150   8.270   7.855 -1.2648 -2.1522  1.3579
  453MOL0     H62453  11.060   8.251   7.626  0.0599 -0.9869  1.9988
  453MOL0     H62454  10.960   8.398   7.670  0.0374  2.2714  0.9950
  453MOL0     H62455  11.160   8.532   7.691  2.2849 -0.0792  1.3026
  453MOL0     H62456  11.155   8.458   7.521 -0.1805 -1.1516  0.1028
  453MOL0     H62457  11.332   8.380   7.753  1.1396 -2.8890 -0.8969
  453MOL0     H62458  11.296   8.292   7.597 -0.3348  0.9231 -2.5751
  453MOL0     H62459  11.417   8.570   7.638 -1.6031  0.3199 -0.1976
  453MOL0     H62460  11.396   8.494   7.481  3.3432 -1.5029 -0.6656
  453MOL0     H62461  11.571   8.392   7.716  2.7716 -0.1719 -0.2104
  453MOL0     H62462  11.541   8.308   7.558 -1.3191 -2.1195  2.1535
  453MOL0     H62463  11.590   8.594   7.383  1.9408  3.2974 -0.3066
  453MOL0     H62464  11.806   8.629   7.200  2.5151 -1.5753 -2.6922
  453MOL0     H62465  11.968   8.610   7.277 -0.8474  0.7542 -0.1020
  453MOL0     H62466  11.847   8.843   7.256  1.5783  0.5523 -0.7164
  453MOL0     H62467  11.798   8.796   7.419  1.7018 -2.0413  0.8738
  453MOL0     H62468  12.088   8.805   7.319 -1.1782 -2.2671 -1.3645
  453MOL0     H62469  12.006   8.921   7.432 -0.0624  0.2685 -0.0721
  453MOL0     H62470  11.979   8.718   7.584  0.2784 -0.1434  0.6784
  453MOL0     H62471  12.106   8.655   7.490 -0.4950  0.4853 -1.5657
  453MOL0     H62472  12.290   8.734   7.354  2.0883 -0.4110  0.1648
  453MOL0     H62473  12.621   8.632   7.317  0.0214 -1.1102  0.2089
  453MOL0     H62474  12.538   8.748   7.212 -1.4856 -0.8304 -0.8806
  453MOL0     H62475  12.449   8.622   7.285  1.0318 -0.3970 -1.2167
  453MOL0     H62476  12.812   8.570   7.643 -0.5906 -0.1271  0.5247
  453MOL0     H62477  13.052   8.465   7.697  1.6177  0.1548  1.8202
  453MOL0     H62478  13.269   8.554   7.498  1.4846 -1.9376  0.4894
  453MOL0     H62479  13.344   8.712   7.527 -1.5279 -0.4218 -1.1989
  453MOL0     H62480  13.458   8.432   7.573 -1.8045 -0.1321  2.1936
  453MOL0     H62481  13.532   8.553   7.468  0.4302  0.0971  1.4563
  453MOL0     H62482  13.653   8.520   7.673  0.1997 -0.5404 -2.1290
  453MOL0     H62483  13.505   8.555   7.766  0.7754  0.4562  0.7726
  453MOL0     H62484  13.525   8.794   7.685 -0.3369 -0.1700 -1.4359
  453MOL0     H62485  13.669   8.758   7.595 -0.0890 -3.0756 -0.6238
  453MOL0     H62486  13.621   8.722   7.896  0.4044 -2.7782 -0.6642
  453MOL0     H62487  13.771   8.670   7.802 -1.4326 -1.3099 -1.6708
  453MOL0     H62488  13.808   8.869   7.934 -2.9597  0.1741  1.8094
  453MOL0     H62489  13.685   8.953   7.848 -1.0898 -2.0658  1.3776
  453MOL0     H62490  13.804   8.935   7.633 -1.9255 -0.8271  1.4318
  453MOL0     H62491  13.923   8.818   7.716 -1.0443 -0.8299 -1.9832
  453MOL0     H62492  14.011   9.046   7.666 -2.7137  0.3471 -2.6105
  453MOL0     H62493  14.003   9.001   7.845 -1.0446 -0.3422  0.0529
  453MOL0     H62494  13.206   8.873   7.689 -0.2095 -0.1334 -2.2450
  453MOL0     H62495  12.978   8.954   7.655 -2.9870 -0.8507 -0.3329
  453MOL0     H62496  12.579   8.940   7.698  0.5676  0.2328 -0.4906
  453MOL0     H62497  12.325   8.934   7.731  0.7574  2.2351 -0.4105
  453MOL0     H62498  10.585   8.107   8.180  1.2278 -1.4469 -1.1442
  453MOL0     H62499  10.510   8.136   8.420  0.9675 -1.3846  1.5078
  453MOL0     H62500  10.428   8.171   8.753 -1.4642 -0.0140  1.0048
  453MOL0     H62501  10.312   8.188   8.978  0.1615  1.1639  1.8320
  453MOL0     H62502  10.472   8.473   9.260 -0.7611  1.9289  0.9266
  453MOL0     H62503  10.352   8.582   9.193  1.4073  0.3672  0.7202
  453MOL0     H62504  10.315   8.538   9.433 -0.6004 -0.0763  1.0206
  453MOL0     H62505  10.311   8.374   9.402 -0.9199  0.3555  0.3879
  453MOL0     H62506  10.108   8.540   9.249  1.2580  0.6403 -0.6313
  453MOL0     H62507  10.111   8.364   9.278  1.8437  0.1185 -0.5195
  453MOL0     H62508  10.074   8.596   9.498 -1.1192  1.7132 -2.9005
  453MOL0     H62509  10.062   8.413   9.525 -0.9283 -0.1752  1.0549
  453MOL0     H62510   9.685   8.499   9.340  0.6494  0.5078  0.3713
  453MOL0     H62511  10.498   8.570   9.030  0.3622  2.1711 -2.4730
  453MOL0     H62512  10.745   8.509   8.792 -0.9489  4.1844 -4.7376
  453MOL0     H62513  10.638   8.636   8.758  0.1057 -0.1862 -0.3656
  453MOL0     H62514  10.692   8.623   8.926 -3.3274  0.4085  1.3636
  454MOL0     O62515   4.214   8.655  11.089 -0.1044 -0.4052  0.1519
  454MOL0     C62516   4.116   8.615  11.029  0.5305  0.2757 -0.6853
  454MOL0     O62517   4.118   8.551  10.904 -0.5770 -0.1793 -0.2026
  454MOL0     C62518   4.237   8.559  10.832  0.0985  0.5088 -0.2833
  454MOL0     C62519   4.261   8.441  10.749 -0.0699  0.3445  0.6618
  454MOL0     C62520   4.377   8.431  10.673  0.5629  0.2262  0.5400
  454MOL0     C62521   4.470   8.539  10.680  0.7932  0.3022  0.3528
  454MOL0     O62522   4.569   8.521  10.590 -0.1052 -0.0435 -0.3917
  454MOL0     C62523   4.687   8.603  10.608  0.0403 -0.1669 -0.0804
  454MOL0     C62524   4.780   8.581  10.490  0.2471 -0.5715 -0.6315
  454MOL0     C62525   4.907   8.664  10.518 -0.2236 -0.3972  0.1594
  454MOL0     C62526   4.866   8.814  10.487 -0.7158 -0.4881  0.1296
  454MOL0     C62527   5.006   8.877  10.482  0.8781 -0.7585 -0.2277
  454MOL0     C62528   4.998   9.030  10.484  0.5420  0.0366  0.0721
  454MOL0     C62529   5.136   9.078  10.444  0.1627  0.0403 -0.2705
  454MOL0     C62530   5.157   9.226  10.481  0.4932  0.7753  1.0189
  454MOL0     N62531   5.305   9.260  10.497  0.6838  0.5014  0.2888
  454MOL0     C62532   5.396   9.248  10.397 -0.1647 -0.6053 -0.4783
  454MOL0     C62533   5.514   9.261  10.456 -0.1503 -0.0380  0.2110
  454MOL0     C62534   5.656   9.269  10.398 -1.0328 -0.0387  0.0804
  454MOL0     C62535   5.727   9.402  10.433 -0.2589  0.5748 -0.0029
  454MOL0     C62536   5.867   9.405  10.373 -0.0204 -1.1438  0.1494
  454MOL0     C62537   5.959   9.518  10.436 -0.3764 -0.4060  0.5872
  454MOL0     O62538   6.082   9.522  10.354 -0.3147  0.1422 -0.8403
  454MOL0     C62539   6.210   9.537  10.402 -0.3720  0.2812  0.0797
  454MOL0     C62540   6.243   9.550  10.542 -0.7408  0.8170 -0.0482
  454MOL0     C62541   6.377   9.582  10.582 -0.2181 -0.4310 -0.2279
  454MOL0     C62542   6.409   9.596  10.733 -0.6532  0.1719  0.2853
  454MOL0     C62543   6.478   9.579  10.487 -0.6436 -1.3053  0.3621
  454MOL0     C62544   6.629   9.604  10.521 -0.1790  0.1529 -0.1637
  454MOL0     O62545   6.718   9.557  10.429  0.0748  0.1725  0.1374
  454MOL0     C62546   6.855   9.563  10.446 -0.1831 -0.5449  0.2881
  454MOL0     C62547   6.931   9.660  10.515  0.1082 -0.1863 -0.9921
  454MOL0     C62548   7.065   9.653  10.526 -0.3456  0.5786  0.1759
  454MOL0     C62549   7.135   9.549  10.459 -0.4311  0.5738 -0.5104
  454MOL0     O62550   7.270   9.522  10.461  0.1010 -0.4669  0.3034
  454MOL0     C62551   7.360   9.631  10.490  0.3037  0.3859  0.3121
  454MOL0     C62552   7.513   9.598  10.458  0.1519  0.0157 -0.1341
  454MOL0     C62553   7.544   9.568  10.320  0.0196 -0.4104 -0.3756
  454MOL0     C62554   7.574   9.686  10.238  0.3030  0.5337  0.1481
  454MOL0     C62555   7.636   9.638  10.100  0.4898 -0.9196 -0.0489
  454MOL0     C62556   7.702   9.754  10.023  0.4792 -0.1612  0.5826
  454MOL0     C62557   7.731   9.702   9.869 -0.2068 -0.8195 -0.1808
  454MOL0     C62558   7.778   9.816   9.777 -0.3225 -0.0031 -0.3505
  454MOL0    Cl62559   7.951   9.854   9.803 -0.2239  0.5139  0.0623
  454MOL0     C62560   7.064   9.453  10.394 -0.4107 -0.4657  0.4022
  454MOL0     C62561   6.925   9.454  10.385 -0.1943  0.3262 -0.4322
  454MOL0     O62562   6.659   9.661  10.620 -0.9368 -0.0785 -0.4455
  454MOL0     C62563   6.438   9.546  10.353 -0.4162  0.8936  0.5821
  454MOL0     C62564   6.310   9.528  10.306  0.2675 -0.1884 -0.2027
  454MOL0     N62565   5.493   9.274  10.590  0.2917 -0.8917 -0.2035
  454MOL0     N62566   5.368   9.261  10.618  0.0460  0.1168 -0.7307
  454MOL0     C62567   4.446   8.651  10.760  0.4272 -0.0020  0.5034
  454MOL0     C62568   4.329   8.664  10.833 -0.2626 -0.0400 -0.3720
  454MOL0     C62569   3.980   8.609  11.094  0.4728 -0.3457 -0.2853
  454MOL0     C62570   3.873   8.532  11.042 -0.0820  0.1033 -0.0736
  454MOL0     C62571   3.749   8.506  11.106 -0.4190  0.0632  0.0110
  454MOL0     C62572   3.737   8.554  11.235  0.5706  0.0274  0.5514
  454MOL0     O62573   3.623   8.541  11.317 -0.3845 -0.7469  0.6600
  454MOL0     C62574   3.500   8.543  11.249  0.5597  0.1416  0.0517
  454MOL0     C62575   3.400   8.622  11.330 -0.2478 -0.2964  0.0744
  454MOL0     C62576   3.366   8.548  11.464  0.2099 -0.5852 -0.6861
  454MOL0     C62577   3.337   8.398  11.464  0.0938  0.2524  0.0892
  454MOL0     C62578   3.217   8.379  11.373 -0.6628 -0.1888 -1.0057
  454MOL0     C62579   3.112   8.360  11.314 -0.2119  0.2489  1.1146
  454MOL0     C62580   3.836   8.629  11.285 -1.2799  0.0710  0.6143
  454MOL0     C62581   3.953   8.664  11.220  0.5656 -0.0249 -0.3796
  454MOL0     C62582   4.032   8.779  11.293 -0.7526  0.2453  0.1912
  454MOL0     H62583   4.180   8.369  10.745  0.1901  0.0930 -2.2593
  454MOL0     H62584   4.384   8.361  10.589 -0.6705  2.0540 -1.1829
  454MOL0     H62585   4.734   8.606  10.707 -2.0551  0.4653  0.9463
  454MOL0     H62586   4.644   8.703  10.601 -0.3815 -0.3467 -0.0603
  454MOL0     H62587   4.787   8.472  10.481 -0.3270 -0.6700 -0.0021
  454MOL0     H62588   4.735   8.620  10.399 -1.3466 -0.9752 -0.0687
  454MOL0     H62589   4.931   8.646  10.623 -2.8911 -8.1085  0.0632
  454MOL0     H62590   4.992   8.636  10.455  1.9012  0.6252  2.4096
  454MOL0     H62591   4.818   8.823  10.389 -2.5283 -0.8047  0.9526
  454MOL0     H62592   4.802   8.858  10.563  0.0865  0.1456  0.4479
  454MOL0     H62593   5.066   8.830  10.403  1.8367 -1.3866  0.8425
  454MOL0     H62594   5.057   8.849  10.574  3.8373  0.4540 -1.3796
  454MOL0     H62595   4.923   9.068  10.415  2.1039  0.0751 -1.6955
  454MOL0     H62596   4.974   9.070  10.583  0.5907  1.4059 -0.4529
  454MOL0     H62597   5.151   9.057  10.338 -0.4984  0.2937 -0.4155
  454MOL0     H62598   5.208   9.023  10.505 -0.1433  1.4890  1.4792
  454MOL0     H62599   5.116   9.291  10.403 -3.0663  1.5936  3.3226
  454MOL0     H62600   5.105   9.247  10.575 -3.0817  2.7775 -1.1484
  454MOL0     H62601   5.373   9.249  10.291 -1.4150  2.9699 -0.3115
  454MOL0     H62602   5.657   9.256  10.289  0.3354  2.1355 -0.2322
  454MOL0     H62603   5.720   9.184  10.423 -0.1599 -0.1772 -2.3198
  454MOL0     H62604   5.672   9.491  10.401 -0.1481  2.2876  3.9668
  454MOL0     H62605   5.738   9.408  10.542  0.9715  0.2329 -0.0915
  454MOL0     H62606   5.911   9.305  10.382  1.9402 -0.4613 -1.2476
  454MOL0     H62607   5.865   9.428  10.266 -0.5641 -1.1986  0.1435
  454MOL0     H62608   5.913   9.617  10.441 -0.9312 -0.6760  1.0871
  454MOL0     H62609   5.980   9.490  10.540  1.6251 -0.0710  0.3125
  454MOL0     H62610   6.161   9.548  10.613 -2.1606  0.6886 -1.6297
  454MOL0     H62611   6.318   9.562  10.783  0.4394 -2.0211  0.8698
  454MOL0     H62612   6.427   9.702  10.754 -0.7207  0.6458 -1.7726
  454MOL0     H62613   6.493   9.535  10.766  0.2055  0.3537 -1.4413
  454MOL0     H62614   6.878   9.741  10.564  0.3883  0.2459 -1.3989
  454MOL0     H62615   7.106   9.739  10.578 -1.0386  2.0243 -1.5385
  454MOL0     H62616   7.336   9.717  10.426  1.2113  0.5804  0.2191
  454MOL0     H62617   7.345   9.671  10.591 -0.6854 -0.8132  0.6527
  454MOL0     H62618   7.573   9.680  10.499 -0.6644  0.1866  0.7760
  454MOL0     H62619   7.535   9.507  10.514 -1.9525 -1.6562 -1.8381
  454MOL0     H62620   7.456   9.522  10.276 -1.3473  2.6490 -1.1059
  454MOL0     H62621   7.635   9.508  10.320  1.3733  1.4882 -2.0667
  454MOL0     H62622   7.657   9.741  10.284  1.6704 -1.1754 -0.1606
  454MOL0     H62623   7.485   9.746  10.221  0.2935  0.0589 -1.6741
  454MOL0     H62624   7.717   9.566  10.120  1.1708  0.3090  1.9794
  454MOL0     H62625   7.561   9.582  10.044 -3.0247 -1.0940  4.2987
  454MOL0     H62626   7.790   9.796  10.073  0.1798  1.0534  0.1240
  454MOL0     H62627   7.633   9.839  10.013  0.4225 -0.1589  0.9674
  454MOL0     H62628   7.649   9.647   9.821  0.8599 -2.0295 -0.6765
  454MOL0     H62629   7.800   9.618   9.868  1.2139  0.2980  0.9807
  454MOL0     H62630   7.714   9.904   9.771 -2.0745 -1.2195 -0.2517
  454MOL0     H62631   7.768   9.768   9.678 -3.9212 -0.7350  0.2437
  454MOL0     H62632   7.125   9.391  10.329 -0.0947  1.2895 -1.0429
  454MOL0     H62633   6.872   9.383  10.322  1.7273 -0.3164 -1.4130
  454MOL0     H62634   6.508   9.537  10.271 -2.1140 -3.0476 -0.6520
  454MOL0     H62635   6.289   9.529  10.200  2.1844  0.6859 -0.6217
  454MOL0     H62636   4.521   8.729  10.751  1.1248 -0.5885  1.0331
  454MOL0     H62637   4.301   8.753  10.889 -2.0299 -0.2429 -0.8736
  454MOL0     H62638   3.888   8.494  10.941 -0.5346 -0.7779  0.1800
  454MOL0     H62639   3.664   8.453  11.062 -0.3964 -1.2174  1.4225
  454MOL0     H62640   3.494   8.578  11.146  0.3156  0.3330  0.1285
  454MOL0     H62641   3.466   8.440  11.243  0.1695  0.3529 -1.9988
  454MOL0     H62642   3.308   8.629  11.271 -2.5171 -0.6492  3.3103
  454MOL0     H62643   3.439   8.722  11.352  0.8623 -0.5273 -0.7424
  454MOL0     H62644   3.449   8.573  11.531 -1.2448  3.9088 -0.2091
  454MOL0     H62645   3.278   8.597  11.506  1.6730  1.9304 -0.3246
  454MOL0     H62646   3.310   8.359  11.562  1.1786 -4.6109 -1.3126
  454MOL0     H62647   3.421   8.333  11.440 -2.5782 -3.5990  0.2796
  454MOL0     H62648   3.016   8.344  11.270  0.1492  1.0644 -0.0185
  454MOL0     H62649   3.826   8.666  11.387  1.6740  1.3949  0.5281
  454MOL0     H62650   4.105   8.822  11.224  0.9049 -1.3260  0.8627
  454MOL0     H62651   3.958   8.857  11.314 -3.8319 -2.7412  1.4382
  454MOL0     H62652   4.087   8.728  11.373 -0.7189 -1.7209 -1.0203
  455MOL0     O62653   6.157   2.064   4.354 -0.1065 -0.1500  0.0042
  455MOL0     C62654   6.113   2.047   4.242  0.2260  0.3319 -0.0382
  455MOL0     O62655   6.175   2.075   4.129  1.1779 -0.2621  0.5629
  455MOL0     C62656   6.307   2.116   4.127  0.2534  1.0122 -0.6071
  455MOL0     C62657   6.338   2.196   4.016  0.0526 -0.0748  0.5072
  455MOL0     C62658   6.472   2.231   3.988  0.2009  0.3005  0.0649
  455MOL0     C62659   6.570   2.196   4.074  0.5182  0.1069 -0.5937
  455MOL0     O62660   6.709   2.227   4.052  0.7067  0.1331 -0.3055
  455MOL0     C62661   6.726   2.368   4.043 -0.2903  0.2497 -0.3439
  455MOL0     C62662   6.848   2.404   4.131  0.5264 -0.0753  0.1113
  455MOL0     C62663   6.979   2.332   4.097 -0.3100  0.2746  0.2754
  455MOL0     C62664   7.091   2.368   4.196  0.0715  0.0018 -0.3726
  455MOL0     C62665   7.226   2.294   4.159  0.5983  0.0033  0.2996
  455MOL0     C62666   7.331   2.314   4.259  0.5825  0.3829 -0.9255
  455MOL0     C62667   7.463   2.270   4.196  0.3676 -0.1518  0.3568
  455MOL0     C62668   7.566   2.270   4.303  0.2883  0.1873  0.3268
  455MOL0     N62669   7.637   2.401   4.305 -0.4917 -0.2108 -0.1995
  455MOL0     C62670   7.763   2.435   4.258  0.6025 -0.6753  0.0496
  455MOL0     C62671   7.764   2.567   4.248 -0.1281 -0.0929 -0.3390
  455MOL0     C62672   7.867   2.648   4.176 -0.4201 -0.4338 -0.5828
  455MOL0     C62673   7.968   2.717   4.273  0.1648 -0.1507  0.4833
  455MOL0     C62674   8.043   2.630   4.366 -0.1970  0.1208  0.0348
  455MOL0     C62675   8.149   2.714   4.443  0.1703 -0.1512  0.4119
  455MOL0     O62676   8.229   2.622   4.505 -0.1707  0.3545 -0.5266
  455MOL0     C62677   8.346   2.679   4.562 -0.2203 -0.0614 -0.2986
  455MOL0     C62678   8.460   2.606   4.565 -0.0375  0.9710  0.4478
  455MOL0     C62679   8.584   2.654   4.614  0.0558 -0.3781  0.1607
  455MOL0     C62680   8.694   2.557   4.598 -0.2599 -0.2078 -0.9237
  455MOL0     C62681   8.589   2.771   4.684 -0.4090  0.3706 -0.4498
  455MOL0     C62682   8.721   2.824   4.738  0.4053 -0.5998  0.9983
  455MOL0     O62683   8.844   2.784   4.670  0.4370 -0.0614 -1.2041
  455MOL0     C62684   8.967   2.808   4.723  0.2402 -0.4037  0.5061
  455MOL0     C62685   8.998   2.817   4.856 -0.0227 -0.1726  0.0304
  455MOL0     C62686   9.127   2.812   4.897  0.1018 -0.4236  0.9204
  455MOL0     C62687   9.229   2.795   4.802  1.0434 -0.0432 -0.1938
  455MOL0     O62688   9.359   2.770   4.838  0.5255 -0.3993 -0.0917
  455MOL0     C62689   9.388   2.750   4.976  0.0101  0.5528 -0.4648
  455MOL0     C62690   9.535   2.734   5.012 -0.7929 -0.1262  0.6025
  455MOL0     C62691   9.587   2.587   4.999  0.0997 -0.7144  0.1593
  455MOL0     C62692   9.723   2.570   5.056 -0.4127 -0.6565 -0.3398
  455MOL0     C62693   9.842   2.618   4.967  0.8447 -0.3909 -0.7516
  455MOL0     C62694   9.965   2.531   5.001 -1.8319 -0.5028  0.3884
  455MOL0     C62695  10.096   2.615   4.993 -0.2056  0.2415  0.2554
  455MOL0     C62696  10.203   2.502   5.005 -0.0295 -0.5748 -0.0026
  455MOL0    Cl62697  10.229   2.419   4.855 -0.3158  0.3108  0.0052
  455MOL0     C62698   9.205   2.798   4.665 -0.9920 -0.0333  0.4321
  455MOL0     C62699   9.071   2.800   4.631 -0.0068  1.0601  0.6630
  455MOL0     O62700   8.708   2.912   4.818 -0.4911 -0.5474 -0.1785
  455MOL0     C62701   8.470   2.852   4.690 -0.2051  0.2323 -0.3042
  455MOL0     C62702   8.354   2.803   4.629  0.6276  0.0192  0.1518
  455MOL0     N62703   7.646   2.609   4.298  0.2843 -0.2156  0.0926
  455MOL0     N62704   7.570   2.513   4.331  0.1141 -0.0588  0.3475
  455MOL0     C62705   6.537   2.123   4.192  0.5618 -0.1142 -0.4541
  455MOL0     C62706   6.408   2.075   4.210  0.5688 -0.2320 -0.1013
  455MOL0     C62707   5.981   1.973   4.226 -0.1297  0.3587  0.7824
  455MOL0     C62708   5.926   1.959   4.097  0.2300 -0.2122 -0.0025
  455MOL0     C62709   5.797   1.919   4.077 -0.2028  0.4466  0.3430
  455MOL0     C62710   5.716   1.865   4.177 -0.6801  0.0858 -0.2879
  455MOL0     O62711   5.586   1.830   4.151 -0.5003 -0.1098  0.5659
  455MOL0     C62712   5.495   1.795   4.256 -0.3590 -0.7791 -0.8024
  455MOL0     C62713   5.353   1.769   4.207  1.0229 -0.1823 -0.4549
  455MOL0     C62714   5.278   1.684   4.313 -0.6059 -0.1793  0.0449
  455MOL0     C62715   5.140   1.644   4.268 -0.2310 -0.3235  0.5525
  455MOL0     C62716   5.074   1.555   4.364  0.3835 -0.6840 -0.3336
  455MOL0     C62717   4.983   1.494   4.420  0.3455  1.0039  0.0340
  455MOL0     C62718   5.777   1.867   4.305  0.0553 -0.2854 -0.2880
  455MOL0     C62719   5.908   1.917   4.324  0.6587  0.5526  0.4336
  455MOL0     C62720   5.955   1.897   4.464 -0.4701  0.0543 -0.1706
  455MOL0     H62721   6.256   2.225   3.951  1.8060  1.1188 -1.2815
  455MOL0     H62722   6.485   2.273   3.889 -3.1229 -1.1202 -1.1044
  455MOL0     H62723   6.644   2.427   4.086 -0.7422  1.2013 -2.3889
  455MOL0     H62724   6.749   2.401   3.941 -0.8082 -0.8428 -0.8238
  455MOL0     H62725   6.858   2.512   4.116  2.0683 -0.1741  0.2266
  455MOL0     H62726   6.824   2.380   4.235  1.5931 -1.8751 -0.0107
  455MOL0     H62727   6.961   2.225   4.111 -0.4741  0.3216  0.4250
  455MOL0     H62728   7.009   2.352   3.994  0.8805 -1.7536  0.1698
  455MOL0     H62729   7.109   2.471   4.226  1.3482  0.6365 -2.9675
  455MOL0     H62730   7.058   2.317   4.287  0.0264 -0.7768 -0.8155
  455MOL0     H62731   7.258   2.327   4.060  0.3512 -1.3314 -0.2587
  455MOL0     H62732   7.203   2.188   4.143  0.0685 -0.1607  1.8894
  455MOL0     H62733   7.333   2.418   4.292 -0.8516 -0.4649  2.2174
  455MOL0     H62734   7.311   2.250   4.346  1.7157  0.4736 -0.5854
  455MOL0     H62735   7.485   2.342   4.116 -4.6394  0.8326 -0.5046
  455MOL0     H62736   7.443   2.173   4.150  0.0377  0.0498  0.0610
  455MOL0     H62737   7.517   2.263   4.400 -0.1913  0.2039  0.0908
  455MOL0     H62738   7.644   2.195   4.300  0.4815  0.3890  0.3105
  455MOL0     H62739   7.838   2.367   4.220  2.1529  1.2380 -0.5108
  455MOL0     H62740   7.812   2.720   4.115  0.9167  1.3425  0.2320
  455MOL0     H62741   7.929   2.593   4.104 -0.0940  0.2432 -0.8237
  455MOL0     H62742   8.040   2.781   4.220  0.9006 -2.4008 -1.4092
  455MOL0     H62743   7.906   2.788   4.328 -0.2932  0.6691 -1.0271
  455MOL0     H62744   7.981   2.573   4.435 -0.6657  1.4334  0.7302
  455MOL0     H62745   8.104   2.557   4.312 -0.5112 -1.2960  1.5218
  455MOL0     H62746   8.206   2.781   4.377 -0.0245  1.9560  2.2678
  455MOL0     H62747   8.095   2.787   4.504  1.4335  0.1168  1.2385
  455MOL0     H62748   8.455   2.504   4.529  0.0671  1.0749  0.1388
  455MOL0     H62749   8.754   2.578   4.509  2.2066 -0.0159  0.6676
  455MOL0     H62750   8.660   2.453   4.585  0.6339 -0.6932  0.4423
  455MOL0     H62751   8.753   2.562   4.690 -0.5077 -3.7485 -0.4169
  455MOL0     H62752   8.926   2.841   4.934 -1.1801 -1.9241 -0.4469
  455MOL0     H62753   9.148   2.828   5.002  0.0936 -0.3682  0.9134
  455MOL0     H62754   9.346   2.837   5.028 -2.3380 -0.8955  0.1834
  455MOL0     H62755   9.342   2.666   5.028  0.4710  1.2211  1.0857
  455MOL0     H62756   9.600   2.797   4.951  0.4121 -1.4602  0.4823
  455MOL0     H62757   9.542   2.761   5.117  0.8453  1.2759  0.1796
  455MOL0     H62758   9.580   2.560   4.893  2.3915  0.6431 -0.4039
  455MOL0     H62759   9.513   2.526   5.053 -1.6257  0.9710 -0.1931
  455MOL0     H62760   9.737   2.465   5.084  3.2381 -0.1171  0.4060
  455MOL0     H62761   9.722   2.623   5.152 -1.3740  2.0848 -1.7417
  455MOL0     H62762   9.830   2.617   4.858  2.3138  2.6158 -1.0573
  455MOL0     H62763   9.866   2.720   4.999 -1.3097 -0.0406 -0.0570
  455MOL0     H62764   9.974   2.450   4.927  1.3482  0.6632 -0.6426
  455MOL0     H62765   9.959   2.480   5.097  2.8694 -1.5604  0.3474
  455MOL0     H62766  10.110   2.678   5.081 -0.1300 -0.4668  0.7578
  455MOL0     H62767  10.100   2.675   4.902  0.0571  1.1117  0.8182
  455MOL0     H62768  10.165   2.427   5.075 -1.1771 -2.4759 -2.5033
  455MOL0     H62769  10.300   2.539   5.040  0.5884 -3.5596  1.7746
  455MOL0     H62770   9.281   2.795   4.588 -0.5787  0.0227  0.8319
  455MOL0     H62771   9.056   2.785   4.525  1.2920  0.5534  0.5338
  455MOL0     H62772   8.473   2.948   4.741 -1.3378  0.8002 -1.2717
  455MOL0     H62773   8.263   2.863   4.633 -0.3110 -1.2550 -0.9179
  455MOL0     H62774   6.613   2.086   4.261  0.0514 -2.7806 -1.2182
  455MOL0     H62775   6.384   2.006   4.289 -1.5699 -0.2407 -0.7069
  455MOL0     H62776   5.985   1.989   4.011  2.3105 -0.4052  1.2953
  455MOL0     H62777   5.763   1.917   3.974 -0.7928 -1.1702  0.5431
  455MOL0     H62778   5.535   1.710   4.312 -1.2778 -0.0238  1.0986
  455MOL0     H62779   5.497   1.878   4.327  0.3810 -0.2437 -1.4294
  455MOL0     H62780   5.346   1.722   4.108 -1.3691  2.4243 -1.6462
  455MOL0     H62781   5.298   1.863   4.209  0.2925 -0.5961  1.7446
  455MOL0     H62782   5.337   1.593   4.325  0.5096  0.6347  0.8890
  455MOL0     H62783   5.273   1.733   4.411 -0.0112  1.1394 -0.5521
  455MOL0     H62784   5.158   1.595   4.171  1.9155 -2.0093  1.7115
  455MOL0     H62785   5.077   1.732   4.250  0.2305 -0.3408 -1.4087
  455MOL0     H62786   4.899   1.441   4.460  2.4270 -0.3431  3.0484
  455MOL0     H62787   5.715   1.822   4.382 -1.5620  0.6835 -0.9683
  455MOL0     H62788   6.057   1.857   4.458  1.5925  4.8449 -3.6783
  455MOL0     H62789   5.968   1.991   4.518 -1.1055  0.2204 -0.3076
  455MOL0     H62790   5.878   1.845   4.523 -1.4678 -2.3775 -3.3643
  456MOL0     O62791  10.641   8.762   2.537  0.4125  0.4019 -0.0762
  456MOL0     C62792  10.592   8.659   2.490 -0.4195  0.5813 -1.0984
  456MOL0     O62793  10.662   8.539   2.473  0.1244  0.6411  0.4505
  456MOL0     C62794  10.777   8.537   2.550  0.2918 -0.1586  0.3298
  456MOL0     C62795  10.900   8.544   2.476  0.2012 -0.4739 -0.7615
  456MOL0     C62796  11.016   8.528   2.545 -1.2066  0.2241 -0.3421
  456MOL0     C62797  11.015   8.515   2.688 -0.1154 -0.7504  1.2061
  456MOL0     O62798  11.138   8.494   2.749 -0.4070  1.1790  0.1744
  456MOL0     C62799  11.143   8.472   2.888  1.1114  0.1247 -0.7680
  456MOL0     C62800  11.283   8.428   2.925  0.7964  0.3034 -0.1462
  456MOL0     C62801  11.394   8.538   2.913  0.2662 -0.6445 -0.0282
  456MOL0     C62802  11.531   8.476   2.896  0.7074 -0.3824 -0.1779
  456MOL0     C62803  11.634   8.592   2.876 -0.6211  0.5111 -0.0583
  456MOL0     C62804  11.775   8.553   2.861 -0.5054  0.6963 -0.4523
  456MOL0     C62805  11.835   8.484   2.980  0.9855  0.8069  0.1925
  456MOL0     C62806  11.990   8.472   2.973 -1.0210 -0.7456 -0.2475
  456MOL0     N62807  12.044   8.428   2.842  0.0461 -0.9721  0.1820
  456MOL0     C62808  12.026   8.313   2.769  0.4243 -0.2404  0.2702
  456MOL0     C62809  12.102   8.322   2.658  0.6632  0.3643 -0.1736
  456MOL0     C62810  12.091   8.228   2.536 -0.5627 -0.4338 -0.4252
  456MOL0     C62811  12.059   8.301   2.407  0.2362  0.0712  0.5346
  456MOL0     C62812  11.928   8.381   2.414  0.2091  0.0011  0.1012
  456MOL0     C62813  11.906   8.439   2.280 -0.0895  0.6869 -0.4019
  456MOL0     O62814  12.014   8.516   2.222 -0.0767 -0.4461  0.4201
  456MOL0     C62815  11.995   8.659   2.206  0.3612  0.1833 -0.0402
  456MOL0     C62816  11.913   8.699   2.103 -0.3928 -0.6184 -0.0778
  456MOL0     C62817  11.866   8.834   2.100 -0.4334 -0.6480  0.7521
  456MOL0     C62818  11.746   8.867   2.011 -0.3849 -0.1587 -0.7182
  456MOL0     C62819  11.910   8.932   2.200 -0.3509  0.1960  0.1969
  456MOL0     C62820  11.886   9.081   2.191 -0.3164 -0.0594 -0.1139
  456MOL0     O62821  11.852   9.139   2.305  0.5334  0.2075 -0.1252
  456MOL0     C62822  11.801   9.260   2.297  0.2997 -0.3307 -0.8783
  456MOL0     C62823  11.883   9.377   2.323  0.4462  1.3220  0.3554
  456MOL0     C62824  11.831   9.505   2.331  0.3458  1.2301  0.5350
  456MOL0     C62825  11.695   9.525   2.326 -0.3966 -0.8728  0.6803
  456MOL0     O62826  11.646   9.650   2.336 -0.1018  0.3317 -0.2950
  456MOL0     C62827  11.554   9.682   2.437 -0.8096  0.8698 -0.7178
  456MOL0     C62828  11.619   9.673   2.577 -0.2143  0.4136  0.5619
  456MOL0     C62829  11.534   9.713   2.703  0.0103  0.4479  0.3488
  456MOL0     C62830  11.612   9.671   2.830 -0.2766  1.1920 -0.2985
  456MOL0     C62831  11.526   9.654   2.954  0.1019 -0.3579  0.3568
  456MOL0     C62832  11.610   9.678   3.078 -0.1687  0.6454  0.4123
  456MOL0     C62833  11.557   9.612   3.204 -0.1605 -0.3255  0.0561
  456MOL0     C62834  11.431   9.670   3.266  0.3296 -0.3017 -0.8298
  456MOL0    Cl62835  11.474   9.820   3.354  0.0507  0.0243 -0.4924
  456MOL0     C62836  11.612   9.422   2.297  0.3755 -0.2987  0.7834
  456MOL0     C62837  11.664   9.295   2.289 -0.4672 -0.4204 -0.1076
  456MOL0     O62838  11.886   9.132   2.078 -0.4902 -0.2640  0.3763
  456MOL0     C62839  12.004   8.887   2.296  0.5166  0.6701 -0.0022
  456MOL0     C62840  12.030   8.750   2.305  0.6668 -0.4103 -1.0089
  456MOL0     N62841  12.160   8.452   2.657  0.4034  0.6057 -0.1384
  456MOL0     N62842  12.118   8.516   2.764  0.4982 -0.1808 -0.3319
  456MOL0     C62843  10.891   8.505   2.759 -0.0196  0.1288 -0.0412
  456MOL0     C62844  10.775   8.520   2.689  0.5315  0.5851 -0.2181
  456MOL0     C62845  10.442   8.655   2.482  0.3042  0.0020 -0.2426
  456MOL0     C62846  10.376   8.544   2.531 -0.7183 -0.9904 -0.4255
  456MOL0     C62847  10.236   8.553   2.565 -0.2371 -0.7207 -0.3391
  456MOL0     C62848  10.173   8.678   2.548  0.8687  0.1371  0.0993
  456MOL0     O62849  10.045   8.669   2.602 -0.0151  0.5885  0.2916
  456MOL0     C62850   9.972   8.790   2.620  0.6534 -0.0304 -0.2087
  456MOL0     C62851   9.891   8.798   2.749 -0.2407 -0.1090 -0.2059
  456MOL0     C62852   9.784   8.691   2.763  0.0490 -0.3180  0.2509
  456MOL0     C62853   9.798   8.599   2.882  0.0584  0.4506 -0.3281
  456MOL0     C62854   9.935   8.554   2.917  0.1424  0.0433 -0.1035
  456MOL0     C62855  10.050   8.505   2.942  0.7892 -0.5110 -0.1577
  456MOL0     C62856  10.244   8.784   2.487 -1.0848 -0.8238 -0.5034
  456MOL0     C62857  10.373   8.774   2.446 -0.0278 -0.5391 -0.7568
  456MOL0     C62858  10.438   8.895   2.375  0.8000  0.9288 -0.4747
  456MOL0     H62859  10.903   8.547   2.368 -1.3761 -1.7524 -0.8625
  456MOL0     H62860  11.109   8.539   2.490 -1.0144  0.5323  0.0360
  456MOL0     H62861  11.076   8.389   2.913 -0.1332  1.2531 -0.2083
  456MOL0     H62862  11.111   8.558   2.946 -2.1428 -2.0476  0.9985
  456MOL0     H62863  11.290   8.385   3.025 -1.4740  0.9604  0.3717
  456MOL0     H62864  11.306   8.348   2.854  2.2236 -0.1927  0.8428
  456MOL0     H62865  11.383   8.598   2.823  2.6006 -2.9040 -1.9720
  456MOL0     H62866  11.381   8.595   3.006 -0.4664  0.2479 -0.6604
  456MOL0     H62867  11.552   8.414   2.984 -1.0834 -0.5945  0.1443
  456MOL0     H62868  11.528   8.408   2.810 -0.1813 -0.8103  0.1758
  456MOL0     H62869  11.618   8.659   2.961  0.4832  0.2789  0.3365
  456MOL0     H62870  11.615   8.652   2.786 -0.5709  0.1132 -0.3367
  456MOL0     H62871  11.785   8.495   2.769 -0.7042  0.5739 -0.3963
  456MOL0     H62872  11.826   8.649   2.844 -0.0105  0.2226 -1.7726
  456MOL0     H62873  11.804   8.379   2.980  1.0736  0.7546 -1.7131
  456MOL0     H62874  11.798   8.527   3.073 -1.8512  0.1037 -0.5352
  456MOL0     H62875  12.034   8.565   3.008 -1.4272 -1.1644  1.5151
  456MOL0     H62876  12.015   8.394   3.046  1.6623  0.3939  0.1442
  456MOL0     H62877  11.946   8.243   2.789 -1.1081  1.3709  0.0847
  456MOL0     H62878  12.010   8.158   2.559  0.3628 -0.5300  3.2060
  456MOL0     H62879  12.181   8.165   2.537 -0.3249 -0.1970 -2.4493
  456MOL0     H62880  12.142   8.371   2.392  2.2684 -2.4985 -0.8810
  456MOL0     H62881  12.064   8.244   2.314 -2.5113  2.6696 -1.4406
  456MOL0     H62882  11.851   8.306   2.432 -0.1926 -0.9253 -4.4239
  456MOL0     H62883  11.931   8.461   2.488  2.2725  0.3096 -0.2381
  456MOL0     H62884  11.871   8.355   2.219 -1.5470  1.0517 -0.0948
  456MOL0     H62885  11.821   8.507   2.284 -0.9911 -0.1929 -2.6851
  456MOL0     H62886  11.865   8.623   2.041  0.9786 -2.8154  1.4317
  456MOL0     H62887  11.781   8.913   1.918 -0.3795  0.8256 -0.2449
  456MOL0     H62888  11.672   8.927   2.065 -1.1043 -1.5778 -0.0854
  456MOL0     H62889  11.699   8.774   1.981 -0.2798 -0.3343 -0.3429
  456MOL0     H62890  11.987   9.365   2.351  0.4082  2.0321  0.8142
  456MOL0     H62891  11.895   9.591   2.352 -0.1452  1.9317 -0.7324
  456MOL0     H62892  11.508   9.781   2.429 -2.6774  0.0927 -0.1697
  456MOL0     H62893  11.472   9.611   2.425  1.1988 -1.6098 -0.4808
  456MOL0     H62894  11.653   9.570   2.593  0.1307  0.3022 -0.8071
  456MOL0     H62895  11.706   9.738   2.587  0.0849 -0.2298  2.7919
  456MOL0     H62896  11.434   9.669   2.699  1.1578 -2.5858  1.8749
  456MOL0     H62897  11.519   9.821   2.712 -0.7764  0.3661  0.0729
  456MOL0     H62898  11.688   9.749   2.840  1.0922 -0.3298  2.2164
  456MOL0     H62899  11.653   9.573   2.802  0.1570  2.4764 -4.9444
  456MOL0     H62900  11.441   9.722   2.964 -1.3540 -1.6490 -2.2239
  456MOL0     H62901  11.482   9.554   2.967  0.3071 -0.0726  4.8522
  456MOL0     H62902  11.628   9.785   3.091  2.7937  0.6069 -2.2386
  456MOL0     H62903  11.710   9.633   3.073 -0.2396  0.4641  0.6207
  456MOL0     H62904  11.632   9.594   3.282 -1.1056 -0.4656  0.9547
  456MOL0     H62905  11.526   9.508   3.186 -2.2778 -0.0948  1.8613
  456MOL0     H62906  11.378   9.594   3.324 -1.0179 -0.4538 -2.1997
  456MOL0     H62907  11.361   9.697   3.186 -0.5075  3.6612  0.9977
  456MOL0     H62908  11.505   9.436   2.286  0.2322 -1.1581  0.9833
  456MOL0     H62909  11.597   9.210   2.276  0.2691 -1.1467  0.6619
  456MOL0     H62910  12.041   8.958   2.369 -0.7563  0.6581  0.6688
  456MOL0     H62911  12.087   8.712   2.389  0.2781 -0.9314 -0.9798
  456MOL0     H62912  10.886   8.492   2.867  2.9671  0.3645  0.1941
  456MOL0     H62913  10.677   8.502   2.732  1.0633 -2.5029 -0.0266
  456MOL0     H62914  10.437   8.460   2.565 -0.8931 -0.5592  1.0207
  456MOL0     H62915  10.178   8.476   2.615 -0.8778 -1.2059 -1.7969
  456MOL0     H62916  10.044   8.872   2.632  0.4765  0.3205 -1.4104
  456MOL0     H62917   9.897   8.809   2.543 -0.8479 -2.3381  0.5676
  456MOL0     H62918   9.842   8.896   2.740  2.5140  1.3036 -1.0617
  456MOL0     H62919   9.958   8.815   2.833  1.9841 -0.2072 -1.8584
  456MOL0     H62920   9.689   8.743   2.751  0.5709  0.1669 -2.7942
  456MOL0     H62921   9.791   8.623   2.677 -0.5375 -0.8771  0.6454
  456MOL0     H62922   9.732   8.512   2.870 -1.0017  1.0070  1.1007
  456MOL0     H62923   9.760   8.653   2.970  3.8071  1.6681  0.7012
  456MOL0     H62924  10.146   8.458   2.952 -0.8149 -3.6214  2.8583
  456MOL0     H62925  10.198   8.882   2.473  2.0491  0.7649 -0.5713
  456MOL0     H62926  10.500   8.952   2.445  0.1339 -0.5095  1.3692
  456MOL0     H62927  10.499   8.851   2.295  0.8465 -0.9530  0.5244
  456MOL0     H62928  10.353   8.949   2.332  1.3554  2.2940  0.0857
  457MOL0     O62929   7.980   1.012   3.410  0.4857 -0.2962  0.1844
  457MOL0     C62930   7.956   1.062   3.522 -0.3099  0.0966 -0.6355
  457MOL0     O62931   8.021   1.171   3.570  0.4467  1.0196 -1.0699
  457MOL0     C62932   8.125   1.226   3.499 -0.1213 -0.5442 -0.4777
  457MOL0     C62933   8.116   1.363   3.461 -0.0680 -0.1309 -0.1415
  457MOL0     C62934   8.212   1.425   3.395 -0.2988 -0.0700  0.0876
  457MOL0     C62935   8.333   1.358   3.360 -0.5150 -0.2297  0.8618
  457MOL0     O62936   8.431   1.426   3.282 -0.3912  0.1225  0.1377
  457MOL0     C62937   8.478   1.357   3.166 -0.5221  0.4185  0.4514
  457MOL0     C62938   8.562   1.445   3.075  0.2286  1.3418  0.9784
  457MOL0     C62939   8.650   1.367   2.980 -0.2967 -0.1867 -0.4329
  457MOL0     C62940   8.672   1.437   2.854 -0.4174  0.2732 -0.1353
  457MOL0     C62941   8.793   1.372   2.788  0.1267 -0.6119 -0.3227
  457MOL0     C62942   8.820   1.446   2.654  0.0138  0.9466 -0.0886
  457MOL0     C62943   8.958   1.427   2.597  0.1711 -1.0276 -0.4098
  457MOL0     C62944   9.081   1.481   2.682  0.9340 -0.4353  0.2347
  457MOL0     N62945   9.191   1.517   2.598 -0.0226  0.5677  0.8611
  457MOL0     C62946   9.229   1.637   2.551 -0.1672  0.2233  0.9323
  457MOL0     C62947   9.341   1.612   2.484  0.1023  0.5249 -0.6632
  457MOL0     C62948   9.419   1.711   2.410  1.3442 -0.5809  0.8287
  457MOL0     C62949   9.523   1.792   2.493 -0.0232 -0.2047 -0.0870
  457MOL0     C62950   9.599   1.713   2.602  0.3674 -0.2742  0.1756
  457MOL0     C62951   9.710   1.809   2.660  0.1881  0.5741 -0.2693
  457MOL0     O62952   9.762   1.752   2.784 -0.0600  0.3280 -0.1870
  457MOL0     C62953   9.872   1.809   2.838  0.0392 -0.2452 -0.1188
  457MOL0     C62954   9.931   1.928   2.802  0.1285 -0.3934 -0.3132
  457MOL0     C62955  10.049   1.978   2.852  0.7328  0.0729 -0.2533
  457MOL0     C62956  10.102   2.105   2.793 -0.0308 -0.0072 -0.0765
  457MOL0     C62957  10.109   1.911   2.963 -0.0064  0.3955  0.5269
  457MOL0     C62958  10.224   1.964   3.036 -0.3551  0.0442  0.6973
  457MOL0     O62959  10.256   2.098   3.024 -0.0211  0.2200 -0.2408
  457MOL0     C62960  10.385   2.138   3.053  0.7295  0.4131  0.9937
  457MOL0     C62961  10.490   2.126   2.949 -0.8370 -0.7417 -0.0343
  457MOL0     C62962  10.623   2.150   2.986  0.1417  0.5653 -0.4632
  457MOL0     C62963  10.663   2.206   3.115 -0.2019  1.0328  0.5093
  457MOL0     O62964  10.802   2.221   3.129  0.1625  0.3639  1.0894
  457MOL0     C62965  10.859   2.251   3.258 -0.3726 -0.2925  1.0720
  457MOL0     C62966  11.013   2.216   3.268 -0.3410 -0.1227 -0.3111
  457MOL0     C62967  11.059   2.211   3.416  0.4781  0.6817  0.0269
  457MOL0     C62968  11.206   2.219   3.432 -0.6631 -0.3936 -0.0600
  457MOL0     C62969  11.248   2.197   3.575 -0.2697 -0.7019  0.5525
  457MOL0     C62970  11.389   2.234   3.593 -0.3115  0.2877  0.0195
  457MOL0     C62971  11.438   2.201   3.733  0.7000  0.1050  0.8044
  457MOL0     C62972  11.581   2.240   3.768 -1.1435  0.1419 -0.2165
  457MOL0    Cl62973  11.596   2.196   3.937  0.1773  0.0857 -0.3710
  457MOL0     C62974  10.561   2.222   3.213 -0.7679 -0.1882  0.3234
  457MOL0     C62975  10.423   2.182   3.182 -0.3640 -0.6631  0.7313
  457MOL0     O62976  10.278   1.878   3.107 -0.2018 -0.0782  0.5107
  457MOL0     C62977  10.052   1.786   3.001 -0.5633 -0.3471  0.2850
  457MOL0     C62978   9.942   1.737   2.938 -0.0959 -0.2106  0.6301
  457MOL0     N62979   9.374   1.479   2.509  0.2587  0.3308  0.6687
  457MOL0     N62980   9.285   1.422   2.571  0.4073 -0.1577 -0.7182
  457MOL0     C62981   8.343   1.224   3.391 -0.7525 -0.0130  0.3363
  457MOL0     C62982   8.235   1.153   3.455 -0.7527  0.2496 -0.5335
  457MOL0     C62983   7.864   0.994   3.620 -0.2860  1.3203  1.1563
  457MOL0     C62984   7.774   1.082   3.684  0.4610  0.1739  0.0643
  457MOL0     C62985   7.683   1.036   3.780 -0.4965 -0.2074 -0.5209
  457MOL0     C62986   7.665   0.902   3.809 -0.5967 -0.1977 -0.3519
  457MOL0     O62987   7.563   0.871   3.899 -0.0758 -0.9251 -0.5794
  457MOL0     C62988   7.510   0.738   3.887  0.3441 -0.1315 -0.3287
  457MOL0     C62989   7.535   0.642   4.019 -0.5327  0.4637  0.0239
  457MOL0     C62990   7.499   0.729   4.141  0.3384  0.5743  0.3988
  457MOL0     C62991   7.550   0.669   4.274  0.5175  0.7050 -0.7956
  457MOL0     C62992   7.480   0.542   4.315 -0.4341 -1.1320 -0.1608
  457MOL0     C62993   7.415   0.449   4.362  0.2956 -0.6559 -0.4638
  457MOL0     C62994   7.751   0.817   3.746 -0.0726 -0.0260  0.8233
  457MOL0     C62995   7.848   0.854   3.649 -1.0590 -0.3495 -0.2070
  457MOL0     C62996   7.955   0.757   3.600  0.8629 -0.2403 -0.6909
  457MOL0     H62997   8.019   1.410   3.477  0.8504  2.0823 -0.7047
  457MOL0     H62998   8.213   1.529   3.367  3.2065 -0.1892 -0.7881
  457MOL0     H62999   8.397   1.313   3.108 -0.7240 -0.0774  1.0953
  457MOL0     H63000   8.538   1.276   3.208 -2.1882 -0.7092  0.7364
  457MOL0     H63001   8.487   1.502   3.019  0.1042  0.7091  0.4959
  457MOL0     H63002   8.621   1.512   3.138 -0.7591  0.1110  3.3474
  457MOL0     H63003   8.745   1.353   3.032 -1.5972 -4.1326  1.2871
  457MOL0     H63004   8.604   1.271   2.953 -1.0957 -0.7068  2.4264
  457MOL0     H63005   8.585   1.425   2.789 -0.9529  2.1802  0.1779
  457MOL0     H63006   8.696   1.542   2.873  1.6187 -0.3619  1.1017
  457MOL0     H63007   8.759   1.268   2.774 -1.8266 -0.1782  0.7670
  457MOL0     H63008   8.885   1.381   2.846  0.4549 -1.5134 -0.6792
  457MOL0     H63009   8.748   1.423   2.575  1.0245  4.6846 -2.3930
  457MOL0     H63010   8.807   1.553   2.673 -1.5558  1.0243 -1.3459
  457MOL0     H63011   8.949   1.480   2.501 -1.3953  0.5017  0.5338
  457MOL0     H63012   8.985   1.321   2.591 -1.1741 -1.3851 -0.3408
  457MOL0     H63013   9.052   1.567   2.743 -0.6406 -0.1587 -0.8494
  457MOL0     H63014   9.114   1.404   2.753  2.9832 -1.0016 -1.2343
  457MOL0     H63015   9.175   1.726   2.582 -2.9823 -0.8316 -0.6142
  457MOL0     H63016   9.350   1.778   2.360  1.7411 -0.1333  0.8717
  457MOL0     H63017   9.475   1.656   2.333 -2.1223 -3.4218  0.0571
  457MOL0     H63018   9.600   1.810   2.417 -1.1320  1.5951 -0.8524
  457MOL0     H63019   9.495   1.897   2.509  0.0061  0.2962 -2.9202
  457MOL0     H63020   9.529   1.684   2.681 -1.4726 -1.1246 -1.6702
  457MOL0     H63021   9.637   1.616   2.569 -1.8731 -1.1556 -0.0480
  457MOL0     H63022   9.778   1.810   2.575  0.4430  1.7052 -0.0671
  457MOL0     H63023   9.673   1.907   2.691  1.1928  0.6270  0.8409
  457MOL0     H63024   9.877   1.994   2.735 -0.3400  0.0106  0.4497
  457MOL0     H63025  10.030   2.141   2.719 -2.4103 -2.0449  1.0917
  457MOL0     H63026  10.193   2.068   2.745  0.5669 -3.2191  3.0823
  457MOL0     H63027  10.123   2.188   2.861 -1.4320  1.9801 -1.9589
  457MOL0     H63028  10.476   2.096   2.846  2.9157 -0.4890 -0.7522
  457MOL0     H63029  10.704   2.125   2.918 -1.2268 -1.2714 -1.5072
  457MOL0     H63030  10.849   2.358   3.277  0.6525  0.1121 -0.4696
  457MOL0     H63031  10.804   2.200   3.338  0.5205 -1.1169  1.1797
  457MOL0     H63032  11.025   2.116   3.225  1.5623 -0.0186 -0.1186
  457MOL0     H63033  11.065   2.294   3.210 -1.3626 -0.1361 -1.2931
  457MOL0     H63034  11.037   2.107   3.444  1.0899  0.4511 -0.3239
  457MOL0     H63035  11.008   2.281   3.482 -0.7414  0.5252 -0.7120
  457MOL0     H63036  11.230   2.321   3.402  0.4929 -1.0907 -1.6251
  457MOL0     H63037  11.263   2.148   3.373  0.0183 -1.0378  1.3247
  457MOL0     H63038  11.187   2.251   3.648  1.7537  1.8962  0.4871
  457MOL0     H63039  11.233   2.095   3.611 -2.9153 -1.3419 -1.9709
  457MOL0     H63040  11.396   2.342   3.576 -1.8525  0.1541 -1.8538
  457MOL0     H63041  11.453   2.188   3.517 -2.4888 -2.3321 -0.3973
  457MOL0     H63042  11.426   2.093   3.749 -1.9687  0.4551  1.6091
  457MOL0     H63043  11.367   2.241   3.805  1.6888  1.3163  1.1361
  457MOL0     H63044  11.600   2.347   3.759  1.2290 -0.2236 -0.0940
  457MOL0     H63045  11.646   2.172   3.713 -2.7465 -2.0726  0.4530
  457MOL0     H63046  10.597   2.255   3.310 -0.8768  0.0851  0.2727
  457MOL0     H63047  10.342   2.192   3.253 -1.4846  3.0558 -0.8207
  457MOL0     H63048  10.100   1.724   3.076  0.7394 -0.2756 -0.4626
  457MOL0     H63049   9.896   1.641   2.962 -1.5824  0.7294  1.7519
  457MOL0     H63050   8.425   1.154   3.380 -2.1058 -1.9580  1.8883
  457MOL0     H63051   8.230   1.046   3.470 -1.6593  0.2083 -1.0565
  457MOL0     H63052   7.772   1.190   3.673 -0.0586 -0.0010 -1.9654
  457MOL0     H63053   7.610   1.111   3.811 -1.3998 -0.7641 -1.2611
  457MOL0     H63054   7.401   0.749   3.886  0.3441 -0.1290 -0.2884
  457MOL0     H63055   7.530   0.691   3.790 -0.3566 -1.3542  0.0938
  457MOL0     H63056   7.641   0.619   4.030 -0.7399 -0.3548  0.4037
  457MOL0     H63057   7.476   0.550   4.014  0.1876  0.0714 -3.1798
  457MOL0     H63058   7.559   0.820   4.129  2.6100 -0.8271  0.7387
  457MOL0     H63059   7.394   0.760   4.134 -0.1787 -1.1187  0.2917
  457MOL0     H63060   7.526   0.750   4.343 -2.9654  1.4252 -2.6442
  457MOL0     H63061   7.657   0.645   4.270  0.4443  0.2300 -0.1204
  457MOL0     H63062   7.359   0.374   4.415  0.8819 -0.3934  0.5743
  457MOL0     H63063   7.749   0.712   3.774  0.3813  0.0156  1.0198
  457MOL0     H63064   8.005   0.717   3.689 -0.0121  2.3209  1.0680
  457MOL0     H63065   7.892   0.686   3.546 -0.6326  0.2990  0.2657
  457MOL0     H63066   8.027   0.796   3.527  0.0489  2.4972 -0.1375
  458MOL0     O63067   0.597   1.189   6.334  0.5745 -0.1464  0.6699
  458MOL0     C63068   0.534   1.167   6.227 -0.4510 -0.1064 -0.6379
  458MOL0     O63069   0.587   1.137   6.107 -0.1176  0.2665 -0.6107
  458MOL0     C63070   0.721   1.136   6.074 -0.0700  0.0800 -0.3530
  458MOL0     C63071   0.751   1.099   5.947 -0.3078  0.5118 -0.2373
  458MOL0     C63072   0.881   1.108   5.904 -0.5333  0.2045 -0.9025
  458MOL0     C63073   0.992   1.140   5.984 -0.2106 -0.4845 -1.2468
  458MOL0     O63074   1.123   1.138   5.937  0.3410  0.3887 -0.6891
  458MOL0     C63075   1.224   1.200   6.008  0.2521 -0.1693 -1.1818
  458MOL0     C63076   1.327   1.243   5.903  0.8975  0.6995 -0.6196
  458MOL0     C63077   1.282   1.360   5.818 -0.2646  0.8652  0.3498
  458MOL0     C63078   1.386   1.408   5.726  0.1399 -0.3245  0.5126
  458MOL0     C63079   1.348   1.553   5.683 -0.0459 -0.9121 -0.2834
  458MOL0     C63080   1.462   1.622   5.611  0.8191  0.6097 -0.6540
  458MOL0     C63081   1.432   1.776   5.605  0.0971  0.4155 -1.5294
  458MOL0     C63082   1.551   1.853   5.552 -0.3093 -0.4127  0.2733
  458MOL0     N63083   1.677   1.821   5.629 -0.5969  0.5046  0.5240
  458MOL0     C63084   1.716   1.885   5.747 -0.1342  0.2618  0.8222
  458MOL0     C63085   1.838   1.851   5.763  0.4476 -0.2058  0.4996
  458MOL0     C63086   1.919   1.886   5.886  0.7532 -0.5035 -0.6663
  458MOL0     C63087   1.927   1.765   5.978  0.1621  0.4769 -0.3142
  458MOL0     C63088   2.022   1.797   6.089 -0.3751 -0.2313 -0.4348
  458MOL0     C63089   2.041   1.682   6.183  0.0545  0.3621 -0.4057
  458MOL0     O63090   2.136   1.590   6.123  0.2419 -0.0821  0.0088
  458MOL0     C63091   2.275   1.594   6.150 -0.5454  0.0712 -0.4680
  458MOL0     C63092   2.363   1.538   6.054 -0.3142  0.0778 -0.1726
  458MOL0     C63093   2.499   1.515   6.083  0.4537 -0.8211  0.0747
  458MOL0     C63094   2.569   1.421   5.983  0.5149 -0.2527 -0.0035
  458MOL0     C63095   2.560   1.559   6.209  0.0089  1.0280  0.6088
  458MOL0     C63096   2.701   1.539   6.243 -0.9167  0.3900 -0.1787
  458MOL0     O63097   2.746   1.587   6.364 -0.5339 -1.2305 -0.1877
  458MOL0     C63098   2.868   1.538   6.400 -0.2946 -0.4973  0.2134
  458MOL0     C63099   2.977   1.621   6.381  0.3302  0.2219 -0.4416
  458MOL0     C63100   3.109   1.573   6.403 -0.2966  0.5272  0.5326
  458MOL0     C63101   3.126   1.434   6.438  0.6669  0.2217  0.1157
  458MOL0     O63102   3.255   1.389   6.428 -0.4073 -0.0486 -0.3246
  458MOL0     C63103   3.286   1.256   6.383 -0.2152  0.1115  0.9332
  458MOL0     C63104   3.442   1.245   6.382  0.7546  0.6294  0.5328
  458MOL0     C63105   3.488   1.099   6.362 -0.1071  0.4776  0.5022
  458MOL0     C63106   3.632   1.099   6.380 -0.0650  0.1889 -1.1437
  458MOL0     C63107   3.697   0.977   6.313 -0.4615 -0.1356 -0.1209
  458MOL0     C63108   3.847   0.997   6.277 -0.5417 -1.1299  0.4299
  458MOL0     C63109   3.923   0.870   6.232 -0.3541  0.1019  0.1005
  458MOL0     C63110   4.071   0.857   6.267 -0.1767  0.1003  0.7369
  458MOL0    Cl63111   4.087   0.855   6.443 -0.1706 -0.0338 -0.1145
  458MOL0     C63112   3.009   1.355   6.457 -0.4247 -0.5890  0.6701
  458MOL0     C63113   2.884   1.405   6.434  0.1342 -0.2747  1.4604
  458MOL0     O63114   2.776   1.473   6.169  0.7321 -0.1610  0.7608
  458MOL0     C63115   2.474   1.635   6.297  0.5846 -0.6945  0.5360
  458MOL0     C63116   2.338   1.650   6.262 -0.3523 -0.1930  0.1108
  458MOL0     N63117   1.878   1.778   5.650  0.6266 -0.8999 -0.2848
  458MOL0     N63118   1.780   1.758   5.574  0.8069  0.6351  0.5824
  458MOL0     C63119   0.965   1.177   6.119 -0.0987  0.7353  0.2966
  458MOL0     C63120   0.827   1.184   6.159  0.1501 -0.3689 -0.1617
  458MOL0     C63121   0.392   1.155   6.225  0.5631  0.2649  1.0397
  458MOL0     C63122   0.316   1.225   6.133 -0.8235  0.1761 -0.7401
  458MOL0     C63123   0.178   1.199   6.114  0.2693  0.1003 -0.8453
  458MOL0     C63124   0.120   1.104   6.192 -0.3959 -0.6726  0.3387
  458MOL0     O63125  -0.011   1.071   6.152  0.0768 -0.0438 -0.1662
  458MOL0     C63126  -0.089   1.013   6.250  0.5698  0.6616  0.1297
  458MOL0     C63127  -0.239   1.033   6.221  1.0621 -0.2022  0.4167
  458MOL0     C63128  -0.267   1.178   6.219 -1.0052 -0.8459 -0.0006
  458MOL0     C63129  -0.418   1.208   6.206 -0.0599  0.4041 -0.0677
  458MOL0     C63130  -0.463   1.349   6.209 -0.0591  0.7666  0.0738
  458MOL0     C63131  -0.514   1.458   6.222 -0.0345 -0.4947  0.9669
  458MOL0     C63132   0.189   1.044   6.292 -0.2809 -0.0681  0.4905
  458MOL0     C63133   0.323   1.062   6.302  0.3711 -0.0683  0.2784
  458MOL0     C63134   0.393   0.974   6.406 -0.2909  0.5899 -0.3458
  458MOL0     H63135   0.671   1.060   5.885 -0.2710  0.6536 -0.3746
  458MOL0     H63136   0.888   1.061   5.806 -1.1080 -2.3204  0.1865
  458MOL0     H63137   1.271   1.134   6.082 -1.3321  1.9531  1.9443
  458MOL0     H63138   1.190   1.289   6.062  0.0684  0.6531 -2.6142
  458MOL0     H63139   1.415   1.270   5.961  1.1727 -1.6880  0.2034
  458MOL0     H63140   1.344   1.154   5.841  0.5470 -0.4592  0.8786
  458MOL0     H63141   1.193   1.340   5.757  0.3305  1.5500 -0.7812
  458MOL0     H63142   1.249   1.438   5.887 -0.8497  1.7335 -0.8618
  458MOL0     H63143   1.484   1.413   5.774 -0.0694  0.1789  0.8858
  458MOL0     H63144   1.383   1.337   5.642 -0.6188 -0.1394  0.3779
  458MOL0     H63145   1.334   1.610   5.775 -0.0536 -0.1892 -0.7250
  458MOL0     H63146   1.253   1.547   5.630 -1.1989  0.0403  1.5906
  458MOL0     H63147   1.558   1.589   5.653  0.0153 -1.0810 -0.0868
  458MOL0     H63148   1.463   1.579   5.510 -1.8054 -0.3720 -0.3377
  458MOL0     H63149   1.412   1.814   5.705 -1.9640  1.5199 -2.3051
  458MOL0     H63150   1.342   1.792   5.546 -2.5959 -0.5445  1.9825
  458MOL0     H63151   1.578   1.827   5.449 -0.5635 -1.3763  0.4376
  458MOL0     H63152   1.531   1.961   5.547 -1.7383 -0.6986 -1.0878
  458MOL0     H63153   1.654   1.939   5.817  1.0839 -1.2558  3.1775
  458MOL0     H63154   1.875   1.976   5.929  0.4048 -0.7516 -0.5079
  458MOL0     H63155   2.022   1.914   5.862  0.8900  1.5020  1.8612
  458MOL0     H63156   1.833   1.744   6.031 -0.0540  1.5210 -0.2470
  458MOL0     H63157   1.963   1.677   5.926 -0.3911  2.0421 -3.5885
  458MOL0     H63158   2.122   1.831   6.060  0.5139 -1.9648  0.4610
  458MOL0     H63159   1.974   1.880   6.142  0.0615 -0.8478  0.9728
  458MOL0     H63160   2.074   1.713   6.283  0.9487 -0.5931 -0.4012
  458MOL0     H63161   1.957   1.613   6.195  1.1800 -1.6360 -3.1987
  458MOL0     H63162   2.328   1.507   5.956 -1.0845 -3.5552  1.0759
  458MOL0     H63163   2.667   1.453   5.947  0.7251 -1.5090 -0.6008
  458MOL0     H63164   2.511   1.407   5.892  2.0208 -0.5449 -0.9578
  458MOL0     H63165   2.592   1.323   6.025 -0.0403 -0.0866  0.7033
  458MOL0     H63166   2.971   1.726   6.354 -1.6006  0.8578  2.1099
  458MOL0     H63167   3.201   1.628   6.387 -0.0813 -0.0194 -0.1790
  458MOL0     H63168   3.235   1.182   6.445 -0.3100  0.2525  1.0254
  458MOL0     H63169   3.246   1.240   6.283  0.0605  3.5348  0.1765
  458MOL0     H63170   3.473   1.318   6.307 -0.4878  1.5987  0.9234
  458MOL0     H63171   3.491   1.290   6.469  5.5785  0.7162 -1.8588
  458MOL0     H63172   3.462   1.071   6.260  1.3212  0.7249  0.0552
  458MOL0     H63173   3.439   1.031   6.434  0.2931 -0.4207 -0.0558
  458MOL0     H63174   3.644   1.113   6.488 -3.7356  0.2366 -0.5996
  458MOL0     H63175   3.677   1.187   6.334  0.8942 -0.3958 -1.3606
  458MOL0     H63176   3.684   0.887   6.374 -0.4933 -0.2875 -0.3494
  458MOL0     H63177   3.651   0.965   6.215 -0.5867  0.9065 -0.2010
  458MOL0     H63178   3.889   1.029   6.373  0.7212 -1.3448 -0.0288
  458MOL0     H63179   3.864   1.079   6.206  2.5678 -0.2899  1.9609
  458MOL0     H63180   3.928   0.863   6.123  0.9759 -0.5549  0.1907
  458MOL0     H63181   3.871   0.780   6.267  1.6362 -0.6212  1.3806
  458MOL0     H63182   4.127   0.945   6.234 -0.4116  0.5798  1.5783
  458MOL0     H63183   4.111   0.772   6.212 -0.4009  1.3969 -1.6200
  458MOL0     H63184   3.020   1.251   6.484  0.2953 -0.6917  0.0073
  458MOL0     H63185   2.800   1.338   6.446  0.8654 -1.5096  0.0538
  458MOL0     H63186   2.504   1.679   6.392 -3.1247 -0.1720  1.6440
  458MOL0     H63187   2.280   1.687   6.346  3.3886 -1.4849  3.6061
  458MOL0     H63188   1.036   1.197   6.199 -0.4128  3.6094 -0.0388
  458MOL0     H63189   0.808   1.217   6.261  2.4870 -0.3526  0.3231
  458MOL0     H63190   0.363   1.295   6.064 -0.0069  1.1454  0.7355
  458MOL0     H63191   0.120   1.245   6.034  0.0941 -1.3414 -1.5777
  458MOL0     H63192  -0.077   0.904   6.250  0.3500  0.6380 -0.5852
  458MOL0     H63193  -0.075   1.059   6.348  0.1491 -0.2838  0.6533
  458MOL0     H63194  -0.307   0.980   6.288 -1.8442  0.8875 -1.4563
  458MOL0     H63195  -0.274   0.998   6.123  1.5132 -1.1722  0.5877
  458MOL0     H63196  -0.226   1.224   6.310 -0.1438 -0.9625 -0.3139
  458MOL0     H63197  -0.207   1.217   6.136 -1.3330 -0.3848 -0.0254
  458MOL0     H63198  -0.466   1.156   6.289  2.6342 -0.7513  0.8740
  458MOL0     H63199  -0.457   1.171   6.110  1.2570 -2.4008  0.3625
  458MOL0     H63200  -0.562   1.552   6.240  0.3160  0.2277 -1.4882
  458MOL0     H63201   0.143   0.972   6.359 -0.2025  1.1849  1.9430
  458MOL0     H63202   0.470   1.026   6.464 -0.5340  0.7780 -0.1939
  458MOL0     H63203   0.328   0.927   6.480  0.3297 -1.3422 -0.9587
  458MOL0     H63204   0.444   0.900   6.343  0.7472 -0.5916  1.7427
  459MOL0     O63205   5.206   7.664   2.885 -0.6566  1.0381 -0.7343
  459MOL0     C63206   5.184   7.558   2.825  0.0235 -0.2727 -0.0461
  459MOL0     O63207   5.277   7.459   2.805 -1.3810  0.0252 -0.3694
  459MOL0     C63208   5.406   7.477   2.850  0.3226  0.0819 -0.6564
  459MOL0     C63209   5.484   7.584   2.806 -0.3753  0.7129 -0.5085
  459MOL0     C63210   5.617   7.595   2.854 -0.0553  0.4237  0.0780
  459MOL0     C63211   5.673   7.509   2.951  0.4467  0.2545  0.9250
  459MOL0     O63212   5.804   7.525   2.987 -0.0275  0.1006 -0.3282
  459MOL0     C63213   5.817   7.536   3.129  0.0161 -0.5065  0.4575
  459MOL0     C63214   5.936   7.618   3.162  0.6571  0.2724 -0.1395
  459MOL0     C63215   5.985   7.582   3.304  0.5746 -0.6942  0.5008
  459MOL0     C63216   6.089   7.676   3.348 -0.0089 -0.6306 -0.0193
  459MOL0     C63217   6.167   7.600   3.461 -0.1115 -0.0018  0.3484
  459MOL0     C63218   6.262   7.691   3.525  0.4608 -0.4374 -0.5849
  459MOL0     C63219   6.324   7.626   3.649  0.1841 -0.1512 -0.3598
  459MOL0     C63220   6.413   7.741   3.708 -0.6097 -0.6637 -0.1315
  459MOL0     N63221   6.495   7.682   3.808 -1.2366  0.3688  0.2726
  459MOL0     C63222   6.617   7.625   3.790  1.0673 -0.3549 -0.1487
  459MOL0     C63223   6.653   7.573   3.908  0.0564  0.5720 -0.0096
  459MOL0     C63224   6.785   7.511   3.954 -0.0246 -0.0845  0.4650
  459MOL0     C63225   6.866   7.611   4.034  1.1792  0.0017 -0.7293
  459MOL0     C63226   6.984   7.551   4.108  0.1488 -0.0569  0.6396
  459MOL0     C63227   7.057   7.676   4.175 -0.4919 -0.4679 -0.7796
  459MOL0     O63228   7.123   7.758   4.070  0.3142  0.0876  0.6303
  459MOL0     C63229   7.238   7.826   4.094 -0.7511 -1.8271  0.4417
  459MOL0     C63230   7.352   7.811   4.015 -0.4299  0.8372 -0.1262
  459MOL0     C63231   7.472   7.878   4.031  0.3863  0.1158 -0.1940
  459MOL0     C63232   7.592   7.857   3.933  0.5298  0.3722 -0.1662
  459MOL0     C63233   7.481   7.965   4.142 -0.0589 -0.7090  0.0524
  459MOL0     C63234   7.602   8.037   4.178  0.5186  0.3921  0.8114
  459MOL0     O63235   7.577   8.166   4.227  0.7131 -0.6847 -0.5461
  459MOL0     C63236   7.692   8.231   4.276  0.2773 -0.9092  1.4016
  459MOL0     C63237   7.684   8.281   4.404 -0.2115 -0.0806  0.1071
  459MOL0     C63238   7.796   8.340   4.460  0.6824  0.3313 -0.9267
  459MOL0     C63239   7.915   8.365   4.389 -0.6241  1.5038 -1.5411
  459MOL0     O63240   8.025   8.426   4.440 -0.2948 -0.1651  0.0767
  459MOL0     C63241   8.035   8.433   4.585 -0.4464  0.7552 -0.0447
  459MOL0     C63242   8.160   8.512   4.626 -0.2115 -0.5317 -0.6862
  459MOL0     C63243   8.293   8.439   4.621  0.1244  0.1140  0.1919
  459MOL0     C63244   8.410   8.543   4.633  0.2397 -0.3355  0.6312
  459MOL0     C63245   8.537   8.505   4.715 -0.8839 -0.5754 -0.3340
  459MOL0     C63246   8.626   8.623   4.725  0.9748 -0.5328  0.1103
  459MOL0     C63247   8.753   8.596   4.794  0.0725 -0.6823  0.3015
  459MOL0     C63248   8.855   8.509   4.720 -0.2427  0.4535 -0.6535
  459MOL0    Cl63249   9.014   8.517   4.804  0.6205 -0.2811  0.4265
  459MOL0     C63250   7.917   8.318   4.261  0.0085 -0.5413  0.9170
  459MOL0     C63251   7.809   8.262   4.199  1.0035 -0.0845 -0.3654
  459MOL0     O63252   7.709   7.986   4.180 -0.6753 -0.0886 -0.5155
  459MOL0     C63253   7.362   7.996   4.216  0.5152 -0.0393 -0.7702
  459MOL0     C63254   7.241   7.928   4.188 -0.2329 -0.2526 -0.2954
  459MOL0     N63255   6.541   7.594   3.995 -0.5210 -0.6363  0.1617
  459MOL0     N63256   6.454   7.675   3.935 -1.2825  0.1320 -0.8916
  459MOL0     C63257   5.588   7.405   2.995 -0.8071 -0.0077 -0.0208
  459MOL0     C63258   5.451   7.392   2.953 -0.2176  0.3029  0.0522
  459MOL0     C63259   5.042   7.533   2.780  0.0537  0.4459  0.2108
  459MOL0     C63260   5.023   7.422   2.682  0.4580 -0.2039 -0.7888
  459MOL0     C63261   4.900   7.404   2.628  0.0706 -0.1062 -0.1227
  459MOL0     C63262   4.794   7.487   2.661 -0.0310  0.2034  0.3903
  459MOL0     O63263   4.673   7.459   2.602 -0.2922  0.2506 -0.6050
  459MOL0     C63264   4.572   7.558   2.596  0.3547 -0.5703 -0.3635
  459MOL0     C63265   4.451   7.513   2.688  0.2519  0.6231 -0.1944
  459MOL0     C63266   4.337   7.609   2.668 -0.5243 -0.4465 -0.2430
  459MOL0     C63267   4.231   7.557   2.573  0.0228 -0.5336 -0.0715
  459MOL0     C63268   4.151   7.662   2.529  0.1438 -0.2405  0.0943
  459MOL0     C63269   4.080   7.750   2.482  0.1040 -0.6103 -0.5848
  459MOL0     C63270   4.815   7.592   2.754  0.1507  0.5755  0.6087
  459MOL0     C63271   4.930   7.610   2.821  0.1589  0.6447 -0.4539
  459MOL0     C63272   4.930   7.718   2.939 -0.1823 -0.0620 -0.2417
  459MOL0     H63273   5.438   7.650   2.733 -4.4603 -2.5207 -1.2543
  459MOL0     H63274   5.677   7.679   2.821  0.1941  0.4823  0.6783
  459MOL0     H63275   5.822   7.435   3.173  0.7789  0.0646  1.7567
  459MOL0     H63276   5.733   7.584   3.179  0.6679  0.3052  0.7876
  459MOL0     H63277   6.012   7.593   3.087 -1.6393 -1.3218 -2.0607
  459MOL0     H63278   5.913   7.725   3.156 -1.3118 -0.0667  0.6770
  459MOL0     H63279   5.897   7.574   3.367  1.4652 -0.0694  1.8558
  459MOL0     H63280   6.019   7.477   3.300 -1.3181 -1.3072 -1.1071
  459MOL0     H63281   6.142   7.701   3.256 -0.9314  1.0494 -0.1362
  459MOL0     H63282   6.042   7.766   3.389  0.7792  0.5442 -1.6017
  459MOL0     H63283   6.223   7.514   3.423 -1.8568 -0.4637 -1.3174
  459MOL0     H63284   6.097   7.565   3.537 -0.9718 -0.7172 -0.7414
  459MOL0     H63285   6.338   7.726   3.454  3.8313 -2.4470  1.7687
  459MOL0     H63286   6.197   7.773   3.556 -0.6449 -1.7714  0.7127
  459MOL0     H63287   6.382   7.538   3.620 -0.6458 -0.3175 -1.5957
  459MOL0     H63288   6.248   7.592   3.720  1.7273  0.4338  1.6522
  459MOL0     H63289   6.473   7.777   3.624 -0.4587 -1.1794 -0.2461
  459MOL0     H63290   6.364   7.832   3.744 -0.5976 -0.0811 -1.5127
  459MOL0     H63291   6.685   7.633   3.706  1.6738 -2.0416  0.1409
  459MOL0     H63292   6.842   7.476   3.868  0.5156  2.5709 -0.3475
  459MOL0     H63293   6.763   7.424   4.017  3.8959 -0.8361  1.0215
  459MOL0     H63294   6.899   7.690   3.966  0.8974 -0.3953 -1.3410
  459MOL0     H63295   6.808   7.657   4.114  3.1979  1.0900  0.1692
  459MOL0     H63296   6.953   7.479   4.184  0.1663  0.5439  1.2266
  459MOL0     H63297   7.054   7.500   4.041  2.4724  3.5009  0.0823
  459MOL0     H63298   6.994   7.740   4.236  1.1291  0.8664 -0.4144
  459MOL0     H63299   7.145   7.648   4.235  0.8049  3.5445 -0.4758
  459MOL0     H63300   7.341   7.742   3.932  2.0609 -1.9120  1.6473
  459MOL0     H63301   7.677   7.799   3.971  1.0822  1.0138 -0.4059
  459MOL0     H63302   7.641   7.949   3.900  4.9066 -2.2150 -1.5787
  459MOL0     H63303   7.557   7.811   3.840  0.8553 -0.9890  0.3605
  459MOL0     H63304   7.583   8.267   4.441 -0.4778  0.8690 -0.2505
  459MOL0     H63305   7.777   8.369   4.563 -0.2297 -2.7247 -0.1403
  459MOL0     H63306   7.956   8.501   4.617 -1.2884 -0.3163  0.2119
  459MOL0     H63307   8.039   8.339   4.641 -1.2094  3.2927  4.7901
  459MOL0     H63308   8.163   8.606   4.571 -0.2161 -0.4901 -0.6152
  459MOL0     H63309   8.133   8.551   4.725  1.3405  0.0431 -0.4562
  459MOL0     H63310   8.305   8.383   4.527  1.4491  0.4121  0.1540
  459MOL0     H63311   8.298   8.369   4.705 -1.0409 -1.2893 -0.8453
  459MOL0     H63312   8.373   8.631   4.687  1.8778  0.2071  0.9473
  459MOL0     H63313   8.440   8.580   4.535  1.5306 -1.7058  0.4745
  459MOL0     H63314   8.511   8.486   4.819  2.5077  0.1364  0.7661
  459MOL0     H63315   8.586   8.419   4.667  0.6476 -0.2238  0.5240
  459MOL0     H63316   8.573   8.711   4.765 -1.4411 -2.6885  2.0046
  459MOL0     H63317   8.643   8.646   4.619  0.9859 -0.7211  0.0704
  459MOL0     H63318   8.732   8.561   4.895 -1.0879 -1.5070 -0.1986
  459MOL0     H63319   8.807   8.691   4.798  0.1844 -0.6077 -1.8961
  459MOL0     H63320   8.863   8.517   4.611 -0.2481 -1.6477 -0.8583
  459MOL0     H63321   8.822   8.405   4.728  0.5784  0.3134  1.9169
  459MOL0     H63322   8.007   8.336   4.203  1.2437  3.3817  3.6353
  459MOL0     H63323   7.797   8.233   4.095 -0.0882 -2.3036  0.2954
  459MOL0     H63324   7.366   8.071   4.294 -1.0729 -1.0022  0.2940
  459MOL0     H63325   7.149   7.952   4.241  0.7069  0.8923  0.8714
  459MOL0     H63326   5.634   7.341   3.069  1.1636 -0.6633 -1.7007
  459MOL0     H63327   5.389   7.316   2.998  1.5913 -0.9518  0.5401
  459MOL0     H63328   5.117   7.380   2.648  1.3302  0.7045  0.4108
  459MOL0     H63329   4.861   7.336   2.552 -0.5158  0.6914 -0.5491
  459MOL0     H63330   4.614   7.658   2.613 -0.9395 -0.1182  0.3007
  459MOL0     H63331   4.535   7.569   2.494  0.5288 -3.1592 -0.7779
  459MOL0     H63332   4.486   7.514   2.792 -2.9115 -1.2776  1.0334
  459MOL0     H63333   4.427   7.409   2.664 -1.4844  1.0157 -0.2468
  459MOL0     H63334   4.301   7.632   2.769  0.1211  0.6544 -0.2389
  459MOL0     H63335   4.372   7.705   2.628  0.8799 -0.5495  0.6745
  459MOL0     H63336   4.178   7.472   2.618 -0.2142 -0.7711 -0.7778
  459MOL0     H63337   4.280   7.505   2.490 -1.0713 -0.7134 -0.6276
  459MOL0     H63338   4.029   7.835   2.441 -0.2817 -0.6764 -0.2458
  459MOL0     H63339   4.733   7.661   2.774  0.5202  2.1795 -2.7918
  459MOL0     H63340   4.837   7.727   2.996 -0.9147 -2.6119 -0.9048
  459MOL0     H63341   4.994   7.686   3.022  1.4801  3.4095 -0.0396
  459MOL0     H63342   4.967   7.814   2.903  0.7721 -0.0494  0.7066
  460MOL0     O63343   4.444  10.179   6.715 -1.0337 -0.0170 -0.0071
  460MOL0     C63344   4.436  10.172   6.840 -0.2657 -0.4786  1.5259
  460MOL0     O63345   4.542  10.192   6.925 -0.3548  0.7651  0.1629
  460MOL0     C63346   4.672  10.184   6.879 -0.2942  1.0794  0.0337
  460MOL0     C63347   4.770  10.279   6.909  0.5802 -0.2888  0.1373
  460MOL0     C63348   4.900  10.254   6.866 -0.3659 -0.4883 -0.1843
  460MOL0     C63349   4.939  10.129   6.802  0.7475 -0.1198  0.1891
  460MOL0     O63350   5.064  10.120   6.749 -0.2175  0.7864 -0.6612
  460MOL0     C63351   5.089  10.040   6.635  0.4943  0.2314 -0.2548
  460MOL0     C63352   5.169  10.109   6.521 -0.1872 -0.0281  0.3426
  460MOL0     C63353   5.324  10.091   6.546 -0.4481  0.8710  0.7861
  460MOL0     C63354   5.414  10.144   6.431 -0.1714 -0.3904 -0.3179
  460MOL0     C63355   5.556  10.087   6.430  0.0455  0.4949  0.3435
  460MOL0     C63356   5.661  10.166   6.349  1.1918 -0.8714  0.5943
  460MOL0     C63357   5.801  10.124   6.389  0.0183 -0.1598  0.0499
  460MOL0     C63358   5.870  10.222   6.481 -0.1916 -0.4216  0.0604
  460MOL0     N63359   6.008  10.183   6.493  0.4523 -0.2138 -1.0034
  460MOL0     C63360   6.105  10.214   6.400  0.1176  0.5237 -0.5789
  460MOL0     C63361   6.219  10.155   6.447  0.0252  0.8633 -0.1790
  460MOL0     C63362   6.347  10.163   6.375  0.2515 -0.1462 -0.2089
  460MOL0     C63363   6.353  10.041   6.275 -0.4012 -0.1987 -0.4548
  460MOL0     C63364   6.477  10.068   6.189  0.0580  0.3588  0.0309
  460MOL0     C63365   6.540   9.944   6.124 -0.0544  0.9837  1.0474
  460MOL0     O63366   6.640  10.001   6.028 -0.4013  0.0850 -0.4493
  460MOL0     C63367   6.783   9.998   6.057  0.6701  0.5308  0.0343
  460MOL0     C63368   6.835   9.994   6.181 -0.0611 -0.9268  0.1805
  460MOL0     C63369   6.981  10.004   6.195 -0.8598  0.4999 -0.1852
  460MOL0     C63370   7.048   9.996   6.335  0.1216 -0.1730 -0.2491
  460MOL0     C63371   7.064  10.011   6.078  0.1441 -0.5137 -0.7195
  460MOL0     C63372   7.222  10.004   6.077 -0.0100  0.1902 -0.3009
  460MOL0     O63373   7.287   9.940   6.181 -0.0428 -0.1543 -0.1784
  460MOL0     C63374   7.423   9.929   6.179 -0.0232 -0.3086 -0.2739
  460MOL0     C63375   7.501  10.037   6.210 -0.0467  0.4530  0.0385
  460MOL0     C63376   7.637  10.026   6.238  0.0140 -0.3373 -0.1195
  460MOL0     C63377   7.697   9.897   6.236 -0.0881  0.4101 -0.0739
  460MOL0     O63378   7.828   9.882   6.268  0.1136 -0.2139  0.6830
  460MOL0     C63379   7.895   9.760   6.227 -0.2299  0.2027 -0.1082
  460MOL0     C63380   8.039   9.754   6.272 -0.6599  1.0042  0.7402
  460MOL0     C63381   8.129   9.673   6.172 -0.9804  0.0238 -0.1408
  460MOL0     C63382   8.262   9.630   6.232  0.3128 -0.9669  0.3148
  460MOL0     C63383   8.350   9.571   6.117 -0.1067  1.0733  0.1678
  460MOL0     C63384   8.487   9.514   6.163 -0.0937 -0.5749 -0.5854
  460MOL0     C63385   8.564   9.439   6.045 -0.0125 -0.0035 -0.4159
  460MOL0     C63386   8.712   9.433   6.079 -0.0597 -0.2206  0.4349
  460MOL0    Cl63387   8.736   9.353   6.242 -0.3236 -0.2794  0.0829
  460MOL0     C63388   7.623   9.783   6.189  0.4563 -0.1680 -0.3232
  460MOL0     C63389   7.485   9.805   6.162  0.3276 -0.3930 -0.2182
  460MOL0     O63390   7.277  10.033   5.974  0.7681  0.0997  0.2874
  460MOL0     C63391   6.991  10.002   5.952 -0.8189 -0.5271  0.1876
  460MOL0     C63392   6.856   9.991   5.944  0.0742  0.1417  0.0529
  460MOL0     N63393   6.182  10.081   6.563 -0.6378 -0.1193 -0.2301
  460MOL0     N63394   6.058  10.103   6.596  0.6045 -0.4165  0.4700
  460MOL0     C63395   4.831  10.050   6.765  0.4231 -1.0823 -0.6653
  460MOL0     C63396   4.704  10.073   6.805 -0.3878  1.0455  0.1603
  460MOL0     C63397   4.298  10.154   6.892 -0.5889 -0.4242  0.5524
  460MOL0     C63398   4.208  10.074   6.817 -0.2554 -0.2888  0.7682
  460MOL0     C63399   4.081  10.046   6.867 -0.1266  0.1500  0.0781
  460MOL0     C63400   4.052  10.076   7.003 -0.7716 -0.4365  0.6477
  460MOL0     O63401   3.935  10.058   7.060  0.6746  0.8432 -0.4759
  460MOL0     C63402   3.822   9.999   6.996 -0.3280 -0.2218 -0.5081
  460MOL0     C63403   3.753  10.079   6.885  0.1081 -0.4244  0.3954
  460MOL0     C63404   3.652  10.173   6.925 -0.7898 -0.2028 -0.3496
  460MOL0     C63405   3.701  10.282   7.018  0.1941  0.2942  0.7855
  460MOL0     C63406   3.588  10.363   7.064 -0.7892 -0.2350 -0.0250
  460MOL0     C63407   3.492  10.420   7.111 -0.2213  0.3885 -0.0103
  460MOL0     C63408   4.132  10.165   7.065  0.7019 -0.4550  0.9381
  460MOL0     C63409   4.257  10.210   7.017 -0.4035  0.5189  0.0981
  460MOL0     C63410   4.335  10.308   7.093  0.0420  0.5590 -0.7507
  460MOL0     H63411   4.745  10.367   6.967  3.2738  2.1375 -2.1027
  460MOL0     H63412   4.978  10.327   6.879 -0.3904 -0.8414  2.5304
  460MOL0     H63413   4.990  10.025   6.590  0.0375 -0.8375  1.0149
  460MOL0     H63414   5.133   9.943   6.659 -0.2029  0.4549  2.1600
  460MOL0     H63415   5.139  10.063   6.426 -0.7455  1.0661 -0.0276
  460MOL0     H63416   5.141  10.212   6.497  0.0795 -0.3919 -1.6951
  460MOL0     H63417   5.351  10.139   6.640  2.8206  2.1370 -0.6566
  460MOL0     H63418   5.348   9.985   6.559 -0.4593  0.5631 -1.2840
  460MOL0     H63419   5.369  10.113   6.337  0.6619 -1.8862 -0.2560
  460MOL0     H63420   5.423  10.253   6.439 -0.8514 -0.3611  0.2115
  460MOL0     H63421   5.548   9.982   6.400  0.1326  1.0312 -1.7259
  460MOL0     H63422   5.603  10.078   6.528  1.3114 -1.0304 -0.3516
  460MOL0     H63423   5.634  10.149   6.244  0.9109 -1.5200  0.7635
  460MOL0     H63424   5.648  10.274   6.357 -1.2148 -0.9672 -0.9633
  460MOL0     H63425   5.860  10.123   6.296 -0.5330  0.7241 -0.3230
  460MOL0     H63426   5.804  10.021   6.425  2.1051 -0.2887 -0.3427
  460MOL0     H63427   5.865  10.319   6.430 -3.8925 -0.6024 -0.1761
  460MOL0     H63428   5.833  10.231   6.584  2.4551  3.2122  0.9334
  460MOL0     H63429   6.088  10.272   6.310 -1.5481 -0.5585 -1.0078
  460MOL0     H63430   6.429  10.159   6.448  0.8030 -0.0993 -0.8145
  460MOL0     H63431   6.348  10.260   6.325 -1.1384 -1.7815 -3.7369
  460MOL0     H63432   6.353   9.949   6.333 -3.4956 -1.2934 -1.9620
  460MOL0     H63433   6.267  10.047   6.208  0.2621  2.3477 -1.1934
  460MOL0     H63434   6.464  10.143   6.111  1.7586  2.1899  1.3833
  460MOL0     H63435   6.555  10.104   6.257 -1.5233  0.4428  1.8760
  460MOL0     H63436   6.587   9.883   6.201 -2.1020 -0.2945  1.3563
  460MOL0     H63437   6.471   9.885   6.064  1.2652 -0.7569  1.1624
  460MOL0     H63438   6.765   9.997   6.264  1.0075  1.3267  1.0967
  460MOL0     H63439   7.124  10.071   6.356 -0.5249  0.6557 -0.7601
  460MOL0     H63440   7.092   9.896   6.331 -0.4803 -0.4117 -2.7188
  460MOL0     H63441   6.968   9.987   6.409 -0.8657 -2.3787 -1.4698
  460MOL0     H63442   7.464  10.138   6.230 -1.2265 -0.5337  3.6088
  460MOL0     H63443   7.702  10.110   6.258 -0.3915  0.7389 -2.9198
  460MOL0     H63444   7.856   9.673   6.281  0.6617  0.7969  1.5423
  460MOL0     H63445   7.893   9.742   6.119  1.6339 -1.7295  0.1004
  460MOL0     H63446   8.075   9.858   6.269 -1.7835  1.4217 -2.7331
  460MOL0     H63447   8.037   9.713   6.373 -3.3439 -0.8345  0.0521
  460MOL0     H63448   8.145   9.732   6.081 -1.9630  1.8173  0.7955
  460MOL0     H63449   8.078   9.581   6.140  0.4164 -2.3127  3.7243
  460MOL0     H63450   8.247   9.546   6.301 -0.1824 -0.9666  0.2067
  460MOL0     H63451   8.291   9.724   6.279 -0.9445 -1.1203  1.4651
  460MOL0     H63452   8.293   9.486   6.079 -2.2310  2.0689  0.9499
  460MOL0     H63453   8.364   9.649   6.042  1.7589  0.2557 -0.3737
  460MOL0     H63454   8.463   9.443   6.242  0.4870 -0.9915 -0.7708
  460MOL0     H63455   8.559   9.587   6.201 -1.4845  0.7821 -0.4557
  460MOL0     H63456   8.561   9.494   5.950  1.7924  0.6662 -0.1352
  460MOL0     H63457   8.509   9.345   6.031 -0.0154 -0.1020  0.2556
  460MOL0     H63458   8.758   9.532   6.078 -2.5855  1.0319 -1.2352
  460MOL0     H63459   8.753   9.378   5.994  0.1650  2.8310 -1.5923
  460MOL0     H63460   7.677   9.693   6.164  1.2939  0.8160 -2.2782
  460MOL0     H63461   7.434   9.718   6.122 -0.2937 -0.3165  0.3847
  460MOL0     H63462   7.060   9.992   5.869  1.1754 -1.5320  1.8855
  460MOL0     H63463   6.804   9.988   5.849 -2.7807  0.9636  1.4699
  460MOL0     H63464   4.850   9.950   6.726 -1.5360 -0.8832 -2.2640
  460MOL0     H63465   4.629   9.997   6.789 -1.6181  1.1409  4.3444
  460MOL0     H63466   4.241  10.045   6.718  2.2124  0.9384  1.1417
  460MOL0     H63467   4.006   9.992   6.809  1.2054 -0.1402 -1.4393
  460MOL0     H63468   3.861   9.913   6.941 -0.9912 -1.6677  1.1703
  460MOL0     H63469   3.750   9.951   7.063  1.0077 -0.6943  0.6204
  460MOL0     H63470   3.714  10.008   6.811 -2.6076 -1.6260  2.7567
  460MOL0     H63471   3.828  10.141   6.836 -0.5175 -0.6515 -0.8933
  460MOL0     H63472   3.608  10.226   6.840  0.8554  0.1716 -1.0004
  460MOL0     H63473   3.585  10.116   6.990  0.9927 -1.2553  0.6623
  460MOL0     H63474   3.778  10.337   6.963  0.3259 -0.4810  0.1623
  460MOL0     H63475   3.751  10.234   7.102  1.9799  0.4557 -0.1371
  460MOL0     H63476   3.405  10.471   7.147 -1.0823 -2.1775  1.9077
  460MOL0     H63477   4.083  10.204   7.154 -2.0663 -2.1048  0.2804
  460MOL0     H63478   4.384  10.372   7.020  2.0444 -3.3627 -3.2068
  460MOL0     H63479   4.284  10.376   7.161  5.1412  1.4587  2.7896
  460MOL0     H63480   4.411  10.258   7.154 -1.2217 -1.9505 -1.0795
  461MOL0     O63481   1.715   0.523   3.764 -0.2381  0.2649  0.3979
  461MOL0     C63482   1.609   0.559   3.811  0.0007  0.3558 -0.1013
  461MOL0     O63483   1.580   0.688   3.845 -0.5484  0.4125  1.5114
  461MOL0     C63484   1.669   0.788   3.856  0.2309 -0.1509 -0.6407
  461MOL0     C63485   1.794   0.798   3.798  0.1308  0.3224  0.3510
  461MOL0     C63486   1.865   0.916   3.829 -0.9261 -0.6900  0.0346
  461MOL0     C63487   1.837   1.009   3.932 -0.2738 -0.1421  0.7581
  461MOL0     O63488   1.904   1.126   3.956  0.4433 -0.1367  0.3184
  461MOL0     C63489   2.036   1.140   3.924 -0.3483 -0.1197  0.1302
  461MOL0     C63490   2.097   1.241   4.025  0.4856  0.0726 -0.3166
  461MOL0     C63491   2.220   1.323   3.978 -0.0846 -0.4091 -0.2601
  461MOL0     C63492   2.206   1.374   3.830  0.6547  0.8093 -0.3088
  461MOL0     C63493   2.323   1.471   3.784 -0.5715 -0.3722  0.2889
  461MOL0     C63494   2.320   1.613   3.850  0.3809  0.5245 -0.0238
  461MOL0     C63495   2.432   1.692   3.785  0.1894 -0.7064 -0.2842
  461MOL0     C63496   2.452   1.825   3.862 -0.8647  0.4577  0.0295
  461MOL0     N63497   2.582   1.879   3.828 -0.0766  0.3487 -0.2135
  461MOL0     C63498   2.657   1.942   3.919 -0.6642  0.2746 -0.6434
  461MOL0     C63499   2.768   1.992   3.851  0.0911 -0.1566  0.3021
  461MOL0     C63500   2.880   2.072   3.913 -0.3307 -0.3426  0.0176
  461MOL0     C63501   2.972   2.141   3.815 -0.3279  0.2755 -0.2004
  461MOL0     C63502   3.047   2.260   3.872 -0.2972 -0.7718  0.4990
  461MOL0     C63503   3.137   2.322   3.766  0.3014 -0.6629  0.8893
  461MOL0     O63504   3.201   2.228   3.684  0.4578  0.5940  0.2241
  461MOL0     C63505   3.288   2.298   3.610  0.0584 -0.3729  0.4157
  461MOL0     C63506   3.246   2.370   3.495 -0.5937  0.5255 -0.3854
  461MOL0     C63507   3.342   2.430   3.412 -0.2898 -0.4051 -0.0389
  461MOL0     C63508   3.294   2.470   3.270  0.6365 -0.2766 -0.0835
  461MOL0     C63509   3.475   2.423   3.450  0.0576  0.1124 -0.5978
  461MOL0     C63510   3.583   2.489   3.374 -0.0879 -0.0766 -0.4351
  461MOL0     O63511   3.696   2.427   3.350 -0.2244  0.7319  0.1822
  461MOL0     C63512   3.774   2.483   3.250  0.3738  0.5369 -0.5790
  461MOL0     C63513   3.902   2.524   3.282  0.6275 -0.0341 -0.1550
  461MOL0     C63514   3.980   2.579   3.181 -1.0079  0.0326  0.0742
  461MOL0     C63515   3.934   2.581   3.050 -0.7287 -0.7902  0.2375
  461MOL0     O63516   4.016   2.624   2.946  0.3324  0.5906  0.0242
  461MOL0     C63517   3.951   2.694   2.838  0.5549 -0.0978 -0.8944
  461MOL0     C63518   3.844   2.799   2.887 -0.6600  0.1607  0.7480
  461MOL0     C63519   3.806   2.903   2.769  0.2496 -0.0194  0.0062
  461MOL0     C63520   3.672   2.978   2.790 -0.5505  0.0251 -0.8610
  461MOL0     C63521   3.696   3.116   2.849  0.8054  0.1794 -0.5196
  461MOL0     C63522   3.564   3.197   2.876  0.1343 -0.4867 -0.1432
  461MOL0     C63523   3.581   3.305   2.991  0.2978 -0.0174 -0.7783
  461MOL0     C63524   3.454   3.386   3.032 -0.2027 -0.0780  0.7213
  461MOL0    Cl63525   3.479   3.504   3.165 -0.2750  0.0430  0.1006
  461MOL0     C63526   3.803   2.541   3.026 -0.2152  1.1222 -0.6276
  461MOL0     C63527   3.723   2.492   3.120 -0.0234 -0.3670 -0.4276
  461MOL0     O63528   3.554   2.607   3.338 -0.2352  0.2256 -0.0231
  461MOL0     C63529   3.518   2.356   3.567  0.4621  0.0823  0.4518
  461MOL0     C63530   3.422   2.284   3.639 -0.3199 -0.3822 -0.6362
  461MOL0     N63531   2.755   1.956   3.714 -0.4278 -0.0346  0.3197
  461MOL0     N63532   2.642   1.885   3.700 -0.3497 -0.4334 -0.2315
  461MOL0     C63533   1.710   0.995   3.985  0.4718 -0.0781 -0.1693
  461MOL0     C63534   1.628   0.887   3.944 -0.8894 -0.3256 -0.2607
  461MOL0     C63535   1.507   0.460   3.819  0.5767  0.6208 -0.1499
  461MOL0     C63536   1.514   0.344   3.731 -0.5816  0.2700 -0.5590
  461MOL0     C63537   1.401   0.256   3.724 -0.1148  0.2510  0.2909
  461MOL0     C63538   1.280   0.283   3.797 -0.1953 -0.3824 -0.3260
  461MOL0     O63539   1.179   0.196   3.809 -0.1858  0.1026  0.3735
  461MOL0     C63540   1.165   0.099   3.702 -0.4995  0.1960 -0.5341
  461MOL0     C63541   1.044   0.001   3.736 -0.8753  0.0844  0.3167
  461MOL0     C63542   0.953  -0.043   3.618 -0.7168  0.3541 -0.3579
  461MOL0     C63543   0.911   0.087   3.551 -0.1725 -0.4877 -0.0669
  461MOL0     C63544   0.783   0.071   3.505  0.5179 -0.4006 -0.9431
  461MOL0     C63545   0.672   0.052   3.482  0.1690  0.5234  0.1109
  461MOL0     C63546   1.284   0.386   3.883 -0.3958 -0.5371  0.6261
  461MOL0     C63547   1.394   0.472   3.899  0.5744  0.4446 -0.4926
  461MOL0     C63548   1.373   0.562   4.016  0.2468 -0.2801 -0.6723
  461MOL0     H63549   1.817   0.725   3.720 -1.2061  1.2278 -0.9591
  461MOL0     H63550   1.953   0.926   3.766  0.9449 -2.4943  2.1665
  461MOL0     H63551   2.044   1.180   3.823  1.4570  1.1408  0.7163
  461MOL0     H63552   2.096   1.049   3.933  0.4436  0.1428 -2.0123
  461MOL0     H63553   2.023   1.317   4.051  1.3792  1.3920 -1.4680
  461MOL0     H63554   2.125   1.194   4.120 -0.2605 -0.6093 -0.4163
  461MOL0     H63555   2.241   1.404   4.048 -1.7741  0.9602 -1.2499
  461MOL0     H63556   2.316   1.270   3.977  0.1230 -0.0378 -1.4933
  461MOL0     H63557   2.204   1.293   3.757 -2.2531 -0.8241  1.3487
  461MOL0     H63558   2.111   1.429   3.823 -0.5931 -1.2233 -0.1841
  461MOL0     H63559   2.300   1.484   3.677  1.2080 -0.4161 -0.1243
  461MOL0     H63560   2.417   1.416   3.788  0.8149  1.5685 -2.3299
  461MOL0     H63561   2.224   1.662   3.834  0.5002  0.3284 -1.5007
  461MOL0     H63562   2.331   1.590   3.956 -4.5543 -0.5237  0.4897
  461MOL0     H63563   2.396   1.723   3.687  0.0653 -1.0338 -0.3438
  461MOL0     H63564   2.526   1.638   3.772  0.9685  0.9763 -2.2248
  461MOL0     H63565   2.382   1.905   3.839 -1.3893  0.0504  0.1873
  461MOL0     H63566   2.441   1.814   3.970 -0.7601  2.2668  0.2472
  461MOL0     H63567   2.633   1.957   4.024 -1.1700  1.6037 -0.9249
  461MOL0     H63568   2.936   2.000   3.972  0.5602 -0.2164 -0.6572
  461MOL0     H63569   2.842   2.144   3.986 -0.7127 -0.4612 -0.0606
  461MOL0     H63570   3.042   2.066   3.777 -0.2508  0.3780 -0.2607
  461MOL0     H63571   2.900   2.183   3.745 -0.6752 -0.0708 -0.0573
  461MOL0     H63572   2.979   2.338   3.909  0.5082  0.5902 -0.8247
  461MOL0     H63573   3.118   2.223   3.947 -0.9459 -0.1428  1.4562
  461MOL0     H63574   3.076   2.385   3.699  0.3959 -0.9373  0.5416
  461MOL0     H63575   3.216   2.384   3.810  1.3069 -1.2050 -0.1088
  461MOL0     H63576   3.139   2.363   3.475 -0.4821 -2.8755 -0.3720
  461MOL0     H63577   3.312   2.382   3.207  0.2454  0.5777 -1.4380
  461MOL0     H63578   3.345   2.558   3.229 -0.5335 -0.2458 -1.5295
  461MOL0     H63579   3.189   2.497   3.276  1.0782  1.4184  0.7590
  461MOL0     H63580   3.951   2.529   3.379 -1.1273 -0.3609  0.7770
  461MOL0     H63581   4.080   2.618   3.198 -0.2813 -0.6447 -2.2495
  461MOL0     H63582   4.028   2.749   2.784  0.8602 -2.1799 -2.7373
  461MOL0     H63583   3.908   2.621   2.768 -2.4825  0.2558  0.4375
  461MOL0     H63584   3.748   2.763   2.925 -0.9211 -0.4652 -0.4563
  461MOL0     H63585   3.888   2.858   2.968 -0.8129  0.0802  0.8906
  461MOL0     H63586   3.792   2.834   2.685  0.3438  1.6941 -1.4816
  461MOL0     H63587   3.895   2.965   2.748  1.0118 -1.1867 -0.3031
  461MOL0     H63588   3.610   2.918   2.859 -1.8342 -1.0755 -2.8721
  461MOL0     H63589   3.611   2.986   2.699 -2.7181 -2.1822  0.2704
  461MOL0     H63590   3.755   3.111   2.941 -0.5791 -0.4330  0.3615
  461MOL0     H63591   3.764   3.171   2.782 -0.8741  2.7987 -0.2308
  461MOL0     H63592   3.481   3.129   2.897  1.5744 -2.4181 -0.4363
  461MOL0     H63593   3.538   3.250   2.783  1.0465 -0.5092 -0.4201
  461MOL0     H63594   3.658   3.380   2.971  0.5529 -0.4184 -1.3138
  461MOL0     H63595   3.607   3.250   3.082 -1.4082 -0.0961 -0.3083
  461MOL0     H63596   3.369   3.319   3.046 -0.1155 -0.6373 -1.0982
  461MOL0     H63597   3.426   3.448   2.946  0.1396 -2.3329 -1.1001
  461MOL0     H63598   3.759   2.540   2.926 -1.8392  2.2831  0.0302
  461MOL0     H63599   3.622   2.473   3.085  0.2244 -0.0458 -1.3433
  461MOL0     H63600   3.625   2.345   3.581  0.2513 -0.6318  1.6027
  461MOL0     H63601   3.441   2.228   3.730 -1.8240 -0.2450 -0.2057
  461MOL0     H63602   1.672   1.073   4.050 -1.4488 -1.0327 -0.0849
  461MOL0     H63603   1.521   0.897   3.960 -0.8115  0.8951 -0.3755
  461MOL0     H63604   1.596   0.322   3.664 -0.5774  3.4120 -1.7256
  461MOL0     H63605   1.408   0.164   3.667 -2.0742  0.2280  0.0496
  461MOL0     H63606   1.157   0.155   3.609 -0.2048  0.8156 -0.1933
  461MOL0     H63607   1.247   0.032   3.675  0.3578  1.3422 -0.8273
  461MOL0     H63608   0.981   0.050   3.811  1.3166 -0.3042  2.5451
  461MOL0     H63609   1.081  -0.093   3.778 -2.1246 -0.2257  0.7875
  461MOL0     H63610   1.008  -0.109   3.551  1.0310  1.2118  0.1553
  461MOL0     H63611   0.876  -0.103   3.667  1.9890 -2.3795  0.9172
  461MOL0     H63612   0.988   0.106   3.475  0.6374  1.0438  1.0677
  461MOL0     H63613   0.922   0.168   3.624 -0.3496 -2.0935  1.8056
  461MOL0     H63614   0.566   0.045   3.469  0.2250 -0.9652  0.3276
  461MOL0     H63615   1.189   0.388   3.935 -2.0100 -3.7476 -1.8612
  461MOL0     H63616   1.472   0.600   4.043  0.4221 -0.1986 -1.3999
  461MOL0     H63617   1.316   0.652   3.993  0.4565 -0.4307 -1.9029
  461MOL0     H63618   1.325   0.513   4.101  0.9124 -0.5629 -0.4558
  462MOL0     O63619   8.260   6.753   5.906 -0.5786  1.3212  0.9517
  462MOL0     C63620   8.204   6.863   5.919 -0.2525 -0.5423 -0.2050
  462MOL0     O63621   8.065   6.890   5.908  0.1094 -0.2187 -0.1648
  462MOL0     C63622   7.992   6.778   5.920  0.4324 -0.6035 -0.5959
  462MOL0     C63623   7.932   6.725   5.812 -0.2197 -0.6054  0.4563
  462MOL0     C63624   7.857   6.601   5.832  0.2326  0.4781  0.2104
  462MOL0     C63625   7.856   6.533   5.949  0.0757 -0.3789 -1.1499
  462MOL0     O63626   7.795   6.414   5.973  0.4713  0.0274  0.4122
  462MOL0     C63627   7.649   6.413   5.981  0.0050  1.0481 -0.0521
  462MOL0     C63628   7.598   6.439   6.122  0.1475  0.4122  0.4084
  462MOL0     C63629   7.448   6.406   6.136  0.1081 -0.1928  0.0025
  462MOL0     C63630   7.373   6.474   6.249  0.1495 -0.2575  0.0654
  462MOL0     C63631   7.420   6.425   6.393  0.0369  0.6444 -0.1787
  462MOL0     C63632   7.386   6.279   6.429 -0.1395 -0.5260  0.7169
  462MOL0     C63633   7.444   6.234   6.564 -0.4875  0.6391 -0.3275
  462MOL0     C63634   7.370   6.286   6.691  0.3382  0.6038 -0.2399
  462MOL0     N63635   7.237   6.235   6.705 -0.8641 -0.3325 -0.3118
  462MOL0     C63636   7.125   6.301   6.667 -0.7541 -0.0084  0.2722
  462MOL0     C63637   7.032   6.216   6.700  0.2986 -1.2747 -0.9314
  462MOL0     C63638   6.891   6.246   6.692  1.0019 -0.3775  0.5163
  462MOL0     C63639   6.818   6.140   6.605  0.1705  0.1061 -1.1139
  462MOL0     C63640   6.682   6.204   6.550  0.1607  0.6449  0.1492
  462MOL0     C63641   6.584   6.225   6.663 -0.2035  0.1720  1.3254
  462MOL0     O63642   6.465   6.300   6.608  0.1043  0.2670 -0.9100
  462MOL0     C63643   6.356   6.316   6.686 -0.3166 -0.3772 -0.5802
  462MOL0     C63644   6.248   6.374   6.629  0.4675  0.8027 -0.5094
  462MOL0     C63645   6.148   6.425   6.704 -0.2748 -0.3375  0.2245
  462MOL0     C63646   6.039   6.503   6.628  0.4152 -0.3156  0.3491
  462MOL0     C63647   6.143   6.412   6.846 -0.5307 -0.0386  0.7690
  462MOL0     C63648   6.032   6.453   6.929  0.0622  0.3578  0.3749
  462MOL0     O63649   5.995   6.372   7.029  0.2100  0.5204 -0.5385
  462MOL0     C63650   5.878   6.399   7.083  0.1197  0.1412  0.2264
  462MOL0     C63651   5.763   6.360   7.012  1.7136  0.0366 -0.8561
  462MOL0     C63652   5.642   6.358   7.083 -0.7667  0.5293  0.1746
  462MOL0     C63653   5.628   6.389   7.218  0.0606 -0.0329  0.0622
  462MOL0     O63654   5.515   6.394   7.291 -0.4564  0.1871 -0.9256
  462MOL0     C63655   5.397   6.449   7.235 -0.6892  0.0485  0.4892
  462MOL0     C63656   5.292   6.477   7.347 -0.5219  0.2768  1.0046
  462MOL0     C63657   5.169   6.529   7.287  0.4265 -0.1670 -0.7478
  462MOL0     C63658   5.073   6.575   7.392  0.1180 -0.0172 -0.1223
  462MOL0     C63659   4.959   6.648   7.323  0.1443 -0.4070 -0.2156
  462MOL0     C63660   4.858   6.698   7.428  0.4909 -0.3280  0.6307
  462MOL0     C63661   4.741   6.771   7.364  0.7198  0.7739  0.6246
  462MOL0     C63662   4.639   6.839   7.455  0.7437 -0.3347  0.0718
  462MOL0    Cl63663   4.569   6.718   7.561  0.4838  0.4283  0.8833
  462MOL0     C63664   5.743   6.436   7.287  0.2840 -0.2534  0.3211
  462MOL0     C63665   5.870   6.440   7.225 -0.6464 -0.0025  0.3226
  462MOL0     O63666   5.978   6.556   6.902  0.4478  0.1433  1.0000
  462MOL0     C63667   6.243   6.334   6.908  0.0770 -0.4434 -0.0564
  462MOL0     C63668   6.348   6.291   6.825 -1.1891 -0.4808  0.0842
  462MOL0     N63669   7.079   6.102   6.761  0.0403  0.4806 -0.0563
  462MOL0     N63670   7.205   6.114   6.761  0.5820 -0.4174 -0.9452
  462MOL0     C63671   7.916   6.603   6.056  0.3492  0.1473 -0.3095
  462MOL0     C63672   7.981   6.724   6.046  0.0427 -0.9210  0.2579
  462MOL0     C63673   8.289   6.976   5.975  0.6697 -0.7422 -0.4259
  462MOL0     C63674   8.225   7.102   5.991 -0.7894  0.1678 -0.7724
  462MOL0     C63675   8.301   7.208   6.034  0.0415  0.0139 -0.4480
  462MOL0     C63676   8.435   7.213   6.042  0.0644 -0.5665 -0.1288
  462MOL0     O63677   8.502   7.327   6.087 -0.4438  0.1254  0.4314
  462MOL0     C63678   8.646   7.325   6.098 -0.4859  0.1335  0.0107
  462MOL0     C63679   8.710   7.463   6.131 -0.2196  0.4489 -0.5694
  462MOL0     C63680   8.841   7.449   6.196 -0.3166  1.2770 -0.9837
  462MOL0     C63681   8.915   7.583   6.200  0.1712 -0.2232 -0.1176
  462MOL0     C63682   8.968   7.621   6.065  0.2759  0.7199 -0.3355
  462MOL0     C63683   8.997   7.655   5.956  0.8095  0.2701  0.5786
  462MOL0     C63684   8.497   7.093   6.022 -0.1644 -0.2398 -0.0144
  462MOL0     C63685   8.428   6.969   6.000 -1.2836  0.6277  0.0503
  462MOL0     C63686   8.520   6.853   5.979  0.6717  0.1641  0.1256
  462MOL0     H63687   7.943   6.766   5.712  0.8302 -0.4205  0.6372
  462MOL0     H63688   7.799   6.560   5.750 -2.5551  0.6673  1.9620
  462MOL0     H63689   7.623   6.308   5.965  1.2920  0.6761  0.2094
  462MOL0     H63690   7.604   6.477   5.905 -0.0019  0.9699 -0.1144
  462MOL0     H63691   7.646   6.375   6.196  1.2436  1.4873  0.6641
  462MOL0     H63692   7.616   6.546   6.135 -0.9497  0.5692  0.7447
  462MOL0     H63693   7.397   6.444   6.047 -0.6228  2.7367  1.5445
  462MOL0     H63694   7.424   6.300   6.153 -1.7163 -0.1001 -1.5906
  462MOL0     H63695   7.389   6.582   6.250 -2.4567  0.1867  1.5233
  462MOL0     H63696   7.266   6.456   6.235  0.3213 -1.8489  0.6468
  462MOL0     H63697   7.367   6.491   6.461 -0.6970 -1.6865  1.6216
  462MOL0     H63698   7.529   6.438   6.397  0.0674  0.2465  0.3089
  462MOL0     H63699   7.278   6.273   6.419 -0.0784 -2.7537  0.7134
  462MOL0     H63700   7.436   6.209   6.361  1.5055 -0.2589  1.5971
  462MOL0     H63701   7.547   6.271   6.574 -0.4277  1.2068 -2.6387
  462MOL0     H63702   7.450   6.125   6.573  1.2942  0.7849  1.0268
  462MOL0     H63703   7.420   6.260   6.785  0.7082 -2.3938 -1.1383
  462MOL0     H63704   7.378   6.395   6.683 -0.1108  0.6109 -0.6396
  462MOL0     H63705   7.117   6.401   6.625 -1.9051 -0.2137 -0.0296
  462MOL0     H63706   6.878   6.344   6.643 -0.3754  0.3032  2.1454
  462MOL0     H63707   6.851   6.259   6.793  0.8768 -5.1508  1.3123
  462MOL0     H63708   6.885   6.114   6.523  1.2315  0.2219 -0.2999
  462MOL0     H63709   6.788   6.053   6.665 -1.9817  2.5174  1.6342
  462MOL0     H63710   6.704   6.305   6.512 -1.2345  0.8911 -0.0310
  462MOL0     H63711   6.654   6.139   6.468  0.5979 -0.8862  1.1728
  462MOL0     H63712   6.551   6.131   6.707  0.4098  0.1675  1.7994
  462MOL0     H63713   6.635   6.278   6.745  0.8186 -1.4845  1.8072
  462MOL0     H63714   6.245   6.389   6.522  0.8204 -2.4058 -1.0715
  462MOL0     H63715   6.026   6.602   6.672  0.3896  0.1646 -0.7171
  462MOL0     H63716   5.942   6.451   6.627 -0.4510  1.1033  2.7662
  462MOL0     H63717   6.058   6.517   6.521 -0.1245  0.5191  0.3574
  462MOL0     H63718   5.782   6.322   6.912 -3.2973 -1.9744 -1.3463
  462MOL0     H63719   5.548   6.347   7.029  0.3787  1.4387 -2.1620
  462MOL0     H63720   5.417   6.541   7.179 -0.4807 -1.5307 -2.2265
  462MOL0     H63721   5.348   6.382   7.163 -0.3824 -0.5517  0.8305
  462MOL0     H63722   5.269   6.396   7.416  0.3987 -0.0939  0.8932
  462MOL0     H63723   5.334   6.555   7.412 -0.3693 -0.0165  1.2586
  462MOL0     H63724   5.125   6.450   7.225 -0.6505 -0.7564  0.7059
  462MOL0     H63725   5.186   6.617   7.224 -4.4197  1.1300 -0.6323
  462MOL0     H63726   5.133   6.635   7.461  3.4937 -2.0053 -1.1002
  462MOL0     H63727   5.034   6.487   7.444 -1.9231 -0.5061 -2.3019
  462MOL0     H63728   4.996   6.727   7.258 -0.7207 -0.7674 -1.1634
  462MOL0     H63729   4.919   6.571   7.256 -2.3930 -0.2860  1.0386
  462MOL0     H63730   4.909   6.760   7.502 -0.5586 -1.1251  2.0630
  462MOL0     H63731   4.809   6.617   7.482  2.4042 -2.5240 -0.7172
  462MOL0     H63732   4.695   6.690   7.306  3.0062 -0.3307  0.2476
  462MOL0     H63733   4.771   6.846   7.291  0.7484 -0.7291 -0.9717
  462MOL0     H63734   4.555   6.866   7.390 -0.6669 -4.9649 -0.3977
  462MOL0     H63735   4.684   6.923   7.509  0.7004 -0.7634  0.7755
  462MOL0     H63736   5.732   6.474   7.388 -2.9708  0.7928 -0.2990
  462MOL0     H63737   5.958   6.472   7.280  0.9313 -2.0495 -0.8780
  462MOL0     H63738   6.241   6.314   7.015 -2.5089 -0.7395 -0.0950
  462MOL0     H63739   6.426   6.230   6.870  0.0441  1.2183  0.3519
  462MOL0     H63740   7.911   6.554   6.152  0.3818 -0.1564 -0.4611
  462MOL0     H63741   8.011   6.773   6.138  0.2530  0.9891 -0.7864
  462MOL0     H63742   8.118   7.117   5.975 -0.8085  1.1341  0.1456
  462MOL0     H63743   8.232   7.288   6.059  0.0583 -0.4858  1.3500
  462MOL0     H63744   8.685   7.254   6.172  1.7101 -0.0035 -1.1675
  462MOL0     H63745   8.699   7.291   6.008  1.5366  4.1646 -0.5285
  462MOL0     H63746   8.638   7.511   6.197 -1.1933 -0.5404 -0.8783
  462MOL0     H63747   8.711   7.538   6.051 -0.6134  0.5043 -0.5241
  462MOL0     H63748   8.826   7.411   6.298 -2.8912  0.3462 -1.6330
  462MOL0     H63749   8.901   7.377   6.141 -1.6256 -0.1721 -0.6077
  462MOL0     H63750   9.001   7.588   6.267  1.1615 -2.7605 -1.0818
  462MOL0     H63751   8.856   7.669   6.231  0.6214 -0.0869  0.3651
  462MOL0     H63752   9.026   7.685   5.857 -1.2751  0.3116 -0.0488
  462MOL0     H63753   8.605   7.086   6.034 -0.1768 -0.2193  0.1215
  462MOL0     H63754   8.611   6.875   6.036  0.6957 -0.8244  0.4734
  462MOL0     H63755   8.489   6.756   6.017 -1.5673 -0.2072 -2.3570
  462MOL0     H63756   8.547   6.839   5.874  1.0500 -2.2248  0.5004
  463MOL0     O63757   0.969   4.417  11.258  0.3277  0.0764 -0.2344
  463MOL0     C63758   1.035   4.310  11.282  0.2888 -0.6488  0.3271
  463MOL0     O63759   0.977   4.187  11.276 -0.6304 -0.1401  0.4799
  463MOL0     C63760   0.846   4.158  11.267 -0.0350  0.6657  0.3223
  463MOL0     C63761   0.795   4.093  11.375 -1.1718 -0.8019 -0.5383
  463MOL0     C63762   0.665   4.042  11.362  0.1012 -0.8803 -0.6996
  463MOL0     C63763   0.586   4.066  11.249  0.1653  0.0905 -0.0242
  463MOL0     O63764   0.455   4.023  11.237 -0.9456  0.1292  0.5642
  463MOL0     C63765   0.353   4.086  11.309  1.2214 -0.5870 -0.8742
  463MOL0     C63766   0.220   4.098  11.225  0.5946  0.4955 -0.0198
  463MOL0     C63767   0.102   4.185  11.286 -0.5150 -0.1756 -0.3854
  463MOL0     C63768  -0.040   4.138  11.249  0.2619  0.4993 -0.2083
  463MOL0     C63769  -0.142   4.189  11.344 -0.2996 -0.1731 -0.1878
  463MOL0     C63770  -0.170   4.342  11.331 -0.3635 -0.1299 -0.0707
  463MOL0     C63771  -0.283   4.391  11.422 -0.5779 -0.4319  0.0056
  463MOL0     C63772  -0.415   4.313  11.429 -0.0096 -0.3382 -0.3830
  463MOL0     N63773  -0.490   4.332  11.304 -0.3026  0.7519  0.3728
  463MOL0     C63774  -0.450   4.260  11.192 -0.5969  0.9773  0.6844
  463MOL0     C63775  -0.496   4.330  11.085  0.1343 -0.6252  0.6516
  463MOL0     C63776  -0.499   4.285  10.941 -0.2327 -0.2278 -0.0510
  463MOL0     C63777  -0.367   4.345  10.868 -0.2914 -0.2855 -0.7203
  463MOL0     C63778  -0.240   4.247  10.877  0.6738 -0.6079 -0.9686
  463MOL0     C63779  -0.114   4.295  10.801 -1.1619  0.1110 -0.2921
  463MOL0     O63780  -0.053   4.405  10.868  0.8039  0.1765  0.2312
  463MOL0     C63781   0.080   4.429  10.843 -0.2998  0.9057  0.2809
  463MOL0     C63782   0.116   4.454  10.709 -0.5887  0.4246  0.5708
  463MOL0     C63783   0.247   4.476  10.672 -0.6445  0.0555  0.5505
  463MOL0     C63784   0.278   4.511  10.526 -1.3462 -0.8099 -0.1132
  463MOL0     C63785   0.345   4.475  10.775 -0.0053  0.7523  0.3315
  463MOL0     C63786   0.486   4.495  10.754  0.4159 -0.0193  0.7607
  463MOL0     O63787   0.520   4.562  10.633 -0.4690 -0.2856 -0.0026
  463MOL0     C63788   0.644   4.600  10.600 -0.0786 -0.3736  0.2542
  463MOL0     C63789   0.676   4.635  10.463  0.2672 -0.2539 -0.1938
  463MOL0     C63790   0.797   4.698  10.422 -0.9687 -0.4130 -0.3270
  463MOL0     C63791   0.890   4.740  10.522 -0.3992 -0.4816 -0.2276
  463MOL0     O63792   1.019   4.798  10.503  0.2344 -0.4557  0.1055
  463MOL0     C63793   1.088   4.796  10.374 -0.0003  0.0590  0.1261
  463MOL0     C63794   1.240   4.804  10.393  0.3784 -0.0319 -1.3420
  463MOL0     C63795   1.268   4.941  10.450 -0.4645 -0.3163  0.0588
  463MOL0     C63796   1.421   4.975  10.456 -0.6426 -0.4717  0.9041
  463MOL0     C63797   1.455   5.092  10.557  0.1978  0.0612 -0.4656
  463MOL0     C63798   1.612   5.104  10.541  0.4110  0.5118  0.4923
  463MOL0     C63799   1.658   5.233  10.623  0.5815 -0.6353  0.3459
  463MOL0     C63800   1.801   5.268  10.580 -0.4080  0.6097 -0.3430
  463MOL0    Cl63801   1.801   5.342  10.426 -0.3180  0.6024 -0.3623
  463MOL0     C63802   0.854   4.719  10.659  0.5279 -0.2370 -0.0818
  463MOL0     C63803   0.736   4.649  10.698 -0.5233  0.2360 -1.0647
  463MOL0     O63804   0.566   4.458  10.838 -0.1958 -0.7047  0.7182
  463MOL0     C63805   0.311   4.451  10.910 -0.3195 -0.1334 -0.1184
  463MOL0     C63806   0.178   4.426  10.940  0.5396 -0.0511  0.1997
  463MOL0     N63807  -0.552   4.445  11.131  0.7185 -0.0535  0.4049
  463MOL0     N63808  -0.547   4.443  11.256 -0.1217  0.2364 -0.0602
  463MOL0     C63809   0.638   4.143  11.139 -0.0090  0.5124  0.1771
  463MOL0     C63810   0.770   4.189  11.152 -0.3096 -0.4139  0.0180
  463MOL0     C63811   1.181   4.324  11.290 -0.1155 -0.1009  0.0415
  463MOL0     C63812   1.230   4.456  11.290 -0.4680 -0.9489  1.3140
  463MOL0     C63813   1.366   4.478  11.295  0.0349 -0.3313  0.2724
  463MOL0     C63814   1.460   4.375  11.288  0.6249  0.5023  0.2333
  463MOL0     O63815   1.587   4.419  11.281  0.3824  0.2025  0.9007
  463MOL0     C63816   1.691   4.323  11.294 -0.6774  0.0530  0.8950
  463MOL0     C63817   1.831   4.388  11.291 -0.0302 -0.3933 -0.6720
  463MOL0     C63818   1.929   4.271  11.306  0.1733 -0.5669  0.2122
  463MOL0     C63819   2.070   4.324  11.295  0.8348 -0.6682  0.0744
  463MOL0     C63820   2.158   4.216  11.327  0.7579 -0.0943 -0.5474
  463MOL0     C63821   2.223   4.128  11.365  0.5128  0.6646 -0.1164
  463MOL0     C63822   1.413   4.240  11.278  0.3762 -0.0469  0.1036
  463MOL0     C63823   1.272   4.210  11.296 -0.3459  0.0502  0.1667
  463MOL0     C63824   1.238   4.064  11.322 -0.4638 -0.0013  0.0089
  463MOL0     H63825   0.858   4.079  11.463  0.1601 -0.4516 -1.4128
  463MOL0     H63826   0.636   3.974  11.442 -1.4852 -0.7094 -1.1062
  463MOL0     H63827   0.388   4.189  11.325  1.8143 -0.6058 -1.9054
  463MOL0     H63828   0.328   4.034  11.402  0.2522  3.4789  1.3787
  463MOL0     H63829   0.244   4.147  11.131 -2.4201  0.9346 -0.6551
  463MOL0     H63830   0.175   3.999  11.213 -1.2643  1.0906  1.4678
  463MOL0     H63831   0.118   4.177  11.393  1.1554 -2.4319 -0.7230
  463MOL0     H63832   0.104   4.292  11.262 -3.2608 -0.3697 -1.8944
  463MOL0     H63833  -0.079   4.182  11.157 -1.2875  1.8781  1.0365
  463MOL0     H63834  -0.055   4.030  11.241 -0.0325  0.6482 -2.1480
  463MOL0     H63835  -0.125   4.165  11.449 -0.8424  0.7158  0.1220
  463MOL0     H63836  -0.230   4.131  11.314 -1.3194  0.3935  1.5909
  463MOL0     H63837  -0.081   4.402  11.350 -0.3740 -0.2272  0.2833
  463MOL0     H63838  -0.205   4.363  11.229  0.8922 -1.9950 -0.9637
  463MOL0     H63839  -0.309   4.495  11.401  0.0861 -0.3558 -0.4955
  463MOL0     H63840  -0.242   4.390  11.523 -2.0170 -1.6329  0.6106
  463MOL0     H63841  -0.403   4.209  11.459 -4.5034 -0.0010  3.8384
  463MOL0     H63842  -0.482   4.356  11.504  0.5308  2.6233 -1.4521
  463MOL0     H63843  -0.417   4.157  11.187  3.2452  2.0157  1.8368
  463MOL0     H63844  -0.587   4.329  10.895 -1.9211 -1.6227  1.6306
  463MOL0     H63845  -0.507   4.177  10.925  1.1034 -0.0164 -2.7160
  463MOL0     H63846  -0.401   4.360  10.765  2.4883  0.6039 -1.5943
  463MOL0     H63847  -0.340   4.443  10.909 -1.0143 -0.1893 -0.4586
  463MOL0     H63848  -0.225   4.225  10.983  2.9390  2.2605 -0.5623
  463MOL0     H63849  -0.285   4.158  10.832 -3.1766  1.0077 -0.7533
  463MOL0     H63850  -0.044   4.210  10.806  0.9303  1.7169 -0.7664
  463MOL0     H63851  -0.144   4.317  10.699  0.4428  0.4434 -0.7179
  463MOL0     H63852   0.031   4.465  10.642 -0.2091  1.0097  0.1770
  463MOL0     H63853   0.349   4.438  10.486  0.1766  0.3518  0.4056
  463MOL0     H63854   0.322   4.611  10.525  3.3725 -2.6250 -0.8741
  463MOL0     H63855   0.188   4.513  10.465 -1.2931 -1.9467 -0.2532
  463MOL0     H63856   0.610   4.622  10.378  0.3010  1.2728 -0.4856
  463MOL0     H63857   0.819   4.717  10.318  4.3603  2.5449  0.9576
  463MOL0     H63858   1.061   4.708  10.314 -1.4717  0.0599  0.7566
  463MOL0     H63859   1.047   4.880  10.318 -0.2996  0.5385  1.0410
  463MOL0     H63860   1.274   4.724  10.459 -0.2488  0.7773 -0.0091
  463MOL0     H63861   1.289   4.802  10.295 -0.0968 -1.8824 -1.5750
  463MOL0     H63862   1.214   4.950  10.545 -0.8070 -1.4335 -0.0164
  463MOL0     H63863   1.222   5.015  10.384 -1.7536 -1.4891 -0.3983
  463MOL0     H63864   1.454   5.011  10.359 -0.5410 -2.6669  0.0677
  463MOL0     H63865   1.477   4.884  10.482  1.1982  0.2573 -0.3072
  463MOL0     H63866   1.410   5.189  10.536  1.1596  0.4727 -0.6936
  463MOL0     H63867   1.440   5.068  10.663 -0.3075 -3.2623 -1.1658
  463MOL0     H63868   1.638   5.123  10.436  0.8965  0.9997  0.6951
  463MOL0     H63869   1.670   5.015  10.570 -0.1574 -0.3481 -0.8688
  463MOL0     H63870   1.657   5.201  10.728 -0.9477 -0.6100  0.3615
  463MOL0     H63871   1.595   5.320  10.602 -1.0876 -1.2237  2.5305
  463MOL0     H63872   1.859   5.176  10.584  1.1348  1.3378 -2.9548
  463MOL0     H63873   1.840   5.338  10.654 -0.0361 -0.0971  0.1286
  463MOL0     H63874   0.913   4.756  10.742 -0.6108  0.3651  0.4870
  463MOL0     H63875   0.721   4.645  10.806 -1.3853 -2.0288 -1.2306
  463MOL0     H63876   0.390   4.448  10.985 -1.0202  1.1167  0.7040
  463MOL0     H63877   0.153   4.420  11.045  1.8098 -0.3883  0.4935
  463MOL0     H63878   0.584   4.173  11.050  2.5102  2.9731 -0.6566
  463MOL0     H63879   0.819   4.239  11.069 -1.7415 -2.3020 -2.0875
  463MOL0     H63880   1.167   4.544  11.289  0.5370 -0.1802 -1.2938
  463MOL0     H63881   1.405   4.579  11.296  1.7169 -0.4586 -6.3119
  463MOL0     H63882   1.686   4.241  11.367 -0.1436 -0.7408  0.0720
  463MOL0     H63883   1.683   4.264  11.202 -0.4337  0.5994  0.5189
  463MOL0     H63884   1.837   4.460  11.373  0.6481 -0.0765 -0.9878
  463MOL0     H63885   1.838   4.439  11.195 -0.9544 -0.9027 -1.0304
  463MOL0     H63886   1.924   4.216  11.400 -0.0570  2.4424  2.0829
  463MOL0     H63887   1.914   4.190  11.234 -0.4874  0.0080 -0.3150
  463MOL0     H63888   2.076   4.397  11.377  3.7166 -0.0962 -0.5375
  463MOL0     H63889   2.099   4.370  11.200 -0.0868  0.6123  0.3864
  463MOL0     H63890   2.278   4.039  11.385  2.7771  1.7473 -1.1594
  463MOL0     H63891   1.488   4.162  11.275 -0.6044 -1.1133  1.8201
  463MOL0     H63892   1.321   4.004  11.362  0.6834 -0.2589 -2.5490
  463MOL0     H63893   1.160   4.060  11.398  0.3444  2.1237  1.0264
  463MOL0     H63894   1.215   4.014  11.227  0.9904  1.4257 -1.1473
  464MOL0     O63895   0.596  11.337   1.068 -0.3547 -0.6361  0.7395
  464MOL0     C63896   0.513  11.311   1.153 -0.1321  0.6394  0.2545
  464MOL0     O63897   0.534  11.266   1.278  0.7557  0.0985 -0.4637
  464MOL0     C63898   0.658  11.288   1.330  0.2085 -0.4757 -0.1072
  464MOL0     C63899   0.779  11.227   1.285  1.3937 -0.2759 -0.2911
  464MOL0     C63900   0.902  11.255   1.343 -0.1089 -0.3643 -0.1629
  464MOL0     C63901   0.901  11.333   1.462 -0.4143  0.7233  0.4768
  464MOL0     O63902   1.010  11.378   1.529  0.1705  0.2507 -0.0279
  464MOL0     C63903   1.137  11.364   1.460  0.4051  0.0409  0.1402
  464MOL0     C63904   1.162  11.457   1.342 -0.6200 -0.4294  1.0122
  464MOL0     C63905   1.304  11.457   1.289  1.0348 -0.0972  0.0933
  464MOL0     C63906   1.323  11.513   1.147 -0.1497 -0.0726  0.2555
  464MOL0     C63907   1.474  11.509   1.102  0.8895 -0.0960  0.5732
  464MOL0     C63908   1.498  11.564   0.967 -0.1439 -0.3896  0.1166
  464MOL0     C63909   1.638  11.522   0.917  0.1253  0.0438  0.6549
  464MOL0     C63910   1.745  11.616   0.973 -0.6292 -0.1305 -0.4868
  464MOL0     N63911   1.875  11.571   0.921 -0.1571  0.0240 -0.1094
  464MOL0     C63912   1.957  11.487   0.990 -0.2504  0.0594  0.4618
  464MOL0     C63913   2.063  11.457   0.904 -0.1925 -0.1089  0.2107
  464MOL0     C63914   2.198  11.392   0.939  1.4088  0.1987  0.2966
  464MOL0     C63915   2.318  11.488   0.935  0.2125  0.8824 -0.3306
  464MOL0     C63916   2.398  11.465   0.808  0.4385 -0.1232  0.2427
  464MOL0     C63917   2.508  11.571   0.780  0.5869  0.1875 -0.0204
  464MOL0     O63918   2.627  11.528   0.838  0.0063 -0.6093  0.5080
  464MOL0     C63919   2.741  11.562   0.773 -0.3500 -0.1302  0.5254
  464MOL0     C63920   2.768  11.695   0.736  0.4803  0.1856  0.7291
  464MOL0     C63921   2.885  11.737   0.676  0.6398 -0.5302  0.4919
  464MOL0     C63922   2.876  11.880   0.631 -0.4018  0.0347 -0.2935
  464MOL0     C63923   2.989  11.645   0.638  0.8984  0.0548  0.4139
  464MOL0     C63924   3.114  11.674   0.558 -0.5998  0.7202  0.1417
  464MOL0     O63925   3.136  11.798   0.511  0.0410 -0.4760  0.2102
  464MOL0     C63926   3.264  11.820   0.457  0.7584 -0.0317 -0.4844
  464MOL0     C63927   3.272  11.835   0.320 -0.5215  0.7148  0.2087
  464MOL0     C63928   3.402  11.841   0.263  0.7331 -0.3237  0.0801
  464MOL0     C63929   3.514  11.859   0.349  1.4040  1.5973  0.4474
  464MOL0     O63930   3.634  11.867   0.287 -0.1773 -0.0752 -0.2506
  464MOL0     C63931   3.708  11.981   0.338  0.0730  0.0577 -0.5012
  464MOL0     C63932   3.831  11.994   0.248  0.1016  0.7446 -0.3435
  464MOL0     C63933   3.952  11.905   0.290 -0.0426 -0.3642  0.5671
  464MOL0     C63934   3.963  11.778   0.216  0.3752  0.6603  0.1463
  464MOL0     C63935   4.077  11.705   0.277 -0.2577 -0.2225  0.3655
  464MOL0     C63936   4.097  11.568   0.217 -0.1563  0.4651  0.3785
  464MOL0     C63937   4.222  11.505   0.281  0.4066  0.9546  0.6615
  464MOL0     C63938   4.198  11.361   0.311 -0.5439 -0.1753 -0.4709
  464MOL0    Cl63939   4.173  11.244   0.171 -0.0722 -0.0831 -0.4913
  464MOL0     C63940   3.501  11.845   0.485 -0.1913 -0.2022  0.6139
  464MOL0     C63941   3.377  11.820   0.537 -0.5775 -0.1776 -0.4874
  464MOL0     O63942   3.184  11.577   0.534 -0.3357  0.1753  0.4194
  464MOL0     C63943   2.966  11.509   0.680 -0.6898  0.5262 -0.5681
  464MOL0     C63944   2.847  11.474   0.754 -0.1147  0.6527  0.2301
  464MOL0     N63945   2.034  11.509   0.774  1.2421 -0.3772 -0.5740
  464MOL0     N63946   1.918  11.572   0.788  0.0580 -0.7728  0.3331
  464MOL0     C63947   0.783  11.394   1.500 -0.6163 -0.3918 -0.0740
  464MOL0     C63948   0.658  11.372   1.439  0.4662 -1.0253 -0.9954
  464MOL0     C63949   0.377  11.305   1.101  0.3560 -0.2543 -0.2672
  464MOL0     C63950   0.287  11.220   1.166  0.0781  0.4099 -0.0444
  464MOL0     C63951   0.157  11.192   1.119  0.2485 -0.7046 -0.0357
  464MOL0     C63952   0.115  11.251   1.003  0.3440 -0.9345  0.2292
  464MOL0     O63953  -0.009  11.230   0.946 -0.1189  1.1287 -0.4113
  464MOL0     C63954  -0.106  11.134   1.013  0.6140  0.0129 -0.4608
  464MOL0     C63955  -0.231  11.193   1.081  0.5281  0.2294 -0.1232
  464MOL0     C63956  -0.319  11.267   0.975 -0.3419  0.2215  0.1331
  464MOL0     C63957  -0.426  11.360   1.039 -0.6602 -0.0477 -0.0947
  464MOL0     C63958  -0.373  11.451   1.141 -0.1756 -0.6003  0.4952
  464MOL0     C63959  -0.326  11.535   1.216 -0.1211  0.3317 -0.5981
  464MOL0     C63960   0.201  11.332   0.932  0.3282 -0.1956  0.0898
  464MOL0     C63961   0.327  11.371   0.987  0.0840  0.6114 -0.3960
  464MOL0     C63962   0.401  11.485   0.922 -0.1913 -0.4377  0.1027
  464MOL0     H63963   0.768  11.161   1.199  2.2935  0.4874 -1.0061
  464MOL0     H63964   1.000  11.220   1.314  2.2210  2.4606  3.4156
  464MOL0     H63965   1.171  11.264   1.432  3.1998  1.7838 -3.4670
  464MOL0     H63966   1.207  11.398   1.536  0.9370  2.4264 -1.3200
  464MOL0     H63967   1.096  11.442   1.256  1.8060  1.6612 -1.4334
  464MOL0     H63968   1.139  11.558   1.379 -0.4591  0.9237 -2.2273
  464MOL0     H63969   1.366  11.505   1.366 -1.6854  0.3020  2.1924
  464MOL0     H63970   1.337  11.354   1.275 -0.7647 -0.8000  0.7439
  464MOL0     H63971   1.257  11.461   1.077  0.3065 -0.1228 -0.1450
  464MOL0     H63972   1.287  11.616   1.158  1.4348  1.0246 -3.1653
  464MOL0     H63973   1.490  11.401   1.104 -1.5362 -0.5163  0.3340
  464MOL0     H63974   1.539  11.565   1.169  0.3744 -0.4112  1.3460
  464MOL0     H63975   1.418  11.524   0.904 -0.1030 -0.7314  0.2808
  464MOL0     H63976   1.482  11.672   0.970 -0.1533 -0.3828 -0.1573
  464MOL0     H63977   1.643  11.507   0.809  1.4631 -2.4955  0.9874
  464MOL0     H63978   1.651  11.420   0.955 -1.6533  0.0075  1.2182
  464MOL0     H63979   1.714  11.717   0.945  0.5499  0.9638  1.9353
  464MOL0     H63980   1.749  11.613   1.082 -2.9571  0.0800 -0.3379
  464MOL0     H63981   1.961  11.460   1.094  1.4573  2.0266  0.9902
  464MOL0     H63982   2.217  11.307   0.873  0.9290 -0.0121  0.4243
  464MOL0     H63983   2.185  11.354   1.041 -0.1930 -1.8539 -0.6093
  464MOL0     H63984   2.282  11.591   0.928  0.7321  1.0149 -1.0948
  464MOL0     H63985   2.378  11.488   1.027 -4.2099  2.2046  2.8985
  464MOL0     H63986   2.439  11.366   0.789  1.1013  0.1138  0.3960
  464MOL0     H63987   2.323  11.482   0.730 -1.4559 -3.6265  1.1074
  464MOL0     H63988   2.522  11.587   0.673  1.6019  0.0358  0.0851
  464MOL0     H63989   2.474  11.666   0.822 -2.1999 -0.6518 -0.1335
  464MOL0     H63990   2.685  11.764   0.751  0.0779  0.7329 -3.0542
  464MOL0     H63991   2.902  11.891   0.526  4.5481  3.8178  0.9200
  464MOL0     H63992   2.932  11.949   0.695 -1.4063  0.6715 -0.0719
  464MOL0     H63993   2.775  11.920   0.645 -2.1260 -4.5530  3.2024
  464MOL0     H63994   3.183  11.834   0.258 -1.0812 -1.8363  0.9594
  464MOL0     H63995   3.422  11.847   0.156  1.5388 -2.5209  0.0626
  464MOL0     H63996   3.650  12.074   0.337 -1.9699 -1.1473 -0.8231
  464MOL0     H63997   3.736  11.965   0.443 -2.5424  1.1216  0.4621
  464MOL0     H63998   3.810  11.978   0.141  1.5463  1.9067 -0.8382
  464MOL0     H63999   3.870  12.096   0.255  1.7925  0.2203 -1.6117
  464MOL0     H64000   3.964  11.893   0.398 -0.7880  1.3498  0.8854
  464MOL0     H64001   4.037  11.965   0.257  1.1187 -2.6019 -0.7180
  464MOL0     H64002   3.979  11.786   0.108  0.8473  0.5861  0.2095
  464MOL0     H64003   3.869  11.726   0.240  0.2094  1.3085  0.9596
  464MOL0     H64004   4.172  11.759   0.268 -0.4284  0.0114 -0.0919
  464MOL0     H64005   4.061  11.694   0.384  2.6743  0.5537  0.9710
  464MOL0     H64006   4.114  11.589   0.111 -0.6497  1.3811  0.4699
  464MOL0     H64007   4.006  11.508   0.219 -1.0920  1.8363  0.4701
  464MOL0     H64008   4.243  11.553   0.377 -1.4048  0.1618  1.5057
  464MOL0     H64009   4.296  11.504   0.201  0.8342 -2.5801  0.9546
  464MOL0     H64010   4.117  11.358   0.385  0.9996  2.2658  1.5080
  464MOL0     H64011   4.285  11.321   0.363 -1.1341 -3.0634 -1.5342
  464MOL0     H64012   3.581  11.858   0.557 -1.5937 -0.0104  2.2099
  464MOL0     H64013   3.366  11.791   0.641 -0.5678 -0.9814 -0.7113
  464MOL0     H64014   3.038  11.433   0.652 -2.4174 -0.0622 -4.1234
  464MOL0     H64015   2.834  11.375   0.797 -1.3999  1.7994  2.6554
  464MOL0     H64016   0.803  11.463   1.581 -0.1071 -0.8217  0.1724
  464MOL0     H64017   0.568  11.431   1.458  0.4267 -0.3774 -3.0085
  464MOL0     H64018   0.331  11.147   1.232  0.2974  0.2027 -0.4149
  464MOL0     H64019   0.096  11.125   1.178 -1.4293 -0.6112 -1.6063
  464MOL0     H64020  -0.140  11.073   0.928  1.6794  0.1938 -1.0403
  464MOL0     H64021  -0.054  11.058   1.071 -0.2192 -0.4699 -0.3265
  464MOL0     H64022  -0.197  11.256   1.164 -3.0071 -1.0088  2.4877
  464MOL0     H64023  -0.297  11.124   1.133 -1.5203  1.2577 -1.2475
  464MOL0     H64024  -0.259  11.324   0.904  0.4312 -0.2011  0.4281
  464MOL0     H64025  -0.366  11.189   0.915  0.0298 -0.9413  1.2844
  464MOL0     H64026  -0.508  11.307   1.087  1.1019 -0.7868  2.2430
  464MOL0     H64027  -0.462  11.428   0.961  0.2391  1.2568  0.5860
  464MOL0     H64028  -0.268  11.602   1.276  0.4864 -0.3155 -0.4421
  464MOL0     H64029   0.170  11.388   0.844  1.7950  3.8425  1.8829
  464MOL0     H64030   0.340  11.546   0.855  0.1134  1.8042  1.7574
  464MOL0     H64031   0.427  11.558   0.999 -4.8563  0.1378  1.4637
  464MOL0     H64032   0.496  11.455   0.877  2.1352  3.6058  1.8060
  465MOL0     O64033   2.567   1.764   5.674 -0.8400 -0.3394  0.2387
  465MOL0     C64034   2.558   1.641   5.690  0.1305  0.2892  0.2394
  465MOL0     O64035   2.664   1.559   5.685  0.1571  0.0498 -0.6872
  465MOL0     C64036   2.792   1.608   5.664 -0.2571 -0.7082  0.5464
  465MOL0     C64037   2.821   1.691   5.553  1.1158 -0.1824 -0.3370
  465MOL0     C64038   2.949   1.720   5.519  0.1666  1.1034  0.2970
  465MOL0     C64039   3.060   1.692   5.603 -0.9731  1.2119  0.2384
  465MOL0     O64040   3.184   1.726   5.559  0.2282 -0.1869  0.4199
  465MOL0     C64041   3.282   1.762   5.657 -0.1931  0.1053  0.5763
  465MOL0     C64042   3.402   1.812   5.588 -0.5876  0.1320  0.1912
  465MOL0     C64043   3.521   1.839   5.684  0.5725  0.0460 -0.0795
  465MOL0     C64044   3.511   1.959   5.777  0.6121  0.2662 -0.4194
  465MOL0     C64045   3.606   1.943   5.899  0.0808 -0.2596 -0.0685
  465MOL0     C64046   3.643   2.074   5.959 -0.3996 -0.6659 -0.7468
  465MOL0     C64047   3.750   2.055   6.071 -0.2142  0.0859  0.3472
  465MOL0     C64048   3.795   2.178   6.146  0.3169 -0.5891 -0.4060
  465MOL0     N64049   3.846   2.162   6.286  0.1667  0.3912  0.4822
  465MOL0     C64050   3.751   2.155   6.383  0.0992 -0.4324 -0.2657
  465MOL0     C64051   3.814   2.193   6.499  0.7506  0.1335  0.5708
  465MOL0     C64052   3.742   2.188   6.634  0.4532  0.4190 -0.0486
  465MOL0     C64053   3.836   2.183   6.754 -0.4949  0.1687 -0.7050
  465MOL0     C64054   3.775   2.153   6.889 -0.1325  0.0331  0.7254
  465MOL0     C64055   3.647   2.236   6.926  0.0911  0.4503 -0.2551
  465MOL0     O64056   3.595   2.201   7.051  0.1714 -0.3111  0.1129
  465MOL0     C64057   3.490   2.272   7.101  0.2968  0.4672 -0.3490
  465MOL0     C64058   3.425   2.383   7.044  0.3625 -0.0900 -0.7268
  465MOL0     C64059   3.315   2.451   7.094 -0.4519 -0.4234 -0.2544
  465MOL0     C64060   3.237   2.555   7.017  0.0192  0.2527  0.2062
  465MOL0     C64061   3.270   2.408   7.221 -0.4782  0.0370 -0.7249
  465MOL0     C64062   3.146   2.453   7.289 -0.2642 -0.5590 -0.1697
  465MOL0     O64063   3.041   2.483   7.211 -0.1854  0.3530 -0.0313
  465MOL0     C64064   2.920   2.532   7.268 -0.4607 -0.0248  0.4347
  465MOL0     C64065   2.914   2.618   7.377  0.0193  0.5114  0.8245
  465MOL0     C64066   2.789   2.674   7.415  0.5798 -0.1727  1.4825
  465MOL0     C64067   2.667   2.628   7.355  0.5901 -0.2318  0.0428
  465MOL0     O64068   2.543   2.685   7.395 -0.0403 -0.0479  0.1526
  465MOL0     C64069   2.527   2.729   7.525 -0.1593  0.2277  0.7399
  465MOL0     C64070   2.388   2.781   7.540  0.3512 -0.1859 -0.1140
  465MOL0     C64071   2.282   2.686   7.492  0.1626 -0.5011 -0.4433
  465MOL0     C64072   2.145   2.759   7.526  0.2584  0.5274 -0.2862
  465MOL0     C64073   2.028   2.674   7.492  0.0735 -0.1320 -0.5255
  465MOL0     C64074   1.895   2.751   7.488 -0.6242  0.0384  0.3270
  465MOL0     C64075   1.781   2.658   7.442 -0.0885  1.4434 -1.0303
  465MOL0     C64076   1.664   2.729   7.380  0.0832 -0.0613 -0.8290
  465MOL0    Cl64077   1.561   2.794   7.506  0.3656  0.4125 -0.3080
  465MOL0     C64078   2.676   2.526   7.267  0.5269 -0.2905  0.1627
  465MOL0     C64079   2.800   2.491   7.213 -0.6222  0.1269  0.0115
  465MOL0     O64080   3.136   2.432   7.413  0.0070  0.3904 -0.2551
  465MOL0     C64081   3.340   2.303   7.292  0.5185  0.8872 -0.0674
  465MOL0     C64082   3.439   2.236   7.228 -0.3943 -0.0472 -0.2590
  465MOL0     N64083   3.943   2.226   6.469  1.4483  0.3512 -0.0288
  465MOL0     N64084   3.958   2.210   6.345 -0.3214 -0.2246  0.1219
  465MOL0     C64085   3.035   1.617   5.716  0.2837 -0.0091 -0.1475
  465MOL0     C64086   2.902   1.568   5.745  0.1465 -0.2480  0.4139
  465MOL0     C64087   2.424   1.589   5.658  1.8144 -0.4252 -0.4323
  465MOL0     C64088   2.417   1.471   5.584 -0.3933 -0.2145 -0.4210
  465MOL0     C64089   2.296   1.408   5.552 -0.5943 -0.6141 -0.2968
  465MOL0     C64090   2.173   1.468   5.582 -0.5141  0.1477 -0.4021
  465MOL0     O64091   2.061   1.393   5.540 -0.1513  0.1878  0.0733
  465MOL0     C64092   1.939   1.454   5.558 -0.0533  0.8007  0.2320
  465MOL0     C64093   1.827   1.383   5.484  1.2864  0.2130 -0.2298
  465MOL0     C64094   1.835   1.397   5.332  0.2218  0.3180  0.5453
  465MOL0     C64095   1.706   1.338   5.264 -0.0891 -0.2293  0.9773
  465MOL0     C64096   1.707   1.391   5.126 -0.0986 -1.1756  0.1728
  465MOL0     C64097   1.701   1.435   5.013  0.3381 -0.0549 -0.7859
  465MOL0     C64098   2.176   1.587   5.650 -0.5845  0.2689  0.2029
  465MOL0     C64099   2.299   1.644   5.689  0.2907  0.0389  0.4216
  465MOL0     C64100   2.292   1.779   5.755 -0.4342  0.2202 -0.2249
  465MOL0     H64101   2.747   1.714   5.477  0.6331 -0.3721  0.0703
  465MOL0     H64102   2.973   1.755   5.419 -0.4686 -3.1514 -1.5532
  465MOL0     H64103   3.309   1.685   5.730  3.0108 -2.2071 -2.6683
  465MOL0     H64104   3.234   1.842   5.714 -1.4684 -1.2268  1.4714
  465MOL0     H64105   3.445   1.738   5.519 -0.9180  1.4061 -1.4494
  465MOL0     H64106   3.379   1.906   5.537  0.9609  1.5762  2.0207
  465MOL0     H64107   3.547   1.751   5.744  0.2816  0.4676  0.6694
  465MOL0     H64108   3.606   1.857   5.617 -1.5197 -0.0927 -2.9349
  465MOL0     H64109   3.530   2.048   5.716 -1.5621  1.5169  0.5937
  465MOL0     H64110   3.405   1.958   5.805  0.0919 -1.0586 -2.2364
  465MOL0     H64111   3.691   1.887   5.860  0.7957  0.1949  0.7895
  465MOL0     H64112   3.561   1.884   5.980  1.0690  1.0110  1.4593
  465MOL0     H64113   3.672   2.153   5.889  0.5659 -0.4718 -0.1523
  465MOL0     H64114   3.553   2.111   6.009  1.6093  0.2289  2.5329
  465MOL0     H64115   3.837   2.004   6.029  0.3450  1.4796 -0.2760
  465MOL0     H64116   3.705   1.987   6.144  0.1133  0.2916  0.7494
  465MOL0     H64117   3.865   2.236   6.087 -3.5048  2.4703 -2.4296
  465MOL0     H64118   3.706   2.241   6.160 -0.0162 -1.2724  0.7471
  465MOL0     H64119   3.648   2.124   6.367 -1.3194  2.1016  2.8118
  465MOL0     H64120   3.681   2.097   6.639 -1.4258  1.6000 -0.5266
  465MOL0     H64121   3.678   2.275   6.652  1.0218  0.3802  2.5711
  465MOL0     H64122   3.916   2.113   6.729 -0.2206  0.9841 -2.2477
  465MOL0     H64123   3.885   2.281   6.761  0.5075 -0.4354  1.6411
  465MOL0     H64124   3.751   2.046   6.890 -2.3229  0.3770 -2.0307
  465MOL0     H64125   3.847   2.175   6.968 -1.1750  1.1137  1.4028
  465MOL0     H64126   3.665   2.343   6.934 -3.8352  1.1759  0.5788
  465MOL0     H64127   3.567   2.209   6.856  1.4498 -0.3520 -1.5600
  465MOL0     H64128   3.472   2.432   6.959  2.9318  0.5749  0.9670
  465MOL0     H64129   3.143   2.515   6.977 -0.1081  3.4494 -3.2749
  465MOL0     H64130   3.284   2.588   6.924  2.1057  0.2028  1.1816
  465MOL0     H64131   3.230   2.643   7.081  2.7654  0.5063  0.3010
  465MOL0     H64132   3.010   2.652   7.415  0.6980 -1.4679  0.9814
  465MOL0     H64133   2.802   2.749   7.492  2.1734 -1.0714  2.1462
  465MOL0     H64134   2.541   2.654   7.604  4.0213 -0.5631 -0.5218
  465MOL0     H64135   2.604   2.806   7.539 -0.6270  1.7019 -3.3743
  465MOL0     H64136   2.370   2.800   7.646  1.5983 -2.4925  0.5646
  465MOL0     H64137   2.370   2.874   7.484 -0.0278 -0.1951 -0.0134
  465MOL0     H64138   2.293   2.594   7.552 -1.3130 -0.5402 -0.2130
  465MOL0     H64139   2.281   2.646   7.391  0.8019 -3.2293  0.5303
  465MOL0     H64140   2.155   2.857   7.478  0.7340  0.8543  0.4702
  465MOL0     H64141   2.145   2.775   7.634 -0.4352  2.0642 -0.4772
  465MOL0     H64142   2.054   2.637   7.393  2.5914 -1.2268  0.4724
  465MOL0     H64143   2.022   2.584   7.554  0.3756 -0.8779 -1.5560
  465MOL0     H64144   1.892   2.836   7.419 -1.7031  0.3058  0.6812
  465MOL0     H64145   1.878   2.791   7.588  1.9410  1.9165  0.1301
  465MOL0     H64146   1.734   2.598   7.521  0.9565 -3.7285 -3.8883
  465MOL0     H64147   1.821   2.587   7.369  0.5635  0.2495  0.4262
  465MOL0     H64148   1.604   2.663   7.316 -0.1756  0.0768 -0.7275
  465MOL0     H64149   1.694   2.807   7.309 -1.4772  1.6343  0.3104
  465MOL0     H64150   2.579   2.498   7.226  1.3727 -1.5571 -1.0719
  465MOL0     H64151   2.815   2.421   7.132  2.3082 -1.1241  1.4726
  465MOL0     H64152   3.315   2.260   7.388 -0.0908  1.4396  0.0251
  465MOL0     H64153   3.476   2.155   7.290  2.0155  0.9108 -0.3002
  465MOL0     H64154   3.100   1.573   5.790 -0.6109 -1.0475  0.0482
  465MOL0     H64155   2.886   1.503   5.830  0.5539  0.4812  1.0635
  465MOL0     H64156   2.507   1.420   5.551 -1.9162 -1.6137 -2.6850
  465MOL0     H64157   2.305   1.309   5.508  2.2831 -1.0924  1.1437
  465MOL0     H64158   1.920   1.447   5.665  2.0726 -0.6991  0.5644
  465MOL0     H64159   1.949   1.557   5.522 -1.7021  0.9081 -0.0059
  465MOL0     H64160   1.730   1.420   5.518 -0.5729 -1.2089 -3.5105
  465MOL0     H64161   1.821   1.274   5.494  0.8726  0.1932 -0.6742
  465MOL0     H64162   1.822   1.503   5.310 -1.0151 -0.0219 -0.4689
  465MOL0     H64163   1.925   1.350   5.290 -0.1875  0.4113 -0.4498
  465MOL0     H64164   1.619   1.373   5.320 -2.0493  1.3667 -2.7647
  465MOL0     H64165   1.707   1.228   5.261  1.5137 -0.2379 -1.4971
  465MOL0     H64166   1.698   1.479   4.915  1.1246  1.4478 -0.1616
  465MOL0     H64167   2.088   1.639   5.686 -0.7540  0.1271 -0.0050
  465MOL0     H64168   2.310   1.857   5.680 -0.3642  0.1433 -0.2892
  465MOL0     H64169   2.194   1.795   5.801 -0.8761  0.0623 -1.1049
  465MOL0     H64170   2.375   1.781   5.828  1.5870 -0.9010 -2.3592
  466MOL0     O64171   5.052   0.177  10.333 -0.5694  0.4022  0.0509
  466MOL0     C64172   5.044   0.055  10.348  0.2574 -0.7727 -0.4088
  466MOL0     O64173   5.144  -0.021  10.384 -0.4351  0.2392  0.1493
  466MOL0     C64174   5.274   0.026  10.388  0.1233 -0.4324 -0.3082
  466MOL0     C64175   5.336   0.063  10.505  0.0391 -0.2489  0.7047
  466MOL0     C64176   5.463   0.114  10.512 -0.8064 -0.2984  0.1989
  466MOL0     C64177   5.548   0.117  10.397 -0.3333  0.9152  0.2139
  466MOL0     O64178   5.680   0.163  10.393 -0.0344  0.4574  0.1141
  466MOL0     C64179   5.779   0.074  10.347 -0.7533 -0.2652  0.4045
  466MOL0     C64180   5.915   0.146  10.373  0.0823 -0.2084 -0.7079
  466MOL0     C64181   6.029   0.046  10.332 -0.0717  0.1764 -0.7105
  466MOL0     C64182   6.158   0.089  10.407 -0.6036  0.3743 -0.2570
  466MOL0     C64183   6.286   0.012  10.367  0.1762  0.4494 -0.0774
  466MOL0     C64184   6.391   0.028  10.478  0.3705  0.3685  0.3017
  466MOL0     C64185   6.528  -0.022  10.422 -0.2150 -1.2272 -1.1298
  466MOL0     C64186   6.633  -0.033  10.545  1.3541  0.4072  0.4988
  466MOL0     N64187   6.762  -0.093  10.508  0.6495 -0.2012 -0.9240
  466MOL0     C64188   6.876  -0.047  10.571 -0.6492  0.1810  0.7796
  466MOL0     C64189   6.969  -0.128  10.519  0.3181  0.0595  0.3467
  466MOL0     C64190   7.115  -0.133  10.548  0.4532 -0.1820 -0.1539
  466MOL0     C64191   7.139  -0.178  10.701  0.7947 -0.0976 -0.3438
  466MOL0     C64192   7.282  -0.193  10.740  0.2715  0.6348  0.7200
  466MOL0     C64193   7.349  -0.056  10.729 -0.5863  0.6644 -0.5314
  466MOL0     O64194   7.491  -0.073  10.732  0.4428 -0.7587 -0.5356
  466MOL0     C64195   7.576   0.035  10.753  0.0095 -0.5288 -0.3222
  466MOL0     C64196   7.534   0.165  10.737  0.5577 -0.1184 -0.1055
  466MOL0     C64197   7.615   0.274  10.762 -0.7568  0.5356  0.4274
  466MOL0     C64198   7.555   0.409  10.748  0.0432  0.5292  0.3916
  466MOL0     C64199   7.742   0.242  10.826  0.6914  0.2176 -0.2185
  466MOL0     C64200   7.828   0.343  10.889 -0.3872 -0.5096  0.2061
  466MOL0     O64201   7.933   0.289  10.949  0.0991  0.6113  0.0188
  466MOL0     C64202   8.014   0.360  11.033 -0.6856 -0.9049 -0.2805
  466MOL0     C64203   8.146   0.316  11.039 -0.9933 -0.1557 -0.8229
  466MOL0     C64204   8.239   0.395  11.104 -0.4862  0.0208 -0.6108
  466MOL0     C64205   8.211   0.505  11.186  0.3736  0.0626 -0.1218
  466MOL0     O64206   8.296   0.578  11.269 -0.0283 -1.0690 -0.0838
  466MOL0     C64207   8.439   0.562  11.233 -1.0450  0.9184 -0.3427
  466MOL0     C64208   8.528   0.672  11.286  0.4862  0.4349 -1.1214
  466MOL0     C64209   8.673   0.632  11.298  0.3444 -0.2614  0.3752
  466MOL0     C64210   8.765   0.745  11.336  0.1425 -0.1528 -0.6130
  466MOL0     C64211   8.908   0.706  11.339 -0.1545 -0.2019 -0.2257
  466MOL0     C64212   8.991   0.803  11.429  0.6947  0.7329  0.1425
  466MOL0     C64213   9.135   0.830  11.400  0.2102 -0.0616 -0.5345
  466MOL0     C64214   9.216   0.701  11.398  0.0444  0.0566 -0.6226
  466MOL0    Cl64215   9.391   0.732  11.391  0.1294  0.1641  0.0250
  466MOL0     C64216   8.075   0.540  11.193 -0.6834 -0.1474 -0.0816
  466MOL0     C64217   7.983   0.469  11.117 -0.7209 -0.0716  0.1170
  466MOL0     O64218   7.813   0.463  10.867  0.4017  0.5160 -0.4122
  466MOL0     C64219   7.783   0.102  10.837 -1.0176  0.2375 -0.2884
  466MOL0     C64220   7.702  -0.005  10.799  0.1086 -0.4319  0.3788
  466MOL0     N64221   6.907  -0.234  10.453 -0.4214 -0.1882  1.0105
  466MOL0     N64222   6.783  -0.213  10.447 -0.0804 -0.4429  0.6583
  466MOL0     C64223   5.485   0.068  10.278 -0.2894  0.8232 -0.0307
  466MOL0     C64224   5.349   0.022  10.270 -0.4172 -0.0874  0.1076
  466MOL0     C64225   4.921  -0.020  10.312  0.9370  0.1593  0.1062
  466MOL0     C64226   4.898  -0.147  10.371  0.4743  0.4203 -0.7037
  466MOL0     C64227   4.792  -0.218  10.329  0.1468 -0.1847 -0.1457
  466MOL0     C64228   4.687  -0.178  10.250 -0.2680 -1.1751  0.2907
  466MOL0     O64229   4.574  -0.238  10.211  0.1031  0.1301  0.1508
  466MOL0     C64230   4.547  -0.368  10.232  0.5045  0.0457  0.7332
  466MOL0     C64231   4.622  -0.457  10.145 -0.1186  0.5997  0.4031
  466MOL0     C64232   4.625  -0.595  10.214  0.2814  0.8324 -0.1990
  466MOL0     C64233   4.666  -0.703  10.108 -0.7146 -0.4723  0.9419
  466MOL0     C64234   4.691  -0.825  10.170  0.0814 -0.2363 -0.7498
  466MOL0     C64235   4.722  -0.921  10.229  0.0549  0.0211 -0.5000
  466MOL0     C64236   4.708  -0.054  10.187  0.3426 -0.5510  0.0687
  466MOL0     C64237   4.823   0.020  10.213  0.1650 -0.9255 -0.8335
  466MOL0     C64238   4.835   0.155  10.147 -0.1892 -0.3498  0.2752
  466MOL0     H64239   5.269   0.051  10.589 -1.4459 -1.1794 -0.5551
  466MOL0     H64240   5.504   0.146  10.607 -2.0317 -3.3836  1.9053
  466MOL0     H64241   5.773   0.068  10.238  0.6168  2.4657  0.0905
  466MOL0     H64242   5.775  -0.024  10.395 -3.0653 -0.1163  0.6240
  466MOL0     H64243   5.933   0.240  10.319  1.8926  1.1448  2.0305
  466MOL0     H64244   5.917   0.177  10.478 -2.8098  1.5542 -1.0506
  466MOL0     H64245   6.001  -0.059  10.350  1.5474 -0.6265 -2.5275
  466MOL0     H64246   6.061   0.052  10.228  3.4539 -1.5576  0.1129
  466MOL0     H64247   6.182   0.192  10.382  2.1755 -0.0881  0.1422
  466MOL0     H64248   6.136   0.077  10.513  0.3735  0.4258 -0.0401
  466MOL0     H64249   6.331   0.049  10.274 -0.6736  2.0708  0.1198
  466MOL0     H64250   6.264  -0.096  10.367 -1.2221  0.6975  1.1453
  466MOL0     H64251   6.398   0.135  10.502  0.3299  1.0303 -2.3141
  466MOL0     H64252   6.358  -0.022  10.570 -3.3315 -0.9363 -1.5252
  466MOL0     H64253   6.574   0.050  10.354  0.3523 -1.5856 -1.1368
  466MOL0     H64254   6.526  -0.117  10.368 -2.4521 -1.3454 -0.9517
  466MOL0     H64255   6.630   0.066  10.591  1.9905  0.2653  0.8581
  466MOL0     H64256   6.579  -0.096  10.616 -2.3038  2.7665  0.0989
  466MOL0     H64257   6.895   0.034  10.641 -2.3827 -0.6469  2.2894
  466MOL0     H64258   7.154  -0.032  10.535 -1.3557  0.9302  2.3080
  466MOL0     H64259   7.156  -0.212  10.484  1.3532 -1.9370  2.3944
  466MOL0     H64260   7.100  -0.108  10.776  1.3261 -1.7466  1.5401
  466MOL0     H64261   7.091  -0.273  10.726  1.5318 -0.1529  0.9316
  466MOL0     H64262   7.290  -0.237  10.840 -0.1608 -0.6110  0.2373
  466MOL0     H64263   7.331  -0.260  10.668 -2.0946  0.5639 -0.9288
  466MOL0     H64264   7.323  -0.016  10.630 -0.9861  1.2058 -0.2081
  466MOL0     H64265   7.318   0.011  10.809  1.0801 -1.2567  1.8713
  466MOL0     H64266   7.434   0.192  10.704  0.4486  2.0158  1.7707
  466MOL0     H64267   7.625   0.475  10.695  2.0570 -0.4753  1.6383
  466MOL0     H64268   7.543   0.457  10.846  3.6742  3.0979 -0.1982
  466MOL0     H64269   7.460   0.399  10.695  0.0722  0.8526  0.2710
  466MOL0     H64270   8.178   0.236  10.974  3.9710  3.2672 -3.2244
  466MOL0     H64271   8.342   0.364  11.090  0.0718  2.1371 -1.7601
  466MOL0     H64272   8.459   0.465  11.278  0.4969  0.6462 -1.5267
  466MOL0     H64273   8.464   0.558  11.127 -0.5931  0.1255 -0.2108
  466MOL0     H64274   8.515   0.758  11.220 -2.3265 -0.8896 -2.4854
  466MOL0     H64275   8.487   0.702  11.383 -1.9629  1.9151 -2.4937
  466MOL0     H64276   8.691   0.592  11.197  0.3854  1.2921 -0.2628
  466MOL0     H64277   8.689   0.550  11.368 -3.2730 -3.3993 -2.0791
  466MOL0     H64278   8.729   0.788  11.430 -1.1133  1.7288 -1.8851
  466MOL0     H64279   8.748   0.816  11.254 -0.6658 -0.1467 -0.4522
  466MOL0     H64280   8.915   0.603  11.376 -0.7207 -0.4090 -0.6761
  466MOL0     H64281   8.943   0.712  11.235  1.8153  0.1691  0.4143
  466MOL0     H64282   8.971   0.766  11.530  0.0131  3.3557  1.0448
  466MOL0     H64283   8.934   0.896  11.420  1.0033  0.8129 -1.3384
  466MOL0     H64284   9.170   0.883  11.489 -2.6146  0.6365  0.2541
  466MOL0     H64285   9.146   0.894  11.312 -2.5587  0.7035 -0.4117
  466MOL0     H64286   9.185   0.647  11.308  0.2021  0.9629 -1.2277
  466MOL0     H64287   9.199   0.645  11.491 -0.7010 -0.1815 -0.8957
  466MOL0     H64288   8.047   0.610  11.272  0.5981  0.5409 -0.2103
  466MOL0     H64289   7.877   0.494  11.114 -0.6533  0.1233 -0.6354
  466MOL0     H64290   7.872   0.065  10.887 -0.6217 -0.3119 -1.3648
  466MOL0     H64291   7.735  -0.108  10.803 -1.9366 -1.1409  0.5033
  466MOL0     H64292   5.547   0.064  10.188 -1.6132 -3.0248 -0.9713
  466MOL0     H64293   5.310  -0.011  10.174 -1.1257  2.0758 -0.4150
  466MOL0     H64294   4.973  -0.177  10.444  0.6428  0.8331 -0.7007
  466MOL0     H64295   4.781  -0.319  10.366  0.7865  0.1485  1.0006
  466MOL0     H64296   4.574  -0.396  10.334  0.7423 -0.4979  0.5233
  466MOL0     H64297   4.442  -0.391  10.214  0.6800 -1.2112  1.1961
  466MOL0     H64298   4.729  -0.432  10.142  1.0454 -3.2512  2.7946
  466MOL0     H64299   4.574  -0.458  10.047 -2.4730  1.0138  1.4765
  466MOL0     H64300   4.678  -0.593  10.309 -3.7118 -1.5241  2.3835
  466MOL0     H64301   4.525  -0.626  10.247 -0.0388  2.4813  0.4645
  466MOL0     H64302   4.756  -0.659  10.065 -1.9259  2.2638  1.0189
  466MOL0     H64303   4.590  -0.725  10.032 -0.0881  2.0692 -0.5242
  466MOL0     H64304   4.737  -1.009  10.289  0.7122 -0.2122 -0.9951
  466MOL0     H64305   4.634  -0.023  10.114 -0.0433  1.3232  1.1843
  466MOL0     H64306   4.931   0.160  10.094 -1.2970  1.1903 -1.7142
  466MOL0     H64307   4.751   0.158  10.077  0.5104 -2.1107 -0.7156
  466MOL0     H64308   4.823   0.230  10.225 -2.5394 -0.9995  0.5941
  467MOL0     O64309   9.479   0.456   4.212  0.3548  0.2940 -0.1194
  467MOL0     C64310   9.581   0.395   4.240 -0.8752 -0.2779  1.0807
  467MOL0     O64311   9.596   0.310   4.345  1.0704  0.3035  0.6038
  467MOL0     C64312   9.484   0.276   4.418  0.5631  0.6973 -0.4082
  467MOL0     C64313   9.504   0.268   4.558 -0.5026 -0.4691  0.5300
  467MOL0     C64314   9.402   0.242   4.640 -0.0426 -0.0984  0.3838
  467MOL0     C64315   9.275   0.213   4.588 -0.5632  0.1996 -0.7121
  467MOL0     O64316   9.162   0.193   4.653  0.2196  0.6592 -0.6542
  467MOL0     C64317   9.166   0.102   4.769  1.0590  0.1585 -0.8959
  467MOL0     C64318   9.032   0.063   4.825  0.4966 -0.1829 -0.2946
  467MOL0     C64319   8.958   0.182   4.866 -0.0982  0.0352 -0.6557
  467MOL0     C64320   9.033   0.257   4.981  0.2957  0.5432 -0.6889
  467MOL0     C64321   8.942   0.349   5.056  0.3094  1.2929  0.1113
  467MOL0     C64322   9.020   0.423   5.162 -0.8746  0.2085 -0.0804
  467MOL0     C64323   8.940   0.526   5.235  0.1147 -1.0493 -0.3487
  467MOL0     C64324   9.017   0.581   5.355  0.4026 -0.5067 -0.4351
  467MOL0     N64325   9.130   0.664   5.326 -0.2474 -0.0371  0.8158
  467MOL0     C64326   9.196   0.733   5.428  0.3760  0.6301  0.0167
  467MOL0     C64327   9.312   0.784   5.371 -0.3184 -0.3858 -0.6679
  467MOL0     C64328   9.396   0.895   5.434 -0.8044  0.3415  0.3686
  467MOL0     C64329   9.542   0.861   5.460 -0.2319 -0.0919  0.9721
  467MOL0     C64330   9.571   0.744   5.562  0.3995  0.5301 -0.4349
  467MOL0     C64331   9.724   0.720   5.578  0.0966 -0.1148 -0.0479
  467MOL0     O64332   9.806   0.839   5.606  0.6782 -0.5792 -0.2506
  467MOL0     C64333   9.930   0.837   5.633 -0.2437 -0.5654  0.2133
  467MOL0     C64334  10.012   0.724   5.646 -0.5366 -0.1899  0.3054
  467MOL0     C64335  10.150   0.736   5.675 -0.0728 -0.1011 -0.0200
  467MOL0     C64336  10.208   0.598   5.703 -0.2098 -0.3376 -0.5368
  467MOL0     C64337  10.213   0.862   5.684 -0.4357  0.1678  0.8417
  467MOL0     C64338  10.355   0.896   5.712 -0.2987 -0.1194 -0.6227
  467MOL0     O64339  10.375   1.021   5.764 -1.0609  0.3342  0.4578
  467MOL0     C64340  10.504   1.079   5.780  0.3908 -0.2001 -0.4431
  467MOL0     C64341  10.598   1.035   5.684  0.1046 -0.5792 -0.5301
  467MOL0     C64342  10.732   1.070   5.706  0.2064  0.8933  0.7595
  467MOL0     C64343  10.771   1.143   5.816 -0.3201  0.5450  0.5789
  467MOL0     O64344  10.901   1.181   5.849 -0.1739 -0.4049 -0.0259
  467MOL0     C64345  11.003   1.160   5.758 -0.6456 -0.1176 -0.1035
  467MOL0     C64346  11.136   1.204   5.826 -0.3562  0.1626 -1.1550
  467MOL0     C64347  11.252   1.183   5.729  1.2861 -0.1754  0.1586
  467MOL0     C64348  11.380   1.204   5.793  0.2768  0.2039 -0.0815
  467MOL0     C64349  11.498   1.197   5.702 -0.4723 -0.3640  0.1409
  467MOL0     C64350  11.498   1.311   5.603  0.4552 -0.3020  0.2600
  467MOL0     C64351  11.645   1.351   5.572  0.2961  0.1622  1.3194
  467MOL0     C64352  11.670   1.453   5.458 -0.2797  0.3549  0.9143
  467MOL0    Cl64353  11.547   1.580   5.424  0.0607 -0.0335 -0.0005
  467MOL0     C64354  10.675   1.176   5.911  0.1041 -0.8224 -0.4235
  467MOL0     C64355  10.541   1.141   5.895 -0.2475  0.3425 -0.0067
  467MOL0     O64356  10.432   0.796   5.704  0.3540 -0.4668 -0.2279
  467MOL0     C64357  10.123   0.969   5.663  0.1656  0.3453  0.5655
  467MOL0     C64358   9.990   0.957   5.641 -0.1457 -0.3864  0.5076
  467MOL0     N64359   9.314   0.738   5.235 -0.5995  0.3815 -0.6724
  467MOL0     N64360   9.202   0.667   5.213  0.2863  0.5955  0.3235
  467MOL0     C64361   9.256   0.213   4.446 -0.3669  0.0459 -1.7305
  467MOL0     C64362   9.361   0.239   4.362 -0.3498 -0.0046  0.4271
  467MOL0     C64363   9.697   0.402   4.135 -0.2143 -0.0062 -0.7999
  467MOL0     C64364   9.804   0.319   4.162  0.1615  0.2254 -0.3843
  467MOL0     C64365   9.912   0.328   4.089  0.2069 -0.2376  0.4079
  467MOL0     C64366   9.926   0.425   3.984  0.3167 -0.8992  0.2332
  467MOL0     O64367  10.037   0.422   3.894 -0.1651 -0.0643 -0.5221
  467MOL0     C64368  10.163   0.363   3.941  0.6805 -0.7443  0.2478
  467MOL0     C64369  10.248   0.453   4.021  1.2200 -0.1233 -0.1866
  467MOL0     C64370  10.292   0.587   3.968  0.2590 -0.1315  0.5024
  467MOL0     C64371  10.358   0.666   4.084  0.6377  0.2166  0.4679
  467MOL0     C64372  10.481   0.607   4.137  0.1383 -0.5752 -0.4368
  467MOL0     C64373  10.580   0.548   4.185  0.4995 -0.6763 -0.2442
  467MOL0     C64374   9.828   0.518   3.958 -0.4499 -0.1340 -0.5432
  467MOL0     C64375   9.711   0.504   4.032  0.3254  0.1110 -0.4909
  467MOL0     C64376   9.609   0.608   4.003 -0.1852  0.3882 -0.8391
  467MOL0     H64377   9.597   0.308   4.596  0.2826 -1.0634 -0.7137
  467MOL0     H64378   9.426   0.256   4.745  1.1605 -1.1610  0.2802
  467MOL0     H64379   9.226   0.146   4.849  0.3088 -0.9213  0.2915
  467MOL0     H64380   9.228   0.015   4.746 -0.8940 -1.3042 -0.9451
  467MOL0     H64381   8.975   0.013   4.746  0.6091 -0.9023  0.0705
  467MOL0     H64382   9.039  -0.004   4.911  0.1726  1.9938  1.4992
  467MOL0     H64383   8.936   0.251   4.784  2.2198  1.3435 -0.2735
  467MOL0     H64384   8.862   0.151   4.908 -0.4794  0.5438 -1.1510
  467MOL0     H64385   9.077   0.179   5.043 -2.9078 -2.1330 -1.5077
  467MOL0     H64386   9.115   0.311   4.931  0.6094 -0.6632 -1.5285
  467MOL0     H64387   8.864   0.290   5.105  1.7112 -0.4948  0.3081
  467MOL0     H64388   8.891   0.415   4.985  0.8252  0.3293 -1.1996
  467MOL0     H64389   9.071   0.346   5.221 -2.2090 -2.0030 -1.6840
  467MOL0     H64390   9.098   0.473   5.104 -0.0042 -1.6700 -0.5938
  467MOL0     H64391   8.847   0.484   5.276  0.7687 -0.4809  1.8776
  467MOL0     H64392   8.906   0.603   5.165  1.2066  0.8890  1.1387
  467MOL0     H64393   8.943   0.642   5.408  1.1492 -0.1707  0.2429
  467MOL0     H64394   9.052   0.503   5.422 -1.9512  1.0445  2.9119
  467MOL0     H64395   9.142   0.768   5.515 -1.7036  0.9326 -1.3251
  467MOL0     H64396   9.346   0.918   5.528 -0.8533 -0.0490  0.4392
  467MOL0     H64397   9.396   0.983   5.368 -0.7781 -1.9827 -3.0264
  467MOL0     H64398   9.585   0.833   5.363 -1.0547 -1.1112  0.8822
  467MOL0     H64399   9.595   0.950   5.493  1.5421 -0.4356 -0.7596
  467MOL0     H64400   9.529   0.770   5.659  1.1509  3.8355 -0.8560
  467MOL0     H64401   9.533   0.650   5.521  1.4865  0.3884 -1.1800
  467MOL0     H64402   9.739   0.645   5.656  0.0921  0.4396  0.4921
  467MOL0     H64403   9.759   0.689   5.479 -0.7688  3.7394 -1.7585
  467MOL0     H64404   9.966   0.626   5.635  0.4833 -0.4362 -3.1332
  467MOL0     H64405  10.156   0.509   5.666  1.5025 -1.1699 -1.0498
  467MOL0     H64406  10.235   0.589   5.809 -0.6564  2.1203 -0.1569
  467MOL0     H64407  10.295   0.600   5.637 -1.2455 -0.7774 -1.9753
  467MOL0     H64408  10.564   0.983   5.595 -3.3160  0.4691  0.0052
  467MOL0     H64409  10.794   1.037   5.623 -1.0020  1.7050 -0.5106
  467MOL0     H64410  11.008   1.052   5.741  0.7818 -0.6763  3.1279
  467MOL0     H64411  10.978   1.200   5.659 -2.8130  0.7319  0.7375
  467MOL0     H64412  11.139   1.307   5.861  0.8343  0.0518 -0.8748
  467MOL0     H64413  11.150   1.138   5.913 -4.5596 -2.8003 -2.3746
  467MOL0     H64414  11.245   1.253   5.646  1.8474  2.1557  1.9691
  467MOL0     H64415  11.245   1.079   5.697  1.4220 -0.5437  1.2652
  467MOL0     H64416  11.390   1.130   5.873 -0.6232  0.5468  0.3643
  467MOL0     H64417  11.377   1.301   5.843  0.4181 -0.3516  1.0363
  467MOL0     H64418  11.588   1.207   5.763  0.0811  1.3238 -0.8600
  467MOL0     H64419  11.504   1.096   5.660  0.2816 -0.7934  1.2447
  467MOL0     H64420  11.443   1.403   5.629 -1.9389 -0.6854 -2.8468
  467MOL0     H64421  11.440   1.277   5.517  3.1781  0.4856 -2.0010
  467MOL0     H64422  11.700   1.258   5.555 -2.5227 -1.6887  1.6902
  467MOL0     H64423  11.680   1.405   5.660  1.9720 -0.5800  1.1645
  467MOL0     H64424  11.678   1.390   5.369  2.9400  1.2136  0.4707
  467MOL0     H64425  11.768   1.500   5.470  0.0555  0.1927 -0.9383
  467MOL0     H64426  10.713   1.219   6.003  0.1145  0.6938 -1.1008
  467MOL0     H64427  10.467   1.157   5.973 -0.6393 -0.6396 -0.1539
  467MOL0     H64428  10.158   1.071   5.675  1.8552  0.2681 -2.6787
  467MOL0     H64429   9.920   1.040   5.629 -2.7880 -2.5151  0.0724
  467MOL0     H64430   9.159   0.198   4.400 -0.2637  2.3405 -2.8645
  467MOL0     H64431   9.342   0.248   4.255  2.8365  0.4396 -0.2011
  467MOL0     H64432   9.806   0.243   4.240  2.2777 -0.8263 -1.3969
  467MOL0     H64433   9.988   0.252   4.103  0.7000  0.3668  1.0856
  467MOL0     H64434  10.141   0.264   3.982 -2.2911 -0.6339 -0.7876
  467MOL0     H64435  10.228   0.331   3.859  0.1116 -2.5684  0.4637
  467MOL0     H64436  10.331   0.388   4.049 -0.4113 -2.0520  0.4140
  467MOL0     H64437  10.182   0.461   4.107 -0.4225 -2.1789 -1.1895
  467MOL0     H64438  10.356   0.579   3.880  1.1611 -0.4976  1.1836
  467MOL0     H64439  10.203   0.643   3.936  0.3860  0.2476  0.8042
  467MOL0     H64440  10.285   0.677   4.165  2.9341  0.4082  2.6190
  467MOL0     H64441  10.395   0.762   4.047  1.5947  0.2286  1.3936
  467MOL0     H64442  10.655   0.493   4.238 -2.0806 -3.2107  1.0193
  467MOL0     H64443   9.833   0.597   3.884 -0.1528 -1.4988 -2.0254
  467MOL0     H64444   9.526   0.555   3.955 -2.5464  3.0271  0.0678
  467MOL0     H64445   9.580   0.662   4.094 -0.2003  0.4926 -0.9053
  467MOL0     H64446   9.649   0.689   3.942  0.0808  0.3868 -0.6666
  468MOL0     O64447   9.822   8.367  11.251  0.1142  0.2072 -0.2982
  468MOL0     C64448   9.922   8.380  11.320 -0.6859  0.0557  0.3070
  468MOL0     O64449   9.931   8.410  11.458  0.3929 -0.2794 -0.4546
  468MOL0     C64450   9.824   8.397  11.540  0.2177 -0.4018  0.3922
  468MOL0     C64451   9.852   8.466  11.658  0.2839 -1.1160 -0.0089
  468MOL0     C64452   9.747   8.485  11.748  0.0706  0.3787  0.0019
  468MOL0     C64453   9.625   8.426  11.723  0.9020 -0.3614  0.1429
  468MOL0     O64454   9.521   8.455  11.811 -0.8493 -0.2550  0.0138
  468MOL0     C64455   9.384   8.433  11.772 -0.7760 -0.6476 -0.3041
  468MOL0     C64456   9.305   8.429  11.902 -0.4867  0.2392  0.0926
  468MOL0     C64457   9.318   8.554  11.998 -1.2918 -0.5779  0.0808
  468MOL0     C64458   9.241   8.527  12.122 -0.1951 -0.0394  0.1891
  468MOL0     C64459   9.253   8.620  12.241  0.1715  0.6804 -1.0286
  468MOL0     C64460   9.176   8.744  12.211 -0.1408  0.1245  0.5382
  468MOL0     C64461   9.030   8.753  12.176  0.4412  0.4386 -0.0073
  468MOL0     C64462   8.953   8.676  12.273  0.5393 -0.6844 -0.5257
  468MOL0     N64463   8.816   8.638  12.229 -0.3897  0.4726  0.8389
  468MOL0     C64464   8.790   8.532  12.142 -0.1563 -0.3977 -0.4948
  468MOL0     C64465   8.658   8.525  12.146  0.5142 -0.4511  0.2449
  468MOL0     C64466   8.584   8.424  12.067  0.6768 -0.2180  1.0267
  468MOL0     C64467   8.512   8.500  11.939 -0.6877  0.6314 -0.2087
  468MOL0     C64468   8.499   8.396  11.821  0.6204 -0.3210 -0.7114
  468MOL0     C64469   8.363   8.341  11.829  0.3188 -0.0137  0.1490
  468MOL0     O64470   8.270   8.447  11.794 -0.2129  0.9224  0.5659
  468MOL0     C64471   8.173   8.415  11.704 -0.3148 -0.4158 -0.4402
  468MOL0     C64472   8.137   8.507  11.605  0.1021  0.0221 -0.2267
  468MOL0     C64473   8.043   8.473  11.504 -0.1349  0.4118  0.5864
  468MOL0     C64474   7.999   8.585  11.411  0.0209  0.2080  0.3585
  468MOL0     C64475   7.980   8.345  11.504 -0.1751  0.5628 -0.3734
  468MOL0     C64476   7.894   8.294  11.396 -0.1029  0.5754 -0.3326
  468MOL0     O64477   7.828   8.179  11.427 -0.0018 -1.2726 -0.8491
  468MOL0     C64478   7.743   8.134  11.332 -0.3039 -0.3179 -0.1983
  468MOL0     C64479   7.794   8.047  11.237  0.2035  0.1699  0.1073
  468MOL0     C64480   7.701   7.971  11.161  0.0507  0.1197  0.0787
  468MOL0     C64481   7.566   8.010  11.154  0.1314 -0.9555  0.2721
  468MOL0     O64482   7.470   7.947  11.080 -0.1350 -0.3231  0.6403
  468MOL0     C64483   7.511   7.868  10.967  0.3624 -0.4051 -0.3744
  468MOL0     C64484   7.584   7.957  10.865 -0.0880  0.0754  0.9833
  468MOL0     C64485   7.540   7.927  10.713  0.2676  0.6291 -0.2633
  468MOL0     C64486   7.651   7.979  10.614 -0.4242 -0.0144  0.1950
  468MOL0     C64487   7.641   7.917  10.476 -0.4260 -0.5409  0.2928
  468MOL0     C64488   7.731   7.976  10.364  0.7582 -0.2080 -0.3714
  468MOL0     C64489   7.698   7.901  10.232 -0.2001  0.9706 -0.1932
  468MOL0     C64490   7.756   7.968  10.103 -0.7097 -0.7233 -0.0332
  468MOL0    Cl64491   7.942   8.024  10.112 -0.0026  0.5341 -0.1164
  468MOL0     C64492   7.516   8.110  11.237  0.7834  0.3405 -0.5220
  468MOL0     C64493   7.600   8.167  11.337 -0.2369 -0.5285 -0.0328
  468MOL0     O64494   7.888   8.349  11.284 -0.7217  0.0882 -0.4505
  468MOL0     C64495   8.003   8.264  11.619  0.2262 -1.0727  0.2919
  468MOL0     C64496   8.101   8.287  11.710 -0.6290 -0.0744 -0.0659
  468MOL0     N64497   8.603   8.617  12.242  0.3367 -0.4190 -0.3430
  468MOL0     N64498   8.704   8.690  12.285 -0.7545  0.4244 -0.5383
  468MOL0     C64499   9.596   8.363  11.606 -0.4736 -0.2499  0.5731
  468MOL0     C64500   9.696   8.343  11.510  0.6328  0.5669  0.2239
  468MOL0     C64501  10.049   8.347  11.261  0.3302 -0.3451  0.4688
  468MOL0     C64502  10.166   8.405  11.319 -0.6043 -0.6865  0.2418
  468MOL0     C64503  10.289   8.399  11.264  0.1757  0.5046  0.2526
  468MOL0     C64504  10.307   8.313  11.149  0.2125 -0.5033  0.0948
  468MOL0     O64505  10.430   8.293  11.095  0.7201 -0.1782  0.2389
  468MOL0     C64506  10.490   8.166  11.102  0.7398 -0.6797  1.0042
  468MOL0     C64507  10.603   8.159  11.216  0.4762 -0.8382  0.6339
  468MOL0     C64508  10.721   8.237  11.156  0.6092 -0.8177  0.6905
  468MOL0     C64509  10.821   8.282  11.264  0.3334 -0.0827  0.5839
  468MOL0     C64510  10.957   8.308  11.212  0.3137 -0.3778  0.2238
  468MOL0     C64511  11.065   8.326  11.161  0.9496 -0.2788  0.8036
  468MOL0     C64512  10.192   8.251  11.092 -0.2608 -0.1628  0.5414
  468MOL0     C64513  10.070   8.257  11.156 -0.2364  0.6836 -0.4376
  468MOL0     C64514   9.961   8.173  11.103  0.1161 -0.5832  0.4004
  468MOL0     H64515   9.945   8.518  11.676 -0.1105 -0.4042 -0.0096
  468MOL0     H64516   9.759   8.548  11.836 -3.9459 -0.3485  1.2432
  468MOL0     H64517   9.371   8.329  11.741  0.8181 -0.2033 -2.7531
  468MOL0     H64518   9.346   8.513  11.707  3.9327  2.9478  0.7861
  468MOL0     H64519   9.199   8.425  11.875 -0.6428  3.1952 -0.0510
  468MOL0     H64520   9.330   8.336  11.954  0.9068 -0.5546 -1.8613
  468MOL0     H64521   9.421   8.555  12.035 -1.6671 -1.8134  1.2509
  468MOL0     H64522   9.285   8.646  11.948  2.2721  0.1119 -1.3218
  468MOL0     H64523   9.138   8.528  12.084 -0.1336 -1.1093 -0.0408
  468MOL0     H64524   9.277   8.432  12.161  3.9265  0.8900 -0.8764
  468MOL0     H64525   9.357   8.652  12.248  1.2317 -2.4364 -0.8216
  468MOL0     H64526   9.218   8.574  12.334  1.9281  1.0513 -0.1359
  468MOL0     H64527   9.199   8.803  12.300 -0.7797 -1.4574  1.8098
  468MOL0     H64528   9.241   8.781  12.130 -2.9569 -0.1416 -1.9988
  468MOL0     H64529   9.025   8.714  12.074  1.5520 -0.6829  0.3451
  468MOL0     H64530   8.990   8.855  12.171  0.8059  0.5592 -4.3375
  468MOL0     H64531   9.000   8.585  12.312  3.2433  0.5578 -0.6838
  468MOL0     H64532   8.934   8.730  12.367 -2.1240 -2.7135  0.2208
  468MOL0     H64533   8.854   8.480  12.071  1.6688  0.6346  0.3163
  468MOL0     H64534   8.502   8.374  12.120 -0.3900 -1.3448 -1.5307
  468MOL0     H64535   8.655   8.346  12.038  0.9721  0.4887 -0.2249
  468MOL0     H64536   8.414   8.540  11.966 -0.9562 -0.3799  0.3371
  468MOL0     H64537   8.574   8.584  11.903 -3.2508  2.0132 -1.7432
  468MOL0     H64538   8.495   8.442  11.723 -1.4199 -0.0336 -0.5380
  468MOL0     H64539   8.569   8.312  11.818 -1.4800 -2.1695 -1.1673
  468MOL0     H64540   8.364   8.251  11.767 -0.5859 -0.4846  0.8029
  468MOL0     H64541   8.334   8.321  11.932 -1.2730 -1.6831 -0.5737
  468MOL0     H64542   8.182   8.604  11.623 -1.6884  0.5238  1.9572
  468MOL0     H64543   7.890   8.574  11.405  0.2273 -1.3909 -2.1975
  468MOL0     H64544   8.034   8.575  11.308 -0.2370  0.0786  0.2810
  468MOL0     H64545   8.016   8.687  11.446 -1.8767  0.6501  0.1418
  468MOL0     H64546   7.893   8.006  11.251 -0.2455 -0.9491  0.1731
  468MOL0     H64547   7.747   7.903  11.090  1.0770  1.3943 -0.5292
  468MOL0     H64548   7.562   7.774  10.992 -0.5278 -1.0399 -0.8978
  468MOL0     H64549   7.419   7.829  10.922 -0.1174 -0.4424  0.5987
  468MOL0     H64550   7.577   8.062  10.893 -0.3407  0.5999 -0.8870
  468MOL0     H64551   7.687   7.923  10.880  1.2130  1.9703 -2.4005
  468MOL0     H64552   7.439   7.967  10.705 -0.9773 -1.9348  1.2691
  468MOL0     H64553   7.522   7.819  10.704  0.7640  0.1537  3.1216
  468MOL0     H64554   7.750   7.950  10.649 -0.2400  1.3029  0.8235
  468MOL0     H64555   7.644   8.086  10.592 -1.0512 -0.1447 -0.2853
  468MOL0     H64556   7.656   7.810  10.494 -0.0183 -0.3402  1.1944
  468MOL0     H64557   7.539   7.939  10.443  0.5241 -0.1810 -2.7403
  468MOL0     H64558   7.837   7.967  10.386  0.8112 -2.0015 -1.1397
  468MOL0     H64559   7.700   8.079  10.344 -0.0489 -0.1991  0.8036
  468MOL0     H64560   7.592   7.889  10.206  0.1907 -1.7275 -0.8503
  468MOL0     H64561   7.740   7.804  10.261 -1.0452  0.4769 -0.5695
  468MOL0     H64562   7.694   8.053  10.073  0.1915 -0.7533 -2.1533
  468MOL0     H64563   7.738   7.893  10.025  1.3222  0.1048 -1.3913
  468MOL0     H64564   7.408   8.122  11.232  1.0062  2.2982 -1.4696
  468MOL0     H64565   7.565   8.231  11.418 -1.5272 -3.6255  2.0525
  468MOL0     H64566   7.946   8.173  11.633  1.3936 -1.9095 -0.2637
  468MOL0     H64567   8.131   8.213  11.784  0.2053  0.7596  0.4504
  468MOL0     H64568   9.497   8.330  11.575 -0.2194 -0.8434  0.3772
  468MOL0     H64569   9.676   8.287  11.419  0.6270  0.3587  0.3536
  468MOL0     H64570  10.155   8.466  11.408  3.0856 -1.8960  1.7095
  468MOL0     H64571  10.371   8.455  11.308 -2.4258  3.1867  2.1438
  468MOL0     H64572  10.411   8.098  11.133  0.6999  0.1618  2.8929
  468MOL0     H64573  10.528   8.129  11.006 -0.2039 -1.1080  0.7900
  468MOL0     H64574  10.633   8.055  11.233 -0.1466 -1.2033 -0.3899
  468MOL0     H64575  10.575   8.201  11.313  1.7366  1.6504 -0.0155
  468MOL0     H64576  10.779   8.171  11.091  1.6893  2.0912 -1.5577
  468MOL0     H64577  10.679   8.325  11.105  0.1783  0.2432  2.7788
  468MOL0     H64578  10.834   8.196  11.330 -2.3354 -1.4705 -0.5563
  468MOL0     H64579  10.771   8.363  11.318  1.3646  0.8058  0.2433
  468MOL0     H64580  11.158   8.338  11.109 -0.3878  1.1360 -1.4141
  468MOL0     H64581  10.204   8.195  11.001  0.4903  0.3962  0.2851
  468MOL0     H64582   9.889   8.149  11.182 -3.8926  1.8041 -2.1325
  468MOL0     H64583   9.900   8.219  11.025 -1.4994 -0.3635  1.7378
  468MOL0     H64584  10.008   8.084  11.060  2.1139 -0.7227  2.7086
  469MOL0     O64585   8.337   0.814   9.429  0.1730 -0.5155  0.3259
  469MOL0     C64586   8.266   0.756   9.508 -0.0818 -0.3150 -0.5346
  469MOL0     O64587   8.308   0.674   9.610  0.2877 -0.0676  0.0426
  469MOL0     C64588   8.437   0.645   9.622  0.3750  0.1367 -1.0133
  469MOL0     C64589   8.531   0.724   9.691  0.2144 -0.2236 -0.0929
  469MOL0     C64590   8.662   0.680   9.710  1.6004 -0.4490  0.4425
  469MOL0     C64591   8.710   0.555   9.660  0.3789 -0.0472  0.0733
  469MOL0     O64592   8.842   0.543   9.660 -0.1886  0.8300 -0.1355
  469MOL0     C64593   8.896   0.468   9.548 -0.2613 -0.3235  0.1911
  469MOL0     C64594   9.046   0.458   9.548  0.1538 -0.4709  0.0991
  469MOL0     C64595   9.113   0.598   9.556  0.1262 -0.8299 -0.4793
  469MOL0     C64596   9.258   0.582   9.524 -0.6985 -0.2149 -0.3182
  469MOL0     C64597   9.333   0.716   9.497  0.7925  0.7052  0.1154
  469MOL0     C64598   9.295   0.792   9.363 -1.0502  0.1470  0.0758
  469MOL0     C64599   9.339   0.934   9.346  0.3838  0.3077  0.0031
  469MOL0     C64600   9.291   0.992   9.222  0.2265  0.4988  0.6053
  469MOL0     N64601   9.365   1.112   9.172  0.5735  0.2662  0.3119
  469MOL0     C64602   9.491   1.105   9.138  0.0165 -0.2097 -0.1213
  469MOL0     C64603   9.519   1.231   9.100  0.6948  0.4944  1.3725
  469MOL0     C64604   9.663   1.277   9.072  0.8182  0.0835  0.1860
  469MOL0     C64605   9.717   1.211   8.938  0.0913  0.5623 -0.0819
  469MOL0     C64606   9.867   1.243   8.907  0.1251 -0.4809 -0.5537
  469MOL0     C64607   9.948   1.164   9.017  0.1748 -0.1948 -0.0107
  469MOL0     O64608  10.087   1.189   8.997 -0.0355  0.4018 -0.1082
  469MOL0     C64609  10.177   1.098   9.047  0.1094  0.3689 -1.3075
  469MOL0     C64610  10.148   0.988   9.136  0.0501 -0.0619  0.6762
  469MOL0     C64611  10.251   0.908   9.186 -0.2412 -1.6585  0.3585
  469MOL0     C64612  10.212   0.796   9.274 -0.1582 -0.1793 -0.3748
  469MOL0     C64613  10.382   0.937   9.158 -0.4971  0.7894  1.2895
  469MOL0     C64614  10.502   0.862   9.209  0.9089 -0.2789  0.6539
  469MOL0     O64615  10.485   0.734   9.257  0.0451  0.5236  0.8627
  469MOL0     C64616  10.584   0.680   9.330  0.2034 -0.5596 -0.0677
  469MOL0     C64617  10.699   0.642   9.259 -0.3123 -0.4635  0.3265
  469MOL0     C64618  10.810   0.572   9.324 -0.3189 -1.0540  0.2502
  469MOL0     C64619  10.790   0.532   9.460 -0.6810  0.4758  0.0433
  469MOL0     O64620  10.883   0.458   9.528 -0.1800 -0.0951  0.3717
  469MOL0     C64621  10.949   0.531   9.628 -0.0297  0.4753  0.2651
  469MOL0     C64622  11.094   0.478   9.648 -0.1001  0.7272  0.3910
  469MOL0     C64623  11.156   0.392   9.531  0.5750  0.2594 -0.0031
  469MOL0     C64624  11.298   0.363   9.565  1.5563  0.2943  0.2064
  469MOL0     C64625  11.367   0.280   9.454 -0.2023  0.2080  0.2223
  469MOL0     C64626  11.520   0.265   9.477 -0.0693 -0.8854  0.4265
  469MOL0     C64627  11.575   0.147   9.403  0.2421  0.5686  0.9586
  469MOL0     C64628  11.730   0.127   9.406 -0.6109  0.8001 -0.2252
  469MOL0    Cl64629  11.808   0.275   9.345 -0.2439 -0.1450  0.4737
  469MOL0     C64630  10.673   0.569   9.523 -0.5692 -0.1575  0.1193
  469MOL0     C64631  10.575   0.655   9.470  0.3408  0.0064 -0.0519
  469MOL0     O64632  10.612   0.924   9.219 -0.0948  0.7180 -0.7194
  469MOL0     C64633  10.411   1.044   9.076  0.0514 -0.0506  0.2103
  469MOL0     C64634  10.312   1.126   9.024  0.1640  0.1120  0.3001
  469MOL0     N64635   9.408   1.309   9.107  0.3674 -0.3151 -1.1974
  469MOL0     N64636   9.313   1.235   9.160  0.5367 -0.0323 -0.5208
  469MOL0     C64637   8.615   0.469   9.598 -0.6666 -0.3983 -1.1781
  469MOL0     C64638   8.478   0.513   9.591  0.4191 -0.7294 -0.1115
  469MOL0     C64639   8.125   0.807   9.522 -0.0865 -0.4449  0.1719
  469MOL0     C64640   8.082   0.820   9.655 -0.2061  0.3156  0.5089
  469MOL0     C64641   7.952   0.864   9.686 -0.0132 -0.2522  0.7537
  469MOL0     C64642   7.869   0.904   9.586 -0.1520 -0.0244  0.6074
  469MOL0     O64643   7.751   0.961   9.637  0.3411  0.0408  0.2063
  469MOL0     C64644   7.684   1.061   9.555  0.3523 -0.5069 -0.5828
  469MOL0     C64645   7.578   1.119   9.646  0.5982 -0.7216  0.6271
  469MOL0     C64646   7.623   1.196   9.766 -0.7298 -0.0626 -0.7062
  469MOL0     C64647   7.520   1.265   9.853  0.3262  0.0334 -0.0207
  469MOL0     C64648   7.568   1.345   9.965  0.5028  0.2136  0.4081
  469MOL0     C64649   7.615   1.418  10.050  0.5822 -0.0043  0.8737
  469MOL0     C64650   7.914   0.901   9.447  0.3774  0.0999  0.2589
  469MOL0     C64651   8.039   0.840   9.413 -0.5428 -0.3334 -0.4628
  469MOL0     C64652   8.071   0.813   9.272 -0.5352 -0.0225 -0.0719
  469MOL0     H64653   8.513   0.828   9.720  3.9921 -0.1270  2.5946
  469MOL0     H64654   8.729   0.752   9.756  0.1455 -1.5009  4.6890
  469MOL0     H64655   8.851   0.498   9.453  3.6644 -0.9608 -2.0825
  469MOL0     H64656   8.868   0.364   9.567  0.5469 -0.8281 -1.2324
  469MOL0     H64657   9.085   0.408   9.638  1.9702 -3.4946 -2.1691
  469MOL0     H64658   9.084   0.399   9.464 -3.3945 -0.6640 -1.5345
  469MOL0     H64659   9.062   0.665   9.486  0.9106 -0.9330 -1.1652
  469MOL0     H64660   9.096   0.621   9.662  0.4636 -1.4733 -0.2835
  469MOL0     H64661   9.300   0.530   9.611 -1.2925 -0.6234 -0.2637
  469MOL0     H64662   9.279   0.511   9.444  2.6861 -0.6954  0.8329
  469MOL0     H64663   9.441   0.696   9.499  0.8174  0.8819  0.7159
  469MOL0     H64664   9.327   0.784   9.583 -2.0750  0.5460  0.1270
  469MOL0     H64665   9.335   0.731   9.282  0.0385  0.3166  0.4580
  469MOL0     H64666   9.187   0.787   9.348 -1.3155  0.5277  1.6972
  469MOL0     H64667   9.448   0.937   9.356  0.4100 -0.3821 -0.0158
  469MOL0     H64668   9.293   0.987   9.429  1.1031  1.0587 -0.0641
  469MOL0     H64669   9.284   0.924   9.137  2.6272 -0.0895  0.8037
  469MOL0     H64670   9.194   1.037   9.245  0.5809  1.0084  1.1342
  469MOL0     H64671   9.557   1.019   9.143 -1.0765 -1.2649 -2.4963
  469MOL0     H64672   9.721   1.251   9.160  0.0574 -2.7777 -0.0645
  469MOL0     H64673   9.654   1.386   9.076 -0.6267  0.0783 -1.5401
  469MOL0     H64674   9.694   1.104   8.947  0.1515  0.0985 -3.9110
  469MOL0     H64675   9.652   1.253   8.861  1.1147  2.0312 -0.1943
  469MOL0     H64676   9.891   1.227   8.802 -3.0411  0.6399 -1.5580
  469MOL0     H64677   9.889   1.349   8.927 -2.2503 -0.3272  2.0403
  469MOL0     H64678   9.918   1.205   9.113  1.3241 -1.4600  0.9277
  469MOL0     H64679   9.922   1.058   9.004 -1.8041  0.2587 -0.1245
  469MOL0     H64680  10.047   0.951   9.149 -0.2677  1.2926  2.3278
  469MOL0     H64681  10.230   0.698   9.230 -0.4363 -0.9347  1.1173
  469MOL0     H64682  10.105   0.800   9.298 -0.4254 -0.9835 -1.4009
  469MOL0     H64683  10.279   0.799   9.360  0.8289  0.2157 -1.1408
  469MOL0     H64684  10.683   0.663   9.154 -1.5251 -0.8952  0.4112
  469MOL0     H64685  10.897   0.544   9.266  0.7353 -0.8391  1.6742
  469MOL0     H64686  10.957   0.636   9.600  1.8785 -0.0869 -1.4834
  469MOL0     H64687  10.899   0.528   9.725 -0.0925  1.1595  0.2585
  469MOL0     H64688  11.156   0.567   9.660 -0.3371  1.6171 -3.5644
  469MOL0     H64689  11.094   0.415   9.738  2.4581 -1.7568 -1.1687
  469MOL0     H64690  11.147   0.435   9.431  2.6386 -0.3463 -0.4950
  469MOL0     H64691  11.105   0.295   9.537 -1.9507  1.4510 -0.7531
  469MOL0     H64692  11.295   0.303   9.657 -2.7999  0.0442  0.1061
  469MOL0     H64693  11.348   0.458   9.585  0.9278  0.4715  1.0030
  469MOL0     H64694  11.321   0.181   9.456 -4.1869  1.7615 -2.2994
  469MOL0     H64695  11.349   0.318   9.353 -1.8738 -2.5208 -0.5970
  469MOL0     H64696  11.537   0.261   9.585  0.8731 -0.6943  0.2942
  469MOL0     H64697  11.565   0.363   9.461 -3.0755  0.6157  0.4590
  469MOL0     H64698  11.540   0.148   9.299  0.1445 -2.7354  0.8676
  469MOL0     H64699  11.525   0.060   9.445 -0.6398  1.3695  1.6205
  469MOL0     H64700  11.769   0.048   9.342 -0.0984 -0.9273  2.1032
  469MOL0     H64701  11.759   0.100   9.508 -1.2159  0.9398 -0.0107
  469MOL0     H64702  10.667   0.549   9.630  3.2110 -4.1072 -0.1263
  469MOL0     H64703  10.498   0.701   9.532  1.7285  3.4524 -0.6639
  469MOL0     H64704  10.512   1.066   9.043 -0.2999 -0.3499 -1.1234
  469MOL0     H64705  10.337   1.213   8.964  2.8905 -1.3565 -0.8822
  469MOL0     H64706   8.635   0.371   9.556 -0.4837 -0.6842 -0.4467
  469MOL0     H64707   8.404   0.453   9.539 -1.7458  2.4799 -1.0878
  469MOL0     H64708   8.153   0.791   9.731 -0.0502 -0.4647  0.0750
  469MOL0     H64709   7.920   0.883   9.788 -0.3151  0.3038  0.5577
  469MOL0     H64710   7.750   1.140   9.517 -1.4060  0.8845 -0.8332
  469MOL0     H64711   7.639   1.012   9.468  1.3929  1.4209 -2.2851
  469MOL0     H64712   7.513   1.041   9.686 -3.0186  2.1885  0.9551
  469MOL0     H64713   7.516   1.185   9.586  2.9385  1.4346  0.4111
  469MOL0     H64714   7.674   1.130   9.837 -2.4440 -0.1499  0.4922
  469MOL0     H64715   7.686   1.278   9.729  1.0469  0.0212  2.1838
  469MOL0     H64716   7.457   1.182   9.886  0.1797  0.0319 -0.2981
  469MOL0     H64717   7.465   1.333   9.788  0.9927  0.5150 -0.0881
  469MOL0     H64718   7.656   1.479  10.127 -1.4830  0.5448  1.6124
  469MOL0     H64719   7.846   0.937   9.371 -1.0894  4.1986  3.1710
  469MOL0     H64720   8.159   0.872   9.243  1.5755 -1.9202  2.0479
  469MOL0     H64721   8.109   0.713   9.250  0.7420  0.8255 -2.0151
  469MOL0     H64722   7.987   0.820   9.203 -1.4688  0.3499  1.0751
  470MOL0     O64723   4.773  11.272   3.731  0.0104 -0.0351 -0.1096
  470MOL0     C64724   4.700  11.351   3.664  0.6138 -0.0447 -0.1938
  470MOL0     O64725   4.743  11.440   3.570 -0.6170  0.4264  0.5245
  470MOL0     C64726   4.878  11.434   3.533 -0.5031  0.0358 -0.8733
  470MOL0     C64727   4.961  11.531   3.583  0.6665 -0.8819  0.6545
  470MOL0     C64728   5.091  11.529   3.538 -0.6729  0.5064 -0.5549
  470MOL0     C64729   5.139  11.427   3.457  0.4120  0.1203  1.1808
  470MOL0     O64730   5.269  11.407   3.413 -0.0381 -0.6153  0.2441
  470MOL0     C64731   5.332  11.528   3.382 -0.5014  1.0080  0.3766
  470MOL0     C64732   5.440  11.502   3.281  0.1037  0.0032 -0.2763
  470MOL0     C64733   5.542  11.402   3.334  0.2469 -0.6219  0.1004
  470MOL0     C64734   5.671  11.383   3.244  0.5534 -0.2668 -0.3449
  470MOL0     C64735   5.750  11.250   3.253 -0.1575  0.2455  0.0512
  470MOL0     C64736   5.899  11.254   3.215  0.1526 -0.5010 -0.6335
  470MOL0     C64737   5.910  11.263   3.062 -0.3313  0.8285 -0.4108
  470MOL0     C64738   5.912  11.411   3.015  0.3066  0.5507 -0.4672
  470MOL0     N64739   6.035  11.480   3.053  0.4638  0.8592 -0.2740
  470MOL0     C64740   6.161  11.446   3.015  0.7316  0.5624  0.1998
  470MOL0     C64741   6.245  11.533   3.076  0.6557 -0.7364  0.7135
  470MOL0     C64742   6.392  11.523   3.069 -0.5595  0.4566  0.4877
  470MOL0     C64743   6.468  11.647   3.023  0.2416  0.4053 -0.2875
  470MOL0     C64744   6.610  11.639   3.073 -0.0163 -0.2758 -0.0080
  470MOL0     C64745   6.689  11.764   3.026 -0.4289  0.2914 -0.0493
  470MOL0     O64746   6.823  11.735   3.068 -0.3699  0.1879  0.2394
  470MOL0     C64747   6.925  11.783   2.999 -0.1950  0.2709  0.0211
  470MOL0     C64748   7.048  11.741   3.030  0.1933 -0.4866 -0.1262
  470MOL0     C64749   7.167  11.782   2.972 -0.0646  0.1176 -0.1216
  470MOL0     C64750   7.296  11.735   3.034  0.4902 -0.1538  0.1318
  470MOL0     C64751   7.160  11.875   2.866  0.1108  0.2769  0.9002
  470MOL0     C64752   7.274  11.925   2.791 -0.2320  0.3396  0.3305
  470MOL0     O64753   7.400  11.907   2.841  0.1624 -0.0498 -0.3010
  470MOL0     C64754   7.504  11.952   2.770  0.6720 -0.5749  0.0492
  470MOL0     C64755   7.526  11.893   2.645 -0.1781 -0.5894  0.5699
  470MOL0     C64756   7.637  11.931   2.569  0.1531 -1.3014  0.2295
  470MOL0     C64757   7.726  12.035   2.617  0.2768  0.1492  0.3936
  470MOL0     O64758   7.840  12.074   2.539  1.1414 -0.0446 -0.4827
  470MOL0     C64759   7.883  12.210   2.553 -0.7372 -0.8778 -0.4400
  470MOL0     C64760   8.001  12.237   2.464 -0.5538 -0.8090  1.0869
  470MOL0     C64761   8.043  12.388   2.453 -0.6434 -0.2428 -0.3146
  470MOL0     C64762   8.162  12.380   2.355 -0.5318  0.2490  0.5923
  470MOL0     C64763   8.192  12.531   2.311 -0.5462  0.3985 -0.1115
  470MOL0     C64764   8.326  12.542   2.242 -0.6023 -0.1908  0.3921
  470MOL0     C64765   8.342  12.444   2.128 -0.0390 -0.5468  0.4293
  470MOL0     C64766   8.475  12.467   2.051 -0.5621  0.5756 -0.1201
  470MOL0    Cl64767   8.617  12.438   2.148 -0.0667  0.2247  0.2610
  470MOL0     C64768   7.703  12.083   2.751  0.3687 -0.6333  1.2347
  470MOL0     C64769   7.599  12.039   2.830 -0.3887  0.3474  0.1322
  470MOL0     O64770   7.242  11.997   2.690 -0.0127  0.0387 -0.1896
  470MOL0     C64771   7.027  11.916   2.832 -0.5588  0.2404  0.8602
  470MOL0     C64772   6.916  11.871   2.896 -0.2208  0.5808  0.4720
  470MOL0     N64773   6.168  11.622   3.141 -0.5037  0.0471  0.1285
  470MOL0     N64774   6.045  11.585   3.140  0.5569  0.5769 -0.6609
  470MOL0     C64775   5.060  11.322   3.419 -0.3833  0.1997  0.4952
  470MOL0     C64776   4.928  11.324   3.463  0.2063  0.1719 -0.9554
  470MOL0     C64777   4.553  11.361   3.703 -0.9764  0.2299  0.1766
  470MOL0     C64778   4.467  11.473   3.666 -0.9331 -1.0965 -0.9669
  470MOL0     C64779   4.326  11.472   3.689  0.1616 -0.3126 -0.1056
  470MOL0     C64780   4.271  11.356   3.754  0.8883 -0.0575  0.7914
  470MOL0     O64781   4.133  11.337   3.780 -0.1040 -0.3980 -0.2474
  470MOL0     C64782   4.039  11.431   3.722  0.5774 -0.0583  0.8035
  470MOL0     C64783   4.038  11.555   3.806 -0.5194 -0.1098 -0.1086
  470MOL0     C64784   4.003  11.679   3.728  0.5086  0.0975 -0.5421
  470MOL0     C64785   4.045  11.809   3.802 -0.1167 -0.2076 -0.3590
  470MOL0     C64786   4.189  11.829   3.771  0.4054 -0.2672 -0.4489
  470MOL0     C64787   4.307  11.849   3.740 -0.1812  0.7896 -0.3438
  470MOL0     C64788   4.359  11.257   3.793  0.9416  0.2847 -1.0613
  470MOL0     C64789   4.498  11.255   3.773 -0.5218  0.4612 -0.4445
  470MOL0     C64790   4.564  11.127   3.818  0.1690  0.4655  0.1047
  470MOL0     H64791   4.926  11.605   3.655  0.2296 -1.2927  0.8764
  470MOL0     H64792   5.169  11.599   3.566 -2.2942  0.7368  4.2616
  470MOL0     H64793   5.374  11.565   3.476  0.9822  2.6329 -0.8304
  470MOL0     H64794   5.258  11.592   3.333 -0.2129 -0.1347 -1.6648
  470MOL0     H64795   5.381  11.461   3.199  0.9949 -2.0796  0.0635
  470MOL0     H64796   5.493  11.593   3.251 -0.1171 -0.0605 -0.8604
  470MOL0     H64797   5.571  11.446   3.430 -1.1697 -0.0067  0.2819
  470MOL0     H64798   5.503  11.301   3.350  1.0478 -0.8197  0.8907
  470MOL0     H64799   5.633  11.390   3.142 -0.7627  0.1123  0.1507
  470MOL0     H64800   5.736  11.468   3.270 -0.1589  0.5176 -1.0410
  470MOL0     H64801   5.694  11.178   3.192 -1.5291 -1.6475  3.2722
  470MOL0     H64802   5.743  11.214   3.357  1.1977 -0.9007 -0.2259
  470MOL0     H64803   5.951  11.339   3.260  0.9959 -0.7809 -1.0753
  470MOL0     H64804   5.953  11.169   3.257 -0.6292 -0.2485  0.9673
  470MOL0     H64805   5.835  11.199   3.014 -0.9017  0.6877  0.6332
  470MOL0     H64806   6.009  11.219   3.046  0.3437  1.6092  1.4559
  470MOL0     H64807   5.907  11.407   2.906  1.3102  0.7991 -0.5304
  470MOL0     H64808   5.829  11.471   3.051  0.2536  0.3943 -0.3251
  470MOL0     H64809   6.187  11.365   2.947  0.2203  0.9227 -0.4386
  470MOL0     H64810   6.410  11.439   3.001 -2.4343 -0.7068  1.3515
  470MOL0     H64811   6.420  11.505   3.173  1.9230  2.3396  0.2490
  470MOL0     H64812   6.477  11.644   2.914  2.2115  2.2885 -0.2532
  470MOL0     H64813   6.426  11.739   3.065  2.2928  0.8705  0.8781
  470MOL0     H64814   6.610  11.648   3.182  2.1025  1.2156 -0.0596
  470MOL0     H64815   6.653  11.543   3.044  1.3846  0.3374 -0.0724
  470MOL0     H64816   6.671  11.766   2.919 -3.4919  0.4822  0.3665
  470MOL0     H64817   6.640  11.853   3.066 -2.0333 -0.9761  0.9796
  470MOL0     H64818   7.051  11.674   3.115 -0.7615  0.6578  0.8451
  470MOL0     H64819   7.348  11.824   3.071  0.9230 -0.5910  0.5918
  470MOL0     H64820   7.365  11.675   2.974 -0.5585  1.1583 -2.5674
  470MOL0     H64821   7.275  11.671   3.120  0.4082  0.1668  0.3484
  470MOL0     H64822   7.459  11.816   2.609 -1.4317  0.1247  1.2936
  470MOL0     H64823   7.649  11.899   2.467 -3.6636 -0.5249 -0.6183
  470MOL0     H64824   7.799  12.274   2.525  0.4332 -0.0459 -2.2242
  470MOL0     H64825   7.910  12.229   2.657 -0.8324 -2.0622 -0.1839
  470MOL0     H64826   8.090  12.180   2.495  0.5289  0.6590  0.7767
  470MOL0     H64827   7.991  12.204   2.360  2.6627  3.7249 -0.9723
  470MOL0     H64828   8.084  12.444   2.538 -0.6075 -0.6305 -0.0694
  470MOL0     H64829   7.961  12.447   2.411  0.5267  1.6599 -0.0345
  470MOL0     H64830   8.137  12.328   2.262 -0.4784 -0.6288  1.0655
  470MOL0     H64831   8.244  12.320   2.394 -0.2004  1.8866  2.5950
  470MOL0     H64832   8.109  12.565   2.249 -0.2712  0.4928 -0.4291
  470MOL0     H64833   8.198  12.594   2.400 -1.0073  0.3650 -0.0567
  470MOL0     H64834   8.405  12.528   2.317 -0.7208  0.6250  0.6747
  470MOL0     H64835   8.345  12.637   2.191  0.6221  0.4708  2.0078
  470MOL0     H64836   8.253  12.437   2.065 -0.2388 -1.6723  0.8208
  470MOL0     H64837   8.349  12.346   2.176  2.2125  0.2299  1.8347
  470MOL0     H64838   8.490  12.562   2.000  1.9238  0.1078 -0.4269
  470MOL0     H64839   8.474  12.395   1.969 -1.3752  1.5338 -0.9804
  470MOL0     H64840   7.766  12.165   2.786  1.2572 -1.9739  2.9618
  470MOL0     H64841   7.591  12.072   2.933  2.1319 -1.3664  0.9617
  470MOL0     H64842   7.014  11.994   2.758  0.1660  0.4428  0.9355
  470MOL0     H64843   6.819  11.898   2.855 -0.2221 -0.4424 -0.2404
  470MOL0     H64844   5.104  11.244   3.357 -1.5965 -1.9561  2.1995
  470MOL0     H64845   4.857  11.244   3.442 -0.5326  0.2257  1.0902
  470MOL0     H64846   4.499  11.553   3.601  2.9840 -0.0864  1.8504
  470MOL0     H64847   4.260  11.547   3.646 -0.5800 -0.4692  0.7409
  470MOL0     H64848   4.074  11.445   3.619  0.6938 -0.3936  0.7973
  470MOL0     H64849   3.946  11.375   3.730  0.8322 -0.4355  1.1907
  470MOL0     H64850   4.141  11.559   3.841  0.3610  0.2484 -2.5650
  470MOL0     H64851   3.963  11.534   3.883 -1.0183 -0.7709 -0.7503
  470MOL0     H64852   4.054  11.675   3.631  2.7753 -1.3009  0.6121
  470MOL0     H64853   3.894  11.677   3.718  0.3143  0.9539  1.0763
  470MOL0     H64854   4.034  11.798   3.911 -1.6148  4.2762  0.1566
  470MOL0     H64855   3.987  11.897   3.772  1.3724  0.5363 -1.1308
  470MOL0     H64856   4.410  11.872   3.722 -0.7215  2.5504 -1.4001
  470MOL0     H64857   4.301  11.185   3.849 -2.4943  1.4949 -2.8330
  470MOL0     H64858   4.611  11.060   3.745 -0.2270 -0.1498  0.4065
  470MOL0     H64859   4.641  11.153   3.892  2.1921 -0.6237 -1.4952
  470MOL0     H64860   4.485  11.073   3.871 -1.1944  1.8795 -0.4087
  471MOL0     O64861   6.537   7.134  10.371 -0.0427 -0.0653  0.5252
  471MOL0     C64862   6.491   7.177  10.275  1.1512 -0.3994  0.1294
  471MOL0     O64863   6.560   7.257  10.190  0.3440 -0.0183 -0.7315
  471MOL0     C64864   6.700   7.250  10.193  0.7509  0.6422  0.4992
  471MOL0     C64865   6.774   7.129  10.171  0.4343  0.1677  0.7865
  471MOL0     C64866   6.911   7.130  10.194 -0.7792 -0.2475  0.3711
  471MOL0     C64867   6.983   7.246  10.218 -1.1543  0.0469  0.2620
  471MOL0     O64868   7.113   7.247  10.257 -0.2456 -0.2338 -0.1525
  471MOL0     C64869   7.196   7.147  10.189 -0.2100 -0.2473 -0.1722
  471MOL0     C64870   7.343   7.173  10.226 -1.0756  0.9017  0.1037
  471MOL0     C64871   7.427   7.051  10.179  0.9526  0.6771  0.2894
  471MOL0     C64872   7.570   7.064  10.159  0.3720 -0.8357 -0.0916
  471MOL0     C64873   7.642   7.126  10.278  0.0717  0.4764  0.7033
  471MOL0     C64874   7.687   7.036  10.397 -0.1749  0.9295  1.2715
  471MOL0     C64875   7.791   7.102  10.487  0.4964  0.0726  0.0049
  471MOL0     C64876   7.771   7.245  10.532 -0.4684 -0.3383 -0.1751
  471MOL0     N64877   7.888   7.275  10.613  0.0551 -0.0774  0.8651
  471MOL0     C64878   7.903   7.254  10.748  0.1900  1.1460  0.1559
  471MOL0     C64879   8.029   7.298  10.775 -0.0114  0.2097  0.5881
  471MOL0     C64880   8.082   7.282  10.911 -0.4172 -0.2997 -0.4757
  471MOL0     C64881   8.177   7.399  10.946 -1.0974 -0.4979  0.8017
  471MOL0     C64882   8.221   7.376  11.092 -0.6653 -0.0669  0.5270
  471MOL0     C64883   8.285   7.496  11.148  0.3806 -0.8585  0.3951
  471MOL0     O64884   8.362   7.586  11.066  0.6210  0.3360  0.0056
  471MOL0     C64885   8.491   7.553  11.035 -0.2588 -0.6571  0.1405
  471MOL0     C64886   8.561   7.651  10.969  0.1973  0.3758 -0.1026
  471MOL0     C64887   8.702   7.644  10.955 -0.3446 -0.3985 -1.0266
  471MOL0     C64888   8.768   7.750  10.877  0.3064  0.2531  0.2767
  471MOL0     C64889   8.778   7.536  11.010 -0.1479  0.5950  0.8712
  471MOL0     C64890   8.929   7.530  11.014 -0.3502 -0.0816  0.6093
  471MOL0     O64891   8.998   7.649  11.019 -0.4295 -0.1035 -0.5302
  471MOL0     C64892   9.133   7.669  11.000  0.2964 -0.6112  0.5815
  471MOL0     C64893   9.235   7.566  10.989 -0.0771  0.1740 -0.2032
  471MOL0     C64894   9.369   7.604  10.984 -0.1517  0.4213  0.1060
  471MOL0     C64895   9.416   7.738  10.995 -1.4272  0.2735 -0.0806
  471MOL0     O64896   9.544   7.762  11.017  0.0632 -0.0798 -0.3818
  471MOL0     C64897   9.658   7.670  11.000  0.4700  0.3961 -0.2292
  471MOL0     C64898   9.790   7.760  11.015 -0.4191 -0.4025 -0.1646
  471MOL0     C64899   9.821   7.857  10.900  0.3944 -0.1540  0.5293
  471MOL0     C64900   9.842   7.793  10.764  0.0995 -0.4340  0.1391
  471MOL0     C64901   9.893   7.906  10.666 -0.4653  0.0544  0.3705
  471MOL0     C64902   9.952   7.835  10.541  0.1923  0.4666  0.5559
  471MOL0     C64903   9.847   7.772  10.455 -0.8062  0.4233  0.2916
  471MOL0     C64904   9.905   7.711  10.328  0.8249 -0.6563 -0.4363
  471MOL0    Cl64905  10.034   7.595  10.381  0.1689  0.4278 -0.4769
  471MOL0     C64906   9.318   7.839  11.009 -0.1371  0.2638  0.9354
  471MOL0     C64907   9.182   7.801  11.009  0.2887 -0.1056  0.2209
  471MOL0     O64908   8.981   7.420  11.034  0.3475 -0.1848  0.0249
  471MOL0     C64909   8.702   7.432  11.072 -0.1501 -0.2482 -0.4966
  471MOL0     C64910   8.561   7.437  11.084  0.0478 -0.3988  0.9609
  471MOL0     N64911   8.086   7.352  10.658 -0.3471  0.0678 -0.2981
  471MOL0     N64912   8.002   7.337  10.560  0.0243  0.2331 -0.8539
  471MOL0     C64913   6.908   7.368  10.226 -1.6712  0.0311  0.0246
  471MOL0     C64914   6.771   7.372  10.213  0.1590 -0.0188  0.3298
  471MOL0     C64915   6.344   7.161  10.243  1.2250  0.6192  0.9811
  471MOL0     C64916   6.313   7.151  10.103 -0.0323  0.2297  0.9465
  471MOL0     C64917   6.181   7.130  10.068 -0.7324 -1.0253  0.7337
  471MOL0     C64918   6.079   7.132  10.159  0.1624  0.0739 -0.8416
  471MOL0     O64919   5.944   7.130  10.116 -0.3238  0.0740 -0.0508
  471MOL0     C64920   5.827   7.134  10.202 -0.6007 -0.5722 -0.2399
  471MOL0     C64921   5.827   7.270  10.268 -0.4234  0.6159 -0.4849
  471MOL0     C64922   5.714   7.267  10.377 -0.5230  0.5368 -0.1483
  471MOL0     C64923   5.690   7.412  10.418  0.1482 -0.2420 -0.2730
  471MOL0     C64924   5.610   7.413  10.542 -0.6328  1.1630  0.4094
  471MOL0     C64925   5.536   7.414  10.632  0.5589  0.5032 -0.0793
  471MOL0     C64926   6.109   7.126  10.297  0.0931  0.2469 -0.1301
  471MOL0     C64927   6.245   7.143  10.342  0.8875 -0.6033 -0.0366
  471MOL0     C64928   6.275   7.132  10.492  0.2838  0.8167  0.4459
  471MOL0     H64929   6.710   7.041  10.166  0.5658  0.0285  1.4693
  471MOL0     H64930   6.964   7.036  10.196 -0.0965  0.1286  0.3091
  471MOL0     H64931   7.194   7.142  10.080  0.8234  0.7710 -0.2501
  471MOL0     H64932   7.177   7.044  10.222  0.6663  0.2653  2.1018
  471MOL0     H64933   7.377   7.255  10.163 -0.7698  0.5211 -0.2324
  471MOL0     H64934   7.362   7.198  10.331 -0.1728  2.5498 -0.4258
  471MOL0     H64935   7.421   6.977  10.258 -2.4627 -0.2985 -0.7211
  471MOL0     H64936   7.378   7.023  10.086 -1.7104  3.7539  0.5650
  471MOL0     H64937   7.610   6.963  10.145  1.4634 -0.4760  0.3105
  471MOL0     H64938   7.584   7.123  10.068 -1.0790  0.1403  0.2790
  471MOL0     H64939   7.572   7.204  10.311 -1.2566  1.4220 -3.6915
  471MOL0     H64940   7.727   7.177  10.233  0.2338 -2.5029 -2.7606
  471MOL0     H64941   7.600   7.012  10.459 -0.3809 -0.4974  0.4894
  471MOL0     H64942   7.727   6.942  10.358 -2.2713  0.0770  1.0122
  471MOL0     H64943   7.882   7.098  10.426 -0.6290 -0.4332 -1.6888
  471MOL0     H64944   7.799   7.033  10.572  0.5303  0.1540  0.0683
  471MOL0     H64945   7.779   7.314  10.448 -3.0671 -2.6098 -2.4857
  471MOL0     H64946   7.684   7.265  10.596  1.0491 -0.7988  2.1701
  471MOL0     H64947   7.831   7.208  10.815 -1.1197  1.7101 -0.8117
  471MOL0     H64948   8.138   7.188  10.912 -0.7631 -0.5601 -2.1357
  471MOL0     H64949   7.997   7.266  10.978  1.0123 -0.3866  1.4004
  471MOL0     H64950   8.256   7.394  10.870 -2.0638  0.0148 -0.2551
  471MOL0     H64951   8.128   7.496  10.933 -2.1738 -1.3394 -2.2478
  471MOL0     H64952   8.128   7.350  11.144 -0.6263 -1.6474 -0.1430
  471MOL0     H64953   8.296   7.297  11.096 -3.0854 -2.5135  0.1892
  471MOL0     H64954   8.200   7.561  11.172 -0.4963 -2.1000  0.7292
  471MOL0     H64955   8.335   7.483  11.244 -1.1389 -3.5567  0.9102
  471MOL0     H64956   8.506   7.738  10.933 -1.0224  0.3330  1.5604
  471MOL0     H64957   8.695   7.805  10.817 -0.8208  0.1946  1.5488
  471MOL0     H64958   8.845   7.708  10.812  0.3054  1.7721 -0.7689
  471MOL0     H64959   8.825   7.818  10.941 -0.8745 -0.9859  2.7849
  471MOL0     H64960   9.219   7.460  10.978 -1.7418  0.5116 -1.4954
  471MOL0     H64961   9.445   7.528  10.999  1.9736  2.2335 -0.9844
  471MOL0     H64962   9.666   7.596  11.081  1.4380 -2.1269 -2.4775
  471MOL0     H64963   9.647   7.614  10.907 -4.1536  0.6624 -0.0891
  471MOL0     H64964   9.797   7.802  11.116  0.6873 -1.0851  0.0569
  471MOL0     H64965   9.871   7.687  11.009 -0.0439 -0.1758  1.5925
  471MOL0     H64966   9.905   7.922  10.927  0.3771  0.7329 -1.3562
  471MOL0     H64967   9.731   7.919  10.897 -0.1301 -0.8810 -2.3056
  471MOL0     H64968   9.746   7.753  10.729 -0.0274 -0.0392  0.0248
  471MOL0     H64969   9.904   7.704  10.773  0.1888 -0.2043  2.3652
  471MOL0     H64970   9.818   7.976  10.630 -0.2489  0.9552  1.5906
  471MOL0     H64971   9.970   7.969  10.710 -0.4440  0.9418 -0.9046
  471MOL0     H64972  10.025   7.763  10.580  0.6335  0.2991 -0.5462
  471MOL0     H64973   9.995   7.909  10.473  0.5587  0.9199  1.2642
  471MOL0     H64974   9.770   7.841  10.418  0.9468  0.8510 -2.9231
  471MOL0     H64975   9.791   7.696  10.510 -2.0330  2.1833  1.5607
  471MOL0     H64976   9.945   7.791  10.264 -0.6864 -1.0443 -1.9385
  471MOL0     H64977   9.819   7.672  10.273 -0.9292  0.9871  1.0352
  471MOL0     H64978   9.342   7.944  11.016  1.5330  0.2144 -2.1334
  471MOL0     H64979   9.108   7.880  11.013 -1.8718 -1.8720 -1.9981
  471MOL0     H64980   8.746   7.347  11.124  1.5038  0.8842  0.0071
  471MOL0     H64981   8.498   7.356  11.121  0.6367 -0.4591  1.8645
  471MOL0     H64982   6.974   7.448  10.258 -0.1198 -0.3516 -2.0424
  471MOL0     H64983   6.730   7.471  10.229  0.8641  0.4756 -0.8248
  471MOL0     H64984   6.381   7.148  10.019 -0.2694 -2.5862  0.7516
  471MOL0     H64985   6.165   7.141   9.961  1.7738 -1.5138  0.2640
  471MOL0     H64986   5.740   7.121  10.136 -0.6658 -2.4962  0.1752
  471MOL0     H64987   5.822   7.048  10.269 -0.3117  0.1608  0.7547
  471MOL0     H64988   5.798   7.346  10.195 -2.6442  1.2171  0.9244
  471MOL0     H64989   5.924   7.299  10.309 -0.7022 -0.1735  0.7740
  471MOL0     H64990   5.625   7.211  10.345  0.3468 -1.4274  0.6980
  471MOL0     H64991   5.763   7.211  10.457  0.4736  0.5201 -0.7517
  471MOL0     H64992   5.634   7.451  10.333  1.8415  1.8476 -0.4891
  471MOL0     H64993   5.786   7.459  10.440 -1.0768  1.5279  1.7123
  471MOL0     H64994   5.474   7.429  10.719  1.1655 -1.3555  0.7170
  471MOL0     H64995   6.031   7.109  10.371 -0.7590 -2.2466 -1.4980
  471MOL0     H64996   6.353   7.204  10.516  0.2274  2.7054 -4.0783
  471MOL0     H64997   6.186   7.131  10.556 -0.4745  0.3616 -0.5826
  471MOL0     H64998   6.318   7.032  10.498 -0.9088  0.0165 -2.4477
  472MOL0     O64999   9.341   9.464   6.617 -0.4911 -0.8836  0.0748
  472MOL0     C65000   9.297   9.572   6.654  1.2531  0.2581  0.7223
  472MOL0     O65001   9.364   9.672   6.719  0.2969  0.3750  0.5548
  472MOL0     C65002   9.498   9.694   6.714  0.3219 -0.1780  0.1302
  472MOL0     C65003   9.598   9.592   6.701  0.2483  0.0399 -0.2953
  472MOL0     C65004   9.730   9.625   6.694  0.2399  0.2771  0.4838
  472MOL0     C65005   9.768   9.763   6.712 -0.0459  0.2162  0.1002
  472MOL0     O65006   9.901   9.803   6.732 -0.1286 -0.1190  0.6630
  472MOL0     C65007  10.007   9.749   6.648 -0.1110  0.7120 -0.7403
  472MOL0     C65008   9.988   9.812   6.506 -0.4718  0.7066  0.3199
  472MOL0     C65009  10.079   9.943   6.485 -0.1070  0.5876 -0.9150
  472MOL0     C65010  10.026  10.076   6.538 -1.1050  0.8640 -0.6789
  472MOL0     C65011   9.900  10.129   6.481 -0.2154  0.3345  0.5550
  472MOL0     C65012   9.867  10.270   6.518 -0.0046 -0.7292  0.8710
  472MOL0     C65013   9.714  10.302   6.497 -0.6980 -0.2390 -0.2106
  472MOL0     C65014   9.631  10.231   6.608  0.1300  0.3955 -0.7363
  472MOL0     N65015   9.491  10.255   6.582  0.5436 -0.9194  0.4998
  472MOL0     C65016   9.402  10.151   6.556 -0.1490  0.8577 -0.7929
  472MOL0     C65017   9.271  10.188   6.577  0.0722  0.1847 -0.9766
  472MOL0     C65018   9.149  10.109   6.568  0.0317  0.4120 -0.1223
  472MOL0     C65019   9.034  10.169   6.488  0.5041  0.4371  1.3011
  472MOL0     C65020   8.992  10.310   6.542  0.2377  0.4118 -0.0587
  472MOL0     C65021   8.857  10.350   6.487  0.3695  0.6037 -1.3256
  472MOL0     O65022   8.750  10.253   6.509  0.2005 -0.8370 -0.1512
  472MOL0     C65023   8.636  10.309   6.549 -0.3444  0.9737  0.2132
  472MOL0     C65024   8.567  10.260   6.661  0.5455 -0.5213  0.7103
  472MOL0     C65025   8.442  10.317   6.700 -0.7811 -0.0736 -0.0751
  472MOL0     C65026   8.369  10.250   6.815 -0.4461  0.1891  0.8958
  472MOL0     C65027   8.385  10.424   6.619 -0.2561 -0.6336 -0.6047
  472MOL0     C65028   8.272  10.497   6.653 -0.0047  0.2219  0.2778
  472MOL0     O65029   8.197  10.548   6.553  0.2549  0.0729 -0.0469
  472MOL0     C65030   8.079  10.619   6.587  0.2705  0.3485  0.1983
  472MOL0     C65031   8.051  10.709   6.696 -1.0730  0.5427  0.1622
  472MOL0     C65032   7.934  10.772   6.711 -0.0368  0.9599  0.5549
  472MOL0     C65033   7.822  10.745   6.621  0.4293 -0.7656 -0.4351
  472MOL0     O65034   7.701  10.822   6.607  0.2769 -0.2230 -0.2196
  472MOL0     C65035   7.652  10.846   6.741 -0.1932 -0.2016  0.2078
  472MOL0     C65036   7.506  10.881   6.743  0.5636 -0.6109 -0.4800
  472MOL0     C65037   7.425  10.757   6.714  0.5679 -0.4533  0.4379
  472MOL0     C65038   7.277  10.808   6.695 -0.0324  0.2461  0.1358
  472MOL0     C65039   7.180  10.702   6.635  0.3595  0.0966 -0.2387
  472MOL0     C65040   7.051  10.759   6.572  0.6810  1.1082  0.2789
  472MOL0     C65041   6.974  10.639   6.506 -0.1502  0.1462 -0.3557
  472MOL0     C65042   6.834  10.682   6.459  0.1431 -0.4649 -0.3112
  472MOL0    Cl65043   6.726  10.712   6.586  0.1164 -0.1785 -0.1515
  472MOL0     C65044   7.841  10.655   6.520 -0.1016 -0.3763  0.1324
  472MOL0     C65045   7.970  10.595   6.495 -0.6975  1.1507 -0.3797
  472MOL0     O65046   8.251  10.515   6.780 -0.8152  0.2084 -0.3110
  472MOL0     C65047   8.456  10.468   6.513  0.0771 -0.0116  0.8275
  472MOL0     C65048   8.573  10.405   6.474  0.1880 -0.7578  0.2478
  472MOL0     N65049   9.287  10.315   6.629  0.1222  0.1116  0.5139
  472MOL0     N65050   9.411  10.358   6.627 -0.2467  0.2269  0.0339
  472MOL0     C65051   9.666   9.856   6.736 -0.2336 -0.0702 -0.2788
  472MOL0     C65052   9.537   9.822   6.734  0.3946 -0.7298 -0.2580
  472MOL0     C65053   9.150   9.598   6.629 -0.1107 -0.1420 -0.3384
  472MOL0     C65054   9.110   9.741   6.629 -0.6154  0.3305 -0.1174
  472MOL0     C65055   8.977   9.775   6.600 -0.0598  0.0905  0.1293
  472MOL0     C65056   8.881   9.678   6.581 -0.4761  0.7109 -0.5546
  472MOL0     O65057   8.748   9.706   6.566  0.6373  0.1125  0.1458
  472MOL0     C65058   8.706   9.846   6.553 -0.1072 -0.3131 -0.3546
  472MOL0     C65059   8.557   9.853   6.533 -0.1199 -0.2593 -0.9917
  472MOL0     C65060   8.475   9.824   6.661 -1.2260 -0.0611 -0.0704
  472MOL0     C65061   8.328   9.817   6.636 -0.1546  0.5408  1.0881
  472MOL0     C65062   8.242   9.892   6.729  0.3110  0.3220 -0.1493
  472MOL0     C65063   8.166   9.960   6.794  0.8683 -0.3086  0.4250
  472MOL0     C65064   8.921   9.542   6.585  0.3569  0.2237 -0.8650
  472MOL0     C65065   9.049   9.497   6.605  0.3495 -0.7220  0.0579
  472MOL0     C65066   9.070   9.352   6.587 -0.2638 -0.1321  0.2245
  472MOL0     H65067   9.576   9.485   6.703 -0.9795  0.2536 -1.4205
  472MOL0     H65068   9.803   9.547   6.676  0.8691  1.1751 -1.0598
  472MOL0     H65069  10.007   9.642   6.623  0.7719  1.0358 -2.2299
  472MOL0     H65070  10.103   9.778   6.692 -0.9079  1.4682  0.5834
  472MOL0     H65071  10.026   9.740   6.434  0.8001  1.6314  0.0305
  472MOL0     H65072   9.884   9.833   6.479 -0.4342  1.2464  0.5700
  472MOL0     H65073  10.180   9.913   6.512 -0.6350 -0.6931 -0.2523
  472MOL0     H65074  10.086   9.941   6.376  2.2165 -2.2160 -0.8221
  472MOL0     H65075  10.021  10.058   6.646 -0.1967  0.6314 -0.6716
  472MOL0     H65076  10.098  10.156   6.520  0.1049  0.1942  0.9764
  472MOL0     H65077   9.821  10.060   6.512 -0.0409 -0.3581 -0.5233
  472MOL0     H65078   9.901  10.124   6.372 -2.6798  1.6081  0.4095
  472MOL0     H65079   9.891  10.275   6.625  2.2236  0.9147  0.3618
  472MOL0     H65080   9.930  10.346   6.472 -0.7651  1.2409  2.8807
  472MOL0     H65081   9.685  10.259   6.401  2.6123 -4.3570  0.3383
  472MOL0     H65082   9.698  10.410   6.494 -0.6779 -0.1981  0.7573
  472MOL0     H65083   9.651  10.123   6.601  0.7585  0.4410  0.2425
  472MOL0     H65084   9.665  10.275   6.702  2.3664 -0.5839 -1.0194
  472MOL0     H65085   9.427  10.047   6.540  1.0027  0.5369  2.3867
  472MOL0     H65086   9.116  10.079   6.668 -0.2516  0.3270 -0.2384
  472MOL0     H65087   9.166  10.013   6.518 -3.2076 -0.8234  0.8710
  472MOL0     H65088   9.059  10.186   6.383  0.6563 -0.5990  1.1632
  472MOL0     H65089   8.952  10.096   6.485 -0.0296  1.0715  0.0120
  472MOL0     H65090   8.989  10.306   6.651  0.2748  4.3122  0.2000
  472MOL0     H65091   9.067  10.384   6.511  0.7158  0.1047  0.3450
  472MOL0     H65092   8.829  10.443   6.538  0.5906 -0.3414  0.6254
  472MOL0     H65093   8.864  10.366   6.379 -0.9887 -0.9852 -1.6909
  472MOL0     H65094   8.614  10.169   6.697  1.0866 -1.5019 -2.1597
  472MOL0     H65095   8.264  10.225   6.795 -0.9795  0.2630  3.2945
  472MOL0     H65096   8.371  10.315   6.904 -3.0933  0.6835  0.6874
  472MOL0     H65097   8.425  10.163   6.850  0.4284 -0.1115 -1.1726
  472MOL0     H65098   8.134  10.730   6.763  0.8539 -0.4561 -1.8034
  472MOL0     H65099   7.920  10.857   6.776  0.6878  1.2023  0.4024
  472MOL0     H65100   7.674  10.761   6.807  0.8480  0.0354  0.1855
  472MOL0     H65101   7.712  10.923   6.790 -2.0382 -0.9298  4.0184
  472MOL0     H65102   7.462  10.926   6.833 -0.7093  0.6139 -1.6571
  472MOL0     H65103   7.482  10.965   6.677 -1.5138  1.2088  2.3156
  472MOL0     H65104   7.425  10.692   6.802 -0.7380  1.9415  2.3046
  472MOL0     H65105   7.460  10.710   6.622  1.5660  2.2208 -0.6460
  472MOL0     H65106   7.271  10.898   6.633  0.6908 -0.1500 -0.5377
  472MOL0     H65107   7.247  10.852   6.790  1.7247  2.9730 -0.4569
  472MOL0     H65108   7.240  10.643   6.564  1.4962  0.1866  0.6247
  472MOL0     H65109   7.147  10.639   6.717 -0.4063  0.4160 -0.2962
  472MOL0     H65110   7.091  10.828   6.497  1.8438  0.4418  0.2510
  472MOL0     H65111   6.991  10.814   6.645  1.3908  1.1021  0.8768
  472MOL0     H65112   6.958  10.561   6.580  1.4368 -0.7642 -0.9231
  472MOL0     H65113   7.035  10.599   6.424  0.0245 -1.0003  0.3180
  472MOL0     H65114   6.804  10.596   6.400 -1.3727 -2.2294  2.7880
  472MOL0     H65115   6.841  10.776   6.404  2.7848 -1.4590 -1.8527
  472MOL0     H65116   7.765  10.657   6.443  0.7782 -1.0264 -0.7710
  472MOL0     H65117   7.994  10.543   6.403 -0.5086 -0.2142  0.4161
  472MOL0     H65118   8.409  10.543   6.449 -0.4250  0.4774  1.7369
  472MOL0     H65119   8.628  10.436   6.386 -1.0209 -1.9657 -0.9864
  472MOL0     H65120   9.703   9.957   6.747 -1.8875  0.4785  0.6230
  472MOL0     H65121   9.463   9.894   6.768  0.0166 -1.4436  0.4740
  472MOL0     H65122   9.171   9.827   6.655  0.4772 -0.5700  0.3653
  472MOL0     H65123   8.960   9.882   6.589 -2.1881 -0.4233 -2.6463
  472MOL0     H65124   8.729   9.893   6.649 -0.9904  0.2543 -0.4073
  472MOL0     H65125   8.756   9.899   6.471  1.2138 -2.0051 -0.7013
  472MOL0     H65126   8.527   9.789   6.450 -2.0959 -0.0077 -0.5105
  472MOL0     H65127   8.539   9.959   6.510  0.2617 -0.0646 -0.4229
  472MOL0     H65128   8.508   9.734   6.713 -1.2588  0.5548  1.0372
  472MOL0     H65129   8.491   9.903   6.734 -1.4574  1.3854 -1.5207
  472MOL0     H65130   8.305   9.710   6.638 -0.6686  0.4857 -2.4330
  472MOL0     H65131   8.309   9.852   6.535  0.5165  0.3555  0.8959
  472MOL0     H65132   8.105  10.030   6.848  1.3746  1.4279 -1.1718
  472MOL0     H65133   8.848   9.463   6.576  2.3324 -2.8378  5.1914
  472MOL0     H65134   9.057   9.307   6.686  2.4463 -1.7094 -0.0487
  472MOL0     H65135   8.986   9.321   6.524  0.1675  1.5394 -1.2694
  472MOL0     H65136   9.163   9.316   6.542 -2.3595 -5.3786 -0.5687
  473MOL0     O65137   0.802   1.999  11.316 -0.1888  0.2960  0.0769
  473MOL0     C65138   0.756   1.959  11.420  0.4648 -0.9556  0.4489
  473MOL0     O65139   0.837   1.939  11.534  0.4491 -0.3343  0.3419
  473MOL0     C65140   0.960   1.890  11.503 -0.2354 -0.7097  0.4665
  473MOL0     C65141   1.063   1.981  11.459  0.0833 -0.6963  0.2793
  473MOL0     C65142   1.200   1.940  11.446  0.4382  0.2175 -0.2350
  473MOL0     C65143   1.224   1.801  11.461 -0.2679 -0.8974  0.8251
  473MOL0     O65144   1.351   1.752  11.433 -0.1052 -0.4161  0.0447
  473MOL0     C65145   1.466   1.819  11.487  0.5735 -0.2509 -0.6631
  473MOL0     C65146   1.582   1.779  11.410  0.0008 -0.1715 -0.3151
  473MOL0     C65147   1.711   1.852  11.443 -0.1018 -0.4162  0.3183
  473MOL0     C65148   1.739   1.858  11.598  0.5178 -0.1816  0.1097
  473MOL0     C65149   1.885   1.845  11.618 -0.6962  0.6980 -0.5932
  473MOL0     C65150   1.917   1.862  11.777 -0.0347 -0.1834  0.4050
  473MOL0     C65151   2.066   1.846  11.825 -0.5789 -0.6089  0.3187
  473MOL0     C65152   2.148   1.969  11.777 -0.3169  0.3864  0.8467
  473MOL0     N65153   2.283   1.960  11.834  0.1180  0.2567 -0.1476
  473MOL0     C65154   2.367   1.849  11.867 -0.0611 -0.9587 -0.3451
  473MOL0     C65155   2.490   1.898  11.911  0.3778 -0.0820 -0.2528
  473MOL0     C65156   2.619   1.830  11.954  1.0323 -0.6563 -0.0547
  473MOL0     C65157   2.729   1.819  11.854  0.0891 -0.2439 -0.1829
  473MOL0     C65158   2.855   1.736  11.912 -0.0654 -0.2742 -0.0077
  473MOL0     C65159   2.966   1.726  11.806 -0.4144  0.6163  0.7438
  473MOL0     O65160   3.069   1.828  11.829  0.2402 -0.0674  0.4355
  473MOL0     C65161   3.192   1.784  11.844 -0.9569  0.7845  0.0063
  473MOL0     C65162   3.274   1.819  11.953  0.0075 -0.0098  0.0249
  473MOL0     C65163   3.397   1.763  11.980  0.2261  0.4383  0.8406
  473MOL0     C65164   3.462   1.798  12.113 -0.5506  0.9221 -0.2159
  473MOL0     C65165   3.459   1.693  11.871  0.7706 -0.3746  0.5279
  473MOL0     C65166   3.605   1.649  11.880 -0.6253  0.5226  0.0294
  473MOL0     O65167   3.635   1.517  11.855 -0.6774 -0.7983  0.7095
  473MOL0     C65168   3.760   1.480  11.871  0.9800 -0.4243 -0.2273
  473MOL0     C65169   3.870   1.527  11.795 -0.6581  0.0905 -0.7846
  473MOL0     C65170   4.001   1.483  11.820  0.2465  0.2139  0.0536
  473MOL0     C65171   4.018   1.381  11.920  1.3886 -0.2886  0.6475
  473MOL0     O65172   4.144   1.328  11.958  0.3450 -0.1513 -0.0168
  473MOL0     C65173   4.257   1.349  11.870 -0.2955  0.4522  0.3915
  473MOL0     C65174   4.372   1.255  11.924  0.0902 -0.0677 -0.2515
  473MOL0     C65175   4.502   1.248  11.847 -0.0016 -0.3870 -0.4837
  473MOL0     C65176   4.560   1.392  11.843 -0.8584 -0.5441 -0.1107
  473MOL0     C65177   4.704   1.398  11.808 -0.6933 -0.2837  0.4455
  473MOL0     C65178   4.751   1.541  11.792 -0.3043  0.1038  0.1786
  473MOL0     C65179   4.904   1.550  11.806 -0.4915  0.4878  0.2284
  473MOL0     C65180   4.962   1.662  11.714  0.6553 -0.0287  0.0012
  473MOL0    Cl65181   5.135   1.648  11.698  0.0777  0.0418 -0.1294
  473MOL0     C65182   3.908   1.334  11.995  0.5451 -0.3870 -0.3354
  473MOL0     C65183   3.779   1.381  11.969  0.8002  0.0215 -0.0182
  473MOL0     O65184   3.685   1.736  11.914 -0.1597  1.2216  0.0633
  473MOL0     C65185   3.380   1.653  11.760 -0.4778  0.4502  0.3098
  473MOL0     C65186   3.251   1.694  11.752  0.3033  0.3120  0.2116
  473MOL0     N65187   2.473   2.040  11.899  0.1242 -0.2588 -0.2123
  473MOL0     N65188   2.355   2.070  11.858  0.3910  0.2037  0.8973
  473MOL0     C65189   1.121   1.714  11.507  0.6182 -0.1927 -0.3473
  473MOL0     C65190   0.986   1.757  11.525 -0.2403 -0.0911  0.0734
  473MOL0     C65191   0.607   1.929  11.429  0.0803  0.0992  0.3845
  473MOL0     C65192   0.532   1.920  11.309  0.0716 -0.1114  0.5368
  473MOL0     C65193   0.402   1.882  11.297  0.0441  1.2315  0.4583
  473MOL0     C65194   0.344   1.828  11.408  0.6814  0.0487 -0.6365
  473MOL0     O65195   0.214   1.779  11.392 -0.2920  0.0412 -0.0590
  473MOL0     C65196   0.147   1.716  11.500  0.4989 -0.6914  0.0410
  473MOL0     C65197   0.001   1.696  11.469  0.5809  0.7577  0.1383
  473MOL0     C65198  -0.089   1.819  11.496 -0.3678 -0.2307 -0.3850
  473MOL0     C65199  -0.203   1.821  11.405 -0.0534 -0.2073  0.0288
  473MOL0     C65200  -0.293   1.699  11.420  0.4455 -0.3179  0.5299
  473MOL0     C65201  -0.368   1.604  11.417 -0.2415  1.2046 -0.5757
  473MOL0     C65202   0.416   1.836  11.533  0.4578 -0.0040  0.0994
  473MOL0     C65203   0.550   1.880  11.548 -0.4703 -0.8371  0.8985
  473MOL0     C65204   0.609   1.877  11.683  0.4981 -0.1918 -0.1527
  473MOL0     H65205   1.042   2.086  11.447 -0.5178 -1.0086 -1.7005
  473MOL0     H65206   1.269   2.015  11.409 -0.3215  0.5114 -1.0999
  473MOL0     H65207   1.478   1.794  11.593 -0.8844  0.6834 -0.2549
  473MOL0     H65208   1.455   1.927  11.478  2.3018  0.1542  1.4383
  473MOL0     H65209   1.604   1.677  11.442 -2.1917  0.1019  2.3854
  473MOL0     H65210   1.569   1.782  11.301  0.9171  1.5566 -0.4178
  473MOL0     H65211   1.785   1.801  11.381 -0.8051 -0.7470 -0.2630
  473MOL0     H65212   1.700   1.952  11.398  0.7347 -0.9714 -1.2013
  473MOL0     H65213   1.693   1.948  11.640 -0.9297 -1.3319  1.0954
  473MOL0     H65214   1.682   1.777  11.645  0.2886  1.0424  2.0643
  473MOL0     H65215   1.933   1.920  11.555  0.0339 -0.5293 -1.5386
  473MOL0     H65216   1.912   1.742  11.595 -1.2988 -0.2654  2.5401
  473MOL0     H65217   1.888   1.960  11.816 -1.6719 -1.2021  1.8924
  473MOL0     H65218   1.849   1.792  11.827 -1.9604 -0.1544 -2.0002
  473MOL0     H65219   2.098   1.755  11.773 -2.8517 -1.2653 -0.0626
  473MOL0     H65220   2.066   1.841  11.934 -0.7952  1.7737  0.4602
  473MOL0     H65221   2.169   1.965  11.670 -1.9947  0.4940  0.4968
  473MOL0     H65222   2.091   2.060  11.794 -2.2963 -0.8930  1.3612
  473MOL0     H65223   2.330   1.748  11.851 -0.8903 -0.4392 -2.0014
  473MOL0     H65224   2.599   1.728  11.988 -1.6086  0.3422  1.7114
  473MOL0     H65225   2.652   1.888  12.041 -1.8363  0.6285  0.2790
  473MOL0     H65226   2.692   1.757  11.772 -1.4702 -0.5496  0.7010
  473MOL0     H65227   2.756   1.920  11.824  0.5391 -0.4784 -0.5890
  473MOL0     H65228   2.889   1.793  12.000  3.0426 -1.9559  0.0313
  473MOL0     H65229   2.823   1.636  11.942  0.7272 -0.5840 -0.1814
  473MOL0     H65230   2.993   1.620  11.803  0.0053  0.7343 -1.8803
  473MOL0     H65231   2.919   1.745  11.709 -1.1458  0.8481  1.1428
  473MOL0     H65232   3.223   1.900  12.005 -2.3617 -0.1366 -1.9310
  473MOL0     H65233   3.508   1.707  12.153 -0.8866  1.3352  1.1808
  473MOL0     H65234   3.397   1.842  12.189  1.0041  1.2113  1.0070
  473MOL0     H65235   3.540   1.874  12.105 -1.0632  1.4997  0.1541
  473MOL0     H65236   3.862   1.609  11.725 -0.4309  2.5326  1.8406
  473MOL0     H65237   4.084   1.532  11.770  1.8056 -0.1265  2.1474
  473MOL0     H65238   4.242   1.312  11.768  0.6913 -0.5224  0.5721
  473MOL0     H65239   4.289   1.453  11.869  2.3382 -0.2538  1.2011
  473MOL0     H65240   4.389   1.271  12.030  1.4445  2.8503 -0.8159
  473MOL0     H65241   4.343   1.151  11.907  0.0233 -0.3665  1.5082
  473MOL0     H65242   4.493   1.209  11.745  2.3761 -2.2414 -0.0651
  473MOL0     H65243   4.559   1.176  11.905 -1.7399 -0.5255  1.1477
  473MOL0     H65244   4.539   1.456  11.930 -2.1277  3.8544 -3.3082
  473MOL0     H65245   4.511   1.431  11.754 -1.4623 -0.9472  0.0311
  473MOL0     H65246   4.762   1.344  11.883  0.3693  1.2256  0.7637
  473MOL0     H65247   4.713   1.346  11.712  0.5723  0.3852  0.1866
  473MOL0     H65248   4.713   1.608  11.870 -2.3058 -0.9948  0.2004
  473MOL0     H65249   4.727   1.579  11.692  1.9636  1.0976 -0.0542
  473MOL0     H65250   4.945   1.455  11.772 -0.0595  0.7115  0.1117
  473MOL0     H65251   4.942   1.574  11.906 -0.8864 -1.9737  1.0224
  473MOL0     H65252   4.936   1.755  11.765 -3.0262 -0.5013 -0.7597
  473MOL0     H65253   4.914   1.653  11.616 -0.0416  1.5122  0.1619
  473MOL0     H65254   3.917   1.276  12.086 -0.4895 -1.0072 -0.6187
  473MOL0     H65255   3.707   1.339  12.039  1.6783  0.3840  1.1221
  473MOL0     H65256   3.420   1.593  11.679 -0.1353  1.0133  0.0517
  473MOL0     H65257   3.198   1.659  11.664  0.8983  0.8748 -0.3776
  473MOL0     H65258   1.159   1.613  11.517  0.8472  0.0367  1.4498
  473MOL0     H65259   0.915   1.689  11.570  2.8274 -1.7080  2.9283
  473MOL0     H65260   0.587   1.937  11.217  0.6934  0.4986  1.0155
  473MOL0     H65261   0.363   1.869  11.197  1.1664  0.1970  0.1217
  473MOL0     H65262   0.196   1.622  11.528  0.6185 -0.8813 -0.7904
  473MOL0     H65263   0.165   1.786  11.582  3.7358  0.6062 -1.6093
  473MOL0     H65264  -0.044   1.614  11.525 -2.4564  0.1986 -2.7517
  473MOL0     H65265   0.002   1.675  11.361  0.4973 -2.3562  0.6796
  473MOL0     H65266  -0.123   1.816  11.600  0.1364 -0.3849 -0.2200
  473MOL0     H65267  -0.034   1.909  11.468 -0.2119 -0.0776  0.4141
  473MOL0     H65268  -0.166   1.822  11.303 -1.7488  1.8784 -0.6411
  473MOL0     H65269  -0.264   1.912  11.416 -0.6728 -0.5512 -0.5126
  473MOL0     H65270  -0.422   1.512  11.414  3.8077 -1.3973 -2.4294
  473MOL0     H65271   0.365   1.796  11.619 -1.0283 -0.5956 -1.0202
  473MOL0     H65272   0.545   1.847  11.766  3.4876 -1.4057  1.9075
  473MOL0     H65273   0.683   1.796  11.686 -0.7194 -1.3673 -0.7854
  473MOL0     H65274   0.663   1.971  11.695  0.3487 -0.1865  0.5364
  474MOL0     O65275   1.755   8.954   0.852 -0.9489  0.3021 -0.4721
  474MOL0     C65276   1.669   8.880   0.890  0.2515  0.4593  0.5300
  474MOL0     O65277   1.693   8.757   0.922  0.1320 -0.4636 -0.5523
  474MOL0     C65278   1.820   8.690   0.928  0.2135  0.3976  0.3899
  474MOL0     C65279   1.928   8.715   0.834  0.6783 -0.7370  0.2655
  474MOL0     C65280   2.038   8.631   0.827  0.6731  0.0236  0.2880
  474MOL0     C65281   2.060   8.533   0.925  0.2930  0.2943 -0.0698
  474MOL0     O65282   2.182   8.464   0.935  0.1197  0.1267 -0.9116
  474MOL0     C65283   2.290   8.483   0.839 -0.1412 -0.0152  0.0059
  474MOL0     C65284   2.413   8.405   0.876 -0.7382 -0.2103  0.6212
  474MOL0     C65285   2.518   8.385   0.756  0.6361  0.7221  0.3181
  474MOL0     C65286   2.643   8.320   0.806  0.8289  0.4878 -0.5728
  474MOL0     C65287   2.731   8.303   0.685  0.1713  0.6655 -0.3656
  474MOL0     C65288   2.857   8.226   0.722 -0.8148  0.2416 -0.3372
  474MOL0     C65289   2.842   8.078   0.752 -0.1134 -0.9484  0.4487
  474MOL0     C65290   2.965   7.992   0.746 -0.1545 -0.4295  0.0115
  474MOL0     N65291   3.060   8.038   0.845  0.0631  0.1085 -0.8006
  474MOL0     C65292   3.033   8.038   0.980  0.0229 -0.0643  0.1281
  474MOL0     C65293   3.145   8.094   1.041  0.2431 -0.4428 -0.0671
  474MOL0     C65294   3.166   8.116   1.193 -0.5092 -0.5070  0.5938
  474MOL0     C65295   3.314   8.100   1.234  0.1122  0.0697  0.1225
  474MOL0     C65296   3.355   7.958   1.258  0.2270  0.0753 -0.4584
  474MOL0     C65297   3.505   7.935   1.290  0.0135 -0.0930 -0.7976
  474MOL0     O65298   3.555   8.001   1.408  0.2261 -0.6167  0.4226
  474MOL0     C65299   3.683   7.974   1.449  0.2104 -0.4188  0.1756
  474MOL0     C65300   3.723   8.022   1.571 -0.1524 -0.6154 -0.0929
  474MOL0     C65301   3.833   7.977   1.642 -0.0935 -0.6561 -0.0820
  474MOL0     C65302   3.837   8.023   1.788 -0.4787 -0.2860  0.7518
  474MOL0     C65303   3.920   7.885   1.571  0.3578  0.0368 -0.0357
  474MOL0     C65304   4.050   7.832   1.615 -0.7721 -0.3706 -0.3906
  474MOL0     O65305   4.132   7.763   1.524 -0.5346  0.0940 -0.3635
  474MOL0     C65306   4.256   7.720   1.565 -0.4748  0.8084 -0.0547
  474MOL0     C65307   4.347   7.788   1.642  0.5149 -0.0320 -0.7976
  474MOL0     C65308   4.478   7.753   1.642  0.2925 -0.2317 -0.7817
  474MOL0     C65309   4.526   7.650   1.562 -0.4599  0.3421 -0.5675
  474MOL0     O65310   4.657   7.611   1.560  0.5877  0.0957 -0.2443
  474MOL0     C65311   4.761   7.707   1.572 -0.7177  0.3216 -0.6063
  474MOL0     C65312   4.882   7.636   1.505  0.5284  0.1734 -0.5561
  474MOL0     C65313   4.944   7.517   1.578  0.2096 -0.0046  0.6475
  474MOL0     C65314   5.073   7.469   1.512 -0.7970 -0.0760 -0.1512
  474MOL0     C65315   5.153   7.353   1.585  0.1124 -0.0453 -1.2573
  474MOL0     C65316   5.260   7.277   1.517 -0.2077 -0.0084  0.9041
  474MOL0     C65317   5.348   7.359   1.424  0.5985 -0.3950  0.9184
  474MOL0     C65318   5.467   7.284   1.374 -0.2997 -0.4329  0.1601
  474MOL0    Cl65319   5.602   7.299   1.485 -0.3027  0.0526 -0.3820
  474MOL0     C65320   4.437   7.571   1.491 -0.1967  0.0789 -0.0032
  474MOL0     C65321   4.297   7.611   1.490 -0.6083  0.7160 -0.5150
  474MOL0     O65322   4.074   7.841   1.730 -0.0479 -0.5684 -0.6671
  474MOL0     C65323   3.886   7.860   1.435 -0.1793  0.2194  0.2661
  474MOL0     C65324   3.767   7.896   1.375  0.1236  0.2613 -0.4250
  474MOL0     N65325   3.229   8.132   0.940  0.7346 -0.6412 -0.5870
  474MOL0     N65326   3.183   8.099   0.828 -0.2370 -0.0280 -0.4499
  474MOL0     C65327   1.958   8.496   1.008 -0.0681  0.2418  0.0470
  474MOL0     C65328   1.837   8.576   1.005  0.3447  0.6413  0.0640
  474MOL0     C65329   1.530   8.926   0.918  0.4479 -0.6969  1.6089
  474MOL0     C65330   1.497   9.061   0.941 -0.7838 -0.4082  0.4700
  474MOL0     C65331   1.378   9.092   0.998  0.4469  0.2957  0.1875
  474MOL0     C65332   1.270   9.010   1.002 -0.1980  0.3957 -0.5961
  474MOL0     O65333   1.155   9.064   1.064 -0.3448 -0.1081 -0.6391
  474MOL0     C65334   1.030   8.991   1.055 -0.1087  0.2794  0.2400
  474MOL0     C65335   0.924   9.069   1.128 -0.5209 -0.1295  0.2733
  474MOL0     C65336   0.784   9.007   1.129  0.1751 -0.2413  0.1674
  474MOL0     C65337   0.704   9.047   1.248  0.0858 -0.1247 -1.0353
  474MOL0     C65338   0.677   9.196   1.260  0.2245  0.5434 -0.5590
  474MOL0     C65339   0.643   9.308   1.279  0.6527 -0.5159  0.7741
  474MOL0     C65340   1.294   8.874   0.961  0.8134 -0.1231 -0.3243
  474MOL0     C65341   1.421   8.833   0.914 -0.4030  0.4354  0.4061
  474MOL0     C65342   1.427   8.686   0.875  0.3084 -0.1563  0.3802
  474MOL0     H65343   1.933   8.803   0.771  0.0882  0.3034  1.6082
  474MOL0     H65344   2.112   8.647   0.750  0.0239 -1.6292 -0.7472
  474MOL0     H65345   2.306   8.591   0.834 -0.1866 -0.0678 -1.6629
  474MOL0     H65346   2.262   8.448   0.739  3.7948  2.4828 -2.2076
  474MOL0     H65347   2.477   8.463   0.944  1.4884  1.7766 -2.8195
  474MOL0     H65348   2.394   8.308   0.923 -1.3895  0.0439  0.8927
  474MOL0     H65349   2.467   8.320   0.685  0.4692  0.9386  0.2379
  474MOL0     H65350   2.534   8.484   0.711  1.0047  2.1159  3.2872
  474MOL0     H65351   2.689   8.389   0.877  0.0525  1.6016 -1.1323
  474MOL0     H65352   2.614   8.228   0.858 -1.8784  1.8868  0.6427
  474MOL0     H65353   2.749   8.401   0.640 -0.6555 -0.3470 -3.0811
  474MOL0     H65354   2.672   8.251   0.609 -1.7069  1.0918  0.7365
  474MOL0     H65355   2.933   8.240   0.644 -0.1407 -0.9665  0.0778
  474MOL0     H65356   2.904   8.271   0.810  1.7624  0.9236 -1.9515
  474MOL0     H65357   2.766   8.028   0.692 -1.9033 -3.2396  4.2611
  474MOL0     H65358   2.793   8.057   0.848 -0.8310 -2.6959 -0.2638
  474MOL0     H65359   2.937   7.888   0.766 -1.6100 -0.2576 -0.9337
  474MOL0     H65360   3.017   7.993   0.649 -0.0177 -0.5730  0.0831
  474MOL0     H65361   2.946   8.004   1.036  1.3531 -1.5191  1.4179
  474MOL0     H65362   3.096   8.055   1.251  0.6298 -3.0888 -0.5458
  474MOL0     H65363   3.138   8.221   1.203  0.3186  0.4233 -4.2008
  474MOL0     H65364   3.385   8.149   1.166  0.6004  1.3870  1.5266
  474MOL0     H65365   3.336   8.160   1.323 -2.8963  1.7596 -0.1577
  474MOL0     H65366   3.300   7.925   1.347  0.5783  3.1599  1.0410
  474MOL0     H65367   3.339   7.896   1.169  0.9717  0.4289 -0.8491
  474MOL0     H65368   3.524   7.828   1.301  3.3814  0.2669 -2.0471
  474MOL0     H65369   3.565   7.964   1.203  0.3779  0.9239 -0.2208
  474MOL0     H65370   3.661   8.104   1.606 -0.1782  0.1195 -1.7741
  474MOL0     H65371   3.851   7.941   1.858  1.8241  1.5006  2.5287
  474MOL0     H65372   3.753   8.090   1.811  0.1287  0.2394  1.4943
  474MOL0     H65373   3.929   8.082   1.789 -0.8238  0.2405  1.8813
  474MOL0     H65374   4.306   7.866   1.705 -1.8906  0.3230 -2.6640
  474MOL0     H65375   4.540   7.815   1.705 -3.8319  2.6054  0.9422
  474MOL0     H65376   4.738   7.798   1.516  0.3277 -0.0876 -1.7520
  474MOL0     H65377   4.792   7.737   1.672 -2.5325 -1.9960  0.7326
  474MOL0     H65378   4.858   7.591   1.408  2.5760 -0.0854 -0.9981
  474MOL0     H65379   4.959   7.712   1.488 -1.0891  1.6746 -1.4811
  474MOL0     H65380   4.873   7.434   1.572  1.8097 -1.3837 -0.2151
  474MOL0     H65381   4.963   7.545   1.682  1.6439  0.8208  0.1942
  474MOL0     H65382   5.136   7.558   1.505  0.9631 -1.3254 -1.1440
  474MOL0     H65383   5.063   7.432   1.409  2.7784 -0.8215 -0.3531
  474MOL0     H65384   5.195   7.404   1.673  0.1102 -0.9014 -0.7508
  474MOL0     H65385   5.085   7.283   1.635  0.1412  1.4695  1.1031
  474MOL0     H65386   5.219   7.187   1.470  0.2435  0.2051  0.0813
  474MOL0     H65387   5.324   7.239   1.598 -0.5896 -2.2758  0.2179
  474MOL0     H65388   5.374   7.447   1.484  0.1194  0.4991 -0.1495
  474MOL0     H65389   5.302   7.399   1.333  0.9131  2.1371  1.7824
  474MOL0     H65390   5.506   7.328   1.282 -2.7061  1.3284 -0.1076
  474MOL0     H65391   5.445   7.181   1.344  0.0799  0.2753 -2.8791
  474MOL0     H65392   4.467   7.487   1.428 -0.5201  1.1947 -1.7145
  474MOL0     H65393   4.217   7.555   1.442 -0.2480 -1.7608  1.5591
  474MOL0     H65394   3.961   7.814   1.372  1.1419  0.2302  1.7696
  474MOL0     H65395   3.745   7.854   1.277  0.0596 -2.5146  0.6965
  474MOL0     H65396   1.967   8.409   1.073 -2.5110 -0.9836 -1.1088
  474MOL0     H65397   1.758   8.548   1.075  0.2221 -0.4257 -0.4833
  474MOL0     H65398   1.585   9.125   0.936  0.9193 -2.3465  3.0850
  474MOL0     H65399   1.372   9.193   1.037  0.4327 -0.1211  1.3062
  474MOL0     H65400   0.999   8.977   0.951  2.6499  1.3153 -0.8142
  474MOL0     H65401   1.042   8.894   1.104  1.0699  1.0718  1.5951
  474MOL0     H65402   0.919   9.166   1.078 -1.3008 -0.0500  0.4976
  474MOL0     H65403   0.952   9.088   1.232 -0.0726  2.5567 -0.2535
  474MOL0     H65404   0.729   9.041   1.040  0.9180  0.0366 -0.1871
  474MOL0     H65405   0.792   8.898   1.129  1.0016 -0.2018 -0.7701
  474MOL0     H65406   0.759   9.024   1.340 -0.1141  0.0667 -0.8656
  474MOL0     H65407   0.611   8.990   1.248  1.3149 -2.2607 -2.5171
  474MOL0     H65408   0.604   9.407   1.289  0.4183 -0.7050  1.7696
  474MOL0     H65409   1.217   8.798   0.970  1.1238 -0.3590  0.4233
  474MOL0     H65410   1.455   8.631   0.965  0.2815 -1.2888 -0.2802
  474MOL0     H65411   1.335   8.651   0.828  0.4869  2.2694 -2.0670
  474MOL0     H65412   1.511   8.670   0.807  1.6439  0.2638  1.8627
  475MOL0     O65413   5.326   2.834   4.667 -0.0313 -0.3197 -0.6465
  475MOL0     C65414   5.322   2.786   4.781 -0.4274 -0.4647  0.1734
  475MOL0     O65415   5.432   2.777   4.867 -0.0711 -0.2209 -0.6487
  475MOL0     C65416   5.560   2.823   4.833  0.3010  0.6133  0.1635
  475MOL0     C65417   5.641   2.742   4.747  0.6482  0.8473  0.0086
  475MOL0     C65418   5.764   2.787   4.707  0.1147  0.1923  0.9866
  475MOL0     C65419   5.808   2.915   4.748  0.6538  0.4986 -0.3431
  475MOL0     O65420   5.929   2.960   4.702  0.3236 -0.1535 -0.0167
  475MOL0     C65421   6.036   2.880   4.734  0.0407  0.6049  0.6724
  475MOL0     C65422   6.140   2.886   4.622  0.1835 -0.3206  0.1584
  475MOL0     C65423   6.286   2.867   4.680  0.7596 -0.5561 -0.4490
  475MOL0     C65424   6.383   2.869   4.564 -0.6897  0.7725  0.1047
  475MOL0     C65425   6.537   2.864   4.591  0.0190 -0.5945 -0.5084
  475MOL0     C65426   6.613   2.846   4.462 -0.8959 -0.1645  0.1228
  475MOL0     C65427   6.613   2.702   4.412  0.2881  0.6191  0.0852
  475MOL0     C65428   6.717   2.685   4.305 -0.4504  0.2123  0.7483
  475MOL0     N65429   6.845   2.658   4.362  0.1078  0.6176  0.1908
  475MOL0     C65430   6.880   2.546   4.432  0.7570  0.8010  0.1999
  475MOL0     C65431   6.984   2.586   4.502  0.3019 -0.4153  0.1313
  475MOL0     C65432   7.073   2.505   4.600 -0.2102 -0.7598 -0.0863
  475MOL0     C65433   7.227   2.532   4.581  0.4228 -0.5873  0.0157
  475MOL0     C65434   7.321   2.429   4.642 -0.0570 -0.3913  1.0717
  475MOL0     C65435   7.456   2.487   4.665 -0.4658 -0.3668 -0.4185
  475MOL0     O65436   7.523   2.466   4.791  0.5378  0.0302 -0.3486
  475MOL0     C65437   7.655   2.501   4.799  0.5618  0.3039 -0.5387
  475MOL0     C65438   7.727   2.457   4.911 -0.4080 -1.1322 -0.0547
  475MOL0     C65439   7.857   2.502   4.938  0.1448  0.1460 -0.3140
  475MOL0     C65440   7.923   2.454   5.064  0.2631  0.2273 -0.4056
  475MOL0     C65441   7.922   2.589   4.839 -0.2489 -0.3519  0.5684
  475MOL0     C65442   8.048   2.662   4.868 -0.1870 -0.5804  1.0289
  475MOL0     O65443   8.146   2.597   4.943 -0.2792 -0.2879 -0.3766
  475MOL0     C65444   8.263   2.656   4.993 -0.4138  0.2221  0.3033
  475MOL0     C65445   8.332   2.776   4.964  0.5748  0.1209 -0.4948
  475MOL0     C65446   8.454   2.808   5.025 -0.2595  0.1727 -0.2088
  475MOL0     C65447   8.515   2.738   5.130  0.9659  0.6576  0.6662
  475MOL0     O65448   8.628   2.768   5.199  0.0289 -0.5066  0.2586
  475MOL0     C65449   8.687   2.895   5.190 -1.2053  0.1274  0.2819
  475MOL0     C65450   8.791   2.938   5.301 -0.1337  0.6328  0.5762
  475MOL0     C65451   8.925   2.854   5.266  0.0011  0.2783 -0.4220
  475MOL0     C65452   9.028   2.872   5.377  0.4457  0.6186  0.7434
  475MOL0     C65453   9.159   2.796   5.346  0.1443 -0.8551  0.3975
  475MOL0     C65454   9.262   2.795   5.454 -0.2244  0.4775  0.5108
  475MOL0     C65455   9.313   2.929   5.509 -0.4380  0.1440 -0.2535
  475MOL0     C65456   9.371   2.902   5.651 -0.1262  0.5842  0.2613
  475MOL0    Cl65457   9.408   3.063   5.709 -0.4367 -0.2886 -0.0459
  475MOL0     C65458   8.454   2.614   5.158 -0.8022 -0.8575 -0.5263
  475MOL0     C65459   8.330   2.578   5.091  0.4310 -0.1146  0.0152
  475MOL0     O65460   8.071   2.774   4.805  0.3459 -0.1321 -0.6084
  475MOL0     C65461   7.850   2.624   4.720  0.4666  0.5480 -0.5119
  475MOL0     C65462   7.719   2.575   4.699  0.1100 -0.4674  0.3658
  475MOL0     N65463   7.010   2.717   4.477 -0.0136 -0.3613 -0.5061
  475MOL0     N65464   6.931   2.762   4.390  0.8625 -0.0816  0.7058
  475MOL0     C65465   5.732   2.993   4.826 -0.3189  0.3615  0.0128
  475MOL0     C65466   5.608   2.947   4.876  0.0515 -0.8836  0.1076
  475MOL0     C65467   5.205   2.725   4.821  0.4329  0.0096  0.0178
  475MOL0     C65468   5.198   2.674   4.955  0.4680 -0.5692  0.2291
  475MOL0     C65469   5.097   2.604   5.007  0.7491 -0.3562  0.1908
  475MOL0     C65470   4.980   2.577   4.922 -0.4915  0.3271  0.4223
  475MOL0     O65471   4.863   2.504   4.953  0.2299  0.1246 -0.1198
  475MOL0     C65472   4.866   2.439   5.081  0.0657  0.7601  0.6310
  475MOL0     C65473   4.736   2.384   5.135  0.2783  0.7569  0.6190
  475MOL0     C65474   4.677   2.266   5.053  0.4724  1.3345 -0.1384
  475MOL0     C65475   4.547   2.214   5.120  0.2473 -0.4338  0.0960
  475MOL0     C65476   4.466   2.132   5.027 -0.3051 -0.4988 -0.9407
  475MOL0     C65477   4.384   2.065   4.974  0.7307  0.3031  1.2198
  475MOL0     C65478   4.977   2.626   4.798  0.5180  0.6413 -0.0406
  475MOL0     C65479   5.087   2.702   4.745  0.0401  0.7774 -0.4141
  475MOL0     C65480   5.052   2.758   4.613  0.4126 -0.0738  0.9527
  475MOL0     H65481   5.612   2.640   4.725 -0.8119  0.9495  1.2860
  475MOL0     H65482   5.822   2.732   4.634 -0.2821  0.3508  0.5440
  475MOL0     H65483   6.007   2.775   4.748  0.8106  0.3632  0.4987
  475MOL0     H65484   6.072   2.904   4.834  0.6243  3.1594 -0.0957
  475MOL0     H65485   6.122   2.810   4.546 -0.5051 -2.1927  2.1058
  475MOL0     H65486   6.128   2.986   4.578  0.8695  1.9512  4.5976
  475MOL0     H65487   6.314   2.941   4.755 -0.8455 -1.4670  1.1180
  475MOL0     H65488   6.290   2.769   4.729 -1.7954 -0.5652 -0.1199
  475MOL0     H65489   6.351   2.774   4.520 -1.7812  1.2178 -0.0918
  475MOL0     H65490   6.362   2.948   4.491  4.7202  1.4813 -1.1095
  475MOL0     H65491   6.555   2.783   4.663 -0.1922  1.1597  1.6305
  475MOL0     H65492   6.575   2.958   4.632 -0.5015 -0.7292  0.3120
  475MOL0     H65493   6.586   2.922   4.388  1.7242  0.7561  0.0184
  475MOL0     H65494   6.717   2.865   4.489 -0.9904  3.2516 -1.4570
  475MOL0     H65495   6.514   2.669   4.378  1.2573 -3.0273  0.3553
  475MOL0     H65496   6.633   2.635   4.496  0.2417  1.4773  0.7989
  475MOL0     H65497   6.694   2.613   4.226  1.5482  1.2280 -0.8301
  475MOL0     H65498   6.713   2.775   4.244  0.1489 -0.8782 -0.9791
  475MOL0     H65499   6.839   2.446   4.422  0.7075  0.8749 -0.3408
  475MOL0     H65500   7.043   2.400   4.591  2.3943 -1.4555 -1.7200
  475MOL0     H65501   7.057   2.531   4.705  0.5366  1.0775 -0.3790
  475MOL0     H65502   7.244   2.539   4.473  1.7334 -1.2106  0.1687
  475MOL0     H65503   7.250   2.631   4.620 -1.6930  0.5368 -1.3885
  475MOL0     H65504   7.283   2.393   4.738 -0.5478  1.0886  1.4622
  475MOL0     H65505   7.330   2.340   4.580  0.3928 -0.3977  1.1406
  475MOL0     H65506   7.515   2.460   4.577  0.7884 -2.0966  0.8865
  475MOL0     H65507   7.457   2.596   4.669  1.7468 -0.3720  2.1005
  475MOL0     H65508   7.689   2.383   4.981 -0.5582 -0.6699  0.3635
  475MOL0     H65509   7.848   2.400   5.124 -2.4640  0.4873 -3.3004
  475MOL0     H65510   7.951   2.548   5.112 -2.0094  1.1871 -0.8376
  475MOL0     H65511   8.008   2.388   5.048  0.8525  1.0945 -0.9203
  475MOL0     H65512   8.274   2.836   4.895 -2.2286  1.2117  2.5812
  475MOL0     H65513   8.488   2.900   4.978  1.4798 -0.3502 -0.0628
  475MOL0     H65514   8.733   2.905   5.091 -0.2979 -0.1098  0.6697
  475MOL0     H65515   8.602   2.963   5.199 -2.1800 -0.2790 -3.8341
  475MOL0     H65516   8.815   3.042   5.277 -0.1103  0.7043  0.9090
  475MOL0     H65517   8.755   2.916   5.402 -0.9766 -0.2881  0.0973
  475MOL0     H65518   8.955   2.894   5.168 -3.5378  4.2425 -0.1325
  475MOL0     H65519   8.905   2.746   5.263  0.1929  0.1615  1.6197
  475MOL0     H65520   8.998   2.828   5.473 -2.0210 -1.0649 -0.6891
  475MOL0     H65521   9.047   2.978   5.396 -1.6369  1.4332 -1.2061
  475MOL0     H65522   9.144   2.694   5.308  1.3373 -1.4424  1.4380
  475MOL0     H65523   9.209   2.851   5.266 -1.8502  2.0972  1.0196
  475MOL0     H65524   9.355   2.744   5.425 -0.7901 -1.2095  1.5668
  475MOL0     H65525   9.229   2.738   5.541  1.7375 -0.3990  0.7456
  475MOL0     H65526   9.235   3.006   5.512 -1.2270 -0.6270 -0.6979
  475MOL0     H65527   9.394   2.964   5.444  0.7934  1.0212  1.6915
  475MOL0     H65528   9.454   2.831   5.648 -2.0288 -1.9351  2.6422
  475MOL0     H65529   9.296   2.864   5.721 -0.1956  0.0203 -0.1180
  475MOL0     H65530   8.495   2.562   5.244  1.7461  0.2271 -0.9952
  475MOL0     H65531   8.290   2.480   5.114  2.4849 -0.9869  0.1158
  475MOL0     H65532   7.886   2.682   4.635  0.1077 -1.1542 -1.8675
  475MOL0     H65533   7.675   2.603   4.604 -0.0925  0.6088  0.7637
  475MOL0     H65534   5.779   3.086   4.858 -0.5330  0.0206  1.3997
  475MOL0     H65535   5.548   3.000   4.949  0.0510 -1.0373  0.2173
  475MOL0     H65536   5.286   2.698   5.014 -0.1855  1.5880  0.3974
  475MOL0     H65537   5.103   2.572   5.111 -0.1409 -3.3778 -0.5965
  475MOL0     H65538   4.932   2.354   5.061  2.1872  2.8953 -2.5235
  475MOL0     H65539   4.902   2.509   5.157  1.9214  2.6636 -1.8481
  475MOL0     H65540   4.652   2.453   5.146 -2.8722 -2.6854 -0.1750
  475MOL0     H65541   4.755   2.350   5.237 -0.4703 -5.0008 -0.8202
  475MOL0     H65542   4.653   2.305   4.954 -1.3304 -0.1954 -0.3821
  475MOL0     H65543   4.753   2.187   5.047  0.0605  0.8759  0.4535
  475MOL0     H65544   4.482   2.295   5.153 -0.1421 -0.4862 -0.5358
  475MOL0     H65545   4.575   2.149   5.204  1.8408 -1.2549 -1.0138
  475MOL0     H65546   4.315   2.015   4.909  1.1568  0.5342  0.5864
  475MOL0     H65547   4.886   2.617   4.739  1.2193  0.4213 -1.1271
  475MOL0     H65548   5.129   2.751   4.536 -0.8306 -1.1542 -0.2569
  475MOL0     H65549   4.961   2.718   4.567  0.7633 -0.4733  0.5898
  475MOL0     H65550   5.025   2.862   4.632  0.9222 -0.0321  1.4768
  476MOL0     O65551  10.474   8.727   9.386  0.3829 -0.4422 -0.5439
  476MOL0     C65552  10.525   8.838   9.416 -0.7252  0.6472 -0.1984
  476MOL0     O65553  10.459   8.941   9.476 -0.5649 -0.1012  0.1047
  476MOL0     C65554  10.319   8.931   9.477 -1.3095 -0.7622 -0.1898
  476MOL0     C65555  10.248   8.928   9.358 -0.0735 -0.2115  0.3515
  476MOL0     C65556  10.104   8.927   9.357 -0.7584  0.4162  0.0366
  476MOL0     C65557  10.027   8.948   9.468  0.5856 -1.2694 -0.0637
  476MOL0     O65558   9.888   8.936   9.484  0.1515 -0.1046  0.2895
  476MOL0     C65559   9.801   8.935   9.365 -1.2037 -0.1396 -0.6550
  476MOL0     C65560   9.652   8.916   9.409 -0.7315  0.2228 -0.5618
  476MOL0     C65561   9.571   8.884   9.283 -0.0284 -0.4560  0.1440
  476MOL0     C65562   9.420   8.899   9.305  0.2575 -0.1606  0.5757
  476MOL0     C65563   9.363   8.801   9.407 -1.2469 -0.4274  0.4961
  476MOL0     C65564   9.231   8.845   9.471  0.3159 -0.7894 -0.6901
  476MOL0     C65565   9.157   8.725   9.535 -0.3665  0.0252  0.0533
  476MOL0     C65566   9.212   8.695   9.675 -0.1145 -0.3477 -0.3630
  476MOL0     N65567   9.165   8.806   9.763  0.1644  0.3835  0.0081
  476MOL0     C65568   9.048   8.875   9.744  0.2435 -0.2981 -0.0185
  476MOL0     C65569   9.052   8.964   9.840 -0.0884 -0.2837  0.7808
  476MOL0     C65570   8.936   9.062   9.863 -0.6485 -0.3209  0.1102
  476MOL0     C65571   8.836   8.991   9.961 -0.7302 -0.1372  0.4243
  476MOL0     C65572   8.722   9.084  10.000 -0.1666  0.4918  0.4407
  476MOL0     C65573   8.649   9.023  10.120 -0.6463  0.1630 -0.8464
  476MOL0     O65574   8.540   9.113  10.153 -0.0115 -0.3306 -0.0801
  476MOL0     C65575   8.500   9.119  10.284  0.1960  0.1873 -0.0945
  476MOL0     C65576   8.410   9.225  10.307  0.8760  1.0625 -0.8538
  476MOL0     C65577   8.366   9.255  10.440 -0.6092 -0.2072  0.0514
  476MOL0     C65578   8.282   9.379  10.461  0.4125  0.7170 -0.1080
  476MOL0     C65579   8.390   9.163  10.541  0.2741  0.4533  0.4962
  476MOL0     C65580   8.360   9.180  10.682  0.3472  0.8347 -0.2796
  476MOL0     O65581   8.387   9.080  10.771  0.6862  1.0043 -1.1930
  476MOL0     C65582   8.311   9.081  10.887 -0.4437  0.0421  1.0261
  476MOL0     C65583   8.278   8.950  10.936 -0.6972 -0.0936 -0.6588
  476MOL0     C65584   8.204   8.930  11.049  0.4044 -0.4677  0.8806
  476MOL0     C65585   8.171   9.048  11.128 -0.6874  0.2012  0.4520
  476MOL0     O65586   8.077   9.038  11.225 -0.4667 -0.4017  0.7420
  476MOL0     C65587   8.090   8.939  11.326  0.0277 -0.4893 -0.5296
  476MOL0     C65588   8.147   8.999  11.453 -0.6295  0.3604 -0.0939
  476MOL0     C65589   8.065   9.108  11.521 -0.2097 -0.8697  0.1611
  476MOL0     C65590   7.946   9.057  11.604  0.5312  0.5339  1.1674
  476MOL0     C65591   7.875   9.181  11.655 -1.2931  0.7511 -0.0806
  476MOL0     C65592   7.759   9.151  11.744 -0.3802  0.1016 -0.3610
  476MOL0     C65593   7.711   9.280  11.815  0.5011  0.6020 -0.3346
  476MOL0     C65594   7.657   9.397  11.726  0.5407  0.6417 -0.7675
  476MOL0    Cl65595   7.496   9.347  11.650 -0.4091  0.3464 -0.3482
  476MOL0     C65596   8.226   9.167  11.090 -0.0066 -0.6376  0.6175
  476MOL0     C65597   8.292   9.191  10.969  0.6637  0.7624 -0.2019
  476MOL0     O65598   8.291   9.280  10.709  0.0029 -0.0846  0.6346
  476MOL0     C65599   8.481   9.056  10.519  0.3635 -0.6355  0.4233
  476MOL0     C65600   8.550   9.039  10.393  1.0414  0.6554  1.1528
  476MOL0     N65601   9.161   8.950   9.919  0.3456 -0.0024 -0.0142
  476MOL0     N65602   9.230   8.852   9.877  0.1737  0.1264 -0.0182
  476MOL0     C65603  10.099   8.953   9.588 -0.8668 -0.3392  0.0390
  476MOL0     C65604  10.245   8.945   9.594 -0.6111 -0.2905 -0.3904
  476MOL0     C65605  10.670   8.868   9.377  0.0499 -0.9021 -0.9156
  476MOL0     C65606  10.725   8.988   9.427 -0.4146  0.0752  0.2967
  476MOL0     C65607  10.861   9.027   9.420  0.8402  0.3277 -0.0638
  476MOL0     C65608  10.941   8.953   9.328  0.3388  0.0745  0.2735
  476MOL0     O65609  11.073   8.986   9.302  0.0186  0.4980 -0.1521
  476MOL0     C65610  11.143   9.074   9.393 -1.2095 -0.3447 -0.8173
  476MOL0     C65611  11.286   9.059   9.352  0.0640 -0.2906 -0.4722
  476MOL0     C65612  11.375   9.180   9.404 -0.3453  0.4056  0.2936
  476MOL0     C65613  11.527   9.168   9.411 -0.0314 -0.2858  0.3076
  476MOL0     C65614  11.569   9.152   9.275  0.4901 -0.3996  0.3232
  476MOL0     C65615  11.599   9.127   9.161  0.8316 -0.6370 -0.6359
  476MOL0     C65616  10.893   8.835   9.269  0.5161  0.2952 -0.6520
  476MOL0     C65617  10.755   8.788   9.299  0.2393 -0.0577 -0.5599
  476MOL0     C65618  10.720   8.647   9.244 -0.1966 -0.1611  0.1905
  476MOL0     H65619  10.291   8.923   9.259 -3.4411  0.5528 -1.3095
  476MOL0     H65620  10.057   8.918   9.260 -1.3409 -0.6578  0.3928
  476MOL0     H65621   9.827   8.865   9.285 -1.5513 -0.2934 -0.6348
  476MOL0     H65622   9.803   9.033   9.317 -1.0900 -1.2543 -3.0530
  476MOL0     H65623   9.654   8.834   9.481  1.4921 -1.3180 -2.2315
  476MOL0     H65624   9.608   9.001   9.463 -2.2112 -0.9086  0.0849
  476MOL0     H65625   9.594   8.951   9.200 -1.2582 -1.0799 -0.7317
  476MOL0     H65626   9.596   8.783   9.252  0.7385  0.0585 -0.9483
  476MOL0     H65627   9.396   9.004   9.325 -1.6312 -0.4607  0.1356
  476MOL0     H65628   9.376   8.884   9.206 -0.0177 -1.7974  0.9202
  476MOL0     H65629   9.429   8.776   9.491 -0.9267  1.6215  0.9173
  476MOL0     H65630   9.341   8.710   9.350 -0.6708 -0.6403  0.6025
  476MOL0     H65631   9.249   8.918   9.550  0.6852  1.8794 -3.1047
  476MOL0     H65632   9.168   8.891   9.395 -1.5573 -0.5701  0.9137
  476MOL0     H65633   9.176   8.635   9.475  0.3753 -2.2291  3.3920
  476MOL0     H65634   9.048   8.734   9.534 -0.2896  1.1609 -0.9542
  476MOL0     H65635   9.188   8.592   9.704  3.3621 -1.0790  0.2682
  476MOL0     H65636   9.320   8.699   9.688  0.0935  3.5260 -1.8147
  476MOL0     H65637   8.968   8.861   9.672  1.4398 -0.4363 -1.3783
  476MOL0     H65638   8.898   9.095   9.766  1.0721  0.4212 -0.3655
  476MOL0     H65639   8.963   9.154   9.916  0.7690 -0.7702  0.2379
  476MOL0     H65640   8.798   8.910   9.898 -0.7427  0.8674 -0.9099
  476MOL0     H65641   8.887   8.957  10.051 -2.7753  1.8595  2.4785
  476MOL0     H65642   8.757   9.186  10.018  0.2002  0.3040  0.8087
  476MOL0     H65643   8.649   9.085   9.919  0.2436 -2.2339 -0.0458
  476MOL0     H65644   8.608   8.926  10.091  3.3266 -1.4955 -1.6418
  476MOL0     H65645   8.717   9.005  10.204 -0.5725  0.2266 -0.8925
  476MOL0     H65646   8.392   9.302  10.232 -0.1005  3.3361  1.5501
  476MOL0     H65647   8.194   9.347  10.517  0.0627 -0.6182 -1.3342
  476MOL0     H65648   8.246   9.421  10.366 -1.3246 -0.7394 -0.1620
  476MOL0     H65649   8.345   9.450  10.515  0.4582 -1.5367  3.0442
  476MOL0     H65650   8.321   8.865  10.884 -0.2865  0.3696 -1.0818
  476MOL0     H65651   8.173   8.832  11.084  2.6212 -0.8635  1.8740
  476MOL0     H65652   7.986   8.914  11.351 -0.3022  1.2077 -0.0859
  476MOL0     H65653   8.127   8.837  11.311 -1.1443 -1.3644  1.8528
  476MOL0     H65654   8.178   8.922  11.525 -2.0115  0.2187  0.3732
  476MOL0     H65655   8.238   9.051  11.423 -1.3294 -0.6808 -4.9305
  476MOL0     H65656   8.028   9.183  11.450 -0.7629  0.7172  2.0412
  476MOL0     H65657   8.137   9.149  11.593 -0.7503 -2.0970  1.4358
  476MOL0     H65658   7.972   8.989  11.686  0.0059  0.6312  1.4228
  476MOL0     H65659   7.891   9.002  11.527  1.9849  2.2020 -1.1718
  476MOL0     H65660   7.950   9.227  11.720 -0.7040 -0.8990  0.4548
  476MOL0     H65661   7.838   9.235  11.568 -0.3538  0.6317 -0.5666
  476MOL0     H65662   7.782   9.080  11.823  1.1772  1.8473  0.8535
  476MOL0     H65663   7.681   9.105  11.682 -0.3893 -0.2801 -0.0685
  476MOL0     H65664   7.789   9.324  11.878  0.9119 -1.4314  0.6495
  476MOL0     H65665   7.631   9.259  11.885 -0.5477  1.1973 -1.3231
  476MOL0     H65666   7.729   9.422  11.648  4.1518 -2.8709  1.0668
  476MOL0     H65667   7.634   9.485  11.788 -0.6931  0.4638 -0.9428
  476MOL0     H65668   8.191   9.261  11.133 -1.2148 -1.0925  0.6662
  476MOL0     H65669   8.330   9.291  10.958  0.7248  0.7016 -0.5844
  476MOL0     H65670   8.508   8.985  10.597  3.2802 -0.9270 -0.7383
  476MOL0     H65671   8.625   8.961  10.390 -1.1578 -1.5445  0.4365
  476MOL0     H65672  10.043   8.964   9.680 -1.0713 -1.9841  0.1554
  476MOL0     H65673  10.309   8.960   9.680  0.9767  0.3763 -1.6277
  476MOL0     H65674  10.668   9.066   9.478  0.3949  0.5221  0.5413
  476MOL0     H65675  10.896   9.118   9.467  0.4411  0.7676 -0.5975
  476MOL0     H65676  11.113   9.177   9.374  1.2333  0.3176 -1.3918
  476MOL0     H65677  11.138   9.051   9.499 -0.7275  1.4731 -0.3728
  476MOL0     H65678  11.296   9.059   9.244  0.1964  1.9703 -0.4979
  476MOL0     H65679  11.322   8.970   9.404 -0.3943  0.4842  1.2526
  476MOL0     H65680  11.355   9.267   9.341  0.8049  1.7190  1.6956
  476MOL0     H65681  11.337   9.210   9.502  0.6356  2.7888  0.0061
  476MOL0     H65682  11.549   9.080   9.471 -2.1142 -2.0186 -1.3116
  476MOL0     H65683  11.572   9.258   9.455  0.5430 -0.8813  0.9441
  476MOL0     H65684  11.632   9.113   9.060  0.6893 -0.4420 -0.7095
  476MOL0     H65685  10.961   8.775   9.210  2.6520  0.2023  1.7303
  476MOL0     H65686  10.635   8.658   9.175 -0.0630  0.8880  0.1731
  476MOL0     H65687  10.806   8.610   9.187 -0.5025  0.5170 -0.7403
  476MOL0     H65688  10.694   8.574   9.322 -0.7990 -3.4631 -2.8454
  477MOL0     O65689   0.748   9.319   3.656 -0.3244  0.5965 -0.2978
  477MOL0     C65690   0.686   9.228   3.600 -0.2627  1.0028 -0.2391
  477MOL0     O65691   0.716   9.181   3.470  0.1784  0.3044  0.2962
  477MOL0     C65692   0.813   9.241   3.387  0.1227 -0.6049  0.1415
  477MOL0     C65693   0.846   9.378   3.378 -0.3569 -0.0145  1.2335
  477MOL0     C65694   0.938   9.420   3.282  0.4605 -0.2980  0.5381
  477MOL0     C65695   1.001   9.329   3.197 -0.2400  0.8374 -0.1225
  477MOL0     O65696   1.093   9.352   3.108 -0.1842 -0.2589  0.7135
  477MOL0     C65697   1.158   9.474   3.101 -1.1129 -0.2738  0.5274
  477MOL0     C65698   1.285   9.440   3.013  0.1054  0.3620  0.5504
  477MOL0     C65699   1.396   9.545   3.032 -0.7077 -0.0387 -0.1889
  477MOL0     C65700   1.340   9.683   2.982 -0.3789 -0.4460 -0.2785
  477MOL0     C65701   1.447   9.788   2.977  0.9105 -0.2533 -0.5737
  477MOL0     C65702   1.554   9.784   3.090  0.4277  0.3527 -0.4086
  477MOL0     C65703   1.653   9.892   3.085  0.7146  0.4976  0.8450
  477MOL0     C65704   1.590  10.024   3.138 -0.6887  0.4041  0.1724
  477MOL0     N65705   1.685  10.140   3.140 -1.1050  0.0498  0.3389
  477MOL0     C65706   1.773  10.183   3.235  0.1629 -0.3224 -0.1441
  477MOL0     C65707   1.866  10.262   3.173  1.1065 -0.6532 -0.1566
  477MOL0     C65708   1.984  10.327   3.227 -0.2466 -0.5732 -0.0149
  477MOL0     C65709   2.019  10.460   3.174 -0.5243 -0.1506 -0.9078
  477MOL0     C65710   2.146  10.525   3.242  0.0435 -0.7214 -0.2022
  477MOL0     C65711   2.280  10.460   3.193 -0.5443  0.6101  0.1575
  477MOL0     O65712   2.300  10.331   3.260 -0.5143 -0.2681 -0.4301
  477MOL0     C65713   2.427  10.282   3.264  1.4825  0.1065 -0.1762
  477MOL0     C65714   2.529  10.322   3.181  0.1030 -0.8263  0.2580
  477MOL0     C65715   2.663  10.273   3.182  0.6746 -0.0695  0.1882
  477MOL0     C65716   2.757  10.328   3.083  0.6808  0.5630  0.4473
  477MOL0     C65717   2.704  10.178   3.280  0.6210 -0.6927  0.0277
  477MOL0     C65718   2.832  10.108   3.279 -0.4529  1.0012 -0.6144
  477MOL0     O65719   2.908  10.089   3.388  0.3308  0.2997 -0.0358
  477MOL0     C65720   3.031  10.026   3.386 -0.0518  0.0726 -0.7907
  477MOL0     C65721   3.086   9.948   3.274 -0.8550 -0.0104  0.0962
  477MOL0     C65722   3.219   9.909   3.279 -0.2220  0.2323  0.3357
  477MOL0     C65723   3.298   9.924   3.396  0.2240 -1.0500  0.1853
  477MOL0     O65724   3.419   9.872   3.409 -0.3847 -0.1858 -0.2564
  477MOL0     C65725   3.490   9.817   3.299  0.1111 -0.1456  0.1560
  477MOL0     C65726   3.614   9.752   3.346 -0.1770  0.1120 -0.2530
  477MOL0     C65727   3.600   9.613   3.412 -0.4866 -1.0631  0.3152
  477MOL0     C65728   3.709   9.507   3.382 -0.7541 -0.1944 -0.9685
  477MOL0     C65729   3.844   9.534   3.446 -0.7980 -0.5977  0.2860
  477MOL0     C65730   3.845   9.517   3.598  0.5627 -1.3295 -0.0278
  477MOL0     C65731   3.986   9.542   3.655  0.5199 -0.2810  0.6115
  477MOL0     C65732   4.099   9.451   3.634  0.0306 -0.6090  0.3992
  477MOL0    Cl65733   4.211   9.420   3.779 -0.2318  0.0137  0.4389
  477MOL0     C65734   3.241  10.000   3.502 -0.6432  0.2810  0.4217
  477MOL0     C65735   3.116  10.050   3.500  0.4075  0.2151  0.7974
  477MOL0     O65736   2.867  10.068   3.170 -0.1349  0.5816 -0.5947
  477MOL0     C65737   2.607  10.150   3.382  0.0592  0.2228  0.0123
  477MOL0     C65738   2.474  10.206   3.373 -0.6895  0.0188  0.1488
  477MOL0     N65739   1.829  10.275   3.040  0.2040 -0.0825 -0.3425
  477MOL0     N65740   1.725  10.200   3.027  0.3260 -0.2054  0.6364
  477MOL0     C65741   0.969   9.193   3.210  0.2416 -0.3714 -0.4828
  477MOL0     C65742   0.871   9.150   3.296  0.8768  0.4465 -0.0977
  477MOL0     C65743   0.578   9.151   3.666 -0.5520 -1.1767 -0.5045
  477MOL0     C65744   0.505   9.058   3.589 -0.5822 -0.5404 -0.0889
  477MOL0     C65745   0.408   8.972   3.650  0.2954  0.9118  0.0254
  477MOL0     C65746   0.384   8.986   3.784 -0.7346  0.3716 -1.4869
  477MOL0     O65747   0.292   8.926   3.858 -0.3658  0.0269 -0.2699
  477MOL0     C65748   0.200   8.834   3.788  0.5888  0.6338  0.4042
  477MOL0     C65749   0.097   8.774   3.890 -0.3295  0.1653  0.0749
  477MOL0     C65750   0.000   8.883   3.949 -0.0743  0.0991 -0.2673
  477MOL0     C65751  -0.122   8.820   4.004 -0.7044 -0.1107  0.4692
  477MOL0     C65752  -0.219   8.763   3.911  0.7146  0.0071  0.1264
  477MOL0     C65753  -0.295   8.720   3.831 -0.1037  0.2347  0.0309
  477MOL0     C65754   0.442   9.089   3.853 -0.2694 -0.5717 -0.6165
  477MOL0     C65755   0.545   9.172   3.800  0.3900 -0.2810  0.4387
  477MOL0     C65756   0.588   9.280   3.897 -0.4833 -0.1103  0.1604
  477MOL0     H65757   0.804   9.457   3.440  1.2595  0.3698  1.8768
  477MOL0     H65758   0.958   9.526   3.277  2.0461 -0.5876 -0.0273
  477MOL0     H65759   1.191   9.506   3.200  0.9371 -0.8751  0.0872
  477MOL0     H65760   1.097   9.544   3.044  0.0902 -0.8813 -1.6352
  477MOL0     H65761   1.328   9.343   3.042 -1.1633 -1.1089 -2.1743
  477MOL0     H65762   1.268   9.424   2.906  0.8719 -1.4409  0.6542
  477MOL0     H65763   1.414   9.554   3.140 -1.7464 -0.4986  0.0326
  477MOL0     H65764   1.484   9.523   2.971 -1.4116  2.6896 -2.4154
  477MOL0     H65765   1.291   9.694   2.884 -2.4671  4.1213  0.9687
  477MOL0     H65766   1.271   9.717   3.060  2.2185 -0.1272  2.0399
  477MOL0     H65767   1.391   9.881   2.988 -0.2153 -1.0056  0.1831
  477MOL0     H65768   1.500   9.782   2.882  0.9471 -3.0991 -0.4577
  477MOL0     H65769   1.502   9.786   3.185  2.1909 -1.2345  0.6510
  477MOL0     H65770   1.613   9.692   3.096  2.4281  1.6210  0.8544
  477MOL0     H65771   1.690   9.900   2.983 -3.9206 -0.1349 -1.1506
  477MOL0     H65772   1.740   9.862   3.145  0.3557  0.5554  1.4062
  477MOL0     H65773   1.519  10.061   3.063 -1.0606  0.0340  0.3379
  477MOL0     H65774   1.536  10.010   3.232  0.3460 -1.6668  0.5176
  477MOL0     H65775   1.789  10.150   3.337  1.6328 -1.7560 -0.7945
  477MOL0     H65776   2.069  10.260   3.212 -0.1435 -0.1924 -1.1761
  477MOL0     H65777   1.962  10.332   3.335 -2.0809  2.4557 -0.4131
  477MOL0     H65778   2.026  10.441   3.066  1.8851 -2.1689 -0.4923
  477MOL0     H65779   1.935  10.526   3.198  0.0215 -0.3444  1.8276
  477MOL0     H65780   2.151  10.630   3.210  0.6601  0.1410  2.4478
  477MOL0     H65781   2.125  10.525   3.349  1.2889 -1.9216  0.0653
  477MOL0     H65782   2.289  10.452   3.084  2.5040  0.7664  0.2911
  477MOL0     H65783   2.368  10.518   3.224 -0.3762  0.5594 -0.2188
  477MOL0     H65784   2.509  10.390   3.099  2.7605  0.5563  0.6467
  477MOL0     H65785   2.716  10.415   3.032  0.5531 -0.1767 -0.7588
  477MOL0     H65786   2.793  10.259   3.005  1.6973  0.9977  0.5049
  477MOL0     H65787   2.854  10.347   3.130  1.8625  0.3910 -1.7447
  477MOL0     H65788   3.039   9.932   3.178  0.3112  2.2485 -0.9435
  477MOL0     H65789   3.256   9.856   3.192 -0.9910  1.8887 -1.0561
  477MOL0     H65790   3.423   9.739   3.262  1.0509  0.5700 -3.4471
  477MOL0     H65791   3.501   9.886   3.215 -0.3678 -1.4257 -0.9941
  477MOL0     H65792   3.679   9.731   3.261  1.6187  1.5819  0.6651
  477MOL0     H65793   3.673   9.817   3.413 -1.3267 -0.4134  1.3283
  477MOL0     H65794   3.503   9.569   3.390 -0.9126 -0.7920  1.5404
  477MOL0     H65795   3.605   9.637   3.519 -0.2282  0.0128  0.0791
  477MOL0     H65796   3.731   9.493   3.276 -0.0933 -2.6209 -0.5682
  477MOL0     H65797   3.672   9.412   3.422 -0.9143  0.9544  1.8739
  477MOL0     H65798   3.920   9.462   3.415 -0.5569 -0.6847  1.0718
  477MOL0     H65799   3.873   9.638   3.428  1.7692 -1.2493  0.4180
  477MOL0     H65800   3.804   9.418   3.622  1.0802 -2.9482 -4.8966
  477MOL0     H65801   3.782   9.593   3.646 -1.8210 -2.7277 -0.7707
  477MOL0     H65802   3.971   9.544   3.763  2.6323 -0.5921  0.9504
  477MOL0     H65803   4.005   9.643   3.619 -0.2935 -0.3154  0.0521
  477MOL0     H65804   4.165   9.489   3.555  1.2482 -1.3220  1.0288
  477MOL0     H65805   4.058   9.358   3.593 -2.0838  0.7264 -0.6569
  477MOL0     H65806   3.288  10.032   3.594 -1.4843  1.9606  0.2911
  477MOL0     H65807   3.070  10.118   3.571  0.1798 -1.4964  2.3307
  477MOL0     H65808   2.641  10.080   3.458  1.2517 -0.0672 -0.7559
  477MOL0     H65809   2.421  10.176   3.463 -0.6987  0.7282  0.3915
  477MOL0     H65810   1.026   9.121   3.152  0.2627 -1.7449  1.1555
  477MOL0     H65811   0.855   9.043   3.303 -1.2564  0.6789 -0.5578
  477MOL0     H65812   0.538   9.039   3.487 -1.0851  1.7963 -0.7436
  477MOL0     H65813   0.353   8.904   3.585 -1.9177  3.1062 -0.5618
  477MOL0     H65814   0.144   8.891   3.713 -0.5031  1.9008  2.1004
  477MOL0     H65815   0.253   8.751   3.741 -1.0747  0.1963 -0.7877
  477MOL0     H65816   0.149   8.725   3.973  2.0951  3.6137  0.8008
  477MOL0     H65817   0.038   8.701   3.833  2.4786 -1.4024 -1.0204
  477MOL0     H65818   0.052   8.933   4.031 -0.9235 -0.0972  0.3956
  477MOL0     H65819  -0.031   8.956   3.873  0.3074  0.5647  0.0172
  477MOL0     H65820  -0.173   8.895   4.065 -1.7820 -0.5975  0.2058
  477MOL0     H65821  -0.095   8.736   4.068 -2.9399 -1.1200  0.1961
  477MOL0     H65822  -0.363   8.701   3.750  0.2765  0.9415 -0.4673
  477MOL0     H65823   0.393   9.106   3.948 -0.4512 -2.3731 -0.3379
  477MOL0     H65824   0.551   9.376   3.861 -0.7004 -0.0626  0.5142
  477MOL0     H65825   0.559   9.258   4.000 -2.6185 -1.9913 -0.7379
  477MOL0     H65826   0.697   9.288   3.896 -0.3390  0.3041  4.4036
  478MOL0     O65827   5.464   7.164   4.364 -0.3291 -0.4348 -0.3791
  478MOL0     C65828   5.460   7.206   4.244 -0.6536 -0.8725  0.3997
  478MOL0     O65829   5.563   7.270   4.177 -0.7792  0.0065 -0.2403
  478MOL0     C65830   5.701   7.271   4.206  0.6292  0.1474 -1.1770
  478MOL0     C65831   5.785   7.373   4.160  0.2651  0.0703 -0.5453
  478MOL0     C65832   5.922   7.368   4.189 -0.2158  0.2608  0.1588
  478MOL0     C65833   5.976   7.263   4.263 -0.2388  0.2627  0.5267
  478MOL0     O65834   6.110   7.249   4.299 -0.4264 -0.1273  0.5838
  478MOL0     C65835   6.209   7.324   4.224 -0.5305 -0.0331  0.0580
  478MOL0     C65836   6.343   7.305   4.307  0.7940  0.1898  0.5931
  478MOL0     C65837   6.460   7.394   4.271 -0.1155  0.1340 -0.5596
  478MOL0     C65838   6.584   7.363   4.351 -0.3400  0.3155 -0.4471
  478MOL0     C65839   6.720   7.427   4.326 -0.2083 -0.4852  0.0134
  478MOL0     C65840   6.833   7.386   4.429  0.3885  0.8720 -0.2646
  478MOL0     C65841   6.931   7.496   4.459 -0.1877  0.6049  0.2639
  478MOL0     C65842   7.063   7.451   4.521  0.5934 -0.7474 -0.3336
  478MOL0     N65843   7.132   7.575   4.567 -1.0750 -0.1602 -0.3168
  478MOL0     C65844   7.247   7.638   4.512 -0.1599  0.0689 -0.4292
  478MOL0     C65845   7.261   7.750   4.588  0.4655  0.0697  0.1938
  478MOL0     C65846   7.341   7.869   4.566 -0.5821 -0.4626 -0.2391
  478MOL0     C65847   7.489   7.840   4.553 -0.8037  0.4644  0.6814
  478MOL0     C65848   7.554   7.981   4.593 -0.3626 -0.5697 -0.0058
  478MOL0     C65849   7.706   7.981   4.560 -0.4454  0.5579 -0.1678
  478MOL0     O65850   7.778   7.866   4.612  0.6585 -0.0682 -0.4255
  478MOL0     C65851   7.915   7.864   4.610 -0.3978  0.1654  0.3712
  478MOL0     C65852   7.988   7.958   4.548 -0.1210 -0.2732 -0.0502
  478MOL0     C65853   8.125   7.947   4.530  0.4752  0.3599 -0.2657
  478MOL0     C65854   8.187   8.071   4.476  0.6764 -0.5194 -0.1622
  478MOL0     C65855   8.195   7.828   4.575 -0.1473 -0.4257 -0.7744
  478MOL0     C65856   8.338   7.808   4.561 -0.0646  0.4429 -0.1663
  478MOL0     O65857   8.382   7.694   4.502  0.5103 -0.7231  0.7228
  478MOL0     C65858   8.508   7.685   4.448 -0.3754 -0.1420 -1.3279
  478MOL0     C65859   8.584   7.795   4.400 -0.0175 -0.1734 -0.7993
  478MOL0     C65860   8.713   7.778   4.350 -0.5275 -0.2538 -0.2307
  478MOL0     C65861   8.765   7.645   4.336 -0.0772  0.2981 -0.3567
  478MOL0     O65862   8.883   7.639   4.276  0.3343 -0.2705 -0.3119
  478MOL0     C65863   8.979   7.531   4.301 -0.1299 -0.1696  0.1975
  478MOL0     C65864   9.117   7.599   4.301  0.4466  0.2743 -0.0601
  478MOL0     C65865   9.218   7.530   4.400  1.3640  0.4847 -0.4910
  478MOL0     C65866   9.342   7.622   4.427 -0.2515  1.0784  0.3902
  478MOL0     C65867   9.459   7.538   4.470  0.2013 -0.4170  0.7909
  478MOL0     C65868   9.542   7.481   4.357  0.1519 -0.0779  0.2611
  478MOL0     C65869   9.688   7.450   4.413  0.3962 -0.9673 -0.3114
  478MOL0     C65870   9.781   7.405   4.299 -0.0714 -0.6120  0.5815
  478MOL0    Cl65871   9.750   7.236   4.250 -0.4790 -0.1268  0.0856
  478MOL0     C65872   8.688   7.532   4.380 -0.3723 -0.5690 -0.0544
  478MOL0     C65873   8.565   7.558   4.446  0.4132 -0.1539 -0.1388
  478MOL0     O65874   8.407   7.897   4.616  0.4789  0.0913  0.0665
  478MOL0     C65875   8.118   7.729   4.639 -0.1207  0.4216  0.3220
  478MOL0     C65876   7.977   7.748   4.656  0.4738  0.1566 -0.0745
  478MOL0     N65877   7.170   7.751   4.692  0.4247  0.8631 -0.6216
  478MOL0     N65878   7.087   7.647   4.672  0.5088 -0.1312  0.2405
  478MOL0     C65879   5.896   7.160   4.304 -0.6296 -0.0828 -0.1516
  478MOL0     C65880   5.754   7.165   4.277  0.3009  0.0335 -0.0632
  478MOL0     C65881   5.333   7.211   4.169  0.4624  0.1364 -0.1847
  478MOL0     C65882   5.211   7.250   4.231  0.0115 -0.6872  0.0134
  478MOL0     C65883   5.099   7.264   4.170  1.2080  0.0283 -0.2671
  478MOL0     C65884   5.085   7.239   4.038  0.0725  0.7981  0.2868
  478MOL0     O65885   4.970   7.260   3.972 -0.5717  0.9440  0.4230
  478MOL0     C65886   4.843   7.223   4.037  0.6581  0.2511 -0.3130
  478MOL0     C65887   4.763   7.112   3.956 -0.1402 -0.5546  0.7991
  478MOL0     C65888   4.822   6.971   3.964 -0.2873  0.2987  0.5159
  478MOL0     C65889   4.832   6.892   3.838 -1.0688 -0.0270  0.3103
  478MOL0     C65890   4.948   6.949   3.759  0.4555  0.5119 -0.2372
  478MOL0     C65891   5.035   7.007   3.688 -0.3611  0.4991  0.0388
  478MOL0     C65892   5.202   7.199   3.969  0.4557  0.4626 -0.1381
  478MOL0     C65893   5.330   7.182   4.030  1.0302  0.6590  0.3198
  478MOL0     C65894   5.440   7.120   3.951  0.4642 -0.2500  0.1421
  478MOL0     H65895   5.743   7.467   4.125  0.6452  0.7037  0.6650
  478MOL0     H65896   5.988   7.448   4.155  1.6105 -2.0472 -2.0822
  478MOL0     H65897   6.196   7.433   4.226  0.0812  0.0852 -1.1986
  478MOL0     H65898   6.216   7.296   4.118 -1.9487 -1.3976  0.2936
  478MOL0     H65899   6.312   7.335   4.407  2.2680  1.7038  0.6379
  478MOL0     H65900   6.369   7.198   4.299  0.8581  0.3324 -2.9411
  478MOL0     H65901   6.482   7.375   4.165 -1.6486 -0.4134 -0.8069
  478MOL0     H65902   6.435   7.501   4.270 -1.3569 -0.1239  0.4497
  478MOL0     H65903   6.555   7.396   4.451  0.5808  2.0565 -0.7177
  478MOL0     H65904   6.598   7.254   4.343  0.8541  0.4818 -0.7092
  478MOL0     H65905   6.699   7.534   4.322 -2.7284 -0.9401 -1.7067
  478MOL0     H65906   6.762   7.405   4.228 -1.6120  3.1796 -1.5977
  478MOL0     H65907   6.800   7.352   4.528 -0.3664  0.8545 -0.5141
  478MOL0     H65908   6.884   7.305   4.375  2.2543  0.8447  1.4586
  478MOL0     H65909   6.870   7.571   4.511  0.3633  2.7502 -1.9535
  478MOL0     H65910   6.955   7.547   4.365 -0.4242  0.8437  0.3314
  478MOL0     H65911   7.047   7.382   4.604  0.7845  1.2488  1.4284
  478MOL0     H65912   7.133   7.412   4.446  0.1457 -0.3132 -0.9958
  478MOL0     H65913   7.307   7.594   4.433 -3.1881  0.4232 -3.1221
  478MOL0     H65914   7.336   7.937   4.652  3.6607  0.3428 -0.4362
  478MOL0     H65915   7.313   7.929   4.479 -3.4483  0.1072  0.9533
  478MOL0     H65916   7.521   7.757   4.617 -3.2676 -2.8087 -1.9129
  478MOL0     H65917   7.502   7.816   4.447  1.6855 -0.9942  1.2468
  478MOL0     H65918   7.501   8.055   4.532  0.8524  0.5592  0.2698
  478MOL0     H65919   7.541   8.010   4.698 -0.8765  2.3002 -0.7672
  478MOL0     H65920   7.711   7.974   4.451  2.6523  0.1573 -0.0977
  478MOL0     H65921   7.754   8.077   4.581  2.3458 -0.8539  0.4499
  478MOL0     H65922   7.936   8.048   4.516 -2.0900 -0.6229  1.8848
  478MOL0     H65923   8.268   8.036   4.411  2.4533  0.2909  1.5265
  478MOL0     H65924   8.233   8.131   4.555  0.3216  0.2864 -0.5539
  478MOL0     H65925   8.117   8.137   4.423 -0.6125 -0.6218  1.3435
  478MOL0     H65926   8.549   7.896   4.416  1.0333 -0.1399  1.8323
  478MOL0     H65927   8.759   7.875   4.335 -1.7070  0.4369  0.4107
  478MOL0     H65928   8.971   7.473   4.393  4.1734 -1.1345  0.1753
  478MOL0     H65929   8.975   7.457   4.220 -0.2111  1.0123 -0.9090
  478MOL0     H65930   9.152   7.593   4.198 -0.0557  1.0478 -0.2853
  478MOL0     H65931   9.101   7.700   4.340  0.9469  1.0386 -1.7276
  478MOL0     H65932   9.243   7.436   4.349 -0.2227 -1.9215  2.8154
  478MOL0     H65933   9.173   7.498   4.494 -0.2127  0.4609 -1.2233
  478MOL0     H65934   9.316   7.708   4.489  0.2101 -0.2985  2.5825
  478MOL0     H65935   9.368   7.671   4.332 -1.2849  2.7796  0.9442
  478MOL0     H65936   9.523   7.602   4.531 -0.7778  1.4506 -0.0732
  478MOL0     H65937   9.420   7.456   4.531 -0.4058 -2.3378 -1.9548
  478MOL0     H65938   9.552   7.551   4.273 -1.6108 -0.5701 -0.4009
  478MOL0     H65939   9.492   7.392   4.318 -0.5209  0.1752  0.5317
  478MOL0     H65940   9.690   7.374   4.492 -2.2022 -2.1665 -1.3171
  478MOL0     H65941   9.729   7.544   4.452 -2.1990  0.2230 -0.2942
  478MOL0     H65942   9.888   7.407   4.325  1.1935  1.3045 -3.8129
  478MOL0     H65943   9.780   7.457   4.203 -0.6700 -2.1797 -0.2853
  478MOL0     H65944   8.721   7.431   4.359 -3.5754 -2.0208  1.1766
  478MOL0     H65945   8.510   7.471   4.480 -2.1465  1.0814 -0.8269
  478MOL0     H65946   8.157   7.634   4.676  0.0067 -1.1023 -3.2705
  478MOL0     H65947   7.920   7.689   4.728  2.8940  2.7314  4.3885
  478MOL0     H65948   5.939   7.089   4.373  1.9409  1.6735  0.1809
  478MOL0     H65949   5.681   7.097   4.320 -2.0258  2.1653 -0.4260
  478MOL0     H65950   5.205   7.253   4.339  0.4821 -1.5737  0.0659
  478MOL0     H65951   5.021   7.298   4.237  3.0986  1.4671  1.3401
  478MOL0     H65952   4.851   7.175   4.135 -0.9604 -0.6453 -0.5922
  478MOL0     H65953   4.791   7.319   4.047  1.7479  1.2004 -2.7899
  478MOL0     H65954   4.746   7.148   3.854 -0.7462 -1.2094  0.6661
  478MOL0     H65955   4.664   7.118   4.003 -0.3180  0.1760  0.3577
  478MOL0     H65956   4.917   6.969   4.018  0.9644  0.2121 -1.5657
  478MOL0     H65957   4.749   6.911   4.019  0.3412 -0.1842  0.8302
  478MOL0     H65958   4.737   6.893   3.784 -2.4308 -0.1264  2.5823
  478MOL0     H65959   4.865   6.789   3.854 -1.8726 -0.5673 -1.3284
  478MOL0     H65960   5.102   7.067   3.629 -0.8546  1.3497  0.3230
  478MOL0     H65961   5.187   7.173   3.865  0.1435 -1.6992  0.4099
  478MOL0     H65962   5.511   7.201   3.934  0.3274 -0.1974 -0.1797
  478MOL0     H65963   5.481   7.040   4.012 -0.4484  0.3391  1.5703
  478MOL0     H65964   5.416   7.070   3.856 -0.1839 -0.2728  0.3158
  479MOL0     O65965   0.672   5.381   4.055 -0.9433 -0.3489  0.2024
  479MOL0     C65966   0.683   5.477   4.133 -0.0989  0.5969 -0.7449
  479MOL0     O65967   0.622   5.593   4.121  0.3483 -0.7061  0.0736
  479MOL0     C65968   0.538   5.602   4.011  0.0887 -0.2208 -0.5696
  479MOL0     C65969   0.585   5.651   3.890  0.1940  0.8864  0.2525
  479MOL0     C65970   0.492   5.664   3.783  0.2332  0.7224  0.1999
  479MOL0     C65971   0.363   5.611   3.795 -0.2461 -0.3637  0.8268
  479MOL0     O65972   0.272   5.629   3.698  0.0953  0.0881  0.3936
  479MOL0     C65973   0.325   5.662   3.563  0.0191  0.5348 -1.1293
  479MOL0     C65974   0.238   5.591   3.476  0.9235  0.4444  1.2553
  479MOL0     C65975   0.099   5.648   3.456 -0.2204  0.1209  0.3471
  479MOL0     C65976   0.019   5.552   3.368 -0.3021 -0.1481  0.4701
  479MOL0     C65977  -0.120   5.614   3.356 -0.3525  0.5488  0.0058
  479MOL0     C65978  -0.213   5.526   3.271 -0.2969 -0.2892 -0.7906
  479MOL0     C65979  -0.342   5.610   3.227 -0.7486 -0.3572 -0.2181
  479MOL0     C65980  -0.448   5.610   3.338 -1.0626 -0.4077 -0.8086
  479MOL0     N65981  -0.556   5.700   3.301  0.3073  0.6222 -0.1240
  479MOL0     C65982  -0.637   5.689   3.191 -0.1149 -0.3040  0.1233
  479MOL0     C65983  -0.742   5.762   3.211  0.2194 -0.3565 -0.7188
  479MOL0     C65984  -0.860   5.774   3.113 -0.2851 -0.9474 -0.2015
  479MOL0     C65985  -0.981   5.711   3.178 -0.9430 -0.2657  0.0936
  479MOL0     C65986  -0.964   5.557   3.206 -0.2890 -0.1707  0.1333
  479MOL0     C65987  -1.062   5.504   3.307  0.8878  0.3940 -0.3054
  479MOL0     O65988  -1.019   5.531   3.447  0.3192  0.1746 -0.4730
  479MOL0     C65989  -0.903   5.475   3.479  0.0104 -0.4781  0.0150
  479MOL0     C65990  -0.886   5.341   3.482  0.4314  0.0551 -0.1844
  479MOL0     C65991  -0.763   5.284   3.501 -0.5722  0.1364 -0.4347
  479MOL0     C65992  -0.755   5.133   3.495  0.3411 -0.3457  0.5581
  479MOL0     C65993  -0.652   5.361   3.542  0.5710 -0.3895  0.1293
  479MOL0     C65994  -0.523   5.313   3.583 -0.7870  0.1128  0.0060
  479MOL0     O65995  -0.420   5.406   3.574  0.3078 -0.4816  0.1660
  479MOL0     C65996  -0.283   5.384   3.605  0.2833 -0.8483  0.9647
  479MOL0     C65997  -0.217   5.276   3.545 -0.4021  0.5203 -0.0940
  479MOL0     C65998  -0.081   5.261   3.566  0.4374  0.1150  0.2929
  479MOL0     C65999  -0.020   5.351   3.658 -0.6680 -0.5166  0.2120
  479MOL0     O66000   0.113   5.342   3.689  1.0824  0.2648 -0.0363
  479MOL0     C66001   0.172   5.214   3.688 -0.1079  0.0865  0.8006
  479MOL0     C66002   0.322   5.225   3.715 -0.3187  0.4809  0.5800
  479MOL0     C66003   0.395   5.087   3.717  0.2976  0.1197 -0.2117
  479MOL0     C66004   0.538   5.082   3.762 -0.3879 -0.1946 -0.7211
  479MOL0     C66005   0.600   4.946   3.772 -0.1153  0.6212 -0.1664
  479MOL0     C66006   0.609   4.855   3.640 -0.2023  0.0014 -0.4590
  479MOL0     C66007   0.704   4.887   3.522 -0.1192  1.0931 -0.1221
  479MOL0     C66008   0.849   4.851   3.556  0.2258  0.1184  0.1404
  479MOL0    Cl66009   0.962   4.917   3.421 -0.0728  0.0793 -0.4844
  479MOL0     C66010  -0.085   5.462   3.724  0.2639 -0.6051  1.2770
  479MOL0     C66011  -0.214   5.483   3.679  0.4009 -0.0287 -0.3932
  479MOL0     O66012  -0.512   5.212   3.654 -0.4319  0.2683  0.5226
  479MOL0     C66013  -0.682   5.498   3.571  0.1358 -0.9240 -0.1553
  479MOL0     C66014  -0.801   5.561   3.530 -0.4591  0.6878  0.5753
  479MOL0     N66015  -0.717   5.838   3.323  0.8340 -0.0236  0.0509
  479MOL0     N66016  -0.611   5.798   3.375 -0.4354  0.0392 -0.2382
  479MOL0     C66017   0.317   5.558   3.916 -0.4121  0.0259 -0.2745
  479MOL0     C66018   0.413   5.545   4.023  0.1604  0.0155  0.3074
  479MOL0     C66019   0.776   5.455   4.247  0.9785  0.3990 -0.3771
  479MOL0     C66020   0.792   5.327   4.307  0.5026 -0.6992  0.2949
  479MOL0     C66021   0.863   5.309   4.429  0.0382 -1.0768 -0.2496
  479MOL0     C66022   0.924   5.413   4.497  0.1933 -0.6291 -1.4570
  479MOL0     O66023   0.990   5.380   4.610 -0.0956  0.1820 -0.1253
  479MOL0     C66024   1.019   5.488   4.702  0.2019 -0.7936  0.2886
  479MOL0     C66025   1.041   5.425   4.838 -0.3033  0.2620  0.8065
  479MOL0     C66026   0.917   5.370   4.912  0.1666 -0.8788  0.4058
  479MOL0     C66027   0.947   5.326   5.050  0.3079  0.1449 -0.6733
  479MOL0     C66028   0.822   5.270   5.095 -0.3040  0.4454 -0.9507
  479MOL0     C66029   0.713   5.230   5.142 -0.3865 -0.6394  0.6149
  479MOL0     C66030   0.906   5.535   4.433  0.1315 -0.1026  0.2597
  479MOL0     C66031   0.838   5.556   4.313 -0.9164  0.2082 -0.0876
  479MOL0     C66032   0.836   5.701   4.267 -0.5196  0.5049  0.5494
  479MOL0     H66033   0.683   5.697   3.892 -0.0268  1.3552  1.5959
  479MOL0     H66034   0.519   5.708   3.687 -1.6568  0.8661 -0.3179
  479MOL0     H66035   0.422   5.619   3.539 -0.8596 -1.9172 -0.5189
  479MOL0     H66036   0.326   5.769   3.537  0.6766  1.2666  1.5602
  479MOL0     H66037   0.298   5.580   3.385  0.8612  1.4826  1.0830
  479MOL0     H66038   0.233   5.485   3.504 -2.5210  0.4509  1.1233
  479MOL0     H66039   0.043   5.649   3.551 -2.0535 -1.0322 -0.6576
  479MOL0     H66040   0.098   5.754   3.430 -0.6389 -0.3615 -1.7545
  479MOL0     H66041   0.065   5.550   3.269  1.3972  3.6521  1.0064
  479MOL0     H66042   0.022   5.451   3.409  0.4727  0.1083  1.0793
  479MOL0     H66043  -0.122   5.712   3.308  0.4056  0.9481  0.7589
  479MOL0     H66044  -0.160   5.628   3.457  3.1973  2.0328  1.3397
  479MOL0     H66045  -0.156   5.492   3.183  1.8518 -4.0667  1.7340
  479MOL0     H66046  -0.247   5.438   3.326  2.5463 -3.1286 -3.1124
  479MOL0     H66047  -0.374   5.564   3.133 -1.6832 -0.5335  0.1804
  479MOL0     H66048  -0.310   5.715   3.219  2.0329 -0.9155  1.9639
  479MOL0     H66049  -0.486   5.510   3.361 -1.0475  0.1669  2.0804
  479MOL0     H66050  -0.411   5.656   3.430  1.0685 -0.1272 -1.7369
  479MOL0     H66051  -0.622   5.624   3.105 -0.9939  0.7870 -0.8904
  479MOL0     H66052  -0.829   5.736   3.015 -2.3918  0.6818 -1.5884
  479MOL0     H66053  -0.887   5.879   3.102  1.2642 -0.6817 -1.9640
  479MOL0     H66054  -0.996   5.759   3.275 -0.4674  0.6702 -0.2840
  479MOL0     H66055  -1.064   5.715   3.107 -0.4292  0.4471 -0.4806
  479MOL0     H66056  -0.973   5.505   3.110 -0.2067 -0.8139  0.4689
  479MOL0     H66057  -0.860   5.546   3.239  0.3684 -1.4705 -2.1021
  479MOL0     H66058  -1.162   5.541   3.282  0.1390 -2.6093 -2.4157
  479MOL0     H66059  -1.061   5.397   3.285  2.9347  0.5072 -0.9748
  479MOL0     H66060  -0.973   5.278   3.474  1.6632 -1.4845 -2.5099
  479MOL0     H66061  -0.683   5.099   3.420  0.0110 -1.8127  0.8719
  479MOL0     H66062  -0.851   5.095   3.459 -0.6643  1.9806  0.5611
  479MOL0     H66063  -0.728   5.086   3.590  0.1040  1.3393  1.5113
  479MOL0     H66064  -0.264   5.195   3.490  2.0161 -1.1698  0.1411
  479MOL0     H66065  -0.014   5.188   3.522 -0.3586  0.1116 -0.9500
  479MOL0     H66066   0.119   5.159   3.766 -0.1505 -1.4391 -0.2584
  479MOL0     H66067   0.156   5.170   3.589  0.5793  1.8785 -0.1504
  479MOL0     H66068   0.368   5.297   3.647  2.3748 -0.3280  1.4354
  479MOL0     H66069   0.325   5.274   3.812 -0.6909  0.7376  0.4662
  479MOL0     H66070   0.393   5.043   3.616 -0.2434 -0.7551  0.1637
  479MOL0     H66071   0.338   5.019   3.781  0.3442  0.9927  0.7726
  479MOL0     H66072   0.538   5.115   3.866  0.9194  0.5244 -0.9215
  479MOL0     H66073   0.617   5.140   3.712  0.8350 -0.3111  0.9802
  479MOL0     H66074   0.702   4.957   3.811  0.3616 -1.7194 -0.5547
  479MOL0     H66075   0.537   4.887   3.838  0.6786 -1.3160 -1.0321
  479MOL0     H66076   0.507   4.853   3.599 -0.1787 -1.4892 -0.4673
  479MOL0     H66077   0.621   4.750   3.668 -1.2815 -0.5527 -1.9280
  479MOL0     H66078   0.689   4.993   3.500  0.1826  0.8153 -1.8008
  479MOL0     H66079   0.677   4.821   3.439 -0.9609 -0.8001  1.5502
  479MOL0     H66080   0.873   4.745   3.565 -0.2999 -0.1157 -0.9972
  479MOL0     H66081   0.874   4.910   3.645 -0.7431  0.0181  0.4850
  479MOL0     H66082  -0.027   5.522   3.793  0.1793  0.0266  0.8108
  479MOL0     H66083  -0.250   5.582   3.703  1.1356 -0.2476  1.7796
  479MOL0     H66084  -0.598   5.556   3.607  1.8808 -2.4105 -1.6478
  479MOL0     H66085  -0.809   5.669   3.541  1.2140  1.0488 -1.2111
  479MOL0     H66086   0.215   5.521   3.922 -0.8514  1.2246 -0.1479
  479MOL0     H66087   0.377   5.506   4.118 -0.4296  2.8381  1.3358
  479MOL0     H66088   0.754   5.230   4.277 -0.7501 -0.7957  2.0539
  479MOL0     H66089   0.873   5.206   4.463 -1.4729 -1.7620 -1.7409
  479MOL0     H66090   1.106   5.539   4.661 -1.8017  1.3245 -1.5793
  479MOL0     H66091   0.942   5.566   4.705  0.2103 -0.5129 -3.0350
  479MOL0     H66092   1.093   5.494   4.904 -1.9866  1.9187  0.4622
  479MOL0     H66093   1.104   5.336   4.830  0.5865  1.0278 -3.8846
  479MOL0     H66094   0.850   5.456   4.905  0.8451 -0.3812 -0.1122
  479MOL0     H66095   0.877   5.281   4.864  0.1029 -0.8143  0.3379
  479MOL0     H66096   0.976   5.414   5.109 -1.6437  1.8205 -2.0776
  479MOL0     H66097   1.019   5.244   5.041 -1.2707 -1.2593 -1.1286
  479MOL0     H66098   0.626   5.191   5.192  0.1046 -0.6089  1.5143
  479MOL0     H66099   0.946   5.625   4.479 -0.6862  0.0967  0.6098
  479MOL0     H66100   0.816   5.708   4.160  3.4154 -1.9439 -0.5389
  479MOL0     H66101   0.770   5.754   4.336 -0.1375  1.3089  0.3006
  479MOL0     H66102   0.937   5.741   4.273  0.2160 -0.8618 -1.6175
  480MOL0     O66103   3.845   5.287   2.662 -0.4426 -0.4991  0.2339
  480MOL0     C66104   3.874   5.293   2.546 -0.1304  0.0708  1.3316
  480MOL0     O66105   3.948   5.197   2.481  0.0342 -1.1777 -0.4272
  480MOL0     C66106   3.990   5.089   2.553 -0.5168  0.2242 -0.6511
  480MOL0     C66107   4.116   5.092   2.605 -0.0634 -0.4372 -0.1403
  480MOL0     C66108   4.166   4.980   2.672 -0.1602 -0.1877 -0.3815
  480MOL0     C66109   4.086   4.870   2.703 -0.7483 -0.0831  0.5281
  480MOL0     O66110   4.130   4.758   2.765 -0.2261  0.7745  0.3886
  480MOL0     C66111   4.257   4.775   2.834  0.0846 -0.5713 -0.3497
  480MOL0     C66112   4.276   4.656   2.931  0.3124  0.0284 -0.1504
  480MOL0     C66113   4.305   4.518   2.855 -0.7246 -0.2328  0.5837
  480MOL0     C66114   4.312   4.398   2.941  0.3616 -0.6326 -0.4258
  480MOL0     C66115   4.327   4.264   2.870 -0.2913 -0.2165 -0.0919
  480MOL0     C66116   4.475   4.247   2.827 -0.3098 -0.7133 -0.2099
  480MOL0     C66117   4.504   4.110   2.768  0.4809 -0.2086  0.1550
  480MOL0     C66118   4.641   4.110   2.688 -0.3275  0.3035 -0.5930
  480MOL0     N66119   4.659   3.971   2.629  0.6191 -0.1394  0.4176
  480MOL0     C66120   4.637   3.950   2.494 -0.5896  0.2209  0.1112
  480MOL0     C66121   4.651   3.816   2.478  0.3971 -0.7695 -0.5032
  480MOL0     C66122   4.636   3.751   2.339 -0.0078 -0.2189  0.2862
  480MOL0     C66123   4.775   3.693   2.283 -0.6488  0.7690  0.4161
  480MOL0     C66124   4.763   3.607   2.150 -0.2202  0.3976  0.3956
  480MOL0     C66125   4.896   3.593   2.054  0.3311  0.6198  0.0077
  480MOL0     O66126   4.927   3.726   2.007 -0.3129 -0.0185  0.0334
  480MOL0     C66127   5.054   3.738   1.961  1.0915 -0.2364  0.1028
  480MOL0     C66128   5.079   3.690   1.836 -0.3101 -0.4612  0.0576
  480MOL0     C66129   5.212   3.689   1.782  0.8777 -0.3195  1.0005
  480MOL0     C66130   5.224   3.631   1.641 -0.5228  0.1581  0.3628
  480MOL0     C66131   5.323   3.732   1.860  0.2339 -0.5741  0.2840
  480MOL0     C66132   5.454   3.763   1.805 -0.2398  0.6823  0.2220
  480MOL0     O66133   5.530   3.843   1.879  0.1014  0.2390 -0.7658
  480MOL0     C66134   5.666   3.871   1.851  0.4321  0.1285 -0.8410
  480MOL0     C66135   5.747   3.943   1.950 -0.3343 -0.2674 -0.5755
  480MOL0     C66136   5.884   3.978   1.927 -0.4930 -0.2629 -0.1322
  480MOL0     C66137   5.944   3.923   1.809 -0.2398  0.0329  0.5284
  480MOL0     O66138   6.080   3.954   1.786  0.3670 -0.5805 -0.3044
  480MOL0     C66139   6.171   3.869   1.718  0.9776  0.7334  0.4813
  480MOL0     C66140   6.309   3.927   1.740  0.6250 -0.0932 -0.2211
  480MOL0     C66141   6.416   3.816   1.719 -0.7860  0.7547  0.1275
  480MOL0     C66142   6.546   3.889   1.676 -0.1524 -0.3586  0.5135
  480MOL0     C66143   6.659   3.789   1.663 -0.0975  0.6007 -0.7502
  480MOL0     C66144   6.638   3.668   1.573  0.0540  0.0999 -0.3942
  480MOL0     C66145   6.761   3.572   1.564 -0.3609  0.0321 -0.2395
  480MOL0     C66146   6.723   3.455   1.485 -0.1060 -0.2027  0.9075
  480MOL0    Cl66147   6.599   3.357   1.578  0.4919 -0.6530  0.4227
  480MOL0     C66148   5.871   3.855   1.717  0.1382  0.0515 -0.4632
  480MOL0     C66149   5.736   3.825   1.732  0.1478  0.5126  0.1408
  480MOL0     O66150   5.480   3.716   1.701 -0.3359 -0.4230  0.0063
  480MOL0     C66151   5.297   3.763   1.999  0.8900 -0.2025  0.8868
  480MOL0     C66152   5.159   3.762   2.041  0.1913 -0.7589  0.4845
  480MOL0     N66153   4.664   3.758   2.599  0.2783  1.1866 -0.2615
  480MOL0     N66154   4.667   3.849   2.693 -0.4150 -0.0718 -0.2424
  480MOL0     C66155   3.960   4.860   2.645 -0.0430 -0.4157  0.3422
  480MOL0     C66156   3.907   4.976   2.573  0.2247  0.0799  0.0798
  480MOL0     C66157   3.846   5.417   2.465 -0.0367 -0.3635 -0.2692
  480MOL0     C66158   3.773   5.409   2.346 -0.1927  0.5864  0.4984
  480MOL0     C66159   3.760   5.517   2.255 -0.1181  0.0996 -0.1763
  480MOL0     C66160   3.817   5.644   2.285 -0.3686  0.6845 -1.0368
  480MOL0     O66161   3.807   5.757   2.212 -0.3139  0.8763  0.0747
  480MOL0     C66162   3.747   5.756   2.089 -0.7987 -0.6217  0.8039
  480MOL0     C66163   3.601   5.792   2.104  0.7340  0.0310 -0.6143
  480MOL0     C66164   3.521   5.796   1.969 -0.1099 -0.2044 -0.1681
  480MOL0     C66165   3.380   5.849   1.987 -0.1587 -0.0577  0.5948
  480MOL0     C66166   3.324   5.865   1.851 -0.3961 -1.0354  0.0979
  480MOL0     C66167   3.259   5.866   1.748  0.2684  0.1055 -0.7923
  480MOL0     C66168   3.892   5.652   2.403 -0.2922  0.3016 -0.3001
  480MOL0     C66169   3.910   5.540   2.489 -0.2798 -0.3522 -0.2658
  480MOL0     C66170   4.002   5.571   2.611  0.8331  0.0879  0.9094
  480MOL0     H66171   4.175   5.182   2.596 -1.1621  0.1688 -1.6357
  480MOL0     H66172   4.273   4.985   2.691  0.2804 -0.6252 -2.4451
  480MOL0     H66173   4.260   4.870   2.887  0.6921 -0.0929 -1.2141
  480MOL0     H66174   4.333   4.762   2.756 -0.5195 -0.1723 -1.0212
  480MOL0     H66175   4.353   4.685   3.004 -1.3396 -0.8754  2.0849
  480MOL0     H66176   4.185   4.646   2.992  1.1090  1.7503  1.4329
  480MOL0     H66177   4.219   4.504   2.788 -1.7569  0.6601  1.6624
  480MOL0     H66178   4.400   4.520   2.802 -0.1858 -2.5568  1.3407
  480MOL0     H66179   4.386   4.405   3.022  0.3612 -2.9508 -0.1585
  480MOL0     H66180   4.213   4.381   2.984 -0.1034 -0.3158 -1.3412
  480MOL0     H66181   4.261   4.260   2.782 -0.7676  0.0614  0.2444
  480MOL0     H66182   4.304   4.189   2.947 -1.0047  1.3925  1.3260
  480MOL0     H66183   4.493   4.319   2.747 -0.9605  0.7778  0.9392
  480MOL0     H66184   4.539   4.276   2.910 -0.1697  4.5495 -1.7737
  480MOL0     H66185   4.418   4.083   2.707 -1.8852  1.9347  2.2927
  480MOL0     H66186   4.520   4.043   2.853  1.5176 -0.0953  0.0686
  480MOL0     H66187   4.634   4.184   2.607 -1.2794 -0.6243 -1.4017
  480MOL0     H66188   4.728   4.142   2.746 -0.8190  2.5656 -0.9923
  480MOL0     H66189   4.628   4.026   2.417 -1.4414 -0.3314 -0.3462
  480MOL0     H66190   4.595   3.817   2.262 -1.5744 -0.5317  0.8194
  480MOL0     H66191   4.562   3.670   2.337 -0.4993  0.2264  0.3108
  480MOL0     H66192   4.835   3.780   2.257  0.8393 -0.8001 -1.7721
  480MOL0     H66193   4.820   3.623   2.354  1.1509  0.9625 -0.4629
  480MOL0     H66194   4.728   3.505   2.167 -0.9758  0.0260 -2.8464
  480MOL0     H66195   4.693   3.654   2.080  3.7336  1.7116 -3.0680
  480MOL0     H66196   4.970   3.547   2.120  0.4502 -0.1770 -0.6738
  480MOL0     H66197   4.870   3.532   1.967 -0.0554  1.6042 -0.5853
  480MOL0     H66198   4.992   3.663   1.777 -0.7488 -0.5985  0.7550
  480MOL0     H66199   5.281   3.700   1.577 -2.3740  0.4885 -1.0367
  480MOL0     H66200   5.127   3.613   1.595  0.4950  0.1558 -1.9385
  480MOL0     H66201   5.284   3.540   1.644 -0.3201  0.2956  3.4942
  480MOL0     H66202   5.709   3.979   2.045  0.6949  2.7645 -1.2162
  480MOL0     H66203   5.940   4.036   2.000 -0.4804 -0.0852 -0.2799
  480MOL0     H66204   6.164   3.770   1.764  1.1839  0.3905 -0.2134
  480MOL0     H66205   6.145   3.874   1.612  1.2453  0.5581  0.4057
  480MOL0     H66206   6.314   4.005   1.664  1.2152  0.1413  0.0568
  480MOL0     H66207   6.327   3.982   1.833 -1.2074  2.7222 -1.4100
  480MOL0     H66208   6.386   3.736   1.650  3.5512  1.4375 -2.9531
  480MOL0     H66209   6.430   3.762   1.813 -1.9726  0.8983  0.3983
  480MOL0     H66210   6.571   3.962   1.754  2.3571 -2.0339  1.3917
  480MOL0     H66211   6.536   3.950   1.585 -0.5451  2.0852  2.1121
  480MOL0     H66212   6.753   3.840   1.637  1.3671 -1.0424  0.9955
  480MOL0     H66213   6.692   3.755   1.762 -0.5381  0.7826 -0.5388
  480MOL0     H66214   6.609   3.693   1.471 -0.0350 -1.3255 -0.7399
  480MOL0     H66215   6.548   3.621   1.613  0.1039  2.3961  2.8364
  480MOL0     H66216   6.792   3.541   1.664  2.5264  1.6601 -0.5329
  480MOL0     H66217   6.846   3.623   1.520  0.7947 -3.0665 -1.8729
  480MOL0     H66218   6.813   3.395   1.473 -0.8708 -1.3143  0.5449
  480MOL0     H66219   6.674   3.485   1.391  1.2990  0.2742  0.3060
  480MOL0     H66220   5.914   3.846   1.618  3.1121  0.6253  0.6961
  480MOL0     H66221   5.683   3.791   1.644  0.5168 -0.8622  0.4144
  480MOL0     H66222   5.373   3.793   2.070 -0.4442  0.3043  2.1523
  480MOL0     H66223   5.157   3.773   2.149  0.5054  0.0346  0.4151
  480MOL0     H66224   3.913   4.766   2.673 -0.3502 -0.0204  1.1787
  480MOL0     H66225   3.812   4.952   2.527  0.5837 -2.1277  0.3639
  480MOL0     H66226   3.725   5.317   2.316 -1.7702  1.1070  1.2782
  480MOL0     H66227   3.692   5.493   2.175 -0.8591 -3.7049  1.3696
  480MOL0     H66228   3.797   5.835   2.032 -0.4115 -0.5988  1.1704
  480MOL0     H66229   3.750   5.667   2.025 -1.4579  1.6002 -2.5883
  480MOL0     H66230   3.598   5.892   2.148 -2.4671 -0.3165  0.2091
  480MOL0     H66231   3.557   5.714   2.167 -0.4763  0.1870 -1.2485
  480MOL0     H66232   3.578   5.872   1.914  2.2711 -0.5981  1.5884
  480MOL0     H66233   3.523   5.696   1.925  0.6650  0.1461 -0.9674
  480MOL0     H66234   3.368   5.948   2.033 -1.0468  0.0247  0.2220
  480MOL0     H66235   3.319   5.774   2.037 -1.2326 -0.1903 -0.8202
  480MOL0     H66236   3.195   5.867   1.662 -0.6617  1.8807 -0.1225
  480MOL0     H66237   3.953   5.740   2.421 -0.4592  0.2953  0.3267
  480MOL0     H66238   4.010   5.482   2.673 -0.5572 -1.7704 -1.3884
  480MOL0     H66239   4.095   5.616   2.575 -0.6248  3.1257  0.5917
  480MOL0     H66240   3.950   5.647   2.669 -2.5483 -2.0352  0.9207
  481MOL0     O66241   3.936   8.318   1.142  0.5140  0.1511 -0.5778
  481MOL0     C66242   3.909   8.434   1.125  0.3833 -0.6146  0.0941
  481MOL0     O66243   3.998   8.544   1.128 -0.3385 -0.1572  0.3315
  481MOL0     C66244   4.126   8.538   1.182 -0.5817  1.1207 -0.7965
  481MOL0     C66245   4.154   8.452   1.291 -0.2167 -1.0731  1.2062
  481MOL0     C66246   4.281   8.450   1.345  0.0986  0.2471  0.4463
  481MOL0     C66247   4.385   8.529   1.293 -0.4256  0.5064  0.5484
  481MOL0     O66248   4.517   8.515   1.326  0.2969 -0.4198  0.5895
  481MOL0     C66249   4.546   8.481   1.466  0.2380  0.8767  0.5819
  481MOL0     C66250   4.680   8.537   1.521 -0.3887  0.6412  0.9217
  481MOL0     C66251   4.805   8.484   1.454 -0.3884  0.0283  0.0579
  481MOL0     C66252   4.929   8.518   1.538  0.0667 -0.1341  0.5908
  481MOL0     C66253   5.051   8.455   1.462 -0.1948  0.1072 -0.4431
  481MOL0     C66254   5.187   8.501   1.532 -0.6118  0.8596 -0.6037
  481MOL0     C66255   5.317   8.458   1.452  0.1795 -0.0005  0.5464
  481MOL0     C66256   5.364   8.319   1.483  0.1809  0.3280  1.0477
  481MOL0     N66257   5.367   8.288   1.626 -0.1089  0.0018  0.1996
  481MOL0     C66258   5.489   8.305   1.693 -0.4233  0.4431 -0.1975
  481MOL0     C66259   5.459   8.241   1.810  0.1199  0.2173  0.0431
  481MOL0     C66260   5.569   8.209   1.909 -0.3783 -0.6957  0.3819
  481MOL0     C66261   5.660   8.100   1.854 -0.1583 -0.4372  0.0742
  481MOL0     C66262   5.758   8.060   1.967  0.7901  0.4090 -0.3828
  481MOL0     C66263   5.696   7.946   2.047 -0.4555  0.3205  0.0342
  481MOL0     O66264   5.792   7.927   2.156 -1.2080  0.4057 -0.0045
  481MOL0     C66265   5.883   7.829   2.138 -0.6968 -0.2325  0.2986
  481MOL0     C66266   5.848   7.694   2.122  0.2766 -1.0547  0.3532
  481MOL0     C66267   5.941   7.589   2.124 -0.3166  0.3170  0.3870
  481MOL0     C66268   5.885   7.450   2.113 -0.3346  0.1086 -0.1304
  481MOL0     C66269   6.075   7.613   2.147 -0.6120 -0.3177  0.2388
  481MOL0     C66270   6.179   7.509   2.167 -0.5408 -0.0938  0.4650
  481MOL0     O66271   6.306   7.558   2.185  1.0098  0.3346  0.2171
  481MOL0     C66272   6.413   7.497   2.135  1.0860  0.3452  0.7019
  481MOL0     C66273   6.536   7.520   2.196  1.1150 -0.5559  0.4637
  481MOL0     C66274   6.648   7.471   2.138  0.1227  0.2850 -0.0865
  481MOL0     C66275   6.644   7.387   2.024 -0.5392 -1.1601 -0.2338
  481MOL0     O66276   6.758   7.319   1.984 -0.3530  0.5415  0.4104
  481MOL0     C66277   6.745   7.182   1.926 -0.0366 -0.8267 -1.0736
  481MOL0     C66278   6.862   7.087   1.964  0.4749 -0.6380  0.1077
  481MOL0     C66279   6.990   7.150   1.905 -0.0079 -0.0411  0.0130
  481MOL0     C66280   7.114   7.098   1.975  0.4665 -0.4845 -0.5219
  481MOL0     C66281   7.177   7.221   2.052  0.0079  0.6725  0.0278
  481MOL0     C66282   7.305   7.162   2.112  0.7871 -0.1737 -0.2094
  481MOL0     C66283   7.359   7.268   2.212 -1.0342  0.2891 -0.1451
  481MOL0     C66284   7.503   7.222   2.248 -0.5646 -1.0770  0.4235
  481MOL0    Cl66285   7.606   7.267   2.109  0.3912  0.0173  0.0620
  481MOL0     C66286   6.523   7.369   1.961 -0.4857 -0.1648  0.1786
  481MOL0     C66287   6.411   7.423   2.015 -1.0389 -0.0005  0.7397
  481MOL0     O66288   6.154   7.395   2.164 -0.2097  0.2174  0.3299
  481MOL0     C66289   6.115   7.748   2.158  0.4191  0.3357  0.4654
  481MOL0     C66290   6.021   7.849   2.163 -0.5949 -0.6155 -0.1974
  481MOL0     N66291   5.329   8.187   1.813 -0.4806 -0.4738 -0.3016
  481MOL0     N66292   5.279   8.216   1.700 -0.1679  0.3497 -0.5636
  481MOL0     C66293   4.354   8.628   1.198  0.0726 -0.0385 -0.1142
  481MOL0     C66294   4.226   8.627   1.138  0.3631  0.1495  0.7543
  481MOL0     C66295   3.761   8.464   1.111  0.8453  0.4717  0.3965
  481MOL0     C66296   3.716   8.599   1.122 -0.0769  0.2646 -0.0298
  481MOL0     C66297   3.589   8.643   1.121 -0.7299  1.1766  0.4887
  481MOL0     C66298   3.488   8.551   1.082  0.1271  0.8325  0.1331
  481MOL0     O66299   3.361   8.581   1.100 -0.2159 -0.0100 -0.3955
  481MOL0     C66300   3.255   8.514   1.030  0.0480  0.3214  0.6469
  481MOL0     C66301   3.131   8.621   1.003 -0.0465 -0.3181 -0.2060
  481MOL0     C66302   3.157   8.765   0.941  0.6592  0.1368  0.2164
  481MOL0     C66303   3.060   8.867   0.996 -0.0803  0.9505 -0.1226
  481MOL0     C66304   2.923   8.860   0.939 -1.2220  0.7423  0.0727
  481MOL0     C66305   2.815   8.830   0.908  0.0717 -0.6073  0.5990
  481MOL0     C66306   3.532   8.414   1.053  0.3588 -0.7958 -0.4225
  481MOL0     C66307   3.664   8.376   1.060 -0.5187  0.9027 -0.3685
  481MOL0     C66308   3.697   8.232   1.022 -0.5198 -0.5588 -0.2561
  481MOL0     H66309   4.083   8.377   1.326  1.7040 -2.1127  3.0754
  481MOL0     H66310   4.300   8.393   1.435 -2.6265  0.5238  1.2684
  481MOL0     H66311   4.542   8.373   1.480  2.4171  0.4778 -1.4675
  481MOL0     H66312   4.471   8.528   1.531 -1.1994  1.7687 -1.5967
  481MOL0     H66313   4.681   8.645   1.507 -2.2203  0.6678  0.7716
  481MOL0     H66314   4.680   8.522   1.629 -0.4242  0.8028  0.9448
  481MOL0     H66315   4.800   8.378   1.427  2.4122 -0.5189  1.3633
  481MOL0     H66316   4.812   8.535   1.357 -1.3507 -0.5026 -0.3122
  481MOL0     H66317   4.938   8.627   1.545  2.0154 -0.1431 -0.7995
  481MOL0     H66318   4.913   8.491   1.643  1.2593  2.6166  1.5678
  481MOL0     H66319   5.061   8.476   1.355  1.6154  1.4651 -0.0712
  481MOL0     H66320   5.046   8.346   1.466  0.8206 -0.0177 -1.7081
  481MOL0     H66321   5.187   8.610   1.536  0.1219  0.8562 -0.4323
  481MOL0     H66322   5.196   8.466   1.635  1.0212  0.1747 -0.9368
  481MOL0     H66323   5.399   8.519   1.490  1.1155  0.6395 -2.2825
  481MOL0     H66324   5.306   8.479   1.346  4.1455 -1.8862 -0.4078
  481MOL0     H66325   5.287   8.257   1.435 -0.8874 -0.3577  3.4787
  481MOL0     H66326   5.461   8.293   1.439 -1.0587 -1.4315 -0.8380
  481MOL0     H66327   5.587   8.342   1.664 -0.7499  1.5504  0.0602
  481MOL0     H66328   5.528   8.172   2.003 -0.3476  0.4909  0.8793
  481MOL0     H66329   5.629   8.299   1.931  1.5737 -1.7779 -0.2303
  481MOL0     H66330   5.597   8.018   1.819  0.1377 -0.8953  0.6081
  481MOL0     H66331   5.720   8.148   1.776  2.6487 -1.1103  1.6683
  481MOL0     H66332   5.856   8.032   1.928  0.2513 -1.4039 -0.5109
  481MOL0     H66333   5.779   8.147   2.029  0.6192 -1.7265  2.9114
  481MOL0     H66334   5.596   7.966   2.085 -0.9362  0.9779 -1.4869
  481MOL0     H66335   5.691   7.856   1.984 -0.7575 -0.3236  0.9654
  481MOL0     H66336   5.744   7.676   2.097  0.5679 -2.4183  0.0399
  481MOL0     H66337   5.891   7.403   2.211 -3.1981  1.0732  0.6138
  481MOL0     H66338   5.927   7.391   2.032 -2.3447  0.9926 -1.9261
  481MOL0     H66339   5.781   7.456   2.079  0.9144 -1.1358 -4.8460
  481MOL0     H66340   6.535   7.581   2.286 -1.3791 -0.4584  0.4398
  481MOL0     H66341   6.745   7.484   2.185 -0.7054 -0.7818  2.0787
  481MOL0     H66342   6.659   7.124   1.961 -0.8244  0.4133 -0.8929
  481MOL0     H66343   6.723   7.193   1.819 -2.3363  0.0776 -0.5593
  481MOL0     H66344   6.859   7.083   2.073  0.7981  0.2110  0.1594
  481MOL0     H66345   6.855   6.989   1.916  1.1769 -0.9845  0.6961
  481MOL0     H66346   6.991   7.256   1.934  2.5844 -0.3630  1.3069
  481MOL0     H66347   6.990   7.148   1.796  0.1620  0.5851 -0.0039
  481MOL0     H66348   7.176   7.055   1.896 -0.2452 -1.3859 -0.6141
  481MOL0     H66349   7.089   7.017   2.044  0.7562  1.0533  1.4784
  481MOL0     H66350   7.206   7.303   1.987  0.7359  2.7504  2.7848
  481MOL0     H66351   7.108   7.243   2.134 -1.6110 -1.1795 -0.7474
  481MOL0     H66352   7.380   7.138   2.035 -0.9720 -0.6794 -1.8522
  481MOL0     H66353   7.287   7.074   2.174 -1.1904  0.1325 -0.2750
  481MOL0     H66354   7.303   7.275   2.305 -0.8427 -0.1855  0.0138
  481MOL0     H66355   7.361   7.363   2.159 -0.3209  0.6558  0.5261
  481MOL0     H66356   7.521   7.116   2.264  1.3578 -1.4204 -3.0655
  481MOL0     H66357   7.542   7.281   2.332 -1.2122 -2.1329  1.4955
  481MOL0     H66358   6.524   7.303   1.875 -0.7908  0.6695 -0.4792
  481MOL0     H66359   6.323   7.426   1.951 -0.4141 -0.0876 -0.1514
  481MOL0     H66360   6.217   7.778   2.181 -0.1421  1.1007  2.0607
  481MOL0     H66361   6.048   7.950   2.193  0.1690 -0.9967  0.4458
  481MOL0     H66362   4.433   8.686   1.151  2.5961 -1.3853  2.1363
  481MOL0     H66363   4.213   8.697   1.057 -3.2229  0.3470  1.3422
  481MOL0     H66364   3.783   8.678   1.156  1.8954 -0.5439 -1.7590
  481MOL0     H66365   3.559   8.743   1.150  1.5092  1.3969  2.3908
  481MOL0     H66366   3.300   8.490   0.934  0.0717 -1.7399  1.1273
  481MOL0     H66367   3.230   8.421   1.083  0.1878 -0.0651  0.0439
  481MOL0     H66368   3.077   8.631   1.097 -0.0320 -0.7667 -0.1482
  481MOL0     H66369   3.076   8.569   0.923  1.4816 -0.0473 -1.4924
  481MOL0     H66370   3.256   8.794   0.979  2.6226 -0.6855 -3.7935
  481MOL0     H66371   3.162   8.762   0.832 -0.3164  3.1729  0.0028
  481MOL0     H66372   3.108   8.963   0.977  2.2413 -0.0719  0.2611
  481MOL0     H66373   3.044   8.852   1.103  3.4901  3.5755  0.9600
  481MOL0     H66374   2.717   8.794   0.883  0.5103 -0.9139 -0.7480
  481MOL0     H66375   3.452   8.342   1.038 -0.6481  0.3545 -0.7356
  481MOL0     H66376   3.710   8.178   1.116 -0.5641 -0.1549 -0.0190
  481MOL0     H66377   3.620   8.181   0.963 -1.2648  0.9476 -0.6182
  481MOL0     H66378   3.795   8.226   0.972  0.1983  4.1406  0.1621
  482MOL0     O66379  10.549   9.032   0.640  0.3962  0.7535  0.2061
  482MOL0     C66380  10.481   9.066   0.741  0.0090  0.1480 -0.0608
  482MOL0     O66381  10.525   9.157   0.832 -0.6278  0.6538 -0.7434
  482MOL0     C66382  10.642   9.230   0.823  0.7745 -0.4013  0.9495
  482MOL0     C66383  10.703   9.258   0.695 -0.4074 -0.2445 -0.9956
  482MOL0     C66384  10.830   9.305   0.678  0.5406  0.9879 -0.1374
  482MOL0     C66385  10.908   9.316   0.797 -0.1600 -0.2876  0.4540
  482MOL0     O66386  11.040   9.367   0.799  0.3594 -0.2819 -0.1295
  482MOL0     C66387  11.101   9.415   0.679 -0.5833 -0.4292  1.1791
  482MOL0     C66388  11.239   9.468   0.703 -0.1451 -0.1643  0.3192
  482MOL0     C66389  11.352   9.367   0.736 -0.1622  0.2342  0.0820
  482MOL0     C66390  11.492   9.430   0.739 -1.1571  0.5613  0.1755
  482MOL0     C66391  11.611   9.333   0.773 -0.2180 -0.3565 -0.5891
  482MOL0     C66392  11.731   9.406   0.830  0.2775  0.1442  0.0797
  482MOL0     C66393  11.857   9.332   0.874  0.6090 -0.5773  0.3497
  482MOL0     C66394  11.933   9.292   0.745  0.7000  0.1564 -0.1658
  482MOL0     N66395  11.977   9.412   0.667 -0.4724 -0.0432 -1.0049
  482MOL0     C66396  12.094   9.481   0.681 -0.1546 -0.5581 -0.7229
  482MOL0     C66397  12.098   9.562   0.570 -0.0600  0.3814  0.3391
  482MOL0     C66398  12.203   9.658   0.534  0.4123  0.7191  1.2100
  482MOL0     C66399  12.272   9.628   0.398 -0.0839 -0.1438  0.3805
  482MOL0     C66400  12.403   9.716   0.376  0.5444 -0.4875  0.4887
  482MOL0     C66401  12.474   9.672   0.247 -0.1103  0.0600 -1.0756
  482MOL0     O66402  12.508   9.530   0.241 -0.7956 -0.4484  0.1273
  482MOL0     C66403  12.622   9.486   0.302 -0.0041  0.0791  0.0413
  482MOL0     C66404  12.671   9.364   0.254  0.4235  0.5478 -1.4461
  482MOL0     C66405  12.763   9.289   0.331  0.0044 -0.0732  0.3661
  482MOL0     C66406  12.795   9.145   0.276  0.4086  0.1482 -1.0238
  482MOL0     C66407  12.829   9.348   0.447 -0.3529 -0.5539  0.0794
  482MOL0     C66408  12.936   9.288   0.531  0.0609 -0.4562 -0.5580
  482MOL0     O66409  13.030   9.380   0.558 -1.2001  0.2949  0.0536
  482MOL0     C66410  13.166   9.338   0.569 -0.3219  0.0483  0.0675
  482MOL0     C66411  13.261   9.426   0.515  0.6866  0.1867 -0.0145
  482MOL0     C66412  13.392   9.401   0.528  0.6103 -0.5576 -0.4290
  482MOL0     C66413  13.437   9.277   0.583 -0.7713  0.3935 -0.3416
  482MOL0     O66414  13.567   9.239   0.578  0.1190  0.0410 -0.9828
  482MOL0     C66415  13.665   9.298   0.495 -0.2153  0.9790  0.0283
  482MOL0     C66416  13.721   9.427   0.546  0.3455  0.4590  0.1891
  482MOL0     C66417  13.769   9.429   0.696  0.1009  0.7619 -0.1132
  482MOL0     C66418  13.889   9.335   0.735  0.8590 -0.1682  0.0294
  482MOL0     C66419  13.995   9.326   0.632 -1.0910  0.1848 -0.4113
  482MOL0     C66420  14.109   9.260   0.710  0.3986  0.1375 -0.0850
  482MOL0     C66421  14.221   9.225   0.613 -0.1338 -0.6638  0.0522
  482MOL0     C66422  14.342   9.156   0.676 -0.1903 -0.4477 -0.7155
  482MOL0    Cl66423  14.474   9.145   0.559 -0.2934 -0.4367 -0.0502
  482MOL0     C66424  13.345   9.195   0.647 -0.0840 -0.1602 -0.1700
  482MOL0     C66425  13.205   9.224   0.634 -0.2623  1.0125 -0.2773
  482MOL0     O66426  12.941   9.169   0.561  0.1671  0.4099 -0.2178
  482MOL0     C66427  12.795   9.482   0.472 -0.5959  0.8872 -1.4939
  482MOL0     C66428  12.697   9.548   0.409  0.0647 -1.4487  0.1343
  482MOL0     N66429  11.986   9.536   0.491 -0.6858  0.2919  0.0938
  482MOL0     N66430  11.918   9.442   0.556 -0.0955  0.1216  0.5362
  482MOL0     C66431  10.860   9.281   0.921  0.9169 -0.1872 -0.3704
  482MOL0     C66432  10.725   9.248   0.933  0.6721  0.2462  0.2771
  482MOL0     C66433  10.366   8.988   0.783 -0.5421 -0.2980  0.9839
  482MOL0     C66434  10.369   8.923   0.910 -0.2159  1.1723 -0.2459
  482MOL0     C66435  10.264   8.839   0.950 -0.1918 -0.3483  0.6013
  482MOL0     C66436  10.152   8.818   0.865 -0.7952  0.0809 -1.0203
  482MOL0     O66437  10.053   8.737   0.907  0.5630 -0.0163 -0.0190
  482MOL0     C66438   9.933   8.707   0.824 -0.4529 -0.7063 -0.0477
  482MOL0     C66439   9.962   8.596   0.718  0.3289  0.2426  0.4530
  482MOL0     C66440   9.901   8.454   0.764  0.4717  0.4319 -0.0918
  482MOL0     C66441   9.903   8.350   0.656 -0.9267  0.3303  0.4269
  482MOL0     C66442   9.847   8.228   0.715 -0.2167 -0.6632 -0.5551
  482MOL0     C66443   9.791   8.140   0.776 -1.1734  0.7980  0.1197
  482MOL0     C66444  10.157   8.874   0.731 -0.2495  0.3411 -0.5966
  482MOL0     C66445  10.264   8.956   0.691  0.6790 -0.7292 -0.8060
  482MOL0     C66446  10.257   9.009   0.555 -0.0636 -0.4193 -0.7139
  482MOL0     H66447  10.647   9.233   0.605  0.1422  1.9253 -2.0078
  482MOL0     H66448  10.873   9.304   0.578 -1.0044 -2.7609 -0.9478
  482MOL0     H66449  11.034   9.497   0.651 -1.9328 -1.8346  0.0867
  482MOL0     H66450  11.095   9.331   0.608  2.2000 -0.8357  1.3243
  482MOL0     H66451  11.268   9.530   0.617  0.5427 -0.8167  0.0634
  482MOL0     H66452  11.234   9.529   0.794  0.5474 -0.1229  0.3395
  482MOL0     H66453  11.329   9.317   0.830 -0.4595 -1.5254 -0.8801
  482MOL0     H66454  11.357   9.290   0.658 -0.3281 -0.1837  0.4764
  482MOL0     H66455  11.517   9.476   0.642  0.4906 -2.5460 -1.0137
  482MOL0     H66456  11.484   9.504   0.819 -3.0817 -0.5180  1.0364
  482MOL0     H66457  11.642   9.289   0.678  0.5034  0.7444 -0.8853
  482MOL0     H66458  11.582   9.247   0.834  1.7776 -2.2584 -2.1530
  482MOL0     H66459  11.759   9.485   0.760 -1.4731  1.3013  0.6196
  482MOL0     H66460  11.697   9.453   0.922 -0.9302 -0.9109  0.1975
  482MOL0     H66461  11.822   9.244   0.928 -0.3949 -0.7664 -0.5653
  482MOL0     H66462  11.913   9.404   0.934 -0.4325 -0.5278  1.3066
  482MOL0     H66463  12.018   9.226   0.768 -1.5096 -3.0235 -0.4282
  482MOL0     H66464  11.867   9.226   0.687 -0.9105  0.3697  1.3449
  482MOL0     H66465  12.171   9.489   0.757 -0.6551 -2.7766  0.1048
  482MOL0     H66466  12.279   9.657   0.613 -1.1471  2.8457  2.8447
  482MOL0     H66467  12.161   9.759   0.531  0.4605  0.7307 -0.8653
  482MOL0     H66468  12.291   9.520   0.398  5.1649  0.5170  1.2118
  482MOL0     H66469  12.200   9.641   0.317 -0.0520  0.4240  0.4400
  482MOL0     H66470  12.372   9.820   0.366  1.7002  0.1005  2.4974
  482MOL0     H66471  12.468   9.706   0.463  1.3289  1.8038  0.2269
  482MOL0     H66472  12.411   9.699   0.162 -0.4062 -1.8140 -1.5023
  482MOL0     H66473  12.568   9.728   0.244 -1.2463  2.2078  0.3584
  482MOL0     H66474  12.618   9.318   0.171  0.4908 -1.6746 -0.3190
  482MOL0     H66475  12.815   9.087   0.367  2.1188 -1.7535 -2.5213
  482MOL0     H66476  12.876   9.150   0.202 -0.3328 -0.3687 -1.8918
  482MOL0     H66477  12.717   9.092   0.221  0.5206 -1.8692  0.6199
  482MOL0     H66478  13.229   9.514   0.459 -1.2413  0.2795  1.1466
  482MOL0     H66479  13.466   9.457   0.471  1.4423 -0.7682  0.4207
  482MOL0     H66480  13.753   9.232   0.494 -1.5643 -0.8947 -0.9118
  482MOL0     H66481  13.634   9.308   0.391 -0.4208  0.4298  0.0370
  482MOL0     H66482  13.806   9.451   0.481  0.0816 -0.5078 -0.5323
  482MOL0     H66483  13.649   9.508   0.532 -0.3866 -0.5236 -2.3413
  482MOL0     H66484  13.684   9.413   0.763 -1.0751 -0.8132 -1.8960
  482MOL0     H66485  13.795   9.534   0.713 -1.4209  0.7929  2.5923
  482MOL0     H66486  13.850   9.237   0.763  0.5332 -1.2198 -3.5588
  482MOL0     H66487  13.931   9.380   0.826 -0.3681  1.8256 -0.3256
  482MOL0     H66488  13.966   9.260   0.549 -0.7720  1.5914 -1.6828
  482MOL0     H66489  14.024   9.422   0.589  0.3676 -0.9644 -2.1306
  482MOL0     H66490  14.076   9.170   0.762  0.7465 -0.2840 -0.5824
  482MOL0     H66491  14.142   9.329   0.788 -0.0301 -0.2727  0.4656
  482MOL0     H66492  14.250   9.318   0.562 -2.7285  0.5562  0.6140
  482MOL0     H66493  14.181   9.151   0.543  1.0180  0.8204 -2.3107
  482MOL0     H66494  14.319   9.052   0.701  2.7685 -1.5300 -1.9874
  482MOL0     H66495  14.376   9.218   0.759 -1.2150 -0.8533  0.0288
  482MOL0     H66496  13.378   9.107   0.701  0.2111  1.0283  1.6789
  482MOL0     H66497  13.133   9.155   0.679  1.3489 -1.0816 -0.7379
  482MOL0     H66498  12.838   9.538   0.554 -0.7513  1.2340 -1.6471
  482MOL0     H66499  12.684   9.654   0.430  3.7603 -1.1037  1.2817
  482MOL0     H66500  10.913   9.292   1.015 -1.2023  0.3199  0.8343
  482MOL0     H66501  10.692   9.201   1.025 -2.1850  2.1799  0.3623
  482MOL0     H66502  10.445   8.934   0.986 -0.5033 -0.5113  0.3317
  482MOL0     H66503  10.258   8.812   1.055  0.0117 -1.2175  0.3985
  482MOL0     H66504   9.851   8.677   0.890 -1.3964  4.3141  1.4724
  482MOL0     H66505   9.898   8.799   0.776  2.1385 -0.4377 -1.6661
  482MOL0     H66506  10.068   8.583   0.698  0.0870 -1.6511  0.1414
  482MOL0     H66507   9.913   8.626   0.625 -0.9210 -2.5541  0.0781
  482MOL0     H66508   9.957   8.433   0.855 -0.7974  2.6322  1.3041
  482MOL0     H66509   9.795   8.479   0.781  1.1317  3.1707  0.5416
  482MOL0     H66510  10.005   8.344   0.617 -0.6238 -0.6997  1.3149
  482MOL0     H66511   9.835   8.389   0.580 -1.8488  0.0693  1.0926
  482MOL0     H66512   9.750   8.074   0.850 -1.3844 -0.1888 -0.8537
  482MOL0     H66513  10.088   8.843   0.653 -0.1195  0.8521 -0.9210
  482MOL0     H66514  10.346   8.979   0.499 -0.2075 -1.2618 -0.5067
  482MOL0     H66515  10.176   8.985   0.485  1.8906 -0.2469 -3.1742
  482MOL0     H66516  10.262   9.117   0.565 -1.5841 -0.4614  0.9492
  483MOL0     O66517   3.097   6.963   1.953 -0.2176 -0.8734  0.2300
  483MOL0     C66518   3.161   6.867   1.980 -1.0618  0.5519  0.3714
  483MOL0     O66519   3.270   6.827   1.905 -0.2264 -0.0489 -0.1679
  483MOL0     C66520   3.337   6.917   1.822 -0.0430  0.2908  0.8513
  483MOL0     C66521   3.268   7.016   1.744 -1.1997 -0.2674  0.7896
  483MOL0     C66522   3.354   7.100   1.672 -0.3300  1.1422 -0.4579
  483MOL0     C66523   3.494   7.092   1.665  0.3622 -0.0312 -0.3846
  483MOL0     O66524   3.561   7.190   1.601  0.3964  0.1079 -0.0730
  483MOL0     C66525   3.702   7.209   1.633 -0.3051  0.1584 -0.0429
  483MOL0     C66526   3.789   7.146   1.530  0.1409  0.2572 -0.6725
  483MOL0     C66527   3.929   7.205   1.529  0.3115 -0.0584  0.2162
  483MOL0     C66528   4.021   7.127   1.439 -0.2829 -0.2193  0.8161
  483MOL0     C66529   4.168   7.168   1.471 -0.7273  0.2566  0.3647
  483MOL0     C66530   4.265   7.113   1.372  0.5474  0.3915 -0.6188
  483MOL0     C66531   4.405   7.131   1.422 -0.2579  0.4291 -0.8338
  483MOL0     C66532   4.509   7.099   1.314 -1.0576 -0.5765 -0.1037
  483MOL0     N66533   4.643   7.097   1.365  0.3347 -1.5206 -0.2242
  483MOL0     C66534   4.703   6.985   1.405  0.2233 -0.4133  0.8909
  483MOL0     C66535   4.830   7.024   1.419 -0.6613  0.2035 -0.2038
  483MOL0     C66536   4.947   6.935   1.423 -0.5152 -0.4068  0.4764
  483MOL0     C66537   4.964   6.836   1.309  0.1541 -0.1781  0.2218
  483MOL0     C66538   5.077   6.734   1.340  0.3400 -0.7288  0.3003
  483MOL0     C66539   5.058   6.589   1.286 -0.0917 -1.0583 -0.3689
  483MOL0     O66540   5.097   6.593   1.147 -0.5663 -0.0375  0.7318
  483MOL0     C66541   5.127   6.468   1.094  0.1931 -0.3500  0.0762
  483MOL0     C66542   5.067   6.352   1.140  0.4008  0.0756  0.3687
  483MOL0     C66543   5.104   6.225   1.100  0.5834  0.2393  0.7204
  483MOL0     C66544   5.032   6.103   1.157 -0.6002 -0.7746  0.9553
  483MOL0     C66545   5.195   6.212   0.987 -0.5325  0.1509  0.1067
  483MOL0     C66546   5.236   6.085   0.937 -0.5484  0.1738 -0.1976
  483MOL0     O66547   5.239   6.061   0.799  0.5072  0.2635 -0.6094
  483MOL0     C66548   5.307   5.941   0.773  0.7409  0.0036 -0.4137
  483MOL0     C66549   5.451   5.944   0.768 -0.4628  0.1653 -0.3736
  483MOL0     C66550   5.515   5.820   0.740 -1.1428  0.4804  0.8154
  483MOL0     C66551   5.447   5.699   0.732 -0.5161 -0.1745  0.2123
  483MOL0     O66552   5.504   5.586   0.697 -0.0158  0.9792  0.1929
  483MOL0     C66553   5.479   5.470   0.785 -0.4068 -0.5766  0.1850
  483MOL0     C66554   5.586   5.362   0.775  0.2215 -0.3227 -0.3590
  483MOL0     C66555   5.721   5.445   0.790 -1.2211 -0.5505 -0.0501
  483MOL0     C66556   5.842   5.349   0.781  0.1781  0.5288  0.5941
  483MOL0     C66557   5.832   5.216   0.859  0.1598 -0.1496 -0.5512
  483MOL0     C66558   5.961   5.140   0.870  0.3282 -0.8345  0.3314
  483MOL0     C66559   5.995   5.075   0.743 -0.9118  0.0166  0.7685
  483MOL0     C66560   6.141   5.035   0.749  0.1079  0.1915  0.2045
  483MOL0    Cl66561   6.179   4.916   0.880 -0.3475  0.1609 -0.1823
  483MOL0     C66562   5.302   5.699   0.741 -0.3547  1.2462  0.0619
  483MOL0     C66563   5.237   5.820   0.756 -0.7647  0.8152 -0.2106
  483MOL0     O66564   5.284   6.009   1.021  1.3367  0.2725  0.0419
  483MOL0     C66565   5.246   6.326   0.926 -0.0266 -0.0048  0.8033
  483MOL0     C66566   5.219   6.453   0.984 -0.2826  0.7506  0.3426
  483MOL0     N66567   4.840   7.166   1.408  0.6397  0.4408 -0.5249
  483MOL0     N66568   4.720   7.206   1.383 -0.3220  0.6849 -0.2534
  483MOL0     C66569   3.561   6.986   1.738  0.9079  0.1813  0.5040
  483MOL0     C66570   3.476   6.904   1.820  0.2326  0.2779 -0.4373
  483MOL0     C66571   3.092   6.772   2.074  0.6369  0.3385 -0.4165
  483MOL0     C66572   2.945   6.795   2.085  0.2803  0.4888 -0.5707
  483MOL0     C66573   2.866   6.715   2.168 -0.3302  0.3051  1.1729
  483MOL0     C66574   2.925   6.597   2.230  0.0327 -0.5210 -0.8231
  483MOL0     O66575   2.857   6.506   2.301 -0.1655  0.3033  0.9483
  483MOL0     C66576   2.716   6.515   2.297  0.4889 -0.1876  0.6130
  483MOL0     C66577   2.655   6.391   2.353 -0.6711 -1.2284 -0.4003
  483MOL0     C66578   2.620   6.306   2.235  0.2201  0.7189 -0.4497
  483MOL0     C66579   2.736   6.258   2.152  0.2036  0.8178 -0.1457
  483MOL0     C66580   2.818   6.158   2.233 -0.6504  0.1208  0.2723
  483MOL0     C66581   2.875   6.074   2.300  0.3730 -0.1318 -0.6433
  483MOL0     C66582   3.060   6.573   2.213  0.3971 -0.9746 -0.2466
  483MOL0     C66583   3.145   6.665   2.138 -0.6038  0.1481 -0.2993
  483MOL0     C66584   3.299   6.642   2.139  0.7883 -0.6717 -0.3103
  483MOL0     H66585   3.163   7.040   1.734 -0.6891  1.7071 -0.3973
  483MOL0     H66586   3.307   7.184   1.622  0.4964  0.9879 -1.5486
  483MOL0     H66587   3.737   7.182   1.732  1.6526 -2.4975 -1.3350
  483MOL0     H66588   3.714   7.317   1.620 -1.6359  0.0014 -3.8525
  483MOL0     H66589   3.803   7.042   1.562 -2.4610  0.7328  2.5419
  483MOL0     H66590   3.748   7.138   1.429 -0.1840  0.6902 -0.5764
  483MOL0     H66591   3.932   7.311   1.503  0.3018 -0.6368 -2.3533
  483MOL0     H66592   3.972   7.189   1.628  0.4820  1.6053  0.4445
  483MOL0     H66593   4.018   7.021   1.468  1.7582 -0.2162  1.1319
  483MOL0     H66594   3.995   7.140   1.334 -3.3472  5.2783  1.8866
  483MOL0     H66595   4.187   7.132   1.572 -3.5442 -0.0780  0.8607
  483MOL0     H66596   4.187   7.276   1.476  2.1409  0.2562 -4.4361
  483MOL0     H66597   4.250   7.006   1.357  1.8683  0.3966 -2.1955
  483MOL0     H66598   4.246   7.167   1.279 -1.9225  1.2825  0.3044
  483MOL0     H66599   4.428   7.080   1.516  0.6596 -1.3457 -1.9758
  483MOL0     H66600   4.426   7.237   1.442  2.0671 -0.0428 -0.4809
  483MOL0     H66601   4.490   7.006   1.260 -1.1676 -2.3804  2.8270
  483MOL0     H66602   4.496   7.181   1.242  2.3242  2.4379  2.3462
  483MOL0     H66603   4.660   6.886   1.390 -0.3653 -0.0333  0.0093
  483MOL0     H66604   4.928   6.883   1.518 -4.1422  0.0759  0.1425
  483MOL0     H66605   5.038   6.993   1.437 -0.8100  0.4483 -0.9736
  483MOL0     H66606   4.868   6.788   1.288  0.1445 -0.6768  1.3623
  483MOL0     H66607   5.007   6.894   1.227 -0.3265  2.7269  1.8871
  483MOL0     H66608   5.172   6.770   1.300  0.2213 -0.4344  0.2804
  483MOL0     H66609   5.096   6.718   1.446  3.7711 -2.7399 -0.4607
  483MOL0     H66610   5.122   6.526   1.349 -0.1005 -0.2799  0.4319
  483MOL0     H66611   4.951   6.567   1.296 -0.8174  2.5536  1.1812
  483MOL0     H66612   4.993   6.369   1.217  0.6682  1.7883  0.2935
  483MOL0     H66613   5.001   6.031   1.080  1.1784 -0.8315  0.2399
  483MOL0     H66614   4.945   6.124   1.220  0.0482 -0.9823  1.9388
  483MOL0     H66615   5.098   6.046   1.223 -1.5777 -1.2097  1.5765
  483MOL0     H66616   5.512   6.030   0.794 -0.6289 -0.0988  0.9385
  483MOL0     H66617   5.622   5.803   0.732 -1.7290 -3.4295 -1.1956
  483MOL0     H66618   5.484   5.497   0.891  0.5245 -1.8151  0.4798
  483MOL0     H66619   5.388   5.417   0.754  0.2062 -1.5197 -0.0342
  483MOL0     H66620   5.581   5.288   0.855  2.0183  0.3659  0.4568
  483MOL0     H66621   5.571   5.325   0.673 -1.8213  1.7990 -0.9149
  483MOL0     H66622   5.724   5.497   0.887  1.8149  0.9257 -0.8239
  483MOL0     H66623   5.737   5.529   0.722 -1.2894 -2.8215 -3.0421
  483MOL0     H66624   5.936   5.394   0.815  0.5453 -0.8473  1.5342
  483MOL0     H66625   5.845   5.321   0.675  1.0028  1.9390  0.2214
  483MOL0     H66626   5.792   5.240   0.958 -0.5190  0.4437 -0.9635
  483MOL0     H66627   5.763   5.149   0.807  1.6287 -2.7317  0.6248
  483MOL0     H66628   5.966   5.064   0.948  1.7426 -2.8704 -1.6132
  483MOL0     H66629   6.039   5.214   0.890 -0.6194  0.2842  0.0184
  483MOL0     H66630   5.979   5.141   0.656 -1.9257 -1.6071 -0.3324
  483MOL0     H66631   5.930   4.988   0.729 -0.0037 -0.3198 -2.1058
  483MOL0     H66632   6.204   5.125   0.748  2.6239 -1.3828  2.3101
  483MOL0     H66633   6.179   5.000   0.653  3.5804 -2.1401  2.2066
  483MOL0     H66634   5.243   5.608   0.735 -0.9193  1.6861 -1.8072
  483MOL0     H66635   5.131   5.824   0.776 -1.4580  0.1712 -3.2325
  483MOL0     H66636   5.312   6.323   0.840  0.3896  0.1565  1.1114
  483MOL0     H66637   5.265   6.541   0.940  2.6266 -0.0986  1.4323
  483MOL0     H66638   3.668   6.972   1.745  0.6675 -1.9431  0.4543
  483MOL0     H66639   3.515   6.826   1.885 -2.8740 -0.9585  0.1426
  483MOL0     H66640   2.899   6.880   2.035 -1.5672  0.9896  1.7843
  483MOL0     H66641   2.760   6.736   2.177 -1.3777 -2.6994 -2.0167
  483MOL0     H66642   2.681   6.604   2.351  0.3507  0.1403 -0.0045
  483MOL0     H66643   2.678   6.537   2.196 -0.4016 -1.3209  0.6860
  483MOL0     H66644   2.562   6.417   2.404  0.2092 -3.4520  2.6445
  483MOL0     H66645   2.720   6.349   2.430 -0.1028  0.9832  0.3820
  483MOL0     H66646   2.560   6.229   2.283  1.8102  0.7643  1.7283
  483MOL0     H66647   2.548   6.369   2.181 -1.4158 -1.7189 -1.2871
  483MOL0     H66648   2.802   6.339   2.122  2.0702 -0.5964 -0.0026
  483MOL0     H66649   2.701   6.197   2.068  3.6621 -3.1244  0.9586
  483MOL0     H66650   2.919   6.001   2.365  1.3722  0.2188 -0.9058
  483MOL0     H66651   3.103   6.488   2.265  2.0288  0.8668  1.6074
  483MOL0     H66652   3.355   6.736   2.135 -0.7168  0.4312  2.2389
  483MOL0     H66653   3.319   6.587   2.232 -1.0002  0.9015  1.0947
  483MOL0     H66654   3.340   6.583   2.057  3.1843  0.3206  0.0950
  484MOL0     O66655   0.881   2.765   6.511 -0.1535 -0.6024 -0.6573
  484MOL0     C66656   0.790   2.688   6.522  0.2754  0.1969 -0.2498
  484MOL0     O66657   0.769   2.605   6.623  0.1601  0.2568 -0.4309
  484MOL0     C66658   0.845   2.624   6.734  0.1379 -0.1503  0.3168
  484MOL0     C66659   0.984   2.600   6.724 -0.4340 -0.0994  0.0731
  484MOL0     C66660   1.059   2.616   6.846  0.4379  0.2199  0.6031
  484MOL0     C66661   0.998   2.651   6.964 -0.4046  0.0421 -0.4684
  484MOL0     O66662   1.058   2.677   7.087  0.6285 -0.2624  0.1518
  484MOL0     C66663   1.132   2.560   7.141 -0.2392 -0.1862  0.0483
  484MOL0     C66664   1.064   2.469   7.242  0.1461 -0.2655 -0.8320
  484MOL0     C66665   1.128   2.342   7.289 -0.2856  0.1920  0.0267
  484MOL0     C66666   1.281   2.358   7.314  0.0562 -0.3302 -0.4683
  484MOL0     C66667   1.318   2.439   7.445  0.0761 -0.6289  0.7399
  484MOL0     C66668   1.302   2.357   7.571  0.5950  0.2357 -0.5860
  484MOL0     C66669   1.267   2.453   7.692 -0.5489  0.3279  0.2052
  484MOL0     C66670   1.389   2.541   7.730  0.3067  0.0394 -0.7318
  484MOL0     N66671   1.506   2.456   7.750 -0.1121 -0.1641  0.4582
  484MOL0     C66672   1.526   2.338   7.820 -0.0088  0.3045 -0.3977
  484MOL0     C66673   1.661   2.314   7.813  0.0980 -0.2934 -0.0452
  484MOL0     C66674   1.745   2.197   7.871 -1.0471 -0.9984 -0.4186
  484MOL0     C66675   1.751   2.209   8.021  0.1267 -0.2185 -0.2019
  484MOL0     C66676   1.861   2.115   8.088 -0.1711 -0.1553 -0.5730
  484MOL0     C66677   1.992   2.187   8.096  0.5059 -0.4878  0.2052
  484MOL0     O66678   1.985   2.276   8.209  0.2886 -0.6907 -0.0903
  484MOL0     C66679   2.095   2.339   8.248 -0.5354  0.0451 -0.3856
  484MOL0     C66680   2.226   2.320   8.207  0.0593  0.2743 -0.9703
  484MOL0     C66681   2.332   2.399   8.251  0.1641 -0.5618 -0.4129
  484MOL0     C66682   2.474   2.360   8.213  0.0380 -0.3064  0.5409
  484MOL0     C66683   2.304   2.517   8.330 -0.3387  0.3241  0.1660
  484MOL0     C66684   2.401   2.628   8.356  0.9927  1.2434  0.2258
  484MOL0     O66685   2.353   2.736   8.425 -0.0260  0.3643 -0.1630
  484MOL0     C66686   2.453   2.819   8.466 -0.8248  0.2209  0.4101
  484MOL0     C66687   2.516   2.787   8.586 -1.0522 -0.1005 -1.2261
  484MOL0     C66688   2.617   2.876   8.633 -0.3498  0.4853 -0.0854
  484MOL0     C66689   2.659   2.988   8.556 -0.5753  0.1350  0.0341
  484MOL0     O66690   2.763   3.068   8.601  0.2198 -0.1429 -0.0681
  484MOL0     C66691   2.849   3.134   8.508  0.1807  0.2326 -0.2184
  484MOL0     C66692   2.986   3.104   8.568 -0.1497 -0.1153  0.5363
  484MOL0     C66693   3.089   3.139   8.454 -0.1594  0.2119 -0.4757
  484MOL0     C66694   3.235   3.173   8.520  0.6788 -0.7642 -0.0368
  484MOL0     C66695   3.348   3.098   8.446 -0.1707  0.3185  0.5764
  484MOL0     C66696   3.477   3.122   8.512  0.0836  0.1470 -0.5924
  484MOL0     C66697   3.603   3.099   8.418  0.2586  0.3980 -0.5624
  484MOL0     C66698   3.731   3.086   8.506 -0.2325  0.5318 -0.5071
  484MOL0    Cl66699   3.860   3.072   8.381 -0.1312  0.7285  0.0231
  484MOL0     C66700   2.594   3.012   8.429  0.0844 -0.3682 -0.6373
  484MOL0     C66701   2.487   2.931   8.388  1.0956  0.2306 -0.4349
  484MOL0     O66702   2.515   2.607   8.320  0.8428  0.0031  0.7917
  484MOL0     C66703   2.167   2.533   8.377 -1.2236  0.4368 -0.1192
  484MOL0     C66704   2.066   2.437   8.336  0.1851 -0.2847  0.8442
  484MOL0     N66705   1.723   2.424   7.756  0.4726  0.3923  0.8495
  484MOL0     N66706   1.626   2.507   7.723 -0.0199 -0.0919 -0.0386
  484MOL0     C66707   0.858   2.654   6.971 -0.3295  0.1241 -0.8889
  484MOL0     C66708   0.779   2.644   6.855 -0.4823  0.1844 -0.4607
  484MOL0     C66709   0.686   2.686   6.414  0.3593  0.3358  0.3391
  484MOL0     C66710   0.665   2.574   6.335 -0.1996  1.0796 -0.0227
  484MOL0     C66711   0.569   2.578   6.232 -0.5704 -0.2161 -0.1816
  484MOL0     C66712   0.497   2.693   6.201 -0.5053  0.8128 -0.6018
  484MOL0     O66713   0.404   2.679   6.103 -0.0555 -0.3206  0.0622
  484MOL0     C66714   0.313   2.786   6.067  0.2829 -0.1358 -0.0008
  484MOL0     C66715   0.207   2.740   5.981  0.2305 -0.5193 -0.3088
  484MOL0     C66716   0.249   2.706   5.836  0.8286  0.3624 -0.7038
  484MOL0     C66717   0.136   2.695   5.739 -0.7843 -0.1547  0.0191
  484MOL0     C66718   0.177   2.626   5.616  0.4336 -0.1417 -0.4649
  484MOL0     C66719   0.221   2.569   5.517  0.2705 -0.2772  0.7901
  484MOL0     C66720   0.517   2.808   6.286  0.1877  0.5429  0.7345
  484MOL0     C66721   0.600   2.796   6.401  0.2465 -0.4851  0.4198
  484MOL0     C66722   0.598   2.905   6.508  0.4253  0.6094  1.0064
  484MOL0     H66723   1.024   2.571   6.627 -4.2690  0.1224 -1.7609
  484MOL0     H66724   1.164   2.593   6.836  0.5349  1.5104 -2.3155
  484MOL0     H66725   1.221   2.594   7.194 -0.1426 -0.9315  0.3827
  484MOL0     H66726   1.170   2.499   7.058  0.9052  1.1244 -0.4242
  484MOL0     H66727   1.033   2.530   7.328 -0.6452 -1.8085  0.0067
  484MOL0     H66728   0.967   2.443   7.199 -0.0666 -0.8119 -0.0319
  484MOL0     H66729   1.081   2.317   7.384 -0.5685  2.0704  0.4263
  484MOL0     H66730   1.102   2.260   7.222 -1.3507 -2.0294  2.9605
  484MOL0     H66731   1.325   2.258   7.321  0.5233 -0.1005  0.0241
  484MOL0     H66732   1.334   2.393   7.225  2.0699 -2.2561 -0.1334
  484MOL0     H66733   1.259   2.531   7.452 -1.7849 -1.4864 -2.0239
  484MOL0     H66734   1.425   2.459   7.451 -0.2521  1.8360 -0.3459
  484MOL0     H66735   1.216   2.291   7.555  0.4158  0.5408 -0.8721
  484MOL0     H66736   1.391   2.294   7.583  1.5970  1.8181  0.9414
  484MOL0     H66737   1.229   2.391   7.773 -3.3758 -0.5165 -1.6182
  484MOL0     H66738   1.183   2.514   7.657  0.2751  1.5849  0.3498
  484MOL0     H66739   1.405   2.614   7.651  2.4877 -0.1017 -0.4649
  484MOL0     H66740   1.369   2.588   7.827  1.0097 -1.0483 -0.0356
  484MOL0     H66741   1.451   2.271   7.859  0.8853 -0.0730  0.7320
  484MOL0     H66742   1.846   2.193   7.830 -0.9949 -0.4264 -0.3594
  484MOL0     H66743   1.685   2.108   7.850 -2.9202  0.0760  0.0780
  484MOL0     H66744   1.786   2.308   8.051  0.0757 -1.0778  3.1039
  484MOL0     H66745   1.654   2.182   8.064 -0.2786 -0.3640 -1.1923
  484MOL0     H66746   1.828   2.090   8.190 -1.2583  1.4900 -0.4783
  484MOL0     H66747   1.876   2.017   8.042  1.4285 -1.4794  2.4305
  484MOL0     H66748   2.064   2.106   8.102  1.3971  0.2050 -0.8109
  484MOL0     H66749   2.025   2.245   8.009 -3.2005  1.1163 -0.3239
  484MOL0     H66750   2.245   2.233   8.143  1.1863 -1.1131  1.1171
  484MOL0     H66751   2.535   2.350   8.303 -0.9002  2.2819  1.5644
  484MOL0     H66752   2.513   2.436   8.145 -1.0076 -0.8745 -0.7471
  484MOL0     H66753   2.477   2.277   8.141  0.5314  0.2624 -0.1098
  484MOL0     H66754   2.496   2.698   8.646 -0.5085  0.7916  0.3370
  484MOL0     H66755   2.661   2.861   8.731 -0.9569  0.7849  0.2363
  484MOL0     H66756   2.847   3.078   8.414 -0.1462  2.5443 -1.6647
  484MOL0     H66757   2.828   3.240   8.492  2.4932  0.9149  0.9191
  484MOL0     H66758   3.007   3.168   8.654  1.3629 -0.5587  0.5103
  484MOL0     H66759   2.996   2.999   8.597  1.2464 -0.3286 -0.6350
  484MOL0     H66760   3.063   3.232   8.402 -1.0629 -0.3373 -1.0251
  484MOL0     H66761   3.084   3.055   8.384 -1.3356 -0.6637  0.6345
  484MOL0     H66762   3.226   3.165   8.629 -0.4725  0.8734  0.0218
  484MOL0     H66763   3.237   3.282   8.512 -2.0142 -0.5212  1.4176
  484MOL0     H66764   3.330   2.991   8.434  1.6125 -0.3449  3.1333
  484MOL0     H66765   3.360   3.140   8.345  0.5865 -0.5712  0.2786
  484MOL0     H66766   3.480   3.063   8.603 -1.3956  0.7546 -0.1190
  484MOL0     H66767   3.487   3.226   8.546  0.4309 -0.1356  0.1936
  484MOL0     H66768   3.617   3.189   8.357  1.7855  1.1881  0.8731
  484MOL0     H66769   3.602   3.007   8.358  3.0785 -0.5002  0.5795
  484MOL0     H66770   3.722   3.005   8.579 -0.1498  0.0973 -0.9719
  484MOL0     H66771   3.747   3.178   8.563  3.2155 -0.5875  0.5250
  484MOL0     H66772   2.604   3.089   8.354  0.9498 -2.5165 -2.8937
  484MOL0     H66773   2.436   2.955   8.295 -1.1016  1.5578  1.0225
  484MOL0     H66774   2.151   2.618   8.441  2.6514 -0.3914  2.2720
  484MOL0     H66775   1.964   2.467   8.361 -0.3635 -0.8569 -0.6165
  484MOL0     H66776   0.816   2.657   7.071  0.8964 -1.2503 -0.2956
  484MOL0     H66777   0.671   2.647   6.856 -0.5630 -1.2936 -1.4996
  484MOL0     H66778   0.734   2.494   6.356  2.4567  3.2789  0.1974
  484MOL0     H66779   0.546   2.484   6.184  0.8815 -1.6665  1.7917
  484MOL0     H66780   0.272   2.833   6.157 -0.1407 -0.9525  0.2423
  484MOL0     H66781   0.372   2.860   6.012  0.6261  0.5353  1.2121
  484MOL0     H66782   0.130   2.817   5.977  0.2254 -0.5278 -0.3701
  484MOL0     H66783   0.166   2.653   6.034 -0.7399 -0.4371 -0.8993
  484MOL0     H66784   0.324   2.782   5.809  1.1512  0.6816  0.9868
  484MOL0     H66785   0.309   2.616   5.849 -0.8571 -0.6681  0.2904
  484MOL0     H66786   0.096   2.795   5.722  1.9419  0.9176 -0.6642
  484MOL0     H66787   0.058   2.641   5.793 -0.6172 -2.3631 -1.7950
  484MOL0     H66788   0.263   2.509   5.438  0.5483  1.3213 -0.3251
  484MOL0     H66789   0.456   2.897   6.275  1.7944  1.4267 -2.3111
  484MOL0     H66790   0.543   2.872   6.597  0.0601  0.7480  0.8368
  484MOL0     H66791   0.695   2.951   6.528  1.3421 -0.3784 -0.9341
  484MOL0     H66792   0.524   2.980   6.478 -0.7870 -0.5358  1.0539
  485MOL0     O66793   6.810   8.171   5.260  0.0653 -0.1661 -0.9017
  485MOL0     C66794   6.728   8.094   5.305 -1.2668 -0.1838  0.1718
  485MOL0     O66795   6.756   7.991   5.387  0.1488  0.1734 -0.1558
  485MOL0     C66796   6.887   7.964   5.421 -0.5905 -0.1643  0.1999
  485MOL0     C66797   6.961   8.055   5.499 -0.3175  0.0260  0.1348
  485MOL0     C66798   7.096   8.021   5.531  0.2131  0.3928 -0.5899
  485MOL0     C66799   7.161   7.904   5.477  0.0769 -0.0998 -0.2536
  485MOL0     O66800   7.286   7.866   5.513 -0.3168 -0.0628  0.2828
  485MOL0     C66801   7.390   7.970   5.505  0.6967  0.2158 -1.3097
  485MOL0     C66802   7.527   7.899   5.481 -0.7853  0.0681  0.3829
  485MOL0     C66803   7.652   7.990   5.486 -0.6340  0.2624 -0.4369
  485MOL0     C66804   7.779   7.905   5.467  0.8452 -0.3685  0.4549
  485MOL0     C66805   7.905   7.998   5.455  0.6134  0.4555 -0.2789
  485MOL0     C66806   8.033   7.916   5.428 -0.3571 -0.3098  0.3010
  485MOL0     C66807   8.155   7.996   5.493 -0.1536 -0.6369  0.2584
  485MOL0     C66808   8.183   8.139   5.448  1.2077 -0.1650 -0.3790
  485MOL0     N66809   8.310   8.193   5.500  0.2806 -0.2636  0.7663
  485MOL0     C66810   8.435   8.137   5.479 -0.0017  0.5267 -0.0257
  485MOL0     C66811   8.519   8.209   5.560 -0.2153 -0.0797  0.2323
  485MOL0     C66812   8.673   8.183   5.574  1.0957 -0.3426 -0.0831
  485MOL0     C66813   8.705   8.040   5.549  0.4682  0.6354  0.7700
  485MOL0     C66814   8.827   7.991   5.622 -0.3909 -0.1601  0.2565
  485MOL0     C66815   8.843   7.846   5.593 -0.1691 -1.3407 -0.6811
  485MOL0     O66816   8.972   7.811   5.649 -0.6277 -0.5507 -0.3158
  485MOL0     C66817   9.081   7.808   5.570  0.3661 -0.1857 -0.6727
  485MOL0     C66818   9.087   7.772   5.438 -0.1112  0.5304  0.2414
  485MOL0     C66819   9.202   7.796   5.361  0.3137  0.0863  0.0060
  485MOL0     C66820   9.192   7.744   5.218 -0.1394  0.0993 -0.4056
  485MOL0     C66821   9.318   7.853   5.425 -0.2770  0.2223 -0.2061
  485MOL0     C66822   9.448   7.870   5.354 -0.5905 -0.1559 -0.1499
  485MOL0     O66823   9.538   7.955   5.411  0.0909  0.2414  0.8005
  485MOL0     C66824   9.663   7.968   5.368 -1.1096 -0.1841  0.5526
  485MOL0     C66825   9.767   7.869   5.374  0.1210 -0.3500 -0.3093
  485MOL0     C66826   9.903   7.904   5.330  1.0177 -0.6626 -0.9361
  485MOL0     C66827   9.936   8.034   5.298  0.8765  0.3715  0.2089
  485MOL0     O66828  10.057   8.066   5.254  0.2886 -0.0543 -0.3879
  485MOL0     C66829  10.156   7.959   5.250 -0.5135 -0.8130 -0.4576
  485MOL0     C66830  10.292   8.001   5.190  1.1061  0.2156  0.3744
  485MOL0     C66831  10.364   8.095   5.283  0.3984 -0.3698  0.0747
  485MOL0     C66832  10.523   8.094   5.261  0.5875  0.2192 -0.1195
  485MOL0     C66833  10.582   8.197   5.365  0.3957 -0.1864  0.3369
  485MOL0     C66834  10.735   8.172   5.383 -0.0957 -0.1157  0.6070
  485MOL0     C66835  10.799   8.282   5.470 -0.8209 -0.4017  0.1508
  485MOL0     C66836  10.953   8.244   5.480  0.7717 -0.1163 -0.1655
  485MOL0    Cl66837  10.996   8.088   5.562 -0.1397 -0.3073  0.3481
  485MOL0     C66838   9.830   8.130   5.295  1.4400 -0.3084 -0.3959
  485MOL0     C66839   9.699   8.094   5.326 -0.6053 -0.4247 -0.4125
  485MOL0     O66840   9.469   7.787   5.267  0.0018  0.7074  0.2053
  485MOL0     C66841   9.306   7.897   5.557 -0.4310  0.5207 -0.8954
  485MOL0     C66842   9.195   7.864   5.637  0.2717 -0.8747 -0.0709
  485MOL0     N66843   8.443   8.309   5.615 -0.2662  0.0209  0.2201
  485MOL0     N66844   8.320   8.291   5.587  0.5075  0.4260 -0.5549
  485MOL0     C66845   7.083   7.824   5.408  0.4133  0.1849 -0.1844
  485MOL0     C66846   6.951   7.843   5.392  0.5660 -0.0764  0.5840
  485MOL0     C66847   6.590   8.116   5.271 -0.4162  0.7181 -0.4996
  485MOL0     C66848   6.496   8.112   5.381 -1.4679 -0.6301 -0.3323
  485MOL0     C66849   6.361   8.118   5.361  0.2951  0.5010  0.2223
  485MOL0     C66850   6.310   8.130   5.229 -0.0177  0.6571  1.0796
  485MOL0     O66851   6.175   8.129   5.217  0.7538 -0.1565 -0.2606
  485MOL0     C66852   6.099   8.175   5.099 -0.2900  0.3088  0.3691
  485MOL0     C66853   6.124   8.324   5.073  0.1971  0.0938  0.4433
  485MOL0     C66854   6.098   8.396   5.201  0.1559  0.3075 -0.1732
  485MOL0     C66855   5.965   8.364   5.279  0.4821  0.3800 -0.4694
  485MOL0     C66856   5.851   8.355   5.193 -0.2278  0.6618 -0.3294
  485MOL0     C66857   5.758   8.319   5.124 -1.0864 -0.7196 -0.1582
  485MOL0     C66858   6.403   8.139   5.124 -0.3592  0.5702 -0.5394
  485MOL0     C66859   6.542   8.135   5.143 -0.3967  0.0070 -0.5770
  485MOL0     C66860   6.634   8.143   5.018  0.9200  0.3474 -0.0349
  485MOL0     H66861   6.919   8.144   5.544 -1.6344 -0.6153  0.2163
  485MOL0     H66862   7.155   8.081   5.600 -0.1710 -0.0033  0.0904
  485MOL0     H66863   7.391   8.034   5.594 -1.5544  0.7215 -1.5984
  485MOL0     H66864   7.366   8.041   5.426  1.3278  0.3216 -1.4137
  485MOL0     H66865   7.541   7.818   5.553 -0.7629 -0.6460 -0.4028
  485MOL0     H66866   7.509   7.843   5.388  1.7997 -1.0948  0.4992
  485MOL0     H66867   7.653   8.062   5.404 -0.1046 -0.3530 -0.9830
  485MOL0     H66868   7.657   8.040   5.583  0.0981 -1.8839  0.7113
  485MOL0     H66869   7.786   7.832   5.548 -0.9136 -0.5866  0.4394
  485MOL0     H66870   7.762   7.852   5.373  1.3723 -1.1670  0.7970
  485MOL0     H66871   7.920   8.057   5.546  1.7993 -0.8230  0.4060
  485MOL0     H66872   7.878   8.069   5.377 -1.2687 -0.5282 -0.5786
  485MOL0     H66873   8.017   7.823   5.483  0.2748 -0.3217  0.4653
  485MOL0     H66874   8.054   7.897   5.323  0.6752  1.6069  0.1148
  485MOL0     H66875   8.242   7.942   5.456 -0.7723 -1.4702 -0.0135
  485MOL0     H66876   8.149   7.981   5.602 -0.1779  0.5072  0.4317
  485MOL0     H66877   8.169   8.151   5.340  0.2066  0.5290 -0.1866
  485MOL0     H66878   8.102   8.198   5.492 -0.7619 -3.2796  0.5013
  485MOL0     H66879   8.465   8.056   5.413  0.8340  1.1167 -0.3864
  485MOL0     H66880   8.707   8.208   5.675 -0.8211  0.3533  0.4306
  485MOL0     H66881   8.730   8.241   5.501  0.5924  1.5453  0.9560
  485MOL0     H66882   8.623   7.980   5.590  1.0799  0.0353  1.1354
  485MOL0     H66883   8.718   8.016   5.443  0.1685  1.8596  0.4382
  485MOL0     H66884   8.918   8.044   5.591  0.6522 -2.0387 -0.0125
  485MOL0     H66885   8.829   8.000   5.731  1.6642 -1.9504  0.4266
  485MOL0     H66886   8.773   7.779   5.644  0.3773 -1.8313 -0.5624
  485MOL0     H66887   8.848   7.835   5.485  0.0540  0.8776 -0.9486
  485MOL0     H66888   9.003   7.716   5.399 -0.4675  0.9266  0.4343
  485MOL0     H66889   9.185   7.838   5.164  1.1041 -0.8898 -2.3900
  485MOL0     H66890   9.100   7.689   5.197  0.5437 -0.5916 -1.6867
  485MOL0     H66891   9.275   7.678   5.191  1.4974  2.0596 -0.3972
  485MOL0     H66892   9.748   7.770   5.413 -4.5426  0.0696 -1.0310
  485MOL0     H66893   9.976   7.825   5.338  2.7197  0.9773  0.7879
  485MOL0     H66894  10.168   7.929   5.355 -1.0403  2.0312  0.5104
  485MOL0     H66895  10.109   7.885   5.185 -1.4298 -1.0312  0.4287
  485MOL0     H66896  10.343   7.910   5.159 -0.1180 -0.8689  1.4107
  485MOL0     H66897  10.268   8.064   5.105  2.8955 -0.8029 -0.9526
  485MOL0     H66898  10.342   8.061   5.385 -0.2972 -0.3596 -0.0669
  485MOL0     H66899  10.328   8.198   5.274  1.8755  0.0292 -1.8311
  485MOL0     H66900  10.543   8.135   5.162  0.5121 -1.8663 -1.0390
  485MOL0     H66901  10.566   7.994   5.268  0.0604  0.0040  0.0461
  485MOL0     H66902  10.558   8.297   5.328 -2.1990 -1.9674 -3.3706
  485MOL0     H66903  10.532   8.177   5.460  0.4464 -2.3844 -0.0570
  485MOL0     H66904  10.774   8.181   5.281 -0.1568 -0.0877  0.5861
  485MOL0     H66905  10.746   8.070   5.420 -1.6303 -0.3035  0.6193
  485MOL0     H66906  10.750   8.299   5.567 -1.6977 -1.3297 -0.1103
  485MOL0     H66907  10.801   8.375   5.412 -0.7882 -1.1215 -1.0108
  485MOL0     H66908  11.012   8.318   5.535 -0.1374  0.5627 -0.0891
  485MOL0     H66909  10.989   8.250   5.377  1.9314  0.7439  0.2701
  485MOL0     H66910   9.841   8.235   5.269 -2.2848  0.2299 -0.3083
  485MOL0     H66911   9.625   8.172   5.341 -0.3308 -0.0315 -1.0505
  485MOL0     H66912   9.388   7.948   5.606 -2.0172  1.1370  1.2840
  485MOL0     H66913   9.176   7.894   5.739 -0.3989 -1.2551 -0.0763
  485MOL0     H66914   7.122   7.729   5.373  0.0784 -1.6648  3.9241
  485MOL0     H66915   6.891   7.771   5.338 -0.8364  0.2958  1.5829
  485MOL0     H66916   6.537   8.102   5.481  2.6535 -2.1229 -1.9647
  485MOL0     H66917   6.282   8.102   5.434  0.2738 -1.7957 -0.2304
  485MOL0     H66918   6.135   8.117   5.014 -1.0783  0.6114 -0.1814
  485MOL0     H66919   5.993   8.150   5.113 -0.6766  2.0346  0.7439
  485MOL0     H66920   6.067   8.374   4.994 -0.7000  4.2372  3.4086
  485MOL0     H66921   6.227   8.341   5.042  0.6975  0.9622  2.4774
  485MOL0     H66922   6.192   8.396   5.258  0.8238  2.9033 -1.1359
  485MOL0     H66923   6.083   8.503   5.185 -2.6348  0.5415  2.8352
  485MOL0     H66924   5.949   8.423   5.370 -2.4923 -0.7149 -0.1805
  485MOL0     H66925   5.965   8.266   5.329 -0.9262  0.3704 -0.4339
  485MOL0     H66926   5.677   8.281   5.066 -0.6844 -3.0590  0.6923
  485MOL0     H66927   6.380   8.155   5.019  1.6306  2.2729 -0.8031
  485MOL0     H66928   6.696   8.233   5.024 -0.1950  1.0626  1.7573
  485MOL0     H66929   6.689   8.049   5.005  1.0147  0.3056  0.6178
  485MOL0     H66930   6.563   8.161   4.937 -1.7767 -0.3684  2.0187
  486MOL0     O66931   4.852   2.824   9.172 -0.1662 -0.5601  0.3068
  486MOL0     C66932   4.750   2.769   9.206  0.8095  0.2963 -1.4854
  486MOL0     O66933   4.739   2.642   9.257 -0.0986 -0.1357  0.5236
  486MOL0     C66934   4.837   2.550   9.236  0.4797 -0.3559 -0.3826
  486MOL0     C66935   4.973   2.579   9.241  0.5294  0.7006 -0.3060
  486MOL0     C66936   5.075   2.477   9.216 -1.0335  0.0665 -0.4618
  486MOL0     C66937   5.040   2.355   9.181  0.0561  0.2600  0.6809
  486MOL0     O66938   5.129   2.256   9.160 -0.3895 -0.4182  0.4372
  486MOL0     C66939   5.101   2.122   9.125  0.1748  0.4643 -0.3226
  486MOL0     C66940   5.226   2.042   9.118 -0.3407  0.9443  0.2031
  486MOL0     C66941   5.327   2.082   9.007  0.2068 -0.0529  0.3067
  486MOL0     C66942   5.462   2.024   9.027 -0.8199  0.2884  0.0779
  486MOL0     C66943   5.536   2.029   8.895  0.7973  0.1185 -0.2825
  486MOL0     C66944   5.671   1.968   8.900  0.2007  0.5162 -0.5971
  486MOL0     C66945   5.773   2.017   9.006 -0.0108  0.1544  0.4921
  486MOL0     C66946   5.815   2.157   8.983 -0.0263  0.6281  0.2415
  486MOL0     N66947   5.928   2.166   8.882 -0.5046 -0.6883  0.2087
  486MOL0     C66948   5.927   2.121   8.755 -0.3167 -0.1822  0.9231
  486MOL0     C66949   6.043   2.170   8.703 -0.6902 -0.4549  0.5169
  486MOL0     C66950   6.086   2.156   8.560  0.1254  0.2174 -0.1340
  486MOL0     C66951   6.065   2.290   8.490 -0.1083 -0.7715  0.1187
  486MOL0     C66952   6.132   2.414   8.552 -0.5423 -0.5510  1.0929
  486MOL0     C66953   6.122   2.524   8.443 -0.2079 -0.0283  0.1155
  486MOL0     O66954   6.166   2.641   8.513  0.3908 -0.0934  0.1073
  486MOL0     C66955   6.296   2.680   8.526 -0.2346  0.6469 -0.3483
  486MOL0     C66956   6.323   2.799   8.594 -0.0306 -0.8693  0.3400
  486MOL0     C66957   6.456   2.838   8.615 -0.5116 -0.1131  0.4547
  486MOL0     C66958   6.481   2.939   8.726 -0.2725 -0.6697 -0.3856
  486MOL0     C66959   6.570   2.772   8.558  0.7204  0.5246 -0.0341
  486MOL0     C66960   6.711   2.818   8.559 -0.4548  0.6300  0.6644
  486MOL0     O66961   6.743   2.946   8.592 -0.7162  0.4111 -0.0546
  486MOL0     C66962   6.873   2.985   8.599  0.0114  0.2273 -0.2637
  486MOL0     C66963   6.969   2.925   8.681  0.6626 -0.0604  0.1503
  486MOL0     C66964   7.100   2.976   8.702  0.1048  0.0293  0.1576
  486MOL0     C66965   7.130   3.100   8.645  0.4716 -0.3939 -1.2760
  486MOL0     O66966   7.247   3.173   8.680  0.1397  0.3242  0.3524
  486MOL0     C66967   7.352   3.098   8.728  0.2893  0.0051  0.6811
  486MOL0     C66968   7.468   3.201   8.714  0.5932  0.1358 -0.4737
  486MOL0     C66969   7.614   3.156   8.735 -0.0646  0.7016 -0.1511
  486MOL0     C66970   7.646   3.037   8.632  1.1854  0.4764  0.9971
  486MOL0     C66971   7.792   3.015   8.638  0.0936 -0.1989 -0.0929
  486MOL0     C66972   7.835   2.881   8.589  0.5213 -0.2660  0.5908
  486MOL0     C66973   7.983   2.850   8.605 -0.6766 -0.8307 -1.1070
  486MOL0     C66974   8.018   2.710   8.549  0.9896 -0.3636 -0.3527
  486MOL0    Cl66975   8.186   2.731   8.494 -0.5827 -0.2895  0.3113
  486MOL0     C66976   7.038   3.159   8.560  0.1537  0.8340  0.4911
  486MOL0     C66977   6.914   3.103   8.539 -0.2511  0.4247  1.4524
  486MOL0     O66978   6.797   2.736   8.528  0.4761  0.3195 -0.1261
  486MOL0     C66979   6.536   2.642   8.495  0.2774  0.4286  0.7172
  486MOL0     C66980   6.396   2.597   8.477  0.7634 -0.6768 -0.1490
  486MOL0     N66981   6.123   2.213   8.808 -0.1941 -0.1495 -0.2558
  486MOL0     N66982   6.054   2.205   8.917 -0.2506 -0.0195 -0.1461
  486MOL0     C66983   4.903   2.328   9.167 -0.6471  0.3842  0.0109
  486MOL0     C66984   4.807   2.426   9.194  0.4595  0.8094  0.2163
  486MOL0     C66985   4.628   2.848   9.186  0.8169 -0.9101  1.6813
  486MOL0     C66986   4.632   2.982   9.168  0.1235 -0.1038 -0.3671
  486MOL0     C66987   4.524   3.058   9.137  0.0139  0.6695 -0.3209
  486MOL0     C66988   4.411   3.005   9.101  0.5999  0.7873 -0.0772
  486MOL0     O66989   4.293   3.072   9.065 -0.6334  0.3474  0.2807
  486MOL0     C66990   4.292   3.219   9.069 -0.2285 -0.6140  0.4753
  486MOL0     C66991   4.281   3.271   9.212 -0.3829 -0.3096 -0.2317
  486MOL0     C66992   4.262   3.427   9.205  0.2368  0.1231  0.1534
  486MOL0     C66993   4.316   3.478   9.340  0.4434 -0.6811  1.3108
  486MOL0     C66994   4.292   3.622   9.354  0.6952 -0.5641 -0.2041
  486MOL0     C66995   4.257   3.734   9.355  0.8246  0.0492 -0.1724
  486MOL0     C66996   4.400   2.870   9.106 -0.2356 -0.1759 -0.0236
  486MOL0     C66997   4.505   2.788   9.142  0.5766 -0.0017  0.0942
  486MOL0     C66998   4.483   2.642   9.126  0.0467  0.2836 -0.4999
  486MOL0     H66999   5.009   2.677   9.270 -0.2825  0.0258  3.4552
  486MOL0     H67000   5.182   2.492   9.228 -0.8571  0.5653 -2.2723
  486MOL0     H67001   5.046   2.124   9.031 -2.8972 -2.5104  1.1598
  486MOL0     H67002   5.040   2.068   9.199  1.7568 -1.8224 -0.5706
  486MOL0     H67003   5.279   2.051   9.213  0.1440  2.8291 -0.1981
  486MOL0     H67004   5.193   1.940   9.097  0.2288  0.6205  0.8727
  486MOL0     H67005   5.293   2.053   8.907 -0.4747  1.6793 -0.0037
  486MOL0     H67006   5.328   2.191   8.993 -1.0053 -0.0806 -0.1864
  486MOL0     H67007   5.527   2.076   9.098  1.1254  1.8230 -2.6454
  486MOL0     H67008   5.459   1.921   9.065  0.9192  0.4662  0.7847
  486MOL0     H67009   5.544   2.130   8.855  0.8510  0.7093  1.1556
  486MOL0     H67010   5.481   1.986   8.811  0.2374  2.5760 -1.2615
  486MOL0     H67011   5.660   1.859   8.910  0.5634  0.4288 -1.1445
  486MOL0     H67012   5.707   1.991   8.799 -0.4560  4.2714 -0.1065
  486MOL0     H67013   5.864   1.957   9.008  2.6956  3.8730 -0.7521
  486MOL0     H67014   5.722   2.007   9.102 -2.6771 -5.1206 -1.0626
  486MOL0     H67015   5.733   2.215   8.941  0.6356  2.3767  1.2621
  486MOL0     H67016   5.839   2.213   9.074 -1.0063  0.0469  0.8737
  486MOL0     H67017   5.853   2.060   8.704  1.5471 -1.7818 -0.0551
  486MOL0     H67018   6.038   2.079   8.499 -0.6362  0.5868 -0.0142
  486MOL0     H67019   6.193   2.132   8.559  0.0894  0.0567 -0.8578
  486MOL0     H67020   6.119   2.274   8.396 -1.1140 -1.6070 -0.3337
  486MOL0     H67021   5.959   2.305   8.472  0.2628  1.6513 -0.3499
  486MOL0     H67022   6.095   2.431   8.654  1.5366 -0.2142  1.8254
  486MOL0     H67023   6.239   2.402   8.572 -0.2979 -1.0306 -0.4098
  486MOL0     H67024   6.186   2.500   8.357  1.4731  2.1281  0.6593
  486MOL0     H67025   6.015   2.532   8.422  0.0723  0.2607 -1.3103
  486MOL0     H67026   6.235   2.851   8.628  0.9430 -0.6636  2.7231
  486MOL0     H67027   6.542   3.022   8.690 -1.7363 -0.5605 -2.7911
  486MOL0     H67028   6.529   2.888   8.810 -0.3962 -2.3331 -1.2785
  486MOL0     H67029   6.387   2.977   8.769 -1.2238 -3.0604 -0.1947
  486MOL0     H67030   6.935   2.832   8.724  0.1532  0.2802  0.4899
  486MOL0     H67031   7.174   2.922   8.759  0.1746  0.0339  0.0714
  486MOL0     H67032   7.345   3.062   8.832 -2.8071 -2.7328 -0.3032
  486MOL0     H67033   7.373   3.008   8.669  0.0589  0.6362 -0.3721
  486MOL0     H67034   7.464   3.252   8.617  2.3149 -0.2766 -0.7903
  486MOL0     H67035   7.448   3.271   8.795 -0.1076 -1.6639  0.9689
  486MOL0     H67036   7.631   3.112   8.834 -4.7056 -0.7237  0.2702
  486MOL0     H67037   7.676   3.242   8.709  0.6565 -0.1394 -1.3039
  486MOL0     H67038   7.616   3.062   8.530  0.5387  2.2103  1.5784
  486MOL0     H67039   7.594   2.943   8.652  2.0710  0.3181  2.8267
  486MOL0     H67040   7.851   3.092   8.588  1.9222 -1.1143  0.5788
  486MOL0     H67041   7.825   3.026   8.742  1.4741 -2.4053 -0.2322
  486MOL0     H67042   7.809   2.865   8.484  2.4994 -2.8535  0.4004
  486MOL0     H67043   7.790   2.808   8.658 -1.1509  0.1644 -0.0018
  486MOL0     H67044   8.018   2.856   8.708 -1.4530 -1.0551 -0.8223
  486MOL0     H67045   8.039   2.932   8.560  0.7393 -1.2443 -0.1630
  486MOL0     H67046   7.948   2.693   8.466 -0.0166  0.7978  0.2270
  486MOL0     H67047   8.008   2.630   8.623  0.8250  0.4566  0.5378
  486MOL0     H67048   7.069   3.256   8.523  0.7919  0.8197  0.9791
  486MOL0     H67049   6.852   3.155   8.467  0.9556 -0.7304 -0.5293
  486MOL0     H67050   6.619   2.589   8.450 -1.2536 -1.9786  0.5475
  486MOL0     H67051   6.386   2.506   8.419 -1.3826  0.1247 -1.1491
  486MOL0     H67052   4.860   2.234   9.133 -1.8076 -0.2514  2.9368
  486MOL0     H67053   4.705   2.389   9.203  0.6259  0.6520  1.7489
  486MOL0     H67054   4.724   3.031   9.197 -0.6531  2.1835 -1.5150
  486MOL0     H67055   4.543   3.164   9.146  0.4754  0.5494  0.1679
  486MOL0     H67056   4.376   3.266   9.017 -1.1110 -0.6953 -1.1103
  486MOL0     H67057   4.199   3.260   9.027  1.1014  2.5079  0.2422
  486MOL0     H67058   4.370   3.246   9.271 -0.0319  1.8097  0.1979
  486MOL0     H67059   4.194   3.233   9.268  0.8515  2.8665  4.5113
  486MOL0     H67060   4.312   3.465   9.116  1.3696  1.5724  1.3422
  486MOL0     H67061   4.160   3.464   9.192  1.2203  3.4186  0.8339
  486MOL0     H67062   4.422   3.456   9.331  0.1861 -2.1025  1.5606
  486MOL0     H67063   4.272   3.429   9.427 -0.1498  0.4910  1.6988
  486MOL0     H67064   4.232   3.837   9.345 -2.4057 -0.7945 -2.7301
  486MOL0     H67065   4.308   2.818   9.080  0.4668 -1.6891  0.3528
  486MOL0     H67066   4.414   2.635   9.041 -1.0652  1.2129  0.3011
  486MOL0     H67067   4.572   2.581   9.105  1.0375  0.8130  1.8766
  486MOL0     H67068   4.426   2.606   9.211 -0.7424  0.0492 -1.1173
  487MOL0     O67069   2.041   8.575   3.084  0.0282  0.0465 -0.1000
  487MOL0     C67070   2.018   8.547   2.965  0.1356 -1.3210  0.1865
  487MOL0     O67071   2.083   8.602   2.861  0.1939  0.2676 -0.1629
  487MOL0     C67072   2.188   8.684   2.878  0.0964 -0.3724  0.2154
  487MOL0     C67073   2.317   8.642   2.845 -0.2846 -1.2958 -0.4585
  487MOL0     C67074   2.424   8.740   2.849 -0.0233 -0.2811 -0.7307
  487MOL0     C67075   2.405   8.876   2.897 -0.2300 -0.2091  0.0381
  487MOL0     O67076   2.523   8.956   2.905 -0.0496  0.0375  0.5673
  487MOL0     C67077   2.502   9.099   2.905 -0.4256 -0.0434  0.2266
  487MOL0     C67078   2.632   9.164   2.956 -0.3228 -0.5987 -0.2052
  487MOL0     C67079   2.692   9.080   3.070  0.4917 -0.7073 -0.1802
  487MOL0     C67080   2.777   9.168   3.169 -1.1035 -0.0543 -0.4277
  487MOL0     C67081   2.687   9.234   3.280 -0.3986  0.6238 -0.0953
  487MOL0     C67082   2.772   9.322   3.374  0.2654 -0.3135  0.8420
  487MOL0     C67083   2.692   9.394   3.494 -0.1997  0.9757  0.8147
  487MOL0     C67084   2.692   9.543   3.491 -0.1880 -0.8117  0.5478
  487MOL0     N67085   2.661   9.590   3.349 -0.3625  0.0325 -0.3869
  487MOL0     C67086   2.533   9.611   3.305  0.3346 -0.5653 -0.4241
  487MOL0     C67087   2.552   9.646   3.179  0.5988  0.2944 -0.0069
  487MOL0     C67088   2.448   9.678   3.076  0.8164 -0.0414  0.1938
  487MOL0     C67089   2.424   9.545   3.007  0.3646  0.2199 -0.4615
  487MOL0     C67090   2.321   9.561   2.892  0.6227 -0.1074 -0.1980
  487MOL0     C67091   2.275   9.440   2.809  0.2445 -0.6686 -0.6571
  487MOL0     O67092   2.183   9.368   2.901  0.0583 -0.5203  0.1957
  487MOL0     C67093   2.112   9.266   2.849  0.4621 -0.0844  0.5234
  487MOL0     C67094   2.150   9.199   2.733  0.7514  0.3490 -0.0646
  487MOL0     C67095   2.072   9.092   2.672 -0.2654 -0.5974 -0.4151
  487MOL0     C67096   2.125   9.028   2.547  0.2922 -0.2437  0.5525
  487MOL0     C67097   1.947   9.053   2.739 -0.0505  0.6409 -0.6116
  487MOL0     C67098   1.851   8.952   2.695 -0.8568 -0.6095  0.0399
  487MOL0     O67099   1.776   8.888   2.795 -1.0080  0.4664  0.4789
  487MOL0     C67100   1.676   8.796   2.764 -0.0401 -0.3822  0.3814
  487MOL0     C67101   1.595   8.796   2.648 -0.1896 -1.4594  0.0827
  487MOL0     C67102   1.500   8.698   2.622  0.3460 -0.5620  0.2547
  487MOL0     C67103   1.461   8.603   2.717  0.0296 -0.9814 -0.3168
  487MOL0     O67104   1.362   8.505   2.698  0.2165 -0.4259  0.7785
  487MOL0     C67105   1.238   8.551   2.643 -0.0246  0.6905 -0.3462
  487MOL0     C67106   1.138   8.423   2.648  0.1680 -0.0327 -0.3770
  487MOL0     C67107   1.103   8.384   2.800 -0.7235 -0.2483  0.5607
  487MOL0     C67108   1.018   8.262   2.838 -0.4036  0.3991  1.4442
  487MOL0     C67109   1.099   8.132   2.810 -0.2005 -0.0292  0.1883
  487MOL0     C67110   1.012   8.007   2.853 -0.1910  0.2024 -0.2271
  487MOL0     C67111   0.884   7.981   2.768  0.8004  1.2851 -0.6199
  487MOL0     C67112   0.898   7.948   2.618 -0.4190  0.2089 -0.1283
  487MOL0    Cl67113   1.000   7.810   2.606  0.0323  0.2213 -0.0407
  487MOL0     C67114   1.530   8.613   2.835  0.2923  0.5538 -0.5670
  487MOL0     C67115   1.642   8.697   2.857 -0.3953 -0.4250  0.0932
  487MOL0     O67116   1.853   8.926   2.575  0.1517  0.2373  0.5268
  487MOL0     C67117   1.927   9.108   2.866  0.5791  0.5748 -0.4073
  487MOL0     C67118   2.009   9.215   2.916  0.5007  0.8946 -0.1057
  487MOL0     N67119   2.682   9.668   3.155 -0.1283 -0.1995  0.5205
  487MOL0     N67120   2.749   9.645   3.260  0.8352 -0.0213 -0.2960
  487MOL0     C67121   2.272   8.911   2.930 -0.2794 -0.0664 -0.7409
  487MOL0     C67122   2.165   8.821   2.933 -0.2132  0.3223  0.2701
  487MOL0     C67123   1.915   8.440   2.934  0.5221 -0.5844 -0.2619
  487MOL0     C67124   1.934   8.364   2.823 -0.4121  0.1473 -0.3628
  487MOL0     C67125   1.835   8.278   2.784  0.5062 -0.3956  0.1015
  487MOL0     C67126   1.724   8.257   2.863  1.0535 -0.5979  0.0048
  487MOL0     O67127   1.627   8.159   2.838  0.1035 -0.3306  0.1422
  487MOL0     C67128   1.573   8.170   2.710 -0.2403  0.7055  0.5571
  487MOL0     C67129   1.478   8.058   2.687  0.2601  0.2903  0.9410
  487MOL0     C67130   1.550   7.927   2.658 -0.9451  0.6712  0.4874
  487MOL0     C67131   1.467   7.831   2.578 -0.8775  0.0526  0.2700
  487MOL0     C67132   1.363   7.786   2.670 -0.0160  0.5208 -0.0860
  487MOL0     C67133   1.271   7.752   2.740 -0.9109 -0.4797 -0.5030
  487MOL0     C67134   1.709   8.320   2.989  0.0078 -0.0840  0.7544
  487MOL0     C67135   1.801   8.424   3.020  0.8693 -0.7152  0.0449
  487MOL0     C67136   1.769   8.502   3.147  0.4885  0.8971  0.0142
  487MOL0     H67137   2.324   8.539   2.813 -0.9389 -1.1964 -0.9512
  487MOL0     H67138   2.523   8.706   2.823  2.1033  1.7180  3.6374
  487MOL0     H67139   2.421   9.131   2.971 -1.9870 -1.9733 -0.6891
  487MOL0     H67140   2.486   9.139   2.804  5.5515  1.3187 -0.5880
  487MOL0     H67141   2.709   9.175   2.879  1.0918  1.5700  1.3971
  487MOL0     H67142   2.620   9.267   2.990  0.7978 -0.9667  1.4275
  487MOL0     H67143   2.609   9.029   3.122  0.7488  0.7740  1.7693
  487MOL0     H67144   2.764   9.011   3.024  0.7771  1.1883 -2.8385
  487MOL0     H67145   2.846   9.101   3.222 -0.7804 -0.8584 -1.8271
  487MOL0     H67146   2.832   9.246   3.115 -1.4146  0.8677  0.5557
  487MOL0     H67147   2.632   9.154   3.329  2.9434 -1.8541 -0.0293
  487MOL0     H67148   2.612   9.293   3.225 -1.9700 -2.0060 -0.9273
  487MOL0     H67149   2.853   9.258   3.412 -1.0354 -2.1957  0.5556
  487MOL0     H67150   2.815   9.401   3.312  0.3607 -0.7645  0.3321
  487MOL0     H67151   2.733   9.359   3.589  1.1618 -2.2069 -0.7773
  487MOL0     H67152   2.590   9.354   3.491 -0.2598  1.1007 -2.2064
  487MOL0     H67153   2.609   9.584   3.551 -0.1758  0.4974 -0.2976
  487MOL0     H67154   2.788   9.582   3.527  0.0590  0.3538 -1.2774
  487MOL0     H67155   2.434   9.597   3.347  1.3699  1.8476  3.3447
  487MOL0     H67156   2.480   9.751   3.001 -0.9828 -1.7801 -2.4841
  487MOL0     H67157   2.358   9.718   3.123  0.3094 -1.2545  0.2944
  487MOL0     H67158   2.517   9.502   2.971  1.8763  1.4279  1.7446
  487MOL0     H67159   2.383   9.476   3.082  1.8076 -0.6119 -0.3971
  487MOL0     H67160   2.229   9.605   2.932 -0.1411 -1.1253 -0.7730
  487MOL0     H67161   2.359   9.633   2.820  1.1344  2.2020  2.2112
  487MOL0     H67162   2.223   9.480   2.722  1.3057  3.5652  0.4178
  487MOL0     H67163   2.359   9.382   2.770  0.1964 -0.3590 -1.2313
  487MOL0     H67164   2.233   9.233   2.673  0.5313  2.4828  0.7789
  487MOL0     H67165   2.074   9.073   2.462  1.7030  0.0758 -0.1636
  487MOL0     H67166   2.113   8.919   2.552 -0.3081 -0.1395  1.6358
  487MOL0     H67167   2.232   9.048   2.537  0.8785 -3.2714 -0.4370
  487MOL0     H67168   1.608   8.857   2.559 -0.4589 -3.2149 -1.2288
  487MOL0     H67169   1.456   8.705   2.523  0.1578 -0.3175  0.3525
  487MOL0     H67170   1.205   8.637   2.701  0.0653  0.5167 -0.0346
  487MOL0     H67171   1.250   8.573   2.537  0.3511 -1.4932 -0.8130
  487MOL0     H67172   1.046   8.444   2.592  0.0534 -2.1072 -1.0590
  487MOL0     H67173   1.174   8.340   2.586 -0.4289 -0.6482  0.0742
  487MOL0     H67174   1.042   8.468   2.833 -1.2805 -0.3229 -0.2815
  487MOL0     H67175   1.195   8.381   2.860  0.6834  1.2449 -1.3729
  487MOL0     H67176   0.931   8.275   2.773  1.7634 -1.7309 -2.2044
  487MOL0     H67177   0.990   8.272   2.944  2.0232  1.6598  2.0424
  487MOL0     H67178   1.128   8.124   2.704 -0.4588  0.4895  0.0768
  487MOL0     H67179   1.188   8.134   2.873  0.6406 -0.2307 -0.9529
  487MOL0     H67180   0.988   8.039   2.955 -1.2083  2.0823 -1.0035
  487MOL0     H67181   1.067   7.913   2.862  3.3693  2.1187  0.1876
  487MOL0     H67182   0.810   8.061   2.776 -0.2084  0.2323  1.7843
  487MOL0     H67183   0.835   7.898   2.821 -2.1507  2.2873 -1.6380
  487MOL0     H67184   0.937   8.030   2.559 -1.1918 -0.6233 -1.8555
  487MOL0     H67185   0.805   7.914   2.571  0.3873 -0.9720 -0.9062
  487MOL0     H67186   1.499   8.535   2.904 -1.0128  2.4214  1.0699
  487MOL0     H67187   1.688   8.701   2.955 -0.7889 -3.1415  0.4722
  487MOL0     H67188   1.851   9.088   2.940  1.1742 -0.6910 -0.1107
  487MOL0     H67189   1.983   9.249   3.016 -0.7967 -0.0800 -0.0976
  487MOL0     H67190   2.259   9.010   2.974  0.2630 -1.3117  2.5089
  487MOL0     H67191   2.069   8.852   2.972  0.2565 -0.0014  1.7438
  487MOL0     H67192   2.023   8.369   2.760  0.5001 -1.5086  0.7045
  487MOL0     H67193   1.849   8.204   2.706  0.8337 -1.4934  1.1723
  487MOL0     H67194   1.517   8.262   2.698 -1.0718  0.3238  1.3513
  487MOL0     H67195   1.642   8.171   2.626 -0.4272  1.2318  0.4085
  487MOL0     H67196   1.413   8.098   2.608 -1.4259 -0.4101  1.9276
  487MOL0     H67197   1.418   8.053   2.778  0.6399  2.6261  1.3901
  487MOL0     H67198   1.646   7.940   2.606 -0.9205 -1.4490 -0.0912
  487MOL0     H67199   1.571   7.865   2.746 -0.2949 -1.2066 -0.9089
  487MOL0     H67200   1.535   7.762   2.528 -1.5559 -0.8682  0.6103
  487MOL0     H67201   1.410   7.890   2.506 -1.2186 -0.8413 -0.1951
  487MOL0     H67202   1.189   7.722   2.802 -0.4961 -2.8909 -1.0031
  487MOL0     H67203   1.627   8.312   3.060  0.2476  0.2639  1.0713
  487MOL0     H67204   1.799   8.446   3.236 -2.1154 -0.6541  0.0259
  487MOL0     H67205   1.816   8.600   3.136  0.9219  0.4220 -4.6306
  487MOL0     H67206   1.660   8.505   3.153  0.4025 -0.4724 -0.4751
  488MOL0     O67207   5.251  10.588   1.696  1.0619 -0.5750 -0.3790
  488MOL0     C67208   5.202  10.475   1.698  0.5987  0.4435  0.2937
  488MOL0     O67209   5.263  10.357   1.658  0.0454 -0.2863 -0.5571
  488MOL0     C67210   5.390  10.372   1.616  0.3081  0.6790  0.4607
  488MOL0     C67211   5.509  10.353   1.696 -0.5597  0.8955  0.8559
  488MOL0     C67212   5.642  10.378   1.648  1.1632  0.0929 -0.4642
  488MOL0     C67213   5.657  10.425   1.515 -0.7279 -0.3053 -0.2922
  488MOL0     O67214   5.776  10.473   1.465  0.3933  0.8390 -0.4066
  488MOL0     C67215   5.906  10.424   1.518 -0.6061 -0.2179  0.0730
  488MOL0     C67216   6.007  10.492   1.428 -0.3757  0.2212  0.2397
  488MOL0     C67217   6.146  10.438   1.450 -0.0569 -0.4128  0.3154
  488MOL0     C67218   6.240  10.504   1.352  0.3928  0.7297 -0.2018
  488MOL0     C67219   6.386  10.497   1.404  0.7199 -0.5296  0.0519
  488MOL0     C67220   6.481  10.539   1.296  0.6690 -0.2213  0.3903
  488MOL0     C67221   6.617  10.561   1.351 -0.0187 -0.8123  0.1920
  488MOL0     C67222   6.719  10.601   1.238  0.5507  0.1852  0.3095
  488MOL0     N67223   6.861  10.616   1.281  0.0291 -0.0796  0.2535
  488MOL0     C67224   6.947  10.518   1.324 -0.2746  0.2625 -0.6619
  488MOL0     C67225   7.062  10.588   1.362 -0.1263  0.7766  0.6626
  488MOL0     C67226   7.196  10.540   1.422 -0.2134  0.5773  0.3746
  488MOL0     C67227   7.299  10.656   1.429 -0.4801 -0.2845 -0.1589
  488MOL0     C67228   7.441  10.599   1.448  0.2003  0.6089  0.5973
  488MOL0     C67229   7.529  10.694   1.530  0.2019  0.2243  0.3749
  488MOL0     O67230   7.531  10.656   1.673 -0.0397 -0.0543 -0.3063
  488MOL0     C67231   7.613  10.737   1.751 -0.3933 -0.2812  0.4809
  488MOL0     C67232   7.609  10.877   1.755  0.4012 -0.0835 -0.1698
  488MOL0     C67233   7.681  10.948   1.852 -0.2385 -0.2618  0.8797
  488MOL0     C67234   7.682  11.099   1.825  0.1483 -0.2433  1.0595
  488MOL0     C67235   7.755  10.877   1.949  0.6766 -0.1972  0.0332
  488MOL0     C67236   7.844  10.944   2.048 -0.2630  0.3922 -0.0441
  488MOL0     O67237   7.857  11.081   2.035 -0.3469  0.0811  0.0594
  488MOL0     C67238   7.966  11.143   2.093 -0.8700  0.0008  0.2743
  488MOL0     C67239   8.040  11.243   2.023  0.3140  1.1288 -0.1917
  488MOL0     C67240   8.152  11.308   2.072  0.4104  0.2154 -0.4237
  488MOL0     C67241   8.179  11.295   2.204 -0.6168 -0.1985  0.0310
  488MOL0     O67242   8.292  11.349   2.265  0.2350 -0.0065  0.4640
  488MOL0     C67243   8.350  11.469   2.200  0.0290 -0.1424  0.5240
  488MOL0     C67244   8.434  11.532   2.301  0.2568 -0.6593  0.1929
  488MOL0     C67245   8.556  11.448   2.325 -0.3325 -1.1850  0.3672
  488MOL0     C67246   8.679  11.515   2.271 -0.1116 -1.3217 -0.0074
  488MOL0     C67247   8.814  11.449   2.294  0.3223  0.1556 -0.3125
  488MOL0     C67248   8.843  11.328   2.210  0.9289 -0.1354  1.7942
  488MOL0     C67249   8.883  11.351   2.067  0.5920  0.2159 -0.3109
  488MOL0     C67250   8.853  11.228   1.977  0.1735 -0.8805 -0.2979
  488MOL0    Cl67251   8.676  11.187   1.943 -0.4207 -0.2918  0.1127
  488MOL0     C67252   8.101  11.208   2.285  0.6246 -0.2053 -0.5160
  488MOL0     C67253   7.996  11.128   2.227  0.2334 -0.2576 -0.1375
  488MOL0     O67254   7.895  10.875   2.140  0.2742  0.9768  0.3217
  488MOL0     C67255   7.754  10.740   1.942 -0.5196 -0.2978  1.1808
  488MOL0     C67256   7.696  10.668   1.836  0.6796  0.6961 -0.7909
  488MOL0     N67257   7.037  10.717   1.354 -0.7203  0.0723  0.1643
  488MOL0     N67258   6.914  10.732   1.311 -0.4078  0.5293 -0.1255
  488MOL0     C67259   5.538  10.449   1.431 -0.7092 -0.3262 -0.0291
  488MOL0     C67260   5.409  10.411   1.480 -1.0236 -0.5833  0.1101
  488MOL0     C67261   5.074  10.470   1.773  0.7339 -0.1424  0.2473
  488MOL0     C67262   5.065  10.383   1.882 -0.0429  0.7225 -0.2133
  488MOL0     C67263   4.957  10.394   1.972  1.0605  0.4607 -0.3585
  488MOL0     C67264   4.840  10.474   1.931  0.3463 -0.5592 -0.8514
  488MOL0     O67265   4.734  10.506   2.011 -0.9858 -0.0864 -0.0658
  488MOL0     C67266   4.705  10.416   2.114 -0.2849  0.1312 -0.0233
  488MOL0     C67267   4.569  10.446   2.175  0.3708 -1.1306 -0.4735
  488MOL0     C67268   4.457  10.426   2.069  0.1291 -0.4419 -0.5730
  488MOL0     C67269   4.325  10.470   2.138 -0.2001  0.3124 -0.1935
  488MOL0     C67270   4.223  10.372   2.103 -0.3632 -0.2590 -0.6367
  488MOL0     C67271   4.146  10.293   2.072  0.5281  0.3004  0.2975
  488MOL0     C67272   4.852  10.539   1.810 -0.5884 -0.1783 -0.0718
  488MOL0     C67273   4.965  10.537   1.727  0.2675  0.9331 -0.3087
  488MOL0     C67274   4.957  10.609   1.599  0.1896 -0.9762 -0.2344
  488MOL0     H67275   5.502  10.320   1.799 -1.2655  2.0814  1.2055
  488MOL0     H67276   5.717  10.361   1.724  0.5721 -1.0051 -0.1011
  488MOL0     H67277   5.913  10.315   1.528 -1.7678 -0.3010  0.1777
  488MOL0     H67278   5.915  10.462   1.620 -3.0812  0.5177  0.0900
  488MOL0     H67279   5.979  10.473   1.324  0.4197 -0.2303  0.0952
  488MOL0     H67280   6.000  10.600   1.445 -1.9913 -0.1693  2.4929
  488MOL0     H67281   6.173  10.455   1.554 -0.3167 -0.2568  0.3561
  488MOL0     H67282   6.150  10.331   1.426 -0.9497 -0.9175  2.2288
  488MOL0     H67283   6.235  10.461   1.252  1.1747  1.2327 -0.4664
  488MOL0     H67284   6.205  10.608   1.349 -2.4133 -0.0623  1.5210
  488MOL0     H67285   6.417  10.396   1.434  2.1496  0.2062  1.1633
  488MOL0     H67286   6.398  10.561   1.491 -4.1523 -0.9493  1.2750
  488MOL0     H67287   6.487  10.459   1.222  0.5928  0.1852 -0.0564
  488MOL0     H67288   6.443  10.633   1.256  0.9842  1.3159  3.3634
  488MOL0     H67289   6.665  10.471   1.391  2.8373  1.1924  1.6390
  488MOL0     H67290   6.616  10.630   1.436 -1.4146  0.5442 -0.8728
  488MOL0     H67291   6.711  10.515   1.171  1.5286 -0.7214  1.3196
  488MOL0     H67292   6.692  10.694   1.186  0.0315  0.1935  0.5918
  488MOL0     H67293   6.929  10.411   1.330  1.8286 -0.1296  5.0044
  488MOL0     H67294   7.236  10.470   1.348 -0.5833  0.7355  0.0216
  488MOL0     H67295   7.185  10.491   1.520 -1.5269 -0.4050 -0.2207
  488MOL0     H67296   7.297  10.719   1.340  1.4598 -0.0377 -0.0795
  488MOL0     H67297   7.270  10.714   1.517  2.0337 -2.5493  2.3641
  488MOL0     H67298   7.440  10.498   1.490  0.9636 -0.6487 -2.1764
  488MOL0     H67299   7.479  10.586   1.347  2.6301  2.7195  1.1437
  488MOL0     H67300   7.634  10.679   1.502  0.2374  2.7692 -1.1606
  488MOL0     H67301   7.506  10.795   1.495  0.1815 -0.9689 -3.6380
  488MOL0     H67302   7.544  10.924   1.682 -2.1869 -0.8999  1.5059
  488MOL0     H67303   7.642  11.126   1.727  1.6995 -2.8418 -0.4047
  488MOL0     H67304   7.780  11.145   1.808 -0.0615 -0.9547 -2.9552
  488MOL0     H67305   7.633  11.149   1.909 -0.3921 -2.2669  2.0118
  488MOL0     H67306   8.002  11.266   1.924 -0.0815  0.1197 -0.2871
  488MOL0     H67307   8.214  11.362   2.001  0.9223 -1.7192 -1.5268
  488MOL0     H67308   8.408  11.448   2.110 -0.8014 -0.0268 -0.0409
  488MOL0     H67309   8.274  11.541   2.172  1.1164  0.5100 -0.8487
  488MOL0     H67310   8.458  11.634   2.270 -2.1678 -0.4848 -1.3600
  488MOL0     H67311   8.376  11.543   2.392 -1.4085  1.6696 -1.0522
  488MOL0     H67312   8.539  11.351   2.278 -3.3458 -1.7084  2.2738
  488MOL0     H67313   8.563  11.427   2.433  1.5360  0.7680  0.6835
  488MOL0     H67314   8.684  11.618   2.308 -1.9800 -0.5825 -1.6453
  488MOL0     H67315   8.663  11.526   2.163 -2.7527 -1.3879  0.3075
  488MOL0     H67316   8.896  11.516   2.269  2.8612 -2.4730  0.4581
  488MOL0     H67317   8.830  11.425   2.399 -1.7211 -2.4307 -0.4755
  488MOL0     H67318   8.766  11.251   2.211  0.1538  0.1511 -3.8238
  488MOL0     H67319   8.938  11.282   2.240  0.9039 -2.7123 -1.4471
  488MOL0     H67320   8.992  11.361   2.067  0.6487 -0.1970 -1.7756
  488MOL0     H67321   8.832  11.441   2.031 -1.7202 -0.9412 -0.0923
  488MOL0     H67322   8.890  11.138   2.026 -0.3427 -0.0840  1.6641
  488MOL0     H67323   8.897  11.239   1.877  1.0714 -0.7938  0.0974
  488MOL0     H67324   8.124  11.216   2.391  1.0549  3.9195 -0.7761
  488MOL0     H67325   7.940  11.067   2.297  2.3262 -0.4005  1.5014
  488MOL0     H67326   7.795  10.691   2.030 -0.8460 -0.5805  1.1762
  488MOL0     H67327   7.681  10.562   1.815 -2.1726  0.8340  0.1135
  488MOL0     H67328   5.544  10.487   1.330 -0.3058  0.1760  0.1796
  488MOL0     H67329   5.322  10.425   1.417 -0.8990  0.1733  0.0979
  488MOL0     H67330   5.149  10.327   1.920 -0.7000  0.7291  1.3092
  488MOL0     H67331   4.949  10.357   2.074 -2.1526 -2.1224 -1.3735
  488MOL0     H67332   4.698  10.313   2.079 -1.6639 -1.1577  3.5630
  488MOL0     H67333   4.779  10.415   2.195  0.9497  1.8223 -1.0721
  488MOL0     H67334   4.566  10.549   2.210 -3.5218 -0.7939 -1.3340
  488MOL0     H67335   4.558  10.383   2.264  3.1669 -2.4786 -0.9592
  488MOL0     H67336   4.471  10.480   1.975 -0.6887 -1.2480 -1.1788
  488MOL0     H67337   4.473  10.319   2.052  1.2740 -0.4374  0.3923
  488MOL0     H67338   4.298  10.573   2.112 -1.4148  0.1305  0.2755
  488MOL0     H67339   4.326  10.465   2.247 -0.5792  3.4267  0.0496
  488MOL0     H67340   4.085  10.213   2.036 -0.4535  1.4897 -0.7543
  488MOL0     H67341   4.767  10.600   1.781 -0.5800  0.4623  1.1982
  488MOL0     H67342   5.028  10.562   1.530  1.3272 -0.6452  0.6693
  488MOL0     H67343   4.856  10.612   1.558  1.4097  0.7203 -3.4334
  488MOL0     H67344   4.984  10.713   1.621 -0.6973 -0.2524 -2.2950
  489MOL0     O67345   1.038   7.607   6.269 -0.2671  0.5912  0.0387
  489MOL0     C67346   0.941   7.534   6.255 -0.1618 -0.2813  1.7715
  489MOL0     O67347   0.923   7.403   6.308  0.6706 -0.1792 -0.5886
  489MOL0     C67348   1.022   7.342   6.370 -0.1584 -0.7461  0.1589
  489MOL0     C67349   1.167   7.378   6.371  0.3683  0.5883 -0.2641
  489MOL0     C67350   1.261   7.305   6.456  0.3916 -0.0607  0.6863
  489MOL0     C67351   1.209   7.195   6.523 -0.4238 -0.5755 -0.5558
  489MOL0     O67352   1.295   7.109   6.585  0.8795 -0.5780 -0.4099
  489MOL0     C67353   1.379   7.050   6.491 -0.6182 -0.2498  0.9960
  489MOL0     C67354   1.459   6.957   6.576  0.0187 -0.0861 -0.4438
  489MOL0     C67355   1.590   6.920   6.503 -0.7465  0.2521  0.3428
  489MOL0     C67356   1.652   6.792   6.553  1.1518 -0.7684  0.7248
  489MOL0     C67357   1.799   6.779   6.514 -0.4379  0.5366 -0.2657
  489MOL0     C67358   1.876   6.693   6.614 -0.2877  0.1323 -0.2075
  489MOL0     C67359   1.811   6.554   6.637  0.3136  0.5599  0.0931
  489MOL0     C67360   1.786   6.521   6.787  1.3420 -0.0642 -0.5282
  489MOL0     N67361   1.913   6.522   6.869 -1.1798  0.1281 -0.1753
  489MOL0     C67362   2.020   6.440   6.842  0.1185  0.3520  0.4900
  489MOL0     C67363   2.101   6.455   6.948 -0.2258  0.0043 -0.4902
  489MOL0     C67364   2.240   6.394   6.955 -0.6438 -0.2125  0.5738
  489MOL0     C67365   2.349   6.472   6.883  0.6711 -0.0192  0.2689
  489MOL0     C67366   2.337   6.466   6.736 -0.5335 -0.0371  0.7868
  489MOL0     C67367   2.467   6.519   6.672 -0.9323  1.0359  0.5999
  489MOL0     O67368   2.569   6.410   6.647  0.2306 -0.3513 -0.0813
  489MOL0     C67369   2.683   6.430   6.724  0.0855 -0.0557  0.9381
  489MOL0     C67370   2.771   6.538   6.718  0.4133 -0.1035 -0.4184
  489MOL0     C67371   2.881   6.541   6.800  0.1386 -0.3475 -0.0370
  489MOL0     C67372   2.984   6.652   6.773 -0.2054  0.5536 -0.5858
  489MOL0     C67373   2.907   6.436   6.893 -0.4549  0.5064 -0.3054
  489MOL0     C67374   3.030   6.423   6.983 -1.1617  0.1317  0.1831
  489MOL0     O67375   3.073   6.294   7.002  0.6471  0.1153 -0.9725
  489MOL0     C67376   3.204   6.265   7.036  0.3278  0.2839  0.3681
  489MOL0     C67377   3.314   6.334   6.984  0.5458  1.0292 -0.0035
  489MOL0     C67378   3.442   6.297   7.015 -0.0376  0.3625  0.5016
  489MOL0     C67379   3.463   6.186   7.095 -0.2939  0.3712 -0.5550
  489MOL0     O67380   3.593   6.149   7.125 -0.1574 -1.1966  0.2300
  489MOL0     C67381   3.619   6.108   7.264  0.4490 -0.0415 -0.0012
  489MOL0     C67382   3.739   6.170   7.330 -0.3114  0.2508  0.0278
  489MOL0     C67383   3.741   6.319   7.340 -0.4936 -0.4082 -0.5235
  489MOL0     C67384   3.776   6.389   7.209 -0.1600  0.1389  1.0778
  489MOL0     C67385   3.787   6.541   7.213 -0.2875  0.5169 -0.0008
  489MOL0     C67386   3.664   6.616   7.259  0.3576 -0.4041 -0.2746
  489MOL0     C67387   3.534   6.578   7.185  0.9826 -0.2457 -0.0260
  489MOL0     C67388   3.417   6.674   7.235  0.5117  0.1508 -0.6228
  489MOL0    Cl67389   3.388   6.635   7.405 -0.1306 -0.1225 -0.2277
  489MOL0     C67390   3.358   6.093   7.122  0.5271 -0.9587 -0.9675
  489MOL0     C67391   3.228   6.139   7.088  0.3579 -0.1727 -0.3062
  489MOL0     O67392   3.087   6.524   7.031  0.5745 -0.9914  0.4452
  489MOL0     C67393   2.817   6.325   6.895  0.3477 -0.3177  0.4587
  489MOL0     C67394   2.710   6.325   6.806  0.2431 -0.5083 -0.1615
  489MOL0     N67395   2.041   6.534   7.040 -0.3448  0.2656 -0.5906
  489MOL0     N67396   1.921   6.563   6.999  0.3513  0.1530  0.5990
  489MOL0     C67397   1.074   7.154   6.511 -0.6311 -0.6321 -0.2191
  489MOL0     C67398   0.982   7.234   6.445  0.6401 -0.2218  0.6547
  489MOL0     C67399   0.833   7.580   6.163  0.3843  0.6217 -0.5218
  489MOL0     C67400   0.749   7.477   6.111 -0.0437 -0.5037 -0.6124
  489MOL0     C67401   0.644   7.507   6.031  0.0010  0.6316  1.5836
  489MOL0     C67402   0.619   7.638   5.993 -0.2754 -0.4646 -0.3061
  489MOL0     O67403   0.503   7.654   5.913 -0.2619 -0.0995  0.1136
  489MOL0     C67404   0.471   7.780   5.850 -0.6929 -0.1972  0.4076
  489MOL0     C67405   0.538   7.783   5.708  0.1218 -0.1475  0.3243
  489MOL0     C67406   0.581   7.921   5.667  1.0125 -0.5068  0.1030
  489MOL0     C67407   0.657   7.912   5.538 -0.4466 -0.7259  0.0444
  489MOL0     C67408   0.573   7.879   5.422  0.2511 -1.2830 -0.1518
  489MOL0     C67409   0.502   7.835   5.336  0.0520 -0.5433 -0.7160
  489MOL0     C67410   0.714   7.734   6.027  0.8805  0.9066  0.4853
  489MOL0     C67411   0.815   7.710   6.121  0.7948  0.3996  0.3749
  489MOL0     C67412   0.900   7.830   6.165  0.2960 -0.6231 -0.0503
  489MOL0     H67413   1.205   7.450   6.300 -0.8014 -1.5600 -3.2959
  489MOL0     H67414   1.366   7.330   6.456 -0.1010  2.8591 -3.0010
  489MOL0     H67415   1.450   7.129   6.466  0.0115 -0.0342  3.2858
  489MOL0     H67416   1.328   7.000   6.408 -0.8300  1.4279  0.0832
  489MOL0     H67417   1.486   7.010   6.668 -0.4260 -1.9770  0.8173
  489MOL0     H67418   1.404   6.869   6.608  1.8043 -0.1636  2.8726
  489MOL0     H67419   1.574   6.906   6.396 -0.6950 -4.6238  0.7759
  489MOL0     H67420   1.659   7.004   6.515  0.8621 -0.6046 -2.2018
  489MOL0     H67421   1.633   6.795   6.661  2.0993  1.2521  0.8735
  489MOL0     H67422   1.597   6.704   6.518 -0.8050  0.8271 -0.3986
  489MOL0     H67423   1.855   6.873   6.504  0.4086  0.2199  1.2080
  489MOL0     H67424   1.813   6.723   6.421  1.4365 -1.1813  0.9634
  489MOL0     H67425   1.981   6.682   6.585  1.3761  2.2007  4.1507
  489MOL0     H67426   1.885   6.744   6.710  1.8329 -1.1166  0.3254
  489MOL0     H67427   1.888   6.482   6.607  1.0246  0.4304  2.0654
  489MOL0     H67428   1.725   6.534   6.573  0.5511 -1.0954  0.2287
  489MOL0     H67429   1.719   6.592   6.835  2.5965 -0.1632  1.4945
  489MOL0     H67430   1.741   6.421   6.793  1.0417  0.1371  1.3457
  489MOL0     H67431   2.038   6.392   6.746 -0.8865  2.2261 -0.6836
  489MOL0     H67432   2.233   6.291   6.919  1.8172 -0.5985  0.9888
  489MOL0     H67433   2.280   6.400   7.057  1.1092  0.5687 -0.1084
  489MOL0     H67434   2.338   6.577   6.913 -1.2044 -0.1660  0.2061
  489MOL0     H67435   2.451   6.440   6.908  1.4566  1.9574 -0.1892
  489MOL0     H67436   2.323   6.359   6.716  0.9318 -0.8459  3.5461
  489MOL0     H67437   2.247   6.518   6.702 -1.2484 -1.9393 -0.4181
  489MOL0     H67438   2.450   6.566   6.575  2.0128 -1.3200 -1.2571
  489MOL0     H67439   2.503   6.600   6.736 -2.4822  1.4870  0.9268
  489MOL0     H67440   2.737   6.607   6.641 -0.6784 -0.1134  0.0338
  489MOL0     H67441   3.082   6.608   6.753 -0.2214 -0.3896  1.2198
  489MOL0     H67442   2.994   6.725   6.854  1.2327  0.9298 -1.0643
  489MOL0     H67443   2.946   6.714   6.692 -1.1721  0.8464  0.0752
  489MOL0     H67444   3.298   6.417   6.915 -0.3003  0.4639 -0.5119
  489MOL0     H67445   3.518   6.366   6.982  0.6209  0.0809  1.3966
  489MOL0     H67446   3.533   6.129   7.328 -0.7585  3.0589 -2.3502
  489MOL0     H67447   3.649   6.003   7.264  0.6087  0.0040 -0.0973
  489MOL0     H67448   3.734   6.137   7.434 -0.3905  0.6746  0.1595
  489MOL0     H67449   3.824   6.124   7.278 -1.6474 -0.1763 -1.8846
  489MOL0     H67450   3.822   6.351   7.406 -1.9331  3.8379 -0.5011
  489MOL0     H67451   3.648   6.356   7.384 -1.0222 -0.6895 -1.3793
  489MOL0     H67452   3.704   6.361   7.131  3.9121 -4.0000 -1.6976
  489MOL0     H67453   3.870   6.347   7.174 -1.5264 -1.4645 -0.9112
  489MOL0     H67454   3.871   6.578   7.272  1.0996  0.1847 -1.6575
  489MOL0     H67455   3.804   6.572   7.109 -0.6401  0.9951  0.0775
  489MOL0     H67456   3.690   6.722   7.254  0.2144 -0.4124 -1.5469
  489MOL0     H67457   3.648   6.594   7.365  4.0646 -1.7440  0.1451
  489MOL0     H67458   3.508   6.474   7.207 -1.1102  0.1009 -0.6241
  489MOL0     H67459   3.556   6.585   7.078  0.8737 -0.8158 -0.0913
  489MOL0     H67460   3.326   6.671   7.174  0.5279 -0.3184 -0.6301
  489MOL0     H67461   3.455   6.776   7.227  0.5947  0.0676 -1.3438
  489MOL0     H67462   3.374   5.999   7.173 -1.2226 -0.6004  0.3593
  489MOL0     H67463   3.145   6.073   7.109 -0.4863  1.2429  1.0543
  489MOL0     H67464   2.817   6.233   6.952 -4.9150 -0.1199  1.3245
  489MOL0     H67465   2.631   6.252   6.789 -1.4123  1.2856 -0.4868
  489MOL0     H67466   1.043   7.064   6.564  2.3317  0.5835  4.2043
  489MOL0     H67467   0.879   7.199   6.446  0.7480 -0.7829 -1.7120
  489MOL0     H67468   0.750   7.372   6.135 -0.5026 -0.6699 -1.2958
  489MOL0     H67469   0.573   7.432   5.998 -0.4152  1.1149  1.3586
  489MOL0     H67470   0.362   7.787   5.837 -0.6600  0.9797  0.6844
  489MOL0     H67471   0.497   7.862   5.917  2.1652  0.7490 -1.6819
  489MOL0     H67472   0.469   7.728   5.643 -0.6218 -2.2039  2.6987
  489MOL0     H67473   0.624   7.717   5.716  1.3474  1.5107  1.7561
  489MOL0     H67474   0.500   7.993   5.650  1.6638  0.1038 -0.5122
  489MOL0     H67475   0.645   7.971   5.741  2.0943  0.0604 -1.1713
  489MOL0     H67476   0.730   7.831   5.553  0.0009 -0.0829  1.6003
  489MOL0     H67477   0.715   8.002   5.517 -2.4363  0.8480  0.9933
  489MOL0     H67478   0.433   7.799   5.263 -1.2720 -2.3875  1.3129
  489MOL0     H67479   0.688   7.835   5.998 -0.6041  0.0985 -1.2759
  489MOL0     H67480   0.881   7.924   6.114  0.4608  0.3369  1.5882
  489MOL0     H67481   0.903   7.845   6.274  1.4121  1.0484 -0.2835
  489MOL0     H67482   1.006   7.818   6.138  0.8021  0.8793  1.1118
  490MOL0     O67483   9.490   5.961   2.082 -0.0769 -0.7041 -0.1604
  490MOL0     C67484   9.433   6.002   2.177  0.2685  0.3761 -0.6628
  490MOL0     O67485   9.442   5.958   2.299  0.3177 -0.1672  0.7778
  490MOL0     C67486   9.549   5.873   2.345  0.2041  0.7055 -0.2970
  490MOL0     C67487   9.646   5.799   2.272 -0.2102 -0.5212  0.2500
  490MOL0     C67488   9.748   5.726   2.328 -0.6007 -0.8039  0.5977
  490MOL0     C67489   9.761   5.720   2.463  0.5241  0.5257 -0.3474
  490MOL0     O67490   9.857   5.639   2.518 -0.0063  0.5167 -0.2137
  490MOL0     C67491   9.998   5.644   2.480  0.4554  0.1705 -0.1546
  490MOL0     C67492  10.104   5.569   2.558 -0.0709 -0.9655 -0.2298
  490MOL0     C67493  10.244   5.583   2.504 -0.5040 -0.4013 -0.2021
  490MOL0     C67494  10.355   5.536   2.596  0.4398  0.4372  0.0356
  490MOL0     C67495  10.502   5.576   2.557  0.7601 -0.1072  0.1536
  490MOL0     C67496  10.613   5.541   2.658 -0.6267 -0.0054 -0.6098
  490MOL0     C67497  10.618   5.389   2.687 -0.4723  0.3899 -0.0037
  490MOL0     C67498  10.683   5.360   2.825 -0.8736  0.0679 -0.0945
  490MOL0     N67499  10.812   5.423   2.823  0.5053  0.1247  0.2948
  490MOL0     C67500  10.909   5.365   2.751 -0.7004 -0.3811 -0.2111
  490MOL0     C67501  11.031   5.429   2.783  0.2316 -0.1292 -0.0675
  490MOL0     C67502  11.169   5.413   2.719  0.5244  0.7809  0.0201
  490MOL0     C67503  11.271   5.424   2.835  0.2982  0.5933 -0.5721
  490MOL0     C67504  11.416   5.420   2.789  0.5020  1.0064 -0.6664
  490MOL0     C67505  11.497   5.503   2.885  0.1661 -0.1482 -0.9463
  490MOL0     O67506  11.636   5.459   2.881 -0.1138  1.0326  0.3602
  490MOL0     C67507  11.697   5.424   2.998  0.3614  1.3356  0.6998
  490MOL0     C67508  11.632   5.333   3.091 -0.3907 -0.1238  0.2437
  490MOL0     C67509  11.705   5.294   3.209 -0.3952 -0.7258  1.1186
  490MOL0     C67510  11.633   5.204   3.313 -0.0174  0.4198  0.7195
  490MOL0     C67511  11.840   5.348   3.228 -0.0054 -0.2112  0.4186
  490MOL0     C67512  11.924   5.320   3.348 -0.5164 -0.7011 -0.5998
  490MOL0     O67513  12.013   5.425   3.391 -0.0675 -0.1461 -0.4698
  490MOL0     C67514  12.108   5.382   3.469 -0.5797 -0.6771  0.0654
  490MOL0     C67515  12.231   5.328   3.416  0.5343 -0.1909 -0.0432
  490MOL0     C67516  12.335   5.278   3.506 -0.4943 -0.3590 -0.5350
  490MOL0     C67517  12.308   5.275   3.642 -0.0983  1.1126  0.1393
  490MOL0     O67518  12.409   5.218   3.721 -0.7836 -0.2705  0.7533
  490MOL0     C67519  12.368   5.201   3.862 -0.1691  0.0603  0.4264
  490MOL0     C67520  12.481   5.130   3.938  0.0159 -0.4754  0.2858
  490MOL0     C67521  12.465   5.162   4.083 -0.1834  0.9410 -0.6843
  490MOL0     C67522  12.592   5.136   4.162  0.0093  0.5706 -0.7048
  490MOL0     C67523  12.575   5.158   4.312 -0.3315  0.0171  0.1097
  490MOL0     C67524  12.513   5.032   4.378  1.3297  0.1973  0.3850
  490MOL0     C67525  12.531   5.038   4.528  0.4591  0.0503 -0.4060
  490MOL0     C67526  12.440   4.943   4.611 -0.1328 -0.2971 -1.2237
  490MOL0    Cl67527  12.485   4.954   4.780  0.8852  0.3295  0.5806
  490MOL0     C67528  12.190   5.333   3.701 -0.4698  0.4152 -0.0963
  490MOL0     C67529  12.088   5.380   3.609  0.0462 -0.2402  0.3819
  490MOL0     O67530  11.924   5.207   3.392  0.1143  0.2771  0.3861
  490MOL0     C67531  11.893   5.431   3.130  0.5654 -0.7838  0.3496
  490MOL0     C67532  11.825   5.465   3.012 -0.2341 -0.3547  0.5129
  490MOL0     N67533  10.989   5.527   2.877 -0.1227  0.9482  0.2955
  490MOL0     N67534  10.859   5.518   2.901  0.3332 -0.1111 -0.5179
  490MOL0     C67535   9.663   5.785   2.544 -0.9958 -0.2664 -0.6879
  490MOL0     C67536   9.563   5.862   2.485 -0.0793  0.7221  1.1387
  490MOL0     C67537   9.333   6.108   2.157 -0.2450 -0.0273  0.1096
  490MOL0     C67538   9.349   6.231   2.223 -0.7123 -0.3874 -0.4104
  490MOL0     C67539   9.268   6.341   2.184 -0.1070  0.2892 -0.4950
  490MOL0     C67540   9.177   6.328   2.080 -0.7506 -0.1672  0.1965
  490MOL0     O67541   9.089   6.426   2.039 -0.6169  0.7795  0.0960
  490MOL0     C67542   8.963   6.407   2.108 -0.2903  0.0696 -1.0778
  490MOL0     C67543   8.878   6.528   2.079  0.1096 -0.1055 -0.3439
  490MOL0     C67544   8.762   6.559   2.183 -1.1549  0.3118 -0.6015
  490MOL0     C67545   8.696   6.698   2.168  0.1569 -0.1320  0.7982
  490MOL0     C67546   8.570   6.710   2.233  0.7844  0.7752 -0.3541
  490MOL0     C67547   8.466   6.723   2.301 -1.1163 -0.7375 -0.3327
  490MOL0     C67548   9.160   6.203   2.010 -0.0009 -0.7428 -0.0126
  490MOL0     C67549   9.230   6.093   2.054 -0.8745 -0.0828  0.0970
  490MOL0     C67550   9.207   5.963   1.986  0.0631 -0.1699  0.2430
  490MOL0     H67551   9.651   5.802   2.164 -0.7506  0.8626  0.2442
  490MOL0     H67552   9.811   5.670   2.260 -0.7783 -0.9760  0.5728
  490MOL0     H67553  10.034   5.748   2.481  1.3191 -0.0034  3.9110
  490MOL0     H67554  10.000   5.598   2.381  1.1944 -2.1455  0.8689
  490MOL0     H67555  10.100   5.616   2.657  1.5692 -2.0514  0.3975
  490MOL0     H67556  10.081   5.463   2.574  2.3067 -1.2622  1.9100
  490MOL0     H67557  10.250   5.522   2.413 -1.9995 -0.7248 -0.1131
  490MOL0     H67558  10.266   5.688   2.483 -1.6920 -0.3075 -1.0683
  490MOL0     H67559  10.342   5.583   2.694 -2.7397  0.8038 -0.4619
  490MOL0     H67560  10.341   5.428   2.606  1.7000  0.1246 -1.1708
  490MOL0     H67561  10.502   5.685   2.542 -0.9191 -0.0203  0.5745
  490MOL0     H67562  10.519   5.529   2.460  0.8243  3.3591 -1.7017
  490MOL0     H67563  10.706   5.591   2.628  0.6622 -0.9190  1.6077
  490MOL0     H67564  10.584   5.598   2.747 -2.1366  0.1091 -1.1452
  490MOL0     H67565  10.667   5.346   2.599  0.2238 -0.2292  0.6816
  490MOL0     H67566  10.519   5.343   2.698 -0.2631  0.3924  2.3692
  490MOL0     H67567  10.622   5.399   2.907 -0.6911 -1.7768  0.9926
  490MOL0     H67568  10.706   5.254   2.840  1.6108  0.3095 -1.6947
  490MOL0     H67569  10.906   5.277   2.687  3.0801 -1.9039  1.3731
  490MOL0     H67570  11.182   5.493   2.645 -0.6903  2.5373  1.6074
  490MOL0     H67571  11.172   5.315   2.669 -0.8891  0.2614  0.8866
  490MOL0     H67572  11.255   5.520   2.883 -0.9806 -0.7644  1.9262
  490MOL0     H67573  11.257   5.357   2.920  1.3708  1.3019  0.1875
  490MOL0     H67574  11.453   5.317   2.792 -0.3954  0.6752  1.3596
  490MOL0     H67575  11.430   5.465   2.690  1.2729  3.0437  0.3126
  490MOL0     H67576  11.496   5.611   2.866 -0.8279  1.3108  5.1506
  490MOL0     H67577  11.453   5.486   2.983 -1.9541 -3.1982 -2.2661
  490MOL0     H67578  11.527   5.305   3.087  0.2052 -2.4723 -1.5465
  490MOL0     H67579  11.657   5.252   3.408 -1.8624 -0.6443  1.7738
  490MOL0     H67580  11.671   5.102   3.320  0.4421  0.4366 -0.9820
  490MOL0     H67581  11.525   5.195   3.301  0.2960 -1.9648 -1.0567
  490MOL0     H67582  12.238   5.312   3.309 -0.3670  0.5445 -0.2226
  490MOL0     H67583  12.417   5.226   3.458 -3.5803 -2.7001 -3.8160
  490MOL0     H67584  12.345   5.298   3.908  1.2874 -0.8942  3.4565
  490MOL0     H67585  12.278   5.138   3.866  0.6188 -1.1761 -0.6595
  490MOL0     H67586  12.474   5.022   3.923 -1.7200 -0.4732  0.8689
  490MOL0     H67587  12.577   5.167   3.901 -0.0466  0.2729  0.8291
  490MOL0     H67588  12.387   5.099   4.127  3.1848 -1.4878  2.3977
  490MOL0     H67589  12.438   5.266   4.103  0.2065  0.9555 -0.2194
  490MOL0     H67590  12.662   5.212   4.126 -0.2443  1.7919  1.2131
  490MOL0     H67591  12.631   5.035   4.142 -0.1747  0.3606 -0.0392
  490MOL0     H67592  12.670   5.174   4.365 -1.5305 -0.5556  2.5876
  490MOL0     H67593  12.509   5.245   4.323 -0.5165 -0.1837  0.6219
  490MOL0     H67594  12.569   4.944   4.344 -0.8619 -0.4969 -1.8379
  490MOL0     H67595  12.407   5.031   4.349  1.0757  0.5357  1.2710
  490MOL0     H67596  12.521   5.136   4.576 -0.1005 -0.3324  0.2926
  490MOL0     H67597  12.635   5.015   4.551  1.1716  0.6481 -2.7595
  490MOL0     H67598  12.456   4.842   4.573 -0.8840  0.1448 -2.7720
  490MOL0     H67599  12.337   4.970   4.587  0.5620  0.0601 -4.1176
  490MOL0     H67600  12.172   5.337   3.808  2.9550 -0.2143  0.6136
  490MOL0     H67601  12.004   5.434   3.651 -0.6867 -0.2715 -0.9804
  490MOL0     H67602  11.992   5.467   3.157  0.3580 -0.9627  1.4115
  490MOL0     H67603  11.873   5.523   2.934 -0.3867  0.2118  0.8358
  490MOL0     H67604   9.676   5.773   2.651 -2.7563 -1.0106 -0.5129
  490MOL0     H67605   9.490   5.915   2.544 -3.7719 -1.7078 -0.8686
  490MOL0     H67606   9.428   6.239   2.297 -0.7852  0.1900 -0.3932
  490MOL0     H67607   9.280   6.436   2.236  0.3267 -0.1634  0.2494
  490MOL0     H67608   8.909   6.317   2.078 -1.4054  0.5566 -0.5837
  490MOL0     H67609   8.983   6.417   2.215 -2.9246  3.2815 -0.7382
  490MOL0     H67610   8.835   6.509   1.980  1.2495  1.9781 -1.2945
  490MOL0     H67611   8.938   6.619   2.077 -1.7361  1.1448 -0.9054
  490MOL0     H67612   8.685   6.481   2.179  0.4478 -1.2909 -2.5063
  490MOL0     H67613   8.805   6.566   2.283 -0.6659  4.3689 -0.9039
  490MOL0     H67614   8.680   6.723   2.063  4.1086  2.0684  0.5192
  490MOL0     H67615   8.764   6.775   2.205  0.5946  0.4718 -1.1355
  490MOL0     H67616   8.370   6.733   2.348 -0.7254  0.2627  0.2787
  490MOL0     H67617   9.091   6.186   1.928  0.5457 -4.9082  0.1708
  490MOL0     H67618   9.224   5.889   2.065  0.7627  0.7508  0.9814
  490MOL0     H67619   9.102   5.959   1.955 -0.4122  4.1608  0.5718
  490MOL0     H67620   9.279   5.959   1.905  1.3524  3.4806  0.9983
  491MOL0     O67621  11.089   6.868   3.978  0.1534  0.2780  0.0266
  491MOL0     C67622  10.985   6.917   3.936  0.9942  0.6419  0.7607
  491MOL0     O67623  10.975   6.977   3.816 -0.3535  0.1321  0.3088
  491MOL0     C67624  11.094   7.007   3.747  0.4644 -0.3699 -0.3233
  491MOL0     C67625  11.218   6.941   3.746 -0.8909 -0.4358  0.3520
  491MOL0     C67626  11.316   6.994   3.673  0.7411  2.1139 -0.5090
  491MOL0     C67627  11.297   7.092   3.584 -0.1313 -0.9311 -0.1664
  491MOL0     O67628  11.382   7.126   3.478  0.7877 -0.4136 -0.8034
  491MOL0     C67629  11.510   7.080   3.476 -0.1690  0.1074  0.0968
  491MOL0     C67630  11.579   7.110   3.344 -0.0068 -0.9116  0.2885
  491MOL0     C67631  11.727   7.078   3.347 -0.4912  0.3620 -0.2829
  491MOL0     C67632  11.785   6.962   3.439  0.3957 -0.5153  0.1490
  491MOL0     C67633  11.940   6.974   3.441 -1.1209  0.8706 -0.1556
  491MOL0     C67634  12.014   6.850   3.494 -0.0048  0.1611 -0.7025
  491MOL0     C67635  11.987   6.727   3.411 -0.0762  0.3278  0.3368
  491MOL0     C67636  12.097   6.617   3.443 -0.2356  0.4194  0.6235
  491MOL0     N67637  12.098   6.502   3.356 -0.4923 -0.3342  0.4491
  491MOL0     C67638  11.983   6.444   3.304 -0.4340 -0.2949  0.1974
  491MOL0     C67639  12.019   6.335   3.236  0.1222 -0.6071  0.4570
  491MOL0     C67640  11.927   6.239   3.170  0.1004 -0.1875  0.3379
  491MOL0     C67641  11.784   6.295   3.138 -0.6648  0.0002 -0.3453
  491MOL0     C67642  11.718   6.216   3.028  0.1930  0.6222 -0.1532
  491MOL0     C67643  11.563   6.226   3.012  0.3157  0.7916 -0.7243
  491MOL0     O67644  11.483   6.151   3.106 -0.0503  0.1286 -0.2946
  491MOL0     C67645  11.347   6.160   3.101 -0.2078 -0.8436  0.3788
  491MOL0     C67646  11.264   6.085   3.189 -0.4633  0.0629 -0.8849
  491MOL0     C67647  11.123   6.086   3.186 -0.2525  0.1756 -0.5400
  491MOL0     C67648  11.046   6.009   3.289  0.1502 -0.0694  0.3675
  491MOL0     C67649  11.061   6.173   3.096  0.3625  0.2299  0.1184
  491MOL0     C67650  10.911   6.210   3.101  0.6868 -0.2777  0.7174
  491MOL0     O67651  10.831   6.162   3.196 -0.0362 -0.3540  0.3030
  491MOL0     C67652  10.692   6.170   3.186  0.3284 -0.8464 -0.3041
  491MOL0     C67653  10.620   6.158   3.311  0.0715 -0.7857 -0.4657
  491MOL0     C67654  10.487   6.162   3.326 -0.2231  0.2678  0.0070
  491MOL0     C67655  10.406   6.199   3.215  0.2703  1.0278 -0.0205
  491MOL0     O67656  10.266   6.207   3.216 -0.1411  0.5000 -0.0807
  491MOL0     C67657  10.197   6.129   3.315  0.5713  0.9439 -0.2125
  491MOL0     C67658  10.050   6.114   3.280  0.4811  0.0708  0.3310
  491MOL0     C67659   9.992   6.009   3.377  0.4708  0.0016 -0.0958
  491MOL0     C67660   9.837   6.012   3.365  0.3260  0.0526  0.1307
  491MOL0     C67661   9.785   5.867   3.365 -0.4687  0.1318  0.2650
  491MOL0     C67662   9.637   5.868   3.404 -0.5487 -0.6765 -0.0123
  491MOL0     C67663   9.584   5.723   3.407 -0.0205 -0.0340 -0.4202
  491MOL0     C67664   9.425   5.726   3.411 -0.0280 -0.0800 -0.7914
  491MOL0    Cl67665   9.371   5.791   3.569 -0.3394 -0.3064  0.0432
  491MOL0     C67666  10.468   6.221   3.092 -0.2470  0.5738  0.5909
  491MOL0     C67667  10.608   6.196   3.075 -0.8485  0.1213 -0.3548
  491MOL0     O67668  10.874   6.276   3.002  0.0672 -0.1963 -0.3276
  491MOL0     C67669  11.138   6.247   3.002 -0.3951 -0.1842  0.1173
  491MOL0     C67670  11.279   6.244   3.007 -0.1599  0.1147  0.0248
  491MOL0     N67671  12.156   6.321   3.263  0.3620  0.2959 -0.6413
  491MOL0     N67672  12.206   6.420   3.335 -0.4399 -0.4912 -0.5860
  491MOL0     C67673  11.176   7.161   3.585 -0.0055 -0.7108 -0.2763
  491MOL0     C67674  11.075   7.123   3.663 -0.1858  0.9333 -0.1669
  491MOL0     C67675  10.852   6.880   3.994  1.5945  0.8596  0.2137
  491MOL0     C67676  10.737   6.879   3.912 -0.3882 -0.2379  0.1346
  491MOL0     C67677  10.613   6.843   3.959 -0.1184  0.0317  0.1702
  491MOL0     C67678  10.606   6.796   4.090  1.9881 -0.4510  0.1734
  491MOL0     O67679  10.492   6.731   4.136 -0.3914  0.0213  0.3441
  491MOL0     C67680  10.368   6.726   4.064  0.5836  0.3428  0.5671
  491MOL0     C67681  10.259   6.648   4.136 -0.2093 -0.0487  0.7909
  491MOL0     C67682  10.242   6.677   4.286 -0.0096 -0.1943 -1.2070
  491MOL0     C67683  10.260   6.548   4.365 -0.0572 -0.1494 -0.0101
  491MOL0     C67684  10.236   6.568   4.513 -0.3245 -0.5345 -0.4949
  491MOL0     C67685  10.199   6.608   4.621  0.7952  0.7676 -0.3917
  491MOL0     C67686  10.714   6.801   4.167 -0.2945  0.3959 -0.6481
  491MOL0     C67687  10.833   6.843   4.127 -0.0822 -0.1770 -0.5680
  491MOL0     C67688  10.954   6.832   4.215  0.2763  0.2583 -0.3847
  491MOL0     H67689  11.236   6.851   3.804 -1.9463 -0.4072  0.7523
  491MOL0     H67690  11.409   6.939   3.663 -0.5475 -0.3174  0.1699
  491MOL0     H67691  11.504   6.970   3.479 -0.6419  0.0899 -1.0675
  491MOL0     H67692  11.569   7.116   3.560 -3.5685  0.6496  2.4317
  491MOL0     H67693  11.534   7.048   3.266  1.4846 -1.5981 -0.0513
  491MOL0     H67694  11.566   7.217   3.324  1.5017 -0.9952 -1.4599
  491MOL0     H67695  11.757   7.051   3.245  0.9133  3.0114 -0.6513
  491MOL0     H67696  11.776   7.174   3.363 -3.2060  2.2028 -2.0951
  491MOL0     H67697  11.759   6.969   3.545 -0.0274  1.0226 -0.0257
  491MOL0     H67698  11.743   6.872   3.393 -4.8200  0.7350  1.7770
  491MOL0     H67699  11.966   7.065   3.495  2.0162  0.3404 -0.5929
  491MOL0     H67700  11.963   6.988   3.335  1.3845  2.8579  0.5737
  491MOL0     H67701  12.120   6.864   3.470 -0.0146 -0.8236 -1.3756
  491MOL0     H67702  11.992   6.819   3.597 -2.8914 -0.1481 -1.3535
  491MOL0     H67703  11.998   6.727   3.302  2.2934  0.4115  0.5262
  491MOL0     H67704  11.887   6.690   3.436  1.9524 -6.0942  0.8114
  491MOL0     H67705  12.193   6.669   3.443 -0.9314  1.7508 -0.1720
  491MOL0     H67706  12.088   6.582   3.546  1.9186 -1.3726  0.2614
  491MOL0     H67707  11.883   6.484   3.305  0.0290  0.9466  1.8253
  491MOL0     H67708  11.911   6.152   3.234  0.5441  0.2305  1.0346
  491MOL0     H67709  11.975   6.205   3.078 -2.5305  0.9933 -1.5792
  491MOL0     H67710  11.730   6.291   3.232 -0.2706 -1.3938 -0.1617
  491MOL0     H67711  11.805   6.396   3.102  2.9257  0.5957  2.8208
  491MOL0     H67712  11.763   6.245   2.932  3.8028  0.8452  1.4179
  491MOL0     H67713  11.746   6.112   3.047 -1.2221  0.0832 -0.8829
  491MOL0     H67714  11.539   6.332   3.024 -0.6671  0.5391 -0.3315
  491MOL0     H67715  11.550   6.175   2.916  2.0730 -0.2904 -0.4312
  491MOL0     H67716  11.323   6.036   3.266 -0.3377  4.9663  2.6209
  491MOL0     H67717  11.105   5.954   3.362  0.1220  1.6722  1.7583
  491MOL0     H67718  10.978   5.949   3.228 -0.8260 -0.9191  2.2381
  491MOL0     H67719  10.989   6.078   3.352  1.0671  0.3774  0.7265
  491MOL0     H67720  10.682   6.140   3.398  1.7632 -0.2034 -1.4964
  491MOL0     H67721  10.445   6.135   3.423 -0.3758  0.7014  0.0629
  491MOL0     H67722  10.243   6.030   3.310 -2.0282 -0.3108 -2.1351
  491MOL0     H67723  10.209   6.182   3.410  0.6156  1.4095 -0.4779
  491MOL0     H67724   9.990   6.204   3.264 -1.2273 -1.1646 -0.4050
  491MOL0     H67725  10.050   6.064   3.183  1.3211 -2.0427  1.3494
  491MOL0     H67726  10.020   6.035   3.479 -1.3904  3.5380 -0.3356
  491MOL0     H67727  10.043   5.916   3.349 -0.9448 -0.2445 -2.0814
  491MOL0     H67728   9.818   6.066   3.272 -1.4745  1.1176  1.0508
  491MOL0     H67729   9.798   6.076   3.445  3.2244 -0.1702  1.8391
  491MOL0     H67730   9.795   5.817   3.268 -0.2995 -2.7285  1.6484
  491MOL0     H67731   9.840   5.796   3.428 -0.8162 -1.2287 -0.8999
  491MOL0     H67732   9.584   5.926   3.328  1.8948  0.2049 -1.1659
  491MOL0     H67733   9.623   5.920   3.499 -0.3085 -1.7526  0.6229
  491MOL0     H67734   9.630   5.669   3.491  0.6883 -3.6751 -2.8867
  491MOL0     H67735   9.614   5.673   3.314  2.3300  0.5855 -0.0571
  491MOL0     H67736   9.383   5.625   3.400  1.2140 -0.9341  1.4839
  491MOL0     H67737   9.389   5.798   3.337  2.0369 -0.7222 -2.5232
  491MOL0     H67738  10.412   6.259   3.007  0.6552 -1.3696 -0.9831
  491MOL0     H67739  10.660   6.217   2.982  0.2102  1.0383  0.4108
  491MOL0     H67740  11.082   6.314   2.938 -2.8686 -1.6690  0.5984
  491MOL0     H67741  11.330   6.306   2.934 -0.4058 -0.4951 -0.6794
  491MOL0     H67742  11.162   7.247   3.521  1.0916  0.4264  0.9462
  491MOL0     H67743  10.981   7.176   3.668 -0.1398  1.6472 -3.9560
  491MOL0     H67744  10.753   6.894   3.805  0.3876  1.2520  0.4376
  491MOL0     H67745  10.533   6.831   3.887 -0.6915  0.2570  0.7691
  491MOL0     H67746  10.321   6.824   4.063 -0.2104  0.0144  2.1866
  491MOL0     H67747  10.389   6.680   3.966 -1.4401 -2.0922  1.1741
  491MOL0     H67748  10.270   6.540   4.119  0.8710  0.1322  0.2691
  491MOL0     H67749  10.164   6.668   4.087 -0.2300 -0.9769  0.4185
  491MOL0     H67750  10.310   6.759   4.312 -0.8577  0.2587 -0.3444
  491MOL0     H67751  10.142   6.715   4.309  1.2244  1.6787  1.7741
  491MOL0     H67752  10.365   6.517   4.356  0.2242  1.0875 -1.2059
  491MOL0     H67753  10.198   6.464   4.332  3.0782 -1.7069 -2.4151
  491MOL0     H67754  10.181   6.640   4.721 -2.2854 -1.6648 -0.0190
  491MOL0     H67755  10.704   6.760   4.267 -3.5144 -0.5845 -1.2640
  491MOL0     H67756  11.013   6.743   4.190  1.0455  0.5368  0.3675
  491MOL0     H67757  11.023   6.915   4.198  0.9493 -0.5993 -2.0735
  491MOL0     H67758  10.930   6.814   4.321  3.3799 -0.5057  0.2720
  492MOL0     O67759   5.924  10.544   8.593  0.1636  0.4093  0.2812
  492MOL0     C67760   5.940  10.571   8.471  0.5155 -0.4604  0.1964
  492MOL0     O67761   5.842  10.596   8.387 -0.2414 -0.5589 -0.2416
  492MOL0     C67762   5.725  10.633   8.442 -0.8622 -1.1505  0.2737
  492MOL0     C67763   5.614  10.564   8.388 -0.1149  0.0665 -0.0032
  492MOL0     C67764   5.483  10.588   8.433  0.6334 -0.3655 -1.0557
  492MOL0     C67765   5.469  10.692   8.529 -0.5882 -0.1723  0.8215
  492MOL0     O67766   5.340  10.711   8.570  0.0396 -0.2629 -0.0509
  492MOL0     C67767   5.322  10.764   8.694 -0.7187 -0.3598  0.4406
  492MOL0     C67768   5.176  10.764   8.723 -0.8674  0.1956 -0.7964
  492MOL0     C67769   5.086  10.833   8.618  0.4065  0.5154  0.3959
  492MOL0     C67770   4.949  10.865   8.682  0.3161 -0.1219 -0.4425
  492MOL0     C67771   4.844  10.880   8.579 -0.1883 -0.1747 -0.1499
  492MOL0     C67772   4.708  10.927   8.633 -0.1211  0.1553 -0.2212
  492MOL0     C67773   4.600  10.902   8.534  0.1624  0.3075  0.4363
  492MOL0     C67774   4.463  10.880   8.612  0.0133 -0.4199  0.1480
  492MOL0     N67775   4.341  10.916   8.545  0.3869  0.4098 -0.2028
  492MOL0     C67776   4.325  10.916   8.409  0.2714  0.9302  0.3403
  492MOL0     C67777   4.198  10.974   8.384 -0.8462 -0.9043 -0.7708
  492MOL0     C67778   4.135  10.987   8.249  0.2628 -0.5279  0.8457
  492MOL0     C67779   4.027  10.878   8.239 -0.4268 -0.5910  0.1568
  492MOL0     C67780   3.978  10.859   8.097 -0.4019 -0.2068  1.2509
  492MOL0     C67781   4.060  10.750   8.024 -0.5412  0.2517 -0.4334
  492MOL0     O67782   4.191  10.798   7.990 -0.4549 -0.5085  0.4037
  492MOL0     C67783   4.293  10.717   7.983 -0.1377 -0.1458 -0.7945
  492MOL0     C67784   4.297  10.581   7.973  0.3315 -0.5284 -0.3179
  492MOL0     C67785   4.412  10.509   8.000  0.0341 -0.4768  0.2119
  492MOL0     C67786   4.392  10.361   8.019  0.2228 -0.5344  0.3772
  492MOL0     C67787   4.531  10.577   8.031  0.2194 -0.6602 -0.5694
  492MOL0     C67788   4.656  10.504   8.066  0.8960 -0.1243 -0.7785
  492MOL0     O67789   4.771  10.578   8.062  0.1380 -0.1055  0.0217
  492MOL0     C67790   4.897  10.525   8.091 -0.6007 -1.1422  1.5098
  492MOL0     C67791   4.979  10.579   8.190  0.6800 -0.2545  0.0425
  492MOL0     C67792   5.105  10.526   8.218 -0.0923 -0.0205  0.2912
  492MOL0     C67793   5.165  10.438   8.134  0.4278 -0.0175 -0.0443
  492MOL0     O67794   5.287  10.387   8.156 -0.2716  0.0018  0.0301
  492MOL0     C67795   5.298  10.277   8.255 -0.4727 -0.1161  0.1791
  492MOL0     C67796   5.290  10.136   8.187 -0.1128  0.1421  0.7195
  492MOL0     C67797   5.431  10.095   8.139 -0.3287  0.2332 -0.2566
  492MOL0     C67798   5.442   9.940   8.104 -0.3423 -0.1912 -0.2693
  492MOL0     C67799   5.576   9.903   8.049 -0.3956  0.1676 -0.1195
  492MOL0     C67800   5.668   9.847   8.154 -0.0977  0.2870  0.3977
  492MOL0     C67801   5.620   9.714   8.215  0.0026  0.4804  0.0543
  492MOL0     C67802   5.733   9.652   8.284 -0.8682 -0.1633 -0.1936
  492MOL0    Cl67803   5.675   9.480   8.309  0.3697  0.3540 -0.1890
  492MOL0     C67804   5.095  10.407   8.022 -0.2160  0.1171  0.5462
  492MOL0     C67805   4.958  10.438   8.003 -0.0201 -0.0821 -0.7409
  492MOL0     O67806   4.653  10.383   8.089  0.4222  0.4959 -0.0597
  492MOL0     C67807   4.526  10.723   8.036  0.0134  0.8156 -0.0609
  492MOL0     C67808   4.410  10.791   8.008 -0.2616 -0.0290 -0.7087
  492MOL0     N67809   4.150  11.006   8.512  0.1381 -0.5132  0.5535
  492MOL0     N67810   4.230  10.966   8.603  0.0262  0.0239  0.1254
  492MOL0     C67811   5.585  10.764   8.581 -0.0170 -0.7113  0.4987
  492MOL0     C67812   5.704  10.733   8.532 -0.2169 -0.6988  0.7140
  492MOL0     C67813   6.078  10.586   8.420 -0.3167  0.1883 -0.0067
  492MOL0     C67814   6.100  10.554   8.284  0.9499  0.7797 -0.1315
  492MOL0     C67815   6.229  10.550   8.226  0.1560 -0.2970  0.3587
  492MOL0     C67816   6.341  10.597   8.296  0.1051  0.4238 -0.5053
  492MOL0     O67817   6.470  10.603   8.246 -0.7865 -0.4239 -0.1361
  492MOL0     C67818   6.479  10.630   8.103  0.6940  0.2289 -0.6740
  492MOL0     C67819   6.617  10.620   8.062 -0.4022 -0.9030  0.5989
  492MOL0     C67820   6.707  10.737   8.113  0.3076 -0.0316 -0.2064
  492MOL0     C67821   6.855  10.711   8.062  0.1810 -0.5944  0.0501
  492MOL0     C67822   6.942  10.811   8.126 -0.4656 -0.3191 -0.0066
  492MOL0     C67823   7.007  10.895   8.193  0.2131 -0.3886  0.1507
  492MOL0     C67824   6.320  10.640   8.428 -0.4903  0.3255  0.7886
  492MOL0     C67825   6.194  10.627   8.492  0.1616 -0.1660  0.3476
  492MOL0     C67826   6.177  10.684   8.634  0.1528 -0.1202  0.4560
  492MOL0     H67827   5.638  10.488   8.315 -1.0792 -0.2532  0.0022
  492MOL0     H67828   5.403  10.532   8.387  0.8028 -0.6377 -1.0217
  492MOL0     H67829   5.354  10.868   8.687 -0.3991 -0.4323  0.7987
  492MOL0     H67830   5.376  10.719   8.778 -0.6694 -0.6098  0.2776
  492MOL0     H67831   5.148  10.659   8.738 -1.3717 -0.0719 -3.2723
  492MOL0     H67832   5.157  10.808   8.822  2.6945  1.9933 -0.7317
  492MOL0     H67833   5.121  10.932   8.586 -1.8109  1.0678 -0.4790
  492MOL0     H67834   5.078  10.766   8.532 -2.5287  0.6736  0.4637
  492MOL0     H67835   4.914  10.777   8.737  0.6077 -0.8565 -1.3896
  492MOL0     H67836   4.957  10.956   8.742  1.2641 -0.9126  0.6744
  492MOL0     H67837   4.835  10.784   8.527  0.0215  0.3743 -1.2244
  492MOL0     H67838   4.875  10.955   8.507 -1.3405  0.7545  0.2885
  492MOL0     H67839   4.682  10.874   8.725  4.4118  1.0642  1.8690
  492MOL0     H67840   4.705  11.032   8.665 -3.7222  0.1442 -0.1026
  492MOL0     H67841   4.625  10.807   8.485  0.8696 -0.2886  1.9132
  492MOL0     H67842   4.593  10.980   8.457 -0.3718  1.4639  1.6193
  492MOL0     H67843   4.461  10.779   8.654  0.0672  0.4939  2.4829
  492MOL0     H67844   4.454  10.940   8.703 -0.9540 -3.0070  1.8963
  492MOL0     H67845   4.395  10.885   8.331 -0.3456  0.6307 -0.1007
  492MOL0     H67846   4.197  10.978   8.159 -2.1031 -1.4555 -0.7930
  492MOL0     H67847   4.076  11.079   8.245 -1.8858 -1.8666 -0.0462
  492MOL0     H67848   4.066  10.782   8.274 -0.4525 -0.0966  1.6032
  492MOL0     H67849   3.951  10.903   8.314  1.3006  1.4037  1.3394
  492MOL0     H67850   3.875  10.823   8.094  0.2229 -2.0762 -0.9156
  492MOL0     H67851   3.988  10.954   8.044 -1.8428 -0.6794  0.0704
  492MOL0     H67852   4.065  10.665   8.092  0.1632  1.3529  0.9336
  492MOL0     H67853   3.993  10.703   7.952 -0.6428  0.8439 -0.7372
  492MOL0     H67854   4.209  10.532   7.935 -1.5802 -0.0398  3.0808
  492MOL0     H67855   4.446  10.307   7.941 -1.2815 -0.8849 -0.4665
  492MOL0     H67856   4.286  10.339   8.000 -0.0509  1.0010  0.0050
  492MOL0     H67857   4.415  10.320   8.118  0.2562 -0.3023  0.4680
  492MOL0     H67858   4.928  10.656   8.248  1.9332 -0.1835  1.0696
  492MOL0     H67859   5.148  10.546   8.316 -2.9080 -1.5938  1.9900
  492MOL0     H67860   5.390  10.267   8.312 -0.2058  0.2126 -0.1872
  492MOL0     H67861   5.209  10.285   8.317  1.6054  2.2326  3.1532
  492MOL0     H67862   5.250  10.066   8.261 -1.1154  0.0758  0.1389
  492MOL0     H67863   5.221  10.137   8.102 -1.5178 -3.2872  1.6544
  492MOL0     H67864   5.501  10.113   8.221 -2.4420 -1.7047  2.1350
  492MOL0     H67865   5.454  10.157   8.052  1.3188  2.0902  1.4233
  492MOL0     H67866   5.373   9.918   8.022  2.4748  0.0533 -2.8432
  492MOL0     H67867   5.418   9.882   8.194  1.2540  1.9764  1.6459
  492MOL0     H67868   5.555   9.822   7.979 -0.6369 -0.7184  0.9517
  492MOL0     H67869   5.623   9.986   7.995 -1.3863 -2.1134 -5.0566
  492MOL0     H67870   5.697   9.908   8.240  3.1880 -2.4962  1.4940
  492MOL0     H67871   5.766   9.836   8.107 -0.0189 -0.5034  0.7353
  492MOL0     H67872   5.577   9.645   8.142  3.2918 -0.7622 -0.8698
  492MOL0     H67873   5.549   9.734   8.296 -0.4376 -0.3740 -0.1086
  492MOL0     H67874   5.746   9.707   8.378  0.0617  3.3195 -2.1854
  492MOL0     H67875   5.829   9.649   8.232 -1.2310  1.6110 -1.0375
  492MOL0     H67876   5.150  10.344   7.953 -1.4997  1.3592 -1.6994
  492MOL0     H67877   4.905  10.389   7.922  0.6520 -0.7132 -0.8014
  492MOL0     H67878   4.617  10.777   8.062  2.1656 -1.3138 -2.6306
  492MOL0     H67879   4.406  10.898   8.023 -1.3859 -0.4361  2.6114
  492MOL0     H67880   5.581  10.836   8.662  0.0608 -1.0657  0.8243
  492MOL0     H67881   5.792  10.769   8.586  1.1548 -3.1801  0.2933
  492MOL0     H67882   6.009  10.519   8.235  0.3128 -1.4840  2.4138
  492MOL0     H67883   6.244  10.506   8.128 -2.6645 -1.6878  0.4277
  492MOL0     H67884   6.421  10.566   8.035 -3.9130  0.9943  2.0882
  492MOL0     H67885   6.428  10.725   8.085 -0.1698 -0.1174 -0.1655
  492MOL0     H67886   6.626  10.634   7.954 -0.1169 -1.6461  0.5180
  492MOL0     H67887   6.662  10.522   8.078  1.7811 -0.1910 -0.7624
  492MOL0     H67888   6.657  10.831   8.085 -0.5886  0.0792  1.6326
  492MOL0     H67889   6.691  10.737   8.221 -2.8113  0.4403 -0.5829
  492MOL0     H67890   6.868  10.732   7.955  3.6294  0.9312  0.6385
  492MOL0     H67891   6.893  10.610   8.082 -0.1343 -1.0356 -1.4652
  492MOL0     H67892   7.075  10.961   8.243  0.6925 -0.7386 -0.0316
  492MOL0     H67893   6.412  10.667   8.477  1.1609 -1.4819 -1.0924
  492MOL0     H67894   6.107  10.768   8.645 -0.3370 -0.6684  1.7403
  492MOL0     H67895   6.147  10.601   8.698  0.9487 -0.3043  0.5945
  492MOL0     H67896   6.274  10.724   8.664 -0.1058  1.8351 -1.0948
  493MOL0     O67897  10.645   8.378   1.938 -0.1362  0.6620  0.0115
  493MOL0     C67898  10.593   8.444   2.027 -0.9737 -0.2276 -0.7633
  493MOL0     O67899  10.664   8.483   2.138 -0.8352  0.0914 -0.2218
  493MOL0     C67900  10.768   8.396   2.174  0.2548 -0.6801 -0.3455
  493MOL0     C67901  10.904   8.403   2.121  0.0186 -0.0900 -0.0740
  493MOL0     C67902  11.007   8.321   2.174  0.3839 -0.0312  0.1482
  493MOL0     C67903  10.977   8.227   2.267 -0.3067  0.0842  0.1100
  493MOL0     O67904  11.070   8.137   2.309  0.3572  0.8613 -0.4364
  493MOL0     C67905  11.029   8.022   2.381 -0.3206  0.2649 -0.1223
  493MOL0     C67906  11.149   7.924   2.392  0.9911 -0.3462  0.4666
  493MOL0     C67907  11.223   7.914   2.258 -0.1322 -0.0468 -0.6489
  493MOL0     C67908  11.333   7.807   2.262  0.2960 -0.1207  0.0978
  493MOL0     C67909  11.417   7.803   2.134 -0.5177  0.2568 -0.0191
  493MOL0     C67910  11.524   7.916   2.143  0.4947 -0.7357 -0.4102
  493MOL0     C67911  11.643   7.899   2.054 -0.3919  0.2297  0.3268
  493MOL0     C67912  11.751   8.013   2.062  0.2329 -0.0044 -0.8209
  493MOL0     N67913  11.856   7.977   2.159  0.3591 -0.4120  0.3798
  493MOL0     C67914  11.960   7.893   2.133  0.5499 -0.5624 -0.0307
  493MOL0     C67915  12.036   7.900   2.243 -0.2631 -0.8627  0.2776
  493MOL0     C67916  12.165   7.833   2.280 -0.5245  0.6607  0.2954
  493MOL0     C67917  12.248   7.799   2.157 -0.4708  0.5283 -0.1477
  493MOL0     C67918  12.280   7.917   2.062  0.7792  0.3742  0.4878
  493MOL0     C67919  12.348   8.032   2.132 -0.2791  0.1865  0.4620
  493MOL0     O67920  12.484   7.991   2.163  0.2515 -0.3165 -0.0660
  493MOL0     C67921  12.575   8.089   2.207 -0.4789  0.3653 -0.3537
  493MOL0     C67922  12.700   8.028   2.230  1.0511 -0.2556  0.1737
  493MOL0     C67923  12.815   8.104   2.267  0.4076 -0.1019  0.2442
  493MOL0     C67924  12.941   8.022   2.273  0.0315 -0.1545 -0.0647
  493MOL0     C67925  12.799   8.249   2.295 -0.9256  0.5244  0.6646
  493MOL0     C67926  12.924   8.336   2.332 -0.5545 -0.5544 -0.3255
  493MOL0     O67927  13.032   8.268   2.370 -0.5016  0.2209  0.1953
  493MOL0     C67928  13.152   8.328   2.404 -0.3550  0.1326  0.7920
  493MOL0     C67929  13.260   8.238   2.391  0.3141 -0.7178 -0.5310
  493MOL0     C67930  13.395   8.281   2.410  0.2623  0.2032  1.0191
  493MOL0     C67931  13.413   8.414   2.456  0.7569 -0.0523 -0.5455
  493MOL0     O67932  13.545   8.455   2.480 -0.0260 -0.4432 -0.2656
  493MOL0     C67933  13.564   8.595   2.476  0.3697  0.1178  0.0750
  493MOL0     C67934  13.710   8.615   2.429 -0.1480 -0.1781  0.7369
  493MOL0     C67935  13.783   8.735   2.495 -0.1847 -0.1271  0.4944
  493MOL0     C67936  13.926   8.761   2.441 -1.3652 -1.1075  0.3010
  493MOL0     C67937  14.003   8.872   2.523 -0.0731 -0.1848 -0.5975
  493MOL0     C67938  14.147   8.892   2.486 -0.6617 -0.1923 -0.6459
  493MOL0     C67939  14.226   8.983   2.578 -0.0173 -0.3518 -0.6199
  493MOL0     C67940  14.217   8.951   2.733 -0.5532  0.0969  0.1887
  493MOL0    Cl67941  14.257   8.791   2.766  0.4726  0.2453  0.0589
  493MOL0     C67942  13.308   8.499   2.480  0.6749  0.4336  0.6861
  493MOL0     C67943  13.174   8.453   2.457 -0.3937 -0.8314 -0.5581
  493MOL0     O67944  12.920   8.457   2.316  0.8163  0.5527  0.5476
  493MOL0     C67945  12.677   8.309   2.269 -0.0333  1.0911  0.2799
  493MOL0     C67946  12.561   8.225   2.229  0.4065 -0.9532 -0.2410
  493MOL0     N67947  11.972   7.984   2.329  0.0297 -0.6810  0.7629
  493MOL0     N67948  11.868   8.030   2.277  0.9942 -0.2456 -0.0690
  493MOL0     C67949  10.843   8.222   2.313  0.1517 -0.4480 -0.1748
  493MOL0     C67950  10.743   8.315   2.281  0.0292  0.5640  0.0468
  493MOL0     C67951  10.464   8.510   2.009  0.0024  0.1317  0.1588
  493MOL0     C67952  10.423   8.600   2.105  0.3577 -0.0376  0.4598
  493MOL0     C67953  10.299   8.668   2.106 -1.0099 -1.2125 -1.3768
  493MOL0     C67954  10.204   8.648   2.001  0.2630 -0.1254  0.0390
  493MOL0     O67955  10.078   8.705   1.997 -0.3829 -0.1876  0.8240
  493MOL0     C67956  10.040   8.827   2.076 -0.0172 -0.3039  0.5434
  493MOL0     C67957   9.972   8.785   2.204  0.2751  0.2943 -0.1294
  493MOL0     C67958   9.832   8.712   2.175  0.1819  0.2392  0.1877
  493MOL0     C67959   9.759   8.686   2.305 -0.8653  0.1015  0.7450
  493MOL0     C67960   9.646   8.598   2.271  0.3915 -0.6674 -0.0953
  493MOL0     C67961   9.552   8.537   2.228  0.2201  0.2127  0.5937
  493MOL0     C67962  10.236   8.551   1.916 -0.3175  0.1896  0.2962
  493MOL0     C67963  10.371   8.491   1.908 -0.2485  0.9167  0.2999
  493MOL0     C67964  10.394   8.391   1.792 -0.1174  0.1665 -0.9456
  493MOL0     H67965  10.940   8.473   2.046  3.5966 -0.6000  0.9969
  493MOL0     H67966  11.105   8.328   2.129  0.8537  0.2181  1.1986
  493MOL0     H67967  10.948   7.972   2.326  0.1369 -1.0057  0.3394
  493MOL0     H67968  10.989   8.046   2.480  1.9633 -1.3651  1.2872
  493MOL0     H67969  11.213   7.968   2.468 -0.1301  3.3007 -0.5209
  493MOL0     H67970  11.118   7.826   2.430  0.4032 -0.7048 -0.8675
  493MOL0     H67971  11.155   7.881   2.178  1.8281 -3.4378 -1.1013
  493MOL0     H67972  11.262   8.011   2.226  0.3723  0.4254  1.2909
  493MOL0     H67973  11.401   7.812   2.349 -1.6802 -1.2844  1.7987
  493MOL0     H67974  11.277   7.713   2.267  3.1610 -1.9509  1.2030
  493MOL0     H67975  11.357   7.824   2.045 -0.0011  2.4007  0.0833
  493MOL0     H67976  11.465   7.705   2.129  0.4457  0.6701  0.8118
  493MOL0     H67977  11.473   8.012   2.132 -0.1419 -1.2480 -2.1642
  493MOL0     H67978  11.560   7.912   2.246 -1.6569  2.4617  0.6178
  493MOL0     H67979  11.603   7.886   1.953  0.1255  1.5602 -0.0728
  493MOL0     H67980  11.695   7.807   2.083 -0.1564  1.1033  2.9890
  493MOL0     H67981  11.790   8.017   1.960 -0.3006 -1.9103 -1.1496
  493MOL0     H67982  11.698   8.106   2.085 -0.5417 -0.5231 -0.4750
  493MOL0     H67983  11.973   7.832   2.044 -1.6435 -1.8184  0.4530
  493MOL0     H67984  12.129   7.740   2.325 -0.1946  0.6009  0.4414
  493MOL0     H67985  12.231   7.890   2.347  0.7814 -1.2899  0.7737
  493MOL0     H67986  12.334   7.735   2.180 -1.4222 -0.5929  0.3711
  493MOL0     H67987  12.185   7.740   2.090 -1.6161  1.6517 -0.1073
  493MOL0     H67988  12.341   7.906   1.972  1.1646 -1.8295  0.9656
  493MOL0     H67989  12.183   7.956   2.029  0.6148  0.2203  0.7823
  493MOL0     H67990  12.354   8.116   2.063 -1.0169 -1.5644 -1.8361
  493MOL0     H67991  12.293   8.066   2.220 -1.0327  1.5745 -0.5008
  493MOL0     H67992  12.709   7.922   2.208 -1.9901 -0.3017 -1.4405
  493MOL0     H67993  12.932   7.929   2.217  3.7486  0.0663 -1.3149
  493MOL0     H67994  12.974   8.021   2.378 -0.7403  0.5521  0.1935
  493MOL0     H67995  13.011   8.081   2.213  2.1168 -2.0964  0.3253
  493MOL0     H67996  13.242   8.133   2.367  0.2637 -0.3678 -2.1868
  493MOL0     H67997  13.487   8.225   2.397  2.0774  3.2575 -0.7731
  493MOL0     H67998  13.501   8.643   2.401  0.2674 -0.6645 -0.3495
  493MOL0     H67999  13.539   8.652   2.566  0.9864 -1.5890  1.3997
  493MOL0     H68000  13.759   8.520   2.448 -0.8625 -0.6579  0.2301
  493MOL0     H68001  13.713   8.628   2.320  0.2749  1.7981  0.9415
  493MOL0     H68002  13.791   8.708   2.601  1.5788 -0.0800  0.3884
  493MOL0     H68003  13.717   8.821   2.479 -1.3087 -1.6318 -5.2138
  493MOL0     H68004  13.926   8.789   2.336  2.9879  0.2609  0.4842
  493MOL0     H68005  13.982   8.668   2.454  0.8302  0.0435 -0.3689
  493MOL0     H68006  13.954   8.969   2.518  0.1772 -0.0825 -1.0843
  493MOL0     H68007  13.994   8.846   2.629 -0.1891  2.0434 -0.0059
  493MOL0     H68008  14.152   8.924   2.382 -0.1636  0.2517 -0.4913
  493MOL0     H68009  14.204   8.799   2.491  0.7575  0.6819  0.8068
  493MOL0     H68010  14.206   9.090   2.571  1.3214  0.2841  3.0760
  493MOL0     H68011  14.330   8.959   2.557 -0.1329 -0.7613 -0.7342
  493MOL0     H68012  14.114   8.984   2.753 -0.7602  0.7559 -1.6624
  493MOL0     H68013  14.289   9.020   2.778 -1.0491 -0.2511  1.5404
  493MOL0     H68014  13.329   8.601   2.512 -0.6050  0.3024  2.0562
  493MOL0     H68015  13.088   8.516   2.476  0.7808  0.9678 -0.8472
  493MOL0     H68016  12.678   8.415   2.291 -0.8794  0.4874  3.6902
  493MOL0     H68017  12.461   8.263   2.206 -0.6685 -2.0656  2.2272
  493MOL0     H68018  10.798   8.147   2.378 -1.0048 -0.7411 -1.2666
  493MOL0     H68019  10.642   8.315   2.321 -0.7297 -1.6721 -1.6620
  493MOL0     H68020  10.490   8.637   2.181  0.9205  2.1515 -1.0116
  493MOL0     H68021  10.271   8.742   2.180  0.7861 -1.2945 -0.5513
  493MOL0     H68022  10.127   8.889   2.098 -0.7716  1.7246 -1.7850
  493MOL0     H68023   9.979   8.881   2.003  0.2669 -0.7657 -0.0456
  493MOL0     H68024   9.953   8.872   2.267 -4.2209  0.3120 -1.2386
  493MOL0     H68025  10.041   8.718   2.256  1.4478  0.7326 -1.0685
  493MOL0     H68026   9.765   8.776   2.116 -0.2477 -0.5011 -0.1443
  493MOL0     H68027   9.857   8.623   2.116  1.0027  0.9844 -0.6337
  493MOL0     H68028   9.733   8.783   2.349  0.9719  0.8556  0.2555
  493MOL0     H68029   9.823   8.628   2.373 -1.1810 -0.6471  0.4166
  493MOL0     H68030   9.481   8.468   2.186 -2.5988  2.5087  1.2730
  493MOL0     H68031  10.162   8.536   1.839  0.9774  0.2822 -1.0088
  493MOL0     H68032  10.425   8.290   1.822  2.0918  1.3587  1.1158
  493MOL0     H68033  10.302   8.372   1.736  0.8393 -2.9727 -1.6498
  493MOL0     H68034  10.466   8.435   1.723  0.5247  3.3903  1.5441
  494MOL0     O68035   7.468   1.566   3.708  0.3870  0.0222 -0.2431
  494MOL0     C68036   7.501   1.482   3.628 -0.5052 -0.6283 -0.6357
  494MOL0     O68037   7.628   1.460   3.588 -0.5560 -0.6458 -0.0617
  494MOL0     C68038   7.723   1.542   3.641 -0.9511 -0.2448  0.0190
  494MOL0     C68039   7.849   1.489   3.679  0.7630 -0.5766 -0.2874
  494MOL0     C68040   7.967   1.564   3.702  0.8156  0.6783  0.6042
  494MOL0     C68041   7.951   1.703   3.706 -0.2230  0.5974 -0.4246
  494MOL0     O68042   8.055   1.782   3.742 -0.0853 -1.1595  0.0820
  494MOL0     C68043   8.109   1.756   3.875  0.1466  0.6242 -0.5127
  494MOL0     C68044   8.199   1.859   3.942  0.2516 -0.1011 -0.1713
  494MOL0     C68045   8.166   2.002   3.897  0.4567  0.2439 -0.0984
  494MOL0     C68046   8.026   2.033   3.941 -1.0106 -0.1031 -0.1635
  494MOL0     C68047   7.970   2.151   3.871 -0.0527 -0.7998  1.2525
  494MOL0     C68048   7.821   2.169   3.916 -0.5404  0.3158  0.4625
  494MOL0     C68049   7.742   2.264   3.819  0.2804  0.5304  0.3551
  494MOL0     C68050   7.749   2.401   3.865  0.0970  0.2312 -0.0556
  494MOL0     N68051   7.637   2.477   3.805  0.8574 -0.7011 -0.4341
  494MOL0     C68052   7.549   2.546   3.878  0.8034  0.8484 -0.6147
  494MOL0     C68053   7.472   2.603   3.784 -0.1660  0.2918  0.0300
  494MOL0     C68054   7.350   2.686   3.805 -0.2250 -0.0733 -0.4971
  494MOL0     C68055   7.263   2.638   3.925  0.4825 -0.2413 -0.4902
  494MOL0     C68056   7.179   2.754   3.997 -0.0659  0.2680  0.8966
  494MOL0     C68057   7.023   2.763   3.982  1.2150  0.0596 -0.7953
  494MOL0     O68058   7.000   2.753   3.841  0.2942  0.3311 -0.1303
  494MOL0     C68059   6.876   2.744   3.787 -0.3039  0.0599  0.7614
  494MOL0     C68060   6.758   2.745   3.858 -0.3075 -0.4633 -0.2560
  494MOL0     C68061   6.637   2.737   3.795 -0.7342 -0.3378  1.1844
  494MOL0     C68062   6.516   2.757   3.884 -0.3674  0.6300 -0.0782
  494MOL0     C68063   6.625   2.737   3.652  0.2094  1.0186 -0.1345
  494MOL0     C68064   6.486   2.728   3.579  0.0346  0.5423 -0.3480
  494MOL0     O68065   6.380   2.785   3.648 -0.3210  1.0973 -0.0477
  494MOL0     C68066   6.280   2.859   3.586  0.1945  0.3584  0.2926
  494MOL0     C68067   6.177   2.912   3.663  1.2018  0.1283 -0.5361
  494MOL0     C68068   6.070   2.976   3.607 -0.0251  0.0462  0.0807
  494MOL0     C68069   6.066   3.000   3.473 -0.0221  0.0717  0.1056
  494MOL0     O68070   5.967   3.089   3.432 -0.0644 -0.4706 -0.3578
  494MOL0     C68071   5.908   3.066   3.298 -0.3536 -0.7101 -0.4949
  494MOL0     C68072   5.809   2.948   3.317  0.0484 -0.0701  0.2074
  494MOL0     C68073   5.668   2.995   3.365 -0.2934 -0.3210  0.0414
  494MOL0     C68074   5.583   3.075   3.266 -0.5313  0.5338  0.1304
  494MOL0     C68075   5.435   3.054   3.278 -0.6902 -0.7957  0.3139
  494MOL0     C68076   5.391   2.918   3.230  0.1603 -0.4263  0.6788
  494MOL0     C68077   5.244   2.888   3.228 -0.0832  0.0568 -0.3416
  494MOL0     C68078   5.211   2.750   3.177  0.3011 -0.4428 -0.1247
  494MOL0    Cl68079   5.037   2.714   3.208  0.5183  0.0014 -0.3013
  494MOL0     C68080   6.166   2.952   3.387 -0.5088  0.5100  0.0118
  494MOL0     C68081   6.270   2.883   3.448 -1.1359  0.0964 -0.7612
  494MOL0     O68082   6.480   2.680   3.469 -0.5919 -0.3170 -0.0912
  494MOL0     C68083   6.748   2.724   3.577 -0.2694 -0.7684  0.5758
  494MOL0     C68084   6.871   2.724   3.644  0.5733 -0.1973 -0.1602
  494MOL0     N68085   7.533   2.584   3.656  0.3855  0.1829 -0.9805
  494MOL0     N68086   7.621   2.495   3.670  0.1660 -0.4232 -0.4280
  494MOL0     C68087   7.825   1.766   3.661  0.3397 -1.0468 -0.0655
  494MOL0     C68088   7.715   1.687   3.631 -0.5163  0.5789  0.1436
  494MOL0     C68089   7.404   1.395   3.568  0.0366  0.3243  0.0584
  494MOL0     C68090   7.434   1.297   3.473 -0.8220  0.5408  0.3321
  494MOL0     C68091   7.346   1.199   3.426  0.6951  0.0345 -0.3663
  494MOL0     C68092   7.215   1.190   3.474 -0.2285  0.7491  0.2605
  494MOL0     O68093   7.127   1.088   3.435  0.1910  0.3383  0.6266
  494MOL0     C68094   6.997   1.082   3.487  0.8059  0.3588 -0.7994
  494MOL0     C68095   6.902   1.158   3.395 -0.5843 -0.1296 -0.2178
  494MOL0     C68096   6.764   1.190   3.459  0.7597 -0.1473  0.6541
  494MOL0     C68097   6.762   1.289   3.579 -0.1715 -0.3452 -0.5686
  494MOL0     C68098   6.815   1.422   3.532  0.4319 -0.4639 -0.4784
  494MOL0     C68099   6.819   1.532   3.484 -0.5710  0.2183  0.1612
  494MOL0     C68100   7.182   1.288   3.562 -0.8130  0.2080  0.6357
  494MOL0     C68101   7.270   1.387   3.615  0.2616  0.3179  0.2278
  494MOL0     C68102   7.202   1.476   3.721 -1.2166 -0.0133  0.3159
  494MOL0     H68103   7.853   1.380   3.686 -2.9188 -0.8704 -1.1293
  494MOL0     H68104   8.060   1.514   3.730 -0.5489 -1.9455  0.7911
  494MOL0     H68105   8.162   1.660   3.868 -2.7137 -1.0355 -1.0713
  494MOL0     H68106   8.034   1.739   3.953  1.4087 -0.1051  0.5979
  494MOL0     H68107   8.213   1.843   4.049 -0.1725 -0.9249 -0.2259
  494MOL0     H68108   8.300   1.851   3.901  1.2261  0.5687  1.9690
  494MOL0     H68109   8.236   2.074   3.939  0.9430 -0.2226 -0.0894
  494MOL0     H68110   8.169   2.004   3.788 -3.7400  1.5142 -0.3866
  494MOL0     H68111   7.959   1.947   3.928  0.2376 -1.0395 -0.5260
  494MOL0     H68112   8.031   2.059   4.047 -1.9580  0.3059 -0.2070
  494MOL0     H68113   7.976   2.139   3.762 -0.2282  2.4620  0.7969
  494MOL0     H68114   8.022   2.246   3.886  0.8290 -0.1783 -3.8166
  494MOL0     H68115   7.766   2.074   3.912 -0.6064  0.2252  2.4378
  494MOL0     H68116   7.823   2.193   4.023 -1.7723 -0.4054  0.6706
  494MOL0     H68117   7.638   2.235   3.833  0.7271 -0.7141  1.3769
  494MOL0     H68118   7.771   2.260   3.714  1.4796 -0.6173  0.7018
  494MOL0     H68119   7.754   2.417   3.973 -0.3817  2.2542 -0.2817
  494MOL0     H68120   7.841   2.446   3.826 -0.1637  0.2832 -0.6214
  494MOL0     H68121   7.534   2.545   3.986  0.0412  1.5847 -0.7021
  494MOL0     H68122   7.304   2.689   3.706 -0.0859 -1.3346 -0.6271
  494MOL0     H68123   7.379   2.786   3.836 -0.6688  0.3447 -1.3889
  494MOL0     H68124   7.178   2.578   3.890 -1.0927  1.1682  0.7499
  494MOL0     H68125   7.321   2.588   4.004  2.3945  1.3609 -0.8033
  494MOL0     H68126   7.197   2.751   4.104  3.0638  2.2806  0.5734
  494MOL0     H68127   7.218   2.846   3.953  0.1506 -0.9628 -1.6794
  494MOL0     H68128   6.972   2.680   4.033 -1.6180  0.4910 -2.6810
  494MOL0     H68129   6.997   2.859   4.027  0.1904  0.6589 -2.5840
  494MOL0     H68130   6.762   2.748   3.967  2.5505 -3.7046 -0.1015
  494MOL0     H68131   6.450   2.670   3.877 -0.4788  0.6691  0.4617
  494MOL0     H68132   6.468   2.853   3.863 -1.9941 -0.3593 -1.0557
  494MOL0     H68133   6.540   2.767   3.990  1.9638  1.8828 -0.6535
  494MOL0     H68134   6.182   2.907   3.771  2.5324 -1.8919 -0.6313
  494MOL0     H68135   5.997   3.024   3.671  1.3428  0.6696  1.2172
  494MOL0     H68136   5.855   3.156   3.264  1.9355  0.7260 -0.4487
  494MOL0     H68137   5.984   3.050   3.222  2.1529 -1.4495  1.9999
  494MOL0     H68138   5.786   2.898   3.223 -0.1237 -4.6654  2.4225
  494MOL0     H68139   5.846   2.871   3.385  0.7275 -1.1383 -1.3065
  494MOL0     H68140   5.685   3.055   3.455 -0.3509  2.5323 -1.7265
  494MOL0     H68141   5.613   2.905   3.393 -0.7454  0.3348  1.3159
  494MOL0     H68142   5.622   3.055   3.166  2.1910 -1.0741  1.3998
  494MOL0     H68143   5.607   3.179   3.289  2.0804 -0.2435  1.2548
  494MOL0     H68144   5.418   3.065   3.386  2.7187  0.7625  0.8192
  494MOL0     H68145   5.388   3.138   3.226  0.8477  0.0237  0.2000
  494MOL0     H68146   5.426   2.839   3.297 -2.3263  0.9014  3.8053
  494MOL0     H68147   5.436   2.904   3.132  2.4437 -0.5161  1.6601
  494MOL0     H68148   5.181   2.957   3.171 -2.0812 -1.9715 -0.7344
  494MOL0     H68149   5.208   2.903   3.331 -0.7608  1.0062 -0.7006
  494MOL0     H68150   5.272   2.683   3.238 -0.5196 -0.7980  0.3311
  494MOL0     H68151   5.250   2.740   3.075  3.7086  1.5663  0.8489
  494MOL0     H68152   6.168   2.977   3.281 -0.6308 -1.6881 -0.5638
  494MOL0     H68153   6.357   2.862   3.386  0.9435  0.5569  1.8246
  494MOL0     H68154   6.765   2.717   3.470  2.5223  1.0189  0.8205
  494MOL0     H68155   6.956   2.739   3.579  1.1905  3.3195  1.2253
  494MOL0     H68156   7.807   1.873   3.652 -3.6130 -1.2961  2.4123
  494MOL0     H68157   7.616   1.729   3.613 -1.5292 -1.2975  1.1327
  494MOL0     H68158   7.539   1.293   3.445 -0.6533  1.4991  0.8056
  494MOL0     H68159   7.378   1.117   3.362 -1.0150 -0.5220 -0.5553
  494MOL0     H68160   6.972   0.976   3.493 -0.1683  0.6414  0.5077
  494MOL0     H68161   6.980   1.122   3.587  0.7268  1.0127 -1.0661
  494MOL0     H68162   6.875   1.096   3.308  0.9562 -3.4420  1.4748
  494MOL0     H68163   6.940   1.253   3.357  0.1849 -0.5264 -0.4641
  494MOL0     H68164   6.687   1.229   3.393  0.1936  0.4459  1.6291
  494MOL0     H68165   6.717   1.095   3.487 -0.3691  0.5362  1.1828
  494MOL0     H68166   6.836   1.267   3.657 -0.0792  1.8362  0.0036
  494MOL0     H68167   6.667   1.303   3.631 -2.1909 -4.3639 -2.7361
  494MOL0     H68168   6.835   1.622   3.430 -0.8217 -1.5361 -3.0861
  494MOL0     H68169   7.081   1.287   3.601 -0.4758 -2.4549  1.6576
  494MOL0     H68170   7.100   1.447   3.745 -0.9444 -0.1008  1.4740
  494MOL0     H68171   7.257   1.481   3.816 -4.0865 -1.7724  2.2235
  494MOL0     H68172   7.197   1.578   3.681 -2.6624 -0.0331  0.3931
  495MOL0     O68173   7.262  10.867   6.163 -0.8495  0.7952  0.3578
  495MOL0     C68174   7.346  10.881   6.076  0.2031 -0.0162  0.5576
  495MOL0     O68175   7.325  10.894   5.938 -0.2654  0.8147 -0.5665
  495MOL0     C68176   7.200  10.895   5.899  0.2069  0.8461  0.3306
  495MOL0     C68177   7.143  10.768   5.870 -0.7130 -0.5019  0.3146
  495MOL0     C68178   7.010  10.755   5.835  0.2895  0.0981 -0.1557
  495MOL0     C68179   6.936  10.879   5.833  1.1192  0.4362  0.5432
  495MOL0     O68180   6.805  10.889   5.803  0.4095  0.0938  0.1760
  495MOL0     C68181   6.726  10.773   5.796  0.2522 -1.2320  0.4575
  495MOL0     C68182   6.713  10.720   5.659  0.5139  0.4251  0.9135
  495MOL0     C68183   6.678  10.833   5.563 -0.1640  0.8185  0.1087
  495MOL0     C68184   6.543  10.896   5.603 -0.2669 -0.3242  0.6957
  495MOL0     C68185   6.467  10.964   5.487  0.3451 -0.1544 -0.5722
  495MOL0     C68186   6.537  11.093   5.425 -0.6880 -0.0113 -0.5291
  495MOL0     C68187   6.492  11.146   5.283 -0.2266  0.5647  0.6368
  495MOL0     C68188   6.597  11.226   5.204  0.5913  0.3421  0.6820
  495MOL0     N68189   6.716  11.149   5.161  0.6734  0.7324  0.4611
  495MOL0     C68190   6.716  11.014   5.116  0.4911  0.1684  0.2949
  495MOL0     C68191   6.844  10.976   5.126  0.8680 -0.3849  0.2345
  495MOL0     C68192   6.902  10.847   5.076 -0.5414  0.5052  0.0045
  495MOL0     C68193   6.892  10.749   5.196 -1.0744  0.5602  0.5218
  495MOL0     C68194   6.966  10.783   5.323 -0.1049 -0.5538  0.3426
  495MOL0     C68195   7.106  10.840   5.315 -0.1739  0.7479  0.1177
  495MOL0     O68196   7.190  10.749   5.244 -0.5392 -0.6411  0.1644
  495MOL0     C68197   7.321  10.788   5.217 -0.3103  0.1402 -0.1062
  495MOL0     C68198   7.394  10.896   5.266  0.2783  0.0696  0.5622
  495MOL0     C68199   7.528  10.915   5.232 -0.4784  0.6029 -0.1794
  495MOL0     C68200   7.594  11.042   5.283  0.2119  1.1891  0.1460
  495MOL0     C68201   7.597  10.825   5.147 -0.4195  0.2334 -0.1919
  495MOL0     C68202   7.737  10.838   5.103  0.7449 -0.7650 -0.1122
  495MOL0     O68203   7.794  10.967   5.086 -0.4917  0.2281  0.7739
  495MOL0     C68204   7.918  10.994   5.037 -0.1907 -1.0749  0.5942
  495MOL0     C68205   8.026  10.913   5.046 -0.2472 -0.3589  0.5033
  495MOL0     C68206   8.152  10.949   4.987 -0.2077  0.0916 -0.8919
  495MOL0     C68207   8.171  11.069   4.918 -0.1123 -0.3395  1.1188
  495MOL0     O68208   8.288  11.095   4.850 -0.0845 -0.3474 -0.3206
  495MOL0     C68209   8.410  11.080   4.923 -0.6786  0.4986 -0.3495
  495MOL0     C68210   8.523  11.104   4.827  0.4570  0.3031  0.7348
  495MOL0     C68211   8.552  10.990   4.727 -0.5208  0.2434  0.4958
  495MOL0     C68212   8.667  11.024   4.635 -1.2024 -0.1059  0.1722
  495MOL0     C68213   8.661  10.943   4.504 -0.8373  0.0885 -0.7580
  495MOL0     C68214   8.773  10.988   4.409 -0.5330  0.9400 -0.8486
  495MOL0     C68215   8.746  10.950   4.259 -0.0940 -0.1512  0.6741
  495MOL0     C68216   8.745  10.792   4.229  0.5207 -0.5861  0.3323
  495MOL0    Cl68217   8.903  10.730   4.253  0.3926 -0.3045 -0.9224
  495MOL0     C68218   8.055  11.150   4.904 -0.2030 -0.2221 -0.0779
  495MOL0     C68219   7.939  11.113   4.960  0.4276 -0.3237 -0.1760
  495MOL0     O68220   7.789  10.729   5.082 -0.1926 -0.6397 -0.0673
  495MOL0     C68221   7.526  10.705   5.113  0.3350 -0.2414 -0.1375
  495MOL0     C68222   7.394  10.688   5.139  0.2252  0.0064 -0.0998
  495MOL0     N68223   6.918  11.086   5.161  0.6107 -0.1149 -0.1286
  495MOL0     N68224   6.843  11.194   5.176  0.0718  0.1185  0.8710
  495MOL0     C68225   6.997  11.002   5.857  0.2411  0.0682 -0.8127
  495MOL0     C68226   7.133  11.013   5.886  0.1896  0.3149  0.0008
  495MOL0     C68227   7.486  10.898   6.128 -0.6773 -1.0425 -0.7980
  495MOL0     C68228   7.582  10.871   6.026 -0.2071  0.2287 -0.6035
  495MOL0     C68229   7.708  10.907   6.048 -0.4233 -0.3743  0.3558
  495MOL0     C68230   7.749  10.947   6.172 -0.5765 -0.6847 -0.0469
  495MOL0     O68231   7.885  10.975   6.174  0.4063 -0.0456 -0.0259
  495MOL0     C68232   7.949  10.911   6.285 -0.7483 -0.0929 -1.0100
  495MOL0     C68233   8.100  10.933   6.264  0.3789 -0.2829 -0.4253
  495MOL0     C68234   8.178  10.870   6.383 -0.0472 -0.2598 -0.0482
  495MOL0     C68235   8.333  10.887   6.361  0.6899 -0.6041  0.2231
  495MOL0     C68236   8.382  10.794   6.261  0.0814 -0.4755  0.5807
  495MOL0     C68237   8.417  10.716   6.172  0.6074  0.3340  0.3060
  495MOL0     C68238   7.665  10.969   6.277  0.4363 -0.7054  0.0333
  495MOL0     C68239   7.526  10.955   6.252 -0.5367  0.1496  0.1091
  495MOL0     C68240   7.431  10.995   6.354  0.7787 -0.9126 -1.5548
  495MOL0     H68241   7.201  10.676   5.876 -1.4941 -0.9862  0.6530
  495MOL0     H68242   6.966  10.657   5.823  2.1062 -0.8120  0.1575
  495MOL0     H68243   6.621  10.794   5.817  0.8536  2.7166  0.3173
  495MOL0     H68244   6.755  10.696   5.869 -2.5171 -3.3888 -0.5548
  495MOL0     H68245   6.801  10.663   5.627 -2.7596 -4.3971 -0.6605
  495MOL0     H68246   6.627  10.653   5.665  0.4457  0.5112  0.8817
  495MOL0     H68247   6.751  10.914   5.569  0.2564  0.4795 -0.3828
  495MOL0     H68248   6.670  10.775   5.471 -3.1587 -2.7295  2.3262
  495MOL0     H68249   6.478  10.818   5.645 -2.5552 -0.1860 -2.2526
  495MOL0     H68250   6.561  10.969   5.683 -0.1251 -0.8780  1.1840
  495MOL0     H68251   6.366  10.995   5.514  0.7687  2.1388 -1.3332
  495MOL0     H68252   6.440  10.896   5.406 -2.0533 -0.3354  0.2928
  495MOL0     H68253   6.517  11.175   5.494 -1.5516 -0.5955 -0.0678
  495MOL0     H68254   6.641  11.063   5.409 -1.2430 -1.1287 -2.3482
  495MOL0     H68255   6.409  11.216   5.284 -0.3559  0.5105 -1.8361
  495MOL0     H68256   6.459  11.063   5.219  1.4192  0.4188 -0.0798
  495MOL0     H68257   6.547  11.262   5.113  0.3564 -2.3021 -0.3201
  495MOL0     H68258   6.628  11.316   5.257  3.1436 -0.1485  0.1384
  495MOL0     H68259   6.636  10.945   5.090  0.5797 -0.1139  0.7695
  495MOL0     H68260   7.009  10.859   5.053 -0.8766 -1.5924 -3.3542
  495MOL0     H68261   6.859  10.809   4.983 -1.3374 -0.0291  0.5784
  495MOL0     H68262   6.787  10.729   5.220 -0.9886  0.2351  0.6299
  495MOL0     H68263   6.927  10.652   5.161 -3.2049  0.5020 -1.7008
  495MOL0     H68264   6.906  10.864   5.365 -2.2018 -0.0009 -3.3091
  495MOL0     H68265   6.969  10.699   5.393 -1.7209 -0.0860  1.0147
  495MOL0     H68266   7.096  10.937   5.266 -1.3347  0.6282  0.0890
  495MOL0     H68267   7.155  10.845   5.413 -0.1216 -0.1406  0.1501
  495MOL0     H68268   7.344  10.969   5.329  1.9878  1.0638  0.8265
  495MOL0     H68269   7.528  11.088   5.356 -1.7562 -0.2277 -0.6590
  495MOL0     H68270   7.615  11.108   5.199 -1.4050  0.4258 -0.9063
  495MOL0     H68271   7.688  11.022   5.336 -0.3257 -1.4193  0.2867
  495MOL0     H68272   8.005  10.815   5.087 -1.8450  0.4206  1.6439
  495MOL0     H68273   8.239  10.884   4.983  0.1701  0.6513 -1.8267
  495MOL0     H68274   8.411  11.141   5.014  0.5748 -1.1408  0.7852
  495MOL0     H68275   8.409  10.977   4.959 -2.6462  0.1585 -1.2414
  495MOL0     H68276   8.503  11.194   4.768 -0.3546 -2.0634 -2.8969
  495MOL0     H68277   8.615  11.122   4.884  1.3333 -0.6372 -0.3360
  495MOL0     H68278   8.461  10.976   4.668  1.1671  1.2067 -2.5737
  495MOL0     H68279   8.574  10.907   4.795  1.3337  1.1615  1.0757
  495MOL0     H68280   8.767  11.016   4.678 -0.8254 -0.1455 -0.6940
  495MOL0     H68281   8.662  11.130   4.611  2.4322  0.1194 -0.2082
  495MOL0     H68282   8.686  10.840   4.532  0.5342  0.6976  0.4021
  495MOL0     H68283   8.565  10.960   4.454 -0.9682 -1.4539 -1.0851
  495MOL0     H68284   8.867  10.949   4.451 -1.4737  1.3450  1.8605
  495MOL0     H68285   8.779  11.095   4.431  0.3094  1.1338 -1.9289
  495MOL0     H68286   8.818  11.012   4.206 -3.2983  2.5397 -0.9223
  495MOL0     H68287   8.651  10.992   4.224  0.0142  0.4919  1.1340
  495MOL0     H68288   8.705  10.766   4.130 -0.5648  1.2536  0.2383
  495MOL0     H68289   8.673  10.748   4.298  2.3800 -1.6334  1.6807
  495MOL0     H68290   8.061  11.240   4.845 -1.8847 -0.7047 -1.0328
  495MOL0     H68291   7.855  11.182   4.950  0.9825  0.2403 -1.0337
  495MOL0     H68292   7.573  10.629   5.052 -0.6640 -1.1382  0.1716
  495MOL0     H68293   7.335  10.604   5.102  0.5413 -0.0185 -0.5529
  495MOL0     H68294   6.937  11.092   5.850 -0.8799 -0.3188  2.3207
  495MOL0     H68295   7.170  11.110   5.918 -0.5530  1.2069 -1.6770
  495MOL0     H68296   7.549  10.822   5.935 -0.0061 -0.6807 -0.2023
  495MOL0     H68297   7.781  10.896   5.969 -2.2426 -0.6463 -1.3770
  495MOL0     H68298   7.911  10.948   6.380 -4.9186 -1.4723 -1.8817
  495MOL0     H68299   7.937  10.803   6.274 -1.5271 -0.2243  0.8819
  495MOL0     H68300   8.105  11.042   6.262  2.0796 -0.3296 -2.1849
  495MOL0     H68301   8.136  10.899   6.166 -0.1717  0.3635 -0.8639
  495MOL0     H68302   8.142  10.930   6.467 -4.4660 -3.0454  0.3461
  495MOL0     H68303   8.146  10.768   6.407 -0.3573 -0.1321  0.0817
  495MOL0     H68304   8.378  10.863   6.458  0.6662  0.4355  0.5004
  495MOL0     H68305   8.348  10.991   6.332 -1.4283 -0.7235 -1.5682
  495MOL0     H68306   8.451  10.650   6.095 -0.6672 -1.3591  1.1381
  495MOL0     H68307   7.690  11.003   6.377  1.2525  0.6531 -0.6132
  495MOL0     H68308   7.393  10.907   6.406 -1.9093  0.7613 -0.4806
  495MOL0     H68309   7.485  11.057   6.426 -0.7793 -0.3321 -0.8485
  495MOL0     H68310   7.349  11.057   6.316 -0.8079 -0.9159  1.5375
  496MOL0     O68311   7.399  11.331   4.171 -0.1982 -0.4240  0.0272
  496MOL0     C68312   7.457  11.292   4.273 -0.3645  0.6099 -0.7449
  496MOL0     O68313   7.431  11.173   4.341 -0.1895 -0.1941 -0.2896
  496MOL0     C68314   7.319  11.105   4.296 -0.4041  0.2807  0.1216
  496MOL0     C68315   7.324  11.032   4.183 -0.5761  0.6032 -0.0691
  496MOL0     C68316   7.213  10.963   4.145  0.4168 -0.2080  0.8908
  496MOL0     C68317   7.095  10.962   4.215 -0.5814  0.5874 -0.0459
  496MOL0     O68318   6.991  10.893   4.158  0.3831  0.3200  0.2770
  496MOL0     C68319   6.874  10.846   4.238 -0.7583 -0.0003 -0.4965
  496MOL0     C68320   6.767  10.791   4.140 -0.2232 -0.0108 -0.4278
  496MOL0     C68321   6.621  10.814   4.194  0.4157  1.1478  0.3789
  496MOL0     C68322   6.516  10.740   4.098 -0.1574 -1.1533 -0.5024
  496MOL0     C68323   6.508  10.800   3.958  0.0392 -0.2827  0.2301
  496MOL0     C68324   6.497  10.950   3.938 -0.2455 -0.7111  0.4983
  496MOL0     C68325   6.368  11.026   3.961 -0.1818 -0.5070 -0.1630
  496MOL0     C68326   6.381  11.124   4.077 -0.2371 -0.3609  1.0489
  496MOL0     N68327   6.374  11.060   4.209 -0.1372 -0.5289  0.4221
  496MOL0     C68328   6.300  10.954   4.258 -0.4306  1.0865 -0.1540
  496MOL0     C68329   6.335  10.958   4.390  0.4030 -0.7293 -0.0753
  496MOL0     C68330   6.268  10.880   4.504 -1.1239  0.2192  0.7173
  496MOL0     C68331   6.166  10.971   4.564  0.2687 -0.8012  0.2811
  496MOL0     C68332   6.055  10.905   4.645  0.8983  0.6424 -0.6167
  496MOL0     C68333   5.963  11.007   4.708 -0.4231  0.6616  1.0393
  496MOL0     O68334   5.862  10.940   4.783 -0.6353  0.2065  0.2701
  496MOL0     C68335   5.743  10.994   4.790 -0.6456  0.4238 -0.8209
  496MOL0     C68336   5.701  11.121   4.748 -0.2759  0.7417 -0.7601
  496MOL0     C68337   5.561  11.164   4.767 -0.1724 -0.7488  0.7036
  496MOL0     C68338   5.522  11.304   4.718  1.2568  0.3334 -0.3402
  496MOL0     C68339   5.470  11.069   4.820  0.4260 -0.3167 -0.3644
  496MOL0     C68340   5.322  11.084   4.836  0.7890 -0.4209  0.1302
  496MOL0     O68341   5.255  10.993   4.913 -1.1680  0.7346  0.5270
  496MOL0     C68342   5.119  11.016   4.926  0.8120 -0.0429 -0.3236
  496MOL0     C68343   5.028  10.912   4.902  0.0138 -0.3688 -0.0936
  496MOL0     C68344   4.894  10.925   4.941 -0.8243  0.4883 -0.1885
  496MOL0     C68345   4.845  11.045   4.998 -0.8426  0.3265 -0.1718
  496MOL0     O68346   4.721  11.067   5.054  0.2731 -0.5156 -0.1160
  496MOL0     C68347   4.638  10.951   5.064  1.2143 -0.0129 -0.1968
  496MOL0     C68348   4.503  11.002   5.116  0.6884 -0.4050  0.8405
  496MOL0     C68349   4.424  11.091   5.008 -0.6286 -0.4432  0.4106
  496MOL0     C68350   4.281  11.122   5.052  0.3510 -0.1074  0.1652
  496MOL0     C68351   4.220  11.228   4.953 -0.4367 -1.0510  0.6933
  496MOL0     C68352   4.081  11.288   5.014 -0.5703  0.2911 -0.3162
  496MOL0     C68353   4.031  11.381   4.905 -0.1632  0.2788 -0.9441
  496MOL0     C68354   3.880  11.411   4.922  0.5151  0.0235 -0.4135
  496MOL0    Cl68355   3.774  11.270   4.911  0.4276 -0.1802 -0.2137
  496MOL0     C68356   4.935  11.145   5.017 -0.5002 -0.3419 -0.1076
  496MOL0     C68357   5.062  11.130   4.986 -0.3904 -0.4352 -0.8686
  496MOL0     O68358   5.266  11.179   4.780 -0.6684 -0.0400 -0.8916
  496MOL0     C68359   5.522  10.945   4.864  0.2841  0.1481  0.4542
  496MOL0     C68360   5.654  10.908   4.855  0.6165 -0.6553 -0.6658
  496MOL0     N68361   6.427  11.060   4.412  0.6039 -0.4610  0.5480
  496MOL0     N68362   6.448  11.115   4.302 -0.0698 -1.3783 -0.0511
  496MOL0     C68363   7.090  11.028   4.339  0.2068  0.2833  0.1216
  496MOL0     C68364   7.203  11.107   4.379 -0.4956  0.2545  0.2141
  496MOL0     C68365   7.552  11.384   4.344  0.6309  0.1761 -0.0841
  496MOL0     C68366   7.617  11.338   4.458  0.4841  0.8837  0.1906
  496MOL0     C68367   7.723  11.409   4.513 -0.3525  0.1953 -0.8071
  496MOL0     C68368   7.771  11.525   4.454 -0.0381  0.0867 -0.6006
  496MOL0     O68369   7.870  11.597   4.510 -0.2147 -0.1293  0.2552
  496MOL0     C68370   7.999  11.528   4.533 -0.3089 -0.0753 -0.4653
  496MOL0     C68371   8.045  11.548   4.679  0.0339  0.0702 -0.7389
  496MOL0     C68372   8.192  11.510   4.712  0.3279  0.2555  0.1884
  496MOL0     C68373   8.298  11.612   4.679  0.9448  0.7074 -0.7874
  496MOL0     C68374   8.434  11.556   4.722  0.4214 -0.3931  0.2349
  496MOL0     C68375   8.545  11.520   4.744 -0.4240 -0.0557 -0.1982
  496MOL0     C68376   7.691  11.584   4.360  0.2798 -0.1621  0.3351
  496MOL0     C68377   7.589  11.508   4.294  0.8043 -1.2033  0.1187
  496MOL0     C68378   7.535  11.573   4.163 -0.2098  0.4447 -0.4254
  496MOL0     H68379   7.417  11.014   4.131 -0.4867 -1.8141  0.8220
  496MOL0     H68380   7.223  10.902   4.056 -1.5228 -0.0494  0.5250
  496MOL0     H68381   6.831  10.930   4.293 -2.8106 -2.1036  1.3324
  496MOL0     H68382   6.910  10.774   4.312 -0.9054  1.2692  0.8593
  496MOL0     H68383   6.781  10.848   4.047  1.1764 -0.1023 -0.3063
  496MOL0     H68384   6.797  10.688   4.119 -0.8611  0.2583 -2.9720
  496MOL0     H68385   6.597  10.767   4.290 -0.3235 -0.1072 -0.3944
  496MOL0     H68386   6.597  10.917   4.222 -0.9716  0.0750  3.5946
  496MOL0     H68387   6.542  10.633   4.098  1.7217 -0.8289  2.3765
  496MOL0     H68388   6.416  10.753   4.138 -0.4730 -0.0613 -1.6040
  496MOL0     H68389   6.415  10.758   3.918 -0.5054 -0.1445  1.3091
  496MOL0     H68390   6.598  10.771   3.903 -0.0430 -1.7826  0.8331
  496MOL0     H68391   6.575  10.997   4.000  0.6954  2.4229 -2.7129
  496MOL0     H68392   6.523  10.971   3.834  3.2699 -7.4297 -0.5499
  496MOL0     H68393   6.289  10.952   3.975  0.7165 -1.1089  2.2584
  496MOL0     H68394   6.349  11.092   3.876  1.8831  3.0157  1.8535
  496MOL0     H68395   6.473  11.180   4.058 -0.9174  0.6207  0.5647
  496MOL0     H68396   6.296  11.193   4.072  0.3685  0.3118 -0.4896
  496MOL0     H68397   6.228  10.892   4.205 -0.1274  1.2900 -0.8261
  496MOL0     H68398   6.344  10.849   4.576 -1.6919 -3.1315  0.0475
  496MOL0     H68399   6.229  10.784   4.469  1.0718 -1.6276  2.9479
  496MOL0     H68400   6.221  11.041   4.628 -1.0213 -0.4473  1.0391
  496MOL0     H68401   6.118  11.028   4.484 -2.3375 -0.8073  1.7240
  496MOL0     H68402   5.983  10.850   4.583 -0.1982  2.1013 -0.6798
  496MOL0     H68403   6.097  10.830   4.713 -1.9608 -1.6873 -1.2024
  496MOL0     H68404   6.015  11.076   4.774  1.5362  2.0032 -1.7303
  496MOL0     H68405   5.917  11.063   4.626 -0.0854 -1.5243 -0.7426
  496MOL0     H68406   5.771  11.191   4.703  2.4307 -0.0082  1.9645
  496MOL0     H68407   5.447  11.358   4.777  2.2138  2.2770 -0.8149
  496MOL0     H68408   5.474  11.289   4.621  0.8030 -1.4822  0.1313
  496MOL0     H68409   5.609  11.370   4.712  0.3100  1.5389 -1.2004
  496MOL0     H68410   5.078  10.823   4.865  0.8118  1.0484 -2.7106
  496MOL0     H68411   4.840  10.833   4.925  2.7931 -2.2274  1.8492
  496MOL0     H68412   4.615  10.908   4.966  1.6393  1.1144 -0.8022
  496MOL0     H68413   4.681  10.873   5.127 -0.6431 -1.9177 -1.1611
  496MOL0     H68414   4.433  10.923   5.145 -1.0206  1.0231  0.8037
  496MOL0     H68415   4.521  11.062   5.206 -0.4691  0.3820  0.5814
  496MOL0     H68416   4.428  11.041   4.910 -0.7740 -0.0167  0.1840
  496MOL0     H68417   4.476  11.187   4.996 -0.9956 -0.1727  0.9779
  496MOL0     H68418   4.284  11.164   5.153  3.1357  2.3495 -0.8063
  496MOL0     H68419   4.211  11.039   5.038  0.8184 -0.4006 -0.4525
  496MOL0     H68420   4.285  11.315   4.939 -3.0407  1.6298  3.6849
  496MOL0     H68421   4.190  11.179   4.859 -0.2209 -0.4885  0.3263
  496MOL0     H68422   4.102  11.339   5.108  1.1328 -0.6036 -0.1682
  496MOL0     H68423   3.999  11.216   5.022 -0.6346  0.3903 -0.0697
  496MOL0     H68424   4.051  11.341   4.806 -1.0123  1.0928 -1.4637
  496MOL0     H68425   4.088  11.473   4.922  1.3976 -1.2525  3.6899
  496MOL0     H68426   3.857  11.478   4.838 -1.1373  2.7129  1.9967
  496MOL0     H68427   3.866  11.463   5.017  2.5138 -2.1548  1.1856
  496MOL0     H68428   4.892  11.239   5.049 -0.6213 -0.1435 -0.8379
  496MOL0     H68429   5.133  11.210   5.002 -0.4949  0.1270 -2.8676
  496MOL0     H68430   5.462  10.869   4.913 -3.0249  0.9632 -1.9936
  496MOL0     H68431   5.685  10.809   4.886  1.2766 -1.0783 -2.5230
  496MOL0     H68432   6.991  11.030   4.384 -0.8927 -2.3534 -1.9385
  496MOL0     H68433   7.207  11.170   4.467  1.2899  0.6133 -0.0737
  496MOL0     H68434   7.588  11.242   4.499 -1.9561  1.2718 -0.4225
  496MOL0     H68435   7.772  11.372   4.603  0.6048 -0.7173 -1.6817
  496MOL0     H68436   7.971  11.422   4.527 -2.6072  0.3876  0.9372
  496MOL0     H68437   8.075  11.566   4.465 -1.3487  3.2718  0.0839
  496MOL0     H68438   7.978  11.477   4.729  2.3067 -1.0400  0.9251
  496MOL0     H68439   8.019  11.652   4.700  1.5380  0.1623  0.8437
  496MOL0     H68440   8.201  11.476   4.815  1.3313 -0.9539 -0.2711
  496MOL0     H68441   8.210  11.422   4.649 -0.2280 -0.6769  1.2990
  496MOL0     H68442   8.272  11.703   4.733 -1.1721  0.8630 -1.9883
  496MOL0     H68443   8.293  11.641   4.574 -2.2447 -0.8188 -1.1801
  496MOL0     H68444   8.650  11.500   4.746 -0.3615 -0.0829 -2.2247
  496MOL0     H68445   7.715  11.686   4.331  3.3939 -0.8730  0.0994
  496MOL0     H68446   7.572  11.674   4.145  0.8372  0.3261  0.8631
  496MOL0     H68447   7.559  11.506   4.080  2.3355  1.2647 -0.4411
  496MOL0     H68448   7.427  11.579   4.179 -0.3111  1.2069 -1.3481
  497MOL0     O68449   6.486   1.464   9.050 -0.5312 -0.0061 -0.2733
  497MOL0     C68450   6.443   1.406   8.955 -0.5614 -0.9411 -0.0946
  497MOL0     O68451   6.524   1.331   8.877  0.2682 -0.5424  0.0828
  497MOL0     C68452   6.654   1.339   8.893 -0.6026  0.1528 -0.5606
  497MOL0     C68453   6.713   1.460   8.851 -0.3226 -0.4643  0.3088
  497MOL0     C68454   6.852   1.478   8.842  0.5689  1.9051  0.0043
  497MOL0     C68455   6.934   1.380   8.896 -0.3620  0.0715 -0.5885
  497MOL0     O68456   7.077   1.380   8.892  0.6839 -0.2613  0.3854
  497MOL0     C68457   7.145   1.486   8.952 -0.6790 -0.1133  0.6940
  497MOL0     C68458   7.239   1.543   8.846  0.2292 -0.4122 -0.1304
  497MOL0     C68459   7.359   1.447   8.827 -0.0558  0.3531  0.3217
  497MOL0     C68460   7.456   1.491   8.718 -0.0812 -0.1879 -0.1579
  497MOL0     C68461   7.553   1.387   8.672  0.6187  0.2266 -0.1307
  497MOL0     C68462   7.588   1.418   8.521 -0.0518  0.4517 -0.4053
  497MOL0     C68463   7.646   1.290   8.456  0.0117  0.2331  0.3101
  497MOL0     C68464   7.777   1.243   8.526  0.0205  0.2890  0.3291
  497MOL0     N68465   7.840   1.128   8.454  0.7777  0.1943 -0.5626
  497MOL0     C68466   7.927   1.037   8.508 -0.0270 -0.1789 -0.2150
  497MOL0     C68467   7.964   0.956   8.401 -0.3832 -0.1392  0.4775
  497MOL0     C68468   8.057   0.842   8.394 -0.8503  0.4918 -0.1829
  497MOL0     C68469   8.208   0.867   8.363  0.4619 -0.5293 -0.4412
  497MOL0     C68470   8.234   0.959   8.246  0.3806  0.3588 -0.0976
  497MOL0     C68471   8.377   1.013   8.239 -0.1359  0.5258  0.0682
  497MOL0     O68472   8.448   0.948   8.131  0.7959  0.5380  0.1908
  497MOL0     C68473   8.579   0.972   8.109 -0.5059 -0.1602  0.2908
  497MOL0     C68474   8.671   1.016   8.205 -1.2959  0.4157 -0.5154
  497MOL0     C68475   8.805   1.052   8.177  0.0095  0.0260 -1.3413
  497MOL0     C68476   8.891   1.097   8.297 -0.3746  0.4992 -0.3221
  497MOL0     C68477   8.851   1.035   8.046 -0.2549  0.1151  0.0083
  497MOL0     C68478   8.983   1.059   7.999  0.9096 -1.4571  0.2605
  497MOL0     O68479   9.066   1.131   8.087 -0.6583  0.6717 -0.0165
  497MOL0     C68480   9.203   1.104   8.062 -0.1253 -1.1929 -0.2102
  497MOL0     C68481   9.286   1.211   8.018  0.3432 -0.3031  0.0073
  497MOL0     C68482   9.422   1.188   8.011  0.4432 -1.0453 -0.0799
  497MOL0     C68483   9.481   1.066   8.037 -0.5666 -1.0785  0.2065
  497MOL0     O68484   9.619   1.047   8.022  0.3335 -0.5748 -0.3135
  497MOL0     C68485   9.699   1.156   7.978 -1.5626 -0.5820  0.1380
  497MOL0     C68486   9.844   1.105   7.956  0.1999  0.2361 -0.2050
  497MOL0     C68487   9.941   1.219   7.949 -0.4350 -0.1923  0.1546
  497MOL0     C68488  10.079   1.164   7.952  0.7417 -0.0384  0.0980
  497MOL0     C68489  10.184   1.269   7.925  0.8649  0.1170 -0.0214
  497MOL0     C68490  10.323   1.226   7.868 -0.5453 -0.7523  0.5759
  497MOL0     C68491  10.425   1.343   7.814  0.1878  0.3076  0.0740
  497MOL0     C68492  10.570   1.284   7.768  0.6127  0.3698  0.4261
  497MOL0    Cl68493  10.543   1.129   7.684  0.1223 -0.2159  0.2283
  497MOL0     C68494   9.397   0.959   8.067  0.3917 -0.2700  1.2766
  497MOL0     C68495   9.261   0.982   8.089  0.3027  0.6774  0.9028
  497MOL0     O68496   9.015   1.025   7.886  0.0894 -0.8194  1.0373
  497MOL0     C68497   8.762   0.980   7.947  0.0352  0.0695 -1.1359
  497MOL0     C68498   8.626   0.962   7.983  0.0475 -0.0081  0.5311
  497MOL0     N68499   7.893   0.993   8.291 -0.1098 -0.7240  1.1453
  497MOL0     N68500   7.823   1.097   8.318  0.1409 -0.3993  0.2653
  497MOL0     C68501   6.874   1.257   8.932  0.6179 -0.7313 -0.1285
  497MOL0     C68502   6.738   1.236   8.933  0.5407 -0.2783 -0.5484
  497MOL0     C68503   6.296   1.408   8.935 -0.4810  0.1928  0.7602
  497MOL0     C68504   6.220   1.419   9.053 -0.9684 -1.0817 -0.1437
  497MOL0     C68505   6.077   1.430   9.053  0.0511  0.8623  0.5378
  497MOL0     C68506   6.013   1.420   8.934  0.4465  0.0276 -0.1925
  497MOL0     O68507   5.878   1.400   8.922  0.1705  0.3556  0.3855
  497MOL0     C68508   5.792   1.499   8.974 -0.3331 -0.1822  0.6764
  497MOL0     C68509   5.679   1.433   9.052  1.2756 -0.6668 -0.1289
  497MOL0     C68510   5.566   1.531   9.106 -0.4952 -0.1737  0.4147
  497MOL0     C68511   5.477   1.453   9.195  0.5521  0.3762 -0.4837
  497MOL0     C68512   5.355   1.532   9.212  0.8253  0.0212 -0.6768
  497MOL0     C68513   5.250   1.599   9.211  0.3701 -0.7978 -1.2052
  497MOL0     C68514   6.092   1.422   8.816 -0.4921 -0.0100 -0.4923
  497MOL0     C68515   6.231   1.415   8.810 -0.4243 -0.6656 -0.1157
  497MOL0     C68516   6.302   1.410   8.681  0.4876 -0.0807  0.1845
  497MOL0     H68517   6.651   1.541   8.816  1.3761  1.2289  1.0207
  497MOL0     H68518   6.889   1.573   8.804 -0.9129  1.9557 -1.4048
  497MOL0     H68519   7.192   1.421   9.027  1.7273  0.7393  0.0145
  497MOL0     H68520   7.093   1.568   9.001 -0.7607 -0.0338  0.4752
  497MOL0     H68521   7.179   1.553   8.755  1.2340 -0.9278 -0.8750
  497MOL0     H68522   7.272   1.643   8.874 -0.3775  0.2444 -1.6751
  497MOL0     H68523   7.411   1.443   8.923  0.4320 -0.8762  0.0280
  497MOL0     H68524   7.326   1.344   8.810  0.6141  0.0780  0.6498
  497MOL0     H68525   7.394   1.532   8.638  1.4289  0.3235 -1.1088
  497MOL0     H68526   7.512   1.567   8.773  0.4605  0.1073 -1.0887
  497MOL0     H68527   7.510   1.286   8.677  2.2537 -0.6410 -2.0166
  497MOL0     H68528   7.641   1.382   8.736 -0.8990  0.0738  2.0896
  497MOL0     H68529   7.507   1.462   8.463 -0.2057  0.1954 -0.3854
  497MOL0     H68530   7.665   1.496   8.525 -0.9676  1.3379  1.3828
  497MOL0     H68531   7.675   1.318   8.355  2.4325 -0.8650  0.6449
  497MOL0     H68532   7.572   1.210   8.454 -0.3035  0.4760  1.4780
  497MOL0     H68533   7.853   1.319   8.545  1.8724 -1.6086  0.9077
  497MOL0     H68534   7.759   1.217   8.631 -1.3483  0.4236  0.1565
  497MOL0     H68535   7.965   1.035   8.610 -0.8629  1.7180  0.1792
  497MOL0     H68536   8.023   0.780   8.310 -0.3798 -2.3172  1.5761
  497MOL0     H68537   8.051   0.778   8.482 -1.1419 -1.7676 -1.7457
  497MOL0     H68538   8.246   0.910   8.456  0.6771  0.9029 -1.1643
  497MOL0     H68539   8.250   0.768   8.344 -2.0505 -1.8732  0.4452
  497MOL0     H68540   8.202   0.914   8.152  1.0639  0.4850 -0.4036
  497MOL0     H68541   8.168   1.045   8.261  1.8207  1.9341 -2.0916
  497MOL0     H68542   8.383   1.121   8.223 -0.3277  0.6059  0.5208
  497MOL0     H68543   8.421   0.983   8.334 -0.2694  1.1262  0.3216
  497MOL0     H68544   8.632   1.030   8.306 -4.5382  2.5521 -1.9040
  497MOL0     H68545   8.963   1.016   8.310 -0.2661  0.9273  2.2486
  497MOL0     H68546   8.828   1.103   8.387 -0.8120  0.6494 -0.6351
  497MOL0     H68547   8.928   1.199   8.286 -0.3016  0.6316  0.9383
  497MOL0     H68548   9.246   1.311   7.999  2.7473  0.3194 -2.3328
  497MOL0     H68549   9.474   1.281   7.992 -3.7729  2.0609  1.9153
  497MOL0     H68550   9.663   1.210   7.890  0.6980  0.8275  0.0160
  497MOL0     H68551   9.710   1.229   8.059 -0.8506 -1.0396  0.4618
  497MOL0     H68552   9.860   1.041   8.043 -3.0946 -1.2050 -0.5044
  497MOL0     H68553   9.854   1.042   7.867  3.7868 -1.6236  1.3269
  497MOL0     H68554   9.943   1.298   8.024 -0.0771 -0.6435  0.6264
  497MOL0     H68555   9.924   1.260   7.849  4.1384  1.1767 -0.2637
  497MOL0     H68556  10.098   1.081   7.884  1.8495  0.6250 -0.4237
  497MOL0     H68557  10.102   1.116   8.048  0.3185  0.6469  0.5499
  497MOL0     H68558  10.147   1.348   7.858  0.0147  1.2811  1.7529
  497MOL0     H68559  10.201   1.317   8.022  1.0071 -0.5898  0.3088
  497MOL0     H68560  10.301   1.157   7.786 -0.1295  0.8433 -0.9413
  497MOL0     H68561  10.372   1.175   7.952  1.6424  1.3279  0.6586
  497MOL0     H68562  10.436   1.419   7.892  0.0501 -0.1243  0.5265
  497MOL0     H68563  10.379   1.396   7.731  0.3724  0.4385  0.0567
  497MOL0     H68564  10.641   1.285   7.850  1.4533  1.9944 -0.2618
  497MOL0     H68565  10.617   1.360   7.705  1.7492 -0.1135  0.6632
  497MOL0     H68566   9.437   0.864   8.099  0.2922 -0.1954  1.6220
  497MOL0     H68567   9.197   0.904   8.128  0.3977  0.8519  1.4171
  497MOL0     H68568   8.779   0.963   7.841 -0.2711 -0.2457 -1.1356
  497MOL0     H68569   8.553   0.926   7.911  0.1888 -2.5260  1.5253
  497MOL0     H68570   6.943   1.189   8.980 -0.7203  0.6368  4.2539
  497MOL0     H68571   6.703   1.137   8.959 -1.4406  0.4462 -0.3515
  497MOL0     H68572   6.270   1.428   9.149  0.2117  1.3298 -0.9090
  497MOL0     H68573   6.035   1.449   9.151  0.8640  1.4516  0.7863
  497MOL0     H68574   5.842   1.572   9.039  0.5358  1.4274 -1.6646
  497MOL0     H68575   5.753   1.559   8.891 -0.3180 -3.7173 -2.0987
  497MOL0     H68576   5.722   1.382   9.138  3.6266  1.6476  0.1996
  497MOL0     H68577   5.632   1.352   8.995 -2.8620 -0.7638  2.9569
  497MOL0     H68578   5.603   1.621   9.155 -0.6238  0.0684  0.0764
  497MOL0     H68579   5.509   1.560   9.016  1.0512 -2.5143 -1.4526
  497MOL0     H68580   5.523   1.436   9.293 -0.2886 -1.0550 -0.3207
  497MOL0     H68581   5.457   1.356   9.150  1.6755 -1.8543  3.3115
  497MOL0     H68582   5.160   1.656   9.217  1.3954  0.6948  1.6231
  497MOL0     H68583   6.031   1.427   8.726  0.2437  0.3525 -0.9851
  497MOL0     H68584   6.363   1.500   8.674 -0.1827  0.3024 -0.9771
  497MOL0     H68585   6.353   1.313   8.676  0.5999 -0.1066  1.4014
  497MOL0     H68586   6.229   1.419   8.600  1.0803  0.7657 -0.2598
  498MOL0     O68587   4.949   6.501   4.087  0.0001 -0.1142 -0.1903
  498MOL0     C68588   4.887   6.418   4.019 -0.0690 -0.2025 -0.7625
  498MOL0     O68589   4.905   6.410   3.885  0.0096 -0.0127  0.4811
  498MOL0     C68590   5.019   6.463   3.824 -0.1173  0.1940 -0.5484
  498MOL0     C68591   5.149   6.456   3.875 -0.0467 -0.2087  0.4703
  498MOL0     C68592   5.254   6.525   3.814  0.5748  0.6047 -0.5731
  498MOL0     C68593   5.231   6.583   3.689  0.4465  0.5980  0.2521
  498MOL0     O68594   5.341   6.629   3.617  0.3585 -0.2514  0.4522
  498MOL0     C68595   5.352   6.774   3.627 -0.7004  0.2856  0.3092
  498MOL0     C68596   5.482   6.829   3.559 -0.4013 -0.5976  0.5576
  498MOL0     C68597   5.605   6.744   3.593  0.6374  0.4467  0.5172
  498MOL0     C68598   5.688   6.797   3.714  0.2708  0.0794  0.1336
  498MOL0     C68599   5.826   6.728   3.738 -0.4473  0.4083 -0.1518
  498MOL0     C68600   5.893   6.771   3.869 -0.0313  0.7267  0.6220
  498MOL0     C68601   5.935   6.911   3.883 -0.4947 -0.5825  0.4620
  498MOL0     C68602   5.935   6.970   4.025 -0.1108 -0.2422  0.3696
  498MOL0     N68603   6.042   6.897   4.099  0.9472  0.1224  0.1801
  498MOL0     C68604   6.170   6.945   4.133 -0.2364 -0.0231  0.3601
  498MOL0     C68605   6.236   6.847   4.194  0.2460 -1.1298  1.0809
  498MOL0     C68606   6.372   6.870   4.249 -0.4968  0.5544  0.3251
  498MOL0     C68607   6.438   6.745   4.270 -0.3541 -0.5862 -0.6627
  498MOL0     C68608   6.558   6.762   4.365  0.3367  1.2361 -0.2434
  498MOL0     C68609   6.661   6.646   4.361  0.2718  0.5759  0.5127
  498MOL0     O68610   6.781   6.674   4.426 -0.8701 -0.1315  0.2454
  498MOL0     C68611   6.894   6.601   4.385  0.0101 -0.0636  1.0593
  498MOL0     C68612   7.000   6.666   4.324  0.7406  0.1202 -0.2891
  498MOL0     C68613   7.112   6.597   4.270 -1.0156  0.0477 -0.3379
  498MOL0     C68614   7.218   6.674   4.194  0.0322 -0.1305 -0.3005
  498MOL0     C68615   7.118   6.451   4.273 -0.0720 -0.5590  0.3162
  498MOL0     C68616   7.233   6.369   4.221  0.1864 -0.3790  0.2616
  498MOL0     O68617   7.208   6.239   4.183  0.5817  0.3734 -0.0821
  498MOL0     C68618   7.300   6.147   4.165  0.0338 -0.4919 -0.5719
  498MOL0     C68619   7.310   6.037   4.259 -0.4127  0.9832  0.6373
  498MOL0     C68620   7.401   5.933   4.229 -0.9783  0.5898 -0.1708
  498MOL0     C68621   7.478   5.939   4.112  0.3462 -0.3610 -0.2830
  498MOL0     O68622   7.568   5.840   4.075 -0.9410 -0.5947 -0.0984
  498MOL0     C68623   7.502   5.713   4.062 -0.9731  0.0441  0.8730
  498MOL0     C68624   7.528   5.639   3.929  0.0876 -0.4207  1.1414
  498MOL0     C68625   7.471   5.701   3.800  0.2631  0.8507  0.1110
  498MOL0     C68626   7.482   5.590   3.684 -0.1212 -0.1297 -0.1482
  498MOL0     C68627   7.411   5.640   3.556  0.1630  0.0453 -0.1931
  498MOL0     C68628   7.462   5.769   3.491 -0.0285  0.4843 -0.3146
  498MOL0     C68629   7.367   5.816   3.380 -0.4805  0.5171  0.0346
  498MOL0     C68630   7.414   5.946   3.317  0.0864  0.1082 -0.5911
  498MOL0    Cl68631   7.575   5.949   3.253 -0.2869  0.1336 -0.0513
  498MOL0     C68632   7.473   6.046   4.021 -1.1373 -0.7912 -0.5396
  498MOL0     C68633   7.383   6.152   4.054  0.0356  0.3059  0.2653
  498MOL0     O68634   7.340   6.415   4.225  0.4382  1.1410  0.5341
  498MOL0     C68635   7.013   6.385   4.335 -0.1371 -0.5653  0.4037
  498MOL0     C68636   6.902   6.462   4.378  0.9879 -0.6296  0.5361
  498MOL0     N68637   6.142   6.745   4.224 -0.3669 -0.3081  0.1121
  498MOL0     N68638   6.037   6.778   4.162  1.3124 -0.5093 -0.1046
  498MOL0     C68639   5.104   6.587   3.639 -0.4647 -0.1949  0.1058
  498MOL0     C68640   4.995   6.541   3.712  0.6340 -0.8151  0.3098
  498MOL0     C68641   4.777   6.338   4.075 -0.2068 -0.1746 -1.2350
  498MOL0     C68642   4.662   6.308   3.996 -0.5272 -0.0008  0.0631
  498MOL0     C68643   4.538   6.271   4.038 -0.8562 -0.2990  0.0143
  498MOL0     C68644   4.522   6.252   4.175 -0.8228  0.5229 -0.7181
  498MOL0     O68645   4.391   6.225   4.208 -0.1797 -0.2402 -0.2818
  498MOL0     C68646   4.341   6.233   4.346 -0.3269 -0.9540  1.4391
  498MOL0     C68647   4.285   6.372   4.366 -0.4757  0.6089 -0.0637
  498MOL0     C68648   4.153   6.408   4.281 -0.3346 -0.5092 -0.1814
  498MOL0     C68649   4.024   6.338   4.329 -0.4199  0.5061 -0.6624
  498MOL0     C68650   3.929   6.419   4.407  0.6277  0.0738 -0.2650
  498MOL0     C68651   3.854   6.481   4.482 -0.3141 -0.2666 -0.0365
  498MOL0     C68652   4.635   6.270   4.260 -0.4695 -0.5783  0.1533
  498MOL0     C68653   4.760   6.309   4.214 -0.1274  0.5762  0.6988
  498MOL0     C68654   4.869   6.319   4.311 -0.2839  1.4299 -0.1781
  498MOL0     H68655   5.167   6.393   3.962 -1.2178  1.0969  1.6904
  498MOL0     H68656   5.352   6.523   3.860 -0.4530 -0.0613  1.7426
  498MOL0     H68657   5.354   6.805   3.732  3.0479  0.2955  0.3853
  498MOL0     H68658   5.262   6.820   3.585 -0.9408  1.3354  1.9036
  498MOL0     H68659   5.472   6.839   3.450  4.6528  0.6681 -0.0411
  498MOL0     H68660   5.506   6.929   3.595  2.1368 -0.8352 -0.2690
  498MOL0     H68661   5.575   6.640   3.614 -0.2311  0.3822 -0.8980
  498MOL0     H68662   5.671   6.745   3.506  1.5697 -0.1717  1.1987
  498MOL0     H68663   5.702   6.904   3.698 -2.3268  0.5421  0.3984
  498MOL0     H68664   5.618   6.793   3.799  0.8344  0.5148  0.6215
  498MOL0     H68665   5.884   6.751   3.649  1.0275  0.0807  0.6991
  498MOL0     H68666   5.819   6.618   3.743  4.9843 -0.1120  2.8672
  498MOL0     H68667   5.827   6.735   3.948 -1.1775  0.6185 -0.3480
  498MOL0     H68668   5.980   6.705   3.860 -0.2525  0.6538 -1.5200
  498MOL0     H68669   5.873   6.985   3.834  1.2554  1.7173  1.5196
  498MOL0     H68670   6.038   6.920   3.846  0.0989  1.4370  2.4074
  498MOL0     H68671   5.962   7.076   4.030  0.6746 -0.4587  0.8881
  498MOL0     H68672   5.834   6.957   4.064 -0.9849 -0.8078 -1.9155
  498MOL0     H68673   6.219   7.032   4.092  0.7602 -1.8511 -2.6324
  498MOL0     H68674   6.366   6.926   4.342  0.2267  1.2285 -0.0221
  498MOL0     H68675   6.423   6.933   4.175  0.9463 -0.8962  0.0239
  498MOL0     H68676   6.358   6.690   4.321 -0.2772  0.1842  0.3101
  498MOL0     H68677   6.460   6.704   4.170  0.2874  0.6674 -1.0593
  498MOL0     H68678   6.611   6.850   4.327 -0.5426  1.3502 -1.2391
  498MOL0     H68679   6.534   6.769   4.471 -0.7893 -0.5302 -0.3504
  498MOL0     H68680   6.621   6.550   4.398  0.3172  0.4727  0.2927
  498MOL0     H68681   6.677   6.619   4.257 -0.1380  0.6949  0.4178
  498MOL0     H68682   7.008   6.774   4.334  2.4642 -0.1314  1.8109
  498MOL0     H68683   7.216   6.632   4.093 -1.8493  1.1103 -0.8304
  498MOL0     H68684   7.315   6.667   4.243  0.2876  1.0650 -0.6168
  498MOL0     H68685   7.183   6.776   4.179  2.5962  1.0811  1.4275
  498MOL0     H68686   7.246   6.032   4.347 -0.8854 -1.6407  0.2351
  498MOL0     H68687   7.411   5.848   4.296 -3.0989  1.0119  0.7621
  498MOL0     H68688   7.560   5.645   4.125  0.8115  1.4562  0.8324
  498MOL0     H68689   7.394   5.712   4.074 -1.0587  0.6547  0.2287
  498MOL0     H68690   7.638   5.643   3.927  0.1903 -2.2496 -0.6338
  498MOL0     H68691   7.505   5.532   3.936  0.7246 -0.6702 -0.2326
  498MOL0     H68692   7.546   5.777   3.777  1.2811  0.6096  2.4173
  498MOL0     H68693   7.371   5.747   3.802 -0.7743 -1.1871 -1.1665
  498MOL0     H68694   7.435   5.495   3.712  3.0797 -2.0107 -0.6691
  498MOL0     H68695   7.587   5.569   3.661  0.1464  0.4792  0.4702
  498MOL0     H68696   7.404   5.558   3.484  1.1824 -0.4157  0.2191
  498MOL0     H68697   7.306   5.661   3.579  0.0492 -0.0722 -0.5929
  498MOL0     H68698   7.559   5.737   3.453  0.6709 -1.6253  2.8202
  498MOL0     H68699   7.478   5.856   3.556  0.0731 -0.0136  0.3361
  498MOL0     H68700   7.264   5.836   3.412 -0.5002  1.8011 -0.7529
  498MOL0     H68701   7.361   5.743   3.299  1.1814  1.1287 -0.6791
  498MOL0     H68702   7.417   6.029   3.389  1.2428  0.9279 -1.5562
  498MOL0     H68703   7.349   5.977   3.235  0.1670 -0.9080 -1.0485
  498MOL0     H68704   7.534   6.045   3.931  1.2735 -0.2814  0.9967
  498MOL0     H68705   7.379   6.240   3.991  2.4237  0.0923 -0.2818
  498MOL0     H68706   7.014   6.276   4.331  2.9377 -0.6135 -0.8242
  498MOL0     H68707   6.810   6.415   4.411 -0.9189  0.7033 -2.3828
  498MOL0     H68708   5.087   6.638   3.544 -1.3393 -3.0060 -1.3605
  498MOL0     H68709   4.892   6.546   3.676 -0.1193 -3.6085  1.7607
  498MOL0     H68710   4.671   6.322   3.889 -1.2270 -0.3950 -0.0515
  498MOL0     H68711   4.456   6.247   3.971 -1.2284  2.2998 -0.5691
  498MOL0     H68712   4.251   6.175   4.366 -0.5307 -1.5288 -0.8648
  498MOL0     H68713   4.416   6.218   4.425  1.4935  0.5561  0.0963
  498MOL0     H68714   4.368   6.444   4.359  0.1140 -0.0806 -0.2718
  498MOL0     H68715   4.264   6.367   4.474  0.7530  0.1231  0.1735
  498MOL0     H68716   4.141   6.517   4.292  1.9877 -0.1910 -0.2585
  498MOL0     H68717   4.179   6.389   4.177  0.2472  0.4100 -0.2252
  498MOL0     H68718   4.053   6.257   4.397  2.4054  2.4501  0.6788
  498MOL0     H68719   3.962   6.294   4.250  0.8601 -0.2193 -1.2989
  498MOL0     H68720   3.785   6.514   4.557  1.2291 -1.8552  2.1984
  498MOL0     H68721   4.627   6.246   4.366 -0.3575 -1.6381 -0.0673
  498MOL0     H68722   4.961   6.278   4.269 -1.3322 -2.8311  1.1362
  498MOL0     H68723   4.894   6.422   4.337  0.3105  1.6313 -1.4793
  498MOL0     H68724   4.842   6.263   4.402 -1.4053  1.8953 -0.2077
  499MOL0     O68725  11.163   6.041   7.606 -0.1155  1.1638 -0.2569
  499MOL0     C68726  11.129   6.012   7.491 -0.7230  1.3879 -0.4691
  499MOL0     O68727  11.206   6.013   7.381  0.6015  0.2767  0.3604
  499MOL0     C68728  11.325   6.079   7.396 -0.7371  0.3112 -0.2607
  499MOL0     C68729  11.426   6.025   7.480  0.6838 -0.4168  0.2465
  499MOL0     C68730  11.549   6.093   7.478  0.2598  0.1364 -0.6157
  499MOL0     C68731  11.568   6.216   7.403  0.6216 -0.3536 -0.0985
  499MOL0     O68732  11.683   6.298   7.420  0.6536  0.2855  0.4470
  499MOL0     C68733  11.734   6.323   7.558  0.2346  0.0156  0.3353
  499MOL0     C68734  11.846   6.420   7.553 -0.7166 -0.1271  0.0956
  499MOL0     C68735  11.961   6.369   7.471  0.4157  0.3328  0.3116
  499MOL0     C68736  12.073   6.480   7.468  0.2652  0.3983  0.2281
  499MOL0     C68737  12.198   6.445   7.380  0.5707  0.4490  0.3813
  499MOL0     C68738  12.267   6.579   7.351  0.6386  0.5721  0.2017
  499MOL0     C68739  12.395   6.539   7.290  0.4186 -0.1880  0.0731
  499MOL0     C68740  12.473   6.661   7.237  0.1517 -0.4634  0.0742
  499MOL0     N68741  12.539   6.763   7.329 -0.2175  0.2925 -0.6168
  499MOL0     C68742  12.581   6.732   7.455  0.5045  0.7671 -0.0144
  499MOL0     C68743  12.635   6.845   7.506  0.1193 -0.1066 -0.4601
  499MOL0     C68744  12.702   6.872   7.636  0.0314 -0.2452  0.0757
  499MOL0     C68745  12.836   6.810   7.643 -0.1061  0.7587 -0.8914
  499MOL0     C68746  12.886   6.803   7.788  0.6057 -0.3697  0.1861
  499MOL0     C68747  13.032   6.766   7.809 -0.2163 -0.9256 -0.7714
  499MOL0     O68748  13.100   6.859   7.728 -0.3072  0.1959  0.1593
  499MOL0     C68749  13.218   6.920   7.778  0.7285  0.5124 -0.0652
  499MOL0     C68750  13.229   7.060   7.754 -0.9155  0.2170  0.7040
  499MOL0     C68751  13.338   7.146   7.810  1.3410  0.3037 -0.1917
  499MOL0     C68752  13.333   7.292   7.782 -0.2507  0.2651  0.9150
  499MOL0     C68753  13.430   7.078   7.891 -0.2609  0.1035  0.6263
  499MOL0     C68754  13.539   7.144   7.971  0.3718  0.4406  0.4176
  499MOL0     O68755  13.651   7.075   8.010  0.8006  0.4110 -0.5507
  499MOL0     C68756  13.756   7.149   8.069  0.0367 -0.0004  0.2857
  499MOL0     C68757  13.747   7.205   8.198 -0.0289 -0.4948 -0.3901
  499MOL0     C68758  13.858   7.260   8.260  0.6274  0.7670  0.1686
  499MOL0     C68759  13.978   7.254   8.196  0.1832  0.6258  0.5663
  499MOL0     O68760  14.079   7.315   8.260 -0.4629 -0.0090 -0.9870
  499MOL0     C68761  14.216   7.262   8.246 -0.1159 -0.3083  0.0403
  499MOL0     C68762  14.233   7.174   8.361 -0.3257  0.2340  0.7524
  499MOL0     C68763  14.251   7.235   8.496 -0.1383 -0.4751  0.3886
  499MOL0     C68764  14.249   7.127   8.611  0.2125 -0.6420  1.1711
  499MOL0     C68765  14.235   7.187   8.747  0.4918 -0.2428 -0.1248
  499MOL0     C68766  14.235   7.090   8.858  0.5344  0.1658  0.9867
  499MOL0     C68767  14.226   7.141   9.004  0.2300 -0.4012 -0.1043
  499MOL0     C68768  14.189   7.034   9.106 -0.2059  0.1010 -0.4629
  499MOL0    Cl68769  14.308   6.900   9.074 -0.1509 -0.1146 -0.3740
  499MOL0     C68770  13.992   7.207   8.068  0.1612 -0.1092 -0.3151
  499MOL0     C68771  13.883   7.153   8.001 -0.2784 -0.0622  0.1354
  499MOL0     O68772  13.522   7.258   7.989 -0.3480 -0.7943 -0.3873
  499MOL0     C68773  13.414   6.934   7.910  0.0020 -0.4709  0.5924
  499MOL0     C68774  13.311   6.858   7.852  0.6349 -1.5344  0.2051
  499MOL0     N68775  12.623   6.940   7.402 -0.3904  0.3306 -0.9163
  499MOL0     N68776  12.567   6.890   7.296  0.0930  0.4533 -0.6031
  499MOL0     C68777  11.468   6.259   7.315 -0.6585  0.2156  0.2059
  499MOL0     C68778  11.349   6.188   7.303  0.7379  0.4198  0.0328
  499MOL0     C68779  10.997   5.930   7.472 -0.9738 -1.0171 -0.1494
  499MOL0     C68780  10.995   5.831   7.373  0.3592  0.9347 -0.8445
  499MOL0     C68781  10.892   5.741   7.368  0.2758  0.0175  0.7264
  499MOL0     C68782  10.792   5.747   7.466  0.1172 -0.1771 -0.1474
  499MOL0     O68783  10.690   5.655   7.454 -0.1526 -0.1764 -0.1251
  499MOL0     C68784  10.612   5.622   7.578  1.2724  0.7532 -0.0797
  499MOL0     C68785  10.470   5.696   7.598  0.7080 -0.7487  0.2497
  499MOL0     C68786  10.404   5.674   7.732  0.6260 -0.1170 -0.0023
  499MOL0     C68787  10.485   5.722   7.854  0.1030  0.0721 -0.2330
  499MOL0     C68788  10.517   5.868   7.856  0.3582  0.2557 -0.2952
  499MOL0     C68789  10.543   5.983   7.862  0.4666  0.7340 -0.1656
  499MOL0     C68790  10.788   5.850   7.556  1.3706  0.0804  0.2089
  499MOL0     C68791  10.887   5.947   7.555 -0.0742 -0.1044  0.2342
  499MOL0     C68792  10.881   6.052   7.664 -0.3456 -0.5827  0.3487
  499MOL0     H68793  11.419   5.928   7.526  0.9280 -0.0322  1.1094
  499MOL0     H68794  11.629   6.060   7.543 -0.7008 -0.2382  0.4051
  499MOL0     H68795  11.781   6.231   7.594  0.0647 -0.8567 -1.5202
  499MOL0     H68796  11.660   6.355   7.632  0.4776  1.5356 -0.0515
  499MOL0     H68797  11.811   6.514   7.511 -1.6492 -0.2984  0.4822
  499MOL0     H68798  11.895   6.444   7.648  1.5585  2.2498 -1.5495
  499MOL0     H68799  12.002   6.278   7.516  0.7649 -0.6028 -1.7678
  499MOL0     H68800  11.928   6.355   7.367  1.0443  1.3037 -0.0318
  499MOL0     H68801  12.030   6.569   7.422  2.2197  0.9593 -0.6139
  499MOL0     H68802  12.103   6.502   7.571 -1.1555  1.2258  0.4933
  499MOL0     H68803  12.167   6.408   7.282  0.7117 -0.9833  0.8504
  499MOL0     H68804  12.257   6.370   7.434  3.2870  2.1929  0.0536
  499MOL0     H68805  12.200   6.639   7.288 -0.0488 -0.1874  0.1902
  499MOL0     H68806  12.279   6.632   7.446  1.2682 -0.8407  0.9299
  499MOL0     H68807  12.373   6.477   7.203  3.1493  0.2673 -1.0448
  499MOL0     H68808  12.455   6.477   7.357  0.8526  1.5234  1.3345
  499MOL0     H68809  12.553   6.640   7.165  1.8075  0.7053  1.4752
  499MOL0     H68810  12.392   6.714   7.187 -0.8665  0.2137  2.2759
  499MOL0     H68811  12.581   6.636   7.507 -2.1523  0.3315 -0.7020
  499MOL0     H68812  12.633   6.847   7.718  0.5415 -0.7853  0.3398
  499MOL0     H68813  12.705   6.981   7.645  1.0328 -0.2300 -0.3118
  499MOL0     H68814  12.824   6.708   7.605  1.2610  1.2569 -2.8087
  499MOL0     H68815  12.905   6.859   7.573  0.5644  0.0191 -0.7638
  499MOL0     H68816  12.854   6.892   7.844 -1.8960 -1.8350  1.2767
  499MOL0     H68817  12.823   6.724   7.830 -1.8513  0.8234 -1.0395
  499MOL0     H68818  13.067   6.780   7.912  1.7348  1.8690 -1.6648
  499MOL0     H68819  13.048   6.664   7.776  0.8775 -0.8847 -0.4299
  499MOL0     H68820  13.161   7.116   7.691 -0.2345  0.5473  0.2439
  499MOL0     H68821  13.435   7.331   7.778  0.1031 -0.7030  0.2569
  499MOL0     H68822  13.279   7.354   7.854 -1.5669  0.9327 -0.5761
  499MOL0     H68823  13.283   7.313   7.687 -0.1834  1.2606  1.0879
  499MOL0     H68824  13.652   7.204   8.251  0.6497  0.2795  0.8715
  499MOL0     H68825  13.861   7.282   8.366  3.5362 -0.6460  0.4569
  499MOL0     H68826  14.240   7.209   8.153 -0.6520  0.8895 -0.8003
  499MOL0     H68827  14.282   7.349   8.254 -2.1275  1.2082  0.8277
  499MOL0     H68828  14.156   7.096   8.363  2.0249 -2.2623  0.0405
  499MOL0     H68829  14.326   7.119   8.346 -0.1045  0.6010  0.7571
  499MOL0     H68830  14.175   7.313   8.509  0.9711  0.5483  0.8797
  499MOL0     H68831  14.353   7.272   8.505 -1.1800  2.4544  1.2157
  499MOL0     H68832  14.346   7.077   8.616 -0.1764 -1.2797  4.4771
  499MOL0     H68833  14.166   7.059   8.592 -1.0821  0.4782  2.5360
  499MOL0     H68834  14.312   7.263   8.759  0.9968 -0.7026 -0.4230
  499MOL0     H68835  14.136   7.235   8.750  1.0768  1.1621 -1.6981
  499MOL0     H68836  14.330   7.039   8.841  2.0509  3.0627  0.1038
  499MOL0     H68837  14.156   7.015   8.844  0.5045  0.3787 -0.0216
  499MOL0     H68838  14.146   7.215   9.009 -1.2863 -2.0312  0.7155
  499MOL0     H68839  14.314   7.195   9.041 -0.4673 -0.1999  1.3503
  499MOL0     H68840  14.087   6.997   9.094 -0.0373 -0.9916  1.1683
  499MOL0     H68841  14.208   7.078   9.204  3.5650  1.3473 -1.5864
  499MOL0     H68842  14.090   7.210   8.021  3.4478  1.4387  5.6886
  499MOL0     H68843  13.903   7.106   7.906  0.5140  3.1885 -1.4269
  499MOL0     H68844  13.485   6.882   7.975  1.9551 -0.5073 -1.4661
  499MOL0     H68845  13.283   6.758   7.882  0.9673 -1.4692  0.7497
  499MOL0     H68846  11.476   6.352   7.260 -0.4226  1.2732  1.9763
  499MOL0     H68847  11.276   6.222   7.230 -0.3193  1.0121  1.3234
  499MOL0     H68848  11.076   5.815   7.303 -0.6140 -1.2178 -1.5625
  499MOL0     H68849  10.890   5.668   7.288 -1.9461  0.2488  0.5270
  499MOL0     H68850  10.598   5.514   7.585 -1.4999  1.0615  0.0585
  499MOL0     H68851  10.678   5.651   7.661  0.7038  4.0477 -0.6455
  499MOL0     H68852  10.405   5.674   7.513  2.7056 -0.0474 -1.5513
  499MOL0     H68853  10.495   5.803   7.592  3.1404 -1.0714  2.5069
  499MOL0     H68854  10.311   5.732   7.727  1.0307  0.4435 -1.3018
  499MOL0     H68855  10.377   5.572   7.762  0.1564  0.4665  1.6688
  499MOL0     H68856  10.569   5.656   7.882  1.1767  1.7744  0.6966
  499MOL0     H68857  10.411   5.697   7.930 -0.7767  0.9560 -0.7787
  499MOL0     H68858  10.555   6.087   7.884 -1.5623  0.9663  0.0561
  499MOL0     H68859  10.705   5.856   7.625 -0.1655 -1.5219 -1.3981
  499MOL0     H68860  10.932   6.016   7.754 -1.0730 -1.0734  0.5753
  499MOL0     H68861  10.932   6.140   7.625  0.9520 -1.2424  0.5001
  499MOL0     H68862  10.783   6.091   7.691  0.0586 -1.2927  3.2702
  500MOL0     O68863   1.831   2.695   2.760 -0.6101 -0.6740 -0.0419
  500MOL0     C68864   1.857   2.695   2.646  0.2558  0.2716 -0.3114
  500MOL0     O68865   1.941   2.778   2.586 -0.4663  0.4757 -0.4549
  500MOL0     C68866   1.995   2.889   2.657 -0.2612  0.2064 -0.1000
  500MOL0     C68867   2.081   2.879   2.764 -0.6961 -0.0696 -0.7849
  500MOL0     C68868   2.125   2.986   2.850 -0.1147 -0.6192  0.1997
  500MOL0     C68869   2.111   3.116   2.785  0.1554  0.2575 -0.4368
  500MOL0     O68870   2.162   3.218   2.850 -0.9849  0.0526  0.4164
  500MOL0     C68871   2.138   3.220   2.988  0.1252 -0.4743  0.0127
  500MOL0     C68872   2.184   3.357   3.055  0.5211 -0.4864 -0.0833
  500MOL0     C68873   2.335   3.385   3.013  0.7586  0.4414 -0.9127
  500MOL0     C68874   2.385   3.490   3.112 -0.3957 -0.2631 -0.7407
  500MOL0     C68875   2.534   3.485   3.115 -0.7096  0.8520  0.2281
  500MOL0     C68876   2.607   3.586   3.205  0.7198  0.2236 -0.1901
  500MOL0     C68877   2.754   3.592   3.169  0.4326 -0.6732  0.6304
  500MOL0     C68878   2.823   3.661   3.286 -0.0493  0.1740  0.1992
  500MOL0     N68879   2.973   3.678   3.252 -0.0662  0.7196 -0.2329
  500MOL0     C68880   3.053   3.786   3.284 -0.3329  0.9517  0.3897
  500MOL0     C68881   3.171   3.751   3.229 -0.0848  0.1840  0.5735
  500MOL0     C68882   3.299   3.828   3.244 -0.2167  0.1373  0.5662
  500MOL0     C68883   3.318   3.906   3.111  0.4307 -0.7137 -0.3503
  500MOL0     C68884   3.443   3.980   3.085  0.1519  0.7754  0.1388
  500MOL0     C68885   3.464   4.085   3.193 -0.2549  0.0189  0.4279
  500MOL0     O68886   3.367   4.191   3.195 -0.8187 -0.2060  0.6043
  500MOL0     C68887   3.377   4.304   3.275  0.4967  0.1191  0.0553
  500MOL0     C68888   3.262   4.377   3.301  0.2492 -0.3681  0.4853
  500MOL0     C68889   3.259   4.496   3.382  0.4687  0.1661 -0.5141
  500MOL0     C68890   3.131   4.565   3.395 -0.3939  0.3220 -0.0991
  500MOL0     C68891   3.380   4.532   3.454 -0.4288  0.2900  0.2856
  500MOL0     C68892   3.392   4.649   3.549  0.4192  1.3232  0.4374
  500MOL0     O68893   3.519   4.664   3.580 -0.4183  0.1245 -0.5807
  500MOL0     C68894   3.562   4.759   3.672 -0.3161  0.2779  0.5778
  500MOL0     C68895   3.672   4.731   3.750  0.4174  0.1831  0.5768
  500MOL0     C68896   3.721   4.817   3.850  0.2492 -0.2055  0.0902
  500MOL0     C68897   3.676   4.949   3.868 -0.2753 -0.4588  0.6946
  500MOL0     O68898   3.730   5.039   3.957  0.8306  0.2067 -0.0306
  500MOL0     C68899   3.873   5.038   3.996  1.4101 -0.7390  0.7602
  500MOL0     C68900   3.954   5.053   3.871  0.1076 -0.2748 -0.2634
  500MOL0     C68901   4.102   5.078   3.897 -1.5857 -0.6235  0.2509
  500MOL0     C68902   4.127   5.214   3.961  1.6320  0.1391  0.8900
  500MOL0     C68903   4.272   5.245   3.957 -0.1650 -1.0086 -0.0005
  500MOL0     C68904   4.296   5.376   4.047 -0.7771  0.1199  0.4091
  500MOL0     C68905   4.443   5.384   4.111  0.1303 -0.8349  0.0406
  500MOL0     C68906   4.510   5.514   4.065  0.2590  0.9240 -1.5120
  500MOL0    Cl68907   4.562   5.492   3.893  0.0080  0.4414 -0.0701
  500MOL0     C68908   3.573   4.980   3.779  0.6528 -0.3917  0.1606
  500MOL0     C68909   3.513   4.888   3.690  0.0015 -0.7268  0.0624
  500MOL0     O68910   3.298   4.716   3.587 -1.2706  0.1368  0.5910
  500MOL0     C68911   3.493   4.442   3.424 -0.2216 -0.0305  0.0456
  500MOL0     C68912   3.486   4.332   3.352 -0.2289  0.2049  0.2296
  500MOL0     N68913   3.168   3.623   3.174  0.2938 -0.6057 -0.4369
  500MOL0     N68914   3.047   3.585   3.184  0.3611 -0.5900 -0.4698
  500MOL0     C68915   2.023   3.131   2.674  0.0038  0.0176 -0.1402
  500MOL0     C68916   1.965   3.015   2.614 -0.2053 -0.7549 -1.2351
  500MOL0     C68917   1.812   2.577   2.573 -0.7540  0.3102  0.2235
  500MOL0     C68918   1.877   2.552   2.450  0.4179 -0.2020  0.4532
  500MOL0     C68919   1.836   2.445   2.359  0.5924  0.1367  0.5830
  500MOL0     C68920   1.728   2.359   2.395 -0.7186  0.5304  0.1667
  500MOL0     O68921   1.686   2.264   2.311 -0.1131  0.2858 -0.1131
  500MOL0     C68922   1.769   2.208   2.209  0.1501 -0.0096  0.2724
  500MOL0     C68923   1.734   2.239   2.060 -0.8821  0.1477  0.1491
  500MOL0     C68924   1.604   2.164   2.014 -0.3636 -0.7529 -0.0818
  500MOL0     C68925   1.579   2.176   1.867  0.3886 -0.1563 -0.2729
  500MOL0     C68926   1.438   2.144   1.833  0.8904 -0.3564 -0.8620
  500MOL0     C68927   1.330   2.123   1.792  1.5616 -0.1020 -0.4517
  500MOL0     C68928   1.668   2.383   2.521  0.3441  0.2015 -0.1867
  500MOL0     C68929   1.701   2.496   2.601 -0.1672  0.5658 -0.3222
  500MOL0     C68930   1.590   2.527   2.711 -0.2635  0.1904 -0.2087
  500MOL0     H68931   2.116   2.782   2.800 -0.6872  0.7457  1.5917
  500MOL0     H68932   2.174   2.952   2.941  0.7550 -1.6550 -0.6259
  500MOL0     H68933   2.194   3.143   3.044  2.0712 -0.0497 -1.2581
  500MOL0     H68934   2.030   3.215   3.000 -0.2270  0.3343 -2.4390
  500MOL0     H68935   2.122   3.441   3.023  1.3313  0.1483 -0.0296
  500MOL0     H68936   2.172   3.354   3.164  0.6701 -2.9999 -0.0901
  500MOL0     H68937   2.390   3.292   3.030  3.2389  2.3692  2.8008
  500MOL0     H68938   2.345   3.428   2.912 -1.6940  0.7758 -1.0897
  500MOL0     H68939   2.354   3.586   3.071 -0.8650  0.2295  0.7099
  500MOL0     H68940   2.343   3.486   3.213 -0.5375 -0.0343 -0.7907
  500MOL0     H68941   2.575   3.514   3.018  0.4274  2.1886  1.0665
  500MOL0     H68942   2.567   3.382   3.124 -1.5248  0.1832 -3.0163
  500MOL0     H68943   2.564   3.687   3.214  0.5518  0.2165 -0.8807
  500MOL0     H68944   2.598   3.549   3.307 -1.3979 -2.8163 -1.3315
  500MOL0     H68945   2.767   3.647   3.075 -1.8916  0.4756  0.9121
  500MOL0     H68946   2.802   3.496   3.149  0.4547 -0.3232 -1.1682
  500MOL0     H68947   2.779   3.756   3.320  0.3430 -0.0164  1.2683
  500MOL0     H68948   2.813   3.598   3.375  0.6214  1.2514  1.0688
  500MOL0     H68949   3.032   3.878   3.338  0.6252  0.6223  1.3596
  500MOL0     H68950   3.381   3.756   3.250  1.1527  1.6264  0.4071
  500MOL0     H68951   3.294   3.895   3.330 -2.4683  0.1197  0.5257
  500MOL0     H68952   3.304   3.835   3.030 -1.2529  0.6947 -1.3590
  500MOL0     H68953   3.232   3.974   3.111 -1.3646 -2.8823  0.4748
  500MOL0     H68954   3.518   3.901   3.088 -0.6393 -0.0420 -1.0457
  500MOL0     H68955   3.433   4.023   2.985 -0.1266 -0.1703 -0.2490
  500MOL0     H68956   3.482   4.037   3.289  1.6570 -2.7020 -1.1393
  500MOL0     H68957   3.558   4.135   3.166 -1.4100  1.9913 -0.1347
  500MOL0     H68958   3.179   4.344   3.240  1.4678 -1.4863 -0.6265
  500MOL0     H68959   3.097   4.563   3.499  0.6838  0.3692  0.2644
  500MOL0     H68960   3.059   4.531   3.320 -0.6487  1.7223 -0.5359
  500MOL0     H68961   3.157   4.670   3.375  1.3422 -0.1314 -0.3267
  500MOL0     H68962   3.728   4.641   3.729  0.0536  0.1086 -0.0906
  500MOL0     H68963   3.804   4.790   3.913 -1.2631 -2.5786  1.2240
  500MOL0     H68964   3.894   5.129   4.052  0.7978  1.3587 -2.1950
  500MOL0     H68965   3.905   4.953   4.057  1.5651 -0.3107  1.2739
  500MOL0     H68966   3.949   4.957   3.818  0.8120 -0.9894  0.9310
  500MOL0     H68967   3.895   5.123   3.811 -0.5385  1.2486  2.0669
  500MOL0     H68968   4.144   5.084   3.796 -3.7988  0.9576 -0.6326
  500MOL0     H68969   4.141   4.988   3.947 -1.3199  0.0913  1.3615
  500MOL0     H68970   4.088   5.205   4.062  0.5498 -0.5685  0.4331
  500MOL0     H68971   4.081   5.286   3.893  1.1181 -0.5051  0.5394
  500MOL0     H68972   4.339   5.169   3.998  3.3533  2.7382  1.9229
  500MOL0     H68973   4.309   5.259   3.855  2.8950  1.8499  1.2819
  500MOL0     H68974   4.226   5.392   4.130  0.3717  1.2430  1.2046
  500MOL0     H68975   4.268   5.462   3.985  0.2993 -0.2982 -0.6958
  500MOL0     H68976   4.501   5.296   4.082  0.5581 -1.1907  1.8729
  500MOL0     H68977   4.436   5.388   4.220  2.0170  1.4059  0.1493
  500MOL0     H68978   4.591   5.541   4.134 -2.2942  1.5016  1.4766
  500MOL0     H68979   4.433   5.591   4.073 -1.9677 -1.1377 -1.8360
  500MOL0     H68980   3.526   5.077   3.773  0.9532 -0.2175  0.6306
  500MOL0     H68981   3.432   4.919   3.624 -0.8529 -1.1105  0.9144
  500MOL0     H68982   3.582   4.458   3.483 -1.6298  1.0860  2.0002
  500MOL0     H68983   3.580   4.278   3.347 -0.9590 -1.0981  0.3180
  500MOL0     H68984   2.026   3.227   2.624  1.7468  1.1001  1.8534
  500MOL0     H68985   1.900   3.040   2.531 -1.0958 -0.3661 -0.4473
  500MOL0     H68986   1.947   2.627   2.415  0.6328 -0.4753  0.2913
  500MOL0     H68987   1.882   2.452   2.261  1.1172 -0.1023  0.8066
  500MOL0     H68988   1.875   2.232   2.224  1.1054 -3.2782 -0.4106
  500MOL0     H68989   1.770   2.099   2.215  3.8691 -0.0461  3.0935
  500MOL0     H68990   1.822   2.206   2.003  0.0569  0.3476  1.4414
  500MOL0     H68991   1.722   2.347   2.049  3.2542  0.5961 -2.2411
  500MOL0     H68992   1.633   2.063   2.042  1.5483 -0.5574 -1.1614
  500MOL0     H68993   1.517   2.209   2.064  0.6353  1.5041 -0.2579
  500MOL0     H68994   1.645   2.112   1.808 -0.3627 -2.7926  1.5620
  500MOL0     H68995   1.611   2.278   1.843  2.3913 -0.9705 -1.2930
  500MOL0     H68996   1.234   2.083   1.767  0.0268  1.3772  2.5231
  500MOL0     H68997   1.576   2.331   2.545  1.7155 -2.2636  0.1176
  500MOL0     H68998   1.548   2.437   2.756 -0.2599  0.8437  1.1530
  500MOL0     H68999   1.620   2.589   2.797  0.5117 -0.3557 -0.0692
  500MOL0     H69000   1.506   2.584   2.672  0.7053  1.8446  0.0463
  501MOL0     O69001   4.918  10.693   6.367 -0.0709  0.0703  0.4583
  501MOL0     C69002   4.874  10.639   6.468  0.5041  0.1434  0.8533
  501MOL0     O69003   4.955  10.586   6.559 -0.4603  0.8046 -0.6087
  501MOL0     C69004   5.087  10.584   6.533  0.3479 -0.5326 -0.0063
  501MOL0     C69005   5.167  10.678   6.593  0.2775  0.0394 -0.0793
  501MOL0     C69006   5.296  10.701   6.550  0.4082  0.1317 -0.4837
  501MOL0     C69007   5.362  10.618   6.464 -0.5288  0.1793 -0.4103
  501MOL0     O69008   5.496  10.617   6.437 -0.0347  0.4223 -0.4918
  501MOL0     C69009   5.586  10.714   6.494  0.4784  0.5414 -1.2464
  501MOL0     C69010   5.695  10.760   6.405  0.2043  1.3290  0.6312
  501MOL0     C69011   5.791  10.646   6.371 -0.0701  0.3030 -0.5402
  501MOL0     C69012   5.917  10.687   6.296 -0.4776  0.2851 -0.8348
  501MOL0     C69013   6.015  10.562   6.264  0.0704 -1.0035 -0.6584
  501MOL0     C69014   6.127  10.607   6.176  0.5839 -0.1951 -0.1445
  501MOL0     C69015   6.227  10.487   6.139  0.5298  0.9460 -0.2192
  501MOL0     C69016   6.186  10.406   6.018  0.6895 -0.4557  0.3285
  501MOL0     N69017   6.045  10.367   6.020 -0.5944 -0.2512  0.5940
  501MOL0     C69018   5.939  10.431   5.960 -0.0683  0.3241  0.6289
  501MOL0     C69019   5.833  10.357   5.973 -0.1120 -0.3748  0.3022
  501MOL0     C69020   5.693  10.376   5.933  0.3314  0.3949 -0.0193
  501MOL0     C69021   5.622  10.471   6.026 -0.5270 -0.1218  0.4918
  501MOL0     C69022   5.481  10.497   5.982 -0.1663  0.0590  0.1451
  501MOL0     C69023   5.408  10.585   6.091 -0.0184  0.6015  0.8870
  501MOL0     O69024   5.440  10.724   6.079  0.0134  0.1471  0.3566
  501MOL0     C69025   5.354  10.816   6.131 -0.4924 -0.0091 -0.8105
  501MOL0     C69026   5.400  10.947   6.136  0.4908 -0.1945  0.7451
  501MOL0     C69027   5.317  11.059   6.165  0.2869 -0.5476 -0.0769
  501MOL0     C69028   5.389  11.189   6.167 -0.7145 -0.2413  0.1012
  501MOL0     C69029   5.178  11.031   6.212 -1.1004  0.4059 -0.9777
  501MOL0     C69030   5.074  11.136   6.227  0.0822  0.3658 -0.0034
  501MOL0     O69031   4.935  11.100   6.243  0.1181  0.0679 -0.1869
  501MOL0     C69032   4.843  11.192   6.279  0.3546 -0.2038  0.0459
  501MOL0     C69033   4.715  11.164   6.229 -0.6691  0.1614  0.0293
  501MOL0     C69034   4.608  11.251   6.253  0.0243 -0.3887 -0.2560
  501MOL0     C69035   4.626  11.369   6.327  0.3630 -0.4193 -0.1282
  501MOL0     O69036   4.511  11.444   6.353 -0.3301  0.9014  0.4274
  501MOL0     C69037   4.512  11.514   6.473 -0.4030  0.1791 -0.0052
  501MOL0     C69038   4.373  11.565   6.496 -0.7960  0.4031  1.1108
  501MOL0     C69039   4.375  11.665   6.610 -0.3399 -0.7282 -0.8523
  501MOL0     C69040   4.243  11.748   6.629  0.8305 -0.4362 -0.0229
  501MOL0     C69041   4.117  11.674   6.592 -0.4754  0.5712  0.0365
  501MOL0     C69042   3.995  11.756   6.618  0.1790 -0.0197  0.3277
  501MOL0     C69043   3.969  11.853   6.504 -0.2601  0.3470  0.1988
  501MOL0     C69044   3.830  11.920   6.514 -0.2024 -0.1865  0.0321
  501MOL0    Cl69045   3.813  12.013   6.656 -0.3190  0.1861  0.1100
  501MOL0     C69046   4.751  11.390   6.379 -0.3923 -0.7611  0.3328
  501MOL0     C69047   4.866  11.309   6.354  0.5949  0.9928 -0.0024
  501MOL0     O69048   5.119  11.251   6.234  0.4583  0.0656  0.1197
  501MOL0     C69049   5.141  10.898   6.219  0.3066 -0.7369  0.1203
  501MOL0     C69050   5.221  10.792   6.180 -0.8447  0.1766 -0.5554
  501MOL0     N69051   5.867  10.236   6.021 -0.3289  0.5037  0.4498
  501MOL0     N69052   5.996  10.241   6.046 -0.0292  0.1718 -0.0515
  501MOL0     C69053   5.293  10.507   6.410 -0.1159  0.2912 -0.1379
  501MOL0     C69054   5.155  10.491   6.440  0.5195 -0.0562  0.1747
  501MOL0     C69055   4.727  10.615   6.488 -0.5021 -0.3977  0.4701
  501MOL0     C69056   4.690  10.517   6.570 -0.2943  0.8753  0.1345
  501MOL0     C69057   4.557  10.473   6.579  0.0698 -0.4600 -0.1518
  501MOL0     C69058   4.454  10.539   6.507 -0.2779 -0.9231 -0.2474
  501MOL0     O69059   4.326  10.525   6.530  0.1970 -0.2133 -0.2328
  501MOL0     C69060   4.250  10.409   6.481 -0.1515 -0.1292  0.2170
  501MOL0     C69061   4.136  10.381   6.578  0.2944  0.5113  0.4845
  501MOL0     C69062   4.013  10.485   6.579 -0.1348  0.4429 -0.2615
  501MOL0     C69063   3.899  10.420   6.654  0.4376  0.4405  0.4395
  501MOL0     C69064   3.785  10.513   6.662  0.1382 -0.8644  1.0324
  501MOL0     C69065   3.700  10.599   6.671 -0.7400  0.8984  1.0051
  501MOL0     C69066   4.490  10.647   6.427 -0.4913 -0.6139 -0.1918
  501MOL0     C69067   4.623  10.691   6.416  0.5462 -0.6203 -0.4211
  501MOL0     C69068   4.648  10.801   6.320 -0.0636 -0.3712 -0.1689
  501MOL0     H69069   5.114  10.736   6.667 -0.9512 -1.6167  0.3867
  501MOL0     H69070   5.354  10.778   6.601  0.6495  0.4600 -1.2294
  501MOL0     H69071   5.628  10.675   6.587 -2.5020  1.0277  0.4285
  501MOL0     H69072   5.538  10.810   6.515 -0.8411 -0.3719  0.1522
  501MOL0     H69073   5.646  10.791   6.313  0.1604  1.0579  0.5629
  501MOL0     H69074   5.751  10.842   6.451  0.5287  0.5020  1.7625
  501MOL0     H69075   5.819  10.592   6.462 -1.5312 -1.6548 -1.1836
  501MOL0     H69076   5.745  10.577   6.300 -0.0903 -1.2860  0.9475
  501MOL0     H69077   5.887  10.752   6.213  2.7047  0.6668 -1.8409
  501MOL0     H69078   5.964  10.762   6.361  1.0496 -1.5975  0.3554
  501MOL0     H69079   5.948  10.486   6.223 -1.8867  0.4231 -0.2016
  501MOL0     H69080   6.061  10.528   6.357 -1.5642 -1.2804  0.0743
  501MOL0     H69081   6.083  10.645   6.083  0.9321  0.9933  0.1541
  501MOL0     H69082   6.173  10.696   6.219  0.5802 -0.6310  0.7944
  501MOL0     H69083   6.239  10.419   6.224  0.3891  0.3089 -0.6994
  501MOL0     H69084   6.322  10.529   6.105 -0.3863  1.0081 -2.8965
  501MOL0     H69085   6.200  10.467   5.929 -1.1297  0.0829  0.3857
  501MOL0     H69086   6.249  10.318   6.003 -0.1750 -0.7646 -1.8307
  501MOL0     H69087   5.936  10.533   5.921  1.3706  0.9073  1.9427
  501MOL0     H69088   5.640  10.281   5.937  0.7146  0.1280 -1.0085
  501MOL0     H69089   5.677  10.427   5.838 -0.6536  1.2898  0.5949
  501MOL0     H69090   5.622  10.428   6.127  3.3020  0.2226  0.7916
  501MOL0     H69091   5.683  10.562   6.030 -0.3238 -0.2846  1.3679
  501MOL0     H69092   5.470  10.550   5.887 -3.3484  0.0830  0.4499
  501MOL0     H69093   5.423  10.405   5.983  0.4588 -0.3587  2.2236
  501MOL0     H69094   5.302  10.567   6.074  0.4646 -0.2608 -1.6503
  501MOL0     H69095   5.430  10.548   6.192 -0.4936  0.2643  0.8719
  501MOL0     H69096   5.506  10.958   6.116  0.9648 -1.6363  2.3003
  501MOL0     H69097   5.406  11.232   6.267  1.4272 -0.0128 -0.3038
  501MOL0     H69098   5.328  11.256   6.107 -4.3045 -4.2604 -1.1777
  501MOL0     H69099   5.487  11.168   6.123  0.7788 -0.6769  3.3300
  501MOL0     H69100   4.700  11.067   6.182 -0.2188  0.3174 -0.4477
  501MOL0     H69101   4.509  11.226   6.216  1.4611 -2.0151 -3.4834
  501MOL0     H69102   4.537  11.452   6.559 -0.2954 -1.7838 -1.3918
  501MOL0     H69103   4.585  11.595   6.465  0.8498 -1.0441 -2.1540
  501MOL0     H69104   4.342  11.608   6.400  1.4409 -2.0376 -0.8593
  501MOL0     H69105   4.304  11.484   6.520 -2.2391  0.8389 -1.2677
  501MOL0     H69106   4.451  11.742   6.595  0.2299 -0.5164  2.2919
  501MOL0     H69107   4.398  11.614   6.704 -1.6260  0.8172  0.3794
  501MOL0     H69108   4.260  11.842   6.575 -0.8235  0.3437  0.7431
  501MOL0     H69109   4.238  11.767   6.736  2.0637  0.3234 -0.0739
  501MOL0     H69110   4.117  11.655   6.484 -1.5688 -0.7008  0.2393
  501MOL0     H69111   4.105  11.589   6.659 -0.6588  0.0639 -0.6385
  501MOL0     H69112   4.009  11.813   6.710  0.6091 -0.0869  0.3045
  501MOL0     H69113   3.909  11.690   6.635  0.5434 -0.8877 -1.0393
  501MOL0     H69114   3.989  11.801   6.409  2.7581 -2.7978  2.3128
  501MOL0     H69115   4.045  11.929   6.519  0.2918 -0.4581  1.6274
  501MOL0     H69116   3.752  11.849   6.486  1.5615 -1.2968 -2.5014
  501MOL0     H69117   3.827  11.993   6.433  3.5703 -0.8714 -0.9041
  501MOL0     H69118   4.773  11.487   6.424  3.3273  0.2674 -3.1298
  501MOL0     H69119   4.961  11.343   6.394  0.5896  0.5986  0.3566
  501MOL0     H69120   5.043  10.877   6.261  0.0010 -0.2302 -0.3290
  501MOL0     H69121   5.164  10.700   6.180 -2.4467  1.1408 -0.5316
  501MOL0     H69122   5.344  10.442   6.340  1.2604  1.0863  0.0927
  501MOL0     H69123   5.105  10.406   6.395  0.4576 -0.0522  0.2363
  501MOL0     H69124   4.766  10.469   6.630 -0.3188  0.5552 -0.0904
  501MOL0     H69125   4.524  10.400   6.652 -1.2128 -0.3616 -0.5989
  501MOL0     H69126   4.199  10.420   6.385  2.7260 -1.7943 -1.6488
  501MOL0     H69127   4.315  10.323   6.463  1.0104  0.5122  1.2103
  501MOL0     H69128   4.184  10.377   6.676  2.2377  3.3636 -0.2271
  501MOL0     H69129   4.101  10.280   6.554  1.7896 -0.2190  1.2722
  501MOL0     H69130   4.043  10.579   6.627 -0.9218  0.4581  0.2282
  501MOL0     H69131   3.990  10.503   6.474 -2.1659 -0.5537 -0.0400
  501MOL0     H69132   3.939  10.393   6.752 -1.7849 -3.2101  0.5290
  501MOL0     H69133   3.884  10.325   6.602  1.1494 -0.1013  1.1960
  501MOL0     H69134   3.636  10.685   6.679 -1.6658  0.5915 -1.9050
  501MOL0     H69135   4.415  10.703   6.370  3.1410  3.5998 -1.4055
  501MOL0     H69136   4.557  10.858   6.300  0.9530  0.9200 -1.3470
  501MOL0     H69137   4.717  10.879   6.353  2.0014 -0.1796 -4.2018
  501MOL0     H69138   4.684  10.764   6.223 -0.4836  0.0388 -0.4893
  502MOL0     O69139   1.554   3.194   8.611 -0.3870 -0.6358 -0.1773
  502MOL0     C69140   1.501   3.178   8.720 -1.2181  0.0626  0.6775
  502MOL0     O69141   1.432   3.064   8.751  0.6382 -0.2876 -0.3382
  502MOL0     C69142   1.402   2.966   8.656 -0.8417 -0.0603 -0.7133
  502MOL0     C69143   1.270   2.942   8.615  0.8155 -0.0694  0.0158
  502MOL0     C69144   1.250   2.841   8.517 -0.0330  0.0856 -0.1191
  502MOL0     C69145   1.354   2.777   8.448 -0.1421  0.2579 -0.9333
  502MOL0     O69146   1.316   2.687   8.359 -0.3928 -0.2338  0.2057
  502MOL0     C69147   1.423   2.616   8.287  0.4850  0.4957 -0.5719
  502MOL0     C69148   1.450   2.671   8.143 -0.5019 -0.0223 -0.3618
  502MOL0     C69149   1.553   2.598   8.050 -0.6472  0.6484  0.2557
  502MOL0     C69150   1.692   2.609   8.106 -0.4158  0.0380  0.5547
  502MOL0     C69151   1.747   2.755   8.095  0.1966  0.1097  0.5727
  502MOL0     C69152   1.889   2.768   8.149 -0.1190 -0.1661 -0.0864
  502MOL0     C69153   1.930   2.914   8.151 -0.4331  0.5809 -0.7002
  502MOL0     C69154   2.069   2.944   8.215 -0.0491  0.7416  0.4738
  502MOL0     N69155   2.127   3.073   8.179 -0.0588 -0.7631  0.3285
  502MOL0     C69156   2.192   3.091   8.050  0.8560 -0.3671 -0.1284
  502MOL0     C69157   2.288   3.186   8.067  1.3839  0.8627 -0.5956
  502MOL0     C69158   2.387   3.238   7.971 -1.0485 -0.4394  0.2294
  502MOL0     C69159   2.530   3.242   8.027  0.0480  0.8965 -0.1921
  502MOL0     C69160   2.635   3.304   7.939 -0.8514 -0.3552 -0.0254
  502MOL0     C69161   2.788   3.287   8.000  0.2132  0.1058 -0.2053
  502MOL0     O69162   2.796   3.397   8.088 -0.4504  0.1357 -0.6813
  502MOL0     C69163   2.923   3.434   8.124  0.2774  0.5880  0.1627
  502MOL0     C69164   2.942   3.560   8.184 -0.1245 -0.6275 -0.9124
  502MOL0     C69165   3.059   3.595   8.241  0.4445 -0.4832  0.5427
  502MOL0     C69166   3.068   3.740   8.288 -0.5807  0.4651  0.5604
  502MOL0     C69167   3.167   3.503   8.241 -0.3080  0.1719  0.4723
  502MOL0     C69168   3.297   3.538   8.292 -0.6508  0.2143 -0.3635
  502MOL0     O69169   3.398   3.461   8.234  0.6854  0.3388 -0.9005
  502MOL0     C69170   3.523   3.478   8.290  0.3291  0.4143 -0.4275
  502MOL0     C69171   3.550   3.459   8.427  0.3469 -0.6146  0.3857
  502MOL0     C69172   3.677   3.499   8.472 -0.0290  0.2346 -0.4188
  502MOL0     C69173   3.770   3.547   8.385 -0.3437  0.5392  0.3951
  502MOL0     O69174   3.888   3.578   8.450  0.1289 -0.7557  0.8376
  502MOL0     C69175   4.004   3.614   8.367 -0.0965 -0.0798 -1.1569
  502MOL0     C69176   4.072   3.497   8.308  0.0877 -0.3803  0.4600
  502MOL0     C69177   4.185   3.546   8.209  0.4826  0.2372  0.2214
  502MOL0     C69178   4.304   3.449   8.206  0.4546  0.4773  0.2649
  502MOL0     C69179   4.384   3.459   8.076 -0.4938 -0.3547 -0.7558
  502MOL0     C69180   4.530   3.473   8.108  0.8616 -0.8709 -1.1368
  502MOL0     C69181   4.598   3.525   7.982 -0.3728  0.5988  0.1917
  502MOL0     C69182   4.749   3.555   8.009  0.3398  0.1351  0.0988
  502MOL0    Cl69183   4.815   3.622   7.854 -0.0441  0.0370 -0.1485
  502MOL0     C69184   3.742   3.575   8.252  0.1356  0.2464  1.0073
  502MOL0     C69185   3.615   3.536   8.205  0.2293  0.1288  0.4103
  502MOL0     O69186   3.313   3.623   8.376  0.1458  0.1947  0.7966
  502MOL0     C69187   3.144   3.375   8.190  0.7039  0.7905  0.8344
  502MOL0     C69188   3.026   3.341   8.132  0.0042  0.4408  0.0550
  502MOL0     N69189   2.294   3.215   8.202  0.5960  0.4285 -0.4421
  502MOL0     N69190   2.195   3.155   8.266 -0.8455  0.4630  1.3016
  502MOL0     C69191   1.490   2.816   8.486  0.5615 -0.1659  1.0858
  502MOL0     C69192   1.515   2.904   8.592 -0.6036  0.7930  0.3069
  502MOL0     C69193   1.513   3.278   8.821 -1.0408  0.1284  0.1173
  502MOL0     C69194   1.444   3.254   8.944  0.1721 -0.3716  0.6135
  502MOL0     C69195   1.426   3.358   9.042 -0.9164 -0.1242  0.8692
  502MOL0     C69196   1.494   3.480   9.029 -0.1372 -0.2355 -0.0220
  502MOL0     O69197   1.488   3.583   9.116  0.4102  0.4392 -0.0594
  502MOL0     C69198   1.395   3.575   9.224  0.2898 -0.2026 -0.5717
  502MOL0     C69199   1.394   3.708   9.296  0.0678 -0.0207  0.0099
  502MOL0     C69200   1.278   3.711   9.402 -0.5072  0.0045 -0.2369
  502MOL0     C69201   1.280   3.596   9.511 -0.7448 -0.4237  0.8645
  502MOL0     C69202   1.406   3.595   9.590 -0.4198 -0.0635  0.4422
  502MOL0     C69203   1.503   3.610   9.651 -0.8889 -0.5394 -0.5566
  502MOL0     C69204   1.584   3.494   8.921 -0.7031 -0.1079  0.6278
  502MOL0     C69205   1.587   3.399   8.816 -0.2206  0.0230 -0.5548
  502MOL0     C69206   1.701   3.418   8.716 -0.2177 -0.2475  0.4966
  502MOL0     H69207   1.180   2.985   8.658 -0.5004 -1.9692 -0.7508
  502MOL0     H69208   1.151   2.799   8.509  0.5026 -0.9899 -1.3213
  502MOL0     H69209   1.377   2.517   8.280 -2.0993  1.5757  0.0520
  502MOL0     H69210   1.517   2.612   8.342 -0.3660 -0.0393  0.8714
  502MOL0     H69211   1.354   2.673   8.090 -0.4763  1.8049 -0.4329
  502MOL0     H69212   1.469   2.778   8.157 -1.3108  0.0507  0.2912
  502MOL0     H69213   1.527   2.493   8.034  2.6858  0.0011 -1.8825
  502MOL0     H69214   1.535   2.650   7.956  0.6734  1.2425  0.3204
  502MOL0     H69215   1.694   2.569   8.208 -0.3875 -1.1770  0.1020
  502MOL0     H69216   1.757   2.542   8.049  1.7957  0.1166  2.8230
  502MOL0     H69217   1.678   2.825   8.145 -1.6723  0.1167 -1.8459
  502MOL0     H69218   1.739   2.777   7.988 -1.3063 -1.3012  0.3549
  502MOL0     H69219   1.899   2.727   8.250  0.8520  2.6775  1.0636
  502MOL0     H69220   1.964   2.714   8.089 -0.5483 -0.0444 -0.7491
  502MOL0     H69221   1.860   2.974   8.210 -1.0488  0.2363 -1.0702
  502MOL0     H69222   1.919   2.961   8.053 -1.0989  0.4419 -0.7012
  502MOL0     H69223   2.063   2.940   8.324  3.1099 -1.2502  0.7198
  502MOL0     H69224   2.138   2.864   8.187 -2.2760 -0.9630 -0.3978
  502MOL0     H69225   2.167   3.048   7.954 -0.4804  1.5097 -0.6807
  502MOL0     H69226   2.365   3.341   7.941 -1.7803 -0.8212 -0.5938
  502MOL0     H69227   2.389   3.181   7.878  0.5691  0.7818 -0.5282
  502MOL0     H69228   2.542   3.293   8.123 -0.2546  1.7834 -0.6189
  502MOL0     H69229   2.561   3.138   8.043  1.9349  1.5208  0.5695
  502MOL0     H69230   2.631   3.261   7.839  0.7273  1.3430 -0.8839
  502MOL0     H69231   2.626   3.413   7.943  0.0702 -0.2863  0.6221
  502MOL0     H69232   2.797   3.191   8.051 -0.7619  1.3326  2.4572
  502MOL0     H69233   2.857   3.307   7.917 -1.6460  0.6177 -1.7037
  502MOL0     H69234   2.860   3.631   8.187 -0.0371 -0.4811  2.7384
  502MOL0     H69235   2.973   3.783   8.256 -0.7010 -0.0308  0.2526
  502MOL0     H69236   3.141   3.802   8.235 -1.8081 -2.0978 -4.7080
  502MOL0     H69237   3.075   3.744   8.398 -1.9890 -0.8479  0.7306
  502MOL0     H69238   3.474   3.434   8.500  0.7535  3.0941  2.2694
  502MOL0     H69239   3.700   3.486   8.577 -0.0674  0.5508 -0.3701
  502MOL0     H69240   3.992   3.699   8.299 -0.5241 -0.4242 -1.5242
  502MOL0     H69241   4.069   3.651   8.446 -1.0172 -1.0031  0.0677
  502MOL0     H69242   4.111   3.432   8.387  1.6442 -0.0757 -0.0229
  502MOL0     H69243   4.000   3.440   8.249  2.4056  0.1752 -3.2091
  502MOL0     H69244   4.221   3.645   8.236  0.9857  0.0240  0.3622
  502MOL0     H69245   4.135   3.558   8.113 -2.4279 -0.4797  1.5450
  502MOL0     H69246   4.264   3.348   8.198  1.8900 -0.0393 -0.9612
  502MOL0     H69247   4.361   3.466   8.298 -1.0720  3.4397  0.7828
  502MOL0     H69248   4.355   3.369   8.021  0.7830 -0.4130 -1.3896
  502MOL0     H69249   4.353   3.540   8.009 -0.0158 -0.1903 -0.7818
  502MOL0     H69250   4.566   3.376   8.144 -0.1111 -1.2284 -1.1060
  502MOL0     H69251   4.536   3.537   8.196  0.8195 -1.0832 -0.9783
  502MOL0     H69252   4.552   3.615   7.939 -2.2955  0.0479  0.9547
  502MOL0     H69253   4.586   3.451   7.903  0.9475 -1.0903  1.5189
  502MOL0     H69254   4.791   3.458   8.038 -1.7319 -0.9398 -0.3375
  502MOL0     H69255   4.758   3.622   8.095  0.0022  1.0753 -0.5879
  502MOL0     H69256   3.811   3.630   8.188 -0.2965 -1.5042 -1.0905
  502MOL0     H69257   3.579   3.556   8.105 -0.5511  1.5853  0.9701
  502MOL0     H69258   3.214   3.292   8.190  1.3139  1.2467 -1.4561
  502MOL0     H69259   3.014   3.240   8.096  0.3232  0.0365  1.0664
  502MOL0     H69260   1.585   2.786   8.443  0.6449 -0.9439  1.8003
  502MOL0     H69261   1.620   2.927   8.609 -0.2042  0.5187 -1.6020
  502MOL0     H69262   1.404   3.154   8.958  0.0366 -0.2905  0.8277
  502MOL0     H69263   1.379   3.333   9.136 -2.1326  2.8402  1.1642
  502MOL0     H69264   1.298   3.550   9.179  1.3948  0.4472 -3.5094
  502MOL0     H69265   1.418   3.493   9.292  0.5137  1.3897  1.3835
  502MOL0     H69266   1.387   3.787   9.221 -1.5684  0.4735  0.6354
  502MOL0     H69267   1.491   3.731   9.342  1.3504 -2.5327 -1.2873
  502MOL0     H69268   1.282   3.805   9.458  1.1686  1.7704 -3.0444
  502MOL0     H69269   1.184   3.710   9.346 -0.8014 -0.1693  0.2529
  502MOL0     H69270   1.265   3.507   9.449  1.2298 -0.2293  0.0550
  502MOL0     H69271   1.191   3.611   9.573 -2.1426  0.2348 -1.1822
  502MOL0     H69272   1.590   3.627   9.712 -2.3267 -1.3803  1.8503
  502MOL0     H69273   1.653   3.577   8.911 -1.5575  0.9468  2.8569
  502MOL0     H69274   1.664   3.472   8.628 -3.5054 -1.8066  0.7896
  502MOL0     H69275   1.778   3.480   8.764  3.2011 -3.7547  0.0295
  502MOL0     H69276   1.752   3.326   8.689  1.1165  1.0744 -1.8032
  503MOL0     O69277   5.034   9.784  11.000  0.1813  0.1683  0.5227
  503MOL0     C69278   5.046   9.888  11.060 -0.6927  0.0926 -1.0381
  503MOL0     O69279   4.950   9.938  11.139 -0.2324 -0.8242  0.1322
  503MOL0     C69280   4.838   9.873  11.162 -0.9619 -1.0485 -0.5708
  503MOL0     C69281   4.829   9.755  11.235  0.0047  0.3844  0.6756
  503MOL0     C69282   4.710   9.684  11.244  0.3932 -0.0576  0.1775
  503MOL0     C69283   4.592   9.737  11.194  0.1327 -0.5029  0.1932
  503MOL0     O69284   4.472   9.656  11.215  0.1364 -0.1566 -0.5669
  503MOL0     C69285   4.361   9.666  11.124 -0.6820 -0.3022 -0.3081
  503MOL0     C69286   4.273   9.546  11.137 -0.2207 -0.5601 -1.0840
  503MOL0     C69287   4.160   9.574  11.033  0.2508 -0.3635 -0.0274
  503MOL0     C69288   4.066   9.457  11.006 -0.9463  0.9882 -0.3534
  503MOL0     C69289   3.950   9.494  10.907 -0.2781  1.0527  0.8499
  503MOL0     C69290   3.843   9.387  10.872 -0.3820  0.3697 -0.0263
  503MOL0     C69291   3.742   9.339  10.979 -0.8519 -0.6859 -0.0778
  503MOL0     C69292   3.646   9.445  11.024  0.0153  0.1389  0.3926
  503MOL0     N69293   3.704   9.555  11.104 -0.5504  0.5225  0.2191
  503MOL0     C69294   3.805   9.542  11.207 -0.1064  0.1131  0.7122
  503MOL0     C69295   3.836   9.665  11.246  0.5035 -0.1456 -0.4335
  503MOL0     C69296   3.928   9.715  11.352  0.9757  0.9836  0.2500
  503MOL0     C69297   4.010   9.832  11.313 -0.0222 -1.0656 -0.3199
  503MOL0     C69298   4.082   9.884  11.439  1.0811 -0.0868  0.2582
  503MOL0     C69299   4.189   9.980  11.395 -0.6852 -0.8389 -0.6623
  503MOL0     O69300   4.276  10.029  11.497  0.2156 -0.2158 -0.4250
  503MOL0     C69301   4.380  10.103  11.450  0.6897  0.0519  0.1775
  503MOL0     C69302   4.374  10.245  11.454 -0.0085  0.2307  0.1425
  503MOL0     C69303   4.467  10.327  11.411 -0.1493  0.4541 -0.7721
  503MOL0     C69304   4.442  10.475  11.428 -0.7025  0.1581  0.3606
  503MOL0     C69305   4.587  10.275  11.363  1.1310 -0.2937  0.7454
  503MOL0     C69306   4.695  10.356  11.300 -0.7997 -0.5227 -0.3529
  503MOL0     O69307   4.767  10.306  11.197  0.8546 -1.1435  0.1225
  503MOL0     C69308   4.857  10.369  11.117 -0.8857 -0.3643 -0.0314
  503MOL0     C69309   4.883  10.506  11.138  0.2301  0.1661  0.8107
  503MOL0     C69310   4.977  10.564  11.046 -0.0762  0.5640  0.0063
  503MOL0     C69311   5.058  10.483  10.962 -0.9065  0.1525  0.0960
  503MOL0     O69312   5.174  10.533  10.901 -0.0615  0.3271 -0.7055
  503MOL0     C69313   5.191  10.676  10.915  0.2251 -0.5207  0.7560
  503MOL0     C69314   5.304  10.734  10.833 -0.1419  0.4442  0.6901
  503MOL0     C69315   5.299  10.693  10.679  0.7702 -0.0422 -1.0095
  503MOL0     C69316   5.412  10.731  10.593  0.9667 -1.0210  0.3258
  503MOL0     C69317   5.393  10.679  10.453 -0.3218  0.1165  0.1435
  503MOL0     C69318   5.500  10.736  10.358 -0.2776  0.2376 -0.3760
  503MOL0     C69319   5.470  10.693  10.218  0.1989  0.6862  0.3167
  503MOL0     C69320   5.552  10.768  10.118  0.2563  0.0631  0.5928
  503MOL0    Cl69321   5.726  10.791  10.159 -0.5702  0.3727 -0.1795
  503MOL0     C69322   5.025  10.347  10.952  1.1209  0.6913  0.7848
  503MOL0     C69323   4.926  10.288  11.027  0.0946  0.6560 -0.9098
  503MOL0     O69324   4.722  10.456  11.371 -0.5230 -0.0565 -0.1653
  503MOL0     C69325   4.602  10.131  11.358 -0.7921 -1.1185 -0.4885
  503MOL0     C69326   4.499  10.043  11.397  0.1664 -0.0837 -0.2481
  503MOL0     N69327   3.740   9.746  11.182  0.0431 -0.3316  0.1477
  503MOL0     N69328   3.665   9.687  11.103 -0.4702 -0.0906 -0.4075
  503MOL0     C69329   4.598   9.856  11.126  1.2206  0.2117  0.1497
  503MOL0     C69330   4.718   9.921  11.106 -0.2449 -0.5569  0.5231
  503MOL0     C69331   5.158   9.979  11.034 -0.0420  0.3817 -0.2419
  503MOL0     C69332   5.201   9.998  10.907 -1.3424 -1.0079  0.5729
  503MOL0     C69333   5.309  10.082  10.878 -0.0967  0.0051 -0.1156
  503MOL0     C69334   5.360  10.167  10.972 -0.3090  0.3811  0.5315
  503MOL0     O69335   5.464  10.255  10.937  0.0483  0.0092 -0.4754
  503MOL0     C69336   5.467  10.381  11.010 -0.5135 -0.0186 -0.1173
  503MOL0     C69337   5.591  10.467  10.970 -0.2139  0.2824  0.1406
  503MOL0     C69338   5.619  10.459  10.821 -0.4310 -0.7927 -0.3662
  503MOL0     C69339   5.752  10.538  10.804  0.9495 -0.3600  1.0132
  503MOL0     C69340   5.750  10.693  10.832  0.3566  1.2121  0.0578
  503MOL0     C69341   5.713  10.808  10.848 -0.3216 -0.1393 -0.4354
  503MOL0     C69342   5.314  10.150  11.101 -0.5655  0.8815 -0.3013
  503MOL0     C69343   5.215  10.056  11.138  0.3130 -0.4881 -0.0433
  503MOL0     C69344   5.179  10.048  11.284  0.1147 -0.0495 -0.3838
  503MOL0     H69345   4.912   9.712  11.291 -0.2484 -0.3575  0.4868
  503MOL0     H69346   4.709   9.579  11.273 -1.0069 -0.8616 -2.3741
  503MOL0     H69347   4.407   9.670  11.025 -2.2182  0.3588 -1.0341
  503MOL0     H69348   4.302   9.757  11.141  1.1041  0.3587  3.5189
  503MOL0     H69349   4.322   9.450  11.120 -1.3414 -0.9875 -2.0327
  503MOL0     H69350   4.233   9.545  11.239  1.2563  1.4997 -0.4169
  503MOL0     H69351   4.098   9.655  11.072  1.0217  1.4749 -2.3897
  503MOL0     H69352   4.201   9.608  10.937 -1.0383  1.4046 -0.0034
  503MOL0     H69353   4.121   9.369  10.972 -3.3311 -0.4770 -0.6521
  503MOL0     H69354   4.018   9.426  11.099 -3.5294  1.7973 -1.3394
  503MOL0     H69355   3.995   9.506  10.808 -2.5222 -0.1503 -0.3907
  503MOL0     H69356   3.913   9.589  10.945  0.3461  0.7285  2.3232
  503MOL0     H69357   3.789   9.425  10.785  0.8840  0.8263 -0.6385
  503MOL0     H69358   3.895   9.301  10.828  2.8175  1.6709  0.9269
  503MOL0     H69359   3.793   9.292  11.064 -1.1739 -1.3282 -0.2342
  503MOL0     H69360   3.678   9.267  10.928 -2.9312  2.4742 -2.3041
  503MOL0     H69361   3.600   9.495  10.938 -2.2673  0.3704  1.6984
  503MOL0     H69362   3.570   9.383  11.071  1.0141 -1.8770 -0.4750
  503MOL0     H69363   3.862   9.454  11.236 -0.4775 -1.0603 -1.7821
  503MOL0     H69364   3.990   9.633  11.389 -1.7201 -1.6715 -0.7135
  503MOL0     H69365   3.866   9.749  11.435 -0.0883 -0.1289 -0.0646
  503MOL0     H69366   4.084   9.801  11.238  0.4928  1.6955 -1.0761
  503MOL0     H69367   3.949   9.909  11.264  1.4562  0.4686  0.1507
  503MOL0     H69368   4.010   9.931  11.507  1.4721 -1.0794  1.3904
  503MOL0     H69369   4.121   9.798  11.494  2.4633  0.2706 -0.1347
  503MOL0     H69370   4.249   9.932  11.317  0.5626  0.7190 -0.7056
  503MOL0     H69371   4.149  10.073  11.354  1.3584  0.1697 -0.4706
  503MOL0     H69372   4.281  10.277  11.500  0.5281  1.3362  0.4905
  503MOL0     H69373   4.456  10.526  11.333 -2.1235  0.0771  0.0751
  503MOL0     H69374   4.516  10.507  11.502 -0.1068 -0.9381  0.2631
  503MOL0     H69375   4.339  10.496  11.461  0.0079  1.0223  2.1713
  503MOL0     H69376   4.833  10.570  11.209 -0.7533  1.3737 -0.8792
  503MOL0     H69377   4.981  10.672  11.056  0.5413  0.4342  1.4271
  503MOL0     H69378   5.103  10.729  10.877  2.0322  1.0946 -1.4180
  503MOL0     H69379   5.204  10.702  11.021 -0.2693 -1.1259  0.9759
  503MOL0     H69380   5.300  10.843  10.848 -3.0149  0.1272  3.4975
  503MOL0     H69381   5.387  10.684  10.883 -3.9706 -3.1362  4.2245
  503MOL0     H69382   5.204  10.727  10.637  0.1660 -1.0962 -0.5554
  503MOL0     H69383   5.289  10.584  10.691 -1.0963  0.3537  1.8218
  503MOL0     H69384   5.505  10.696  10.640  0.8894  2.4131  3.5703
  503MOL0     H69385   5.419  10.840  10.590 -0.7136 -0.8853  0.2334
  503MOL0     H69386   5.385  10.570  10.445 -0.3290  0.1290 -0.0266
  503MOL0     H69387   5.298  10.723  10.423 -0.3495 -0.2083 -0.2567
  503MOL0     H69388   5.596  10.696  10.393  0.4850 -0.2177 -2.8047
  503MOL0     H69389   5.508  10.845  10.355 -0.8595  0.2670 -1.2526
  503MOL0     H69390   5.363  10.704  10.200  0.2214 -0.2134 -0.4340
  503MOL0     H69391   5.496  10.587  10.209 -2.2123 -0.3014  3.2600
  503MOL0     H69392   5.505  10.867  10.121 -0.3964 -0.2605  1.0680
  503MOL0     H69393   5.544  10.733  10.014  1.4936  1.7668 -0.1341
  503MOL0     H69394   5.064  10.301  10.862 -2.9251  1.9749 -1.8971
  503MOL0     H69395   4.906  10.182  11.020 -0.1886  0.4602  1.6523
  503MOL0     H69396   4.700  10.089  11.337  0.5597  2.1930 -1.3540
  503MOL0     H69397   4.501   9.934  11.397 -0.9721 -0.1617  2.2292
  503MOL0     H69398   4.505   9.900  11.090  0.3140 -1.1844  0.7171
  503MOL0     H69399   4.710  10.008  11.042  0.7540  0.4919  1.7711
  503MOL0     H69400   5.155   9.939  10.828  0.1221 -1.4502  0.0122
  503MOL0     H69401   5.344  10.103  10.778 -0.6953  3.3792  0.2336
  503MOL0     H69402   5.372  10.434  10.996 -0.2602  0.5152  0.1695
  503MOL0     H69403   5.487  10.361  11.116  0.7848 -1.2462 -0.5608
  503MOL0     H69404   5.679  10.427  11.021  0.5051  1.1788 -0.3762
  503MOL0     H69405   5.576  10.573  10.991 -0.0034  0.8663 -2.3582
  503MOL0     H69406   5.621  10.356  10.783 -2.5517 -0.4889 -1.4583
  503MOL0     H69407   5.544  10.510  10.759  1.3967 -1.2873 -3.1583
  503MOL0     H69408   5.789  10.530  10.701 -0.1645 -0.7848  0.6424
  503MOL0     H69409   5.834  10.486  10.854  0.3275 -2.0423  0.3314
  503MOL0     H69410   5.676  10.908  10.861  0.4516 -0.1483  2.4719
  503MOL0     H69411   5.360  10.205  11.182  1.0953  0.8931 -1.1903
  503MOL0     H69412   5.085  10.103  11.293 -0.3098 -0.7925 -0.2427
  503MOL0     H69413   5.163   9.943  11.306  0.5394  0.3582  2.1115
  503MOL0     H69414   5.258  10.084  11.350 -0.9331  3.5615 -0.8624
  504MOL0     O69415   5.856   6.202   1.815  0.1553 -0.3941 -0.2430
  504MOL0     C69416   5.900   6.116   1.893 -0.1847  0.4717 -0.1014
  504MOL0     O69417   5.826   6.035   1.965 -0.4069  0.0322  0.5104
  504MOL0     C69418   5.690   6.049   1.967  0.9372  0.6006 -0.5372
  504MOL0     C69419   5.617   5.935   1.968  1.2820  0.6566  0.5076
  504MOL0     C69420   5.472   5.936   1.959  0.4520 -0.5890 -0.3366
  504MOL0     C69421   5.408   6.065   1.969 -0.4590 -0.1942 -0.6439
  504MOL0     O69422   5.274   6.083   1.981 -0.7219  0.3073 -0.6185
  504MOL0     C69423   5.189   5.978   1.946 -0.5500  0.3226  0.1154
  504MOL0     C69424   5.042   6.022   1.966 -0.1357 -0.2575  0.5901
  504MOL0     C69425   4.950   5.898   1.952  0.1289  0.9522  0.4488
  504MOL0     C69426   4.800   5.934   1.917  0.0812 -0.1761 -0.0624
  504MOL0     C69427   4.734   5.999   2.043 -0.7744 -0.5141 -1.0123
  504MOL0     C69428   4.597   6.057   2.005  0.4069 -0.4393 -0.1716
  504MOL0     C69429   4.525   6.145   2.099 -0.5007  0.2687 -0.9985
  504MOL0     C69430   4.451   6.069   2.213 -0.5193 -0.2302  0.1397
  504MOL0     N69431   4.539   6.062   2.336  0.4893 -0.4445 -0.7532
  504MOL0     C69432   4.571   6.165   2.422 -0.2031  0.7424  0.3035
  504MOL0     C69433   4.641   6.106   2.525 -0.1211 -0.4265  0.7374
  504MOL0     C69434   4.698   6.189   2.641 -0.6078  0.4837  0.1629
  504MOL0     C69435   4.782   6.295   2.575 -0.4635  0.5874 -1.3337
  504MOL0     C69436   4.891   6.333   2.670 -0.5264  0.3571 -0.0625
  504MOL0     C69437   4.992   6.433   2.610 -0.3242 -0.4733  0.2683
  504MOL0     O69438   4.919   6.556   2.576  0.2001 -0.1657  0.3292
  504MOL0     C69439   5.000   6.670   2.563  0.6260  0.0225  0.2004
  504MOL0     C69440   5.144   6.659   2.552  0.7671  0.5613  0.7626
  504MOL0     C69441   5.219   6.770   2.531  0.3067 -1.8021 -0.5261
  504MOL0     C69442   5.369   6.744   2.532  0.9433 -0.5104 -0.6459
  504MOL0     C69443   5.162   6.899   2.527 -0.7085 -0.4672  0.7025
  504MOL0     C69444   5.241   7.022   2.517 -0.4653 -0.3449 -0.0116
  504MOL0     O69445   5.371   7.017   2.485  0.1371 -0.0616  0.5525
  504MOL0     C69446   5.459   7.128   2.475  0.2675 -0.3169  0.3284
  504MOL0     C69447   5.574   7.110   2.397 -0.2177  0.3872 -0.3137
  504MOL0     C69448   5.667   7.209   2.372 -0.7044 -0.6611  0.1221
  504MOL0     C69449   5.654   7.326   2.448  0.1714 -0.5278  0.4260
  504MOL0     O69450   5.750   7.423   2.430 -0.0119  0.3513 -0.0576
  504MOL0     C69451   5.761   7.532   2.513  1.1765  0.1335  0.5321
  504MOL0     C69452   5.857   7.497   2.624 -0.6536  0.1258 -0.2312
  504MOL0     C69453   6.006   7.481   2.565 -0.3600 -0.0203  0.4886
  504MOL0     C69454   6.110   7.464   2.681  0.0434 -0.3696 -0.2790
  504MOL0     C69455   6.239   7.407   2.600 -0.2177 -0.6948  0.3817
  504MOL0     C69456   6.369   7.463   2.687 -0.2580 -0.0785  0.7500
  504MOL0     C69457   6.510   7.413   2.638  0.3752  0.1911 -0.1128
  504MOL0     C69458   6.543   7.275   2.694  0.3040  0.4120 -0.1444
  504MOL0    Cl69459   6.577   7.289   2.867  0.2291 -0.3581 -0.1788
  504MOL0     C69460   5.535   7.349   2.518  0.3718 -0.1564  1.0487
  504MOL0     C69461   5.440   7.256   2.530  1.0221 -1.7287  0.0453
  504MOL0     O69462   5.178   7.123   2.532 -0.3181 -0.2739  0.3884
  504MOL0     C69463   5.019   6.914   2.539 -0.5475 -0.2249 -0.2614
  504MOL0     C69464   4.938   6.797   2.549  0.1659  0.0140  0.0077
  504MOL0     N69465   4.634   5.970   2.503  0.6944  0.6657 -0.6801
  504MOL0     N69466   4.584   5.943   2.388 -0.7041 -0.6200  0.4497
  504MOL0     C69467   5.490   6.184   1.974  0.6459 -0.2205  0.5657
  504MOL0     C69468   5.626   6.175   1.979  0.0332 -0.1946 -0.2914
  504MOL0     C69469   6.048   6.097   1.902  0.2484  0.1061  0.6265
  504MOL0     C69470   6.119   6.203   1.840  0.4180  0.2476 -0.1812
  504MOL0     C69471   6.256   6.202   1.846 -0.1932 -0.4360  0.2599
  504MOL0     C69472   6.330   6.100   1.916 -0.0234  0.0428 -0.2190
  504MOL0     O69473   6.464   6.108   1.942  0.1732 -0.1529  0.4268
  504MOL0     C69474   6.550   6.195   1.864 -0.1098  0.2472 -0.3694
  504MOL0     C69475   6.696   6.214   1.927  0.6602 -0.0125 -0.6869
  504MOL0     C69476   6.777   6.084   1.896 -0.1869  0.0045  0.4496
  504MOL0     C69477   6.926   6.111   1.935 -0.6293 -0.7584 -0.2142
  504MOL0     C69478   6.999   5.988   1.958 -0.1557 -0.2244 -0.6901
  504MOL0     C69479   7.061   5.882   1.974  0.2607 -0.7676  0.6865
  504MOL0     C69480   6.260   5.998   1.983  0.3272 -0.5471  0.1946
  504MOL0     C69481   6.119   5.996   1.978 -0.1268 -1.6219 -0.1993
  504MOL0     C69482   6.053   5.873   2.039 -0.4394  0.1674  0.7063
  504MOL0     H69483   5.667   5.840   1.964 -1.2190 -0.8015  1.3407
  504MOL0     H69484   5.410   5.847   1.951 -0.4890  0.1643 -1.7509
  504MOL0     H69485   5.206   5.887   2.003 -0.5145 -0.3922 -1.0152
  504MOL0     H69486   5.207   5.954   1.841  1.9525  1.2211  0.2679
  504MOL0     H69487   5.027   6.064   2.066  2.8418  2.0601  0.1945
  504MOL0     H69488   5.018   6.093   1.886  0.7999 -1.3779 -0.7234
  504MOL0     H69489   4.977   5.814   1.886 -0.3627 -0.8362  2.4017
  504MOL0     H69490   4.944   5.861   2.055  1.1770  2.2592  1.0044
  504MOL0     H69491   4.802   5.996   1.827  0.7194  0.0554  0.1102
  504MOL0     H69492   4.749   5.838   1.904  2.5063 -1.8223  1.7051
  504MOL0     H69493   4.800   6.075   2.086 -1.6198  0.3776 -1.2694
  504MOL0     H69494   4.718   5.920   2.117  2.4822  0.2534  0.7084
  504MOL0     H69495   4.612   6.106   1.909  1.4317  0.7574  0.5655
  504MOL0     H69496   4.530   5.977   1.972  0.1973  0.5013 -2.1631
  504MOL0     H69497   4.459   6.210   2.041  1.0102 -0.3799 -3.5633
  504MOL0     H69498   4.593   6.211   2.154 -0.0264 -0.5189 -0.6343
  504MOL0     H69499   4.360   6.125   2.237 -0.1208 -0.2961  1.9874
  504MOL0     H69500   4.441   5.962   2.193  1.3417 -0.5385  0.6666
  504MOL0     H69501   4.571   6.273   2.428  1.2744  0.7924  0.0154
  504MOL0     H69502   4.752   6.132   2.717  0.0256  2.3770  1.1834
  504MOL0     H69503   4.614   6.221   2.703  0.9058 -0.5159  2.8766
  504MOL0     H69504   4.835   6.265   2.484  1.9477  3.9542 -1.2175
  504MOL0     H69505   4.716   6.379   2.548  0.2971  0.9930 -1.9769
  504MOL0     H69506   4.839   6.371   2.758 -0.2409 -0.4723  0.4752
  504MOL0     H69507   4.941   6.242   2.702 -4.2629 -2.9332 -2.5743
  504MOL0     H69508   5.065   6.448   2.690  0.0882 -2.1664  0.2448
  504MOL0     H69509   5.043   6.391   2.523  1.3535  2.1680 -0.1268
  504MOL0     H69510   5.190   6.562   2.538  0.0681  0.5894 -2.9786
  504MOL0     H69511   5.383   6.658   2.598 -1.8585  0.2828  1.1431
  504MOL0     H69512   5.426   6.819   2.588 -0.1375  1.3320 -1.8993
  504MOL0     H69513   5.399   6.729   2.428 -0.3541 -1.8858 -0.8540
  504MOL0     H69514   5.583   7.016   2.342  1.1053 -1.8810  3.3536
  504MOL0     H69515   5.747   7.198   2.300 -1.5967 -2.9731 -0.5748
  504MOL0     H69516   5.796   7.619   2.456 -0.1074  1.4516  1.6701
  504MOL0     H69517   5.669   7.566   2.561 -1.2628  0.6477 -3.9060
  504MOL0     H69518   5.868   7.571   2.704  0.0778  0.8284 -0.9480
  504MOL0     H69519   5.828   7.400   2.664 -1.9593 -0.0964 -1.6373
  504MOL0     H69520   6.037   7.575   2.519 -1.7958 -0.2839 -1.0902
  504MOL0     H69521   6.002   7.402   2.489 -2.3964  1.7313 -1.3636
  504MOL0     H69522   6.067   7.392   2.751 -3.1519 -0.9494 -2.5943
  504MOL0     H69523   6.126   7.558   2.733 -3.0480 -0.2163  0.5989
  504MOL0     H69524   6.235   7.298   2.598  1.4982 -0.7860 -0.1884
  504MOL0     H69525   6.238   7.445   2.498 -3.4096 -2.3123 -0.3033
  504MOL0     H69526   6.355   7.414   2.784 -2.0057 -3.0771 -0.8786
  504MOL0     H69527   6.364   7.572   2.693 -0.0461  0.0767 -1.2908
  504MOL0     H69528   6.584   7.480   2.682 -0.3933  1.4204 -0.6302
  504MOL0     H69529   6.518   7.414   2.529  2.5073 -0.3066  0.0074
  504MOL0     H69530   6.631   7.237   2.642 -0.9989 -2.6237 -0.3354
  504MOL0     H69531   6.463   7.201   2.680 -1.0418  1.8207 -0.2155
  504MOL0     H69532   5.515   7.441   2.572 -1.5194 -0.3412  0.7182
  504MOL0     H69533   5.355   7.282   2.592  3.1424  0.6044  2.2302
  504MOL0     H69534   4.966   7.007   2.524 -2.2798 -1.0506  0.3579
  504MOL0     H69535   4.830   6.797   2.550  0.1523 -0.3524 -0.8131
  504MOL0     H69536   5.447   6.283   1.986 -3.1818 -1.7037  0.4667
  504MOL0     H69537   5.691   6.261   1.994 -1.3633  1.4697 -2.9171
  504MOL0     H69538   6.063   6.284   1.794 -0.1382 -0.5931 -1.0123
  504MOL0     H69539   6.315   6.281   1.799  2.5790 -3.2803 -1.4109
  504MOL0     H69540   6.564   6.154   1.763 -2.5886 -0.6340 -0.4249
  504MOL0     H69541   6.498   6.291   1.850 -1.6491 -0.5965 -0.6667
  504MOL0     H69542   6.692   6.213   2.036  0.7392 -1.1917 -0.6747
  504MOL0     H69543   6.744   6.307   1.897  0.4939  0.4539  0.4690
  504MOL0     H69544   6.752   6.000   1.962 -1.4860 -0.0145 -0.0574
  504MOL0     H69545   6.760   6.048   1.795  1.2694 -0.3622  0.3125
  504MOL0     H69546   6.932   6.178   2.022  0.5403 -1.5937  0.3669
  504MOL0     H69547   6.972   6.170   1.855 -2.2981 -1.0993 -1.4833
  504MOL0     H69548   7.120   5.798   2.005 -1.0908 -1.1823  2.3039
  504MOL0     H69549   6.315   5.926   2.042 -0.0233 -3.0520 -2.3090
  504MOL0     H69550   6.007   5.809   1.963 -1.5894  1.2963  0.4007
  504MOL0     H69551   6.129   5.826   2.102  1.4322  1.4556 -0.4979
  504MOL0     H69552   5.971   5.904   2.105 -0.0696 -1.0581  1.7709
  505MOL0     O69553  10.363   1.652   8.244 -0.7482 -0.4255  0.4235
  505MOL0     C69554  10.365   1.740   8.330  0.3091  0.6861  0.2936
  505MOL0     O69555  10.471   1.815   8.360 -0.0676 -0.3156 -0.0066
  505MOL0     C69556  10.589   1.807   8.305 -0.1624 -0.2485  0.9897
  505MOL0     C69557  10.684   1.701   8.329  0.5642 -0.3703 -1.0368
  505MOL0     C69558  10.812   1.708   8.273 -0.3831 -0.1367 -0.6392
  505MOL0     C69559  10.856   1.812   8.193 -0.4783  0.4714 -0.2127
  505MOL0     O69560  10.975   1.822   8.122  0.5655  0.8754  0.1224
  505MOL0     C69561  11.053   1.701   8.125  0.1899  0.0791  0.4723
  505MOL0     C69562  11.182   1.733   8.050  0.3004 -0.4938  0.2554
  505MOL0     C69563  11.168   1.700   7.902  0.4145 -0.1038  0.2244
  505MOL0     C69564  11.279   1.761   7.820  0.0866  0.2592  0.1260
  505MOL0     C69565  11.316   1.704   7.678  0.0547 -0.4005  0.5136
  505MOL0     C69566  11.413   1.804   7.602  0.6275  0.1626 -0.1456
  505MOL0     C69567  11.475   1.729   7.492 -0.0373  0.0915  0.5091
  505MOL0     C69568  11.538   1.822   7.391 -0.2922 -0.3980  0.6735
  505MOL0     N69569  11.599   1.740   7.280 -0.7570 -0.0498 -0.0364
  505MOL0     C69570  11.548   1.702   7.157 -0.6020  0.5757  1.2595
  505MOL0     C69571  11.645   1.636   7.089  0.5658 -0.3146  0.6470
  505MOL0     C69572  11.647   1.566   6.960  1.1190  0.2915 -0.6562
  505MOL0     C69573  11.770   1.584   6.881 -0.0810 -0.1066 -0.3741
  505MOL0     C69574  11.784   1.715   6.793  0.0561 -0.2027  0.3465
  505MOL0     C69575  11.924   1.729   6.743  0.4788 -0.1128  0.2238
  505MOL0     O69576  12.008   1.771   6.852 -0.2240  0.0635  0.0003
  505MOL0     C69577  12.148   1.767   6.849  0.4904 -0.6786 -0.0704
  505MOL0     C69578  12.212   1.766   6.975  0.2957 -0.0409  0.7070
  505MOL0     C69579  12.351   1.771   6.994 -0.0919  0.6740  0.4324
  505MOL0     C69580  12.403   1.745   7.133 -0.0917 -0.2478  0.1495
  505MOL0     C69581  12.431   1.779   6.875 -1.0244 -0.4026 -0.0450
  505MOL0     C69582  12.577   1.785   6.865 -1.1263  0.0425 -0.5300
  505MOL0     O69583  12.646   1.753   6.987  0.4832  0.0532 -0.0523
  505MOL0     C69584  12.780   1.735   6.985  0.8029  0.2411 -0.4348
  505MOL0     C69585  12.870   1.831   6.941 -0.2197 -0.3765  0.8212
  505MOL0     C69586  13.007   1.794   6.931 -0.2076  0.8092 -0.2090
  505MOL0     C69587  13.051   1.661   6.960  0.1150  0.0929  0.4230
  505MOL0     O69588  13.183   1.635   6.932 -0.5072 -0.0745  0.1373
  505MOL0     C69589  13.237   1.503   6.948 -0.1101 -0.5307  0.1593
  505MOL0     C69590  13.394   1.506   6.936 -0.1317 -0.0624 -0.0409
  505MOL0     C69591  13.455   1.606   7.035 -1.0097 -0.7608  0.4276
  505MOL0     C69592  13.432   1.600   7.187 -0.2932  0.5350 -0.0372
  505MOL0     C69593  13.505   1.477   7.259 -0.3265  0.1327  0.6812
  505MOL0     C69594  13.484   1.477   7.409 -0.0496  0.3025  0.5569
  505MOL0     C69595  13.544   1.350   7.473  0.2939 -0.6649  0.3587
  505MOL0     C69596  13.552   1.366   7.624  0.5096  0.7058  0.1199
  505MOL0    Cl69597  13.699   1.460   7.670  0.0882  0.0952 -0.0639
  505MOL0     C69598  12.955   1.570   7.004  0.5698 -1.4354  0.2673
  505MOL0     C69599  12.825   1.604   7.021 -0.7034  0.3943  1.2246
  505MOL0     O69600  12.643   1.815   6.764  1.0983  0.4075  0.0017
  505MOL0     C69601  12.362   1.799   6.746 -0.2398  0.4722  0.2200
  505MOL0     C69602  12.227   1.783   6.732 -0.3345 -0.0826  0.4935
  505MOL0     N69603  11.745   1.623   7.171  0.8400  0.6040 -0.3125
  505MOL0     N69604  11.719   1.671   7.286 -0.3901 -0.3674 -0.4281
  505MOL0     C69605  10.768   1.918   8.178  0.3351 -0.9678 -0.0977
  505MOL0     C69606  10.635   1.920   8.238 -1.2403  0.0945 -0.4774
  505MOL0     C69607  10.238   1.764   8.394  0.7718 -0.2058  0.0411
  505MOL0     C69608  10.116   1.702   8.349 -0.0715 -0.1271 -0.1782
  505MOL0     C69609   9.987   1.738   8.383 -0.6231 -0.3499  0.5593
  505MOL0     C69610   9.969   1.848   8.465 -0.2915 -0.2162  0.1849
  505MOL0     O69611   9.848   1.894   8.512 -0.4946 -0.0051 -0.8187
  505MOL0     C69612   9.734   1.864   8.436  0.9382 -0.4980  0.3501
  505MOL0     C69613   9.614   1.937   8.491  0.3655  0.2864 -0.2305
  505MOL0     C69614   9.504   1.941   8.389 -0.2002 -0.6430  0.2192
  505MOL0     C69615   9.369   2.013   8.430 -0.8564  0.5247  0.8171
  505MOL0     C69616   9.299   1.929   8.524 -0.6508  0.8698  0.7169
  505MOL0     C69617   9.248   1.858   8.607  0.3965 -0.0399 -0.0341
  505MOL0     C69618  10.083   1.903   8.524  0.2910  0.0052  0.7947
  505MOL0     C69619  10.218   1.860   8.498 -1.0857  0.4663 -0.2453
  505MOL0     C69620  10.331   1.944   8.560  0.5362  0.5135 -0.0891
  505MOL0     H69621  10.641   1.612   8.374  1.0177 -1.5155 -2.7532
  505MOL0     H69622  10.873   1.624   8.304  1.9085  2.3166  2.1268
  505MOL0     H69623  11.003   1.611   8.089 -0.3126  0.4345  0.2631
  505MOL0     H69624  11.085   1.687   8.229 -1.8405  1.7393  1.4041
  505MOL0     H69625  11.218   1.834   8.072  0.3950 -1.1905  3.8632
  505MOL0     H69626  11.266   1.670   8.081  1.5580 -0.2459 -2.3002
  505MOL0     H69627  11.173   1.591   7.893  0.9506 -0.2093  1.6376
  505MOL0     H69628  11.072   1.729   7.858  0.1346  0.6913  1.3127
  505MOL0     H69629  11.253   1.866   7.806  1.0891  0.4213 -0.6480
  505MOL0     H69630  11.370   1.750   7.880 -1.1941 -3.3934  1.6992
  505MOL0     H69631  11.221   1.695   7.624 -0.7991  2.2572  1.4231
  505MOL0     H69632  11.361   1.604   7.685  1.2812  0.0060 -1.1374
  505MOL0     H69633  11.357   1.893   7.571  1.8553  1.5429  1.3928
  505MOL0     H69634  11.491   1.847   7.667  0.2113  1.9951 -0.7910
  505MOL0     H69635  11.393   1.676   7.443  0.4217 -1.2129  1.1125
  505MOL0     H69636  11.550   1.659   7.531 -0.9856 -2.0866 -1.3506
  505MOL0     H69637  11.466   1.889   7.343  1.3536 -0.3733 -1.9729
  505MOL0     H69638  11.612   1.885   7.441 -0.3625 -1.8024  2.6634
  505MOL0     H69639  11.449   1.720   7.118 -1.3142  1.2836  3.2847
  505MOL0     H69640  11.560   1.591   6.899  0.2598 -2.6101 -0.7767
  505MOL0     H69641  11.619   1.461   6.970 -1.9834  0.9849 -1.0825
  505MOL0     H69642  11.860   1.578   6.944  1.4789  1.6151 -2.2630
  505MOL0     H69643  11.775   1.496   6.816 -3.7731 -0.7216 -0.0290
  505MOL0     H69644  11.721   1.699   6.705 -1.0101 -1.4040  1.2774
  505MOL0     H69645  11.758   1.811   6.838 -0.0390  0.0372 -0.2181
  505MOL0     H69646  11.962   1.635   6.702 -0.1986 -0.5631  0.5926
  505MOL0     H69647  11.910   1.811   6.672 -0.8191 -2.0369 -1.8745
  505MOL0     H69648  12.144   1.750   7.058  2.1298  0.1914  2.3152
  505MOL0     H69649  12.471   1.822   7.169 -0.1682  0.4762 -1.1807
  505MOL0     H69650  12.451   1.647   7.141  1.2180  0.3734  0.0514
  505MOL0     H69651  12.325   1.737   7.209 -0.7056  0.6726 -0.3671
  505MOL0     H69652  12.831   1.927   6.909 -1.5113 -2.1009 -3.2865
  505MOL0     H69653  13.079   1.872   6.907 -0.6429  1.2998  0.0541
  505MOL0     H69654  13.208   1.469   7.048 -0.8274  1.3050  0.6323
  505MOL0     H69655  13.211   1.447   6.858 -1.5270 -0.8198  0.7212
  505MOL0     H69656  13.434   1.407   6.958 -0.2734  0.0684  0.8519
  505MOL0     H69657  13.416   1.539   6.834  1.7404  0.8416  0.6123
  505MOL0     H69658  13.410   1.703   7.011 -3.5538 -1.4209  2.1475
  505MOL0     H69659  13.560   1.623   7.011 -1.7760  2.1320 -1.4011
  505MOL0     H69660  13.325   1.588   7.211 -0.1550 -2.2032 -0.4963
  505MOL0     H69661  13.470   1.694   7.229  0.0971 -0.2783  1.5034
  505MOL0     H69662  13.466   1.386   7.213  1.1671  0.5614 -1.5891
  505MOL0     H69663  13.612   1.478   7.239 -0.5059  0.3365 -0.3376
  505MOL0     H69664  13.380   1.473   7.443  0.7245  0.4382  3.1316
  505MOL0     H69665  13.526   1.570   7.448  1.7496 -0.4674  0.5396
  505MOL0     H69666  13.647   1.333   7.440  0.6714  2.1146 -0.1030
  505MOL0     H69667  13.483   1.263   7.445  2.2383 -1.0541 -3.1844
  505MOL0     H69668  13.563   1.263   7.659 -0.4275 -0.3905 -2.5513
  505MOL0     H69669  13.453   1.397   7.656  1.0978  2.3663  0.4254
  505MOL0     H69670  12.970   1.466   7.034  0.3089 -0.9156  2.3337
  505MOL0     H69671  12.758   1.523   7.049  0.1220 -0.3010  1.2085
  505MOL0     H69672  12.418   1.825   6.657  3.0514 -0.9802  1.7006
  505MOL0     H69673  12.185   1.793   6.633 -0.5145  0.0842  0.5850
  505MOL0     H69674  10.793   2.011   8.129 -2.8175  0.3810  0.5766
  505MOL0     H69675  10.573   2.009   8.226  0.0095  0.9660 -0.7073
  505MOL0     H69676  10.131   1.630   8.269 -0.4821  0.1968 -0.5512
  505MOL0     H69677   9.906   1.674   8.350  1.0968 -2.9282  1.0490
  505MOL0     H69678   9.747   1.905   8.335  1.7362 -2.1295 -0.2289
  505MOL0     H69679   9.702   1.759   8.437  1.4193 -0.6429  1.3866
  505MOL0     H69680   9.637   2.042   8.514  2.1976 -0.2782  0.7188
  505MOL0     H69681   9.574   1.885   8.579 -0.9785  2.1403  0.3352
  505MOL0     H69682   9.543   2.008   8.311  3.5377 -4.0650 -1.2220
  505MOL0     H69683   9.485   1.845   8.340  2.5794 -2.1191  1.8301
  505MOL0     H69684   9.316   2.025   8.335 -0.6331 -2.8260  0.1448
  505MOL0     H69685   9.389   2.113   8.469  0.1472 -0.1189  2.0344
  505MOL0     H69686   9.204   1.798   8.685 -0.7249 -1.6980 -1.8591
  505MOL0     H69687  10.066   1.982   8.597  0.4080 -0.8579  1.7810
  505MOL0     H69688  10.429   1.896   8.568 -0.3476 -1.7564 -1.8732
  505MOL0     H69689  10.346   2.034   8.501  1.8264  0.9288  0.8221
  505MOL0     H69690  10.299   1.982   8.658  2.8309  1.2003  0.4489
  506MOL0     O69691   5.485   1.906   7.331 -0.4648 -0.0267 -0.0455
  506MOL0     C69692   5.502   2.023   7.357 -0.7989 -0.2973  0.6792
  506MOL0     O69693   5.615   2.066   7.418  0.0805  0.3327  0.0377
  506MOL0     C69694   5.720   1.980   7.419  0.2346  0.6071 -1.0999
  506MOL0     C69695   5.742   1.898   7.528  0.7419 -0.1774 -0.3338
  506MOL0     C69696   5.830   1.793   7.525 -1.1435 -0.2168  0.6576
  506MOL0     C69697   5.916   1.780   7.411 -0.5955 -0.6380 -0.2542
  506MOL0     O69698   6.016   1.684   7.402  0.0917 -0.5135  0.3132
  506MOL0     C69699   6.031   1.590   7.506 -0.4104 -0.2560  0.2968
  506MOL0     C69700   6.125   1.481   7.467  0.0185  0.1664  0.3477
  506MOL0     C69701   6.123   1.367   7.566 -0.2118 -0.1041  0.4733
  506MOL0     C69702   6.195   1.238   7.511  0.2029  0.0366 -0.2456
  506MOL0     C69703   6.250   1.153   7.629  0.8342  0.3786 -0.2571
  506MOL0     C69704   6.316   1.021   7.593 -0.7849 -0.7549  0.6753
  506MOL0     C69705   6.232   0.927   7.498 -0.1193 -0.0011 -0.9036
  506MOL0     C69706   6.274   0.781   7.493 -0.6068  0.4333 -0.0388
  506MOL0     N69707   6.417   0.753   7.456  0.1360 -0.3133 -0.6048
  506MOL0     C69708   6.466   0.762   7.325 -0.2626 -0.1482 -0.9808
  506MOL0     C69709   6.596   0.735   7.334 -0.1034  0.4814  0.3038
  506MOL0     C69710   6.691   0.761   7.219 -0.3723 -0.4825  0.1390
  506MOL0     C69711   6.813   0.667   7.228  0.6968 -0.7632 -0.1779
  506MOL0     C69712   6.933   0.730   7.305  0.0194 -0.1229 -0.1282
  506MOL0     C69713   7.062   0.654   7.274 -0.4817  0.4029  1.5405
  506MOL0     O69714   7.092   0.673   7.134  0.2858  0.6343  0.1021
  506MOL0     C69715   7.179   0.587   7.077 -0.2125  0.1100 -0.0901
  506MOL0     C69716   7.134   0.474   7.008  0.8561 -1.6407 -0.1370
  506MOL0     C69717   7.221   0.372   6.955  0.1007  0.0643  0.0997
  506MOL0     C69718   7.169   0.255   6.882  0.2862 -0.2390 -1.1123
  506MOL0     C69719   7.358   0.389   6.988  0.9139 -0.3161  0.6715
  506MOL0     C69720   7.461   0.292   6.949 -0.4542 -0.5045  0.6341
  506MOL0     O69721   7.454   0.173   7.008  0.6840  0.0432 -0.3792
  506MOL0     C69722   7.562   0.097   7.019 -0.1085  0.3059  0.0915
  506MOL0     C69723   7.699   0.124   7.007 -0.1320 -0.6238  0.5987
  506MOL0     C69724   7.800   0.032   7.025  0.7205  0.5280 -1.0995
  506MOL0     C69725   7.756  -0.087   7.086  0.7275 -0.8326  0.2263
  506MOL0     O69726   7.855  -0.176   7.129  0.1495  0.5906  0.2547
  506MOL0     C69727   7.992  -0.164   7.084 -0.0797 -1.1290 -0.3908
  506MOL0     C69728   8.059  -0.302   7.114 -0.2689 -0.3807 -0.1094
  506MOL0     C69729   8.193  -0.316   7.035  0.5847  0.2446 -0.4050
  506MOL0     C69730   8.266  -0.442   7.087  0.7756  0.2470  0.5036
  506MOL0     C69731   8.367  -0.484   6.986 -0.0039  0.3125 -0.3648
  506MOL0     C69732   8.408  -0.631   7.002 -0.5792 -0.2786  0.2580
  506MOL0     C69733   8.511  -0.675   6.891  0.4815 -0.8457  1.1232
  506MOL0     C69734   8.550  -0.820   6.919 -0.5857 -0.7892  0.1069
  506MOL0    Cl69735   8.706  -0.857   6.830 -0.4671 -0.2362  0.0107
  506MOL0     C69736   7.619  -0.111   7.105 -0.0905  0.3054  0.6254
  506MOL0     C69737   7.520  -0.025   7.065 -0.2207  0.2715  0.5039
  506MOL0     O69738   7.562   0.343   6.894  0.8751  0.0048 -0.0435
  506MOL0     C69739   7.397   0.496   7.071 -0.2839 -0.9111  0.4930
  506MOL0     C69740   7.310   0.595   7.115 -0.2070  0.7994 -0.0716
  506MOL0     N69741   6.628   0.716   7.465  0.2244 -0.7792  0.5508
  506MOL0     N69742   6.520   0.721   7.540 -0.3494 -0.6327  0.4341
  506MOL0     C69743   5.911   1.877   7.318 -1.2691 -0.1700 -0.6556
  506MOL0     C69744   5.803   1.964   7.305 -0.4683 -0.7835 -0.7123
  506MOL0     C69745   5.385   2.121   7.363  0.0958  0.4500  0.0517
  506MOL0     C69746   5.258   2.058   7.343 -0.0964 -0.3316 -0.0471
  506MOL0     C69747   5.138   2.134   7.335 -0.2295  0.4055  0.3327
  506MOL0     C69748   5.142   2.275   7.357 -1.0718 -0.3226 -0.3435
  506MOL0     O69749   5.030   2.354   7.358  0.5442 -0.3851 -0.1124
  506MOL0     C69750   5.039   2.487   7.299  0.4540  0.4753 -0.0938
  506MOL0     C69751   4.899   2.561   7.282  0.8096  0.4863 -0.5239
  506MOL0     C69752   4.810   2.485   7.191 -0.4976  0.8426  0.2764
  506MOL0     C69753   4.683   2.554   7.167  0.1856  0.4820 -0.3622
  506MOL0     C69754   4.586   2.526   7.273 -0.0262  0.2831  0.6668
  506MOL0     C69755   4.494   2.506   7.351  0.0559  0.9172 -0.2906
  506MOL0     C69756   5.265   2.339   7.381 -0.4583  0.0085 -0.4788
  506MOL0     C69757   5.386   2.258   7.379 -0.2228 -0.6126  0.0821
  506MOL0     C69758   5.515   2.330   7.384 -0.1741 -0.3301  0.2777
  506MOL0     H69759   5.666   1.909   7.604 -0.8482 -2.5696 -1.4712
  506MOL0     H69760   5.833   1.720   7.606  0.0866 -0.6838  0.2256
  506MOL0     H69761   5.938   1.538   7.534 -0.9429  0.8103  0.5489
  506MOL0     H69762   6.061   1.638   7.599  0.4786 -0.0510 -0.0869
  506MOL0     H69763   6.093   1.436   7.373  1.3465 -0.2596  0.0697
  506MOL0     H69764   6.228   1.513   7.448 -0.4868  1.9881  0.5378
  506MOL0     H69765   6.192   1.396   7.646 -1.0440  3.2266  0.0964
  506MOL0     H69766   6.026   1.349   7.612 -0.5963 -1.4260 -0.7632
  506MOL0     H69767   6.126   1.183   7.447 -0.6350 -0.8462  1.3563
  506MOL0     H69768   6.275   1.276   7.448 -0.0882  1.8420  0.4248
  506MOL0     H69769   6.161   1.120   7.683  1.9527  0.3242  1.6701
  506MOL0     H69770   6.322   1.220   7.678  0.8932  3.1346 -3.7346
  506MOL0     H69771   6.415   1.044   7.552 -1.2804  2.1112  0.8421
  506MOL0     H69772   6.334   0.966   7.685  3.5680 -0.1900  0.3548
  506MOL0     H69773   6.223   0.964   7.395  3.0174  0.3446 -1.1486
  506MOL0     H69774   6.135   0.914   7.546  1.5991 -1.5166  2.4581
  506MOL0     H69775   6.252   0.731   7.587 -1.5673  0.2439 -0.3585
  506MOL0     H69776   6.211   0.725   7.423 -0.1394  0.7158 -0.7034
  506MOL0     H69777   6.402   0.788   7.241 -2.6510 -1.1723  0.4261
  506MOL0     H69778   6.708   0.869   7.228 -1.0433 -0.4087  0.6155
  506MOL0     H69779   6.635   0.758   7.124 -0.0748  1.5364 -0.1467
  506MOL0     H69780   6.804   0.570   7.277  0.7220 -0.4306  0.4912
  506MOL0     H69781   6.836   0.655   7.121  2.2086  4.0121 -0.6492
  506MOL0     H69782   6.943   0.839   7.292  0.5787 -0.2703 -1.0679
  506MOL0     H69783   6.914   0.722   7.412  1.9221 -0.2267  0.2351
  506MOL0     H69784   7.138   0.695   7.341  1.0127  1.7532 -0.8037
  506MOL0     H69785   7.041   0.549   7.297  1.8798 -0.5104 -0.0723
  506MOL0     H69786   7.027   0.459   6.995  0.6261  0.6276 -1.3913
  506MOL0     H69787   7.225   0.253   6.788  1.1726 -1.2641 -0.5864
  506MOL0     H69788   7.065   0.266   6.851 -0.2953 -3.0217 -0.4435
  506MOL0     H69789   7.195   0.163   6.935  0.2843  0.6088  0.4459
  506MOL0     H69790   7.724   0.222   6.968  0.5835 -1.3634 -0.8835
  506MOL0     H69791   7.906   0.054   7.018  1.3040 -0.9759  1.5674
  506MOL0     H69792   8.004  -0.145   6.976  0.6128  0.5218 -0.0666
  506MOL0     H69793   8.044  -0.083   7.136  0.6441 -2.2709  0.7174
  506MOL0     H69794   8.070  -0.311   7.223  0.4330  1.3566 -0.0126
  506MOL0     H69795   7.996  -0.382   7.074  0.7697 -3.7569  4.2037
  506MOL0     H69796   8.258  -0.228   7.029  0.6267  0.2522  0.0935
  506MOL0     H69797   8.153  -0.334   6.934 -3.4562 -0.2873  1.0908
  506MOL0     H69798   8.197  -0.525   7.105  1.3387 -0.4021 -0.2516
  506MOL0     H69799   8.320  -0.423   7.180  1.2301 -3.3280  1.1042
  506MOL0     H69800   8.325  -0.472   6.886  1.5242  4.5332 -0.7303
  506MOL0     H69801   8.456  -0.419   6.984 -0.7610  1.4346  0.9461
  506MOL0     H69802   8.321  -0.697   7.009 -1.1988  0.6791  2.3914
  506MOL0     H69803   8.468  -0.636   7.093  2.8469 -1.0618 -1.8447
  506MOL0     H69804   8.601  -0.613   6.898 -0.4877  1.5613 -3.3669
  506MOL0     H69805   8.478  -0.662   6.787  0.9185  0.0069  1.0839
  506MOL0     H69806   8.469  -0.880   6.878 -2.3227  1.3827  0.1576
  506MOL0     H69807   8.572  -0.824   7.026  1.2502 -1.6697 -0.2575
  506MOL0     H69808   7.608  -0.211   7.145  1.8135 -0.8813 -1.5368
  506MOL0     H69809   7.414  -0.038   7.082 -0.0337 -0.1211  1.3892
  506MOL0     H69810   7.502   0.507   7.096  0.1244 -1.4601 -0.8875
  506MOL0     H69811   7.345   0.675   7.179 -1.9702  0.1996  1.7881
  506MOL0     H69812   5.981   1.871   7.235  0.5608  1.1270  0.7276
  506MOL0     H69813   5.787   2.025   7.217  2.0026 -1.2854 -1.5665
  506MOL0     H69814   5.243   1.955   7.311 -1.6884 -0.0311 -0.3540
  506MOL0     H69815   5.037   2.104   7.311 -1.7737  3.9935  1.5499
  506MOL0     H69816   5.091   2.556   7.367  1.7987  0.1614 -0.7731
  506MOL0     H69817   5.095   2.490   7.206  0.1637  2.0969 -0.2361
  506MOL0     H69818   4.920   2.661   7.242 -0.4652  0.9591 -0.0880
  506MOL0     H69819   4.846   2.576   7.377  1.2303 -1.6827  0.1085
  506MOL0     H69820   4.859   2.445   7.102 -1.6724  0.5324 -0.2507
  506MOL0     H69821   4.785   2.398   7.251  0.8913 -0.1778 -0.5758
  506MOL0     H69822   4.639   2.537   7.069  2.6825 -1.3322 -1.2932
  506MOL0     H69823   4.707   2.660   7.174 -2.3379  1.0348  0.5895
  506MOL0     H69824   4.424   2.484   7.429  1.5262 -0.9809  0.5868
  506MOL0     H69825   5.270   2.446   7.402  1.7887  0.0081 -0.8168
  506MOL0     H69826   5.591   2.281   7.324  3.1378 -0.6324  4.2578
  506MOL0     H69827   5.498   2.434   7.353 -1.3582 -0.4361  0.5251
  506MOL0     H69828   5.551   2.328   7.488 -3.4549 -2.1454  1.5369
  507MOL0     O69829   5.573   8.965   2.918 -0.0460  0.3636  0.7938
  507MOL0     C69830   5.572   8.894   2.816 -0.8110 -0.6590  1.0360
  507MOL0     O69831   5.691   8.858   2.740  0.5309  0.4346 -0.1594
  507MOL0     C69832   5.819   8.872   2.792 -0.3479  0.0459  0.8613
  507MOL0     C69833   5.859   8.860   2.924 -0.6937  0.0826 -0.1407
  507MOL0     C69834   5.988   8.886   2.969 -0.6932  0.4523  0.3197
  507MOL0     C69835   6.095   8.908   2.874 -0.7739  0.0008 -0.6326
  507MOL0     O69836   6.217   8.962   2.913 -0.0562  0.1336 -0.6026
  507MOL0     C69837   6.332   8.916   2.839 -0.9187 -0.4201  0.5215
  507MOL0     C69838   6.458   8.954   2.912 -0.8246 -0.1964 -0.2555
  507MOL0     C69839   6.484   9.115   2.906 -0.4008  0.6653  0.1777
  507MOL0     C69840   6.632   9.147   2.877  0.8803  0.4295  0.1342
  507MOL0     C69841   6.652   9.299   2.845 -0.3900  0.0268 -0.4096
  507MOL0     C69842   6.619   9.382   2.965  0.5797 -0.1284 -0.6088
  507MOL0     C69843   6.666   9.523   2.947  0.8072 -0.4746 -0.3343
  507MOL0     C69844   6.592   9.621   3.040  0.1419  0.4373 -0.3152
  507MOL0     N69845   6.680   9.736   3.065  0.2174  0.7685 -0.5334
  507MOL0     C69846   6.758   9.741   3.184 -0.2783 -0.2475  0.2433
  507MOL0     C69847   6.807   9.863   3.191  0.1497  0.8590  0.0563
  507MOL0     C69848   6.901   9.898   3.295 -0.2718 -0.1967  0.0194
  507MOL0     C69849   7.027   9.828   3.276 -0.0964  0.1006 -0.2750
  507MOL0     C69850   7.150   9.885   3.350 -0.7915 -0.7091 -0.0832
  507MOL0     C69851   7.284   9.821   3.304 -0.0517  0.8749 -0.6083
  507MOL0     O69852   7.383   9.900   3.382  0.1689 -0.6464  0.1393
  507MOL0     C69853   7.500   9.844   3.419 -0.6563 -0.0136  0.7022
  507MOL0     C69854   7.589   9.923   3.487 -0.0859 -0.4047  0.7004
  507MOL0     C69855   7.721   9.875   3.517  0.9301  0.4578  0.1920
  507MOL0     C69856   7.817   9.952   3.606  0.7348  0.2330 -0.5959
  507MOL0     C69857   7.759   9.747   3.467  0.5105 -0.1793 -0.1911
  507MOL0     C69858   7.891   9.693   3.474  0.1646 -0.8393  0.2004
  507MOL0     O69859   7.898   9.556   3.505  0.7907 -0.3094  0.3361
  507MOL0     C69860   8.019   9.490   3.481  0.9757 -0.0283 -0.2712
  507MOL0     C69861   8.070   9.411   3.587 -0.3529  0.2524  0.2446
  507MOL0     C69862   8.198   9.360   3.569 -0.3971 -0.9618 -0.6912
  507MOL0     C69863   8.268   9.366   3.449  0.8026 -0.0224 -0.3667
  507MOL0     O69864   8.391   9.313   3.446 -0.3912  0.6433  0.2150
  507MOL0     C69865   8.445   9.261   3.321 -0.5081 -0.9211  0.0128
  507MOL0     C69866   8.571   9.178   3.343  0.4827  0.3354 -0.4062
  507MOL0     C69867   8.539   9.034   3.364  0.8590  0.0197 -0.2447
  507MOL0     C69868   8.666   8.966   3.389  0.3662 -0.3597 -0.4914
  507MOL0     C69869   8.653   8.820   3.411  0.5689  0.3837 -0.0712
  507MOL0     C69870   8.777   8.738   3.404  0.7681 -0.5161  0.0953
  507MOL0     C69871   8.880   8.776   3.512 -0.0971 -0.0890 -0.3532
  507MOL0     C69872   8.988   8.675   3.544 -0.3381 -0.2374 -0.3694
  507MOL0    Cl69873   9.058   8.721   3.700 -0.6758  0.1919 -0.0732
  507MOL0     C69874   8.218   9.448   3.352 -0.2195 -0.2350  0.1515
  507MOL0     C69875   8.093   9.501   3.366 -0.1531 -0.4521 -0.3140
  507MOL0     O69876   7.983   9.760   3.423  0.0146 -0.6948 -0.4680
  507MOL0     C69877   7.669   9.677   3.394  0.7314 -0.4228  0.2576
  507MOL0     C69878   7.541   9.719   3.363  0.7146  0.1276 -0.4309
  507MOL0     N69879   6.765   9.926   3.074 -0.1502  0.0268 -0.1084
  507MOL0     N69880   6.692   9.855   2.994  0.3160 -0.8208 -0.6476
  507MOL0     C69881   6.057   8.916   2.742  0.2087 -0.1387  0.2616
  507MOL0     C69882   5.921   8.901   2.704  0.5222  0.4354  0.4185
  507MOL0     C69883   5.442   8.856   2.751  0.4598  0.5557  0.0097
  507MOL0     C69884   5.436   8.853   2.609 -0.1100 -0.0143 -0.3732
  507MOL0     C69885   5.323   8.815   2.534  0.5588 -0.7787  0.3162
  507MOL0     C69886   5.210   8.802   2.614  0.1418 -0.4452  0.1320
  507MOL0     O69887   5.092   8.782   2.551  0.1691  0.2182 -0.0078
  507MOL0     C69888   5.007   8.893   2.512 -0.6795  0.2827  0.0769
  507MOL0     C69889   4.900   8.840   2.418 -0.4251 -0.3416 -0.2593
  507MOL0     C69890   4.796   8.751   2.483  0.8453  0.1413  0.0186
  507MOL0     C69891   4.696   8.692   2.388 -0.1257 -0.1506 -0.0047
  507MOL0     C69892   4.599   8.799   2.348 -0.6557 -0.5066  0.3353
  507MOL0     C69893   4.503   8.865   2.319  0.6541 -0.3165 -0.4081
  507MOL0     C69894   5.210   8.806   2.749 -0.4554  1.0599 -0.5104
  507MOL0     C69895   5.323   8.819   2.832  0.9602 -0.1871 -0.7861
  507MOL0     C69896   5.322   8.790   2.979 -0.1096  0.9985 -0.1297
  507MOL0     H69897   5.784   8.844   3.001 -0.4308  0.3071  0.1628
  507MOL0     H69898   5.997   8.879   3.077 -0.9525 -0.1841  0.3063
  507MOL0     H69899   6.347   8.955   2.738  1.0968 -2.4562 -0.0639
  507MOL0     H69900   6.323   8.807   2.841  0.2798 -0.5449  0.1556
  507MOL0     H69901   6.458   8.922   3.016  1.5950  2.5418  0.7282
  507MOL0     H69902   6.537   8.903   2.856 -0.4566  0.0773  0.0115
  507MOL0     H69903   6.422   9.170   2.835  1.0567  1.6535 -0.3629
  507MOL0     H69904   6.467   9.154   3.007  0.3431 -0.6111  0.8241
  507MOL0     H69905   6.695   9.121   2.962  2.8494  1.9067 -0.7770
  507MOL0     H69906   6.665   9.075   2.802  0.7523  0.7266 -0.2170
  507MOL0     H69907   6.605   9.331   2.751  1.8348 -3.4787 -2.9506
  507MOL0     H69908   6.757   9.298   2.816 -0.7028 -1.7871 -1.6236
  507MOL0     H69909   6.510   9.380   2.976  0.4790  3.1774  0.0425
  507MOL0     H69910   6.671   9.356   3.058  0.7958  1.5302 -0.2376
  507MOL0     H69911   6.647   9.551   2.843 -1.2501 -2.8216 -0.6605
  507MOL0     H69912   6.775   9.530   2.960  0.9383  3.9531 -2.0358
  507MOL0     H69913   6.497   9.658   3.000 -0.6039  1.1968  1.9626
  507MOL0     H69914   6.579   9.564   3.133 -1.0811 -0.9189 -1.2803
  507MOL0     H69915   6.769   9.659   3.254 -0.3207 -3.2320 -2.9552
  507MOL0     H69916   6.858   9.864   3.390 -0.7315 -1.7418 -0.7146
  507MOL0     H69917   6.910  10.006   3.309  2.5661 -0.2157 -0.9471
  507MOL0     H69918   7.011   9.724   3.304 -3.0180 -0.3126 -2.8878
  507MOL0     H69919   7.055   9.820   3.170  0.8781 -2.2507  0.0996
  507MOL0     H69920   7.149   9.989   3.315 -2.1809 -1.2699 -1.9201
  507MOL0     H69921   7.138   9.883   3.458  0.6236 -0.4552  0.0984
  507MOL0     H69922   7.291   9.713   3.320  1.0446  0.6911 -2.1466
  507MOL0     H69923   7.306   9.833   3.197  0.0245  1.3752 -0.5353
  507MOL0     H69924   7.546  10.016   3.522  2.5087  0.8970  0.6832
  507MOL0     H69925   7.901   9.986   3.544 -1.5934 -1.3354 -5.0016
  507MOL0     H69926   7.834   9.891   3.695  0.1184 -1.5908 -1.6855
  507MOL0     H69927   7.762  10.041   3.638  1.5698 -0.2173  2.4350
  507MOL0     H69928   8.029   9.395   3.686  1.6148  0.6039  1.1794
  507MOL0     H69929   8.238   9.295   3.646  0.9982 -0.7284 -1.1969
  507MOL0     H69930   8.372   9.201   3.266 -0.6278 -0.5536 -0.2362
  507MOL0     H69931   8.469   9.351   3.264 -0.0731  0.6709  2.5588
  507MOL0     H69932   8.632   9.190   3.253 -1.6818  0.5720 -1.9240
  507MOL0     H69933   8.625   9.215   3.430  1.8472 -1.6606 -0.3275
  507MOL0     H69934   8.487   8.986   3.281  1.0705 -0.0774 -0.3219
  507MOL0     H69935   8.471   9.024   3.449 -1.2751  1.2016 -1.7235
  507MOL0     H69936   8.734   9.012   3.460 -0.1687  2.4947 -1.7124
  507MOL0     H69937   8.718   8.982   3.294  2.9027 -0.3169  0.8342
  507MOL0     H69938   8.607   8.818   3.510 -0.2220  0.1782 -0.4419
  507MOL0     H69939   8.579   8.783   3.341  3.2644  1.3894 -3.7921
  507MOL0     H69940   8.837   8.758   3.314  0.3796 -3.5207 -0.9573
  507MOL0     H69941   8.764   8.630   3.407 -0.6561 -0.3513  0.1975
  507MOL0     H69942   8.838   8.813   3.606  0.4913  0.4997 -0.3114
  507MOL0     H69943   8.931   8.863   3.470  1.5926 -0.3363  1.0511
  507MOL0     H69944   9.062   8.688   3.465 -1.1216  3.7955 -0.6266
  507MOL0     H69945   8.961   8.568   3.542 -1.2012 -0.0887  1.1258
  507MOL0     H69946   8.270   9.462   3.258 -2.4562  2.5973 -0.8008
  507MOL0     H69947   8.048   9.562   3.288 -3.4149 -1.3095  0.7214
  507MOL0     H69948   7.704   9.584   3.349  2.0589 -0.3194  1.0489
  507MOL0     H69949   7.483   9.649   3.304  0.9322 -2.0632  1.7654
  507MOL0     H69950   6.133   8.942   2.670  3.8314  0.7804  4.0112
  507MOL0     H69951   5.887   8.915   2.602 -1.4993 -0.1890  0.9633
  507MOL0     H69952   5.522   8.874   2.547 -1.5246  0.7597 -2.1935
  507MOL0     H69953   5.317   8.800   2.427 -1.3023  0.2810  0.2279
  507MOL0     H69954   4.969   8.931   2.607  1.9048 -1.2411  1.8257
  507MOL0     H69955   5.060   8.977   2.466 -1.6519  0.0914 -1.4535
  507MOL0     H69956   4.961   8.793   2.341 -0.2991  0.9922 -0.9997
  507MOL0     H69957   4.845   8.922   2.371 -2.3896 -2.4602 -1.8333
  507MOL0     H69958   4.835   8.662   2.533 -2.0843 -1.8051 -0.9299
  507MOL0     H69959   4.741   8.812   2.555 -1.4975 -1.4301 -0.3424
  507MOL0     H69960   4.638   8.612   2.436  1.0308 -1.0865 -0.1172
  507MOL0     H69961   4.728   8.645   2.295 -0.8340 -0.0901 -0.2820
  507MOL0     H69962   4.423   8.924   2.279 -0.6798 -1.2808  0.7278
  507MOL0     H69963   5.114   8.781   2.794  1.2981  1.1452  3.8209
  507MOL0     H69964   5.220   8.780   3.016 -1.6842 -0.1789 -4.3040
  507MOL0     H69965   5.380   8.698   2.989  0.3226  1.3447  0.6956
  507MOL0     H69966   5.372   8.872   3.032  0.8926 -0.7757  1.8405
  508MOL0     O69967  10.253   9.798  10.930  0.1193 -0.2331  0.7143
  508MOL0     C69968  10.210   9.896  10.989 -0.0787  0.2655  0.2958
  508MOL0     O69969  10.290   9.981  11.055  0.5794 -0.0630 -0.3187
  508MOL0     C69970  10.425   9.984  11.053  0.3392  0.2250  0.2000
  508MOL0     C69971  10.498  10.040  11.169  0.4714 -0.1775 -1.1538
  508MOL0     C69972  10.635  10.018  11.184  0.1110  1.3707 -0.3514
  508MOL0     C69973  10.712   9.947  11.088 -0.3590 -0.2790 -0.2199
  508MOL0     O69974  10.841   9.913  11.127 -0.1187 -0.1713  0.8448
  508MOL0     C69975  10.885   9.778  11.087 -0.0415  0.5430  0.4144
  508MOL0     C69976  11.002   9.722  11.160  0.6218 -0.3669  0.1277
  508MOL0     C69977  11.071   9.819  11.261 -0.5691  0.6070 -0.4090
  508MOL0     C69978  11.171   9.757  11.359  0.0272 -0.1087  0.2796
  508MOL0     C69979  11.310   9.743  11.291  0.3663 -0.4367  0.0819
  508MOL0     C69980  11.401   9.721  11.410  0.1828 -0.4442  0.5473
  508MOL0     C69981  11.548   9.723  11.358 -0.2152 -0.0908 -1.0331
  508MOL0     C69982  11.607   9.855  11.316 -0.5193  0.0140 -0.1912
  508MOL0     N69983  11.577   9.961  11.408  0.5807  0.0669 -0.5017
  508MOL0     C69984  11.465  10.039  11.411  0.3492  0.6142  0.2313
  508MOL0     C69985  11.472  10.094  11.539 -0.0889 -0.0092  0.6489
  508MOL0     C69986  11.368  10.196  11.590 -0.1933  0.5748  0.3480
  508MOL0     C69987  11.226  10.149  11.630 -0.5785  0.0987  0.4813
  508MOL0     C69988  11.232  10.022  11.707 -0.0705  0.2082  0.0921
  508MOL0     C69989  11.105   9.988  11.769  1.0889 -0.1750 -0.4906
  508MOL0     O69990  11.004  10.001  11.672 -0.0583  0.5391 -0.4668
  508MOL0     C69991  10.893  10.076  11.703  0.5378 -0.3558 -0.1670
  508MOL0     C69992  10.766  10.017  11.683 -0.2944 -0.4122  0.7457
  508MOL0     C69993  10.645  10.083  11.696 -0.2956 -0.2684  0.4542
  508MOL0     C69994  10.525  10.001  11.670 -0.0463  0.1034  0.5895
  508MOL0     C69995  10.641  10.218  11.738  0.1149 -0.0316 -0.2194
  508MOL0     C69996  10.516  10.297  11.754  0.6532  0.3044 -0.3269
  508MOL0     O69997  10.425  10.314  11.654 -0.1323  0.0276 -0.4909
  508MOL0     C69998  10.305  10.371  11.686 -0.5395 -0.5146  0.2313
  508MOL0     C69999  10.205  10.303  11.749 -0.2679 -0.1838 -0.8680
  508MOL0     C70000  10.079  10.360  11.780  0.3016  0.2715 -0.8376
  508MOL0     C70001  10.055  10.494  11.755  0.1262 -0.4470 -0.2488
  508MOL0     O70002   9.932  10.544  11.796  0.2799 -0.1179 -0.0513
  508MOL0     C70003   9.899  10.687  11.781 -0.5253 -0.1467 -0.2035
  508MOL0     C70004   9.754  10.723  11.808 -0.3898 -0.3937  0.2350
  508MOL0     C70005   9.654  10.647  11.714  0.6211  0.7988 -0.0463
  508MOL0     C70006   9.546  10.742  11.653 -1.0527 -0.4352 -0.2386
  508MOL0     C70007   9.480  10.661  11.541 -0.4964 -1.4017  0.5525
  508MOL0     C70008   9.386  10.748  11.450  1.3321  0.1895  0.4508
  508MOL0     C70009   9.269  10.807  11.537 -0.3684 -0.6494  0.0614
  508MOL0     C70010   9.170  10.863  11.432  0.5461  0.4915 -0.0339
  508MOL0    Cl70011   9.032  10.945  11.513  0.2015 -0.2373 -0.1708
  508MOL0     C70012  10.153  10.567  11.681 -0.3502  0.3892 -0.9033
  508MOL0     C70013  10.271  10.501  11.651 -0.3104 -0.0131  0.1413
  508MOL0     O70014  10.505  10.354  11.866  0.3502  0.7658 -0.7162
  508MOL0     C70015  10.775  10.271  11.768  0.2570 -0.3762 -0.7764
  508MOL0     C70016  10.891  10.206  11.745 -0.2286 -1.0184 -0.0788
  508MOL0     N70017  11.596  10.068  11.596  0.4302  0.2455  0.9366
  508MOL0     N70018  11.657   9.987  11.513 -0.8858  0.5096  1.1162
  508MOL0     C70019  10.645   9.890  10.980  0.1400 -0.7160  0.5612
  508MOL0     C70020  10.510   9.921  10.956 -0.3224 -0.0856  0.0038
  508MOL0     C70021  10.069   9.927  10.983  0.3703  0.0339  0.1795
  508MOL0     C70022  10.030  10.047  11.052  0.1645  0.1244  0.3344
  508MOL0     C70023   9.901  10.088  11.070 -0.3036  0.3981  0.1957
  508MOL0     C70024   9.800  10.030  10.990 -0.2642  0.3694  0.1958
  508MOL0     O70025   9.671  10.086  10.991 -0.5514  0.5705 -0.4270
  508MOL0     C70026   9.562  10.024  10.919  0.2617 -0.8158 -0.3163
  508MOL0     C70027   9.444  10.113  10.963  0.0263  0.1271 -0.0990
  508MOL0     C70028   9.310  10.058  10.908  0.5972  0.3896  0.4004
  508MOL0     C70029   9.292  10.112  10.766  0.2332 -0.3091  0.6926
  508MOL0     C70030   9.147  10.104  10.729 -0.1073 -0.7009 -0.8852
  508MOL0     C70031   9.022  10.098  10.727 -0.5708 -0.7320  0.0788
  508MOL0     C70032   9.836   9.924  10.907 -0.0614  0.1395 -0.3667
  508MOL0     C70033   9.965   9.861  10.907 -0.0317  0.1752  0.3257
  508MOL0     C70034   9.984   9.747  10.815 -0.4682 -0.1246  0.0819
  508MOL0     H70035  10.444  10.095  11.245  1.7109 -0.2382 -0.1837
  508MOL0     H70036  10.675  10.047  11.280 -1.5840 -2.9886  1.9714
  508MOL0     H70037  10.915   9.795  10.983 -0.1080 -1.3663  0.0582
  508MOL0     H70038  10.804   9.705  11.076  0.8502 -0.2047 -2.0055
  508MOL0     H70039  10.961   9.643  11.223  0.1443  0.6170  1.0867
  508MOL0     H70040  11.075   9.683  11.089 -0.3323  0.4940 -1.3837
  508MOL0     H70041  11.125   9.896  11.205  1.4042 -2.7120 -3.5306
  508MOL0     H70042  10.992   9.861  11.324 -1.3954  0.0716 -1.0807
  508MOL0     H70043  11.177   9.830  11.440 -0.2636 -0.0827  0.2773
  508MOL0     H70044  11.136   9.659  11.391 -1.0654  0.5046  1.0164
  508MOL0     H70045  11.328   9.837  11.239  2.5709  0.5293  2.3549
  508MOL0     H70046  11.310   9.659  11.221 -1.6170  0.5778 -1.2198
  508MOL0     H70047  11.383   9.800  11.483 -2.4644 -0.6204  0.1795
  508MOL0     H70048  11.378   9.626  11.459 -0.1621 -0.0355  1.1877
  508MOL0     H70049  11.548   9.658  11.271  0.6278 -1.9683  0.2967
  508MOL0     H70050  11.617   9.678  11.430 -0.1446  0.2263 -0.8986
  508MOL0     H70051  11.710   9.835  11.284 -0.8609  1.3202 -2.3003
  508MOL0     H70052  11.573   9.890  11.218 -1.5993  0.3764  0.2941
  508MOL0     H70053  11.381  10.035  11.342  0.0720  2.4362  0.4274
  508MOL0     H70054  11.363  10.272  11.512  0.0499 -0.0753 -0.3170
  508MOL0     H70055  11.401  10.255  11.676  0.4891  1.8141 -0.7484
  508MOL0     H70056  11.192  10.228  11.698 -0.7567 -0.3490  0.9248
  508MOL0     H70057  11.172  10.139  11.536  1.8803 -0.7849 -0.9337
  508MOL0     H70058  11.264   9.938  11.644 -0.3368  0.1569  0.0221
  508MOL0     H70059  11.301  10.028  11.791  1.8419 -4.1433 -0.8913
  508MOL0     H70060  11.112   9.883  11.798  0.0124 -0.0821  0.1594
  508MOL0     H70061  11.099  10.043  11.863  0.8487  0.7829 -1.0480
  508MOL0     H70062  10.772   9.912  11.656  2.2680 -0.2534  0.3742
  508MOL0     H70063  10.497  10.001  11.564 -2.2879  1.3918  1.1098
  508MOL0     H70064  10.432  10.024  11.724 -0.2398 -1.1334  0.8072
  508MOL0     H70065  10.556   9.898  11.691  0.4749 -0.0501 -0.7947
  508MOL0     H70066  10.237  10.205  11.785  2.7252  1.0676  0.2625
  508MOL0     H70067  10.009  10.302  11.841  1.1042 -1.2753 -1.3488
  508MOL0     H70068   9.974  10.748  11.832  1.8079 -0.9079 -2.5369
  508MOL0     H70069   9.907  10.708  11.674  0.7239  1.0588  0.0922
  508MOL0     H70070   9.732  10.706  11.914 -1.6935  0.7024  0.1685
  508MOL0     H70071   9.733  10.828  11.787 -0.5499 -0.6922 -1.2143
  508MOL0     H70072   9.595  10.571  11.766  1.3011  0.2208 -0.1020
  508MOL0     H70073   9.705  10.596  11.632  1.1318  3.0433 -1.2251
  508MOL0     H70074   9.591  10.826  11.599 -3.6374  1.5526  0.4927
  508MOL0     H70075   9.479  10.783  11.729  0.1333  1.9788 -0.3884
  508MOL0     H70076   9.561  10.612  11.487  1.0549 -0.9079  2.2992
  508MOL0     H70077   9.419  10.580  11.583  0.9706 -3.0193 -0.3400
  508MOL0     H70078   9.338  10.684  11.375  2.2261  1.7311 -1.5309
  508MOL0     H70079   9.435  10.823  11.387 -1.3377 -1.8943 -4.7013
  508MOL0     H70080   9.301  10.891  11.600 -0.4223  1.0737 -2.0993
  508MOL0     H70081   9.223  10.724  11.591 -0.3442 -0.4604  0.3748
  508MOL0     H70082   9.124  10.783  11.373 -0.3862 -0.9419  2.4609
  508MOL0     H70083   9.218  10.934  11.364  1.3962 -1.6200 -1.7248
  508MOL0     H70084  10.147  10.673  11.655  2.5102  0.6088 -0.9844
  508MOL0     H70085  10.358  10.547  11.605  0.3617  1.3995  2.6337
  508MOL0     H70086  10.789  10.375  11.797  0.2785  0.0985 -2.3948
  508MOL0     H70087  10.986  10.257  11.755  0.0981 -1.3288 -1.2941
  508MOL0     H70088  10.691   9.829  10.903  1.1756  0.7339 -0.0221
  508MOL0     H70089  10.462   9.884  10.866  0.5675 -0.5777 -0.2839
  508MOL0     H70090  10.093  10.098  11.124  0.0052 -1.8362  1.9395
  508MOL0     H70091   9.884  10.169  11.140 -0.8188  0.4678 -0.0079
  508MOL0     H70092   9.582  10.038  10.812 -0.0495  0.5112 -0.2198
  508MOL0     H70093   9.545   9.916  10.921  2.9701 -1.3032  0.1983
  508MOL0     H70094   9.463  10.215  10.928 -0.8435  0.7364  1.1479
  508MOL0     H70095   9.446  10.111  11.072 -0.4277 -2.1920 -0.0670
  508MOL0     H70096   9.298   9.949  10.913 -1.8851  0.6559  2.4666
  508MOL0     H70097   9.230  10.085  10.977  0.6603 -4.1778  2.6599
  508MOL0     H70098   9.349  10.057  10.691 -0.0769 -1.2046  1.0931
  508MOL0     H70099   9.325  10.216  10.762  0.3851 -0.4028 -0.8121
  508MOL0     H70100   8.915  10.104  10.724 -0.5925  0.3637  1.8619
  508MOL0     H70101   9.764   9.875  10.843  0.8672 -0.3939 -1.0293
  508MOL0     H70102  10.081   9.737  10.764  0.1586 -0.1140  1.2478
  508MOL0     H70103   9.965   9.654  10.869  0.2662  1.0941  2.6035
  508MOL0     H70104   9.908   9.746  10.736 -0.4319  0.2885  0.0419
  509MOL0     O70105   1.065  10.364   9.344  0.8424  0.5626 -0.9041
  509MOL0     C70106   1.033  10.478   9.333 -0.4991  0.4918 -0.8335
  509MOL0     O70107   1.126  10.576   9.304  0.2471 -0.2257  0.0617
  509MOL0     C70108   1.256  10.546   9.268 -0.7387  0.3421  0.2204
  509MOL0     C70109   1.308  10.419   9.237 -0.2995 -0.0274 -0.6426
  509MOL0     C70110   1.426  10.419   9.169  0.3670  0.1114 -0.8621
  509MOL0     C70111   1.505  10.526   9.136  0.2694 -0.0910  0.3127
  509MOL0     O70112   1.627  10.499   9.069  0.5907 -0.1045  0.3506
  509MOL0     C70113   1.693  10.606   9.003  0.6033 -0.4760  0.0063
  509MOL0     C70114   1.799  10.539   8.920 -0.8303  0.0458  1.7181
  509MOL0     C70115   1.924  10.627   8.898  0.0158  0.2302 -0.0815
  509MOL0     C70116   1.995  10.586   8.765  1.0419 -0.3651 -0.2837
  509MOL0     C70117   2.125  10.656   8.754  0.1202 -0.2930  0.4084
  509MOL0     C70118   2.173  10.639   8.609 -0.3090 -0.4851  0.2513
  509MOL0     C70119   2.167  10.501   8.542 -0.1560 -0.2338  0.2507
  509MOL0     C70120   2.201  10.510   8.390  0.2851  0.1735 -0.5086
  509MOL0     N70121   2.353  10.518   8.382  0.4755  0.0934  0.2770
  509MOL0     C70122   2.436  10.414   8.354  0.1787  0.2278 -0.6851
  509MOL0     C70123   2.545  10.468   8.308  0.9765 -0.0186 -0.1491
  509MOL0     C70124   2.666  10.397   8.271  0.5241 -0.0744  1.1508
  509MOL0     C70125   2.659  10.315   8.142 -0.0765 -0.1992 -0.3254
  509MOL0     C70126   2.595  10.396   8.023 -1.0534  0.4245  0.5498
  509MOL0     C70127   2.591  10.318   7.898  0.0718  0.0401 -0.5779
  509MOL0     O70128   2.508  10.379   7.793  0.0387 -0.5220 -0.7560
  509MOL0     C70129   2.374  10.358   7.786  0.1013 -0.5004 -0.0515
  509MOL0     C70130   2.306  10.378   7.667 -0.8108 -0.7263  0.0434
  509MOL0     C70131   2.169  10.357   7.653  0.5519 -0.2660 -0.4936
  509MOL0     C70132   2.117  10.380   7.510  0.2999  0.5665  0.2900
  509MOL0     C70133   2.093  10.312   7.771  1.1470  0.0103  0.5296
  509MOL0     C70134   1.953  10.278   7.761 -0.6366 -0.3418 -0.2274
  509MOL0     O70135   1.903  10.226   7.655  0.2650  0.5443  0.5386
  509MOL0     C70136   1.770  10.190   7.629 -0.9639  0.2196  0.0327
  509MOL0     C70137   1.663  10.197   7.714 -0.0762  0.8177 -0.3244
  509MOL0     C70138   1.538  10.150   7.672 -0.2682 -0.1123 -0.5293
  509MOL0     C70139   1.517  10.096   7.544  0.3289  0.3960  0.2315
  509MOL0     O70140   1.389  10.071   7.498 -0.7663  0.3878  0.3748
  509MOL0     C70141   1.364  10.014   7.371  0.6702 -0.5254  0.5428
  509MOL0     C70142   1.214  10.026   7.336  0.5448 -0.0098 -0.0985
  509MOL0     C70143   1.129   9.914   7.395  0.0289  0.5652 -0.2092
  509MOL0     C70144   1.038   9.973   7.503 -0.6401  0.5958  0.1080
  509MOL0     C70145   0.963   9.863   7.568 -0.3537  0.8929  0.1615
  509MOL0     C70146   0.861   9.914   7.673 -0.1447  0.1747  0.1390
  509MOL0     C70147   0.781   9.797   7.725 -0.6514  0.0377 -1.2469
  509MOL0     C70148   0.686   9.731   7.632  0.1984 -0.2812  1.5563
  509MOL0    Cl70149   0.552   9.834   7.553 -0.1438  0.1666  0.0342
  509MOL0     C70150   1.627  10.100   7.452 -0.6494 -0.8401  0.3907
  509MOL0     C70151   1.750  10.138   7.501 -0.4975 -0.1133  0.2737
  509MOL0     O70152   1.890  10.299   7.865  0.3709  0.3441  0.0267
  509MOL0     C70153   2.162  10.291   7.890  0.2338 -0.5561 -0.0267
  509MOL0     C70154   2.298  10.301   7.896  0.3651 -0.3784 -0.5678
  509MOL0     N70155   2.523  10.607   8.307  0.1701 -0.0135  0.2904
  509MOL0     N70156   2.406  10.639   8.357 -0.2313 -0.6008  0.6354
  509MOL0     C70157   1.469  10.650   9.179  0.1611 -0.3094  0.9005
  509MOL0     C70158   1.347  10.666   9.247  0.1845 -0.0583  0.3496
  509MOL0     C70159   0.886  10.512   9.346 -0.3084  0.2053  0.6664
  509MOL0     C70160   0.789  10.406   9.360  0.4554 -0.0087 -0.3578
  509MOL0     C70161   0.652  10.433   9.351  0.2932  0.0740  0.9624
  509MOL0     C70162   0.603  10.558   9.337 -0.7111 -0.2897 -0.7593
  509MOL0     O70163   0.468  10.572   9.337  0.0649  0.2925  0.3655
  509MOL0     C70164   0.419  10.693   9.269  0.2069 -0.6553 -0.3792
  509MOL0     C70165   0.387  10.798   9.387  0.0044  0.2353  0.2488
  509MOL0     C70166   0.322  10.930   9.333 -0.0309  0.5767  0.2644
  509MOL0     C70167   0.312  11.025   9.449 -0.3630  0.0974  0.2199
  509MOL0     C70168   0.448  11.060   9.499 -0.5196  0.4565 -1.1344
  509MOL0     C70169   0.555  11.098   9.545 -0.1598  0.2200  0.0884
  509MOL0     C70170   0.700  10.661   9.347 -0.3394 -0.5704  0.6041
  509MOL0     C70171   0.838  10.644   9.347  1.1326  0.0642 -1.3924
  509MOL0     C70172   0.928  10.758   9.348 -0.2909  0.3893  0.0185
  509MOL0     H70173   1.259  10.322   9.236  0.2007 -0.3082  0.9900
  509MOL0     H70174   1.453  10.324   9.125  0.4986 -0.0327 -0.4681
  509MOL0     H70175   1.742  10.676   9.073 -1.3937  1.3308 -0.2953
  509MOL0     H70176   1.626  10.672   8.946  0.3313 -0.2804  0.5410
  509MOL0     H70177   1.829  10.442   8.962  0.6392 -1.2295 -1.8566
  509MOL0     H70178   1.754  10.522   8.821 -1.5991  0.4309  1.9975
  509MOL0     H70179   1.892  10.732   8.894  0.5036  0.3996  0.3643
  509MOL0     H70180   1.988  10.612   8.985  1.0537 -1.3041 -1.0571
  509MOL0     H70181   2.000  10.477   8.755  1.6123 -0.3129 -0.5987
  509MOL0     H70182   1.934  10.606   8.676 -0.9603 -1.2568  0.7948
  509MOL0     H70183   2.186  10.606   8.829  0.4863  2.5604  2.1642
  509MOL0     H70184   2.115  10.762   8.780  1.3908  0.2639 -1.1897
  509MOL0     H70185   2.110  10.706   8.551 -0.2943  1.3539  2.2056
  509MOL0     H70186   2.278  10.669   8.605 -0.1167 -1.2654 -2.2876
  509MOL0     H70187   2.068  10.455   8.551  0.8754 -2.6278  0.3056
  509MOL0     H70188   2.236  10.432   8.592  0.1883  0.0846  0.2181
  509MOL0     H70189   2.160  10.423   8.337  0.5511 -0.9545  1.0546
  509MOL0     H70190   2.167  10.604   8.346  0.4788  0.6306  0.2855
  509MOL0     H70191   2.408  10.310   8.362 -0.2811  0.3681 -0.3993
  509MOL0     H70192   2.694  10.327   8.350 -0.8628 -3.0466 -0.8117
  509MOL0     H70193   2.743  10.473   8.254  0.7926 -0.2598  1.5302
  509MOL0     H70194   2.762  10.284   8.120  0.3678 -0.9249  2.3418
  509MOL0     H70195   2.599  10.226   8.162  0.1896  0.3554  3.8226
  509MOL0     H70196   2.494  10.422   8.055 -0.5143  0.6976  2.1129
  509MOL0     H70197   2.654  10.487   8.006  1.3820 -0.9725  1.0339
  509MOL0     H70198   2.690  10.303   7.854  1.6439  5.0907  0.6066
  509MOL0     H70199   2.552  10.218   7.922 -0.0178  0.4508  1.1308
  509MOL0     H70200   2.358  10.418   7.581 -3.9546 -1.2075 -2.2712
  509MOL0     H70201   2.041  10.306   7.485 -0.5271  1.2122  0.8341
  509MOL0     H70202   2.195  10.371   7.434 -3.0282 -0.6841 -3.3036
  509MOL0     H70203   2.068  10.477   7.504 -0.1001  0.3383 -0.1700
  509MOL0     H70204   1.668  10.248   7.810  1.7236 -1.5929  0.9554
  509MOL0     H70205   1.463  10.161   7.750  0.6230  1.6365  0.1182
  509MOL0     H70206   1.406  10.081   7.295 -2.6626  0.4859 -0.5905
  509MOL0     H70207   1.401   9.913   7.353  1.7659 -0.2498  1.1975
  509MOL0     H70208   1.172  10.123   7.364  0.3448 -0.1792  0.1953
  509MOL0     H70209   1.221  10.016   7.227  0.6934  0.3322 -0.1223
  509MOL0     H70210   1.201   9.840   7.428  0.2772  1.5699  1.6377
  509MOL0     H70211   1.071   9.865   7.316  1.2117  0.5880 -1.1257
  509MOL0     H70212   0.967  10.037   7.450 -0.5141  0.0358 -0.7526
  509MOL0     H70213   1.092  10.032   7.578 -1.3254  1.6880 -0.2328
  509MOL0     H70214   0.902   9.821   7.487 -0.9909  2.6371 -0.3033
  509MOL0     H70215   1.036   9.792   7.610  1.1857  1.1522 -1.8956
  509MOL0     H70216   0.794   9.985   7.624 -0.2340  1.7343  2.3438
  509MOL0     H70217   0.908   9.978   7.749  1.8454 -0.7739 -0.2217
  509MOL0     H70218   0.718   9.830   7.808  0.6878  2.0644 -0.9470
  509MOL0     H70219   0.854   9.732   7.773 -1.1158  1.4035  1.5403
  509MOL0     H70220   0.635   9.644   7.675  1.6075 -2.0226 -0.1023
  509MOL0     H70221   0.754   9.698   7.553  0.4264  1.8630  0.8026
  509MOL0     H70222   1.621  10.071   7.348 -1.2485 -0.9643  0.4583
  509MOL0     H70223   1.842  10.138   7.444  0.0968  0.1348  1.2069
  509MOL0     H70224   2.106  10.253   7.975 -0.1740  0.5118  0.2044
  509MOL0     H70225   2.338  10.258   7.987 -1.0569 -0.2054  0.1652
  509MOL0     H70226   1.537  10.733   9.160  2.3924 -2.2878 -0.4035
  509MOL0     H70227   1.316  10.762   9.287  2.6556  0.4636  1.1726
  509MOL0     H70228   0.820  10.303   9.377  2.1256  0.4319 -0.5356
  509MOL0     H70229   0.579  10.352   9.345 -0.2654  0.5649  1.0667
  509MOL0     H70230   0.504  10.733   9.213  3.1910 -1.4743  3.1454
  509MOL0     H70231   0.326  10.680   9.213 -0.8659 -0.4696  1.2856
  509MOL0     H70232   0.479  10.820   9.442 -0.5947  0.8763  1.0082
  509MOL0     H70233   0.327  10.754   9.466  0.1329  1.4067  1.0364
  509MOL0     H70234   0.381  10.970   9.250 -0.8573 -0.0079 -0.6272
  509MOL0     H70235   0.221  10.898   9.305  0.4228 -0.6795  0.0144
  509MOL0     H70236   0.274  10.972   9.537  2.9944  0.3453  2.0091
  509MOL0     H70237   0.251  11.111   9.420  1.7556  1.1618 -1.3684
  509MOL0     H70238   0.655  11.122   9.577 -0.3136 -0.3754  1.0252
  509MOL0     H70239   0.669  10.765   9.351 -1.8727 -0.9029 -1.3572
  509MOL0     H70240   1.002  10.754   9.428  2.0413  1.3552 -1.9261
  509MOL0     H70241   0.988  10.771   9.257  0.3322 -0.9142  0.2215
  509MOL0     H70242   0.885  10.853   9.380 -0.7270 -0.6577  2.7357
  510MOL0     O70243   2.599   7.903   2.024  0.0958 -0.9145 -0.5264
  510MOL0     C70244   2.539   7.851   1.930  0.2849 -0.7344 -0.1842
  510MOL0     O70245   2.585   7.748   1.845 -0.4874 -0.4624  0.4085
  510MOL0     C70246   2.708   7.702   1.888 -0.2745  0.2657  0.3249
  510MOL0     C70247   2.831   7.749   1.830  0.2365  0.7275  0.3948
  510MOL0     C70248   2.949   7.692   1.888 -0.7977 -0.1564  0.7152
  510MOL0     C70249   2.944   7.597   1.991 -0.1059 -0.5621 -0.0097
  510MOL0     O70250   3.057   7.533   2.030  0.0038  0.1591  0.0073
  510MOL0     C70251   3.189   7.573   1.976  0.0967 -0.2137 -0.4848
  510MOL0     C70252   3.290   7.472   2.037  0.2925  0.4242 -0.4697
  510MOL0     C70253   3.276   7.325   2.001 -0.0277 -0.1472 -0.3664
  510MOL0     C70254   3.343   7.229   2.107  0.2583 -0.1715 -0.1222
  510MOL0     C70255   3.497   7.219   2.080  1.4504 -0.3363 -0.3419
  510MOL0     C70256   3.557   7.103   2.168 -0.1883 -0.1977  0.5944
  510MOL0     C70257   3.709   7.087   2.150 -0.1397 -0.3903 -0.7917
  510MOL0     C70258   3.747   6.988   2.036  0.1076  1.0479 -0.3213
  510MOL0     N70259   3.890   6.983   2.011  0.3808  0.0277 -0.0146
  510MOL0     C70260   3.984   6.945   2.093  0.4077  0.0093 -0.7178
  510MOL0     C70261   4.104   6.966   2.027  0.4385  0.4586  0.3809
  510MOL0     C70262   4.248   6.937   2.074 -0.7141 -0.1903  0.2781
  510MOL0     C70263   4.251   6.797   2.137  0.1866  0.1095 -0.0211
  510MOL0     C70264   4.245   6.685   2.031 -0.0750  0.1812 -0.6231
  510MOL0     C70265   4.213   6.551   2.100  0.4711 -1.2481  0.1542
  510MOL0     O70266   4.160   6.453   2.004  0.3066  0.7029  0.3173
  510MOL0     C70267   4.232   6.414   1.894  0.3920  0.1856 -1.0397
  510MOL0     C70268   4.372   6.413   1.883  0.4160 -0.8959  0.3902
  510MOL0     C70269   4.432   6.401   1.754 -0.3997  0.1184 -0.4354
  510MOL0     C70270   4.583   6.385   1.759 -0.0549 -0.1541 -0.2890
  510MOL0     C70271   4.352   6.376   1.638 -0.1919 -0.4883 -0.4428
  510MOL0     C70272   4.395   6.346   1.499 -0.1134  0.1370 -0.0751
  510MOL0     O70273   4.530   6.353   1.468 -0.0812 -0.1722  0.1799
  510MOL0     C70274   4.588   6.331   1.346  0.2735  0.4824 -0.8002
  510MOL0     C70275   4.643   6.435   1.272 -0.3988  0.1441 -0.8331
  510MOL0     C70276   4.697   6.414   1.145  0.5529  0.6917 -0.6737
  510MOL0     C70277   4.683   6.283   1.088  0.3589 -0.2707 -0.6597
  510MOL0     O70278   4.754   6.247   0.981  0.3114  0.5830  0.2425
  510MOL0     C70279   4.796   6.337   0.882 -0.8195 -0.2601 -0.1226
  510MOL0     C70280   4.908   6.287   0.783  0.4558  0.4094 -0.0481
  510MOL0     C70281   4.832   6.261   0.647 -0.1829 -0.2212  0.1489
  510MOL0     C70282   4.917   6.205   0.533 -0.2192  0.2189 -0.3897
  510MOL0     C70283   4.926   6.053   0.553 -1.0626 -0.3996 -0.1918
  510MOL0     C70284   5.008   6.003   0.426  0.2605 -0.7180  0.0140
  510MOL0     C70285   5.014   5.844   0.417  0.0607 -0.8150  0.1668
  510MOL0     C70286   5.059   5.803   0.274  0.0294  0.4254 -0.3039
  510MOL0    Cl70287   4.954   5.675   0.230 -0.0584 -0.1844  0.0936
  510MOL0     C70288   4.611   6.184   1.157  0.2227  0.3531  0.4163
  510MOL0     C70289   4.566   6.210   1.287 -0.4147  0.5196  0.4386
  510MOL0     O70290   4.309   6.313   1.420  0.5263  0.6975  0.5289
  510MOL0     C70291   4.215   6.388   1.654  1.1289  0.1202  0.7887
  510MOL0     C70292   4.158   6.404   1.777  0.0496  1.4286 -0.8761
  510MOL0     N70293   4.080   7.019   1.905 -0.7475  0.4818 -0.8338
  510MOL0     N70294   3.953   7.020   1.892  0.5603  0.1635 -0.4179
  510MOL0     C70295   2.823   7.562   2.046  0.4336 -0.8220 -0.4134
  510MOL0     C70296   2.708   7.606   1.987  0.6476  0.4420 -0.3402
  510MOL0     C70297   2.420   7.927   1.882  0.0170  0.0115 -0.7189
  510MOL0     C70298   2.428   8.063   1.841 -0.3527 -0.1013 -0.0743
  510MOL0     C70299   2.314   8.135   1.802  0.3275  0.5204 -0.3990
  510MOL0     C70300   2.184   8.068   1.792 -0.1665  0.3193 -0.1857
  510MOL0     O70301   2.065   8.137   1.781  0.0912 -0.7896  0.6891
  510MOL0     C70302   2.040   8.191   1.643 -0.2621  0.2944 -0.0064
  510MOL0     C70303   1.919   8.117   1.575 -0.3065  0.1601 -0.0878
  510MOL0     C70304   1.791   8.132   1.646  0.5709 -1.3016  0.5126
  510MOL0     C70305   1.691   8.027   1.619 -0.6586  0.1431  0.3796
  510MOL0     C70306   1.651   8.017   1.479 -1.4704  0.0176  0.5683
  510MOL0     C70307   1.597   8.018   1.374 -0.0203 -0.9088  0.2336
  510MOL0     C70308   2.186   7.929   1.806 -0.5110  0.3820 -0.0358
  510MOL0     C70309   2.297   7.859   1.852 -0.2497 -0.0798 -0.4315
  510MOL0     C70310   2.266   7.709   1.879 -0.2065 -0.5146 -0.6246
  510MOL0     H70311   2.833   7.828   1.757  2.4609 -0.3399 -0.7955
  510MOL0     H70312   3.039   7.731   1.842 -1.5068  0.2429 -0.3767
  510MOL0     H70313   3.219   7.676   1.996 -1.1683 -0.0825  0.9945
  510MOL0     H70314   3.196   7.565   1.868  0.6853  1.4495 -0.6001
  510MOL0     H70315   3.393   7.494   2.007  0.9887 -1.3942  0.4250
  510MOL0     H70316   3.289   7.492   2.144 -0.5950 -0.3369 -0.3189
  510MOL0     H70317   3.170   7.304   2.014 -1.0667  3.6411 -1.5288
  510MOL0     H70318   3.306   7.311   1.897 -1.5168  0.4191 -0.8977
  510MOL0     H70319   3.316   7.256   2.210 -1.8156  1.5220 -1.0221
  510MOL0     H70320   3.298   7.132   2.087  2.8884 -1.9003  1.8238
  510MOL0     H70321   3.549   7.314   2.098 -2.0993  1.3875  2.0735
  510MOL0     H70322   3.519   7.180   1.981 -1.3480 -2.8733 -0.1244
  510MOL0     H70323   3.534   7.126   2.272 -1.2767 -0.4569  0.4174
  510MOL0     H70324   3.512   7.008   2.138  1.2821 -1.6765  2.7940
  510MOL0     H70325   3.738   7.046   2.247  0.5004 -2.1072 -1.6733
  510MOL0     H70326   3.762   7.180   2.128  1.0080 -1.0140 -0.7420
  510MOL0     H70327   3.716   6.891   2.075 -1.9712  2.7287  2.6252
  510MOL0     H70328   3.695   7.011   1.942 -2.3353 -0.7506  0.4633
  510MOL0     H70329   3.970   6.902   2.192 -2.5505  1.6274 -0.3316
  510MOL0     H70330   4.263   7.011   2.153 -0.5141  1.0943 -0.9174
  510MOL0     H70331   4.324   6.958   1.998  0.9917 -2.9835  1.0658
  510MOL0     H70332   4.346   6.777   2.187  0.9990  0.7707 -1.2707
  510MOL0     H70333   4.174   6.782   2.213 -0.1550  2.2186  0.1222
  510MOL0     H70334   4.170   6.703   1.954 -1.0703 -0.3976  0.1984
  510MOL0     H70335   4.343   6.676   1.982  1.1568 -2.9151  1.9846
  510MOL0     H70336   4.306   6.512   2.142 -0.0148 -0.9851  1.5123
  510MOL0     H70337   4.142   6.561   2.182 -0.3847 -0.8942 -0.6052
  510MOL0     H70338   4.441   6.439   1.963  0.1171  2.2133 -0.2267
  510MOL0     H70339   4.617   6.288   1.723  0.1909  0.5216 -1.9521
  510MOL0     H70340   4.622   6.404   1.860  0.8389  0.3368 -0.7155
  510MOL0     H70341   4.623   6.465   1.695  0.0082  2.8449  3.1424
  510MOL0     H70342   4.646   6.534   1.317  0.2603  1.1211 -2.9398
  510MOL0     H70343   4.755   6.490   1.095  1.0594 -0.4238 -1.8401
  510MOL0     H70344   4.713   6.375   0.821 -0.1139  1.0725 -0.2904
  510MOL0     H70345   4.835   6.425   0.933 -1.2698 -1.0194  1.5938
  510MOL0     H70346   4.976   6.369   0.761  0.3133  0.7043  0.5800
  510MOL0     H70347   4.965   6.199   0.815 -0.7568 -1.2562 -2.2180
  510MOL0     H70348   4.813   6.360   0.603  0.3422 -0.3239 -0.3318
  510MOL0     H70349   4.734   6.215   0.661 -0.4074 -1.2166 -3.5198
  510MOL0     H70350   5.017   6.247   0.526 -1.0965  2.7396  0.8022
  510MOL0     H70351   4.867   6.212   0.436 -0.8508 -1.5739 -0.2495
  510MOL0     H70352   4.976   6.010   0.640 -1.3466 -3.3425 -1.3807
  510MOL0     H70353   4.828   6.005   0.541 -0.4615 -1.6012 -0.4609
  510MOL0     H70354   5.111   6.039   0.426  0.4870 -1.2622 -1.9518
  510MOL0     H70355   4.951   6.035   0.338 -1.8942  0.6925  1.7911
  510MOL0     H70356   4.922   5.793   0.445 -0.9662  0.9823  0.2321
  510MOL0     H70357   5.082   5.806   0.494 -0.6851  3.6998  3.5254
  510MOL0     H70358   5.154   5.750   0.285  0.4537  1.6003  2.2188
  510MOL0     H70359   5.057   5.882   0.199 -2.6666 -1.2874 -2.2407
  510MOL0     H70360   4.591   6.089   1.110  0.8020 -2.2226  4.7565
  510MOL0     H70361   4.517   6.131   1.343  2.1729 -0.7767  1.0410
  510MOL0     H70362   4.159   6.410   1.564  2.4963 -0.2653 -0.2044
  510MOL0     H70363   4.053   6.431   1.775  0.3609  3.4305  2.3298
  510MOL0     H70364   2.811   7.491   2.127  0.2352  4.0518  4.4232
  510MOL0     H70365   2.615   7.560   2.021  0.5078 -0.7727 -2.2089
  510MOL0     H70366   2.529   8.101   1.854  0.2130 -1.9923  1.5480
  510MOL0     H70367   2.328   8.242   1.788  1.3035  0.1223 -3.0869
  510MOL0     H70368   2.015   8.297   1.653 -1.8994 -0.0648 -0.0014
  510MOL0     H70369   2.130   8.186   1.581  0.4027 -1.2502  1.0168
  510MOL0     H70370   1.943   8.011   1.577 -0.9170 -0.0137 -1.0328
  510MOL0     H70371   1.916   8.150   1.471  2.3286  0.4567 -0.1290
  510MOL0     H70372   1.798   8.126   1.755  1.9555  0.0856  0.5276
  510MOL0     H70373   1.757   8.234   1.628  1.2088 -0.7191  2.3851
  510MOL0     H70374   1.614   8.051   1.693  1.0600 -1.4691  2.8144
  510MOL0     H70375   1.731   7.928   1.642  2.0261  0.8168 -0.9523
  510MOL0     H70376   1.544   8.024   1.281  1.6263 -2.4907 -0.8681
  510MOL0     H70377   2.087   7.891   1.787 -1.4278  1.6521  1.8723
  510MOL0     H70378   2.308   7.676   1.975 -2.2825 -1.0799  0.1498
  510MOL0     H70379   2.159   7.690   1.897  0.0492  0.6819  3.0466
  510MOL0     H70380   2.313   7.644   1.805 -0.7604 -1.7724  0.0793
  511MOL0     O70381   7.693   0.291   7.571  0.3061 -0.1107  0.1880
  511MOL0     C70382   7.684   0.384   7.651  0.3505 -0.5049  1.2771
  511MOL0     O70383   7.790   0.443   7.720  0.0420  0.3441  0.8952
  511MOL0     C70384   7.899   0.360   7.736  0.3661  0.1749 -0.2077
  511MOL0     C70385   7.899   0.254   7.840  1.0440 -0.6583  0.8888
  511MOL0     C70386   8.001   0.158   7.834 -0.4598 -0.5036  0.1597
  511MOL0     C70387   8.111   0.174   7.749 -0.1487 -0.2651 -0.4159
  511MOL0     O70388   8.223   0.093   7.754  0.7471  0.0909  0.1375
  511MOL0     C70389   8.297   0.093   7.880  0.2453  0.9246  0.4070
  511MOL0     C70390   8.371  -0.044   7.881  1.1057  0.0957  0.7852
  511MOL0     C70391   8.436  -0.079   8.014 -0.3005 -0.6711 -0.2179
  511MOL0     C70392   8.546   0.016   8.061 -0.1535 -0.3105 -0.0257
  511MOL0     C70393   8.595  -0.030   8.203  0.2065 -0.2345  0.4790
  511MOL0     C70394   8.564   0.080   8.309  0.2491  0.0342 -0.3693
  511MOL0     C70395   8.416   0.124   8.327  0.0100  0.7061  1.2279
  511MOL0     C70396   8.333   0.003   8.393 -0.0195 -1.3395 -1.0595
  511MOL0     N70397   8.191   0.030   8.366  0.2345  0.0476  0.4095
  511MOL0     C70398   8.129  -0.026   8.260  1.0175 -0.5099  0.4023
  511MOL0     C70399   8.000  -0.005   8.292  0.7911 -0.0297  0.5509
  511MOL0     C70400   7.891  -0.050   8.203  0.0282 -0.2616 -0.8627
  511MOL0     C70401   7.792  -0.118   8.290 -0.1213  0.2196  0.6493
  511MOL0     C70402   7.682  -0.177   8.203  0.0732 -0.4299  0.2187
  511MOL0     C70403   7.590  -0.256   8.298  0.2512 -0.0837  0.0640
  511MOL0     O70404   7.524  -0.166   8.386  0.1264  0.0176  0.0059
  511MOL0     C70405   7.392  -0.130   8.363 -0.6485  0.1856 -0.0898
  511MOL0     C70406   7.338  -0.047   8.453  1.5278 -1.2782 -1.5336
  511MOL0     C70407   7.197  -0.014   8.458  0.1717  0.1062  0.0420
  511MOL0     C70408   7.147   0.078   8.568 -0.0144  0.4658 -0.0234
  511MOL0     C70409   7.115  -0.056   8.351 -0.4111  0.7377 -0.2614
  511MOL0     C70410   6.973  -0.023   8.336  0.3687 -0.8970 -0.2041
  511MOL0     O70411   6.922  -0.057   8.209  0.1941 -0.5954 -0.1663
  511MOL0     C70412   6.789  -0.013   8.184 -0.2595  0.0618 -0.8458
  511MOL0     C70413   6.763   0.113   8.136 -0.3153  0.0379 -0.3847
  511MOL0     C70414   6.628   0.151   8.123 -0.8541 -0.1359  0.3722
  511MOL0     C70415   6.530   0.060   8.142  0.1901  0.0284  0.6755
  511MOL0     O70416   6.401   0.114   8.117  0.5344 -0.1460  0.7295
  511MOL0     C70417   6.295   0.024   8.121 -0.5641  0.3388 -0.2077
  511MOL0     C70418   6.174   0.074   8.050  0.4794 -0.9812  0.3294
  511MOL0     C70419   6.081   0.164   8.131  0.0541  0.4743 -0.5059
  511MOL0     C70420   5.986   0.234   8.025 -0.2661  0.1902  0.0014
  511MOL0     C70421   5.872   0.305   8.101  0.7763 -0.1355  0.5831
  511MOL0     C70422   5.780   0.386   8.002 -0.1153 -0.0438 -0.4245
  511MOL0     C70423   5.697   0.295   7.918 -0.5046  0.4483  0.3533
  511MOL0     C70424   5.594   0.377   7.846  0.4408 -0.4189  0.0601
  511MOL0    Cl70425   5.470   0.276   7.789  0.1591 -0.0231  0.1233
  511MOL0     C70426   6.557  -0.068   8.181 -0.4861 -0.0519 -0.9515
  511MOL0     C70427   6.683  -0.108   8.201 -0.4972 -0.0189  0.0348
  511MOL0     O70428   6.903   0.025   8.427  0.1790 -0.0046  0.0214
  511MOL0     C70429   7.176  -0.141   8.250 -0.9437  0.0281  0.3127
  511MOL0     C70430   7.312  -0.173   8.259 -0.0186 -0.6270  0.2769
  511MOL0     N70431   7.987   0.058   8.410  0.0262 -0.2584 -0.7770
  511MOL0     N70432   8.106   0.093   8.445 -0.2997  0.0266  0.4442
  511MOL0     C70433   8.118   0.280   7.663 -0.7467  0.2874 -0.7798
  511MOL0     C70434   8.015   0.378   7.653  0.0557 -0.1675 -0.0246
  511MOL0     C70435   7.544   0.438   7.671  0.4426 -0.5047 -0.3057
  511MOL0     C70436   7.520   0.500   7.790 -0.2422  0.0249  0.5965
  511MOL0     C70437   7.397   0.551   7.821 -0.2489  0.7919  0.4276
  511MOL0     C70438   7.291   0.528   7.739  0.1197 -0.1716  0.3267
  511MOL0     O70439   7.163   0.575   7.763  0.3103 -0.1230  0.5382
  511MOL0     C70440   7.130   0.699   7.708 -0.3616  0.0285 -0.1304
  511MOL0     C70441   7.022   0.776   7.793 -0.6601 -0.5827 -0.5652
  511MOL0     C70442   6.891   0.704   7.796  0.2429  0.5960  0.1309
  511MOL0     C70443   6.783   0.766   7.894 -0.4112 -0.1572 -0.3392
  511MOL0     C70444   6.723   0.883   7.829 -0.6171 -0.6566 -0.7638
  511MOL0     C70445   6.671   0.984   7.794 -0.1885  0.2749  0.3800
  511MOL0     C70446   7.305   0.468   7.613  0.4887 -0.1957  0.0185
  511MOL0     C70447   7.433   0.419   7.579 -0.0309  0.2920 -0.1010
  511MOL0     C70448   7.443   0.346   7.445  0.1231 -0.2623  0.5118
  511MOL0     H70449   7.816   0.246   7.910 -1.1063 -0.3086 -1.4726
  511MOL0     H70450   7.995   0.071   7.899 -1.8019 -1.6427 -1.4025
  511MOL0     H70451   8.242   0.116   7.972  1.4836  0.4158  1.3135
  511MOL0     H70452   8.366   0.179   7.880 -0.4570  1.4970 -0.3302
  511MOL0     H70453   8.298  -0.122   7.855  0.9832  1.3558 -3.4493
  511MOL0     H70454   8.445  -0.049   7.801  1.6096 -0.3766  1.2776
  511MOL0     H70455   8.357  -0.081   8.090 -1.7181 -1.0266 -1.6553
  511MOL0     H70456   8.469  -0.183   8.016 -0.1334 -0.6093  0.9932
  511MOL0     H70457   8.626  -0.007   7.990 -0.9046  1.4057 -1.5475
  511MOL0     H70458   8.526   0.123   8.045  1.1667  0.1061  0.9422
  511MOL0     H70459   8.703  -0.044   8.193 -0.1683 -1.7551 -2.6170
  511MOL0     H70460   8.551  -0.126   8.229 -2.9624  0.1391 -2.7622
  511MOL0     H70461   8.597   0.051   8.409 -0.2361  1.9624  0.3953
  511MOL0     H70462   8.610   0.171   8.269  1.4008 -1.3008 -2.2702
  511MOL0     H70463   8.381   0.136   8.224  0.4082 -1.7535  0.7695
  511MOL0     H70464   8.407   0.216   8.386 -0.3100  1.7201 -0.3351
  511MOL0     H70465   8.365  -0.085   8.337  1.7845 -0.0551 -2.1586
  511MOL0     H70466   8.350  -0.005   8.501 -0.6947  0.3440 -0.7855
  511MOL0     H70467   8.165  -0.081   8.174  0.1996 -0.6531  0.1445
  511MOL0     H70468   7.922  -0.124   8.128  1.8408 -1.9202  1.3435
  511MOL0     H70469   7.852   0.034   8.146 -1.3897 -0.3778 -0.0962
  511MOL0     H70470   7.849  -0.192   8.348  1.0479  1.3892  1.0600
  511MOL0     H70471   7.752  -0.037   8.352  1.0092  1.0555  0.3204
  511MOL0     H70472   7.620  -0.105   8.149  0.3561 -1.1085 -1.0462
  511MOL0     H70473   7.727  -0.245   8.130 -1.3269 -1.4580  0.2830
  511MOL0     H70474   7.519  -0.306   8.232 -0.3005  1.8857 -0.9094
  511MOL0     H70475   7.654  -0.325   8.355 -1.6326 -2.5504 -0.6332
  511MOL0     H70476   7.396  -0.024   8.542 -1.8742 -2.4599  1.2350
  511MOL0     H70477   7.098   0.169   8.532 -0.8697 -0.0054 -0.0705
  511MOL0     H70478   7.230   0.099   8.635  0.3046  0.0933 -0.3005
  511MOL0     H70479   7.076   0.028   8.635  1.2646 -0.2436  0.8332
  511MOL0     H70480   6.848   0.177   8.119 -1.8363  2.1178 -0.5441
  511MOL0     H70481   6.619   0.250   8.078  0.2701 -1.3215 -2.7991
  511MOL0     H70482   6.333  -0.062   8.065  1.7012 -0.3155  2.0970
  511MOL0     H70483   6.258  -0.013   8.217  0.4302 -2.3102 -0.7548
  511MOL0     H70484   6.208   0.119   7.956 -3.2875 -0.0893 -0.7935
  511MOL0     H70485   6.111  -0.014   8.034  0.1328 -1.0617  1.9580
  511MOL0     H70486   6.139   0.238   8.187  1.4059 -0.5650 -0.4754
  511MOL0     H70487   6.016   0.104   8.195 -0.9475  1.1620 -0.8454
  511MOL0     H70488   5.963   0.163   7.945  0.9312 -2.0919  1.5588
  511MOL0     H70489   6.043   0.314   7.978  0.0035 -0.8937 -1.5840
  511MOL0     H70490   5.812   0.227   8.149 -1.7670  0.1729 -1.8244
  511MOL0     H70491   5.909   0.370   8.181 -0.2091  0.1067  0.8644
  511MOL0     H70492   5.845   0.447   7.940  1.7873 -0.7575  0.7817
  511MOL0     H70493   5.711   0.451   8.057 -0.8374 -0.8963 -0.2920
  511MOL0     H70494   5.654   0.215   7.980  0.1344  1.0047  1.5648
  511MOL0     H70495   5.750   0.237   7.842  0.4280  2.0018 -0.2206
  511MOL0     H70496   5.642   0.427   7.762  0.9531 -1.1543 -0.0935
  511MOL0     H70497   5.545   0.440   7.921 -2.5150 -0.9889 -1.2493
  511MOL0     H70498   6.472  -0.133   8.200  1.2879 -2.2357 -0.0730
  511MOL0     H70499   6.720  -0.203   8.238  4.2605  1.9374  1.0762
  511MOL0     H70500   7.128  -0.175   8.159  1.0506  0.7088 -1.0795
  511MOL0     H70501   7.343  -0.242   8.181  0.7038  0.3124 -0.2756
  511MOL0     H70502   8.213   0.280   7.610  0.5286 -2.3259  1.2626
  511MOL0     H70503   8.031   0.464   7.589 -3.5946 -0.4771 -1.5337
  511MOL0     H70504   7.599   0.522   7.861  2.8769 -2.7623 -1.7220
  511MOL0     H70505   7.366   0.601   7.912 -0.9001 -0.9828  1.2347
  511MOL0     H70506   7.225   0.750   7.690 -1.0484  0.7108 -2.1171
  511MOL0     H70507   7.101   0.676   7.605  0.6883 -5.0209  0.4414
  511MOL0     H70508   7.009   0.875   7.749  1.0192  0.6048  1.4631
  511MOL0     H70509   7.062   0.784   7.895 -0.3188 -1.5459 -0.6052
  511MOL0     H70510   6.845   0.711   7.697 -3.0291  1.3398  1.5618
  511MOL0     H70511   6.900   0.597   7.820  0.8496  0.6545  0.1768
  511MOL0     H70512   6.820   0.808   7.989 -2.8045  1.8078 -0.1813
  511MOL0     H70513   6.709   0.686   7.908  1.0522 -1.5117 -0.0695
  511MOL0     H70514   6.615   1.073   7.773 -1.6556 -0.5636  0.6172
  511MOL0     H70515   7.213   0.455   7.556  1.0849  2.0029 -1.5807
  511MOL0     H70516   7.515   0.397   7.380 -0.0363 -0.3612  0.2578
  511MOL0     H70517   7.480   0.244   7.463  2.7745  0.3203 -0.9766
  511MOL0     H70518   7.352   0.352   7.386  1.4276  0.3552 -1.5612
  512MOL0     O70519   7.043   4.771   3.414 -0.5953  0.0793 -0.4686
  512MOL0     C70520   6.984   4.822   3.316 -0.0523 -0.1093 -0.7241
  512MOL0     O70521   7.049   4.893   3.207 -0.1451  0.9858  0.4520
  512MOL0     C70522   7.185   4.901   3.195  0.1937 -0.1720 -0.3987
  512MOL0     C70523   7.239   4.938   3.070  0.7343 -0.0136  0.1580
  512MOL0     C70524   7.385   4.958   3.061 -0.0801 -0.2529  0.3017
  512MOL0     C70525   7.469   4.953   3.174  0.5966  0.0128 -0.0902
  512MOL0     O70526   7.603   4.967   3.164  0.3355  0.6709  0.2991
  512MOL0     C70527   7.672   5.005   3.279  1.3457  0.3298  0.1990
  512MOL0     C70528   7.814   5.041   3.229 -0.4891  0.4269  0.0986
  512MOL0     C70529   7.805   5.139   3.111 -0.0395  0.5447  0.0102
  512MOL0     C70530   7.947   5.179   3.058 -0.7244  0.2183 -0.0160
  512MOL0     C70531   7.920   5.267   2.941  0.6569 -0.1434 -0.1746
  512MOL0     C70532   8.033   5.294   2.858  0.8358 -0.5708  0.1720
  512MOL0     C70533   8.134   5.381   2.946  1.0640  0.0319  0.4066
  512MOL0     C70534   8.243   5.419   2.856  0.1815 -0.1423 -0.9601
  512MOL0     N70535   8.351   5.492   2.922  0.5258 -1.3399 -0.2982
  512MOL0     C70536   8.335   5.586   3.024 -0.4670 -0.3868  0.0479
  512MOL0     C70537   8.452   5.647   3.020 -1.8593 -0.0619 -0.5044
  512MOL0     C70538   8.490   5.755   3.116  0.2751  0.2793 -0.7443
  512MOL0     C70539   8.532   5.884   3.042 -0.7748  0.2581  0.3760
  512MOL0     C70540   8.529   6.005   3.130  0.1848  0.3080 -0.2137
  512MOL0     C70541   8.646   6.007   3.231 -0.7998 -0.2356  0.4116
  512MOL0     O70542   8.671   6.138   3.291 -0.9705  0.1992  0.2303
  512MOL0     C70543   8.748   6.214   3.207  1.2809  0.2321  0.2529
  512MOL0     C70544   8.889   6.189   3.194 -0.3848  0.0804 -0.0700
  512MOL0     C70545   8.965   6.278   3.113  0.1468  0.2428 -0.2341
  512MOL0     C70546   9.111   6.239   3.082  0.4332  0.5977  0.7052
  512MOL0     C70547   8.901   6.381   3.043  0.0721 -0.0171 -0.3085
  512MOL0     C70548   8.965   6.469   2.944 -0.1023 -0.6891  0.0089
  512MOL0     O70549   8.883   6.534   2.850 -0.6601 -0.1681 -0.2534
  512MOL0     C70550   8.949   6.586   2.738 -0.7088 -0.0001  0.4349
  512MOL0     C70551   8.968   6.723   2.723  0.3048  0.4588  0.8997
  512MOL0     C70552   9.036   6.766   2.607 -0.1778  0.2667  0.6278
  512MOL0     C70553   9.065   6.676   2.503 -0.3944  0.8337  0.3094
  512MOL0     O70554   9.126   6.721   2.391 -0.2424 -0.6447 -0.0965
  512MOL0     C70555   9.085   6.843   2.327 -0.0141 -0.9306  0.5804
  512MOL0     C70556   9.164   6.854   2.192 -0.2645  0.2311 -0.6091
  512MOL0     C70557   9.311   6.819   2.217 -0.6789 -0.3069 -0.1548
  512MOL0     C70558   9.390   6.853   2.092  0.0005  1.0108  0.1897
  512MOL0     C70559   9.538   6.827   2.111  0.6150 -0.7284  0.8185
  512MOL0     C70560   9.625   6.879   1.986  0.7186 -0.3098  0.5365
  512MOL0     C70561   9.757   6.815   2.006  0.5998 -0.4185  0.5545
  512MOL0     C70562   9.860   6.908   1.939 -0.0255  0.6487 -0.0377
  512MOL0    Cl70563  10.012   6.815   1.915  0.2583 -0.3281 -0.0540
  512MOL0     C70564   9.044   6.541   2.518  0.1772  0.0462 -0.5987
  512MOL0     C70565   8.993   6.497   2.640  0.2252 -0.7918 -0.4604
  512MOL0     O70566   9.081   6.488   2.952  0.1833 -0.7827 -0.8530
  512MOL0     C70567   8.762   6.403   3.058 -0.4736 -1.1956 -0.7502
  512MOL0     C70568   8.689   6.333   3.150 -0.7929  0.9204  0.2659
  512MOL0     N70569   8.535   5.598   2.918 -0.0727 -0.2069  1.2714
  512MOL0     N70570   8.468   5.513   2.850  0.2199 -0.4746  0.0271
  512MOL0     C70571   7.403   4.924   3.290 -0.4038 -0.1857 -0.4268
  512MOL0     C70572   7.273   4.891   3.303  0.6560 -0.5550  0.8904
  512MOL0     C70573   6.835   4.823   3.317 -0.6544  0.6942  0.3015
  512MOL0     C70574   6.777   4.712   3.384 -0.8135  0.3793 -0.4277
  512MOL0     C70575   6.636   4.680   3.381  0.8874 -0.0361 -1.1711
  512MOL0     C70576   6.550   4.761   3.300 -0.4600  1.0128 -0.2756
  512MOL0     O70577   6.412   4.737   3.283 -0.4581 -0.6867 -0.2992
  512MOL0     C70578   6.344   4.623   3.341  0.1582  0.2702 -0.3225
  512MOL0     C70579   6.391   4.502   3.264 -0.7215  0.0267 -0.2308
  512MOL0     C70580   6.368   4.498   3.115  0.2592 -0.3538  0.2390
  512MOL0     C70581   6.226   4.489   3.075  0.9277 -0.1438  0.1819
  512MOL0     C70582   6.208   4.518   2.933  0.4443 -1.1946  0.5804
  512MOL0     C70583   6.193   4.544   2.815  0.3560 -0.0927 -0.5143
  512MOL0     C70584   6.607   4.873   3.238  0.4354 -0.4178 -0.0388
  512MOL0     C70585   6.751   4.898   3.235  0.5316  0.3234 -0.3828
  512MOL0     C70586   6.799   4.990   3.121  0.9714  0.8609 -0.1832
  512MOL0     H70587   7.177   4.956   2.983  2.6782  0.9754 -1.1190
  512MOL0     H70588   7.428   4.976   2.962 -0.7502 -2.3453 -0.4065
  512MOL0     H70589   7.672   4.922   3.351 -0.7118 -0.4370 -0.5883
  512MOL0     H70590   7.634   5.089   3.337  1.8649  0.9038 -0.2878
  512MOL0     H70591   7.875   5.078   3.312 -0.8123  0.7313  0.2050
  512MOL0     H70592   7.868   4.948   3.207 -0.4717  0.8332 -1.7411
  512MOL0     H70593   7.744   5.093   3.032 -0.4083 -1.4798  1.3900
  512MOL0     H70594   7.748   5.229   3.139 -2.0321 -1.4020  2.7590
  512MOL0     H70595   7.998   5.235   3.137 -1.3768  2.8701 -1.3546
  512MOL0     H70596   8.000   5.091   3.022 -0.9389  0.0872 -0.0112
  512MOL0     H70597   7.868   5.358   2.974  0.9497 -0.2735  0.6499
  512MOL0     H70598   7.847   5.217   2.877  1.0009  2.3589 -2.7293
  512MOL0     H70599   8.068   5.195   2.829 -0.3578 -1.1483  0.6191
  512MOL0     H70600   8.010   5.347   2.765  1.7181  0.4852  0.5360
  512MOL0     H70601   8.169   5.313   3.023 -0.2915 -0.6605  0.4367
  512MOL0     H70602   8.098   5.470   2.999 -1.0037  0.0087 -0.8469
  512MOL0     H70603   8.289   5.329   2.814  0.9168 -1.1335  1.7441
  512MOL0     H70604   8.201   5.472   2.771  2.2516  0.0422 -1.9276
  512MOL0     H70605   8.256   5.592   3.098 -0.7706 -0.1492 -0.2916
  512MOL0     H70606   8.571   5.717   3.180  1.1822 -3.0339 -3.5450
  512MOL0     H70607   8.405   5.773   3.183 -0.1206 -0.0672 -1.1451
  512MOL0     H70608   8.633   5.876   3.002 -0.8275  2.0662 -0.2112
  512MOL0     H70609   8.465   5.905   2.958 -0.5816 -1.3585 -0.2279
  512MOL0     H70610   8.548   6.084   3.058 -0.4506 -0.3316 -1.1082
  512MOL0     H70611   8.441   6.038   3.185  0.9523  2.5883 -0.2323
  512MOL0     H70612   8.620   5.941   3.315 -1.4899  0.0003  0.3891
  512MOL0     H70613   8.739   5.965   3.189 -1.6467 -0.2568 -1.5547
  512MOL0     H70614   8.939   6.109   3.248  1.4214  1.8067  0.9217
  512MOL0     H70615   9.170   6.311   3.138  0.0915  1.3550  0.1016
  512MOL0     H70616   9.138   6.247   2.976  0.3105  1.0883  0.7104
  512MOL0     H70617   9.135   6.136   3.111  0.3345  0.2617 -0.3641
  512MOL0     H70618   8.921   6.796   2.787 -0.8126  1.1439 -0.6558
  512MOL0     H70619   9.072   6.867   2.591  1.0996 -0.5520 -2.4097
  512MOL0     H70620   8.976   6.847   2.323 -0.0223 -1.6600 -2.4533
  512MOL0     H70621   9.126   6.924   2.387  0.7962  0.6635 -1.9633
  512MOL0     H70622   9.116   6.796   2.112 -1.3242 -1.4631  1.1797
  512MOL0     H70623   9.157   6.957   2.157 -2.3817  0.2178 -0.3751
  512MOL0     H70624   9.312   6.711   2.232 -0.2849  0.1578  4.7879
  512MOL0     H70625   9.349   6.863   2.310 -1.4281  1.1235 -0.4919
  512MOL0     H70626   9.385   6.963   2.086  2.6027  1.2388  1.1879
  512MOL0     H70627   9.358   6.808   1.998  4.1461 -1.2758 -0.3287
  512MOL0     H70628   9.567   6.879   2.203  0.8168  1.7338 -0.5409
  512MOL0     H70629   9.553   6.720   2.128 -1.9106 -1.1873  0.5921
  512MOL0     H70630   9.625   6.988   1.974 -5.4028  0.4930  3.4512
  512MOL0     H70631   9.580   6.840   1.894  2.4508  0.0281 -0.4997
  512MOL0     H70632   9.757   6.715   1.961 -2.7649 -0.1483 -0.2748
  512MOL0     H70633   9.781   6.820   2.113  0.3688  3.7160  0.5527
  512MOL0     H70634   9.883   7.002   1.989 -2.5251  2.7253 -2.4742
  512MOL0     H70635   9.815   6.931   1.842 -1.9126  1.0532  0.8722
  512MOL0     H70636   9.067   6.470   2.439 -0.6715 -0.2614 -0.5789
  512MOL0     H70637   8.982   6.392   2.663  0.0829 -0.5579  0.5767
  512MOL0     H70638   8.716   6.481   2.998  1.6962  0.1761 -0.7446
  512MOL0     H70639   8.582   6.345   3.163 -1.0465 -0.0650 -0.7841
  512MOL0     H70640   7.454   4.917   3.386  0.7838  0.1136 -1.0186
  512MOL0     H70641   7.225   4.902   3.400  1.2824  1.2504  1.0376
  512MOL0     H70642   6.840   4.657   3.453 -0.0343  0.6171 -0.9394
  512MOL0     H70643   6.596   4.597   3.438 -1.6655  2.9139  1.7780
  512MOL0     H70644   6.376   4.614   3.446  0.6976 -2.9421 -0.6607
  512MOL0     H70645   6.236   4.637   3.332  0.1013  0.8043  1.0053
  512MOL0     H70646   6.344   4.410   3.299  0.6602 -0.3083  0.8350
  512MOL0     H70647   6.498   4.484   3.279  0.1517  2.5304 -2.5468
  512MOL0     H70648   6.409   4.594   3.082  0.3909 -0.1022  1.1177
  512MOL0     H70649   6.420   4.421   3.056  1.7638 -0.9108  2.2070
  512MOL0     H70650   6.166   4.558   3.135 -1.2291 -1.0061 -0.8680
  512MOL0     H70651   6.184   4.391   3.098 -0.9210  0.3945 -0.6619
  512MOL0     H70652   6.195   4.562   2.709  0.0230 -0.8441 -0.6545
  512MOL0     H70653   6.546   4.943   3.182 -1.1436 -0.7469  1.2237
  512MOL0     H70654   6.867   5.064   3.163 -1.6543  2.0087  2.3381
  512MOL0     H70655   6.844   4.930   3.040 -1.7052 -2.3810  0.5135
  512MOL0     H70656   6.711   5.039   3.079 -1.7821 -1.6789  2.2172
  513MOL0     O70657   0.766   7.867   6.951 -0.7950  0.3366 -0.7468
  513MOL0     C70658   0.726   7.811   7.057 -0.4136  0.5196  0.4728
  513MOL0     O70659   0.812   7.750   7.148 -0.1359 -0.3443 -0.5388
  513MOL0     C70660   0.948   7.737   7.116  0.5403 -0.1094 -0.5980
  513MOL0     C70661   0.991   7.614   7.091 -0.0875  1.3278  0.1009
  513MOL0     C70662   1.119   7.590   7.032 -0.4317  0.6630 -0.3692
  513MOL0     C70663   1.208   7.696   7.025 -0.2579 -0.1971 -0.1971
  513MOL0     O70664   1.327   7.680   6.961  0.0681  0.3412 -0.0408
  513MOL0     C70665   1.395   7.545   6.962 -0.6863  0.0541  0.4519
  513MOL0     C70666   1.541   7.560   6.935  0.2100  0.0291  0.3581
  513MOL0     C70667   1.626   7.613   7.045 -0.0618  0.3026 -0.2219
  513MOL0     C70668   1.781   7.615   7.023  0.1228 -0.0870 -0.2211
  513MOL0     C70669   1.862   7.525   7.122 -0.7088 -0.6827  0.7500
  513MOL0     C70670   2.008   7.570   7.110 -0.5607  0.8144 -0.1911
  513MOL0     C70671   2.093   7.507   7.231 -0.3704 -0.1167  0.4866
  513MOL0     C70672   2.135   7.357   7.208  0.4721 -0.5809 -0.4057
  513MOL0     N70673   2.222   7.306   7.314 -0.3903  0.2103  0.1913
  513MOL0     C70674   2.190   7.275   7.450  0.3277 -0.2303  0.2253
  513MOL0     C70675   2.308   7.253   7.507  0.0044  0.1113 -0.5306
  513MOL0     C70676   2.324   7.197   7.646 -0.3805 -0.0495  0.9100
  513MOL0     C70677   2.311   7.045   7.657 -0.3756 -0.2187 -0.1359
  513MOL0     C70678   2.403   6.965   7.567 -0.8287  0.5085 -1.0641
  513MOL0     C70679   2.547   7.004   7.601 -0.3257  0.1774  0.0069
  513MOL0     O70680   2.578   6.946   7.735  0.0846  0.4789 -0.0477
  513MOL0     C70681   2.707   6.897   7.737 -0.1981  0.2936  0.5527
  513MOL0     C70682   2.734   6.760   7.705  0.5018  0.1262  0.3171
  513MOL0     C70683   2.861   6.699   7.707 -0.9669 -0.5434  0.0767
  513MOL0     C70684   2.867   6.558   7.665 -0.0597  0.3314  1.0523
  513MOL0     C70685   2.965   6.784   7.732  0.5815  0.4099  0.4636
  513MOL0     C70686   3.103   6.741   7.709  0.7004  0.9454 -0.3431
  513MOL0     O70687   3.184   6.809   7.792  0.8134  0.0494  0.2550
  513MOL0     C70688   3.317   6.795   7.793 -0.2605 -0.7127 -0.4237
  513MOL0     C70689   3.401   6.904   7.827 -0.0548  0.1735 -0.9482
  513MOL0     C70690   3.532   6.887   7.849 -0.0471 -0.0590 -0.7454
  513MOL0     C70691   3.596   6.761   7.846 -0.1767  0.0104  0.5579
  513MOL0     O70692   3.729   6.766   7.868 -0.4043 -0.4241 -0.6529
  513MOL0     C70693   3.786   6.634   7.876 -0.4228  0.0528 -0.5064
  513MOL0     C70694   3.933   6.643   7.916  0.1654 -0.4024 -0.2222
  513MOL0     C70695   4.019   6.703   7.804 -0.0107  0.4098  0.3760
  513MOL0     C70696   4.119   6.601   7.753  0.3714 -0.4175  0.7787
  513MOL0     C70697   4.207   6.673   7.646  1.1619  0.1330  0.9392
  513MOL0     C70698   4.129   6.681   7.516 -0.7481 -0.0783  1.0569
  513MOL0     C70699   4.219   6.733   7.404  0.4018 -0.4641  0.0942
  513MOL0     C70700   4.133   6.771   7.275  0.4242 -0.2354  0.2723
  513MOL0    Cl70701   4.232   6.888   7.184 -0.0510  0.2337  0.0078
  513MOL0     C70702   3.522   6.655   7.803  0.3996 -0.0233  0.3004
  513MOL0     C70703   3.382   6.673   7.779  0.5460  0.9026 -0.0988
  513MOL0     O70704   3.136   6.661   7.622  0.0235 -0.3934 -0.1726
  513MOL0     C70705   2.944   6.922   7.780 -0.3984 -0.1337 -0.7043
  513MOL0     C70706   2.813   6.973   7.780 -0.6055 -0.0126  0.7295
  513MOL0     N70707   2.410   7.267   7.413  0.1593  0.0578 -0.2003
  513MOL0     N70708   2.362   7.303   7.299 -0.9127 -0.0998  0.8489
  513MOL0     C70709   1.161   7.823   7.062  0.2507  0.5646  0.7492
  513MOL0     C70710   1.028   7.843   7.097 -0.5325 -0.3755  0.2455
  513MOL0     C70711   0.585   7.822   7.112 -0.5890  0.8412 -0.0180
  513MOL0     C70712   0.567   7.850   7.248  0.3086 -0.2420  0.3304
  513MOL0     C70713   0.439   7.836   7.306 -0.5183  0.7280  0.3103
  513MOL0     C70714   0.327   7.820   7.225 -1.3032  0.1952 -0.1536
  513MOL0     O70715   0.205   7.817   7.286 -0.3077  0.0438 -0.5889
  513MOL0     C70716   0.164   7.691   7.336 -0.5867  0.2736  1.3376
  513MOL0     C70717   0.027   7.673   7.266  0.3556  0.0881 -0.3273
  513MOL0     C70718  -0.037   7.541   7.298 -0.0797  0.4481  0.2389
  513MOL0     C70719  -0.175   7.521   7.230 -0.4240  0.4192 -0.2997
  513MOL0     C70720  -0.271   7.630   7.253 -0.4024  0.5071  0.8517
  513MOL0     C70721  -0.354   7.717   7.278 -0.3504  1.1601 -0.0696
  513MOL0     C70722   0.345   7.799   7.089 -0.2801 -0.4075  0.5506
  513MOL0     C70723   0.473   7.798   7.030  0.3640 -0.2971  0.3682
  513MOL0     C70724   0.490   7.752   6.884  0.6988 -0.1500  0.1420
  513MOL0     H70725   0.915   7.538   7.107  0.5552  1.0187  1.8894
  513MOL0     H70726   1.144   7.488   7.003  0.4400  0.0846  2.0805
  513MOL0     H70727   1.355   7.489   6.877  1.3541  0.6126 -0.9642
  513MOL0     H70728   1.385   7.506   7.063  1.8260  1.0993  1.1643
  513MOL0     H70729   1.577   7.467   6.892 -0.7166  0.0878 -0.5930
  513MOL0     H70730   1.554   7.633   6.854 -0.3981  0.0639  0.2857
  513MOL0     H70731   1.596   7.716   7.066  1.1382 -0.0497  3.9712
  513MOL0     H70732   1.606   7.572   7.144 -1.3848  1.5772  0.0906
  513MOL0     H70733   1.802   7.577   6.922  0.5050  1.7772 -0.8817
  513MOL0     H70734   1.809   7.720   7.030  0.9515 -0.2431 -1.0416
  513MOL0     H70735   1.846   7.423   7.086 -0.5370 -0.9560  1.4335
  513MOL0     H70736   1.831   7.550   7.224  3.8838  0.8755  2.0342
  513MOL0     H70737   2.058   7.544   7.016 -2.5579 -2.0547 -0.5677
  513MOL0     H70738   2.009   7.678   7.126 -2.7789  0.9033 -0.3862
  513MOL0     H70739   2.045   7.514   7.329 -2.3450 -0.6560 -0.3802
  513MOL0     H70740   2.187   7.561   7.243  2.2417 -4.4416  1.3159
  513MOL0     H70741   2.053   7.285   7.204  0.2245 -0.2958 -0.5793
  513MOL0     H70742   2.187   7.361   7.112 -1.6232  1.4158 -1.5722
  513MOL0     H70743   2.092   7.260   7.496  1.8420  2.8423  5.3171
  513MOL0     H70744   2.241   7.245   7.698 -2.0219  0.3618 -1.8820
  513MOL0     H70745   2.418   7.232   7.690  1.3478 -3.3588  0.1914
  513MOL0     H70746   2.340   7.016   7.758  5.0447  3.3375 -0.2913
  513MOL0     H70747   2.208   7.009   7.642 -0.3687 -0.4040  0.2362
  513MOL0     H70748   2.390   6.856   7.571 -1.2976  0.5534  2.8003
  513MOL0     H70749   2.391   6.993   7.462 -0.3984 -2.5082 -2.0178
  513MOL0     H70750   2.614   6.958   7.528  1.4270  0.9570  1.0343
  513MOL0     H70751   2.562   7.112   7.595  0.3141  0.0642 -0.5330
  513MOL0     H70752   2.645   6.710   7.670 -0.6272  2.1687  0.1618
  513MOL0     H70753   2.775   6.502   7.682 -0.2500  0.4739  0.4846
  513MOL0     H70754   2.946   6.507   7.721  0.5258  0.6594  0.5396
  513MOL0     H70755   2.893   6.550   7.559  3.2335  0.6015  1.7352
  513MOL0     H70756   3.354   6.998   7.852  1.0206  0.7136 -0.9221
  513MOL0     H70757   3.586   6.978   7.875  1.1292 -1.1320  0.7483
  513MOL0     H70758   3.733   6.572   7.949  1.5065 -0.7879  0.2566
  513MOL0     H70759   3.782   6.596   7.774 -3.8630  0.8006 -0.7758
  513MOL0     H70760   3.934   6.721   7.993 -0.6912 -0.2736 -0.3312
  513MOL0     H70761   3.974   6.550   7.955  1.5903  0.4295  0.3670
  513MOL0     H70762   4.074   6.795   7.825 -0.6588  1.7611 -3.2307
  513MOL0     H70763   3.945   6.729   7.728 -1.7380  1.6048  2.3595
  513MOL0     H70764   4.070   6.519   7.699 -0.4706 -0.0846  1.0184
  513MOL0     H70765   4.194   6.567   7.825 -1.1796 -0.4467  2.4679
  513MOL0     H70766   4.233   6.775   7.677  2.4738  1.3475 -3.3641
  513MOL0     H70767   4.306   6.627   7.631  0.9511  0.3854 -1.8098
  513MOL0     H70768   4.048   6.754   7.521 -0.2335  0.4517  1.6549
  513MOL0     H70769   4.089   6.582   7.488 -0.4537  0.1085 -0.0758
  513MOL0     H70770   4.299   6.664   7.376  1.6190 -0.3500  2.9979
  513MOL0     H70771   4.269   6.825   7.434 -0.8080  1.6811 -3.6816
  513MOL0     H70772   4.042   6.827   7.300  0.5835  0.7072 -1.1768
  513MOL0     H70773   4.113   6.681   7.217 -0.5979  0.2472 -0.1484
  513MOL0     H70774   3.564   6.556   7.791  0.8293  0.2201 -0.2284
  513MOL0     H70775   3.323   6.592   7.738  2.8404 -1.0005  0.1013
  513MOL0     H70776   3.027   6.987   7.805 -0.4188  0.5508 -2.2776
  513MOL0     H70777   2.797   7.073   7.818  0.6373 -0.4275  2.4809
  513MOL0     H70778   1.227   7.907   7.043 -0.4885  0.7657 -1.1416
  513MOL0     H70779   0.998   7.946   7.111  1.9232  0.5116 -0.5271
  513MOL0     H70780   0.643   7.877   7.320 -1.5913  0.1257  2.3181
  513MOL0     H70781   0.428   7.847   7.413  1.9771 -1.0942  0.8522
  513MOL0     H70782   0.242   7.622   7.302  0.8558  2.0200  0.9428
  513MOL0     H70783   0.156   7.687   7.445 -0.5188  3.0701  1.5189
  513MOL0     H70784   0.042   7.680   7.158 -2.2468  3.0168 -0.6460
  513MOL0     H70785  -0.043   7.748   7.306  0.0006 -1.8399  2.9973
  513MOL0     H70786   0.032   7.468   7.256 -0.0961 -0.5189  1.8362
  513MOL0     H70787  -0.040   7.521   7.405  2.1194  1.3822  0.5427
  513MOL0     H70788  -0.219   7.438   7.286  0.2142 -0.1262 -0.5999
  513MOL0     H70789  -0.164   7.490   7.126 -2.3123  1.9673 -1.0313
  513MOL0     H70790  -0.425   7.788   7.314  1.0711  2.1790  0.8080
  513MOL0     H70791   0.265   7.768   7.022 -0.2601 -0.8193  0.7114
  513MOL0     H70792   0.546   7.658   6.892  0.2800 -0.3165  1.4549
  513MOL0     H70793   0.392   7.736   6.838 -0.1794 -2.7469  2.5898
  513MOL0     H70794   0.552   7.822   6.827  1.9746 -0.3484  1.2395
  514MOL0     O70795   5.632   2.877   7.463 -0.6015 -0.1115 -0.2331
  514MOL0     C70796   5.633   2.982   7.516  0.1027 -0.9139  0.5441
  514MOL0     O70797   5.740   3.059   7.552  0.0471  0.6053 -0.2129
  514MOL0     C70798   5.866   3.034   7.505  0.4077 -0.1043  0.6143
  514MOL0     C70799   5.893   2.997   7.367 -0.3178  0.0041 -0.3022
  514MOL0     C70800   6.015   3.000   7.307 -0.9222  0.7622 -0.4335
  514MOL0     C70801   6.127   3.019   7.389  0.1973 -0.0222 -0.0376
  514MOL0     O70802   6.246   3.023   7.315  0.2315  0.1877 -0.6830
  514MOL0     C70803   6.366   3.062   7.375 -0.1498  0.5802  0.3907
  514MOL0     C70804   6.486   3.056   7.283  0.3305  0.4848 -0.3139
  514MOL0     C70805   6.616   3.072   7.360  0.4191 -0.2948  0.6170
  514MOL0     C70806   6.749   3.067   7.281  0.0901 -0.8796 -0.1642
  514MOL0     C70807   6.857   3.114   7.385  0.9252 -0.3051  0.0489
  514MOL0     C70808   6.852   3.265   7.415 -0.0435  0.0750  0.1224
  514MOL0     C70809   6.961   3.313   7.517  0.8630 -0.7242 -0.0788
  514MOL0     C70810   6.959   3.283   7.659 -0.2995  0.2220  0.0450
  514MOL0     N70811   6.827   3.299   7.715 -0.2409 -0.3989 -0.3179
  514MOL0     C70812   6.722   3.205   7.724  0.3911 -0.2855  0.5144
  514MOL0     C70813   6.634   3.258   7.800 -0.1012  0.5966  0.0666
  514MOL0     C70814   6.509   3.186   7.832 -0.6136 -0.1377  0.8735
  514MOL0     C70815   6.374   3.255   7.788 -0.3608  0.5664 -0.1935
  514MOL0     C70816   6.256   3.181   7.858  0.5454 -0.3019 -0.3859
  514MOL0     C70817   6.132   3.277   7.854  1.3869 -0.1050  0.1367
  514MOL0     O70818   6.032   3.190   7.908 -0.7140  0.0775 -0.4602
  514MOL0     C70819   5.920   3.254   7.947  0.4383  0.2809  0.7389
  514MOL0     C70820   5.874   3.380   7.897  0.2121  0.4387 -1.2168
  514MOL0     C70821   5.755   3.436   7.951 -0.1528 -0.1896  0.5598
  514MOL0     C70822   5.699   3.557   7.892 -1.2082 -0.0661 -0.1007
  514MOL0     C70823   5.686   3.355   8.050  0.2277  0.2174 -0.1243
  514MOL0     C70824   5.553   3.396   8.117 -0.3354  0.9273  0.4180
  514MOL0     O70825   5.499   3.308   8.205  0.2669 -0.6858  0.2080
  514MOL0     C70826   5.374   3.346   8.259  0.3846  0.0340 -0.9922
  514MOL0     C70827   5.371   3.450   8.354  0.6713 -0.1345 -0.0608
  514MOL0     C70828   5.248   3.502   8.399 -0.4333  0.3728 -0.6795
  514MOL0     C70829   5.128   3.435   8.357  0.3033  0.3403  0.1033
  514MOL0     O70830   4.996   3.458   8.398  1.1320 -0.8001  0.1501
  514MOL0     C70831   4.984   3.570   8.477 -0.6359  0.0492  0.0535
  514MOL0     C70832   4.846   3.573   8.552  0.9422 -0.0420 -0.8399
  514MOL0     C70833   4.843   3.490   8.677  0.0164 -1.1274  0.6548
  514MOL0     C70834   4.710   3.483   8.745 -0.7978  0.2491  0.3674
  514MOL0     C70835   4.678   3.362   8.825 -0.4194  0.7617 -0.4496
  514MOL0     C70836   4.771   3.331   8.951 -0.2630 -0.0641  0.3042
  514MOL0     C70837   4.751   3.447   9.053 -0.1916 -0.0631 -0.3364
  514MOL0     C70838   4.846   3.430   9.171 -0.5032  1.2161 -0.0384
  514MOL0    Cl70839   4.781   3.289   9.271 -0.3066 -0.1413 -0.3273
  514MOL0     C70840   5.132   3.324   8.270 -0.2053 -1.1832 -0.2360
  514MOL0     C70841   5.255   3.286   8.219  0.5975  0.6425 -0.0662
  514MOL0     O70842   5.510   3.509   8.093  0.7406 -0.2992 -0.1793
  514MOL0     C70843   5.741   3.238   8.103  0.1836 -0.0757  0.4460
  514MOL0     C70844   5.855   3.189   8.048  0.2706 -0.9929 -0.3525
  514MOL0     N70845   6.669   3.381   7.844 -0.3177  0.0715 -0.8073
  514MOL0     N70846   6.786   3.406   7.792 -0.9584  0.0017  0.6930
  514MOL0     C70847   6.117   3.033   7.524  0.1209 -0.6843  0.3743
  514MOL0     C70848   5.986   3.054   7.581 -0.3859  0.5622 -0.0925
  514MOL0     C70849   5.501   3.044   7.523 -0.1933 -0.7026  0.0629
  514MOL0     C70850   5.484   3.184   7.500 -0.1664 -0.0799 -0.2303
  514MOL0     C70851   5.358   3.244   7.482 -0.6054 -0.8365 -0.6894
  514MOL0     C70852   5.240   3.175   7.508 -0.8391  0.4005  0.0970
  514MOL0     O70853   5.114   3.226   7.506  0.1033  0.2822  0.0009
  514MOL0     C70854   5.090   3.357   7.461  0.2898  0.2757  0.2427
  514MOL0     C70855   5.085   3.357   7.304  0.5430  0.4062 -0.4554
  514MOL0     C70856   4.943   3.334   7.241  0.0975 -0.3252  0.5149
  514MOL0     C70857   4.942   3.303   7.086  0.0656 -0.2999 -0.3423
  514MOL0     C70858   4.813   3.350   7.032 -0.2895  0.0817 -0.4288
  514MOL0     C70859   4.701   3.380   7.002 -0.2181 -1.0785  1.0666
  514MOL0     C70860   5.252   3.042   7.540  0.0736 -0.3310 -0.3724
  514MOL0     C70861   5.376   2.973   7.548 -0.1008 -0.2715  0.1371
  514MOL0     C70862   5.380   2.829   7.599  0.0152 -0.0876 -0.3479
  514MOL0     H70863   5.806   2.970   7.308 -1.2994 -0.8030  1.4325
  514MOL0     H70864   6.023   2.972   7.202  1.1941 -2.5542  0.4538
  514MOL0     H70865   6.387   2.990   7.454  1.7818 -0.4423 -0.9564
  514MOL0     H70866   6.361   3.165   7.413  3.7751  0.2581  2.2034
  514MOL0     H70867   6.482   2.964   7.224 -1.0373 -0.8018  1.6385
  514MOL0     H70868   6.476   3.138   7.211  2.6416 -0.6606 -2.0618
  514MOL0     H70869   6.606   3.159   7.426 -2.6967 -0.3049  0.2954
  514MOL0     H70870   6.626   2.984   7.424  0.5277 -1.5209 -1.0140
  514MOL0     H70871   6.774   2.974   7.229  1.2207  0.0850 -1.3916
  514MOL0     H70872   6.750   3.146   7.206  1.7424  1.2174  1.9099
  514MOL0     H70873   6.948   3.099   7.326  2.1622  0.6609  1.6026
  514MOL0     H70874   6.851   3.053   7.476 -2.1278  0.8813  0.7526
  514MOL0     H70875   6.882   3.320   7.325  0.4826 -1.5219 -0.7148
  514MOL0     H70876   6.754   3.307   7.440 -0.0893  1.4743 -2.0389
  514MOL0     H70877   6.957   3.422   7.515  0.7811 -0.7083  0.5588
  514MOL0     H70878   7.054   3.289   7.466 -0.8059 -2.4613 -2.5811
  514MOL0     H70879   6.985   3.179   7.682  1.7773  0.8298  0.6881
  514MOL0     H70880   7.031   3.355   7.699 -0.6207  1.8500 -2.1450
  514MOL0     H70881   6.713   3.109   7.674 -0.3155 -0.2184  0.4933
  514MOL0     H70882   6.506   3.159   7.938 -0.4873 -1.9667  0.4421
  514MOL0     H70883   6.511   3.093   7.774  1.4695  0.3386  0.0873
  514MOL0     H70884   6.389   3.357   7.825  2.6429  0.1126  0.0808
  514MOL0     H70885   6.370   3.261   7.679 -0.3020 -2.1448 -0.4118
  514MOL0     H70886   6.237   3.090   7.800  3.8957 -0.7796 -0.9615
  514MOL0     H70887   6.285   3.148   7.958 -2.1934 -2.5924 -0.2406
  514MOL0     H70888   6.155   3.367   7.911  0.4495  0.0950  0.2187
  514MOL0     H70889   6.108   3.308   7.752  0.0487  1.1664  0.8166
  514MOL0     H70890   5.914   3.425   7.807  0.4911  2.2482 -0.2437
  514MOL0     H70891   5.739   3.578   7.793  0.7356  0.1909  0.6996
  514MOL0     H70892   5.699   3.639   7.964 -0.2603 -0.7708  0.7317
  514MOL0     H70893   5.598   3.523   7.867 -1.6771  1.0673  0.2149
  514MOL0     H70894   5.463   3.502   8.380  1.3749 -1.4892  0.2422
  514MOL0     H70895   5.260   3.600   8.444 -2.0738  0.8378 -1.1980
  514MOL0     H70896   5.073   3.581   8.539  0.5819 -1.0422 -1.4160
  514MOL0     H70897   4.981   3.644   8.396 -1.9871 -1.3223 -1.2276
  514MOL0     H70898   4.810   3.673   8.579 -1.0222 -1.0190  0.3471
  514MOL0     H70899   4.772   3.536   8.481  1.2728 -0.4542 -0.9760
  514MOL0     H70900   4.921   3.531   8.741  1.7450 -0.3268 -1.8426
  514MOL0     H70901   4.880   3.389   8.661  1.5734 -0.7900  1.8847
  514MOL0     H70902   4.639   3.496   8.663  0.9344  1.0419 -1.0873
  514MOL0     H70903   4.687   3.579   8.792 -1.8518  0.5509 -0.7007
  514MOL0     H70904   4.584   3.384   8.876 -0.7636 -2.3182  0.4664
  514MOL0     H70905   4.665   3.273   8.763 -1.6710  0.8100 -0.2872
  514MOL0     H70906   4.878   3.326   8.928 -0.5069  1.4755 -1.3688
  514MOL0     H70907   4.734   3.233   8.984 -0.5727  0.4421  1.4770
  514MOL0     H70908   4.646   3.444   9.085  0.1624 -0.1064  0.8978
  514MOL0     H70909   4.772   3.544   9.007  1.4967 -0.8523 -1.2960
  514MOL0     H70910   4.839   3.519   9.233  0.8017 -0.0994  2.0939
  514MOL0     H70911   4.951   3.409   9.149 -0.4929  1.5402 -0.3039
  514MOL0     H70912   5.040   3.269   8.250  0.0453 -2.1339  1.0947
  514MOL0     H70913   5.247   3.209   8.142  0.5137  1.1170 -0.5402
  514MOL0     H70914   5.699   3.186   8.189 -1.2300 -1.2118 -0.8606
  514MOL0     H70915   5.892   3.093   8.082 -0.6846 -1.5171 -0.7447
  514MOL0     H70916   6.202   3.042   7.591  0.5122  2.9270 -0.4083
  514MOL0     H70917   5.982   3.077   7.687 -0.2501  3.8623 -0.6750
  514MOL0     H70918   5.574   3.238   7.474  1.4320 -2.3951  0.2173
  514MOL0     H70919   5.360   3.335   7.424 -2.3614  1.3054  2.3270
  514MOL0     H70920   4.990   3.392   7.488 -0.5256 -1.2267 -0.6869
  514MOL0     H70921   5.165   3.425   7.502  0.4561 -0.0125  0.4211
  514MOL0     H70922   5.150   3.274   7.276  1.6519  0.8532  0.6898
  514MOL0     H70923   5.124   3.456   7.275 -1.6413  1.0543 -1.3980
  514MOL0     H70924   4.900   3.253   7.301  0.6390 -0.8420  0.2257
  514MOL0     H70925   4.881   3.422   7.257 -0.0615  0.2602 -2.6399
  514MOL0     H70926   4.969   3.200   7.061 -0.3076 -0.3584 -0.5094
  514MOL0     H70927   5.028   3.358   7.046  0.2064  0.4169  0.8859
  514MOL0     H70928   4.603   3.417   6.980 -0.9761 -3.2214  0.6401
  514MOL0     H70929   5.162   2.982   7.550  1.5422 -2.5191  0.4615
  514MOL0     H70930   5.454   2.831   7.679  0.0156  1.3288 -0.3600
  514MOL0     H70931   5.284   2.809   7.646  0.1227  0.9626  0.3509
  514MOL0     H70932   5.414   2.757   7.523  2.3149 -0.3195  0.8112
  515MOL0     O70933   0.580   2.758   5.585 -0.3907  0.4180 -0.2609
  515MOL0     C70934   0.506   2.853   5.616 -0.4029  0.4624 -0.1097
  515MOL0     O70935   0.523   2.926   5.734  0.2718  0.1607  0.1242
  515MOL0     C70936   0.634   2.898   5.811  0.8276  0.5405  1.2316
  515MOL0     C70937   0.748   2.975   5.799 -0.6835  0.2074  0.6383
  515MOL0     C70938   0.867   2.950   5.867  0.2812  0.9599  0.7036
  515MOL0     C70939   0.878   2.838   5.944 -0.3372  0.2839  0.1202
  515MOL0     O70940   0.994   2.816   6.008  0.3175 -0.3000 -0.3963
  515MOL0     C70941   0.980   2.774   6.146  0.0041  0.4343  0.2034
  515MOL0     C70942   1.097   2.844   6.228  0.4124 -0.2438 -0.1074
  515MOL0     C70943   1.167   2.963   6.155  0.2068 -0.0149 -0.4022
  515MOL0     C70944   1.281   3.030   6.239 -0.1715 -0.0638  0.1413
  515MOL0     C70945   1.360   3.144   6.174 -0.6629 -0.8782 -0.4049
  515MOL0     C70946   1.430   3.238   6.279 -0.1334 -0.1763 -0.2069
  515MOL0     C70947   1.495   3.362   6.199  0.1831  0.8879  0.0604
  515MOL0     C70948   1.633   3.333   6.148  0.0168 -0.6854 -0.2505
  515MOL0     N70949   1.709   3.451   6.121  0.1731 -0.2972  0.9207
  515MOL0     C70950   1.786   3.515   6.212 -0.2062 -0.3122  0.0818
  515MOL0     C70951   1.856   3.611   6.137 -0.0720  0.3600 -0.6198
  515MOL0     C70952   1.942   3.713   6.195  1.1140 -0.4091 -0.1174
  515MOL0     C70953   2.086   3.671   6.154  0.0222  0.3326 -0.3676
  515MOL0     C70954   2.153   3.773   6.062 -0.3700 -0.4940  0.0146
  515MOL0     C70955   2.280   3.710   6.006  0.5517 -0.6363 -0.5642
  515MOL0     O70956   2.390   3.727   6.095  0.7961 -0.2603  0.3799
  515MOL0     C70957   2.517   3.672   6.053 -0.3116 -0.4498  0.0357
  515MOL0     C70958   2.543   3.588   5.942  0.2703  0.7474 -0.2958
  515MOL0     C70959   2.667   3.539   5.913  0.3333  0.0814  0.3678
  515MOL0     C70960   2.680   3.448   5.787  0.3543  0.7159 -0.4760
  515MOL0     C70961   2.775   3.564   5.996  0.4332 -0.1639 -0.6272
  515MOL0     C70962   2.905   3.501   5.990  0.1860  0.0293 -1.0954
  515MOL0     O70963   2.982   3.487   6.101  0.3734 -0.1920  0.1068
  515MOL0     C70964   3.100   3.415   6.098 -0.2184  0.8278 -0.7528
  515MOL0     C70965   3.194   3.439   6.198 -0.6367  0.1168  0.0209
  515MOL0     C70966   3.317   3.369   6.210 -0.7499  0.1907 -0.3249
  515MOL0     C70967   3.349   3.265   6.123  0.3125  0.7756  0.2400
  515MOL0     O70968   3.469   3.196   6.136  0.0860 -0.1608 -0.0885
  515MOL0     C70969   3.591   3.261   6.181  0.1788  0.2327 -0.8244
  515MOL0     C70970   3.660   3.149   6.254 -0.9375 -0.8064 -0.2858
  515MOL0     C70971   3.794   3.119   6.191 -0.9955  0.6194 -0.0535
  515MOL0     C70972   3.787   3.038   6.060  0.7405 -0.0061  0.1707
  515MOL0     C70973   3.924   3.016   5.991 -1.0559  0.1178  0.3653
  515MOL0     C70974   3.902   2.958   5.852  1.0524 -0.0661 -0.6130
  515MOL0     C70975   3.845   3.063   5.749 -0.3819  1.1511  0.0143
  515MOL0     C70976   3.902   3.037   5.605 -0.6077  0.0815 -1.3853
  515MOL0    Cl70977   4.076   3.075   5.592  0.0843  0.0350  0.0462
  515MOL0     C70978   3.261   3.238   6.011  0.0897 -0.3455 -0.0207
  515MOL0     C70979   3.141   3.312   6.006  0.8027  0.2410  0.8141
  515MOL0     O70980   2.941   3.480   5.877  0.0025  0.0119 -0.4385
  515MOL0     C70981   2.754   3.649   6.112 -0.0712 -0.2200 -0.3388
  515MOL0     C70982   2.629   3.703   6.131  0.0094  0.7651 -0.0003
  515MOL0     N70983   1.807   3.609   6.004  0.7139  0.4301 -0.1502
  515MOL0     N70984   1.713   3.521   5.998  0.0253  0.6242  0.0725
  515MOL0     C70985   0.767   2.756   5.951 -0.7108 -0.6689  0.2567
  515MOL0     C70986   0.645   2.784   5.892  0.8960  0.4514  0.4415
  515MOL0     C70987   0.389   2.895   5.530 -0.0171  0.5357  0.3019
  515MOL0     C70988   0.284   2.979   5.582  0.2033  0.6805 -0.0763
  515MOL0     C70989   0.182   3.025   5.497 -0.5207 -0.2709 -0.5557
  515MOL0     C70990   0.173   2.982   5.363 -0.9648 -0.2069  0.0983
  515MOL0     O70991   0.070   3.040   5.290 -0.2137 -0.1325  0.2016
  515MOL0     C70992  -0.062   3.016   5.339  0.2900  0.1629 -0.8729
  515MOL0     C70993  -0.141   3.140   5.374  0.3984  0.3333  0.1858
  515MOL0     C70994  -0.148   3.226   5.255  1.0558 -0.8535  0.2414
  515MOL0     C70995  -0.237   3.344   5.281 -0.5399 -1.5139 -0.0595
  515MOL0     C70996  -0.212   3.440   5.168  1.2315  0.4328 -0.0026
  515MOL0     C70997  -0.177   3.529   5.086 -0.0894 -0.5866 -0.2266
  515MOL0     C70998   0.273   2.908   5.316  0.3330 -0.1581 -0.0810
  515MOL0     C70999   0.382   2.866   5.388 -0.3068 -0.2273 -0.6530
  515MOL0     C71000   0.485   2.778   5.315  0.0965 -0.3884  0.1034
  515MOL0     H71001   0.750   3.060   5.731 -0.8098 -0.2197  0.0981
  515MOL0     H71002   0.954   3.014   5.878  1.7393 -0.7939 -0.1046
  515MOL0     H71003   0.993   2.666   6.140 -1.0326  0.1846  1.8623
  515MOL0     H71004   0.887   2.811   6.190 -0.5464 -1.7867  0.9905
  515MOL0     H71005   1.060   2.884   6.322  0.3553  1.6029 -0.8837
  515MOL0     H71006   1.177   2.771   6.246 -0.2833 -0.9693  0.0994
  515MOL0     H71007   1.200   2.925   6.058  0.3342  1.3293 -0.9059
  515MOL0     H71008   1.092   3.039   6.129  1.9577  2.0034  0.1741
  515MOL0     H71009   1.247   3.054   6.340  0.5644 -0.4765  0.4960
  515MOL0     H71010   1.351   2.947   6.250  3.5211  2.9674  1.8004
  515MOL0     H71011   1.305   3.197   6.096  1.8577 -0.2950 -1.8972
  515MOL0     H71012   1.446   3.108   6.116  1.9394 -0.4434  2.8827
  515MOL0     H71013   1.361   3.277   6.355  1.1731  1.3482  0.2561
  515MOL0     H71014   1.485   3.180   6.354 -0.8624 -1.7076 -0.8297
  515MOL0     H71015   1.502   3.445   6.271 -2.8168 -0.5953  2.3063
  515MOL0     H71016   1.423   3.390   6.121 -0.7432 -0.7939  0.2684
  515MOL0     H71017   1.679   3.277   6.230 -2.6401  0.7355  2.4249
  515MOL0     H71018   1.650   3.273   6.058  1.6266 -0.3202 -0.2253
  515MOL0     H71019   1.791   3.491   6.317  0.2588 -4.9892 -0.8056
  515MOL0     H71020   1.924   3.726   6.302 -0.4693 -1.2640 -0.2645
  515MOL0     H71021   1.923   3.814   6.155 -0.0607 -0.6605 -0.2314
  515MOL0     H71022   2.151   3.671   6.241  1.7983 -0.4042 -1.6285
  515MOL0     H71023   2.074   3.566   6.123  0.0774  0.6675 -1.5859
  515MOL0     H71024   2.084   3.795   5.980 -0.9842 -0.4309  0.5479
  515MOL0     H71025   2.177   3.853   6.133 -0.7090 -0.4837  0.1174
  515MOL0     H71026   2.267   3.602   5.998 -0.2729 -0.4568 -1.9784
  515MOL0     H71027   2.299   3.753   5.907  0.3321 -1.0080 -0.7691
  515MOL0     H71028   2.456   3.566   5.881  0.0552 -0.4553  0.4066
  515MOL0     H71029   2.761   3.484   5.723  0.5230  0.8996 -0.1625
  515MOL0     H71030   2.583   3.440   5.738 -0.5897  3.7816  0.6533
  515MOL0     H71031   2.706   3.345   5.816 -2.7207  0.2420  0.9919
  515MOL0     H71032   3.168   3.512   6.274 -2.2393  1.1307 -1.4370
  515MOL0     H71033   3.374   3.390   6.300  0.4029  0.9218 -1.1939
  515MOL0     H71034   3.646   3.306   6.098 -0.2011 -0.1288 -1.2738
  515MOL0     H71035   3.573   3.351   6.242 -0.3016 -0.7754  0.5821
  515MOL0     H71036   3.673   3.179   6.359 -2.9820  2.9633 -0.9503
  515MOL0     H71037   3.602   3.057   6.263  0.2030 -1.7477 -1.9907
  515MOL0     H71038   3.839   3.041   6.252 -2.5258 -1.6971 -1.6875
  515MOL0     H71039   3.863   3.204   6.187 -0.8289  0.4400 -2.5391
  515MOL0     H71040   3.721   3.099   5.998 -0.4488  0.2309  1.6443
  515MOL0     H71041   3.750   2.937   6.082  1.6838 -0.4195 -0.0895
  515MOL0     H71042   3.966   3.116   5.978 -0.0013 -0.4122 -0.4788
  515MOL0     H71043   3.996   2.962   6.052 -0.5620  0.0467 -0.2702
  515MOL0     H71044   3.835   2.872   5.859  0.2738  0.4244 -1.7352
  515MOL0     H71045   4.002   2.922   5.823  1.5564 -0.6460  1.6636
  515MOL0     H71046   3.893   3.158   5.776  2.9326  0.3324 -2.2527
  515MOL0     H71047   3.738   3.049   5.761  0.0737 -0.2995  3.2707
  515MOL0     H71048   3.846   3.095   5.530  1.0042  0.3948 -2.3943
  515MOL0     H71049   3.895   2.929   5.590 -0.7994 -0.4495  1.7811
  515MOL0     H71050   3.294   3.156   5.948 -1.5243 -2.6509  1.9337
  515MOL0     H71051   3.066   3.293   5.929  0.2746  0.6514  1.2155
  515MOL0     H71052   2.839   3.665   6.176  1.4590 -1.3656 -1.9860
  515MOL0     H71053   2.626   3.770   6.216  2.8640 -0.3112  1.0674
  515MOL0     H71054   0.775   2.663   6.007  0.2063 -1.8772 -1.7829
  515MOL0     H71055   0.563   2.714   5.890  0.4458  0.9526  0.9814
  515MOL0     H71056   0.276   3.011   5.686  1.4621 -3.0844  1.3395
  515MOL0     H71057   0.106   3.089   5.540 -0.4177 -1.5757  1.7059
  515MOL0     H71058  -0.121   2.962   5.264 -2.2351  2.4147 -0.6880
  515MOL0     H71059  -0.050   2.961   5.433 -4.3622  0.9972  0.4638
  515MOL0     H71060  -0.107   3.188   5.466 -0.5452 -0.6053  1.0633
  515MOL0     H71061  -0.242   3.100   5.391  0.5610 -1.0285 -1.6883
  515MOL0     H71062  -0.044   3.255   5.238  1.0750 -1.9081 -1.7476
  515MOL0     H71063  -0.177   3.162   5.171  0.3635 -3.0031  2.0055
  515MOL0     H71064  -0.203   3.385   5.376  0.0394 -0.7918 -0.5678
  515MOL0     H71065  -0.339   3.308   5.293 -0.7158 -1.6489 -1.6968
  515MOL0     H71066  -0.166   3.610   5.017  0.9926  0.7064  1.3838
  515MOL0     H71067   0.270   2.886   5.210 -2.8245  0.5565 -0.2283
  515MOL0     H71068   0.431   2.684   5.305 -0.3409 -0.1106 -0.1658
  515MOL0     H71069   0.512   2.819   5.218 -1.0601  0.9295  0.3088
  515MOL0     H71070   0.585   2.772   5.359  0.9807  1.7702 -1.4398
  516MOL0     O71071   5.477   2.587   3.148  0.0773  0.1940 -0.0060
  516MOL0     C71072   5.572   2.558   3.218 -0.7641 -0.4809  0.1015
  516MOL0     O71073   5.571   2.510   3.346  0.4921 -0.8170 -0.3620
  516MOL0     C71074   5.464   2.439   3.378 -0.4945 -0.0454  0.6955
  516MOL0     C71075   5.343   2.497   3.413  0.3032  0.2357 -0.1429
  516MOL0     C71076   5.231   2.412   3.436  0.4175 -0.4674  0.8036
  516MOL0     C71077   5.249   2.271   3.454  0.4050  0.9169  0.1961
  516MOL0     O71078   5.145   2.180   3.483 -0.3410 -0.0620  0.6615
  516MOL0     C71079   5.031   2.227   3.551  0.8301  1.7004  0.9997
  516MOL0     C71080   4.960   2.102   3.599 -0.4238  0.8461  0.2521
  516MOL0     C71081   4.850   2.139   3.704 -0.7988 -0.4296  0.7345
  516MOL0     C71082   4.759   2.029   3.713  0.2860  0.1867 -0.4567
  516MOL0     C71083   4.626   2.052   3.796 -0.6137 -0.3014  0.2005
  516MOL0     C71084   4.563   1.915   3.821  0.1952 -1.0279  0.5466
  516MOL0     C71085   4.430   1.916   3.886  0.3440 -0.4231  0.4971
  516MOL0     C71086   4.328   2.020   3.823  0.1992  0.6448  0.5180
  516MOL0     N71087   4.329   2.007   3.679  0.4321  0.4750  0.0905
  516MOL0     C71088   4.315   2.108   3.597 -0.8127 -0.9896  0.7481
  516MOL0     C71089   4.248   2.069   3.482 -0.3309 -0.3838 -0.4441
  516MOL0     C71090   4.210   2.153   3.360 -0.1303  0.2565  0.4790
  516MOL0     C71091   4.120   2.272   3.386 -0.4077  0.0697 -0.8142
  516MOL0     C71092   3.989   2.221   3.456 -0.7719 -0.4699  0.3542
  516MOL0     C71093   3.901   2.118   3.381  0.1140  0.1078  0.0117
  516MOL0     O71094   3.776   2.102   3.456  0.0855  0.5370  0.0021
  516MOL0     C71095   3.773   2.011   3.565 -0.0094  0.0939 -0.3080
  516MOL0     C71096   3.878   1.942   3.629  0.3944 -0.3546 -1.2153
  516MOL0     C71097   3.856   1.860   3.741 -0.1185 -0.1405 -0.6421
  516MOL0     C71098   3.979   1.809   3.813  0.6621 -0.0058 -0.0662
  516MOL0     C71099   3.727   1.831   3.779 -0.5754 -0.2404 -0.7031
  516MOL0     C71100   3.688   1.760   3.905  0.2814 -0.2184  0.3878
  516MOL0     O71101   3.558   1.706   3.906  0.1025 -0.0879  0.0570
  516MOL0     C71102   3.526   1.607   3.996  0.8747 -0.5623 -0.2216
  516MOL0     C71103   3.623   1.509   4.029  0.5977  0.0132  0.1675
  516MOL0     C71104   3.583   1.400   4.111  0.4815 -0.4571 -0.1337
  516MOL0     C71105   3.447   1.394   4.161 -0.8918 -0.1983  1.0030
  516MOL0     O71106   3.414   1.277   4.228  0.3527 -0.4131 -0.3562
  516MOL0     C71107   3.407   1.298   4.369 -0.0386 -0.1630 -0.1017
  516MOL0     C71108   3.418   1.162   4.450 -0.5980  0.0121  0.5217
  516MOL0     C71109   3.312   1.063   4.412  0.1799  0.0275  0.0766
  516MOL0     C71110   3.170   1.114   4.443  0.0104  0.2887 -0.5526
  516MOL0     C71111   3.061   1.011   4.484 -1.1621 -0.6899  0.1800
  516MOL0     C71112   3.023   0.939   4.364 -0.1298  0.6190  0.0388
  516MOL0     C71113   2.950   0.807   4.401  0.0346  1.2213  0.4262
  516MOL0     C71114   2.861   0.732   4.302  0.3759 -0.5458  0.3511
  516MOL0    Cl71115   2.930   0.670   4.149  0.0082  0.0780  0.0219
  516MOL0     C71116   3.361   1.495   4.122 -0.7731 -0.0158  0.4481
  516MOL0     C71117   3.394   1.597   4.035  0.5084  0.1708 -0.3181
  516MOL0     O71118   3.749   1.797   4.004  0.7286  0.7425 -0.1337
  516MOL0     C71119   3.617   1.898   3.716  0.1476 -0.4485  0.5733
  516MOL0     C71120   3.642   1.978   3.606  0.4749  0.1645 -0.3836
  516MOL0     N71121   4.228   1.937   3.499 -0.1711  0.4866  0.6093
  516MOL0     N71122   4.269   1.904   3.609 -0.2386  0.1431  0.0797
  516MOL0     C71123   5.375   2.216   3.434  0.6064  0.8511  0.7593
  516MOL0     C71124   5.481   2.297   3.403 -0.2315 -1.0675  0.3177
  516MOL0     C71125   5.711   2.597   3.173  0.0781  0.2372 -0.6628
  516MOL0     C71126   5.817   2.605   3.264  0.3238 -0.3475  0.5611
  516MOL0     C71127   5.947   2.631   3.216  0.1870  0.6626 -1.0010
  516MOL0     C71128   5.977   2.666   3.087  0.5211 -0.5785 -0.4296
  516MOL0     O71129   6.105   2.706   3.040  0.7542 -0.8823 -0.3144
  516MOL0     C71130   6.219   2.660   3.116 -0.4480  0.5906 -0.7230
  516MOL0     C71131   6.335   2.742   3.074  0.1044 -1.0328  1.4627
  516MOL0     C71132   6.365   2.726   2.920 -0.8887  0.2109 -0.1881
  516MOL0     C71133   6.485   2.809   2.896 -0.5439  0.0855 -1.1377
  516MOL0     C71134   6.611   2.754   2.945  0.2173 -0.1265 -0.1197
  516MOL0     C71135   6.711   2.701   2.985 -0.0888 -0.8237  1.2891
  516MOL0     C71136   5.870   2.674   3.006  0.3071 -0.8883  0.8031
  516MOL0     C71137   5.741   2.639   3.044  0.1636  0.3156 -0.3571
  516MOL0     C71138   5.641   2.632   2.926 -0.8861  0.7185 -0.3083
  516MOL0     H71139   5.340   2.605   3.415  0.2871  0.3545 -3.0795
  516MOL0     H71140   5.132   2.455   3.445 -0.5730 -1.7598 -2.5099
  516MOL0     H71141   4.968   2.286   3.483 -2.5554 -1.3177  1.2122
  516MOL0     H71142   5.044   2.280   3.646 -0.9996  0.9583  1.7047
  516MOL0     H71143   4.915   2.052   3.512  3.0080  1.1654 -1.9023
  516MOL0     H71144   5.031   2.031   3.642 -1.3581  1.0330  2.1920
  516MOL0     H71145   4.886   2.153   3.807 -2.9176  0.2202  1.4300
  516MOL0     H71146   4.802   2.234   3.682 -1.9421 -0.8258  1.4376
  516MOL0     H71147   4.736   1.988   3.615 -0.7014  0.5620 -0.3929
  516MOL0     H71148   4.813   1.952   3.769 -0.5907  0.8516  1.3856
  516MOL0     H71149   4.561   2.121   3.742  0.5459  1.3062  0.7977
  516MOL0     H71150   4.647   2.103   3.890 -0.5564  1.2740 -0.6283
  516MOL0     H71151   4.557   1.858   3.728  1.4760 -1.7431  0.8738
  516MOL0     H71152   4.631   1.852   3.880 -0.3789 -0.2307  2.1262
  516MOL0     H71153   4.445   1.930   3.993  0.7665 -0.5924  0.4635
  516MOL0     H71154   4.390   1.815   3.868 -1.4780  0.0346  1.7633
  516MOL0     H71155   4.229   1.990   3.857  0.6620 -2.6134 -0.6580
  516MOL0     H71156   4.354   2.124   3.843 -0.2618  1.1691 -1.4116
  516MOL0     H71157   4.343   2.211   3.613  0.4515 -1.2898  0.5565
  516MOL0     H71158   4.170   2.090   3.280 -0.5886 -1.5277  2.0358
  516MOL0     H71159   4.300   2.193   3.313 -0.3058  0.5273  0.3703
  516MOL0     H71160   4.163   2.347   3.453  0.6821  0.2444 -1.6854
  516MOL0     H71161   4.104   2.337   3.300 -0.6267  0.0460 -0.7917
  516MOL0     H71162   4.016   2.186   3.557  3.0680 -2.7906 -1.2714
  516MOL0     H71163   3.919   2.301   3.481 -1.0675 -0.5022 -0.3689
  516MOL0     H71164   3.861   2.157   3.287 -0.1726 -0.1954  0.0089
  516MOL0     H71165   3.948   2.022   3.358 -2.2135 -1.4432  1.4473
  516MOL0     H71166   3.976   1.976   3.597  0.6364 -0.8153 -0.9850
  516MOL0     H71167   4.007   1.879   3.892  1.7532 -2.3691  1.7519
  516MOL0     H71168   4.066   1.807   3.748 -0.0924 -0.1930 -1.0992
  516MOL0     H71169   3.952   1.718   3.867 -3.2791  0.3509 -1.1191
  516MOL0     H71170   3.718   1.493   3.979 -0.5671  0.9202 -2.5401
  516MOL0     H71171   3.647   1.317   4.137 -1.4931 -2.5942 -1.7443
  516MOL0     H71172   3.499   1.350   4.397  0.1973 -0.7354  0.1993
  516MOL0     H71173   3.317   1.346   4.409  1.6416  1.7848  1.5890
  516MOL0     H71174   3.518   1.123   4.426  0.1309  0.8157  2.0971
  516MOL0     H71175   3.415   1.177   4.558 -1.0695  0.6097  0.4273
  516MOL0     H71176   3.334   0.964   4.454 -0.8713 -0.4247 -0.4069
  516MOL0     H71177   3.315   1.041   4.305 -0.3237 -2.9862  0.5776
  516MOL0     H71178   3.130   1.184   4.369 -1.2786 -0.1594 -0.2980
  516MOL0     H71179   3.178   1.192   4.520  0.7536  0.9156 -1.2412
  516MOL0     H71180   3.098   0.936   4.555  0.7654 -2.5209 -2.5465
  516MOL0     H71181   2.987   1.081   4.523  0.4093  1.3103 -0.2635
  516MOL0     H71182   3.112   0.910   4.307  0.0068  1.0501  0.0312
  516MOL0     H71183   2.955   1.003   4.309  0.8568  1.0432 -0.7224
  516MOL0     H71184   2.885   0.825   4.487 -1.3128 -1.4116  0.0627
  516MOL0     H71185   3.020   0.733   4.439 -1.2304 -0.1922  0.0998
  516MOL0     H71186   2.775   0.790   4.268 -2.3187 -2.4471  3.3521
  516MOL0     H71187   2.815   0.650   4.358 -0.9133  0.3573  0.6776
  516MOL0     H71188   3.257   1.486   4.150 -0.5638  1.6618  1.8703
  516MOL0     H71189   3.318   1.669   4.008  0.9604  0.3635 -1.0980
  516MOL0     H71190   3.515   1.876   3.745 -0.9845  1.7211 -1.4505
  516MOL0     H71191   3.561   2.029   3.555  0.7624  0.9173 -0.0906
  516MOL0     H71192   5.403   2.111   3.437  3.8843  1.3339 -3.4127
  516MOL0     H71193   5.582   2.261   3.386  0.3010  0.1743  0.7490
  516MOL0     H71194   5.802   2.568   3.365  0.0679  0.7009  0.9205
  516MOL0     H71195   6.028   2.624   3.287  0.4326 -1.3660 -1.4316
  516MOL0     H71196   6.207   2.684   3.222  1.1413  2.6948 -0.9510
  516MOL0     H71197   6.233   2.553   3.100  0.2649  0.3474  1.2245
  516MOL0     H71198   6.422   2.700   3.126  2.2170 -1.6931 -2.2120
  516MOL0     H71199   6.317   2.849   3.089 -3.1094 -0.3853 -4.3799
  516MOL0     H71200   6.390   2.624   2.887  1.3829  0.2132  1.3304
  516MOL0     H71201   6.279   2.766   2.865 -1.8359  1.9071  2.3597
  516MOL0     H71202   6.462   2.906   2.941 -1.1396 -0.0621 -1.1095
  516MOL0     H71203   6.493   2.830   2.789 -1.6878  3.5537 -0.6641
  516MOL0     H71204   6.804   2.650   3.002  0.7493  0.3296  0.3617
  516MOL0     H71205   5.885   2.713   2.906  1.3327  1.2024  1.7094
  516MOL0     H71206   5.565   2.709   2.939  0.1605  1.3154  3.3587
  516MOL0     H71207   5.689   2.637   2.828  0.4990 -2.5292  0.0848
  516MOL0     H71208   5.596   2.533   2.940  4.4563 -1.8147  1.9364
  517MOL0     O71209   6.204   4.687   9.633  0.0845  0.5071  0.1023
  517MOL0     C71210   6.190   4.586   9.698 -0.1873  0.1223 -0.7726
  517MOL0     O71211   6.279   4.539   9.787  0.1650  0.3783  0.3506
  517MOL0     C71212   6.381   4.623   9.828 -0.6868 -0.2395 -0.0005
  517MOL0     C71213   6.347   4.742   9.888 -0.1306  0.5369 -0.0892
  517MOL0     C71214   6.438   4.825   9.947  0.1785  0.1718 -0.9986
  517MOL0     C71215   6.576   4.790   9.947 -0.8487 -0.7915 -0.2820
  517MOL0     O71216   6.676   4.879   9.991  0.0700  0.4159  0.5851
  517MOL0     C71217   6.778   4.819  10.071  0.2639 -0.3627 -0.1871
  517MOL0     C71218   6.850   4.933  10.141  0.3817  0.6576  0.0329
  517MOL0     C71219   6.966   4.871  10.213 -0.6333 -1.2401 -0.4794
  517MOL0     C71220   7.047   4.979  10.286 -0.2290  0.0170 -0.5703
  517MOL0     C71221   7.168   4.914  10.359 -0.2934 -0.6428  0.6660
  517MOL0     C71222   7.263   5.021  10.415 -0.1860  0.0632  0.4085
  517MOL0     C71223   7.376   4.952  10.500  0.0459  0.1582  0.3559
  517MOL0     C71224   7.474   5.051  10.555 -0.3499  0.4696  0.8854
  517MOL0     N71225   7.574   4.985  10.633  0.2485  0.4227  0.2094
  517MOL0     C71226   7.677   4.914  10.581  0.5714 -0.1560 -0.0492
  517MOL0     C71227   7.732   4.855  10.691 -0.2338 -0.0531  1.1555
  517MOL0     C71228   7.855   4.768  10.703 -0.2587 -0.6570  0.6039
  517MOL0     C71229   7.827   4.651  10.794 -0.3821  0.0792  0.1989
  517MOL0     C71230   7.920   4.531  10.772  0.4713  1.0983 -0.1452
  517MOL0     C71231   8.067   4.578  10.758 -0.1656  0.0212  0.1734
  517MOL0     O71232   8.092   4.647  10.881 -0.7298  0.5012 -0.3447
  517MOL0     C71233   8.212   4.643  10.947 -0.3692  0.2529  0.6096
  517MOL0     C71234   8.214   4.680  11.080  0.4236  1.0514 -0.0515
  517MOL0     C71235   8.330   4.690  11.166 -0.3938  0.0566  0.9048
  517MOL0     C71236   8.314   4.723  11.308 -0.0337 -0.3190 -0.2154
  517MOL0     C71237   8.451   4.655  11.102 -0.3402  0.2966  0.1606
  517MOL0     C71238   8.579   4.635  11.179 -0.0656  0.7864  0.3031
  517MOL0     O71239   8.672   4.572  11.104 -0.2911 -0.0375 -0.3596
  517MOL0     C71240   8.789   4.545  11.172 -0.1882  0.6092  0.5978
  517MOL0     C71241   8.905   4.606  11.129  0.7613  0.0022 -0.8066
  517MOL0     C71242   9.026   4.565  11.179 -0.8350  0.0818 -0.6204
  517MOL0     C71243   9.036   4.471  11.282 -0.6119  0.0264  0.0362
  517MOL0     O71244   9.165   4.452  11.331  0.4289  0.0718  0.6452
  517MOL0     C71245   9.191   4.333  11.395 -0.0307 -0.5810 -0.1509
  517MOL0     C71246   9.305   4.353  11.490 -1.1478 -0.2734  0.2942
  517MOL0     C71247   9.415   4.447  11.445 -0.0418  0.0824 -0.0661
  517MOL0     C71248   9.467   4.411  11.306  0.5586 -0.4302 -0.0844
  517MOL0     C71249   9.530   4.525  11.229  0.2894  0.0417 -0.1456
  517MOL0     C71250   9.460   4.661  11.231  0.5049  0.5302  0.2112
  517MOL0     C71251   9.504   4.766  11.125 -0.0457 -0.3853 -1.4441
  517MOL0     C71252   9.621   4.860  11.169 -0.5335  0.5282 -1.0680
  517MOL0    Cl71253   9.705   4.929  11.027  0.1765 -0.2922  0.4965
  517MOL0     C71254   8.919   4.401  11.327 -0.1159  0.4979  0.0563
  517MOL0     C71255   8.801   4.436  11.263 -0.4896 -0.6010 -0.3683
  517MOL0     O71256   8.600   4.689  11.286  0.5333  0.1338 -0.4175
  517MOL0     C71257   8.450   4.623  10.963 -0.2516 -0.1816  0.6079
  517MOL0     C71258   8.337   4.610  10.888  0.0973 -0.6318 -0.8226
  517MOL0     N71259   7.653   4.891  10.800  0.3220  0.2467  0.6985
  517MOL0     N71260   7.563   4.974  10.766  0.6490 -0.3210 -0.2029
  517MOL0     C71261   6.608   4.662   9.897  0.5046 -0.1538 -0.4285
  517MOL0     C71262   6.518   4.583   9.829 -0.4401 -0.8102  0.1370
  517MOL0     C71263   6.052   4.531   9.706  0.4207 -1.0870  0.3276
  517MOL0     C71264   6.028   4.448   9.806 -0.4082  0.5554 -0.6082
  517MOL0     C71265   5.900   4.385   9.823  0.6198  1.0728  1.0196
  517MOL0     C71266   5.801   4.411   9.733  0.1768  0.2669  0.3793
  517MOL0     O71267   5.684   4.340   9.760 -0.0987  1.1155  0.4640
  517MOL0     C71268   5.568   4.394   9.703 -0.4501  0.8694 -0.4055
  517MOL0     C71269   5.461   4.318   9.754  0.6939 -0.1502 -0.0660
  517MOL0     C71270   5.337   4.360   9.677  0.0332 -0.0572  0.8436
  517MOL0     C71271   5.222   4.266   9.709  0.0682 -0.4415 -1.2811
  517MOL0     C71272   5.117   4.279   9.610 -0.0636  0.2480  0.2794
  517MOL0     C71273   5.010   4.276   9.544  0.2342 -0.1564 -0.2004
  517MOL0     C71274   5.824   4.505   9.629 -0.1377  0.8099  0.4365
  517MOL0     C71275   5.952   4.559   9.609 -0.5865  0.0329 -0.3993
  517MOL0     C71276   5.960   4.659   9.497  0.1366 -0.2163 -0.8678
  517MOL0     H71277   6.243   4.772   9.892 -0.3578 -0.3340  1.2712
  517MOL0     H71278   6.407   4.918   9.995 -0.3785 -1.2300  1.5597
  517MOL0     H71279   6.845   4.761  10.007  0.6979  0.0975 -0.1630
  517MOL0     H71280   6.730   4.757  10.146 -0.7408 -0.5116 -0.9383
  517MOL0     H71281   6.875   5.009  10.066  1.1218  2.4258  1.9561
  517MOL0     H71282   6.777   4.974  10.211 -0.3873  0.4874 -0.6553
  517MOL0     H71283   6.933   4.802  10.291  2.0764 -0.1257  1.8299
  517MOL0     H71284   7.027   4.815  10.141 -0.6582 -3.2393  0.9593
  517MOL0     H71285   7.083   5.050  10.210  0.7837  0.5605  0.3850
  517MOL0     H71286   6.991   5.042  10.355  2.5519  0.6506  1.2574
  517MOL0     H71287   7.217   4.853  10.282  1.0042 -0.3368  1.2174
  517MOL0     H71288   7.138   4.850  10.442 -0.3182 -0.9312  0.4359
  517MOL0     H71289   7.326   5.071  10.341  4.7795 -0.3498  3.8041
  517MOL0     H71290   7.205   5.083  10.484  0.1583 -1.9419  2.6521
  517MOL0     H71291   7.423   4.877  10.437 -1.2131  0.8757 -1.5413
  517MOL0     H71292   7.323   4.904  10.582 -0.8436 -0.1005 -0.3465
  517MOL0     H71293   7.526   5.103  10.474 -1.2794  1.8304  1.1323
  517MOL0     H71294   7.413   5.123  10.609 -4.2199 -1.2573 -0.7938
  517MOL0     H71295   7.706   4.898  10.478 -0.0963  0.1550 -0.2922
  517MOL0     H71296   7.943   4.818  10.744  0.0518 -0.2428 -0.5353
  517MOL0     H71297   7.892   4.744  10.603  0.5483 -0.4180  0.8390
  517MOL0     H71298   7.843   4.691  10.895 -2.0406 -0.3187  0.6568
  517MOL0     H71299   7.730   4.604  10.776  0.0734 -1.4256  1.4538
  517MOL0     H71300   7.907   4.454  10.850  1.0315  2.2328  1.1082
  517MOL0     H71301   7.895   4.484  10.677 -0.0501  0.8129  0.1295
  517MOL0     H71302   8.136   4.494  10.755  0.2616  0.3888 -1.0969
  517MOL0     H71303   8.092   4.628  10.664 -1.9760  0.2498 -0.2242
  517MOL0     H71304   8.120   4.709  11.126  1.1834  1.3619  1.3427
  517MOL0     H71305   8.371   4.811  11.338  0.0734 -0.8207  1.1742
  517MOL0     H71306   8.354   4.646  11.375  0.2695  1.6262  1.9754
  517MOL0     H71307   8.209   4.741  11.336 -0.6367  1.2665 -3.0889
  517MOL0     H71308   8.894   4.686  11.056 -2.0737  2.2856  1.8563
  517MOL0     H71309   9.116   4.620  11.155  0.3609 -1.4910  0.1089
  517MOL0     H71310   9.113   4.299  11.464 -1.4552 -1.1561 -1.9527
  517MOL0     H71311   9.203   4.251  11.323  0.0042  0.0978 -0.9331
  517MOL0     H71312   9.269   4.404  11.579  2.2684  3.1127 -0.0289
  517MOL0     H71313   9.351   4.262  11.530  1.1921  1.0301  0.7538
  517MOL0     H71314   9.505   4.442  11.507 -0.1612 -0.9454  0.0470
  517MOL0     H71315   9.384   4.551  11.455  1.7495  0.6091  0.3489
  517MOL0     H71316   9.376   4.395  11.249 -0.0311  2.4925 -0.1183
  517MOL0     H71317   9.524   4.318  11.307  0.5474 -0.4551  1.2669
  517MOL0     H71318   9.638   4.533  11.240  0.4168 -2.1018  0.6375
  517MOL0     H71319   9.517   4.498  11.124 -1.1666  1.2721 -0.3195
  517MOL0     H71320   9.467   4.718  11.324 -2.5074  3.7733 -1.3363
  517MOL0     H71321   9.353   4.648  11.215  0.9251 -0.8443 -1.8737
  517MOL0     H71322   9.419   4.828  11.092 -1.5599 -0.4976  1.8438
  517MOL0     H71323   9.536   4.715  11.034 -0.6935  0.0394 -1.9258
  517MOL0     H71324   9.691   4.802  11.231 -0.0501  1.9223 -0.2559
  517MOL0     H71325   9.583   4.948  11.221  0.0136 -0.1940  0.6470
  517MOL0     H71326   8.925   4.312  11.388  0.6087 -0.4594 -1.3565
  517MOL0     H71327   8.715   4.374  11.288  1.3642 -2.3887  2.1060
  517MOL0     H71328   8.545   4.596  10.918  0.0548  1.3456  0.3074
  517MOL0     H71329   8.345   4.570  10.788 -1.2845 -0.8108 -0.8780
  517MOL0     H71330   6.711   4.627   9.894  0.6450  0.2920 -0.9301
  517MOL0     H71331   6.556   4.510   9.758  2.3464  1.6564 -1.1188
  517MOL0     H71332   6.108   4.423   9.876  1.0184 -1.3670 -2.7582
  517MOL0     H71333   5.885   4.316   9.906  2.8699 -2.5966 -1.3072
  517MOL0     H71334   5.562   4.500   9.728  1.3400  0.9187 -0.0257
  517MOL0     H71335   5.583   4.376   9.596  0.6553  0.2645 -0.1617
  517MOL0     H71336   5.456   4.349   9.859 -1.4817  1.5265 -0.5684
  517MOL0     H71337   5.474   4.211   9.738 -1.1406 -0.1019 -2.4828
  517MOL0     H71338   5.316   4.466   9.693  0.1705  0.6276 -2.5981
  517MOL0     H71339   5.357   4.352   9.569 -0.8385 -0.9718  0.7314
  517MOL0     H71340   5.185   4.290   9.808 -1.1260 -0.8178 -1.6255
  517MOL0     H71341   5.251   4.161   9.703  1.3389 -0.1408 -0.7896
  517MOL0     H71342   4.919   4.277   9.487  0.5679 -0.8467 -0.7629
  517MOL0     H71343   5.740   4.530   9.565  0.3297  0.8840 -0.1627
  517MOL0     H71344   5.962   4.759   9.541  1.2774  0.1345 -1.6612
  517MOL0     H71345   6.055   4.652   9.443 -0.2682  2.6204 -2.0867
  517MOL0     H71346   5.886   4.643   9.419  1.1739 -1.0969 -1.7111
  518MOL0     O71347   3.761   3.261   3.282  0.4958 -0.3411 -0.2640
  518MOL0     C71348   3.740   3.222   3.396 -0.0730 -0.3129  0.0396
  518MOL0     O71349   3.655   3.125   3.432  0.0405 -0.4229  0.3183
  518MOL0     C71350   3.547   3.100   3.354  0.1531  0.1483 -0.0180
  518MOL0     C71351   3.547   2.982   3.273  0.2261  0.6680  0.1056
  518MOL0     C71352   3.423   2.953   3.211  0.1298 -0.5751  0.5181
  518MOL0     C71353   3.311   3.032   3.214 -0.0384 -0.5109 -0.3817
  518MOL0     O71354   3.197   2.982   3.148 -0.5072 -0.1578  0.6765
  518MOL0     C71355   3.092   3.078   3.127 -0.4641 -0.3773  0.0563
  518MOL0     C71356   3.022   3.037   2.996 -0.2397 -0.5287 -0.2851
  518MOL0     C71357   2.906   3.135   2.981 -0.0805  0.5249 -0.1216
  518MOL0     C71358   2.848   3.138   2.837  0.8212  0.1200  0.2843
  518MOL0     C71359   2.723   3.231   2.818 -0.2007  0.7371  0.0084
  518MOL0     C71360   2.673   3.231   2.673 -0.1743 -0.5563 -0.3406
  518MOL0     C71361   2.550   3.324   2.661 -1.0679 -0.4089 -0.3972
  518MOL0     C71362   2.527   3.355   2.515  0.3463  0.2271 -0.3396
  518MOL0     N71363   2.533   3.499   2.488  0.1934 -0.9294  0.4802
  518MOL0     C71364   2.639   3.586   2.508  0.8638 -0.2541  0.0306
  518MOL0     C71365   2.597   3.694   2.436  0.1493 -0.4926 -0.6495
  518MOL0     C71366   2.663   3.824   2.422 -0.1785 -0.2503  0.2706
  518MOL0     C71367   2.574   3.945   2.465 -0.0305  0.4477 -0.5004
  518MOL0     C71368   2.644   4.074   2.493  0.5068  1.0118  0.1291
  518MOL0     C71369   2.724   4.138   2.375  0.1992 -0.2890 -0.4810
  518MOL0     O71370   2.639   4.155   2.261  0.4390  0.2739 -0.0072
  518MOL0     C71371   2.699   4.174   2.138 -0.3318 -0.0514  0.8703
  518MOL0     C71372   2.623   4.169   2.019  0.2719 -0.8230  0.3650
  518MOL0     C71373   2.677   4.213   1.895  0.5907  0.1790 -0.9198
  518MOL0     C71374   2.577   4.205   1.779  0.5254 -0.0331  0.3501
  518MOL0     C71375   2.815   4.244   1.887 -0.5597 -0.1736 -0.4959
  518MOL0     C71376   2.888   4.279   1.763  0.2772 -0.6140  0.4843
  518MOL0     O71377   3.014   4.225   1.754  0.2494  0.1866  0.3826
  518MOL0     C71378   3.100   4.244   1.651 -0.1262  0.3852  0.3781
  518MOL0     C71379   3.065   4.214   1.518 -0.1575  0.0941 -0.6383
  518MOL0     C71380   3.153   4.232   1.411 -0.6992  0.1383  0.5086
  518MOL0     C71381   3.286   4.273   1.434  0.4167 -1.0242 -0.7688
  518MOL0     O71382   3.365   4.301   1.333 -0.3690  0.3380  0.2326
  518MOL0     C71383   3.484   4.225   1.330 -0.3361  0.2759 -0.2683
  518MOL0     C71384   3.590   4.296   1.244  0.0541 -0.2641 -0.1251
  518MOL0     C71385   3.728   4.227   1.270  0.1683 -0.0191  0.1488
  518MOL0     C71386   3.845   4.315   1.228 -0.4825 -0.2970  0.2947
  518MOL0     C71387   3.974   4.231   1.220  0.5012 -0.8276 -0.6348
  518MOL0     C71388   4.088   4.321   1.177 -0.0499  0.1802  0.2669
  518MOL0     C71389   4.227   4.256   1.182 -0.0952  0.2612  1.1222
  518MOL0     C71390   4.323   4.362   1.119  0.1689 -0.2333 -0.5914
  518MOL0    Cl71391   4.477   4.277   1.094 -0.0815  0.0801  0.0777
  518MOL0     C71392   3.316   4.296   1.572 -0.4816 -0.1844 -0.4218
  518MOL0     C71393   3.234   4.270   1.679  0.4064 -0.7200 -0.3853
  518MOL0     O71394   2.833   4.352   1.679 -0.5049  0.2771 -0.5017
  518MOL0     C71395   2.893   4.233   2.003  1.1610  0.2820  0.0472
  518MOL0     C71396   2.834   4.199   2.130 -0.0065  0.3300 -0.0711
  518MOL0     N71397   2.474   3.672   2.386  0.0197  0.5282  0.8413
  518MOL0     N71398   2.431   3.555   2.415  0.1679  0.6729 -0.5977
  518MOL0     C71399   3.319   3.152   3.281  0.2302  0.0570 -0.2720
  518MOL0     C71400   3.428   3.182   3.357  0.0053  0.3198 -1.0077
  518MOL0     C71401   3.806   3.284   3.516 -0.0292 -1.1277  0.0728
  518MOL0     C71402   3.762   3.246   3.643  0.1168 -0.1059 -0.0312
  518MOL0     C71403   3.828   3.282   3.761 -0.6946 -0.4920 -1.2352
  518MOL0     C71404   3.933   3.373   3.759  0.0711  0.6041  0.2896
  518MOL0     O71405   4.009   3.431   3.863 -0.7461  0.6409  0.4017
  518MOL0     C71406   4.099   3.339   3.929 -0.6686 -0.2593  0.0408
  518MOL0     C71407   4.193   3.403   4.020 -0.1726 -0.1447 -0.5985
  518MOL0     C71408   4.295   3.302   4.066 -0.1222 -0.0397  0.6521
  518MOL0     C71409   4.414   3.374   4.138 -0.0875  0.0586  0.7978
  518MOL0     C71410   4.506   3.290   4.206 -0.3107 -0.6460  0.1584
  518MOL0     C71411   4.586   3.220   4.270  0.2639  0.2001 -1.1201
  518MOL0     C71412   3.969   3.422   3.632  0.6588 -0.8528 -0.2481
  518MOL0     C71413   3.906   3.381   3.512 -0.5177 -0.5624 -0.0702
  518MOL0     C71414   3.958   3.448   3.386 -0.2894 -0.8354  0.5010
  518MOL0     H71415   3.636   2.923   3.252 -0.1030 -1.5226  3.9648
  518MOL0     H71416   3.406   2.862   3.154 -2.8138  0.5178 -0.5568
  518MOL0     H71417   3.140   3.176   3.116  2.8393 -1.6102  1.8839
  518MOL0     H71418   3.021   3.083   3.210  1.2837  1.7755  1.5627
  518MOL0     H71419   3.097   3.068   2.922  1.5108 -0.5475  1.4013
  518MOL0     H71420   2.995   2.931   2.994  1.6177 -1.0395 -0.9022
  518MOL0     H71421   2.830   3.113   3.057  2.0449  2.5821  2.8162
  518MOL0     H71422   2.925   3.239   3.006  0.6472  0.8370 -1.8681
  518MOL0     H71423   2.927   3.168   2.768  1.3392  0.3652  0.9688
  518MOL0     H71424   2.807   3.042   2.805 -0.2168  0.3165  0.9642
  518MOL0     H71425   2.743   3.333   2.852 -0.5581  0.9735 -0.4815
  518MOL0     H71426   2.645   3.199   2.888  0.1053 -2.1759 -0.8374
  518MOL0     H71427   2.759   3.264   2.614  1.2159 -0.1823  1.7894
  518MOL0     H71428   2.636   3.134   2.640 -1.1850 -1.1989  2.4141
  518MOL0     H71429   2.575   3.419   2.709  1.9050 -1.9933  1.4899
  518MOL0     H71430   2.466   3.284   2.719 -0.1603 -0.9472  0.5931
  518MOL0     H71431   2.607   3.311   2.454  0.0249 -1.6323  0.5105
  518MOL0     H71432   2.435   3.317   2.471 -0.0132  0.6106  0.0788
  518MOL0     H71433   2.733   3.570   2.558 -0.4664  0.3630  2.9126
  518MOL0     H71434   2.703   3.831   2.320 -0.2129 -1.1969  0.1788
  518MOL0     H71435   2.752   3.827   2.486  0.3967  0.6793 -0.5402
  518MOL0     H71436   2.499   3.958   2.385 -1.3786 -0.3578  0.5770
  518MOL0     H71437   2.520   3.918   2.556  1.3482  0.2867  0.2917
  518MOL0     H71438   2.561   4.134   2.531  0.1744  0.2594  0.6165
  518MOL0     H71439   2.712   4.063   2.578 -0.4721 -3.8661  0.5476
  518MOL0     H71440   2.755   4.237   2.408 -1.7776  0.6552 -1.3019
  518MOL0     H71441   2.810   4.075   2.352 -1.2216 -1.9318 -1.5950
  518MOL0     H71442   2.520   4.138   2.026 -0.8011  1.8972 -1.7474
  518MOL0     H71443   2.612   4.132   1.706  0.7876 -0.1999  0.6440
  518MOL0     H71444   2.576   4.297   1.719 -2.1368 -0.0765  0.2055
  518MOL0     H71445   2.470   4.195   1.801 -0.4554  0.7695 -3.3188
  518MOL0     H71446   2.960   4.186   1.509 -0.2786  0.1988  0.3551
  518MOL0     H71447   3.141   4.193   1.311  3.4628  0.7995 -0.4141
  518MOL0     H71448   3.529   4.221   1.430  2.2299  1.2153 -1.3204
  518MOL0     H71449   3.461   4.126   1.289  0.1775  0.5690 -1.2880
  518MOL0     H71450   3.569   4.279   1.138 -2.0661 -0.6923  0.3252
  518MOL0     H71451   3.607   4.401   1.269  1.3489 -0.5059  0.0867
  518MOL0     H71452   3.726   4.131   1.217  2.8222 -0.0513 -0.0476
  518MOL0     H71453   3.741   4.211   1.377  2.8701 -0.4181 -0.1459
  518MOL0     H71454   3.849   4.401   1.295  1.3797  0.5555 -0.8210
  518MOL0     H71455   3.820   4.338   1.123  1.2146 -1.8425 -0.5088
  518MOL0     H71456   3.994   4.184   1.317  2.6359 -0.7684 -0.9877
  518MOL0     H71457   3.950   4.153   1.148 -2.9548 -0.9527  0.5012
  518MOL0     H71458   4.089   4.407   1.244 -0.3367  0.1224  0.3467
  518MOL0     H71459   4.074   4.347   1.072 -0.5173 -0.8446  0.0637
  518MOL0     H71460   4.213   4.178   1.107 -3.9514  0.7956  1.0534
  518MOL0     H71461   4.250   4.216   1.281 -1.4424 -1.6876  0.7022
  518MOL0     H71462   4.331   4.443   1.192 -5.1731 -0.3333  0.4868
  518MOL0     H71463   4.287   4.390   1.020 -2.5641  1.0882  0.6970
  518MOL0     H71464   3.419   4.329   1.584 -1.2532  2.0425  0.6148
  518MOL0     H71465   3.258   4.289   1.783 -0.8662 -1.9642  0.1778
  518MOL0     H71466   3.000   4.251   2.003  1.6500 -2.1960  1.0818
  518MOL0     H71467   2.907   4.185   2.210  2.2200 -0.4687 -2.1251
  518MOL0     H71468   3.231   3.213   3.299 -1.5588 -2.8494  1.7149
  518MOL0     H71469   3.424   3.266   3.426  0.6572 -0.2387 -0.2702
  518MOL0     H71470   3.681   3.174   3.652  0.5433 -0.5251  0.4888
  518MOL0     H71471   3.800   3.264   3.864 -0.6770 -1.8259 -1.4452
  518MOL0     H71472   4.043   3.258   3.975  0.5514 -0.4513  1.2416
  518MOL0     H71473   4.163   3.295   3.851 -3.1945 -1.5623 -1.4511
  518MOL0     H71474   4.131   3.439   4.103  2.2924 -0.5131  1.5431
  518MOL0     H71475   4.237   3.483   3.960 -0.1398 -1.4502 -2.3862
  518MOL0     H71476   4.247   3.240   4.142  0.0067 -1.7580 -0.6029
  518MOL0     H71477   4.327   3.243   3.980  2.8227  1.3732  0.6657
  518MOL0     H71478   4.370   3.445   4.209 -0.9142  1.1982 -0.7881
  518MOL0     H71479   4.459   3.439   4.062  1.2730 -3.2024 -1.4055
  518MOL0     H71480   4.623   3.136   4.324 -2.5604 -1.1491 -1.0739
  518MOL0     H71481   4.039   3.505   3.631  1.2888 -1.3760 -0.7774
  518MOL0     H71482   4.000   3.378   3.313  2.9931 -0.2106  1.6058
  518MOL0     H71483   3.883   3.512   3.339  2.4577  0.8422 -2.0205
  518MOL0     H71484   4.049   3.505   3.411 -0.8802  1.4181 -1.9259
  519MOL0     O71485   4.224   0.929   4.299 -0.3974 -0.4503  0.2786
  519MOL0     C71486   4.137   0.997   4.355  0.4044 -0.0233 -0.2907
  519MOL0     O71487   4.150   1.061   4.474  0.1618 -0.6186 -0.2538
  519MOL0     C71488   4.278   1.043   4.526 -0.3266 -0.1773 -0.0263
  519MOL0     C71489   4.316   0.953   4.617  1.0174  0.2848  0.2417
  519MOL0     C71490   4.448   0.947   4.654 -1.4905 -0.0789  0.1733
  519MOL0     C71491   4.551   1.040   4.605  0.0929  0.6835 -0.6652
  519MOL0     O71492   4.682   1.039   4.641  0.8300 -0.2016  0.0674
  519MOL0     C71493   4.721   0.923   4.721  0.9814  0.0368 -0.5511
  519MOL0     C71494   4.855   0.928   4.785  0.7681 -0.1717  0.6995
  519MOL0     C71495   4.953   0.990   4.676  0.2330 -0.0487 -0.9007
  519MOL0     C71496   5.094   0.975   4.732  0.5543 -0.6379  0.5235
  519MOL0     C71497   5.202   1.018   4.633 -0.4792  0.3088  0.4075
  519MOL0     C71498   5.327   1.042   4.714 -1.9741  0.1227 -0.0629
  519MOL0     C71499   5.436   1.075   4.611 -0.1319  0.2009  0.3388
  519MOL0     C71500   5.579   1.070   4.676 -0.3623  0.3190 -0.5761
  519MOL0     N71501   5.692   1.039   4.583  0.4663 -0.5582 -0.3191
  519MOL0     C71502   5.733   1.126   4.490 -0.0628  0.5741  0.2379
  519MOL0     C71503   5.833   1.062   4.423  0.9658 -0.5838  0.8064
  519MOL0     C71504   5.902   1.108   4.301  0.4349  0.3990  0.3372
  519MOL0     C71505   6.056   1.109   4.308  0.2666  0.6924 -1.0232
  519MOL0     C71506   6.119   1.178   4.182  0.3665 -0.0414 -0.2846
  519MOL0     C71507   6.269   1.181   4.178  0.3145 -0.0625 -0.2573
  519MOL0     O71508   6.321   1.260   4.080 -0.2141 -0.1594  0.6770
  519MOL0     C71509   6.464   1.269   4.071 -0.0134  0.3178 -0.3698
  519MOL0     C71510   6.522   1.386   4.012 -0.0805  0.4769  0.7732
  519MOL0     C71511   6.656   1.397   3.997 -0.5577  1.3277  0.6048
  519MOL0     C71512   6.700   1.524   3.936  0.1826  0.0809  0.1481
  519MOL0     C71513   6.748   1.286   4.010  0.6357  0.0042  0.5550
  519MOL0     C71514   6.897   1.283   3.977 -0.9390  0.0253 -0.1577
  519MOL0     O71515   6.963   1.168   4.007  0.1374  0.1361 -0.0348
  519MOL0     C71516   7.100   1.191   4.053 -0.7205  0.3908 -0.5345
  519MOL0     C71517   7.194   1.088   4.027 -0.2652 -0.5526  0.2090
  519MOL0     C71518   7.330   1.110   4.053 -0.1357  0.1460  0.3737
  519MOL0     C71519   7.382   1.234   4.095 -0.1106 -0.6052 -0.0393
  519MOL0     O71520   7.515   1.244   4.104 -0.4446  0.5488 -0.6581
  519MOL0     C71521   7.573   1.380   4.104 -0.0165  0.7928 -0.2674
  519MOL0     C71522   7.724   1.373   4.092  0.8165 -0.8141 -1.2124
  519MOL0     C71523   7.779   1.267   3.995  0.3982  0.0300  0.3291
  519MOL0     C71524   7.928   1.268   4.029 -0.4457  0.5335 -0.7673
  519MOL0     C71525   8.022   1.177   3.952  0.4406 -0.1424 -0.5478
  519MOL0     C71526   7.994   1.029   3.990  0.0899  0.8343 -0.0639
  519MOL0     C71527   8.093   0.948   3.919 -0.5870  1.0592  0.1508
  519MOL0     C71528   8.231   0.943   3.995  0.3968 -0.3922 -0.5477
  519MOL0    Cl71529   8.351   0.842   3.901 -0.0070  0.6190  0.0458
  519MOL0     C71530   7.292   1.334   4.124 -0.8272 -0.1975 -1.2422
  519MOL0     C71531   7.150   1.311   4.106  0.3315  0.5689 -0.4479
  519MOL0     O71532   6.942   1.385   3.927  0.3814 -0.2003  0.7938
  519MOL0     C71533   6.682   1.168   4.052  0.0993  0.6545 -0.3688
  519MOL0     C71534   6.546   1.158   4.094  0.2839  0.4614 -0.4065
  519MOL0     N71535   5.853   0.946   4.485  0.6891  0.0184  0.0057
  519MOL0     N71536   5.775   0.935   4.589 -0.7443 -0.2369  0.2660
  519MOL0     C71537   4.502   1.123   4.509 -0.2597 -0.2907  0.1112
  519MOL0     C71538   4.371   1.131   4.464  0.0191  0.2564 -0.6978
  519MOL0     C71539   4.010   1.019   4.274 -0.8382  0.2916 -0.2404
  519MOL0     C71540   4.013   0.998   4.130  0.2500 -0.1249 -0.6805
  519MOL0     C71541   3.902   1.004   4.052  0.4779 -0.8018 -1.6190
  519MOL0     C71542   3.778   1.052   4.105 -0.9749 -0.4285 -0.3478
  519MOL0     O71543   3.661   1.083   4.038  0.6457  0.1848 -0.9441
  519MOL0     C71544   3.650   1.075   3.892  0.7138  0.0640 -0.2182
  519MOL0     C71545   3.633   0.921   3.855  0.0855 -0.3803 -0.1984
  519MOL0     C71546   3.621   0.895   3.709 -0.3852 -0.4916 -0.1059
  519MOL0     C71547   3.745   0.921   3.634  0.3890 -0.2964  0.7353
  519MOL0     C71548   3.754   0.855   3.504 -0.6619  0.0180  0.1965
  519MOL0     C71549   3.748   0.813   3.394 -0.9405 -0.4055 -0.1859
  519MOL0     C71550   3.782   1.082   4.239  0.6276  0.4234  0.4999
  519MOL0     C71551   3.881   1.051   4.329 -0.6386  0.7240 -0.9081
  519MOL0     C71552   3.853   1.060   4.479 -0.0763  1.1898  0.6449
  519MOL0     H71553   4.240   0.889   4.660  0.3414 -0.1068 -1.4494
  519MOL0     H71554   4.468   0.869   4.726  1.4494 -0.5823 -1.0442
  519MOL0     H71555   4.720   0.828   4.667  2.4171 -1.2198  1.5095
  519MOL0     H71556   4.658   0.915   4.811  2.9495  0.5774  0.9546
  519MOL0     H71557   4.855   0.975   4.884  3.2155  1.2599  0.1044
  519MOL0     H71558   4.874   0.825   4.815 -1.6004 -0.1582  2.5843
  519MOL0     H71559   4.936   0.931   4.586 -0.8181 -1.1791 -0.0050
  519MOL0     H71560   4.922   1.094   4.666 -3.1072 -1.0739 -3.0468
  519MOL0     H71561   5.104   1.053   4.808  0.9600  2.8521 -2.7582
  519MOL0     H71562   5.111   0.876   4.776  1.8287 -1.3003 -1.3135
  519MOL0     H71563   5.176   1.098   4.564  0.0616  0.2961  0.1867
  519MOL0     H71564   5.224   0.931   4.571  1.9085 -1.1118  3.0153
  519MOL0     H71565   5.325   1.121   4.789  0.0433  0.2170 -0.0732
  519MOL0     H71566   5.355   0.952   4.770  2.2328 -0.0295 -2.0645
  519MOL0     H71567   5.420   1.172   4.564 -0.3493  0.0170  0.0266
  519MOL0     H71568   5.434   0.999   4.532 -2.7887 -0.6288  1.0770
  519MOL0     H71569   5.604   1.161   4.731 -0.4269 -1.1453  2.0427
  519MOL0     H71570   5.565   0.996   4.756 -0.4186  1.3110  0.3586
  519MOL0     H71571   5.695   1.226   4.474 -1.1529 -0.0755 -1.5416
  519MOL0     H71572   5.867   1.211   4.286  0.5004  0.4521  0.5477
  519MOL0     H71573   5.862   1.044   4.222  1.3552  0.4512 -0.1825
  519MOL0     H71574   6.090   1.158   4.400  1.0165  1.5718 -1.7414
  519MOL0     H71575   6.097   1.008   4.311 -1.6935 -0.1315 -0.8429
  519MOL0     H71576   6.079   1.119   4.099  2.0795 -1.9322  0.1639
  519MOL0     H71577   6.089   1.283   4.172  2.4163  0.7297  1.1077
  519MOL0     H71578   6.300   1.204   4.281 -0.0910 -3.7243  0.8308
  519MOL0     H71579   6.297   1.077   4.160  2.7715  0.7978 -1.8993
  519MOL0     H71580   6.461   1.474   3.994  0.0819  0.5862  0.7579
  519MOL0     H71581   6.747   1.507   3.839  5.5417  0.8142  2.2515
  519MOL0     H71582   6.775   1.567   4.004 -0.6525  3.1795 -0.7289
  519MOL0     H71583   6.627   1.602   3.911  0.2338 -1.3028 -5.6411
  519MOL0     H71584   7.147   0.997   3.990  0.0209 -0.5279 -0.2207
  519MOL0     H71585   7.399   1.029   4.032 -0.6614 -0.5042  1.1244
  519MOL0     H71586   7.544   1.437   4.015  1.9764  0.8859 -0.9053
  519MOL0     H71587   7.540   1.429   4.196 -0.5692 -0.4762  0.2336
  519MOL0     H71588   7.738   1.475   4.053 -0.6667 -0.7459 -1.6488
  519MOL0     H71589   7.771   1.370   4.190 -0.9002  1.9936 -0.1817
  519MOL0     H71590   7.756   1.293   3.892  3.4583  1.8155 -0.0376
  519MOL0     H71591   7.732   1.172   4.020 -4.6971  1.6619 -1.7889
  519MOL0     H71592   7.940   1.250   4.136 -0.6065 -0.3736 -0.8959
  519MOL0     H71593   7.964   1.370   4.010 -3.1417  1.5239 -0.9795
  519MOL0     H71594   8.011   1.193   3.844  0.7245  1.1462 -0.4134
  519MOL0     H71595   8.124   1.211   3.974  0.2613  1.0522 -1.4124
  519MOL0     H71596   7.892   1.009   3.956  1.2329 -0.8323 -2.7933
  519MOL0     H71597   8.010   1.010   4.097 -1.0173  0.5772  0.0650
  519MOL0     H71598   8.119   0.988   3.821  1.6461 -3.5053 -1.4081
  519MOL0     H71599   8.056   0.846   3.908  1.3219  0.3332  0.0546
  519MOL0     H71600   8.223   0.892   4.091 -0.4903  0.6435 -0.0449
  519MOL0     H71601   8.258   1.048   4.009  0.6450 -0.4031 -0.9418
  519MOL0     H71602   7.322   1.432   4.161 -0.0730 -0.9461  0.2282
  519MOL0     H71603   7.090   1.395   4.139 -1.4960 -1.1799  0.8912
  519MOL0     H71604   6.737   1.075   4.053 -1.7027 -0.4522  1.1087
  519MOL0     H71605   6.519   1.056   4.122  1.1639  0.8288  2.0386
  519MOL0     H71606   4.582   1.187   4.473  2.6930 -3.1508  1.1664
  519MOL0     H71607   4.347   1.198   4.383 -1.5225  1.4380  0.6614
  519MOL0     H71608   4.099   0.970   4.071  0.6034 -0.2316 -0.1293
  519MOL0     H71609   3.905   0.984   3.945 -1.9506 -2.0007 -1.5238
  519MOL0     H71610   3.560   1.127   3.858  0.3946 -1.0399 -1.1055
  519MOL0     H71611   3.740   1.116   3.844  2.5323 -0.2177  2.6886
  519MOL0     H71612   3.539   0.894   3.905  1.7300 -0.7112  2.9194
  519MOL0     H71613   3.711   0.861   3.902 -1.0703  0.2436  2.6809
  519MOL0     H71614   3.602   0.788   3.702  0.1472 -0.5284 -1.2613
  519MOL0     H71615   3.547   0.967   3.673  0.1128  0.0044 -0.1615
  519MOL0     H71616   3.830   0.882   3.690  0.3208 -1.7962 -0.1573
  519MOL0     H71617   3.745   1.029   3.619 -4.1005 -0.4835 -2.6601
  519MOL0     H71618   3.753   0.771   3.296  0.7265 -1.0219  0.1403
  519MOL0     H71619   3.702   1.141   4.283 -0.2912 -0.5981  0.2334
  519MOL0     H71620   3.852   0.965   4.532  3.4980  1.1179  0.8117
  519MOL0     H71621   3.920   1.124   4.536 -0.7478  1.6099  0.9799
  519MOL0     H71622   3.753   1.103   4.496 -0.3210  0.3383  1.4336
  520MOL0     O71623   4.784   9.202   4.698  0.0535  1.0103 -0.6376
  520MOL0     C71624   4.744   9.279   4.782 -0.0001  0.0397  0.6551
  520MOL0     O71625   4.810   9.301   4.897  0.4290 -0.1968 -0.2286
  520MOL0     C71626   4.897   9.206   4.947  0.2878  0.5780 -0.3000
  520MOL0     C71627   4.857   9.072   4.962  0.3643 -0.1179  0.9740
  520MOL0     C71628   4.945   8.974   4.999 -0.6316 -0.3655 -1.0575
  520MOL0     C71629   5.084   9.008   5.027  0.0938  0.3763 -0.6061
  520MOL0     O71630   5.176   8.913   5.063 -0.0859  0.0921  0.5772
  520MOL0     C71631   5.136   8.816   5.164  1.0696 -0.3500 -0.6951
  520MOL0     C71632   5.183   8.676   5.125 -0.0849  0.3889 -0.0739
  520MOL0     C71633   5.076   8.564   5.142 -0.6060  0.1873  0.9184
  520MOL0     C71634   5.005   8.568   5.284  0.0242 -0.3323 -0.1136
  520MOL0     C71635   4.935   8.440   5.310 -0.0436 -0.2325  0.5046
  520MOL0     C71636   4.806   8.430   5.221  0.0859  0.7887 -0.2088
  520MOL0     C71637   4.686   8.368   5.299 -0.2250  0.1794 -0.5903
  520MOL0     C71638   4.579   8.484   5.331 -0.1272 -1.0007  0.4433
  520MOL0     N71639   4.449   8.435   5.365  0.9017  1.0115 -0.2261
  520MOL0     C71640   4.356   8.387   5.274 -0.1719  0.1329 -0.2703
  520MOL0     C71641   4.266   8.322   5.356 -0.5036 -0.2101 -0.3260
  520MOL0     C71642   4.166   8.225   5.329  0.2492 -0.5407 -0.0177
  520MOL0     C71643   4.218   8.091   5.272  0.0584  0.2046 -0.2413
  520MOL0     C71644   4.295   8.007   5.378  0.4243  0.0090  0.6215
  520MOL0     C71645   4.372   7.902   5.299  0.2154  0.8195  0.1262
  520MOL0     O71646   4.451   7.817   5.379 -0.0203 -0.2076  0.9009
  520MOL0     C71647   4.579   7.854   5.408 -0.4037 -0.0675  1.0816
  520MOL0     C71648   4.651   7.762   5.496 -0.2777 -0.4393  0.8515
  520MOL0     C71649   4.779   7.781   5.548  0.0739 -0.7776  0.6249
  520MOL0     C71650   4.835   7.666   5.624  1.1140 -1.1161  0.6366
  520MOL0     C71651   4.849   7.904   5.508  0.2607 -0.3279  0.3452
  520MOL0     C71652   4.981   7.949   5.560 -0.0965  0.5870 -0.0865
  520MOL0     O71653   5.033   7.860   5.651  1.1548  0.0409  0.1505
  520MOL0     C71654   5.151   7.881   5.712 -0.4717  0.9912 -0.0664
  520MOL0     C71655   5.273   7.904   5.645  0.9106 -0.2528  0.4416
  520MOL0     C71656   5.398   7.931   5.703 -0.3268  0.4217  0.0997
  520MOL0     C71657   5.397   7.934   5.843 -0.4164  0.3475  0.1650
  520MOL0     O71658   5.513   7.949   5.917 -0.7819 -0.5754  0.0475
  520MOL0     C71659   5.576   8.077   5.891 -0.4917  0.1612  0.1063
  520MOL0     C71660   5.697   8.086   5.995  0.2029  0.5930 -0.5188
  520MOL0     C71661   5.646   8.119   6.144  0.1923  0.3046 -0.2118
  520MOL0     C71662   5.562   8.010   6.209 -0.9605 -0.0272 -0.1167
  520MOL0     C71663   5.501   8.045   6.344  0.2647  1.1313 -0.5480
  520MOL0     C71664   5.497   7.905   6.421 -0.7887  0.9325 -0.4065
  520MOL0     C71665   5.467   7.933   6.566  0.8956  0.3254  0.2236
  520MOL0     C71666   5.454   7.817   6.666  0.2340 -0.0990 -0.0761
  520MOL0    Cl71667   5.618   7.737   6.690  0.3383  0.2047  0.2029
  520MOL0     C71668   5.278   7.918   5.918 -0.2409  0.0085  0.0615
  520MOL0     C71669   5.150   7.880   5.850  0.1334 -0.5195 -0.5593
  520MOL0     O71670   5.049   8.039   5.509 -0.5732 -0.4555  0.0951
  520MOL0     C71671   4.777   7.996   5.429  0.1563  0.1977 -0.9269
  520MOL0     C71672   4.644   7.973   5.384  0.1082 -0.3988 -0.2347
  520MOL0     N71673   4.298   8.361   5.488  0.3122 -0.4854 -0.5714
  520MOL0     N71674   4.405   8.428   5.497  0.9866  0.9714 -0.0357
  520MOL0     C71675   5.117   9.141   5.016  0.6595 -0.0677 -0.1236
  520MOL0     C71676   5.030   9.239   4.975  0.1942  0.1160  0.8889
  520MOL0     C71677   4.620   9.350   4.759  0.0049 -0.0807 -0.4826
  520MOL0     C71678   4.551   9.394   4.875  0.4392 -0.2026  1.1268
  520MOL0     C71679   4.422   9.463   4.859  0.1274 -0.0990  0.5709
  520MOL0     C71680   4.372   9.495   4.729  0.6131 -0.0457  0.2140
  520MOL0     O71681   4.257   9.578   4.729  0.0620 -0.7006  0.3689
  520MOL0     C71682   4.229   9.652   4.609  0.4688  0.7273  0.1813
  520MOL0     C71683   4.092   9.728   4.616 -0.9685 -0.2702  0.1077
  520MOL0     C71684   4.051   9.803   4.745  0.3429 -0.3192  0.2600
  520MOL0     C71685   3.931   9.896   4.705  0.5328 -0.1847  0.3228
  520MOL0     C71686   3.889   9.981   4.823 -0.8744 -0.9277 -0.1480
  520MOL0     C71687   3.861  10.034   4.936  0.6213 -0.1673  0.4653
  520MOL0     C71688   4.445   9.448   4.616  0.4203 -0.3878 -0.2444
  520MOL0     C71689   4.563   9.383   4.634  0.5218  0.4615 -0.0717
  520MOL0     C71690   4.641   9.337   4.505  0.6901  0.7567  0.4528
  520MOL0     H71691   4.753   9.053   4.935 -0.7973  3.6792  2.0157
  520MOL0     H71692   4.901   8.874   4.997 -2.8921  0.5641 -1.2641
  520MOL0     H71693   5.028   8.807   5.178  1.1338 -1.3521 -0.7500
  520MOL0     H71694   5.177   8.849   5.260 -0.9859 -1.1901  0.5471
  520MOL0     H71695   5.219   8.690   5.023 -0.9712  0.2312 -0.4196
  520MOL0     H71696   5.268   8.649   5.188  0.6444  0.0918 -1.1684
  520MOL0     H71697   4.997   8.565   5.066 -0.5738 -3.0501  0.6824
  520MOL0     H71698   5.134   8.474   5.122  1.8716  1.8144  0.4415
  520MOL0     H71699   5.091   8.583   5.349  0.7746  3.0277 -1.6581
  520MOL0     H71700   4.938   8.653   5.300 -5.5583 -4.3190  0.7764
  520MOL0     H71701   4.916   8.437   5.417  3.3730  1.0918  1.2758
  520MOL0     H71702   5.004   8.358   5.289 -0.1532  0.1576 -1.5975
  520MOL0     H71703   4.778   8.524   5.172 -3.5710  1.2476  2.3138
  520MOL0     H71704   4.832   8.362   5.139 -5.3711 -0.4784 -1.2978
  520MOL0     H71705   4.713   8.314   5.391 -1.2299  0.1365 -0.3028
  520MOL0     H71706   4.642   8.290   5.236  0.6469 -0.2148 -0.7311
  520MOL0     H71707   4.629   8.543   5.408  0.5250  1.8478 -1.9704
  520MOL0     H71708   4.567   8.561   5.254  1.5931 -1.6433 -0.5187
  520MOL0     H71709   4.357   8.391   5.165 -1.2349 -0.1641 -0.3036
  520MOL0     H71710   4.090   8.273   5.268 -0.8357  0.2442  1.8649
  520MOL0     H71711   4.114   8.184   5.416  2.6456 -0.7468  1.4352
  520MOL0     H71712   4.132   8.033   5.236  1.8266 -2.1216 -0.9758
  520MOL0     H71713   4.281   8.101   5.184 -0.3434 -0.1972 -0.5822
  520MOL0     H71714   4.363   8.059   5.446 -0.8213  0.9720  1.1898
  520MOL0     H71715   4.221   7.958   5.443 -1.4143  0.7877 -0.7938
  520MOL0     H71716   4.290   7.841   5.260 -0.2745  1.0479  0.7891
  520MOL0     H71717   4.430   7.944   5.216  1.4629 -0.9370  0.0646
  520MOL0     H71718   4.606   7.668   5.526  0.3815 -1.2634 -0.6099
  520MOL0     H71719   4.755   7.592   5.618 -0.3621  0.5447 -1.3589
  520MOL0     H71720   4.858   7.686   5.730  1.0029 -0.9248  0.6243
  520MOL0     H71721   4.926   7.620   5.583 -0.4643 -1.4398 -2.8114
  520MOL0     H71722   5.256   7.904   5.537 -2.1673 -2.5121  0.8021
  520MOL0     H71723   5.486   7.938   5.640  0.2055 -0.2592  0.7593
  520MOL0     H71724   5.620   8.073   5.791  3.7237 -1.0360  1.8054
  520MOL0     H71725   5.518   8.167   5.915  0.8504  1.3260 -0.9030
  520MOL0     H71726   5.762   7.999   5.989 -0.7029 -0.1877  0.5456
  520MOL0     H71727   5.760   8.170   5.967 -2.0367  1.6893 -2.7009
  520MOL0     H71728   5.596   8.216   6.142  1.5697  1.0483  0.3673
  520MOL0     H71729   5.736   8.130   6.204  1.5616  0.0394 -2.1000
  520MOL0     H71730   5.627   7.922   6.208  0.4637  0.9894 -0.1068
  520MOL0     H71731   5.474   7.990   6.148 -0.6636 -0.8788 -0.2686
  520MOL0     H71732   5.566   8.113   6.400  0.7115 -0.8201  1.4611
  520MOL0     H71733   5.398   8.080   6.337 -0.3137  0.0671  1.6519
  520MOL0     H71734   5.598   7.865   6.412 -0.5236  1.7337 -1.2285
  520MOL0     H71735   5.431   7.839   6.363  1.3160 -0.6856 -1.0853
  520MOL0     H71736   5.378   7.995   6.573  1.1216  1.4394 -3.9770
  520MOL0     H71737   5.562   7.985   6.581  2.6435 -2.0906 -1.4452
  520MOL0     H71738   5.379   7.748   6.627 -0.9866 -0.1914  2.2349
  520MOL0     H71739   5.420   7.864   6.759  0.5633  0.1475 -0.0761
  520MOL0     H71740   5.276   7.930   6.025  0.4749  1.9116 -0.0993
  520MOL0     H71741   5.059   7.856   5.904  1.2141 -2.1390  0.6386
  520MOL0     H71742   4.831   8.087   5.403  3.7577 -1.4212  0.2814
  520MOL0     H71743   4.589   8.049   5.330  1.0590  1.5450  1.4085
  520MOL0     H71744   5.219   9.175   5.030 -0.2679  2.6625  0.7252
  520MOL0     H71745   5.051   9.345   4.962 -2.0106  0.6150  1.0613
  520MOL0     H71746   4.587   9.355   4.969  2.2313  0.0009  0.5557
  520MOL0     H71747   4.348   9.487   4.935 -0.0483  0.5665  0.1976
  520MOL0     H71748   4.313   9.718   4.585  0.8502 -0.5149 -2.1900
  520MOL0     H71749   4.214   9.580   4.528  1.9588  0.6089 -0.0185
  520MOL0     H71750   4.012   9.653   4.604  0.5911 -2.0576  0.4022
  520MOL0     H71751   4.102   9.804   4.538 -0.2923  0.2897  0.7324
  520MOL0     H71752   4.030   9.725   4.819  0.8989 -0.0085  0.7552
  520MOL0     H71753   4.127   9.852   4.806 -0.7765 -1.8582  3.1167
  520MOL0     H71754   3.838   9.847   4.677  0.7415 -0.8523  0.7789
  520MOL0     H71755   3.958   9.969   4.628  1.6229 -0.5664  0.3188
  520MOL0     H71756   3.853  10.085   5.030  0.5595  2.5864 -0.9227
  520MOL0     H71757   4.417   9.459   4.512  0.1609 -1.3667 -0.2845
  520MOL0     H71758   4.601   9.378   4.412  1.0922 -1.8696 -0.9785
  520MOL0     H71759   4.743   9.375   4.516  0.4220  1.2208  1.4900
  520MOL0     H71760   4.647   9.228   4.496 -1.0113  0.6326  0.5384
  521MOL0     O71761  11.136  10.526   8.220  0.5614  0.2243  0.1005
  521MOL0     C71762  11.050  10.598   8.177 -0.0608  0.1034  0.4580
  521MOL0     O71763  11.075  10.731   8.141  0.9104 -0.1024  0.4881
  521MOL0     C71764  11.204  10.776   8.123  0.3695  0.0584 -0.0478
  521MOL0     C71765  11.248  10.891   8.186  0.4558 -0.4760  0.8488
  521MOL0     C71766  11.373  10.950   8.146  0.3966  0.3715 -0.7522
  521MOL0     C71767  11.458  10.885   8.060 -0.0463 -0.5722  0.7205
  521MOL0     O71768  11.580  10.928   8.015 -0.3423  0.5752 -0.6801
  521MOL0     C71769  11.608  11.068   8.011 -0.8378  0.3648  0.3922
  521MOL0     C71770  11.733  11.104   7.937  0.0960 -0.5253 -0.7315
  521MOL0     C71771  11.861  11.059   8.003  0.2776  0.2128 -0.2835
  521MOL0     C71772  11.975  11.160   8.008  0.0593  0.3690 -0.1472
  521MOL0     C71773  12.098  11.110   8.084  0.5285 -0.0872  0.0374
  521MOL0     C71774  12.226  11.185   8.050  0.2125  0.1532  1.5514
  521MOL0     C71775  12.354  11.099   8.082 -0.1101 -0.2330 -0.0744
  521MOL0     C71776  12.470  11.146   7.999  0.2110 -0.3334  0.2080
  521MOL0     N71777  12.592  11.103   8.055 -0.9040 -0.0824 -0.1603
  521MOL0     C71778  12.630  10.974   8.082 -0.3512  0.0764  0.1518
  521MOL0     C71779  12.762  10.982   8.106 -0.8007 -0.3098 -0.6996
  521MOL0     C71780  12.855  10.860   8.141  0.1242 -1.1976 -0.0055
  521MOL0     C71781  12.867  10.840   8.294 -0.5657  0.1664 -0.5167
  521MOL0     C71782  12.922  10.965   8.359  0.2440 -0.5959 -0.5872
  521MOL0     C71783  12.973  10.944   8.502 -0.3334  0.7591  0.0764
  521MOL0     O71784  12.966  11.068   8.568  0.1084  0.3176  0.6463
  521MOL0     C71785  12.933  11.058   8.697 -0.5871 -1.0395 -0.6011
  521MOL0     C71786  13.031  11.031   8.802 -0.1050 -0.0692  0.5992
  521MOL0     C71787  12.989  11.015   8.938 -0.1351  0.4068 -0.5502
  521MOL0     C71788  13.094  10.986   9.046  0.2490  0.2103 -0.2476
  521MOL0     C71789  12.853  11.046   8.972 -0.4276  0.0499 -0.0692
  521MOL0     C71790  12.798  11.038   9.110  0.1296 -0.2275 -0.1260
  521MOL0     O71791  12.659  11.069   9.121 -0.1128 -0.3636 -0.4366
  521MOL0     C71792  12.578  11.094   9.231  0.5785  0.3103  0.7327
  521MOL0     C71793  12.626  11.103   9.361  0.0178  0.6119 -0.8544
  521MOL0     C71794  12.545  11.166   9.462 -0.0792  0.5258 -0.4847
  521MOL0     C71795  12.417  11.213   9.433 -0.5017 -0.3851  0.4254
  521MOL0     O71796  12.362  11.292   9.536  0.2298 -0.2426 -0.3423
  521MOL0     C71797  12.287  11.396   9.490  0.0931  0.3162  0.0986
  521MOL0     C71798  12.254  11.486   9.605  0.1385  0.0433  0.5303
  521MOL0     C71799  12.380  11.565   9.655 -0.2086  0.6059 -0.1056
  521MOL0     C71800  12.339  11.694   9.735 -0.4029  0.1484  0.5913
  521MOL0     C71801  12.464  11.726   9.818  0.2643 -0.2568 -0.9098
  521MOL0     C71802  12.582  11.788   9.734  0.4814 -0.5957  0.4547
  521MOL0     C71803  12.710  11.790   9.814  0.4345 -0.9739 -0.1195
  521MOL0     C71804  12.828  11.829   9.720  0.1480  1.3209 -0.6444
  521MOL0    Cl71805  12.804  11.985   9.628 -0.5660  0.0264 -0.3407
  521MOL0     C71806  12.362  11.190   9.306 -0.5397 -0.8034 -0.2783
  521MOL0     C71807  12.446  11.136   9.202  0.0941 -0.5601 -0.0114
  521MOL0     O71808  12.865  10.980   9.193 -0.1758  0.2284 -1.2294
  521MOL0     C71809  12.770  11.069   8.863  0.9580 -0.2257 -0.0530
  521MOL0     C71810  12.806  11.083   8.729  0.3588  0.3033 -0.4381
  521MOL0     N71811  12.804  11.114   8.108  0.3674  0.4573 -0.7336
  521MOL0     N71812  12.699  11.184   8.076  0.2771 -0.0418  0.0286
  521MOL0     C71813  11.407  10.772   7.990 -0.7744 -0.4602 -0.2416
  521MOL0     C71814  11.289  10.715   8.028  1.3568  0.5220 -0.3224
  521MOL0     C71815  10.909  10.551   8.164  0.1764  0.1174 -0.1826
  521MOL0     C71816  10.806  10.647   8.172  0.4110 -0.5468 -0.5037
  521MOL0     C71817  10.675  10.609   8.165 -0.1331  0.0116  0.6792
  521MOL0     C71818  10.646  10.474   8.143 -0.1140  0.4734  0.6752
  521MOL0     O71819  10.517  10.427   8.132  0.2809  0.3904  0.1689
  521MOL0     C71820  10.420  10.509   8.064 -0.0979 -0.1951 -0.3695
  521MOL0     C71821  10.294  10.419   8.018 -0.4053 -0.1521 -0.6611
  521MOL0     C71822  10.195  10.390   8.130  0.0352  0.5656 -0.3632
  521MOL0     C71823  10.127  10.514   8.200 -0.1439 -0.3128  0.4745
  521MOL0     C71824  10.012  10.555   8.110  0.2031 -0.0704 -0.1963
  521MOL0     C71825   9.924  10.607   8.044  0.0954 -0.0700 -0.4661
  521MOL0     C71826  10.748  10.379   8.130  0.0901  0.0841  0.2017
  521MOL0     C71827  10.889  10.414   8.142  0.8502  1.0681  0.7140
  521MOL0     C71828  10.994  10.311   8.124 -0.5690 -0.8727 -0.4461
  521MOL0     H71829  11.184  10.942   8.258  1.0569  0.2119  0.9060
  521MOL0     H71830  11.410  11.035   8.203 -2.4874  1.5067 -0.3779
  521MOL0     H71831  11.606  11.111   8.112 -3.6617  0.3181  0.4369
  521MOL0     H71832  11.518  11.109   7.964 -1.8179 -1.1381  0.8612
  521MOL0     H71833  11.723  11.073   7.832 -2.0170  0.8273 -1.0006
  521MOL0     H71834  11.744  11.212   7.924 -0.5234 -0.6848 -2.9891
  521MOL0     H71835  11.836  11.029   8.106  2.5130  0.0563  0.2696
  521MOL0     H71836  11.896  10.965   7.959  1.2340 -0.4329  1.7190
  521MOL0     H71837  11.996  11.184   7.903  2.0417 -1.3811 -0.2156
  521MOL0     H71838  11.936  11.253   8.051 -0.3236  0.3743 -0.4959
  521MOL0     H71839  12.110  11.006   8.051 -0.4780 -0.5749  1.1682
  521MOL0     H71840  12.078  11.111   8.191  0.4660 -0.2798  0.0289
  521MOL0     H71841  12.220  11.205   7.943  2.0048  1.7242  1.6908
  521MOL0     H71842  12.227  11.287   8.092 -3.8292  0.4621  1.3503
  521MOL0     H71843  12.337  10.994   8.058 -1.8432 -0.0361  0.1850
  521MOL0     H71844  12.362  11.117   8.190  0.9374 -0.7541 -0.0500
  521MOL0     H71845  12.463  11.101   7.899  0.2206 -0.2123  0.1519
  521MOL0     H71846  12.473  11.256   7.992  1.1915 -0.3049  0.9122
  521MOL0     H71847  12.574  10.882   8.078  0.3359 -0.3454  0.1519
  521MOL0     H71848  12.953  10.883   8.098 -1.3719  4.3606 -1.2040
  521MOL0     H71849  12.804  10.779   8.088 -0.1976 -0.3817 -0.9684
  521MOL0     H71850  12.775  10.798   8.337 -0.0131 -2.4099 -1.6423
  521MOL0     H71851  12.952  10.773   8.309 -1.1000 -0.1944  1.1142
  521MOL0     H71852  13.007  11.007   8.304  0.7749  0.3033  0.8837
  521MOL0     H71853  12.840  11.036   8.369  1.3872  0.7445 -0.3362
  521MOL0     H71854  12.918  10.868   8.558  1.1645 -0.4594 -0.0327
  521MOL0     H71855  13.072  10.899   8.487 -0.7827  0.1577 -1.2440
  521MOL0     H71856  13.133  11.013   8.769 -1.0115 -3.2447 -0.8794
  521MOL0     H71857  13.194  10.987   9.003  0.6269 -1.2759  0.5181
  521MOL0     H71858  13.082  10.888   9.093 -1.3097  1.5278  2.3405
  521MOL0     H71859  13.095  11.049   9.136  2.6299 -1.6957  1.1822
  521MOL0     H71860  12.726  11.073   9.393  0.7811  3.4476 -0.3026
  521MOL0     H71861  12.573  11.180   9.566 -1.7686 -2.0097  0.3933
  521MOL0     H71862  12.341  11.444   9.408  4.1790 -0.2142  2.2355
  521MOL0     H71863  12.189  11.363   9.455 -0.1753  0.5084  0.6618
  521MOL0     H71864  12.179  11.552   9.561  0.4334 -1.1071 -1.9012
  521MOL0     H71865  12.200  11.438   9.688  1.3688  2.6101  2.9573
  521MOL0     H71866  12.439  11.603   9.572  1.5909 -0.4680  0.6393
  521MOL0     H71867  12.436  11.494   9.717  0.3918 -0.8410 -2.2192
  521MOL0     H71868  12.255  11.674   9.802 -1.7591 -0.1083 -1.1101
  521MOL0     H71869  12.304  11.769   9.663  1.0800  0.2951 -0.0177
  521MOL0     H71870  12.422  11.795   9.892  1.1608 -0.1130 -0.5157
  521MOL0     H71871  12.510  11.641   9.869 -0.0989 -0.4500 -0.9048
  521MOL0     H71872  12.552  11.883   9.688 -1.4176 -0.9224  0.9222
  521MOL0     H71873  12.600  11.718   9.652 -1.7383 -0.4799 -0.2065
  521MOL0     H71874  12.728  11.692   9.859 -1.3674 -0.6689  1.3567
  521MOL0     H71875  12.708  11.854   9.903  0.9108 -2.5863  1.0968
  521MOL0     H71876  12.846  11.745   9.652 -2.1481 -0.7422  1.1089
  521MOL0     H71877  12.919  11.839   9.779  0.8535  3.1686 -1.9479
  521MOL0     H71878  12.268  11.240   9.288 -0.0148  0.1787 -0.3226
  521MOL0     H71879  12.415  11.135   9.097  0.0631  1.4144 -0.0553
  521MOL0     H71880  12.670  11.105   8.887  0.8043 -1.2489  0.9115
  521MOL0     H71881  12.731  11.103   8.653  0.6694 -1.7608 -1.3512
  521MOL0     H71882  11.470  10.732   7.911  1.9521  3.9346 -0.6338
  521MOL0     H71883  11.260  10.622   7.981 -3.0720  0.0153  2.8016
  521MOL0     H71884  10.835  10.750   8.190  0.6698 -0.4510 -1.4522
  521MOL0     H71885  10.598  10.684   8.180 -0.7761 -0.1599 -1.4369
  521MOL0     H71886  10.389  10.599   8.116  1.7669 -0.3075  1.0082
  521MOL0     H71887  10.464  10.543   7.970  2.0510 -1.0746  0.2541
  521MOL0     H71888  10.332  10.321   7.988 -0.6002 -0.8037  1.1083
  521MOL0     H71889  10.245  10.466   7.932  1.6270  0.8318 -1.3434
  521MOL0     H71890  10.113  10.326   8.095 -1.1243 -0.9807  4.3743
  521MOL0     H71891  10.237  10.322   8.205 -0.0440  2.1596  1.1961
  521MOL0     H71892  10.192  10.599   8.221 -1.9849  2.5561 -3.8901
  521MOL0     H71893  10.103  10.482   8.302 -0.2438 -0.4606  0.4063
  521MOL0     H71894   9.848  10.662   7.993 -0.1462  0.7116  0.6912
  521MOL0     H71895  10.710  10.281   8.102 -1.3962  1.1839 -1.8722
  521MOL0     H71896  11.061  10.299   8.210 -0.3322 -1.9582 -0.7677
  521MOL0     H71897  10.948  10.212   8.116  1.3024 -1.8542  0.2413
  521MOL0     H71898  11.047  10.323   8.029  1.0542 -0.1370  0.4999
  522MOL0     O71899   3.090   5.563   5.358 -0.5191 -0.6638  0.4336
  522MOL0     C71900   3.030   5.589   5.256 -0.1358  0.7159 -0.5888
  522MOL0     O71901   3.067   5.672   5.154 -0.2782  0.4481 -0.3283
  522MOL0     C71902   3.194   5.721   5.164 -0.9671 -0.6870 -1.0107
  522MOL0     C71903   3.298   5.625   5.164 -0.3104  0.5276 -0.6749
  522MOL0     C71904   3.431   5.672   5.179  0.8744 -0.4297  0.5301
  522MOL0     C71905   3.455   5.814   5.170  0.3749  0.5347 -0.4280
  522MOL0     O71906   3.582   5.844   5.178  0.4605  0.0851  0.7125
  522MOL0     C71907   3.631   5.937   5.274  0.5406  0.6205 -0.4125
  522MOL0     C71908   3.642   5.881   5.417 -0.2199 -0.0195  0.1939
  522MOL0     C71909   3.776   5.806   5.441  0.5808 -0.4087 -0.1109
  522MOL0     C71910   3.909   5.879   5.427  0.2562  0.3503  0.3184
  522MOL0     C71911   4.036   5.791   5.436  0.3139  0.4440 -0.7798
  522MOL0     C71912   4.049   5.738   5.582  0.8770 -0.5566  0.3994
  522MOL0     C71913   4.128   5.841   5.668  0.3219 -0.3554  0.1145
  522MOL0     C71914   4.148   5.775   5.804 -0.1406 -0.0645  0.3429
  522MOL0     N71915   4.255   5.853   5.871 -0.0070  0.0619  0.7056
  522MOL0     C71916   4.390   5.870   5.830  0.9353 -0.5765 -0.0042
  522MOL0     C71917   4.441   5.950   5.921 -0.3811  0.4710 -0.3161
  522MOL0     C71918   4.567   6.027   5.908  0.3761 -1.0106  0.0332
  522MOL0     C71919   4.608   6.098   6.047  0.2581  0.2616 -0.4298
  522MOL0     C71920   4.724   6.195   5.997 -0.5439  0.9951  1.0572
  522MOL0     C71921   4.820   6.233   6.105  0.5488  0.0813 -0.1856
  522MOL0     O71922   4.924   6.305   6.047  0.3932 -0.1561  0.0700
  522MOL0     C71923   5.032   6.332   6.120  0.5703  0.7087  0.0905
  522MOL0     C71924   5.052   6.297   6.258  0.0999 -0.1992  0.1885
  522MOL0     C71925   5.172   6.304   6.314 -0.0295  0.5944 -0.4253
  522MOL0     C71926   5.171   6.243   6.452 -0.6432 -0.7293 -0.5390
  522MOL0     C71927   5.285   6.365   6.243 -0.2374 -0.2677 -0.2089
  522MOL0     C71928   5.426   6.362   6.294  0.4720 -0.4068  0.3104
  522MOL0     O71929   5.520   6.414   6.211 -0.1843  0.2822 -0.5041
  522MOL0     C71930   5.650   6.371   6.236 -0.0023  0.0204  0.0523
  522MOL0     C71931   5.753   6.463   6.255 -0.5070 -0.5497  0.3324
  522MOL0     C71932   5.888   6.427   6.251 -1.0411 -0.2524 -0.1648
  522MOL0     C71933   5.923   6.291   6.236 -0.8392  0.3846 -0.3753
  522MOL0     O71934   6.048   6.235   6.221 -0.4255 -0.0324 -0.0395
  522MOL0     C71935   6.150   6.306   6.156 -0.4602 -0.0884 -0.5246
  522MOL0     C71936   6.218   6.210   6.059 -0.6138 -0.7517 -0.4935
  522MOL0     C71937   6.273   6.085   6.120 -0.2418  0.3180 -1.0577
  522MOL0     C71938   6.419   6.105   6.169 -0.0034 -0.3437  0.1703
  522MOL0     C71939   6.471   5.961   6.209  0.1717  0.4521  0.4923
  522MOL0     C71940   6.629   5.957   6.219 -0.2520  0.0634  0.5531
  522MOL0     C71941   6.672   5.833   6.284  0.0482 -0.1585 -0.1908
  522MOL0     C71942   6.631   5.707   6.218  0.7639 -0.7411 -0.3057
  522MOL0    Cl71943   6.701   5.700   6.048  0.0210 -0.0436  0.2022
  522MOL0     C71944   5.819   6.195   6.215  0.8504  0.1810  0.6810
  522MOL0     C71945   5.687   6.236   6.218 -0.0725  0.1795 -0.1696
  522MOL0     O71946   5.450   6.308   6.400 -0.1948  0.1902 -0.0017
  522MOL0     C71947   5.256   6.408   6.112  0.0147 -0.3514  0.1721
  522MOL0     C71948   5.140   6.392   6.054 -0.0967 -0.2251  0.3065
  522MOL0     N71949   4.353   5.954   6.028 -0.0712 -0.3754  0.3959
  522MOL0     N71950   4.239   5.907   5.994 -0.7961 -0.3781  0.5738
  522MOL0     C71951   3.347   5.906   5.159  0.0772  0.2247  0.1050
  522MOL0     C71952   3.216   5.864   5.160 -0.5728 -0.1194  0.3128
  522MOL0     C71953   2.897   5.526   5.232  0.5943 -1.2838  0.1898
  522MOL0     C71954   2.812   5.610   5.152 -0.3860  0.6282  0.8240
  522MOL0     C71955   2.676   5.579   5.134 -0.2949  0.2604 -0.1585
  522MOL0     C71956   2.616   5.470   5.196 -0.7279 -0.4552  0.3646
  522MOL0     O71957   2.485   5.436   5.165 -0.1763  0.2862 -0.2417
  522MOL0     C71958   2.423   5.315   5.220  0.6370 -0.5383 -0.4746
  522MOL0     C71959   2.277   5.324   5.171 -0.2745 -0.5526  0.1100
  522MOL0     C71960   2.264   5.255   5.032 -0.4577 -1.1596 -0.8917
  522MOL0     C71961   2.126   5.282   4.966 -0.3424 -0.3918 -0.2019
  522MOL0     C71962   2.012   5.241   5.036  0.2175 -0.3786 -0.4499
  522MOL0     C71963   1.922   5.181   5.089 -0.8128 -0.5886  0.0221
  522MOL0     C71964   2.701   5.385   5.268 -0.7134 -0.3256 -0.2692
  522MOL0     C71965   2.841   5.412   5.288  0.0961 -0.6668  0.7321
  522MOL0     C71966   2.929   5.315   5.367  0.2253  0.6267 -0.6526
  522MOL0     H71967   3.281   5.519   5.179 -0.8400  0.9532  2.5136
  522MOL0     H71968   3.518   5.609   5.194  0.3865 -1.4147 -0.5522
  522MOL0     H71969   3.568   6.026   5.278 -3.6572 -2.1025  1.7373
  522MOL0     H71970   3.729   5.971   5.240 -0.1102  1.3908 -1.5687
  522MOL0     H71971   3.631   5.963   5.489  0.5237  0.2384  0.0203
  522MOL0     H71972   3.559   5.812   5.433 -0.5694  0.7609  2.0373
  522MOL0     H71973   3.766   5.764   5.542  1.4907 -0.3288  0.0282
  522MOL0     H71974   3.778   5.720   5.374  0.2533 -1.2123  0.8849
  522MOL0     H71975   3.904   5.889   5.319 -1.5385  1.6082  0.4753
  522MOL0     H71976   3.913   5.976   5.478 -0.1889  0.5979 -0.1106
  522MOL0     H71977   4.128   5.842   5.406  0.1029  1.6036  0.4193
  522MOL0     H71978   4.019   5.706   5.370 -1.2094  0.6532 -0.6962
  522MOL0     H71979   3.954   5.726   5.635  1.1374 -1.4751  0.6778
  522MOL0     H71980   4.094   5.639   5.578  0.6574 -0.6338 -0.4527
  522MOL0     H71981   4.059   5.926   5.675 -0.2325 -0.6489 -1.5021
  522MOL0     H71982   4.227   5.874   5.635  0.0035  0.3134 -0.1916
  522MOL0     H71983   4.060   5.780   5.869  0.4105 -1.5832  1.2474
  522MOL0     H71984   4.184   5.673   5.788  0.2216  0.2522 -1.0886
  522MOL0     H71985   4.433   5.832   5.739  1.1217 -1.2251  0.3468
  522MOL0     H71986   4.558   6.101   5.828 -1.1309 -0.4864  0.6382
  522MOL0     H71987   4.634   5.944   5.883  0.6154 -0.2729 -1.9215
  522MOL0     H71988   4.528   6.157   6.093 -0.1524  0.8028 -1.8023
  522MOL0     H71989   4.636   6.011   6.107 -1.1277 -1.1182 -1.6993
  522MOL0     H71990   4.785   6.144   5.921 -0.8036 -2.9181  3.2477
  522MOL0     H71991   4.674   6.285   5.960  0.2591  0.6038 -1.1908
  522MOL0     H71992   4.769   6.300   6.175  1.1228 -1.2527  1.6023
  522MOL0     H71993   4.855   6.151   6.168 -2.3096 -0.2124  1.1785
  522MOL0     H71994   4.972   6.245   6.310  0.2889 -2.3936 -1.5427
  522MOL0     H71995   5.182   6.134   6.445  1.0216 -0.5846 -0.4613
  522MOL0     H71996   5.074   6.265   6.498 -0.9179 -0.3409 -1.2794
  522MOL0     H71997   5.253   6.278   6.515  0.4315  0.5250 -2.5234
  522MOL0     H71998   5.718   6.565   6.242 -2.0411 -1.1699 -0.7608
  522MOL0     H71999   5.965   6.503   6.256 -0.4681 -0.8477  0.3496
  522MOL0     H72000   6.097   6.384   6.101  2.0625  3.3878  1.5555
  522MOL0     H72001   6.229   6.353   6.216 -1.8646  1.0404  0.5099
  522MOL0     H72002   6.140   6.172   5.993  0.1374 -1.5879 -0.9263
  522MOL0     H72003   6.298   6.259   6.003  2.0349 -2.0960  1.8743
  522MOL0     H72004   6.274   5.995   6.057 -1.8108 -0.5237  0.0722
  522MOL0     H72005   6.208   6.062   6.204  1.5299 -0.7048  0.1108
  522MOL0     H72006   6.409   6.174   6.253 -0.8896  1.4636 -1.3367
  522MOL0     H72007   6.491   6.148   6.098  0.4823 -0.9798  0.2744
  522MOL0     H72008   6.415   5.943   6.301 -1.2128  1.3410 -0.1336
  522MOL0     H72009   6.442   5.873   6.151  1.0579  0.5869 -0.1774
  522MOL0     H72010   6.656   6.042   6.281 -2.4988  0.8038  0.6246
  522MOL0     H72011   6.669   5.964   6.117  0.3547  1.8915  0.8871
  522MOL0     H72012   6.635   5.823   6.387 -0.6982  0.3679 -0.3963
  522MOL0     H72013   6.781   5.831   6.288  0.1679 -1.9599 -2.3998
  522MOL0     H72014   6.523   5.702   6.208  0.7345 -0.7474  0.0137
  522MOL0     H72015   6.671   5.625   6.280 -0.0367  0.9197  2.5690
  522MOL0     H72016   5.825   6.090   6.189 -2.2768  0.1453 -0.3020
  522MOL0     H72017   5.620   6.152   6.208 -0.4899  0.7126 -2.0673
  522MOL0     H72018   5.336   6.448   6.051 -0.6513 -1.0931 -1.2371
  522MOL0     H72019   5.121   6.419   5.950  0.9444 -2.5287 -0.5608
  522MOL0     H72020   3.375   6.011   5.156 -3.4153  1.3248  0.8255
  522MOL0     H72021   3.149   5.947   5.141  2.3624  2.3201 -0.1780
  522MOL0     H72022   2.835   5.700   5.095 -3.9228  0.5141 -1.0460
  522MOL0     H72023   2.616   5.638   5.065 -0.5701  2.3551  1.7782
  522MOL0     H72024   2.466   5.221   5.183  1.5606  0.1319 -1.1413
  522MOL0     H72025   2.420   5.325   5.329 -0.2191  1.3123 -0.6342
  522MOL0     H72026   2.238   5.425   5.157  0.2589 -0.5598 -1.7299
  522MOL0     H72027   2.204   5.273   5.235 -2.8905  1.8374 -0.7767
  522MOL0     H72028   2.344   5.292   4.967  1.0738 -2.6281  0.0546
  522MOL0     H72029   2.270   5.146   5.042  0.3958 -1.0615 -0.2454
  522MOL0     H72030   2.128   5.234   4.868  2.4495 -1.0192  0.0691
  522MOL0     H72031   2.110   5.389   4.955  1.7858  0.2032  1.6778
  522MOL0     H72032   1.833   5.136   5.128 -0.7143 -1.8362 -1.1263
  522MOL0     H72033   2.653   5.308   5.329 -0.1573  1.5360  2.7400
  522MOL0     H72034   2.978   5.351   5.458  0.7592 -4.2769  1.2927
  522MOL0     H72035   2.870   5.233   5.409  0.7994  0.2176 -0.6387
  522MOL0     H72036   3.000   5.266   5.300  0.8460 -0.4304  0.7290
  523MOL0     O72037   1.889  10.602   8.316 -0.2130 -0.5010 -0.1504
  523MOL0     C72038   1.809  10.580   8.225  0.2094  0.8280 -0.0204
  523MOL0     O72039   1.837  10.609   8.095  0.5291  0.5819 -0.1436
  523MOL0     C72040   1.962  10.651   8.063  0.2675 -0.0400  0.0966
  523MOL0     C72041   2.065  10.560   8.042 -0.4391  1.2230  0.6889
  523MOL0     C72042   2.194  10.597   8.006 -0.5238  0.2977 -0.5725
  523MOL0     C72043   2.217  10.732   7.992 -0.1996  0.8278  0.2734
  523MOL0     O72044   2.343  10.793   7.973  0.1215  0.0358 -0.1474
  523MOL0     C72045   2.453  10.706   7.964  0.1598  0.0636  0.0344
  523MOL0     C72046   2.578  10.787   7.976  0.5147  1.0188  0.7829
  523MOL0     C72047   2.620  10.878   7.852 -0.4578  0.0070  0.1490
  523MOL0     C72048   2.688  10.799   7.740 -0.0994 -0.2107 -0.4248
  523MOL0     C72049   2.775  10.888   7.654  0.0956  0.0207 -0.0157
  523MOL0     C72050   2.686  10.984   7.571 -0.6931 -0.7825 -0.4044
  523MOL0     C72051   2.586  10.915   7.475  0.7242  0.3980  0.4859
  523MOL0     C72052   2.654  10.804   7.393 -0.0914 -1.4084  0.0492
  523MOL0     N72053   2.549  10.760   7.300  0.8956 -0.4662 -0.3791
  523MOL0     C72054   2.474  10.645   7.307 -0.1401 -0.0462  0.1071
  523MOL0     C72055   2.384  10.650   7.199 -0.7622 -0.3763 -0.2340
  523MOL0     C72056   2.284  10.546   7.172 -0.0411  0.4923 -0.2896
  523MOL0     C72057   2.146  10.565   7.218  0.1349  0.1645 -0.6650
  523MOL0     C72058   2.058  10.438   7.185 -0.2064  0.3362  0.2553
  523MOL0     C72059   1.911  10.465   7.214  0.2695  1.1418 -0.2222
  523MOL0     O72060   1.894  10.537   7.341 -0.3461 -0.3121 -0.5625
  523MOL0     C72061   1.781  10.547   7.426 -0.3759  0.0601  0.8796
  523MOL0     C72062   1.800  10.584   7.556  0.2018 -0.1376  0.0262
  523MOL0     C72063   1.698  10.575   7.657 -0.2870  0.4244  1.0635
  523MOL0     C72064   1.740  10.617   7.792  0.0322  0.2096 -0.4015
  523MOL0     C72065   1.575  10.511   7.619 -0.3190 -1.1845 -0.2026
  523MOL0     C72066   1.464  10.489   7.716  0.6862  0.3902 -0.4676
  523MOL0     O72067   1.339  10.458   7.659  0.2343 -1.4857  0.0567
  523MOL0     C72068   1.233  10.429   7.750  0.2852  0.0595 -0.0540
  523MOL0     C72069   1.174  10.304   7.751  0.3952 -0.1751  0.6383
  523MOL0     C72070   1.064  10.281   7.836  0.9240  0.4257  0.5765
  523MOL0     C72071   0.990  10.393   7.897 -0.3016  0.6886 -0.1213
  523MOL0     O72072   0.870  10.363   7.959  0.0647 -0.2235 -0.4956
  523MOL0     C72073   0.764  10.459   7.931 -0.6313  0.6472 -0.0011
  523MOL0     C72074   0.633  10.372   7.900 -0.3972  0.8545 -0.1986
  523MOL0     C72075   0.653  10.295   7.761  0.1115  0.5670  0.1508
  523MOL0     C72076   0.518  10.261   7.690 -0.2309 -0.6694  0.3356
  523MOL0     C72077   0.545  10.166   7.567  0.2254 -0.4772  0.4789
  523MOL0     C72078   0.609  10.237   7.444  0.4209 -0.5811 -0.1261
  523MOL0     C72079   0.621  10.135   7.325 -0.1190  0.5754  0.1050
  523MOL0     C72080   0.677  10.200   7.197  0.0842 -0.6184  0.7027
  523MOL0    Cl72081   0.864  10.249   7.224  0.3273 -0.1105 -0.1881
  523MOL0     C72082   1.056  10.517   7.886  0.5179  0.7035  0.2702
  523MOL0     C72083   1.174  10.533   7.819  0.5790  0.2052 -0.0482
  523MOL0     O72084   1.481  10.488   7.837  0.2988  0.2479 -0.5108
  523MOL0     C72085   1.553  10.478   7.485 -0.1602  0.7905  0.3235
  523MOL0     C72086   1.657  10.503   7.390  0.0445 -0.3212  0.8889
  523MOL0     N72087   2.414  10.763   7.131  0.1042  0.5047  0.3984
  523MOL0     N72088   2.502  10.834   7.196 -0.5032 -0.5270  0.4221
  523MOL0     C72089   2.119  10.834   8.007 -0.8337  0.6716 -0.0272
  523MOL0     C72090   1.987  10.789   8.043 -0.1178 -0.3050  0.4734
  523MOL0     C72091   1.672  10.526   8.263 -0.6065 -0.4390  0.1485
  523MOL0     C72092   1.571  10.515   8.165  0.6454 -0.7314  0.3973
  523MOL0     C72093   1.437  10.499   8.203  0.0687 -0.8409  0.7306
  523MOL0     C72094   1.397  10.465   8.336  0.0446 -0.0940 -0.3706
  523MOL0     O72095   1.266  10.445   8.386  0.3850  0.4657 -0.9817
  523MOL0     C72096   1.151  10.487   8.298 -0.3543  0.5171 -0.3451
  523MOL0     C72097   1.020  10.498   8.377 -0.5483 -0.6216  0.5700
  523MOL0     C72098   1.004  10.632   8.451 -0.5887 -0.1992 -0.0366
  523MOL0     C72099   1.016  10.752   8.348  1.1621  1.2672 -1.3888
  523MOL0     C72100   0.978  10.879   8.409 -0.1118  0.3356 -0.3866
  523MOL0     C72101   0.964  10.989   8.461  0.4113  0.9145 -0.5577
  523MOL0     C72102   1.499  10.450   8.429 -0.3123 -0.3738  0.1841
  523MOL0     C72103   1.631  10.500   8.395  0.3038 -0.2714 -0.0545
  523MOL0     C72104   1.720  10.514   8.512  0.3004 -0.2971 -0.4413
  523MOL0     H72105   2.041  10.457   8.065 -1.6330  1.0503 -1.1340
  523MOL0     H72106   2.271  10.522   7.991 -0.9922 -0.2592 -0.2667
  523MOL0     H72107   2.453  10.650   7.870  0.6668 -2.3643  1.3949
  523MOL0     H72108   2.455  10.632   8.044  0.4364 -0.7464 -0.7098
  523MOL0     H72109   2.563  10.856   8.059 -0.1137 -1.6992  3.0970
  523MOL0     H72110   2.657  10.718   8.009  0.1781  0.1972 -0.0820
  523MOL0     H72111   2.545  10.950   7.819  3.3304  3.1124 -2.5792
  523MOL0     H72112   2.699  10.943   7.891  0.6141 -0.7752 -0.6589
  523MOL0     H72113   2.764  10.732   7.781 -0.2926  0.5923  1.3115
  523MOL0     H72114   2.623  10.729   7.687 -1.8804  1.0097  0.0471
  523MOL0     H72115   2.828  10.823   7.584 -2.8723  0.6684 -3.1660
  523MOL0     H72116   2.840  10.951   7.715 -0.2072 -0.9253  1.3279
  523MOL0     H72117   2.631  11.055   7.633  2.1332  2.3530 -1.2099
  523MOL0     H72118   2.754  11.045   7.512 -0.0140 -1.6456 -0.5395
  523MOL0     H72119   2.543  10.989   7.407 -0.9884 -0.7276  0.2758
  523MOL0     H72120   2.511  10.859   7.532  0.0693 -0.3968 -1.1099
  523MOL0     H72121   2.734  10.854   7.338 -0.9325 -0.1701 -0.0940
  523MOL0     H72122   2.692  10.724   7.458 -1.5292  0.2091  3.1338
  523MOL0     H72123   2.506  10.573   7.381 -1.6811  0.6755  1.5421
  523MOL0     H72124   2.325  10.451   7.206 -0.1711  0.3462 -0.5323
  523MOL0     H72125   2.276  10.545   7.062  2.5253  2.0856 -0.5764
  523MOL0     H72126   2.142  10.591   7.324 -0.7627 -1.3539 -0.3084
  523MOL0     H72127   2.114  10.655   7.164 -0.6099  2.0710  2.6718
  523MOL0     H72128   2.058  10.397   7.084 -0.3238 -0.4517  0.5630
  523MOL0     H72129   2.095  10.354   7.245  1.7392  0.8526 -0.1755
  523MOL0     H72130   1.862  10.514   7.130  0.6007 -0.3674 -1.3530
  523MOL0     H72131   1.865  10.366   7.225 -2.1129  2.4841  3.9168
  523MOL0     H72132   1.896  10.630   7.578 -0.2365  0.9298 -0.2563
  523MOL0     H72133   1.849  10.615   7.804  0.0235  1.4954  0.0684
  523MOL0     H72134   1.702  10.537   7.856  0.6418  0.4538  0.2914
  523MOL0     H72135   1.698  10.714   7.819 -0.2472 -0.4197  1.6170
  523MOL0     H72136   1.215  10.239   7.674 -2.2853  2.5287 -3.4995
  523MOL0     H72137   1.018  10.183   7.850 -2.0646  1.6554  0.0361
  523MOL0     H72138   0.746  10.524   8.017 -0.4001  0.0525  0.5144
  523MOL0     H72139   0.795  10.525   7.850 -0.6549  1.9254  0.9911
  523MOL0     H72140   0.614  10.304   7.983  1.3058  2.0444  1.2405
  523MOL0     H72141   0.554  10.448   7.901  1.1552  2.5374  1.1372
  523MOL0     H72142   0.703  10.202   7.790 -0.0521  0.6621  0.7290
  523MOL0     H72143   0.707  10.356   7.687 -2.7532  1.0912 -1.6481
  523MOL0     H72144   0.479  10.356   7.651 -2.0777 -1.3829  0.3704
  523MOL0     H72145   0.440  10.227   7.757 -1.1859  1.2696  0.2970
  523MOL0     H72146   0.610  10.086   7.603  2.3178  0.6244 -0.6405
  523MOL0     H72147   0.447  10.131   7.534 -0.9491  1.7001  1.4146
  523MOL0     H72148   0.708  10.269   7.476 -0.4358  0.9406  1.1310
  523MOL0     H72149   0.552  10.324   7.408  1.1237  0.1390  0.4525
  523MOL0     H72150   0.527  10.087   7.298  0.3152 -0.6389  0.7102
  523MOL0     H72151   0.685  10.052   7.355 -1.2736  0.0233  1.1247
  523MOL0     H72152   0.617  10.289   7.180 -4.3444 -3.3244  0.5856
  523MOL0     H72153   0.654  10.142   7.107  3.1297 -0.4690 -0.3125
  523MOL0     H72154   1.018  10.617   7.906  2.0924  1.6904 -1.3404
  523MOL0     H72155   1.207  10.636   7.807 -2.8922  1.5076  0.2764
  523MOL0     H72156   1.457  10.444   7.448 -1.2516  1.6573  2.2328
  523MOL0     H72157   1.639  10.490   7.284  0.6359 -0.7654  0.8387
  523MOL0     H72158   2.143  10.937   7.983  0.9401  0.2701 -0.1294
  523MOL0     H72159   1.900  10.852   8.059  0.6651  1.3133 -1.3492
  523MOL0     H72160   1.608  10.544   8.068  0.0169  0.1520  0.4104
  523MOL0     H72161   1.362  10.518   8.128 -2.3160 -1.0214  2.9303
  523MOL0     H72162   1.174  10.579   8.244  1.2440  1.2392  1.4410
  523MOL0     H72163   1.143  10.399   8.233 -1.6124 -1.3903  2.2192
  523MOL0     H72164   1.007  10.414   8.446  0.9050 -0.8146  0.6374
  523MOL0     H72165   0.937  10.488   8.306 -0.7367  2.3758  0.2515
  523MOL0     H72166   0.907  10.627   8.500 -0.1272  3.4254  1.4889
  523MOL0     H72167   1.085  10.638   8.524 -0.4265  0.7527 -0.2815
  523MOL0     H72168   0.956  10.725   8.260  0.4447  0.4421 -0.6724
  523MOL0     H72169   1.118  10.768   8.312  0.9404  0.7934 -2.2680
  523MOL0     H72170   0.949  11.075   8.522  0.5701  0.1470  0.5953
  523MOL0     H72171   1.473  10.428   8.532 -1.0054 -1.0466 -0.1279
  523MOL0     H72172   1.810  10.458   8.488  0.0591 -0.2644 -1.4565
  523MOL0     H72173   1.744  10.621   8.514  0.7501 -0.4022 -0.0432
  523MOL0     H72174   1.688  10.474   8.609  0.7821 -0.4538 -0.3429
  524MOL0     O72175   2.978  10.099   7.164  0.6317  0.2106 -0.4765
  524MOL0     C72176   3.098  10.096   7.181  0.1760  1.3162  0.5384
  524MOL0     O72177   3.181  10.199   7.225 -0.0548 -0.2717  0.1660
  524MOL0     C72178   3.126  10.316   7.256 -0.5070 -1.3292 -0.6665
  524MOL0     C72179   3.131  10.380   7.381  0.2207  1.4496 -0.6244
  524MOL0     C72180   3.071  10.510   7.397  0.4035  0.3852 -0.2703
  524MOL0     C72181   3.003  10.577   7.293 -0.4349  0.8134 -0.2404
  524MOL0     O72182   2.956  10.709   7.307  0.1050  0.1363 -0.9844
  524MOL0     C72183   3.025  10.806   7.221 -0.5767  0.3390  1.4381
  524MOL0     C72184   3.154  10.855   7.292  0.8573 -0.5036 -0.6611
  524MOL0     C72185   3.116  10.945   7.410 -0.3584 -0.4256  0.0821
  524MOL0     C72186   3.072  11.091   7.373 -0.2659 -0.2794  0.6987
  524MOL0     C72187   3.082  11.186   7.496 -0.8894  0.3254  0.0344
  524MOL0     C72188   3.135  11.320   7.458 -0.2115  0.1462  0.3622
  524MOL0     C72189   3.280  11.311   7.395  0.4608  0.2182  0.2665
  524MOL0     C72190   3.387  11.267   7.495 -0.3264 -0.1288  0.2856
  524MOL0     N72191   3.518  11.242   7.429  0.3717  0.8700  0.2320
  524MOL0     C72192   3.600  11.347   7.389 -0.2423  0.4400  0.7114
  524MOL0     C72193   3.704  11.279   7.328  0.4487 -0.4936 -0.0098
  524MOL0     C72194   3.827  11.348   7.276  0.3736 -0.3994  0.0781
  524MOL0     C72195   3.926  11.402   7.383 -0.7324  0.6058  0.7007
  524MOL0     C72196   3.996  11.280   7.448 -0.5423  0.2655 -0.0562
  524MOL0     C72197   4.104  11.336   7.530 -0.0018  0.5641 -0.2574
  524MOL0     O72198   4.189  11.236   7.591  0.7729 -0.3304  0.4454
  524MOL0     C72199   4.310  11.269   7.632  0.7179 -0.1030  0.1416
  524MOL0     C72200   4.391  11.158   7.651 -0.3691 -0.2225  0.2201
  524MOL0     C72201   4.525  11.163   7.676  0.5627  0.2389 -0.4415
  524MOL0     C72202   4.594  11.032   7.695 -0.2070  0.1766 -0.0548
  524MOL0     C72203   4.586  11.291   7.698  0.3801 -0.5413  0.7755
  524MOL0     C72204   4.727  11.308   7.749  0.4705 -1.2303 -0.0121
  524MOL0     O72205   4.816  11.211   7.716 -0.1778 -0.3968 -1.0886
  524MOL0     C72206   4.963  11.228   7.728  0.8411  0.4884  0.0028
  524MOL0     C72207   5.032  11.354   7.708  0.1373 -0.1913  0.6651
  524MOL0     C72208   5.167  11.355   7.734  0.0500  0.0292  0.0417
  524MOL0     C72209   5.235  11.237   7.785 -0.3844 -0.7768 -0.3291
  524MOL0     O72210   5.370  11.224   7.800 -0.2404 -0.1698 -0.6602
  524MOL0     C72211   5.451  11.321   7.727 -0.0318  1.1509  0.0429
  524MOL0     C72212   5.465  11.295   7.580 -0.0489  0.4375 -0.4447
  524MOL0     C72213   5.546  11.414   7.512  0.4105 -0.1458 -0.7684
  524MOL0     C72214   5.693  11.392   7.538  0.5492 -0.2161  1.2823
  524MOL0     C72215   5.770  11.521   7.515  0.7153  0.2071  0.4586
  524MOL0     C72216   5.919  11.492   7.518 -0.6965 -0.3664  0.0349
  524MOL0     C72217   5.962  11.442   7.653  1.4175 -0.5917  0.2859
  524MOL0     C72218   6.110  11.416   7.655 -1.1313  0.1185 -0.0018
  524MOL0    Cl72219   6.162  11.308   7.511  0.6125  0.0084 -0.4200
  524MOL0     C72220   5.166  11.123   7.802  0.5013  0.0993  0.3348
  524MOL0     C72221   5.033  11.114   7.768  0.5192  0.0037  0.7260
  524MOL0     O72222   4.752  11.416   7.806 -0.6786 -0.6598 -0.5892
  524MOL0     C72223   4.502  11.401   7.677 -0.5467 -0.1235 -0.6745
  524MOL0     C72224   4.361  11.393   7.646 -0.2032  0.0494 -0.2127
  524MOL0     N72225   3.691  11.142   7.344  0.4418  0.8669  0.0053
  524MOL0     N72226   3.570  11.119   7.393 -0.7101 -0.5858 -0.4988
  524MOL0     C72227   3.004  10.512   7.173 -0.9475  0.2257  0.0252
  524MOL0     C72228   3.075  10.390   7.149  0.7659  0.4944 -0.4024
  524MOL0     C72229   3.177   9.965   7.147  0.5323  0.1546  0.6098
  524MOL0     C72230   3.311   9.967   7.187 -0.2805  0.4172  0.2502
  524MOL0     C72231   3.397   9.858   7.159  0.1510  0.2614 -0.1938
  524MOL0     C72232   3.342   9.743   7.090 -0.0968 -0.1440  0.1908
  524MOL0     O72233   3.433   9.650   7.054 -0.6933 -0.0008  0.2359
  524MOL0     C72234   3.401   9.533   6.982 -0.4288 -0.5336  0.2169
  524MOL0     C72235   3.518   9.426   6.983 -0.8729 -0.3493 -1.2000
  524MOL0     C72236   3.635   9.480   6.901  0.7501  0.5101  0.0205
  524MOL0     C72237   3.761   9.406   6.921  0.4086 -0.1655  0.2914
  524MOL0     C72238   3.872   9.471   6.854 -0.1875 -0.6676  0.7153
  524MOL0     C72239   3.963   9.522   6.784 -1.0024  0.0591  1.2334
  524MOL0     C72240   3.209   9.742   7.052  0.8591  0.6374 -0.1994
  524MOL0     C72241   3.128   9.858   7.075 -0.8089  0.5441  0.2021
  524MOL0     C72242   2.986   9.847   7.022  0.7428 -0.3332 -0.3133
  524MOL0     H72243   3.185  10.337   7.465  2.1875  2.5699 -1.2631
  524MOL0     H72244   3.087  10.571   7.485  0.5873  0.9176 -0.6600
  524MOL0     H72245   2.959  10.890   7.195 -0.8497  0.4722  2.4864
  524MOL0     H72246   3.066  10.770   7.127  1.8825  1.7264  1.8970
  524MOL0     H72247   3.219  10.774   7.326  0.5245  0.0681  1.5207
  524MOL0     H72248   3.203  10.915   7.216 -1.4745 -2.1753 -3.7036
  524MOL0     H72249   3.032  10.900   7.463 -2.0680 -0.3797 -2.4105
  524MOL0     H72250   3.202  10.951   7.478 -2.4248  1.1639  2.7566
  524MOL0     H72251   3.120  11.130   7.282  0.5247 -0.1861  1.1424
  524MOL0     H72252   2.966  11.088   7.346 -0.5005 -0.6612  1.6221
  524MOL0     H72253   3.141  11.148   7.580  1.4259 -0.7845 -1.9511
  524MOL0     H72254   2.982  11.206   7.536 -1.2860 -1.2783 -0.0896
  524MOL0     H72255   3.061  11.359   7.387 -0.7123  0.0437  0.8265
  524MOL0     H72256   3.139  11.389   7.543  1.5453 -1.3222  1.5377
  524MOL0     H72257   3.307  11.412   7.363  0.8994 -0.8281 -3.0431
  524MOL0     H72258   3.287  11.252   7.303  0.1457 -1.4799  1.2695
  524MOL0     H72259   3.398  11.353   7.562 -0.1554  1.3091 -1.5052
  524MOL0     H72260   3.349  11.178   7.545 -0.6884 -0.7917 -1.1078
  524MOL0     H72261   3.606  11.453   7.411  3.1789  0.6647 -0.6394
  524MOL0     H72262   3.790  11.430   7.214 -2.8186 -0.9693  1.0647
  524MOL0     H72263   3.880  11.278   7.210 -1.7331 -1.7402 -0.2805
  524MOL0     H72264   3.998  11.463   7.328 -1.7279  0.2151 -1.1346
  524MOL0     H72265   3.885  11.468   7.459  3.3192  2.1578  1.7575
  524MOL0     H72266   3.929  11.213   7.501 -0.4031  0.5195  0.4425
  524MOL0     H72267   4.049  11.221   7.373  1.1018  2.4775 -0.7673
  524MOL0     H72268   4.165  11.400   7.465  1.2218  0.3814  0.6584
  524MOL0     H72269   4.060  11.398   7.609 -3.4928  0.1968 -1.7482
  524MOL0     H72270   4.350  11.059   7.632 -2.5696  0.5207  0.7175
  524MOL0     H72271   4.525  10.954   7.727  0.5831 -1.1284 -1.4089
  524MOL0     H72272   4.668  11.039   7.775 -0.1270  1.8174 -0.2347
  524MOL0     H72273   4.647  11.016   7.600 -3.1692 -0.2201 -1.7389
  524MOL0     H72274   4.985  11.448   7.682  2.7652  0.3876 -2.6000
  524MOL0     H72275   5.211  11.448   7.698 -0.1036  0.1250  0.1028
  524MOL0     H72276   5.418  11.425   7.739 -1.2050  0.8798 -0.6365
  524MOL0     H72277   5.549  11.306   7.774  0.1088 -1.4437 -0.9507
  524MOL0     H72278   5.518  11.200   7.567  0.8810  1.0495 -1.2758
  524MOL0     H72279   5.366  11.278   7.538  0.8952  0.9234 -3.0455
  524MOL0     H72280   5.516  11.509   7.558 -1.3439 -1.5735  1.2199
  524MOL0     H72281   5.531  11.399   7.404 -2.3979 -0.5432 -0.3986
  524MOL0     H72282   5.722  11.304   7.480 -1.8193  0.9704 -1.9860
  524MOL0     H72283   5.697  11.364   7.643 -1.9459 -1.1972  1.1817
  524MOL0     H72284   5.742  11.566   7.420  0.2727  0.6921  0.8146
  524MOL0     H72285   5.738  11.601   7.582 -0.6050  1.1581 -1.2239
  524MOL0     H72286   5.975  11.585   7.507 -2.6242  1.0320  1.4351
  524MOL0     H72287   5.964  11.428   7.442  3.0985  0.9853  0.8783
  524MOL0     H72288   5.921  11.341   7.670 -0.1608 -0.2742 -1.3442
  524MOL0     H72289   5.934  11.515   7.729  1.4705  0.6868 -0.8942
  524MOL0     H72290   6.142  11.373   7.751 -0.4963  0.7479  0.0810
  524MOL0     H72291   6.170  11.507   7.646 -2.9821  1.8000  2.9675
  524MOL0     H72292   5.216  11.032   7.836 -0.5207 -1.1628 -1.3769
  524MOL0     H72293   4.984  11.017   7.776  1.6897 -0.5630  1.3773
  524MOL0     H72294   4.546  11.498   7.657 -0.0731 -0.0760  0.5337
  524MOL0     H72295   4.305  11.479   7.610 -1.7015  0.8392  3.5747
  524MOL0     H72296   2.943  10.555   7.095 -1.0417  1.0515  0.5447
  524MOL0     H72297   3.048  10.340   7.056  1.9251  1.0697 -1.0704
  524MOL0     H72298   3.357  10.052   7.236 -0.7057  2.0483 -1.9966
  524MOL0     H72299   3.502   9.853   7.187  0.9469  0.2159 -2.9066
  524MOL0     H72300   3.315   9.487   7.032  0.0975 -1.7506  0.0252
  524MOL0     H72301   3.371   9.559   6.880  2.6195 -0.2723 -0.7156
  524MOL0     H72302   3.467   9.338   6.944 -3.2045  0.1515  0.4912
  524MOL0     H72303   3.549   9.412   7.087 -0.1426  3.7266 -0.6994
  524MOL0     H72304   3.602   9.484   6.797  0.2283  1.8424  0.2236
  524MOL0     H72305   3.647   9.583   6.936 -0.0241  0.0779  1.6125
  524MOL0     H72306   3.756   9.302   6.888 -0.5238  0.5528 -2.0397
  524MOL0     H72307   3.795   9.390   7.024  1.8954  0.2244 -0.1105
  524MOL0     H72308   4.037   9.572   6.724 -2.0812  0.7873  0.4462
  524MOL0     H72309   3.182   9.662   6.984 -1.5973  1.5152 -0.3767
  524MOL0     H72310   2.967   9.761   6.956 -1.0623 -1.7341  1.8924
  524MOL0     H72311   2.921   9.822   7.106  1.4340 -2.0451 -0.2308
  524MOL0     H72312   2.958   9.942   6.976 -0.1844  0.5094  1.8867
  525MOL0     O72313   7.632   0.928   1.032  0.1845 -0.0861  0.5460
  525MOL0     C72314   7.522   0.982   1.056 -0.1981  0.6606 -0.0452
  525MOL0     O72315   7.514   1.112   1.108 -0.3144  0.1848  1.1746
  525MOL0     C72316   7.628   1.188   1.100  1.2336  1.3058  0.7291
  525MOL0     C72317   7.682   1.221   1.222  0.0552  0.3901  0.6168
  525MOL0     C72318   7.792   1.311   1.231 -0.3988  0.2194 -0.0260
  525MOL0     C72319   7.856   1.351   1.108 -0.5543  0.2272 -0.9536
  525MOL0     O72320   7.975   1.416   1.116 -0.1876 -0.2598  0.6834
  525MOL0     C72321   8.078   1.339   1.045  0.6142  0.0186 -0.4714
  525MOL0     C72322   8.206   1.424   1.064 -0.7341 -0.0259 -0.5395
  525MOL0     C72323   8.314   1.377   0.961  0.3463 -0.2178 -0.5419
  525MOL0     C72324   8.446   1.455   0.979 -0.7713 -0.2414  0.1187
  525MOL0     C72325   8.512   1.407   1.104 -0.0862 -0.3996 -0.5749
  525MOL0     C72326   8.558   1.262   1.125 -0.3700  0.3154 -0.5051
  525MOL0     C72327   8.627   1.240   1.268 -0.3632 -0.8079 -0.0006
  525MOL0     C72328   8.512   1.257   1.377 -0.1915  0.7509  0.2096
  525MOL0     N72329   8.552   1.220   1.510 -0.0410  0.2801  0.5767
  525MOL0     C72330   8.679   1.238   1.562  0.4731  0.3018  0.9860
  525MOL0     C72331   8.667   1.187   1.682 -0.0171 -0.1458 -0.1790
  525MOL0     C72332   8.775   1.183   1.793  1.1426  0.1502  0.8684
  525MOL0     C72333   8.863   1.053   1.782  0.4820 -0.0460 -0.0273
  525MOL0     C72334   8.778   0.924   1.794 -0.0079 -0.4690 -0.2277
  525MOL0     C72335   8.858   0.797   1.790 -0.3079 -0.5900  0.5786
  525MOL0     O72336   8.954   0.769   1.891  0.8730  0.1956 -0.1966
  525MOL0     C72337   9.077   0.716   1.854  0.0769 -0.7955 -0.3932
  525MOL0     C72338   9.189   0.781   1.903  0.0985  0.2945  0.5053
  525MOL0     C72339   9.312   0.723   1.886 -0.4020 -0.4878 -0.4215
  525MOL0     C72340   9.429   0.781   1.955 -0.9495 -0.3538 -0.2409
  525MOL0     C72341   9.326   0.612   1.796  0.1732 -0.3348 -0.8434
  525MOL0     C72342   9.451   0.551   1.769 -0.8233  0.2813 -0.6566
  525MOL0     O72343   9.470   0.413   1.796 -0.0329  0.5478 -0.7695
  525MOL0     C72344   9.567   0.346   1.720  0.8375  0.1460  0.0245
  525MOL0     C72345   9.703   0.369   1.742  0.5052  0.0541  0.1472
  525MOL0     C72346   9.802   0.318   1.663 -0.0385  0.6402 -0.0116
  525MOL0     C72347   9.771   0.251   1.543 -0.3559 -0.2993  0.2085
  525MOL0     O72348   9.874   0.219   1.450 -0.5581 -0.2214 -0.7110
  525MOL0     C72349   9.839   0.207   1.316  0.5177 -0.6422  0.6551
  525MOL0     C72350   9.958   0.236   1.224 -0.8962 -0.3433  0.1162
  525MOL0     C72351   9.918   0.235   1.078 -0.0539  0.0215 -0.6722
  525MOL0     C72352  10.038   0.244   0.991 -0.5721  0.9429  0.6872
  525MOL0     C72353   9.987   0.277   0.844  0.0357 -0.6736  0.0586
  525MOL0     C72354  10.101   0.338   0.761 -0.0090 -0.0189 -0.7751
  525MOL0     C72355  10.211   0.240   0.719 -0.8581  0.2370 -0.5879
  525MOL0     C72356  10.167   0.125   0.634  0.0977  0.1482  0.1679
  525MOL0    Cl72357  10.080   0.184   0.481 -0.2041  0.2140 -0.6127
  525MOL0     C72358   9.639   0.226   1.516  0.4534 -0.1910 -0.3029
  525MOL0     C72359   9.533   0.276   1.606 -0.3310 -0.3522  0.0031
  525MOL0     O72360   9.538   0.617   1.717 -0.5477  0.2304 -0.1602
  525MOL0     C72361   9.218   0.553   1.751  0.2590 -0.2012  0.1417
  525MOL0     C72362   9.095   0.600   1.779 -1.3901 -1.1816 -0.8094
  525MOL0     N72363   8.538   1.148   1.708  1.5185  0.5086  0.6524
  525MOL0     N72364   8.466   1.157   1.593 -0.1640 -0.2954  0.5702
  525MOL0     C72365   7.804   1.303   0.985 -1.0003 -0.3808  0.2600
  525MOL0     C72366   7.686   1.230   0.984 -1.0172 -0.4470 -0.3777
  525MOL0     C72367   7.402   0.896   1.022  0.6475 -0.6199 -0.7790
  525MOL0     C72368   7.405   0.758   1.036  0.2645 -0.7082  0.0012
  525MOL0     C72369   7.289   0.682   1.015 -0.0390 -0.9207  0.0591
  525MOL0     C72370   7.161   0.745   0.975 -0.6293  0.4634  0.7420
  525MOL0     O72371   7.047   0.678   0.945 -0.0893 -0.5489  0.7979
  525MOL0     C72372   7.045   0.536   0.951  0.7861 -0.2705  0.4171
  525MOL0     C72373   6.926   0.500   0.864  0.3074  0.0924  0.8583
  525MOL0     C72374   6.790   0.564   0.911 -0.3116  0.9137 -0.3646
  525MOL0     C72375   6.677   0.521   0.817 -0.3733  0.3735  0.0732
  525MOL0     C72376   6.546   0.579   0.866 -0.1280  0.0199 -0.1334
  525MOL0     C72377   6.435   0.626   0.907  0.2019 -0.2755  0.4010
  525MOL0     C72378   7.157   0.881   0.963  0.6578  0.0489 -0.4910
  525MOL0     C72379   7.273   0.956   0.997  0.3991  0.1925 -0.2367
  525MOL0     C72380   7.257   1.107   1.010 -0.0696  0.1957  1.0100
  525MOL0     H72381   7.638   1.189   1.316 -0.8827 -3.3133 -0.9054
  525MOL0     H72382   7.827   1.341   1.329  4.5926 -1.0761 -1.1345
  525MOL0     H72383   8.053   1.335   0.938 -1.8051 -1.5041  0.0771
  525MOL0     H72384   8.094   1.237   1.080 -0.0956 -0.1862 -0.7258
  525MOL0     H72385   8.180   1.530   1.055 -1.9912 -0.2469  0.2013
  525MOL0     H72386   8.244   1.410   1.165 -2.0110  1.0010  0.1133
  525MOL0     H72387   8.324   1.268   0.958  0.1506 -0.3354  1.6276
  525MOL0     H72388   8.277   1.402   0.861  0.1734  0.1297 -0.3935
  525MOL0     H72389   8.516   1.445   0.896 -1.6517  1.8841 -0.9594
  525MOL0     H72390   8.422   1.562   0.978 -3.9517 -0.8452  0.8598
  525MOL0     H72391   8.452   1.427   1.194  3.0036 -2.0511  2.0518
  525MOL0     H72392   8.605   1.465   1.110  0.5835 -1.4184 -0.8808
  525MOL0     H72393   8.480   1.185   1.120  2.1042 -2.4137  0.0831
  525MOL0     H72394   8.626   1.233   1.044  1.6593 -0.2996  1.3379
  525MOL0     H72395   8.700   1.320   1.285 -0.3923 -0.8048  0.1068
  525MOL0     H72396   8.683   1.146   1.268  0.8380 -0.1250 -0.3137
  525MOL0     H72397   8.482   1.362   1.381 -1.0901  0.6259 -2.0397
  525MOL0     H72398   8.434   1.197   1.330 -0.3578  1.3151 -0.2518
  525MOL0     H72399   8.769   1.263   1.506 -0.0356 -3.0147 -1.6618
  525MOL0     H72400   8.738   1.201   1.895  1.9487 -0.4799  1.2855
  525MOL0     H72401   8.842   1.268   1.779  1.0579  0.3701  1.7499
  525MOL0     H72402   8.901   1.056   1.679 -0.4691 -0.4736 -0.3948
  525MOL0     H72403   8.947   1.048   1.852 -0.1306 -2.0413  0.6297
  525MOL0     H72404   8.714   0.934   1.883  0.0993  1.2252 -0.3169
  525MOL0     H72405   8.708   0.926   1.709 -1.3344 -0.6781  0.8231
  525MOL0     H72406   8.787   0.713   1.789 -1.0674  0.0373 -0.1857
  525MOL0     H72407   8.906   0.778   1.694  0.6044 -2.7642  1.4091
  525MOL0     H72408   9.176   0.874   1.957 -0.2495 -1.4956  3.7367
  525MOL0     H72409   9.464   0.731   2.046  3.2323  0.0970 -1.3903
  525MOL0     H72410   9.413   0.884   1.991  0.9805 -0.7038  1.9427
  525MOL0     H72411   9.512   0.784   1.884 -0.3451  1.6738  0.4567
  525MOL0     H72412   9.723   0.426   1.833 -2.6668  0.8796  0.4587
  525MOL0     H72413   9.904   0.331   1.698 -1.1400  0.0397  3.8453
  525MOL0     H72414   9.789   0.115   1.285  0.4193  0.2966 -2.3228
  525MOL0     H72415   9.760   0.280   1.292  0.7165 -0.1787  1.3880
  525MOL0     H72416   9.988   0.340   1.243 -1.1258 -0.0052 -1.2453
  525MOL0     H72417  10.030   0.156   1.244 -2.6601 -1.6664  1.5592
  525MOL0     H72418   9.833   0.304   1.075 -1.3956 -1.3033  2.3264
  525MOL0     H72419   9.881   0.137   1.049  1.7305 -1.0762  0.5687
  525MOL0     H72420  10.097   0.153   1.002 -1.0297  0.8379  2.5135
  525MOL0     H72421  10.094   0.333   1.020 -1.5842  1.4948  0.9908
  525MOL0     H72422   9.944   0.186   0.803 -2.4011  0.8195 -0.9099
  525MOL0     H72423   9.909   0.353   0.849  1.2482  0.5074  2.6559
  525MOL0     H72424  10.148   0.414   0.824  0.7443  0.5258 -1.9738
  525MOL0     H72425  10.061   0.397   0.678  1.7971  0.7546 -1.1478
  525MOL0     H72426  10.258   0.197   0.808  0.6777  1.3547 -0.8189
  525MOL0     H72427  10.296   0.283   0.664 -2.0915 -1.0044 -3.6657
  525MOL0     H72428  10.104   0.057   0.692 -1.1073  1.1793  0.1057
  525MOL0     H72429  10.256   0.065   0.613 -1.5259 -2.3496 -0.0086
  525MOL0     H72430   9.609   0.173   1.426 -1.0301  1.6657 -0.9799
  525MOL0     H72431   9.429   0.266   1.578 -0.6162 -2.0422  1.4854
  525MOL0     H72432   9.227   0.463   1.691  0.1768  0.9949 -1.7688
  525MOL0     H72433   9.008   0.547   1.741 -1.4208  0.9001 -3.9762
  525MOL0     H72434   7.854   1.339   0.896  0.0462 -1.9612  0.1680
  525MOL0     H72435   7.647   1.214   0.884  3.6577 -4.0151 -1.9889
  525MOL0     H72436   7.506   0.725   1.059  1.1669  1.7480 -0.0297
  525MOL0     H72437   7.306   0.576   1.029  1.3084 -0.6052  1.0229
  525MOL0     H72438   7.132   0.481   0.913 -0.8173 -2.2362 -0.5354
  525MOL0     H72439   7.035   0.507   1.055  1.2058 -1.9415  0.0178
  525MOL0     H72440   6.913   0.392   0.847  0.5732  0.3307 -1.1223
  525MOL0     H72441   6.939   0.543   0.764 -1.8008 -0.2332  0.4079
  525MOL0     H72442   6.764   0.537   1.014 -0.9852  1.5507 -0.3647
  525MOL0     H72443   6.789   0.673   0.912 -2.8923  0.9511  0.4023
  525MOL0     H72444   6.665   0.413   0.804  0.2244  0.0547  1.9729
  525MOL0     H72445   6.700   0.555   0.715  0.9514 -1.9575 -0.4682
  525MOL0     H72446   6.335   0.655   0.932  0.4134  1.0823 -0.2718
  525MOL0     H72447   7.066   0.932   0.933  0.7702  1.5234  1.4708
  525MOL0     H72448   7.154   1.135   0.988  0.8348  2.1969 -1.0485
  525MOL0     H72449   7.276   1.132   1.115  4.0109 -1.1056  0.7439
  525MOL0     H72450   7.321   1.156   0.936 -1.1113 -2.6836 -2.0030
  526MOL0     O72451  11.374   5.943  10.527 -0.3566  0.4034  0.0655
  526MOL0     C72452  11.352   6.031  10.605  0.5815  0.5144  0.3517
  526MOL0     O72453  11.458   6.093  10.673  1.0001  0.0056  0.7934
  526MOL0     C72454  11.579   6.084  10.612 -0.3997  0.4662  0.9268
  526MOL0     C72455  11.652   5.956  10.609  0.1558 -1.0568  0.0035
  526MOL0     C72456  11.772   5.961  10.542 -0.1731 -0.2739 -0.1747
  526MOL0     C72457  11.814   6.077  10.471  0.1134  0.4851  0.6899
  526MOL0     O72458  11.932   6.085  10.407 -0.4788 -0.8082  0.3096
  526MOL0     C72459  12.020   5.963  10.389 -0.0307  0.3823 -0.6951
  526MOL0     C72460  12.145   6.023  10.339 -0.8368  0.4371  0.3049
  526MOL0     C72461  12.229   5.911  10.263  0.7468 -0.2411 -1.2598
  526MOL0     C72462  12.378   5.949  10.295 -0.4171 -0.7887  0.6392
  526MOL0     C72463  12.476   5.853  10.218  0.7665 -0.0193  0.1615
  526MOL0     C72464  12.620   5.910  10.216 -1.1297 -0.3305 -0.5329
  526MOL0     C72465  12.730   5.834  10.129  0.0993 -0.6896 -0.7658
  526MOL0     C72466  12.831   5.931  10.077  0.2856 -0.1675 -0.2064
  526MOL0     N72467  12.928   5.857   9.994  0.6528 -0.7425  0.3490
  526MOL0     C72468  13.039   5.801  10.048 -0.1175  1.1391  0.7494
  526MOL0     C72469  13.091   5.724   9.944 -0.0455 -0.3205  0.1817
  526MOL0     C72470  13.216   5.633   9.932 -0.1606  0.7958 -0.4886
  526MOL0     C72471  13.171   5.501  10.012 -0.8250 -0.6166 -0.4360
  526MOL0     C72472  13.285   5.399  10.043  0.3604  0.4267 -0.3823
  526MOL0     C72473  13.325   5.321   9.914  0.4703  0.6665 -0.1846
  526MOL0     O72474  13.428   5.394   9.849 -0.6026 -0.2748  1.0034
  526MOL0     C72475  13.560   5.379   9.890  0.1860 -0.2533  0.4475
  526MOL0     C72476  13.648   5.455   9.820 -0.5573 -0.1754 -0.0449
  526MOL0     C72477  13.785   5.435   9.847  0.8997 -0.3894 -0.7337
  526MOL0     C72478  13.875   5.504   9.748 -0.2972 -0.1540 -0.4175
  526MOL0     C72479  13.833   5.355   9.951  0.2625  0.7431 -0.1536
  526MOL0     C72480  13.977   5.343   9.976  0.9325  0.1741 -0.1637
  526MOL0     O72481  14.017   5.227  10.045 -0.0227 -0.5247 -0.2043
  526MOL0     C72482  14.152   5.207  10.074  0.2711  0.0697  0.0250
  526MOL0     C72483  14.217   5.105  10.009 -0.0141 -0.2947  0.6019
  526MOL0     C72484  14.352   5.075  10.039  0.7042  0.1040 -0.2153
  526MOL0     C72485  14.423   5.150  10.131  0.1075  0.3196 -0.7786
  526MOL0     O72486  14.553   5.125  10.172 -0.7205 -0.6190  0.0702
  526MOL0     C72487  14.650   5.083  10.086 -0.2490  0.1313 -0.0976
  526MOL0     C72488  14.774   5.125  10.163  0.0991  0.5975 -0.5852
  526MOL0     C72489  14.798   5.034  10.284 -0.0926 -0.4823 -0.0065
  526MOL0     C72490  14.933   5.083  10.350 -0.0947  0.5007 -0.1791
  526MOL0     C72491  14.945   4.986  10.469 -0.6361 -0.3605 -0.2730
  526MOL0     C72492  15.077   4.998  10.549 -0.0280 -0.8897 -0.2871
  526MOL0     C72493  15.066   4.944  10.684  0.0762  0.3805 -0.5366
  526MOL0     C72494  15.207   4.959  10.751 -0.8915  0.2797  0.9497
  526MOL0    Cl72495  15.326   4.842  10.677  0.2366 -0.0259  0.1628
  526MOL0     C72496  14.356   5.260  10.191 -0.5070 -1.1284  0.2775
  526MOL0     C72497  14.222   5.293  10.163  0.7220  0.4157  1.2068
  526MOL0     O72498  14.053   5.429   9.939 -0.6895  0.1649 -0.4010
  526MOL0     C72499  13.742   5.275  10.028  0.3863 -0.1260 -0.4911
  526MOL0     C72500  13.607   5.302   9.996  0.6862 -0.2367  0.4914
  526MOL0     N72501  13.004   5.745   9.834 -0.1128 -0.1072 -0.4268
  526MOL0     N72502  12.902   5.822   9.863 -0.3164  0.3843  0.6949
  526MOL0     C72503  11.734   6.193  10.463  0.7741 -0.4252 -0.6561
  526MOL0     C72504  11.614   6.192  10.535  0.3838  0.0085  0.1600
  526MOL0     C72505  11.211   6.091  10.632  0.0120  0.3953 -0.1699
  526MOL0     C72506  11.199   6.221  10.685  1.1335  0.2602  0.8902
  526MOL0     C72507  11.070   6.268  10.729  0.4387 -0.1580 -0.5125
  526MOL0     C72508  10.949   6.192  10.722  0.2070  0.3620 -0.6093
  526MOL0     O72509  10.848   6.246  10.800  0.3195 -0.0764 -0.5681
  526MOL0     C72510  10.743   6.162  10.853 -0.6503  1.0587 -0.1826
  526MOL0     C72511  10.636   6.217  10.946  0.3941  0.1350  0.2207
  526MOL0     C72512  10.590   6.347  10.885  0.1191  0.2261 -0.5314
  526MOL0     C72513  10.464   6.414  10.955  0.4063 -0.1464  0.0144
  526MOL0     C72514  10.333   6.357  10.912 -0.2958 -0.3168 -0.3478
  526MOL0     C72515  10.229   6.308  10.876 -0.4218 -0.1371 -0.0089
  526MOL0     C72516  10.958   6.068  10.653 -0.7204 -0.8238  0.3337
  526MOL0     C72517  11.085   6.026  10.596  0.1189 -0.5540 -0.3441
  526MOL0     C72518  11.089   5.893  10.536  0.7067 -0.4837 -0.3191
  526MOL0     H72519  11.612   5.869  10.659  2.8130 -0.7397  3.0069
  526MOL0     H72520  11.844   5.880  10.545 -0.4091 -0.6593 -2.8045
  526MOL0     H72521  11.976   5.903  10.310 -1.9806  1.0853 -0.2007
  526MOL0     H72522  12.043   5.901  10.476 -2.1049  0.7183  0.1498
  526MOL0     H72523  12.143   6.113  10.277  2.5878  0.6427  0.2747
  526MOL0     H72524  12.186   6.061  10.432 -1.8531  0.6187  0.6890
  526MOL0     H72525  12.202   5.816  10.311 -0.4930 -0.0739 -1.6113
  526MOL0     H72526  12.204   5.904  10.157  1.5840  1.3762 -1.6093
  526MOL0     H72527  12.392   6.052  10.260  0.7440 -1.3137 -0.5360
  526MOL0     H72528  12.406   5.950  10.401  2.2887  3.6362  0.1386
  526MOL0     H72529  12.454   5.839  10.112  0.8962 -1.4323  0.2980
  526MOL0     H72530  12.475   5.755  10.267  3.4186  0.5358  1.4944
  526MOL0     H72531  12.622   6.012  10.176 -0.4089 -0.3948 -0.6668
  526MOL0     H72532  12.657   5.925  10.318 -1.5065 -1.9576 -0.1325
  526MOL0     H72533  12.679   5.781  10.049  2.2699 -0.9963 -2.0286
  526MOL0     H72534  12.784   5.759  10.188 -0.0840  0.5162  1.0125
  526MOL0     H72535  12.793   6.008  10.009 -1.6380  1.3088  2.3443
  526MOL0     H72536  12.881   5.969  10.167 -0.4643 -0.3356  0.2854
  526MOL0     H72537  13.090   5.815  10.143  1.0540  4.4476 -0.2291
  526MOL0     H72538  13.305   5.676   9.978  0.9652 -2.9024  1.2435
  526MOL0     H72539  13.233   5.603   9.828 -0.1698 -1.8279  0.1727
  526MOL0     H72540  13.136   5.538  10.109  0.2177  0.9383 -0.6140
  526MOL0     H72541  13.081   5.462   9.964  0.0109 -0.0757 -2.5678
  526MOL0     H72542  13.372   5.449  10.087 -0.5120  1.9910 -0.3765
  526MOL0     H72543  13.238   5.329  10.112 -0.7004  1.1943 -0.3088
  526MOL0     H72544  13.365   5.223   9.942  3.2899  1.8802  0.4746
  526MOL0     H72545  13.235   5.316   9.853 -1.2578  1.7336  2.1189
  526MOL0     H72546  13.607   5.524   9.747 -1.3481 -1.5802 -0.9738
  526MOL0     H72547  13.935   5.424   9.703  1.9322  0.2229  1.6838
  526MOL0     H72548  13.942   5.571   9.802 -2.5713 -0.9714  3.8386
  526MOL0     H72549  13.823   5.571   9.678  2.2310  1.9559 -0.4196
  526MOL0     H72550  14.151   5.046   9.946 -0.7618  0.5239  0.5933
  526MOL0     H72551  14.398   4.988   9.992  1.3232 -1.2076  2.5819
  526MOL0     H72552  14.646   4.975  10.068 -1.4383 -0.3447  2.5197
  526MOL0     H72553  14.633   5.137   9.992 -1.0530 -0.2151 -0.1610
  526MOL0     H72554  14.861   5.122  10.096 -0.1677  0.7475 -0.9417
  526MOL0     H72555  14.755   5.229  10.190  0.7895  0.8230 -0.9409
  526MOL0     H72556  14.816   4.934  10.242 -0.2210 -0.0201 -1.1832
  526MOL0     H72557  14.712   5.030  10.352 -0.1674  1.3339  0.0367
  526MOL0     H72558  14.931   5.189  10.377 -3.0479  0.8334 -1.3842
  526MOL0     H72559  15.012   5.075  10.275 -1.4096  2.4109 -1.8757
  526MOL0     H72560  14.860   5.004  10.536 -0.1719  0.4523  0.1259
  526MOL0     H72561  14.944   4.880  10.443  0.2554 -0.1793 -1.1219
  526MOL0     H72562  15.106   5.104  10.559  0.0901 -1.1176  3.4759
  526MOL0     H72563  15.158   4.950  10.493  3.8723  1.3030  2.9450
  526MOL0     H72564  15.045   4.837  10.670  0.9997  0.2665 -1.2048
  526MOL0     H72565  14.991   5.000  10.738 -2.0809  1.4787 -4.3159
  526MOL0     H72566  15.208   4.931  10.857  1.0837 -3.0144  0.1899
  526MOL0     H72567  15.241   5.063  10.744  0.3218 -0.0968  0.9940
  526MOL0     H72568  14.402   5.328  10.262 -0.2438  1.7169 -2.4347
  526MOL0     H72569  14.173   5.374  10.216 -0.7526 -1.1161  2.2929
  526MOL0     H72570  13.762   5.210  10.112  1.0778  2.3731  1.3956
  526MOL0     H72571  13.533   5.250  10.056  0.3985  0.2426  0.5587
  526MOL0     H72572  11.766   6.282  10.409  0.6719  0.7743  1.1569
  526MOL0     H72573  11.547   6.277  10.529  0.7236  0.4378  1.8819
  526MOL0     H72574  11.290   6.276  10.703  0.1865  1.8603  0.9733
  526MOL0     H72575  11.074   6.360  10.786  1.8985  0.6958 -1.9068
  526MOL0     H72576  10.696   6.117  10.764  1.4244 -1.8550  0.0503
  526MOL0     H72577  10.786   6.075  10.903  0.6334  1.7953  0.0446
  526MOL0     H72578  10.696   6.238  11.035  1.1133 -0.9968  0.0217
  526MOL0     H72579  10.547   6.154  10.954 -0.0685  0.8378  0.6993
  526MOL0     H72580  10.670   6.421  10.878 -0.1744  0.5410 -0.5521
  526MOL0     H72581  10.572   6.324  10.780 -0.2950 -1.3365 -0.1612
  526MOL0     H72582  10.464   6.521  10.933  3.5077 -0.0446  0.0217
  526MOL0     H72583  10.477   6.407  11.063  1.7797 -0.5550 -0.1625
  526MOL0     H72584  10.131   6.269  10.854  0.5909 -1.3503 -2.7728
  526MOL0     H72585  10.870   6.006  10.638 -0.6222 -0.6000 -1.3455
  526MOL0     H72586  11.110   5.825  10.620  0.6298  3.0086  2.7833
  526MOL0     H72587  10.990   5.871  10.495  0.8813  0.8499 -1.5431
  526MOL0     H72588  11.151   5.870  10.449 -1.5933 -2.1092 -1.6118
  527MOL0     O72589  10.110   2.254   9.393  0.2243 -0.1721 -0.0540
  527MOL0     C72590  10.175   2.222   9.486 -0.9838  0.1205  0.1340
  527MOL0     O72591  10.129   2.187   9.610 -0.4896  0.2085  0.7577
  527MOL0     C72592   9.996   2.186   9.652  0.6924  0.4354  0.2438
  527MOL0     C72593   9.967   2.141   9.780  0.6057  0.4790  0.2804
  527MOL0     C72594   9.838   2.139   9.834 -0.5642  0.6928 -0.4479
  527MOL0     C72595   9.726   2.171   9.754 -0.1205  0.3083 -0.3717
  527MOL0     O72596   9.601   2.144   9.808 -0.0818 -0.7523 -0.1287
  527MOL0     C72597   9.484   2.133   9.726  0.1776  0.2483 -0.0976
  527MOL0     C72598   9.352   2.131   9.800  0.4761  0.7414 -0.0637
  527MOL0     C72599   9.236   2.157   9.705 -0.3667  0.1463 -0.0579
  527MOL0     C72600   9.119   2.193   9.783  0.7132  0.0131  0.1043
  527MOL0     C72601   9.006   2.245   9.697 -0.1241  0.0504 -0.2622
  527MOL0     C72602   8.878   2.295   9.776 -0.1020  0.8331 -0.2976
  527MOL0     C72603   8.771   2.339   9.680 -0.9496  0.7014 -0.2618
  527MOL0     C72604   8.653   2.410   9.742  0.1381  0.2815 -0.1329
  527MOL0     N72605   8.581   2.488   9.643  0.4194 -0.1427  0.2707
  527MOL0     C72606   8.449   2.472   9.634  0.9162  0.1668 -0.3575
  527MOL0     C72607   8.408   2.554   9.534 -0.0337  0.1547 -0.4966
  527MOL0     C72608   8.265   2.600   9.510 -0.5282  0.7500  0.8934
  527MOL0     C72609   8.187   2.642   9.623 -0.2698  0.3023 -0.2305
  527MOL0     C72610   8.244   2.773   9.691  0.7487 -0.5632  0.8795
  527MOL0     C72611   8.307   2.750   9.833  0.7987 -0.1034  0.7344
  527MOL0     O72612   8.341   2.875   9.898  0.0005  0.6502 -0.1422
  527MOL0     C72613   8.355   2.877  10.034  0.0867 -0.6953 -0.0791
  527MOL0     C72614   8.325   2.774  10.134  0.4412  0.6774  0.4083
  527MOL0     C72615   8.360   2.801  10.272  0.0748  0.3265 -0.4217
  527MOL0     C72616   8.349   2.684  10.369  0.0294  0.0479  0.1959
  527MOL0     C72617   8.401   2.928  10.313 -0.4741  0.1198 -0.0438
  527MOL0     C72618   8.449   2.971  10.454  0.5608 -0.1464  0.5447
  527MOL0     O72619   8.538   3.081  10.457 -0.3500 -0.4284  0.2522
  527MOL0     C72620   8.578   3.122  10.586 -0.7213 -0.0118 -0.1794
  527MOL0     C72621   8.721   3.144  10.600  0.0913  0.4095 -0.1881
  527MOL0     C72622   8.765   3.199  10.720 -0.4650 -0.0872 -0.2978
  527MOL0     C72623   8.675   3.226  10.824 -1.4942  0.9580  0.0317
  527MOL0     O72624   8.712   3.288  10.940  0.8035 -0.2872  0.0603
  527MOL0     C72625   8.836   3.358  10.963 -0.7111  0.4487 -0.2463
  527MOL0     C72626   8.934   3.261  11.036 -0.0954  0.3347  0.4877
  527MOL0     C72627   8.888   3.227  11.183  0.5148 -0.1991  0.1571
  527MOL0     C72628   8.960   3.097  11.225 -0.1916 -0.2339  0.2359
  527MOL0     C72629   8.985   3.071  11.374  0.0477 -0.8211 -0.0535
  527MOL0     C72630   9.057   2.941  11.394  0.4479  0.5337 -0.3714
  527MOL0     C72631   9.105   2.940  11.537  0.6053  0.3745 -0.4035
  527MOL0     C72632   9.223   2.843  11.554 -0.0558 -0.8206 -0.2072
  527MOL0    Cl72633   9.291   2.851  11.716 -0.5834 -0.0493  0.6925
  527MOL0     C72634   8.543   3.201  10.803 -0.0236 -0.4094  0.1935
  527MOL0     C72635   8.490   3.153  10.683 -0.1091  0.4390 -1.4125
  527MOL0     O72636   8.401   2.916  10.548 -0.8705  0.4280 -0.4927
  527MOL0     C72637   8.402   3.030  10.215 -0.1610  0.9114  0.0219
  527MOL0     C72638   8.392   3.001  10.078 -0.8985 -0.3547 -0.6593
  527MOL0     N72639   8.516   2.626   9.487 -0.5673  1.0297 -0.1844
  527MOL0     N72640   8.622   2.573   9.546  0.9879  0.4109  0.7853
  527MOL0     C72641   9.752   2.218   9.622 -0.0892  0.0946 -0.0220
  527MOL0     C72642   9.882   2.215   9.572  0.6978  0.0212 -0.4629
  527MOL0     C72643  10.318   2.207   9.467  1.0417  0.0188 -0.0776
  527MOL0     C72644  10.354   2.132   9.356  0.1786  0.2990  0.3653
  527MOL0     C72645  10.481   2.087   9.341 -0.2627  0.3021  0.8919
  527MOL0     C72646  10.581   2.107   9.435 -0.3695 -0.2927  0.0006
  527MOL0     O72647  10.703   2.047   9.413  0.3434  0.0190  0.2539
  527MOL0     C72648  10.821   2.132   9.444  0.6420 -0.8130  0.2538
  527MOL0     C72649  10.929   2.099   9.346  1.1256  1.1906  0.2291
  527MOL0     C72650  10.892   2.156   9.215 -0.2518 -0.1354  0.7231
  527MOL0     C72651  10.990   2.137   9.100 -0.0808  0.0594 -0.3882
  527MOL0     C72652  11.123   2.202   9.115  0.8581  0.3203 -0.1020
  527MOL0     C72653  11.232   2.253   9.131 -0.0798 -0.7339  0.3278
  527MOL0     C72654  10.544   2.186   9.550  0.1449 -0.7040 -0.0636
  527MOL0     C72655  10.413   2.236   9.563 -0.0568  0.0443 -0.4257
  527MOL0     C72656  10.388   2.328   9.690  0.5636 -0.6909  0.6663
  527MOL0     H72657  10.050   2.119   9.847 -0.2849 -4.2828  0.1840
  527MOL0     H72658   9.833   2.098   9.934 -0.3793 -2.1666 -1.5144
  527MOL0     H72659   9.480   2.049   9.656 -1.2019  0.1521  0.0560
  527MOL0     H72660   9.485   2.226   9.669 -1.8291  1.8022  2.1497
  527MOL0     H72661   9.344   2.035   9.851 -1.8487  1.3635  0.8672
  527MOL0     H72662   9.343   2.206   9.879 -0.3082  0.9012 -0.2933
  527MOL0     H72663   9.250   2.238   9.634 -0.0585 -1.6064 -2.0985
  527MOL0     H72664   9.216   2.068   9.646  0.8909  2.2383 -3.9617
  527MOL0     H72665   9.088   2.112   9.849 -2.2685  0.7681 -0.2079
  527MOL0     H72666   9.149   2.268   9.857  1.6709 -0.4517  0.2033
  527MOL0     H72667   8.969   2.161   9.637  2.9119 -0.6031 -1.3986
  527MOL0     H72668   9.042   2.328   9.636 -0.9227  0.4131 -0.2421
  527MOL0     H72669   8.846   2.207   9.832 -1.9928  1.8138  0.2356
  527MOL0     H72670   8.913   2.370   9.847  2.4256 -1.8710  1.5625
  527MOL0     H72671   8.740   2.255   9.617  1.1208  1.7088 -2.8252
  527MOL0     H72672   8.835   2.397   9.612  1.6797 -0.7743  0.7809
  527MOL0     H72673   8.583   2.341   9.790 -1.5963  0.0750 -2.7694
  527MOL0     H72674   8.689   2.475   9.823  0.0743 -0.0463  0.1614
  527MOL0     H72675   8.383   2.423   9.705 -1.7608  3.9374  0.0534
  527MOL0     H72676   8.208   2.517   9.467 -0.9872 -0.9344  4.4496
  527MOL0     H72677   8.268   2.680   9.435  0.8793 -0.5643 -0.5387
  527MOL0     H72678   8.087   2.653   9.581 -0.1884  1.2507 -0.1911
  527MOL0     H72679   8.180   2.568   9.704 -2.0808  0.0052 -0.6201
  527MOL0     H72680   8.316   2.804   9.614 -0.0216 -3.1224 -1.0165
  527MOL0     H72681   8.162   2.845   9.697 -0.6287 -1.3776 -3.7767
  527MOL0     H72682   8.233   2.702   9.898  0.7666 -0.3081  0.5499
  527MOL0     H72683   8.386   2.675   9.839  4.2543  3.2285  0.1586
  527MOL0     H72684   8.292   2.673  10.112  2.0159  0.4752 -1.1875
  527MOL0     H72685   8.312   2.597  10.314 -2.2275  1.9743 -1.5183
  527MOL0     H72686   8.283   2.714  10.451 -0.4614  2.6450 -1.0667
  527MOL0     H72687   8.448   2.657  10.408 -0.1550  1.4408  1.7615
  527MOL0     H72688   8.792   3.122  10.520  2.6459  0.1605  2.0139
  527MOL0     H72689   8.872   3.214  10.732 -0.5059  0.4548 -0.6213
  527MOL0     H72690   8.887   3.395  10.874  1.0718  1.5954  1.1806
  527MOL0     H72691   8.820   3.431  11.043 -1.1211 -1.0049  1.0481
  527MOL0     H72692   8.944   3.169  10.978  2.2792  0.1621  1.0541
  527MOL0     H72693   9.033   3.306  11.049  0.7673 -0.8565 -1.5481
  527MOL0     H72694   8.781   3.205  11.182 -0.0073  2.0726 -0.4675
  527MOL0     H72695   8.910   3.311  11.250 -1.5165  0.3886  0.1741
  527MOL0     H72696   9.056   3.095  11.174  0.9543 -0.9305  2.2991
  527MOL0     H72697   8.906   3.008  11.190 -0.4862  0.8845 -2.3829
  527MOL0     H72698   9.055   3.149  11.407 -0.6028 -0.5070  0.5908
  527MOL0     H72699   8.894   3.093  11.429 -0.3439  2.2863 -1.7027
  527MOL0     H72700   9.142   2.914  11.330  1.7684 -1.8227  2.1466
  527MOL0     H72701   8.982   2.864  11.376  2.0509 -2.4189  3.9273
  527MOL0     H72702   9.012   2.921  11.591  0.2909  0.8520 -0.7591
  527MOL0     H72703   9.137   3.041  11.565  1.1434  0.3111 -0.7762
  527MOL0     H72704   9.300   2.864  11.479 -0.4205 -0.3024 -0.4483
  527MOL0     H72705   9.189   2.745  11.522  3.1677 -1.6056 -1.6335
  527MOL0     H72706   8.476   3.241  10.878 -1.2354  1.2377 -1.6681
  527MOL0     H72707   8.383   3.158  10.661 -0.7603 -0.2632  1.2899
  527MOL0     H72708   8.436   3.128  10.247 -0.0801  1.0857 -0.5826
  527MOL0     H72709   8.408   3.082  10.008  0.0905  0.3329  0.3113
  527MOL0     H72710   9.670   2.235   9.553  0.3002 -2.0451 -1.1142
  527MOL0     H72711   9.906   2.245   9.470 -0.0291 -0.9626 -0.9421
  527MOL0     H72712  10.283   2.112   9.277  2.1430  0.7519 -1.5931
  527MOL0     H72713  10.509   2.039   9.248  1.4367  2.8032  0.0069
  527MOL0     H72714  10.808   2.240   9.439 -0.8919 -0.9961 -0.2395
  527MOL0     H72715  10.855   2.106   9.545  0.1307  1.4855  1.0650
  527MOL0     H72716  10.942   1.991   9.347 -2.9426  0.3188 -4.1663
  527MOL0     H72717  11.017   2.145   9.393  0.7675  0.3511  1.7963
  527MOL0     H72718  10.793   2.130   9.174  0.5330 -1.3267 -0.4864
  527MOL0     H72719  10.887   2.265   9.230  2.1603  0.3875 -1.5562
  527MOL0     H72720  10.938   2.184   9.016 -1.3607 -0.0134  0.3425
  527MOL0     H72721  10.986   2.030   9.076 -1.6002 -0.6185  2.4248
  527MOL0     H72722  11.320   2.311   9.148 -2.5482  3.1614  1.1011
  527MOL0     H72723  10.627   2.197   9.619  0.1072 -1.9579  0.2127
  527MOL0     H72724  10.478   2.364   9.740 -1.3181  2.7630  1.9270
  527MOL0     H72725  10.339   2.422   9.662  3.5856  0.9941  0.6122
  527MOL0     H72726  10.333   2.282   9.773  1.6046 -0.4310  1.5175
  528MOL0     O72727   7.555   8.446   0.246  0.4829  0.5173  0.0198
  528MOL0     C72728   7.482   8.509   0.318 -0.7583 -0.6554 -0.0840
  528MOL0     O72729   7.478   8.646   0.332  0.0913  0.1639  0.5265
  528MOL0     C72730   7.538   8.721   0.239  0.6425 -0.6328 -0.1105
  528MOL0     C72731   7.666   8.704   0.182  0.0711  0.6181 -1.2748
  528MOL0     C72732   7.707   8.791   0.080 -0.1241  0.4247  0.5293
  528MOL0     C72733   7.639   8.903   0.050 -0.0002  0.1331  0.1918
  528MOL0     O72734   7.710   8.998  -0.027  0.0022  0.5385 -0.6685
  528MOL0     C72735   7.646   9.117  -0.070  0.3227 -0.0741  0.1627
  528MOL0     C72736   7.751   9.179  -0.171  0.0993 -0.5285  0.2821
  528MOL0     C72737   7.685   9.300  -0.240  0.7387  0.0529 -0.2905
  528MOL0     C72738   7.778   9.375  -0.321 -0.3084 -0.3010  1.0310
  528MOL0     C72739   7.787   9.325  -0.468  0.7501  0.6839 -0.3077
  528MOL0     C72740   7.893   9.413  -0.535  0.4289 -0.3447 -0.4072
  528MOL0     C72741   7.924   9.381  -0.686  0.4451 -0.7460 -0.2230
  528MOL0     C72742   7.808   9.431  -0.776 -0.9580  0.2659 -0.1871
  528MOL0     N72743   7.860   9.433  -0.911  0.1263 -0.1956  0.3643
  528MOL0     C72744   7.890   9.325  -0.987 -0.2754 -0.1383 -0.4615
  528MOL0     C72745   7.966   9.356  -1.099  0.1887 -0.3717 -0.3671
  528MOL0     C72746   8.024   9.265  -1.194  0.3142  0.5221  0.6171
  528MOL0     C72747   8.032   9.323  -1.342 -0.8891 -0.1759 -0.4373
  528MOL0     C72748   8.038   9.207  -1.436 -0.1757  0.2726  0.0475
  528MOL0     C72749   8.177   9.139  -1.427  0.5721  0.0357 -0.0603
  528MOL0     O72750   8.163   9.003  -1.487  0.3955 -1.0526  0.5150
  528MOL0     C72751   8.279   8.953  -1.546  0.9689 -0.1581 -0.8710
  528MOL0     C72752   8.358   9.016  -1.646  0.1266  0.7540 -0.3326
  528MOL0     C72753   8.468   8.952  -1.705 -0.1903  0.3160  0.0875
  528MOL0     C72754   8.548   9.026  -1.802 -0.2818 -0.4149  0.4409
  528MOL0     C72755   8.508   8.825  -1.672 -0.1793  0.1130  0.3600
  528MOL0     C72756   8.624   8.756  -1.722  0.7167 -0.0350  0.1001
  528MOL0     O72757   8.693   8.681  -1.631 -0.0112  0.1174 -0.2565
  528MOL0     C72758   8.788   8.593  -1.683 -0.3608 -0.3441 -0.8219
  528MOL0     C72759   8.778   8.527  -1.799  0.0206  0.3495  0.2958
  528MOL0     C72760   8.864   8.415  -1.828  0.3823  0.3657 -0.7541
  528MOL0     C72761   8.961   8.381  -1.735  0.0739  0.7706 -0.4422
  528MOL0     O72762   9.065   8.288  -1.750  0.0792  1.2254 -0.4515
  528MOL0     C72763   9.103   8.262  -1.883 -0.1645  0.4774  0.3280
  528MOL0     C72764   9.254   8.226  -1.874  0.6199 -0.0104 -0.2190
  528MOL0     C72765   9.270   8.102  -1.794 -0.2332 -0.0127  0.7295
  528MOL0     C72766   9.410   8.056  -1.765 -0.0786 -0.3717  0.1035
  528MOL0     C72767   9.516   8.062  -1.877  0.0211  0.6352 -0.1662
  528MOL0     C72768   9.653   8.016  -1.824 -0.8845  0.2015 -1.4232
  528MOL0     C72769   9.774   8.060  -1.909  0.5541 -0.1563  0.7382
  528MOL0     C72770   9.910   8.028  -1.845 -0.2506  0.5002 -0.3581
  528MOL0    Cl72771  10.019   8.164  -1.876 -0.3544  0.0668 -0.3184
  528MOL0     C72772   8.974   8.457  -1.620  0.2973  0.5923 -0.6920
  528MOL0     C72773   8.884   8.559  -1.592 -0.3605 -0.2026  0.4680
  528MOL0     O72774   8.661   8.778  -1.837  0.1176 -0.0725 -0.5251
  528MOL0     C72775   8.418   8.758  -1.586  0.3639 -0.1032  0.2465
  528MOL0     C72776   8.306   8.818  -1.530  0.3253 -0.0599 -0.5303
  528MOL0     N72777   7.975   9.494  -1.095 -0.1421 -0.4489 -0.0791
  528MOL0     N72778   7.923   9.534  -0.981 -0.4770  0.5628  0.1347
  528MOL0     C72779   7.521   8.927   0.119  0.5371 -0.5199  0.2682
  528MOL0     C72780   7.465   8.831   0.208 -0.5984  0.5602 -0.2327
  528MOL0     C72781   7.378   8.427   0.396 -0.3360 -0.1814 -0.2871
  528MOL0     C72782   7.284   8.498   0.474  0.4769 -0.7646  0.3620
  528MOL0     C72783   7.188   8.429   0.548  0.7432 -0.6261 -0.4724
  528MOL0     C72784   7.176   8.284   0.536 -0.6862 -0.0917  0.3663
  528MOL0     O72785   7.077   8.222   0.603  0.0501  0.1055 -0.2037
  528MOL0     C72786   6.949   8.225   0.535  0.9550  0.0082 -0.3870
  528MOL0     C72787   6.880   8.087   0.553 -0.2549  0.6098  0.0086
  528MOL0     C72788   6.958   7.977   0.468 -0.1090 -0.5053  0.4460
  528MOL0     C72789   6.881   7.845   0.459 -0.2344  0.2893 -0.3583
  528MOL0     C72790   6.740   7.856   0.424 -0.0642  0.2426 -0.2832
  528MOL0     C72791   6.620   7.857   0.404  0.6241 -0.3409 -0.0890
  528MOL0     C72792   7.274   8.214   0.466  0.5771  0.2309  0.1341
  528MOL0     C72793   7.369   8.282   0.393 -0.0835  0.6498 -0.0807
  528MOL0     C72794   7.472   8.178   0.330  0.0225  0.4489  0.0940
  528MOL0     H72795   7.716   8.611   0.206 -0.0141  1.0810  0.9063
  528MOL0     H72796   7.804   8.780   0.031  0.3324  0.8109  1.3215
  528MOL0     H72797   7.623   9.184   0.013  0.0693 -1.9156  1.6438
  528MOL0     H72798   7.549   9.097  -0.115 -0.4987  3.8498 -0.1684
  528MOL0     H72799   7.846   9.201  -0.121  0.4640  0.9751 -1.0037
  528MOL0     H72800   7.784   9.103  -0.242  2.1036 -0.8392  1.4671
  528MOL0     H72801   7.594   9.279  -0.298  1.5857 -1.2792 -1.1885
  528MOL0     H72802   7.643   9.368  -0.165  1.0177  0.6755 -0.6920
  528MOL0     H72803   7.740   9.477  -0.326 -2.5546 -1.0298  2.0641
  528MOL0     H72804   7.882   9.379  -0.286  0.0468  0.8615 -0.1010
  528MOL0     H72805   7.692   9.318  -0.522  0.2612  1.1084  0.4815
  528MOL0     H72806   7.824   9.222  -0.473 -0.0256  0.2650  1.5424
  528MOL0     H72807   7.867   9.519  -0.527  0.6976 -0.4246  2.6849
  528MOL0     H72808   7.990   9.404  -0.485  0.0110  3.0045  1.2159
  528MOL0     H72809   7.945   9.274  -0.688 -0.2444 -0.8899 -1.8911
  528MOL0     H72810   8.017   9.429  -0.716  2.2074 -2.5102  2.1048
  528MOL0     H72811   7.733   9.353  -0.766  0.8815 -1.3159  2.8174
  528MOL0     H72812   7.770   9.530  -0.750 -2.4149 -0.5008  0.6775
  528MOL0     H72813   7.860   9.225  -0.957 -0.5496  0.0529 -0.0960
  528MOL0     H72814   7.961   9.176  -1.196  0.2068  0.5830  1.1923
  528MOL0     H72815   8.120   9.220  -1.164  0.1659  1.1670  2.1382
  528MOL0     H72816   7.947   9.391  -1.361 -2.1837 -2.4432 -3.7093
  528MOL0     H72817   8.128   9.375  -1.351  1.2608 -2.9433  3.6483
  528MOL0     H72818   7.972   9.122  -1.417 -0.6949  0.0260 -2.5253
  528MOL0     H72819   8.020   9.240  -1.539  1.4756  2.4181  0.3754
  528MOL0     H72820   8.258   9.194  -1.476 -0.5833  2.2072  0.3180
  528MOL0     H72821   8.203   9.125  -1.322  0.0307  0.7777  0.1839
  528MOL0     H72822   8.320   9.113  -1.677 -1.1323  0.6781  0.8798
  528MOL0     H72823   8.534   8.976  -1.899 -2.3054  2.5134 -0.9171
  528MOL0     H72824   8.656   9.019  -1.785 -0.4492 -0.7271  1.4415
  528MOL0     H72825   8.519   9.130  -1.815  0.6495  0.2292  3.0272
  528MOL0     H72826   8.719   8.564  -1.883  0.5117  1.4525  0.4243
  528MOL0     H72827   8.859   8.358  -1.920  4.1684 -0.1555 -0.8210
  528MOL0     H72828   9.037   8.185  -1.923  0.1336 -0.4387  1.5477
  528MOL0     H72829   9.098   8.344  -1.955  2.6568  0.1275 -0.3825
  528MOL0     H72830   9.292   8.225  -1.976 -2.0051 -1.1016 -1.2855
  528MOL0     H72831   9.303   8.312  -1.828 -0.0657  0.3122 -0.0838
  528MOL0     H72832   9.227   8.027  -1.861 -2.6537  3.8530 -2.4385
  528MOL0     H72833   9.209   8.116  -1.704 -1.8638  2.6093 -0.6621
  528MOL0     H72834   9.406   7.954  -1.727  3.1143 -0.2545  1.0519
  528MOL0     H72835   9.458   8.108  -1.682  3.0852 -0.2328 -1.6510
  528MOL0     H72836   9.481   7.995  -1.955 -1.1543 -1.3048  1.9208
  528MOL0     H72837   9.518   8.167  -1.910 -1.1073 -0.3812 -3.8448
  528MOL0     H72838   9.656   7.907  -1.811  2.4381  0.2665 -0.6493
  528MOL0     H72839   9.669   8.070  -1.731  2.5750  0.5411 -2.0854
  528MOL0     H72840   9.758   8.167  -1.922  1.7962 -0.0536 -0.1355
  528MOL0     H72841   9.778   8.018  -2.009 -0.2180 -1.2973  1.1722
  528MOL0     H72842   9.941   7.927  -1.871  0.5662  0.8983 -0.9942
  528MOL0     H72843   9.901   8.037  -1.736  0.4481  2.3508 -0.4272
  528MOL0     H72844   9.040   8.417  -1.544 -1.2509  3.6514  2.5703
  528MOL0     H72845   8.898   8.605  -1.494 -1.2135 -0.6210  0.7940
  528MOL0     H72846   8.426   8.657  -1.548  0.0389 -0.0498  0.4667
  528MOL0     H72847   8.248   8.755  -1.463 -0.0174 -0.5816 -1.2973
  528MOL0     H72848   7.472   9.024   0.107  1.6400  0.1465  0.9551
  528MOL0     H72849   7.372   8.857   0.258  0.4950  0.5039  1.8994
  528MOL0     H72850   7.308   8.604   0.485 -1.3391 -0.3066  0.2447
  528MOL0     H72851   7.128   8.482   0.621  1.9566  1.8176 -1.1469
  528MOL0     H72852   6.885   8.305   0.576  2.0316 -0.2706  2.0041
  528MOL0     H72853   6.969   8.244   0.429 -1.8221 -0.6512 -1.1233
  528MOL0     H72854   6.776   8.099   0.519 -0.6574  1.7998  1.5753
  528MOL0     H72855   6.882   8.064   0.659  0.3685 -2.5523 -0.5983
  528MOL0     H72856   6.967   8.013   0.365 -1.7684 -0.4595  0.2984
  528MOL0     H72857   7.059   7.950   0.502  1.4525 -0.6554 -3.6710
  528MOL0     H72858   6.876   7.803   0.560  2.3516 -1.3477 -0.8014
  528MOL0     H72859   6.932   7.769   0.399  0.0313  1.1061 -1.1900
  528MOL0     H72860   6.515   7.875   0.393  0.9367  0.7471 -1.7794
  528MOL0     H72861   7.266   8.106   0.471 -0.3650  0.3522  2.0776
  528MOL0     H72862   7.471   8.076   0.369 -1.0092  1.0436  1.7588
  528MOL0     H72863   7.454   8.173   0.222 -0.2541  0.1104  0.1530
  528MOL0     H72864   7.571   8.217   0.354 -0.8305  1.8991  1.4435
  529MOL0     O72865   4.923   2.121   9.907  0.1370 -0.1459  0.1113
  529MOL0     C72866   4.847   2.169   9.991 -0.3024  0.0184 -0.3087
  529MOL0     O72867   4.884   2.264  10.073 -0.3368  0.0743 -0.8770
  529MOL0     C72868   5.018   2.305  10.086 -0.7318  0.0477  0.9372
  529MOL0     C72869   5.129   2.218  10.096 -0.5034 -0.9374  0.2863
  529MOL0     C72870   5.258   2.271  10.117  0.3634 -0.3412 -0.5960
  529MOL0     C72871   5.282   2.407  10.143  0.2099 -0.6739  0.9891
  529MOL0     O72872   5.398   2.468  10.146 -0.4490  0.1221  0.1910
  529MOL0     C72873   5.496   2.396  10.224  0.0097  0.3407  0.1320
  529MOL0     C72874   5.625   2.487  10.217 -0.3316  0.4095 -0.4155
  529MOL0     C72875   5.746   2.413  10.278 -0.2231 -0.9427 -0.6928
  529MOL0     C72876   5.875   2.478  10.230 -0.3374  0.1887  0.0724
  529MOL0     C72877   5.996   2.432  10.313 -0.0857  0.4397  0.1218
  529MOL0     C72878   5.989   2.495  10.446  0.3306  0.0576 -0.0989
  529MOL0     C72879   6.130   2.493  10.501  0.0918 -0.0665 -0.0574
  529MOL0     C72880   6.148   2.527  10.647 -0.2017  0.0845  0.7992
  529MOL0     N72881   6.285   2.529  10.691 -1.1128 -0.2927  0.3526
  529MOL0     C72882   6.325   2.553  10.820  0.0501  0.2109  0.1145
  529MOL0     C72883   6.461   2.548  10.814 -0.2846 -0.2882 -0.2946
  529MOL0     C72884   6.540   2.573  10.936  0.4865  0.5689 -0.6164
  529MOL0     C72885   6.696   2.547  10.928 -0.3604 -0.1400 -0.8453
  529MOL0     C72886   6.771   2.663  10.844  0.2014 -0.4300  0.4190
  529MOL0     C72887   6.922   2.651  10.860  0.2501 -0.0449 -0.2858
  529MOL0     O72888   6.964   2.542  10.773  0.1979 -0.2657 -0.3437
  529MOL0     C72889   7.095   2.514  10.767 -0.1483 -0.3109 -0.3419
  529MOL0     C72890   7.197   2.562  10.852  0.1799 -0.1518 -0.3644
  529MOL0     C72891   7.335   2.529  10.843 -0.0847 -0.0380 -0.1371
  529MOL0     C72892   7.429   2.601  10.935 -0.2922  0.3762  0.2604
  529MOL0     C72893   7.371   2.431  10.745  0.5520  0.8138 -0.1778
  529MOL0     C72894   7.512   2.380  10.730 -0.7649  0.6904  0.2715
  529MOL0     O72895   7.537   2.293  10.632 -0.4732  0.2781 -0.6146
  529MOL0     C72896   7.659   2.236  10.615  0.3739  0.4118  0.5445
  529MOL0     C72897   7.746   2.194  10.717  0.1378 -0.0875 -0.4213
  529MOL0     C72898   7.865   2.128  10.684 -0.0111  0.4729 -0.3402
  529MOL0     C72899   7.897   2.086  10.555  0.4008  0.0849 -0.1834
  529MOL0     O72900   8.019   2.023  10.523  0.3222  0.0037 -0.2614
  529MOL0     C72901   8.099   1.978  10.636 -0.1645 -0.2523  0.2414
  529MOL0     C72902   8.211   1.882  10.588  0.3469  0.0044 -0.6159
  529MOL0     C72903   8.314   1.856  10.691  0.0957  0.5231  0.2845
  529MOL0     C72904   8.386   1.720  10.655  0.2119 -0.0271 -0.4053
  529MOL0     C72905   8.445   1.669  10.785  0.0658  0.3291  0.0582
  529MOL0     C72906   8.576   1.741  10.825 -0.6919 -0.8893 -0.1747
  529MOL0     C72907   8.667   1.645  10.912  0.0821 -0.5714 -0.1505
  529MOL0     C72908   8.602   1.629  11.044  0.1026 -0.1224 -0.2192
  529MOL0    Cl72909   8.701   1.542  11.157  0.2820 -0.2474 -0.0610
  529MOL0     C72910   7.809   2.128  10.452  0.3289  0.1138  0.0032
  529MOL0     C72911   7.690   2.201  10.479  0.9652  0.5167  0.4176
  529MOL0     O72912   7.597   2.428  10.803  0.0275  0.5956 -0.7007
  529MOL0     C72913   7.273   2.367  10.669 -0.0614 -0.0305 -0.2576
  529MOL0     C72914   7.138   2.411  10.681 -0.0620  0.1431 -0.1987
  529MOL0     N72915   6.500   2.522  10.687  0.3033  0.2588  0.0016
  529MOL0     N72916   6.394   2.496  10.617  0.9572 -0.0143  0.1321
  529MOL0     C72917   5.167   2.489  10.148 -1.4505  0.2958 -0.0848
  529MOL0     C72918   5.039   2.436  10.115  0.0121 -0.6098 -0.4969
  529MOL0     C72919   4.709   2.123  10.005  0.0028 -0.2829  0.4577
  529MOL0     C72920   4.610   2.203  10.070  0.0933 -0.0635  0.3573
  529MOL0     C72921   4.483   2.166  10.059  0.5206  0.6990 -0.1120
  529MOL0     C72922   4.443   2.051   9.998 -0.4734  0.2475  0.9917
  529MOL0     O72923   4.310   2.047   9.974  0.6159  1.0006  0.8429
  529MOL0     C72924   4.259   1.918   9.940  0.5105  0.0401  0.4982
  529MOL0     C72925   4.115   1.934   9.874  0.6843  0.1115 -0.0551
  529MOL0     C72926   4.071   1.802   9.820 -0.1747  0.6218  0.3146
  529MOL0     C72927   3.941   1.816   9.745 -0.3833 -0.5455  0.3180
  529MOL0     C72928   3.914   1.678   9.690 -0.4715 -0.5424 -0.3178
  529MOL0     C72929   3.905   1.580   9.624  0.3035  0.3926  0.3399
  529MOL0     C72930   4.541   1.963   9.947 -0.5851 -0.5897 -0.7414
  529MOL0     C72931   4.675   2.003   9.944  0.0812 -0.4274  0.8409
  529MOL0     C72932   4.772   1.904   9.873 -0.1563 -0.2422  0.9825
  529MOL0     H72933   5.118   2.111  10.078  2.0598 -0.9346 -1.8471
  529MOL0     H72934   5.341   2.201  10.124  1.4988  1.1403  1.7763
  529MOL0     H72935   5.518   2.294  10.190 -0.7557  1.2086 -3.3526
  529MOL0     H72936   5.478   2.381  10.330 -0.2017  0.1838  0.0746
  529MOL0     H72937   5.644   2.500  10.109  0.4954 -0.7433 -0.4216
  529MOL0     H72938   5.609   2.583  10.266 -2.5943 -1.0901  2.0393
  529MOL0     H72939   5.726   2.414  10.385 -0.2018 -2.0263 -0.6715
  529MOL0     H72940   5.745   2.306  10.256  0.7966 -1.2004  0.4705
  529MOL0     H72941   5.892   2.440  10.129 -1.2360  0.8436 -0.3399
  529MOL0     H72942   5.870   2.587  10.244  1.5646  0.0766  2.3523
  529MOL0     H72943   6.088   2.462  10.262  1.5564  0.3274  2.8656
  529MOL0     H72944   6.002   2.324  10.323 -0.2416  0.5423  1.5167
  529MOL0     H72945   5.950   2.597  10.443 -0.1830 -0.1362 -0.0685
  529MOL0     H72946   5.929   2.433  10.514  2.1707 -0.8786  0.7642
  529MOL0     H72947   6.198   2.559  10.447  1.9273 -1.3385  0.5738
  529MOL0     H72948   6.164   2.389  10.492  0.5974 -0.0611  1.5139
  529MOL0     H72949   6.116   2.630  10.661  0.4986  0.3726  0.3188
  529MOL0     H72950   6.086   2.458  10.706  0.6915 -0.9262  0.5962
  529MOL0     H72951   6.265   2.547  10.910 -1.0986  2.0384 -0.4743
  529MOL0     H72952   6.497   2.508  11.012  3.3278 -0.5394  0.1802
  529MOL0     H72953   6.516   2.675  10.966  0.0045  1.2134 -2.9741
  529MOL0     H72954   6.726   2.561  11.032 -0.1829 -1.5570 -0.6957
  529MOL0     H72955   6.704   2.443  10.895 -3.3840 -1.6691  2.5241
  529MOL0     H72956   6.751   2.676  10.737  0.5210  1.9973  0.6108
  529MOL0     H72957   6.749   2.755  10.898  0.4168 -0.4891  0.6086
  529MOL0     H72958   6.958   2.753  10.843 -1.6661  1.1073  2.0332
  529MOL0     H72959   6.944   2.628  10.964 -0.9240  1.2513  0.2739
  529MOL0     H72960   7.180   2.646  10.918  0.0331 -0.7758  0.4106
  529MOL0     H72961   7.479   2.532  11.005  0.5275 -0.7207 -1.3490
  529MOL0     H72962   7.369   2.667  10.999 -1.0887 -1.1128  1.1237
  529MOL0     H72963   7.503   2.658  10.878 -0.8545  1.6759  0.8130
  529MOL0     H72964   7.716   2.213  10.819  3.3562 -0.9378  0.8012
  529MOL0     H72965   7.932   2.109  10.767 -0.8588  2.3209  0.8471
  529MOL0     H72966   8.129   2.064  10.697 -2.7421  0.8628  0.0621
  529MOL0     H72967   8.035   1.917  10.701 -2.5640  1.1220 -0.6786
  529MOL0     H72968   8.151   1.791  10.580  0.1013  0.2180 -1.3042
  529MOL0     H72969   8.270   1.910  10.500  1.7556  1.7029  0.7906
  529MOL0     H72970   8.275   1.854  10.793  0.2834 -4.4122  0.4994
  529MOL0     H72971   8.398   1.926  10.689  1.5283 -1.1131 -1.9896
  529MOL0     H72972   8.453   1.750  10.574 -0.0581  0.7058 -0.3695
  529MOL0     H72973   8.309   1.652  10.619 -0.0790 -0.8463  1.6410
  529MOL0     H72974   8.370   1.660  10.865  0.3912 -0.5387  0.2832
  529MOL0     H72975   8.471   1.564  10.769  0.7954  0.4873  0.1726
  529MOL0     H72976   8.547   1.827  10.886 -0.2866 -1.8127  1.3641
  529MOL0     H72977   8.630   1.782  10.740 -2.2236 -0.6408 -1.0655
  529MOL0     H72978   8.770   1.679  10.927  1.5980 -3.9506 -1.6288
  529MOL0     H72979   8.667   1.547  10.863  0.1786 -1.1574  1.0012
  529MOL0     H72980   8.512   1.568  11.035 -0.6187  0.5817  1.6422
  529MOL0     H72981   8.572   1.730  11.074  1.6420  0.7603 -1.4264
  529MOL0     H72982   7.836   2.087  10.355  2.6238 -1.1835  1.1191
  529MOL0     H72983   7.619   2.236  10.405 -1.0056  0.6571  2.2530
  529MOL0     H72984   7.294   2.293  10.593 -1.3410 -0.3022 -0.3741
  529MOL0     H72985   7.051   2.386  10.621  0.2646 -0.5452 -0.4050
  529MOL0     H72986   5.187   2.594  10.169  1.7052 -0.3527  0.7286
  529MOL0     H72987   4.938   2.476  10.113  1.0003  2.1153 -1.1669
  529MOL0     H72988   4.640   2.300  10.108  1.9756 -0.5697  0.2633
  529MOL0     H72989   4.412   2.234  10.106 -0.2069 -0.7292  0.9128
  529MOL0     H72990   4.315   1.871   9.858  0.3864  0.3441  0.2357
  529MOL0     H72991   4.252   1.849  10.024 -0.8775 -2.2716 -1.3858
  529MOL0     H72992   4.119   2.015   9.801 -1.6704  0.0789 -0.2874
  529MOL0     H72993   4.036   1.968   9.942  0.2385 -1.7807  0.4316
  529MOL0     H72994   4.145   1.756   9.754 -0.1452 -0.5200  1.1229
  529MOL0     H72995   4.053   1.738   9.906 -0.2889  0.7955  0.4200
  529MOL0     H72996   3.946   1.898   9.672 -0.6257 -1.8975 -1.2778
  529MOL0     H72997   3.866   1.845   9.820 -2.0459 -0.9623 -1.1181
  529MOL0     H72998   3.879   1.498   9.559 -1.1598  2.8527 -2.4186
  529MOL0     H72999   4.524   1.866   9.903 -0.9567 -0.4453 -0.9128
  529MOL0     H73000   4.716   1.817   9.836 -1.5666  1.2971 -0.7081
  529MOL0     H73001   4.799   1.954   9.780 -0.6795 -1.2815  0.2439
  529MOL0     H73002   4.863   1.875   9.926  2.6143  0.9982 -2.6508
  530MOL0     O73003   4.796   8.895   3.378  1.1273  0.1501  0.1937
  530MOL0     C73004   4.815   8.792   3.311 -0.2560  0.4154  0.4048
  530MOL0     O73005   4.947   8.745   3.282 -0.0387 -0.7150 -0.1546
  530MOL0     C73006   5.062   8.818   3.309 -0.4704 -0.1165 -0.3241
  530MOL0     C73007   5.073   8.961   3.299 -0.7468  0.3626 -0.5599
  530MOL0     C73008   5.193   9.022   3.316 -0.2206 -0.2914 -0.3243
  530MOL0     C73009   5.311   8.956   3.349  0.0906 -0.2629  0.3301
  530MOL0     O73010   5.423   9.034   3.373 -0.2973  1.0326 -0.2393
  530MOL0     C73011   5.554   8.967   3.363 -0.3239 -0.3534 -0.1987
  530MOL0     C73012   5.651   9.085   3.361  0.0341  0.0111  0.6700
  530MOL0     C73013   5.731   9.105   3.240 -0.9671 -0.2372 -0.1469
  530MOL0     C73014   5.825   9.227   3.249 -0.2173 -0.2174 -0.1769
  530MOL0     C73015   5.903   9.261   3.120  0.0564 -0.0303 -0.0725
  530MOL0     C73016   5.999   9.379   3.127  0.7009  0.5969  0.8250
  530MOL0     C73017   6.082   9.421   3.003  0.5484  0.6665  0.0473
  530MOL0     C73018   6.168   9.308   2.949  0.2739 -0.7383  0.0493
  530MOL0     N73019   6.227   9.357   2.823  0.9048 -0.2883 -0.0713
  530MOL0     C73020   6.220   9.307   2.695  0.2455 -0.4459  0.2979
  530MOL0     C73021   6.270   9.406   2.623 -0.2654  0.0110  0.4965
  530MOL0     C73022   6.285   9.402   2.469 -0.0713  0.0992 -0.7828
  530MOL0     C73023   6.437   9.344   2.459  0.4394 -0.0149 -0.0005
  530MOL0     C73024   6.484   9.314   2.317  0.5572 -0.0313  0.7386
  530MOL0     C73025   6.637   9.333   2.299 -0.1441  0.1015 -0.6775
  530MOL0     O73026   6.692   9.261   2.406  0.3613 -0.4325 -0.6444
  530MOL0     C73027   6.825   9.266   2.428  0.3242 -0.0637 -0.7211
  530MOL0     C73028   6.884   9.199   2.533 -0.4386  0.1325 -0.7380
  530MOL0     C73029   7.018   9.216   2.565  0.2468 -0.2711  0.1465
  530MOL0     C73030   7.068   9.147   2.696  0.2625  0.2307  0.3404
  530MOL0     C73031   7.107   9.286   2.477  0.9648  0.1814  0.4210
  530MOL0     C73032   7.245   9.308   2.497 -0.8896  0.0769  0.1236
  530MOL0     O73033   7.317   9.364   2.397 -0.1434  0.4750  0.1641
  530MOL0     C73034   7.448   9.366   2.396 -0.6381  1.6384  0.0936
  530MOL0     C73035   7.523   9.447   2.469 -0.3364 -0.6581 -0.7320
  530MOL0     C73036   7.663   9.460   2.456  0.0088 -0.6571  0.4356
  530MOL0     C73037   7.731   9.359   2.376 -0.9959  0.8043  0.1711
  530MOL0     O73038   7.866   9.344   2.359 -0.2823 -0.0848 -0.0118
  530MOL0     C73039   7.937   9.328   2.482 -0.1871  0.3701 -0.3981
  530MOL0     C73040   8.089   9.348   2.489 -0.0078 -0.2343 -0.4710
  530MOL0     C73041   8.168   9.218   2.464  0.4898  0.2139 -0.2646
  530MOL0     C73042   8.314   9.230   2.466  0.3485  0.2642 -0.1062
  530MOL0     C73043   8.380   9.099   2.506 -0.6508  0.9270 -0.2938
  530MOL0     C73044   8.533   9.120   2.516  0.8380 -0.3129 -0.6599
  530MOL0     C73045   8.603   8.990   2.549  0.9528 -0.3173 -0.1219
  530MOL0     C73046   8.753   9.004   2.535  0.0178 -0.8898  0.4919
  530MOL0    Cl73047   8.837   8.848   2.581  0.1631  0.6054  0.4091
  530MOL0     C73048   7.653   9.268   2.300 -0.5399 -0.6592 -0.4042
  530MOL0     C73049   7.513   9.270   2.308 -0.5453 -0.1406 -1.2169
  530MOL0     O73050   7.295   9.271   2.601 -0.1961  0.1474  0.0794
  530MOL0     C73051   7.044   9.333   2.358  0.0227 -0.2015  0.3815
  530MOL0     C73052   6.905   9.330   2.336  0.7333  0.2386 -0.2716
  530MOL0     N73053   6.316   9.508   2.702 -0.6863  0.3123 -1.0272
  530MOL0     N73054   6.290   9.478   2.821  0.6831 -0.5603  0.1550
  530MOL0     C73055   5.306   8.816   3.349  0.4154  0.2230  0.3793
  530MOL0     C73056   5.184   8.748   3.319 -0.0041 -0.2023  0.0578
  530MOL0     C73057   4.695   8.715   3.264  1.5184 -0.1216 -0.4214
  530MOL0     C73058   4.568   8.750   3.329 -0.0791 -0.3228  0.2241
  530MOL0     C73059   4.454   8.687   3.298 -0.3585  0.3094 -0.8187
  530MOL0     C73060   4.457   8.591   3.194  0.2941  0.1002 -0.7488
  530MOL0     O73061   4.341   8.544   3.133  0.3449 -0.9407 -0.5480
  530MOL0     C73062   4.207   8.603   3.150 -0.1458 -0.1981 -0.2696
  530MOL0     C73063   4.099   8.545   3.051 -0.4398 -0.0322  0.2841
  530MOL0     C73064   3.975   8.639   3.041  0.2350 -0.2191 -0.6213
  530MOL0     C73065   3.861   8.590   2.946  0.1541  0.7470 -0.8466
  530MOL0     C73066   3.789   8.467   2.998  0.1318 -0.0502  0.4365
  530MOL0     C73067   3.722   8.366   3.027  1.3755 -0.4637 -0.1738
  530MOL0     C73068   4.572   8.552   3.129 -0.4923 -0.9976 -0.1771
  530MOL0     C73069   4.702   8.614   3.164  1.1995 -0.4850  0.2096
  530MOL0     C73070   4.818   8.559   3.088  0.2980  0.4468 -0.2006
  530MOL0     H73071   4.979   9.013   3.286 -2.3702 -2.0124  0.8244
  530MOL0     H73072   5.194   9.130   3.317 -3.1213 -0.1409 -1.9420
  530MOL0     H73073   5.567   8.911   3.270  0.8731  2.1208 -1.6298
  530MOL0     H73074   5.572   8.901   3.449  3.4385 -0.8585 -1.1890
  530MOL0     H73075   5.591   9.177   3.362 -0.6153 -0.3870 -0.3235
  530MOL0     H73076   5.709   9.087   3.454  0.6847  1.7523  0.2643
  530MOL0     H73077   5.785   9.011   3.228 -0.0875  0.2656 -0.2158
  530MOL0     H73078   5.677   9.118   3.146  0.7818  0.1309 -1.1232
  530MOL0     H73079   5.765   9.307   3.294  1.1852 -0.3692  2.1532
  530MOL0     H73080   5.900   9.206   3.327 -1.5518  0.0804  1.2369
  530MOL0     H73081   5.822   9.273   3.047 -1.1047  1.9010  1.4248
  530MOL0     H73082   5.965   9.175   3.094 -1.0969  0.1478 -4.1654
  530MOL0     H73083   5.938   9.464   3.159  0.1206  0.3590  0.3832
  530MOL0     H73084   6.070   9.357   3.207  2.4461 -0.1405 -0.8473
  530MOL0     H73085   6.140   9.505   3.041  1.2175  0.2972 -0.1460
  530MOL0     H73086   6.019   9.454   2.920  1.8425  3.1180 -0.0498
  530MOL0     H73087   6.240   9.289   3.029 -0.7069 -0.0082  1.1443
  530MOL0     H73088   6.117   9.213   2.929  2.0489 -1.5709 -0.7616
  530MOL0     H73089   6.188   9.209   2.662  1.2039 -0.0514 -2.0233
  530MOL0     H73090   6.284   9.509   2.450  0.8232  0.1807 -0.4284
  530MOL0     H73091   6.205   9.346   2.421 -0.7687 -1.2896  1.8089
  530MOL0     H73092   6.503   9.425   2.491  1.0771 -0.6512  0.3131
  530MOL0     H73093   6.432   9.251   2.516 -1.0672 -1.0970 -1.7694
  530MOL0     H73094   6.459   9.215   2.278  1.0351  0.6807 -1.5336
  530MOL0     H73095   6.443   9.393   2.253  1.0720  1.2154  1.9156
  530MOL0     H73096   6.661   9.305   2.196 -1.0588  1.5617 -1.3215
  530MOL0     H73097   6.665   9.439   2.304  1.6607 -0.3056 -1.2632
  530MOL0     H73098   6.823   9.137   2.598  0.1632  1.8436  1.5748
  530MOL0     H73099   7.157   9.084   2.684 -0.9701 -1.8459  1.3963
  530MOL0     H73100   6.986   9.088   2.738 -0.6869  1.4647  0.2674
  530MOL0     H73101   7.082   9.228   2.768 -1.7724 -0.2349  1.3391
  530MOL0     H73102   7.469   9.505   2.543 -0.4896 -3.6928  1.7676
  530MOL0     H73103   7.717   9.535   2.513 -0.4853 -0.9564  1.3227
  530MOL0     H73104   7.898   9.404   2.551 -1.9625 -0.2507 -0.6633
  530MOL0     H73105   7.906   9.231   2.522 -1.7428 -0.1526 -2.6745
  530MOL0     H73106   8.119   9.430   2.423 -1.1500 -1.1099 -2.1576
  530MOL0     H73107   8.104   9.387   2.590  1.1739  0.2741 -0.8303
  530MOL0     H73108   8.125   9.156   2.385 -0.4294  0.8126 -0.2468
  530MOL0     H73109   8.143   9.157   2.552  0.3698  1.6576  0.7423
  530MOL0     H73110   8.357   9.315   2.519 -0.7040  0.0594  1.1175
  530MOL0     H73111   8.344   9.250   2.362  1.4300  0.5443  0.2443
  530MOL0     H73112   8.336   9.080   2.604  0.0095  2.1816  0.2654
  530MOL0     H73113   8.355   9.016   2.440 -1.6420  0.6330  0.4203
  530MOL0     H73114   8.557   9.189   2.598  2.4430 -0.6492 -0.8140
  530MOL0     H73115   8.566   9.162   2.421  2.3852 -0.0402 -0.0275
  530MOL0     H73116   8.561   8.905   2.493  0.4735 -0.5621  0.6015
  530MOL0     H73117   8.588   8.960   2.653 -2.3663 -0.5040 -0.5207
  530MOL0     H73118   8.782   9.083   2.605 -0.1311  0.3299 -0.7769
  530MOL0     H73119   8.775   9.038   2.433 -0.2763 -4.3035 -0.8359
  530MOL0     H73120   7.706   9.195   2.239  4.0758  1.2488  0.9084
  530MOL0     H73121   7.454   9.210   2.240  1.6733 -2.4642 -1.2543
  530MOL0     H73122   7.103   9.382   2.282 -0.9059 -0.1937 -0.3457
  530MOL0     H73123   6.867   9.389   2.252  0.0397 -0.3029 -0.3479
  530MOL0     H73124   5.394   8.754   3.358  0.7069  0.2549 -1.7043
  530MOL0     H73125   5.183   8.639   3.311  0.8569 -0.2646  0.7271
  530MOL0     H73126   4.573   8.832   3.399  1.7042 -0.1374 -0.0706
  530MOL0     H73127   4.360   8.715   3.344  0.0481  0.4623 -0.0654
  530MOL0     H73128   4.167   8.596   3.251 -0.7826 -0.4968 -0.5346
  530MOL0     H73129   4.206   8.709   3.123 -2.2489 -0.9024 -3.6088
  530MOL0     H73130   4.073   8.443   3.080 -0.7847  0.6835  2.7340
  530MOL0     H73131   4.146   8.552   2.953  1.0323 -0.4331  0.9188
  530MOL0     H73132   3.941   8.661   3.142  1.0131 -1.3117 -0.1046
  530MOL0     H73133   3.997   8.739   3.004 -1.7745  2.4454  4.4681
  530MOL0     H73134   3.920   8.578   2.855  1.8687  2.2466 -0.0123
  530MOL0     H73135   3.785   8.668   2.938 -2.6625 -1.7103  0.3284
  530MOL0     H73136   3.664   8.287   3.071 -2.2067  0.7477 -2.2672
  530MOL0     H73137   4.585   8.479   3.049  0.3486 -1.4112  0.3263
  530MOL0     H73138   4.783   8.492   3.010 -1.2107  0.8958  0.0612
  530MOL0     H73139   4.869   8.645   3.044 -0.9944  0.9464 -0.7488
  530MOL0     H73140   4.878   8.491   3.150 -1.5629 -2.0841 -0.9929
  531MOL0     O73141   5.445   0.541   8.256  0.9151  0.7524 -0.5429
  531MOL0     C73142   5.352   0.508   8.336  0.7971  0.5809  0.4862
  531MOL0     O73143   5.369   0.423   8.441  0.2656  0.0715  0.2043
  531MOL0     C73144   5.502   0.390   8.473 -0.1775  0.3235 -0.8255
  531MOL0     C73145   5.569   0.447   8.582  0.1440 -0.7283  0.0789
  531MOL0     C73146   5.707   0.416   8.594  0.0962 -0.8212 -0.5284
  531MOL0     C73147   5.770   0.319   8.517 -0.3482  0.0848 -1.0279
  531MOL0     O73148   5.907   0.301   8.546  0.3684 -0.2406 -0.8870
  531MOL0     C73149   5.980   0.223   8.454  0.0432 -0.3073 -0.1736
  531MOL0     C73150   6.121   0.195   8.488 -0.5979  0.7000 -0.1442
  531MOL0     C73151   6.208   0.323   8.486 -0.4123  0.6727 -0.0959
  531MOL0     C73152   6.347   0.297   8.552 -0.1890 -0.6037  1.1157
  531MOL0     C73153   6.432   0.195   8.472 -0.3434  0.3065 -0.1134
  531MOL0     C73154   6.576   0.205   8.506 -0.2505 -0.0095  0.0681
  531MOL0     C73155   6.607   0.178   8.651  0.0917  0.7862 -0.6643
  531MOL0     C73156   6.688   0.297   8.721 -0.5163 -0.5355 -0.0460
  531MOL0     N73157   6.760   0.257   8.847 -0.2695 -0.0087 -0.1725
  531MOL0     C73158   6.898   0.238   8.858 -0.1157  0.0112 -0.3127
  531MOL0     C73159   6.923   0.215   8.988  0.2012  0.1465 -0.0101
  531MOL0     C73160   7.052   0.180   9.063  0.8128  0.3670  0.6200
  531MOL0     C73161   7.107   0.063   8.982 -0.5888  0.1655  0.5763
  531MOL0     C73162   7.215  -0.016   9.049  0.0720  0.0514  0.1224
  531MOL0     C73163   7.354   0.052   9.062 -0.1531 -0.6833 -0.7664
  531MOL0     O73164   7.388   0.139   8.956  0.4877  0.4776  0.9450
  531MOL0     C73165   7.517   0.175   8.943 -0.0512  0.4870  0.1799
  531MOL0     C73166   7.579   0.163   8.820 -0.3800  0.0264 -0.2379
  531MOL0     C73167   7.714   0.195   8.800 -0.3030 -0.3558  0.4941
  531MOL0     C73168   7.768   0.177   8.657  0.0414  0.0746 -0.5587
  531MOL0     C73169   7.795   0.253   8.907  0.1240 -0.0116  0.2343
  531MOL0     C73170   7.943   0.291   8.898  0.5061 -0.2113  0.3955
  531MOL0     O73171   8.009   0.307   8.788  0.4520  0.1477 -0.3756
  531MOL0     C73172   8.147   0.293   8.800  0.4585  0.1910  0.2809
  531MOL0     C73173   8.204   0.173   8.761  0.5182  0.4936  0.2753
  531MOL0     C73174   8.346   0.157   8.764 -0.2791  0.3750 -0.2347
  531MOL0     C73175   8.438   0.259   8.791  0.2154 -1.0869 -0.1433
  531MOL0     O73176   8.567   0.228   8.794 -0.2176 -0.3105  0.9996
  531MOL0     C73177   8.638   0.265   8.672 -0.4517 -0.1899 -0.1829
  531MOL0     C73178   8.764   0.184   8.670  0.4764 -0.1331  0.0369
  531MOL0     C73179   8.844   0.205   8.535  0.6729  0.4296  0.1382
  531MOL0     C73180   8.983   0.150   8.530 -0.2896  0.5102  0.6013
  531MOL0     C73181   9.072   0.214   8.428  0.7101  0.0530 -0.8207
  531MOL0     C73182   9.226   0.186   8.454 -0.6059  0.2778 -0.1135
  531MOL0     C73183   9.257   0.043   8.500  0.0556  0.0743 -0.6843
  531MOL0     C73184   9.406   0.033   8.554  0.3410 -0.8069 -0.7051
  531MOL0    Cl73185   9.531   0.084   8.438 -0.1550  0.5325 -0.1850
  531MOL0     C73186   8.379   0.389   8.812  0.0757  0.3219  0.7586
  531MOL0     C73187   8.233   0.398   8.827 -0.5377  0.4388  0.7155
  531MOL0     O73188   7.994   0.293   9.006  0.1778 -0.3862  0.5663
  531MOL0     C73189   7.731   0.261   9.033  1.0885 -0.0866 -1.0309
  531MOL0     C73190   7.594   0.216   9.053  0.0762  0.4805 -0.7691
  531MOL0     N73191   6.803   0.231   9.056 -0.2040  0.2054  1.2966
  531MOL0     N73192   6.708   0.252   8.969  0.4063  0.7777 -0.0585
  531MOL0     C73193   5.692   0.246   8.430  0.5238  0.5608 -0.9128
  531MOL0     C73194   5.564   0.282   8.405  0.1707 -0.8045 -0.7145
  531MOL0     C73195   5.217   0.562   8.307 -0.6679  0.4278  0.0831
  531MOL0     C73196   5.118   0.542   8.410 -0.6456 -0.1854  0.6411
  531MOL0     C73197   4.992   0.591   8.400 -0.8602 -0.7442  0.2802
  531MOL0     C73198   4.952   0.670   8.282 -0.1339  0.9343 -0.3708
  531MOL0     O73199   4.823   0.713   8.267  0.5281  1.0768  0.6440
  531MOL0     C73200   4.727   0.725   8.373  0.4564 -1.2399 -0.3590
  531MOL0     C73201   4.754   0.836   8.481  0.2749  0.3032  0.6549
  531MOL0     C73202   4.738   0.988   8.439  0.0877 -0.4696 -0.2603
  531MOL0     C73203   4.851   1.042   8.353 -0.6177  0.7501 -0.4807
  531MOL0     C73204   4.816   1.156   8.270 -0.7806 -0.4275 -0.1737
  531MOL0     C73205   4.788   1.247   8.191  1.3302  0.4873  0.0158
  531MOL0     C73206   5.043   0.671   8.172 -0.7735  0.2021 -0.8850
  531MOL0     C73207   5.176   0.618   8.180  0.4991 -0.4813 -0.2980
  531MOL0     C73208   5.264   0.647   8.059 -0.2887 -0.2798 -0.1513
  531MOL0     H73209   5.518   0.521   8.642 -0.1937 -0.8345 -0.0745
  531MOL0     H73210   5.763   0.455   8.678  1.1756  0.1230 -1.6493
  531MOL0     H73211   5.988   0.284   8.364  2.4296  2.3322  1.6286
  531MOL0     H73212   5.929   0.132   8.422 -0.2312  0.8073 -3.2147
  531MOL0     H73213   6.124   0.146   8.585  0.6554  1.7193  0.3725
  531MOL0     H73214   6.175   0.127   8.421  0.9102  1.9806 -0.3075
  531MOL0     H73215   6.212   0.352   8.380 -1.2140  0.7132 -0.1181
  531MOL0     H73216   6.152   0.399   8.540 -1.1878  0.3645 -0.4496
  531MOL0     H73217   6.399   0.393   8.552 -1.6685  0.2834  3.6193
  531MOL0     H73218   6.330   0.271   8.657  0.5096  0.9731  1.6413
  531MOL0     H73219   6.418   0.217   8.365  2.2764  1.3092 -0.3180
  531MOL0     H73220   6.389   0.097   8.492 -1.0441  1.0287  2.1267
  531MOL0     H73221   6.629   0.126   8.452  0.2596  2.0117 -2.6016
  531MOL0     H73222   6.623   0.297   8.471 -1.7298  0.2972 -1.1957
  531MOL0     H73223   6.665   0.085   8.661 -1.1321  0.1424  0.8508
  531MOL0     H73224   6.514   0.164   8.707  0.6977  2.5422  0.8682
  531MOL0     H73225   6.762   0.329   8.647 -2.1408  0.3576 -1.3294
  531MOL0     H73226   6.626   0.386   8.739 -1.6478 -1.3229  0.0495
  531MOL0     H73227   6.960   0.238   8.769 -0.8915 -0.7714 -0.8782
  531MOL0     H73228   7.025   0.156   9.166  2.2224 -3.3854  0.2784
  531MOL0     H73229   7.128   0.258   9.067  1.3118 -0.1613  1.8962
  531MOL0     H73230   7.019  -0.002   8.975 -0.5601 -0.1689  2.7436
  531MOL0     H73231   7.130   0.092   8.879 -2.1342  2.5398  0.8141
  531MOL0     H73232   7.167  -0.035   9.145 -3.7649  2.9087 -0.9948
  531MOL0     H73233   7.229  -0.112   8.997 -0.0029  1.5843 -2.9702
  531MOL0     H73234   7.338   0.120   9.147 -0.4322  1.2100 -2.2537
  531MOL0     H73235   7.428  -0.025   9.085 -2.3696 -2.4102  1.0538
  531MOL0     H73236   7.522   0.129   8.734  1.4326 -0.9384 -1.1018
  531MOL0     H73237   7.693   0.137   8.588  0.2959 -1.0984 -0.1737
  531MOL0     H73238   7.855   0.112   8.650  0.3409  0.1849  1.4213
  531MOL0     H73239   7.796   0.276   8.620 -0.5177  0.1974 -0.6639
  531MOL0     H73240   8.142   0.092   8.725 -1.2759  2.2741 -0.8201
  531MOL0     H73241   8.391   0.059   8.751 -1.9947 -0.4473 -0.2181
  531MOL0     H73242   8.578   0.255   8.581 -1.5565  1.4860  0.3085
  531MOL0     H73243   8.670   0.370   8.675  0.8997 -0.6083  0.8228
  531MOL0     H73244   8.832   0.212   8.751  2.9710  0.2918 -2.0850
  531MOL0     H73245   8.744   0.077   8.680  0.3813 -0.1252 -0.0696
  531MOL0     H73246   8.848   0.313   8.522  0.5095  0.3014 -1.0541
  531MOL0     H73247   8.780   0.168   8.455  0.4828  0.4142  0.2970
  531MOL0     H73248   8.967   0.043   8.519 -2.0370  0.7612  0.4040
  531MOL0     H73249   9.026   0.163   8.630  0.8774 -2.8783  0.6649
  531MOL0     H73250   9.049   0.180   8.326  1.6750  1.0050 -1.3847
  531MOL0     H73251   9.048   0.321   8.436 -1.7463 -0.5094  0.0575
  531MOL0     H73252   9.261   0.253   8.534  2.6824 -1.8544  0.4614
  531MOL0     H73253   9.285   0.205   8.364 -1.4046  0.7934 -0.5428
  531MOL0     H73254   9.238  -0.037   8.429 -0.4230 -0.5375  0.1229
  531MOL0     H73255   9.198   0.018   8.589  0.6141  1.4386  0.1040
  531MOL0     H73256   9.425  -0.070   8.587  1.6087  0.0858  1.5601
  531MOL0     H73257   9.403   0.084   8.651 -0.0441 -0.8197 -0.7085
  531MOL0     H73258   8.443   0.475   8.827 -0.6820  0.5716  2.8594
  531MOL0     H73259   8.191   0.498   8.840  0.9664  1.4216 -1.2819
  531MOL0     H73260   7.779   0.311   9.116  1.5929  4.4726 -3.7302
  531MOL0     H73261   7.555   0.236   9.153 -0.0471  2.4730 -1.1687
  531MOL0     H73262   5.726   0.153   8.387 -0.9328  0.2203 -1.3765
  531MOL0     H73263   5.498   0.224   8.341 -0.2755 -0.3434 -0.6756
  531MOL0     H73264   5.129   0.505   8.511 -2.1612  0.8253  1.2105
  531MOL0     H73265   4.935   0.583   8.492 -1.4579  2.3906  0.2873
  531MOL0     H73266   4.629   0.754   8.334  1.0464  2.2001  0.3774
  531MOL0     H73267   4.719   0.630   8.426 -1.4282 -1.9861 -1.8418
  531MOL0     H73268   4.853   0.819   8.526  0.0355 -0.7662  0.8135
  531MOL0     H73269   4.690   0.816   8.568 -1.2084 -0.4572 -0.5635
  531MOL0     H73270   4.639   0.989   8.390  0.0067 -2.3117 -0.2034
  531MOL0     H73271   4.730   1.051   8.527  2.0078 -0.6442  0.0760
  531MOL0     H73272   4.883   0.973   8.275 -2.3590 -1.8953  0.9869
  531MOL0     H73273   4.931   1.063   8.424 -0.6784  0.6093 -0.3717
  531MOL0     H73274   4.762   1.323   8.121 -1.6641  0.6734  1.1649
  531MOL0     H73275   5.015   0.722   8.080 -1.3065 -1.2982 -1.5882
  531MOL0     H73276   5.311   0.553   8.029  1.1425 -0.4219  2.2976
  531MOL0     H73277   5.208   0.677   7.970 -0.9609  1.1977  0.7376
  531MOL0     H73278   5.348   0.714   8.079 -0.3573 -0.8342  2.2687
  532MOL0     O73279   2.671   0.641   2.573  0.1600 -0.2232 -0.3680
  532MOL0     C73280   2.635   0.743   2.509 -0.8332 -0.2644 -0.0770
  532MOL0     O73281   2.708   0.859   2.503  0.1383 -0.0489 -0.2783
  532MOL0     C73282   2.839   0.851   2.543  0.0030  0.1858  0.2717
  532MOL0     C73283   2.941   0.838   2.443  0.3403  0.3848  0.2886
  532MOL0     C73284   3.076   0.838   2.478 -0.5488 -0.4362 -0.6939
  532MOL0     C73285   3.115   0.856   2.617  0.1477  0.8794 -0.2617
  532MOL0     O73286   3.249   0.870   2.639 -0.4972 -0.3054 -0.0428
  532MOL0     C73287   3.301   0.857   2.768  1.0700 -0.0026  0.5439
  532MOL0     C73288   3.452   0.898   2.765  0.1307  0.1497  0.3981
  532MOL0     C73289   3.516   0.887   2.899  0.0527 -0.2812  0.2712
  532MOL0     C73290   3.669   0.884   2.871  0.1379  0.4753 -0.1075
  532MOL0     C73291   3.748   0.853   2.992 -0.7992  0.1959 -0.5144
  532MOL0     C73292   3.901   0.845   2.958 -0.3652 -0.7801  0.2803
  532MOL0     C73293   3.993   0.847   3.091  0.0148  0.2523 -0.1650
  532MOL0     C73294   4.148   0.855   3.070  0.0382  0.3560 -0.1467
  532MOL0     N73295   4.203   0.747   2.983 -0.0277 -0.3923  0.0818
  532MOL0     C73296   4.227   0.757   2.845  0.4361 -0.2270  0.0334
  532MOL0     C73297   4.287   0.637   2.810  0.6078 -0.2209  1.1908
  532MOL0     C73298   4.354   0.596   2.681  0.1337 -0.4059 -0.3480
  532MOL0     C73299   4.259   0.507   2.590  0.1834  0.6689 -0.0039
  532MOL0     C73300   4.165   0.580   2.495 -0.7699 -0.0983  0.1800
  532MOL0     C73301   4.088   0.483   2.406 -0.6509  0.7494 -0.4233
  532MOL0     O73302   3.947   0.510   2.382  1.1636  0.1216  0.7174
  532MOL0     C73303   3.855   0.512   2.477  0.0779  0.4822 -0.3354
  532MOL0     C73304   3.866   0.495   2.614 -0.8968  0.8336  0.5648
  532MOL0     C73305   3.763   0.497   2.704  1.2309  0.2859 -0.4248
  532MOL0     C73306   3.797   0.463   2.854  0.4738  0.8458  0.2505
  532MOL0     C73307   3.631   0.533   2.658  0.5862 -0.7619  0.6547
  532MOL0     C73308   3.507   0.537   2.748  0.0636 -0.1320 -0.2918
  532MOL0     O73309   3.382   0.526   2.694  0.0115 -0.0189 -0.3478
  532MOL0     C73310   3.268   0.502   2.766 -0.1931  0.3083 -0.5915
  532MOL0     C73311   3.271   0.433   2.892  0.1685  0.0653  0.3181
  532MOL0     C73312   3.150   0.412   2.955 -0.3134  0.4796  0.1736
  532MOL0     C73313   3.025   0.455   2.905 -0.6530  1.0522 -0.6401
  532MOL0     O73314   2.903   0.438   2.967 -0.0191  0.2136  0.0011
  532MOL0     C73315   2.822   0.558   2.983 -0.4217 -0.0187  0.2355
  532MOL0     C73316   2.684   0.498   2.968  0.2870 -0.7798 -1.0127
  532MOL0     C73317   2.686   0.403   2.851  0.2905 -0.7646 -0.6190
  532MOL0     C73318   2.540   0.390   2.795  0.6612  0.7664 -0.1903
  532MOL0     C73319   2.551   0.293   2.682 -0.5643 -0.3046 -0.1236
  532MOL0     C73320   2.441   0.300   2.576  0.5819 -0.3945 -0.5742
  532MOL0     C73321   2.449   0.197   2.464 -0.5656 -0.0473 -0.0747
  532MOL0     C73322   2.306   0.171   2.397 -0.5305 -0.0825  0.2724
  532MOL0    Cl73323   2.237   0.332   2.347  0.1931 -0.5816 -0.1296
  532MOL0     C73324   3.026   0.508   2.783  0.8009  0.0185  0.5875
  532MOL0     C73325   3.145   0.537   2.714  0.7200  0.4670 -0.5546
  532MOL0     O73326   3.527   0.559   2.865  0.0523  0.0322 -0.0851
  532MOL0     C73327   3.614   0.550   2.518 -0.5095 -0.0073  0.1862
  532MOL0     C73328   3.722   0.543   2.434 -0.3372 -0.0518 -0.2380
  532MOL0     N73329   4.294   0.561   2.925  0.0270  0.2559  0.2838
  532MOL0     N73330   4.241   0.628   3.029 -0.1437 -0.2224  0.5174
  532MOL0     C73331   3.006   0.874   2.715 -0.2050  0.2353  0.4757
  532MOL0     C73332   2.870   0.867   2.676 -0.1006  0.4535  0.5043
  532MOL0     C73333   2.506   0.736   2.436 -0.7087 -0.2843 -0.9672
  532MOL0     C73334   2.406   0.662   2.498  0.1838  0.0318  0.4311
  532MOL0     C73335   2.281   0.656   2.428  0.5447  0.3516 -0.5035
  532MOL0     C73336   2.256   0.727   2.310  0.7725  0.8716 -0.4447
  532MOL0     O73337   2.131   0.727   2.262  0.0222  0.1329 -0.3368
  532MOL0     C73338   2.094   0.807   2.148  0.5731  0.1326 -0.2588
  532MOL0     C73339   1.941   0.771   2.121  0.3215  0.2919  0.6483
  532MOL0     C73340   1.888   0.883   2.027  0.3318 -0.2122 -0.0465
  532MOL0     C73341   1.733   0.886   2.027 -0.5843 -0.6403  0.0024
  532MOL0     C73342   1.695   0.991   1.930 -0.7135  0.0629 -0.0840
  532MOL0     C73343   1.669   1.066   1.838 -0.6467 -0.2358  0.5308
  532MOL0     C73344   2.364   0.797   2.258  0.5460  0.5704  0.0603
  532MOL0     C73345   2.495   0.800   2.316  0.9364 -0.8684 -0.2534
  532MOL0     C73346   2.600   0.886   2.252  0.6956  0.5286  0.6590
  532MOL0     H73347   2.922   0.813   2.339  2.8221 -2.3675  0.3625
  532MOL0     H73348   3.156   0.813   2.409  0.1078  0.2234 -0.1841
  532MOL0     H73349   3.298   0.757   2.813 -1.9586  0.0209  0.5920
  532MOL0     H73350   3.247   0.928   2.831 -1.2202  0.7257 -2.0547
  532MOL0     H73351   3.504   0.837   2.690 -0.5658 -1.7679  1.4210
  532MOL0     H73352   3.462   1.004   2.740 -0.6279 -0.1761 -1.4185
  532MOL0     H73353   3.493   0.972   2.965  0.7065  0.0059  0.1392
  532MOL0     H73354   3.489   0.794   2.950  0.6598 -0.1764  0.7958
  532MOL0     H73355   3.682   0.803   2.799 -0.8429 -0.6497  0.9386
  532MOL0     H73356   3.706   0.980   2.834 -0.0451  0.9634  0.9435
  532MOL0     H73357   3.711   0.761   3.039  0.7641 -0.7440 -1.0469
  532MOL0     H73358   3.738   0.940   3.057 -2.6417 -1.3300  1.3767
  532MOL0     H73359   3.937   0.761   2.898  0.6948  0.8095 -1.4020
  532MOL0     H73360   3.924   0.939   2.906  2.5100 -1.6311 -0.1428
  532MOL0     H73361   3.968   0.759   3.151 -1.2422  0.3608 -0.4935
  532MOL0     H73362   3.963   0.933   3.152 -1.4830  1.7614 -2.8288
  532MOL0     H73363   4.185   0.956   3.047  0.0140  0.7566  1.4202
  532MOL0     H73364   4.195   0.835   3.167 -0.1265 -0.0489 -0.1508
  532MOL0     H73365   4.216   0.848   2.787  3.0598  0.8300  1.0195
  532MOL0     H73366   4.441   0.531   2.697 -0.0666 -0.0539  2.8767
  532MOL0     H73367   4.389   0.686   2.630  0.2277 -0.1079  0.2367
  532MOL0     H73368   4.314   0.443   2.520  0.7395 -1.5907  2.3271
  532MOL0     H73369   4.202   0.438   2.654 -1.4139  1.4717 -0.5092
  532MOL0     H73370   4.093   0.645   2.546 -0.1175 -1.1272  2.5431
  532MOL0     H73371   4.230   0.647   2.437  0.2538  1.3814  2.8761
  532MOL0     H73372   4.139   0.486   2.309  2.5247 -1.2922  1.0186
  532MOL0     H73373   4.084   0.379   2.439 -3.5327  0.8588 -0.1241
  532MOL0     H73374   3.965   0.471   2.651 -2.5195 -3.0101  3.0756
  532MOL0     H73375   3.753   0.537   2.921 -1.4565  1.7728 -1.9088
  532MOL0     H73376   3.903   0.468   2.881  0.8383  0.4041 -1.0433
  532MOL0     H73377   3.757   0.364   2.876  2.2919 -0.2317 -1.0246
  532MOL0     H73378   3.362   0.399   2.940  1.6748  2.1220 -0.8909
  532MOL0     H73379   3.163   0.366   3.052 -4.2016  3.4949  2.4401
  532MOL0     H73380   2.829   0.596   3.086 -0.1929 -0.4227  0.3739
  532MOL0     H73381   2.831   0.641   2.912 -0.3580 -1.2853 -1.2904
  532MOL0     H73382   2.659   0.459   3.067  0.4107  1.5245  0.0002
  532MOL0     H73383   2.617   0.580   2.942 -0.2491 -1.3469 -1.4509
  532MOL0     H73384   2.725   0.303   2.872 -0.5073 -1.1386 -0.8340
  532MOL0     H73385   2.742   0.441   2.765 -0.6839  0.4968 -0.7294
  532MOL0     H73386   2.494   0.486   2.768 -1.8985  0.5695  2.8467
  532MOL0     H73387   2.479   0.352   2.878  2.5067  0.7817  1.2308
  532MOL0     H73388   2.645   0.316   2.630 -1.5115 -0.6734 -2.1018
  532MOL0     H73389   2.564   0.193   2.725  0.3612 -0.6661 -1.1825
  532MOL0     H73390   2.453   0.402   2.539  0.9179 -1.0575 -2.3865
  532MOL0     H73391   2.350   0.282   2.635  1.1809  0.5603  0.6993
  532MOL0     H73392   2.495   0.101   2.490  0.0182  0.2204 -0.0855
  532MOL0     H73393   2.518   0.246   2.394 -0.9000 -1.0498 -1.1076
  532MOL0     H73394   2.240   0.121   2.468 -0.5719 -3.1047 -1.6995
  532MOL0     H73395   2.306   0.106   2.309  0.8841 -0.3369  0.4456
  532MOL0     H73396   2.933   0.523   2.730  0.9621 -0.6631  0.1004
  532MOL0     H73397   3.118   0.577   2.617  0.5954 -0.9418 -1.1133
  532MOL0     H73398   3.525   0.585   2.466 -0.1646  1.0188  0.2631
  532MOL0     H73399   3.697   0.553   2.329  2.0726 -1.0996 -0.9938
  532MOL0     H73400   3.024   0.892   2.820  2.1709  0.0048  0.1458
  532MOL0     H73401   2.791   0.884   2.749 -0.7223 -1.3260  0.2878
  532MOL0     H73402   2.410   0.629   2.601 -2.0109 -1.8605  0.0134
  532MOL0     H73403   2.197   0.602   2.471  1.4582  0.6157  1.7571
  532MOL0     H73404   2.122   0.911   2.166  0.9141 -0.0984  0.5712
  532MOL0     H73405   2.141   0.778   2.054 -2.9028 -0.2094 -2.0813
  532MOL0     H73406   1.887   0.765   2.215  1.0235 -1.0582  0.9935
  532MOL0     H73407   1.918   0.679   2.066 -1.1379  1.4575 -0.7889
  532MOL0     H73408   1.922   0.978   2.068  1.9708  0.0208 -1.8148
  532MOL0     H73409   1.923   0.891   1.924 -3.9539  0.0228 -1.7104
  532MOL0     H73410   1.702   0.906   2.130 -0.4375 -3.4898  0.6675
  532MOL0     H73411   1.705   0.783   2.006  2.2526 -2.0253  2.3997
  532MOL0     H73412   1.641   1.136   1.761 -0.8666 -1.0707 -0.1603
  532MOL0     H73413   2.341   0.847   2.165 -0.3973 -1.5847 -0.9378
  532MOL0     H73414   2.693   0.831   2.239 -0.5030 -1.7003  0.8973
  532MOL0     H73415   2.568   0.912   2.151 -2.2646  0.0914  1.3779
  532MOL0     H73416   2.606   0.978   2.312 -1.1527  1.8039 -1.0034
  533MOL0     O73417   2.984  10.247   2.536 -0.2305 -0.5055 -0.4737
  533MOL0     C73418   2.937  10.358   2.567  0.4178 -0.2118 -1.3592
  533MOL0     O73419   2.982  10.433   2.674 -0.1879  0.1606  0.3764
  533MOL0     C73420   3.094  10.387   2.736 -0.1176  0.3121  0.0690
  533MOL0     C73421   3.080  10.302   2.840  0.2168 -0.2032 -0.3078
  533MOL0     C73422   3.196  10.243   2.905  0.3195 -1.1362  0.6484
  533MOL0     C73423   3.324  10.282   2.859 -0.8298 -0.2337  0.4294
  533MOL0     O73424   3.435  10.223   2.923 -0.3772  0.3190  0.6905
  533MOL0     C73425   3.566  10.270   2.881 -0.6888  0.4491  0.1468
  533MOL0     C73426   3.665  10.265   2.997 -0.0228  0.2777  0.3018
  533MOL0     C73427   3.810  10.238   2.963 -0.4279  0.0369 -0.6635
  533MOL0     C73428   3.894  10.214   3.088  0.6680  0.3278 -0.2055
  533MOL0     C73429   4.034  10.181   3.045  0.4208  0.7423 -0.6615
  533MOL0     C73430   4.136  10.172   3.163 -0.3113 -0.3781 -0.0532
  533MOL0     C73431   4.274  10.165   3.105  0.8497  0.0927 -0.4457
  533MOL0     C73432   4.378  10.190   3.217  0.6920  0.2717 -0.1501
  533MOL0     N73433   4.518  10.189   3.171  0.2243  0.6192 -0.3520
  533MOL0     C73434   4.571  10.094   3.084 -0.1298 -1.0076 -0.3321
  533MOL0     C73435   4.700  10.132   3.059  0.2901 -0.0318 -1.0164
  533MOL0     C73436   4.803  10.062   2.975  0.4073  0.6587  0.3892
  533MOL0     C73437   4.882  10.163   2.887  0.3602  0.9969  1.1731
  533MOL0     C73438   4.964  10.085   2.779 -0.0094 -0.2943  0.2748
  533MOL0     C73439   5.094  10.149   2.735 -0.3752  0.0403 -0.5058
  533MOL0     O73440   5.185  10.140   2.847 -0.2649 -0.3695 -0.1596
  533MOL0     C73441   5.318  10.172   2.848 -1.0442 -0.8374  0.0314
  533MOL0     C73442   5.393  10.199   2.735  0.0181  0.0474 -0.0535
  533MOL0     C73443   5.528  10.231   2.736 -0.2635 -0.5038 -0.1494
  533MOL0     C73444   5.594  10.242   2.602 -0.4854  0.6756  0.0930
  533MOL0     C73445   5.591  10.252   2.864 -0.3637  0.6672  0.3832
  533MOL0     C73446   5.731  10.271   2.878 -0.8991 -0.2937 -0.2676
  533MOL0     O73447   5.814  10.185   2.805 -0.0690 -0.0934  0.5828
  533MOL0     C73448   5.951  10.197   2.816 -0.2531 -0.0473 -0.3247
  533MOL0     C73449   6.029  10.265   2.724  0.0455  0.2096  0.0380
  533MOL0     C73450   6.161  10.276   2.737 -0.4814  0.2794  0.2154
  533MOL0     C73451   6.219  10.226   2.853 -0.5297  0.3811 -0.1499
  533MOL0     O73452   6.352  10.246   2.882 -0.2797 -0.0674  0.2063
  533MOL0     C73453   6.436  10.308   2.789 -0.6432  1.3573  0.4358
  533MOL0     C73454   6.589  10.311   2.820  0.0073  0.2015 -0.3677
  533MOL0     C73455   6.673  10.410   2.746  0.0847 -0.3362 -1.0059
  533MOL0     C73456   6.680  10.364   2.597 -0.3861 -0.2279 -0.2485
  533MOL0     C73457   6.780  10.458   2.524  0.6564  0.4432 -0.4615
  533MOL0     C73458   6.770  10.439   2.370 -0.5005 -0.2559 -1.2624
  533MOL0     C73459   6.890  10.494   2.303  0.6334  0.1003  1.0679
  533MOL0     C73460   6.870  10.522   2.149 -0.4803  0.1251 -0.6714
  533MOL0    Cl73461   6.792  10.393   2.065  0.0021  0.3561  0.3360
  533MOL0     C73462   6.147  10.175   2.953 -0.5833  0.3977  0.2103
  533MOL0     C73463   6.009  10.162   2.939  0.8813  0.5202  1.2040
  533MOL0     O73464   5.770  10.352   2.962  0.0437 -0.1913 -0.6382
  533MOL0     C73465   5.510  10.240   2.983  0.4240 -0.1430 -0.3808
  533MOL0     C73466   5.372  10.203   2.970 -0.1812  0.0243  0.0086
  533MOL0     N73467   4.712  10.257   3.110  0.3376  0.8373 -0.1829
  533MOL0     N73468   4.600  10.288   3.173  0.8636  0.2140 -0.2201
  533MOL0     C73469   3.334  10.356   2.735 -0.0532 -0.1216  0.4317
  533MOL0     C73470   3.224  10.411   2.681  0.1646  0.4382  0.1917
  533MOL0     C73471   2.813  10.395   2.510  1.2333  0.4554  0.5795
  533MOL0     C73472   2.795  10.382   2.373 -0.7745  0.0791 -0.1892
  533MOL0     C73473   2.689  10.440   2.318 -0.2533 -0.1201 -0.1809
  533MOL0     C73474   2.580  10.485   2.384 -0.0493 -0.0962 -0.0649
  533MOL0     O73475   2.475  10.535   2.305  0.1292  0.1088  0.0834
  533MOL0     C73476   2.336  10.511   2.345  0.2002  0.1663  0.1704
  533MOL0     C73477   2.294  10.357   2.360 -1.0597  0.0565  0.2358
  533MOL0     C73478   2.152  10.339   2.405 -0.2696  0.2717  0.0910
  533MOL0     C73479   2.109  10.189   2.434 -0.5695 -0.6534  0.3245
  533MOL0     C73480   2.003  10.197   2.539 -1.0304  0.5408  1.3585
  533MOL0     C73481   1.907  10.207   2.611 -0.7694 -0.5886  0.2629
  533MOL0     C73482   2.578  10.480   2.520 -1.3041  0.2896  0.9408
  533MOL0     C73483   2.688  10.429   2.588  0.5669 -0.3214 -0.0129
  533MOL0     C73484   2.682  10.408   2.740 -0.7541  0.0785  0.8753
  533MOL0     H73485   2.983  10.276   2.882  0.7561  0.7278  1.6619
  533MOL0     H73486   3.194  10.171   2.986  0.4678  0.7462  2.4031
  533MOL0     H73487   3.560  10.374   2.848  0.4264  0.2813 -0.6829
  533MOL0     H73488   3.606  10.204   2.803 -0.6709 -0.4314  0.8905
  533MOL0     H73489   3.651  10.356   3.057 -0.2659  1.3327 -1.3020
  533MOL0     H73490   3.633  10.174   3.050 -0.9469 -1.3767 -2.8554
  533MOL0     H73491   3.818  10.159   2.888 -1.0315  0.1098 -0.8068
  533MOL0     H73492   3.863  10.323   2.919  0.0221  0.4793  0.6813
  533MOL0     H73493   3.890  10.302   3.154  0.3492  1.6423 -1.9141
  533MOL0     H73494   3.843  10.134   3.142  0.3675 -0.7724 -2.0390
  533MOL0     H73495   4.060  10.252   2.966 -1.9036  0.3737 -1.8460
  533MOL0     H73496   4.041  10.079   3.005 -0.6610  0.6018 -0.5373
  533MOL0     H73497   4.126  10.254   3.234  1.2992 -0.5927  0.4582
  533MOL0     H73498   4.113  10.085   3.224  1.3054 -1.8652 -1.4434
  533MOL0     H73499   4.291  10.243   3.031  1.2744  2.7392  2.2677
  533MOL0     H73500   4.298  10.074   3.049 -0.1879 -1.1685  1.0376
  533MOL0     H73501   4.356  10.288   3.259 -1.5845 -0.5604  0.7732
  533MOL0     H73502   4.374  10.110   3.292 -0.8201  1.8080  1.4843
  533MOL0     H73503   4.534   9.995   3.059 -0.1798 -1.6499  2.0598
  533MOL0     H73504   4.740   9.997   2.914 -1.8959  1.3639  1.8861
  533MOL0     H73505   4.869   9.991   3.024 -2.3286 -5.0075 -3.1494
  533MOL0     H73506   4.819  10.230   2.828  3.4435  0.4276 -3.1821
  533MOL0     H73507   4.953  10.228   2.939  2.3659 -0.1737  0.0294
  533MOL0     H73508   4.979   9.985   2.821 -2.6030 -2.0499 -2.5991
  533MOL0     H73509   4.902  10.068   2.690  2.1568 -0.7146 -1.2201
  533MOL0     H73510   5.137  10.100   2.647 -0.4053  1.2549 -1.2162
  533MOL0     H73511   5.077  10.255   2.717 -2.1251  1.0464  5.0578
  533MOL0     H73512   5.333  10.201   2.644 -1.6864  1.5871  1.0424
  533MOL0     H73513   5.587  10.141   2.559  1.3406 -1.4760  4.2922
  533MOL0     H73514   5.699  10.270   2.611 -0.5071  0.3242  1.5938
  533MOL0     H73515   5.543  10.311   2.534 -2.7916 -2.1330 -1.2566
  533MOL0     H73516   5.986  10.307   2.634 -1.6516  1.2515  1.2788
  533MOL0     H73517   6.222  10.323   2.661  1.7660 -1.8346  0.5832
  533MOL0     H73518   6.432  10.243   2.701 -1.7608 -0.1926  1.5704
  533MOL0     H73519   6.402  10.407   2.758  0.8037  1.5522 -0.6622
  533MOL0     H73520   6.597  10.341   2.925 -2.1739  0.3864 -0.2227
  533MOL0     H73521   6.630  10.210   2.811  3.3163  1.4814 -1.0295
  533MOL0     H73522   6.776  10.405   2.784  0.0889  2.9594 -0.2712
  533MOL0     H73523   6.636  10.511   2.766 -0.2293 -0.5552 -0.4810
  533MOL0     H73524   6.578  10.380   2.560 -1.1737  0.3716  2.0396
  533MOL0     H73525   6.690  10.255   2.589 -1.7990 -0.6883  2.8360
  533MOL0     H73526   6.758  10.562   2.547  1.1861  0.4620 -0.0379
  533MOL0     H73527   6.886  10.450   2.548  1.8424  2.4033 -4.1957
  533MOL0     H73528   6.679  10.488   2.335 -1.7603  0.0803  2.1212
  533MOL0     H73529   6.770  10.332   2.344 -0.9776  0.0590 -2.6327
  533MOL0     H73530   6.971  10.423   2.318  0.1687 -0.9524 -1.0209
  533MOL0     H73531   6.917  10.590   2.349  0.5379  1.2974 -1.2625
  533MOL0     H73532   6.972  10.538   2.113  0.6195 -1.9121  1.3013
  533MOL0     H73533   6.813  10.615   2.139 -0.7764  0.2416  1.5120
  533MOL0     H73534   6.191  10.133   3.043  2.0622  1.8385 -0.3031
  533MOL0     H73535   5.951  10.127   3.024 -0.9049 -2.5769 -1.0764
  533MOL0     H73536   5.540  10.275   3.081 -1.8391 -0.6360  0.5551
  533MOL0     H73537   5.305  10.194   3.054 -0.5120 -1.4082 -0.3909
  533MOL0     H73538   3.433  10.367   2.692  0.2553 -1.1992  0.8185
  533MOL0     H73539   3.227  10.467   2.588 -3.7779 -1.5654 -1.3718
  533MOL0     H73540   2.879  10.348   2.313  0.0680  2.6362 -0.5658
  533MOL0     H73541   2.678  10.428   2.211 -2.6871 -0.7759  0.0758
  533MOL0     H73542   2.305  10.568   2.433  2.5601  1.2122  0.3902
  533MOL0     H73543   2.289  10.563   2.261  3.3459  3.5379  0.2404
  533MOL0     H73544   2.358  10.299   2.427  0.5973 -1.2006 -2.2800
  533MOL0     H73545   2.311  10.317   2.260  0.5456 -0.9259  0.8695
  533MOL0     H73546   2.141  10.396   2.497 -2.5134  2.0940 -1.2110
  533MOL0     H73547   2.093  10.382   2.324 -0.7626 -1.8801 -0.7595
  533MOL0     H73548   2.202  10.143   2.470 -0.5895 -1.7304 -0.9378
  533MOL0     H73549   2.067  10.138   2.347 -1.7438 -0.3019  0.6653
  533MOL0     H73550   1.829  10.234   2.679 -1.5197  2.3784 -1.6056
  533MOL0     H73551   2.490  10.514   2.575 -2.2450 -1.9262  0.9105
  533MOL0     H73552   2.576  10.392   2.761 -0.6941 -0.0551  1.0664
  533MOL0     H73553   2.745  10.321   2.759 -0.5226 -0.7556 -2.9415
  533MOL0     H73554   2.727  10.490   2.797  3.2955 -0.1384 -1.6012
  534MOL0     O73555  11.156   4.128   7.715  0.0169 -0.5059  0.4230
  534MOL0     C73556  11.195   4.016   7.692 -0.1845 -0.8787 -0.1818
  534MOL0     O73557  11.293   3.961   7.751 -0.1340 -0.1500  0.2194
  534MOL0     C73558  11.378   4.027   7.839  0.6064  0.2478  0.0214
  534MOL0     C73559  11.515   4.002   7.817 -1.5610 -0.6012  0.2923
  534MOL0     C73560  11.616   4.064   7.891  0.3067 -0.3791 -0.3201
  534MOL0     C73561  11.580   4.147   7.996  0.0812 -0.0474 -0.6030
  534MOL0     O73562  11.679   4.203   8.068  0.2074  0.5578 -0.1701
  534MOL0     C73563  11.662   4.339   8.112 -1.1173 -1.2729  0.2135
  534MOL0     C73564  11.790   4.425   8.140  0.0069 -1.1184 -0.0885
  534MOL0     C73565  11.865   4.444   8.016  0.2812  0.7582  0.1753
  534MOL0     C73566  11.801   4.560   7.929 -1.1675 -0.2188  0.6947
  534MOL0     C73567  11.875   4.603   7.796  0.2794 -0.4218  0.3544
  534MOL0     C73568  12.017   4.666   7.816  0.8981  0.1320  0.3084
  534MOL0     C73569  12.020   4.803   7.893  0.6716 -0.1233  0.4569
  534MOL0     C73570  12.149   4.807   7.972  0.0519 -0.8705  0.2085
  534MOL0     N73571  12.268   4.802   7.886  1.3611  0.5909  0.1159
  534MOL0     C73572  12.331   4.688   7.842  0.2672 -0.0986 -0.8515
  534MOL0     C73573  12.444   4.734   7.798  0.0191  0.2020 -0.0641
  534MOL0     C73574  12.545   4.638   7.745 -0.0241 -0.6661  0.6281
  534MOL0     C73575  12.688   4.696   7.729  0.8353  0.3266  0.0133
  534MOL0     C73576  12.781   4.600   7.651  0.4065  0.6194  0.0342
  534MOL0     C73577  12.915   4.660   7.641  0.0139 -0.7570  0.2253
  534MOL0     O73578  13.007   4.561   7.598 -0.5724 -0.1609 -0.2185
  534MOL0     C73579  13.135   4.593   7.541 -0.8275  0.4442 -0.2182
  534MOL0     C73580  13.216   4.488   7.505  0.0798  0.1146  0.0241
  534MOL0     C73581  13.344   4.504   7.460 -0.5302 -0.3694 -1.1684
  534MOL0     C73582  13.428   4.386   7.435  0.8315  0.3585  0.1212
  534MOL0     C73583  13.394   4.638   7.443  0.8676 -0.1042 -0.0553
  534MOL0     C73584  13.528   4.668   7.396  0.2984 -0.4569 -0.5717
  534MOL0     O73585  13.546   4.800   7.356 -0.2239 -0.4642 -1.1100
  534MOL0     C73586  13.668   4.828   7.303  0.0474  0.1767  0.2068
  534MOL0     C73587  13.686   4.828   7.163  0.0614 -0.5278 -0.2602
  534MOL0     C73588  13.817   4.853   7.121  0.2354  0.4523 -0.1820
  534MOL0     C73589  13.927   4.858   7.201 -0.3980 -0.6625 -0.5624
  534MOL0     O73590  14.055   4.854   7.155 -0.0201  0.0002  0.4443
  534MOL0     C73591  14.074   4.774   7.035 -0.0596  0.1883 -0.3554
  534MOL0     C73592  14.218   4.728   7.016  0.0919 -0.3011 -0.1347
  534MOL0     C73593  14.323   4.848   7.036 -0.5134  0.2589  0.2721
  534MOL0     C73594  14.462   4.797   7.046 -0.1325  0.0410  0.4628
  534MOL0     C73595  14.546   4.919   7.055  0.3327  0.2685  0.4009
  534MOL0     C73596  14.693   4.907   7.071 -0.0081  0.4774  0.3174
  534MOL0     C73597  14.768   5.038   7.088 -0.2911  0.1348  0.0277
  534MOL0     C73598  14.913   5.015   7.144  0.2324  0.4142 -0.0716
  534MOL0    Cl73599  15.019   4.973   6.998  0.4829  0.1015  0.2245
  534MOL0     C73600  13.906   4.880   7.338  0.6574 -0.2673 -0.1496
  534MOL0     C73601  13.777   4.858   7.390 -0.1268 -0.6078  0.0202
  534MOL0     O73602  13.617   4.588   7.394 -0.1359 -0.3021  0.1637
  534MOL0     C73603  13.308   4.749   7.477 -0.4906  0.2953 -0.2084
  534MOL0     C73604  13.182   4.721   7.529  0.2054  0.0735  0.0778
  534MOL0     N73605  12.447   4.875   7.796  0.0529  0.3466  0.2254
  534MOL0     N73606  12.339   4.912   7.855 -0.2465 -0.1170  0.3533
  534MOL0     C73607  11.445   4.168   8.024  0.3024  0.0458 -0.5473
  534MOL0     C73608  11.339   4.109   7.947  0.5254 -0.6828 -0.6522
  534MOL0     C73609  11.121   3.948   7.591  0.6333  0.8999 -0.4654
  534MOL0     C73610  11.182   3.837   7.526 -0.1905 -0.1713  0.1039
  534MOL0     C73611  11.126   3.761   7.422  0.1606 -0.0841  0.0069
  534MOL0     C73612  10.991   3.788   7.385  0.4492 -0.0592 -0.5115
  534MOL0     O73613  10.934   3.727   7.276  0.3746 -0.4701  0.0901
  534MOL0     C73614  10.812   3.778   7.225  0.2464 -0.4170  0.9300
  534MOL0     C73615  10.773   3.707   7.094  0.2358  0.7706  0.1594
  534MOL0     C73616  10.681   3.791   6.999 -0.5335  0.2925 -0.3075
  534MOL0     C73617  10.640   3.693   6.877  0.1121 -0.5202  0.6005
  534MOL0     C73618  10.562   3.767   6.775 -0.6970  0.2047 -0.0493
  534MOL0     C73619  10.487   3.827   6.702  0.1281  0.4885  0.1315
  534MOL0     C73620  10.928   3.883   7.464  0.1672  0.1694 -0.3583
  534MOL0     C73621  10.978   3.958   7.572  0.1292  0.7580  0.9250
  534MOL0     C73622  10.889   4.034   7.662 -0.0392  0.5823  0.1348
  534MOL0     H73623  11.544   3.926   7.745 -7.0732  0.3691 -3.5984
  534MOL0     H73624  11.722   4.044   7.881  1.2485  2.4813  2.2982
  534MOL0     H73625  11.611   4.330   8.209 -0.0819 -0.5115  0.8507
  534MOL0     H73626  11.607   4.406   8.045  1.3873  1.6714  0.8902
  534MOL0     H73627  11.755   4.520   8.181 -0.7890 -1.5793  0.3065
  534MOL0     H73628  11.847   4.384   8.224 -1.6888 -0.6342  1.3560
  534MOL0     H73629  11.968   4.468   8.046  0.9585  0.1777 -1.5488
  534MOL0     H73630  11.881   4.354   7.956 -0.1060  0.1233  0.9977
  534MOL0     H73631  11.698   4.530   7.909 -0.9132 -3.3252  3.1371
  534MOL0     H73632  11.806   4.649   7.993 -1.4091  0.7098 -0.5544
  534MOL0     H73633  11.809   4.672   7.742  1.7674  1.6687  1.1105
  534MOL0     H73634  11.889   4.511   7.738  0.6130  0.9522 -1.8611
  534MOL0     H73635  12.075   4.586   7.863 -0.8696 -0.0541  2.2773
  534MOL0     H73636  12.063   4.686   7.719 -0.7578  0.7130 -0.3973
  534MOL0     H73637  11.941   4.812   7.968 -0.0158 -1.7882 -0.0267
  534MOL0     H73638  12.014   4.884   7.820  0.5807 -1.3412 -0.9173
  534MOL0     H73639  12.150   4.896   8.036  1.2306 -1.8588  1.6319
  534MOL0     H73640  12.144   4.715   8.031 -1.5142 -0.9624 -0.0217
  534MOL0     H73641  12.301   4.584   7.850 -0.7426  0.0016 -2.6872
  534MOL0     H73642  12.510   4.613   7.644 -0.1079 -2.1120  0.9837
  534MOL0     H73643  12.546   4.548   7.807  0.8379 -0.4685  0.9136
  534MOL0     H73644  12.690   4.784   7.665  1.8702 -0.2936 -0.8506
  534MOL0     H73645  12.725   4.719   7.829  0.0086  2.7469 -0.1800
  534MOL0     H73646  12.791   4.502   7.697  0.7148  0.2086 -0.8833
  534MOL0     H73647  12.733   4.590   7.553 -3.1084  0.5488  1.6037
  534MOL0     H73648  12.915   4.751   7.581  1.9223 -0.5367  0.5004
  534MOL0     H73649  12.947   4.690   7.741 -0.0469 -0.2646  0.0981
  534MOL0     H73650  13.177   4.388   7.526 -2.1901  1.0941  0.7161
  534MOL0     H73651  13.511   4.363   7.502 -1.0899 -1.5072  2.0698
  534MOL0     H73652  13.472   4.389   7.335 -0.5377  1.7924 -0.4677
  534MOL0     H73653  13.366   4.297   7.449  1.7175 -0.3164 -0.1696
  534MOL0     H73654  13.608   4.808   7.091 -0.8814 -0.9341  0.8523
  534MOL0     H73655  13.830   4.851   7.013  2.2649 -0.2202  0.0485
  534MOL0     H73656  14.008   4.687   7.037 -2.2385  1.7694  1.3826
  534MOL0     H73657  14.048   4.831   6.945 -3.2959  0.4697  0.6127
  534MOL0     H73658  14.244   4.657   7.095  2.0835  1.4774  0.9413
  534MOL0     H73659  14.234   4.689   6.916  1.6404 -0.6257  0.2172
  534MOL0     H73660  14.296   4.907   7.124 -0.6435  1.8327 -0.7811
  534MOL0     H73661  14.315   4.923   6.958  0.5899 -0.0707 -0.1661
  534MOL0     H73662  14.498   4.730   6.967  0.6900  0.4336  0.4990
  534MOL0     H73663  14.472   4.741   7.140  0.1141 -1.5861 -0.5029
  534MOL0     H73664  14.524   4.971   6.962  2.2593 -1.4455 -1.1200
  534MOL0     H73665  14.509   4.973   7.143  2.0923  1.1758  0.6229
  534MOL0     H73666  14.740   4.851   6.990  1.2100  1.1986  0.4922
  534MOL0     H73667  14.706   4.844   7.159  1.0589 -1.6571 -1.2625
  534MOL0     H73668  14.719   5.105   7.159 -0.1167  2.5581 -1.9562
  534MOL0     H73669  14.768   5.096   6.995 -3.9607 -1.5628 -1.2484
  534MOL0     H73670  14.921   4.937   7.220  0.6799  2.5162  2.1988
  534MOL0     H73671  14.957   5.103   7.194 -0.2145  2.3786 -2.9081
  534MOL0     H73672  13.996   4.880   7.399  1.4621 -4.0330 -1.0667
  534MOL0     H73673  13.764   4.857   7.498  1.7690 -0.8416  0.2814
  534MOL0     H73674  13.327   4.856   7.471 -0.4881  0.4404  1.7194
  534MOL0     H73675  13.124   4.806   7.564 -0.9236 -0.9147  0.6897
  534MOL0     H73676  11.405   4.233   8.100 -0.1926 -3.1012  2.0966
  534MOL0     H73677  11.235   4.130   7.970  0.3217 -1.5238 -0.7470
  534MOL0     H73678  11.287   3.814   7.542 -0.4582 -1.8902 -0.3712
  534MOL0     H73679  11.181   3.685   7.367 -0.7079  1.6598 -3.5415
  534MOL0     H73680  10.728   3.788   7.295 -0.9715 -1.6950 -0.3010
  534MOL0     H73681  10.832   3.883   7.202 -1.2721  0.1000  1.7966
  534MOL0     H73682  10.713   3.618   7.116 -1.4522  1.5908 -0.9033
  534MOL0     H73683  10.867   3.671   7.052  0.3117  0.7187  0.3708
  534MOL0     H73684  10.594   3.834   7.051  0.5610  2.0146  0.1674
  534MOL0     H73685  10.749   3.874   6.980 -3.5771  2.6601 -1.6412
  534MOL0     H73686  10.576   3.612   6.912 -3.9418  1.4741 -1.3831
  534MOL0     H73687  10.732   3.656   6.830  1.1356  2.0507  0.4166
  534MOL0     H73688  10.434   3.886   6.630  2.9402  3.0260 -0.0240
  534MOL0     H73689  10.824   3.898   7.439  0.5045 -0.5089 -2.3724
  534MOL0     H73690  10.891   3.995   7.764 -0.5702 -1.9498 -0.7693
  534MOL0     H73691  10.913   4.141   7.667 -0.7093  0.7189  0.6197
  534MOL0     H73692  10.785   4.028   7.628  0.2572  1.1591 -0.9394
  535MOL0     O73693   3.841   8.662   2.322 -1.2529 -0.5947  0.5128
  535MOL0     C73694   3.832   8.582   2.408  0.6894 -0.3323 -0.5631
  535MOL0     O73695   3.938   8.496   2.451  0.1630  0.4920  0.4435
  535MOL0     C73696   4.056   8.507   2.376 -0.9606 -0.2394 -0.0966
  535MOL0     C73697   4.056   8.488   2.242 -0.4352 -0.1516 -0.1152
  535MOL0     C73698   4.169   8.516   2.165  0.0006 -0.4379  0.3821
  535MOL0     C73699   4.287   8.551   2.225 -0.5414 -0.1844 -0.2985
  535MOL0     O73700   4.405   8.566   2.158 -0.7553  0.4748  0.0818
  535MOL0     C73701   4.408   8.525   2.022 -1.0555  0.4171  0.5325
  535MOL0     C73702   4.551   8.516   1.966  0.7511  0.0360 -0.3902
  535MOL0     C73703   4.629   8.649   1.979 -0.0906 -0.0693 -0.2942
  535MOL0     C73704   4.769   8.641   1.920  0.5209 -0.4670  1.0536
  535MOL0     C73705   4.873   8.598   2.016 -0.1137  0.5171  0.3222
  535MOL0     C73706   5.009   8.601   1.939  0.0541  0.1911 -0.8194
  535MOL0     C73707   5.127   8.577   2.027 -0.9245 -0.2458 -0.0764
  535MOL0     C73708   5.142   8.690   2.130  0.0020  0.7762  0.0210
  535MOL0     N73709   5.268   8.678   2.207 -0.3869 -0.2229  0.4674
  535MOL0     C73710   5.296   8.564   2.285 -0.1519 -0.3267  0.4682
  535MOL0     C73711   5.430   8.568   2.302 -0.5587  1.5997  1.0966
  535MOL0     C73712   5.529   8.474   2.361  0.4385 -0.2988 -0.2854
  535MOL0     C73713   5.565   8.510   2.499  0.2877 -0.6007 -0.4731
  535MOL0     C73714   5.687   8.432   2.558  0.0549  0.8141  0.5794
  535MOL0     C73715   5.720   8.468   2.701  0.5523 -0.0622  0.3687
  535MOL0     O73716   5.824   8.376   2.755 -0.0504  0.1504 -0.5358
  535MOL0     C73717   5.957   8.400   2.733  0.1295  0.1858  0.0118
  535MOL0     C73718   6.047   8.295   2.777  0.3081  0.5277 -0.3167
  535MOL0     C73719   6.187   8.309   2.779 -0.8191 -0.9387 -0.4192
  535MOL0     C73720   6.281   8.191   2.817  0.4100  0.1356 -0.8054
  535MOL0     C73721   6.239   8.433   2.724  0.9824  0.8509  0.2536
  535MOL0     C73722   6.380   8.448   2.697  0.3124 -0.7651  0.3302
  535MOL0     O73723   6.432   8.565   2.740 -0.6738  0.1260  0.9102
  535MOL0     C73724   6.563   8.592   2.697 -0.3692 -1.0269 -0.6147
  535MOL0     C73725   6.668   8.509   2.720 -0.4581  0.3827 -0.5439
  535MOL0     C73726   6.799   8.547   2.691 -0.0334  0.9286 -0.0224
  535MOL0     C73727   6.825   8.670   2.632 -0.0697  0.8113  0.2631
  535MOL0     O73728   6.947   8.733   2.600  0.3723 -0.3351  0.4472
  535MOL0     C73729   7.063   8.657   2.626 -0.3374  0.7647  0.5945
  535MOL0     C73730   7.195   8.687   2.541 -0.4193 -0.3796 -0.0484
  535MOL0     C73731   7.251   8.816   2.591  0.2872  0.1660 -0.4093
  535MOL0     C73732   7.399   8.855   2.532 -0.1864  0.1810 -0.9463
  535MOL0     C73733   7.484   8.952   2.617  0.9726 -0.6387 -0.4770
  535MOL0     C73734   7.618   9.001   2.566  0.2713 -0.9803 -0.1274
  535MOL0     C73735   7.704   8.884   2.531  0.7222 -0.4470 -0.1961
  535MOL0     C73736   7.836   8.922   2.470 -0.2703  0.4443 -0.6497
  535MOL0    Cl73737   7.940   8.786   2.439 -0.1163  0.1787  0.4521
  535MOL0     C73738   6.714   8.758   2.602 -0.4464  0.0296 -0.3037
  535MOL0     C73739   6.586   8.722   2.640 -0.6089  0.1340 -0.2433
  535MOL0     O73740   6.436   8.365   2.630  0.0072  0.0689 -0.3510
  535MOL0     C73741   6.156   8.541   2.679 -0.0330 -0.1171  0.2820
  535MOL0     C73742   6.019   8.515   2.692  0.2657 -0.6968  0.4286
  535MOL0     N73743   5.475   8.687   2.252 -0.1447  0.9638 -0.7395
  535MOL0     N73744   5.379   8.749   2.194 -0.4273 -0.0640 -0.7048
  535MOL0     C73745   4.291   8.555   2.364  0.0999  0.3035 -0.6505
  535MOL0     C73746   4.172   8.537   2.439  0.9246  1.4387 -0.1403
  535MOL0     C73747   3.708   8.580   2.483  0.6702  0.0299 -0.7295
  535MOL0     C73748   3.720   8.550   2.619  0.0469  0.4915  0.4616
  535MOL0     C73749   3.611   8.557   2.705  0.4881 -0.2714 -0.5854
  535MOL0     C73750   3.489   8.610   2.659  0.0196 -1.6034  0.4731
  535MOL0     O73751   3.379   8.603   2.743  0.6622 -0.5202 -0.9266
  535MOL0     C73752   3.284   8.710   2.734  0.6787  0.9555 -0.8881
  535MOL0     C73753   3.185   8.698   2.853 -0.0507  0.9719  0.2206
  535MOL0     C73754   3.255   8.733   2.984  0.0663 -0.5187 -0.2249
  535MOL0     C73755   3.163   8.801   3.086  0.0883  1.0653  0.3527
  535MOL0     C73756   3.110   8.932   3.040 -0.7221  0.3434 -0.7651
  535MOL0     C73757   3.074   9.041   3.009 -0.0821  0.7508 -0.3080
  535MOL0     C73758   3.484   8.661   2.523  0.6138 -0.3700  0.2484
  535MOL0     C73759   3.589   8.638   2.429  0.1158 -0.6533 -0.0341
  535MOL0     C73760   3.564   8.674   2.279  0.0282  0.2988  0.4544
  535MOL0     H73761   3.968   8.449   2.192  0.8630 -0.8597 -1.9218
  535MOL0     H73762   4.157   8.489   2.061 -1.3859 -1.6591  0.8153
  535MOL0     H73763   4.363   8.601   1.957 -0.7331  0.8503  0.8054
  535MOL0     H73764   4.354   8.430   2.021 -2.3134  1.0803  1.9874
  535MOL0     H73765   4.597   8.436   2.025 -0.9479 -0.6515  0.0665
  535MOL0     H73766   4.550   8.476   1.864  0.1952 -0.3674 -0.2295
  535MOL0     H73767   4.585   8.730   1.921  2.1646  0.9595 -0.6520
  535MOL0     H73768   4.621   8.679   2.084  0.4443 -1.9426  0.3311
  535MOL0     H73769   4.778   8.576   1.832 -1.9592  1.2651 -0.6258
  535MOL0     H73770   4.794   8.742   1.884  0.9732 -0.1723  2.1430
  535MOL0     H73771   4.853   8.497   2.055 -2.6950  0.8002 -0.0975
  535MOL0     H73772   4.868   8.673   2.096 -0.0005  1.2912 -0.3856
  535MOL0     H73773   5.001   8.532   1.854  0.9809 -1.9446  0.7239
  535MOL0     H73774   5.024   8.702   1.902 -0.1625  0.4005 -0.3452
  535MOL0     H73775   5.218   8.578   1.966 -1.8698  1.5442 -1.5766
  535MOL0     H73776   5.124   8.482   2.081  3.7722  1.0338  3.0963
  535MOL0     H73777   5.133   8.787   2.081 -0.4503 -1.3083 -4.5983
  535MOL0     H73778   5.058   8.671   2.197  0.9325 -1.9275  0.5537
  535MOL0     H73779   5.222   8.491   2.317 -2.6783  1.7875 -0.1936
  535MOL0     H73780   5.625   8.467   2.309  1.5257 -1.4585  1.7677
  535MOL0     H73781   5.491   8.372   2.365 -0.5244  0.0678  3.9047
  535MOL0     H73782   5.605   8.610   2.481  1.5851 -1.1639 -0.8209
  535MOL0     H73783   5.474   8.512   2.559  2.1768  4.8971  2.9851
  535MOL0     H73784   5.662   8.325   2.552  0.4523  0.8031 -1.4905
  535MOL0     H73785   5.774   8.449   2.495  0.3290 -0.2501  0.6486
  535MOL0     H73786   5.746   8.574   2.718 -0.5625 -0.1287  3.0165
  535MOL0     H73787   5.635   8.462   2.769  0.2532 -0.0908 -0.0085
  535MOL0     H73788   6.000   8.200   2.798  2.2554 -0.4121  0.0569
  535MOL0     H73789   6.220   8.100   2.809 -0.8658  1.0440 -1.9650
  535MOL0     H73790   6.313   8.206   2.920  0.9129 -0.5737 -0.8527
  535MOL0     H73791   6.369   8.169   2.756  1.7226 -0.9351  1.3639
  535MOL0     H73792   6.649   8.414   2.768  1.6065 -0.8936 -2.1036
  535MOL0     H73793   6.880   8.488   2.732 -0.9193 -0.7614 -0.5895
  535MOL0     H73794   7.081   8.661   2.734 -0.2033  2.2205  0.5286
  535MOL0     H73795   7.048   8.553   2.594 -0.8629  1.2559 -0.8304
  535MOL0     H73796   7.263   8.603   2.557 -0.3766 -0.2841  0.2703
  535MOL0     H73797   7.164   8.689   2.436 -0.2941  1.2665 -0.0747
  535MOL0     H73798   7.246   8.801   2.699 -1.7076 -0.6615 -0.5698
  535MOL0     H73799   7.177   8.893   2.565 -1.4151 -1.8149 -1.7677
  535MOL0     H73800   7.390   8.897   2.432  4.5896 -0.5029 -1.9005
  535MOL0     H73801   7.453   8.760   2.532 -0.7909 -0.2484  1.3627
  535MOL0     H73802   7.420   9.039   2.637  0.1830 -1.6857  1.8250
  535MOL0     H73803   7.515   8.911   2.713  1.1225  0.1600 -0.1728
  535MOL0     H73804   7.663   9.068   2.641 -1.7254 -0.9542  1.1272
  535MOL0     H73805   7.600   9.068   2.481  0.7264  1.2714  1.4640
  535MOL0     H73806   7.652   8.822   2.456 -0.7897 -0.7707  1.0730
  535MOL0     H73807   7.730   8.815   2.612 -0.3433  0.0876  0.6233
  535MOL0     H73808   7.889   8.978   2.548  0.1086 -1.8724  0.8725
  535MOL0     H73809   7.813   8.971   2.375  2.2303 -0.5171 -1.8472
  535MOL0     H73810   6.724   8.857   2.558 -0.7122  0.3147  0.2616
  535MOL0     H73811   6.505   8.792   2.624 -0.7399  0.4898  1.6954
  535MOL0     H73812   6.181   8.644   2.657 -1.7383 -0.3432 -3.5625
  535MOL0     H73813   5.951   8.596   2.671 -1.8807 -2.1050  1.5637
  535MOL0     H73814   4.376   8.592   2.420 -2.1934  4.1721  0.6756
  535MOL0     H73815   4.175   8.544   2.547  1.5228 -3.1034  0.3634
  535MOL0     H73816   3.811   8.520   2.671 -0.7566 -0.2022  1.5065
  535MOL0     H73817   3.609   8.518   2.806  3.5701  1.1211  0.1072
  535MOL0     H73818   3.332   8.808   2.728 -0.5121  1.5109 -1.5563
  535MOL0     H73819   3.222   8.694   2.645 -1.1931 -1.9155  0.7630
  535MOL0     H73820   3.134   8.601   2.858 -3.3283  2.4357 -1.4275
  535MOL0     H73821   3.111   8.778   2.840 -0.8129  0.4808  1.3955
  535MOL0     H73822   3.285   8.637   3.026 -1.4600 -0.5545  0.8715
  535MOL0     H73823   3.346   8.792   2.974 -0.3326 -0.2379 -3.2476
  535MOL0     H73824   3.210   8.804   3.185  0.9058  0.5379 -0.0028
  535MOL0     H73825   3.083   8.729   3.105 -0.3376  1.3764 -0.2567
  535MOL0     H73826   3.045   9.139   2.978  1.1439  1.2536  0.0337
  535MOL0     H73827   3.388   8.694   2.485  0.3177 -1.3736  0.0868
  535MOL0     H73828   3.458   8.681   2.253  0.2256  0.3665 -0.3676
  535MOL0     H73829   3.600   8.777   2.268  0.6445  0.3472  2.5689
  535MOL0     H73830   3.603   8.594   2.216  0.8298  0.0457  1.2598
  536MOL0     O73831   3.311   4.319   4.644 -1.3483  0.1650 -0.1741
  536MOL0     C73832   3.260   4.259   4.549 -0.8327 -0.1430 -0.9951
  536MOL0     O73833   3.334   4.198   4.455  0.1482  0.3570 -0.1997
  536MOL0     C73834   3.469   4.200   4.455 -0.0861 -0.2088 -1.0723
  536MOL0     C73835   3.540   4.237   4.345 -0.5491 -0.7446  0.6009
  536MOL0     C73836   3.685   4.258   4.338  0.7905 -0.9456 -0.3783
  536MOL0     C73837   3.754   4.234   4.461 -0.1716 -0.3117 -0.8249
  536MOL0     O73838   3.888   4.249   4.471 -0.8552  0.1374 -0.3400
  536MOL0     C73839   3.971   4.251   4.350 -0.2981 -0.1057  0.7491
  536MOL0     C73840   4.107   4.275   4.397 -0.3999  0.0052 -0.5006
  536MOL0     C73841   4.213   4.314   4.287 -0.0742  0.0730  0.1628
  536MOL0     C73842   4.191   4.241   4.145 -0.1572  0.0930  0.2640
  536MOL0     C73843   4.295   4.271   4.038  0.1983  1.1437  0.2446
  536MOL0     C73844   4.253   4.191   3.912 -0.7176 -0.0570  0.5877
  536MOL0     C73845   4.336   4.248   3.797 -0.4892 -0.7775 -0.4178
  536MOL0     C73846   4.277   4.205   3.665  0.0063 -0.5224  0.3495
  536MOL0     N73847   4.353   4.247   3.549  0.0742  0.2138  0.5301
  536MOL0     C73848   4.437   4.356   3.534  0.6520 -0.4668 -0.6998
  536MOL0     C73849   4.463   4.353   3.402  1.1371 -0.4069 -0.4586
  536MOL0     C73850   4.560   4.440   3.333 -1.0131 -0.7030  0.6843
  536MOL0     C73851   4.510   4.588   3.311  0.1668 -0.4006  0.0892
  536MOL0     C73852   4.583   4.667   3.205  0.2990  0.4928  0.3478
  536MOL0     C73853   4.731   4.676   3.213  0.6476 -0.1769  0.0667
  536MOL0     O73854   4.767   4.680   3.345  0.0245 -0.1541 -0.6370
  536MOL0     C73855   4.898   4.659   3.365  0.7317 -0.8767 -0.0847
  536MOL0     C73856   4.944   4.528   3.357  0.4714 -0.1419  0.5922
  536MOL0     C73857   5.079   4.498   3.388  0.2435 -0.1523 -0.1154
  536MOL0     C73858   5.121   4.355   3.360  0.0447 -0.0778 -0.1464
  536MOL0     C73859   5.167   4.600   3.425  0.9484 -0.7399  0.0768
  536MOL0     C73860   5.305   4.579   3.438  0.1960  0.0144 -0.2497
  536MOL0     O73861   5.365   4.521   3.338  0.3406  0.3012 -0.5475
  536MOL0     C73862   5.492   4.471   3.359  0.6877  0.1595  0.1925
  536MOL0     C73863   5.592   4.545   3.307 -0.1401 -0.3328 -0.1951
  536MOL0     C73864   5.722   4.508   3.328  0.0713  0.2054 -0.4331
  536MOL0     C73865   5.755   4.391   3.388  0.3064 -0.3439 -0.0995
  536MOL0     O73866   5.885   4.351   3.417 -0.6224 -0.2949  0.8572
  536MOL0     C73867   5.954   4.437   3.512  0.2408 -0.6870  0.1830
  536MOL0     C73868   6.080   4.373   3.554 -0.3689  0.4616  0.3341
  536MOL0     C73869   6.176   4.473   3.625  0.4276 -0.5395  0.3004
  536MOL0     C73870   6.308   4.409   3.655 -0.0121 -0.7317 -0.1432
  536MOL0     C73871   6.395   4.513   3.718  0.6873  0.4694  0.5080
  536MOL0     C73872   6.539   4.457   3.746  0.0450 -0.1714 -0.1688
  536MOL0     C73873   6.535   4.348   3.859  0.1910 -0.1428 -0.3052
  536MOL0     C73874   6.477   4.411   3.989 -0.3693 -0.5116 -0.1811
  536MOL0    Cl73875   6.526   4.295   4.122 -0.5881 -0.4301 -0.0312
  536MOL0     C73876   5.647   4.300   3.426 -0.4466 -0.5267 -0.1068
  536MOL0     C73877   5.515   4.353   3.423  0.3573 -0.7138  0.6134
  536MOL0     O73878   5.363   4.626   3.534  0.1881  0.4909 -0.2782
  536MOL0     C73879   5.107   4.729   3.442 -0.0820  0.2707 -0.3365
  536MOL0     C73880   4.977   4.761   3.415 -0.2723  0.0386  0.3276
  536MOL0     N73881   4.395   4.252   3.339 -0.8981  0.8365 -0.4923
  536MOL0     N73882   4.326   4.197   3.427  0.1693 -0.6281 -0.8691
  536MOL0     C73883   3.683   4.189   4.579  0.1780 -0.2311 -0.0772
  536MOL0     C73884   3.549   4.178   4.575  0.8545  0.5328  0.1621
  536MOL0     C73885   3.115   4.259   4.524  0.9806  0.9928 -0.3714
  536MOL0     C73886   3.044   4.275   4.407 -0.4715  0.1339  0.2715
  536MOL0     C73887   2.905   4.275   4.405  0.6720  0.7285 -0.4906
  536MOL0     C73888   2.827   4.290   4.518 -0.2616  0.1961 -0.7368
  536MOL0     O73889   2.695   4.320   4.508  0.4784  0.2388 -0.7197
  536MOL0     C73890   2.622   4.362   4.628  0.2203  0.1539 -0.2240
  536MOL0     C73891   2.483   4.417   4.595 -0.3547 -0.5716  0.4312
  536MOL0     C73892   2.390   4.473   4.707 -1.5052 -1.0191  0.2745
  536MOL0     C73893   2.249   4.422   4.692  0.0782 -0.7203 -0.0628
  536MOL0     C73894   2.198   4.468   4.564  0.0906 -0.3594  0.0550
  536MOL0     C73895   2.166   4.512   4.462  0.2059  0.4086  0.8343
  536MOL0     C73896   2.897   4.266   4.636  0.8798 -0.6440 -0.2434
  536MOL0     C73897   3.032   4.247   4.641 -0.2652  0.6145  0.6668
  536MOL0     C73898   3.081   4.227   4.783  0.3914 -0.1519 -0.0228
  536MOL0     H73899   3.492   4.255   4.249 -0.4727  0.6857  0.8118
  536MOL0     H73900   3.733   4.284   4.244 -0.7175  0.5387 -0.7954
  536MOL0     H73901   3.938   4.330   4.282 -2.0574 -0.1462  1.5100
  536MOL0     H73902   3.987   4.158   4.294  3.5941  0.2389  1.0592
  536MOL0     H73903   4.117   4.352   4.475  2.0068  0.0266 -0.7355
  536MOL0     H73904   4.133   4.183   4.450 -0.1014  1.4612  2.0674
  536MOL0     H73905   4.216   4.420   4.262  1.6327  0.1316  0.5116
  536MOL0     H73906   4.314   4.291   4.324  1.0975  2.1048 -1.5461
  536MOL0     H73907   4.192   4.137   4.176  0.4199  0.2920  0.9551
  536MOL0     H73908   4.095   4.260   4.096  1.0235  1.7271 -1.5536
  536MOL0     H73909   4.391   4.236   4.078 -0.1710  1.1582  1.1803
  536MOL0     H73910   4.306   4.380   4.027 -0.5097  0.9860 -2.5330
  536MOL0     H73911   4.265   4.083   3.925 -1.0697 -0.2946 -0.8294
  536MOL0     H73912   4.147   4.204   3.887 -0.8559 -1.6264  0.2194
  536MOL0     H73913   4.444   4.233   3.803 -0.2745  0.3226 -1.1912
  536MOL0     H73914   4.335   4.357   3.808  2.4621 -0.8164  1.3250
  536MOL0     H73915   4.282   4.096   3.666  4.4543 -0.6062  3.7793
  536MOL0     H73916   4.176   4.245   3.652 -2.3333 -5.8125 -0.3058
  536MOL0     H73917   4.462   4.437   3.601 -1.6026  1.5421 -2.1397
  536MOL0     H73918   4.590   4.396   3.237  0.9241 -0.7646  1.2728
  536MOL0     H73919   4.652   4.453   3.391 -1.4000  1.8538  0.8533
  536MOL0     H73920   4.404   4.578   3.287  0.4521 -1.2636 -0.8840
  536MOL0     H73921   4.516   4.634   3.410  0.0175 -0.9654  0.3659
  536MOL0     H73922   4.550   4.619   3.112 -2.0723  0.8875  0.9130
  536MOL0     H73923   4.536   4.765   3.209 -0.2545  0.4365 -2.5988
  536MOL0     H73924   4.777   4.591   3.162  1.1939  0.8168 -1.1457
  536MOL0     H73925   4.765   4.770   3.168  0.1215 -0.5238 -1.0948
  536MOL0     H73926   4.878   4.451   3.317  1.5935 -0.5064 -0.6163
  536MOL0     H73927   5.149   4.328   3.258  1.7967 -0.8957  0.5163
  536MOL0     H73928   5.038   4.295   3.399  0.4381  0.1943  1.1246
  536MOL0     H73929   5.205   4.314   3.416 -0.6878  0.1646  1.1653
  536MOL0     H73930   5.578   4.642   3.260  0.7879  0.1122  0.4075
  536MOL0     H73931   5.802   4.576   3.300  2.5081 -2.4255 -0.2945
  536MOL0     H73932   5.986   4.529   3.461  0.8818  0.0347  1.8342
  536MOL0     H73933   5.883   4.458   3.592 -1.9695  0.9136 -2.0203
  536MOL0     H73934   6.058   4.295   3.627 -0.9461 -0.6249 -0.9665
  536MOL0     H73935   6.124   4.324   3.467 -2.0329 -2.2244  0.9126
  536MOL0     H73936   6.130   4.514   3.715 -4.0266 -0.8386 -1.6204
  536MOL0     H73937   6.191   4.555   3.554  2.4310 -0.6162  0.5729
  536MOL0     H73938   6.353   4.375   3.561 -2.1925 -0.6929 -1.2420
  536MOL0     H73939   6.295   4.334   3.734 -2.3205  0.5014  0.7328
  536MOL0     H73940   6.405   4.590   3.640  4.9147  0.7560  1.1004
  536MOL0     H73941   6.352   4.555   3.808  1.7908  0.7861  0.9083
  536MOL0     H73942   6.600   4.540   3.784  1.1689 -2.0051  2.3809
  536MOL0     H73943   6.581   4.427   3.650 -0.2573  0.5253 -0.5274
  536MOL0     H73944   6.640   4.328   3.883  0.1230  0.6097  0.6946
  536MOL0     H73945   6.481   4.256   3.831  0.1097  0.2901 -1.6182
  536MOL0     H73946   6.368   4.415   3.976 -0.1450  1.1959 -2.1353
  536MOL0     H73947   6.512   4.509   4.020 -0.5095 -1.7368  4.5768
  536MOL0     H73948   5.665   4.207   3.480  1.0196  0.6547  1.5515
  536MOL0     H73949   5.441   4.287   3.467 -0.4737  1.3991  2.5192
  536MOL0     H73950   5.170   4.808   3.480 -2.9194  2.3364  0.4354
  536MOL0     H73951   4.937   4.861   3.429  0.1898  0.4255 -0.9820
  536MOL0     H73952   3.740   4.175   4.670 -2.5925 -0.4650  1.7234
  536MOL0     H73953   3.490   4.142   4.658 -2.0526 -0.9684 -2.3371
  536MOL0     H73954   3.082   4.289   4.306 -1.3510  0.2480 -0.0591
  536MOL0     H73955   2.851   4.275   4.311  1.0037 -0.1642 -0.6931
  536MOL0     H73956   2.605   4.278   4.696 -0.9581 -1.0556 -1.9239
  536MOL0     H73957   2.672   4.448   4.674 -0.7600  1.1228 -0.9087
  536MOL0     H73958   2.437   4.337   4.537  1.9022 -0.5784 -1.4615
  536MOL0     H73959   2.484   4.494   4.517  0.2622  1.6959  2.5132
  536MOL0     H73960   2.421   4.430   4.802  0.0874 -2.1177 -0.6848
  536MOL0     H73961   2.389   4.582   4.707 -0.3488 -0.9874  1.9484
  536MOL0     H73962   2.187   4.461   4.773 -1.1887 -0.0072 -1.3328
  536MOL0     H73963   2.247   4.312   4.695  0.0968 -0.7372  3.2821
  536MOL0     H73964   2.134   4.556   4.370  2.1514  0.4760  0.1291
  536MOL0     H73965   2.843   4.263   4.730  0.2395  0.6876 -0.5447
  536MOL0     H73966   3.086   4.327   4.828 -0.1266 -0.0100 -0.2736
  536MOL0     H73967   2.999   4.180   4.838 -0.7623  2.2749  0.4832
  536MOL0     H73968   3.176   4.175   4.799  1.1120  1.5753  1.7379
  537MOL0     O73969   1.591   6.206   0.761 -0.2806  0.2459 -0.1303
  537MOL0     C73970   1.614   6.087   0.767 -0.1326  0.8163 -0.1191
  537MOL0     O73971   1.679   6.019   0.866 -0.3618 -0.1800 -0.3501
  537MOL0     C73972   1.743   6.082   0.973  0.3596 -0.1529  0.3060
  537MOL0     C73973   1.819   5.988   1.050  0.3692  0.2259  0.8859
  537MOL0     C73974   1.868   6.041   1.173 -1.2832  0.4273  0.7316
  537MOL0     C73975   1.842   6.174   1.218 -0.2872  0.8459  0.0081
  537MOL0     O73976   1.864   6.201   1.351 -0.5064 -0.2828  0.2822
  537MOL0     C73977   1.859   6.332   1.412 -0.6537  0.3690  1.0652
  537MOL0     C73978   1.859   6.325   1.563 -0.4803 -0.7929 -0.4784
  537MOL0     C73979   1.978   6.237   1.622 -0.8286  0.0314 -0.3433
  537MOL0     C73980   2.117   6.297   1.601  0.1150  0.7253 -0.0245
  537MOL0     C73981   2.231   6.218   1.656  0.1996 -0.0596 -0.1507
  537MOL0     C73982   2.262   6.086   1.570 -0.0602  0.5683  0.2636
  537MOL0     C73983   2.400   6.029   1.632 -0.1851  0.2849 -0.3383
  537MOL0     C73984   2.428   5.902   1.554 -0.7865 -0.2952 -0.2446
  537MOL0     N73985   2.552   5.838   1.606  0.0015 -0.4557 -0.9884
  537MOL0     C73986   2.679   5.891   1.615  0.6079 -0.1712  0.1035
  537MOL0     C73987   2.745   5.798   1.689  0.0014  0.9670  0.4597
  537MOL0     C73988   2.894   5.783   1.718  1.1197  0.6150 -0.0960
  537MOL0     C73989   2.916   5.752   1.869 -0.1632 -0.2710  0.3877
  537MOL0     C73990   2.880   5.859   1.978 -0.5707  0.5560  0.6528
  537MOL0     C73991   2.931   5.997   1.927  0.5529 -0.0107 -0.6073
  537MOL0     O73992   2.851   6.059   1.828  0.2422 -0.0049 -0.1692
  537MOL0     C73993   2.875   6.198   1.811  1.5871  0.2001 -0.0296
  537MOL0     C73994   2.994   6.266   1.851 -0.5954  0.4930  0.5232
  537MOL0     C73995   3.027   6.400   1.824 -0.1503 -0.1426 -0.1383
  537MOL0     C73996   3.166   6.453   1.866 -0.5337  0.3348  0.2892
  537MOL0     C73997   2.936   6.478   1.743 -0.1058  0.0263  0.3451
  537MOL0     C73998   2.960   6.622   1.694 -0.5442 -0.0666 -0.3482
  537MOL0     O73999   2.862   6.693   1.641 -0.2500 -0.1064  0.1509
  537MOL0     C74000   2.878   6.815   1.584 -0.3512  0.0686  0.8387
  537MOL0     C74001   2.886   6.827   1.439 -1.1407  0.2091 -0.4684
  537MOL0     C74002   2.903   6.953   1.385 -0.1516 -0.6076 -0.2663
  537MOL0     C74003   2.927   7.066   1.463  0.1533  0.4891 -0.4003
  537MOL0     O74004   2.931   7.182   1.394  0.1039  0.5466 -0.1091
  537MOL0     C74005   2.935   7.308   1.459 -0.5491  0.3615 -0.5339
  537MOL0     C74006   2.795   7.338   1.509  0.4472 -0.5849  0.2471
  537MOL0     C74007   2.707   7.383   1.395  0.5976 -0.7152  0.0015
  537MOL0     C74008   2.567   7.413   1.458  0.0556  0.8911 -0.1308
  537MOL0     C74009   2.455   7.453   1.353 -1.3423 -1.6762 -0.9170
  537MOL0     C74010   2.315   7.441   1.411  0.0153 -0.2281 -1.0416
  537MOL0     C74011   2.199   7.513   1.329  0.3816 -0.1565  0.5889
  537MOL0     C74012   2.204   7.433   1.196 -0.3732 -0.2225  0.9000
  537MOL0    Cl74013   2.067   7.486   1.102 -0.1032 -0.7339  0.1387
  537MOL0     C74014   2.936   7.052   1.602 -0.1690 -0.0222 -0.5112
  537MOL0     C74015   2.904   6.927   1.658  0.2890 -0.0121  0.1513
  537MOL0     O74016   3.077   6.659   1.693 -1.1307  0.5221 -0.5652
  537MOL0     C74017   2.810   6.412   1.713  0.7674  0.6850  0.1207
  537MOL0     C74018   2.782   6.279   1.750 -0.4807 -0.4885  0.6571
  537MOL0     N74019   2.658   5.690   1.713 -0.1394 -0.2409 -0.1576
  537MOL0     N74020   2.550   5.711   1.662  0.2035 -0.6141 -0.4838
  537MOL0     C74021   1.790   6.262   1.126  0.0713 -0.6212 -0.6606
  537MOL0     C74022   1.734   6.220   1.000  0.8491 -0.2631 -0.6014
  537MOL0     C74023   1.537   6.004   0.673  0.8116  1.0922  0.6814
  537MOL0     C74024   1.403   6.042   0.642  0.2326 -0.2381  0.5601
  537MOL0     C74025   1.312   5.963   0.563 -0.4537 -0.5422 -0.4670
  537MOL0     C74026   1.365   5.847   0.501 -0.9353 -0.3528 -0.2789
  537MOL0     O74027   1.274   5.770   0.432  0.1747 -0.0427  0.6226
  537MOL0     C74028   1.267   5.804   0.292 -0.4628 -0.1894 -0.5010
  537MOL0     C74029   1.194   5.714   0.201 -0.1524 -1.1541 -0.6172
  537MOL0     C74030   1.192   5.566   0.236 -0.9951 -1.0624  0.2249
  537MOL0     C74031   1.090   5.497   0.151 -0.8293 -0.4440 -0.0270
  537MOL0     C74032   0.952   5.502   0.195  0.8322  0.8410  0.4027
  537MOL0     C74033   0.840   5.513   0.244 -0.9725  0.7607  0.0581
  537MOL0     C74034   1.493   5.806   0.519  0.9421  0.6450 -0.4515
  537MOL0     C74035   1.578   5.881   0.611  0.4363 -0.8435  0.1954
  537MOL0     C74036   1.722   5.835   0.632 -0.2141  1.3938  0.0556
  537MOL0     H74037   1.812   5.886   1.014  2.4451  0.1445  0.6362
  537MOL0     H74038   1.904   5.972   1.249  1.0977 -0.7599 -1.3042
  537MOL0     H74039   1.775   6.389   1.373  0.5429  2.6168  1.6043
  537MOL0     H74040   1.950   6.382   1.379  0.1644 -2.0396 -0.6254
  537MOL0     H74041   1.863   6.426   1.604  2.5492  0.2812 -2.9897
  537MOL0     H74042   1.759   6.287   1.583 -1.0304  1.1630  0.6860
  537MOL0     H74043   1.970   6.212   1.728 -1.1843  0.1340 -0.3419
  537MOL0     H74044   1.985   6.144   1.566  3.9692 -0.6671  0.9496
  537MOL0     H74045   2.130   6.312   1.493  2.0195 -2.7304 -0.4306
  537MOL0     H74046   2.116   6.393   1.652 -1.0273  0.9881 -0.5187
  537MOL0     H74047   2.209   6.198   1.761  1.6942  0.7440  0.3364
  537MOL0     H74048   2.320   6.280   1.662  0.8773 -1.1576  2.7670
  537MOL0     H74049   2.179   6.015   1.574  0.9225 -0.9823 -3.1999
  537MOL0     H74050   2.281   6.125   1.470 -2.2797  0.1060 -0.3763
  537MOL0     H74051   2.400   6.002   1.738  0.7934 -1.9994 -0.8512
  537MOL0     H74052   2.479   6.104   1.623 -0.2383  0.2914 -0.7688
  537MOL0     H74053   2.342   5.835   1.549 -1.3028  0.3581 -0.2004
  537MOL0     H74054   2.462   5.932   1.454  1.6519 -2.7007 -0.2574
  537MOL0     H74055   2.696   5.992   1.579  0.7214 -0.4498 -0.6292
  537MOL0     H74056   2.950   5.870   1.685 -3.2214  3.0325 -1.8899
  537MOL0     H74057   2.919   5.688   1.669 -2.2686 -0.5599  0.2238
  537MOL0     H74058   2.879   5.651   1.887 -4.5648  0.3284 -3.3222
  537MOL0     H74059   3.025   5.746   1.863  0.0789  1.8136  1.6745
  537MOL0     H74060   2.771   5.865   1.984 -0.6352 -0.9153  1.6978
  537MOL0     H74061   2.914   5.841   2.081 -1.3322  0.7769  0.9515
  537MOL0     H74062   2.929   6.068   2.010 -2.5971 -0.3066 -0.3073
  537MOL0     H74063   3.034   5.991   1.891  0.4984  3.2700 -1.5987
  537MOL0     H74064   3.074   6.209   1.896 -0.6489 -0.1443 -0.1771
  537MOL0     H74065   3.148   6.548   1.917 -2.5459 -1.9535  4.3637
  537MOL0     H74066   3.223   6.482   1.778 -0.9356  1.8491  0.4977
  537MOL0     H74067   3.218   6.386   1.935 -0.2098 -1.6637 -1.7721
  537MOL0     H74068   2.886   6.737   1.379  0.0969 -1.2120  1.5553
  537MOL0     H74069   2.927   6.964   1.279  0.0069  1.8786 -0.0178
  537MOL0     H74070   3.012   7.300   1.535 -0.9640  2.2539  0.1510
  537MOL0     H74071   2.955   7.393   1.393  0.7086 -0.4862 -1.2854
  537MOL0     H74072   2.743   7.251   1.550  1.0415 -0.3026  1.6608
  537MOL0     H74073   2.801   7.417   1.585  0.7877  1.6330 -1.9650
  537MOL0     H74074   2.689   7.301   1.325  1.7817 -0.5652 -0.5053
  537MOL0     H74075   2.742   7.478   1.352  0.0396  1.2798  3.5369
  537MOL0     H74076   2.582   7.490   1.534  1.9350 -1.0065  1.5344
  537MOL0     H74077   2.532   7.314   1.490 -2.4329  1.3543 -1.1708
  537MOL0     H74078   2.485   7.556   1.329  0.8511 -1.1907  3.0725
  537MOL0     H74079   2.475   7.395   1.263 -2.9746  0.5062 -2.8472
  537MOL0     H74080   2.313   7.488   1.510  1.2126  0.0565 -1.1330
  537MOL0     H74081   2.291   7.336   1.431  0.4474 -0.1257  0.0262
  537MOL0     H74082   2.218   7.620   1.315 -2.2559  0.3148  0.1010
  537MOL0     H74083   2.101   7.499   1.375 -1.0101 -0.8248 -2.3264
  537MOL0     H74084   2.193   7.326   1.216 -0.9624  0.0052  1.8890
  537MOL0     H74085   2.292   7.449   1.133 -1.9720  0.8424 -1.1832
  537MOL0     H74086   2.969   7.133   1.667  1.6096 -0.7828 -0.4203
  537MOL0     H74087   2.913   6.921   1.766 -0.6849  3.3640  0.5294
  537MOL0     H74088   2.729   6.467   1.665 -0.6389 -2.5097 -1.4170
  537MOL0     H74089   2.684   6.239   1.724  0.2724 -0.3531 -2.8461
  537MOL0     H74090   1.787   6.368   1.150  3.2657 -0.1436 -1.9045
  537MOL0     H74091   1.689   6.294   0.934 -0.0576  0.1674  0.4784
  537MOL0     H74092   1.347   6.124   0.687 -0.2901 -0.1702 -0.1977
  537MOL0     H74093   1.204   5.976   0.570 -0.4045 -0.8999  2.2882
  537MOL0     H74094   1.224   5.905   0.295 -3.1174 -1.0971  5.2693
  537MOL0     H74095   1.370   5.807   0.256 -1.1373 -0.6777 -2.6745
  537MOL0     H74096   1.245   5.728   0.105  2.0000  0.1870  0.6621
  537MOL0     H74097   1.091   5.750   0.195  0.7850  2.0225  0.7316
  537MOL0     H74098   1.292   5.523   0.225 -1.0538 -0.8254 -1.5677
  537MOL0     H74099   1.167   5.548   0.341  1.6815 -0.2286  1.0795
  537MOL0     H74100   1.119   5.393   0.137 -1.9300 -1.1740  2.5787
  537MOL0     H74101   1.098   5.528   0.046  0.5658 -1.6297 -0.3057
  537MOL0     H74102   0.746   5.547   0.285 -2.3556 -0.4732 -1.9384
  537MOL0     H74103   1.528   5.732   0.447  0.7677  0.6082 -0.4968
  537MOL0     H74104   1.801   5.908   0.614  0.9801  0.2609  0.5038
  537MOL0     H74105   1.740   5.785   0.728 -0.3770  1.5149  0.1485
  537MOL0     H74106   1.750   5.759   0.558  0.7867  2.3347 -0.5714
  538MOL0     O74107   9.892   4.403   2.201  0.2313 -0.2849  0.0258
  538MOL0     C74108   9.858   4.297   2.246  0.3063 -0.4390 -0.8787
  538MOL0     O74109   9.928   4.218   2.337  0.0379  0.1196  0.7253
  538MOL0     C74110  10.052   4.264   2.370 -0.6197  0.5263 -0.5488
  538MOL0     C74111  10.144   4.162   2.399 -0.4278 -0.6053  0.2740
  538MOL0     C74112  10.269   4.191   2.448  0.2461 -0.0954  0.2694
  538MOL0     C74113  10.313   4.309   2.474  0.0996 -0.5902  0.3523
  538MOL0     O74114  10.434   4.312   2.535 -0.3173  0.5247  0.1033
  538MOL0     C74115  10.496   4.432   2.584 -0.2364  0.1324 -0.2399
  538MOL0     C74116  10.649   4.433   2.611  0.0632  0.4843  0.1977
  538MOL0     C74117  10.675   4.329   2.715 -0.2621 -0.9371 -0.0580
  538MOL0     C74118  10.824   4.315   2.731  0.3255 -0.2923  1.0352
  538MOL0     C74119  10.858   4.205   2.832  1.3118 -0.8212  0.8656
  538MOL0     C74120  10.987   4.154   2.805 -0.7212  0.4146 -0.2639
  538MOL0     C74121  11.027   4.052   2.915 -0.2487  0.0863  0.8165
  538MOL0     C74122  11.161   3.985   2.885 -0.1349 -1.4152 -0.6617
  538MOL0     N74123  11.214   3.914   3.007 -0.4005  0.5968 -0.5069
  538MOL0     C74124  11.208   3.781   3.043  0.0577 -0.3727  0.4786
  538MOL0     C74125  11.282   3.776   3.163 -0.9044 -0.0819  0.2177
  538MOL0     C74126  11.312   3.644   3.237 -0.4482 -0.4577  0.0193
  538MOL0     C74127  11.464   3.632   3.254 -0.5142  0.3759  0.1550
  538MOL0     C74128  11.491   3.520   3.349  0.0007 -0.0096  0.5158
  538MOL0     C74129  11.631   3.473   3.348 -0.2229  1.1621 -0.1434
  538MOL0     O74130  11.702   3.586   3.400 -0.1004  0.3480 -0.3559
  538MOL0     C74131  11.844   3.571   3.416  0.6429  0.0417 -0.2068
  538MOL0     C74132  11.916   3.450   3.401 -0.8456 -0.0226  0.9594
  538MOL0     C74133  12.054   3.438   3.421 -0.0545  0.3712  0.1202
  538MOL0     C74134  12.125   3.300   3.403  0.7657  0.9193  0.9210
  538MOL0     C74135  12.128   3.554   3.466  0.4167 -0.2533 -0.4422
  538MOL0     C74136  12.275   3.555   3.509  0.2240 -0.0153  0.1643
  538MOL0     O74137  12.332   3.684   3.540 -0.5793  0.3792  0.1590
  538MOL0     C74138  12.463   3.672   3.571 -0.7448  0.4289  0.9171
  538MOL0     C74139  12.554   3.669   3.467 -0.4257  0.8160  0.0936
  538MOL0     C74140  12.695   3.681   3.490 -0.8264 -0.0846 -0.2023
  538MOL0     C74141  12.745   3.694   3.626 -1.4352 -0.3055 -0.7134
  538MOL0     O74142  12.877   3.714   3.667  0.2787  0.0734 -0.2515
  538MOL0     C74143  12.975   3.755   3.558 -0.1216  0.1023 -0.5838
  538MOL0     C74144  13.111   3.787   3.624 -1.3093  0.1499 -1.5397
  538MOL0     C74145  13.155   3.938   3.634 -0.0243 -0.3726 -0.0122
  538MOL0     C74146  13.141   3.996   3.778 -0.1562 -0.4604 -0.4800
  538MOL0     C74147  13.159   4.148   3.773 -0.0282  0.0124  1.2669
  538MOL0     C74148  13.182   4.210   3.913  0.4657 -0.2416 -0.1991
  538MOL0     C74149  13.150   4.355   3.924  0.4831 -0.9850  0.3397
  538MOL0     C74150  13.153   4.426   4.056  0.2227  0.2545  0.8602
  538MOL0    Cl74151  13.142   4.608   4.035 -0.2940  0.0741  0.2650
  538MOL0     C74152  12.648   3.710   3.722  0.1446  0.0226  0.3874
  538MOL0     C74153  12.507   3.700   3.699 -1.2142  1.0290 -0.7184
  538MOL0     O74154  12.343   3.454   3.517  0.1396  0.3189 -0.9607
  538MOL0     C74155  12.057   3.677   3.473  0.1167 -1.3399 -0.2821
  538MOL0     C74156  11.918   3.681   3.449  0.1062  0.0760  0.4926
  538MOL0     N74157  11.322   3.904   3.194 -0.0698  0.1414  0.1064
  538MOL0     N74158  11.281   3.982   3.101 -0.1817  0.2578  0.1197
  538MOL0     C74159  10.226   4.423   2.451  1.3247  0.3353 -0.1904
  538MOL0     C74160  10.092   4.392   2.404 -0.6491 -0.2070 -0.6073
  538MOL0     C74161   9.718   4.233   2.219 -1.0505 -0.0006 -0.5021
  538MOL0     C74162   9.708   4.094   2.235  0.6740  0.1789 -0.2535
  538MOL0     C74163   9.596   4.026   2.192  0.2363  0.0204 -0.2873
  538MOL0     C74164   9.487   4.098   2.149  0.4556 -0.5103 -0.2114
  538MOL0     O74165   9.384   4.013   2.123 -0.5069  0.5774 -0.1005
  538MOL0     C74166   9.250   4.062   2.115  0.6627  0.3623 -0.4402
  538MOL0     C74167   9.141   3.954   2.088 -0.9059 -0.7820  0.6377
  538MOL0     C74168   9.000   4.010   2.120  0.7314  0.4142  0.4538
  538MOL0     C74169   8.957   4.137   2.032  0.0888 -0.1722  0.1271
  538MOL0     C74170   8.972   4.105   1.889 -0.0717 -0.6623  0.4755
  538MOL0     C74171   8.988   4.086   1.764 -0.1658 -0.0095 -0.7356
  538MOL0     C74172   9.493   4.239   2.123 -0.3654  0.1552  0.1402
  538MOL0     C74173   9.612   4.306   2.163  0.1983  0.1651 -0.6850
  538MOL0     C74174   9.626   4.462   2.159  0.2416  0.7945 -0.3115
  538MOL0     H74175  10.111   4.058   2.395  1.4474 -1.2643  0.9104
  538MOL0     H74176  10.329   4.103   2.470 -0.7607 -0.3176  2.4283
  538MOL0     H74177  10.450   4.446   2.682 -0.0065 -3.0879  0.4451
  538MOL0     H74178  10.473   4.506   2.507  0.3148  0.6073  0.0372
  538MOL0     H74179  10.699   4.406   2.518 -0.3998 -0.0168  0.0919
  538MOL0     H74180  10.674   4.534   2.644 -0.8600  0.8595 -0.2136
  538MOL0     H74181  10.638   4.368   2.810  0.0834 -3.5892  1.2684
  538MOL0     H74182  10.628   4.234   2.689  0.9940 -1.3331 -0.9971
  538MOL0     H74183  10.864   4.296   2.631  1.1122 -2.5676  1.7207
  538MOL0     H74184  10.870   4.408   2.765 -0.7339 -0.5144  3.2153
  538MOL0     H74185  10.780   4.130   2.814 -1.0771  1.8226 -0.4541
  538MOL0     H74186  10.835   4.247   2.930 -1.2373  0.2036 -0.0832
  538MOL0     H74187  10.994   4.099   2.711  1.1628  0.9262 -0.4704
  538MOL0     H74188  11.064   4.232   2.807  0.8527 -1.0975  0.2509
  538MOL0     H74189  10.951   3.974   2.911 -1.3317  1.0810  1.3990
  538MOL0     H74190  11.028   4.101   3.013  2.2705  2.9706 -0.4957
  538MOL0     H74191  11.150   3.919   2.799 -1.6013 -1.4932 -0.4266
  538MOL0     H74192  11.226   4.069   2.858 -1.0233 -1.0176 -1.5850
  538MOL0     H74193  11.164   3.699   2.987 -0.2177 -0.1721  0.4011
  538MOL0     H74194  11.269   3.559   3.184  1.6321  0.2652 -3.1175
  538MOL0     H74195  11.267   3.653   3.336 -0.3580 -0.5623  0.0698
  538MOL0     H74196  11.519   3.622   3.160 -2.3642 -0.1357 -0.9253
  538MOL0     H74197  11.498   3.726   3.298 -0.5132  1.2863 -1.6873
  538MOL0     H74198  11.453   3.549   3.448  0.8363  3.5485 -0.0990
  538MOL0     H74199  11.428   3.434   3.322  2.7141 -0.8453 -4.2461
  538MOL0     H74200  11.645   3.388   3.416 -1.2463  1.9152  1.0605
  538MOL0     H74201  11.666   3.455   3.246  0.8514  1.3376  0.1905
  538MOL0     H74202  11.856   3.361   3.383 -1.8469  1.0131 -1.1226
  538MOL0     H74203  12.204   3.308   3.328 -0.1090 -2.2703 -0.5074
  538MOL0     H74204  12.057   3.219   3.378  1.4056  0.7321 -0.2490
  538MOL0     H74205  12.183   3.265   3.489  1.2942 -0.9749 -0.1576
  538MOL0     H74206  12.526   3.657   3.362  1.4006  5.4861 -1.1633
  538MOL0     H74207  12.771   3.673   3.413 -0.9051 -0.6551 -0.2283
  538MOL0     H74208  12.974   3.668   3.492 -3.2557 -0.3103 -0.1383
  538MOL0     H74209  12.939   3.844   3.506  0.3087  1.1157  0.7721
  538MOL0     H74210  13.124   3.736   3.720 -0.2342  1.1835 -1.1013
  538MOL0     H74211  13.187   3.746   3.558 -1.0181  2.0318 -2.4474
  538MOL0     H74212  13.093   3.996   3.565  0.1406  3.2039  2.5890
  538MOL0     H74213  13.258   3.952   3.600 -0.1775  0.2673 -0.2265
  538MOL0     H74214  13.221   3.952   3.837  0.8263  0.3267 -1.1924
  538MOL0     H74215  13.046   3.982   3.830  0.6523  1.5636  1.7022
  538MOL0     H74216  13.250   4.171   3.718 -2.5868  3.3735 -2.1061
  538MOL0     H74217  13.074   4.192   3.720 -0.7737 -3.7745 -1.0752
  538MOL0     H74218  13.287   4.197   3.940  0.0669 -0.3047  1.4459
  538MOL0     H74219  13.128   4.152   3.989 -0.8831  0.6671 -0.4243
  538MOL0     H74220  13.048   4.374   3.888  0.9025  2.3286  0.6271
  538MOL0     H74221  13.218   4.409   3.858 -3.1970  1.8818 -1.5039
  538MOL0     H74222  13.243   4.401   4.114  0.6559  1.7773  0.8947
  538MOL0     H74223  13.065   4.391   4.111  1.2696 -0.3428  2.2220
  538MOL0     H74224  12.687   3.728   3.822  2.0626  0.3326 -0.3824
  538MOL0     H74225  12.446   3.700   3.789 -2.1853  0.0075 -1.3576
  538MOL0     H74226  12.109   3.764   3.511 -3.3162 -0.4003  2.8149
  538MOL0     H74227  11.878   3.781   3.462  0.5051  0.5995 -1.8091
  538MOL0     H74228  10.250   4.525   2.479 -3.0704  1.8361 -1.2084
  538MOL0     H74229  10.021   4.472   2.424  0.3948  0.4120  0.8956
  538MOL0     H74230   9.787   4.034   2.279 -2.5872 -3.1872  1.4447
  538MOL0     H74231   9.598   3.918   2.200  2.4453 -0.3740 -3.8642
  538MOL0     H74232   9.228   4.101   2.215  0.3531  1.3907 -0.8970
  538MOL0     H74233   9.237   4.143   2.042 -2.1558  0.2650 -0.1738
  538MOL0     H74234   9.158   3.865   2.149 -0.3728  0.7301  2.7982
  538MOL0     H74235   9.142   3.923   1.983 -0.0951 -0.3221  0.4992
  538MOL0     H74236   8.924   3.932   2.111  0.5287  0.4973  1.3813
  538MOL0     H74237   9.008   4.029   2.227 -1.6096 -1.1605  0.9727
  538MOL0     H74238   9.024   4.220   2.059 -0.8754  1.2692 -1.6513
  538MOL0     H74239   8.853   4.166   2.048  0.7778  2.4866  0.2554
  538MOL0     H74240   8.983   4.072   1.658  0.7558 -1.9396 -0.5684
  538MOL0     H74241   9.411   4.292   2.076  0.2675 -0.0290 -1.2190
  538MOL0     H74242   9.538   4.525   2.143 -1.2251 -1.0798 -0.0995
  538MOL0     H74243   9.668   4.502   2.252 -4.1382  2.1969  1.3534
  538MOL0     H74244   9.688   4.490   2.074 -0.2840  0.0145 -0.9734
  539MOL0     O74245   3.027   6.047   9.808  0.0818  0.1974 -0.5776
  539MOL0     C74246   3.040   5.923   9.828  0.0989 -0.0611 -0.5372
  539MOL0     O74247   3.080   5.860   9.944  0.5591 -0.2311  0.5498
  539MOL0     C74248   3.121   5.931  10.059 -0.3257  0.3742 -1.0067
  539MOL0     C74249   3.241   5.883  10.117 -0.1068  0.8721 -0.3202
  539MOL0     C74250   3.295   5.943  10.231  0.2546  0.5024 -0.4682
  539MOL0     C74251   3.227   6.043  10.289 -0.3239 -1.1807 -0.3943
  539MOL0     O74252   3.281   6.106  10.402  0.0124  0.5558  0.0047
  539MOL0     C74253   3.284   6.253  10.406 -0.1181  0.4804  0.1974
  539MOL0     C74254   3.381   6.304  10.518  0.0723 -0.4598 -0.6874
  539MOL0     C74255   3.521   6.260  10.486 -0.7528  0.1833 -0.0896
  539MOL0     C74256   3.629   6.299  10.578 -0.9118  0.9635 -0.3934
  539MOL0     C74257   3.642   6.451  10.586 -0.2763 -0.5815  0.0540
  539MOL0     C74258   3.656   6.530  10.454 -0.1418 -0.2781 -0.1278
  539MOL0     C74259   3.776   6.470  10.370  0.4640 -0.7348 -0.0765
  539MOL0     C74260   3.884   6.573  10.358 -0.3258  0.3608 -0.8092
  539MOL0     N74261   4.008   6.503  10.314  0.1101  0.1308 -0.1117
  539MOL0     C74262   4.022   6.410  10.220 -0.0921  0.2653  0.4014
  539MOL0     C74263   4.147   6.363  10.233  0.1259 -0.2038 -0.0844
  539MOL0     C74264   4.214   6.266  10.142 -0.0148  0.2689 -0.1444
  539MOL0     C74265   4.296   6.174  10.231 -0.1922 -0.1803 -0.3096
  539MOL0     C74266   4.338   6.053  10.141  0.5578 -0.1347  0.1547
  539MOL0     C74267   4.348   5.924  10.214  0.7173 -0.5911 -0.0237
  539MOL0     O74268   4.438   5.939  10.325  0.3127 -0.1635  0.6737
  539MOL0     C74269   4.572   5.965  10.296  0.2850 -0.4868  0.1600
  539MOL0     C74270   4.629   5.937  10.175 -0.3462 -0.0155 -0.1841
  539MOL0     C74271   4.763   5.963  10.156 -0.7489  0.0810 -0.1108
  539MOL0     C74272   4.825   5.918  10.021 -0.0407 -0.0712 -0.1180
  539MOL0     C74273   4.830   6.049  10.244 -0.0821 -0.1377 -0.1304
  539MOL0     C74274   4.961   6.114  10.230 -0.7118 -0.7601 -0.4655
  539MOL0     O74275   5.042   6.122  10.342  0.2439  0.1483  0.8902
  539MOL0     C74276   5.176   6.150  10.326  0.5144  0.0230  0.8572
  539MOL0     C74277   5.276   6.060  10.372  0.8572 -0.8791 -0.9965
  539MOL0     C74278   5.412   6.091  10.365 -0.0739 -0.6808  0.2085
  539MOL0     C74279   5.454   6.206  10.306 -0.0039  1.2032 -0.0698
  539MOL0     O74280   5.592   6.221  10.299 -0.2219 -0.8484 -0.3712
  539MOL0     C74281   5.647   6.299  10.195  0.1371  0.1305 -0.3943
  539MOL0     C74282   5.790   6.264  10.179  0.6963  0.0614 -0.4762
  539MOL0     C74283   5.859   6.318  10.060  0.3223  0.2745  0.3055
  539MOL0     C74284   5.962   6.221  10.003 -0.1838 -0.2251 -0.5653
  539MOL0     C74285   6.025   6.277   9.872 -0.0296  0.4018 -0.3046
  539MOL0     C74286   5.941   6.231   9.755  1.2557  0.1615  0.4878
  539MOL0     C74287   5.991   6.260   9.615  0.3906  0.5994 -0.1759
  539MOL0     C74288   6.008   6.404   9.602  0.2425 -0.3426  0.1147
  539MOL0    Cl74289   5.870   6.509   9.643  0.5766  0.0355  0.3459
  539MOL0     C74290   5.362   6.287  10.242 -0.2664 -0.5176  0.0505
  539MOL0     C74291   5.225   6.258  10.253  0.5944  0.3822 -0.0781
  539MOL0     O74292   4.993   6.135  10.118 -0.5934 -0.0211  0.4227
  539MOL0     C74293   4.772   6.059  10.370 -0.7134 -1.5812 -0.0034
  539MOL0     C74294   4.644   6.023  10.399  0.4215  0.1368 -0.3684
  539MOL0     N74295   4.210   6.426  10.336  0.1830 -0.8972 -0.3723
  539MOL0     N74296   4.124   6.513  10.380 -0.1271 -0.3203  0.7430
  539MOL0     C74297   3.101   6.086  10.247 -0.1599  0.1695  0.9499
  539MOL0     C74298   3.049   6.027  10.129 -0.3959  0.7587  0.4992
  539MOL0     C74299   3.005   5.843   9.707 -0.0606  0.2567  0.6178
  539MOL0     C74300   3.078   5.848   9.590 -1.0705 -0.8708 -0.2924
  539MOL0     C74301   3.041   5.769   9.481 -0.6142 -0.3308  0.0993
  539MOL0     C74302   2.935   5.681   9.493 -0.5113  0.2392 -0.7892
  539MOL0     O74303   2.896   5.592   9.392  0.0843 -0.0551 -0.7559
  539MOL0     C74304   2.863   5.644   9.270 -0.8718 -0.5228 -0.9333
  539MOL0     C74305   2.748   5.743   9.262  0.2913  0.1407  0.5952
  539MOL0     C74306   2.611   5.677   9.274  0.7012 -0.8077 -0.7423
  539MOL0     C74307   2.571   5.649   9.421 -0.6864 -0.5744  0.6265
  539MOL0     C74308   2.564   5.763   9.511 -0.6914  0.0489  1.2024
  539MOL0     C74309   2.542   5.854   9.580  0.0009 -0.0910 -0.6413
  539MOL0     C74310   2.863   5.677   9.613  1.8838 -0.1740  0.3341
  539MOL0     C74311   2.896   5.758   9.718 -0.5424 -0.2081  0.2191
  539MOL0     C74312   2.830   5.735   9.846  0.2213  0.4199  0.4267
  539MOL0     H74313   3.291   5.808  10.057  1.7334  1.9884 -0.2675
  539MOL0     H74314   3.393   5.917  10.271  0.9061  1.9473 -1.0624
  539MOL0     H74315   3.181   6.283  10.431 -0.4560 -1.4232  1.2934
  539MOL0     H74316   3.307   6.290  10.306 -1.8849  2.8838  0.5558
  539MOL0     H74317   3.374   6.413  10.524 -1.4114 -0.5553 -0.2916
  539MOL0     H74318   3.332   6.259  10.605 -1.0952  0.9169 -0.5929
  539MOL0     H74319   3.514   6.151  10.472  2.2009  0.0986 -1.8586
  539MOL0     H74320   3.552   6.285  10.384 -0.3658 -1.1446 -0.3240
  539MOL0     H74321   3.617   6.261  10.680  1.5481  2.3883  0.5214
  539MOL0     H74322   3.727   6.259  10.550  1.1296  1.4586  4.7583
  539MOL0     H74323   3.731   6.482  10.642  0.5755 -1.5593 -0.7075
  539MOL0     H74324   3.563   6.492  10.649  1.6858 -0.1534  2.4026
  539MOL0     H74325   3.566   6.529  10.392  1.3226 -1.8244 -2.3701
  539MOL0     H74326   3.681   6.634  10.479  0.1753 -0.5716  0.8416
  539MOL0     H74327   3.728   6.443  10.276 -1.5958  0.4767  0.5513
  539MOL0     H74328   3.823   6.378  10.406 -0.0304 -1.7418 -1.8633
  539MOL0     H74329   3.871   6.643  10.275  0.5018  1.7199  0.1754
  539MOL0     H74330   3.896   6.629  10.451  1.1145  0.1320 -0.8200
  539MOL0     H74331   3.940   6.386  10.153  1.0632  2.5098 -2.0160
  539MOL0     H74332   4.280   6.317  10.072 -0.0516 -0.0183 -0.3886
  539MOL0     H74333   4.136   6.212  10.087 -0.0275  2.5395 -2.6009
  539MOL0     H74334   4.383   6.234  10.261 -0.4858  0.6774 -1.1459
  539MOL0     H74335   4.240   6.141  10.319 -2.6858  0.3869 -1.6040
  539MOL0     H74336   4.256   6.033  10.071 -2.6034 -2.0766  4.0381
  539MOL0     H74337   4.432   6.069  10.089  1.1259 -1.0293  0.8762
  539MOL0     H74338   4.250   5.900  10.257  0.7056  0.3056  0.4772
  539MOL0     H74339   4.374   5.843  10.145  2.6234 -0.4884  0.5096
  539MOL0     H74340   4.572   5.891  10.095 -2.2768 -0.8770  1.6136
  539MOL0     H74341   4.813   5.812   9.996 -0.3953 -0.1321  0.3114
  539MOL0     H74342   4.932   5.943  10.015 -0.4027  1.2602 -2.1000
  539MOL0     H74343   4.777   5.969   9.936 -0.5595  0.1348  0.2959
  539MOL0     H74344   5.250   5.972  10.429 -0.8198  0.6086  0.6579
  539MOL0     H74345   5.486   6.033  10.419 -0.3933 -1.0637  0.2439
  539MOL0     H74346   5.586   6.272  10.108 -2.6025  1.2375  1.0469
  539MOL0     H74347   5.645   6.407  10.214 -1.2720 -0.2000  1.6660
  539MOL0     H74348   5.852   6.295  10.264  0.7717 -0.3063 -0.3952
  539MOL0     H74349   5.787   6.155  10.181 -0.8225  0.0802  0.5786
  539MOL0     H74350   5.906   6.412  10.090  2.7979 -1.8173  3.7912
  539MOL0     H74351   5.790   6.345   9.980  1.0478  0.5149 -0.2482
  539MOL0     H74352   5.924   6.121   9.981  0.8536 -1.3479  2.3192
  539MOL0     H74353   6.033   6.205  10.084  1.3162 -2.2493 -2.2098
  539MOL0     H74354   6.035   6.383   9.896  0.0681  0.9372 -2.4917
  539MOL0     H74355   6.128   6.239   9.873  0.2395  1.0941  1.5656
  539MOL0     H74356   5.839   6.268   9.767 -0.3151 -2.5460 -2.9266
  539MOL0     H74357   5.931   6.122   9.762 -3.0078  0.2724 -1.1728
  539MOL0     H74358   5.917   6.222   9.544  1.2547  1.1058 -1.3820
  539MOL0     H74359   6.085   6.208   9.594  0.2759 -0.1663  1.0851
  539MOL0     H74360   6.020   6.422   9.495  0.8689 -0.8652  0.0865
  539MOL0     H74361   6.097   6.445   9.651 -1.3875 -0.5108  3.4867
  539MOL0     H74362   5.405   6.372  10.188 -0.4453 -0.1602  0.4663
  539MOL0     H74363   5.152   6.323  10.207  0.5685  1.3033  1.2070
  539MOL0     H74364   4.822   6.121  10.444  0.3632 -1.7030 -0.6177
  539MOL0     H74365   4.592   6.045  10.491  0.9501  1.9988 -0.4839
  539MOL0     H74366   3.038   6.150  10.308  1.7206  2.4878  0.5792
  539MOL0     H74367   2.957   6.064  10.085 -0.2648  0.5150  0.0080
  539MOL0     H74368   3.168   5.910   9.590  0.4689 -2.9660  0.9262
  539MOL0     H74369   3.104   5.754   9.395  0.3613 -2.0231  1.0584
  539MOL0     H74370   2.952   5.686   9.222 -0.0334 -2.1983 -0.9157
  539MOL0     H74371   2.846   5.564   9.197 -0.3547  0.9208 -2.7218
  539MOL0     H74372   2.758   5.798   9.168  0.5043 -0.0216  0.5203
  539MOL0     H74373   2.760   5.827   9.331  0.7468  0.3551  0.2620
  539MOL0     H74374   2.533   5.736   9.225  0.8099 -1.4779 -1.7542
  539MOL0     H74375   2.619   5.584   9.216 -1.7628 -2.1100  0.8176
  539MOL0     H74376   2.631   5.564   9.455 -0.3393 -0.7488 -0.3714
  539MOL0     H74377   2.467   5.615   9.414  0.0100 -2.5192 -1.2998
  539MOL0     H74378   2.502   5.924   9.651 -2.6083 -2.4432  0.3864
  539MOL0     H74379   2.781   5.606   9.613 -0.6635  2.5314 -1.5938
  539MOL0     H74380   2.798   5.834   9.879  0.9090  2.0510 -3.3172
  539MOL0     H74381   2.733   5.686   9.833  0.7835 -0.2502 -1.6217
  539MOL0     H74382   2.892   5.686   9.922 -0.5550 -2.0247 -0.3921
  540MOL0     O74383   9.238  11.071   7.772  0.9911  0.1464 -0.1871
  540MOL0     C74384   9.271  11.001   7.669  1.4423 -0.3185 -0.6708
  540MOL0     O74385   9.190  10.990   7.559  0.0357 -0.3938  0.0185
  540MOL0     C74386   9.088  11.079   7.538  1.2257  0.8326  0.8718
  540MOL0     C74387   9.089  11.172   7.435  0.9901  0.4518 -0.4211
  540MOL0     C74388   8.982  11.270   7.424 -0.4615 -0.1817 -0.7791
  540MOL0     C74389   8.878  11.264   7.514  0.9473  0.1979 -0.2649
  540MOL0     O74390   8.788  11.370   7.499  0.0059  0.1358  0.1293
  540MOL0     C74391   8.674  11.372   7.586  0.1459 -0.2035  0.1187
  540MOL0     C74392   8.573  11.471   7.544 -0.3166 -0.6093 -0.7884
  540MOL0     C74393   8.635  11.609   7.546 -0.7465  0.1690  0.2984
  540MOL0     C74394   8.533  11.718   7.520  0.0790 -0.3910 -0.4849
  540MOL0     C74395   8.476  11.708   7.387  0.0987 -0.2487  0.0426
  540MOL0     C74396   8.402  11.832   7.334  0.6429  0.5545 -0.0656
  540MOL0     C74397   8.466  11.966   7.343 -0.0007  0.2501  0.9300
  540MOL0     C74398   8.563  11.972   7.225  0.3834 -0.2648 -0.0420
  540MOL0     N74399   8.596  12.118   7.227 -0.0511 -0.4002 -0.2843
  540MOL0     C74400   8.693  12.169   7.312 -0.3566  0.3400 -0.1202
  540MOL0     C74401   8.703  12.301   7.288 -0.5614 -0.6593 -0.3460
  540MOL0     C74402   8.787  12.401   7.356  0.2398 -1.2639 -1.0130
  540MOL0     C74403   8.917  12.411   7.293  0.3866 -0.6358 -0.1245
  540MOL0     C74404   9.013  12.479   7.399 -0.0501 -0.3088  0.0323
  540MOL0     C74405   9.152  12.515   7.340  0.3771  0.0661  0.7455
  540MOL0     O74406   9.202  12.400   7.268  0.6124 -0.1263  0.6241
  540MOL0     C74407   9.337  12.393   7.232  0.0975  0.0336 -0.3765
  540MOL0     C74408   9.424  12.502   7.237 -0.2324  0.0827 -0.0362
  540MOL0     C74409   9.556  12.483   7.221 -0.1547 -0.3220  0.0998
  540MOL0     C74410   9.635  12.617   7.218 -0.0270 -0.1861  0.2974
  540MOL0     C74411   9.613  12.361   7.185  0.0113  0.6255  0.6207
  540MOL0     C74412   9.764  12.347   7.169 -0.0334  0.3223 -0.2753
  540MOL0     O74413   9.803  12.233   7.231 -0.0694 -0.2226  0.2515
  540MOL0     C74414   9.918  12.173   7.198  0.2706  0.4072  0.3439
  540MOL0     C74415   9.927  12.099   7.087 -0.5385 -0.2950  1.4393
  540MOL0     C74416  10.043  12.035   7.060  0.3141  0.2862  0.4094
  540MOL0     C74417  10.154  12.043   7.143  0.6503  0.4297 -0.5442
  540MOL0     O74418  10.258  11.965   7.105  0.0853  0.4965  0.0487
  540MOL0     C74419  10.370  11.936   7.192  0.5093 -0.0745 -0.2910
  540MOL0     C74420  10.339  11.840   7.308 -0.1883  0.5620  0.0182
  540MOL0     C74421  10.440  11.852   7.416  0.8937  0.0655  0.1995
  540MOL0     C74422  10.591  11.826   7.376 -0.7364  0.0627 -0.5732
  540MOL0     C74423  10.675  11.844   7.499  0.0223 -0.5557  0.5234
  540MOL0     C74424  10.804  11.760   7.507  0.4391  0.9054 -0.0890
  540MOL0     C74425  10.910  11.809   7.404  1.2211  0.8830 -0.1840
  540MOL0     C74426  11.042  11.740   7.409  0.3392  0.4476  0.7364
  540MOL0    Cl74427  11.140  11.830   7.289 -0.1331  0.0505  0.1985
  540MOL0     C74428  10.153  12.124   7.255  0.6658 -0.0443  0.0622
  540MOL0     C74429  10.031  12.184   7.283  0.7594  0.3618  0.8673
  540MOL0     O74430   9.832  12.428   7.099  0.6053 -0.1717  0.1439
  540MOL0     C74431   9.530  12.246   7.178 -1.0263  0.4737  0.0311
  540MOL0     C74432   9.393  12.271   7.194  0.2450  0.0116 -0.2896
  540MOL0     N74433   8.612  12.331   7.187 -0.1243  0.2121  0.5925
  540MOL0     N74434   8.540  12.224   7.160 -0.3535  0.8580 -0.4416
  540MOL0     C74435   8.874  11.164   7.610  0.6997 -0.4861 -0.9637
  540MOL0     C74436   8.974  11.064   7.617 -0.3269  0.2042 -0.0944
  540MOL0     C74437   9.393  10.922   7.682  0.1945  0.9138  0.2305
  540MOL0     C74438   9.423  10.847   7.804  0.1637  0.7325  0.4336
  540MOL0     C74439   9.530  10.751   7.812  0.4749 -0.8999 -0.6498
  540MOL0     C74440   9.610  10.729   7.699  0.1272  0.0421  1.0632
  540MOL0     O74441   9.712  10.640   7.713  0.2909 -0.6799  0.6632
  540MOL0     C74442   9.784  10.598   7.595 -0.3883  0.0054 -0.2065
  540MOL0     C74443   9.882  10.488   7.627 -0.2566  0.3340 -0.9295
  540MOL0     C74444   9.797  10.371   7.686  0.1889 -0.2677  0.0024
  540MOL0     C74445   9.862  10.243   7.750  0.7994 -0.1830 -0.7487
  540MOL0     C74446  10.000  10.225   7.720  0.6153 -0.6483  0.1358
  540MOL0     C74447  10.118  10.229   7.708 -0.1294 -0.1912  0.6175
  540MOL0     C74448   9.591  10.813   7.586  0.0794  0.2361  0.2970
  540MOL0     C74449   9.490  10.910   7.579  0.8386  0.3348 -0.9760
  540MOL0     C74450   9.481  10.988   7.456  0.1879 -1.0540  0.3394
  540MOL0     H74451   9.183  11.177   7.381  1.6430 -1.8720  0.3925
  540MOL0     H74452   9.007  11.350   7.354  0.8086 -0.9931 -1.2759
  540MOL0     H74453   8.709  11.395   7.687  1.0508  1.5895 -0.5595
  540MOL0     H74454   8.630  11.272   7.581  4.5237 -2.3337 -1.3993
  540MOL0     H74455   8.543  11.449   7.442  1.1500  1.2166 -1.6868
  540MOL0     H74456   8.485  11.469   7.609  0.6659  2.5361  0.8676
  540MOL0     H74457   8.669  11.638   7.646 -2.0318  0.5755  0.6465
  540MOL0     H74458   8.727  11.616   7.488 -0.0171 -1.6856  1.1567
  540MOL0     H74459   8.449  11.705   7.589 -0.2883  1.0571 -0.6189
  540MOL0     H74460   8.582  11.813   7.545 -2.5537  1.3672 -1.5415
  540MOL0     H74461   8.405  11.626   7.374 -1.6173  1.1595  0.2298
  540MOL0     H74462   8.566  11.696   7.326  0.5218  1.7228  0.2027
  540MOL0     H74463   8.352  11.807   7.240 -0.0393  1.3916  0.0589
  540MOL0     H74464   8.321  11.851   7.406  1.8998  1.6446  1.1101
  540MOL0     H74465   8.505  11.979   7.444  1.1880 -0.7833  0.6230
  540MOL0     H74466   8.383  12.033   7.318  0.4998 -0.0206 -1.8823
  540MOL0     H74467   8.646  11.905   7.251  0.3974  0.8693  3.3370
  540MOL0     H74468   8.519  11.952   7.127 -0.9023  2.1652 -0.0248
  540MOL0     H74469   8.744  12.109   7.387  0.5052 -0.4702 -1.2990
  540MOL0     H74470   8.788  12.387   7.464 -2.9875 -0.1783 -0.7202
  540MOL0     H74471   8.742  12.500   7.339 -2.5968 -2.0729  0.9275
  540MOL0     H74472   8.959  12.312   7.273  0.7082 -0.7026  0.8123
  540MOL0     H74473   8.911  12.471   7.202 -2.6674 -0.4405  0.1015
  540MOL0     H74474   8.967  12.576   7.419 -0.0683  0.3673 -2.8576
  540MOL0     H74475   9.031  12.422   7.490 -0.4950 -1.1031 -0.3618
  540MOL0     H74476   9.135  12.602   7.276 -1.8915 -1.9200 -1.5381
  540MOL0     H74477   9.211  12.557   7.422 -1.9442 -0.2722  2.7075
  540MOL0     H74478   9.386  12.598   7.271 -0.2398  0.3500 -0.7738
  540MOL0     H74479   9.689  12.633   7.124  1.7656  1.5151  1.5445
  540MOL0     H74480   9.713  12.624   7.294 -0.6915  1.8598  0.8563
  540MOL0     H74481   9.582  12.710   7.243  0.1933 -0.5408  2.1764
  540MOL0     H74482   9.851  12.079   7.011  2.3186 -2.8852 -1.0262
  540MOL0     H74483  10.063  11.966   6.979 -1.2045  0.7856 -0.4155
  540MOL0     H74484  10.455  11.890   7.142 -0.1610  0.0355 -1.5523
  540MOL0     H74485  10.401  12.033   7.233  0.6966 -0.3830  0.3100
  540MOL0     H74486  10.243  11.855   7.359  0.4503  2.5510  0.7179
  540MOL0     H74487  10.337  11.743   7.258  0.0161  0.5622  0.0096
  540MOL0     H74488  10.416  11.789   7.502  3.9829 -0.6013  0.6638
  540MOL0     H74489  10.438  11.955   7.454 -0.4915 -0.3770  1.4302
  540MOL0     H74490  10.629  11.886   7.293  1.2071 -0.8909 -0.4358
  540MOL0     H74491  10.604  11.722   7.343  1.5489 -0.0124  0.3809
  540MOL0     H74492  10.713  11.946   7.505 -2.7764  0.6638 -0.5133
  540MOL0     H74493  10.617  11.811   7.585 -0.9586  0.9440  0.4754
  540MOL0     H74494  10.770  11.659   7.482 -0.0147  0.9910  0.1725
  540MOL0     H74495  10.842  11.745   7.608 -0.1445 -2.1257 -0.2199
  540MOL0     H74496  10.929  11.916   7.415  1.5768  0.9258 -1.1439
  540MOL0     H74497  10.868  11.803   7.303 -0.9041 -2.1983  0.7314
  540MOL0     H74498  11.037  11.633   7.386  0.7702  0.6770 -0.4958
  540MOL0     H74499  11.086  11.750   7.509  2.3752  1.1488 -0.1785
  540MOL0     H74500  10.231  12.142   7.329  0.5033 -1.7161  0.6802
  540MOL0     H74501  10.030  12.241   7.376  1.7517  1.7712  0.0516
  540MOL0     H74502   9.567  12.145   7.161 -0.8739  0.8130 -1.8163
  540MOL0     H74503   9.326  12.189   7.169  1.1042 -0.5001 -0.9969
  540MOL0     H74504   8.789  11.150   7.677  1.4872  0.9196  0.4012
  540MOL0     H74505   8.974  10.992   7.699 -3.3104  1.3331  1.0397
  540MOL0     H74506   9.348  10.868   7.880  1.1506  2.8221  0.8944
  540MOL0     H74507   9.549  10.711   7.911 -1.1064 -0.3332 -0.0808
  540MOL0     H74508   9.714  10.571   7.515 -1.3835 -0.4138  0.7742
  540MOL0     H74509   9.849  10.669   7.543  3.3569 -0.8975  2.7969
  540MOL0     H74510   9.951  10.529   7.701  1.5893 -1.7626 -1.3831
  540MOL0     H74511   9.935  10.440   7.544 -1.7866 -4.0666  0.3184
  540MOL0     H74512   9.725  10.407   7.759 -0.6890  0.4042 -1.1573
  540MOL0     H74513   9.737  10.334   7.602 -0.3967 -0.2925  0.4315
  540MOL0     H74514   9.804  10.157   7.715  0.2688  0.1798 -0.7778
  540MOL0     H74515   9.849  10.252   7.858  1.7981  1.4286 -0.7224
  540MOL0     H74516  10.225  10.231   7.705 -0.0324  0.1632  2.8622
  540MOL0     H74517   9.664  10.790   7.509 -1.8567 -1.6359 -1.0775
  540MOL0     H74518   9.558  10.949   7.390  0.4078 -0.6511  0.3572
  540MOL0     H74519   9.379  10.992   7.416 -0.3818 -0.7685  1.7360
  540MOL0     H74520   9.501  11.089   7.493 -0.2220 -0.3771 -1.2162
  541MOL0     O74521   7.811   1.950   4.220  0.9332 -0.7347  0.2055
  541MOL0     C74522   7.713   1.948   4.291 -0.2794 -0.5321  0.5676
  541MOL0     O74523   7.708   1.995   4.423  0.1152 -0.4585 -0.0345
  541MOL0     C74524   7.821   2.050   4.479  0.0175 -0.4520 -0.0114
  541MOL0     C74525   7.805   2.140   4.585  0.0208 -0.0159 -0.1420
  541MOL0     C74526   7.915   2.188   4.661  1.0531  0.4293 -0.7837
  541MOL0     C74527   8.041   2.163   4.627 -0.9589  1.5086  0.3184
  541MOL0     O74528   8.151   2.209   4.701 -0.3510  0.1278  0.4293
  541MOL0     C74529   8.196   2.344   4.683  0.3486 -0.6567  0.2329
  541MOL0     C74530   8.296   2.359   4.791  0.9437 -0.1513  0.0731
  541MOL0     C74531   8.406   2.253   4.756  0.2451  0.5964 -0.1454
  541MOL0     C74532   8.534   2.292   4.836 -0.2443 -0.4236  0.6347
  541MOL0     C74533   8.641   2.196   4.792  0.5446 -0.0147 -0.6985
  541MOL0     C74534   8.783   2.247   4.823 -0.1061  0.0414 -0.0201
  541MOL0     C74535   8.894   2.148   4.781 -0.5281  0.1262  0.1025
  541MOL0     C74536   8.929   2.047   4.894  0.7648 -0.7554 -0.5392
  541MOL0     N74537   9.010   1.939   4.849  0.5402 -0.1946  0.3497
  541MOL0     C74538   9.018   1.814   4.904 -0.2304 -0.4723  0.1088
  541MOL0     C74539   9.118   1.744   4.840 -0.3285 -0.3446  0.7138
  541MOL0     C74540   9.176   1.604   4.875 -0.3267 -0.3207  1.0621
  541MOL0     C74541   9.096   1.542   4.998 -0.2550 -0.2523 -0.3976
  541MOL0     C74542   9.151   1.412   5.063  0.5080  0.3246  0.2092
  541MOL0     C74543   9.162   1.309   4.951 -0.8789  0.4014  0.2035
  541MOL0     O74544   9.195   1.181   5.003  0.7999 -0.0125 -0.3789
  541MOL0     C74545   9.327   1.145   5.028  1.2606 -0.2027 -0.2415
  541MOL0     C74546   9.429   1.243   5.026 -0.4241  0.5484  0.6498
  541MOL0     C74547   9.564   1.199   5.045  0.1537 -0.4751 -1.2112
  541MOL0     C74548   9.664   1.308   5.027 -1.2199 -0.0926  0.0788
  541MOL0     C74549   9.590   1.065   5.080 -0.1361  0.7337  0.4994
  541MOL0     C74550   9.726   1.022   5.131 -0.4758 -0.3641 -0.3985
  541MOL0     O74551   9.815   1.118   5.170 -0.1511  0.1153 -0.0885
  541MOL0     C74552   9.946   1.084   5.187 -0.2721  0.1740 -0.9467
  541MOL0     C74553   9.987   1.002   5.291 -0.3014  0.3716  0.4079
  541MOL0     C74554  10.129   0.990   5.312 -0.5592 -0.0945 -0.1600
  541MOL0     C74555  10.229   1.051   5.234  0.1756 -0.0909 -0.8346
  541MOL0     O74556  10.358   1.038   5.281  1.1879 -0.1823 -0.0018
  541MOL0     C74557  10.459   1.113   5.209  0.0148  0.0293 -0.3980
  541MOL0     C74558  10.597   1.096   5.280  0.7578  0.1097  0.3343
  541MOL0     C74559  10.691   1.188   5.202  0.5775  0.1472 -0.4212
  541MOL0     C74560  10.832   1.195   5.276 -0.0568 -0.1465 -0.6459
  541MOL0     C74561  10.920   1.074   5.251  0.5405 -0.2643  0.5375
  541MOL0     C74562  11.066   1.122   5.244 -0.0654 -0.1351 -0.5061
  541MOL0     C74563  11.173   1.010   5.276 -0.7766 -0.3949 -0.4305
  541MOL0     C74564  11.308   1.077   5.283  0.2177 -0.0923 -0.4674
  541MOL0    Cl74565  11.359   1.157   5.135  0.0954 -0.3761 -0.2240
  541MOL0     C74566  10.183   1.132   5.128  0.4983 -0.6392  0.3804
  541MOL0     C74567  10.046   1.142   5.110  0.0750 -1.4665 -0.2776
  541MOL0     O74568   9.744   0.899   5.142  0.0626 -0.3021  0.0104
  541MOL0     C74569   9.480   0.976   5.090 -0.7266 -0.2764 -0.5589
  541MOL0     C74570   9.355   1.015   5.059  1.1943 -0.6800  0.4752
  541MOL0     N74571   9.184   1.834   4.752  0.1104 -0.5226 -0.1920
  541MOL0     N74572   9.114   1.942   4.757  0.6818  0.1010  0.2521
  541MOL0     C74573   8.062   2.074   4.520  0.1976  0.2155 -0.0718
  541MOL0     C74574   7.951   2.021   4.448  0.5316 -1.0775 -0.6429
  541MOL0     C74575   7.588   1.874   4.246  0.0556  0.1526 -0.0586
  541MOL0     C74576   7.485   1.885   4.330 -0.2273 -0.3252 -0.2947
  541MOL0     C74577   7.360   1.824   4.303 -0.3027  0.2894  0.2573
  541MOL0     C74578   7.338   1.742   4.183  0.0230 -0.7216 -0.9925
  541MOL0     O74579   7.205   1.711   4.162 -0.2475 -0.9084 -0.2855
  541MOL0     C74580   7.160   1.712   4.023  0.1385 -0.1814 -0.1731
  541MOL0     C74581   7.134   1.852   3.971 -0.1575  0.3514 -0.1705
  541MOL0     C74582   7.014   1.918   4.029  0.1929 -0.4396  0.4264
  541MOL0     C74583   6.881   1.843   3.998  0.4426  0.6679 -0.1075
  541MOL0     C74584   6.838   1.835   3.859 -0.1175  0.2463  0.4692
  541MOL0     C74585   6.796   1.830   3.746 -0.0691 -0.6061 -0.4230
  541MOL0     C74586   7.445   1.726   4.096  0.6184 -0.4175  0.2897
  541MOL0     C74587   7.574   1.780   4.135  0.9233 -0.0803 -0.1756
  541MOL0     C74588   7.695   1.756   4.045  0.0476 -0.1124  0.4214
  541MOL0     H74589   7.702   2.165   4.611  0.9267  3.6905  0.5129
  541MOL0     H74590   7.900   2.256   4.744 -1.3652  0.6950 -1.3625
  541MOL0     H74591   8.106   2.407   4.679  1.6464  1.2560 -2.9730
  541MOL0     H74592   8.248   2.367   4.590  0.8165  3.2315  1.2894
  541MOL0     H74593   8.339   2.460   4.781  0.7259 -0.1962 -1.5159
  541MOL0     H74594   8.256   2.351   4.893  2.8755  2.2245  1.1220
  541MOL0     H74595   8.376   2.149   4.772 -2.3067  1.3439  0.4053
  541MOL0     H74596   8.436   2.262   4.651 -0.4224 -0.6408 -0.4689
  541MOL0     H74597   8.570   2.393   4.813 -0.1224 -0.3017  1.3361
  541MOL0     H74598   8.512   2.279   4.942  1.2831  2.2704  1.3918
  541MOL0     H74599   8.642   2.162   4.688  1.7042 -2.1166 -0.0578
  541MOL0     H74600   8.631   2.102   4.847 -0.3644  0.4275 -0.0658
  541MOL0     H74601   8.794   2.338   4.764  0.3226 -0.4478 -0.7122
  541MOL0     H74602   8.793   2.264   4.930 -3.2413  1.2293  0.1981
  541MOL0     H74603   8.981   2.211   4.763  0.6184 -1.5508 -0.5227
  541MOL0     H74604   8.872   2.086   4.693  2.0576 -1.5813  0.5718
  541MOL0     H74605   8.970   2.106   4.977 -0.8012  0.2268 -0.4284
  541MOL0     H74606   8.837   2.006   4.935  1.4814 -0.1052  1.8716
  541MOL0     H74607   8.950   1.770   4.977 -0.6995 -0.4431 -0.3052
  541MOL0     H74608   9.282   1.600   4.903 -0.5770 -0.6395  2.0224
  541MOL0     H74609   9.177   1.545   4.783  0.7909  1.4931 -0.1347
  541MOL0     H74610   9.086   1.622   5.072 -1.3110 -0.4389 -0.3299
  541MOL0     H74611   8.992   1.519   4.974 -0.2303 -0.4198 -0.3461
  541MOL0     H74612   9.234   1.433   5.131  0.6939  1.8576 -0.4663
  541MOL0     H74613   9.069   1.382   5.129  2.6525 -2.0534  2.0157
  541MOL0     H74614   9.065   1.307   4.901 -0.5731  0.9982 -0.4152
  541MOL0     H74615   9.239   1.342   4.881  0.7513 -0.5408  1.4675
  541MOL0     H74616   9.428   1.348   4.999  2.0084  0.9206  1.7019
  541MOL0     H74617   9.765   1.275   5.000 -0.6389 -0.8491  2.8071
  541MOL0     H74618   9.677   1.359   5.123  1.1240 -1.5927  0.6580
  541MOL0     H74619   9.626   1.378   4.952 -1.3233  0.0883  0.2995
  541MOL0     H74620   9.916   0.947   5.353  0.2316  0.3065  0.9657
  541MOL0     H74621  10.175   0.926   5.387  1.6884 -0.3274 -1.6528
  541MOL0     H74622  10.476   1.084   5.105 -2.8289  0.7317 -1.1471
  541MOL0     H74623  10.431   1.218   5.219 -0.7984 -0.3419  1.5344
  541MOL0     H74624  10.590   1.126   5.385 -1.7243  1.2974 -0.1126
  541MOL0     H74625  10.615   0.988   5.276 -1.9212 -0.3647 -1.2606
  541MOL0     H74626  10.642   1.285   5.211 -1.9225 -1.0996  0.5178
  541MOL0     H74627  10.709   1.166   5.096 -1.8600  0.3952 -0.9436
  541MOL0     H74628  10.821   1.218   5.382  0.8450 -0.0887 -0.5626
  541MOL0     H74629  10.876   1.287   5.235 -0.4350  0.4346  0.2024
  541MOL0     H74630  10.904   1.002   5.331  1.4603  1.1546  2.0617
  541MOL0     H74631  10.904   1.030   5.152  2.4392  1.3726 -0.5847
  541MOL0     H74632  11.071   1.193   5.327 -0.1694 -0.8099  0.0948
  541MOL0     H74633  11.098   1.170   5.152  1.4628 -0.5428 -0.2198
  541MOL0     H74634  11.167   0.946   5.188 -2.3985  0.3539 -0.9073
  541MOL0     H74635  11.143   0.953   5.364  1.3368  0.2586  0.7838
  541MOL0     H74636  11.384   1.007   5.320  1.7764  1.3159 -0.8983
  541MOL0     H74637  11.307   1.159   5.355  1.5926  0.0856 -0.6202
  541MOL0     H74638  10.247   1.185   5.058  0.8811  0.4979  1.5626
  541MOL0     H74639  10.011   1.210   5.033 -0.9827 -1.7952 -0.1089
  541MOL0     H74640   9.503   0.874   5.120 -0.6658  0.0486  0.5466
  541MOL0     H74641   9.278   0.938   5.054 -0.3426  0.8044  0.3477
  541MOL0     H74642   8.166   2.048   4.507  0.7577  1.5692  1.4173
  541MOL0     H74643   7.981   1.951   4.370 -0.2930  0.0583 -2.0305
  541MOL0     H74644   7.488   1.953   4.415  0.1197  2.3144 -2.2903
  541MOL0     H74645   7.283   1.844   4.377  1.1386 -1.5566  2.3917
  541MOL0     H74646   7.229   1.655   3.960 -0.9531 -0.7191 -0.9258
  541MOL0     H74647   7.065   1.658   4.025  0.4174 -0.7462  2.7150
  541MOL0     H74648   7.119   1.839   3.863  3.8998 -0.8063 -0.7655
  541MOL0     H74649   7.229   1.902   3.988 -0.1847  0.9556 -1.6593
  541MOL0     H74650   7.020   1.937   4.136 -1.0998  0.0384  0.4240
  541MOL0     H74651   7.018   2.014   3.977  0.9717 -0.8350 -0.2748
  541MOL0     H74652   6.801   1.884   4.061  1.9571 -0.1673  2.4847
  541MOL0     H74653   6.885   1.740   4.034 -0.6193  0.8258  0.5153
  541MOL0     H74654   6.766   1.830   3.643 -1.1421  2.2408 -0.2154
  541MOL0     H74655   7.431   1.671   4.003  0.8975 -0.2316  0.1353
  541MOL0     H74656   7.773   1.718   4.113  1.3253  0.5197 -0.6622
  541MOL0     H74657   7.680   1.686   3.963  0.0833 -0.9748  1.1291
  541MOL0     H74658   7.709   1.859   4.012 -0.7694 -0.0780  0.1547
  542MOL0     O74659   9.934   0.521   6.178  0.5271 -0.2719 -0.5690
  542MOL0     C74660   9.866   0.614   6.150  0.6536 -0.2403  0.2072
  542MOL0     O74661   9.910   0.737   6.142 -0.5191  0.1268  0.3439
  542MOL0     C74662  10.045   0.765   6.166  0.0602  0.2474  0.3208
  542MOL0     C74663  10.103   0.746   6.290 -0.0688  0.0358 -0.3447
  542MOL0     C74664  10.237   0.759   6.312  0.3222 -0.1079  0.1276
  542MOL0     C74665  10.312   0.794   6.202  0.4183  0.1710 -0.0262
  542MOL0     O74666  10.446   0.818   6.234  0.0181 -0.1160 -0.3854
  542MOL0     C74667  10.527   0.871   6.126 -0.0224 -0.3360 -0.8738
  542MOL0     C74668  10.676   0.882   6.168 -1.1134  0.9368 -0.1100
  542MOL0     C74669  10.737   0.742   6.200  0.3112 -0.6127  0.1033
  542MOL0     C74670  10.891   0.750   6.223 -0.0750 -0.0303 -0.9230
  542MOL0     C74671  10.945   0.606   6.262  0.3542 -0.0502  0.0433
  542MOL0     C74672  11.095   0.614   6.288 -0.3892  0.8980  0.4999
  542MOL0     C74673  11.164   0.482   6.328  0.2576 -0.5534  0.6752
  542MOL0     C74674  11.317   0.473   6.319  0.3631 -0.5436  0.0790
  542MOL0     N74675  11.374   0.574   6.405 -0.3577  0.3736 -0.5176
  542MOL0     C74676  11.426   0.559   6.534  0.1559 -0.4475 -0.8876
  542MOL0     C74677  11.505   0.668   6.556 -0.5684  0.7239  0.1196
  542MOL0     C74678  11.603   0.704   6.664  0.0360 -0.2685 -0.1050
  542MOL0     C74679  11.607   0.607   6.787  0.0900  0.3940  0.7108
  542MOL0     C74680  11.720   0.627   6.894  0.4173 -0.0221 -0.9170
  542MOL0     C74681  11.855   0.618   6.820 -0.6527  0.5042 -0.0607
  542MOL0     O74682  11.915   0.738   6.779  0.7771  0.3207 -0.2552
  542MOL0     C74683  12.025   0.729   6.697  0.0944 -0.0576  0.9256
  542MOL0     C74684  12.078   0.840   6.625 -0.0008 -0.1747 -0.6237
  542MOL0     C74685  12.191   0.834   6.544 -0.8526  0.0558  0.2845
  542MOL0     C74686  12.221   0.963   6.473  0.0247  0.0098 -0.5390
  542MOL0     C74687  12.256   0.711   6.532  0.4740  0.0413 -0.1086
  542MOL0     C74688  12.365   0.693   6.438 -0.0673  0.2506  0.8047
  542MOL0     O74689  12.344   0.738   6.314  0.2892 -0.2225  0.1648
  542MOL0     C74690  12.444   0.727   6.215  0.0082  0.0138 -1.0193
  542MOL0     C74691  12.519   0.834   6.165 -0.1114 -0.1294  0.2950
  542MOL0     C74692  12.621   0.814   6.074  0.1433  0.4553  0.2462
  542MOL0     C74693  12.642   0.683   6.016 -0.7351 -0.9012 -0.2545
  542MOL0     O74694  12.748   0.662   5.934  0.4813 -0.1137 -0.1889
  542MOL0     C74695  12.874   0.722   5.975  0.2196  0.2913 -0.1593
  542MOL0     C74696  12.986   0.684   5.873 -0.2967 -0.3096 -0.3211
  542MOL0     C74697  13.104   0.771   5.926  0.7911 -0.5975  0.2223
  542MOL0     C74698  13.237   0.724   5.858  0.0978  0.2805  0.0767
  542MOL0     C74699  13.370   0.802   5.889  0.1149  0.7393 -0.5403
  542MOL0     C74700  13.497   0.722   5.838 -0.2380 -0.7148 -0.3691
  542MOL0     C74701  13.525   0.582   5.913 -0.0295 -1.2164  0.3595
  542MOL0     C74702  13.652   0.593   5.991 -0.8678 -0.8582  0.6802
  542MOL0    Cl74703  13.678   0.453   6.102  0.0260 -0.2824  0.1131
  542MOL0     C74704  12.570   0.577   6.059 -0.0458 -0.8751  0.1177
  542MOL0     C74705  12.466   0.598   6.154  0.5578  0.0458 -0.1864
  542MOL0     O74706  12.463   0.637   6.480 -0.3615 -0.4973  0.4996
  542MOL0     C74707  12.204   0.599   6.596 -0.6800 -0.1766 -0.0356
  542MOL0     C74708  12.094   0.608   6.686 -0.9421 -0.4518 -0.2728
  542MOL0     N74709  11.494   0.746   6.444  0.5429  0.2638  0.3045
  542MOL0     N74710  11.421   0.691   6.357 -1.0392  0.2277 -0.0172
  542MOL0     C74711  10.259   0.817   6.073 -0.0655  0.5994 -0.3255
  542MOL0     C74712  10.120   0.806   6.056 -0.0078 -0.1343 -0.4191
  542MOL0     C74713   9.720   0.598   6.142  0.0576  0.2828 -0.8917
  542MOL0     C74714   9.664   0.484   6.202 -0.4614  0.0335 -0.0953
  542MOL0     C74715   9.531   0.469   6.219  0.4446 -0.9777 -0.5208
  542MOL0     C74716   9.439   0.557   6.170  0.7011 -0.0659  0.5277
  542MOL0     O74717   9.302   0.561   6.180  0.4174  0.0351  0.3294
  542MOL0     C74718   9.243   0.460   6.264  0.6217 -0.0914  0.1583
  542MOL0     C74719   9.091   0.488   6.251 -0.4325  0.2688  0.1785
  542MOL0     C74720   9.012   0.359   6.257  0.4909  0.2638  0.3699
  542MOL0     C74721   8.858   0.398   6.249  0.0458 -0.3479 -0.8830
  542MOL0     C74722   8.782   0.276   6.251 -1.5787  0.0780 -0.0711
  542MOL0     C74723   8.723   0.173   6.253 -0.5579 -0.0870  0.4556
  542MOL0     C74724   9.487   0.664   6.101  0.6230 -0.5700  0.1906
  542MOL0     C74725   9.628   0.686   6.080 -0.6630 -0.5523 -0.1202
  542MOL0     C74726   9.670   0.803   5.992  0.2504 -0.5248 -0.5377
  542MOL0     H74727  10.050   0.730   6.383  2.3650 -0.6167  1.0030
  542MOL0     H74728  10.286   0.748   6.408 -1.0422 -2.3109  0.6366
  542MOL0     H74729  10.487   0.971   6.106  0.3770  0.1531  0.6418
  542MOL0     H74730  10.514   0.814   6.034 -1.2602  0.3444 -1.1482
  542MOL0     H74731  10.736   0.929   6.089  4.2432 -2.9099  1.0887
  542MOL0     H74732  10.684   0.941   6.259  0.4845 -0.8463  0.9928
  542MOL0     H74733  10.691   0.693   6.287  1.5691 -2.2263 -0.0874
  542MOL0     H74734  10.711   0.671   6.121 -0.9909 -0.4304  0.3368
  542MOL0     H74735  10.937   0.797   6.135 -0.5495  0.8349 -0.7151
  542MOL0     H74736  10.913   0.820   6.304 -1.0981 -0.4213 -0.2938
  542MOL0     H74737  10.925   0.541   6.177 -2.3177 -3.2514  2.7886
  542MOL0     H74738  10.886   0.570   6.347 -1.7935 -1.5309 -1.9538
  542MOL0     H74739  11.137   0.660   6.198 -3.0821  0.7887 -0.9318
  542MOL0     H74740  11.118   0.694   6.359  0.6946 -1.3510  2.8206
  542MOL0     H74741  11.118   0.399   6.274  0.3712  0.6833 -1.4496
  542MOL0     H74742  11.131   0.465   6.431 -4.1434 -0.3751 -0.5175
  542MOL0     H74743  11.355   0.371   6.327  2.3927  0.2473  1.1772
  542MOL0     H74744  11.347   0.497   6.217 -0.8935  0.4034 -0.0961
  542MOL0     H74745  11.404   0.477   6.602  0.1464  1.3280  1.4077
  542MOL0     H74746  11.577   0.802   6.705  0.2429 -0.1157 -0.3395
  542MOL0     H74747  11.697   0.714   6.609 -0.5462  0.3385 -1.0355
  542MOL0     H74748  11.509   0.627   6.832 -0.7669  3.1474 -2.0022
  542MOL0     H74749  11.617   0.505   6.748 -0.7639  0.8022 -0.6519
  542MOL0     H74750  11.707   0.722   6.947  1.2326 -1.3686  1.8938
  542MOL0     H74751  11.710   0.539   6.958  2.1318 -1.0453 -1.9689
  542MOL0     H74752  11.924   0.579   6.896 -1.1694  2.1334  1.3074
  542MOL0     H74753  11.846   0.539   6.744 -0.4717 -1.6804  2.0664
  542MOL0     H74754  12.028   0.933   6.647  3.0668  1.3321  0.6898
  542MOL0     H74755  12.218   1.048   6.542  1.6013 -1.2629  1.2096
  542MOL0     H74756  12.164   0.965   6.380 -0.4402 -2.7838 -0.3977
  542MOL0     H74757  12.325   0.955   6.440  0.0978  2.0733 -0.9834
  542MOL0     H74758  12.505   0.931   6.213  2.0641  1.0396 -1.3056
  542MOL0     H74759  12.676   0.901   6.040 -1.8979  1.2903 -1.0969
  542MOL0     H74760  12.873   0.831   5.976 -0.2653  0.3257 -1.5666
  542MOL0     H74761  12.908   0.688   6.073 -1.6794 -2.6558 -0.3685
  542MOL0     H74762  13.004   0.577   5.883 -1.3472 -0.3903  0.9329
  542MOL0     H74763  12.966   0.715   5.770 -2.0495  1.5373  0.5085
  542MOL0     H74764  13.105   0.755   6.034 -0.6022 -0.9916  0.2023
  542MOL0     H74765  13.081   0.876   5.905 -0.6454 -0.9662 -0.2030
  542MOL0     H74766  13.221   0.730   5.749 -1.8317  1.8911  0.3878
  542MOL0     H74767  13.257   0.621   5.889  0.5766  0.6904  1.1427
  542MOL0     H74768  13.369   0.901   5.842 -2.7041  0.5999 -0.9425
  542MOL0     H74769  13.367   0.807   5.999 -4.9991  1.6965 -0.4816
  542MOL0     H74770  13.584   0.787   5.829 -1.0990  0.7418  1.2752
  542MOL0     H74771  13.468   0.686   5.739 -3.1473 -0.5123  0.3249
  542MOL0     H74772  13.525   0.498   5.842 -2.2220  0.1245 -1.4057
  542MOL0     H74773  13.440   0.552   5.975 -1.2438  1.3632  0.0688
  542MOL0     H74774  13.656   0.686   6.048  1.1206 -0.7354  0.4011
  542MOL0     H74775  13.737   0.597   5.922 -1.3406  0.1973  0.1412
  542MOL0     H74776  12.605   0.479   6.028  0.7951 -0.6204  0.2180
  542MOL0     H74777  12.412   0.512   6.194  0.4063  0.0890 -0.2975
  542MOL0     H74778  12.251   0.501   6.585  3.5680  1.4599  1.3656
  542MOL0     H74779  12.070   0.510   6.726 -1.4267 -0.7247 -1.1944
  542MOL0     H74780  10.320   0.856   5.992  0.9561 -0.2601  0.0143
  542MOL0     H74781  10.065   0.848   5.972 -3.6218 -2.0230  0.7834
  542MOL0     H74782   9.721   0.404   6.248 -2.0857 -1.0711  0.0634
  542MOL0     H74783   9.495   0.372   6.251 -0.6513 -1.2854 -2.5199
  542MOL0     H74784   9.259   0.359   6.225  0.2093  0.9201 -2.8779
  542MOL0     H74785   9.293   0.486   6.358  1.7738  0.8523 -0.6869
  542MOL0     H74786   9.059   0.524   6.153 -4.0852 -2.6510  0.0779
  542MOL0     H74787   9.051   0.553   6.330  0.3828  1.2650 -0.1983
  542MOL0     H74788   9.027   0.295   6.169  0.9279  0.6526  0.1592
  542MOL0     H74789   9.023   0.297   6.347 -0.3392  0.0531  0.3342
  542MOL0     H74790   8.846   0.455   6.157  0.1606 -2.5969 -2.3400
  542MOL0     H74791   8.827   0.460   6.335 -0.2036  0.1467 -1.3249
  542MOL0     H74792   8.661   0.086   6.266  1.0504 -1.3408  0.1233
  542MOL0     H74793   9.418   0.740   6.066  2.3953  0.9912 -0.1217
  542MOL0     H74794   9.773   0.796   5.954 -0.3603 -0.6696 -2.2874
  542MOL0     H74795   9.602   0.827   5.909 -1.8906  0.8074  1.4703
  542MOL0     H74796   9.670   0.885   6.064  4.4380 -1.4915  0.8463
  543MOL0     O74797   6.922   3.412   3.588 -0.0170  0.1836 -0.0777
  543MOL0     C74798   6.864   3.301   3.581  0.1893 -0.2609 -0.0158
  543MOL0     O74799   6.919   3.174   3.590 -0.3668 -0.3511  0.2986
  543MOL0     C74800   7.054   3.148   3.579 -0.5155  0.2200 -0.4464
  543MOL0     C74801   7.100   3.036   3.646 -0.2098  0.2877  0.1456
  543MOL0     C74802   7.236   3.007   3.632  1.3119  0.0891  0.7756
  543MOL0     C74803   7.329   3.086   3.568  0.6396 -0.0911 -0.5495
  543MOL0     O74804   7.452   3.030   3.551  0.2291 -0.0937  0.5895
  543MOL0     C74805   7.523   3.079   3.446 -0.1188 -0.4225 -0.1571
  543MOL0     C74806   7.658   3.005   3.435  0.0756  0.2564  0.0571
  543MOL0     C74807   7.746   3.051   3.312  0.2826 -0.9984 -0.1058
  543MOL0     C74808   7.890   2.996   3.311  0.3928 -1.1081  0.7288
  543MOL0     C74809   7.963   3.078   3.202  0.1542  0.5292 -0.2013
  543MOL0     C74810   8.100   3.009   3.179  0.2684  0.3909 -0.9634
  543MOL0     C74811   8.201   3.006   3.295 -0.6036  0.0744 -0.5087
  543MOL0     C74812   8.345   2.987   3.246  0.5987 -0.4621 -0.8562
  543MOL0     N74813   8.445   2.950   3.352 -0.0246 -0.6485 -0.3039
  543MOL0     C74814   8.457   2.818   3.388 -0.3633  0.3346 -0.9085
  543MOL0     C74815   8.551   2.820   3.482  0.3583  0.2644 -0.6464
  543MOL0     C74816   8.599   2.699   3.564 -0.4199  0.0846  0.7569
  543MOL0     C74817   8.658   2.747   3.699  1.0339  0.3315 -0.1526
  543MOL0     C74818   8.679   2.638   3.813 -0.0242 -0.3636  0.2109
  543MOL0     C74819   8.802   2.560   3.789 -0.0959  0.1843  0.2085
  543MOL0     O74820   8.838   2.461   3.889  0.5252  0.1008 -0.4686
  543MOL0     C74821   8.965   2.416   3.900 -0.2684 -0.2957  0.7091
  543MOL0     C74822   9.070   2.445   3.810  0.3866  0.5057 -0.3022
  543MOL0     C74823   9.200   2.389   3.819  0.0660 -0.2179  0.3503
  543MOL0     C74824   9.297   2.412   3.699 -0.9768  0.2205  0.7331
  543MOL0     C74825   9.233   2.319   3.944  0.5702 -0.1574 -0.0393
  543MOL0     C74826   9.366   2.261   3.976  0.4326 -0.2964 -0.6582
  543MOL0     O74827   9.375   2.169   4.077 -0.0615 -0.0791  0.2083
  543MOL0     C74828   9.486   2.088   4.098  0.7338 -0.4895  0.4408
  543MOL0     C74829   9.466   1.989   4.191  1.2936 -0.0879  0.1166
  543MOL0     C74830   9.556   1.902   4.234  0.2423  0.9119  0.9406
  543MOL0     C74831   9.684   1.897   4.166 -0.1264  0.2737 -0.7104
  543MOL0     O74832   9.779   1.814   4.214  0.1411 -0.1504  0.2744
  543MOL0     C74833   9.902   1.795   4.134  0.1106 -0.4590  0.3327
  543MOL0     C74834  10.003   1.730   4.227 -0.0594  0.8858  0.1739
  543MOL0     C74835  10.003   1.573   4.210 -1.1625 -0.1303  0.0499
  543MOL0     C74836  10.120   1.511   4.283 -0.7060 -0.2959 -0.5152
  543MOL0     C74837  10.124   1.522   4.433  0.0882  0.2483 -0.4310
  543MOL0     C74838   9.991   1.490   4.506  0.3762 -1.1081  0.3328
  543MOL0     C74839  10.015   1.428   4.641  0.3650 -0.0572  0.6252
  543MOL0     C74840   9.882   1.387   4.700  0.0241  0.8394 -0.1536
  543MOL0    Cl74841   9.836   1.508   4.820 -0.1459  0.0783 -0.1868
  543MOL0     C74842   9.699   1.996   4.062  0.4652 -0.4685 -0.3499
  543MOL0     C74843   9.606   2.094   4.026 -0.6676 -0.4995  0.0547
  543MOL0     O74844   9.455   2.312   3.911 -0.4981 -0.3175 -0.8494
  543MOL0     C74845   9.124   2.294   4.034  0.8944 -0.0459 -0.5366
  543MOL0     C74846   8.992   2.344   4.013 -0.2489  0.1658  0.0532
  543MOL0     N74847   8.595   2.951   3.508  0.2205 -0.6861 -0.2388
  543MOL0     N74848   8.534   3.027   3.427  0.1818  0.3508  0.2392
  543MOL0     C74849   7.277   3.201   3.510 -0.0505 -0.0942  0.4865
  543MOL0     C74850   7.140   3.235   3.515 -0.7259 -1.3544  0.5525
  543MOL0     C74851   6.710   3.304   3.559  0.5111 -0.2002 -0.4472
  543MOL0     C74852   6.648   3.412   3.491  0.2507  0.0412 -0.2096
  543MOL0     C74853   6.511   3.422   3.479  0.1025  0.6347  0.0645
  543MOL0     C74854   6.435   3.313   3.502 -0.5112  0.3967 -0.8394
  543MOL0     O74855   6.301   3.310   3.466  0.2807 -0.3882 -0.1695
  543MOL0     C74856   6.258   3.397   3.365  0.7951 -1.1618 -0.9828
  543MOL0     C74857   6.104   3.391   3.350  0.0504 -0.1150  0.1820
  543MOL0     C74858   6.053   3.497   3.243 -0.5586  0.2934 -0.7855
  543MOL0     C74859   5.907   3.474   3.222  0.0413  1.0165  0.6199
  543MOL0     C74860   5.859   3.576   3.126  0.1147  0.2675  0.3719
  543MOL0     C74861   5.805   3.657   3.053  0.0775 -0.6703  0.6840
  543MOL0     C74862   6.488   3.208   3.573  0.2884 -0.2026 -0.8162
  543MOL0     C74863   6.627   3.203   3.601  0.2692  1.1150 -0.6695
  543MOL0     C74864   6.666   3.085   3.690 -0.9262 -0.5072  0.3365
  543MOL0     H74865   7.032   2.971   3.700  0.3450 -0.8989 -0.5561
  543MOL0     H74866   7.272   2.910   3.665  2.0575 -0.1747 -0.7141
  543MOL0     H74867   7.555   3.183   3.452  0.2766 -0.5758  0.4570
  543MOL0     H74868   7.471   3.068   3.350 -1.2384  1.0551  0.2505
  543MOL0     H74869   7.711   3.013   3.530 -1.7693 -0.8534  1.2451
  543MOL0     H74870   7.639   2.898   3.420  2.7723 -0.4339  0.9811
  543MOL0     H74871   7.692   3.027   3.219 -0.3891  3.4025 -1.0913
  543MOL0     H74872   7.753   3.160   3.312 -0.4338 -0.8559 -2.8909
  543MOL0     H74873   7.941   3.010   3.407  0.9256  0.8260  0.1989
  543MOL0     H74874   7.889   2.889   3.288  1.0020 -0.8236 -0.7271
  543MOL0     H74875   7.985   3.181   3.232  0.8784  1.0654 -2.4057
  543MOL0     H74876   7.904   3.084   3.110  0.3430 -0.1360 -0.3728
  543MOL0     H74877   8.063   2.907   3.161 -0.7054  0.4919  0.3158
  543MOL0     H74878   8.155   3.052   3.095  0.0022  4.0700  0.6033
  543MOL0     H74879   8.176   2.924   3.363  0.2536  0.7163  0.6179
  543MOL0     H74880   8.202   3.105   3.342  0.5271 -1.0016  1.9469
  543MOL0     H74881   8.350   2.911   3.168  1.5438 -0.2339 -1.0305
  543MOL0     H74882   8.370   3.079   3.193 -0.1494 -0.7944 -1.8353
  543MOL0     H74883   8.414   2.724   3.353  0.8524 -0.7810  0.4379
  543MOL0     H74884   8.677   2.646   3.508 -0.0805  0.0069  1.2936
  543MOL0     H74885   8.518   2.626   3.573 -0.6121  0.0277 -1.0281
  543MOL0     H74886   8.759   2.787   3.683  0.0924  3.4022  0.9853
  543MOL0     H74887   8.591   2.823   3.738  0.7687  1.4689 -2.6510
  543MOL0     H74888   8.685   2.687   3.910 -0.9224  2.5702 -1.0976
  543MOL0     H74889   8.591   2.574   3.807 -0.6342  0.5404 -3.5909
  543MOL0     H74890   8.810   2.516   3.690 -2.1374 -2.0877  0.9712
  543MOL0     H74891   8.877   2.640   3.791  0.2696 -0.1656  1.7177
  543MOL0     H74892   9.052   2.516   3.729  1.8941 -0.4909 -1.5730
  543MOL0     H74893   9.365   2.494   3.724  3.4068 -2.4724 -1.2536
  543MOL0     H74894   9.239   2.432   3.608  0.3296  0.7671 -0.0051
  543MOL0     H74895   9.366   2.329   3.682 -0.4667  0.3250  2.1700
  543MOL0     H74896   9.362   1.979   4.222 -0.5176  0.0563 -4.9471
  543MOL0     H74897   9.537   1.823   4.305  3.9254 -0.4691  0.6437
  543MOL0     H74898   9.886   1.736   4.043 -0.3095 -0.9113  0.6971
  543MOL0     H74899   9.941   1.893   4.104 -0.9092  0.1911  1.0886
  543MOL0     H74900  10.100   1.777   4.211  1.6642 -2.1594  0.8291
  543MOL0     H74901   9.984   1.749   4.333 -1.5337  1.2036 -0.1226
  543MOL0     H74902  10.006   1.548   4.104  0.4493  2.7757 -0.7059
  543MOL0     H74903   9.913   1.534   4.258  0.8348 -1.0094  3.3594
  543MOL0     H74904  10.216   1.550   4.247  0.3766 -2.1605  0.1931
  543MOL0     H74905  10.137   1.407   4.255  4.7224 -0.0328  0.7913
  543MOL0     H74906  10.195   1.446   4.466  0.7912  0.5856 -1.1164
  543MOL0     H74907  10.161   1.622   4.456  0.0044 -0.1329  1.4857
  543MOL0     H74908   9.923   1.425   4.450  1.4850 -0.3854 -1.9471
  543MOL0     H74909   9.937   1.584   4.520  0.1033 -1.2723  0.3874
  543MOL0     H74910  10.073   1.496   4.704 -0.6278  1.0760  0.3726
  543MOL0     H74911  10.085   1.345   4.628 -0.9875 -0.9581 -1.5251
  543MOL0     H74912   9.889   1.289   4.750  0.1046  1.0277  0.2113
  543MOL0     H74913   9.803   1.382   4.625 -0.8115  2.0413  0.6192
  543MOL0     H74914   9.793   2.016   4.013  0.3368 -1.3086 -0.9685
  543MOL0     H74915   9.629   2.170   3.951  0.4593  1.3895  2.1837
  543MOL0     H74916   9.151   2.242   4.126 -1.7718  0.1864  0.4503
  543MOL0     H74917   8.918   2.320   4.089 -0.1832  0.0967  0.0959
  543MOL0     H74918   7.348   3.274   3.472 -1.7837  2.4261  1.8043
  543MOL0     H74919   7.103   3.328   3.473  1.4660  0.2044  1.8538
  543MOL0     H74920   6.715   3.491   3.458  0.4848 -0.9035 -2.1417
  543MOL0     H74921   6.475   3.511   3.429  0.8051  0.4328 -0.8206
  543MOL0     H74922   6.281   3.499   3.396 -0.2442 -0.8255 -1.2759
  543MOL0     H74923   6.309   3.379   3.270  0.9818 -0.5420 -1.0011
  543MOL0     H74924   6.055   3.419   3.444  0.2984  2.6635 -0.4492
  543MOL0     H74925   6.073   3.289   3.323  1.1178  0.2630 -2.7579
  543MOL0     H74926   6.067   3.603   3.265 -3.2945  1.5669 -4.2056
  543MOL0     H74927   6.114   3.478   3.154 -0.4258 -2.2868 -0.2140
  543MOL0     H74928   5.856   3.497   3.316 -0.8156  2.4904 -0.1614
  543MOL0     H74929   5.884   3.374   3.183 -4.2732  1.9463  0.3258
  543MOL0     H74930   5.748   3.723   2.992  0.2560 -0.8895  0.2751
  543MOL0     H74931   6.421   3.125   3.594 -2.9082  0.9795 -4.9313
  543MOL0     H74932   6.731   3.032   3.619  0.4021  0.2391  0.9622
  543MOL0     H74933   6.725   3.112   3.777 -0.0153  0.1367 -0.4549
  543MOL0     H74934   6.576   3.028   3.715 -2.0777 -0.2095 -2.6417
  544MOL0     O74935  11.164   3.869   9.252 -0.1009 -0.5338 -0.3816
  544MOL0     C74936  11.106   3.962   9.317  0.3292  0.4120 -0.7442
  544MOL0     O74937  11.153   4.013   9.439  0.2112  0.1602 -0.0893
  544MOL0     C74938  11.278   3.966   9.467 -0.5714 -0.1721  0.2307
  544MOL0     C74939  11.296   3.887   9.580  0.0245  0.4248 -0.1583
  544MOL0     C74940  11.422   3.836   9.615 -0.0435 -0.5239 -0.5005
  544MOL0     C74941  11.538   3.864   9.538  0.6271 -0.0397  1.2310
  544MOL0     O74942  11.661   3.794   9.558  0.7959  0.9117 -0.9820
  544MOL0     C74943  11.656   3.703   9.673 -0.5930 -0.6191 -0.2663
  544MOL0     C74944  11.808   3.672   9.703  0.2055 -0.8455  0.2173
  544MOL0     C74945  11.839   3.642   9.849  0.5502 -0.2748  0.1343
  544MOL0     C74946  11.989   3.635   9.893 -0.2320  0.0045 -0.1133
  544MOL0     C74947  12.054   3.521   9.814 -0.4665 -0.7088 -0.4273
  544MOL0     C74948  12.204   3.502   9.851 -0.0037  1.0725  0.8975
  544MOL0     C74949  12.232   3.428   9.984 -0.3154  0.2450 -0.2492
  544MOL0     C74950  12.213   3.284   9.958  1.1702  1.4055 -0.1778
  544MOL0     N74951  12.249   3.196  10.068 -0.1893  0.0824  0.4833
  544MOL0     C74952  12.325   3.086  10.058  0.5569  0.5319 -0.3037
  544MOL0     C74953  12.303   3.012  10.172 -0.9181  0.2874 -0.6016
  544MOL0     C74954  12.363   2.875  10.199 -0.0279  0.4169 -1.1335
  544MOL0     C74955  12.462   2.865  10.326  1.1065 -0.0600  0.1633
  544MOL0     C74956  12.566   2.973  10.324 -0.3257 -0.5955  1.0546
  544MOL0     C74957  12.649   2.983  10.198 -0.9736 -0.6813  0.5354
  544MOL0     O74958  12.780   3.022  10.219  0.3510 -0.1916  0.5201
  544MOL0     C74959  12.865   3.027  10.114 -0.0422  0.3212 -0.1713
  544MOL0     C74960  13.005   3.038  10.157 -0.0983  0.3249  0.3901
  544MOL0     C74961  13.107   3.050  10.072  0.0600 -0.5064  0.7452
  544MOL0     C74962  13.248   3.062  10.138  0.6181  0.3219 -0.3524
  544MOL0     C74963  13.079   3.047   9.932 -0.0297  0.7410  0.0958
  544MOL0     C74964  13.185   3.050   9.821 -0.1761  0.0164  0.2283
  544MOL0     O74965  13.147   3.049   9.696  0.3354 -0.2079  0.6847
  544MOL0     C74966  13.232   3.010   9.590  0.0955  0.2722  1.1554
  544MOL0     C74967  13.173   2.950   9.482  0.8601 -0.4186  0.2047
  544MOL0     C74968  13.240   2.932   9.360 -0.2236 -0.3589 -0.4247
  544MOL0     C74969  13.372   2.978   9.346  0.3597 -0.1058 -0.3753
  544MOL0     O74970  13.427   2.952   9.221  0.0478 -0.1312 -0.1097
  544MOL0     C74971  13.567   2.941   9.223 -0.4516 -0.0781 -0.8690
  544MOL0     C74972  13.633   2.893   9.088 -0.3529  1.2103 -0.5105
  544MOL0     C74973  13.615   2.990   8.974  0.5188 -0.4710 -1.0812
  544MOL0     C74974  13.722   2.976   8.860  1.2967 -0.1075 -0.3850
  544MOL0     C74975  13.693   3.086   8.754 -0.5520 -0.4957 -0.8280
  544MOL0     C74976  13.550   3.094   8.699  0.6296  0.0544  0.5445
  544MOL0     C74977  13.509   2.972   8.609  0.3457 -0.2388  0.6079
  544MOL0     C74978  13.360   2.975   8.577  0.4091  0.3262 -0.2509
  544MOL0    Cl74979  13.309   2.821   8.511  0.0935 -0.4330 -0.1043
  544MOL0     C74980  13.433   3.034   9.462 -0.1307 -1.0301 -0.0815
  544MOL0     C74981  13.362   3.055   9.580  0.1580  0.1899  0.8052
  544MOL0     O74982  13.295   3.022   9.859 -0.5617 -0.5791 -0.5329
  544MOL0     C74983  12.949   3.016   9.884  1.0275  0.3604  0.6977
  544MOL0     C74984  12.836   3.009   9.979 -0.6157  0.0011  0.3526
  544MOL0     N74985  12.229   3.092  10.259 -0.4876 -0.2744  0.2804
  544MOL0     N74986  12.186   3.199  10.192 -0.0549 -0.0909  0.2737
  544MOL0     C74987  11.526   3.959   9.430 -0.1852 -0.7465 -0.6629
  544MOL0     C74988  11.400   4.004   9.397 -0.1598 -0.1779 -0.1689
  544MOL0     C74989  10.982   4.025   9.266  0.2706  0.7685  0.4669
  544MOL0     C74990  10.930   4.136   9.341 -0.5058 -0.3317  0.4751
  544MOL0     C74991  10.807   4.195   9.304 -0.0215 -0.4100  0.0679
  544MOL0     C74992  10.741   4.162   9.186 -0.2750  0.4012 -0.2876
  544MOL0     O74993  10.624   4.211   9.132 -0.1044 -0.3876  0.1548
  544MOL0     C74994  10.552   4.307   9.217  0.7927  0.1330  0.5314
  544MOL0     C74995  10.453   4.389   9.149  0.8580 -0.3972 -0.3950
  544MOL0     C74996  10.341   4.305   9.089  0.1077  0.0357  0.5405
  544MOL0     C74997  10.252   4.398   9.021  0.1344 -0.0142 -0.1231
  544MOL0     C74998  10.134   4.338   8.963  0.4287  0.1921  0.2991
  544MOL0     C74999  10.038   4.268   8.935  0.1012  1.1725 -0.2359
  544MOL0     C75000  10.786   4.050   9.117 -1.1204 -0.0497  0.4742
  544MOL0     C75001  10.902   3.977   9.152 -0.4068  0.2244 -0.6606
  544MOL0     C75002  10.930   3.859   9.068 -0.6224  0.0835 -0.3139
  544MOL0     H75003  11.208   3.853   9.634  1.7719 -1.2328  1.8280
  544MOL0     H75004  11.412   3.762   9.694 -0.0024  0.4418  0.4403
  544MOL0     H75005  11.604   3.610   9.650 -0.4618 -0.8401  0.3236
  544MOL0     H75006  11.612   3.760   9.755  0.9416  0.8370 -0.3827
  544MOL0     H75007  11.841   3.592   9.636  1.9131 -0.2176  0.2579
  544MOL0     H75008  11.862   3.762   9.672 -1.9545  0.4725  0.0766
  544MOL0     H75009  11.789   3.715   9.914  1.5784 -0.5197  1.2274
  544MOL0     H75010  11.793   3.549   9.882  0.3793  0.1281  1.0845
  544MOL0     H75011  12.042   3.730   9.878 -1.3775  1.3852  3.4399
  544MOL0     H75012  12.001   3.616  10.000 -0.0022  1.2055  0.0888
  544MOL0     H75013  12.044   3.552   9.710  1.5198 -2.8409 -1.3214
  544MOL0     H75014  12.007   3.426   9.841  0.7580 -0.7227  1.9747
  544MOL0     H75015  12.254   3.451   9.768  2.0694 -0.6433  3.0346
  544MOL0     H75016  12.250   3.600   9.865 -0.3992  1.3486  0.3013
  544MOL0     H75017  12.167   3.470  10.061  0.9266 -1.1023  1.6323
  544MOL0     H75018  12.326   3.451  10.035 -1.0674  1.4412  0.6563
  544MOL0     H75019  12.106   3.274   9.934  1.6129 -1.9375 -1.2576
  544MOL0     H75020  12.257   3.257   9.861 -3.4499  2.0000 -2.7576
  544MOL0     H75021  12.374   3.048   9.969 -0.4131 -0.2391 -0.5269
  544MOL0     H75022  12.405   2.843  10.104  0.4392  0.2530 -0.8779
  544MOL0     H75023  12.284   2.801  10.214  1.1837 -0.9909 -1.4416
  544MOL0     H75024  12.406   2.890  10.416 -0.7663  0.4442 -1.0721
  544MOL0     H75025  12.513   2.768  10.333 -3.4112 -2.8779 -1.5842
  544MOL0     H75026  12.525   3.074  10.334  1.3515  0.4877 -1.8831
  544MOL0     H75027  12.637   2.948  10.403  0.8893  1.4994  0.6736
  544MOL0     H75028  12.647   2.887  10.146 -0.6276 -0.4972  0.1768
  544MOL0     H75029  12.605   3.057  10.131  1.9570  0.4670 -0.2978
  544MOL0     H75030  13.032   3.037  10.262  0.0264  1.1483  0.3791
  544MOL0     H75031  13.306   2.972  10.119  0.9385  1.0028 -3.1393
  544MOL0     H75032  13.246   3.084  10.245 -1.9158  1.2271 -0.5112
  544MOL0     H75033  13.299   3.143  10.084  0.8718 -0.6926 -1.6978
  544MOL0     H75034  13.069   2.919   9.481  0.1430  1.5894 -3.1537
  544MOL0     H75035  13.196   2.881   9.276 -0.2279 -0.2989 -0.4589
  544MOL0     H75036  13.603   3.042   9.245  1.8519 -1.0021 -0.0705
  544MOL0     H75037  13.596   2.875   9.305 -2.7242 -1.2587 -0.9292
  544MOL0     H75038  13.739   2.873   9.105 -1.2486 -2.0773  2.2197
  544MOL0     H75039  13.585   2.798   9.066 -2.2114  1.8975  0.3513
  544MOL0     H75040  13.618   3.091   9.014 -0.2553 -0.9324  0.2162
  544MOL0     H75041  13.512   2.963   8.948  0.6311 -1.8706 -0.2360
  544MOL0     H75042  13.708   2.876   8.818  1.9492 -0.3265 -0.0897
  544MOL0     H75043  13.822   2.991   8.901  0.4863  2.0822  0.9969
  544MOL0     H75044  13.709   3.186   8.797 -1.4337 -1.0287  0.8304
  544MOL0     H75045  13.761   3.079   8.669  2.5160  1.4748  1.2636
  544MOL0     H75046  13.551   3.184   8.636  2.6654  0.7387  1.4710
  544MOL0     H75047  13.486   3.116   8.785  0.2514  0.1022  0.2555
  544MOL0     H75048  13.537   2.877   8.656  0.3853 -1.4598 -1.7376
  544MOL0     H75049  13.572   2.988   8.522  0.8029 -1.6871  0.6538
  544MOL0     H75050  13.341   3.058   8.510 -5.2762  1.4522  2.1603
  544MOL0     H75051  13.301   2.999   8.666 -2.4959  1.6107 -2.3924
  544MOL0     H75052  13.532   3.077   9.451 -1.4304  2.1034 -0.4338
  544MOL0     H75053  13.389   3.123   9.660 -0.9132  0.0726  1.2833
  544MOL0     H75054  12.915   3.006   9.782  1.1930  1.5726  0.5042
  544MOL0     H75055  12.737   2.988   9.938 -0.2689  0.7166 -0.9319
  544MOL0     H75056  11.615   3.973   9.370  0.3353 -0.5176  0.1566
  544MOL0     H75057  11.369   4.068   9.315 -0.3061  1.8862  1.4246
  544MOL0     H75058  10.981   4.165   9.432  1.0190 -1.5957  0.0768
  544MOL0     H75059  10.762   4.275   9.363 -2.5473 -1.8465  0.2601
  544MOL0     H75060  10.507   4.248   9.298  1.8017  2.5126  2.9817
  544MOL0     H75061  10.624   4.375   9.264  0.5557 -0.5095  1.8758
  544MOL0     H75062  10.504   4.445   9.071 -0.3332  1.5322  0.1384
  544MOL0     H75063  10.417   4.456   9.228  2.8882 -0.7463  0.9330
  544MOL0     H75064  10.385   4.236   9.016  2.1512  3.2777 -1.5368
  544MOL0     H75065  10.291   4.245   9.166 -1.2506  1.7403  1.0431
  544MOL0     H75066  10.313   4.450   8.947 -0.4449  1.3787  0.3495
  544MOL0     H75067  10.213   4.470   9.093  0.9788 -0.6420  1.0070
  544MOL0     H75068   9.947   4.212   8.925 -0.7292  2.2612  0.9297
  544MOL0     H75069  10.726   4.017   9.033 -0.1539 -3.6925  1.0504
  544MOL0     H75070  11.012   3.876   8.999  0.2888  0.4274  0.8249
  544MOL0     H75071  10.945   3.771   9.131  1.0111 -2.1199 -3.5102
  544MOL0     H75072  10.845   3.848   8.999  1.0444 -0.6768 -2.3489
  545MOL0     O75073  10.470   0.015   1.449  0.5064 -0.4161 -0.4365
  545MOL0     C75074  10.396   0.077   1.372  0.1830  0.1724 -0.3734
  545MOL0     O75075  10.266   0.089   1.395  0.2807  0.1097 -0.6457
  545MOL0     C75076  10.211   0.033   1.512 -0.8735  0.2574 -0.3855
  545MOL0     C75077  10.134   0.099   1.597  0.7694 -0.2170  0.8163
  545MOL0     C75078  10.074   0.045   1.705  0.4279 -0.0680 -0.1362
  545MOL0     C75079  10.082  -0.093   1.726  0.0439  0.0578  0.7405
  545MOL0     O75080  10.015  -0.136   1.840  1.0816 -0.1655  0.7202
  545MOL0     C75081  10.014  -0.277   1.874 -0.0282  0.9723  0.2562
  545MOL0     C75082  10.134  -0.305   1.962  0.8323 -0.7952  0.4066
  545MOL0     C75083  10.173  -0.454   1.977 -0.3961 -0.4681  0.6968
  545MOL0     C75084  10.261  -0.494   2.092 -0.1859 -0.2021 -0.2611
  545MOL0     C75085  10.264  -0.649   2.115 -0.6549 -0.5116  0.1731
  545MOL0     C75086  10.362  -0.667   2.231  0.5883 -0.6615  0.0205
  545MOL0     C75087  10.409  -0.812   2.237  0.5743  0.1435  0.5863
  545MOL0     C75088  10.517  -0.856   2.130 -0.9133 -0.2231 -0.2228
  545MOL0     N75089  10.655  -0.825   2.168 -0.5489 -0.7072  0.0476
  545MOL0     C75090  10.715  -0.872   2.278 -0.1953  0.3557  0.8686
  545MOL0     C75091  10.838  -0.830   2.282 -0.2661  0.4340 -0.5112
  545MOL0     C75092  10.930  -0.874   2.394  0.4456  0.4302 -0.4688
  545MOL0     C75093  11.077  -0.895   2.366 -0.6205  0.3446  1.0541
  545MOL0     C75094  11.154  -0.913   2.496  0.0896  0.5282 -0.3953
  545MOL0     C75095  11.303  -0.935   2.469 -0.3175  0.9467 -0.0292
  545MOL0     O75096  11.354  -0.967   2.599 -0.1491 -0.1828  0.7615
  545MOL0     C75097  11.490  -0.989   2.613  0.1333  0.0881 -0.0849
  545MOL0     C75098  11.542  -0.978   2.739 -0.4560 -0.2811 -0.4696
  545MOL0     C75099  11.678  -0.990   2.775 -0.6328  0.8200 -0.9779
  545MOL0     C75100  11.718  -0.987   2.924  0.3317  0.1101  0.6885
  545MOL0     C75101  11.768  -0.997   2.666  0.3230 -0.4442  0.6883
  545MOL0     C75102  11.919  -0.994   2.666 -0.5871 -0.2325 -0.4860
  545MOL0     O75103  11.977  -0.926   2.772  0.2466 -0.7889 -0.0846
  545MOL0     C75104  12.108  -0.970   2.799 -0.2308  0.8961 -0.2159
  545MOL0     C75105  12.207  -0.870   2.796  0.2227 -0.0103  0.4833
  545MOL0     C75106  12.341  -0.914   2.829  0.2071  0.3256 -0.0703
  545MOL0     C75107  12.374  -1.048   2.845  0.4538  0.1596  0.3683
  545MOL0     O75108  12.491  -1.114   2.846 -0.2975 -0.3493  0.3405
  545MOL0     C75109  12.605  -1.036   2.810  0.1673 -0.7384  0.6678
  545MOL0     C75110  12.722  -1.117   2.835 -0.7413 -0.2095 -0.0238
  545MOL0     C75111  12.740  -1.219   2.715  0.4593  0.1598  0.4612
  545MOL0     C75112  12.869  -1.308   2.733 -0.8056 -0.0752 -0.1778
  545MOL0     C75113  12.862  -1.425   2.634 -0.5415  0.3895 -0.6324
  545MOL0     C75114  13.001  -1.481   2.624 -0.5799  0.1320 -0.6332
  545MOL0     C75115  13.076  -1.406   2.519 -0.0913  0.7226 -0.4337
  545MOL0     C75116  13.059  -1.459   2.376  0.2738 -0.3504  0.1978
  545MOL0    Cl75117  13.175  -1.385   2.271 -0.4520  0.0676  0.0804
  545MOL0     C75118  12.271  -1.145   2.854 -0.6657 -0.0565 -0.3681
  545MOL0     C75119  12.143  -1.103   2.829  0.6017  0.0094 -0.0679
  545MOL0     O75120  11.982  -1.034   2.561  1.0659 -0.6223 -0.2352
  545MOL0     C75121  11.711  -1.024   2.537 -0.3182 -0.9002 -0.9589
  545MOL0     C75122  11.575  -1.022   2.511 -0.6105  0.1179  0.8038
  545MOL0     N75123  10.862  -0.759   2.166  0.4303  0.5361  0.4600
  545MOL0     N75124  10.749  -0.761   2.093 -0.1413 -0.0659  0.0202
  545MOL0     C75125  10.156  -0.173   1.635  0.2702 -0.3364  0.5616
  545MOL0     C75126  10.220  -0.108   1.530 -0.0241  0.2906 -0.1369
  545MOL0     C75127  10.445   0.141   1.243 -0.5130  0.6318 -0.6465
  545MOL0     C75128  10.355   0.218   1.168  0.4623  1.0770 -1.8243
  545MOL0     C75129  10.377   0.267   1.046 -0.8709 -0.5176  0.9130
  545MOL0     C75130  10.509   0.253   0.998  0.6794 -0.3383  0.1952
  545MOL0     O75131  10.551   0.317   0.880 -0.2963 -0.0120  0.0950
  545MOL0     C75132  10.501   0.445   0.842  0.0733 -0.9021 -0.8020
  545MOL0     C75133  10.616   0.523   0.769 -0.2706  0.0288  0.1642
  545MOL0     C75134  10.739   0.559   0.855  0.1087 -0.2017 -0.9864
  545MOL0     C75135  10.713   0.657   0.962 -0.1684 -0.9212  0.1747
  545MOL0     C75136  10.838   0.728   1.014  0.8785 -0.2636 -0.4697
  545MOL0     C75137  10.936   0.796   1.038 -1.2874  0.0830  0.1679
  545MOL0     C75138  10.601   0.184   1.071  0.0535 -0.6819  0.2595
  545MOL0     C75139  10.578   0.118   1.192  0.0579 -0.1467  0.0567
  545MOL0     C75140  10.684   0.048   1.276 -0.3001 -0.3722 -0.1463
  545MOL0     H75141  10.123   0.203   1.568  2.4990  0.2445  1.6985
  545MOL0     H75142  10.023   0.112   1.775 -1.2742  1.3825 -2.6268
  545MOL0     H75143  10.024  -0.340   1.785  0.6011 -2.6081  2.6211
  545MOL0     H75144   9.916  -0.301   1.917 -0.0181 -2.2713 -1.2819
  545MOL0     H75145  10.215  -0.257   1.907 -1.4396  2.1231 -0.6411
  545MOL0     H75146  10.127  -0.250   2.057 -0.8793 -1.7024  0.8534
  545MOL0     H75147  10.081  -0.514   1.979 -1.0561  0.5256  0.4849
  545MOL0     H75148  10.210  -0.477   1.876 -1.9457  0.6994 -0.1780
  545MOL0     H75149  10.364  -0.459   2.077 -0.0087 -0.7528 -0.3520
  545MOL0     H75150  10.234  -0.449   2.188 -0.2906  0.2114 -0.4817
  545MOL0     H75151  10.300  -0.686   2.018 -0.1129 -0.7316  0.4530
  545MOL0     H75152  10.172  -0.700   2.143 -0.5636 -2.1319 -2.1853
  545MOL0     H75153  10.451  -0.607   2.216 -0.8808  1.0802 -2.4443
  545MOL0     H75154  10.305  -0.637   2.319 -1.1373 -1.9421 -0.5935
  545MOL0     H75155  10.323  -0.874   2.210  1.7706 -1.2365 -0.2066
  545MOL0     H75156  10.444  -0.837   2.337 -1.7967 -1.0615  1.2054
  545MOL0     H75157  10.504  -0.964   2.119  0.5545 -0.2783 -1.7143
  545MOL0     H75158  10.498  -0.812   2.032  0.7131 -1.3229 -1.0818
  545MOL0     H75159  10.665  -0.930   2.355  0.2195 -0.2565  0.6818
  545MOL0     H75160  10.898  -0.968   2.441  1.4231 -0.4698 -1.5413
  545MOL0     H75161  10.918  -0.791   2.464 -1.7501 -1.0305  1.0224
  545MOL0     H75162  11.102  -0.983   2.305 -0.3829  1.0168  0.1579
  545MOL0     H75163  11.104  -0.802   2.315 -0.1540  1.2685  2.9115
  545MOL0     H75164  11.141  -0.824   2.558 -1.0484 -0.0947  0.2879
  545MOL0     H75165  11.114  -1.000   2.549 -0.1704  1.5429  1.1561
  545MOL0     H75166  11.303  -1.028   2.411 -0.7771  1.7387 -1.3397
  545MOL0     H75167  11.343  -0.851   2.412 -2.4988 -0.4372 -4.0025
  545MOL0     H75168  11.467  -0.970   2.817  0.6103 -1.0969  0.6653
  545MOL0     H75169  11.815  -1.034   2.941  3.4110  4.7445 -2.0042
  545MOL0     H75170  11.642  -1.039   2.985 -2.4372  1.0313 -1.7228
  545MOL0     H75171  11.725  -0.884   2.959  2.5331  0.1666  0.2059
  545MOL0     H75172  12.171  -0.770   2.773  3.1587  0.9117 -0.5296
  545MOL0     H75173  12.425  -0.846   2.835  0.7955 -0.4965  2.0202
  545MOL0     H75174  12.605  -1.005   2.705  1.8662 -1.4756  0.4248
  545MOL0     H75175  12.619  -0.954   2.882  1.9587 -0.6943  0.3068
  545MOL0     H75176  12.818  -1.065   2.846 -0.5680  0.1658 -2.7681
  545MOL0     H75177  12.722  -1.182   2.923  1.2444 -1.7326 -1.0555
  545MOL0     H75178  12.737  -1.182   2.612  1.1074 -3.8567 -1.1799
  545MOL0     H75179  12.661  -1.295   2.723  0.6830  0.0988  2.8899
  545MOL0     H75180  12.888  -1.348   2.833 -1.5530 -0.4309 -0.1706
  545MOL0     H75181  12.947  -1.234   2.714 -0.4071 -0.3418  0.4009
  545MOL0     H75182  12.799  -1.504   2.675 -2.5297  2.3743  0.2998
  545MOL0     H75183  12.819  -1.397   2.537 -2.3624 -1.1638 -0.3377
  545MOL0     H75184  13.007  -1.583   2.584 -2.8359 -0.1976 -0.2651
  545MOL0     H75185  13.051  -1.477   2.721 -0.3305 -0.6926 -0.7227
  545MOL0     H75186  13.183  -1.418   2.538 -0.4726 -2.0721  0.3313
  545MOL0     H75187  13.057  -1.298   2.519  1.0680  0.9652  0.8904
  545MOL0     H75188  12.954  -1.440   2.351 -0.3380 -1.9051  1.4093
  545MOL0     H75189  13.080  -1.566   2.382 -2.8381 -1.1535 -1.1758
  545MOL0     H75190  12.297  -1.250   2.860  1.7444  0.3820 -1.7330
  545MOL0     H75191  12.054  -1.165   2.818  0.5016  0.3502 -1.2662
  545MOL0     H75192  11.775  -1.056   2.455  2.5240  2.0017 -0.0821
  545MOL0     H75193  11.538  -1.033   2.410  1.0902  4.9130 -0.6274
  545MOL0     H75194  10.163  -0.282   1.636  0.2194 -0.3488 -0.1345
  545MOL0     H75195  10.275  -0.169   1.460 -0.0173 -0.5232  0.5604
  545MOL0     H75196  10.257   0.230   1.214  0.9630  1.4628 -0.8365
  545MOL0     H75197  10.292   0.326   1.011  0.3679  1.5203  1.1565
  545MOL0     H75198  10.411   0.446   0.781 -0.5709  4.2989 -0.2581
  545MOL0     H75199  10.476   0.498   0.935  0.1517 -0.8834 -0.7905
  545MOL0     H75200  10.579   0.611   0.716 -0.7327 -0.8938 -1.1149
  545MOL0     H75201  10.656   0.460   0.688  0.4585  0.1462  0.4241
  545MOL0     H75202  10.792   0.472   0.895  1.7821  0.6952 -1.1443
  545MOL0     H75203  10.818   0.603   0.793 -0.2082  2.0701  0.1267
  545MOL0     H75204  10.669   0.603   1.046  0.7722 -0.6677  0.8483
  545MOL0     H75205  10.645   0.735   0.927  0.4165 -0.1019  0.8258
  545MOL0     H75206  11.020   0.862   1.043  0.6543 -2.0630 -1.6284
  545MOL0     H75207  10.705   0.192   1.038 -0.0641  1.7625  0.2845
  545MOL0     H75208  10.779   0.036   1.222  0.9573  1.8551  1.4190
  545MOL0     H75209  10.695   0.097   1.373 -0.7206 -1.0812  0.2699
  545MOL0     H75210  10.657  -0.057   1.294 -1.9680  0.0092 -0.2922
  546MOL0     O75211   7.551   0.502   9.348  0.3047 -0.1388  0.4651
  546MOL0     C75212   7.565   0.603   9.417  0.4170  0.2461 -0.3132
  546MOL0     O75213   7.655   0.706   9.381 -0.4079  0.2224  0.3256
  546MOL0     C75214   7.705   0.694   9.254 -0.4641 -0.1450 -0.0569
  546MOL0     C75215   7.787   0.587   9.210 -0.2189  0.3037 -0.2576
  546MOL0     C75216   7.837   0.595   9.081 -0.1845 -0.8641 -0.1392
  546MOL0     C75217   7.800   0.700   8.994 -0.8813  0.5656  0.4912
  546MOL0     O75218   7.847   0.709   8.865 -1.0033  0.5322 -0.0595
  546MOL0     C75219   7.816   0.595   8.777  0.5974 -0.8558 -0.2970
  546MOL0     C75220   7.773   0.653   8.641  0.0457  0.1382 -0.2603
  546MOL0     C75221   7.644   0.735   8.642  0.1226  0.0443  0.4400
  546MOL0     C75222   7.594   0.798   8.508 -0.5860 -0.0365  0.7407
  546MOL0     C75223   7.469   0.891   8.529 -0.7346  0.1244 -0.6348
  546MOL0     C75224   7.339   0.813   8.554 -0.1724 -0.0973  0.9931
  546MOL0     C75225   7.212   0.897   8.571 -0.4022  0.2584  0.3791
  546MOL0     C75226   7.228   1.012   8.677 -0.1780 -0.2954 -0.8229
  546MOL0     N75227   7.238   0.955   8.814  0.1794  0.1059  0.3004
  546MOL0     C75228   7.142   0.885   8.890  0.1632 -0.2631 -0.2238
  546MOL0     C75229   7.205   0.843   8.998  0.5376  0.1930 -0.6690
  546MOL0     C75230   7.145   0.786   9.129 -0.7005 -0.1931  0.6907
  546MOL0     C75231   7.260   0.741   9.226  0.0517  0.0459  0.3370
  546MOL0     C75232   7.320   0.858   9.311  0.9298  0.8917 -0.0743
  546MOL0     C75233   7.218   0.945   9.391  0.0589 -0.6896  0.3548
  546MOL0     O75234   7.142   0.861   9.477  0.2728 -0.3543  0.5924
  546MOL0     C75235   7.035   0.910   9.548  0.9020  0.0469  0.1144
  546MOL0     C75236   6.990   1.049   9.540 -0.8311  0.2383 -0.5008
  546MOL0     C75237   6.880   1.094   9.613  0.5858 -0.7927  0.3117
  546MOL0     C75238   6.865   1.252   9.608  0.1249 -0.1699 -0.2337
  546MOL0     C75239   6.794   1.001   9.676  0.4447  0.1991 -0.4149
  546MOL0     C75240   6.669   1.042   9.750 -0.3125 -0.1567 -0.5031
  546MOL0     O75241   6.593   0.945   9.799 -0.0869  0.4398 -0.7227
  546MOL0     C75242   6.487   0.959   9.884  0.5562  0.5525 -0.3675
  546MOL0     C75243   6.387   0.862   9.870  0.3318  0.8190 -0.9485
  546MOL0     C75244   6.272   0.861   9.949 -0.3027 -0.4404 -0.6047
  546MOL0     C75245   6.261   0.949  10.052  0.1821 -0.2974  0.2839
  546MOL0     O75246   6.159   0.932  10.148 -0.3469 -0.8070 -0.0657
  546MOL0     C75247   6.179   0.994  10.274  0.9875  0.9428 -0.2555
  546MOL0     C75248   6.074   0.947  10.369  0.0471  0.5905  0.0301
  546MOL0     C75249   5.941   1.011  10.328  0.7678 -0.8666 -0.5846
  546MOL0     C75250   5.810   0.966  10.408  0.5930  0.4878  0.4303
  546MOL0     C75251   5.687   1.012  10.332 -0.2733 -0.3758  0.7655
  546MOL0     C75252   5.549   0.979  10.397 -0.2260 -0.0554  0.6675
  546MOL0     C75253   5.541   1.025  10.541  0.5482 -0.2895 -0.3794
  546MOL0     C75254   5.392   1.036  10.582 -0.2951 -0.7522 -0.3567
  546MOL0    Cl75255   5.313   0.884  10.596  0.2599 -0.6671  0.2345
  546MOL0     C75256   6.360   1.055  10.067 -0.4034  0.1255 -0.4643
  546MOL0     C75257   6.475   1.057   9.985 -0.2376 -0.3359  1.0739
  546MOL0     O75258   6.641   1.158   9.760  0.4064 -0.1231  0.1184
  546MOL0     C75259   6.842   0.863   9.679  0.8938 -0.2488 -0.0463
  546MOL0     C75260   6.955   0.828   9.619 -0.7934  0.5248 -0.3152
  546MOL0     N75261   7.333   0.886   8.992  0.7435  0.7984 -0.6116
  546MOL0     N75262   7.359   0.936   8.875  0.9731 -0.0170 -0.7940
  546MOL0     C75263   7.718   0.807   9.039  0.5313  0.0971 -0.2090
  546MOL0     C75264   7.674   0.797   9.169  0.1935 -0.4293  0.6804
  546MOL0     C75265   7.494   0.600   9.550 -0.7330  0.3301 -0.8044
  546MOL0     C75266   7.549   0.689   9.649 -0.1629  0.3551 -0.1610
  546MOL0     C75267   7.503   0.705   9.782 -0.5891  0.1110  0.3129
  546MOL0     C75268   7.396   0.626   9.820  0.8903 -0.3417 -0.6944
  546MOL0     O75269   7.334   0.617   9.945  0.2045 -0.3571 -0.7223
  546MOL0     C75270   7.309   0.735  10.027 -0.9664  0.6235  0.2883
  546MOL0     C75271   7.220   0.833   9.949  0.6161 -0.0373 -0.0869
  546MOL0     C75272   7.181   0.958  10.030 -0.4260 -0.3315  0.0457
  546MOL0     C75273   7.117   1.064   9.947  0.6681 -0.5901  0.6838
  546MOL0     C75274   7.180   1.116   9.821  0.4470  0.1245 -0.0566
  546MOL0     C75275   7.223   1.164   9.718 -0.1803  0.0444  0.1025
  546MOL0     C75276   7.339   0.533   9.724 -0.8041  0.1722 -0.1895
  546MOL0     C75277   7.382   0.521   9.590 -0.7421 -1.0510 -0.1234
  546MOL0     C75278   7.308   0.433   9.492 -0.0900  1.0522  0.2803
  546MOL0     H75279   7.802   0.507   9.282 -4.3562  0.4136  0.9748
  546MOL0     H75280   7.907   0.524   9.038 -0.7231 -1.6294  0.2273
  546MOL0     H75281   7.735   0.530   8.812 -1.4741  1.2809 -0.9158
  546MOL0     H75282   7.912   0.544   8.760  1.5980  0.4943  1.0652
  546MOL0     H75283   7.855   0.717   8.608 -0.7070  0.2737 -1.9469
  546MOL0     H75284   7.752   0.574   8.568 -0.0542 -1.4035  1.3574
  546MOL0     H75285   7.569   0.663   8.675  0.6844 -0.9963 -0.4905
  546MOL0     H75286   7.655   0.822   8.707 -4.8243  2.1476 -1.0390
  546MOL0     H75287   7.676   0.856   8.466 -2.2777  0.0398 -2.7555
  546MOL0     H75288   7.570   0.719   8.436 -1.8488  0.7563  0.2541
  546MOL0     H75289   7.468   0.948   8.436  1.4747 -0.4432 -1.0599
  546MOL0     H75290   7.483   0.963   8.611 -1.0157  0.3559 -0.7853
  546MOL0     H75291   7.330   0.741   8.472  1.4141  0.7094  0.0541
  546MOL0     H75292   7.347   0.756   8.646 -0.7115 -1.7037  0.0763
  546MOL0     H75293   7.130   0.832   8.602 -1.1694  0.5566 -0.9655
  546MOL0     H75294   7.179   0.946   8.479  2.1030 -0.6203 -1.0976
  546MOL0     H75295   7.311   1.079   8.654 -0.7580  0.5980 -0.3559
  546MOL0     H75296   7.148   1.087   8.678  0.1012 -0.0002  0.0548
  546MOL0     H75297   7.038   0.877   8.858 -0.3306  1.0863  0.9321
  546MOL0     H75298   7.085   0.697   9.108  0.8150 -0.6507 -2.1990
  546MOL0     H75299   7.079   0.864   9.168 -2.4808  0.1607 -2.6278
  546MOL0     H75300   7.210   0.669   9.292 -2.9935  0.5073 -1.2685
  546MOL0     H75301   7.342   0.688   9.176 -1.1108 -0.4530 -1.1131
  546MOL0     H75302   7.387   0.816   9.387 -2.8285  0.6775  3.5156
  546MOL0     H75303   7.376   0.924   9.245  1.0975 -0.0139 -0.8602
  546MOL0     H75304   7.274   1.023   9.443  2.2243 -0.3325 -2.2794
  546MOL0     H75305   7.150   0.986   9.316 -2.6518 -0.3310  2.8400
  546MOL0     H75306   7.053   1.118   9.484  1.3056 -1.9289 -0.9813
  546MOL0     H75307   6.845   1.282   9.712  2.5109 -2.0183  0.8605
  546MOL0     H75308   6.782   1.283   9.544 -0.8191  0.3286  1.1851
  546MOL0     H75309   6.955   1.310   9.588  0.1945 -1.1136 -3.2000
  546MOL0     H75310   6.412   0.777   9.807  0.0841 -1.5424  1.9432
  546MOL0     H75311   6.190   0.793   9.929  0.5185 -1.3175 -1.0682
  546MOL0     H75312   6.278   0.973  10.315  1.1950  4.0921  1.1621
  546MOL0     H75313   6.173   1.103  10.262  1.1732  1.0987  0.9245
  546MOL0     H75314   6.061   0.839  10.365 -1.5789  0.7745 -0.3574
  546MOL0     H75315   6.102   0.976  10.471  0.1061  1.1817 -0.1496
  546MOL0     H75316   5.919   1.007  10.221 -0.5305  2.8039 -0.5750
  546MOL0     H75317   5.946   1.120  10.329  0.3440 -0.7678 -3.0718
  546MOL0     H75318   5.803   1.004  10.511 -0.3970  0.0670  0.5324
  546MOL0     H75319   5.812   0.857  10.419  0.7531  0.3965 -0.4373
  546MOL0     H75320   5.692   1.121  10.318  2.4136 -0.7730 -2.8420
  546MOL0     H75321   5.686   0.978  10.228  2.1124 -0.9703  0.8927
  546MOL0     H75322   5.533   0.870  10.390 -1.1557  0.0221  1.4709
  546MOL0     H75323   5.460   1.012  10.343 -0.1073 -2.7449 -1.4308
  546MOL0     H75324   5.590   1.123  10.537  2.4788 -1.2221 -1.1351
  546MOL0     H75325   5.596   0.967  10.616 -0.1324  2.1705  2.2216
  546MOL0     H75326   5.343   1.102  10.510  0.7002 -0.3589 -0.7041
  546MOL0     H75327   5.389   1.091  10.676  0.6760  0.6203 -1.0912
  546MOL0     H75328   6.351   1.132  10.144 -1.0762 -0.3493 -0.0555
  546MOL0     H75329   6.551   1.132  10.001 -2.9375  2.7684  0.2971
  546MOL0     H75330   6.789   0.787   9.735 -0.8568  0.6609 -0.4023
  546MOL0     H75331   6.980   0.723   9.632 -1.3606  0.1197 -2.2796
  546MOL0     H75332   7.687   0.882   8.968 -0.8295  0.0318  0.2883
  546MOL0     H75333   7.593   0.859   9.206 -1.5622 -2.7681  1.0305
  546MOL0     H75334   7.638   0.744   9.622  1.2133 -0.3447  2.5571
  546MOL0     H75335   7.565   0.770   9.842  1.6207  0.6818 -2.3377
  546MOL0     H75336   7.258   0.696  10.115 -1.2966  0.4242  0.0113
  546MOL0     H75337   7.403   0.784  10.056 -0.3616  0.0854 -0.6735
  546MOL0     H75338   7.126   0.782   9.925 -0.7653  2.4821 -0.4752
  546MOL0     H75339   7.260   0.862   9.851 -0.3516  0.5607 -0.3273
  546MOL0     H75340   7.117   0.926  10.113  0.1984  0.1650  0.7318
  546MOL0     H75341   7.275   1.000  10.067  1.1842 -0.9668 -2.9859
  546MOL0     H75342   7.096   1.145  10.018 -2.5696 -0.3510 -0.3510
  546MOL0     H75343   7.016   1.031   9.920  0.5629  0.4184 -0.2437
  546MOL0     H75344   7.250   1.195   9.620  2.2323  1.8031  1.2076
  546MOL0     H75345   7.260   0.466   9.756 -0.9645  0.9924  1.2450
  546MOL0     H75346   7.369   0.348   9.463 -1.0414  1.0222 -1.8476
  546MOL0     H75347   7.215   0.390   9.531  1.5191 -2.2799  0.7468
  546MOL0     H75348   7.277   0.486   9.401 -1.8379  2.5480  1.6604
  547MOL0     O75349   8.361   0.143   5.588 -0.6580  0.5683 -0.0421
  547MOL0     C75350   8.295   0.181   5.683 -0.0949  0.4335  0.1486
  547MOL0     O75351   8.351   0.195   5.801  0.0281 -0.3074 -0.0513
  547MOL0     C75352   8.480   0.150   5.824 -0.9850  0.7341  0.3577
  547MOL0     C75353   8.578   0.237   5.878  0.4828 -0.8877 -0.1967
  547MOL0     C75354   8.707   0.201   5.888 -0.7722  0.0229 -0.4328
  547MOL0     C75355   8.750   0.074   5.852  0.1076  0.5657  0.3115
  547MOL0     O75356   8.875   0.024   5.865  0.2518  0.0210  0.2169
  547MOL0     C75357   8.974   0.099   5.936 -0.2697 -0.5708 -0.4167
  547MOL0     C75358   9.110   0.037   5.931 -1.1931  0.2358  0.4602
  547MOL0     C75359   9.215   0.116   6.010 -0.1403  0.2398  0.3491
  547MOL0     C75360   9.348   0.040   5.974 -0.5460  0.0471  0.4940
  547MOL0     C75361   9.463   0.100   6.055  0.2990 -0.3502 -0.6164
  547MOL0     C75362   9.598   0.040   6.024  0.3955 -0.5112 -0.1789
  547MOL0     C75363   9.711   0.097   6.113 -0.5182  0.2114 -0.5674
  547MOL0     C75364   9.846   0.029   6.085  0.2419  0.0498 -0.3097
  547MOL0     N75365   9.952   0.054   6.191 -0.0043 -0.1984  0.1429
  547MOL0     C75366   9.996   0.175   6.225  0.0740  0.2030  0.0913
  547MOL0     C75367  10.103   0.140   6.298  0.2051 -0.6477  0.1325
  547MOL0     C75368  10.191   0.232   6.376 -0.1272 -0.1198 -0.0977
  547MOL0     C75369  10.300   0.284   6.293  0.2228 -0.0362  0.4253
  547MOL0     C75370  10.379   0.399   6.373  0.0873  0.3714 -0.0874
  547MOL0     C75371  10.484   0.464   6.282  0.0009 -0.1019 -0.5648
  547MOL0     O75372  10.573   0.371   6.222  0.3642  0.4569  0.0210
  547MOL0     C75373  10.684   0.328   6.294  0.1815 -0.1385 -0.1335
  547MOL0     C75374  10.768   0.249   6.223  0.7613  0.0742 -0.2034
  547MOL0     C75375  10.894   0.197   6.273 -0.8166 -0.1828 -0.3549
  547MOL0     C75376  10.984   0.114   6.184 -0.1515  0.2908  0.0404
  547MOL0     C75377  10.926   0.223   6.405 -0.2472 -0.2245  0.2469
  547MOL0     C75378  11.047   0.177   6.484 -0.0273  0.3342 -0.1905
  547MOL0     O75379  11.165   0.182   6.415  0.1676  0.2923  1.3522
  547MOL0     C75380  11.254   0.086   6.463  0.8700 -0.3052 -0.5857
  547MOL0     C75381  11.217  -0.052   6.460 -0.4281  0.8232 -0.7211
  547MOL0     C75382  11.303  -0.149   6.514 -0.4054 -0.1275  0.0387
  547MOL0     C75383  11.419  -0.110   6.578 -0.4441  0.4212 -0.2831
  547MOL0     O75384  11.495  -0.198   6.653  0.7833  0.2632 -0.2234
  547MOL0     C75385  11.460  -0.208   6.793 -0.0674  0.1666 -0.3822
  547MOL0     C75386  11.579  -0.228   6.890 -0.0031  0.2237  0.4970
  547MOL0     C75387  11.693  -0.136   6.862 -0.8488 -0.5018 -0.1529
  547MOL0     C75388  11.814  -0.169   6.951 -0.4359 -0.3760 -0.0103
  547MOL0     C75389  11.929  -0.073   6.938 -0.2992  0.4164  0.7545
  547MOL0     C75390  12.052  -0.130   7.006  0.4432 -0.2547  0.3526
  547MOL0     C75391  12.179  -0.044   6.983 -0.5118 -0.1410 -0.0664
  547MOL0     C75392  12.307  -0.129   7.013  0.2826  0.3300  0.2297
  547MOL0    Cl75393  12.430  -0.008   7.052 -0.0449 -0.0318  0.3095
  547MOL0     C75394  11.452   0.025   6.584  0.8698  0.4016  1.0059
  547MOL0     C75395  11.368   0.128   6.529 -0.5033  0.6694  0.1005
  547MOL0     O75396  11.040   0.155   6.605  0.5062 -0.2813  0.4356
  547MOL0     C75397  10.837   0.297   6.482 -0.1712 -0.0856  0.1574
  547MOL0     C75398  10.718   0.347   6.423  0.2306 -1.1042  0.0211
  547MOL0     N75399  10.105   0.003   6.315 -0.4320  0.1258  0.6645
  547MOL0     N75400  10.022  -0.052   6.233  0.2358 -0.5374  0.0485
  547MOL0     C75401   8.649  -0.012   5.806 -1.2896  0.1140  0.1111
  547MOL0     C75402   8.522   0.028   5.788  0.1802 -0.2766 -0.6514
  547MOL0     C75403   8.148   0.209   5.687 -0.7328 -0.4145 -0.3901
  547MOL0     C75404   8.085   0.231   5.817 -0.7076  0.5090 -0.0507
  547MOL0     C75405   7.949   0.260   5.826 -1.2049 -0.3352  0.3732
  547MOL0     C75406   7.870   0.250   5.710  0.2726 -0.0521 -0.5468
  547MOL0     O75407   7.729   0.275   5.721 -0.6617 -0.4426 -0.0108
  547MOL0     C75408   7.662   0.231   5.834  0.4083 -0.1061  0.0961
  547MOL0     C75409   7.504   0.241   5.814 -0.3274 -0.1405 -0.4541
  547MOL0     C75410   7.450   0.136   5.719  0.0071  0.7139 -0.5099
  547MOL0     C75411   7.296   0.151   5.727  0.3521  0.3220 -0.1757
  547MOL0     C75412   7.244   0.107   5.858 -0.5858 -0.2297  0.6072
  547MOL0     C75413   7.200   0.063   5.962 -0.5833  0.2832 -0.7853
  547MOL0     C75414   7.925   0.223   5.582 -0.1939  0.4274 -0.2894
  547MOL0     C75415   8.063   0.206   5.571 -0.0644  0.5526 -0.2156
  547MOL0     C75416   8.115   0.181   5.425  0.2121 -0.2235  0.6269
  547MOL0     H75417   8.543   0.332   5.918 -1.8987 -1.5097 -0.6343
  547MOL0     H75418   8.786   0.266   5.923 -2.1593  0.4847  2.0885
  547MOL0     H75419   8.942   0.096   6.041  0.0639  1.2535 -0.2328
  547MOL0     H75420   8.990   0.201   5.900  2.0896 -0.7779 -0.0973
  547MOL0     H75421   9.103  -0.062   5.976 -0.3898 -0.9667 -1.8574
  547MOL0     H75422   9.135   0.030   5.824  1.2235 -0.6386  1.0109
  547MOL0     H75423   9.220   0.219   5.975 -2.4400  0.3969  0.3204
  547MOL0     H75424   9.197   0.124   6.118  0.8676  2.4081  0.3976
  547MOL0     H75425   9.354  -0.061   6.016 -0.6396 -1.9173 -3.6917
  547MOL0     H75426   9.359   0.005   5.872 -0.5548 -0.2427  0.5921
  547MOL0     H75427   9.440   0.093   6.162  0.5768 -1.0997 -0.5989
  547MOL0     H75428   9.478   0.208   6.049  2.1862 -0.5258  0.3517
  547MOL0     H75429   9.584  -0.067   6.040  0.4812 -0.9106 -2.4284
  547MOL0     H75430   9.623   0.055   5.919 -0.8491  2.0070 -0.1895
  547MOL0     H75431   9.691   0.082   6.219 -0.7119 -0.1401 -0.6524
  547MOL0     H75432   9.719   0.206   6.102  1.7562 -0.0457 -2.6686
  547MOL0     H75433   9.833  -0.080   6.091  0.2969  0.0216 -0.7103
  547MOL0     H75434   9.883   0.055   5.985  3.3648  2.8380  1.3767
  547MOL0     H75435   9.968   0.277   6.200 -0.1432 -0.2297 -1.5571
  547MOL0     H75436  10.229   0.187   6.468 -2.0239  3.2473  2.6041
  547MOL0     H75437  10.141   0.325   6.406  0.5811 -0.0290  0.8105
  547MOL0     H75438  10.367   0.200   6.276  0.7008  0.2979  0.6253
  547MOL0     H75439  10.272   0.337   6.201  0.9679 -1.5753 -0.7244
  547MOL0     H75440  10.310   0.478   6.403  2.2630  2.0830  0.6659
  547MOL0     H75441  10.426   0.358   6.463  0.5871  2.5901  0.7033
  547MOL0     H75442  10.427   0.516   6.204 -0.8997 -0.0580  0.1039
  547MOL0     H75443  10.534   0.539   6.344  0.3928 -0.7862 -0.0375
  547MOL0     H75444  10.738   0.227   6.121 -0.1587 -2.6024  0.5445
  547MOL0     H75445  10.988   0.009   6.216 -1.0881 -0.0966 -1.0531
  547MOL0     H75446  11.078   0.170   6.181 -0.5259  0.9043 -2.1679
  547MOL0     H75447  10.949   0.124   6.081  0.0751  1.2705  0.0469
  547MOL0     H75448  11.120  -0.080   6.420 -1.5415  1.7593  1.1912
  547MOL0     H75449  11.267  -0.251   6.517 -2.9727  0.7147  3.1865
  547MOL0     H75450  11.401  -0.120   6.821  1.2125  2.3972 -4.0518
  547MOL0     H75451  11.391  -0.292   6.803  0.4555 -0.1128  1.0575
  547MOL0     H75452  11.555  -0.199   6.993  0.2545  1.1012  0.3125
  547MOL0     H75453  11.615  -0.330   6.875 -2.3525 -0.4466 -1.1567
  547MOL0     H75454  11.664  -0.036   6.894  1.5685  0.4692 -0.7926
  547MOL0     H75455  11.717  -0.138   6.756 -0.6311 -2.3167 -0.1097
  547MOL0     H75456  11.848  -0.268   6.921  2.1908  0.5138 -0.2363
  547MOL0     H75457  11.797  -0.178   7.059 -0.8932  2.2849  0.2061
  547MOL0     H75458  11.958  -0.056   6.834  2.5647 -2.9469  0.8208
  547MOL0     H75459  11.896   0.018   6.990  0.9167  1.4621 -0.2258
  547MOL0     H75460  12.077  -0.233   6.980 -0.7664 -1.4289  3.3949
  547MOL0     H75461  12.034  -0.135   7.114 -1.3275  0.5408  0.1374
  547MOL0     H75462  12.179   0.040   7.053  2.5932 -0.9706  1.0581
  547MOL0     H75463  12.176  -0.004   6.881 -0.3597 -1.4302 -0.5945
  547MOL0     H75464  12.335  -0.183   6.922  0.1440 -1.2754  1.0996
  547MOL0     H75465  12.284  -0.202   7.092  0.4847  1.2094  1.1131
  547MOL0     H75466  11.548   0.051   6.627  1.3751 -1.3867  1.0054
  547MOL0     H75467  11.394   0.232   6.549  0.3978  0.0597  2.3539
  547MOL0     H75468  10.844   0.306   6.590  2.8250 -0.1123  0.0490
  547MOL0     H75469  10.654   0.411   6.484 -3.2575 -3.0346 -1.3036
  547MOL0     H75470   8.692  -0.107   5.775 -0.7869  0.1508  0.6642
  547MOL0     H75471   8.455  -0.042   5.740  0.6509 -0.5781 -0.8784
  547MOL0     H75472   8.120   0.213   5.918 -0.4790  0.6252 -0.1093
  547MOL0     H75473   7.899   0.276   5.921 -2.2298  0.8100 -0.3245
  547MOL0     H75474   7.694   0.130   5.863 -1.1962 -0.7318 -0.2138
  547MOL0     H75475   7.677   0.296   5.920  2.3527 -1.9978  1.3166
  547MOL0     H75476   7.487   0.342   5.775  2.7471  1.2507  1.4439
  547MOL0     H75477   7.467   0.228   5.916  0.8652  1.0017  0.1501
  547MOL0     H75478   7.490   0.151   5.618  3.4034 -2.9886  0.0457
  547MOL0     H75479   7.488   0.038   5.749  1.0883  0.0055 -3.7494
  547MOL0     H75480   7.246   0.093   5.649 -1.7317  3.6127 -1.5362
  547MOL0     H75481   7.258   0.253   5.716 -1.8751 -0.4673 -0.3237
  547MOL0     H75482   7.169   0.021   6.056  1.9382 -0.3674 -0.1784
  547MOL0     H75483   7.856   0.232   5.498 -1.1601 -1.9490  0.1755
  547MOL0     H75484   8.184   0.097   5.411 -0.9842 -0.8599 -2.2061
  547MOL0     H75485   8.034   0.152   5.357 -0.2962  3.3694 -0.4842
  547MOL0     H75486   8.165   0.274   5.395  1.6249 -0.8331  0.9825
  548MOL0     O75487   6.470   2.292   2.747  0.1821 -0.0524  0.2455
  548MOL0     C75488   6.476   2.289   2.867 -0.8024 -0.6360 -0.4782
  548MOL0     O75489   6.597   2.278   2.935 -0.4693  0.6687  0.1602
  548MOL0     C75490   6.720   2.332   2.911 -0.2939 -0.1751 -0.2283
  548MOL0     C75491   6.735   2.418   2.801  1.1667 -0.0698 -0.4892
  548MOL0     C75492   6.860   2.466   2.773 -0.7739 -0.4447  0.2034
  548MOL0     C75493   6.964   2.446   2.863 -0.0867  0.6425  0.4752
  548MOL0     O75494   7.084   2.503   2.841  0.2113 -0.4412 -0.1567
  548MOL0     C75495   7.177   2.419   2.774 -1.1473 -0.6533 -1.2382
  548MOL0     C75496   7.320   2.445   2.836  0.2864  0.2803  0.2925
  548MOL0     C75497   7.326   2.430   2.989 -0.0779  0.0065  0.4429
  548MOL0     C75498   7.424   2.531   3.051 -0.1262  0.1199  0.9613
  548MOL0     C75499   7.462   2.492   3.196 -1.2392 -0.0911 -0.6426
  548MOL0     C75500   7.541   2.611   3.261  0.2539  0.0771 -0.0593
  548MOL0     C75501   7.691   2.635   3.203 -0.8474  0.3174  0.3279
  548MOL0     C75502   7.786   2.529   3.247 -0.8852  0.1431 -0.3718
  548MOL0     N75503   7.923   2.558   3.209  0.6762  0.2377 -0.5727
  548MOL0     C75504   7.986   2.499   3.104 -1.0917  0.3853  0.3847
  548MOL0     C75505   8.109   2.560   3.101 -0.1212 -0.0563  0.6857
  548MOL0     C75506   8.222   2.533   3.000  0.3270  0.3914  0.4465
  548MOL0     C75507   8.315   2.413   3.045 -0.3231  0.4209 -0.5782
  548MOL0     C75508   8.395   2.454   3.169 -0.0550 -0.2166 -0.1276
  548MOL0     C75509   8.478   2.333   3.197  0.1145  0.1596 -0.4362
  548MOL0     O75510   8.565   2.361   3.306 -0.7219 -0.1075 -0.1502
  548MOL0     C75511   8.663   2.271   3.332 -0.1631 -1.0298 -0.1631
  548MOL0     C75512   8.775   2.324   3.394 -0.4785  0.5469 -0.3724
  548MOL0     C75513   8.877   2.237   3.432  1.2749  0.3388  0.9865
  548MOL0     C75514   8.986   2.290   3.517 -0.0759 -0.0952 -0.5176
  548MOL0     C75515   8.866   2.099   3.403 -0.4995 -0.7922  0.8758
  548MOL0     C75516   8.973   1.999   3.440  0.3147 -0.4377  0.4535
  548MOL0     O75517   9.095   2.013   3.378  0.3455  0.1026  0.0262
  548MOL0     C75518   9.194   1.955   3.446 -1.3892  0.6873 -0.3187
  548MOL0     C75519   9.276   1.862   3.377 -0.2123  0.6257  0.0734
  548MOL0     C75520   9.384   1.802   3.448  0.6931 -0.2391  0.8406
  548MOL0     C75521   9.417   1.837   3.581 -0.6735 -1.4539 -0.2218
  548MOL0     O75522   9.535   1.786   3.634  0.4411 -0.5643  0.4722
  548MOL0     C75523   9.557   1.789   3.775  0.0039 -0.0543  0.8441
  548MOL0     C75524   9.653   1.674   3.826 -0.5570  0.1137 -0.1092
  548MOL0     C75525   9.632   1.536   3.771 -0.5641  0.3165 -0.5674
  548MOL0     C75526   9.734   1.448   3.842 -0.0957  0.5040 -0.5799
  548MOL0     C75527   9.720   1.304   3.797 -0.3528  0.2648  0.8087
  548MOL0     C75528   9.829   1.219   3.864 -0.4503  0.3923 -0.3634
  548MOL0     C75529   9.828   1.080   3.808 -0.1587 -0.0379  0.0590
  548MOL0     C75530   9.914   0.987   3.894  0.1909  0.0750  0.9851
  548MOL0    Cl75531  10.079   1.008   3.866 -0.2218 -0.0678  0.1642
  548MOL0     C75532   9.321   1.921   3.648 -0.4553 -0.4749 -0.2552
  548MOL0     C75533   9.213   1.973   3.582 -0.2177 -0.6242  0.0284
  548MOL0     O75534   8.933   1.910   3.513  0.1733 -0.6677  0.2511
  548MOL0     C75535   8.761   2.051   3.330 -0.2209 -0.3103 -0.1900
  548MOL0     C75536   8.651   2.129   3.298 -0.9827 -0.0079  0.4271
  548MOL0     N75537   8.127   2.642   3.210 -0.3612  0.4454  1.1268
  548MOL0     N75538   8.016   2.637   3.280  0.8896 -0.2078  0.6003
  548MOL0     C75539   6.940   2.371   2.977 -0.6963 -0.2367 -0.2097
  548MOL0     C75540   6.825   2.299   2.996  0.3316 -0.6793  0.6005
  548MOL0     C75541   6.348   2.273   2.952  0.7762 -0.1929 -0.3493
  548MOL0     C75542   6.360   2.200   3.069 -0.7626 -0.1894 -0.3576
  548MOL0     C75543   6.243   2.176   3.148 -0.9141 -0.7050  0.5493
  548MOL0     C75544   6.121   2.245   3.121 -0.0487  0.2814  0.2497
  548MOL0     O75545   6.026   2.213   3.212  0.7360 -0.3902 -0.6560
  548MOL0     C75546   5.889   2.254   3.190 -0.3999 -0.0414  0.1690
  548MOL0     C75547   5.800   2.149   3.117  0.8415  0.2288 -0.1274
  548MOL0     C75548   5.833   2.000   3.133  0.4337 -0.1307 -0.1274
  548MOL0     C75549   5.802   1.935   3.273  0.1873 -0.1541 -0.4488
  548MOL0     C75550   5.845   1.793   3.286  0.2784 -0.5388  0.5168
  548MOL0     C75551   5.877   1.680   3.284 -0.6636  0.1850 -0.3562
  548MOL0     C75552   6.109   2.319   3.002 -0.0950  0.2759  0.6060
  548MOL0     C75553   6.215   2.328   2.912 -0.2972 -0.6287 -1.1347
  548MOL0     C75554   6.184   2.392   2.781 -0.8289  0.1578  0.6784
  548MOL0     H75555   6.653   2.443   2.735  0.7913 -2.8951 -1.2111
  548MOL0     H75556   6.889   2.538   2.697  1.5010 -0.5795  0.8625
  548MOL0     H75557   7.178   2.434   2.666  1.8191  0.5318 -1.1388
  548MOL0     H75558   7.165   2.313   2.799  2.0603 -0.3086  2.7158
  548MOL0     H75559   7.387   2.377   2.783 -0.3110  0.1874 -0.3592
  548MOL0     H75560   7.341   2.545   2.795 -0.4123 -1.6926 -6.0164
  548MOL0     H75561   7.230   2.453   3.038 -0.2203 -1.9141  1.1501
  548MOL0     H75562   7.349   2.325   3.009 -0.6439 -0.1195  0.4772
  548MOL0     H75563   7.511   2.545   2.987 -1.4300 -0.4081 -1.0208
  548MOL0     H75564   7.364   2.623   3.052 -0.8024 -0.3143  0.8338
  548MOL0     H75565   7.511   2.395   3.191 -0.0428  0.4786 -0.2854
  548MOL0     H75566   7.373   2.477   3.257 -1.3742  1.3002 -0.4527
  548MOL0     H75567   7.488   2.706   3.262 -1.8850 -1.0422  1.7818
  548MOL0     H75568   7.546   2.591   3.369 -1.5655  1.1883  0.2586
  548MOL0     H75569   7.724   2.732   3.241 -0.7804  0.2545  0.4305
  548MOL0     H75570   7.686   2.635   3.094  1.6312 -2.0512  0.1207
  548MOL0     H75571   7.779   2.513   3.355  2.1397  0.7410  0.0172
  548MOL0     H75572   7.755   2.432   3.208 -1.8350  0.8184 -1.3657
  548MOL0     H75573   7.938   2.428   3.038 -0.3872 -1.5255  1.8195
  548MOL0     H75574   8.283   2.623   2.986  1.5593 -0.7777 -2.3162
  548MOL0     H75575   8.162   2.515   2.910  0.1209  1.3872  0.3741
  548MOL0     H75576   8.260   2.320   3.063 -2.8781  2.2800  2.2100
  548MOL0     H75577   8.388   2.395   2.966 -1.9703  1.4657 -2.3925
  548MOL0     H75578   8.454   2.546   3.159 -0.9164  0.4390  0.6693
  548MOL0     H75579   8.342   2.481   3.261 -1.7985 -0.3421 -1.0446
  548MOL0     H75580   8.410   2.252   3.227 -0.3113  0.7613  0.2443
  548MOL0     H75581   8.542   2.299   3.116  1.2943  0.9385  0.1450
  548MOL0     H75582   8.772   2.423   3.437 -1.6757  0.5994 -0.5523
  548MOL0     H75583   8.968   2.278   3.624 -2.2480  0.5496 -0.7664
  548MOL0     H75584   9.009   2.395   3.495  3.4605 -0.1224  2.1823
  548MOL0     H75585   9.081   2.237   3.510  1.2940  1.4717  3.4329
  548MOL0     H75586   9.262   1.845   3.271 -0.7304  1.8325 -0.0693
  548MOL0     H75587   9.455   1.732   3.405 -0.8317 -1.9311  0.9733
  548MOL0     H75588   9.589   1.888   3.810 -1.8410  1.3170 -1.0717
  548MOL0     H75589   9.466   1.765   3.832  0.0533 -0.6129  0.6926
  548MOL0     H75590   9.755   1.708   3.804 -0.6810  0.0484 -0.7974
  548MOL0     H75591   9.659   1.671   3.935  0.9490 -1.7267 -0.1966
  548MOL0     H75592   9.657   1.518   3.666  3.4501 -0.1482  0.2917
  548MOL0     H75593   9.538   1.491   3.803 -0.7743  2.0050  1.3821
  548MOL0     H75594   9.731   1.462   3.951 -3.5569  3.6235 -0.8764
  548MOL0     H75595   9.834   1.480   3.810  0.0986 -2.1261 -2.9963
  548MOL0     H75596   9.620   1.268   3.820 -0.4030 -2.3701 -2.6406
  548MOL0     H75597   9.744   1.300   3.690  2.3652 -0.6318  1.3713
  548MOL0     H75598   9.804   1.211   3.970 -1.1170 -1.2435 -0.6123
  548MOL0     H75599   9.931   1.258   3.855  0.1178 -1.3929 -2.7172
  548MOL0     H75600   9.867   1.089   3.707 -0.1820  0.6449  0.1057
  548MOL0     H75601   9.725   1.044   3.810 -1.4362  3.2405  0.6660
  548MOL0     H75602   9.885   0.884   3.869 -0.0274 -0.2456  2.4986
  548MOL0     H75603   9.891   1.009   3.998 -5.0516  0.9982 -0.1048
  548MOL0     H75604   9.333   1.935   3.755 -2.0302 -0.6749 -0.0319
  548MOL0     H75605   9.150   2.025   3.654  0.5032 -1.5961  1.4237
  548MOL0     H75606   8.770   1.946   3.302 -0.6574  0.2890 -2.7887
  548MOL0     H75607   8.565   2.083   3.251 -3.7961  1.6200  3.6065
  548MOL0     H75608   7.017   2.355   3.052  0.2845 -2.8369 -1.6334
  548MOL0     H75609   6.802   2.240   3.084  1.3459 -0.3021  1.1424
  548MOL0     H75610   6.452   2.156   3.108 -0.6073  0.8585  0.5003
  548MOL0     H75611   6.252   2.097   3.222 -0.4159 -0.6875  0.5137
  548MOL0     H75612   5.852   2.262   3.293  2.2306 -3.3689  1.5632
  548MOL0     H75613   5.893   2.348   3.134  3.8618 -1.2614 -2.0022
  548MOL0     H75614   5.820   2.177   3.013  2.7705  0.8387  0.3715
  548MOL0     H75615   5.696   2.181   3.115  1.6589  3.1077 -1.1347
  548MOL0     H75616   5.775   1.939   3.064  1.3775  0.0657 -1.1187
  548MOL0     H75617   5.940   1.981   3.123  0.0603 -2.0824 -0.7550
  548MOL0     H75618   5.698   1.943   3.306  0.0155 -0.4896 -0.9012
  548MOL0     H75619   5.859   1.987   3.351  2.9966 -2.4335 -0.7822
  548MOL0     H75620   5.910   1.579   3.289 -1.9950 -0.2870 -0.6877
  548MOL0     H75621   6.015   2.369   2.979  0.4167  2.1608  2.3182
  548MOL0     H75622   6.241   2.484   2.770  1.3207 -1.1355  0.4753
  548MOL0     H75623   6.220   2.325   2.703 -0.4774  0.9171  0.1825
  548MOL0     H75624   6.080   2.418   2.761 -0.6640  0.2590 -0.0603
  549MOL0     O75625  10.953  10.890   2.721  0.5924 -0.0559  0.6869
  549MOL0     C75626  10.961  10.999   2.665  0.2402 -0.5186  0.3562
  549MOL0     O75627  11.077  11.057   2.618  0.1822  0.0739 -0.2367
  549MOL0     C75628  11.191  10.987   2.655 -0.3855  0.2467  0.4404
  549MOL0     C75629  11.289  11.049   2.725 -0.1329  0.2926 -0.2448
  549MOL0     C75630  11.419  10.997   2.746  1.0470 -0.9396  0.2787
  549MOL0     C75631  11.438  10.867   2.706 -0.8618  0.7095 -0.3071
  549MOL0     O75632  11.561  10.798   2.716  0.4675  0.7461 -0.3250
  549MOL0     C75633  11.684  10.873   2.698  1.0391  0.6194  0.5729
  549MOL0     C75634  11.790  10.776   2.644 -0.3928 -0.0236 -0.1178
  549MOL0     C75635  11.912  10.845   2.593  0.2056 -0.5209  0.6369
  549MOL0     C75636  11.992  10.756   2.508 -0.3369 -1.3377  0.1036
  549MOL0     C75637  12.134  10.798   2.505 -0.1321 -0.4217  0.8481
  549MOL0     C75638  12.228  10.694   2.440 -0.1956  0.2932  0.1398
  549MOL0     C75639  12.373  10.730   2.433 -0.1430  0.1607  0.3282
  549MOL0     C75640  12.426  10.790   2.562  0.4697  0.3419  0.0520
  549MOL0     N75641  12.572  10.798   2.560  0.3998 -0.1702 -0.2548
  549MOL0     C75642  12.646  10.690   2.585  0.0594 -0.1549  0.4825
  549MOL0     C75643  12.775  10.717   2.532  0.6050 -0.0628  1.1892
  549MOL0     C75644  12.890  10.628   2.532  0.0258  0.2483  0.2999
  549MOL0     C75645  12.949  10.603   2.670 -0.0014 -0.6325  0.2002
  549MOL0     C75646  13.071  10.511   2.669 -0.4686  0.1544 -0.1286
  549MOL0     C75647  13.114  10.502   2.817 -0.5071 -1.2369  0.5632
  549MOL0     O75648  13.179  10.632   2.848 -0.3195  0.9912 -0.0814
  549MOL0     C75649  13.323  10.634   2.852  0.2012  0.0546 -0.1531
  549MOL0     C75650  13.410  10.541   2.797  0.2116  0.9943 -0.5187
  549MOL0     C75651  13.556  10.553   2.808  0.0012  0.0283 -0.1701
  549MOL0     C75652  13.635  10.440   2.743  0.0259 -0.1605 -0.3570
  549MOL0     C75653  13.610  10.658   2.886 -0.3682 -0.3566  0.1211
  549MOL0     C75654  13.756  10.676   2.920  0.4977  0.8837 -0.5739
  549MOL0     O75655  13.787  10.758   3.030  0.0865 -0.5712  0.2196
  549MOL0     C75656  13.924  10.778   3.041  0.1031  0.3535  0.4216
  549MOL0     C75657  13.982  10.876   2.956 -0.3606  0.0318 -0.6312
  549MOL0     C75658  14.121  10.882   2.938  0.7516  0.7663 -0.6442
  549MOL0     C75659  14.201  10.795   3.014 -0.4039 -0.4187  0.2483
  549MOL0     O75660  14.340  10.806   2.997  0.3219  0.5048  0.1457
  549MOL0     C75661  14.416  10.687   2.994  0.4898  0.2612 -0.0189
  549MOL0     C75662  14.484  10.657   3.128 -0.1389  0.5652  0.3158
  549MOL0     C75663  14.545  10.520   3.116  0.2858 -0.9134  0.2658
  549MOL0     C75664  14.619  10.488   3.251  0.2900  0.3309  0.3053
  549MOL0     C75665  14.740  10.392   3.226  0.5916  0.2675  0.2365
  549MOL0     C75666  14.795  10.341   3.355  0.0917  0.5190 -0.2085
  549MOL0     C75667  14.924  10.260   3.327 -0.2164  0.5639  0.6553
  549MOL0     C75668  14.985  10.193   3.445 -0.4938 -0.0375 -0.6123
  549MOL0    Cl75669  15.154  10.188   3.412 -0.0735 -0.5878 -0.2539
  549MOL0     C75670  14.143  10.714   3.112 -0.8593 -0.6402  0.4074
  549MOL0     C75671  14.004  10.705   3.120  0.0913 -0.3333 -0.0231
  549MOL0     O75672  13.835  10.611   2.857 -0.4895  0.9546  0.6386
  549MOL0     C75673  13.520  10.753   2.938 -0.0559  0.6022 -0.7730
  549MOL0     C75674  13.382  10.740   2.924 -0.0017  0.5908 -0.1163
  549MOL0     N75675  12.765  10.849   2.474 -0.0641 -0.6778 -0.3800
  549MOL0     N75676  12.647  10.893   2.493 -0.1715  0.0893 -0.5393
  549MOL0     C75677  11.339  10.802   2.624  1.0372  0.3240  0.2894
  549MOL0     C75678  11.222  10.866   2.597  0.8474  0.3232 -0.6297
  549MOL0     C75679  10.836  11.082   2.638  1.1457  0.2158 -0.4903
  549MOL0     C75680  10.831  11.167   2.526  0.2380  0.1591  0.1301
  549MOL0     C75681  10.723  11.253   2.519  0.8966  0.1608  0.0711
  549MOL0     C75682  10.618  11.255   2.608  1.0812 -0.4697 -0.3894
  549MOL0     O75683  10.517  11.354   2.606  0.1884  0.2158 -0.1275
  549MOL0     C75684  10.540  11.480   2.531  0.0796  1.1603  0.6239
  549MOL0     C75685  10.414  11.565   2.564 -0.0073 -0.3053  0.4529
  549MOL0     C75686  10.409  11.611   2.709 -0.2076 -0.9225 -0.4190
  549MOL0     C75687  10.526  11.710   2.737  0.1105  0.5913 -0.1440
  549MOL0     C75688  10.500  11.792   2.850 -0.2089 -0.2245 -0.9533
  549MOL0     C75689  10.466  11.842   2.954  0.5092 -0.4182 -0.3497
  549MOL0     C75690  10.614  11.164   2.711 -0.0412 -0.1223 -0.5061
  549MOL0     C75691  10.719  11.081   2.728 -0.4527  0.2500  0.0957
  549MOL0     C75692  10.720  10.990   2.852 -0.0118 -0.9592  1.2292
  549MOL0     H75693  11.276  11.150   2.763 -0.6959  0.7253 -1.5187
  549MOL0     H75694  11.497  11.058   2.790  1.4841 -0.8254 -0.6296
  549MOL0     H75695  11.713  10.921   2.792 -2.2847  1.8823  1.1177
  549MOL0     H75696  11.663  10.957   2.631  1.0087  2.7626  3.0739
  549MOL0     H75697  11.821  10.702   2.719  3.9864 -0.4952 -2.0742
  549MOL0     H75698  11.742  10.723   2.561 -3.0057 -0.4154  1.5400
  549MOL0     H75699  11.882  10.932   2.533  0.7654 -1.9964 -1.9209
  549MOL0     H75700  11.958  10.874   2.688 -4.1797  0.7124  2.6681
  549MOL0     H75701  11.989  10.658   2.557 -0.1411 -1.1329  0.5311
  549MOL0     H75702  11.959  10.742   2.405 -0.3115  2.3763 -0.5494
  549MOL0     H75703  12.165  10.810   2.609 -0.8646 -1.0769  1.1576
  549MOL0     H75704  12.142  10.891   2.449 -1.4648 -1.7027 -1.6858
  549MOL0     H75705  12.219  10.603   2.499  1.1639  1.9144  3.0694
  549MOL0     H75706  12.189  10.677   2.339  2.6110  1.1210 -1.2011
  549MOL0     H75707  12.396  10.796   2.348  1.5078 -1.1903 -0.3290
  549MOL0     H75708  12.425  10.635   2.419  0.4437  0.3170  1.3248
  549MOL0     H75709  12.383  10.889   2.547 -3.2270 -1.3155 -1.4227
  549MOL0     H75710  12.383  10.729   2.642 -0.9765 -0.0166 -0.9622
  549MOL0     H75711  12.605  10.601   2.632 -0.4242 -0.7525 -1.0311
  549MOL0     H75712  12.969  10.670   2.471 -0.4306  1.0958  0.2810
  549MOL0     H75713  12.872  10.530   2.487  0.7080  0.9539 -1.5887
  549MOL0     H75714  12.977  10.697   2.719 -0.1179 -0.9225  0.8317
  549MOL0     H75715  12.866  10.567   2.731  0.0354  0.1078  0.6870
  549MOL0     H75716  13.040  10.412   2.634 -4.0425  0.9896  0.2955
  549MOL0     H75717  13.148  10.559   2.607 -0.8721  3.1563  1.5282
  549MOL0     H75718  13.041  10.482   2.896 -0.3135  0.6543  1.2747
  549MOL0     H75719  13.188  10.422   2.825 -0.3415 -1.5882 -3.0816
  549MOL0     H75720  13.362  10.469   2.732  0.5379 -0.0975  0.4118
  549MOL0     H75721  13.575  10.350   2.723 -1.9023  0.8872  0.4789
  549MOL0     H75722  13.719  10.408   2.806  0.9755  1.3911 -0.7902
  549MOL0     H75723  13.670  10.489   2.651  2.0403  0.2389  0.5650
  549MOL0     H75724  13.916  10.944   2.904 -2.4261  0.4642  2.2963
  549MOL0     H75725  14.160  10.955   2.868  1.2223  0.1087 -1.0772
  549MOL0     H75726  14.360  10.600   2.959  0.0492 -0.3889  2.1465
  549MOL0     H75727  14.499  10.697   2.923 -0.2159 -0.8578 -1.0303
  549MOL0     H75728  14.563  10.731   3.145  0.9529 -0.7270  1.0031
  549MOL0     H75729  14.416  10.658   3.213 -0.2777 -2.9413  0.3646
  549MOL0     H75730  14.616  10.516   3.033  1.3461 -0.1575  1.1044
  549MOL0     H75731  14.465  10.447   3.108 -0.6097  0.2301 -2.0495
  549MOL0     H75732  14.546  10.436   3.313 -0.2504 -1.6103 -1.8211
  549MOL0     H75733  14.641  10.582   3.303 -0.2690  1.0229 -0.6697
  549MOL0     H75734  14.708  10.312   3.159  0.7849  1.1084 -0.8782
  549MOL0     H75735  14.812  10.450   3.169  0.7786 -0.5348 -0.3554
  549MOL0     H75736  14.736  10.268   3.411 -1.8533  0.4677 -2.2212
  549MOL0     H75737  14.818  10.425   3.423  3.0077  0.3551 -0.8576
  549MOL0     H75738  14.993  10.335   3.286 -1.8170  2.6446  1.5464
  549MOL0     H75739  14.905  10.181   3.254  1.2737  1.4439 -0.7374
  549MOL0     H75740  14.942  10.093   3.449 -1.0453  0.1674 -1.2660
  549MOL0     H75741  14.965  10.244   3.540 -0.2880  0.6839 -0.9498
  549MOL0     H75742  14.206  10.657   3.180 -0.9358  1.1470  2.0446
  549MOL0     H75743  13.964  10.631   3.189  0.2604  0.0670  0.5188
  549MOL0     H75744  13.552  10.830   3.007  0.6835 -0.3030 -0.0790
  549MOL0     H75745  13.312  10.807   2.975 -1.4619 -1.1132  0.2350
  549MOL0     H75746  11.370  10.705   2.589  1.4350  0.2299  0.8842
  549MOL0     H75747  11.148  10.810   2.541 -0.6456  2.2063 -0.6428
  549MOL0     H75748  10.899  11.162   2.442 -1.5807 -2.9699 -1.3302
  549MOL0     H75749  10.731  11.309   2.427  1.2290 -0.7931 -0.4964
  549MOL0     H75750  10.628  11.536   2.562  1.3845 -0.0668 -0.7336
  549MOL0     H75751  10.539  11.464   2.423  2.2346  1.2198  0.5520
  549MOL0     H75752  10.328  11.511   2.524  1.1392 -1.5471 -0.4620
  549MOL0     H75753  10.423  11.651   2.496  2.9900  1.2334  2.5131
  549MOL0     H75754  10.315  11.666   2.717  0.3667 -0.1202  1.0808
  549MOL0     H75755  10.416  11.533   2.785  2.7684  1.2076  1.7422
  549MOL0     H75756  10.556  11.766   2.648  2.6295  1.3781  1.1078
  549MOL0     H75757  10.613  11.650   2.767  2.8163  3.4213 -1.6966
  549MOL0     H75758  10.442  11.894   3.045 -0.1459  2.1253 -1.8535
  549MOL0     H75759  10.538  11.158   2.787  0.3228 -2.5262 -0.2484
  549MOL0     H75760  10.640  11.019   2.920 -0.2499 -2.4675  1.6065
  549MOL0     H75761  10.694  10.888   2.825 -0.2819 -0.9474  1.4481
  549MOL0     H75762  10.817  10.996   2.903  0.7437  1.4603 -0.2824
  550MOL0     O75763   6.017   9.609   7.212 -0.0005  0.3526 -0.1001
  550MOL0     C75764   5.958   9.564   7.314  0.1236 -0.6960 -0.2780
  550MOL0     O75765   6.020   9.515   7.428 -0.4076 -0.4325  0.0263
  550MOL0     C75766   6.151   9.529   7.445 -0.8808 -0.8380 -0.5873
  550MOL0     C75767   6.234   9.633   7.402  0.3747  0.0896  0.4588
  550MOL0     C75768   6.372   9.641   7.430  0.8529 -1.0649  0.1555
  550MOL0     C75769   6.434   9.527   7.488  0.1719 -0.2418  0.3919
  550MOL0     O75770   6.567   9.514   7.507 -0.1524  0.5178 -0.7967
  550MOL0     C75771   6.655   9.608   7.442 -0.0856  0.1863  0.2155
  550MOL0     C75772   6.797   9.558   7.471 -0.2998  1.5164 -0.0566
  550MOL0     C75773   6.846   9.436   7.383 -0.0465  0.1173  0.0170
  550MOL0     C75774   6.979   9.371   7.420  0.0548 -0.1586 -0.3236
  550MOL0     C75775   7.010   9.256   7.326  1.1101 -0.5639  0.7951
  550MOL0     C75776   7.123   9.169   7.362 -0.3065 -0.1572  0.7359
  550MOL0     C75777   7.260   9.250   7.367  0.4231  0.3705 -0.2068
  550MOL0     C75778   7.381   9.148   7.362 -0.5177  0.2375 -0.0647
  550MOL0     N75779   7.513   9.208   7.377  0.1877  0.2844  0.9869
  550MOL0     C75780   7.556   9.310   7.290  0.1382  0.2436  1.0333
  550MOL0     C75781   7.676   9.341   7.343  0.2848 -0.1894  0.0661
  550MOL0     C75782   7.770   9.448   7.306  0.2332  0.3104  0.9076
  550MOL0     C75783   7.907   9.389   7.261 -0.6782 -0.1680 -0.1088
  550MOL0     C75784   8.017   9.489   7.245  0.4201  0.0047 -0.1038
  550MOL0     C75785   8.077   9.521   7.380 -0.3096  0.4152  0.6243
  550MOL0     O75786   8.183   9.429   7.418  0.1591  0.3196  0.1615
  550MOL0     C75787   8.295   9.410   7.352  0.1712  0.6184  0.0890
  550MOL0     C75788   8.375   9.310   7.404  0.5418 -0.4218  0.1229
  550MOL0     C75789   8.511   9.303   7.366 -0.6121 -1.0103 -0.1690
  550MOL0     C75790   8.608   9.219   7.441  1.3538  0.4121  0.1971
  550MOL0     C75791   8.562   9.383   7.259 -0.3074  0.0889  1.3908
  550MOL0     C75792   8.707   9.384   7.213 -0.1515  0.0348 -0.1807
  550MOL0     O75793   8.747   9.492   7.141 -0.0092 -0.5337  0.2264
  550MOL0     C75794   8.882   9.513   7.126  0.4106 -0.1627  0.0628
  550MOL0     C75795   8.962   9.442   7.032 -0.0333  0.2958 -0.6036
  550MOL0     C75796   9.101   9.445   7.030 -0.5874 -0.2530  0.7258
  550MOL0     C75797   9.165   9.535   7.107 -0.4347 -0.3853  0.1256
  550MOL0     O75798   9.300   9.519   7.128 -0.0784 -0.3364  0.8488
  550MOL0     C75799   9.375   9.641   7.125 -0.8597 -0.3958  0.2457
  550MOL0     C75800   9.523   9.598   7.111  0.3950  0.5652  0.3929
  550MOL0     C75801   9.617   9.723   7.101  0.6123  0.6052  0.2651
  550MOL0     C75802   9.766   9.694   7.072  0.0782 -0.1909  0.3797
  550MOL0     C75803   9.852   9.824   7.059  0.3113  0.5609  0.3411
  550MOL0     C75804  10.002   9.769   7.052 -0.7206 -0.2206 -0.1306
  550MOL0     C75805  10.100   9.881   7.080  0.4377  0.1757  0.1760
  550MOL0     C75806  10.247   9.856   7.054 -0.0827  0.2424 -0.6527
  550MOL0    Cl75807  10.289   9.769   6.900  0.1499 -0.0464  0.4229
  550MOL0     C75808   9.088   9.623   7.190  0.2049  0.0600  0.0709
  550MOL0     C75809   8.948   9.611   7.201  0.1599 -0.2860  0.5277
  550MOL0     O75810   8.781   9.291   7.238  0.2126 -0.1787 -0.5385
  550MOL0     C75811   8.473   9.479   7.202  0.7741  0.6573  0.3276
  550MOL0     C75812   8.338   9.489   7.248 -0.6251  0.4938  0.2819
  550MOL0     N75813   7.700   9.267   7.458 -0.6223 -0.4812 -0.5736
  550MOL0     N75814   7.599   9.187   7.475 -0.0521  0.0037 -0.1985
  550MOL0     C75815   6.348   9.438   7.552 -0.6927 -0.2427 -0.9229
  550MOL0     C75816   6.215   9.433   7.528  0.0661  0.4280  0.5921
  550MOL0     C75817   5.811   9.538   7.305 -0.3371  0.2133  0.8332
  550MOL0     C75818   5.761   9.441   7.398  0.0235 -0.9313  0.7519
  550MOL0     C75819   5.625   9.405   7.409 -0.2047 -0.0014 -0.3726
  550MOL0     C75820   5.532   9.482   7.330  0.3227  0.6100  0.1121
  550MOL0     O75821   5.400   9.449   7.348 -0.1779  0.6353 -0.2144
  550MOL0     C75822   5.302   9.526   7.285  0.1283 -0.2202  0.9118
  550MOL0     C75823   5.163   9.503   7.329 -0.2140 -0.6786 -0.3508
  550MOL0     C75824   5.120   9.354   7.303 -0.3928 -0.3309 -0.3269
  550MOL0     C75825   5.146   9.270   7.428 -0.6570 -0.3745 -0.2556
  550MOL0     C75826   5.077   9.138   7.430 -0.3227 -0.0680 -0.0257
  550MOL0     C75827   5.025   9.032   7.431 -1.3468  0.8685 -0.1748
  550MOL0     C75828   5.578   9.578   7.237 -1.0006 -0.5203  0.0872
  550MOL0     C75829   5.718   9.604   7.223  0.9573  0.4221  0.5812
  550MOL0     C75830   5.763   9.713   7.117  0.6089 -0.9095 -0.0042
  550MOL0     H75831   6.192   9.720   7.353  0.0877 -1.4268 -2.1556
  550MOL0     H75832   6.429   9.733   7.416  0.1344 -0.6278  0.0485
  550MOL0     H75833   6.650   9.710   7.481 -1.4260  0.0718  0.3719
  550MOL0     H75834   6.621   9.604   7.338 -1.3379  1.5574  0.5364
  550MOL0     H75835   6.862   9.645   7.456  0.0567  0.9331 -2.3545
  550MOL0     H75836   6.807   9.515   7.571 -0.5111  0.8659 -0.3113
  550MOL0     H75837   6.761   9.367   7.386 -1.6631  2.0320  0.7516
  550MOL0     H75838   6.849   9.465   7.278  0.9528  2.4504  0.6293
  550MOL0     H75839   7.060   9.444   7.423  1.7022 -1.8210 -1.7436
  550MOL0     H75840   6.960   9.327   7.519 -4.0189 -0.6033 -1.1153
  550MOL0     H75841   7.022   9.298   7.225 -0.3790  0.5872  1.0701
  550MOL0     H75842   6.922   9.193   7.314  0.9679 -0.5492  1.7062
  550MOL0     H75843   7.107   9.112   7.453  2.6678 -0.7165  1.0230
  550MOL0     H75844   7.138   9.100   7.279  3.2804 -3.5674  3.8330
  550MOL0     H75845   7.272   9.300   7.464  0.4599  3.2509 -1.6106
  550MOL0     H75846   7.261   9.330   7.293  0.3268  0.7417  0.1917
  550MOL0     H75847   7.375   9.070   7.438  0.4926  0.1620 -0.0470
  550MOL0     H75848   7.374   9.097   7.265  0.8624  1.0205 -0.5933
  550MOL0     H75849   7.509   9.354   7.202 -1.2714  0.0463  1.6578
  550MOL0     H75850   7.787   9.509   7.395  0.4510  0.1461  0.9779
  550MOL0     H75851   7.722   9.509   7.228 -1.6439 -0.8698  1.0810
  550MOL0     H75852   7.948   9.313   7.327  1.0910 -0.1278 -1.0863
  550MOL0     H75853   7.886   9.342   7.165  0.2702  1.3102 -1.0805
  550MOL0     H75854   8.092   9.459   7.172 -0.8259 -0.0266 -1.4108
  550MOL0     H75855   7.983   9.588   7.212  2.8264  0.4911 -1.3719
  550MOL0     H75856   8.120   9.622   7.375  0.6436 -0.0003  0.3069
  550MOL0     H75857   8.003   9.534   7.459  1.5126  2.0729  2.1643
  550MOL0     H75858   8.334   9.244   7.480  1.9313 -3.1752 -1.3499
  550MOL0     H75859   8.642   9.132   7.384  0.8443 -0.3674  1.0751
  550MOL0     H75860   8.555   9.185   7.530 -0.1115 -2.2841 -1.5652
  550MOL0     H75861   8.702   9.262   7.478  1.1626  0.1610  0.9971
  550MOL0     H75862   8.913   9.366   6.972  1.0890 -1.7501  0.9248
  550MOL0     H75863   9.167   9.378   6.977 -0.9395 -0.0060 -0.0501
  550MOL0     H75864   9.354   9.711   7.043 -1.2737 -0.1430  0.5596
  550MOL0     H75865   9.363   9.705   7.213 -2.9712 -0.7024  0.2254
  550MOL0     H75866   9.549   9.535   7.196 -1.6512 -0.4636  0.3280
  550MOL0     H75867   9.527   9.531   7.025 -1.5230  0.0750  0.6381
  550MOL0     H75868   9.617   9.776   7.197  2.6739  0.4884  0.3604
  550MOL0     H75869   9.571   9.784   7.023  0.7384 -2.4840 -2.4497
  550MOL0     H75870   9.766   9.645   6.975 -1.9635  0.2668  0.1086
  550MOL0     H75871   9.807   9.625   7.147  3.0634  0.9368 -0.0952
  550MOL0     H75872   9.816   9.889   6.979 -2.5405 -0.0988  1.0018
  550MOL0     H75873   9.839   9.883   7.150  2.0809  1.7628 -0.1331
  550MOL0     H75874  10.033   9.715   6.962  0.7566 -0.2246  0.3618
  550MOL0     H75875  10.015   9.694   7.131  3.2063 -0.5305 -0.8433
  550MOL0     H75876  10.108   9.884   7.189  0.2687 -0.0970  0.1973
  550MOL0     H75877  10.060   9.977   7.047 -1.0031 -1.2685 -2.7450
  550MOL0     H75878  10.300   9.794   7.127  0.3500 -1.1001 -2.0383
  550MOL0     H75879  10.303   9.950   7.059 -0.0954  0.2971 -1.3685
  550MOL0     H75880   9.134   9.709   7.238  0.2451  0.5476 -0.8061
  550MOL0     H75881   8.892   9.673   7.270  1.7647  0.5191  1.1837
  550MOL0     H75882   8.512   9.542   7.123 -0.3671  0.6936 -0.2247
  550MOL0     H75883   8.283   9.571   7.202  1.5759  2.7457  1.3980
  550MOL0     H75884   6.398   9.373   7.623 -0.0073 -2.5166 -3.3559
  550MOL0     H75885   6.161   9.355   7.580  0.7555  2.4485  4.7059
  550MOL0     H75886   5.833   9.390   7.461  1.2542 -3.0767 -2.1322
  550MOL0     H75887   5.592   9.344   7.493  0.9793  0.9749  0.8476
  550MOL0     H75888   5.324   9.633   7.298 -1.2545  0.4427 -1.5655
  550MOL0     H75889   5.303   9.509   7.177 -2.3012  5.5566 -0.4254
  550MOL0     H75890   5.092   9.564   7.273  1.1919  0.9322 -0.4562
  550MOL0     H75891   5.160   9.529   7.435 -0.8084 -1.1604 -0.2387
  550MOL0     H75892   5.015   9.346   7.274 -0.8330  1.4545  0.6089
  550MOL0     H75893   5.171   9.302   7.221  0.8141  0.9204 -0.4112
  550MOL0     H75894   5.117   9.333   7.513 -1.3314 -1.2798  0.1980
  550MOL0     H75895   5.253   9.253   7.438 -0.7007 -0.7708 -0.4639
  550MOL0     H75896   4.970   8.940   7.424 -0.1768  0.1405 -0.1542
  550MOL0     H75897   5.511   9.630   7.169 -1.1847 -0.1169  0.5713
  550MOL0     H75898   5.815   9.663   7.036  0.4123 -0.8748 -0.1520
  550MOL0     H75899   5.674   9.760   7.075  0.9532 -0.2851 -0.0523
  550MOL0     H75900   5.826   9.794   7.156 -0.6702  0.7268 -1.1715
  551MOL0     O75901   0.128   6.005   2.749  0.7756  0.3544 -0.1906
  551MOL0     C75902   0.051   5.947   2.821  0.0929  0.1129 -0.5330
  551MOL0     O75903   0.083   5.852   2.918 -0.3784  0.3166 -0.6330
  551MOL0     C75904   0.204   5.846   2.978 -0.2609 -0.4324 -0.4498
  551MOL0     C75905   0.318   5.861   2.895  0.6753  1.6560 -0.7407
  551MOL0     C75906   0.442   5.857   2.963 -0.2708 -0.0366  0.0644
  551MOL0     C75907   0.446   5.828   3.102  0.2188 -0.4026  0.4557
  551MOL0     O75908   0.566   5.823   3.161  0.0850  0.7491  0.0296
  551MOL0     C75909   0.575   5.790   3.306 -0.3701  0.0862 -0.4123
  551MOL0     C75910   0.725   5.759   3.341 -0.7753 -0.4296 -0.6328
  551MOL0     C75911   0.742   5.725   3.493 -0.0803 -0.3839  0.0362
  551MOL0     C75912   0.879   5.669   3.532 -0.2324 -0.1021  0.0549
  551MOL0     C75913   0.923   5.706   3.672  0.4822  0.9566  0.2721
  551MOL0     C75914   1.060   5.629   3.703 -0.7833 -0.4927 -0.0508
  551MOL0     C75915   1.108   5.648   3.844  0.8033  0.2334  0.3971
  551MOL0     C75916   1.211   5.549   3.876  0.2406  0.4394  0.6331
  551MOL0     N75917   1.255   5.563   4.014 -0.6071  0.1495  0.2987
  551MOL0     C75918   1.189   5.527   4.134  0.0718  0.3806  0.2617
  551MOL0     C75919   1.272   5.558   4.234  0.1574  0.7804 -0.4477
  551MOL0     C75920   1.264   5.517   4.374  0.8653  0.3025  0.3980
  551MOL0     C75921   1.393   5.542   4.447 -0.6602 -0.0901  0.4120
  551MOL0     C75922   1.389   5.532   4.599 -0.0534 -0.5000  0.2682
  551MOL0     C75923   1.518   5.537   4.680  0.4790 -0.0195 -0.2457
  551MOL0     O75924   1.499   5.534   4.821  0.2875  0.1969 -0.2779
  551MOL0     C75925   1.452   5.429   4.888 -0.2271 -1.1112  0.3453
  551MOL0     C75926   1.408   5.458   5.012 -0.4912  0.5304 -1.0678
  551MOL0     C75927   1.361   5.365   5.104  0.0732  0.3628  0.0675
  551MOL0     C75928   1.356   5.408   5.248  0.0124 -0.2226 -0.0963
  551MOL0     C75929   1.332   5.232   5.054 -0.6039 -0.0197 -0.6378
  551MOL0     C75930   1.262   5.125   5.133 -0.2973  0.5500  0.4690
  551MOL0     O75931   1.283   4.993   5.109 -0.0748 -0.5926  0.1003
  551MOL0     C75932   1.182   4.913   5.136 -0.0201 -0.2866  0.1228
  551MOL0     C75933   1.050   4.930   5.104 -0.0275 -0.3432  0.7413
  551MOL0     C75934   0.953   4.837   5.140  0.2431  0.1164 -0.3096
  551MOL0     C75935   0.989   4.717   5.202  0.5041 -0.1527  0.5575
  551MOL0     O75936   0.885   4.647   5.261  0.6057  0.0734  0.2222
  551MOL0     C75937   0.902   4.517   5.315 -0.2899 -0.3976 -0.1622
  551MOL0     C75938   0.768   4.471   5.366  1.3865  0.5729  0.8453
  551MOL0     C75939   0.716   4.547   5.476  0.0941 -0.2639  0.3881
  551MOL0     C75940   0.596   4.473   5.532 -0.7579  0.0627 -0.2188
  551MOL0     C75941   0.523   4.545   5.645 -0.2912  0.5598  0.0981
  551MOL0     C75942   0.457   4.673   5.592  0.4043  0.5469  0.2630
  551MOL0     C75943   0.424   4.772   5.702  0.4238 -0.8635 -0.5322
  551MOL0     C75944   0.279   4.844   5.687  0.5297 -0.0309 -0.1235
  551MOL0    Cl75945   0.148   4.715   5.715  0.1142 -0.1365 -0.1801
  551MOL0     C75946   1.126   4.690   5.221  0.2253  0.4855 -0.5047
  551MOL0     C75947   1.219   4.787   5.179  0.0060 -0.0303 -0.0784
  551MOL0     O75948   1.192   5.170   5.223 -0.0347 -0.2341 -0.3976
  551MOL0     C75949   1.372   5.204   4.923 -0.7461  0.3729  0.0750
  551MOL0     C75950   1.440   5.296   4.835  0.2705 -0.5035 -0.5825
  551MOL0     N75951   1.370   5.645   4.183 -0.6926 -0.5242  0.4573
  551MOL0     N75952   1.364   5.638   4.050  0.8672 -0.3210  0.6745
  551MOL0     C75953   0.328   5.807   3.173 -0.9096 -0.9590 -0.0185
  551MOL0     C75954   0.206   5.809   3.110  0.4524 -0.3670  0.5349
  551MOL0     C75955  -0.099   5.960   2.788  0.4637 -0.5355 -0.1069
  551MOL0     C75956  -0.188   5.879   2.860  0.2808  0.3423  0.6436
  551MOL0     C75957  -0.324   5.878   2.837  0.8689  0.2326  0.2319
  551MOL0     C75958  -0.386   5.961   2.748  0.0353 -0.6214  0.4791
  551MOL0     O75959  -0.520   5.964   2.730  0.4966 -0.2738  0.6958
  551MOL0     C75960  -0.605   5.874   2.806  1.0003  0.1925 -0.9315
  551MOL0     C75961  -0.747   5.880   2.751 -0.6958 -0.0089  0.2779
  551MOL0     C75962  -0.819   6.011   2.789 -0.4786 -0.2543 -0.3258
  551MOL0     C75963  -0.940   6.039   2.699  0.5363 -0.4098 -0.5608
  551MOL0     C75964  -1.048   5.941   2.735 -0.0310  1.2467 -0.5896
  551MOL0     C75965  -1.127   5.843   2.755 -0.4654 -0.3102  0.5941
  551MOL0     C75966  -0.306   6.060   2.695 -0.2018 -0.2070  0.0593
  551MOL0     C75967  -0.167   6.059   2.706 -0.3607 -0.2493 -0.8940
  551MOL0     C75968  -0.083   6.174   2.651 -0.4298 -0.2374  0.0281
  551MOL0     H75969   0.305   5.866   2.787 -3.2294  0.9417 -0.4379
  551MOL0     H75970   0.530   5.849   2.899  0.9369 -2.3105  1.8369
  551MOL0     H75971   0.519   5.698   3.327 -0.7315  1.0348  3.6767
  551MOL0     H75972   0.541   5.870   3.372  1.7290 -0.1422  1.0156
  551MOL0     H75973   0.767   5.680   3.277  2.7065  1.2739 -0.6654
  551MOL0     H75974   0.787   5.848   3.326  2.3258 -1.9150  2.0442
  551MOL0     H75975   0.738   5.820   3.547  2.9148  0.4185 -0.9316
  551MOL0     H75976   0.667   5.656   3.533  0.6376  0.1088  2.3756
  551MOL0     H75977   0.879   5.560   3.527  2.0630 -0.2040  1.1030
  551MOL0     H75978   0.950   5.709   3.459 -1.3380 -0.5841 -1.3317
  551MOL0     H75979   0.856   5.671   3.751  1.6326  0.5220  1.0857
  551MOL0     H75980   0.933   5.814   3.668 -1.9154  1.2061 -2.5139
  551MOL0     H75981   1.045   5.526   3.670 -3.1561  0.0456 -0.8374
  551MOL0     H75982   1.134   5.672   3.636  0.3574 -2.5947 -0.2196
  551MOL0     H75983   1.030   5.631   3.918 -1.5823 -0.5597 -2.1692
  551MOL0     H75984   1.151   5.748   3.856  1.6525 -0.3898  3.6024
  551MOL0     H75985   1.177   5.445   3.868 -1.7734  1.1861 -1.4202
  551MOL0     H75986   1.296   5.572   3.810  0.4870 -0.6115  0.5612
  551MOL0     H75987   1.093   5.478   4.145 -0.1120  0.0651 -2.1190
  551MOL0     H75988   1.242   5.410   4.374  2.2420 -0.0444  2.4027
  551MOL0     H75989   1.181   5.566   4.426  1.0704 -1.7124  2.8561
  551MOL0     H75990   1.471   5.478   4.406 -0.0227 -0.8276  2.6076
  551MOL0     H75991   1.427   5.642   4.418 -2.3371  0.5744  0.6178
  551MOL0     H75992   1.334   5.618   4.638  1.6792  0.6737  0.2267
  551MOL0     H75993   1.342   5.436   4.619 -2.3689  0.9697  2.5625
  551MOL0     H75994   1.580   5.451   4.656  1.3940  0.2812  0.9667
  551MOL0     H75995   1.578   5.624   4.652  2.1321 -0.8104  0.7270
  551MOL0     H75996   1.409   5.558   5.054  0.3052 -1.2183  3.7874
  551MOL0     H75997   1.416   5.498   5.268 -2.2383  1.4652 -0.4920
  551MOL0     H75998   1.391   5.322   5.306 -4.2813 -1.0952  1.5619
  551MOL0     H75999   1.255   5.433   5.281 -0.7060 -0.1321 -2.2411
  551MOL0     H76000   1.008   5.018   5.055  1.4544  1.3083  2.3043
  551MOL0     H76001   0.846   4.854   5.127  0.0658 -0.3385  0.4847
  551MOL0     H76002   0.939   4.450   5.236 -0.7710 -1.1573  0.2534
  551MOL0     H76003   0.971   4.512   5.400  0.0364  0.2550 -0.3797
  551MOL0     H76004   0.700   4.471   5.281 -0.6278 -3.7995  2.1773
  551MOL0     H76005   0.782   4.366   5.394 -0.7721  0.0442  0.0722
  551MOL0     H76006   0.687   4.643   5.431  0.3481 -0.8773 -1.1321
  551MOL0     H76007   0.793   4.562   5.552  1.9160  1.4485 -1.6452
  551MOL0     H76008   0.633   4.383   5.582  0.4523  2.4462  3.5633
  551MOL0     H76009   0.530   4.436   5.453 -0.9753 -2.3555  1.0070
  551MOL0     H76010   0.439   4.477   5.663  0.2221 -0.9607 -2.6723
  551MOL0     H76011   0.594   4.568   5.726 -2.3685  1.8391  1.6644
  551MOL0     H76012   0.366   4.644   5.539 -0.0035 -0.1468  1.3153
  551MOL0     H76013   0.520   4.729   5.522  2.4345 -2.7256 -0.7126
  551MOL0     H76014   0.492   4.858   5.708 -1.4446  0.6576 -0.4666
  551MOL0     H76015   0.425   4.718   5.797 -0.9228 -0.3198 -0.1880
  551MOL0     H76016   0.273   4.894   5.590 -0.6934  0.4172  0.1705
  551MOL0     H76017   0.265   4.922   5.762  0.4638 -0.0934 -0.0701
  551MOL0     H76018   1.160   4.591   5.250  0.8716  0.8512  0.0240
  551MOL0     H76019   1.325   4.770   5.195  0.2272  1.5304  0.2632
  551MOL0     H76020   1.346   5.105   4.887  0.3203  0.3838 -0.7520
  551MOL0     H76021   1.463   5.258   4.735 -4.0583 -2.6684 -1.0060
  551MOL0     H76022   0.320   5.784   3.278  1.0155  4.2997  1.6067
  551MOL0     H76023   0.110   5.798   3.160 -1.1623  1.2724 -1.9309
  551MOL0     H76024  -0.146   5.807   2.929 -1.3839 -0.6597  0.6588
  551MOL0     H76025  -0.382   5.799   2.883  2.2565 -0.5083  0.7959
  551MOL0     H76026  -0.567   5.771   2.802  1.1158  0.1866  0.0823
  551MOL0     H76027  -0.602   5.912   2.908  1.5272 -0.4913 -0.6893
  551MOL0     H76028  -0.800   5.799   2.801  0.7249 -2.0921 -1.4054
  551MOL0     H76029  -0.735   5.860   2.644 -0.7599 -0.9300  0.4411
  551MOL0     H76030  -0.852   5.989   2.892  0.9100  0.6380  0.3398
  551MOL0     H76031  -0.749   6.094   2.794 -1.2449  0.4673 -1.2649
  551MOL0     H76032  -0.921   6.013   2.594 -2.8838 -0.8255 -1.1978
  551MOL0     H76033  -0.981   6.139   2.713 -2.0103 -1.4885  0.3820
  551MOL0     H76034  -1.188   5.761   2.785  0.6809 -1.6155 -0.4641
  551MOL0     H76035  -0.371   6.140   2.661  1.6563  0.5256 -1.9844
  551MOL0     H76036  -0.012   6.211   2.725 -1.5608 -2.9508  2.6990
  551MOL0     H76037  -0.037   6.140   2.558 -0.3602 -0.3807  0.1152
  551MOL0     H76038  -0.152   6.257   2.635  0.1433  0.1050 -0.7555
  552MOL0     O76039   5.384   3.410   6.019  0.2304 -0.6895  0.4326
  552MOL0     C76040   5.422   3.370   5.910  0.8055 -0.4761  0.1031
  552MOL0     O76041   5.554   3.348   5.874 -0.7395 -0.1113 -0.6641
  552MOL0     C76042   5.653   3.368   5.961 -0.4486 -0.0036 -0.4811
  552MOL0     C76043   5.737   3.258   5.971  0.1725  0.8681 -0.2056
  552MOL0     C76044   5.856   3.254   6.049  0.5316  0.1640  0.4578
  552MOL0     C76045   5.883   3.362   6.131 -0.1437 -1.2558  0.0271
  552MOL0     O76046   6.007   3.363   6.199  0.1521 -0.3226  0.7860
  552MOL0     C76047   6.033   3.444   6.313  0.4391 -0.6974 -0.0917
  552MOL0     C76048   6.140   3.546   6.285  1.0645  0.2123 -0.0648
  552MOL0     C76049   6.220   3.600   6.403  0.3470  0.1667  0.2152
  552MOL0     C76050   6.337   3.512   6.453 -0.3950 -0.7340  0.6534
  552MOL0     C76051   6.371   3.559   6.593 -0.5115  0.5222 -0.8465
  552MOL0     C76052   6.449   3.687   6.614 -0.0408 -0.2083  0.2971
  552MOL0     C76053   6.586   3.671   6.551 -0.1977  0.1443 -0.4160
  552MOL0     C76054   6.684   3.770   6.617  0.2180  0.0335  0.0342
  552MOL0     N76055   6.819   3.758   6.557  0.1776  0.4045 -0.0509
  552MOL0     C76056   6.938   3.786   6.623 -0.2500 -0.2014 -0.4291
  552MOL0     C76057   7.036   3.761   6.533  0.3770 -0.2246  0.3730
  552MOL0     C76058   7.184   3.764   6.575  0.0916  0.1166 -0.2288
  552MOL0     C76059   7.262   3.880   6.517  0.1045 -0.7141 -1.3810
  552MOL0     C76060   7.414   3.881   6.563 -0.3442 -0.2282  0.5142
  552MOL0     C76061   7.499   3.994   6.513  0.0003 -0.1710 -0.0275
  552MOL0     O76062   7.626   3.996   6.573  0.2579 -0.5842  0.0152
  552MOL0     C76063   7.726   3.914   6.536 -0.5488 -0.8831  0.0022
  552MOL0     C76064   7.831   3.898   6.619 -0.2341 -0.3528  1.0399
  552MOL0     C76065   7.943   3.818   6.588  0.0666 -0.1139  0.5267
  552MOL0     C76066   8.048   3.800   6.692  0.8232 -0.3669  0.1393
  552MOL0     C76067   7.954   3.752   6.462 -0.4372 -0.6198 -0.2852
  552MOL0     C76068   8.079   3.682   6.410  0.4156  0.5260  0.6049
  552MOL0     O76069   8.201   3.742   6.425 -0.1354 -0.0076  0.2172
  552MOL0     C76070   8.317   3.679   6.414 -0.8847  0.3219 -0.8444
  552MOL0     C76071   8.351   3.549   6.386  0.1128  0.4201 -0.3585
  552MOL0     C76072   8.485   3.507   6.376  0.7169 -0.1269  0.8392
  552MOL0     C76073   8.585   3.598   6.378  0.2595  0.6259  0.6928
  552MOL0     O76074   8.715   3.555   6.364  0.0945  0.8928 -0.6298
  552MOL0     C76075   8.758   3.417   6.374 -0.2121 -0.5503 -0.1954
  552MOL0     C76076   8.738   3.354   6.516 -0.3742  0.1937  0.8541
  552MOL0     C76077   8.776   3.207   6.505  0.3998 -0.5744 -0.2382
  552MOL0     C76078   8.925   3.185   6.519 -0.5559 -0.6066  0.4445
  552MOL0     C76079   8.954   3.041   6.514 -0.5134 -0.0008  0.0745
  552MOL0     C76080   9.105   3.016   6.500  0.7113  0.4735  0.3072
  552MOL0     C76081   9.154   2.867   6.500 -0.9298 -1.1807  0.0189
  552MOL0     C76082   9.156   2.807   6.640  0.0335  0.0644 -0.4082
  552MOL0    Cl76083   9.292   2.882   6.726  0.1146  0.3753 -0.0644
  552MOL0     C76084   8.558   3.734   6.404 -0.1584  0.2769  1.4687
  552MOL0     C76085   8.427   3.775   6.420  0.6005 -0.3327 -0.4433
  552MOL0     O76086   8.057   3.584   6.350  0.3441 -0.4204  0.1330
  552MOL0     C76087   7.845   3.775   6.371 -0.3100 -0.3798  0.7022
  552MOL0     C76088   7.732   3.850   6.407 -0.7202 -0.7688  0.3022
  552MOL0     N76089   6.973   3.733   6.409 -0.3233 -0.5019 -0.1347
  552MOL0     N76090   6.848   3.733   6.428 -0.1846 -0.0235 -0.4504
  552MOL0     C76091   5.790   3.476   6.133 -0.1674 -0.0721  1.0644
  552MOL0     C76092   5.685   3.476   6.035  0.0705 -0.3752  0.0172
  552MOL0     C76093   5.326   3.359   5.791  1.1734  0.4394  0.2393
  552MOL0     C76094   5.194   3.315   5.829  0.8866  0.4247  0.3443
  552MOL0     C76095   5.093   3.299   5.732 -0.1820 -0.0289 -0.0971
  552MOL0     C76096   5.119   3.343   5.607 -0.4943  0.1889  0.2923
  552MOL0     O76097   5.013   3.325   5.517 -0.7400  0.0400  0.0822
  552MOL0     C76098   5.029   3.357   5.375  0.1071  0.5655  0.5531
  552MOL0     C76099   4.921   3.274   5.298 -0.3860 -0.2755 -0.7957
  552MOL0     C76100   4.768   3.311   5.311  0.4701 -0.7182 -0.0180
  552MOL0     C76101   4.717   3.300   5.455 -0.2266  0.5352  0.0644
  552MOL0     C76102   4.576   3.331   5.453  0.3328  0.3967  0.4292
  552MOL0     C76103   4.464   3.357   5.450  0.4629 -1.2991  0.0722
  552MOL0     C76104   5.246   3.396   5.571  0.8307 -0.2621  0.5031
  552MOL0     C76105   5.346   3.411   5.666 -1.0123 -0.9041  0.0166
  552MOL0     C76106   5.481   3.495   5.633  0.2111  0.3972  0.3979
  552MOL0     H76107   5.719   3.177   5.902  1.6594  0.3609 -0.0436
  552MOL0     H76108   5.921   3.167   6.045  2.5751  1.6652 -1.8615
  552MOL0     H76109   6.073   3.380   6.392 -3.2284 -1.9521  0.9688
  552MOL0     H76110   5.943   3.498   6.342  0.9223  0.3983 -0.6038
  552MOL0     H76111   6.218   3.520   6.214  2.7480 -1.3809  2.1943
  552MOL0     H76112   6.092   3.626   6.229  4.2173  1.3745 -1.2800
  552MOL0     H76113   6.247   3.698   6.362 -1.6254 -0.0277 -1.6803
  552MOL0     H76114   6.145   3.615   6.481 -2.8788 -3.8002 -1.8106
  552MOL0     H76115   6.315   3.405   6.458 -0.6243 -0.8595 -1.9425
  552MOL0     H76116   6.422   3.531   6.387 -2.1389 -0.7968 -1.7524
  552MOL0     H76117   6.424   3.479   6.646  0.6469  0.9486 -1.3154
  552MOL0     H76118   6.275   3.575   6.643 -1.5068 -1.6525 -1.8950
  552MOL0     H76119   6.402   3.771   6.561  1.1996  2.2245  2.7975
  552MOL0     H76120   6.455   3.700   6.722 -3.6323 -3.0138  1.0115
  552MOL0     H76121   6.574   3.684   6.443 -0.8703 -1.8819 -0.6195
  552MOL0     H76122   6.631   3.572   6.560  3.3464  1.5480 -1.0946
  552MOL0     H76123   6.650   3.872   6.595  1.5031  0.3422 -0.6214
  552MOL0     H76124   6.693   3.748   6.723 -0.9106  1.1372  0.3817
  552MOL0     H76125   6.960   3.813   6.726 -4.1192  0.0642  0.4907
  552MOL0     H76126   7.218   3.666   6.539 -1.7757 -0.6211 -0.1028
  552MOL0     H76127   7.202   3.763   6.683 -1.8313 -1.3396  0.1275
  552MOL0     H76128   7.266   3.880   6.408  4.3050  1.5142 -1.4339
  552MOL0     H76129   7.221   3.977   6.546  1.6065 -0.0894 -1.2984
  552MOL0     H76130   7.427   3.891   6.672  0.5911  1.4601  0.2864
  552MOL0     H76131   7.454   3.784   6.535 -0.9557 -0.3937  0.2173
  552MOL0     H76132   7.505   4.004   6.405 -0.4182  1.4526  0.0728
  552MOL0     H76133   7.461   4.092   6.545  0.8701  0.7928 -1.7998
  552MOL0     H76134   7.827   3.964   6.706 -3.3749  2.7326 -1.1874
  552MOL0     H76135   8.132   3.738   6.659 -0.1613 -1.3743 -0.5554
  552MOL0     H76136   8.004   3.754   6.781 -0.9743 -0.9103 -0.9817
  552MOL0     H76137   8.097   3.895   6.717 -0.2144 -0.3828  2.5730
  552MOL0     H76138   8.276   3.471   6.378  1.4172 -1.2935  2.5687
  552MOL0     H76139   8.490   3.401   6.353 -0.7785 -0.1318  0.4362
  552MOL0     H76140   8.716   3.356   6.294  0.4078 -0.4599 -0.5998
  552MOL0     H76141   8.867   3.416   6.364 -0.1809  2.0774 -0.9055
  552MOL0     H76142   8.789   3.401   6.600  0.2379 -0.6351  0.9545
  552MOL0     H76143   8.629   3.360   6.531 -0.6012 -0.6896 -0.2653
  552MOL0     H76144   8.737   3.167   6.411 -2.0672 -1.2340  0.9954
  552MOL0     H76145   8.730   3.165   6.595 -0.3958  2.3684  0.8345
  552MOL0     H76146   8.951   3.234   6.613  2.1884  1.4419 -1.2020
  552MOL0     H76147   8.979   3.232   6.436  0.0190 -0.4915  0.8787
  552MOL0     H76148   8.927   2.995   6.610 -2.3048  1.5675  0.3897
  552MOL0     H76149   8.914   2.988   6.428  2.6750 -0.3758 -1.3113
  552MOL0     H76150   9.163   3.072   6.575 -1.2480 -0.8016  2.9386
  552MOL0     H76151   9.138   3.049   6.401 -2.2932 -5.9747 -3.4396
  552MOL0     H76152   9.258   2.865   6.468 -1.2036 -1.1091 -0.9046
  552MOL0     H76153   9.094   2.803   6.434  0.2361 -0.7885 -1.4758
  552MOL0     H76154   9.173   2.699   6.644  0.8311  0.2064  0.5522
  552MOL0     H76155   9.059   2.819   6.689  0.2408 -0.2109  0.0780
  552MOL0     H76156   8.632   3.813   6.401 -0.8872  1.0083  2.2513
  552MOL0     H76157   8.397   3.880   6.422  0.9186 -0.2270 -1.2548
  552MOL0     H76158   7.853   3.735   6.270 -0.0454  1.5654 -0.0823
  552MOL0     H76159   7.658   3.861   6.328 -1.1088  2.0478  0.9492
  552MOL0     H76160   5.807   3.563   6.195  0.8355 -0.6582  1.6413
  552MOL0     H76161   5.621   3.563   6.029  0.6289  0.2215  1.9286
  552MOL0     H76162   5.166   3.291   5.931  3.4055 -1.3644  0.7107
  552MOL0     H76163   4.993   3.268   5.759 -0.0989 -1.0703 -0.9291
  552MOL0     H76164   5.039   3.465   5.361  0.6566  0.4150 -0.2619
  552MOL0     H76165   5.128   3.327   5.342 -0.9663 -0.6971 -1.7126
  552MOL0     H76166   4.926   3.167   5.320 -0.8160 -0.3779 -1.1930
  552MOL0     H76167   4.959   3.282   5.196  0.1642  0.6217 -0.5409
  552MOL0     H76168   4.764   3.415   5.277 -1.7611 -0.9401 -0.5668
  552MOL0     H76169   4.701   3.253   5.247 -0.4437 -0.1525  0.4069
  552MOL0     H76170   4.769   3.358   5.532 -0.2401  0.2109  0.3221
  552MOL0     H76171   4.720   3.195   5.486  0.4431  1.4943  3.7147
  552MOL0     H76172   4.361   3.388   5.451  1.5266  2.9609 -0.7549
  552MOL0     H76173   5.278   3.429   5.472 -1.5234 -0.0729 -0.2569
  552MOL0     H76174   5.573   3.437   5.628  0.0394 -0.2678  3.0982
  552MOL0     H76175   5.469   3.557   5.544 -0.3564 -0.4164 -0.1046
  552MOL0     H76176   5.508   3.576   5.702 -0.2947  0.9569 -0.0394
  553MOL0     O76177   0.883  10.977   2.172  0.1684 -0.3325 -0.5487
  553MOL0     C76178   0.818  11.075   2.202 -0.8904 -0.3447  0.0178
  553MOL0     O76179   0.871  11.197   2.236  0.5114 -0.0696  0.1335
  553MOL0     C76180   0.999  11.232   2.251 -0.1652 -0.1623 -0.1151
  553MOL0     C76181   1.039  11.361   2.224  0.0403  0.6613 -1.0996
  553MOL0     C76182   1.174  11.401   2.226 -0.6494  0.4482 -0.0536
  553MOL0     C76183   1.268  11.298   2.249 -0.6460  1.4040 -1.0000
  553MOL0     O76184   1.411  11.305   2.243  0.0408 -0.1069  0.5363
  553MOL0     C76185   1.470  11.425   2.180 -0.8487  0.2734 -0.3628
  553MOL0     C76186   1.617  11.403   2.139 -0.3031 -1.0723  0.9650
  553MOL0     C76187   1.691  11.323   2.257 -0.0149 -0.0552  0.7712
  553MOL0     C76188   1.695  11.399   2.392 -0.6498 -0.5328  0.3944
  553MOL0     C76189   1.616  11.333   2.512 -0.0468 -0.5338  0.1173
  553MOL0     C76190   1.703  11.225   2.565  0.3464 -0.8676  0.3345
  553MOL0     C76191   1.623  11.167   2.679 -0.0745 -0.6228 -0.4796
  553MOL0     C76192   1.709  11.077   2.762  0.5590 -0.0818 -0.5278
  553MOL0     N76193   1.652  11.031   2.887 -0.2249  0.5326  0.0562
  553MOL0     C76194   1.541  10.950   2.893  0.0990 -0.2563  0.2491
  553MOL0     C76195   1.514  10.923   3.025 -0.3900 -0.6840 -0.0729
  553MOL0     C76196   1.385  10.850   3.080 -0.5731 -0.2134  0.7327
  553MOL0     C76197   1.253  10.886   3.021  0.0569 -0.2966  0.4956
  553MOL0     C76198   1.156  10.772   3.065  0.1482 -0.3676 -0.4425
  553MOL0     C76199   1.013  10.827   3.035  0.0916  0.2568  0.4046
  553MOL0     O76200   1.004  10.897   2.908 -0.3406 -0.0005 -0.3252
  553MOL0     C76201   0.884  10.956   2.862  0.6321 -0.2090  0.3812
  553MOL0     C76202   0.907  11.062   2.774 -0.1865 -0.6535 -0.2562
  553MOL0     C76203   0.809  11.151   2.727  0.4276  0.4351  0.2932
  553MOL0     C76204   0.852  11.272   2.650  0.0552  0.2296 -0.4529
  553MOL0     C76205   0.677  11.133   2.787  0.0771  0.0423 -0.5496
  553MOL0     C76206   0.554  11.219   2.756 -0.9437  0.5771 -0.0161
  553MOL0     O76207   0.437  11.185   2.821  0.3331  0.3519 -0.8513
  553MOL0     C76208   0.328  11.264   2.832 -0.3708 -0.3855  0.2153
  553MOL0     C76209   0.283  11.342   2.727  0.1340  0.2778 -0.6150
  553MOL0     C76210   0.162  11.418   2.747 -0.8971 -0.3258  0.4634
  553MOL0     C76211   0.090  11.413   2.863  0.9818  0.6942 -0.3097
  553MOL0     O76212  -0.036  11.468   2.882  0.3115 -0.0018 -0.3438
  553MOL0     C76213  -0.131  11.453   2.784 -0.7512  0.0141  0.7257
  553MOL0     C76214  -0.271  11.482   2.835 -0.2314  0.2607 -0.4439
  553MOL0     C76215  -0.313  11.409   2.964 -0.3385  0.2173 -0.1414
  553MOL0     C76216  -0.467  11.386   2.965  0.5157 -0.4993 -0.4556
  553MOL0     C76217  -0.519  11.366   3.107  0.3530 -0.2484  0.4843
  553MOL0     C76218  -0.660  11.321   3.111  0.3595 -0.3584 -0.0663
  553MOL0     C76219  -0.756  11.430   3.086 -0.3872  0.5751 -1.0007
  553MOL0     C76220  -0.903  11.380   3.085 -0.2206 -0.4782  0.5819
  553MOL0    Cl76221  -1.030  11.516   3.089 -0.1168 -0.0361 -0.0075
  553MOL0     C76222   0.148  11.343   2.975 -0.0289 -0.0895  0.8641
  553MOL0     C76223   0.266  11.275   2.956 -0.4917  0.3740 -0.1396
  553MOL0     O76224   0.571  11.313   2.682  0.3920  0.0582  0.1942
  553MOL0     C76225   0.655  11.021   2.874  0.3818  0.7614 -0.2592
  553MOL0     C76226   0.757  10.931   2.905 -0.1485  0.4370 -0.0746
  553MOL0     N76227   1.615  10.993   3.099  1.0833  0.3545 -0.3009
  553MOL0     N76228   1.700  11.051   3.018 -0.2664  0.2079  0.1901
  553MOL0     C76229   1.227  11.166   2.274  0.0871  0.4197 -0.8226
  553MOL0     C76230   1.092  11.144   2.291 -0.3263  0.3652  0.7815
  553MOL0     C76231   0.669  11.064   2.210 -0.9477  0.1615 -0.3760
  553MOL0     C76232   0.609  11.130   2.318  0.0717 -0.6749  0.0689
  553MOL0     C76233   0.473  11.127   2.345  1.1136  0.5392 -0.3447
  553MOL0     C76234   0.394  11.036   2.277  0.5963 -0.3085 -0.0376
  553MOL0     O76235   0.270  11.027   2.321 -0.0276 -0.4173 -1.0559
  553MOL0     C76236   0.173  10.943   2.252 -0.0434  0.0787  0.0267
  553MOL0     C76237   0.035  11.002   2.284  0.0010 -0.5467  0.1486
  553MOL0     C76238   0.020  11.148   2.237 -0.4313  0.6615 -0.1475
  553MOL0     C76239  -0.137  11.192   2.237  0.0594 -0.0266  0.2477
  553MOL0     C76240  -0.231  11.110   2.170 -0.7856  0.4546  0.3635
  553MOL0     C76241  -0.316  11.048   2.108  1.2925 -0.1867  0.0076
  553MOL0     C76242   0.444  10.957   2.171 -1.1359 -0.4980 -0.3059
  553MOL0     C76243   0.581  10.982   2.134  0.4446  1.3340  0.6192
  553MOL0     C76244   0.642  10.903   2.005  0.1785  0.0333 -0.2223
  553MOL0     H76245   0.966  11.439   2.209 -0.8966  0.9754  3.5212
  553MOL0     H76246   1.195  11.503   2.194 -0.8056  0.8125  0.9640
  553MOL0     H76247   1.467  11.501   2.258  0.5416  0.3048 -0.3091
  553MOL0     H76248   1.417  11.453   2.089 -3.3504  0.3344  1.0278
  553MOL0     H76249   1.617  11.347   2.046 -1.4677 -0.2325  0.4252
  553MOL0     H76250   1.654  11.505   2.121 -4.0570  0.1084 -1.3011
  553MOL0     H76251   1.642  11.225   2.263  1.0235 -0.5442  1.3687
  553MOL0     H76252   1.793  11.297   2.229  0.5232  1.2230  1.4451
  553MOL0     H76253   1.802  11.408   2.415  0.1825  0.8997 -3.3112
  553MOL0     H76254   1.654  11.500   2.386 -2.2872 -1.2050 -0.4052
  553MOL0     H76255   1.523  11.293   2.471 -0.0737 -0.5459  0.1892
  553MOL0     H76256   1.599  11.412   2.585  1.5018  0.8838 -0.9892
  553MOL0     H76257   1.714  11.164   2.474  0.6383  0.5269 -0.6066
  553MOL0     H76258   1.798  11.273   2.590  0.2796  0.1909 -1.2649
  553MOL0     H76259   1.526  11.123   2.652 -0.0171 -0.3614 -1.1508
  553MOL0     H76260   1.592  11.252   2.739  0.4318 -1.4042  0.9346
  553MOL0     H76261   1.747  10.993   2.703  0.6297 -0.4261 -0.0048
  553MOL0     H76262   1.803  11.123   2.795  1.8133 -2.4854 -0.4852
  553MOL0     H76263   1.469  10.928   2.815 -1.9465 -1.5464  2.3391
  553MOL0     H76264   1.386  10.861   3.189  0.6484 -0.1702  0.7316
  553MOL0     H76265   1.400  10.747   3.046 -0.4522 -0.1546  0.6035
  553MOL0     H76266   1.219  10.981   3.063  1.3603  1.0912 -1.3984
  553MOL0     H76267   1.273  10.898   2.914  3.0009 -0.5439  0.9336
  553MOL0     H76268   1.173  10.681   3.006  1.2618  0.2636 -1.1391
  553MOL0     H76269   1.169  10.741   3.169  1.6265  1.2042 -0.1075
  553MOL0     H76270   0.940  10.746   3.038 -2.3276  2.2654 -0.1883
  553MOL0     H76271   0.985  10.898   3.113  1.5947 -0.7957  1.9649
  553MOL0     H76272   1.010  11.074   2.743 -0.3874  0.2253 -0.6012
  553MOL0     H76273   0.841  11.365   2.707  0.6956  0.8090 -1.2575
  553MOL0     H76274   0.797  11.287   2.557 -3.5576  0.8203  1.5719
  553MOL0     H76275   0.958  11.254   2.630  0.9520 -1.1512  4.2880
  553MOL0     H76276   0.343  11.347   2.636  1.3358  2.3713  0.2277
  553MOL0     H76277   0.120  11.470   2.662 -0.7369 -2.2446 -0.8483
  553MOL0     H76278  -0.120  11.527   2.704 -2.4348  0.2566  0.6869
  553MOL0     H76279  -0.134  11.357   2.733 -1.5593  0.5786 -0.3265
  553MOL0     H76280  -0.286  11.589   2.853 -2.8773  0.0292 -0.8995
  553MOL0     H76281  -0.339  11.453   2.755  0.9700 -0.5309 -1.2225
  553MOL0     H76282  -0.267  11.462   3.048  0.2515 -1.3632  0.5683
  553MOL0     H76283  -0.276  11.306   2.972  0.1758  0.2659 -1.5994
  553MOL0     H76284  -0.499  11.302   2.903 -3.6932 -3.3279  4.7190
  553MOL0     H76285  -0.527  11.470   2.926 -1.3380 -1.8008 -0.5459
  553MOL0     H76286  -0.475  11.277   3.153 -0.5123 -0.5551  0.7585
  553MOL0     H76287  -0.502  11.461   3.159 -1.9191  1.3486 -1.4668
  553MOL0     H76288  -0.677  11.275   3.209  4.3749 -0.8049  0.5695
  553MOL0     H76289  -0.669  11.246   3.032  2.7585 -0.8644  0.0749
  553MOL0     H76290  -0.739  11.479   2.990 -2.2047 -1.7065 -2.5889
  553MOL0     H76291  -0.740  11.505   3.165 -1.4375 -0.8398  0.6349
  553MOL0     H76292  -0.915  11.325   3.179  0.0306 -0.5064  0.5987
  553MOL0     H76293  -0.908  11.316   2.996 -0.8690  0.2706  0.0716
  553MOL0     H76294   0.096  11.328   3.068 -4.0714 -0.1166 -1.1858
  553MOL0     H76295   0.298  11.206   3.034  0.1555  1.8244  0.9121
  553MOL0     H76296   0.566  11.013   2.936 -0.7696 -0.5987 -1.9985
  553MOL0     H76297   0.723  10.848   2.966 -0.4123 -0.8192 -1.8484
  553MOL0     H76298   1.300  11.089   2.299  1.2271  1.6386 -0.2894
  553MOL0     H76299   1.060  11.046   2.327  2.5484 -1.3398 -0.8963
  553MOL0     H76300   0.678  11.190   2.376  3.2501 -1.9337 -2.1551
  553MOL0     H76301   0.436  11.189   2.427  2.4338  3.1804 -1.5981
  553MOL0     H76302   0.177  10.940   2.143 -1.3186  1.4592 -0.0977
  553MOL0     H76303   0.169  10.841   2.292  0.2715 -0.2433 -0.7519
  553MOL0     H76304   0.008  10.999   2.390 -4.4113 -1.2199 -0.7767
  553MOL0     H76305  -0.041  10.937   2.239  1.2789 -2.0363  0.0329
  553MOL0     H76306   0.066  11.203   2.320 -1.8699 -1.7912  2.4656
  553MOL0     H76307   0.073  11.163   2.143  0.8084 -1.7838  0.0777
  553MOL0     H76308  -0.143  11.297   2.206 -0.3089  1.4969  4.7400
  553MOL0     H76309  -0.181  11.186   2.337 -0.8338 -1.8884 -0.2194
  553MOL0     H76310  -0.398  10.989   2.073  0.5167 -1.0100  2.9105
  553MOL0     H76311   0.374  10.893   2.117 -0.1369 -0.3315 -1.8528
  553MOL0     H76312   0.722  10.955   1.952  0.9470 -0.3528  0.5181
  553MOL0     H76313   0.695  10.812   2.035 -0.4578  0.2450  1.6943
  553MOL0     H76314   0.561  10.883   1.935  0.6824  1.5143 -1.2824
  554MOL0     O76315   1.957   7.843   9.769 -0.4654  0.0271 -0.3289
  554MOL0     C76316   1.881   7.754   9.796 -0.3388  0.7756 -0.4133
  554MOL0     O76317   1.911   7.629   9.836  0.0118  0.1206 -0.2285
  554MOL0     C76318   2.041   7.599   9.861  0.2549  0.2809 -0.1828
  554MOL0     C76319   2.112   7.678   9.944  0.5299  0.2665  1.0232
  554MOL0     C76320   2.242   7.636   9.983 -0.5937  0.3728 -0.0799
  554MOL0     C76321   2.292   7.511   9.943  0.0293 -0.0850  0.4471
  554MOL0     O76322   2.411   7.463   9.986  0.1709 -0.2996 -0.1803
  554MOL0     C76323   2.518   7.483   9.889 -0.1300 -0.6841  0.2841
  554MOL0     C76324   2.640   7.468   9.961 -0.6518 -0.3011 -0.1615
  554MOL0     C76325   2.759   7.501   9.870 -0.2494 -0.7184  0.4323
  554MOL0     C76326   2.891   7.513   9.953  0.2673  0.6736  0.8586
  554MOL0     C76327   3.006   7.563   9.871  0.3488  0.3240  0.9767
  554MOL0     C76328   3.137   7.548   9.941 -0.2140  0.3412 -0.1595
  554MOL0     C76329   3.140   7.619  10.080  0.0999  0.5863  0.1625
  554MOL0     C76330   3.283   7.616  10.134  0.9116 -0.5567  1.0386
  554MOL0     N76331   3.381   7.673  10.050 -0.5317 -0.2339 -0.3451
  554MOL0     C76332   3.391   7.802   9.995  0.3647  0.1644 -0.1329
  554MOL0     C76333   3.505   7.789   9.922  0.3411 -0.4933  0.3380
  554MOL0     C76334   3.566   7.899   9.848  0.2443  0.3363 -0.5125
  554MOL0     C76335   3.641   7.847   9.720  0.5124 -0.1600 -0.1177
  554MOL0     C76336   3.688   7.945   9.610 -0.0000 -0.0569  0.2818
  554MOL0     C76337   3.759   8.063   9.678 -0.2085  1.1713 -0.4464
  554MOL0     O76338   3.814   8.148   9.574  0.0248 -0.4594 -0.3579
  554MOL0     C76339   3.724   8.223   9.506 -0.1335  0.2641  0.5304
  554MOL0     C76340   3.590   8.246   9.546 -0.6509 -0.4525  0.1536
  554MOL0     C76341   3.505   8.327   9.466 -0.1794 -0.3356  0.1555
  554MOL0     C76342   3.355   8.334   9.515 -0.8859 -1.0687 -0.4352
  554MOL0     C76343   3.547   8.370   9.334 -0.3088  0.1980  0.2784
  554MOL0     C76344   3.459   8.434   9.232  0.7169 -0.6810 -0.6587
  554MOL0     O76345   3.325   8.395   9.231 -0.1965  0.9461 -0.3154
  554MOL0     C76346   3.235   8.475   9.164  0.3919  0.3825 -0.1553
  554MOL0     C76347   3.116   8.514   9.227 -0.9946  0.0941 -0.5864
  554MOL0     C76348   3.019   8.580   9.164  1.0103  1.2110 -0.4475
  554MOL0     C76349   3.026   8.616   9.029 -0.6341 -0.4486 -0.1074
  554MOL0     O76350   2.924   8.690   8.977 -0.4688  0.2041  0.0689
  554MOL0     C76351   2.947   8.755   8.846 -0.6076 -0.1306  0.3276
  554MOL0     C76352   2.826   8.838   8.812  0.9108 -0.1126 -0.0440
  554MOL0     C76353   2.833   8.869   8.671  0.0802 -0.2493 -0.1001
  554MOL0     C76354   2.693   8.911   8.623 -0.3107 -0.1013 -0.5018
  554MOL0     C76355   2.685   9.042   8.548 -0.3822 -0.4456 -0.2750
  554MOL0     C76356   2.735   9.046   8.405 -0.6032 -0.9897  0.8267
  554MOL0     C76357   2.711   9.192   8.361 -0.5154 -0.1509 -0.4794
  554MOL0     C76358   2.776   9.218   8.218 -0.1569  0.3150 -1.3666
  554MOL0    Cl76359   2.944   9.157   8.223  0.1148 -0.1836 -0.0964
  554MOL0     C76360   3.147   8.580   8.958 -0.1111  0.5429  0.5339
  554MOL0     C76361   3.241   8.498   9.019 -0.7548  0.1823 -0.3698
  554MOL0     O76362   3.508   8.510   9.147  0.6388  0.4785  0.3597
  554MOL0     C76363   3.680   8.345   9.298  0.0580  0.6855  0.0603
  554MOL0     C76364   3.764   8.270   9.380  0.2900 -0.2325  0.1607
  554MOL0     N76365   3.550   7.659   9.935  0.3747  0.4014 -0.8385
  554MOL0     N76366   3.471   7.591  10.003  0.0600  0.1282  0.4190
  554MOL0     C76367   2.210   7.427   9.866 -0.5284 -0.3577 -0.2480
  554MOL0     C76368   2.085   7.469   9.825 -0.1644 -0.4619  0.0111
  554MOL0     C76369   1.732   7.774   9.780 -0.0347  0.2711  0.1498
  554MOL0     C76370   1.642   7.679   9.822 -0.5806 -0.2863 -0.2591
  554MOL0     C76371   1.504   7.695   9.824 -0.7389 -0.5498  1.1941
  554MOL0     C76372   1.451   7.813   9.767  0.4418 -0.6920 -0.7187
  554MOL0     O76373   1.314   7.852   9.756 -0.6462  0.7077  0.1279
  554MOL0     C76374   1.205   7.760   9.794  0.0323  0.4211 -0.2062
  554MOL0     C76375   1.196   7.756   9.946  0.0461 -0.1285 -0.8234
  554MOL0     C76376   1.166   7.893  10.011 -0.1602 -0.2343  0.6474
  554MOL0     C76377   1.117   7.893  10.156  0.2764 -0.1527 -0.3145
  554MOL0     C76378   1.226   7.851  10.242 -0.4535 -0.2208 -0.3283
  554MOL0     C76379   1.315   7.822  10.316 -0.8787  0.5615 -0.5825
  554MOL0     C76380   1.539   7.915   9.725  0.5958 -0.0320 -0.1312
  554MOL0     C76381   1.676   7.895   9.728 -0.0941 -0.4402  0.5994
  554MOL0     C76382   1.749   8.009   9.663 -0.0845 -0.2620  0.1188
  554MOL0     H76383   2.074   7.774   9.978 -0.6324  0.7788 -1.4655
  554MOL0     H76384   2.301   7.707  10.040 -0.4851  1.3014 -1.3061
  554MOL0     H76385   2.509   7.585   9.851  0.2454 -1.4442 -1.9999
  554MOL0     H76386   2.511   7.416   9.803 -1.4213 -0.8642  0.5057
  554MOL0     H76387   2.641   7.533  10.049  2.9808 -1.9212  1.1953
  554MOL0     H76388   2.653   7.364   9.994  3.0843  0.4933  1.4741
  554MOL0     H76389   2.769   7.429   9.788 -0.3583  0.0126 -0.2362
  554MOL0     H76390   2.737   7.594   9.817  1.7025 -1.2994 -1.5492
  554MOL0     H76391   2.875   7.571  10.044  2.7030  0.6177  1.3984
  554MOL0     H76392   2.912   7.413   9.991 -1.7382 -0.0407  0.2068
  554MOL0     H76393   2.980   7.668   9.857  0.6909  0.1663 -1.2006
  554MOL0     H76394   3.010   7.504   9.779  0.2840 -1.1771  1.9121
  554MOL0     H76395   3.154   7.440   9.948 -2.4583  0.0423  3.1359
  554MOL0     H76396   3.209   7.592   9.872  1.0339  1.5856  1.8418
  554MOL0     H76397   3.068   7.575  10.149 -2.5026 -0.2360 -2.8313
  554MOL0     H76398   3.112   7.725  10.078  0.0723  0.5844  0.4394
  554MOL0     H76399   3.291   7.676  10.225  0.1378  1.9614 -0.4414
  554MOL0     H76400   3.300   7.510  10.156  0.6019 -1.0367 -0.8397
  554MOL0     H76401   3.331   7.892  10.005  0.1985 -0.1332  1.9466
  554MOL0     H76402   3.623   7.958   9.921  0.7938 -2.0034  1.0651
  554MOL0     H76403   3.490   7.969   9.812  0.4145  1.2614  0.8711
  554MOL0     H76404   3.733   7.801   9.759  2.4594  2.2464 -1.5730
  554MOL0     H76405   3.577   7.770   9.676 -1.5376  0.8276  0.9814
  554MOL0     H76406   3.755   7.897   9.538 -0.0529  1.7069 -1.0215
  554MOL0     H76407   3.601   7.981   9.553  2.0946  3.1463 -1.1527
  554MOL0     H76408   3.696   8.114   9.752  2.1054  2.9023  0.4486
  554MOL0     H76409   3.840   8.023   9.739  0.0424  0.4514 -1.2303
  554MOL0     H76410   3.563   8.200   9.640  1.9027 -1.1171  0.6236
  554MOL0     H76411   3.292   8.258   9.467 -0.7618 -0.8063 -1.0127
  554MOL0     H76412   3.308   8.428   9.487  1.0585 -0.5565 -2.1594
  554MOL0     H76413   3.355   8.331   9.625 -0.8411 -0.8871 -0.4300
  554MOL0     H76414   3.099   8.489   9.331 -3.3089 -1.4323 -1.2583
  554MOL0     H76415   2.928   8.618   9.209  0.5556 -0.3880  0.0427
  554MOL0     H76416   3.034   8.820   8.852 -1.8974  1.7153  0.0681
  554MOL0     H76417   2.959   8.670   8.778 -0.5859 -0.0141  0.1860
  554MOL0     H76418   2.737   8.782   8.841  1.2954 -0.4883  0.4178
  554MOL0     H76419   2.814   8.924   8.879  0.2865  0.1511 -0.4801
  554MOL0     H76420   2.864   8.780   8.615 -1.2088 -1.5036  1.0763
  554MOL0     H76421   2.903   8.949   8.647 -2.5370  1.8695 -1.1207
  554MOL0     H76422   2.634   8.919   8.714 -0.6160  1.6628 -0.8160
  554MOL0     H76423   2.662   8.844   8.542  3.1525 -0.1782 -1.9678
  554MOL0     H76424   2.585   9.085   8.548 -0.6162 -0.9351 -1.7122
  554MOL0     H76425   2.745   9.114   8.605 -1.2039  0.6293 -0.7410
  554MOL0     H76426   2.691   8.982   8.328  2.4328 -1.7518 -0.4551
  554MOL0     H76427   2.839   9.012   8.412  0.4415  0.8933 -2.9337
  554MOL0     H76428   2.738   9.266   8.437 -1.6374  0.4583 -0.6441
  554MOL0     H76429   2.603   9.207   8.356 -0.5817  0.0015  0.9160
  554MOL0     H76430   2.773   9.325   8.195  2.3435  0.8063  0.1623
  554MOL0     H76431   2.722   9.170   8.136 -1.8081 -2.6973  1.2574
  554MOL0     H76432   3.161   8.595   8.852  0.8857 -2.4310  0.1498
  554MOL0     H76433   3.324   8.454   8.964 -1.2996 -1.8503  0.3417
  554MOL0     H76434   3.711   8.388   9.204 -1.6304  1.1899 -0.3090
  554MOL0     H76435   3.854   8.239   9.327 -1.0895 -2.0352 -1.2607
  554MOL0     H76436   2.250   7.334   9.827  1.2394  0.8567 -1.4844
  554MOL0     H76437   2.022   7.397   9.774  1.1613 -2.3689  0.9368
  554MOL0     H76438   1.673   7.584   9.864 -2.3800 -1.3434 -1.2033
  554MOL0     H76439   1.437   7.613   9.845 -1.5877  0.2646  1.7520
  554MOL0     H76440   1.115   7.809   9.757 -2.5444 -4.1033 -0.6033
  554MOL0     H76441   1.219   7.661   9.751  0.9825  0.6996 -0.5722
  554MOL0     H76442   1.292   7.726   9.988  0.5200  2.0002 -0.2512
  554MOL0     H76443   1.116   7.692   9.982  0.1235  0.2985  0.1284
  554MOL0     H76444   1.259   7.950   9.998  0.2088 -1.4678 -4.4778
  554MOL0     H76445   1.091   7.942   9.949 -0.8567 -0.0874  1.5818
  554MOL0     H76446   1.029   7.829  10.165 -1.0894  1.5546 -0.8536
  554MOL0     H76447   1.087   7.997  10.174  0.8928  0.0067 -0.1928
  554MOL0     H76448   1.383   7.789  10.391 -2.0906 -2.7652 -0.7907
  554MOL0     H76449   1.495   8.007   9.690  2.0562  0.2109 -1.4563
  554MOL0     H76450   1.834   7.967   9.607 -0.2000 -1.2014  0.6215
  554MOL0     H76451   1.691   8.065   9.589 -0.2289  1.2406  1.3229
  554MOL0     H76452   1.777   8.090   9.731  0.8123 -2.5638  2.6947
  555MOL0     O76453  10.269   6.092   5.007 -0.3404  0.3039 -0.5567
  555MOL0     C76454  10.189   6.069   5.099  0.1723 -0.0232 -0.1518
  555MOL0     O76455  10.201   5.984   5.202  0.5415 -0.1541 -0.7216
  555MOL0     C76456  10.320   5.933   5.258 -0.6591 -0.6582 -0.2425
  555MOL0     C76457  10.451   5.962   5.224 -0.2545 -0.4637  0.0949
  555MOL0     C76458  10.551   5.896   5.287 -0.7419  0.5434 -0.2281
  555MOL0     C76459  10.546   5.801   5.387  0.6997  0.1079 -0.4207
  555MOL0     O76460  10.636   5.729   5.455  0.1944 -0.1108  0.0586
  555MOL0     C76461  10.770   5.718   5.395  0.0150  0.5720  0.2446
  555MOL0     C76462  10.861   5.611   5.457  0.3675  0.2654  0.4477
  555MOL0     C76463  10.990   5.618   5.381 -0.0594 -0.0736  0.0355
  555MOL0     C76464  11.086   5.513   5.444 -1.5064  0.0645 -0.4851
  555MOL0     C76465  11.221   5.507   5.369  0.0604  1.0846 -0.5824
  555MOL0     C76466  11.213   5.461   5.218  0.1162  0.5745 -0.0227
  555MOL0     C76467  11.350   5.489   5.154  0.3753  0.2253 -0.0090
  555MOL0     C76468  11.447   5.367   5.172 -0.4127 -0.9274 -0.0420
  555MOL0     N76469  11.572   5.386   5.106 -0.4276 -0.4977  0.3674
  555MOL0     C76470  11.628   5.505   5.053  0.2697 -0.0553  0.7425
  555MOL0     C76471  11.746   5.462   4.998  0.0398 -0.0201  0.1965
  555MOL0     C76472  11.842   5.544   4.913 -0.1298 -0.3356 -0.3879
  555MOL0     C76473  11.987   5.545   4.965  0.4642 -0.2469  0.5819
  555MOL0     C76474  11.998   5.629   5.094  0.0288 -0.7925  0.9999
  555MOL0     C76475  12.142   5.646   5.125  0.7882 -0.0805  0.8304
  555MOL0     O76476  12.217   5.710   5.016 -0.5005  0.3310  0.0340
  555MOL0     C76477  12.349   5.736   5.030  0.3105 -0.3229 -0.2257
  555MOL0     C76478  12.417   5.777   4.910  0.2487  0.5967 -0.8394
  555MOL0     C76479  12.554   5.818   4.917 -0.1804 -0.1131  0.7053
  555MOL0     C76480  12.625   5.846   4.796 -0.4981 -0.0710 -0.5152
  555MOL0     C76481  12.622   5.807   5.037 -0.0076  0.9877 -0.2219
  555MOL0     C76482  12.765   5.855   5.054  0.1445  0.8790 -0.0708
  555MOL0     O76483  12.857   5.782   5.132 -0.0445 -0.0859  0.1631
  555MOL0     C76484  12.986   5.802   5.114 -0.1655 -0.3481  0.9065
  555MOL0     C76485  13.064   5.697   5.078  0.6156  0.3981 -0.5436
  555MOL0     C76486  13.202   5.709   5.073  0.1926 -0.3347 -0.2776
  555MOL0     C76487  13.267   5.823   5.121  0.3586  0.2201  0.1981
  555MOL0     O76488  13.400   5.824   5.125  0.0018  0.5054 -0.3906
  555MOL0     C76489  13.462   5.909   5.224 -0.4577 -0.0951  0.5711
  555MOL0     C76490  13.613   5.890   5.199 -0.1041 -0.3319 -0.2948
  555MOL0     C76491  13.703   5.919   5.322  0.0792  0.5193  0.0144
  555MOL0     C76492  13.853   5.919   5.278 -0.5765  0.3629 -0.0734
  555MOL0     C76493  13.945   5.917   5.393 -0.0302  0.3914  0.6853
  555MOL0     C76494  14.092   5.877   5.351 -0.0922 -0.1281  1.0387
  555MOL0     C76495  14.196   5.985   5.411 -0.4093 -0.5307 -0.0764
  555MOL0     C76496  14.329   5.952   5.353 -0.5590 -0.7682  0.3498
  555MOL0    Cl76497  14.445   6.059   5.433  0.3978  0.6129 -0.2805
  555MOL0     C76498  13.183   5.929   5.167 -0.6814 -0.4645  0.2197
  555MOL0     C76499  13.050   5.922   5.160  0.2878 -0.4807  0.2204
  555MOL0     O76500  12.793   5.942   4.977  0.7938 -1.1115  0.2484
  555MOL0     C76501  12.556   5.752   5.156  0.0691 -0.1381  0.8436
  555MOL0     C76502  12.420   5.721   5.147  0.3302 -0.5201 -0.5028
  555MOL0     N76503  11.756   5.328   5.020  0.3089 -0.0556  0.3629
  555MOL0     N76504  11.660   5.282   5.089  0.6568 -0.5660  0.2296
  555MOL0     C76505  10.414   5.760   5.409 -0.8650  0.5278  0.2429
  555MOL0     C76506  10.308   5.821   5.347  0.1424 -0.4467  0.5051
  555MOL0     C76507  10.052   6.137   5.093  0.0639  1.2477 -0.3254
  555MOL0     C76508   9.945   6.068   5.159 -0.4335 -1.2040 -0.1904
  555MOL0     C76509   9.821   6.122   5.166  0.3066  0.0925  0.2338
  555MOL0     C76510   9.801   6.251   5.124 -0.4129 -0.1314 -0.1277
  555MOL0     O76511   9.674   6.300   5.141 -0.3464 -0.4304  1.3072
  555MOL0     C76512   9.642   6.430   5.081 -0.0294 -0.5854 -1.0331
  555MOL0     C76513   9.489   6.449   5.097 -0.1966  0.2949 -0.6020
  555MOL0     C76514   9.414   6.368   4.986  0.0264  0.8452  0.4987
  555MOL0     C76515   9.440   6.412   4.841  0.0209  0.7095 -0.0278
  555MOL0     C76516   9.406   6.550   4.815  0.2651  0.2741 -0.1706
  555MOL0     C76517   9.359   6.660   4.804  0.1779 -0.7154 -0.1647
  555MOL0     C76518   9.899   6.330   5.065 -0.1977 -0.2820  0.1956
  555MOL0     C76519  10.031   6.278   5.060 -0.0001 -0.5151  0.2930
  555MOL0     C76520  10.137   6.357   4.997 -0.4210 -1.3066 -0.2944
  555MOL0     H76521  10.484   6.038   5.154  0.8487  1.6928  2.7727
  555MOL0     H76522  10.652   5.917   5.250  0.5561  1.1530  3.3109
  555MOL0     H76523  10.813   5.817   5.413  2.4921  0.1011 -2.3610
  555MOL0     H76524  10.765   5.706   5.286 -0.4050  0.6223  0.2583
  555MOL0     H76525  10.871   5.623   5.565  0.5016  2.2960  0.2338
  555MOL0     H76526  10.809   5.516   5.442 -1.2418  0.8256  2.0814
  555MOL0     H76527  10.971   5.584   5.279  1.8338 -1.7857  0.1880
  555MOL0     H76528  11.025   5.721   5.384 -3.1499  1.1914 -2.0812
  555MOL0     H76529  11.092   5.536   5.550  0.8239 -3.0397  0.1666
  555MOL0     H76530  11.035   5.417   5.431 -1.7908  0.2409 -0.6998
  555MOL0     H76531  11.277   5.431   5.424 -3.5090 -2.2164 -1.0805
  555MOL0     H76532  11.268   5.605   5.373  0.8571  0.6695  0.9544
  555MOL0     H76533  11.200   5.352   5.210  2.8841  0.0660  1.3499
  555MOL0     H76534  11.142   5.523   5.164  0.5290  0.2240 -0.9844
  555MOL0     H76535  11.384   5.587   5.191 -1.2286  1.0750 -0.6585
  555MOL0     H76536  11.338   5.507   5.047  1.6374  3.6490  0.2750
  555MOL0     H76537  11.483   5.349   5.274  1.3699 -3.2730 -0.9995
  555MOL0     H76538  11.408   5.268   5.146  1.0215 -2.2760  2.4931
  555MOL0     H76539  11.588   5.606   5.047 -0.7982 -0.5320 -1.0711
  555MOL0     H76540  11.811   5.648   4.926  1.4445 -0.1288  2.3601
  555MOL0     H76541  11.831   5.508   4.810 -1.5011 -0.5895 -0.1706
  555MOL0     H76542  12.017   5.442   4.985  1.4027  0.0957  1.0217
  555MOL0     H76543  12.042   5.584   4.879 -2.7393 -1.6553 -2.2995
  555MOL0     H76544  11.954   5.727   5.073  0.0733 -0.7057  1.3038
  555MOL0     H76545  11.944   5.584   5.177 -0.1145  2.0324  2.5904
  555MOL0     H76546  12.152   5.710   5.213  0.1908  0.5605  0.4385
  555MOL0     H76547  12.178   5.545   5.148  0.2910 -0.0676  1.7228
  555MOL0     H76548  12.364   5.790   4.817 -1.8863 -0.1239  0.1985
  555MOL0     H76549  12.636   5.955   4.795  2.4296 -0.2188  1.3318
  555MOL0     H76550  12.576   5.815   4.703 -1.8014  3.5390 -1.1837
  555MOL0     H76551  12.727   5.807   4.797 -0.7881 -0.8434 -0.1066
  555MOL0     H76552  13.021   5.600   5.055 -3.5322  1.2880  2.3781
  555MOL0     H76553  13.268   5.625   5.057  2.2149  0.5045  2.8539
  555MOL0     H76554  13.434   6.014   5.213  1.9242  0.8347  2.6705
  555MOL0     H76555  13.423   5.881   5.322 -0.0267  0.5897  0.9454
  555MOL0     H76556  13.621   5.789   5.159  0.7726  0.6162 -2.6796
  555MOL0     H76557  13.640   5.950   5.112 -3.4119 -0.1193 -1.3031
  555MOL0     H76558  13.689   5.849   5.404  3.3013 -1.8464 -1.2235
  555MOL0     H76559  13.691   6.023   5.352 -0.6459  0.0335  1.4826
  555MOL0     H76560  13.877   6.004   5.213  1.6858  1.4844  2.0500
  555MOL0     H76561  13.873   5.828   5.222 -0.8999  0.6600 -0.6803
  555MOL0     H76562  13.951   6.020   5.430  0.3862  0.3267  0.8054
  555MOL0     H76563  13.925   5.845   5.473  1.0932  0.2854  0.8942
  555MOL0     H76564  14.093   5.867   5.242 -1.9710 -0.3081  1.0088
  555MOL0     H76565  14.127   5.785   5.397  1.9837  1.6607  3.3207
  555MOL0     H76566  14.189   5.984   5.520  1.2044 -3.8309  0.1156
  555MOL0     H76567  14.164   6.083   5.374  2.8295  1.5535  2.1583
  555MOL0     H76568  14.346   5.961   5.246  1.6235 -1.4543  0.5726
  555MOL0     H76569  14.359   5.849   5.373  1.3569 -0.2927  0.1752
  555MOL0     H76570  13.225   6.024   5.198 -1.8315  0.0151  0.3625
  555MOL0     H76571  12.983   6.006   5.176  1.1547  0.3723 -0.4966
  555MOL0     H76572  12.618   5.750   5.245  2.0136 -0.9679 -0.4609
  555MOL0     H76573  12.379   5.689   5.243 -0.2521  1.6277  0.0151
  555MOL0     H76574  10.405   5.676   5.477  0.6570 -0.2250 -0.4359
  555MOL0     H76575  10.212   5.780   5.377 -0.1323 -2.1075 -2.2485
  555MOL0     H76576   9.960   5.977   5.216 -1.7217  0.0568  2.3144
  555MOL0     H76577   9.741   6.071   5.217 -0.1192 -1.1149 -1.5559
  555MOL0     H76578   9.704   6.496   5.141 -0.9477 -0.3285 -0.3413
  555MOL0     H76579   9.665   6.429   4.974 -1.6374 -1.6400 -1.4274
  555MOL0     H76580   9.457   6.553   5.089 -1.1773  0.0750  0.1943
  555MOL0     H76581   9.473   6.411   5.198  0.6813 -3.2038 -1.6305
  555MOL0     H76582   9.453   6.267   5.005 -2.2674 -0.7428 -2.3870
  555MOL0     H76583   9.307   6.365   5.008 -0.2305  0.7967 -0.6866
  555MOL0     H76584   9.382   6.356   4.767 -0.1935  2.7634 -1.5100
  555MOL0     H76585   9.545   6.407   4.811  0.2246  1.0827  0.6032
  555MOL0     H76586   9.306   6.752   4.793  0.1994 -0.5755  0.8087
  555MOL0     H76587   9.877   6.430   5.027 -0.1092 -0.2018  0.3549
  555MOL0     H76588  10.237   6.339   5.038 -0.2790  2.9807  1.7191
  555MOL0     H76589  10.134   6.340   4.889 -0.2807 -0.2541 -0.4734
  555MOL0     H76590  10.112   6.462   5.014 -0.4252 -1.7190  2.8621
  556MOL0     O76591  10.303   1.071   6.714  0.2946 -0.3662 -0.1142
  556MOL0     C76592  10.238   1.096   6.610  0.0246 -0.5302 -0.9000
  556MOL0     O76593  10.276   1.178   6.513 -0.7937  0.2041 -0.1973
  556MOL0     C76594  10.385   1.261   6.532 -1.2912  0.4552  0.6817
  556MOL0     C76595  10.515   1.228   6.476  0.6646  0.1459 -0.3936
  556MOL0     C76596  10.610   1.321   6.486 -0.6258  0.7757  0.4165
  556MOL0     C76597  10.593   1.453   6.541  0.3258  0.0181 -0.2638
  556MOL0     O76598  10.691   1.544   6.547 -0.2118 -0.3212 -0.3535
  556MOL0     C76599  10.693   1.641   6.655 -0.3687  0.1608  0.3317
  556MOL0     C76600  10.836   1.649   6.701  0.6910  0.1583 -0.2724
  556MOL0     C76601  10.911   1.519   6.723  0.3509 -0.5187 -0.2348
  556MOL0     C76602  11.048   1.539   6.775 -0.0986  0.2338 -0.2346
  556MOL0     C76603  11.117   1.403   6.803 -0.0889  0.8735 -0.0598
  556MOL0     C76604  11.248   1.408   6.882  0.0247  0.0078  0.6658
  556MOL0     C76605  11.321   1.276   6.912 -0.0725 -0.2250  0.6815
  556MOL0     C76606  11.260   1.193   7.024  0.2128  1.5030 -0.5133
  556MOL0     N76607  11.286   1.245   7.158  0.2704  0.4373 -0.6534
  556MOL0     C76608  11.402   1.307   7.205 -0.4439  0.0414  0.5450
  556MOL0     C76609  11.368   1.342   7.330 -0.2596  0.8952  0.2169
  556MOL0     C76610  11.465   1.387   7.436  0.0327 -0.0143  0.3419
  556MOL0     C76611  11.574   1.282   7.449  0.6622 -0.5083 -0.7910
  556MOL0     C76612  11.697   1.338   7.516 -0.4935  1.0641 -0.1886
  556MOL0     C76613  11.803   1.235   7.560  0.8316  0.0556 -0.2517
  556MOL0     O76614  11.919   1.303   7.594 -0.5610 -0.2103 -0.0457
  556MOL0     C76615  12.016   1.301   7.505 -0.3585  0.7508 -0.0719
  556MOL0     C76616  12.017   1.370   7.383 -0.0503 -0.3325 -0.4226
  556MOL0     C76617  12.133   1.383   7.300  0.1280  1.4195  0.4370
  556MOL0     C76618  12.134   1.481   7.183 -0.1776  0.4582 -0.4411
  556MOL0     C76619  12.251   1.315   7.340  0.0001  0.2605 -0.4521
  556MOL0     C76620  12.370   1.304   7.258 -0.1684 -0.4338  0.3058
  556MOL0     O76621  12.429   1.182   7.249 -0.1201  0.1918 -0.0115
  556MOL0     C76622  12.557   1.177   7.199 -0.0333  0.2085  0.5778
  556MOL0     C76623  12.581   1.084   7.091  0.1913 -0.8680 -0.4981
  556MOL0     C76624  12.711   1.081   7.041  0.2186 -0.6569  0.4494
  556MOL0     C76625  12.818   1.154   7.076 -0.5262 -0.6443  0.1727
  556MOL0     O76626  12.947   1.163   7.023  0.0542 -0.2104  0.6285
  556MOL0     C76627  13.003   1.050   6.944  0.3475 -1.5715 -0.9495
  556MOL0     C76628  13.145   1.070   6.887  0.6639 -0.4483 -0.0628
  556MOL0     C76629  13.261   1.029   6.976  0.3053  0.2883 -0.5320
  556MOL0     C76630  13.394   1.083   6.925  0.9832  0.3559 -0.7130
  556MOL0     C76631  13.485   1.110   7.040 -0.7347 -0.8302  0.2541
  556MOL0     C76632  13.617   1.167   6.988  0.0274  0.6059  0.5072
  556MOL0     C76633  13.712   1.197   7.103 -0.4831  0.7679  0.9061
  556MOL0     C76634  13.783   1.076   7.154 -0.4271 -0.9263 -0.9672
  556MOL0    Cl76635  13.891   1.004   7.034 -0.1262  0.1507 -0.1546
  556MOL0     C76636  12.797   1.242   7.188  0.8205 -0.5397 -0.4721
  556MOL0     C76637  12.665   1.257   7.240 -0.3075 -0.1873  1.4282
  556MOL0     O76638  12.422   1.405   7.209 -0.5248 -0.7795 -0.2213
  556MOL0     C76639  12.257   1.237   7.462  0.5829 -0.9249 -0.1728
  556MOL0     C76640  12.134   1.235   7.547 -0.9679 -0.5388  0.0539
  556MOL0     N76641  11.245   1.294   7.352 -0.3127 -0.0459 -1.0867
  556MOL0     N76642  11.198   1.223   7.258  1.1783 -1.6523 -0.4084
  556MOL0     C76643  10.462   1.476   6.593  0.4922  0.4146  0.2919
  556MOL0     C76644  10.361   1.382   6.598 -0.3575  0.2951 -0.0289
  556MOL0     C76645  10.104   1.027   6.577  0.8068 -0.5320 -0.0656
  556MOL0     C76646  10.061   1.032   6.445  1.1157 -0.2833 -0.1468
  556MOL0     C76647   9.933   0.994   6.420  0.1316 -0.6937  0.9497
  556MOL0     C76648   9.842   0.961   6.517 -0.3085  0.4589  0.9558
  556MOL0     O76649   9.700   0.929   6.504  0.2372 -0.0110 -0.4837
  556MOL0     C76650   9.645   0.926   6.371 -0.9583  0.2251  0.5864
  556MOL0     C76651   9.489   0.902   6.378 -0.0469  0.4548  0.0428
  556MOL0     C76652   9.437   0.795   6.474 -0.8737  0.3662 -0.0304
  556MOL0     C76653   9.283   0.798   6.479 -0.5407  0.1840  0.0443
  556MOL0     C76654   9.235   0.932   6.533 -0.5549 -0.7947  0.0034
  556MOL0     C76655   9.184   1.042   6.561  0.4940  0.2398  0.1510
  556MOL0     C76656   9.888   0.959   6.650  0.7307  0.4368  0.7656
  556MOL0     C76657  10.018   0.980   6.683 -0.8666 -0.0316 -0.2486
  556MOL0     C76658  10.054   0.977   6.826  0.4763 -0.4558  0.0868
  556MOL0     H76659  10.525   1.134   6.423  0.3871 -0.9845  1.4719
  556MOL0     H76660  10.706   1.308   6.437  0.1602  0.6594  1.9481
  556MOL0     H76661  10.631   1.623   6.743  3.1568 -3.6628  2.3638
  556MOL0     H76662  10.666   1.737   6.609 -1.7369  0.1278  1.0001
  556MOL0     H76663  10.900   1.710   6.637  1.9980  0.8356  1.5714
  556MOL0     H76664  10.828   1.703   6.796  0.6989 -2.0227  1.0581
  556MOL0     H76665  10.850   1.450   6.782 -1.2887  0.4654 -0.7218
  556MOL0     H76666  10.919   1.484   6.619 -0.9570 -0.7224 -0.2821
  556MOL0     H76667  11.112   1.591   6.703  1.5567 -0.8684  0.3628
  556MOL0     H76668  11.037   1.595   6.868 -3.4243 -0.9151  0.1820
  556MOL0     H76669  11.144   1.361   6.705 -1.8149  1.8477 -1.0131
  556MOL0     H76670  11.042   1.343   6.856  0.1938  1.9463  1.6177
  556MOL0     H76671  11.328   1.459   6.828  0.4326 -1.6109 -0.3320
  556MOL0     H76672  11.220   1.458   6.975  0.2299  0.1058  0.6744
  556MOL0     H76673  11.430   1.288   6.919 -0.0822  0.3468 -0.0049
  556MOL0     H76674  11.315   1.231   6.812  1.1139  2.0708 -0.4980
  556MOL0     H76675  11.156   1.166   7.004  1.5080 -5.3783 -0.4781
  556MOL0     H76676  11.305   1.094   7.007 -1.1719  1.1521 -2.5349
  556MOL0     H76677  11.500   1.317   7.159 -0.6148  2.0937  0.5615
  556MOL0     H76678  11.419   1.402   7.534 -1.2174 -3.5540  0.4296
  556MOL0     H76679  11.505   1.482   7.399 -0.6027  0.6659  1.3435
  556MOL0     H76680  11.521   1.209   7.512 -0.8675  0.6837 -0.6494
  556MOL0     H76681  11.598   1.226   7.358 -2.3950 -1.9972 -0.8004
  556MOL0     H76682  11.746   1.403   7.442 -0.3461  1.8581  0.5799
  556MOL0     H76683  11.678   1.405   7.601 -0.1912  2.0790 -0.9059
  556MOL0     H76684  11.770   1.191   7.655  2.0167  0.1458  0.2130
  556MOL0     H76685  11.817   1.160   7.482  1.0953  2.5904 -2.8108
  556MOL0     H76686  11.935   1.430   7.346  1.7183  2.0182 -0.7798
  556MOL0     H76687  12.036   1.491   7.135 -1.2978 -0.5284  1.4920
  556MOL0     H76688  12.196   1.440   7.103 -2.5189 -2.1987 -1.0668
  556MOL0     H76689  12.168   1.581   7.211  2.0445 -0.4895  0.4578
  556MOL0     H76690  12.512   1.006   7.059  1.1840 -1.9918  0.0079
  556MOL0     H76691  12.729   1.007   6.963 -1.3755  0.3894 -0.9732
  556MOL0     H76692  13.000   0.956   6.998 -1.3824 -0.3962  1.1444
  556MOL0     H76693  12.942   1.040   6.853  2.2239 -0.7773 -2.3622
  556MOL0     H76694  13.153   1.029   6.786 -2.2789 -1.3651 -0.0280
  556MOL0     H76695  13.149   1.178   6.873  0.5202 -0.5072 -0.5766
  556MOL0     H76696  13.270   0.921   6.993 -2.3603  0.1515  0.4992
  556MOL0     H76697  13.245   1.059   7.080  0.3020 -0.3800 -0.3357
  556MOL0     H76698  13.375   1.167   6.857  0.2317  0.7767 -0.0002
  556MOL0     H76699  13.443   1.011   6.859 -1.0923 -0.3114 -1.6140
  556MOL0     H76700  13.453   1.173   7.123  0.9075 -0.8699  0.9709
  556MOL0     H76701  13.508   1.013   7.085 -1.2608 -0.6615  0.9060
  556MOL0     H76702  13.605   1.257   6.927  0.3829  0.9260  0.9023
  556MOL0     H76703  13.654   1.089   6.921 -1.4700 -0.5187  0.9385
  556MOL0     H76704  13.657   1.237   7.188  1.7681  1.0024  2.3450
  556MOL0     H76705  13.794   1.265   7.076  1.6415 -2.3907 -1.3585
  556MOL0     H76706  13.714   0.996   7.184  1.6590 -1.4769  3.0342
  556MOL0     H76707  13.833   1.100   7.249 -2.3017 -0.0450 -0.1562
  556MOL0     H76708  12.872   1.302   7.238  1.1248  0.5669 -2.2159
  556MOL0     H76709  12.649   1.326   7.323 -0.7037  1.4933  0.0083
  556MOL0     H76710  12.351   1.193   7.494  1.4680  0.4055 -0.8611
  556MOL0     H76711  12.136   1.185   7.644  2.3307 -2.7349 -0.9678
  556MOL0     H76712  10.441   1.569   6.646  1.6146 -0.1208  1.7555
  556MOL0     H76713  10.264   1.405   6.639 -2.0950 -0.1532 -3.4974
  556MOL0     H76714  10.127   1.044   6.360  0.5135 -0.0696 -0.5995
  556MOL0     H76715   9.909   0.989   6.314 -0.9796 -0.5368  1.1849
  556MOL0     H76716   9.667   1.018   6.316 -0.2519 -1.7326 -2.7210
  556MOL0     H76717   9.692   0.849   6.309 -1.7055 -0.0295  0.3163
  556MOL0     H76718   9.449   0.878   6.279 -0.6679  0.3551  0.3128
  556MOL0     H76719   9.446   0.999   6.406  0.8723  1.1168 -0.7552
  556MOL0     H76720   9.482   0.698   6.452  0.0566  1.0489 -1.3212
  556MOL0     H76721   9.470   0.820   6.576 -0.3875  1.0118 -0.3428
  556MOL0     H76722   9.248   0.727   6.555 -0.5991  0.6918  0.5025
  556MOL0     H76723   9.236   0.776   6.383  0.2681 -1.8790  0.0611
  556MOL0     H76724   9.142   1.139   6.573  2.0556  1.1551 -1.3383
  556MOL0     H76725   9.818   0.932   6.729 -0.0200  2.2545  0.7650
  556MOL0     H76726   9.969   0.953   6.889  0.2535  2.2774  0.9198
  556MOL0     H76727  10.146   0.921   6.849  0.3009  0.4429  3.4251
  556MOL0     H76728  10.082   1.077   6.858  0.3970  0.3326 -2.1177
  557MOL0     O76729   3.725   6.223  11.182 -0.2084  0.2987 -0.1165
  557MOL0     C76730   3.649   6.123  11.172 -0.2560 -1.2988  0.9208
  557MOL0     O76731   3.650   6.011  11.241 -0.3066 -0.8759 -0.3725
  557MOL0     C76732   3.771   5.986  11.290  0.3077 -0.1365  0.4860
  557MOL0     C76733   3.858   5.903  11.224 -0.1854  0.3081 -0.1480
  557MOL0     C76734   3.993   5.871  11.267  0.7909 -0.4042 -0.4714
  557MOL0     C76735   4.024   5.919  11.399 -0.4181 -0.3024  0.7212
  557MOL0     O76736   4.137   5.886  11.469  0.4973  0.2991 -0.4127
  557MOL0     C76737   4.220   5.779  11.417 -0.3699  0.1450  0.1330
  557MOL0     C76738   4.342   5.788  11.507  0.5019  0.0913  0.2289
  557MOL0     C76739   4.429   5.908  11.490 -0.1587  0.8078  0.3723
  557MOL0     C76740   4.582   5.875  11.520  0.0240  0.1345 -0.0326
  557MOL0     C76741   4.689   5.976  11.477  0.0762  0.2072  0.0970
  557MOL0     C76742   4.669   6.118  11.533 -0.6586 -0.1651  0.2674
  557MOL0     C76743   4.770   6.209  11.455 -0.4825  0.2345 -0.0022
  557MOL0     C76744   4.736   6.356  11.481  0.7487  0.3140  0.0763
  557MOL0     N76745   4.626   6.401  11.399  0.1343  0.3103  0.4767
  557MOL0     C76746   4.503   6.391  11.445 -0.5291 -0.1143 -0.4593
  557MOL0     C76747   4.427   6.410  11.331  0.5170 -0.0864 -0.2770
  557MOL0     C76748   4.277   6.399  11.337  0.0789 -0.6803  0.0042
  557MOL0     C76749   4.225   6.300  11.229  0.1009  1.1921  0.2630
  557MOL0     C76750   4.296   6.160  11.219  0.2066 -0.1193 -0.1386
  557MOL0     C76751   4.292   6.095  11.090 -0.4353  0.5084  1.2624
  557MOL0     O76752   4.373   5.976  11.097 -0.2627  0.0668 -0.2157
  557MOL0     C76753   4.510   5.987  11.081  0.3050  0.4905  0.0973
  557MOL0     C76754   4.593   6.096  11.048 -0.0765 -0.0094 -0.9255
  557MOL0     C76755   4.729   6.093  11.070  0.5178  0.2309  0.3146
  557MOL0     C76756   4.802   6.232  11.047  0.7655  1.0081 -0.0412
  557MOL0     C76757   4.790   5.965  11.096 -0.1633  0.4019 -0.9249
  557MOL0     C76758   4.939   5.950  11.123  0.4838  0.6021 -0.8818
  557MOL0     O76759   4.987   5.821  11.115  0.0233  0.2212 -0.3464
  557MOL0     C76760   5.118   5.785  11.144  0.2558  0.8295 -0.1335
  557MOL0     C76761   5.153   5.779  11.280  0.2333  0.0719  0.0830
  557MOL0     C76762   5.282   5.738  11.311 -0.1094 -0.0769  0.0770
  557MOL0     C76763   5.374   5.710  11.209  0.2600 -0.4174  0.4123
  557MOL0     O76764   5.507   5.694  11.232  0.1511  0.4335  0.4977
  557MOL0     C76765   5.566   5.774  11.328 -0.2316 -0.0333 -0.7283
  557MOL0     C76766   5.714   5.735  11.327 -0.2435 -0.4610 -0.2880
  557MOL0     C76767   5.743   5.600  11.385 -0.7661  0.4527  0.8143
  557MOL0     C76768   5.897   5.572  11.385 -0.4473 -0.2528 -0.8554
  557MOL0     C76769   5.925   5.435  11.452 -0.1129  0.5199 -0.0625
  557MOL0     C76770   6.063   5.383  11.422  0.1521  0.0137  0.1314
  557MOL0     C76771   6.060   5.233  11.449  0.5756  0.9708  0.3066
  557MOL0     C76772   6.191   5.163  11.426  0.3599 -0.9675  0.8165
  557MOL0    Cl76773   6.186   4.986  11.459  0.6193  0.2754 -0.0815
  557MOL0     C76774   5.331   5.701  11.075  0.2090 -0.0573  0.7478
  557MOL0     C76775   5.207   5.746  11.042 -0.1923  0.4768  0.0497
  557MOL0     O76776   5.005   6.051  11.152 -0.2227  0.4071  0.5375
  557MOL0     C76777   4.708   5.853  11.119 -0.2924  0.5006  0.8496
  557MOL0     C76778   4.572   5.867  11.115  0.5811 -0.2736  0.6539
  557MOL0     N76779   4.509   6.430  11.223  0.3476 -0.1318  0.1811
  557MOL0     N76780   4.629   6.432  11.266 -0.7356  0.4566  0.8907
  557MOL0     C76781   3.932   5.997  11.463  0.6632 -0.2359  0.0457
  557MOL0     C76782   3.801   6.029  11.418 -0.3414  0.1330 -0.3729
  557MOL0     C76783   3.532   6.139  11.084  0.4955 -0.1096  0.8485
  557MOL0     C76784   3.433   6.038  11.086 -0.6664  0.2649  0.1447
  557MOL0     C76785   3.316   6.043  11.009 -0.0297 -0.0967 -0.6740
  557MOL0     C76786   3.293   6.148  10.925 -0.5961 -0.2315  0.6270
  557MOL0     O76787   3.180   6.171  10.850  0.5743 -0.1076  0.2243
  557MOL0     C76788   3.062   6.098  10.894 -0.4634  0.0374 -0.3541
  557MOL0     C76789   2.926   6.154  10.848  0.1186  0.1601  0.2414
  557MOL0     C76790   2.900   6.133  10.697 -1.0219  1.1171  0.0598
  557MOL0     C76791   2.799   6.225  10.644  0.7375  0.0972  0.0704
  557MOL0     C76792   2.779   6.193  10.502 -0.5203 -0.3864  0.2554
  557MOL0     C76793   2.757   6.166  10.392 -0.3810 -0.0500  0.0073
  557MOL0     C76794   3.393   6.249  10.924  0.4327  0.4831 -0.3769
  557MOL0     C76795   3.509   6.249  11.002  0.2951 -0.1438 -0.1137
  557MOL0     C76796   3.601   6.365  10.971  0.2574 -0.0822 -0.8359
  557MOL0     H76797   3.822   5.881  11.124 -0.9583  3.4646 -0.6733
  557MOL0     H76798   4.061   5.822  11.198 -0.5060 -0.6725 -1.5978
  557MOL0     H76799   4.258   5.779  11.314 -4.6228 -0.7459 -1.6533
  557MOL0     H76800   4.189   5.679  11.450  1.5885  0.4420  3.2879
  557MOL0     H76801   4.308   5.774  11.610 -0.2659  2.6047  0.3767
  557MOL0     H76802   4.404   5.701  11.480 -1.6392 -0.6330 -2.8974
  557MOL0     H76803   4.427   5.944  11.387 -1.3744 -0.9871 -0.2709
  557MOL0     H76804   4.381   5.988  11.547 -0.6616  1.7434 -1.2918
  557MOL0     H76805   4.594   5.866  11.629 -1.3232  0.5124  0.1652
  557MOL0     H76806   4.601   5.776  11.478  0.4440 -0.2281  0.9725
  557MOL0     H76807   4.688   5.978  11.368 -1.7627 -1.6811  0.0042
  557MOL0     H76808   4.790   5.946  11.508  0.7430  0.2617 -1.8829
  557MOL0     H76809   4.574   6.165  11.509  0.3161  0.9273 -1.8076
  557MOL0     H76810   4.679   6.114  11.642 -0.3371  1.1101  0.2991
  557MOL0     H76811   4.766   6.188  11.348  2.5669  1.0810 -0.3732
  557MOL0     H76812   4.874   6.184  11.475  0.1517  0.7987 -2.3544
  557MOL0     H76813   4.716   6.372  11.588 -4.5832 -2.2455 -0.1874
  557MOL0     H76814   4.822   6.417  11.456 -0.0489  0.3654 -2.8514
  557MOL0     H76815   4.474   6.374  11.548  4.2562 -4.4780  0.5201
  557MOL0     H76816   4.239   6.497  11.309  0.7160  0.0073  1.4463
  557MOL0     H76817   4.233   6.377  11.435 -2.0849 -2.7269 -1.3109
  557MOL0     H76818   4.120   6.270  11.234  0.0238  0.9465 -1.7965
  557MOL0     H76819   4.233   6.370  11.145  0.1569  0.4826 -0.3305
  557MOL0     H76820   4.397   6.167  11.259  0.8955 -2.0102 -1.4261
  557MOL0     H76821   4.249   6.096  11.294  1.4633  0.0963  0.8575
  557MOL0     H76822   4.189   6.064  11.067 -0.0310  0.5249 -0.7595
  557MOL0     H76823   4.327   6.164  11.013  0.3143  0.1928  1.3183
  557MOL0     H76824   4.538   6.187  11.027 -0.2181 -0.3236 -1.9732
  557MOL0     H76825   4.741   6.297  10.984  0.2720  0.2464 -0.3675
  557MOL0     H76826   4.900   6.216  11.001  2.5521  5.1110  1.8690
  557MOL0     H76827   4.813   6.279  11.145 -2.9882  1.5053  0.2772
  557MOL0     H76828   5.072   5.815  11.342  1.6327  1.7512  1.0371
  557MOL0     H76829   5.320   5.755  11.412 -2.8000 -0.3431  1.2173
  557MOL0     H76830   5.556   5.877  11.291 -0.5846 -0.2407 -1.2196
  557MOL0     H76831   5.524   5.764  11.428  0.6175 -1.7241 -0.5000
  557MOL0     H76832   5.749   5.746  11.224 -0.3022  1.9883 -0.1192
  557MOL0     H76833   5.778   5.808  11.378  1.5912 -1.6164 -0.8809
  557MOL0     H76834   5.684   5.520  11.339  1.0448 -0.6535  0.3189
  557MOL0     H76835   5.710   5.604  11.489  1.2625  1.7292  1.4692
  557MOL0     H76836   5.953   5.646  11.444 -2.3164  0.5796 -0.0607
  557MOL0     H76837   5.924   5.574  11.279 -1.4054  2.6567 -1.1132
  557MOL0     H76838   5.917   5.433  11.561 -0.7875 -0.4105 -0.1161
  557MOL0     H76839   5.850   5.371  11.406 -0.2997  1.7433 -1.5600
  557MOL0     H76840   6.131   5.432  11.492 -4.1487  1.0653  4.0860
  557MOL0     H76841   6.093   5.403  11.319 -3.1932  1.2708 -0.7220
  557MOL0     H76842   5.982   5.183  11.390  1.5780  1.9318 -1.9611
  557MOL0     H76843   6.030   5.216  11.553 -1.0151 -0.4917 -0.3379
  557MOL0     H76844   6.275   5.199  11.486  0.0092 -1.0724  1.3877
  557MOL0     H76845   6.234   5.171  11.326  2.6489 -0.1783  1.7918
  557MOL0     H76846   5.411   5.687  11.003  0.9126  1.5353  1.1761
  557MOL0     H76847   5.171   5.763  10.941 -0.6188  0.4289  0.1909
  557MOL0     H76848   4.754   5.760  11.153  0.6410  0.9824  0.9426
  557MOL0     H76849   4.505   5.787  11.145  0.7863 -0.5135  0.4820
  557MOL0     H76850   3.971   6.042  11.554 -0.6404 -0.2581  0.6329
  557MOL0     H76851   3.727   6.089  11.471  1.4457  3.2157 -1.1313
  557MOL0     H76852   3.451   5.956  11.154  0.9389  0.8921  0.5258
  557MOL0     H76853   3.250   5.959  11.026 -0.4547  0.2079 -0.8041
  557MOL0     H76854   3.062   5.992  10.866  2.6003 -0.2968  0.5748
  557MOL0     H76855   3.057   6.107  11.003 -2.3015 -0.1670 -0.3844
  557MOL0     H76856   2.930   6.260  10.874  2.6255 -0.0611  1.0476
  557MOL0     H76857   2.842   6.105  10.898 -1.2039 -1.4892 -3.2839
  557MOL0     H76858   2.998   6.158  10.656 -0.6514  0.3337  0.4513
  557MOL0     H76859   2.864   6.032  10.676 -1.4908  1.7878 -2.9335
  557MOL0     H76860   2.836   6.327  10.656 -2.1321  0.9961  2.4196
  557MOL0     H76861   2.702   6.214  10.692  2.1272  0.3495  3.1687
  557MOL0     H76862   2.741   6.136  10.291  2.1352 -1.9299  0.0577
  557MOL0     H76863   3.368   6.334  10.861 -0.6943 -0.2960 -1.0308
  557MOL0     H76864   3.690   6.327  10.921  1.4799 -0.5612  1.5672
  557MOL0     H76865   3.548   6.448  10.923 -1.8519  0.0496  1.5153
  557MOL0     H76866   3.624   6.406  11.070 -1.2367 -2.6377  0.6761
  558MOL0     O76867   9.588   9.089   2.585  0.2318  0.4686 -0.2082
  558MOL0     C76868   9.612   9.014   2.494  0.0876  0.1324  0.2949
  558MOL0     O76869   9.545   8.895   2.476 -0.3974 -0.7622  0.1192
  558MOL0     C76870   9.436   8.849   2.546 -0.0254  1.0015  0.0621
  558MOL0     C76871   9.432   8.710   2.536  0.6652  0.1814  0.3803
  558MOL0     C76872   9.330   8.632   2.605  0.2353  0.2697  0.3258
  558MOL0     C76873   9.229   8.701   2.679 -0.0945  0.0994 -0.2663
  558MOL0     O76874   9.120   8.638   2.739 -0.1898  0.6211  0.3762
  558MOL0     C76875   9.065   8.511   2.698 -1.4931 -1.1993  0.0114
  558MOL0     C76876   8.915   8.496   2.727 -0.4719 -0.0478  0.3917
  558MOL0     C76877   8.871   8.519   2.874  0.2120 -0.1959  0.4005
  558MOL0     C76878   8.978   8.484   2.987 -0.1429 -0.2623 -0.0701
  558MOL0     C76879   8.925   8.471   3.132  0.0302 -0.5322 -0.3700
  558MOL0     C76880   8.963   8.336   3.193 -0.4486 -0.3979  0.1610
  558MOL0     C76881   8.927   8.321   3.344  1.5935  0.2354  0.8017
  558MOL0     C76882   8.955   8.182   3.411 -0.5353  0.3076  0.0730
  558MOL0     N76883   8.836   8.089   3.404 -0.5261  0.0066  0.0940
  558MOL0     C76884   8.753   8.048   3.495 -0.6343  0.6371 -0.1612
  558MOL0     C76885   8.650   7.988   3.438 -0.3820 -0.6732 -0.6992
  558MOL0     C76886   8.541   7.925   3.512  0.8364  0.3665 -0.9850
  558MOL0     C76887   8.433   8.032   3.514  0.0605 -1.1050  0.3792
  558MOL0     C76888   8.358   8.049   3.653 -0.3047 -0.6999 -0.1737
  558MOL0     C76889   8.278   8.181   3.656 -0.6150 -0.4638 -0.0112
  558MOL0     O76890   8.182   8.192   3.545  0.0678 -0.1751 -0.0288
  558MOL0     C76891   8.063   8.234   3.573  0.8999 -0.2386  0.7178
  558MOL0     C76892   7.953   8.149   3.573 -0.4174  0.5125  0.0351
  558MOL0     C76893   7.823   8.190   3.609 -0.3629 -0.6608 -0.0010
  558MOL0     C76894   7.709   8.085   3.601  0.0241  0.4704 -0.3905
  558MOL0     C76895   7.800   8.323   3.654 -0.1536  0.0606  0.2493
  558MOL0     C76896   7.667   8.368   3.703  0.4127  0.0000 -0.0203
  558MOL0     O76897   7.666   8.482   3.784 -0.7880  0.3925 -0.1608
  558MOL0     C76898   7.552   8.511   3.850 -0.4392  0.4237 -0.7420
  558MOL0     C76899   7.520   8.450   3.972  1.2962  0.0956 -0.0386
  558MOL0     C76900   7.388   8.476   4.027  0.0293  0.3651  0.1270
  558MOL0     C76901   7.299   8.569   3.970 -0.8096  0.7372  0.2368
  558MOL0     O76902   7.176   8.568   4.017 -0.8444 -0.1556  0.3131
  558MOL0     C76903   7.082   8.672   3.971 -0.4071  1.1696 -0.2738
  558MOL0     C76904   6.955   8.666   4.062  0.3176  0.1690 -0.4033
  558MOL0     C76905   6.845   8.754   4.009 -0.0478  0.0332 -0.1636
  558MOL0     C76906   6.704   8.739   4.079 -0.2092 -0.3230  0.2962
  558MOL0     C76907   6.712   8.759   4.232 -0.7608 -0.3275  0.1047
  558MOL0     C76908   6.568   8.749   4.278 -0.8414 -0.2064 -0.2354
  558MOL0     C76909   6.557   8.734   4.437  0.7829  0.2565  0.0729
  558MOL0     C76910   6.580   8.885   4.480 -0.6292  0.1394 -0.3727
  558MOL0    Cl76911   6.554   8.894   4.645  0.2603 -0.3416 -0.3849
  558MOL0     C76912   7.347   8.639   3.860  0.7394  0.3794  0.5612
  558MOL0     C76913   7.465   8.608   3.797 -0.4084 -0.7403 -0.5053
  558MOL0     O76914   7.564   8.307   3.674  0.6058  0.3109 -0.9623
  558MOL0     C76915   7.912   8.404   3.666  0.5276 -0.2557  0.1164
  558MOL0     C76916   8.038   8.363   3.617  0.0200 -0.2816 -0.3145
  558MOL0     N76917   8.667   7.993   3.302 -0.0391 -0.8172 -0.2052
  558MOL0     N76918   8.784   8.048   3.286  0.1448  0.3310  0.3058
  558MOL0     C76919   9.232   8.841   2.678  0.5028  0.1944 -0.4577
  558MOL0     C76920   9.331   8.920   2.609  0.0938  0.9856  0.4316
  558MOL0     C76921   9.697   9.070   2.378  0.6810  0.0565 -0.3207
  558MOL0     C76922   9.659   9.061   2.244 -0.1846  0.3015  0.2589
  558MOL0     C76923   9.741   9.100   2.136  0.3793 -0.6244 -0.7375
  558MOL0     C76924   9.847   9.173   2.167 -0.0271  0.0442 -0.0090
  558MOL0     O76925   9.907   9.238   2.064  0.4667  0.8860  0.7910
  558MOL0     C76926   9.907   9.385   2.048 -0.4495  0.0944 -0.9259
  558MOL0     C76927   9.767   9.448   2.043 -0.9207  0.0037 -0.3125
  558MOL0     C76928   9.700   9.424   1.910  0.0917 -0.6139 -0.3551
  558MOL0     C76929   9.549   9.464   1.906 -0.4007  0.0495  0.1748
  558MOL0     C76930   9.524   9.590   1.980 -0.0995  1.1946  0.8965
  558MOL0     C76931   9.500   9.693   2.034 -0.2374  0.2769  0.5362
  558MOL0     C76932   9.893   9.191   2.298  0.2613  0.9026  0.7771
  558MOL0     C76933   9.815   9.148   2.408 -0.4961 -0.7710  0.6786
  558MOL0     C76934   9.862   9.183   2.541 -0.3343  0.5397  0.7756
  558MOL0     H76935   9.514   8.665   2.480 -1.6907 -1.6259 -1.9050
  558MOL0     H76936   9.326   8.524   2.597 -0.3515  0.2472  0.8199
  558MOL0     H76937   9.130   8.433   2.738  2.1741  0.7278 -1.6501
  558MOL0     H76938   9.067   8.526   2.590 -0.0611 -2.5202 -0.1809
  558MOL0     H76939   8.859   8.561   2.659 -0.1363 -0.2635 -0.0943
  558MOL0     H76940   8.887   8.395   2.695 -1.5085  0.3963 -0.1557
  558MOL0     H76941   8.852   8.625   2.890  0.7990 -0.0831  0.3803
  558MOL0     H76942   8.777   8.466   2.890  1.5854 -2.7012  0.7509
  558MOL0     H76943   9.015   8.387   2.953  2.0878  0.5353 -0.1194
  558MOL0     H76944   9.054   8.563   2.990  0.2260 -0.5915 -0.6169
  558MOL0     H76945   8.815   8.467   3.131  0.0278 -0.5699 -0.1123
  558MOL0     H76946   8.956   8.555   3.195 -2.6981 -0.7703  1.4927
  558MOL0     H76947   8.909   8.259   3.139 -0.3266 -0.0829 -0.4202
  558MOL0     H76948   9.072   8.328   3.182 -0.5471  1.1579 -3.3280
  558MOL0     H76949   8.822   8.349   3.356  1.1698 -0.3134 -1.1739
  558MOL0     H76950   8.990   8.394   3.397  0.6863 -0.5536  3.0963
  558MOL0     H76951   9.047   8.131   3.381 -1.6633 -0.3946 -2.4543
  558MOL0     H76952   8.962   8.212   3.516  0.0102  2.7204 -0.5813
  558MOL0     H76953   8.755   8.062   3.603  1.1947  1.5270 -0.2833
  558MOL0     H76954   8.563   7.904   3.617  1.1819 -1.4383 -1.3826
  558MOL0     H76955   8.500   7.832   3.471  1.5605 -1.8143  2.7767
  558MOL0     H76956   8.465   8.132   3.483  0.6051 -0.6037  2.3805
  558MOL0     H76957   8.357   7.996   3.445  1.1097 -0.5541 -1.1264
  558MOL0     H76958   8.298   7.964   3.687 -0.6761 -0.6575 -0.7069
  558MOL0     H76959   8.430   8.065   3.733 -0.6863  1.1602 -0.1619
  558MOL0     H76960   8.225   8.189   3.752  0.0675  0.6545  0.2864
  558MOL0     H76961   8.341   8.270   3.651  0.3150 -0.8968  2.4534
  558MOL0     H76962   7.961   8.045   3.543 -0.3365 -0.2280  2.4011
  558MOL0     H76963   7.659   8.067   3.697  0.1164 -1.3646 -0.6611
  558MOL0     H76964   7.756   7.992   3.569 -1.1796  0.1128 -1.1881
  558MOL0     H76965   7.644   8.108   3.517  0.9026  0.2530 -1.1498
  558MOL0     H76966   7.584   8.375   4.018  1.1773  0.0144 -0.0067
  558MOL0     H76967   7.341   8.420   4.107 -0.3371  0.3532 -0.0945
  558MOL0     H76968   7.124   8.772   3.984 -0.5806  1.1152  0.8333
  558MOL0     H76969   7.063   8.659   3.864  1.0306  0.5036 -0.4730
  558MOL0     H76970   6.918   8.563   4.066  1.9968 -0.5715 -2.4902
  558MOL0     H76971   6.988   8.709   4.157  0.5124  0.4635 -0.6019
  558MOL0     H76972   6.837   8.733   3.902  3.0290 -1.1996 -0.2382
  558MOL0     H76973   6.868   8.860   4.026 -4.5999  1.0644  0.9449
  558MOL0     H76974   6.660   8.640   4.062 -1.6537  0.3271  0.1155
  558MOL0     H76975   6.641   8.814   4.031  1.4969  0.5994 -0.5857
  558MOL0     H76976   6.771   8.678   4.278 -1.0486 -0.8003 -0.3491
  558MOL0     H76977   6.759   8.857   4.245  1.1515 -0.6135 -3.4513
  558MOL0     H76978   6.519   8.658   4.244 -0.6308 -1.9330  3.5346
  558MOL0     H76979   6.510   8.838   4.252 -2.0481 -1.1360 -0.8598
  558MOL0     H76980   6.621   8.663   4.491  1.8520  1.9046  1.0625
  558MOL0     H76981   6.454   8.705   4.458  0.0121 -0.3876 -3.7378
  558MOL0     H76982   6.504   8.954   4.441 -2.1974 -1.3671 -0.1148
  558MOL0     H76983   6.676   8.922   4.445 -1.4305  0.9557 -1.7920
  558MOL0     H76984   7.285   8.717   3.817 -0.2137  0.6719  2.3546
  558MOL0     H76985   7.489   8.676   3.716  0.1373 -0.7777 -0.3791
  558MOL0     H76986   7.904   8.507   3.701 -2.8056  0.1577 -1.4172
  558MOL0     H76987   8.128   8.420   3.641  0.1966 -0.1555 -1.2446
  558MOL0     H76988   9.164   8.890   2.747 -0.9353 -0.2153 -1.5348
  558MOL0     H76989   9.337   9.027   2.622 -0.5753  1.2564 -1.2347
  558MOL0     H76990   9.565   9.009   2.227  0.8994 -1.0150 -2.1901
  558MOL0     H76991   9.732   9.092   2.028 -0.8162  1.1933 -0.8031
  558MOL0     H76992   9.971   9.426   2.126  0.6032 -1.9878 -0.6090
  558MOL0     H76993   9.959   9.402   1.953 -1.3212 -0.1368 -1.4587
  558MOL0     H76994   9.780   9.555   2.063 -0.9846 -0.2710  1.3517
  558MOL0     H76995   9.704   9.413   2.126 -1.6123 -1.8153 -1.5253
  558MOL0     H76996   9.752   9.478   1.830  1.8104 -5.2417 -2.7803
  558MOL0     H76997   9.704   9.317   1.889  1.8095 -0.8048  0.8034
  558MOL0     H76998   9.478   9.388   1.938 -3.1118  1.9288 -0.9437
  558MOL0     H76999   9.521   9.484   1.802 -1.4732  0.0111  0.4472
  558MOL0     H77000   9.468   9.787   2.075  1.4949  1.2015 -0.1108
  558MOL0     H77001   9.984   9.244   2.324  0.0189  1.5170  0.4012
  558MOL0     H77002   9.954   9.242   2.538  1.4498 -2.0948 -1.3746
  558MOL0     H77003   9.788   9.233   2.604 -0.2393 -0.1931  1.4859
  558MOL0     H77004   9.879   9.091   2.596 -2.7603  0.5608  1.6825
  559MOL0     O77005   3.442   1.249   0.860  0.0041  0.3523  0.4324
  559MOL0     C77006   3.330   1.258   0.913 -0.8932  0.3936 -0.1837
  559MOL0     O77007   3.308   1.282   1.048  0.1432  0.3651  0.2508
  559MOL0     C77008   3.413   1.329   1.122  0.3843 -0.1377 -0.9887
  559MOL0     C77009   3.489   1.442   1.086 -0.6084 -0.5005 -0.1478
  559MOL0     C77010   3.608   1.469   1.160  0.5024  0.0720  0.1334
  559MOL0     C77011   3.635   1.408   1.277 -0.1161  0.2839 -1.0320
  559MOL0     O77012   3.758   1.449   1.334  0.0810 -0.0134  0.6426
  559MOL0     C77013   3.738   1.514   1.458  0.0687  0.0975 -0.1952
  559MOL0     C77014   3.718   1.663   1.425  0.0770  0.5862  1.6818
  559MOL0     C77015   3.676   1.747   1.545 -0.2188 -0.7631  0.3389
  559MOL0     C77016   3.645   1.890   1.484  0.4078  0.0622 -0.3340
  559MOL0     C77017   3.608   1.977   1.605  0.0021  0.7071 -0.1583
  559MOL0     C77018   3.463   1.960   1.659 -0.2091 -0.1287  0.3947
  559MOL0     C77019   3.440   2.061   1.771 -0.3495 -0.2864  0.2137
  559MOL0     C77020   3.304   2.038   1.844 -0.3416 -0.4497  0.1106
  559MOL0     N77021   3.195   2.090   1.759  0.6108  0.5692 -0.2742
  559MOL0     C77022   3.083   2.017   1.725 -1.0803  0.5055 -0.5392
  559MOL0     C77023   3.009   2.099   1.644 -0.9180 -0.5889 -0.2860
  559MOL0     C77024   2.884   2.068   1.572 -0.0283 -0.8085  0.2016
  559MOL0     C77025   2.906   2.042   1.421 -0.0225  0.2238  0.3498
  559MOL0     C77026   2.789   2.002   1.327 -0.7778 -0.1200  0.0170
  559MOL0     C77027   2.678   1.925   1.398  0.2941 -0.0992 -0.0855
  559MOL0     O77028   2.564   1.892   1.318 -0.2761 -0.1643 -0.5962
  559MOL0     C77029   2.437   1.887   1.373  1.3220 -0.1409  0.5373
  559MOL0     C77030   2.417   1.890   1.512 -0.7483  0.0831 -0.5758
  559MOL0     C77031   2.283   1.905   1.566  0.2112 -0.0238  0.4867
  559MOL0     C77032   2.265   1.925   1.716  0.5097  0.2859 -0.0156
  559MOL0     C77033   2.171   1.918   1.474  0.1378 -0.6682 -0.5221
  559MOL0     C77034   2.026   1.933   1.517 -0.2135 -0.8347 -0.3049
  559MOL0     O77035   1.935   1.908   1.414  0.5295 -0.0102 -0.0496
  559MOL0     C77036   1.796   1.917   1.451 -0.6112  0.1554 -0.2290
  559MOL0     C77037   1.704   1.828   1.386  0.2140 -0.2023 -0.1740
  559MOL0     C77038   1.571   1.855   1.399 -0.0518  0.3048 -0.6863
  559MOL0     C77039   1.521   1.959   1.476 -0.1680 -0.6755  0.4453
  559MOL0     O77040   1.387   1.989   1.492  0.5426 -0.1461 -0.1140
  559MOL0     C77041   1.282   1.892   1.458 -0.7312  0.6047  0.1933
  559MOL0     C77042   1.148   1.952   1.500  0.4153  0.7340  0.7583
  559MOL0     C77043   1.034   1.864   1.454 -0.1429 -0.0491 -0.4468
  559MOL0     C77044   0.895   1.934   1.481 -0.5170 -0.4727  0.0156
  559MOL0     C77045   0.768   1.848   1.471 -0.6012 -0.2176  0.6775
  559MOL0     C77046   0.635   1.916   1.522 -0.0238  0.1197  0.5160
  559MOL0     C77047   0.595   2.029   1.430  0.5458  0.3007 -0.3660
  559MOL0     C77048   0.489   2.125   1.495  0.3056  1.2059  0.0923
  559MOL0    Cl77049   0.351   2.028   1.545  0.4821  0.0138 -0.1823
  559MOL0     C77050   1.612   2.050   1.530  0.9000 -0.5819 -0.2249
  559MOL0     C77051   1.746   2.033   1.511 -0.1044  0.1080 -0.1128
  559MOL0     O77052   1.993   1.946   1.636 -0.0263  0.1769  0.3015
  559MOL0     C77053   2.199   1.909   1.339 -0.1506 -0.0662  0.0120
  559MOL0     C77054   2.324   1.898   1.282  0.0159  0.2256 -0.4178
  559MOL0     N77055   3.088   2.212   1.617 -0.3632  0.7464  0.6114
  559MOL0     N77056   3.201   2.203   1.678  0.6322  0.1780 -0.2258
  559MOL0     C77057   3.555   1.308   1.324  0.3639  0.6849  0.7352
  559MOL0     C77058   3.441   1.272   1.242 -0.3222  0.4771  0.1168
  559MOL0     C77059   3.213   1.279   0.825  1.1989 -0.5005 -0.7336
  559MOL0     C77060   3.086   1.240   0.874  0.3861 -0.2840 -0.0528
  559MOL0     C77061   2.967   1.275   0.804 -0.8474  0.4688 -0.7069
  559MOL0     C77062   2.973   1.353   0.692 -0.4000  0.6352  0.8530
  559MOL0     O77063   2.860   1.388   0.614  0.1837 -0.3763 -0.5321
  559MOL0     C77064   2.730   1.377   0.670 -0.0350 -0.2400 -0.4574
  559MOL0     C77065   2.690   1.238   0.618  0.2322  0.3937  0.2296
  559MOL0     C77066   2.535   1.227   0.628 -0.4274 -0.1473  0.1097
  559MOL0     C77067   2.493   1.201   0.773 -0.3776  0.3799 -0.1758
  559MOL0     C77068   2.345   1.195   0.784  0.1652  0.4050  0.2834
  559MOL0     C77069   2.225   1.179   0.775 -0.8634  0.3477 -0.2280
  559MOL0     C77070   3.098   1.383   0.638  0.5507 -0.2808 -0.3149
  559MOL0     C77071   3.212   1.337   0.697 -0.4259  0.5398  0.2532
  559MOL0     C77072   3.343   1.384   0.629  0.3571 -0.4633  0.7111
  559MOL0     H77073   3.476   1.490   0.989  0.9481 -2.1908 -1.2621
  559MOL0     H77074   3.668   1.558   1.148 -1.4952  1.8301  2.1617
  559MOL0     H77075   3.817   1.499   1.532 -1.1099 -0.6151  0.9776
  559MOL0     H77076   3.645   1.483   1.507 -0.6865  0.4096 -1.3697
  559MOL0     H77077   3.817   1.704   1.401  0.3092 -0.9834 -0.3229
  559MOL0     H77078   3.647   1.682   1.345 -2.1479 -0.1249  3.3837
  559MOL0     H77079   3.598   1.699   1.605 -0.7283 -0.6703 -0.2431
  559MOL0     H77080   3.769   1.762   1.602  1.5832 -0.0235 -2.5793
  559MOL0     H77081   3.731   1.937   1.436 -0.6860 -0.4437 -2.9763
  559MOL0     H77082   3.567   1.881   1.407  1.0819  2.1418 -1.3348
  559MOL0     H77083   3.617   2.079   1.567 -2.4065  1.1394  0.2444
  559MOL0     H77084   3.679   1.968   1.687  0.4251 -0.2864 -0.6124
  559MOL0     H77085   3.380   1.977   1.590 -1.6451 -1.5884  1.6708
  559MOL0     H77086   3.449   1.855   1.685 -2.6174 -0.2315 -0.9870
  559MOL0     H77087   3.434   2.162   1.729 -2.6853 -0.1409  0.7381
  559MOL0     H77088   3.521   2.051   1.843  1.9101 -0.5023 -2.2239
  559MOL0     H77089   3.284   1.933   1.866  2.1325 -0.5911  2.1057
  559MOL0     H77090   3.298   2.093   1.939 -1.2492  0.9090 -0.7075
  559MOL0     H77091   3.062   1.922   1.774  1.8027  0.4288  0.7372
  559MOL0     H77092   2.827   2.161   1.574 -1.9916 -1.9458 -0.2032
  559MOL0     H77093   2.826   1.992   1.624  1.8502 -1.3228  1.6312
  559MOL0     H77094   2.951   2.130   1.374  0.9652 -0.9598 -0.9945
  559MOL0     H77095   2.983   1.964   1.422 -0.1464  0.0365 -1.6980
  559MOL0     H77096   2.754   2.100   1.293 -3.6793 -0.1771  2.3975
  559MOL0     H77097   2.823   1.941   1.243  2.2068 -0.9212  1.6599
  559MOL0     H77098   2.711   1.836   1.452  0.1537 -0.6236 -0.8419
  559MOL0     H77099   2.652   1.997   1.476 -3.2713 -3.9851  2.7721
  559MOL0     H77100   2.502   1.885   1.580 -1.5494 -2.3211  0.3634
  559MOL0     H77101   2.194   1.845   1.741  1.5091 -0.6000  0.0552
  559MOL0     H77102   2.243   2.030   1.737  0.4679  0.5806 -1.4561
  559MOL0     H77103   2.361   1.896   1.760  0.7751 -0.5414 -1.0769
  559MOL0     H77104   1.732   1.743   1.325  0.0606  0.3589 -1.0554
  559MOL0     H77105   1.506   1.788   1.345  1.8138 -0.4237 -2.1317
  559MOL0     H77106   1.275   1.879   1.349 -1.5410  0.5611  0.2443
  559MOL0     H77107   1.294   1.799   1.515  0.7274 -0.7891 -2.1778
  559MOL0     H77108   1.146   1.982   1.605 -2.1269  2.1737  0.3738
  559MOL0     H77109   1.129   2.043   1.443 -2.5362 -1.2750 -1.7832
  559MOL0     H77110   1.038   1.771   1.513 -0.6986 -0.0668 -0.4351
  559MOL0     H77111   1.047   1.842   1.348  2.6767 -0.4704 -0.0997
  559MOL0     H77112   0.897   2.009   1.402 -2.4490 -0.9076 -0.4958
  559MOL0     H77113   0.902   1.982   1.579  3.3734  0.0677 -0.3506
  559MOL0     H77114   0.756   1.815   1.367 -1.6129  0.0300  0.7051
  559MOL0     H77115   0.776   1.752   1.521 -0.1102 -0.7386 -0.3546
  559MOL0     H77116   0.660   1.953   1.622  0.6653 -1.1167  0.8328
  559MOL0     H77117   0.562   1.835   1.530 -0.5923  0.2749 -2.2842
  559MOL0     H77118   0.550   1.991   1.338 -0.8710 -3.4365  1.6136
  559MOL0     H77119   0.687   2.084   1.411  2.2939 -1.1733  2.9202
  559MOL0     H77120   0.446   2.198   1.426  0.4152  0.2940 -0.9652
  559MOL0     H77121   0.536   2.184   1.575  0.8620  0.2338  0.5004
  559MOL0     H77122   1.587   2.144   1.578 -0.1794 -1.1721  0.3987
  559MOL0     H77123   1.813   2.106   1.555  0.2334 -0.6112  0.5730
  559MOL0     H77124   2.114   1.906   1.272 -2.9484 -2.1141  3.3156
  559MOL0     H77125   2.318   1.903   1.174 -2.4321  1.0155 -0.3279
  559MOL0     H77126   3.581   1.262   1.419  0.3769  1.2334  1.0002
  559MOL0     H77127   3.377   1.193   1.280  1.3877 -0.1158  1.9314
  559MOL0     H77128   3.084   1.183   0.967 -2.5221  1.6688  1.2453
  559MOL0     H77129   2.881   1.231   0.853  0.5801 -2.1200 -0.3352
  559MOL0     H77130   2.729   1.398   0.778  0.5949  0.8481 -0.6505
  559MOL0     H77131   2.657   1.449   0.634 -1.3137 -0.8368  0.8426
  559MOL0     H77132   2.723   1.152   0.677 -2.7035 -0.6579  0.4877
  559MOL0     H77133   2.726   1.232   0.514  0.6395 -0.9079  0.4360
  559MOL0     H77134   2.486   1.318   0.592 -0.5145  0.7630  2.3530
  559MOL0     H77135   2.496   1.149   0.561  2.9470 -1.2770 -0.7485
  559MOL0     H77136   2.524   1.285   0.836  1.4436  0.1219 -0.6853
  559MOL0     H77137   2.535   1.106   0.805  0.9572  1.2313  0.6940
  559MOL0     H77138   2.118   1.185   0.772 -0.7759  3.7653  0.1441
  559MOL0     H77139   3.101   1.444   0.547  3.5384  0.8004  0.3606
  559MOL0     H77140   3.319   1.441   0.538 -0.9047 -2.2108 -0.1166
  559MOL0     H77141   3.397   1.451   0.696  0.2864  0.6762 -0.3407
  559MOL0     H77142   3.405   1.298   0.604  0.8873  0.1629 -0.1888
  560MOL0     O77143   6.147   3.211   8.630  0.4998 -0.1309 -0.5496
  560MOL0     C77144   6.088   3.217   8.522 -0.8204  0.1017 -0.2769
  560MOL0     O77145   6.143   3.214   8.396 -0.4902  0.6848 -0.1069
  560MOL0     C77146   6.275   3.221   8.362 -0.2404  0.5201 -0.0319
  560MOL0     C77147   6.311   3.284   8.237  0.1761 -0.1037  0.4571
  560MOL0     C77148   6.446   3.296   8.199  0.2732 -0.0736  0.4675
  560MOL0     C77149   6.551   3.250   8.285  0.0475 -0.5881  0.0543
  560MOL0     O77150   6.686   3.282   8.264  0.0716  0.3904 -0.7674
  560MOL0     C77151   6.725   3.373   8.162 -0.2087  0.3040 -0.0402
  560MOL0     C77152   6.877   3.406   8.149 -0.5267  0.0875  0.3904
  560MOL0     C77153   6.929   3.477   8.279 -0.1672  0.9533  1.0147
  560MOL0     C77154   7.078   3.507   8.261  0.4472 -0.1976 -0.8643
  560MOL0     C77155   7.133   3.579   8.386 -0.1528 -0.5977 -0.4306
  560MOL0     C77156   7.277   3.629   8.381 -0.5105  0.1816  0.6934
  560MOL0     C77157   7.372   3.512   8.385  0.1998  0.8350 -0.5863
  560MOL0     C77158   7.510   3.558   8.346 -0.8017  0.2979  0.2285
  560MOL0     N77159   7.596   3.451   8.389 -1.0172 -0.1417  0.2145
  560MOL0     C77160   7.692   3.481   8.480  0.3106  0.2842 -0.1995
  560MOL0     C77161   7.773   3.383   8.492 -0.7389 -0.4535  1.1496
  560MOL0     C77162   7.906   3.376   8.565  0.4595 -0.3161 -0.2273
  560MOL0     C77163   7.978   3.515   8.585 -0.2256  0.1545 -0.0105
  560MOL0     C77164   8.126   3.498   8.614  0.6793 -0.0797  0.3653
  560MOL0     C77165   8.151   3.454   8.764 -1.1598  0.6957 -0.0927
  560MOL0     O77166   8.172   3.306   8.776  0.2258  0.2883 -0.4864
  560MOL0     C77167   8.298   3.255   8.752 -0.2049 -0.1204 -0.1132
  560MOL0     C77168   8.314   3.119   8.781  0.6760 -1.0748 -0.9917
  560MOL0     C77169   8.439   3.058   8.764  0.0283 -0.4392  0.6973
  560MOL0     C77170   8.452   2.912   8.806 -0.0067  0.1834  0.4147
  560MOL0     C77171   8.552   3.128   8.706 -0.2245 -1.5225 -0.5400
  560MOL0     C77172   8.678   3.064   8.675  0.9142 -0.3609  0.3872
  560MOL0     O77173   8.663   2.947   8.617 -0.5749  0.2646  0.0886
  560MOL0     C77174   8.757   2.847   8.642  0.3101 -0.4556  0.0335
  560MOL0     C77175   8.821   2.789   8.523  0.3773  1.0975 -0.0939
  560MOL0     C77176   8.926   2.699   8.542 -0.8929 -0.1871  0.4107
  560MOL0     C77177   8.972   2.661   8.676 -0.1299  0.2367 -0.4980
  560MOL0     O77178   9.080   2.578   8.674  0.2570  0.1881  0.0449
  560MOL0     C77179   9.146   2.559   8.801  1.0474 -0.6475 -0.3594
  560MOL0     C77180   9.267   2.470   8.789 -1.5082  0.2023  0.1032
  560MOL0     C77181   9.370   2.547   8.692 -0.0303  0.2377 -0.4868
  560MOL0     C77182   9.493   2.466   8.653 -0.2785 -0.1342  0.3815
  560MOL0     C77183   9.598   2.468   8.761 -0.7688  0.7084 -0.2248
  560MOL0     C77184   9.731   2.416   8.695 -0.3673 -0.2643 -0.5593
  560MOL0     C77185   9.847   2.457   8.786 -0.0201  0.0322 -0.1633
  560MOL0     C77186   9.977   2.420   8.719 -0.1461 -0.2971  0.1430
  560MOL0    Cl77187  10.103   2.472   8.828  0.5955 -0.1191 -0.0410
  560MOL0     C77188   8.914   2.724   8.781 -0.4852  0.7929  0.4295
  560MOL0     C77189   8.803   2.811   8.769  0.0732  0.1681 -0.0923
  560MOL0     O77190   8.780   3.122   8.692 -0.1362  0.0469 -0.4300
  560MOL0     C77191   8.527   3.266   8.670  0.8093 -0.2717 -0.4683
  560MOL0     C77192   8.401   3.326   8.690 -0.5551 -0.0931  0.7111
  560MOL0     N77193   7.718   3.284   8.407 -0.0510 -0.4879 -0.4010
  560MOL0     N77194   7.610   3.324   8.355  0.2261  0.3109 -0.3909
  560MOL0     C77195   6.516   3.182   8.405 -0.0955 -0.0744  0.1442
  560MOL0     C77196   6.380   3.174   8.437  1.4309  0.1320  0.3087
  560MOL0     C77197   5.949   3.227   8.530 -0.1767  0.1953  0.1572
  560MOL0     C77198   5.880   3.141   8.625  0.3636 -0.0857 -1.0119
  560MOL0     C77199   5.740   3.147   8.652  0.0496 -0.0304  0.2495
  560MOL0     C77200   5.663   3.228   8.572 -0.0176 -0.6337 -0.2709
  560MOL0     O77201   5.530   3.239   8.575 -0.1216  0.0511 -0.0287
  560MOL0     C77202   5.472   3.257   8.713 -0.9466  0.0977  0.2335
  560MOL0     C77203   5.383   3.385   8.703 -0.5229 -0.2763  0.2201
  560MOL0     C77204   5.330   3.421   8.844 -1.0934  0.0959  0.2065
  560MOL0     C77205   5.182   3.474   8.844 -0.1940 -0.3647  0.1327
  560MOL0     C77206   5.157   3.564   8.959  0.3610  0.5852  0.2236
  560MOL0     C77207   5.148   3.651   9.050 -0.1879  0.3364  0.4164
  560MOL0     C77208   5.730   3.308   8.474 -1.0399 -0.5721 -0.1358
  560MOL0     C77209   5.872   3.307   8.452  0.1287 -0.0264  0.4664
  560MOL0     C77210   5.921   3.409   8.361 -0.1182  0.6313 -0.6699
  560MOL0     H77211   6.233   3.325   8.174 -2.4530 -1.9902  2.2882
  560MOL0     H77212   6.469   3.351   8.108  0.8280 -0.4674  0.3617
  560MOL0     H77213   6.682   3.471   8.185  1.3973  0.1151  4.8322
  560MOL0     H77214   6.692   3.330   8.067  0.9211 -2.3727  0.6965
  560MOL0     H77215   6.914   3.304   8.136  0.4693  0.4940 -0.0549
  560MOL0     H77216   6.903   3.454   8.054  0.0344  0.8692  0.9337
  560MOL0     H77217   6.876   3.571   8.296  1.1970  1.8874  0.3085
  560MOL0     H77218   6.909   3.406   8.360 -2.2492  0.2161 -0.0650
  560MOL0     H77219   7.132   3.412   8.256  1.0045  0.1522 -1.6932
  560MOL0     H77220   7.093   3.559   8.166  0.1930  0.0079 -0.7937
  560MOL0     H77221   7.129   3.508   8.470  0.4643  1.7261  1.6850
  560MOL0     H77222   7.073   3.668   8.404  0.2306 -0.6684  1.4153
  560MOL0     H77223   7.291   3.687   8.290  0.1038  0.1342  0.7532
  560MOL0     H77224   7.293   3.699   8.463 -0.5920  1.8703 -0.6821
  560MOL0     H77225   7.350   3.440   8.305 -0.0581 -0.6509  0.7728
  560MOL0     H77226   7.363   3.463   8.482 -2.0685  1.1309 -0.5976
  560MOL0     H77227   7.527   3.554   8.238  2.0372  0.7645  0.5754
  560MOL0     H77228   7.543   3.657   8.377 -1.8204  0.2177  1.6618
  560MOL0     H77229   7.703   3.575   8.533 -0.9258 -1.3137  3.1729
  560MOL0     H77230   7.966   3.301   8.513 -0.4838 -1.3045  0.0619
  560MOL0     H77231   7.883   3.331   8.662  1.1282 -0.5683 -0.1833
  560MOL0     H77232   7.959   3.588   8.506 -3.0537 -0.2780  0.1748
  560MOL0     H77233   7.926   3.564   8.668 -0.1545  0.2404 -0.0166
  560MOL0     H77234   8.173   3.438   8.535 -1.5446 -1.8431  0.2687
  560MOL0     H77235   8.172   3.597   8.620  0.9048 -0.1976  0.6170
  560MOL0     H77236   8.239   3.506   8.803 -2.6103  3.0365  0.2577
  560MOL0     H77237   8.073   3.489   8.832 -0.9749  0.4541  0.2485
  560MOL0     H77238   8.237   3.073   8.842  1.4667  0.7794  1.5836
  560MOL0     H77239   8.541   2.894   8.867  0.5635 -0.4393 -0.5766
  560MOL0     H77240   8.456   2.848   8.718 -3.8777 -0.1816  0.3450
  560MOL0     H77241   8.366   2.880   8.866  0.2699  0.1589  0.8028
  560MOL0     H77242   8.778   2.799   8.424  1.5327 -0.4685 -0.7899
  560MOL0     H77243   8.973   2.657   8.454 -2.0007 -2.6054  0.8968
  560MOL0     H77244   9.173   2.660   8.834 -0.4528 -1.1594  2.8446
  560MOL0     H77245   9.078   2.504   8.866  1.7506 -0.7302  0.3310
  560MOL0     H77246   9.309   2.440   8.886 -2.0751  1.0448  0.6265
  560MOL0     H77247   9.240   2.375   8.742  2.6882 -0.3907 -1.4685
  560MOL0     H77248   9.396   2.641   8.743 -1.3299  0.5933 -0.4445
  560MOL0     H77249   9.319   2.571   8.599  1.5173  0.0747 -1.4078
  560MOL0     H77250   9.537   2.503   8.560  2.5205 -3.1658  0.3269
  560MOL0     H77251   9.463   2.364   8.630 -3.2827  0.7807 -0.2390
  560MOL0     H77252   9.612   2.573   8.788  2.2106  0.2273  0.4925
  560MOL0     H77253   9.578   2.412   8.853  1.6648 -1.1089 -0.7193
  560MOL0     H77254   9.744   2.450   8.592 -1.6850  2.5517  0.1263
  560MOL0     H77255   9.736   2.307   8.691  4.9074 -0.3583  0.3949
  560MOL0     H77256   9.837   2.408   8.884 -1.8909  0.0726 -0.2975
  560MOL0     H77257   9.862   2.565   8.791  2.6669 -0.2027 -1.3743
  560MOL0     H77258   9.981   2.471   8.622 -0.8827  1.0423  0.7815
  560MOL0     H77259   9.988   2.317   8.685 -0.3883  0.7921 -3.6527
  560MOL0     H77260   8.952   2.705   8.880  1.5473  2.9949  0.1509
  560MOL0     H77261   8.755   2.858   8.854 -3.2564  2.6633 -3.0318
  560MOL0     H77262   8.605   3.323   8.620  0.0869  0.9754 -0.2172
  560MOL0     H77263   8.387   3.420   8.638  0.9604  0.2279  0.8374
  560MOL0     H77264   6.592   3.141   8.471  1.6909  0.5005 -1.4537
  560MOL0     H77265   6.344   3.120   8.524 -1.2742  0.0158 -0.7579
  560MOL0     H77266   5.941   3.073   8.685 -0.7864  0.2273  0.5475
  560MOL0     H77267   5.707   3.079   8.730  1.1111  1.0783  1.7316
  560MOL0     H77268   5.413   3.175   8.755 -3.6227  0.7174 -2.0083
  560MOL0     H77269   5.558   3.283   8.776  0.4673  0.0285 -1.5969
  560MOL0     H77270   5.302   3.376   8.630  0.3781 -0.3035 -0.8137
  560MOL0     H77271   5.443   3.465   8.659 -1.2779 -0.2868 -0.8584
  560MOL0     H77272   5.334   3.342   8.919 -3.2965  0.6754  1.0155
  560MOL0     H77273   5.391   3.500   8.888 -1.9794 -0.1453  1.9791
  560MOL0     H77274   5.116   3.387   8.852 -3.2622  1.9359  3.1359
  560MOL0     H77275   5.154   3.529   8.754  1.6775  1.0910  0.3818
  560MOL0     H77276   5.144   3.726   9.126  3.7450  2.7156 -1.3837
  560MOL0     H77277   5.670   3.375   8.413  0.9026  0.4783 -0.9786
  560MOL0     H77278   5.852   3.494   8.359 -0.0300  0.7993  1.4251
  560MOL0     H77279   6.013   3.452   8.403 -1.5122  2.1043  1.0120
  560MOL0     H77280   5.932   3.377   8.257  1.3603 -0.6017 -0.1807
  561MOL0     O77281   9.496   1.163   2.975  0.2157  0.4291  0.4788
  561MOL0     C77282   9.467   1.164   2.858 -0.4753 -0.4236  1.0035
  561MOL0     O77283   9.562   1.185   2.752  0.5678 -0.8808  0.9677
  561MOL0     C77284   9.691   1.213   2.773 -0.6111 -0.9130  0.2765
  561MOL0     C77285   9.734   1.351   2.764 -0.1019  0.3064  0.1589
  561MOL0     C77286   9.866   1.384   2.797 -0.9844  0.6994  0.2824
  561MOL0     C77287   9.965   1.285   2.823  0.0406 -1.1127  0.8219
  561MOL0     O77288  10.098   1.331   2.843  0.0194 -0.2899  0.2300
  561MOL0     C77289  10.198   1.243   2.895  0.8398 -0.1630  0.4555
  561MOL0     C77290  10.335   1.321   2.873 -0.1539  0.8291 -0.0830
  561MOL0     C77291  10.436   1.234   2.945  0.2294  0.3469  0.1956
  561MOL0     C77292  10.573   1.294   2.931  0.0524  0.0108  0.2096
  561MOL0     C77293  10.687   1.228   3.007 -0.0818 -0.1335 -0.7173
  561MOL0     C77294  10.725   1.091   2.950  0.4562 -0.1858 -0.1043
  561MOL0     C77295  10.862   1.042   2.984 -0.4475 -0.0385 -0.2273
  561MOL0     C77296  10.972   1.126   2.922  0.5290  0.1628  0.6924
  561MOL0     N77297  11.104   1.064   2.946  0.1335  0.1243  0.6167
  561MOL0     C77298  11.134   0.937   2.898 -0.0192 -0.4646  0.1937
  561MOL0     C77299  11.257   0.909   2.958  1.0770  0.3311 -1.1041
  561MOL0     C77300  11.343   0.783   2.946 -0.1459 -0.5754  0.4849
  561MOL0     C77301  11.487   0.830   2.943 -0.5635  0.1853  0.2446
  561MOL0     C77302  11.571   0.707   2.915 -0.2544  0.0385  0.1153
  561MOL0     C77303  11.714   0.740   2.876  0.1167 -0.4393  0.5670
  561MOL0     O77304  11.791   0.616   2.885 -0.3777 -0.0351  0.9808
  561MOL0     C77305  11.922   0.631   2.886  0.1873  0.5690  0.2103
  561MOL0     C77306  11.995   0.753   2.899  0.2875  0.0878  0.1267
  561MOL0     C77307  12.136   0.756   2.910  0.5432 -0.5270 -0.2756
  561MOL0     C77308  12.199   0.893   2.926  0.5145  0.4511  0.0715
  561MOL0     C77309  12.209   0.633   2.900 -0.6834  0.7258  1.4532
  561MOL0     C77310  12.353   0.619   2.888  0.6566 -0.7670  0.9215
  561MOL0     O77311  12.429   0.702   2.974  0.1545  0.4978  0.5905
  561MOL0     C77312  12.568   0.696   2.959  0.0211 -0.1049 -0.0974
  561MOL0     C77313  12.625   0.707   2.829  0.4062  0.1747 -1.0723
  561MOL0     C77314  12.760   0.719   2.823 -0.0769 -0.2627 -0.0340
  561MOL0     C77315  12.851   0.731   2.932  0.3560  0.1996 -0.2463
  561MOL0     O77316  12.983   0.756   2.910 -0.0627 -0.4799 -0.0714
  561MOL0     C77317  13.071   0.703   3.012  0.5194 -0.4544  0.5663
  561MOL0     C77318  13.175   0.804   3.049 -0.5092 -0.0730  0.2831
  561MOL0     C77319  13.290   0.734   3.119  0.0576 -0.3105  0.7024
  561MOL0     C77320  13.413   0.827   3.125 -0.9963  0.9991 -0.2897
  561MOL0     C77321  13.498   0.819   3.251  0.1182  0.7746  0.2052
  561MOL0     C77322  13.442   0.879   3.380  0.2338  0.8541  0.2390
  561MOL0     C77323  13.438   1.033   3.385  0.2916  0.3433  0.0099
  561MOL0     C77324  13.577   1.095   3.404 -0.1672  0.2719  0.3464
  561MOL0    Cl77325  13.642   1.046   3.568 -0.0543  0.3520 -0.1272
  561MOL0     C77326  12.793   0.740   3.065  0.3085  0.8987  1.0252
  561MOL0     C77327  12.655   0.719   3.076  0.2865  0.1520 -0.1397
  561MOL0     O77328  12.398   0.542   2.804 -0.4653  0.6477  0.2452
  561MOL0     C77329  12.141   0.516   2.893 -0.3399  0.3463 -0.9564
  561MOL0     C77330  11.998   0.510   2.886  0.2915 -0.5578 -0.7067
  561MOL0     N77331  11.293   1.015   3.040 -0.0870 -0.3226 -0.2435
  561MOL0     N77332  11.192   1.107   3.041  0.6705  0.4800 -0.3906
  561MOL0     C77333   9.920   1.151   2.831  0.3081 -0.3946  0.0889
  561MOL0     C77334   9.789   1.117   2.797 -0.1514 -0.4514  0.1140
  561MOL0     C77335   9.333   1.137   2.823  1.0079  0.4914  0.3754
  561MOL0     C77336   9.318   1.066   2.700  0.4513 -0.9627  0.3848
  561MOL0     C77337   9.197   1.033   2.647  0.8087 -0.4988  0.7766
  561MOL0     C77338   9.081   1.074   2.711 -0.6812  0.5408  0.5988
  561MOL0     O77339   8.962   1.027   2.662 -0.3021  0.4853  0.0396
  561MOL0     C77340   8.934   1.004   2.526  0.1936  0.2453  0.7270
  561MOL0     C77341   8.785   0.994   2.510  0.2571  0.2105  0.0480
  561MOL0     C77342   8.719   0.878   2.587 -0.2962 -0.6591  0.5379
  561MOL0     C77343   8.573   0.855   2.564 -0.6180 -0.4091  0.2890
  561MOL0     C77344   8.505   0.975   2.590  0.8194 -0.1289  0.2923
  561MOL0     C77345   8.432   1.070   2.615  0.5981 -0.4055  0.2999
  561MOL0     C77346   9.095   1.158   2.825  0.0299 -0.7233  0.3303
  561MOL0     C77347   9.218   1.187   2.893 -0.0672  0.5535  0.0108
  561MOL0     C77348   9.200   1.286   3.006 -0.0697 -0.0477  1.0044
  561MOL0     H77349   9.662   1.420   2.721  1.0789 -0.3394 -3.1521
  561MOL0     H77350   9.912   1.481   2.779 -0.6737  0.7933  1.5054
  561MOL0     H77351  10.198   1.141   2.855  3.7089  0.0311 -0.2565
  561MOL0     H77352  10.179   1.230   3.002 -0.3031 -4.8503 -0.0990
  561MOL0     H77353  10.359   1.337   2.768 -1.5569  2.4623 -0.2048
  561MOL0     H77354  10.333   1.417   2.925 -1.0780  1.1462 -0.6810
  561MOL0     H77355  10.404   1.228   3.050 -2.5823 -0.2326 -0.6103
  561MOL0     H77356  10.445   1.130   2.912  3.0758  1.0665 -1.6196
  561MOL0     H77357  10.589   1.298   2.823  3.7633  4.7185  0.5869
  561MOL0     H77358  10.571   1.401   2.953  0.6882  0.7430 -2.7730
  561MOL0     H77359  10.644   1.222   3.107 -0.7001  0.1891 -0.9560
  561MOL0     H77360  10.776   1.292   3.002 -1.0451  1.4753  1.2770
  561MOL0     H77361  10.653   1.014   2.979  2.2714 -2.6127 -1.6564
  561MOL0     H77362  10.711   1.098   2.842 -2.7568  2.0536  0.3145
  561MOL0     H77363  10.879   0.941   2.947  1.5554  1.2517 -3.2725
  561MOL0     H77364  10.869   1.052   3.093 -0.7943  0.6282 -0.2563
  561MOL0     H77365  10.964   1.142   2.814  3.2072 -0.1879  0.3761
  561MOL0     H77366  10.973   1.218   2.981 -0.0839 -1.1640  2.8691
  561MOL0     H77367  11.062   0.894   2.829 -3.5446 -0.6757  3.6269
  561MOL0     H77368  11.321   0.727   2.854  1.9734  1.7245 -1.5846
  561MOL0     H77369  11.321   0.710   3.025  1.3222 -1.4592  0.1287
  561MOL0     H77370  11.508   0.898   2.859 -1.1225  0.6055  0.4401
  561MOL0     H77371  11.511   0.878   3.038  0.6583 -0.1285  0.1133
  561MOL0     H77372  11.575   0.642   3.002 -2.5690 -0.8512 -0.3712
  561MOL0     H77373  11.518   0.654   2.836  0.6072 -0.2160 -0.3092
  561MOL0     H77374  11.726   0.783   2.776 -0.5454 -0.7893  0.3317
  561MOL0     H77375  11.756   0.801   2.957  1.0474  1.2084 -1.0812
  561MOL0     H77376  11.946   0.849   2.907 -0.2904 -0.3654  3.0660
  561MOL0     H77377  12.192   0.945   3.022 -0.6083  0.0330  0.2257
  561MOL0     H77378  12.151   0.963   2.857 -2.2708 -1.3706  0.0348
  561MOL0     H77379  12.306   0.895   2.903  0.9154  1.7192  1.7887
  561MOL0     H77380  12.565   0.710   2.738 -0.6480 -2.0573 -0.5001
  561MOL0     H77381  12.800   0.734   2.723 -0.6583  0.7271 -0.1322
  561MOL0     H77382  13.026   0.663   3.103 -1.8249  2.2883  0.7826
  561MOL0     H77383  13.111   0.610   2.972 -1.0463 -2.8280  4.0225
  561MOL0     H77384  13.206   0.839   2.950 -1.7129  2.4566  0.7226
  561MOL0     H77385  13.132   0.881   3.113 -2.3590 -0.9040  0.0937
  561MOL0     H77386  13.324   0.642   3.071  0.6263  0.1397  0.2309
  561MOL0     H77387  13.250   0.714   3.219 -2.2448 -1.7121 -0.4117
  561MOL0     H77388  13.376   0.929   3.116 -3.2687  0.2779  0.3879
  561MOL0     H77389  13.484   0.799   3.045  1.3035  2.2168  1.2097
  561MOL0     H77390  13.520   0.712   3.248 -0.6486  0.6144 -2.9003
  561MOL0     H77391  13.590   0.873   3.231  0.9926 -0.7273  0.0235
  561MOL0     H77392  13.508   0.841   3.459  1.3351  0.8142 -0.6660
  561MOL0     H77393  13.343   0.840   3.403 -0.8636  1.6467 -2.7245
  561MOL0     H77394  13.376   1.073   3.466  2.3453  1.0810  1.3188
  561MOL0     H77395  13.416   1.067   3.284  0.7811  0.3431 -0.0998
  561MOL0     H77396  13.579   1.205   3.403  1.4372  0.2664 -0.3634
  561MOL0     H77397  13.655   1.059   3.337  0.2407  0.7167  0.5742
  561MOL0     H77398  12.848   0.770   3.153 -0.0241  1.6003  1.0049
  561MOL0     H77399  12.602   0.714   3.171 -2.9400 -1.7446 -1.8700
  561MOL0     H77400  12.195   0.422   2.895 -1.0684 -0.0843  1.3962
  561MOL0     H77401  11.937   0.424   2.863 -1.3673  0.4474 -0.2271
  561MOL0     H77402   9.982   1.072   2.871  0.7922  1.2676  2.8701
  561MOL0     H77403   9.749   1.017   2.811  0.4756 -0.8775 -1.0241
  561MOL0     H77404   9.405   1.035   2.644  1.4049 -1.5803  2.1142
  561MOL0     H77405   9.187   0.975   2.556 -0.3729  1.2065 -0.2441
  561MOL0     H77406   8.978   1.070   2.450 -0.5938 -2.1491 -1.9963
  561MOL0     H77407   8.971   0.905   2.498  1.3658  1.5903 -3.3043
  561MOL0     H77408   8.765   0.971   2.405  1.0698 -2.1749  0.3532
  561MOL0     H77409   8.734   1.085   2.542 -0.7878 -0.0485 -0.8285
  561MOL0     H77410   8.767   0.781   2.573 -0.7077 -0.6477 -1.2023
  561MOL0     H77411   8.732   0.888   2.695 -2.0039 -0.5995  0.7682
  561MOL0     H77412   8.539   0.792   2.647  0.0331  1.9183  2.4598
  561MOL0     H77413   8.559   0.810   2.465 -0.6240  2.6789 -1.2182
  561MOL0     H77414   8.372   1.157   2.633 -0.7374 -1.3468  0.6073
  561MOL0     H77415   9.002   1.197   2.865 -0.1530  2.1653 -2.5009
  561MOL0     H77416   9.301   1.307   3.040  1.3585 -1.4049 -2.0177
  561MOL0     H77417   9.147   1.376   2.973  0.7527  1.0782  2.5947
  561MOL0     H77418   9.132   1.249   3.083  0.1145  1.2222  1.7980
  562MOL0     O77419   7.328   9.588   5.058 -0.0108 -0.3585  0.6433
  562MOL0     C77420   7.262   9.676   5.107  0.1538 -0.0860 -0.8575
  562MOL0     O77421   7.306   9.742   5.219 -0.4585 -0.7376  0.2637
  562MOL0     C77422   7.439   9.777   5.223 -0.3178 -0.0942 -0.0227
  562MOL0     C77423   7.491   9.810   5.347  0.7444 -0.0048 -0.0803
  562MOL0     C77424   7.610   9.870   5.367  0.3218  0.2116 -0.2200
  562MOL0     C77425   7.697   9.885   5.250 -0.7829 -0.1657  0.0796
  562MOL0     O77426   7.825   9.943   5.271  0.1378 -0.1825 -0.4498
  562MOL0     C77427   7.873  10.012   5.150  0.0272  0.3120  0.0981
  562MOL0     C77428   7.976  10.122   5.170 -0.6899 -0.3236  0.3380
  562MOL0     C77429   8.104  10.071   5.240  0.0574 -0.4624  0.3834
  562MOL0     C77430   8.197  10.180   5.286  0.4269 -0.9611  0.1887
  562MOL0     C77431   8.340  10.144   5.330  0.4729  0.6088 -0.3956
  562MOL0     C77432   8.343  10.076   5.467  0.2326  0.1436 -0.5706
  562MOL0     C77433   8.456   9.967   5.477 -0.0375 -0.4832  0.0465
  562MOL0     C77434   8.409   9.836   5.432  0.9706 -0.1131 -0.6627
  562MOL0     N77435   8.522   9.750   5.402  0.3208  0.6659  0.5031
  562MOL0     C77436   8.637   9.783   5.329  0.2377 -0.3063 -0.3801
  562MOL0     C77437   8.699   9.663   5.306  0.2292 -0.0494 -0.3192
  562MOL0     C77438   8.834   9.629   5.256 -0.7852  0.7140 -0.5664
  562MOL0     C77439   8.942   9.606   5.363  0.3396  0.3033 -0.2212
  562MOL0     C77440   9.071   9.587   5.280 -0.1703 -0.7905 -0.3069
  562MOL0     C77441   9.171   9.501   5.353  0.1195 -0.0402 -0.0171
  562MOL0     O77442   9.219   9.563   5.478  1.4337 -0.9118 -0.3456
  562MOL0     C77443   9.331   9.521   5.546  0.1712  0.1611 -0.0301
  562MOL0     C77444   9.365   9.592   5.656  0.6480  1.2278 -0.0321
  562MOL0     C77445   9.477   9.560   5.731 -0.1635  0.5652  0.3138
  562MOL0     C77446   9.491   9.641   5.858 -0.0634  0.1285 -0.5786
  562MOL0     C77447   9.568   9.458   5.690  1.0125  0.9608 -0.4184
  562MOL0     C77448   9.697   9.424   5.749  0.8439  0.1186 -0.2794
  562MOL0     O77449   9.754   9.308   5.718  0.0697  0.9450 -0.2789
  562MOL0     C77450   9.877   9.290   5.766 -0.6790 -0.6038  0.5217
  562MOL0     C77451   9.979   9.298   5.674  0.6770 -1.4526  0.2828
  562MOL0     C77452  10.105   9.253   5.714 -0.1051 -0.5551  0.0425
  562MOL0     C77453  10.138   9.202   5.837  0.8669  0.4782 -0.5539
  562MOL0     O77454  10.259   9.152   5.864 -0.2819  0.1629  0.2683
  562MOL0     C77455  10.368   9.210   5.788 -0.6160 -0.6065  0.0873
  562MOL0     C77456  10.486   9.182   5.876  0.9731 -0.0075  0.1602
  562MOL0     C77457  10.503   9.029   5.893 -0.1719 -0.8530  0.4472
  562MOL0     C77458  10.545   8.960   5.761 -0.3932 -0.5808  0.1925
  562MOL0     C77459  10.605   8.818   5.796  0.5206 -0.9803  0.8452
  562MOL0     C77460  10.628   8.716   5.682  0.3574 -0.0961 -0.8084
  562MOL0     C77461  10.500   8.706   5.592  0.4545  0.3989 -0.2410
  562MOL0     C77462  10.510   8.594   5.490 -0.7797 -0.0300 -0.3682
  562MOL0    Cl77463  10.430   8.458   5.553 -0.3577 -0.0563 -0.4610
  562MOL0     C77464  10.028   9.197   5.934  0.1624  0.6000 -0.0201
  562MOL0     C77465   9.899   9.234   5.892 -0.2342 -0.3278  0.2380
  562MOL0     O77466   9.735   9.499   5.834  0.1554 -0.4000 -0.5554
  562MOL0     C77467   9.525   9.383   5.575  0.6108 -0.1223 -1.0734
  562MOL0     C77468   9.409   9.418   5.507 -0.0989 -0.4028  0.1074
  562MOL0     N77469   8.619   9.568   5.373  0.1774  0.3851 -0.4321
  562MOL0     N77470   8.520   9.618   5.438 -0.0739 -0.0609 -0.9922
  562MOL0     C77471   7.646   9.845   5.125 -0.5070  0.3328  0.7004
  562MOL0     C77472   7.516   9.801   5.112  0.3528  0.7249  1.0483
  562MOL0     C77473   7.131   9.705   5.060  0.0540 -0.1677 -0.3566
  562MOL0     C77474   7.072   9.615   4.972 -0.2179 -0.0399 -0.0649
  562MOL0     C77475   6.943   9.624   4.925 -0.3586  0.4003 -1.4614
  562MOL0     C77476   6.863   9.723   4.958 -1.1027 -0.2342 -0.0117
  562MOL0     O77477   6.727   9.736   4.928 -0.4791  0.3299 -0.2705
  562MOL0     C77478   6.664   9.616   4.913  0.3895  0.0028  0.2217
  562MOL0     C77479   6.510   9.639   4.940  0.0873  0.0586 -0.7870
  562MOL0     C77480   6.475   9.640   5.092  0.0601 -0.2719  0.1634
  562MOL0     C77481   6.322   9.670   5.110 -0.1830 -1.0130  0.2790
  562MOL0     C77482   6.253   9.550   5.067  0.2251  0.3568 -0.0186
  562MOL0     C77483   6.224   9.442   5.034  0.2718  0.3360 -0.0053
  562MOL0     C77484   6.915   9.824   5.038  0.4755  0.0233 -0.5200
  562MOL0     C77485   7.045   9.813   5.092  0.2732  0.7344  0.3950
  562MOL0     C77486   7.084   9.928   5.187 -0.3507 -0.5125  0.6071
  562MOL0     H77487   7.433   9.792   5.437  0.8779 -1.8207 -0.3243
  562MOL0     H77488   7.657   9.896   5.461  1.7427  2.2236 -1.3985
  562MOL0     H77489   7.788  10.061   5.102  1.5437  2.2250 -0.7784
  562MOL0     H77490   7.918   9.936   5.084 -3.9057  0.6876 -3.4634
  562MOL0     H77491   8.005  10.163   5.073 -1.0207 -3.2092 -1.1050
  562MOL0     H77492   7.937  10.190   5.246  1.1973  1.4128 -0.1464
  562MOL0     H77493   8.072  10.011   5.325  1.8392 -2.2684 -0.1419
  562MOL0     H77494   8.155  10.007   5.167 -0.1745  0.4614 -0.6233
  562MOL0     H77495   8.217  10.250   5.204  0.3999 -0.6223  0.4732
  562MOL0     H77496   8.150  10.235   5.367  0.1605 -1.5917  0.4697
  562MOL0     H77497   8.397  10.237   5.339 -0.2293  1.1027 -1.0484
  562MOL0     H77498   8.398  10.081   5.262  0.0110  1.3201 -1.4738
  562MOL0     H77499   8.369  10.149   5.543 -2.3034 -0.6805  1.2416
  562MOL0     H77500   8.248  10.036   5.505  0.4475  1.9237  2.1525
  562MOL0     H77501   8.500   9.976   5.577  2.3410  0.5809 -1.0229
  562MOL0     H77502   8.537   9.996   5.410 -1.6023 -1.2242 -2.3029
  562MOL0     H77503   8.343   9.798   5.511 -0.6200 -0.2320 -1.9954
  562MOL0     H77504   8.343   9.848   5.346 -0.0193  1.6218  0.2800
  562MOL0     H77505   8.669   9.884   5.309 -0.4853 -0.2844 -1.5102
  562MOL0     H77506   8.873   9.707   5.191 -0.7986 -0.5158 -2.1165
  562MOL0     H77507   8.820   9.540   5.194  0.9266  0.9836 -1.3805
  562MOL0     H77508   8.952   9.702   5.416  3.1444  0.2265 -0.4469
  562MOL0     H77509   8.902   9.523   5.422 -1.7515  1.4512  0.1066
  562MOL0     H77510   9.045   9.555   5.179 -2.3094 -0.3820  0.0713
  562MOL0     H77511   9.121   9.684   5.268  0.0619 -0.9781 -0.8421
  562MOL0     H77512   9.118   9.408   5.376 -1.4203  1.4645  3.2295
  562MOL0     H77513   9.255   9.476   5.288 -1.9576 -1.8897 -2.1662
  562MOL0     H77514   9.306   9.679   5.682 -2.3267 -0.3549 -0.9945
  562MOL0     H77515   9.546   9.732   5.834 -4.0315  2.8262 -0.2339
  562MOL0     H77516   9.535   9.592   5.946 -4.4266  0.2499  1.9378
  562MOL0     H77517   9.394   9.677   5.893 -0.3883 -1.6708  0.5225
  562MOL0     H77518   9.958   9.324   5.570  2.5412  1.9840  0.6305
  562MOL0     H77519  10.178   9.244   5.634  0.3680 -0.7544  0.4920
  562MOL0     H77520  10.380   9.168   5.688 -0.8168 -0.0437 -0.1710
  562MOL0     H77521  10.361   9.318   5.779 -1.1983 -0.7322 -1.0758
  562MOL0     H77522  10.573   9.217   5.819  0.0700 -0.2516 -1.4414
  562MOL0     H77523  10.474   9.233   5.972 -5.1798 -1.8133  0.7631
  562MOL0     H77524  10.408   8.982   5.924 -2.6536  3.0999 -0.3845
  562MOL0     H77525  10.581   9.021   5.969  0.2081 -0.8777  0.0492
  562MOL0     H77526  10.620   9.019   5.706 -0.8489 -2.6807 -2.9421
  562MOL0     H77527  10.457   8.957   5.696  0.5555  1.2766 -1.2998
  562MOL0     H77528  10.704   8.839   5.838  0.0390  0.3344  1.3736
  562MOL0     H77529  10.528   8.781   5.865 -0.8759 -1.5841 -0.9341
  562MOL0     H77530  10.647   8.625   5.740 -1.6817  0.6663  1.1998
  562MOL0     H77531  10.706   8.744   5.611  0.0509  0.1032 -1.0673
  562MOL0     H77532  10.475   8.795   5.534  0.4984  0.1098 -0.7073
  562MOL0     H77533  10.412   8.688   5.653 -0.2716  0.1032 -1.3444
  562MOL0     H77534  10.612   8.578   5.457 -1.4524 -0.5320 -2.3205
  562MOL0     H77535  10.445   8.616   5.405 -2.1719 -0.3707  0.5687
  562MOL0     H77536  10.055   9.160   6.032 -0.7086  3.0320  1.2403
  562MOL0     H77537   9.815   9.218   5.958 -0.4410 -0.1716  0.0132
  562MOL0     H77538   9.576   9.309   5.515 -0.1417 -0.9892 -0.6659
  562MOL0     H77539   9.382   9.366   5.415  0.2548 -1.7185  0.7248
  562MOL0     H77540   7.706   9.844   5.035 -1.8936 -1.2278 -0.2505
  562MOL0     H77541   7.474   9.778   5.014  0.9979 -2.8123  1.4611
  562MOL0     H77542   7.133   9.537   4.929  0.5307  0.9399 -0.8058
  562MOL0     H77543   6.915   9.545   4.856  1.2654 -1.4290 -0.1355
  562MOL0     H77544   6.686   9.577   4.813 -0.4862 -0.1257  0.0738
  562MOL0     H77545   6.690   9.542   4.989 -2.5987 -1.0257  0.3859
  562MOL0     H77546   6.448   9.563   4.891 -0.1217 -1.4475  1.6426
  562MOL0     H77547   6.481   9.739   4.906  0.3817  0.8584  1.1659
  562MOL0     H77548   6.504   9.550   5.147 -1.5395 -1.5983 -1.0812
  562MOL0     H77549   6.535   9.722   5.133  2.8634 -2.9272  1.8706
  562MOL0     H77550   6.298   9.761   5.052  0.2327 -1.1038 -0.0395
  562MOL0     H77551   6.298   9.686   5.215 -2.9162 -1.0395 -0.2540
  562MOL0     H77552   6.184   9.343   5.024 -0.7427  0.8884 -1.6692
  562MOL0     H77553   6.848   9.900   5.076 -1.3609 -1.6429 -0.2754
  562MOL0     H77554   7.077   9.893   5.291  3.4603  0.6225  1.3990
  562MOL0     H77555   7.189   9.956   5.177 -0.3785  0.2362  2.0802
  562MOL0     H77556   7.019  10.014   5.169  0.4705  0.0316  0.2189
  563MOL0     O77557   9.934   9.822   3.150 -0.0918 -0.0030  0.7783
  563MOL0     C77558   9.858   9.798   3.240  0.5758 -0.0423 -0.1391
  563MOL0     O77559   9.889   9.718   3.338  0.1449  0.3938 -0.1705
  563MOL0     C77560  10.010   9.660   3.363  0.4483 -0.4644  0.1478
  563MOL0     C77561  10.134   9.703   3.317 -0.7693 -0.0746 -0.0656
  563MOL0     C77562  10.255   9.628   3.350  0.0637  0.1676  0.3438
  563MOL0     C77563  10.240   9.509   3.423 -1.1560 -0.1685  0.2006
  563MOL0     O77564  10.345   9.436   3.466  0.2960 -0.7586 -0.2623
  563MOL0     C77565  10.458   9.423   3.384 -0.5683  0.3769 -0.1322
  563MOL0     C77566  10.571   9.352   3.460 -0.3189 -0.8585 -0.3859
  563MOL0     C77567  10.712   9.396   3.410 -0.4573  0.3823 -0.3760
  563MOL0     C77568  10.741   9.377   3.257  0.3252 -0.4564  0.2362
  563MOL0     C77569  10.875   9.442   3.224  0.4629  0.4338  0.2683
  563MOL0     C77570  10.906   9.425   3.080 -0.2445  0.1527  0.0982
  563MOL0     C77571  11.044   9.493   3.043 -0.1443 -0.1513 -0.1896
  563MOL0     C77572  11.088   9.470   2.898  0.5176 -0.3854 -0.4306
  563MOL0     N77573  10.989   9.520   2.803  0.3061  0.1136 -0.5431
  563MOL0     C77574  10.873   9.456   2.770  0.1335  0.1303 -0.4615
  563MOL0     C77575  10.808   9.529   2.671 -0.8062 -0.9669  0.5716
  563MOL0     C77576  10.686   9.502   2.592  0.2074 -0.3983 -0.8610
  563MOL0     C77577  10.706   9.380   2.499  0.5600 -0.0845 -0.4197
  563MOL0     C77578  10.579   9.343   2.431  0.3088  1.0407 -0.7199
  563MOL0     C77579  10.607   9.231   2.321  0.5606 -0.5495 -0.2103
  563MOL0     O77580  10.682   9.267   2.202  0.1851 -0.0693  0.8031
  563MOL0     C77581  10.794   9.200   2.160  0.3199  0.3248 -0.0483
  563MOL0     C77582  10.898   9.157   2.242 -0.0822 -0.4653  0.2833
  563MOL0     C77583  11.018   9.101   2.184  0.4490  0.0139  0.2634
  563MOL0     C77584  11.125   9.059   2.286 -0.0395  0.6124  0.6919
  563MOL0     C77585  11.032   9.082   2.044 -0.4091 -0.2938  0.2161
  563MOL0     C77586  11.152   9.020   1.980 -0.2105 -0.8467  0.1208
  563MOL0     O77587  11.199   9.081   1.871  0.8649 -0.0740 -0.5854
  563MOL0     C77588  11.313   9.053   1.815 -0.4100 -0.4446 -0.9167
  563MOL0     C77589  11.329   8.978   1.705  0.2999 -0.4551  0.1205
  563MOL0     C77590  11.445   8.955   1.634  0.4596 -1.2655  0.2394
  563MOL0     C77591  11.560   9.021   1.684 -0.5302  0.2415 -1.0682
  563MOL0     O77592  11.679   8.993   1.620 -0.2282 -0.1544 -0.3706
  563MOL0     C77593  11.785   9.081   1.642  0.1888 -0.5426 -0.0324
  563MOL0     C77594  11.895   9.047   1.551  0.1439 -0.0676 -0.5009
  563MOL0     C77595  11.989   8.939   1.614  0.1502  0.7035  1.1160
  563MOL0     C77596  11.953   8.794   1.615 -0.5228 -0.6139 -0.4579
  563MOL0     C77597  12.038   8.722   1.722  0.7252 -0.5005  0.0742
  563MOL0     C77598  11.992   8.578   1.746 -0.9115 -0.3181 -0.4004
  563MOL0     C77599  12.080   8.504   1.838  0.4458  0.1852  0.5136
  563MOL0     C77600  12.013   8.390   1.899 -0.2553  0.2201 -0.5305
  563MOL0    Cl77601  12.141   8.270   1.958 -0.0496 -0.0164 -0.5511
  563MOL0     C77602  11.548   9.100   1.800 -0.3654 -0.3738 -0.2242
  563MOL0     C77603  11.423   9.116   1.864 -0.7787 -0.9756  0.0200
  563MOL0     O77604  11.209   8.928   2.040 -0.3766  0.2750  0.7170
  563MOL0     C77605  10.927   9.130   1.961  0.6775  0.2528 -0.2401
  563MOL0     C77606  10.813   9.181   2.024  0.1641 -0.2241  0.6152
  563MOL0     N77607  10.878   9.637   2.644 -0.3033  0.2566 -0.0710
  563MOL0     N77608  10.992   9.630   2.723  0.3872 -0.2909 -0.9314
  563MOL0     C77609  10.116   9.470   3.470  0.5037  0.3221  0.4855
  563MOL0     C77610   9.996   9.541   3.442  0.1901  1.0114 -0.0262
  563MOL0     C77611   9.729   9.871   3.241 -0.0805  0.1715 -0.1107
  563MOL0     C77612   9.631   9.841   3.337  0.6192 -0.2160  0.2892
  563MOL0     C77613   9.508   9.916   3.351  0.0680 -0.2774  0.3098
  563MOL0     C77614   9.474  10.019   3.260  0.5165  0.4933  0.1323
  563MOL0     O77615   9.352  10.081   3.273  0.1500  0.1476  0.4451
  563MOL0     C77616   9.317  10.180   3.176 -1.1556 -0.3173 -0.0750
  563MOL0     C77617   9.182  10.240   3.221 -0.3717  0.3125  0.4721
  563MOL0     C77618   9.138  10.356   3.122 -0.7178 -0.5030 -0.2149
  563MOL0     C77619   8.993  10.389   3.157 -0.1040  0.3231 -0.2862
  563MOL0     C77620   8.983  10.462   3.283  0.2224 -0.1920  0.2908
  563MOL0     C77621   8.978  10.520   3.386  0.0152 -0.2044  0.0915
  563MOL0     C77622   9.569  10.049   3.159 -0.3356 -0.3816 -0.1221
  563MOL0     C77623   9.687   9.977   3.147  0.1481  0.7716  0.2859
  563MOL0     C77624   9.771  10.019   3.032  0.1966 -0.3431  0.3967
  563MOL0     H77625  10.153   9.804   3.281  1.8989  0.4690  2.5324
  563MOL0     H77626  10.348   9.673   3.318  1.6278 -0.3994  3.6528
  563MOL0     H77627  10.499   9.511   3.334  2.4033 -1.4266 -1.1067
  563MOL0     H77628  10.437   9.363   3.295 -0.4628 -1.1406  0.8206
  563MOL0     H77629  10.553   9.378   3.565 -3.4440 -0.2157 -0.9724
  563MOL0     H77630  10.560   9.243   3.453 -3.6116 -0.7783  1.2834
  563MOL0     H77631  10.711   9.502   3.433  1.8384  0.6591 -1.1825
  563MOL0     H77632  10.795   9.355   3.468 -0.4167  1.7246  0.5582
  563MOL0     H77633  10.746   9.272   3.225 -1.4518 -0.3305 -0.5439
  563MOL0     H77634  10.659   9.427   3.206 -0.1054 -0.7544  0.6314
  563MOL0     H77635  10.955   9.388   3.276 -2.4861 -4.6062  0.2118
  563MOL0     H77636  10.870   9.547   3.254  0.0328  0.9024 -1.3662
  563MOL0     H77637  10.895   9.321   3.049 -2.6424  0.6041 -0.7434
  563MOL0     H77638  10.819   9.480   3.043 -0.7148  0.5904  1.7801
  563MOL0     H77639  11.118   9.464   3.118  0.3639  1.4673 -0.0189
  563MOL0     H77640  11.031   9.601   3.056  1.3690  0.2571 -1.6550
  563MOL0     H77641  11.171   9.537   2.874  0.0057 -0.5206 -2.8308
  563MOL0     H77642  11.109   9.367   2.866 -0.4796  0.1757 -3.1652
  563MOL0     H77643  10.840   9.360   2.806 -1.3062  0.6007 -0.4651
  563MOL0     H77644  10.661   9.589   2.530  0.7578  1.3425  1.2399
  563MOL0     H77645  10.602   9.473   2.657  0.7664 -1.3198 -0.5289
  563MOL0     H77646  10.783   9.415   2.429  1.3084  1.1876  0.9865
  563MOL0     H77647  10.753   9.290   2.539  0.1185 -0.3466 -0.4834
  563MOL0     H77648  10.494   9.309   2.490  1.7119 -1.9204 -0.1689
  563MOL0     H77649  10.551   9.433   2.375  0.3436  2.4130  1.3889
  563MOL0     H77650  10.655   9.150   2.376  1.6559  1.7489  2.4638
  563MOL0     H77651  10.513   9.197   2.278  0.8497 -0.6098 -0.8086
  563MOL0     H77652  10.876   9.175   2.346 -1.8311  2.8991 -0.5215
  563MOL0     H77653  11.130   8.951   2.306  0.1947  0.8145  1.7624
  563MOL0     H77654  11.098   9.102   2.382  0.8337  1.4893  0.5644
  563MOL0     H77655  11.227   9.081   2.254 -0.2455 -1.6634 -1.9361
  563MOL0     H77656  11.232   8.943   1.670 -0.5837  2.8022 -1.1102
  563MOL0     H77657  11.450   8.891   1.547 -1.5844 -1.3591  0.1445
  563MOL0     H77658  11.753   9.183   1.618  1.2098 -0.4373 -1.0195
  563MOL0     H77659  11.811   9.081   1.748  1.7673 -0.4683 -0.3992
  563MOL0     H77660  11.855   9.014   1.455  1.1767 -1.7859 -0.3874
  563MOL0     H77661  11.954   9.137   1.533 -0.1898  0.5504  1.2709
  563MOL0     H77662  12.023   8.987   1.706 -0.6413 -0.0110  1.7974
  563MOL0     H77663  12.074   8.941   1.546 -1.6612 -1.7820 -1.4225
  563MOL0     H77664  11.961   8.753   1.514 -0.8169 -2.0662  0.0925
  563MOL0     H77665  11.851   8.785   1.653 -0.0301 -0.6055  0.9397
  563MOL0     H77666  12.144   8.727   1.694  0.0014 -0.3527 -3.0763
  563MOL0     H77667  12.014   8.777   1.813 -0.5435  0.5628 -0.8739
  563MOL0     H77668  11.989   8.516   1.656 -0.0333 -1.8823  0.6163
  563MOL0     H77669  11.897   8.594   1.798 -0.6608 -0.9510  0.2669
  563MOL0     H77670  12.131   8.563   1.914  2.3837 -3.4079  2.2378
  563MOL0     H77671  12.165   8.464   1.784  2.5912  0.8443  3.1781
  563MOL0     H77672  11.948   8.346   1.822 -0.2348  3.4647 -2.6023
  563MOL0     H77673  11.943   8.410   1.981  1.2913  1.0308  0.6581
  563MOL0     H77674  11.632   9.156   1.840 -1.0400  1.4466 -1.2020
  563MOL0     H77675  11.411   9.177   1.953  1.9102 -0.2769 -0.0096
  563MOL0     H77676  10.941   9.117   1.854 -1.2621 -2.7448 -0.2417
  563MOL0     H77677  10.732   9.217   1.961 -1.6016 -2.1219  1.6651
  563MOL0     H77678  10.109   9.386   3.538 -0.7041  1.7515  2.2460
  563MOL0     H77679   9.907   9.511   3.496  0.8734  0.0121  0.5910
  563MOL0     H77680   9.646   9.765   3.414 -0.4165 -0.2153  0.5068
  563MOL0     H77681   9.441   9.890   3.431 -0.1362  0.1905  0.2956
  563MOL0     H77682   9.394  10.257   3.179  0.2863 -1.6799 -0.7597
  563MOL0     H77683   9.307  10.133   3.078  0.6638 -1.2025  0.1188
  563MOL0     H77684   9.189  10.272   3.325 -1.3942  0.6454  0.4446
  563MOL0     H77685   9.104  10.164   3.235  0.6917 -0.7649  0.8108
  563MOL0     H77686   9.187  10.451   3.147 -2.5035  0.7601 -1.3515
  563MOL0     H77687   9.155  10.342   3.015  3.4765 -0.6993  0.2825
  563MOL0     H77688   8.936  10.297   3.172 -1.6324  1.4907  1.5122
  563MOL0     H77689   8.952  10.440   3.069 -4.0772 -0.2545  1.0226
  563MOL0     H77690   8.961  10.583   3.471  2.1945 -0.0563  0.4817
  563MOL0     H77691   9.535  10.119   3.083 -0.6869 -0.2247  0.1752
  563MOL0     H77692   9.798   9.929   2.976  1.9724  1.3051 -1.5665
  563MOL0     H77693   9.706  10.083   2.973 -1.6887 -2.2036  0.3340
  563MOL0     H77694   9.862  10.066   3.071  0.4770  0.7630 -1.4690
  564MOL0     O77695   9.104   3.348   2.585 -0.6179  1.0285  0.0649
  564MOL0     C77696   9.110   3.369   2.461 -0.4443  0.2248 -1.1045
  564MOL0     O77697   9.224   3.390   2.392  0.4238  0.6069 -0.2993
  564MOL0     C77698   9.338   3.408   2.472  0.0330  0.1188 -0.4167
  564MOL0     C77699   9.427   3.296   2.496 -0.0541  0.5353 -0.4118
  564MOL0     C77700   9.538   3.308   2.581  0.0576  0.3293 -0.0470
  564MOL0     C77701   9.567   3.425   2.652  0.2561 -0.1375 -0.5866
  564MOL0     O77702   9.665   3.444   2.745  0.1780 -0.1480 -0.2612
  564MOL0     C77703   9.616   3.473   2.883 -0.3775 -0.3927  0.2050
  564MOL0     C77704   9.576   3.345   2.961 -0.1199  0.8153  0.3713
  564MOL0     C77705   9.658   3.220   2.946 -0.4156  0.7331 -1.2455
  564MOL0     C77706   9.807   3.239   2.990 -0.1720 -0.6470 -0.9320
  564MOL0     C77707   9.909   3.127   2.963  0.5452  0.3317 -0.2201
  564MOL0     C77708   9.862   3.040   2.851 -0.0974  0.4494  0.0461
  564MOL0     C77709   9.949   2.922   2.816  0.4956 -1.6669  0.5348
  564MOL0     C77710   9.904   2.855   2.686  0.0970  0.1993 -0.5875
  564MOL0     N77711  10.009   2.757   2.647  0.2201 -0.1332  0.7039
  564MOL0     C77712  10.045   2.650   2.725 -0.0893  0.7722  0.4118
  564MOL0     C77713  10.150   2.591   2.657  0.1577  0.2876 -0.5990
  564MOL0     C77714  10.224   2.465   2.688  0.1503 -0.3512 -0.0458
  564MOL0     C77715  10.316   2.517   2.800 -1.0752  0.3862  0.8444
  564MOL0     C77716  10.426   2.415   2.832 -0.7678  0.5767  0.4011
  564MOL0     C77717  10.572   2.472   2.839  0.1272 -0.5803 -0.5257
  564MOL0     O77718  10.591   2.564   2.950  0.9705 -0.2631 -0.1143
  564MOL0     C77719  10.711   2.576   2.999 -0.2958 -0.0765  0.1152
  564MOL0     C77720  10.723   2.667   3.106 -0.0059  0.3713 -0.0289
  564MOL0     C77721  10.839   2.701   3.157 -0.6342  0.0679 -0.7360
  564MOL0     C77722  10.823   2.802   3.270  0.4378  0.5547 -0.1393
  564MOL0     C77723  10.960   2.641   3.110 -0.6759  0.1856  0.2865
  564MOL0     C77724  11.095   2.669   3.161 -0.0629  0.4126 -0.0925
  564MOL0     O77725  11.203   2.645   3.087  0.2727  0.4946 -0.3070
  564MOL0     C77726  11.317   2.608   3.145 -0.2649 -0.2716  1.1942
  564MOL0     C77727  11.323   2.548   3.267 -0.2413 -0.7433 -0.1307
  564MOL0     C77728  11.440   2.505   3.331 -0.6761 -0.4953 -0.5418
  564MOL0     C77729  11.560   2.527   3.262  0.2361 -0.4718 -0.4857
  564MOL0     O77730  11.679   2.483   3.324  0.3927 -0.3940  0.0288
  564MOL0     C77731  11.808   2.499   3.265  0.3955  1.0586 -0.5500
  564MOL0     C77732  11.921   2.462   3.365 -0.2198  0.1706  0.6528
  564MOL0     C77733  11.898   2.325   3.438  1.1904 -1.4163  0.7132
  564MOL0     C77734  12.015   2.282   3.522  0.5668  0.5150 -0.0241
  564MOL0     C77735  11.989   2.139   3.558 -0.3718  1.0786  0.0251
  564MOL0     C77736  12.115   2.075   3.613  0.5913  0.3939  0.2939
  564MOL0     C77737  12.149   2.121   3.767 -0.3722 -0.3414  0.1380
  564MOL0     C77738  12.266   2.037   3.810 -0.0091  0.6146  0.6050
  564MOL0    Cl77739  12.326   2.089   3.963 -0.1163 -0.0078 -0.4646
  564MOL0     C77740  11.554   2.596   3.136 -0.2191 -0.5249  0.4214
  564MOL0     C77741  11.436   2.639   3.080  0.6055 -0.1417 -0.6504
  564MOL0     O77742  11.102   2.699   3.276  0.1924 -0.2200  0.0757
  564MOL0     C77743  10.953   2.552   3.001  0.2506  0.0541 -0.1123
  564MOL0     C77744  10.828   2.525   2.944  0.7342  0.9795  0.4565
  564MOL0     N77745  10.177   2.667   2.542 -0.3902 -0.0957 -0.1928
  564MOL0     N77746  10.091   2.764   2.535  0.1667 -0.3499  0.4386
  564MOL0     C77747   9.470   3.524   2.628 -0.2975 -0.0891  0.1289
  564MOL0     C77748   9.359   3.520   2.546  0.1445 -0.2800 -0.1284
  564MOL0     C77749   8.987   3.391   2.386  0.0681  0.3664  0.9745
  564MOL0     C77750   8.994   3.496   2.286 -0.5800  0.4047  0.1925
  564MOL0     C77751   8.881   3.531   2.219  1.0537  0.6140 -0.5086
  564MOL0     C77752   8.765   3.457   2.232  0.0346 -0.1268  0.9351
  564MOL0     O77753   8.661   3.499   2.154 -0.0155 -0.3948  0.0616
  564MOL0     C77754   8.540   3.430   2.176  0.0114 -0.1536 -0.7444
  564MOL0     C77755   8.459   3.510   2.074 -1.0249 -0.2946 -0.3064
  564MOL0     C77756   8.326   3.446   2.059 -0.9769  0.1087 -0.0004
  564MOL0     C77757   8.324   3.325   1.956 -0.8905 -0.2570 -0.3993
  564MOL0     C77758   8.267   3.349   1.828  0.3104 -0.4744  1.2085
  564MOL0     C77759   8.215   3.365   1.722 -0.8757 -0.3411  0.1193
  564MOL0     C77760   8.765   3.342   2.315 -0.2218  0.7867  0.5243
  564MOL0     C77761   8.874   3.310   2.395  0.6385 -0.0147  0.4540
  564MOL0     C77762   8.867   3.194   2.481  0.0985  0.2315 -0.3616
  564MOL0     H77763   9.411   3.198   2.453 -0.5304  0.2613  0.3576
  564MOL0     H77764   9.607   3.226   2.600 -1.6863 -1.2865 -0.3591
  564MOL0     H77765   9.542   3.552   2.892  0.8090  0.9156 -1.0720
  564MOL0     H77766   9.703   3.513   2.937  0.1607 -2.2193  0.7952
  564MOL0     H77767   9.564   3.361   3.068  0.1077 -1.5669  0.8146
  564MOL0     H77768   9.476   3.310   2.931  0.8398 -0.2130 -1.9329
  564MOL0     H77769   9.612   3.146   3.012 -2.6707  1.2010 -2.2066
  564MOL0     H77770   9.642   3.189   2.842 -0.5305 -1.7332 -0.5743
  564MOL0     H77771   9.844   3.336   2.957 -2.2799 -0.7074 -3.8109
  564MOL0     H77772   9.800   3.261   3.097 -1.1091  1.0584 -1.3124
  564MOL0     H77773   9.916   3.064   3.052  2.3679  0.6391 -0.1010
  564MOL0     H77774  10.009   3.173   2.960 -0.1464  1.9277  0.2860
  564MOL0     H77775   9.768   2.990   2.875  0.9922 -1.5314  0.4051
  564MOL0     H77776   9.850   3.112   2.769  1.1947  2.7051  1.7191
  564MOL0     H77777   9.947   2.850   2.898 -0.9082 -0.4677  1.6058
  564MOL0     H77778  10.048   2.969   2.809 -0.2464  0.3013  2.2190
  564MOL0     H77779   9.820   2.791   2.711 -3.4346  4.6055  0.1435
  564MOL0     H77780   9.888   2.923   2.602  1.9095  3.1116  1.1937
  564MOL0     H77781  10.006   2.608   2.818 -4.2542 -0.1628 -1.5170
  564MOL0     H77782  10.290   2.442   2.603 -0.1950 -1.8808  0.0749
  564MOL0     H77783  10.156   2.383   2.714  0.7838 -1.2563 -1.1404
  564MOL0     H77784  10.356   2.617   2.778  1.2214 -0.2809  1.7659
  564MOL0     H77785  10.258   2.534   2.891 -1.7696 -1.9619  0.8893
  564MOL0     H77786  10.413   2.372   2.931  3.5967  0.5694  1.1431
  564MOL0     H77787  10.431   2.338   2.754 -0.6165  0.4942  0.4936
  564MOL0     H77788  10.640   2.386   2.847  0.9592  0.1111 -0.0016
  564MOL0     H77789  10.603   2.519   2.746 -1.9344  1.2137 -0.3595
  564MOL0     H77790  10.627   2.702   3.143  0.3397  2.1324 -0.6731
  564MOL0     H77791  10.903   2.874   3.252  0.1903  0.9631  0.3744
  564MOL0     H77792  10.827   2.749   3.365 -1.0888 -1.9280 -1.3525
  564MOL0     H77793  10.732   2.863   3.262  0.8758  0.9988 -2.8494
  564MOL0     H77794  11.234   2.525   3.325 -1.1709  3.3203  0.3755
  564MOL0     H77795  11.448   2.452   3.426 -0.9663  1.4054  0.6013
  564MOL0     H77796  11.812   2.427   3.182 -2.2123  2.3810 -1.9238
  564MOL0     H77797  11.836   2.596   3.223  3.8557  0.7788  0.7384
  564MOL0     H77798  12.017   2.454   3.314 -0.2227 -2.9964  0.9049
  564MOL0     H77799  11.910   2.537   3.444 -1.0970  3.2833 -2.1852
  564MOL0     H77800  11.885   2.257   3.353  2.1374 -0.9455  0.1713
  564MOL0     H77801  11.807   2.324   3.499  0.0298  0.0757 -0.8748
  564MOL0     H77802  12.026   2.347   3.609 -2.0774 -1.4850  1.9949
  564MOL0     H77803  12.105   2.296   3.461 -0.9379  1.2110 -2.1915
  564MOL0     H77804  11.910   2.136   3.633 -0.4977  0.0974 -0.1269
  564MOL0     H77805  11.951   2.081   3.473  0.6890 -0.9067  0.8327
  564MOL0     H77806  12.193   2.098   3.540 -2.0261  4.5274 -1.5778
  564MOL0     H77807  12.106   1.967   3.628  2.0200  0.0253 -1.2578
  564MOL0     H77808  12.069   2.103   3.838 -0.0004 -0.1654  0.6071
  564MOL0     H77809  12.165   2.229   3.780 -1.1568 -0.0547 -1.0708
  564MOL0     H77810  12.342   2.036   3.732 -0.6907 -1.1341 -0.0945
  564MOL0     H77811  12.227   1.935   3.815  0.5740  0.3532 -0.0647
  564MOL0     H77812  11.643   2.588   3.074 -1.9725 -1.7112 -2.1005
  564MOL0     H77813  11.430   2.697   2.989  0.6342  3.0853  1.2657
  564MOL0     H77814  11.039   2.508   2.952  1.0518  0.3453  0.9977
  564MOL0     H77815  10.833   2.464   2.854  1.0050  3.0297 -0.9925
  564MOL0     H77816   9.481   3.624   2.670 -1.3302  0.9060 -1.8407
  564MOL0     H77817   9.290   3.604   2.537  0.7899  0.3621  0.7412
  564MOL0     H77818   9.081   3.559   2.269  1.9994 -1.6399  4.1794
  564MOL0     H77819   8.872   3.612   2.148  1.4797 -0.2546 -1.6002
  564MOL0     H77820   8.538   3.321   2.165  0.2291 -0.2293 -0.0690
  564MOL0     H77821   8.507   3.453   2.277 -1.2691 -1.8918 -0.7118
  564MOL0     H77822   8.505   3.525   1.976  0.2685 -1.1308  0.1516
  564MOL0     H77823   8.438   3.610   2.113 -1.7343 -0.5579  0.0008
  564MOL0     H77824   8.300   3.403   2.156 -2.8783  2.7851  0.7821
  564MOL0     H77825   8.246   3.516   2.035 -0.4977  0.8218  0.4413
  564MOL0     H77826   8.273   3.236   1.995 -0.7409 -1.0989 -2.0476
  564MOL0     H77827   8.426   3.290   1.937 -0.8736  0.4580 -1.6961
  564MOL0     H77828   8.172   3.371   1.624  0.3917  0.0464 -0.4300
  564MOL0     H77829   8.682   3.273   2.328 -0.4123  0.8310 -0.3667
  564MOL0     H77830   8.883   3.232   2.583  1.0440  3.2623 -1.5405
  564MOL0     H77831   8.770   3.143   2.481 -0.1825  0.7349  0.5411
  564MOL0     H77832   8.948   3.123   2.463 -0.9215 -0.8666 -0.7540
  565MOL0     O77833   5.307   5.947   6.979  0.4148  0.3963  0.2085
  565MOL0     C77834   5.369   6.050   6.971  0.3832 -0.2154  0.1975
  565MOL0     O77835   5.319   6.175   6.995 -0.3587 -0.1255  0.7533
  565MOL0     C77836   5.189   6.196   7.037  0.6525 -0.2650  0.3469
  565MOL0     C77837   5.158   6.162   7.172  0.0554 -0.9185  0.7875
  565MOL0     C77838   5.019   6.187   7.211  0.1697  0.5708 -0.4229
  565MOL0     C77839   4.921   6.248   7.128  0.5412  0.2455 -1.2083
  565MOL0     O77840   4.790   6.260   7.166  0.0858  0.3461 -0.0611
  565MOL0     C77841   4.760   6.284   7.299 -0.4210  0.2137  0.7799
  565MOL0     C77842   4.609   6.332   7.322 -0.7709 -0.0119  1.4938
  565MOL0     C77843   4.576   6.373   7.466 -0.1541  1.1620  0.7346
  565MOL0     C77844   4.559   6.247   7.556  0.8714 -0.3263 -0.2675
  565MOL0     C77845   4.511   6.283   7.695 -0.8286  0.2243 -0.3359
  565MOL0     C77846   4.510   6.158   7.789  0.3836 -0.2394  0.0728
  565MOL0     C77847   4.472   6.206   7.928  0.2506 -0.9968  0.7430
  565MOL0     C77848   4.477   6.078   8.008 -0.1763 -0.0379  0.3836
  565MOL0     N77849   4.556   6.100   8.136 -0.3375 -0.1270 -0.0668
  565MOL0     C77850   4.696   6.101   8.154 -0.7913  0.0860  0.7180
  565MOL0     C77851   4.712   6.095   8.285 -1.1945 -0.2781 -0.4713
  565MOL0     C77852   4.854   6.097   8.349 -0.9611  0.4552  0.6878
  565MOL0     C77853   4.974   6.035   8.254  0.4206 -0.2329 -0.5247
  565MOL0     C77854   5.046   6.132   8.161 -0.8214  0.8451 -0.2271
  565MOL0     C77855   5.136   6.074   8.049  0.3645 -0.8470  0.2226
  565MOL0     O77856   5.240   5.987   8.086  0.7323  0.0882  0.1802
  565MOL0     C77857   5.371   6.031   8.086  0.7497 -0.2398 -0.6305
  565MOL0     C77858   5.406   6.158   8.131  0.0947 -0.1079  0.1089
  565MOL0     C77859   5.546   6.197   8.140  0.3518 -0.7544 -0.6972
  565MOL0     C77860   5.585   6.343   8.167 -0.4891  0.4227  0.3001
  565MOL0     C77861   5.652   6.104   8.113  0.1266  0.6139 -0.4090
  565MOL0     C77862   5.788   6.138   8.126 -0.1911  0.5121 -0.4856
  565MOL0     O77863   5.869   6.117   8.010 -0.1074  0.5276  0.6445
  565MOL0     C77864   6.002   6.117   8.028 -0.3783  0.7467 -0.5204
  565MOL0     C77865   6.077   6.233   8.011  0.2643 -0.0482 -0.1008
  565MOL0     C77866   6.214   6.238   8.018 -0.9061  0.4157 -0.1845
  565MOL0     C77867   6.290   6.126   8.054 -0.8645 -0.0009 -0.0309
  565MOL0     O77868   6.425   6.118   8.074  0.3864 -0.9742 -1.0332
  565MOL0     C77869   6.506   6.230   8.053  0.4666 -0.0567 -0.6457
  565MOL0     C77870   6.638   6.197   8.119  0.1712 -0.1306  0.5094
  565MOL0     C77871   6.735   6.318   8.119  0.2351  1.1774  0.3946
  565MOL0     C77872   6.855   6.291   8.217 -0.4594  0.0038  0.8860
  565MOL0     C77873   6.977   6.372   8.175 -0.5044 -0.4297 -0.1095
  565MOL0     C77874   7.083   6.347   8.287 -0.7908 -0.2428 -0.0069
  565MOL0     C77875   7.213   6.429   8.245 -0.4842 -0.5810  0.0551
  565MOL0     C77876   7.336   6.348   8.285 -0.2061 -0.2879  0.4560
  565MOL0    Cl77877   7.471   6.449   8.240 -0.3237 -0.2174  0.2444
  565MOL0     C77878   6.221   6.007   8.078  0.1553 -0.0823 -0.2728
  565MOL0     C77879   6.076   6.007   8.072  0.2450  0.0853 -0.3134
  565MOL0     O77880   5.830   6.174   8.238  0.0874 -0.1836  0.3664
  565MOL0     C77881   5.608   5.980   8.069  0.1409  0.2203 -0.3423
  565MOL0     C77882   5.478   5.944   8.060 -0.1954  1.0402  0.5194
  565MOL0     N77883   4.593   6.086   8.343  0.3438 -0.7939  0.0076
  565MOL0     N77884   4.500   6.078   8.258  0.0938  0.1685  0.2114
  565MOL0     C77885   4.964   6.304   7.008 -0.7818  0.3577 -0.2207
  565MOL0     C77886   5.096   6.265   6.954  0.7526 -0.2394 -0.8645
  565MOL0     C77887   5.495   6.053   6.905 -0.0517 -1.1727  0.8918
  565MOL0     C77888   5.598   5.969   6.938 -0.1872  0.7359  0.0333
  565MOL0     C77889   5.714   5.954   6.870 -0.2351 -0.0647  0.0338
  565MOL0     C77890   5.742   6.036   6.766 -0.8791 -0.0667  0.0361
  565MOL0     O77891   5.871   6.017   6.727 -0.1707 -0.4198  0.2026
  565MOL0     C77892   5.920   6.099   6.619 -0.3353 -0.3043 -0.9919
  565MOL0     C77893   6.070   6.087   6.609 -1.1294  0.2639  0.6845
  565MOL0     C77894   6.130   5.948   6.642  0.1847 -0.5437 -0.5826
  565MOL0     C77895   6.266   5.916   6.575  0.0933 -0.8024 -1.3515
  565MOL0     C77896   6.322   5.792   6.617 -0.0124 -0.5173  0.2653
  565MOL0     C77897   6.368   5.682   6.646  1.1174  0.0639 -0.1790
  565MOL0     C77898   5.649   6.133   6.733  0.9387  0.6516  0.6210
  565MOL0     C77899   5.525   6.140   6.795 -0.6554 -0.0224 -0.6876
  565MOL0     C77900   5.428   6.241   6.746  0.0565 -0.3952 -0.1185
  565MOL0     H77901   5.240   6.119   7.228  2.1047 -0.1619 -1.4679
  565MOL0     H77902   4.989   6.161   7.312 -2.9355  2.3595 -0.7298
  565MOL0     H77903   4.830   6.358   7.340  0.8610  0.0350 -0.9783
  565MOL0     H77904   4.770   6.189   7.354 -1.2069  1.3288  2.9885
  565MOL0     H77905   4.597   6.415   7.251 -2.1666 -3.0024 -2.0757
  565MOL0     H77906   4.534   6.262   7.286  1.0650 -0.4865 -1.8808
  565MOL0     H77907   4.656   6.440   7.498  1.4412  0.6610 -1.9296
  565MOL0     H77908   4.485   6.433   7.469 -2.1123 -1.4822 -1.0516
  565MOL0     H77909   4.495   6.181   7.496  0.8740  0.1630 -0.8134
  565MOL0     H77910   4.656   6.195   7.553  0.3040 -1.3918 -2.1299
  565MOL0     H77911   4.414   6.333   7.686  0.0155  1.6137 -2.4008
  565MOL0     H77912   4.586   6.351   7.737 -0.6736 -0.9967  1.5013
  565MOL0     H77913   4.448   6.079   7.746 -0.5928  2.1624 -3.4195
  565MOL0     H77914   4.611   6.119   7.783  0.2739 -0.5362  0.1653
  565MOL0     H77915   4.368   6.242   7.925  1.5985  3.5094  0.4245
  565MOL0     H77916   4.536   6.284   7.972 -1.1081  1.9981 -2.1328
  565MOL0     H77917   4.377   6.036   8.017 -0.8724  0.6430 -2.7696
  565MOL0     H77918   4.537   6.002   7.957 -0.6473  0.6631 -1.3093
  565MOL0     H77919   4.769   6.101   8.074 -2.2686  0.1242 -0.6676
  565MOL0     H77920   4.852   6.035   8.439  2.6613 -0.0703  0.5409
  565MOL0     H77921   4.895   6.196   8.370  2.7928 -0.6140 -0.8711
  565MOL0     H77922   5.043   5.970   8.308 -2.5255 -3.8275 -0.6621
  565MOL0     H77923   4.923   5.961   8.190 -0.8099 -0.6038  0.8172
  565MOL0     H77924   4.986   6.216   8.125 -0.0891  1.9588  1.0367
  565MOL0     H77925   5.111   6.187   8.231  0.8325 -1.4826  0.2015
  565MOL0     H77926   5.078   6.007   7.985  0.7169 -0.8441 -0.0987
  565MOL0     H77927   5.165   6.159   7.987 -1.4527  0.5252  1.1543
  565MOL0     H77928   5.329   6.230   8.157 -0.5629 -0.8559  0.3081
  565MOL0     H77929   5.646   6.370   8.081 -0.2523 -0.6299  0.1261
  565MOL0     H77930   5.631   6.373   8.262 -1.1891  0.0906  0.7574
  565MOL0     H77931   5.501   6.413   8.169 -1.1007 -0.3089  0.9585
  565MOL0     H77932   6.034   6.330   7.989 -0.8772 -0.9996 -2.4064
  565MOL0     H77933   6.264   6.334   8.008 -1.6232  1.2200  2.8936
  565MOL0     H77934   6.516   6.262   7.949  0.7717  1.3121 -0.2123
  565MOL0     H77935   6.459   6.312   8.108 -0.2544 -0.1390 -1.1299
  565MOL0     H77936   6.614   6.163   8.221  1.8203 -1.9565  0.3485
  565MOL0     H77937   6.686   6.120   8.057  0.9139 -0.8661  1.9269
  565MOL0     H77938   6.685   6.409   8.153  3.5913  2.7489  1.5682
  565MOL0     H77939   6.768   6.326   8.015 -1.8153 -1.4246 -0.5915
  565MOL0     H77940   6.879   6.185   8.216  3.4107  0.7104 -1.1565
  565MOL0     H77941   6.823   6.319   8.318  0.6568  1.6027  0.8386
  565MOL0     H77942   7.014   6.333   8.080 -0.0135  1.2857 -0.6632
  565MOL0     H77943   6.953   6.478   8.166  2.2042  0.2056 -0.7389
  565MOL0     H77944   7.110   6.241   8.293  0.5887  0.0128 -1.0635
  565MOL0     H77945   7.042   6.375   8.384 -1.4853 -3.0086  0.5883
  565MOL0     H77946   7.223   6.524   8.297 -1.3909 -0.1788 -0.4718
  565MOL0     H77947   7.218   6.439   8.136  1.4480 -0.5274  0.1087
  565MOL0     H77948   7.347   6.253   8.232 -0.6866  0.2661 -0.6809
  565MOL0     H77949   7.344   6.321   8.390 -0.1880 -0.9968  0.2780
  565MOL0     H77950   6.281   5.928   8.121 -1.3588 -0.6783  0.8646
  565MOL0     H77951   6.018   5.920   8.101  1.1547 -0.5368 -0.3286
  565MOL0     H77952   5.679   5.906   8.033  0.9351  1.2011 -0.8396
  565MOL0     H77953   5.461   5.840   8.034 -2.7654  0.7555  2.8301
  565MOL0     H77954   4.889   6.355   6.948 -0.6233  2.0022  0.8975
  565MOL0     H77955   5.130   6.297   6.855 -0.8725 -0.5420 -1.5488
  565MOL0     H77956   5.588   5.897   7.019 -1.0627 -0.3321 -0.9934
  565MOL0     H77957   5.779   5.875   6.906 -1.4370 -0.0959  2.3467
  565MOL0     H77958   5.863   6.061   6.533 -3.5813  2.0845 -0.0777
  565MOL0     H77959   5.890   6.202   6.637 -0.6520 -0.9958  3.5492
  565MOL0     H77960   6.121   6.159   6.674 -0.5790  0.2481  0.2754
  565MOL0     H77961   6.098   6.113   6.507  0.8785  1.1467  1.3989
  565MOL0     H77962   6.132   5.938   6.751 -2.6903  0.1970 -0.3765
  565MOL0     H77963   6.062   5.872   6.601 -0.4160 -1.1283  1.4037
  565MOL0     H77964   6.339   5.991   6.607 -1.7680  0.3448  0.4517
  565MOL0     H77965   6.265   5.913   6.466  1.8994  2.2578 -1.5857
  565MOL0     H77966   6.418   5.588   6.652  2.3522  0.4310 -2.9230
  565MOL0     H77967   5.672   6.205   6.655 -0.0288  3.6222  2.8655
  565MOL0     H77968   5.376   6.300   6.822  1.1339  0.4793 -0.0294
  565MOL0     H77969   5.472   6.315   6.678 -0.0385  0.0210  0.2657
  565MOL0     H77970   5.345   6.195   6.691  0.3116 -1.7224  0.5808
  566MOL0     O77971   1.986  10.785  10.747 -0.6020  0.0491 -0.6427
  566MOL0     C77972   1.963  10.877  10.667 -0.3523  0.7069  1.2321
  566MOL0     O77973   2.055  10.975  10.632  0.5446 -1.0491  0.4928
  566MOL0     C77974   2.190  10.940  10.615  0.7018  0.2583  0.4908
  566MOL0     C77975   2.275  11.054  10.598  0.4764 -0.0695 -0.6151
  566MOL0     C77976   2.409  11.044  10.572 -0.0203  0.4848 -0.0751
  566MOL0     C77977   2.462  10.916  10.553  0.4881  0.6400 -0.1106
  566MOL0     O77978   2.588  10.895  10.507 -0.4622 -0.4660  0.5028
  566MOL0     C77979   2.692  10.904  10.608  0.0919 -0.1417  0.9613
  566MOL0     C77980   2.793  10.799  10.558 -0.4017  0.9687  0.0016
  566MOL0     C77981   2.911  10.764  10.651 -0.0989 -0.2046  0.3889
  566MOL0     C77982   3.038  10.723  10.566  1.0529 -0.5887 -0.3382
  566MOL0     C77983   3.146  10.670  10.654  0.1547 -0.5253 -0.3284
  566MOL0     C77984   3.281  10.645  10.593 -0.4490 -0.6066 -0.5915
  566MOL0     C77985   3.263  10.601  10.452 -0.1829  0.4095  0.1915
  566MOL0     C77986   3.391  10.558  10.389 -0.2481 -0.0473  1.0323
  566MOL0     N77987   3.501  10.647  10.429 -0.5461 -0.4516 -0.0342
  566MOL0     C77988   3.526  10.762  10.360  0.5050  0.1564 -0.1638
  566MOL0     C77989   3.651  10.794  10.402 -0.1218  0.2846 -1.0602
  566MOL0     C77990   3.733  10.913  10.366  0.3141 -1.0806  0.2709
  566MOL0     C77991   3.837  10.962  10.468  0.5319 -0.3533 -0.4266
  566MOL0     C77992   3.927  11.071  10.400  0.7160  0.2638  0.4595
  566MOL0     C77993   4.041  11.107  10.498 -0.3307  0.0015 -0.0069
  566MOL0     O77994   4.127  11.211  10.454  0.4809  0.2528  0.3617
  566MOL0     C77995   4.230  11.256  10.527  0.2217  0.0414 -0.0467
  566MOL0     C77996   4.332  11.337  10.484  0.2281 -0.0149  0.0661
  566MOL0     C77997   4.440  11.380  10.564 -0.0936 -0.0996 -0.3301
  566MOL0     C77998   4.537  11.486  10.503  0.1057 -0.0476  0.1203
  566MOL0     C77999   4.457  11.333  10.693  0.2074  0.3988  0.7149
  566MOL0     C78000   4.572  11.378  10.772 -0.1436  0.3483  0.4263
  566MOL0     O78001   4.689  11.386  10.714  0.1664  0.3986 -0.2056
  566MOL0     C78002   4.796  11.458  10.766 -0.2112 -0.0958  0.3146
  566MOL0     C78003   4.902  11.488  10.673 -0.3477 -0.7165 -0.4684
  566MOL0     C78004   5.005  11.571  10.712 -0.2729  0.4035  0.0512
  566MOL0     C78005   5.026  11.594  10.844  0.0781  0.1986  0.7045
  566MOL0     O78006   5.157  11.639  10.874 -0.0048  0.0032  0.3052
  566MOL0     C78007   5.154  11.781  10.869 -0.3990 -0.0972 -0.2051
  566MOL0     C78008   5.297  11.817  10.918 -0.5043  0.3218 -0.4778
  566MOL0     C78009   5.407  11.802  10.820 -0.3081 -0.7309  0.6303
  566MOL0     C78010   5.388  11.889  10.686 -0.1346  0.2290  0.6687
  566MOL0     C78011   5.528  11.900  10.623 -0.5544  0.3957 -0.4097
  566MOL0     C78012   5.509  11.965  10.485  0.1444  0.1332 -0.2726
  566MOL0     C78013   5.638  12.019  10.419 -0.2106 -0.2890  0.0443
  566MOL0     C78014   5.703  11.894  10.359  0.2323  0.2234  0.7661
  566MOL0    Cl78015   5.866  11.938  10.296  0.6065  0.4237 -0.1395
  566MOL0     C78016   4.932  11.561  10.939 -0.2627  0.1763  0.4685
  566MOL0     C78017   4.816  11.496  10.898  0.2771 -0.0734 -0.2398
  566MOL0     O78018   4.539  11.403  10.886 -0.4637 -0.2681  0.0233
  566MOL0     C78019   4.348  11.254  10.745 -1.0566 -0.2804  0.7916
  566MOL0     C78020   4.243  11.215  10.666 -0.2794  0.1329 -0.1099
  566MOL0     N78021   3.692  10.705  10.499  0.2748 -0.0072 -0.0081
  566MOL0     N78022   3.595  10.623  10.524 -0.6721 -0.0627 -0.5347
  566MOL0     C78023   2.376  10.793  10.560 -0.4459  0.0058  0.1353
  566MOL0     C78024   2.245  10.810  10.599  0.6768  0.2049  0.6749
  566MOL0     C78025   1.835  10.883  10.593 -0.1375 -0.3085 -0.2144
  566MOL0     C78026   1.774  11.007  10.563 -0.2248  0.7325  0.5460
  566MOL0     C78027   1.658  11.014  10.492 -0.6580  0.5744  0.0336
  566MOL0     C78028   1.609  10.901  10.422  0.4940 -0.4172  0.1651
  566MOL0     O78029   1.494  10.904  10.353  0.2537  0.7651  0.3198
  566MOL0     C78030   1.434  11.020  10.303  0.5541 -0.2246  0.5457
  566MOL0     C78031   1.520  11.099  10.200 -0.1804 -0.5545  0.8493
  566MOL0     C78032   1.605  11.001  10.105 -0.2620 -0.4314 -0.6759
  566MOL0     C78033   1.573  11.002   9.961  0.3314  0.3719 -0.0441
  566MOL0     C78034   1.434  10.954   9.945  0.8267  0.1404 -0.7206
  566MOL0     C78035   1.316  10.920   9.946 -0.1984  0.3306  0.5725
  566MOL0     C78036   1.676  10.779  10.438  0.4235 -0.3369  0.4685
  566MOL0     C78037   1.788  10.765  10.520 -0.0921  0.0067  0.0486
  566MOL0     C78038   1.873  10.633  10.519 -0.6168  0.1766 -0.0621
  566MOL0     H78039   2.223  11.147  10.619 -0.2045 -0.6840  0.5130
  566MOL0     H78040   2.469  11.134  10.561 -1.8607  2.4147  3.7913
  566MOL0     H78041   2.644  10.884  10.705 -0.1702  1.5615  1.2292
  566MOL0     H78042   2.728  11.008  10.604 -1.8481  0.7690  3.8477
  566MOL0     H78043   2.735  10.707  10.544  1.7874 -0.3720 -0.7082
  566MOL0     H78044   2.826  10.822  10.456 -2.0991  1.5378 -0.4571
  566MOL0     H78045   2.938  10.852  10.709 -0.0311  0.1820 -0.2214
  566MOL0     H78046   2.886  10.689  10.726  0.4172  0.8430  1.6434
  566MOL0     H78047   3.012  10.640  10.500  0.9843 -1.0991  0.3248
  566MOL0     H78048   3.072  10.799  10.495  0.8924 -1.2375 -1.1273
  566MOL0     H78049   3.100  10.586  10.706 -0.0301  0.1451  0.6239
  566MOL0     H78050   3.168  10.746  10.730  3.0941 -0.4544 -1.1458
  566MOL0     H78051   3.341  10.736  10.592 -2.0700  0.5113 -0.3496
  566MOL0     H78052   3.328  10.568  10.655  1.2429  1.7657  1.3035
  566MOL0     H78053   3.228  10.687  10.396  3.2655  1.9917  0.2080
  566MOL0     H78054   3.191  10.519  10.439  0.1772  0.0292  0.5270
  566MOL0     H78055   3.419  10.458  10.422 -2.7311 -0.2627  2.8050
  566MOL0     H78056   3.373  10.569  10.281  0.8241  0.9210  0.9414
  566MOL0     H78057   3.455  10.811  10.294  0.1215  1.1739  0.9532
  566MOL0     H78058   3.655  10.988  10.352 -1.2700 -2.5154  0.9714
  566MOL0     H78059   3.785  10.890  10.273  1.1299  1.7655 -0.0690
  566MOL0     H78060   3.789  11.013  10.552 -1.2283 -2.6721  0.0616
  566MOL0     H78061   3.897  10.875  10.496  1.5941  0.1635 -0.9939
  566MOL0     H78062   3.975  11.035  10.309 -2.2223  2.7874 -2.3288
  566MOL0     H78063   3.872  11.161  10.371 -0.4970 -0.5651  0.1027
  566MOL0     H78064   4.004  11.140  10.596 -0.2253 -1.2628  0.4761
  566MOL0     H78065   4.101  11.017  10.516 -0.1388  0.0869 -0.2179
  566MOL0     H78066   4.330  11.379  10.384 -0.6562 -0.2215 -0.0166
  566MOL0     H78067   4.635  11.447  10.473 -0.4530  0.0748 -1.9493
  566MOL0     H78068   4.562  11.573  10.565  0.2516  0.0943 -0.1347
  566MOL0     H78069   4.491  11.524  10.412  0.8154 -1.6412 -0.9438
  566MOL0     H78070   4.879  11.461  10.571  0.1245 -1.2231 -0.4378
  566MOL0     H78071   5.082  11.582  10.636  1.7289  1.0220  2.0385
  566MOL0     H78072   5.129  11.822  10.771  0.1896 -1.9460 -1.1941
  566MOL0     H78073   5.082  11.825  10.938 -0.3256  0.2688 -0.3638
  566MOL0     H78074   5.291  11.922  10.946 -0.7680  0.9773 -2.7714
  566MOL0     H78075   5.319  11.752  11.003 -0.0271 -1.1617 -1.6672
  566MOL0     H78076   5.410  11.696  10.792  0.5948 -1.6734  3.8015
  566MOL0     H78077   5.506  11.819  10.863 -1.5850  4.2624  2.3640
  566MOL0     H78078   5.343  11.984  10.714  0.2876  0.2070  1.4734
  566MOL0     H78079   5.315  11.846  10.617 -1.5230  1.8120  1.0878
  566MOL0     H78080   5.583  11.967  10.690  1.1526 -0.9542 -0.3887
  566MOL0     H78081   5.580  11.804  10.629 -1.3748 -0.0362  0.0304
  566MOL0     H78082   5.432  12.043  10.483 -1.5205 -1.4433 -1.7438
  566MOL0     H78083   5.461  11.888  10.423 -3.5856  2.0028  0.0218
  566MOL0     H78084   5.701  12.062  10.497  2.6567  1.9814 -3.2349
  566MOL0     H78085   5.626  12.097  10.344 -1.6383  1.3679  1.8954
  566MOL0     H78086   5.644  11.844  10.282  0.8290  0.4928  0.1139
  566MOL0     H78087   5.706  11.811  10.430 -0.7643 -3.3748 -3.0361
  566MOL0     H78088   4.939  11.562  11.048 -1.7357  0.9062  0.5831
  566MOL0     H78089   4.741  11.469  10.972 -2.8107  4.8023 -1.1266
  566MOL0     H78090   4.338  11.208  10.843 -2.8082  0.6003  1.0507
  566MOL0     H78091   4.168  11.153  10.715  0.0796 -0.4124 -0.2345
  566MOL0     H78092   2.418  10.695  10.537  2.5740  0.9207  1.2743
  566MOL0     H78093   2.176  10.727  10.608 -1.1240  1.7981  2.4176
  566MOL0     H78094   1.820  11.093  10.610 -1.3380  0.0828  2.9743
  566MOL0     H78095   1.616  11.114  10.486 -1.4186  0.2470 -0.2659
  566MOL0     H78096   1.347  10.989  10.245  2.9794  2.7689 -5.5783
  566MOL0     H78097   1.394  11.085  10.381  2.0991  1.0135  0.3648
  566MOL0     H78098   1.600  11.159  10.245  1.6276 -0.1056 -2.6062
  566MOL0     H78099   1.468  11.175  10.142  0.2394 -1.9622 -1.5273
  566MOL0     H78100   1.710  11.029  10.116 -0.0785 -0.6234 -1.8238
  566MOL0     H78101   1.595  10.897  10.139 -0.0756 -0.1379  0.3203
  566MOL0     H78102   1.635  10.938   9.898  1.4490  0.8187  0.5799
  566MOL0     H78103   1.593  11.104   9.926  0.1767  0.4546  0.1094
  566MOL0     H78104   1.219  10.876   9.939  1.4406 -3.4698 -0.7354
  566MOL0     H78105   1.634  10.691  10.391  1.7751 -1.6990  1.6969
  566MOL0     H78106   1.864  10.590  10.619 -1.9878 -0.0396 -0.2624
  566MOL0     H78107   1.846  10.561  10.441  0.4491  1.8457 -2.0426
  566MOL0     H78108   1.979  10.648  10.501 -0.4945 -1.3499 -0.7451
  567MOL0     O78109   1.657   9.413   7.382  0.0201 -0.4428  0.0392
  567MOL0     C78110   1.570   9.359   7.317  0.1064 -0.1544  1.2055
  567MOL0     O78111   1.577   9.237   7.254 -0.2252 -0.0038 -0.1826
  567MOL0     C78112   1.687   9.159   7.276  0.2497 -0.7483 -0.0491
  567MOL0     C78113   1.757   9.117   7.166 -0.2352 -0.5370  0.2258
  567MOL0     C78114   1.871   9.035   7.179  0.0934  0.2456 -0.2227
  567MOL0     C78115   1.923   8.996   7.306  0.1484 -0.6867  0.2064
  567MOL0     O78116   2.023   8.906   7.315  0.5658 -0.0444  0.5374
  567MOL0     C78117   2.099   8.884   7.198 -0.9936  0.5596 -0.3269
  567MOL0     C78118   2.219   8.792   7.221  0.2117  0.7626  0.4480
  567MOL0     C78119   2.338   8.873   7.268  0.7489 -0.4819  0.0000
  567MOL0     C78120   2.466   8.802   7.320 -0.3087 -0.5479 -0.5160
  567MOL0     C78121   2.573   8.897   7.371  0.3705  0.0135  0.3156
  567MOL0     C78122   2.698   8.822   7.418  0.3114 -0.4366  0.0510
  567MOL0     C78123   2.796   8.919   7.472 -0.5595  0.1342  0.0007
  567MOL0     C78124   2.902   8.845   7.559  0.4675 -0.4710  0.3764
  567MOL0     N78125   3.018   8.936   7.601  0.3672  0.3450  1.1477
  567MOL0     C78126   3.053   8.974   7.729 -0.0303 -0.7121  0.1078
  567MOL0     C78127   3.161   9.053   7.710  0.2694 -0.0531 -0.3105
  567MOL0     C78128   3.231   9.110   7.833 -0.0058 -0.7067  0.3773
  567MOL0     C78129   3.361   9.043   7.876  0.0190  0.0248 -0.8340
  567MOL0     C78130   3.484   9.077   7.782 -0.2386  0.2764  0.2766
  567MOL0     C78131   3.608   8.998   7.820  1.0559  0.3413 -0.0827
  567MOL0     O78132   3.640   9.037   7.953 -0.5096  0.3455  0.0219
  567MOL0     C78133   3.737   8.969   8.026 -0.8357  0.5034  0.4780
  567MOL0     C78134   3.800   8.853   7.980  0.2675  1.4346  0.3020
  567MOL0     C78135   3.897   8.784   8.057 -1.1082 -0.1513  0.5125
  567MOL0     C78136   3.958   8.652   7.997 -1.1171  0.7918 -0.3051
  567MOL0     C78137   3.949   8.846   8.178 -0.9477 -0.6411 -0.2506
  567MOL0     C78138   4.056   8.790   8.263 -0.4232 -0.1226 -0.6170
  567MOL0     O78139   4.107   8.862   8.370  0.1953 -0.1962 -0.2253
  567MOL0     C78140   4.187   8.780   8.449  0.3585 -0.2979  0.0381
  567MOL0     C78141   4.327   8.774   8.417 -0.3494  0.3042  0.3262
  567MOL0     C78142   4.416   8.700   8.502 -0.1808 -0.3101  1.0161
  567MOL0     C78143   4.366   8.633   8.608 -0.2462  0.6683 -0.6874
  567MOL0     O78144   4.446   8.557   8.695  0.0154  0.1151  0.2580
  567MOL0     C78145   4.586   8.540   8.664  0.4254  0.2251 -0.4361
  567MOL0     C78146   4.669   8.479   8.779  0.2285 -0.5468  0.3235
  567MOL0     C78147   4.812   8.543   8.796  0.0962  0.8645 -0.3787
  567MOL0     C78148   4.908   8.460   8.714 -0.7077  0.4760 -0.6092
  567MOL0     C78149   5.048   8.520   8.691 -0.6044  0.0889 -0.0964
  567MOL0     C78150   5.126   8.416   8.599 -0.5281  1.4015  0.0849
  567MOL0     C78151   5.276   8.445   8.562  0.1543 -0.6048  0.2400
  567MOL0     C78152   5.364   8.403   8.680 -0.2276 -0.0891  0.1156
  567MOL0    Cl78153   5.538   8.428   8.659 -0.0903  0.5629  0.0857
  567MOL0     C78154   4.230   8.637   8.642 -0.3754 -0.1836 -0.3104
  567MOL0     C78155   4.142   8.719   8.570 -0.0345  0.3891 -0.1263
  567MOL0     O78156   4.070   8.666   8.243  0.5059  0.0960 -0.0736
  567MOL0     C78157   3.898   8.976   8.210 -0.3461  0.6614  0.1494
  567MOL0     C78158   3.788   9.023   8.144  0.2169 -0.3643 -0.5927
  567MOL0     N78159   3.200   9.060   7.580 -0.0975  0.2413  0.4062
  567MOL0     N78160   3.105   8.993   7.512  1.0175 -0.1838 -1.0004
  567MOL0     C78161   1.861   9.049   7.418 -0.0010  0.3594 -0.3952
  567MOL0     C78162   1.740   9.126   7.406 -0.6842 -0.0908 -0.0245
  567MOL0     C78163   1.441   9.420   7.311 -0.1617 -0.4859 -0.4715
  567MOL0     C78164   1.380   9.467   7.426  0.2770 -0.1493  0.0407
  567MOL0     C78165   1.260   9.534   7.417  0.7781  0.2349  0.7636
  567MOL0     C78166   1.195   9.537   7.290 -0.5543 -0.6002 -1.0952
  567MOL0     O78167   1.076   9.599   7.302  0.0776  0.9567 -0.1880
  567MOL0     C78168   0.990   9.637   7.188 -0.0106  0.5413  0.2741
  567MOL0     C78169   0.917   9.515   7.129  0.1183 -0.5922  0.9779
  567MOL0     C78170   0.837   9.531   6.996  0.7674  0.3290 -0.4866
  567MOL0     C78171   0.922   9.575   6.883 -0.3941  0.3174 -0.0452
  567MOL0     C78172   0.854   9.574   6.754  0.9356 -0.2673 -0.4961
  567MOL0     C78173   0.793   9.568   6.653 -0.4035  0.0401  0.5728
  567MOL0     C78174   1.258   9.491   7.175 -0.0310  0.5189  0.7906
  567MOL0     C78175   1.382   9.437   7.188 -0.5756 -0.4317 -0.7198
  567MOL0     C78176   1.461   9.404   7.057  0.0343 -0.1054  0.0071
  567MOL0     H78177   1.715   9.140   7.069  1.3156 -0.7790 -0.5308
  567MOL0     H78178   1.907   9.005   7.082  2.4994 -0.7400  0.8966
  567MOL0     H78179   2.127   8.977   7.148  1.2990 -1.0347 -2.2145
  567MOL0     H78180   2.037   8.827   7.128 -2.2237  0.3661  0.8742
  567MOL0     H78181   2.188   8.714   7.292  0.2906 -0.9767 -1.3427
  567MOL0     H78182   2.251   8.747   7.127  2.8561  0.6747  1.2969
  567MOL0     H78183   2.361   8.943   7.188  2.2153  2.5356  2.8381
  567MOL0     H78184   2.301   8.935   7.350  0.3796 -2.2122  1.1925
  567MOL0     H78185   2.435   8.733   7.399 -0.7343 -0.5100 -0.6457
  567MOL0     H78186   2.507   8.740   7.239  3.7252 -1.2915  1.8644
  567MOL0     H78187   2.530   8.937   7.463 -0.5631 -1.4518  0.5368
  567MOL0     H78188   2.595   8.973   7.295 -0.2786  1.1199  1.2062
  567MOL0     H78189   2.671   8.765   7.506 -2.8307  2.5663  1.2572
  567MOL0     H78190   2.732   8.769   7.328 -0.5927 -0.7152 -0.1400
  567MOL0     H78191   2.758   8.995   7.542 -1.7486 -2.4785  2.4239
  567MOL0     H78192   2.843   8.978   7.393 -0.2421 -0.6187 -0.3833
  567MOL0     H78193   2.842   8.813   7.645  1.0136 -4.4221 -0.5574
  567MOL0     H78194   2.934   8.749   7.518  0.1925 -1.4889  2.4155
  567MOL0     H78195   3.015   8.936   7.824  0.6882  2.6305  1.9152
  567MOL0     H78196   3.164   9.109   7.919 -1.8249 -2.7059 -0.9514
  567MOL0     H78197   3.245   9.217   7.814 -2.5047 -0.1118  1.4772
  567MOL0     H78198   3.383   9.063   7.981 -1.8792  1.1350 -0.6014
  567MOL0     H78199   3.346   8.935   7.867 -1.2606  0.3604 -3.8683
  567MOL0     H78200   3.459   9.035   7.685  4.0765 -0.3687 -0.7650
  567MOL0     H78201   3.507   9.183   7.773  1.2518 -0.1556 -1.7458
  567MOL0     H78202   3.583   8.892   7.811  1.7997  0.0509  1.0601
  567MOL0     H78203   3.692   9.017   7.753 -0.2412  3.2288 -1.0661
  567MOL0     H78204   3.764   8.800   7.893  0.0823 -4.3998  3.4100
  567MOL0     H78205   3.926   8.567   8.059  1.1838 -0.1006 -0.2422
  567MOL0     H78206   4.067   8.664   7.989 -0.8768  2.2104  3.1008
  567MOL0     H78207   3.920   8.621   7.900 -0.5156 -4.9605  0.9443
  567MOL0     H78208   4.349   8.819   8.321  1.8682 -0.6924  0.3160
  567MOL0     H78209   4.520   8.695   8.472 -0.7168  0.2120 -1.0931
  567MOL0     H78210   4.597   8.474   8.578 -1.6902 -0.6170 -0.1117
  567MOL0     H78211   4.625   8.642   8.652  2.3127 -0.4151 -0.1304
  567MOL0     H78212   4.611   8.506   8.868  1.3040  2.2107  0.2689
  567MOL0     H78213   4.669   8.370   8.768  1.8102 -0.4024 -1.7537
  567MOL0     H78214   4.832   8.543   8.904 -2.1853  0.8064  0.0923
  567MOL0     H78215   4.814   8.647   8.763 -0.5893  1.2307  0.6566
  567MOL0     H78216   4.869   8.446   8.612  2.5294  3.0314 -2.3692
  567MOL0     H78217   4.923   8.361   8.757 -0.8978 -0.3524 -2.3455
  567MOL0     H78218   5.039   8.610   8.630 -0.8008  0.6072  0.6800
  567MOL0     H78219   5.105   8.538   8.783  1.1250 -3.5140 -0.2816
  567MOL0     H78220   5.061   8.401   8.513 -1.2328 -0.4736  0.8835
  567MOL0     H78221   5.130   8.317   8.644 -0.4794  1.1682 -0.4341
  567MOL0     H78222   5.301   8.548   8.537  2.8763 -0.7849  1.8009
  567MOL0     H78223   5.291   8.378   8.477  1.5887  1.2455 -1.0289
  567MOL0     H78224   5.340   8.297   8.696  0.7065 -0.5922 -1.5456
  567MOL0     H78225   5.325   8.465   8.761 -0.8378  0.4919 -0.6083
  567MOL0     H78226   4.205   8.573   8.727  1.4660  0.7418  1.0007
  567MOL0     H78227   4.038   8.722   8.602 -0.2636 -1.1884 -0.6345
  567MOL0     H78228   3.937   9.020   8.301  1.2398  1.6885 -0.9876
  567MOL0     H78229   3.753   9.122   8.172 -3.1324 -0.8871 -2.3468
  567MOL0     H78230   1.907   9.023   7.512  1.7223  1.8042 -0.7759
  567MOL0     H78231   1.687   9.166   7.492  0.2946 -1.5962  1.3670
  567MOL0     H78232   1.430   9.454   7.522  0.1397 -3.4964 -0.2208
  567MOL0     H78233   1.211   9.571   7.507  0.2871  3.3566 -0.6398
  567MOL0     H78234   0.911   9.705   7.219  1.4190  2.6030 -0.3979
  567MOL0     H78235   1.051   9.683   7.109 -1.2153  0.9377 -0.4462
  567MOL0     H78236   0.854   9.478   7.211  0.0027 -0.6351  0.8704
  567MOL0     H78237   0.997   9.449   7.095  1.0494  2.8604 -4.8208
  567MOL0     H78238   0.797   9.434   6.967  1.7059 -0.5158  0.9209
  567MOL0     H78239   0.747   9.591   7.011  0.5616 -0.6109  2.8819
  567MOL0     H78240   1.012   9.513   6.884 -1.7321 -1.8152  3.1894
  567MOL0     H78241   0.952   9.678   6.905  2.8932 -0.4888 -0.2575
  567MOL0     H78242   0.753   9.561   6.553  3.0269 -1.0320 -0.8765
  567MOL0     H78243   1.210   9.504   7.079  0.9144  2.8546  0.5630
  567MOL0     H78244   1.419   9.440   6.963 -0.3059 -3.2666 -1.1827
  567MOL0     H78245   1.562   9.444   7.072 -1.0418  1.8180  2.8831
  567MOL0     H78246   1.470   9.296   7.040 -2.9488 -0.3378 -0.6249
  568MOL0     O78247   8.975   6.254   8.891 -0.2122 -0.6423 -0.1423
  568MOL0     C78248   8.894   6.293   8.980 -0.4086  0.5602 -0.2911
  568MOL0     O78249   8.930   6.373   9.085  0.4501 -0.3173 -0.2667
  568MOL0     C78250   9.061   6.413   9.089 -0.1781  0.3808  0.3014
  568MOL0     C78251   9.093   6.547   9.061 -0.5254 -0.0618  0.0939
  568MOL0     C78252   9.225   6.598   9.081  0.1884  0.6268 -0.2768
  568MOL0     C78253   9.327   6.513   9.130  0.6227  0.6236 -0.4387
  568MOL0     O78254   9.448   6.562   9.161 -0.2144  0.1915  0.3908
  568MOL0     C78255   9.507   6.660   9.071 -0.4381 -0.0882 -0.5269
  568MOL0     C78256   9.659   6.633   9.068  0.6148  0.2974 -0.6800
  568MOL0     C78257   9.722   6.692   9.190 -0.6122  0.2861 -0.5021
  568MOL0     C78258   9.872   6.649   9.205  0.7678  0.1035 -0.0425
  568MOL0     C78259   9.937   6.731   9.324  0.1325 -0.1878 -0.0329
  568MOL0     C78260  10.082   6.697   9.329  0.3614  0.1524  0.4849
  568MOL0     C78261  10.155   6.793   9.431 -0.0408 -0.3404 -0.1033
  568MOL0     C78262  10.190   6.937   9.381  0.3936 -0.2793  1.0190
  568MOL0     N78263  10.293   6.929   9.275  0.1891 -1.0206  0.5424
  568MOL0     C78264  10.292   7.005   9.162 -0.7386  0.0600 -0.0183
  568MOL0     C78265  10.408   6.990   9.101 -0.1902 -0.6580  0.4539
  568MOL0     C78266  10.444   7.037   8.964 -0.7800  0.2734 -0.4698
  568MOL0     C78267  10.594   7.018   8.938  0.5175  0.8246  0.6950
  568MOL0     C78268  10.623   7.057   8.796  0.1559 -0.3879  0.0689
  568MOL0     C78269  10.772   7.074   8.783 -0.1686  0.4825  1.4050
  568MOL0     O78270  10.792   7.055   8.635 -0.1898 -0.0004 -0.4908
  568MOL0     C78271  10.920   7.082   8.587 -0.3940  0.5284 -0.2469
  568MOL0     C78272  10.939   7.086   8.451 -0.3192  0.4810 -0.6098
  568MOL0     C78273  11.059   7.108   8.390 -0.3782 -0.1599  0.1915
  568MOL0     C78274  11.073   7.129   8.240 -0.0142 -0.0112 -0.1689
  568MOL0     C78275  11.175   7.124   8.475  0.0262 -0.8493  0.3849
  568MOL0     C78276  11.317   7.136   8.426  0.7067 -0.6950 -0.4029
  568MOL0     O78277  11.407   7.185   8.509  0.3942  0.4539  0.0601
  568MOL0     C78278  11.527   7.212   8.448  0.4542 -0.1713  0.8204
  568MOL0     C78279  11.567   7.344   8.418  0.1696  0.5659  0.2453
  568MOL0     C78280  11.701   7.355   8.370  0.1000  0.3205  0.1813
  568MOL0     C78281  11.792   7.245   8.347  1.0002 -0.0965  0.2085
  568MOL0     O78282  11.912   7.275   8.291 -0.4924  0.6979  0.4792
  568MOL0     C78283  12.025   7.203   8.346  0.2074  0.4430  0.0263
  568MOL0     C78284  12.084   7.307   8.449 -0.1870  0.5622  0.1719
  568MOL0     C78285  12.162   7.413   8.379  0.6258 -0.1236  1.0638
  568MOL0     C78286  12.295   7.377   8.315  0.1194  0.5152 -0.0771
  568MOL0     C78287  12.355   7.499   8.253  0.3580 -0.3215  0.6698
  568MOL0     C78288  12.493   7.495   8.192 -0.5038  0.9808 -0.4209
  568MOL0     C78289  12.516   7.626   8.112  0.5955  0.4093  0.0315
  568MOL0     C78290  12.660   7.626   8.076 -0.7882 -0.5202 -0.1319
  568MOL0    Cl78291  12.705   7.791   8.015 -0.1322  0.1739  0.1469
  568MOL0     C78292  11.748   7.122   8.394  0.4096 -0.3374 -0.6894
  568MOL0     C78293  11.613   7.100   8.440 -0.4346  0.5985 -0.5523
  568MOL0     O78294  11.339   7.099   8.315  0.0031 -0.7684 -0.2479
  568MOL0     C78295  11.161   7.123   8.617  0.6664  0.0767  0.2991
  568MOL0     C78296  11.032   7.102   8.664  0.0011  0.1138 -0.4427
  568MOL0     N78297  10.486   6.912   9.183 -0.2905  0.7912  0.1012
  568MOL0     N78298  10.416   6.873   9.284 -0.2266 -0.2691  0.0101
  568MOL0     C78299   9.290   6.378   9.158  0.3157 -0.4241 -1.0247
  568MOL0     C78300   9.164   6.326   9.134 -0.6447  0.2502  0.1013
  568MOL0     C78301   8.765   6.234   8.967  0.9245  0.4506 -0.6763
  568MOL0     C78302   8.716   6.205   8.839  0.5594  0.6021 -0.5122
  568MOL0     C78303   8.596   6.147   8.824  0.3831 -0.8037  1.1403
  568MOL0     C78304   8.507   6.110   8.929  0.9508  0.9672 -0.9391
  568MOL0     O78305   8.387   6.048   8.908 -0.2884 -0.0242  0.1268
  568MOL0     C78306   8.346   6.004   8.775 -0.8705 -0.2026  1.0123
  568MOL0     C78307   8.204   5.954   8.768 -0.4904  0.7595  0.6342
  568MOL0     C78308   8.108   6.074   8.781  0.3909  0.5516  0.1569
  568MOL0     C78309   7.959   6.025   8.771 -0.1418  0.4265  0.4657
  568MOL0     C78310   7.920   6.002   8.631 -0.4574  0.8508  0.5475
  568MOL0     C78311   7.896   5.986   8.511 -0.5274 -0.2225  0.0377
  568MOL0     C78312   8.555   6.147   9.063 -0.4077 -1.2368 -0.6792
  568MOL0     C78313   8.681   6.212   9.081 -0.8069  0.0293  0.0396
  568MOL0     C78314   8.729   6.214   9.218  0.2046 -1.1829 -0.1654
  568MOL0     H78315   9.011   6.614   9.037 -1.7872 -0.5105  2.7485
  568MOL0     H78316   9.241   6.704   9.068  0.2799  0.6485  0.0041
  568MOL0     H78317   9.485   6.762   9.103 -0.7539 -0.0929 -0.7171
  568MOL0     H78318   9.465   6.646   8.971  1.9434 -1.3491 -1.4150
  568MOL0     H78319   9.679   6.525   9.063  1.6176  0.4486 -0.3084
  568MOL0     H78320   9.705   6.674   8.978  0.7506 -1.0444 -1.2431
  568MOL0     H78321   9.722   6.801   9.187  0.9041  0.4396  2.1336
  568MOL0     H78322   9.664   6.651   9.273  0.6188  0.0310  0.2670
  568MOL0     H78323   9.868   6.540   9.211 -1.6944  0.2075  2.2762
  568MOL0     H78324   9.938   6.664   9.119  1.2689 -2.4297 -0.1726
  568MOL0     H78325   9.877   6.716   9.414 -0.0463  1.2854  0.1181
  568MOL0     H78326   9.922   6.837   9.302 -2.8737 -0.7500 -1.1201
  568MOL0     H78327  10.084   6.591   9.355 -2.0089  0.4898  2.4823
  568MOL0     H78328  10.129   6.703   9.231  0.6687 -2.0557  0.4489
  568MOL0     H78329  10.247   6.744   9.466 -0.9506 -1.7999  0.3446
  568MOL0     H78330  10.089   6.815   9.516  2.1692 -1.0444  1.9011
  568MOL0     H78331  10.101   6.986   9.340  1.3484 -0.5607 -1.5210
  568MOL0     H78332  10.230   6.991   9.467 -0.2923  0.4614  0.8793
  568MOL0     H78333  10.204   7.061   9.132  0.6843  3.7940  2.0869
  568MOL0     H78334  10.401   7.137   8.962 -2.5135 -0.3028  2.4195
  568MOL0     H78335  10.378   6.989   8.891 -0.6561 -0.8168  0.1106
  568MOL0     H78336  10.645   7.069   9.021  0.6201  1.5174  0.2123
  568MOL0     H78337  10.609   6.911   8.955 -3.0161  0.2073  0.6737
  568MOL0     H78338  10.588   6.978   8.729  2.2196 -3.2316  2.0903
  568MOL0     H78339  10.580   7.155   8.772  0.6257 -0.3061 -0.4846
  568MOL0     H78340  10.801   7.175   8.811  3.3056  0.6746 -2.0986
  568MOL0     H78341  10.825   6.995   8.837 -1.5094 -0.5171  1.3079
  568MOL0     H78342  10.847   7.090   8.395 -1.3025  2.1817  1.0068
  568MOL0     H78343  11.120   7.223   8.209  3.9791 -2.9292 -4.2703
  568MOL0     H78344  10.975   7.125   8.191  0.4487  2.1948 -1.3807
  568MOL0     H78345  11.122   7.038   8.204  0.7721  0.1604  0.4596
  568MOL0     H78346  11.498   7.428   8.424 -1.0958 -0.4840  0.9787
  568MOL0     H78347  11.744   7.450   8.340 -0.5085  0.1400 -1.3216
  568MOL0     H78348  11.988   7.116   8.400 -1.7870  1.0888 -0.2045
  568MOL0     H78349  12.102   7.167   8.277  0.8959 -1.8761  1.8728
  568MOL0     H78350  11.997   7.345   8.503 -0.1078  1.3612 -0.2496
  568MOL0     H78351  12.150   7.271   8.529 -1.2939  2.1677  1.8955
  568MOL0     H78352  12.182   7.484   8.460 -2.8788  0.8973  1.2003
  568MOL0     H78353  12.093   7.453   8.304  0.0103  0.4595  1.9306
  568MOL0     H78354  12.278   7.307   8.233 -0.2503  1.2245 -0.6225
  568MOL0     H78355  12.373   7.338   8.381  1.4463  0.9387 -1.3480
  568MOL0     H78356  12.286   7.540   8.179  0.1532  0.5746  1.3455
  568MOL0     H78357  12.358   7.560   8.343 -0.6019 -0.4703  0.8118
  568MOL0     H78358  12.487   7.401   8.136 -0.1719  1.7490 -1.7836
  568MOL0     H78359  12.563   7.483   8.275 -1.5831  0.9951  0.5147
  568MOL0     H78360  12.491   7.714   8.171  1.0065  0.8746 -0.4810
  568MOL0     H78361  12.445   7.626   8.029  1.1252 -1.5780 -0.4730
  568MOL0     H78362  12.667   7.544   8.004 -0.1339 -2.3646  1.9156
  568MOL0     H78363  12.715   7.598   8.167  0.2661  0.4250 -0.4588
  568MOL0     H78364  11.807   7.031   8.400 -0.6372 -1.1960 -2.5061
  568MOL0     H78365  11.582   7.005   8.480  0.1464  0.8351  0.4880
  568MOL0     H78366  11.251   7.139   8.675  1.5035  0.5178 -1.0620
  568MOL0     H78367  11.024   7.091   8.772  1.6978  1.1525 -0.1784
  568MOL0     H78368   9.354   6.301   9.200 -3.5598 -3.2064  0.3265
  568MOL0     H78369   9.134   6.226   9.164 -2.9878  0.9433  0.2847
  568MOL0     H78370   8.780   6.228   8.754 -1.3054  0.5874 -1.9846
  568MOL0     H78371   8.567   6.138   8.720  2.6473 -1.4667  0.5127
  568MOL0     H78372   8.365   6.094   8.714  1.1752 -2.5062 -2.0721
  568MOL0     H78373   8.410   5.925   8.736  0.3346  1.3759 -0.3835
  568MOL0     H78374   8.179   5.870   8.834  1.5568  1.2064  2.0883
  568MOL0     H78375   8.190   5.914   8.668  2.3150 -0.7175  0.7393
  568MOL0     H78376   8.110   6.129   8.875  0.8575  0.2592  0.3182
  568MOL0     H78377   8.138   6.146   8.705  1.1206  2.4119  2.1313
  568MOL0     H78378   7.888   6.102   8.804  0.8525  0.7564  1.9255
  568MOL0     H78379   7.937   5.929   8.818 -3.1144  0.4249 -0.7162
  568MOL0     H78380   7.876   5.962   8.408  2.2192 -0.3300 -0.5514
  568MOL0     H78381   8.493   6.129   9.150  0.4357  0.2603  0.2740
  568MOL0     H78382   8.734   6.313   9.266  1.6697 -1.6837  0.7968
  568MOL0     H78383   8.665   6.146   9.275 -2.4379  2.2128  1.3376
  568MOL0     H78384   8.830   6.182   9.245  1.1392  1.1379 -0.6415
  569MOL0     O78385   3.017   3.082   7.826  0.3594 -0.3534 -0.3892
  569MOL0     C78386   2.997   2.987   7.902 -0.1900  0.2692 -0.2697
  569MOL0     O78387   3.092   2.915   7.965  0.4132  0.0272 -0.8371
  569MOL0     C78388   3.229   2.944   7.961  0.3259 -0.1559  0.5460
  569MOL0     C78389   3.326   2.893   7.868  0.1716 -0.6478  0.1404
  569MOL0     C78390   3.456   2.944   7.860 -0.2225  0.2616 -0.3516
  569MOL0     C78391   3.507   3.038   7.936 -0.5538 -0.6176 -0.1514
  569MOL0     O78392   3.634   3.089   7.914  0.0405 -0.8995  0.5737
  569MOL0     C78393   3.675   3.207   7.985 -0.8818 -0.6981 -0.2684
  569MOL0     C78394   3.816   3.256   7.939  0.6389 -0.6295 -0.0677
  569MOL0     C78395   3.918   3.145   7.961  0.6069  0.3940 -0.9939
  569MOL0     C78396   4.055   3.201   8.013  0.1428  0.0086  0.1784
  569MOL0     C78397   4.156   3.083   8.023  0.3559  0.1636 -0.0109
  569MOL0     C78398   4.141   2.996   8.149 -0.2421 -0.2466  0.9899
  569MOL0     C78399   4.229   2.872   8.145  0.6464  0.3564 -1.3836
  569MOL0     C78400   4.379   2.900   8.137  1.0540  0.2209  0.0794
  569MOL0     N78401   4.461   2.791   8.193  0.2731 -0.3984 -0.5322
  569MOL0     C78402   4.564   2.811   8.281 -0.3734 -0.0743  0.4776
  569MOL0     C78403   4.603   2.689   8.319  0.4370  0.1882  0.8808
  569MOL0     C78404   4.689   2.659   8.436 -0.4468  0.0704  0.2630
  569MOL0     C78405   4.828   2.631   8.382  0.1936  0.6556  0.5289
  569MOL0     C78406   4.936   2.610   8.483 -0.1148  0.1294 -0.6323
  569MOL0     C78407   5.077   2.580   8.414 -0.3416 -0.4278 -0.5165
  569MOL0     O78408   5.078   2.458   8.340 -0.3207 -0.0585  0.1584
  569MOL0     C78409   5.211   2.403   8.316 -0.2890  0.4589  0.1449
  569MOL0     C78410   5.322   2.487   8.315  0.3095 -0.2007 -0.5554
  569MOL0     C78411   5.450   2.442   8.284 -0.0914  0.2944 -0.3813
  569MOL0     C78412   5.551   2.555   8.286 -0.1133  0.4326 -0.2570
  569MOL0     C78413   5.469   2.305   8.248  0.1597  0.3432  0.0213
  569MOL0     C78414   5.603   2.250   8.212 -1.1495  0.3892  0.4045
  569MOL0     O78415   5.715   2.321   8.238  0.4441 -0.7477  0.6322
  569MOL0     C78416   5.842   2.290   8.190  0.7156  0.0391 -0.5861
  569MOL0     C78417   5.898   2.167   8.204 -0.6986  0.3313  0.5529
  569MOL0     C78418   6.034   2.143   8.174  0.4609 -0.0609  0.4756
  569MOL0     C78419   6.108   2.250   8.130 -0.1637 -0.6303 -0.6761
  569MOL0     O78420   6.244   2.245   8.102  0.1050  0.2001 -0.0260
  569MOL0     C78421   6.301   2.112   8.094 -0.5666 -0.8371  0.1773
  569MOL0     C78422   6.444   2.140   8.038  0.4120  0.6303 -0.1656
  569MOL0     C78423   6.498   2.007   7.990 -0.2377  0.6290 -0.2184
  569MOL0     C78424   6.646   2.004   7.943 -0.0199  0.1312 -0.3624
  569MOL0     C78425   6.679   1.866   7.893  0.2747  0.0647  0.1996
  569MOL0     C78426   6.798   1.846   7.802 -0.7948 -0.2281 -0.2798
  569MOL0     C78427   6.757   1.875   7.660 -0.1326  0.2954  0.1799
  569MOL0     C78428   6.875   1.836   7.567  0.6091  0.2682  0.3905
  569MOL0    Cl78429   7.024   1.922   7.593 -0.5204  0.1115  0.2762
  569MOL0     C78430   6.055   2.379   8.127  0.0524  0.0975 -0.7770
  569MOL0     C78431   5.925   2.401   8.160  0.4105  0.5621 -0.7402
  569MOL0     O78432   5.598   2.133   8.165  0.6735 -0.0638  0.3199
  569MOL0     C78433   5.354   2.226   8.238  0.1532  0.2462 -0.9990
  569MOL0     C78434   5.226   2.268   8.286 -1.0088  0.9437  0.7789
  569MOL0     N78435   4.525   2.596   8.241 -0.7613  0.1764  0.3306
  569MOL0     N78436   4.445   2.660   8.166  0.2119 -0.0211  0.2768
  569MOL0     C78437   3.423   3.085   8.039 -0.0721  0.6991  0.4076
  569MOL0     C78438   3.291   3.037   8.048 -0.0562 -0.2615 -0.2547
  569MOL0     C78439   2.856   2.951   7.915 -0.4435  1.0274  0.2044
  569MOL0     C78440   2.773   2.971   7.807  0.2310 -0.3156 -0.4589
  569MOL0     C78441   2.632   2.936   7.813 -0.1376 -0.8747  0.0568
  569MOL0     C78442   2.574   2.886   7.931 -0.5248 -0.1787 -0.0545
  569MOL0     O78443   2.439   2.877   7.939  0.2631  0.1421  0.0056
  569MOL0     C78444   2.391   2.775   8.025  0.1217  0.7970 -0.0101
  569MOL0     C78445   2.263   2.710   7.973 -0.3707 -0.3224 -0.5646
  569MOL0     C78446   2.286   2.589   7.888 -0.4268 -0.4826 -0.0359
  569MOL0     C78447   2.149   2.518   7.863  0.1496 -0.9022 -0.4742
  569MOL0     C78448   2.144   2.423   7.756  0.0091  0.2680  0.2343
  569MOL0     C78449   2.122   2.336   7.679 -0.8088 -0.5136  0.0855
  569MOL0     C78450   2.663   2.871   8.039  0.2313 -0.0903 -0.6998
  569MOL0     C78451   2.798   2.907   8.032 -0.4191  0.3483  0.3860
  569MOL0     C78452   2.873   2.889   8.166  0.8655  0.2655  0.0802
  569MOL0     H78453   3.302   2.822   7.790  0.0848 -0.0030 -0.4327
  569MOL0     H78454   3.526   2.901   7.789 -0.0010  1.3504 -0.8181
  569MOL0     H78455   3.674   3.187   8.092 -3.7130  3.2200  0.6801
  569MOL0     H78456   3.600   3.287   7.980  0.7451  1.0990  1.8405
  569MOL0     H78457   3.823   3.294   7.836  0.6354  0.9657  0.4872
  569MOL0     H78458   3.842   3.346   7.997  1.9189 -0.8777 -0.2253
  569MOL0     H78459   3.874   3.082   8.039  1.2214  1.2112  0.0395
  569MOL0     H78460   3.938   3.096   7.866  0.3436  1.2282 -1.4885
  569MOL0     H78461   4.094   3.280   7.949  3.7082  0.8359  3.0623
  569MOL0     H78462   4.034   3.253   8.107 -2.2651  1.2758 -0.9551
  569MOL0     H78463   4.256   3.126   8.035 -0.1774  1.2326  0.8081
  569MOL0     H78464   4.146   3.011   7.941  0.8812  1.0081 -0.8512
  569MOL0     H78465   4.161   3.047   8.244  3.0617  0.1315  0.2443
  569MOL0     H78466   4.040   2.954   8.149  1.0566 -3.6713  0.7312
  569MOL0     H78467   4.210   2.818   8.052 -2.1939  1.3645 -1.4894
  569MOL0     H78468   4.197   2.810   8.229 -0.3614  1.6075 -0.8039
  569MOL0     H78469   4.413   2.916   8.034  1.6833 -2.5631 -0.2372
  569MOL0     H78470   4.410   2.989   8.193  0.5509  1.0102 -0.8659
  569MOL0     H78471   4.610   2.903   8.318  1.1034 -1.2132  1.5849
  569MOL0     H78472   4.664   2.571   8.497 -0.3313  0.2330  0.5468
  569MOL0     H78473   4.701   2.738   8.510  0.9353  0.1440 -0.0177
  569MOL0     H78474   4.813   2.545   8.317  0.1480  1.5088 -0.6273
  569MOL0     H78475   4.848   2.716   8.315 -1.3491  0.5131 -0.1503
  569MOL0     H78476   4.941   2.696   8.550 -3.2210  0.1534 -0.2967
  569MOL0     H78477   4.911   2.527   8.551 -1.5087  0.4743 -0.6927
  569MOL0     H78478   5.104   2.655   8.339 -0.5348 -0.5877 -0.7502
  569MOL0     H78479   5.148   2.573   8.497 -0.0443 -0.0957 -0.7403
  569MOL0     H78480   5.322   2.592   8.343 -0.1881 -0.9050  2.4659
  569MOL0     H78481   5.624   2.551   8.368 -1.6306  1.9449  1.2492
  569MOL0     H78482   5.498   2.650   8.282 -2.3244 -0.7807 -3.3326
  569MOL0     H78483   5.604   2.548   8.191 -0.6878 -0.5156 -0.5226
  569MOL0     H78484   5.859   2.074   8.245  2.4081 -0.4587  1.9867
  569MOL0     H78485   6.076   2.043   8.175 -0.7236 -0.5726  1.1933
  569MOL0     H78486   6.320   2.081   8.197 -1.4759 -1.7144  0.0927
  569MOL0     H78487   6.239   2.040   8.040 -2.4618  0.4649  0.4888
  569MOL0     H78488   6.438   2.217   7.960  0.7730  0.3619 -0.4631
  569MOL0     H78489   6.507   2.190   8.112 -1.8018  1.3599  1.3537
  569MOL0     H78490   6.444   1.975   7.901 -2.1749  0.3123  1.0163
  569MOL0     H78491   6.471   1.943   8.075 -2.3744  2.2340  0.4028
  569MOL0     H78492   6.711   2.046   8.019 -2.5671 -0.0526  2.0969
  569MOL0     H78493   6.661   2.070   7.858  1.3282  0.8233  0.3887
  569MOL0     H78494   6.694   1.811   7.986  2.5648 -0.0995 -0.1897
  569MOL0     H78495   6.593   1.832   7.836 -0.0283  1.0717  0.0278
  569MOL0     H78496   6.836   1.743   7.801  1.4785  0.5409 -0.5952
  569MOL0     H78497   6.883   1.905   7.839 -0.4722 -1.4582  1.0496
  569MOL0     H78498   6.739   1.981   7.642  0.8876  0.1931 -1.6549
  569MOL0     H78499   6.669   1.815   7.633  1.2523 -1.5656 -0.4449
  569MOL0     H78500   6.846   1.860   7.464  2.6708 -0.7427 -0.4927
  569MOL0     H78501   6.901   1.730   7.567 -0.4655 -0.0507 -1.7676
  569MOL0     H78502   6.125   2.457   8.099 -1.8129  1.9038 -0.6779
  569MOL0     H78503   5.875   2.498   8.158  0.1236  0.4146 -0.6613
  569MOL0     H78504   5.364   2.122   8.206  0.9408 -0.0337  0.1155
  569MOL0     H78505   5.141   2.199   8.287 -0.6581  0.2785 -3.0131
  569MOL0     H78506   3.457   3.159   8.111  0.1043  2.3649 -1.3263
  569MOL0     H78507   3.227   3.085   8.120  2.0405  4.2099 -1.0112
  569MOL0     H78508   2.820   2.999   7.714 -0.7690  3.0607 -0.0976
  569MOL0     H78509   2.579   2.949   7.719  0.0288  1.3022  0.2176
  569MOL0     H78510   2.475   2.705   8.025 -0.2151  0.3535 -1.3167
  569MOL0     H78511   2.363   2.796   8.129 -0.9250 -0.3841 -0.0276
  569MOL0     H78512   2.207   2.785   7.916 -0.6604  2.3674  2.9437
  569MOL0     H78513   2.194   2.693   8.056 -1.0040 -0.0425 -1.0197
  569MOL0     H78514   2.338   2.605   7.794  0.2364 -2.8323 -0.1271
  569MOL0     H78515   2.338   2.514   7.948 -0.2776 -2.1317 -2.1452
  569MOL0     H78516   2.076   2.592   7.829  2.1872  0.9682 -1.0497
  569MOL0     H78517   2.111   2.467   7.952 -0.2663  1.1105  0.5346
  569MOL0     H78518   2.115   2.267   7.597  0.1738  0.9637 -1.2969
  569MOL0     H78519   2.614   2.835   8.128  1.0329 -0.2630 -0.3188
  569MOL0     H78520   2.972   2.936   8.159  0.5196  1.2707  1.6612
  569MOL0     H78521   2.827   2.943   8.249 -1.2761  0.2350 -1.0057
  569MOL0     H78522   2.883   2.785   8.200  1.7548  0.6922  1.1867
  570MOL0     O78523   4.682   8.034   0.306  0.6322  0.4082  0.2290
  570MOL0     C78524   4.599   8.089   0.381  0.9024 -0.9185 -0.0348
  570MOL0     O78525   4.627   8.181   0.478  0.2564  0.4323 -0.1271
  570MOL0     C78526   4.751   8.224   0.506  0.2450  1.2457  0.4062
  570MOL0     C78527   4.862   8.142   0.516 -0.0408  0.1390  0.3611
  570MOL0     C78528   4.985   8.191   0.563 -0.1516  0.5468 -1.2895
  570MOL0     C78529   5.017   8.329   0.561 -0.2857  1.0505 -0.7588
  570MOL0     O78530   5.146   8.377   0.580  0.1137  0.0446 -0.3094
  570MOL0     C78531   5.189   8.378   0.717 -0.0709 -0.0107  0.0969
  570MOL0     C78532   5.285   8.489   0.750  0.2930 -0.4824 -0.5469
  570MOL0     C78533   5.338   8.485   0.889  0.1288  0.4008 -1.3642
  570MOL0     C78534   5.442   8.590   0.925  0.5601 -0.1325 -0.4293
  570MOL0     C78535   5.493   8.581   1.068 -0.9485 -0.6621 -0.0205
  570MOL0     C78536   5.633   8.527   1.088 -1.2436  0.8090 -0.4005
  570MOL0     C78537   5.659   8.501   1.236 -0.4137  0.1045  1.2651
  570MOL0     C78538   5.806   8.453   1.253 -0.2740  0.3409  0.7333
  570MOL0     N78539   5.849   8.438   1.397 -0.0410  0.3991  0.8395
  570MOL0     C78540   5.960   8.502   1.460  0.1500  0.5893 -0.0074
  570MOL0     C78541   5.973   8.441   1.581 -0.3517  0.9640  0.2074
  570MOL0     C78542   6.075   8.473   1.685 -0.7035 -0.0352 -0.8908
  570MOL0     C78543   6.206   8.405   1.660  0.2725  0.4272 -0.5803
  570MOL0     C78544   6.203   8.270   1.592 -0.2296  0.2003 -0.3607
  570MOL0     C78545   6.334   8.207   1.603  0.0379 -0.7439  1.3743
  570MOL0     O78546   6.415   8.255   1.491  0.2349 -0.2046  0.0643
  570MOL0     C78547   6.552   8.242   1.503  0.5227  0.2856 -0.2136
  570MOL0     C78548   6.635   8.342   1.455  0.9408 -0.2216 -0.8359
  570MOL0     C78549   6.773   8.333   1.464  0.1117 -0.2585  0.2250
  570MOL0     C78550   6.850   8.451   1.408 -0.0615 -0.1196 -0.3026
  570MOL0     C78551   6.823   8.213   1.515  0.6099  0.3675  0.4798
  570MOL0     C78552   6.959   8.180   1.501  0.2203 -0.3044 -0.7797
  570MOL0     O78553   7.032   8.174   1.617 -0.0878  0.0468  0.4008
  570MOL0     C78554   7.167   8.194   1.617  0.4932 -0.4202 -0.3731
  570MOL0     C78555   7.227   8.268   1.724  0.3972  1.5692 -0.4667
  570MOL0     C78556   7.368   8.280   1.729 -0.0728  0.2129 -0.0002
  570MOL0     C78557   7.451   8.207   1.647  0.3652 -0.0896  0.3688
  570MOL0     O78558   7.579   8.231   1.669 -0.1680  0.1872 -0.0640
  570MOL0     C78559   7.662   8.125   1.631 -0.3981  0.2058 -0.0756
  570MOL0     C78560   7.796   8.185   1.646 -0.4046  0.2321  0.0744
  570MOL0     C78561   7.898   8.112   1.545  0.1075  0.6609  0.4545
  570MOL0     C78562   8.044   8.147   1.573  0.0142  0.1199  0.3549
  570MOL0     C78563   8.081   8.272   1.481 -0.6191  0.3324 -0.1852
  570MOL0     C78564   8.217   8.330   1.522  0.2750  0.3046 -0.1630
  570MOL0     C78565   8.337   8.237   1.506 -0.2011  0.2436 -0.0891
  570MOL0     C78566   8.460   8.276   1.574  0.7435  0.1767 -0.1725
  570MOL0    Cl78567   8.522   8.444   1.545  0.0362 -0.0405 -0.5979
  570MOL0     C78568   7.390   8.123   1.553  0.5266  0.5045  0.6297
  570MOL0     C78569   7.249   8.118   1.544 -0.1539 -0.0878  0.0587
  570MOL0     O78570   7.011   8.194   1.388 -0.4271  0.3684  0.4870
  570MOL0     C78571   6.735   8.117   1.571 -0.0121  0.9642  0.7536
  570MOL0     C78572   6.602   8.130   1.567  0.2146  0.3016 -0.4248
  570MOL0     N78573   5.867   8.350   1.593  0.1210  0.1391  0.7681
  570MOL0     N78574   5.797   8.352   1.484 -0.6612  0.2943  0.6899
  570MOL0     C78575   4.905   8.408   0.531 -0.1966  0.1832  0.1756
  570MOL0     C78576   4.772   8.361   0.517 -0.7480  0.6179 -0.4948
  570MOL0     C78577   4.455   8.071   0.359  0.2468  0.4505  0.0903
  570MOL0     C78578   4.376   8.182   0.400 -0.5202  0.6773  0.1391
  570MOL0     C78579   4.243   8.172   0.397  0.6060 -0.2667 -0.5078
  570MOL0     C78580   4.175   8.064   0.351  0.4324 -0.5185  0.5705
  570MOL0     O78581   4.039   8.058   0.340 -0.1247 -0.2490 -0.8689
  570MOL0     C78582   3.996   8.158   0.249 -0.0483  0.0584  0.2514
  570MOL0     C78583   4.020   8.092   0.113 -0.3492 -0.0142  0.0672
  570MOL0     C78584   3.950   8.165   0.006 -0.5670 -0.3581 -0.1559
  570MOL0     C78585   4.003   8.144  -0.137 -0.0335 -1.3662 -0.2204
  570MOL0     C78586   3.938   8.024  -0.191 -0.2274  0.1115  0.5202
  570MOL0     C78587   3.869   7.932  -0.240 -0.1508  1.0893  1.0142
  570MOL0     C78588   4.247   7.958   0.301  0.0702  0.8565  0.3373
  570MOL0     C78589   4.386   7.958   0.311 -0.8370 -0.3458 -0.1925
  570MOL0     C78590   4.447   7.825   0.276 -0.0261  0.0492 -0.1274
  570MOL0     H78591   4.849   8.037   0.493  0.0219 -0.5597  3.1644
  570MOL0     H78592   5.073   8.131   0.586  1.5599  3.4647  0.2958
  570MOL0     H78593   5.241   8.289   0.752  0.3062 -0.2372 -1.0131
  570MOL0     H78594   5.098   8.399   0.774  0.6622 -3.0015  2.6587
  570MOL0     H78595   5.367   8.490   0.677  2.1551  3.7268  1.2875
  570MOL0     H78596   5.227   8.580   0.738 -0.9953 -1.4911 -2.5242
  570MOL0     H78597   5.258   8.496   0.963  1.9754  0.7767  0.6866
  570MOL0     H78598   5.381   8.385   0.904 -0.4336  0.2453 -0.7682
  570MOL0     H78599   5.521   8.590   0.850  0.3896  1.3629 -0.6240
  570MOL0     H78600   5.408   8.692   0.907  0.3915 -0.1021  0.0282
  570MOL0     H78601   5.425   8.524   1.131  2.5816 -2.3653  2.5440
  570MOL0     H78602   5.510   8.681   1.110  2.6067 -1.1941  0.1232
  570MOL0     H78603   5.662   8.439   1.030  2.6004  2.6098 -1.5202
  570MOL0     H78604   5.701   8.606   1.054  0.4421 -0.9770 -1.3622
  570MOL0     H78605   5.588   8.424   1.268  0.6049 -0.5062  2.1402
  570MOL0     H78606   5.640   8.588   1.300  2.0683  0.9629  0.9199
  570MOL0     H78607   5.829   8.360   1.200  1.8582  0.5846  1.1403
  570MOL0     H78608   5.869   8.524   1.198 -1.9656  0.4773 -1.1151
  570MOL0     H78609   6.021   8.582   1.420 -4.3465  3.1589 -2.6510
  570MOL0     H78610   6.033   8.453   1.784  0.4416 -0.1802 -0.4196
  570MOL0     H78611   6.092   8.581   1.692  2.6261 -0.5449  2.2260
  570MOL0     H78612   6.259   8.472   1.592 -1.0771  1.1684 -0.9403
  570MOL0     H78613   6.251   8.399   1.760 -3.3485 -0.9022  1.1488
  570MOL0     H78614   6.121   8.209   1.633 -1.2326  0.5033 -1.8565
  570MOL0     H78615   6.193   8.284   1.484  2.8172  1.8002 -0.5538
  570MOL0     H78616   6.377   8.240   1.697 -1.4830  1.0299  1.5045
  570MOL0     H78617   6.317   8.099   1.595 -0.6249 -0.5490 -0.3442
  570MOL0     H78618   6.579   8.429   1.423 -0.9990 -1.1634 -0.1715
  570MOL0     H78619   6.949   8.454   1.454 -0.9770 -0.8166  1.8451
  570MOL0     H78620   6.793   8.542   1.429 -1.6187 -0.8207 -1.2790
  570MOL0     H78621   6.852   8.450   1.299 -2.7210 -1.0898 -0.4187
  570MOL0     H78622   7.152   8.324   1.780 -1.4487  0.5553 -1.7965
  570MOL0     H78623   7.411   8.345   1.805 -0.5812  2.2729 -1.3953
  570MOL0     H78624   7.662   8.037   1.696 -1.1558 -0.2095 -0.6227
  570MOL0     H78625   7.660   8.104   1.523 -0.9000  1.3724 -0.3121
  570MOL0     H78626   7.785   8.290   1.617 -0.0041 -0.5003 -3.0127
  570MOL0     H78627   7.828   8.174   1.750  0.2740  0.9468 -0.0466
  570MOL0     H78628   7.865   8.126   1.441  4.2239 -0.0468 -1.1396
  570MOL0     H78629   7.899   8.003   1.555  1.4940  0.6260  0.1482
  570MOL0     H78630   8.107   8.060   1.551  0.1606  0.4389 -0.5270
  570MOL0     H78631   8.063   8.177   1.677 -2.6972  1.0332  0.6493
  570MOL0     H78632   8.075   8.249   1.374  0.1743 -3.0552  0.3767
  570MOL0     H78633   8.012   8.355   1.496  0.4823  1.1791  0.3612
  570MOL0     H78634   8.213   8.360   1.627  0.0120  0.7176 -0.2913
  570MOL0     H78635   8.231   8.420   1.462 -0.8979  2.0649  2.0319
  570MOL0     H78636   8.364   8.233   1.400  0.7336 -4.0594  0.1115
  570MOL0     H78637   8.320   8.132   1.534  0.6654 -0.3184 -1.5843
  570MOL0     H78638   8.538   8.203   1.549  0.4679 -0.5601  1.0312
  570MOL0     H78639   8.440   8.277   1.682 -2.4185  1.3217 -0.6721
  570MOL0     H78640   7.447   8.059   1.485 -0.9998  1.4774 -1.7104
  570MOL0     H78641   7.204   8.044   1.477  0.3799  1.5992 -2.2700
  570MOL0     H78642   6.770   8.018   1.600 -6.2583 -1.1204  2.7769
  570MOL0     H78643   6.538   8.060   1.619  2.3184  1.8596  4.9511
  570MOL0     H78644   4.914   8.516   0.522  0.9078  0.1207  0.4473
  570MOL0     H78645   4.697   8.431   0.482 -2.8850 -2.5004 -2.7568
  570MOL0     H78646   4.413   8.274   0.443  1.4941  0.0486 -0.1694
  570MOL0     H78647   4.191   8.252   0.448  1.9283  0.9214 -0.9361
  570MOL0     H78648   3.888   8.165   0.267 -0.5971 -3.3848 -0.9312
  570MOL0     H78649   4.043   8.257   0.254  0.9064 -0.3748  0.1685
  570MOL0     H78650   3.978   7.992   0.128 -0.5786  0.2441  1.2925
  570MOL0     H78651   4.127   8.095   0.092 -0.2417 -1.6590  0.2736
  570MOL0     H78652   3.847   8.128   0.007 -0.7533  0.1440 -0.6320
  570MOL0     H78653   3.932   8.269   0.034  2.3460  0.0263  0.6546
  570MOL0     H78654   4.113   8.139  -0.142  0.2372 -0.6920  3.0054
  570MOL0     H78655   3.969   8.236  -0.186 -0.1672 -1.1827  0.2168
  570MOL0     H78656   3.805   7.858  -0.284 -1.1873  2.6502 -0.2028
  570MOL0     H78657   4.204   7.864   0.267  0.8492  0.0536  1.4690
  570MOL0     H78658   4.518   7.823   0.193 -0.0248  1.4142 -0.1833
  570MOL0     H78659   4.510   7.813   0.365  1.2232  2.2879 -0.6343
  570MOL0     H78660   4.372   7.745   0.268 -0.4147  0.3690  0.2832
  571MOL0     O78661  11.006   7.307   4.189 -0.3087  0.3615  0.2004
  571MOL0     C78662  11.086   7.236   4.255 -0.2153 -0.2928  0.4075
  571MOL0     O78663  11.054   7.161   4.367  0.2659  0.1685  0.7002
  571MOL0     C78664  10.932   7.129   4.403  0.4601 -0.4717 -0.0904
  571MOL0     C78665  10.915   7.091   4.536 -0.3907 -0.0193 -0.0545
  571MOL0     C78666  10.792   7.048   4.592 -0.2675 -0.5292 -0.0070
  571MOL0     C78667  10.680   7.035   4.510  0.2732  0.2891 -0.4405
  571MOL0     O78668  10.554   7.009   4.566 -0.4444 -0.5117  0.0584
  571MOL0     C78669  10.438   7.017   4.475 -0.6003 -0.1700  0.0509
  571MOL0     C78670  10.316   6.974   4.563 -0.0966 -1.0173  0.2834
  571MOL0     C78671  10.183   6.986   4.484  0.5464  0.2624 -0.3436
  571MOL0     C78672  10.070   6.970   4.588 -0.1284 -0.4211 -0.1883
  571MOL0     C78673   9.934   6.986   4.536 -1.2834  0.6094 -0.0499
  571MOL0     C78674   9.831   6.946   4.644  0.2706  0.7161 -0.3325
  571MOL0     C78675   9.689   6.993   4.594  0.2837 -0.0654 -0.9708
  571MOL0     C78676   9.590   6.941   4.698  0.5510  0.3299 -0.4445
  571MOL0     N78677   9.453   6.988   4.662 -0.1632  0.0204 -0.3678
  571MOL0     C78678   9.414   7.115   4.646 -0.0040 -0.7568 -0.2379
  571MOL0     C78679   9.288   7.108   4.596  0.6485 -0.4123  0.2857
  571MOL0     C78680   9.191   7.228   4.578  0.2604  0.1278 -0.1910
  571MOL0     C78681   9.055   7.203   4.649  0.3525 -0.7890 -0.7370
  571MOL0     C78682   8.955   7.310   4.639 -0.5794 -0.3950 -0.3769
  571MOL0     C78683   8.849   7.282   4.733  0.8063  0.6669 -0.2686
  571MOL0     O78684   8.751   7.389   4.728 -0.0845  0.3479 -0.4682
  571MOL0     C78685   8.634   7.393   4.800  0.3036  0.4714 -0.6412
  571MOL0     C78686   8.576   7.286   4.870 -0.1491  0.8263  0.0956
  571MOL0     C78687   8.456   7.300   4.937 -0.1412  0.3909 -0.0659
  571MOL0     C78688   8.424   7.187   5.031  0.3895  0.0405 -0.2934
  571MOL0     C78689   8.380   7.423   4.924 -0.3314  0.6904  0.5503
  571MOL0     C78690   8.252   7.454   4.991 -0.4549  1.2558  0.0288
  571MOL0     O78691   8.205   7.578   4.974  0.2644 -0.7383  0.0950
  571MOL0     C78692   8.070   7.611   4.974 -0.4007 -0.5142 -0.5972
  571MOL0     C78693   7.964   7.510   4.965  0.2155 -0.2635  0.5232
  571MOL0     C78694   7.830   7.551   4.983  0.2426 -0.4353 -0.4145
  571MOL0     C78695   7.799   7.684   5.012  0.4759 -0.3918 -0.3082
  571MOL0     O78696   7.670   7.726   5.022  0.4176  0.1455  0.0252
  571MOL0     C78697   7.621   7.846   4.964 -0.1949 -0.4992  0.5296
  571MOL0     C78698   7.571   7.939   5.067  0.3466  0.6341  0.6337
  571MOL0     C78699   7.430   7.901   5.111 -0.2879  0.2897 -0.1568
  571MOL0     C78700   7.320   7.935   5.012 -0.4746 -0.4485 -0.4105
  571MOL0     C78701   7.190   7.952   5.097  0.0994  0.1821 -1.0244
  571MOL0     C78702   7.061   7.960   5.026  0.6106 -0.9708 -0.2102
  571MOL0     C78703   7.040   8.100   4.959 -0.1027  1.3822  0.5503
  571MOL0     C78704   6.947   8.079   4.838 -0.3016 -0.2053 -0.0092
  571MOL0    Cl78705   6.889   8.234   4.788 -0.1620 -0.4834 -0.1166
  571MOL0     C78706   7.902   7.778   5.023  0.1273 -0.0762  0.1694
  571MOL0     C78707   8.036   7.740   5.007  0.0114 -0.3293  0.5686
  571MOL0     O78708   8.205   7.360   5.057  0.1862 -0.0537 -0.4683
  571MOL0     C78709   8.427   7.528   4.841 -0.5370  0.0213 -0.3077
  571MOL0     C78710   8.557   7.514   4.788  0.9391  0.6696 -0.6683
  571MOL0     N78711   9.263   6.970   4.571 -0.7628  0.5849  0.1805
  571MOL0     N78712   9.360   6.903   4.615  0.3519 -0.2073  0.1385
  571MOL0     C78713  10.699   7.062   4.373 -0.0445  0.4478  0.0307
  571MOL0     C78714  10.813   7.117   4.324 -0.4194 -0.2398 -0.1609
  571MOL0     C78715  11.232   7.241   4.214 -0.0230 -1.1353 -0.5508
  571MOL0     C78716  11.327   7.225   4.315 -0.1356  0.5725  0.3760
  571MOL0     C78717  11.463   7.243   4.292  1.0841 -0.3595 -0.6246
  571MOL0     C78718  11.515   7.259   4.170 -0.2626 -0.7128  0.6001
  571MOL0     O78719  11.653   7.260   4.131 -0.1953 -0.2733 -0.4627
  571MOL0     C78720  11.755   7.265   4.228  0.0675 -0.1481  0.0669
  571MOL0     C78721  11.882   7.291   4.153 -0.4377 -0.2295  0.3322
  571MOL0     C78722  11.887   7.415   4.063  0.2277 -0.2458 -0.5266
  571MOL0     C78723  12.034   7.459   4.025 -0.4833 -0.3114  0.3395
  571MOL0     C78724  12.028   7.590   3.952  0.7360  0.2960  0.5455
  571MOL0     C78725  12.013   7.702   3.906  0.0434 -0.0376 -0.4805
  571MOL0     C78726  11.426   7.271   4.070  0.1773  0.2415 -1.0539
  571MOL0     C78727  11.283   7.261   4.084  0.4742  0.6860 -0.8630
  571MOL0     C78728  11.202   7.286   3.961 -0.3445 -0.3471  0.4256
  571MOL0     H78729  10.992   7.086   4.612  0.1572 -2.3554 -0.6726
  571MOL0     H78730  10.783   7.023   4.697 -0.8818  0.6242  0.2355
  571MOL0     H78731  10.449   6.939   4.399 -0.4675  0.3079 -0.4269
  571MOL0     H78732  10.444   7.113   4.424  3.6499 -1.2402 -1.9734
  571MOL0     H78733  10.323   6.871   4.599 -2.2343 -1.6890 -1.0480
  571MOL0     H78734  10.301   7.045   4.645  0.7560 -0.8542  0.3087
  571MOL0     H78735  10.178   7.086   4.440  0.5155  0.7664  0.7741
  571MOL0     H78736  10.170   6.906   4.411 -1.7219  0.5366 -0.2957
  571MOL0     H78737  10.096   6.875   4.637  3.7730 -0.8800 -2.6874
  571MOL0     H78738  10.088   7.040   4.670  2.0583 -1.5370  0.3794
  571MOL0     H78739   9.921   6.929   4.444  0.2591  2.3252 -1.4093
  571MOL0     H78740   9.929   7.091   4.507 -0.7093  0.6984  0.1542
  571MOL0     H78741   9.826   6.840   4.669 -2.4468  0.9610  0.4187
  571MOL0     H78742   9.856   6.983   4.743  0.6728 -0.4428  0.0105
  571MOL0     H78743   9.667   6.954   4.494  1.5935  0.0324 -1.3098
  571MOL0     H78744   9.670   7.100   4.591 -2.2990 -0.4409 -0.9894
  571MOL0     H78745   9.592   6.831   4.703 -0.6316  0.3344  2.1935
  571MOL0     H78746   9.621   6.968   4.799 -1.6860 -0.0278  0.3971
  571MOL0     H78747   9.469   7.204   4.677 -1.1315 -0.6683  1.6490
  571MOL0     H78748   9.181   7.249   4.471 -1.2503 -0.2686 -0.1385
  571MOL0     H78749   9.234   7.316   4.626  1.9730 -1.3774  1.1789
  571MOL0     H78750   9.022   7.107   4.608  0.7749 -0.7108 -1.2757
  571MOL0     H78751   9.077   7.198   4.756  3.0778  0.1870 -1.1840
  571MOL0     H78752   8.997   7.406   4.670  0.8605 -0.9883 -0.4276
  571MOL0     H78753   8.915   7.312   4.537 -1.2935  4.3735 -0.2319
  571MOL0     H78754   8.797   7.191   4.700  2.1227  0.5982 -2.3673
  571MOL0     H78755   8.900   7.273   4.830 -0.2359  1.3192  0.3611
  571MOL0     H78756   8.636   7.199   4.895  0.5984  1.3097  0.0052
  571MOL0     H78757   8.494   7.103   5.023 -0.3408 -0.4974 -1.2083
  571MOL0     H78758   8.330   7.144   4.995 -0.5664  2.1587 -0.4838
  571MOL0     H78759   8.416   7.218   5.135 -1.2297  1.6633 -0.8637
  571MOL0     H78760   7.980   7.404   4.947 -1.8668 -0.3334 -1.3977
  571MOL0     H78761   7.749   7.480   4.969  0.8809 -1.1754 -0.4245
  571MOL0     H78762   7.690   7.894   4.895 -1.8812 -2.2306 -2.5920
  571MOL0     H78763   7.536   7.813   4.903 -1.9065  0.3059  2.3422
  571MOL0     H78764   7.640   7.930   5.152 -0.4372  0.8593  1.3036
  571MOL0     H78765   7.578   8.038   5.019  3.6777 -0.1887 -0.8670
  571MOL0     H78766   7.417   7.948   5.209 -2.3854  0.4364 -0.4662
  571MOL0     H78767   7.425   7.792   5.127  2.0791  0.4533  2.7269
  571MOL0     H78768   7.300   7.865   4.931  0.5667 -1.2775  0.0169
  571MOL0     H78769   7.342   8.038   4.983  1.1254  0.2490  2.7767
  571MOL0     H78770   7.186   7.856   5.150 -0.9317  0.9212  0.3186
  571MOL0     H78771   7.213   8.031   5.169 -0.0055  2.5969 -3.4964
  571MOL0     H78772   6.981   7.943   5.099  0.0499  2.3535  0.1358
  571MOL0     H78773   7.053   7.877   4.955 -2.6177 -0.2196 -0.8711
  571MOL0     H78774   7.139   8.128   4.924  0.7202 -2.9577 -1.2891
  571MOL0     H78775   6.984   8.173   5.018 -2.5275  1.5169 -1.7003
  571MOL0     H78776   6.865   8.007   4.848  1.0528 -1.9154 -0.6401
  571MOL0     H78777   7.010   8.033   4.761  0.9628 -1.1624  1.5066
  571MOL0     H78778   7.889   7.884   5.040  0.2218  0.2566 -1.6089
  571MOL0     H78779   8.114   7.814   5.024 -1.6892  1.6626  0.2309
  571MOL0     H78780   8.385   7.628   4.847 -0.5681 -0.0707  2.4029
  571MOL0     H78781   8.604   7.604   4.749 -2.8730  1.7799 -3.3071
  571MOL0     H78782  10.616   7.047   4.304  0.3090 -1.0458 -0.1042
  571MOL0     H78783  10.808   7.152   4.222  1.1065  2.9853  0.7254
  571MOL0     H78784  11.291   7.208   4.416 -1.3123 -0.2663 -0.1783
  571MOL0     H78785  11.525   7.235   4.381  1.1424 -3.3293 -0.8372
  571MOL0     H78786  11.743   7.348   4.299 -0.3963  0.8564 -1.1546
  571MOL0     H78787  11.763   7.173   4.286  0.0633  0.9922  1.9679
  571MOL0     H78788  11.902   7.200   4.096 -2.4216 -0.2561 -0.3738
  571MOL0     H78789  11.964   7.306   4.225 -0.1372 -2.3050  0.4707
  571MOL0     H78790  11.826   7.394   3.975  0.6668  1.1924 -1.2029
  571MOL0     H78791  11.843   7.501   4.114  0.5312  2.4670 -4.4109
  571MOL0     H78792  12.084   7.388   3.958  0.5879 -0.5191  1.3243
  571MOL0     H78793  12.094   7.468   4.116  0.5979  0.3689 -0.4158
  571MOL0     H78794  12.019   7.805   3.877 -1.0138  1.0328  2.6526
  571MOL0     H78795  11.475   7.291   3.975  2.4037 -0.9386 -0.2250
  571MOL0     H78796  11.274   7.317   3.885 -0.5721 -0.7187  0.0574
  571MOL0     H78797  11.141   7.197   3.941 -2.4252  0.7072  1.7529
  571MOL0     H78798  11.129   7.367   3.967 -2.0564 -1.7672 -0.3159
  572MOL0     O78799   9.214   5.578   3.213  0.0938  0.3132  0.1044
  572MOL0     C78800   9.190   5.457   3.223  0.1979 -0.1712  0.2005
  572MOL0     O78801   9.255   5.365   3.149 -0.3705 -0.0791  0.6963
  572MOL0     C78802   9.384   5.392   3.107  0.5034 -0.2346 -0.3351
  572MOL0     C78803   9.400   5.486   3.002  0.3185  0.3084  0.6464
  572MOL0     C78804   9.526   5.527   2.959 -0.6001  0.1618 -0.2820
  572MOL0     C78805   9.640   5.491   3.031  0.0298  0.6243 -0.2639
  572MOL0     O78806   9.770   5.531   2.999 -0.4283 -0.0440 -0.4013
  572MOL0     C78807   9.786   5.670   2.978 -0.5991 -0.2623  0.0778
  572MOL0     C78808   9.923   5.719   2.921  0.0895  0.3105  0.6600
  572MOL0     C78809   9.941   5.869   2.933 -0.2934  0.3514 -0.0338
  572MOL0     C78810   9.939   5.932   2.795  0.3701  0.6395  0.4578
  572MOL0     C78811   9.988   6.074   2.801 -0.7248  0.1917 -0.1076
  572MOL0     C78812   9.972   6.151   2.672 -0.2439  0.0459 -0.3922
  572MOL0     C78813  10.069   6.096   2.572 -0.0018 -0.1444 -0.5776
  572MOL0     C78814  10.099   6.208   2.465  0.2822 -0.0131  0.0372
  572MOL0     N78815  10.204   6.184   2.373 -0.6368 -0.7358  0.0922
  572MOL0     C78816  10.344   6.178   2.401 -0.9444 -0.0819 -0.7629
  572MOL0     C78817  10.403   6.189   2.281 -0.1651  0.1574  0.0676
  572MOL0     C78818  10.551   6.182   2.255  1.1640  0.1948 -0.1348
  572MOL0     C78819  10.635   6.161   2.379 -0.2772 -0.2281 -0.1041
  572MOL0     C78820  10.792   6.152   2.356  0.2495 -0.1471  0.5232
  572MOL0     C78821  10.851   6.055   2.251  1.1762 -0.3610  0.0878
  572MOL0     O78822  10.993   6.088   2.238  0.2634  0.0971 -0.4297
  572MOL0     C78823  11.088   6.016   2.303  0.8050  0.6037  0.3575
  572MOL0     C78824  11.058   5.921   2.396 -0.2253 -0.3688  0.5457
  572MOL0     C78825  11.148   5.829   2.447 -0.2293 -0.6474 -0.0374
  572MOL0     C78826  11.101   5.719   2.536 -0.7454 -0.5766  0.4718
  572MOL0     C78827  11.288   5.861   2.430  0.4551  0.6207 -0.0432
  572MOL0     C78828  11.407   5.787   2.504 -0.1848  0.3099  0.6022
  572MOL0     O78829  11.535   5.837   2.469 -0.1425 -0.6248 -0.1047
  572MOL0     C78830  11.653   5.784   2.527  0.3169  0.2162 -0.3539
  572MOL0     C78831  11.756   5.866   2.522 -0.2064 -0.3873  0.7891
  572MOL0     C78832  11.882   5.818   2.568 -0.3416 -0.6602  0.4693
  572MOL0     C78833  11.900   5.695   2.627  0.6488 -1.0672 -0.0172
  572MOL0     O78834  12.027   5.656   2.657 -0.2938 -0.3965  0.3758
  572MOL0     C78835  12.050   5.513   2.672 -0.0240  0.0597  0.0207
  572MOL0     C78836  12.188   5.493   2.737  0.0639 -0.1619 -0.1888
  572MOL0     C78837  12.176   5.514   2.887  0.2091 -0.1898  0.3681
  572MOL0     C78838  12.319   5.520   2.937 -0.9020 -0.2406 -0.8635
  572MOL0     C78839  12.347   5.546   3.085 -0.7375 -0.4574  0.2620
  572MOL0     C78840  12.493   5.535   3.125  0.8813  0.0252  0.3051
  572MOL0     C78841  12.521   5.533   3.278 -0.1944  0.0796  0.5428
  572MOL0     C78842  12.614   5.423   3.345  1.4035 -0.9439  0.5499
  572MOL0    Cl78843  12.787   5.427   3.286 -0.2295 -0.1162 -0.0357
  572MOL0     C78844  11.789   5.611   2.627 -0.1233  0.8762 -0.2297
  572MOL0     C78845  11.672   5.658   2.580  0.0907 -0.5552  0.1899
  572MOL0     O78846  11.385   5.683   2.565  0.6782 -0.5344 -0.0163
  572MOL0     C78847  11.320   5.964   2.337 -0.1216  0.6065  0.1707
  572MOL0     C78848  11.220   6.030   2.272  0.5683 -0.7406 -0.3832
  572MOL0     N78849  10.306   6.182   2.186 -0.2418  0.3897  0.1956
  572MOL0     N78850  10.184   6.164   2.235 -1.2256  0.1503  0.8055
  572MOL0     C78851   9.622   5.384   3.121 -0.4347  0.0451 -0.8947
  572MOL0     C78852   9.491   5.335   3.166 -0.4605 -0.0065  0.4243
  572MOL0     C78853   9.078   5.407   3.306 -0.6389  0.0742 -0.0333
  572MOL0     C78854   9.052   5.268   3.300  1.3662 -0.9280  0.2812
  572MOL0     C78855   8.957   5.208   3.376 -0.6198  0.2164  0.3881
  572MOL0     C78856   8.870   5.291   3.457  0.4061  0.7223 -0.7570
  572MOL0     O78857   8.773   5.250   3.539 -0.2895 -0.7082 -0.0150
  572MOL0     C78858   8.754   5.112   3.555 -0.0576 -0.8023  0.0099
  572MOL0     C78859   8.624   5.083   3.633 -0.1749  0.2025 -0.5831
  572MOL0     C78860   8.502   5.149   3.564  0.3363 -1.3664  0.3719
  572MOL0     C78861   8.367   5.122   3.638  0.0864  0.0585 -0.5454
  572MOL0     C78862   8.341   4.982   3.624 -0.3141 -0.9068 -0.3777
  572MOL0     C78863   8.296   4.868   3.616  0.1062  0.0762  0.2173
  572MOL0     C78864   8.904   5.428   3.473 -0.5668 -0.2513 -0.2692
  572MOL0     C78865   9.002   5.488   3.398 -0.0607 -0.0806 -0.1909
  572MOL0     C78866   9.014   5.639   3.431 -0.7734  0.5973  0.1641
  572MOL0     H78867   9.316   5.528   2.948  0.3273 -1.3977 -0.7924
  572MOL0     H78868   9.543   5.595   2.876  0.0322  0.6385  0.2380
  572MOL0     H78869   9.777   5.708   3.081  3.0841  2.2884 -0.3343
  572MOL0     H78870   9.707   5.713   2.916 -2.4203 -3.1981  0.2035
  572MOL0     H78871  10.006   5.668   2.970  2.2662  1.7869 -1.2800
  572MOL0     H78872   9.934   5.692   2.815  1.5191  1.0549  0.6010
  572MOL0     H78873   9.865   5.910   3.001 -1.1045  1.2634 -1.4318
  572MOL0     H78874  10.041   5.892   2.971 -0.6205  0.2801  0.8913
  572MOL0     H78875  10.009   5.875   2.733 -0.5177 -0.9655  0.8640
  572MOL0     H78876   9.841   5.927   2.747  0.7268  3.7836 -0.8184
  572MOL0     H78877  10.085   6.092   2.847 -0.4071 -0.3886 -0.5429
  572MOL0     H78878   9.916   6.119   2.871 -0.2789  1.1662 -0.2560
  572MOL0     H78879   9.873   6.141   2.627 -0.4583 -1.1513  0.3171
  572MOL0     H78880   9.996   6.253   2.702  1.3803 -0.7480  1.1859
  572MOL0     H78881  10.027   6.003   2.535 -0.9716  0.0876 -0.0940
  572MOL0     H78882  10.164   6.069   2.620 -0.6265 -0.0143  0.7594
  572MOL0     H78883  10.015   6.214   2.395  0.0314  1.8401  0.4400
  572MOL0     H78884  10.107   6.306   2.513 -0.6987 -1.6842  4.0385
  572MOL0     H78885  10.395   6.165   2.495 -1.7579 -1.9413 -0.5237
  572MOL0     H78886  10.586   6.268   2.197 -1.1852  0.0038 -1.9909
  572MOL0     H78887  10.571   6.107   2.178 -0.4732 -0.7649  0.3238
  572MOL0     H78888  10.614   6.243   2.448 -0.2855  0.6187 -1.0816
  572MOL0     H78889  10.602   6.069   2.427 -1.2179  0.8482  1.3849
  572MOL0     H78890  10.817   6.253   2.322  0.9047 -0.7806 -0.9395
  572MOL0     H78891  10.843   6.145   2.453 -1.1503  0.4706  1.3494
  572MOL0     H78892  10.840   5.948   2.273  0.3821 -0.3491 -0.2520
  572MOL0     H78893  10.800   6.069   2.155  0.9904 -0.8213  0.1147
  572MOL0     H78894  10.956   5.912   2.429 -0.3353 -0.9000  0.0702
  572MOL0     H78895  11.141   5.623   2.501 -0.1312 -0.8303  1.8177
  572MOL0     H78896  10.993   5.722   2.552 -1.0346  1.7151 -1.3805
  572MOL0     H78897  11.146   5.728   2.635  2.2208 -0.9673 -0.7391
  572MOL0     H78898  11.750   5.965   2.479  1.0614 -0.8244 -0.4827
  572MOL0     H78899  11.973   5.877   2.571 -0.5152 -0.4278  1.1851
  572MOL0     H78900  11.974   5.471   2.738  0.0703  0.6059  0.4886
  572MOL0     H78901  12.049   5.460   2.577  0.9302  0.8009 -0.4291
  572MOL0     H78902  12.216   5.389   2.716 -2.3189 -0.5536 -1.7664
  572MOL0     H78903  12.270   5.551   2.692  0.1570 -2.0900 -2.7042
  572MOL0     H78904  12.122   5.434   2.939 -1.6617 -0.1003 -1.3494
  572MOL0     H78905  12.120   5.606   2.907  0.1501 -0.2213  0.3471
  572MOL0     H78906  12.365   5.608   2.890  1.5502 -0.7622  0.3583
  572MOL0     H78907  12.381   5.435   2.907 -0.5654 -0.2390 -0.1999
  572MOL0     H78908  12.314   5.647   3.111  1.1540  0.5182 -0.9172
  572MOL0     H78909  12.292   5.476   3.149 -0.7298  1.8969  3.0480
  572MOL0     H78910  12.541   5.620   3.076  0.6084 -0.6878 -1.2694
  572MOL0     H78911  12.537   5.440   3.093  3.0475  1.5656 -1.5763
  572MOL0     H78912  12.428   5.546   3.332 -2.3540  1.8756 -3.1778
  572MOL0     H78913  12.585   5.622   3.276 -1.4288  0.9875 -1.0553
  572MOL0     H78914  12.563   5.329   3.323 -3.2690  1.0938  1.2785
  572MOL0     H78915  12.611   5.430   3.454 -0.0157 -1.9618  0.6061
  572MOL0     H78916  11.788   5.508   2.662 -1.5143  0.7506 -0.5806
  572MOL0     H78917  11.597   5.580   2.584 -1.5627  0.9628  0.2395
  572MOL0     H78918  11.422   5.986   2.309 -0.6432  2.2054 -0.5609
  572MOL0     H78919  11.244   6.111   2.205  0.8563  0.3736  1.0202
  572MOL0     H78920   9.716   5.351   3.163 -0.2050 -0.1325 -1.5329
  572MOL0     H78921   9.471   5.255   3.237 -2.5127  2.0916  2.3981
  572MOL0     H78922   9.117   5.200   3.246  2.4096  1.2723 -1.3893
  572MOL0     H78923   8.966   5.100   3.368 -0.0758  0.0829  2.3794
  572MOL0     H78924   8.751   5.056   3.461 -0.3378 -5.2464  2.3811
  572MOL0     H78925   8.838   5.065   3.607 -0.3665 -0.0051  1.2497
  572MOL0     H78926   8.623   5.114   3.738  0.4111 -0.3972 -0.3887
  572MOL0     H78927   8.608   4.974   3.639 -2.8443  0.5939  2.9252
  572MOL0     H78928   8.520   5.256   3.545  2.4720 -1.9491 -1.2548
  572MOL0     H78929   8.494   5.108   3.463  2.5585 -0.0206 -0.4380
  572MOL0     H78930   8.300   5.191   3.586  1.4790  1.4356 -0.6179
  572MOL0     H78931   8.361   5.144   3.745 -0.9862 -1.1863 -0.3265
  572MOL0     H78932   8.244   4.774   3.613 -0.2693  0.3007 -0.5092
  572MOL0     H78933   8.839   5.482   3.541 -0.7976  2.4722 -2.4736
  572MOL0     H78934   8.958   5.663   3.522 -1.0250 -0.2659  0.2400
  572MOL0     H78935   9.120   5.663   3.445 -0.3013 -1.9158  1.5092
  572MOL0     H78936   8.977   5.699   3.347  3.2161  2.5429 -0.4714
  573MOL0     O78937   6.672   4.454   9.517 -0.7782  0.8424  0.4328
  573MOL0     C78938   6.679   4.434   9.393 -0.3315 -0.7660  0.5332
  573MOL0     O78939   6.592   4.361   9.316 -0.5721 -0.2704  0.2061
  573MOL0     C78940   6.481   4.302   9.368 -0.9668  1.1947  0.0922
  573MOL0     C78941   6.422   4.204   9.288  0.0108  0.3870  0.0533
  573MOL0     C78942   6.299   4.143   9.312  0.0091  0.2264  0.4447
  573MOL0     C78943   6.231   4.176   9.433  0.3351  0.0886  0.1388
  573MOL0     O78944   6.117   4.104   9.459  0.4986 -0.4228  0.2150
  573MOL0     C78945   6.011   4.165   9.544  0.6498  0.1023  0.4181
  573MOL0     C78946   5.867   4.121   9.511  0.4130  0.5949 -0.3872
  573MOL0     C78947   5.842   4.133   9.358  0.5590  0.2874  0.3832
  573MOL0     C78948   5.844   4.280   9.307 -0.0918 -0.1580 -0.0745
  573MOL0     C78949   5.798   4.295   9.165  0.2455 -1.0895 -0.1525
  573MOL0     C78950   5.827   4.440   9.129  0.3864  0.5224 -0.7421
  573MOL0     C78951   5.735   4.537   9.210 -0.8093  0.1193 -0.1615
  573MOL0     C78952   5.758   4.674   9.159  0.4353 -0.0775  0.5159
  573MOL0     N78953   5.734   4.777   9.257 -1.1102 -0.3926  0.1003
  573MOL0     C78954   5.634   4.793   9.349  0.0144 -0.8198 -0.3794
  573MOL0     C78955   5.665   4.914   9.408 -0.5341  0.0976 -0.2989
  573MOL0     C78956   5.595   4.991   9.514  0.1911  0.1049 -0.4932
  573MOL0     C78957   5.663   4.952   9.646 -0.5828  1.1060 -0.5186
  573MOL0     C78958   5.787   5.040   9.659 -0.7741  0.1579 -0.2661
  573MOL0     C78959   5.834   5.033   9.802  0.5281 -0.2629 -0.4738
  573MOL0     O78960   5.866   4.902   9.836  0.4379 -0.8102 -1.0094
  573MOL0     C78961   5.953   4.873   9.936 -0.2070 -0.1262 -0.3577
  573MOL0     C78962   5.948   4.740   9.985 -0.3379  0.2556  0.4853
  573MOL0     C78963   6.030   4.696  10.093  0.2241 -0.5094 -0.7326
  573MOL0     C78964   6.020   4.554  10.134  0.0825  0.2942 -0.4928
  573MOL0     C78965   6.120   4.792  10.155  0.4330 -0.0162  0.0457
  573MOL0     C78966   6.211   4.754  10.268  0.3170  0.2029 -0.2510
  573MOL0     O78967   6.241   4.851  10.356 -0.1150 -0.1458 -0.3318
  573MOL0     C78968   6.338   4.840  10.461 -0.8293  0.0829  0.2223
  573MOL0     C78969   6.403   4.959  10.495 -0.5527  0.0100 -0.8768
  573MOL0     C78970   6.490   4.963  10.600 -0.2682  0.2051 -0.5954
  573MOL0     C78971   6.499   4.849  10.680 -0.1522 -1.0072 -0.2470
  573MOL0     O78972   6.570   4.856  10.791 -0.0708  0.0027 -0.3278
  573MOL0     C78973   6.716   4.854  10.781  0.3830  0.7960  0.3499
  573MOL0     C78974   6.759   4.711  10.753 -0.7293 -0.2340 -0.9153
  573MOL0     C78975   6.907   4.708  10.708  0.0542 -0.4421  0.2598
  573MOL0     C78976   6.954   4.566  10.663 -0.4126 -0.0520  0.3083
  573MOL0     C78977   7.090   4.577  10.600 -0.4846 -0.5343  0.0569
  573MOL0     C78978   7.194   4.585  10.706 -0.7032 -0.0073  0.2123
  573MOL0     C78979   7.328   4.558  10.646 -1.1943 -0.2420  0.5304
  573MOL0     C78980   7.446   4.602  10.733 -0.1282  0.4468 -0.0799
  573MOL0    Cl78981   7.464   4.496  10.887 -0.6056 -0.0215 -0.2552
  573MOL0     C78982   6.424   4.726  10.650 -0.6854 -0.0667 -0.8591
  573MOL0     C78983   6.352   4.719  10.533  0.3049 -0.1108 -0.6746
  573MOL0     O78984   6.269   4.647  10.261 -0.5823  0.4619  0.6584
  573MOL0     C78985   6.112   4.918  10.107 -0.0443 -0.6411  0.5631
  573MOL0     C78986   6.043   4.964   9.994 -0.1488  0.2246 -0.5891
  573MOL0     N78987   5.783   4.956   9.344 -0.3374 -0.0228 -0.2482
  573MOL0     N78988   5.816   4.879   9.257 -0.6036  0.5625  0.4592
  573MOL0     C78989   6.296   4.262   9.528  0.4800 -0.2276 -0.2999
  573MOL0     C78990   6.416   4.330   9.493 -0.8481 -0.8503 -0.3246
  573MOL0     C78991   6.800   4.493   9.317 -0.8803  0.0377 -0.4654
  573MOL0     C78992   6.894   4.567   9.400 -0.4038 -0.0183  0.3719
  573MOL0     C78993   7.015   4.618   9.353 -0.1997  0.3211  0.5592
  573MOL0     C78994   7.051   4.603   9.223  0.8476 -0.3880  1.3117
  573MOL0     O78995   7.171   4.643   9.187 -0.3196  0.3695 -0.3793
  573MOL0     C78996   7.236   4.564   9.089  0.3956  0.3884  0.4660
  573MOL0     C78997   7.387   4.588   9.080 -0.4551 -0.1817  0.0297
  573MOL0     C78998   7.457   4.576   9.211  0.1295 -0.1607 -0.3017
  573MOL0     C78999   7.611   4.593   9.220  0.1826 -0.5874 -0.0872
  573MOL0     C79000   7.665   4.574   9.357  0.2301 -0.1201 -0.2376
  573MOL0     C79001   7.701   4.538   9.467  0.6738 -0.7525  0.4777
  573MOL0     C79002   6.953   4.550   9.131  0.4577  1.3914  0.0510
  573MOL0     C79003   6.830   4.490   9.176  0.5507 -0.6575 -0.4863
  573MOL0     C79004   6.738   4.452   9.063  0.0351  0.1442 -0.4805
  573MOL0     H79005   6.476   4.172   9.200 -1.4035  0.4183 -0.8537
  573MOL0     H79006   6.259   4.076   9.237  0.1145 -1.7393  2.0558
  573MOL0     H79007   6.026   4.273   9.536  1.0641 -0.0353 -0.8051
  573MOL0     H79008   6.023   4.133   9.648 -0.2231 -0.5197  0.3395
  573MOL0     H79009   5.852   4.020   9.551  0.5409  0.7536  0.0632
  573MOL0     H79010   5.798   4.174   9.577  1.7227  0.6308  1.0004
  573MOL0     H79011   5.908   4.088   9.283 -1.7245  1.2616 -2.3778
  573MOL0     H79012   5.748   4.080   9.343  1.9212 -1.5046 -2.8922
  573MOL0     H79013   5.781   4.335   9.376  0.2020 -1.0622  0.9331
  573MOL0     H79014   5.949   4.306   9.326  0.1058 -1.2419  0.4158
  573MOL0     H79015   5.691   4.276   9.159 -0.0942  0.7851 -0.9333
  573MOL0     H79016   5.857   4.233   9.097 -0.3227  1.2607 -3.0328
  573MOL0     H79017   5.926   4.484   9.142 -0.3364  2.3005 -0.9193
  573MOL0     H79018   5.804   4.439   9.022 -1.8770 -0.2308 -0.3007
  573MOL0     H79019   5.757   4.540   9.317  1.5394  2.6392 -0.6078
  573MOL0     H79020   5.630   4.512   9.191 -1.6975  2.4371  1.2733
  573MOL0     H79021   5.859   4.687   9.120  0.5242 -0.8792  0.4513
  573MOL0     H79022   5.703   4.685   9.065 -1.6470 -1.3859  1.5127
  573MOL0     H79023   5.541   4.743   9.375  0.1472 -0.2610  1.2486
  573MOL0     H79024   5.490   4.959   9.519 -0.1493  0.8324 -2.2547
  573MOL0     H79025   5.603   5.097   9.489  1.8896  0.0036 -0.4703
  573MOL0     H79026   5.594   4.976   9.728 -2.2911 -1.9022 -0.9363
  573MOL0     H79027   5.697   4.848   9.643 -0.8875  0.9622  0.5193
  573MOL0     H79028   5.858   4.996   9.589 -1.7082 -3.1887  0.6737
  573MOL0     H79029   5.770   5.144   9.629 -0.8412 -0.0386 -0.9277
  573MOL0     H79030   5.929   5.088   9.804 -0.2992  1.1968  1.5237
  573MOL0     H79031   5.762   5.086   9.864  2.2930 -1.9198  3.2675
  573MOL0     H79032   5.889   4.670   9.927  0.0520  1.4815 -1.4984
  573MOL0     H79033   5.945   4.497  10.078  0.0851 -0.2512  0.0553
  573MOL0     H79034   5.996   4.537  10.239 -4.1723  1.0288 -1.1287
  573MOL0     H79035   6.115   4.506  10.111  0.2031  1.5308 -2.9213
  573MOL0     H79036   6.382   5.049  10.438 -2.5546  0.0689 -0.1056
  573MOL0     H79037   6.550   5.049  10.628  0.4169 -1.0373  2.0118
  573MOL0     H79038   6.745   4.924  10.703 -1.3189  0.3194 -0.7637
  573MOL0     H79039   6.765   4.891  10.871  0.3590  1.5364  0.0620
  573MOL0     H79040   6.726   4.651  10.838 -1.5476 -1.0166 -1.7621
  573MOL0     H79041   6.696   4.677  10.670 -0.2511 -1.4872 -0.7736
  573MOL0     H79042   6.971   4.739  10.791  1.7285 -2.8880 -0.0219
  573MOL0     H79043   6.906   4.781  10.627  0.4556  1.9272  2.2668
  573MOL0     H79044   6.882   4.533  10.587  1.0016  1.2347 -1.6951
  573MOL0     H79045   6.942   4.488  10.739  0.9434  1.2073  1.8778
  573MOL0     H79046   7.107   4.484  10.545 -1.0634  0.2336 -1.4703
  573MOL0     H79047   7.093   4.660  10.528 -1.6186  0.1313  0.7541
  573MOL0     H79048   7.192   4.504  10.779  4.8891 -0.3171  0.4301
  573MOL0     H79049   7.196   4.686  10.747  1.1853 -0.4439  1.3236
  573MOL0     H79050   7.329   4.612  10.551  2.6342 -1.1925 -0.1451
  573MOL0     H79051   7.332   4.450  10.629 -3.2579 -0.6299  2.1229
  573MOL0     H79052   7.434   4.707  10.762  1.7911  0.4680  0.7497
  573MOL0     H79053   7.540   4.585  10.681 -0.2454 -0.9884  0.1496
  573MOL0     H79054   6.437   4.638  10.712  1.4183  2.9473  3.4301
  573MOL0     H79055   6.301   4.626  10.506  0.4054 -0.6280  0.8215
  573MOL0     H79056   6.168   4.994  10.162 -0.8246 -0.0434  0.5486
  573MOL0     H79057   6.053   5.067   9.960 -0.6225  1.0117  1.4760
  573MOL0     H79058   6.244   4.289   9.619 -0.8357 -2.5981 -0.2861
  573MOL0     H79059   6.438   4.413   9.559 -2.5506 -1.3223  0.9137
  573MOL0     H79060   6.883   4.570   9.508 -3.1757 -2.6547  0.2999
  573MOL0     H79061   7.087   4.660   9.423 -1.2016  0.6110  1.4330
  573MOL0     H79062   7.216   4.457   9.096  1.4300  0.2437  1.2782
  573MOL0     H79063   7.188   4.579   8.991  1.3346 -0.0591 -0.0735
  573MOL0     H79064   7.404   4.686   9.035 -0.1120  0.5865  1.7618
  573MOL0     H79065   7.421   4.511   9.010  0.9433 -1.6885  2.2303
  573MOL0     H79066   7.412   4.654   9.274 -0.0660 -1.5415  1.3540
  573MOL0     H79067   7.420   4.482   9.253  2.1393 -0.2884  1.3529
  573MOL0     H79068   7.648   4.688   9.181 -2.1521  0.5666  0.2818
  573MOL0     H79069   7.660   4.522   9.152 -0.7114 -1.5227  0.2129
  573MOL0     H79070   7.715   4.517   9.571 -2.4465  3.2271  2.0003
  573MOL0     H79071   6.975   4.544   9.025 -1.9809 -0.8925 -0.4211
  573MOL0     H79072   6.785   4.453   8.964  0.5868  0.0555 -0.2212
  573MOL0     H79073   6.696   4.354   9.088  0.8602 -0.3582 -0.9874
  573MOL0     H79074   6.665   4.533   9.057  0.5314  0.6125 -0.2240
  574MOL0     O79075  10.871   7.947   3.820  0.0836 -0.2234 -0.2687
  574MOL0     C79076  10.815   7.840   3.844 -0.6318 -0.4349  0.5420
  574MOL0     O79077  10.856   7.749   3.940 -0.0021  0.2446 -0.2792
  574MOL0     C79078  10.978   7.746   4.001  0.2346  0.8981  0.0508
  574MOL0     C79079  11.018   7.623   4.055  0.4755 -0.7207 -0.1978
  574MOL0     C79080  11.142   7.608   4.119 -0.7227 -1.0307  0.6822
  574MOL0     C79081  11.225   7.726   4.125  0.6074  1.1306 -0.1297
  574MOL0     O79082  11.353   7.717   4.177 -0.0699 -0.2932 -0.4524
  574MOL0     C79083  11.443   7.633   4.105  0.7565 -0.2514  0.5458
  574MOL0     C79084  11.510   7.724   3.993  1.0090  0.5331 -1.0631
  574MOL0     C79085  11.622   7.807   4.049  0.0554  0.0212 -0.1540
  574MOL0     C79086  11.679   7.886   3.933  0.5986 -0.7717  0.5174
  574MOL0     C79087  11.792   7.982   3.986  0.0536  0.0146 -0.2872
  574MOL0     C79088  11.744   8.119   4.054 -0.1726 -0.5275  0.0973
  574MOL0     C79089  11.859   8.225   4.052  0.2687  0.4951 -1.1365
  574MOL0     C79090  11.811   8.351   4.132 -0.7768 -0.3502  0.0257
  574MOL0     N79091  11.903   8.469   4.095 -0.4967  0.0828  0.6911
  574MOL0     C79092  11.914   8.525   3.966  0.6209 -0.3314 -0.7061
  574MOL0     C79093  12.025   8.602   3.956  0.3091 -0.7573 -0.8183
  574MOL0     C79094  12.082   8.686   3.841 -0.1026 -0.2289 -0.0960
  574MOL0     C79095  12.173   8.797   3.874  0.2578 -0.7333 -0.5347
  574MOL0     C79096  12.230   8.870   3.747 -0.3769  1.2489 -0.1902
  574MOL0     C79097  12.342   8.965   3.788  0.4876  0.3850 -0.4114
  574MOL0     O79098  12.366   9.054   3.673 -0.2623  0.5366  0.2184
  574MOL0     C79099  12.490   9.093   3.646  0.3374  0.1520  0.2452
  574MOL0     C79100  12.510   9.218   3.588 -0.0415  0.4487 -0.4854
  574MOL0     C79101  12.640   9.269   3.571 -0.5573  0.1018  0.5696
  574MOL0     C79102  12.647   9.420   3.525 -0.3381  0.3239  0.4441
  574MOL0     C79103  12.753   9.194   3.607  0.0740  0.2927 -0.4911
  574MOL0     C79104  12.899   9.239   3.590  0.2539 -0.7769 -0.4195
  574MOL0     O79105  12.988   9.168   3.672  0.7767 -0.0683  0.1194
  574MOL0     C79106  13.106   9.233   3.693  0.1970 -0.0318 -0.1164
  574MOL0     C79107  13.233   9.170   3.682 -0.7351  0.1190  0.5497
  574MOL0     C79108  13.352   9.240   3.697 -0.6249  0.4221  0.1236
  574MOL0     C79109  13.346   9.375   3.741 -1.3524  0.7900 -0.4749
  574MOL0     O79110  13.460   9.448   3.756  0.1935 -0.8654  0.7753
  574MOL0     C79111  13.584   9.429   3.702  0.1732 -0.0078  0.1058
  574MOL0     C79112  13.682   9.373   3.810  0.0777 -0.5784  0.8678
  574MOL0     C79113  13.820   9.422   3.773  0.7211 -0.0855 -0.1862
  574MOL0     C79114  13.900   9.465   3.889  0.3045  0.0778 -0.6278
  574MOL0     C79115  14.047   9.483   3.867 -1.3820  0.0858 -0.1749
  574MOL0     C79116  14.116   9.531   4.000  0.0654 -0.4186 -0.6840
  574MOL0     C79117  14.265   9.527   3.987 -0.3013 -0.0975  0.5393
  574MOL0     C79118  14.336   9.468   4.112 -0.2353 -0.2289  0.1219
  574MOL0    Cl79119  14.502   9.423   4.083  0.3976  0.1567 -0.2159
  574MOL0     C79120  13.229   9.432   3.785 -0.3672  0.3736 -0.0997
  574MOL0     C79121  13.108   9.362   3.754  0.6261 -0.0060  0.0375
  574MOL0     O79122  12.932   9.328   3.514 -0.2734 -0.2216 -0.4933
  574MOL0     C79123  12.737   9.065   3.662 -0.3124 -0.0443  0.5255
  574MOL0     C79124  12.608   9.017   3.684  0.5704  0.0262  0.8953
  574MOL0     N79125  12.082   8.598   4.083 -0.0652 -0.2865 -0.5933
  574MOL0     N79126  12.007   8.523   4.166  0.0404  0.8236  0.3094
  574MOL0     C79127  11.176   7.845   4.079 -0.8342 -0.3756  0.0897
  574MOL0     C79128  11.057   7.858   4.016  0.5679 -0.2302 -0.8008
  574MOL0     C79129  10.687   7.812   3.788 -0.4568 -0.1605  0.5093
  574MOL0     C79130  10.585   7.753   3.871 -0.6559 -0.2580 -1.0765
  574MOL0     C79131  10.452   7.751   3.818  0.8082 -0.0129  0.4140
  574MOL0     C79132  10.423   7.805   3.690 -0.0086 -0.2719 -0.4076
  574MOL0     O79133  10.294   7.818   3.640  0.2532  0.8203 -0.2966
  574MOL0     C79134  10.192   7.870   3.734  0.5840 -0.0485 -0.4117
  574MOL0     C79135  10.068   7.950   3.665 -0.2809  0.5497  0.3203
  574MOL0     C79136  10.008   7.857   3.558  0.0637 -0.2349  0.6331
  574MOL0     C79137   9.896   7.931   3.470 -0.7233  0.9303  0.5441
  574MOL0     C79138   9.938   8.057   3.429  0.0060  0.6588  0.3496
  574MOL0     C79139   9.960   8.169   3.391  0.3278 -0.0993 -0.1065
  574MOL0     C79140  10.524   7.848   3.609 -0.1319  0.1185 -0.1053
  574MOL0     C79141  10.662   7.844   3.650  0.2722 -0.2905 -0.2374
  574MOL0     C79142  10.769   7.894   3.552 -0.0438 -0.0393  0.2139
  574MOL0     H79143  10.956   7.535   4.064 -0.9726  0.0928 -1.6611
  574MOL0     H79144  11.180   7.518   4.167 -0.6142 -1.0975  0.4699
  574MOL0     H79145  11.390   7.548   4.062 -0.4813  1.4640 -1.4736
  574MOL0     H79146  11.519   7.591   4.172  1.3789 -4.7163 -2.5707
  574MOL0     H79147  11.548   7.656   3.917 -0.3160  1.2795 -2.4487
  574MOL0     H79148  11.429   7.780   3.945 -0.2444 -0.0684  0.2399
  574MOL0     H79149  11.582   7.877   4.123  0.3818  1.8467 -1.6175
  574MOL0     H79150  11.698   7.744   4.096 -0.9968 -0.3314  1.1172
  574MOL0     H79151  11.718   7.807   3.868 -1.7982 -2.3659  0.8949
  574MOL0     H79152  11.610   7.955   3.884  1.7700  0.9773  1.1955
  574MOL0     H79153  11.845   8.005   3.893  0.1651 -0.1123 -0.2547
  574MOL0     H79154  11.863   7.931   4.052  1.5242  1.7174 -0.4616
  574MOL0     H79155  11.663   8.156   3.990  1.0865 -1.1676 -1.9566
  574MOL0     H79156  11.693   8.095   4.148 -0.8452 -0.1081 -0.1563
  574MOL0     H79157  11.874   8.254   3.947  1.1303 -2.5651 -1.9628
  574MOL0     H79158  11.951   8.191   4.099 -1.1235 -1.9232  0.0454
  574MOL0     H79159  11.709   8.374   4.098 -0.7131  0.6039  0.4578
  574MOL0     H79160  11.811   8.334   4.240  1.2768  0.6734  0.2218
  574MOL0     H79161  11.842   8.518   3.885  1.3907  0.1645 -1.4524
  574MOL0     H79162  12.005   8.736   3.782  0.9849  1.1352 -0.4185
  574MOL0     H79163  12.130   8.609   3.780  4.4203  1.6811  0.5722
  574MOL0     H79164  12.122   8.881   3.920  1.3566  0.5950 -1.6393
  574MOL0     H79165  12.261   8.752   3.922  0.5178  0.4263  0.1095
  574MOL0     H79166  12.288   8.792   3.696 -0.5828 -1.7138  3.6230
  574MOL0     H79167  12.147   8.903   3.683 -1.3077 -0.8084 -0.1295
  574MOL0     H79168  12.299   9.021   3.871  0.2440  0.9661 -0.9193
  574MOL0     H79169  12.428   8.909   3.825  0.0810 -0.5951 -0.9019
  574MOL0     H79170  12.423   9.276   3.558 -1.4821 -1.0951  0.5180
  574MOL0     H79171  12.712   9.483   3.586 -0.0926 -0.3643  0.9104
  574MOL0     H79172  12.548   9.467   3.530 -0.0376  1.1449 -0.9111
  574MOL0     H79173  12.688   9.424   3.424 -0.6839 -0.4243  0.2694
  574MOL0     H79174  13.246   9.067   3.651 -0.1910 -0.0322  1.2625
  574MOL0     H79175  13.452   9.204   3.673 -0.5429  1.1083 -0.5996
  574MOL0     H79176  13.579   9.366   3.612  2.9979  0.8612 -0.7866
  574MOL0     H79177  13.622   9.528   3.674 -2.2151  0.8687 -0.1970
  574MOL0     H79178  13.654   9.406   3.910  0.1584 -2.3875  1.5204
  574MOL0     H79179  13.672   9.265   3.827 -0.6587 -0.3268  2.1219
  574MOL0     H79180  13.824   9.500   3.696 -2.1907 -0.5989 -0.9839
  574MOL0     H79181  13.874   9.338   3.728  1.6957 -0.1437  1.0219
  574MOL0     H79182  13.886   9.396   3.973 -0.3644  1.5177  0.4936
  574MOL0     H79183  13.873   9.567   3.919 -0.8246 -0.6719  1.1057
  574MOL0     H79184  14.091   9.388   3.833  2.3095  2.5327 -2.9850
  574MOL0     H79185  14.069   9.553   3.786  3.6341  0.1440  0.9227
  574MOL0     H79186  14.100   9.456   4.078 -0.0166 -0.0278 -0.3149
  574MOL0     H79187  14.076   9.629   4.031  1.5967 -0.2928  1.0368
  574MOL0     H79188  14.297   9.630   3.968 -4.4770  0.9234 -2.4989
  574MOL0     H79189  14.284   9.477   3.891 -2.3775  0.3896 -0.1625
  574MOL0     H79190  14.274   9.386   4.150 -2.3449  0.6532 -1.2325
  574MOL0     H79191  14.338   9.540   4.194 -1.0288 -0.3548  0.2611
  574MOL0     H79192  13.240   9.534   3.822  1.8606 -0.5181  1.8955
  574MOL0     H79193  13.017   9.410   3.788  1.2545  1.1965  0.0787
  574MOL0     H79194  12.817   8.999   3.697 -2.0696 -1.3418  2.3527
  574MOL0     H79195  12.601   8.913   3.714  2.1298 -0.3234  0.1724
  574MOL0     H79196  11.239   7.934   4.086 -1.9539  0.4621 -0.2963
  574MOL0     H79197  11.036   7.954   3.970 -0.3696 -0.1671 -0.2847
  574MOL0     H79198  10.593   7.735   3.978 -2.4411  1.5884 -0.5750
  574MOL0     H79199  10.382   7.698   3.882  1.1982 -0.9463  0.0827
  574MOL0     H79200  10.154   7.798   3.807 -0.3460  0.4025 -0.4330
  574MOL0     H79201  10.237   7.945   3.801  2.2516 -2.3905  1.2480
  574MOL0     H79202  10.107   8.037   3.612 -0.9765 -0.4495 -1.9349
  574MOL0     H79203   9.991   7.982   3.736  0.9404 -1.1512  2.5713
  574MOL0     H79204  10.084   7.825   3.485 -0.6885  0.8760 -0.6855
  574MOL0     H79205   9.961   7.768   3.600  1.7976 -1.2555  0.5079
  574MOL0     H79206   9.805   7.942   3.530 -1.4858  1.4080 -0.6672
  574MOL0     H79207   9.856   7.869   3.389  0.7946  0.2007  0.3281
  574MOL0     H79208   9.982   8.269   3.360  0.0829  0.2027  0.6769
  574MOL0     H79209  10.502   7.888   3.510  0.6991  0.9137  0.0168
  574MOL0     H79210  10.751   8.002   3.547  0.6005  0.2926  3.1845
  574MOL0     H79211  10.873   7.894   3.587 -0.0966 -0.8611  0.3936
  574MOL0     H79212  10.750   7.858   3.450 -0.7065  1.6249 -0.2850
  575MOL0     O79213   7.543   2.045   1.891  0.1856 -0.0713  0.4389
  575MOL0     C79214   7.585   1.944   1.849 -0.4823  1.2846  0.6474
  575MOL0     O79215   7.696   1.934   1.787 -0.7038 -0.4094  0.2548
  575MOL0     C79216   7.769   2.053   1.770  0.3625 -0.3714 -0.1249
  575MOL0     C79217   7.756   2.123   1.645 -0.2829 -0.2059  0.2290
  575MOL0     C79218   7.822   2.242   1.611  0.1811  0.0991 -0.8042
  575MOL0     C79219   7.921   2.294   1.703  0.4907 -0.6046  0.1252
  575MOL0     O79220   8.010   2.390   1.671 -0.5132  0.0616 -0.5582
  575MOL0     C79221   8.040   2.406   1.532  0.4485  0.1062  0.6762
  575MOL0     C79222   8.143   2.508   1.500 -1.1406  1.0448  0.4522
  575MOL0     C79223   8.173   2.601   1.612  0.1723  0.3561 -1.0375
  575MOL0     C79224   8.286   2.546   1.713  0.9844  1.0394 -0.2090
  575MOL0     C79225   8.302   2.649   1.826  0.0933 -0.7585 -0.0920
  575MOL0     C79226   8.404   2.756   1.789  0.3428  0.8378  0.6733
  575MOL0     C79227   8.386   2.870   1.892  0.8106 -0.0464  0.3956
  575MOL0     C79228   8.495   2.969   1.874  0.2153  0.5680  0.7409
  575MOL0     N79229   8.605   2.953   1.973 -0.0858  0.1506 -0.1552
  575MOL0     C79230   8.682   2.843   2.013  0.4649  0.3424 -0.2350
  575MOL0     C79231   8.731   2.869   2.136  0.6614 -0.4362  0.4546
  575MOL0     C79232   8.819   2.781   2.208 -0.0087  0.0352 -0.3906
  575MOL0     C79233   8.750   2.656   2.257 -0.4314  0.0101  0.4473
  575MOL0     C79234   8.835   2.532   2.266 -0.2687  0.4815 -0.5155
  575MOL0     C79235   8.914   2.530   2.395  0.0927  0.2709  0.6241
  575MOL0     O79236   8.995   2.651   2.398  0.2266 -0.1697  0.0858
  575MOL0     C79237   9.080   2.655   2.504 -0.3690 -0.6551 -0.0511
  575MOL0     C79238   9.157   2.775   2.496  0.1646 -0.0990 -0.0535
  575MOL0     C79239   9.263   2.806   2.587 -0.0538  0.2753  0.1396
  575MOL0     C79240   9.341   2.932   2.555 -1.3169  0.4822  0.8115
  575MOL0     C79241   9.287   2.714   2.696  0.0535  0.6605  0.1204
  575MOL0     C79242   9.395   2.736   2.802  1.3486  0.3861  0.3410
  575MOL0     O79243   9.389   2.640   2.898  0.6701 -0.8508 -0.3676
  575MOL0     C79244   9.494   2.642   2.991 -0.6045 -1.2361  0.1448
  575MOL0     C79245   9.461   2.679   3.126 -0.3667  0.3241  0.2720
  575MOL0     C79246   9.564   2.686   3.224  0.3076 -0.4036  0.2395
  575MOL0     C79247   9.693   2.661   3.188  0.0866 -0.4641  0.1518
  575MOL0     O79248   9.798   2.678   3.274  0.8305 -0.1983 -0.2331
  575MOL0     C79249   9.773   2.670   3.422  0.1863  0.3017 -0.2626
  575MOL0     C79250   9.693   2.539   3.449  0.9470 -0.7651 -0.5391
  575MOL0     C79251   9.685   2.505   3.599 -0.3884  0.3618  0.6049
  575MOL0     C79252   9.817   2.445   3.657 -0.1265  0.0995  0.0529
  575MOL0     C79253   9.785   2.360   3.777 -0.4805  0.2741 -0.1604
  575MOL0     C79254   9.914   2.292   3.846  0.9104  0.0633  0.1981
  575MOL0     C79255  10.008   2.396   3.910  0.8101  0.6278 -0.8284
  575MOL0     C79256  10.141   2.409   3.829 -0.4320 -0.6093 -0.4377
  575MOL0    Cl79257  10.256   2.497   3.922  0.3052  0.4370  0.0613
  575MOL0     C79258   9.721   2.632   3.051 -0.3290  0.6182  0.1608
  575MOL0     C79259   9.625   2.614   2.955 -0.1645 -0.2884  0.5198
  575MOL0     O79260   9.467   2.837   2.801 -0.0865 -0.1816 -0.8219
  575MOL0     C79261   9.211   2.595   2.695 -0.6872 -0.5185  0.4124
  575MOL0     C79262   9.107   2.563   2.603  0.1675 -0.2438 -0.0223
  575MOL0     N79263   8.692   2.992   2.177 -0.3316 -0.4321  0.3683
  575MOL0     N79264   8.613   3.040   2.080 -0.0380 -0.6936  0.5468
  575MOL0     C79265   7.930   2.226   1.833  0.6666 -0.1588 -0.1650
  575MOL0     C79266   7.849   2.116   1.866  0.5143 -0.8310  0.1084
  575MOL0     C79267   7.491   1.827   1.850 -0.5082  0.3922 -1.4107
  575MOL0     C79268   7.503   1.724   1.762  0.6917  0.1360  0.1871
  575MOL0     C79269   7.417   1.611   1.752  0.1433  0.2456 -0.7774
  575MOL0     C79270   7.313   1.594   1.846  0.9817 -0.9834  1.1101
  575MOL0     O79271   7.217   1.500   1.837 -0.1935 -0.6100  0.1773
  575MOL0     C79272   7.201   1.389   1.744  0.3314 -0.5390 -0.1381
  575MOL0     C79273   7.072   1.313   1.804 -0.5266 -0.0961  0.5483
  575MOL0     C79274   7.018   1.211   1.702  0.0860 -0.1728  0.1765
  575MOL0     C79275   6.907   1.120   1.760  0.0045  0.4349  0.5183
  575MOL0     C79276   6.786   1.196   1.793 -0.3475  0.0988  0.3409
  575MOL0     C79277   6.677   1.250   1.812  0.0462  0.1508 -1.5067
  575MOL0     C79278   7.313   1.690   1.948  0.1704  0.0078  0.1139
  575MOL0     C79279   7.398   1.803   1.956  0.2302  0.3619 -0.3376
  575MOL0     C79280   7.374   1.899   2.067  0.0449  0.1136  0.5723
  575MOL0     H79281   7.681   2.087   1.577 -1.2016  0.4999  0.8379
  575MOL0     H79282   7.806   2.293   1.516  1.4665  0.9403 -0.5930
  575MOL0     H79283   7.953   2.451   1.482  1.5088 -0.2319 -1.5855
  575MOL0     H79284   8.064   2.306   1.496  0.4747  0.1914  0.4554
  575MOL0     H79285   8.239   2.456   1.489 -0.9653  1.3578  0.4875
  575MOL0     H79286   8.114   2.559   1.408  2.0687 -0.2686 -1.4727
  575MOL0     H79287   8.219   2.686   1.562  0.8731  0.7404  0.2207
  575MOL0     H79288   8.082   2.640   1.659  0.1313 -0.3093 -0.5437
  575MOL0     H79289   8.243   2.454   1.753 -1.3834  2.0721 -0.2001
  575MOL0     H79290   8.382   2.534   1.662  0.9151  1.0514 -0.3410
  575MOL0     H79291   8.341   2.593   1.912 -0.3056 -0.9798 -0.0490
  575MOL0     H79292   8.200   2.678   1.853 -0.8795 -4.2878  0.5574
  575MOL0     H79293   8.499   2.703   1.801 -1.0321 -2.1128 -0.3741
  575MOL0     H79294   8.381   2.789   1.687 -0.8201  1.9445  1.2655
  575MOL0     H79295   8.370   2.851   1.998  1.5011  0.4314  0.5942
  575MOL0     H79296   8.297   2.922   1.856 -0.4903 -2.1093  0.4917
  575MOL0     H79297   8.535   2.961   1.772 -2.7628 -2.6676 -0.3546
  575MOL0     H79298   8.453   3.069   1.884  1.0301  1.1708 -1.2715
  575MOL0     H79299   8.720   2.753   1.968  1.4176  0.4934  0.2344
  575MOL0     H79300   8.869   2.833   2.290  1.8565  0.5712 -1.8070
  575MOL0     H79301   8.899   2.750   2.141  1.2375 -1.0466  1.5201
  575MOL0     H79302   8.704   2.675   2.355 -1.3048 -1.6671  0.4077
  575MOL0     H79303   8.664   2.631   2.195 -0.8195  1.1301  0.5203
  575MOL0     H79304   8.769   2.448   2.248  0.8304 -0.8629  1.3423
  575MOL0     H79305   8.898   2.534   2.177  0.6423 -1.1361  0.0563
  575MOL0     H79306   8.847   2.534   2.482 -0.6681 -0.4853  0.0919
  575MOL0     H79307   8.981   2.445   2.388  1.2271  1.2561 -1.5502
  575MOL0     H79308   9.131   2.858   2.431 -0.7670  0.4937  1.0446
  575MOL0     H79309   9.448   2.912   2.552 -1.4955 -0.4803 -0.3758
  575MOL0     H79310   9.319   3.012   2.626 -2.6317  0.2448  0.6994
  575MOL0     H79311   9.318   2.960   2.451 -0.9008  0.2172  0.6477
  575MOL0     H79312   9.360   2.703   3.157 -1.5901 -1.9786 -1.5488
  575MOL0     H79313   9.533   2.715   3.324  1.4218 -2.5774  1.2679
  575MOL0     H79314   9.866   2.665   3.479  0.5822 -1.8926 -1.0240
  575MOL0     H79315   9.714   2.758   3.449 -1.7423 -0.2953 -2.2225
  575MOL0     H79316   9.592   2.538   3.409 -0.2497  0.2624  2.2073
  575MOL0     H79317   9.739   2.455   3.397  1.1665 -1.2255  0.3680
  575MOL0     H79318   9.611   2.426   3.608  1.8336 -2.2956 -2.2485
  575MOL0     H79319   9.648   2.586   3.663 -0.3920 -2.1485  4.0237
  575MOL0     H79320   9.889   2.525   3.676  0.3456 -0.1979 -0.4751
  575MOL0     H79321   9.857   2.376   3.583 -1.5423 -1.5816  0.7914
  575MOL0     H79322   9.720   2.410   3.850  0.4376  1.5237 -0.1695
  575MOL0     H79323   9.730   2.272   3.743  0.6142  0.1288 -1.6231
  575MOL0     H79324   9.969   2.236   3.770  0.0774 -2.3190  1.2707
  575MOL0     H79325   9.870   2.216   3.912 -1.0408 -0.1572 -1.2454
  575MOL0     H79326  10.029   2.361   4.011 -2.4719  1.1497  0.1554
  575MOL0     H79327   9.964   2.496   3.916  1.8233  1.1198 -1.2813
  575MOL0     H79328  10.136   2.460   3.733  2.6011 -0.9576 -0.8913
  575MOL0     H79329  10.191   2.313   3.814 -0.9885 -1.1613  1.0236
  575MOL0     H79330   9.825   2.627   3.020 -0.1217 -1.5998  1.0176
  575MOL0     H79331   9.657   2.596   2.852 -0.6956  2.3595 -0.2059
  575MOL0     H79332   9.228   2.518   2.771 -2.9315 -2.8857 -1.3063
  575MOL0     H79333   9.054   2.469   2.607  0.7863 -0.5966 -0.0517
  575MOL0     H79334   7.999   2.257   1.911 -0.9612 -0.8114  1.6261
  575MOL0     H79335   7.858   2.056   1.956  0.9344  0.5401  1.0102
  575MOL0     H79336   7.582   1.733   1.688  1.5319  1.7569  1.2110
  575MOL0     H79337   7.416   1.558   1.657  1.3327  1.9043 -1.7802
  575MOL0     H79338   7.183   1.419   1.641 -0.9479  0.8934  0.4397
  575MOL0     H79339   7.291   1.329   1.754  0.7556 -0.2984 -2.2323
  575MOL0     H79340   6.991   1.386   1.815 -1.2845 -0.7089 -0.7604
  575MOL0     H79341   7.083   1.269   1.903 -2.6637 -3.1283 -0.4097
  575MOL0     H79342   6.981   1.268   1.616 -0.9806  1.2261  1.5158
  575MOL0     H79343   7.093   1.143   1.659  0.8088 -2.5015  4.5520
  575MOL0     H79344   6.940   1.062   1.848  4.0248 -0.4447 -1.3261
  575MOL0     H79345   6.874   1.053   1.681 -0.5143  1.7492 -0.3972
  575MOL0     H79346   6.575   1.280   1.801  0.1354  0.2125 -2.2155
  575MOL0     H79347   7.232   1.673   2.018 -0.4616  2.9688  0.2219
  575MOL0     H79348   7.314   1.982   2.028  1.7356  0.8965 -0.4881
  575MOL0     H79349   7.320   1.849   2.148 -0.3100 -0.5594 -0.0735
  575MOL0     H79350   7.466   1.941   2.109 -0.6895  2.8456 -0.3284
  576MOL0     O79351   8.441  10.871   3.452  0.2716  0.0689 -0.0591
  576MOL0     C79352   8.330  10.817   3.419 -0.3412  0.0738  0.1008
  576MOL0     O79353   8.300  10.760   3.300  0.5325  0.4031  0.8420
  576MOL0     C79354   8.387  10.762   3.198 -0.7577 -0.4173  0.0073
  576MOL0     C79355   8.513  10.702   3.208  0.1657  0.2483  0.4016
  576MOL0     C79356   8.611  10.725   3.104 -0.1776  0.2987 -0.1430
  576MOL0     C79357   8.585  10.795   2.987 -0.0891 -0.0845  0.5438
  576MOL0     O79358   8.670  10.822   2.875  0.1796  0.5709  0.2494
  576MOL0     C79359   8.804  10.818   2.914  0.2342  0.0395 -0.0725
  576MOL0     C79360   8.871  10.895   2.794  0.7177  0.1519  0.7251
  576MOL0     C79361   9.019  10.926   2.814  0.1998  0.4456  0.1688
  576MOL0     C79362   9.112  10.808   2.849  0.8506  0.3334  0.6726
  576MOL0     C79363   9.103  10.692   2.744 -0.1336 -0.1892 -0.1206
  576MOL0     C79364   9.209  10.580   2.764 -0.7716 -0.1864 -0.3945
  576MOL0     C79365   9.174  10.448   2.700  1.2957 -0.5876 -0.3960
  576MOL0     C79366   9.297  10.382   2.655 -0.5111  0.2842 -0.3972
  576MOL0     N79367   9.409  10.377   2.758  0.0044 -0.1955  0.0902
  576MOL0     C79368   9.504  10.473   2.772 -0.0345  0.7294 -0.0070
  576MOL0     C79369   9.589  10.424   2.857 -0.7518 -0.5089  0.3561
  576MOL0     C79370   9.730  10.478   2.895  0.1639  0.7113  0.3380
  576MOL0     C79371   9.810  10.417   3.007 -0.3870 -0.2017  1.0110
  576MOL0     C79372   9.746  10.439   3.149  0.3237 -0.1230 -0.1043
  576MOL0     C79373   9.788  10.339   3.257 -0.1144  0.6292  0.3648
  576MOL0     O79374   9.930  10.325   3.269  0.0252 -0.3512 -0.2114
  576MOL0     C79375   9.994  10.226   3.336 -0.5264 -0.6312 -1.0665
  576MOL0     C79376   9.945  10.127   3.418  0.0259  0.7864  0.6747
  576MOL0     C79377  10.026  10.051   3.511 -0.2937 -0.6719  0.1073
  576MOL0     C79378   9.947   9.948   3.590 -0.4407 -0.6533 -0.7828
  576MOL0     C79379  10.165  10.075   3.508 -0.4895  0.6383  0.4309
  576MOL0     C79380  10.252   9.997   3.593  0.1403  1.1601 -1.0007
  576MOL0     O79381  10.371   9.971   3.525 -0.4177 -0.5050  0.2454
  576MOL0     C79382  10.464   9.889   3.567  1.5500  0.0925 -0.1600
  576MOL0     C79383  10.442   9.772   3.640 -0.1726  0.2200  0.1253
  576MOL0     C79384  10.552   9.695   3.663  0.4484 -0.2852 -0.9975
  576MOL0     C79385  10.677   9.726   3.616 -0.4348 -0.9846  0.5129
  576MOL0     O79386  10.780   9.643   3.649  0.3022 -0.2023  0.4012
  576MOL0     C79387  10.816   9.622   3.786  0.5233 -0.4766  0.0894
  576MOL0     C79388  10.958   9.566   3.807 -0.5491 -0.0254 -0.5105
  576MOL0     C79389  11.074   9.655   3.742  0.0236  1.0763  0.1125
  576MOL0     C79390  11.206   9.599   3.763 -0.3860 -0.0195 -0.3287
  576MOL0     C79391  11.298   9.697   3.691  0.7490  0.7967  0.1998
  576MOL0     C79392  11.424   9.631   3.660  0.3228  0.4719 -0.2519
  576MOL0     C79393  11.519   9.601   3.770 -0.1352 -0.7337  0.3744
  576MOL0     C79394  11.612   9.490   3.730  0.5028  0.8750 -0.1932
  576MOL0    Cl79395  11.717   9.533   3.596  0.0613  0.0838  0.0955
  576MOL0     C79396  10.698   9.835   3.532  0.1924 -0.3712 -0.3473
  576MOL0     C79397  10.591   9.928   3.513  0.5106  0.4770  0.1557
  576MOL0     O79398  10.218   9.961   3.706 -0.2834  0.7043  0.0105
  576MOL0     C79399  10.221  10.163   3.418  0.3760 -1.2153  0.7795
  576MOL0     C79400  10.136  10.253   3.343 -0.0017  0.6663 -0.1200
  576MOL0     N79401   9.532  10.302   2.919  0.1685  0.1215  0.1486
  576MOL0     N79402   9.421  10.275   2.847 -0.4184 -0.4084 -0.9394
  576MOL0     C79403   8.454  10.832   2.975  0.0433  0.2003 -1.1537
  576MOL0     C79404   8.363  10.829   3.077  0.6440 -0.3544 -1.1356
  576MOL0     C79405   8.224  10.807   3.521 -0.4977 -0.6034 -0.3614
  576MOL0     C79406   8.167  10.679   3.537  0.1997 -0.4253  1.1032
  576MOL0     C79407   8.066  10.649   3.629  0.4236 -0.1705 -0.1348
  576MOL0     C79408   8.008  10.756   3.695 -0.1309 -0.8341  0.8474
  576MOL0     O79409   7.901  10.753   3.775  0.4188  0.3254 -0.2586
  576MOL0     C79410   7.865  10.613   3.817  0.0804  0.0872 -0.3463
  576MOL0     C79411   7.759  10.633   3.925  0.6756  0.9273 -0.4558
  576MOL0     C79412   7.628  10.681   3.867  0.0152 -0.3978 -0.4979
  576MOL0     C79413   7.518  10.696   3.975 -0.2460  0.8820  0.1622
  576MOL0     C79414   7.398  10.738   3.896  0.1882 -0.8010 -0.5015
  576MOL0     C79415   7.330  10.796   3.815 -0.2566  1.3977  0.4493
  576MOL0     C79416   8.055  10.889   3.673 -0.1610  0.1179  0.9924
  576MOL0     C79417   8.168  10.916   3.595  0.4164  0.6331  0.2305
  576MOL0     C79418   8.205  11.060   3.589 -0.2460 -0.3666 -0.3982
  576MOL0     H79419   8.525  10.640   3.296 -0.9623  0.3192  0.6240
  576MOL0     H79420   8.706  10.674   3.118  0.9258  2.7576  2.0506
  576MOL0     H79421   8.827  10.711   2.919 -1.2768 -0.2531  2.0273
  576MOL0     H79422   8.827  10.855   3.014  0.8694 -0.7927  0.1010
  576MOL0     H79423   8.862  10.840   2.700  0.6082 -1.3953  1.6114
  576MOL0     H79424   8.821  10.991   2.780 -0.8905 -0.8685 -0.8389
  576MOL0     H79425   9.054  10.976   2.724  0.5176 -1.3349 -0.7474
  576MOL0     H79426   9.024  10.993   2.900  0.1285 -1.4716  1.7354
  576MOL0     H79427   9.217  10.838   2.853  0.1893  3.2972 -1.0886
  576MOL0     H79428   9.080  10.772   2.947  1.0382  0.7626  0.8908
  576MOL0     H79429   9.118  10.751   2.653 -1.2402 -0.1932 -0.3180
  576MOL0     H79430   9.003  10.648   2.733  0.8176 -2.0778 -2.0547
  576MOL0     H79431   9.299  10.626   2.722 -0.2896  0.6656  1.4371
  576MOL0     H79432   9.230  10.571   2.871 -0.2424  0.9116 -0.3838
  576MOL0     H79433   9.109  10.471   2.614 -0.4381  2.5046  1.5417
  576MOL0     H79434   9.107  10.389   2.762 -4.0325  0.0202 -4.7693
  576MOL0     H79435   9.277  10.280   2.620  3.5065 -0.0912 -2.1817
  576MOL0     H79436   9.340  10.425   2.564 -2.2320  1.4041 -0.7141
  576MOL0     H79437   9.513  10.560   2.707 -1.8908  0.6246 -0.4602
  576MOL0     H79438   9.722  10.587   2.892 -3.4450  0.5617 -3.0291
  576MOL0     H79439   9.786  10.450   2.806  0.6893  0.6026  0.6992
  576MOL0     H79440   9.815  10.312   2.977 -2.4728  0.2478 -1.2667
  576MOL0     H79441   9.911  10.458   3.006 -0.7746  0.8785 -1.5124
  576MOL0     H79442   9.770  10.538   3.190 -1.2240  0.2398 -0.0202
  576MOL0     H79443   9.639  10.417   3.140  0.6723 -3.8721  2.6205
  576MOL0     H79444   9.750  10.368   3.355 -1.3669  0.0113  0.0830
  576MOL0     H79445   9.742  10.242   3.236 -1.4929  1.0317  1.4013
  576MOL0     H79446   9.839  10.111   3.406  0.1637 -1.9143  2.2696
  576MOL0     H79447   9.935   9.993   3.689  1.7367  4.1533 -2.3985
  576MOL0     H79448   9.996   9.851   3.597 -2.2791 -1.5625  0.2079
  576MOL0     H79449   9.852   9.917   3.545 -0.7565 -2.8689  1.2454
  576MOL0     H79450  10.339   9.736   3.642 -0.0521 -0.3828 -2.0379
  576MOL0     H79451  10.535   9.611   3.729 -1.4263 -0.3379 -1.5128
  576MOL0     H79452  10.802   9.716   3.839 -0.7818 -0.5945 -0.0060
  576MOL0     H79453  10.749   9.549   3.832 -0.8924  1.6951  1.6541
  576MOL0     H79454  10.980   9.550   3.913 -1.7792 -2.1727 -0.5341
  576MOL0     H79455  10.962   9.467   3.762  2.3485 -0.1747 -0.1064
  576MOL0     H79456  11.080   9.754   3.788  1.9470  1.2123 -0.3519
  576MOL0     H79457  11.045   9.673   3.638 -1.8449  1.1291  0.6018
  576MOL0     H79458  11.223   9.499   3.723  3.6585 -0.6539  2.3945
  576MOL0     H79459  11.240   9.575   3.864  2.0174 -3.2685 -1.7298
  576MOL0     H79460  11.247   9.741   3.604  1.0569  0.3103 -0.2306
  576MOL0     H79461  11.318   9.785   3.753 -2.6665  1.8285  0.0611
  576MOL0     H79462  11.482   9.706   3.605 -0.9867  1.1163 -0.7839
  576MOL0     H79463  11.424   9.536   3.606 -0.0064 -0.1603  0.8388
  576MOL0     H79464  11.469   9.555   3.856 -0.7552 -0.8415 -0.0376
  576MOL0     H79465  11.569   9.693   3.804 -2.9475  0.8133  0.6466
  576MOL0     H79466  11.544   9.407   3.706 -3.9300  3.1560  3.0204
  576MOL0     H79467  11.670   9.456   3.816 -0.7375 -2.0487 -0.3823
  576MOL0     H79468  10.799   9.863   3.505 -0.5526  0.3374 -2.6292
  576MOL0     H79469  10.624  10.013   3.455  2.3728 -0.3486 -0.0415
  576MOL0     H79470  10.325  10.192   3.404 -0.2417  0.2577 -1.1337
  576MOL0     H79471  10.175  10.329   3.275 -0.5656  0.0730 -1.1345
  576MOL0     H79472   8.419  10.881   2.884  0.5244  0.6671 -1.0924
  576MOL0     H79473   8.270  10.879   3.053  2.0701  2.8424 -0.5513
  576MOL0     H79474   8.222  10.599   3.488 -0.5978  0.2636 -1.0223
  576MOL0     H79475   8.040  10.545   3.643  1.0354 -0.1082  1.8127
  576MOL0     H79476   7.825  10.560   3.730 -0.3086  0.9921 -0.7407
  576MOL0     H79477   7.952  10.559   3.854 -0.0075  1.2008  1.6247
  576MOL0     H79478   7.809  10.701   3.994  4.0224 -2.0387  0.3869
  576MOL0     H79479   7.738  10.537   3.974  0.0959 -0.2149 -2.8039
  576MOL0     H79480   7.655  10.770   3.809 -1.2932  0.5484  0.2821
  576MOL0     H79481   7.600  10.605   3.793 -1.2768 -0.2273 -0.2070
  576MOL0     H79482   7.551  10.783   4.033 -0.4307  1.6942 -0.9176
  576MOL0     H79483   7.509  10.600   4.028 -1.9789  1.1777  0.4610
  576MOL0     H79484   7.273  10.844   3.737  1.2361  0.7643 -1.0879
  576MOL0     H79485   7.996  10.966   3.721 -0.8628 -0.1165  0.5192
  576MOL0     H79486   8.137  11.111   3.658 -1.6662  0.4965 -2.3483
  576MOL0     H79487   8.303  11.068   3.636 -0.7724 -0.9802  0.8471
  576MOL0     H79488   8.210  11.106   3.489 -1.3023 -0.8937 -0.7014
  577MOL0     O79489   8.277   4.234  10.377  0.3079  0.1103  0.9072
  577MOL0     C79490   8.186   4.295  10.442 -0.0897  0.2636 -0.2411
  577MOL0     O79491   8.210   4.354  10.562 -0.3022  0.3734 -0.8062
  577MOL0     C79492   8.343   4.358  10.606 -0.3585  0.8625  0.2230
  577MOL0     C79493   8.432   4.434  10.539  0.5897 -0.0112  1.8163
  577MOL0     C79494   8.574   4.440  10.565  0.6692  0.0719  0.8971
  577MOL0     C79495   8.623   4.356  10.664 -0.3364  0.0283  0.8367
  577MOL0     O79496   8.757   4.346  10.701  0.2948  0.1620  0.3754
  577MOL0     C79497   8.829   4.470  10.729 -0.0242  0.4126  0.8920
  577MOL0     C79498   8.976   4.437  10.769 -0.6176  0.8894 -0.2181
  577MOL0     C79499   9.063   4.566  10.786  0.1031  0.7462 -0.1003
  577MOL0     C79500   9.205   4.537  10.837 -0.1079  0.2909  0.0036
  577MOL0     C79501   9.294   4.658  10.868  0.1739 -0.3326  0.6312
  577MOL0     C79502   9.281   4.763  10.759  0.0074  0.3219 -0.7449
  577MOL0     C79503   9.373   4.889  10.769 -0.3818 -0.0554  0.3612
  577MOL0     C79504   9.386   4.969  10.636 -0.0547 -0.6561 -0.6465
  577MOL0     N79505   9.466   5.087  10.665 -0.0550  0.1787 -0.0797
  577MOL0     C79506   9.604   5.076  10.676 -0.0563 -0.0149 -0.2221
  577MOL0     C79507   9.638   5.199  10.707 -0.6179  0.5293 -0.7903
  577MOL0     C79508   9.786   5.228  10.741  0.2300  0.3636 -1.1640
  577MOL0     C79509   9.798   5.316  10.866 -0.0505 -0.3269 -0.1098
  577MOL0     C79510   9.728   5.451  10.872 -0.4819 -0.8057 -0.3517
  577MOL0     C79511   9.765   5.525  10.745 -0.5676  0.2515 -0.6582
  577MOL0     O79512   9.903   5.552  10.729  0.0815 -0.6578 -0.0549
  577MOL0     C79513   9.963   5.632  10.821  0.1999 -0.1919 -0.0680
  577MOL0     C79514   9.957   5.770  10.801 -0.5410 -0.0304  0.0401
  577MOL0     C79515  10.020   5.863  10.894 -0.2789  0.6888  0.8962
  577MOL0     C79516  10.008   6.011  10.872  0.1111 -0.8584  0.6906
  577MOL0     C79517  10.088   5.810  11.007 -0.0613 -0.0647  0.5426
  577MOL0     C79518  10.166   5.897  11.103  0.2859 -0.5592  1.1526
  577MOL0     O79519  10.290   5.852  11.139 -0.0162  0.3974  0.5427
  577MOL0     C79520  10.368   5.922  11.228 -0.8949  0.2699  0.0039
  577MOL0     C79521  10.444   5.856  11.320  0.0389  0.5054  0.2537
  577MOL0     C79522  10.550   5.920  11.381 -0.0420 -0.9808  0.2908
  577MOL0     C79523  10.561   6.063  11.363 -0.3100  0.2478  0.5852
  577MOL0     O79524  10.654   6.133  11.440 -0.0835  0.2018 -0.2645
  577MOL0     C79525  10.777   6.091  11.493 -0.0192  0.5238 -0.0296
  577MOL0     C79526  10.871   6.030  11.388 -0.3106 -0.4257  0.3995
  577MOL0     C79527  11.008   5.984  11.447  0.1126 -0.4021  0.2824
  577MOL0     C79528  10.993   5.831  11.482 -0.3041  0.5645 -0.1391
  577MOL0     C79529  11.108   5.770  11.553 -0.3707  0.4116 -0.1585
  577MOL0     C79530  11.227   5.736  11.455  1.1015  0.4020  0.2259
  577MOL0     C79531  11.338   5.667  11.529  0.3922 -0.4380  0.8092
  577MOL0     C79532  11.468   5.675  11.443  0.3563  0.0675  0.3981
  577MOL0    Cl79533  11.492   5.846  11.373 -0.2826 -0.1036 -0.0774
  577MOL0     C79534  10.475   6.135  11.282 -0.6216 -0.0800 -0.0650
  577MOL0     C79535  10.383   6.063  11.199 -1.1075 -0.4160  0.6756
  577MOL0     O79536  10.098   5.980  11.163 -0.3253 -1.0156 -0.2583
  577MOL0     C79537  10.090   5.667  11.020 -0.8364 -0.3167 -0.7891
  577MOL0     C79538  10.026   5.581  10.934  0.6114 -0.8234  0.1505
  577MOL0     N79539   9.538   5.283  10.696  0.3898 -0.9717 -0.6075
  577MOL0     N79540   9.434   5.219  10.668  0.0279  0.3398  0.3573
  577MOL0     C79541   8.535   4.273  10.727 -0.3643 -0.1014 -0.2747
  577MOL0     C79542   8.399   4.279  10.702  0.0704 -0.1252 -0.2083
  577MOL0     C79543   8.044   4.277  10.404 -0.1437 -0.5755  0.6520
  577MOL0     C79544   7.947   4.253  10.504 -0.1030 -0.8605 -0.2640
  577MOL0     C79545   7.812   4.244  10.475  0.3424  0.8403 -0.1172
  577MOL0     C79546   7.768   4.267  10.347 -0.1968  0.4560  0.3367
  577MOL0     O79547   7.632   4.283  10.327 -0.1669 -0.0815  0.1000
  577MOL0     C79548   7.579   4.308  10.198  0.0433  0.6080  0.7327
  577MOL0     C79549   7.427   4.333  10.213  0.9014  0.1812 -0.4976
  577MOL0     C79550   7.366   4.217  10.279  0.7363  0.1171  0.4635
  577MOL0     C79551   7.212   4.267  10.303  0.0988 -0.0299 -0.2405
  577MOL0     C79552   7.144   4.164  10.378  0.6219  0.2582 -0.5637
  577MOL0     C79553   7.092   4.079  10.450  0.4390  0.3903  0.8357
  577MOL0     C79554   7.860   4.275  10.242 -0.3769 -0.0166 -0.7435
  577MOL0     C79555   7.999   4.281  10.270 -0.1850 -0.8109 -0.1749
  577MOL0     C79556   8.076   4.311  10.150  0.0236 -0.0362 -0.5266
  577MOL0     H79557   8.394   4.508  10.468 -0.5249  0.5614  2.9725
  577MOL0     H79558   8.637   4.502  10.503 -1.9781 -0.1979 -2.3591
  577MOL0     H79559   8.779   4.526  10.809 -1.6343 -0.4853  0.5349
  577MOL0     H79560   8.833   4.523  10.633 -0.4154 -1.3521 -0.1300
  577MOL0     H79561   8.980   4.389  10.867  4.0006  1.2720  0.0007
  577MOL0     H79562   9.016   4.368  10.694  0.4804 -0.1147  1.2416
  577MOL0     H79563   9.056   4.609  10.686 -0.8989  1.1404  0.1343
  577MOL0     H79564   9.012   4.628  10.859 -1.5888 -1.1939  0.4673
  577MOL0     H79565   9.193   4.465  10.919 -1.2386  0.3341 -0.1098
  577MOL0     H79566   9.250   4.474  10.759  2.7134  2.2386 -0.0823
  577MOL0     H79567   9.397   4.626  10.892  0.3946 -0.9512 -0.9832
  577MOL0     H79568   9.250   4.705  10.956  0.7624 -0.8976  1.2400
  577MOL0     H79569   9.299   4.720  10.660  2.7752 -3.5883  1.1833
  577MOL0     H79570   9.176   4.796  10.755 -0.0966 -0.0283 -0.9068
  577MOL0     H79571   9.475   4.861  10.795  0.4847  2.2085 -0.3379
  577MOL0     H79572   9.338   4.952  10.852 -2.5318 -0.4551 -0.1860
  577MOL0     H79573   9.435   4.905  10.562 -0.1753 -1.1664 -0.2898
  577MOL0     H79574   9.288   5.009  10.608  0.6024  1.1019 -0.5777
  577MOL0     H79575   9.673   4.992  10.679  1.7927  1.4653  1.0601
  577MOL0     H79576   9.836   5.249  10.646 -1.0438  1.0193 -1.7040
  577MOL0     H79577   9.821   5.131  10.780 -2.3634  0.3396  1.3919
  577MOL0     H79578   9.779   5.256  10.955  0.3265 -1.1511 -0.5700
  577MOL0     H79579   9.904   5.339  10.879  0.3908 -0.9753 -2.0958
  577MOL0     H79580   9.625   5.424  10.899  0.3153 -2.9199  0.7270
  577MOL0     H79581   9.777   5.507  10.952  1.8902 -3.0715 -0.0948
  577MOL0     H79582   9.716   5.473  10.662 -1.7079 -0.3974  0.3872
  577MOL0     H79583   9.715   5.623  10.747 -2.2024 -0.5529  0.9911
  577MOL0     H79584   9.903   5.796  10.710  1.8074  1.2323 -1.0642
  577MOL0     H79585  10.013   6.038  10.766 -1.6844 -2.3407  0.1778
  577MOL0     H79586  10.084   6.070  10.924  2.0359 -1.4109 -1.3639
  577MOL0     H79587   9.908   6.037  10.907  0.5847  1.3336  0.5586
  577MOL0     H79588  10.437   5.748  11.331  0.4586  0.4148 -0.3196
  577MOL0     H79589  10.621   5.869  11.446 -1.0209 -2.5528  0.1847
  577MOL0     H79590  10.829   6.177  11.537 -0.9992  0.2656  1.7484
  577MOL0     H79591  10.759   6.019  11.574  0.2650  0.2592 -0.1985
  577MOL0     H79592  10.813   5.948  11.343 -3.5961  0.4669  2.6183
  577MOL0     H79593  10.900   6.099  11.309  0.4491 -0.8053  0.3313
  577MOL0     H79594  11.043   6.051  11.526  1.4347  0.4167 -0.9583
  577MOL0     H79595  11.092   5.993  11.378 -1.1603 -2.6550 -1.7031
  577MOL0     H79596  10.961   5.769  11.397  0.9480  0.6182 -0.6747
  577MOL0     H79597  10.920   5.827  11.563 -0.6075  1.7509 -0.3399
  577MOL0     H79598  11.155   5.841  11.621  1.3761 -1.8465  1.1406
  577MOL0     H79599  11.075   5.681  11.608  0.1553  0.1119 -0.3229
  577MOL0     H79600  11.246   5.834  11.410  0.6592  0.3056 -0.1832
  577MOL0     H79601  11.188   5.673  11.374 -1.5220  2.6998 -0.4593
  577MOL0     H79602  11.329   5.559  11.540  2.8170 -0.7568  0.1996
  577MOL0     H79603  11.349   5.715  11.627 -0.5055 -0.2214  0.8098
  577MOL0     H79604  11.457   5.594  11.369 -5.2217  0.2297  0.6004
  577MOL0     H79605  11.555   5.651  11.504 -0.3654  1.7048  2.1709
  577MOL0     H79606  10.478   6.243  11.273  0.9021 -0.0441  0.6360
  577MOL0     H79607  10.331   6.121  11.123  1.6477  1.7783  0.3100
  577MOL0     H79608  10.144   5.613  11.098 -2.3781 -0.9377 -0.1237
  577MOL0     H79609  10.034   5.476  10.960  2.2854 -0.3201  1.9379
  577MOL0     H79610   8.586   4.205  10.793  3.5255  0.7594 -2.1027
  577MOL0     H79611   8.330   4.206  10.744  2.2507 -3.0462 -1.4185
  577MOL0     H79612   7.986   4.246  10.605  3.3132  1.2118 -1.2835
  577MOL0     H79613   7.731   4.238  10.548  1.3914 -0.5280  0.9777
  577MOL0     H79614   7.635   4.383  10.140  0.3503 -1.0080 -1.1972
  577MOL0     H79615   7.600   4.211  10.153  0.1714  0.7611  0.4581
  577MOL0     H79616   7.383   4.354  10.115  0.0535  0.0856 -0.1415
  577MOL0     H79617   7.423   4.428  10.267  1.9434  0.9518 -1.7186
  577MOL0     H79618   7.368   4.124  10.220  0.9732  1.0020 -0.9781
  577MOL0     H79619   7.408   4.201  10.378 -0.8760 -1.9856  0.8906
  577MOL0     H79620   7.175   4.278  10.201 -1.8365 -1.5586  0.2206
  577MOL0     H79621   7.201   4.363  10.353  0.6310 -0.5848  0.9942
  577MOL0     H79622   7.043   3.998  10.499  3.9751 -2.6319 -0.1898
  577MOL0     H79623   7.827   4.289  10.139 -0.9675  2.4704 -0.2745
  577MOL0     H79624   8.175   4.266  10.168  0.1992  1.3232  2.4736
  577MOL0     H79625   8.020   4.252  10.076 -2.3914  4.1742 -2.4129
  577MOL0     H79626   8.077   4.414  10.114 -0.2798 -0.6664 -2.5198
  578MOL0     O79627   1.087   9.932   7.001 -0.4155 -0.2246 -0.3433
  578MOL0     C79628   1.121   9.934   6.884  0.0820 -1.2082  0.1802
  578MOL0     O79629   1.241   9.885   6.841  0.4173  0.3749  0.0285
  578MOL0     C79630   1.336   9.871   6.937 -0.3516 -0.4492 -0.3866
  578MOL0     C79631   1.444   9.964   6.920  0.0374 -0.2402  0.1247
  578MOL0     C79632   1.556   9.952   7.001 -0.3228 -0.5685  0.4352
  578MOL0     C79633   1.562   9.861   7.109  0.6206 -0.2693  0.5436
  578MOL0     O79634   1.677   9.888   7.190 -0.1977  0.6675 -0.3129
  578MOL0     C79635   1.690   9.804   7.299 -0.8581  0.1057  0.4956
  578MOL0     C79636   1.835   9.816   7.360  0.4503  0.6368  0.0295
  578MOL0     C79637   1.942   9.883   7.260  0.1023  0.0502 -0.6270
  578MOL0     C79638   2.092   9.863   7.313  0.5770 -0.0645  0.2624
  578MOL0     C79639   2.112   9.896   7.460  0.0033  0.0940 -0.3025
  578MOL0     C79640   2.267   9.892   7.481 -0.7336 -0.3163 -0.5791
  578MOL0     C79641   2.320   9.981   7.602  0.0678  0.0974  0.2366
  578MOL0     C79642   2.467  10.007   7.602 -0.6771 -0.5032  0.6919
  578MOL0     N79643   2.539   9.900   7.662  0.5899  0.9795 -0.0669
  578MOL0     C79644   2.543   9.778   7.595 -0.3488 -0.0661 -0.6823
  578MOL0     C79645   2.588   9.700   7.696  0.6736 -0.5197 -0.3992
  578MOL0     C79646   2.620   9.559   7.671 -0.2010 -0.1229 -0.3299
  578MOL0     C79647   2.763   9.549   7.619 -0.7919 -0.6358 -0.5531
  578MOL0     C79648   2.820   9.406   7.653 -0.2939  0.1123 -0.6542
  578MOL0     C79649   2.975   9.418   7.659 -0.1434 -0.0078  0.4370
  578MOL0     O79650   3.034   9.484   7.549  0.5597  0.3473  0.0528
  578MOL0     C79651   3.167   9.526   7.562 -0.9459  0.0483  0.1760
  578MOL0     C79652   3.251   9.514   7.676  0.5723 -0.5045  0.1683
  578MOL0     C79653   3.385   9.550   7.670 -0.5647 -0.6242 -0.9305
  578MOL0     C79654   3.469   9.527   7.799  0.5246  0.5138 -0.0640
  578MOL0     C79655   3.437   9.605   7.552  0.0009 -0.9416 -0.4382
  578MOL0     C79656   3.577   9.652   7.534 -0.0148 -0.4417 -0.3894
  578MOL0     O79657   3.590   9.756   7.436  0.8267  0.1257 -0.6103
  578MOL0     C79658   3.707   9.771   7.375 -0.1766 -0.0071  0.2325
  578MOL0     C79659   3.745   9.695   7.262  0.6842 -0.0834 -0.3809
  578MOL0     C79660   3.872   9.697   7.205  0.3599 -0.7112 -0.0342
  578MOL0     C79661   3.957   9.799   7.245 -0.0734 -0.3795 -0.4000
  578MOL0     O79662   4.083   9.812   7.210 -0.2997  0.0661  0.7188
  578MOL0     C79663   4.127   9.715   7.105 -0.2311  0.6742 -0.4178
  578MOL0     C79664   4.266   9.765   7.049 -0.9803 -0.3588  0.5644
  578MOL0     C79665   4.383   9.777   7.154 -0.3238 -0.3686  0.4138
  578MOL0     C79666   4.514   9.871   7.119  0.2869  0.6784 -0.1494
  578MOL0     C79667   4.605   9.900   7.241 -0.4618  0.0524 -0.0928
  578MOL0     C79668   4.701  10.013   7.215  0.6449 -0.0845 -0.0304
  578MOL0     C79669   4.807  10.032   7.333  0.4886 -0.4170 -0.6367
  578MOL0     C79670   4.756  10.005   7.473  0.0202 -0.1627 -0.5886
  578MOL0    Cl79671   4.878  10.058   7.595  0.4259 -0.0135 -0.0362
  578MOL0     C79672   3.928   9.871   7.363  0.1951 -1.2557 -0.0380
  578MOL0     C79673   3.795   9.861   7.426  0.7546  0.1680 -0.1004
  578MOL0     O79674   3.666   9.600   7.598 -0.0424 -0.5005 -0.0380
  578MOL0     C79675   3.354   9.608   7.436  0.7577 -0.3239 -0.4786
  578MOL0     C79676   3.227   9.564   7.438  0.7346  0.8456 -0.0713
  578MOL0     N79677   2.616   9.767   7.805  0.5299 -1.0255  0.0086
  578MOL0     N79678   2.575   9.894   7.792 -0.2498  0.3109  0.0530
  578MOL0     C79679   1.463   9.766   7.119 -0.7706  0.3730 -0.9026
  578MOL0     C79680   1.357   9.767   7.030 -0.3976 -0.0201  0.8591
  578MOL0     C79681   0.998   9.959   6.797  0.2878  1.0071  0.2762
  578MOL0     C79682   0.877  10.026   6.852 -0.6330  1.1017 -0.0591
  578MOL0     C79683   0.763  10.047   6.762 -1.2293  0.5575 -0.7097
  578MOL0     C79684   0.758  10.001   6.633 -0.0787  0.3561  0.4775
  578MOL0     O79685   0.643  10.020   6.556  0.0759  0.0703 -0.7477
  578MOL0     C79686   0.637   9.948   6.427 -0.4388  0.5575  0.1977
  578MOL0     C79687   0.496   9.934   6.406  1.1324  0.4269 -0.6832
  578MOL0     C79688   0.469   9.862   6.275  0.0009  0.3499 -0.3266
  578MOL0     C79689   0.319   9.832   6.246 -0.3033 -0.5040 -0.9988
  578MOL0     C79690   0.301   9.739   6.144  0.1503  0.5137  0.1321
  578MOL0     C79691   0.274   9.667   6.052 -0.8939  0.1749  0.0940
  578MOL0     C79692   0.869   9.931   6.590 -0.3887 -0.1039  0.5989
  578MOL0     C79693   0.987   9.907   6.671  0.6649 -0.5632 -0.4363
  578MOL0     C79694   1.090   9.820   6.616  0.4112  0.0819 -0.7360
  578MOL0     H79695   1.448  10.044   6.846 -1.8254  1.0639  1.3391
  578MOL0     H79696   1.634  10.026   6.985 -2.1072  1.2677 -0.2346
  578MOL0     H79697   1.678   9.699   7.272 -1.7473  0.1563  0.6681
  578MOL0     H79698   1.614   9.824   7.375 -0.0538  1.0461  1.0886
  578MOL0     H79699   1.835   9.869   7.455  0.4821 -0.9783  0.9711
  578MOL0     H79700   1.868   9.713   7.380  0.2082  0.7215  0.8805
  578MOL0     H79701   1.932   9.833   7.163  2.1968 -1.4352 -0.1757
  578MOL0     H79702   1.921   9.989   7.248  2.2681  0.4952 -0.9763
  578MOL0     H79703   2.112   9.755   7.310  2.5329 -0.2275  6.2398
  578MOL0     H79704   2.157   9.918   7.245  1.5381 -0.7256  0.6268
  578MOL0     H79705   2.076   9.812   7.520  2.0644 -1.0719 -0.6170
  578MOL0     H79706   2.068   9.993   7.485  0.1815  0.0970  0.0062
  578MOL0     H79707   2.295   9.786   7.492 -1.4499 -0.7579 -2.5677
  578MOL0     H79708   2.323   9.918   7.390  0.7570 -1.7431 -0.1302
  578MOL0     H79709   2.282   9.943   7.697 -0.5147  1.8440  0.7423
  578MOL0     H79710   2.269  10.076   7.584  2.9345  1.4362 -1.7222
  578MOL0     H79711   2.502  10.028   7.500 -2.3723  1.8966  0.5216
  578MOL0     H79712   2.491  10.099   7.655  1.3847  0.0724 -1.0871
  578MOL0     H79713   2.530   9.740   7.494  0.9075  0.0953 -0.9222
  578MOL0     H79714   2.543   9.513   7.607 -1.8778  1.3183  0.5489
  578MOL0     H79715   2.611   9.505   7.766  1.2439  0.6881  0.2912
  578MOL0     H79716   2.763   9.570   7.511 -0.6541  0.2410 -0.3919
  578MOL0     H79717   2.833   9.624   7.657  0.0896 -1.1152 -1.1932
  578MOL0     H79718   2.778   9.368   7.746 -2.1164  1.4732 -0.8580
  578MOL0     H79719   2.805   9.341   7.566  2.5794  1.3717 -2.2539
  578MOL0     H79720   2.991   9.473   7.752 -2.0235 -0.1057  0.8525
  578MOL0     H79721   3.009   9.314   7.665  1.9903  0.6994  1.9098
  578MOL0     H79722   3.207   9.492   7.772 -0.1586  0.2956  0.0394
  578MOL0     H79723   3.499   9.629   7.827 -1.3092  1.4475 -1.3128
  578MOL0     H79724   3.552   9.463   7.767  1.2571  1.2831  0.2469
  578MOL0     H79725   3.418   9.483   7.885  1.7191  3.4139  2.3304
  578MOL0     H79726   3.672   9.628   7.217 -2.8592  1.3924  2.6349
  578MOL0     H79727   3.897   9.613   7.141  0.2151 -1.5033  0.9345
  578MOL0     H79728   4.155   9.615   7.141 -0.8080 -0.5504 -3.0516
  578MOL0     H79729   4.063   9.721   7.016 -0.9791  1.9776  0.1904
  578MOL0     H79730   4.293   9.691   6.974 -0.3857  0.0101  0.4057
  578MOL0     H79731   4.250   9.855   6.989  0.8834 -0.1939  0.2514
  578MOL0     H79732   4.422   9.677   7.172 -1.9485 -0.8830  1.3715
  578MOL0     H79733   4.338   9.821   7.244 -3.9845 -0.3928 -1.2013
  578MOL0     H79734   4.475   9.970   7.095  1.6423  2.3915  3.7371
  578MOL0     H79735   4.573   9.836   7.034  1.6593  2.8152 -0.1607
  578MOL0     H79736   4.530   9.931   7.315 -0.0855  0.7685  0.0018
  578MOL0     H79737   4.652   9.810   7.281  0.8545  0.5494 -0.4789
  578MOL0     H79738   4.645  10.103   7.187  1.3187 -0.0547 -1.3801
  578MOL0     H79739   4.761   9.989   7.127  1.6953  1.6727  0.1697
  578MOL0     H79740   4.836  10.137   7.321  0.9872 -0.3573  0.8291
  578MOL0     H79741   4.885   9.956   7.323 -0.7565 -1.7590 -0.5468
  578MOL0     H79742   4.743   9.898   7.490  0.4524 -0.1892 -0.4156
  578MOL0     H79743   4.660  10.054   7.487  0.2699 -0.5180  3.4319
  578MOL0     H79744   4.012   9.932   7.396  0.6201 -2.6014  1.4976
  578MOL0     H79745   3.763   9.914   7.515 -0.2728  1.5845 -1.2494
  578MOL0     H79746   3.389   9.658   7.346 -1.5040  3.6597  0.5794
  578MOL0     H79747   3.176   9.538   7.345  0.6045 -5.7427  1.3658
  578MOL0     H79748   1.460   9.694   7.200 -1.0197  2.3736  0.9885
  578MOL0     H79749   1.278   9.693   7.021  0.6685 -0.9143 -2.2027
  578MOL0     H79750   0.888  10.049   6.957 -2.1325  0.3027  0.3066
  578MOL0     H79751   0.674  10.093   6.803 -0.2804  0.7482  1.2934
  578MOL0     H79752   0.676  10.004   6.341 -0.0245 -1.0991 -0.7337
  578MOL0     H79753   0.684   9.849   6.424 -1.0852  0.0166  3.6292
  578MOL0     H79754   0.456  10.035   6.393  1.0621  0.9784  2.8565
  578MOL0     H79755   0.446   9.878   6.486  0.1795 -0.6353 -1.9889
  578MOL0     H79756   0.518   9.903   6.186  1.0641  1.1422  0.5860
  578MOL0     H79757   0.510   9.762   6.288  0.0998  0.3337 -0.7539
  578MOL0     H79758   0.268   9.925   6.220 -4.3001 -2.4260 -0.8771
  578MOL0     H79759   0.275   9.795   6.340 -1.5531  2.4820 -0.2944
  578MOL0     H79760   0.265   9.599   5.971 -0.3880 -0.8352  0.8630
  578MOL0     H79761   0.866   9.902   6.486  1.2918  2.4969 -0.2663
  578MOL0     H79762   1.137   9.742   6.676  1.0869  0.9973 -0.0528
  578MOL0     H79763   1.048   9.766   6.530  0.3511 -1.4908  0.2415
  578MOL0     H79764   1.168   9.890   6.584 -0.1919  2.1204  1.9205
  579MOL0     O79765   1.614   4.438   4.963 -0.1035  0.7394  0.2251
  579MOL0     C79766   1.615   4.495   5.072  0.1009  0.6568  0.0579
  579MOL0     O79767   1.698   4.612   5.107 -0.0093  0.3746  0.0557
  579MOL0     C79768   1.779   4.654   5.007 -0.3910 -0.5893 -0.2501
  579MOL0     C79769   1.920   4.650   5.031 -0.2134  0.1826 -0.0939
  579MOL0     C79770   2.006   4.707   4.940  1.0808 -0.1067  0.8090
  579MOL0     C79771   1.970   4.754   4.814 -0.4781 -1.3978  0.1369
  579MOL0     O79772   2.068   4.795   4.721 -0.3779  0.2735  0.2063
  579MOL0     C79773   2.154   4.910   4.761 -0.5321  0.3888  0.2860
  579MOL0     C79774   2.304   4.873   4.745 -0.0324  0.0033 -0.1236
  579MOL0     C79775   2.408   4.982   4.748  0.6462  0.7498  0.5744
  579MOL0     C79776   2.523   4.956   4.851  0.1611 -0.4128 -0.5108
  579MOL0     C79777   2.638   5.050   4.813 -0.3741 -0.3589 -0.4737
  579MOL0     C79778   2.758   5.039   4.910  0.2557 -0.3050 -0.1212
  579MOL0     C79779   2.879   5.134   4.886  0.0037  0.6459  0.7775
  579MOL0     C79780   2.999   5.086   4.974  1.0123  0.9779 -0.9926
  579MOL0     N79781   3.106   5.188   4.953 -0.1351  0.7787  0.2724
  579MOL0     C79782   3.218   5.174   4.875  0.5441  0.0986  0.0454
  579MOL0     C79783   3.297   5.276   4.914  0.5691  0.2473  0.0372
  579MOL0     C79784   3.439   5.315   4.864  0.3800  0.6298  0.3501
  579MOL0     C79785   3.470   5.463   4.835 -1.2397  0.6831 -0.2606
  579MOL0     C79786   3.615   5.488   4.858 -0.3908  0.4207  0.5231
  579MOL0     C79787   3.647   5.635   4.818  0.2338 -0.4666  0.1991
  579MOL0     O79788   3.664   5.643   4.681 -0.5569 -0.1005  0.6464
  579MOL0     C79789   3.775   5.696   4.634  0.3539 -0.1989 -0.0498
  579MOL0     C79790   3.785   5.828   4.580  0.2890 -0.2056 -0.5331
  579MOL0     C79791   3.898   5.871   4.509 -0.8404 -0.3092 -0.0035
  579MOL0     C79792   3.901   6.015   4.462  0.3549  0.8061  0.3806
  579MOL0     C79793   4.023   5.789   4.500  0.1159  0.8158  0.3194
  579MOL0     C79794   4.162   5.836   4.456 -0.3183 -0.2955 -0.5347
  579MOL0     O79795   4.261   5.738   4.445 -0.9842  0.4023 -0.3379
  579MOL0     C79796   4.377   5.759   4.383 -0.0567  0.4713 -0.9657
  579MOL0     C79797   4.396   5.845   4.273  0.0042 -0.5554  0.0491
  579MOL0     C79798   4.527   5.873   4.225  0.3815  0.1413  0.0129
  579MOL0     C79799   4.640   5.809   4.286  0.6016 -0.7747 -0.2194
  579MOL0     O79800   4.778   5.828   4.251 -0.7034  0.1117 -0.0647
  579MOL0     C79801   4.811   5.957   4.218 -0.2183  0.3137 -0.2533
  579MOL0     C79802   4.953   5.991   4.189 -0.6960 -0.7900  0.8941
  579MOL0     C79803   5.038   5.884   4.119  0.5315 -0.1591  0.2989
  579MOL0     C79804   5.190   5.933   4.105  0.3115 -0.5371 -0.8218
  579MOL0     C79805   5.283   5.837   4.027 -0.4782  0.3164 -0.2563
  579MOL0     C79806   5.430   5.860   4.043  0.1061 -0.7688  0.0047
  579MOL0     C79807   5.473   6.004   4.003  0.0503 -0.3587 -0.0821
  579MOL0     C79808   5.618   6.031   3.999  0.3280  0.8661  0.4152
  579MOL0    Cl79809   5.708   5.975   4.142  0.4437 -0.2286 -0.1103
  579MOL0     C79810   4.612   5.715   4.378 -0.3279  0.2686  0.7636
  579MOL0     C79811   4.491   5.683   4.426  1.1029 -0.0269  0.7002
  579MOL0     O79812   4.182   5.953   4.432 -0.2976 -0.5481  0.1877
  579MOL0     C79813   4.005   5.651   4.535  0.7548  0.4431 -1.1210
  579MOL0     C79814   3.886   5.608   4.600 -0.0411  0.3905  0.2267
  579MOL0     N79815   3.239   5.333   5.021 -0.0294 -0.4006  0.4599
  579MOL0     N79816   3.125   5.286   5.043  0.6092  1.2288  0.6184
  579MOL0     C79817   1.828   4.747   4.792  0.3377  0.2624  0.4271
  579MOL0     C79818   1.741   4.697   4.886 -0.6802 -0.2004  0.4814
  579MOL0     C79819   1.537   4.431   5.172  0.2803 -0.2508 -0.7156
  579MOL0     C79820   1.595   4.423   5.297  1.0178 -0.3780  0.4733
  579MOL0     C79821   1.532   4.354   5.400  0.2290 -0.2172 -0.4987
  579MOL0     C79822   1.397   4.314   5.391 -0.8825 -0.2810  0.0585
  579MOL0     O79823   1.344   4.250   5.500 -0.3803  0.1158  0.4625
  579MOL0     C79824   1.221   4.171   5.482  0.1337 -0.1353 -0.0017
  579MOL0     C79825   1.149   4.151   5.623 -0.0442 -0.1966 -0.2040
  579MOL0     C79826   1.000   4.136   5.613 -0.9019 -0.0114  0.1134
  579MOL0     C79827   0.938   4.143   5.750 -0.8037 -0.0509  0.0781
  579MOL0     C79828   0.799   4.112   5.770 -0.0822 -0.2941 -0.6959
  579MOL0     C79829   0.676   4.100   5.768  0.0558  0.0122  0.1634
  579MOL0     C79830   1.338   4.325   5.259  0.3152 -0.0479 -0.2024
  579MOL0     C79831   1.401   4.389   5.150 -0.6467 -0.3270 -0.5320
  579MOL0     C79832   1.329   4.396   5.015  0.5729 -1.0082 -1.0125
  579MOL0     H79833   1.974   4.625   5.121 -0.1462  1.3824  0.2110
  579MOL0     H79834   2.110   4.718   4.972  0.6714  0.1713  2.0954
  579MOL0     H79835   2.136   4.957   4.859  0.8244 -1.2971  1.4129
  579MOL0     H79836   2.133   4.990   4.690 -0.3568 -0.0859 -0.3104
  579MOL0     H79837   2.330   4.793   4.815  0.3349  0.2445  0.0160
  579MOL0     H79838   2.304   4.830   4.644 -0.6147  1.1881 -0.6555
  579MOL0     H79839   2.454   4.985   4.648  0.6718 -2.3770  0.4051
  579MOL0     H79840   2.357   5.076   4.772 -1.2919 -0.8528  3.3615
  579MOL0     H79841   2.485   4.979   4.952 -0.0574 -1.0340 -0.4466
  579MOL0     H79842   2.555   4.852   4.859  0.1516 -0.3841 -0.0702
  579MOL0     H79843   2.595   5.150   4.801  1.7239  0.5538 -0.6980
  579MOL0     H79844   2.673   5.021   4.714  0.7400  1.4195 -0.6542
  579MOL0     H79845   2.713   5.057   5.008  0.3280  4.4980 -0.7387
  579MOL0     H79846   2.802   4.939   4.906  0.5400 -0.2550  1.4262
  579MOL0     H79847   2.858   5.241   4.893 -0.0239  0.8879 -1.9105
  579MOL0     H79848   2.909   5.115   4.783  0.0346 -1.7477  1.1511
  579MOL0     H79849   2.973   5.064   5.078 -2.6598  0.4846 -1.8591
  579MOL0     H79850   3.027   4.991   4.927 -0.5707  0.2871 -0.6253
  579MOL0     H79851   3.236   5.111   4.788  1.9744 -1.0781  1.1500
  579MOL0     H79852   3.458   5.266   4.769 -0.1628  0.2277  0.4413
  579MOL0     H79853   3.507   5.279   4.942 -1.8519 -2.0872  1.2320
  579MOL0     H79854   3.443   5.476   4.730  1.9280 -1.0564 -1.3975
  579MOL0     H79855   3.407   5.529   4.896 -0.8449 -1.6040  2.9284
  579MOL0     H79856   3.639   5.486   4.965 -1.3253  1.5147  0.7792
  579MOL0     H79857   3.660   5.409   4.798 -2.3040  0.1558 -0.6612
  579MOL0     H79858   3.566   5.699   4.853 -0.5743  0.3229 -2.8321
  579MOL0     H79859   3.736   5.671   4.870  0.1144  0.1110  0.0061
  579MOL0     H79860   3.711   5.903   4.606 -2.1576 -2.4774 -0.5991
  579MOL0     H79861   3.951   6.005   4.365  2.2387 -1.3270  1.4941
  579MOL0     H79862   3.949   6.089   4.527  2.4910 -1.5232  1.6263
  579MOL0     H79863   3.798   6.047   4.445 -0.5780 -2.4282 -0.7850
  579MOL0     H79864   4.315   5.903   4.230 -0.6333 -1.9528 -0.7039
  579MOL0     H79865   4.529   5.934   4.135 -0.7857  1.5790  0.8968
  579MOL0     H79866   4.756   5.987   4.129 -0.3780  1.3183  0.1662
  579MOL0     H79867   4.771   6.025   4.294  1.3784  0.8120  0.1823
  579MOL0     H79868   4.966   6.087   4.138  1.2526 -2.3028 -1.6907
  579MOL0     H79869   5.002   6.011   4.285  0.5018 -2.0048  0.5610
  579MOL0     H79870   4.993   5.860   4.022  0.4929  0.8389  0.0641
  579MOL0     H79871   5.050   5.792   4.177  1.1228 -0.0214  0.4027
  579MOL0     H79872   5.240   5.945   4.202 -0.6648 -0.5890 -0.3013
  579MOL0     H79873   5.190   6.035   4.064  1.2620  0.3846  1.3052
  579MOL0     H79874   5.266   5.735   4.063  4.7083 -0.5355  0.5400
  579MOL0     H79875   5.244   5.845   3.925 -1.6334 -0.0738  0.1306
  579MOL0     H79876   5.482   5.786   3.980 -1.8213 -1.2907 -1.0394
  579MOL0     H79877   5.458   5.842   4.147  0.9497 -0.5935 -0.1764
  579MOL0     H79878   5.422   6.070   4.074  0.9219 -0.0532  0.2745
  579MOL0     H79879   5.433   6.034   3.905  0.8940 -0.7874 -0.5684
  579MOL0     H79880   5.648   6.134   3.977  2.7004  0.1748  0.1498
  579MOL0     H79881   5.652   5.966   3.919 -0.2607 -0.9088  1.5561
  579MOL0     H79882   4.692   5.661   4.426  2.2842  3.0222 -0.1344
  579MOL0     H79883   4.483   5.605   4.501 -5.0133 -0.5720  0.0132
  579MOL0     H79884   4.090   5.585   4.518  0.6625  0.8800 -3.8393
  579MOL0     H79885   3.877   5.501   4.615 -0.0386 -0.2885 -3.6180
  579MOL0     H79886   1.794   4.781   4.695  1.4692  0.7740  0.1967
  579MOL0     H79887   1.634   4.706   4.866 -0.4225  0.8609 -0.4880
  579MOL0     H79888   1.699   4.454   5.306  0.3547  1.6339  2.3092
  579MOL0     H79889   1.582   4.334   5.494  1.1916  1.4000 -0.6312
  579MOL0     H79890   1.160   4.226   5.410  2.3981  0.5781 -1.5009
  579MOL0     H79891   1.245   4.069   5.450  4.2617  0.4103  0.8113
  579MOL0     H79892   1.181   4.249   5.661  2.2512 -1.0735  0.3160
  579MOL0     H79893   1.190   4.069   5.683  0.4786  0.7124  0.7135
  579MOL0     H79894   0.963   4.207   5.539  0.6206  1.6904  0.9201
  579MOL0     H79895   0.990   4.034   5.574 -1.0180 -2.0732  4.8090
  579MOL0     H79896   0.948   4.245   5.786  1.5659 -0.9121  2.1694
  579MOL0     H79897   0.987   4.078   5.823 -0.5299 -0.5465 -0.5361
  579MOL0     H79898   0.570   4.088   5.763 -0.3158  2.1262  1.5396
  579MOL0     H79899   1.237   4.287   5.249  0.9323 -2.4825  1.8539
  579MOL0     H79900   1.222   4.405   5.034  1.0318  0.2614  1.2441
  579MOL0     H79901   1.364   4.485   4.962  0.3623 -1.6810 -2.3317
  579MOL0     H79902   1.360   4.308   4.958  2.5421 -0.5866 -0.6671
  580MOL0     O79903   9.962   7.592   8.102  0.3354 -0.1204 -0.2333
  580MOL0     C79904   9.900   7.602   8.207  0.0177 -0.1112 -0.2741
  580MOL0     O79905   9.952   7.642   8.327 -0.4079 -0.4872  0.4849
  580MOL0     C79906  10.080   7.690   8.336  0.2983 -0.7125 -0.4778
  580MOL0     C79907  10.101   7.822   8.369  0.6011  0.2394  0.4444
  580MOL0     C79908  10.229   7.871   8.384 -0.1544  0.1876  0.0280
  580MOL0     C79909  10.345   7.788   8.370 -0.4721 -0.8093  0.2469
  580MOL0     O79910  10.463   7.863   8.365 -1.0270 -0.2175  0.0819
  580MOL0     C79911  10.587   7.792   8.322  0.3713 -0.6666 -0.4695
  580MOL0     C79912  10.607   7.799   8.172  0.0737 -0.8401 -0.4103
  580MOL0     C79913  10.762   7.775   8.170 -0.5272  0.1110 -0.1934
  580MOL0     C79914  10.809   7.766   8.023 -0.2143  0.1138 -0.0198
  580MOL0     C79915  10.955   7.762   8.004 -0.9596  0.3060  0.6902
  580MOL0     C79916  11.034   7.883   8.070  0.0994  0.2635  0.2682
  580MOL0     C79917  11.176   7.906   8.040  0.0986 -0.0556 -0.1837
  580MOL0     C79918  11.205   7.910   7.890 -0.6948 -0.1254  0.4332
  580MOL0     N79919  11.336   7.973   7.879  1.4041 -0.1370  0.6136
  580MOL0     C79920  11.449   7.917   7.923 -0.5427 -0.3278 -0.9071
  580MOL0     C79921  11.552   7.992   7.873 -0.0413 -1.0211 -0.0004
  580MOL0     C79922  11.701   7.971   7.899 -0.2302 -1.0135 -0.5839
  580MOL0     C79923  11.809   8.047   7.823  0.5027  0.0461 -0.4360
  580MOL0     C79924  11.803   8.035   7.677  1.0909  0.2464  0.1825
  580MOL0     C79925  11.918   8.115   7.612 -0.0690  0.8096  0.6240
  580MOL0     O79926  12.053   8.066   7.629  0.1884 -0.0831  0.0631
  580MOL0     C79927  12.139   8.096   7.533 -0.6921 -0.0944 -0.2381
  580MOL0     C79928  12.134   8.213   7.462  0.7800 -0.4836 -0.4762
  580MOL0     C79929  12.229   8.239   7.355 -0.6988 -0.2633 -0.3467
  580MOL0     C79930  12.226   8.368   7.281  0.1096  1.1726 -0.6463
  580MOL0     C79931  12.333   8.146   7.332  0.6662  0.4142  0.2395
  580MOL0     C79932  12.457   8.180   7.244  0.9261 -0.0883  0.0776
  580MOL0     O79933  12.450   8.269   7.135  0.2872 -0.2198 -1.0528
  580MOL0     C79934  12.554   8.289   7.051  0.4824  0.7700 -0.3832
  580MOL0     C79935  12.584   8.195   6.954 -0.0444 -0.6992  0.7117
  580MOL0     C79936  12.700   8.206   6.874  0.1713  0.9381 -0.6222
  580MOL0     C79937  12.792   8.301   6.897  0.1919  0.0091  0.1986
  580MOL0     O79938  12.900   8.294   6.815  0.1493  0.1384  0.1339
  580MOL0     C79939  12.991   8.406   6.818 -0.1453 -0.1908  0.1357
  580MOL0     C79940  13.085   8.388   6.696 -0.2043  0.3165 -0.0885
  580MOL0     C79941  13.011   8.429   6.572 -0.5364 -0.0419 -0.2205
  580MOL0     C79942  13.064   8.352   6.449  0.1934 -0.1274 -0.2945
  580MOL0     C79943  12.991   8.395   6.322 -0.2946 -0.6153 -0.6232
  580MOL0     C79944  13.049   8.329   6.193 -0.3806 -0.1847  0.2133
  580MOL0     C79945  12.962   8.376   6.074  0.0841 -0.1948  0.0981
  580MOL0     C79946  12.972   8.289   5.945 -0.0720 -0.1407 -0.5411
  580MOL0    Cl79947  13.149   8.302   5.895  0.4085  0.1479 -0.4311
  580MOL0     C79948  12.760   8.402   6.982 -0.3295  0.2299 -0.3376
  580MOL0     C79949  12.645   8.392   7.063  0.6708 -0.1385 -0.2741
  580MOL0     O79950  12.558   8.120   7.281 -0.4224 -0.0115  0.4312
  580MOL0     C79951  12.339   8.036   7.416  0.0451 -0.1209 -0.1646
  580MOL0     C79952  12.243   8.004   7.509 -0.2087  0.3934  0.5593
  580MOL0     N79953  11.496   8.105   7.815 -0.1429  0.6167 -0.4878
  580MOL0     N79954  11.369   8.087   7.817  0.1656 -0.9973  0.5947
  580MOL0     C79955  10.328   7.652   8.360  0.0166  0.0897 -0.2018
  580MOL0     C79956  10.192   7.607   8.335 -0.0257  0.6665 -0.1343
  580MOL0     C79957   9.762   7.559   8.213  0.6819 -0.1960 -0.7376
  580MOL0     C79958   9.736   7.431   8.168 -0.1116 -0.4905  0.0866
  580MOL0     C79959   9.616   7.375   8.169  0.3090  0.0002 -0.3197
  580MOL0     C79960   9.506   7.442   8.221  1.0283 -0.7406 -0.1613
  580MOL0     O79961   9.379   7.395   8.239  0.2421 -0.2694  0.2663
  580MOL0     C79962   9.359   7.261   8.270  0.0113 -0.4888 -1.3457
  580MOL0     C79963   9.218   7.220   8.240 -0.0523  0.2372  0.1394
  580MOL0     C79964   9.203   7.157   8.095 -0.9703 -0.1073  0.3005
  580MOL0     C79965   9.069   7.173   8.028  0.1025 -0.3949 -0.3125
  580MOL0     C79966   9.067   7.151   7.884  0.1221 -0.3274 -0.0760
  580MOL0     C79967   9.043   7.141   7.765 -0.7571  0.7768  0.3250
  580MOL0     C79968   9.535   7.577   8.267  0.2046 -1.0644  1.2808
  580MOL0     C79969   9.659   7.638   8.273  0.0949  0.9161 -0.5184
  580MOL0     C79970   9.683   7.770   8.340  0.4683  0.0785 -0.8850
  580MOL0     H79971  10.012   7.884   8.375 -0.8567 -1.8589  1.9601
  580MOL0     H79972  10.236   7.979   8.390 -0.1511  0.2965 -1.6076
  580MOL0     H79973  10.586   7.689   8.356  1.8825 -1.7572 -3.3909
  580MOL0     H79974  10.660   7.850   8.379 -0.9488 -1.1758  1.8671
  580MOL0     H79975  10.554   7.730   8.104  2.7415 -0.9432 -2.5667
  580MOL0     H79976  10.593   7.898   8.128  0.4996 -0.5362  0.1265
  580MOL0     H79977  10.808   7.863   8.216 -0.7468  1.0483 -1.6914
  580MOL0     H79978  10.790   7.679   8.213  0.3897 -0.5940 -2.2060
  580MOL0     H79979  10.779   7.672   7.977 -0.6341 -0.8327  2.0893
  580MOL0     H79980  10.771   7.855   7.971  0.2730 -0.5813 -1.6143
  580MOL0     H79981  10.977   7.757   7.897 -0.1124  0.3565  0.8510
  580MOL0     H79982  11.000   7.674   8.052 -0.6860  0.8450  1.4277
  580MOL0     H79983  10.976   7.973   8.053 -1.0599 -0.5145  0.0141
  580MOL0     H79984  11.035   7.879   8.180  1.2374  0.3410  0.2730
  580MOL0     H79985  11.230   7.825   8.089 -0.1223 -0.3064 -0.3529
  580MOL0     H79986  11.217   7.995   8.089  4.4269 -2.1303  0.4422
  580MOL0     H79987  11.216   7.807   7.856 -0.8485 -0.1238  0.3786
  580MOL0     H79988  11.126   7.968   7.841  0.3007  1.5325  0.7347
  580MOL0     H79989  11.459   7.821   7.974 -1.5114 -0.1476 -0.3560
  580MOL0     H79990  11.722   7.866   7.878 -0.7771 -0.8474 -2.0786
  580MOL0     H79991  11.716   7.997   8.005 -0.1376 -0.1702 -0.7951
  580MOL0     H79992  11.796   8.147   7.865 -3.0817 -1.4281  2.5437
  580MOL0     H79993  11.908   8.009   7.851  1.5698 -0.8016 -4.6979
  580MOL0     H79994  11.792   7.931   7.643 -3.5101  0.2429  0.9850
  580MOL0     H79995  11.707   8.080   7.647  1.1554 -0.1233 -0.6216
  580MOL0     H79996  11.904   8.125   7.504  4.3141 -3.5845 -0.7191
  580MOL0     H79997  11.910   8.216   7.653 -0.7807  1.7637 -1.7303
  580MOL0     H79998  12.067   8.289   7.500  0.1814 -1.7006  0.9923
  580MOL0     H79999  12.143   8.432   7.314 -0.6297 -0.5863  1.1060
  580MOL0     H80000  12.203   8.354   7.175 -1.8007 -2.6885  0.1141
  580MOL0     H80001  12.325   8.415   7.279  0.2816  0.9365  1.0286
  580MOL0     H80002  12.525   8.108   6.926 -0.8117  0.0059  0.0992
  580MOL0     H80003  12.711   8.135   6.792 -1.2099 -0.4529  0.3346
  580MOL0     H80004  12.939   8.502   6.808  2.0915  0.9651 -1.1732
  580MOL0     H80005  13.046   8.395   6.912 -0.2587 -0.2203  0.1985
  580MOL0     H80006  13.168   8.455   6.721 -0.8572  0.5963  1.4323
  580MOL0     H80007  13.129   8.288   6.684  0.2593  0.5522 -0.3792
  580MOL0     H80008  13.022   8.537   6.557 -0.6677 -0.2554 -2.0709
  580MOL0     H80009  12.905   8.402   6.576  0.6285 -5.4607  1.7389
  580MOL0     H80010  13.065   8.245   6.473 -1.4447  0.0907  0.9167
  580MOL0     H80011  13.170   8.374   6.437 -0.1289  0.9051 -1.4495
  580MOL0     H80012  12.883   8.377   6.333 -0.9429  3.5755  2.0598
  580MOL0     H80013  12.992   8.504   6.315 -2.6924 -0.1914  2.8589
  580MOL0     H80014  13.041   8.221   6.210 -3.7494  0.1547  1.6447
  580MOL0     H80015  13.154   8.359   6.181 -0.0427 -0.5401  1.9346
  580MOL0     H80016  12.999   8.476   6.048 -3.1708  0.8814 -0.9276
  580MOL0     H80017  12.858   8.391   6.106 -0.4641 -1.0455 -1.1886
  580MOL0     H80018  12.904   8.324   5.867  1.0075  0.9847 -1.0054
  580MOL0     H80019  12.947   8.182   5.949 -0.4629 -0.0793 -1.2010
  580MOL0     H80020  12.822   8.488   7.004  0.9119 -0.8566  0.6382
  580MOL0     H80021  12.640   8.461   7.147  1.8421 -1.7379  1.1946
  580MOL0     H80022  12.426   7.971   7.418 -0.2485 -0.5736  2.6156
  580MOL0     H80023  12.246   7.910   7.564 -2.7192 -1.5168 -2.2074
  580MOL0     H80024  10.410   7.583   8.376 -0.2911 -0.9137 -2.6197
  580MOL0     H80025  10.173   7.502   8.316 -2.9145  1.2007 -0.6427
  580MOL0     H80026   9.817   7.371   8.129 -0.0793 -1.9441  2.2392
  580MOL0     H80027   9.609   7.273   8.131 -1.5474  0.4381 -1.2508
  580MOL0     H80028   9.426   7.191   8.219 -0.4717 -3.1284  1.3556
  580MOL0     H80029   9.384   7.241   8.375  1.1381  1.5449 -1.1741
  580MOL0     H80030   9.148   7.303   8.245 -0.2924 -0.0156  1.3051
  580MOL0     H80031   9.183   7.142   8.308 -1.7950  0.8014 -0.0740
  580MOL0     H80032   9.279   7.196   8.026 -0.5293 -1.5576 -0.0730
  580MOL0     H80033   9.229   7.052   8.114  2.6828  0.2469 -1.7161
  580MOL0     H80034   9.016   7.266   8.052 -0.9514 -0.7975 -1.0123
  580MOL0     H80035   9.003   7.095   8.066 -0.8391  0.3988 -0.2835
  580MOL0     H80036   9.035   7.146   7.659 -2.2278 -0.6427  0.3414
  580MOL0     H80037   9.461   7.642   8.313 -0.3115  1.1243 -2.2714
  580MOL0     H80038   9.595   7.804   8.396  2.3810  3.2385  0.4803
  580MOL0     H80039   9.754   7.760   8.422  2.1062 -2.8832 -2.4784
  580MOL0     H80040   9.710   7.854   8.274  0.4071  0.8490  0.0517
  581MOL0     O80041   9.250   8.265   6.934  0.8792  0.3345 -0.2988
  581MOL0     C80042   9.197   8.372   6.893  0.5775 -0.2590 -0.5919
  581MOL0     O80043   9.263   8.486   6.852 -0.2185  0.2336  0.4912
  581MOL0     C80044   9.400   8.500   6.865  0.2113  0.4115 -0.0679
  581MOL0     C80045   9.452   8.616   6.802  0.7151  0.0054  0.4340
  581MOL0     C80046   9.584   8.655   6.820 -0.0370  0.1417 -0.0585
  581MOL0     C80047   9.669   8.572   6.896 -0.6141 -0.4022 -0.1834
  581MOL0     O80048   9.802   8.596   6.911  0.5412 -0.0269  0.2717
  581MOL0     C80049   9.873   8.695   6.829 -0.0538  0.5533  0.1673
  581MOL0     C80050  10.017   8.637   6.813 -0.2226  0.9779  0.2774
  581MOL0     C80051  10.096   8.621   6.943 -0.4949 -0.6055 -0.0279
  581MOL0     C80052  10.217   8.534   6.929 -0.6963 -0.4464  0.2161
  581MOL0     C80053  10.321   8.538   7.053  0.8759  0.1787 -0.0228
  581MOL0     C80054  10.392   8.407   7.057  0.1079  0.6462 -1.3701
  581MOL0     C80055  10.507   8.401   6.960 -0.3342 -0.1914 -0.4010
  581MOL0     C80056  10.611   8.290   6.988 -0.8997 -0.0053  0.9119
  581MOL0     N80057  10.690   8.264   6.865 -0.7482 -0.4603  0.2041
  581MOL0     C80058  10.654   8.204   6.745 -0.7984 -0.5025  0.0246
  581MOL0     C80059  10.774   8.201   6.678  0.0333  0.3312  0.1722
  581MOL0     C80060  10.791   8.129   6.552 -0.0273 -0.4474  1.0339
  581MOL0     C80061  10.870   8.002   6.563 -0.1363  0.8234  0.2568
  581MOL0     C80062  10.915   7.948   6.430 -0.0537 -0.1316  0.3494
  581MOL0     C80063  10.964   7.806   6.436 -0.3203 -0.6058  0.3455
  581MOL0     O80064  11.081   7.788   6.521  0.1293 -0.1572 -0.0935
  581MOL0     C80065  11.190   7.853   6.484 -0.2078 -0.4499 -0.3510
  581MOL0     C80066  11.263   7.811   6.367 -0.2342 -0.4880  0.5276
  581MOL0     C80067  11.374   7.887   6.321  0.2536 -0.4265 -0.2387
  581MOL0     C80068  11.429   7.843   6.184 -0.5503 -0.7408 -0.2794
  581MOL0     C80069  11.415   8.001   6.396 -0.1556 -0.2097  0.6153
  581MOL0     C80070  11.521   8.097   6.349 -0.5466 -1.0314  0.4401
  581MOL0     O80071  11.557   8.197   6.445 -0.6112  0.2689  0.4356
  581MOL0     C80072  11.630   8.313   6.417 -0.3949  0.2665 -0.4702
  581MOL0     C80073  11.641   8.367   6.288 -0.0634 -0.0672 -0.2328
  581MOL0     C80074  11.696   8.497   6.270 -0.3379 -0.4010 -0.3420
  581MOL0     C80075  11.766   8.556   6.378 -0.2577 -0.0833  0.2715
  581MOL0     O80076  11.841   8.665   6.349  0.5280  0.1864 -0.3336
  581MOL0     C80077  11.934   8.720   6.449 -0.2214 -0.3616 -0.1630
  581MOL0     C80078  11.851   8.795   6.543  0.2735  0.4201 -0.1603
  581MOL0     C80079  11.792   8.915   6.467 -0.1957  0.0505  0.2106
  581MOL0     C80080  11.675   8.979   6.542 -0.3595 -0.1490 -0.2490
  581MOL0     C80081  11.687   9.007   6.693 -1.1440 -0.0639  0.1626
  581MOL0     C80082  11.595   9.117   6.750 -0.0590 -1.1098 -0.2752
  581MOL0     C80083  11.463   9.063   6.777 -0.1369 -0.3166 -0.4988
  581MOL0     C80084  11.351   9.173   6.769 -0.8319  0.1880 -0.6512
  581MOL0    Cl80085  11.350   9.252   6.608  0.0582 -0.5005  0.3852
  581MOL0     C80086  11.772   8.492   6.501  0.5012  0.5548  0.0777
  581MOL0     C80087  11.689   8.381   6.524 -1.2452 -0.7940 -1.3884
  581MOL0     O80088  11.583   8.082   6.241  0.1514 -0.1958 -0.3446
  581MOL0     C80089  11.346   8.030   6.511  0.2543  0.4525 -0.0675
  581MOL0     C80090  11.239   7.958   6.559 -0.0628 -0.0951 -0.3117
  581MOL0     N80091  10.869   8.267   6.748  0.0146  1.4250  0.5708
  581MOL0     N80092  10.819   8.308   6.858  0.1675 -0.1716  0.4287
  581MOL0     C80093   9.625   8.455   6.955 -0.1526 -0.0237  1.4749
  581MOL0     C80094   9.490   8.420   6.945 -0.5723  0.8695 -0.6045
  581MOL0     C80095   9.047   8.371   6.880  0.0281 -0.3341  0.0056
  581MOL0     C80096   8.981   8.248   6.906 -0.3351 -0.2954  0.1262
  581MOL0     C80097   8.849   8.232   6.879  0.5238  0.2634  0.6413
  581MOL0     C80098   8.768   8.336   6.837 -0.8177  0.0864 -0.1514
  581MOL0     O80099   8.636   8.317   6.820 -0.0438  0.2374 -0.9023
  581MOL0     C80100   8.578   8.191   6.803  1.2682 -0.4130  0.1046
  581MOL0     C80101   8.448   8.203   6.714 -0.0645 -0.2826 -1.1696
  581MOL0     C80102   8.328   8.265   6.786 -0.9352  0.1979  0.1092
  581MOL0     C80103   8.194   8.243   6.709 -0.1411 -0.2647 -0.2611
  581MOL0     C80104   8.206   8.301   6.572 -0.0653 -0.0943  0.0880
  581MOL0     C80105   8.228   8.356   6.464  0.2377  0.8201 -0.2338
  581MOL0     C80106   8.828   8.466   6.821  0.7032  0.4490 -0.2454
  581MOL0     C80107   8.966   8.482   6.840  0.7051 -0.5032 -0.2836
  581MOL0     C80108   9.012   8.624   6.812 -0.7163 -0.8049 -0.9309
  581MOL0     H80109   9.381   8.680   6.750  1.3568 -0.7585 -1.4439
  581MOL0     H80110   9.620   8.750   6.781  1.7400  0.0434  1.2129
  581MOL0     H80111   9.868   8.789   6.885  1.6522  0.7153  0.1117
  581MOL0     H80112   9.838   8.712   6.726 -2.3258  1.5191  1.0357
  581MOL0     H80113  10.000   8.539   6.767 -0.1595  1.4723 -0.8023
  581MOL0     H80114  10.083   8.700   6.754  1.3090 -0.9914 -0.2201
  581MOL0     H80115  10.122   8.724   6.968 -1.9868 -0.1007 -0.4733
  581MOL0     H80116  10.033   8.580   7.022 -0.0253  0.1369  0.7373
  581MOL0     H80117  10.169   8.437   6.913 -0.8210 -0.5653  1.2026
  581MOL0     H80118  10.269   8.556   6.835  2.0484  2.4692  2.1833
  581MOL0     H80119  10.266   8.547   7.147  1.3940 -0.5690  0.3626
  581MOL0     H80120  10.393   8.619   7.043  0.7287  0.0640 -2.7094
  581MOL0     H80121  10.436   8.392   7.156  0.2863  0.8347 -1.4194
  581MOL0     H80122  10.321   8.334   7.018  0.6997  1.1830 -3.6230
  581MOL0     H80123  10.565   8.494   6.958  3.3007 -2.2851 -1.6815
  581MOL0     H80124  10.471   8.394   6.857  2.8797 -0.2667 -1.6321
  581MOL0     H80125  10.679   8.329   7.063  0.1239 -0.0787  0.0402
  581MOL0     H80126  10.559   8.200   7.024 -2.6992  1.8248  3.1977
  581MOL0     H80127  10.564   8.144   6.730 -1.7755  0.5909  1.2592
  581MOL0     H80128  10.836   8.198   6.480  0.7470 -0.6294  1.3328
  581MOL0     H80129  10.698   8.096   6.504  0.5534  0.2832 -0.6614
  581MOL0     H80130  10.954   8.037   6.624  1.2399  0.2903 -1.2485
  581MOL0     H80131  10.827   7.913   6.610 -1.0788  0.2977 -1.5001
  581MOL0     H80132  10.842   7.951   6.349  0.3710 -1.9694 -0.1405
  581MOL0     H80133  11.000   8.013   6.405  1.6130 -0.9012  3.4721
  581MOL0     H80134  10.883   7.741   6.471 -1.4270  1.0696  1.0566
  581MOL0     H80135  10.989   7.765   6.337  0.0527 -0.0498  0.2049
  581MOL0     H80136  11.228   7.730   6.303  1.4793 -1.0709  0.2527
  581MOL0     H80137  11.401   7.741   6.158  1.2432 -1.8034  1.6955
  581MOL0     H80138  11.538   7.853   6.178 -0.5682  0.8451  1.0887
  581MOL0     H80139  11.392   7.919   6.114 -2.9809  0.1038  1.7680
  581MOL0     H80140  11.579   8.342   6.203 -3.1469 -0.4361  1.9521
  581MOL0     H80141  11.692   8.552   6.177  0.2966 -0.2388 -0.2823
  581MOL0     H80142  11.994   8.638   6.491 -2.2677 -3.1757 -2.3710
  581MOL0     H80143  12.007   8.788   6.404  1.2805 -0.2491  2.2412
  581MOL0     H80144  11.772   8.737   6.591  2.4370 -0.3495  2.8324
  581MOL0     H80145  11.904   8.842   6.627  3.0151 -1.8942 -0.4332
  581MOL0     H80146  11.745   8.895   6.370 -0.5987  0.0110  0.4082
  581MOL0     H80147  11.876   8.985   6.465 -1.3584  1.4701 -0.7693
  581MOL0     H80148  11.587   8.917   6.521 -0.3529  0.0042 -0.7400
  581MOL0     H80149  11.656   9.069   6.483  1.3500 -0.8160 -1.9204
  581MOL0     H80150  11.669   8.911   6.741 -0.2837  0.2000  1.0403
  581MOL0     H80151  11.792   9.035   6.705 -1.0446 -0.0944 -0.5491
  581MOL0     H80152  11.594   9.195   6.673 -0.4615 -1.5660 -0.7316
  581MOL0     H80153  11.638   9.162   6.840 -2.4262 -1.9434  1.3659
  581MOL0     H80154  11.451   9.018   6.876  0.1804  0.8605  0.0899
  581MOL0     H80155  11.439   8.987   6.701  0.4431  0.3491 -1.3724
  581MOL0     H80156  11.355   9.235   6.859  0.0961  1.3520 -1.4589
  581MOL0     H80157  11.261   9.111   6.780  1.0664 -2.9473 -1.5744
  581MOL0     H80158  11.824   8.533   6.588  1.1856  0.0930 -0.1153
  581MOL0     H80159  11.680   8.346   6.626 -0.7303 -1.7505 -1.6646
  581MOL0     H80160  11.384   8.107   6.578  0.1602 -0.2553  0.8247
  581MOL0     H80161  11.189   7.997   6.647  1.1065  0.3319  0.1856
  581MOL0     H80162   9.695   8.408   7.024  0.0733 -0.2389  1.1002
  581MOL0     H80163   9.467   8.332   7.004  1.8589 -0.4658 -1.4822
  581MOL0     H80164   9.028   8.162   6.952 -1.0723  0.6030  2.7179
  581MOL0     H80165   8.808   8.134   6.901 -1.1343  1.0475  1.2197
  581MOL0     H80166   8.654   8.136   6.748  1.8651 -0.5100  1.0051
  581MOL0     H80167   8.558   8.144   6.900 -3.0414 -4.4013 -2.3266
  581MOL0     H80168   8.423   8.099   6.689 -1.9708  0.0981 -0.9688
  581MOL0     H80169   8.470   8.262   6.625 -0.9017  0.7161 -0.7299
  581MOL0     H80170   8.322   8.223   6.888  2.5162  0.0241  0.3538
  581MOL0     H80171   8.350   8.370   6.807  1.5695 -0.2758  0.1175
  581MOL0     H80172   8.114   8.292   6.764  1.7441  1.4590  1.1075
  581MOL0     H80173   8.170   8.136   6.713 -2.3701  0.2271  2.6643
  581MOL0     H80174   8.255   8.408   6.374  1.0893  0.4900 -0.1796
  581MOL0     H80175   8.756   8.543   6.795 -0.9759 -0.6147  1.0309
  581MOL0     H80176   9.076   8.626   6.723  0.2233 -0.6992 -0.2720
  581MOL0     H80177   8.921   8.683   6.797 -0.5170  0.1308  1.2675
  581MOL0     H80178   9.059   8.666   6.902  1.3969 -3.5116 -0.6506
  582MOL0     O80179   1.341   2.444   1.124  0.6718  0.8913 -0.1202
  582MOL0     C80180   1.424   2.379   1.195  0.9813  1.2879 -0.6306
  582MOL0     O80181   1.406   2.328   1.320 -0.0310 -0.8457  0.4834
  582MOL0     C80182   1.277   2.322   1.374 -0.1061 -0.1410  0.1757
  582MOL0     C80183   1.274   2.333   1.515 -0.3948  0.0929 -0.1530
  582MOL0     C80184   1.161   2.318   1.589 -0.1611 -0.0281 -0.3885
  582MOL0     C80185   1.042   2.288   1.520 -0.4278  0.7498 -0.7780
  582MOL0     O80186   0.929   2.293   1.589  0.3191 -1.1521 -0.1542
  582MOL0     C80187   0.877   2.425   1.578  0.7741 -0.4627 -0.2059
  582MOL0     C80188   0.742   2.430   1.652  0.8157 -0.6892  0.0128
  582MOL0     C80189   0.741   2.478   1.796  0.9172  0.2727 -0.0105
  582MOL0     C80190   0.850   2.410   1.878 -1.0238  0.1335 -0.1891
  582MOL0     C80191   0.803   2.408   2.023 -0.6344 -0.0905  0.4865
  582MOL0     C80192   0.916   2.364   2.125 -0.9818 -0.4226 -0.0905
  582MOL0     C80193   0.986   2.233   2.093  0.0369  0.5277 -0.4029
  582MOL0     C80194   1.074   2.184   2.208  0.8520 -0.2723 -0.5118
  582MOL0     N80195   1.168   2.290   2.262  0.7614  0.4403  0.5623
  582MOL0     C80196   1.276   2.352   2.187  0.4850  0.3546 -0.0658
  582MOL0     C80197   1.317   2.460   2.254 -0.2402 -0.5500 -0.3592
  582MOL0     C80198   1.447   2.534   2.214 -0.0169  0.2812  0.6597
  582MOL0     C80199   1.437   2.622   2.092 -0.0281  0.0265 -0.4296
  582MOL0     C80200   1.569   2.650   2.026  0.3150 -0.0904 -0.0854
  582MOL0     C80201   1.560   2.747   1.900 -0.2227  0.6316 -0.7765
  582MOL0     O80202   1.554   2.661   1.786 -0.6749 -0.2639  0.1214
  582MOL0     C80203   1.665   2.598   1.738 -0.3179 -0.0143 -0.0474
  582MOL0     C80204   1.648   2.517   1.630  0.0906  0.1712 -0.3592
  582MOL0     C80205   1.755   2.465   1.555 -0.7068  0.1686  0.1067
  582MOL0     C80206   1.715   2.392   1.431  1.0526  0.5489  0.3406
  582MOL0     C80207   1.889   2.476   1.605  0.1644  0.1473  0.9694
  582MOL0     C80208   2.009   2.436   1.522 -0.0190  0.0550  0.3554
  582MOL0     O80209   2.131   2.465   1.586 -0.1751  0.0990 -0.1375
  582MOL0     C80210   2.255   2.427   1.536  0.1051 -1.0047 -0.6703
  582MOL0     C80211   2.351   2.517   1.571 -0.5298 -1.3384  0.2297
  582MOL0     C80212   2.483   2.489   1.539  0.3278 -0.6199 -0.3611
  582MOL0     C80213   2.511   2.376   1.459  0.6729  0.6031 -0.1083
  582MOL0     O80214   2.632   2.335   1.414  0.1354  0.0021  0.5714
  582MOL0     C80215   2.745   2.413   1.414 -0.3122 -0.0650 -0.3482
  582MOL0     C80216   2.743   2.517   1.297  0.1768 -0.2076 -0.3696
  582MOL0     C80217   2.813   2.463   1.167 -0.2661 -0.2355  0.4144
  582MOL0     C80218   2.762   2.544   1.042  0.5410 -0.6401 -0.0613
  582MOL0     C80219   2.826   2.504   0.911 -0.4620  0.9811  0.4659
  582MOL0     C80220   2.758   2.365   0.865 -0.6277  0.2914 -0.2046
  582MOL0     C80221   2.804   2.300   0.729  0.4496 -0.1191 -0.1877
  582MOL0     C80222   2.914   2.204   0.760  0.5475 -0.2777  0.9906
  582MOL0    Cl80223   2.961   2.118   0.612  0.1408  0.2481  0.0220
  582MOL0     C80224   2.414   2.283   1.432  0.2536  0.5694 -0.4352
  582MOL0     C80225   2.284   2.302   1.480 -0.2096 -0.2067  0.4373
  582MOL0     O80226   1.999   2.393   1.403 -0.6895 -0.0809 -0.8950
  582MOL0     C80227   1.901   2.553   1.726  0.4277  0.6803  0.7311
  582MOL0     C80228   1.791   2.612   1.787  0.3183  0.2652  1.0596
  582MOL0     N80229   1.228   2.476   2.358 -0.4551  0.5068 -1.0930
  582MOL0     N80230   1.138   2.380   2.355  0.3739 -0.4115  0.1365
  582MOL0     C80231   1.037   2.274   1.378 -1.0457 -0.2757  1.0011
  582MOL0     C80232   1.154   2.295   1.303  0.1122  0.1804  0.0102
  582MOL0     C80233   1.548   2.328   1.124  0.2372 -0.6853  1.3136
  582MOL0     C80234   1.594   2.199   1.165  0.1353 -0.4644  0.5044
  582MOL0     C80235   1.726   2.165   1.148 -0.2198 -0.5706  0.0255
  582MOL0     C80236   1.813   2.241   1.063 -0.4945  0.6276 -0.6236
  582MOL0     O80237   1.940   2.177   1.058 -0.0858 -0.8334  0.3854
  582MOL0     C80238   2.058   2.261   1.045 -0.3951  0.0233  0.4525
  582MOL0     C80239   2.184   2.179   1.077 -0.3718 -0.3830 -0.4738
  582MOL0     C80240   2.307   2.274   1.094  0.3473  0.4310 -0.5913
  582MOL0     C80241   2.443   2.203   1.073 -0.7217  0.6786  0.6511
  582MOL0     C80242   2.468   2.175   0.927 -0.1984 -0.6691 -0.5445
  582MOL0     C80243   2.479   2.152   0.810  0.2833  0.1470  0.1600
  582MOL0     C80244   1.772   2.375   1.029 -0.5362  0.7822  0.0107
  582MOL0     C80245   1.639   2.420   1.054 -0.0396 -0.3312  0.1086
  582MOL0     C80246   1.596   2.556   1.014 -0.1190 -0.5455 -0.5584
  582MOL0     H80247   1.368   2.344   1.568 -0.0975  2.0080 -0.9970
  582MOL0     H80248   1.161   2.323   1.698  2.5177  1.7335 -0.3710
  582MOL0     H80249   0.852   2.447   1.473  0.0119 -1.1861 -0.1849
  582MOL0     H80250   0.944   2.503   1.614  0.5596  0.3317 -1.4394
  582MOL0     H80251   0.671   2.494   1.600  0.6878 -0.6131  0.2778
  582MOL0     H80252   0.691   2.333   1.645  0.4854 -0.6715  1.6182
  582MOL0     H80253   0.740   2.585   1.823 -0.6611  0.0628  0.8801
  582MOL0     H80254   0.646   2.454   1.844  1.1047  0.2980  0.3798
  582MOL0     H80255   0.859   2.305   1.848 -0.9382 -0.3049  1.2888
  582MOL0     H80256   0.947   2.458   1.860 -2.0036  1.9593 -0.8442
  582MOL0     H80257   0.715   2.344   2.028  0.7835 -2.0534  1.9075
  582MOL0     H80258   0.784   2.511   2.054  5.3240  1.3005  0.7393
  582MOL0     H80259   0.982   2.450   2.131 -0.9158 -0.3626 -1.4855
  582MOL0     H80260   0.882   2.353   2.229  1.4855 -0.0687  0.8172
  582MOL0     H80261   1.050   2.250   2.006 -1.6045  1.2440 -1.5252
  582MOL0     H80262   0.921   2.147   2.076  2.0885 -0.8445 -1.7426
  582MOL0     H80263   1.007   2.165   2.293  1.4117 -2.5020 -0.5302
  582MOL0     H80264   1.131   2.098   2.172  1.1724  0.2833 -1.3680
  582MOL0     H80265   1.320   2.309   2.098 -1.7839  1.2771 -1.7493
  582MOL0     H80266   1.522   2.454   2.205  0.9312  1.2323 -0.1541
  582MOL0     H80267   1.478   2.588   2.303 -2.2689  1.4766  0.7920
  582MOL0     H80268   1.381   2.584   2.006 -0.5645 -0.1548 -0.0075
  582MOL0     H80269   1.383   2.711   2.125 -0.4446 -0.6230  0.7284
  582MOL0     H80270   1.624   2.702   2.105 -0.4867 -1.9848  1.8060
  582MOL0     H80271   1.620   2.557   2.001  0.2813  0.5738 -3.0209
  582MOL0     H80272   1.467   2.804   1.898 -0.1819  0.8219 -4.8041
  582MOL0     H80273   1.646   2.814   1.893  2.1071 -2.2584 -2.6372
  582MOL0     H80274   1.548   2.499   1.591 -0.1791 -2.1870  1.1670
  582MOL0     H80275   1.746   2.288   1.434  1.5989  0.7335  2.2641
  582MOL0     H80276   1.751   2.440   1.339 -2.1310 -2.1806 -2.6297
  582MOL0     H80277   1.607   2.388   1.414  1.1086  0.9429 -0.1578
  582MOL0     H80278   2.316   2.604   1.626  1.3124 -0.6005  0.3063
  582MOL0     H80279   2.558   2.554   1.582 -1.4413  0.5938  1.0271
  582MOL0     H80280   2.768   2.461   1.510 -3.2190 -2.5130  1.7491
  582MOL0     H80281   2.830   2.345   1.407  1.0008  0.9577  3.2745
  582MOL0     H80282   2.641   2.546   1.271 -0.4956  1.3227  3.3133
  582MOL0     H80283   2.802   2.604   1.325 -0.0453 -0.2251  0.1780
  582MOL0     H80284   2.804   2.355   1.152  0.4880 -0.4723  1.5438
  582MOL0     H80285   2.917   2.493   1.182 -0.7097  2.8339 -1.6778
  582MOL0     H80286   2.787   2.645   1.075  0.2397 -0.2978 -0.8679
  582MOL0     H80287   2.654   2.531   1.034  0.4550 -1.9105  2.2651
  582MOL0     H80288   2.817   2.578   0.832 -0.7155 -0.1786 -0.6225
  582MOL0     H80289   2.932   2.479   0.919 -0.8606 -0.6213  1.1089
  582MOL0     H80290   2.652   2.391   0.858 -1.2323 -2.3060 -1.8336
  582MOL0     H80291   2.772   2.299   0.951 -1.0490 -0.8603 -1.0107
  582MOL0     H80292   2.841   2.374   0.658 -0.9194 -0.8291 -1.6986
  582MOL0     H80293   2.724   2.239   0.686  0.6856 -0.8934  0.4468
  582MOL0     H80294   2.870   2.131   0.828 -1.6998  1.4199  1.5127
  582MOL0     H80295   3.004   2.237   0.814  0.4069 -0.7898  1.5455
  582MOL0     H80296   2.437   2.191   1.379  3.1346  0.9732 -0.0481
  582MOL0     H80297   2.206   2.227   1.481 -1.8027  1.3644  0.3667
  582MOL0     H80298   2.002   2.579   1.754  0.8976  0.5937 -0.8308
  582MOL0     H80299   1.814   2.677   1.871  0.4724  3.0486 -0.9754
  582MOL0     H80300   0.950   2.246   1.319 -1.9591  1.5058  1.4333
  582MOL0     H80301   1.150   2.290   1.195 -0.8070  3.1795 -0.1918
  582MOL0     H80302   1.536   2.135   1.231 -0.6240 -1.2467 -0.8779
  582MOL0     H80303   1.760   2.071   1.188  1.6304 -0.4477 -1.1498
  582MOL0     H80304   2.074   2.289   0.940  0.7282  1.2828  0.9242
  582MOL0     H80305   2.051   2.351   1.108  0.7341  0.0697  0.5363
  582MOL0     H80306   2.201   2.109   0.995  0.4155 -1.0318  0.2198
  582MOL0     H80307   2.169   2.122   1.170  0.3015  1.5075  0.8529
  582MOL0     H80308   2.294   2.362   1.030 -3.4338  0.4512 -0.0307
  582MOL0     H80309   2.307   2.314   1.196 -2.3390  0.2735 -0.4538
  582MOL0     H80310   2.455   2.113   1.134  6.2307  0.2794 -0.4274
  582MOL0     H80311   2.526   2.267   1.104 -0.6347  0.5555  0.6732
  582MOL0     H80312   2.498   2.146   0.704  1.0168 -1.4098  0.3496
  582MOL0     H80313   1.839   2.442   0.975 -0.4556  1.9155  1.4397
  582MOL0     H80314   1.549   2.594   1.105  0.5255 -1.6973  0.2875
  582MOL0     H80315   1.678   2.622   0.984 -1.2614  1.6981  1.0180
  582MOL0     H80316   1.513   2.550   0.943  0.9976  0.3097 -1.9908
  583MOL0     O80317   0.339  10.279   3.903 -0.2687 -0.5961 -0.2322
  583MOL0     C80318   0.289  10.181   3.853  0.0953 -0.4382 -0.3851
  583MOL0     O80319   0.332  10.050   3.871 -1.3307 -0.5241 -0.0552
  583MOL0     C80320   0.454  10.033   3.935 -0.8057 -1.1414  0.0789
  583MOL0     C80321   0.570  10.049   3.848  0.4608  0.3387  0.9522
  583MOL0     C80322   0.699  10.046   3.898 -0.1571 -0.5882  0.7777
  583MOL0     C80323   0.712  10.037   4.038  0.3876 -0.5917  0.5781
  583MOL0     O80324   0.835  10.034   4.095  0.3883  0.2926  0.1084
  583MOL0     C80325   0.946  10.093   4.031  0.7133 -0.2498 -0.6784
  583MOL0     C80326   1.048  10.139   4.129  0.8276  1.0363 -1.5256
  583MOL0     C80327   1.104  10.026   4.221 -0.3273  1.1458 -0.2328
  583MOL0     C80328   1.216  10.067   4.324 -0.4565 -0.9000 -0.9743
  583MOL0     C80329   1.305   9.951   4.367  0.3213  0.0622  0.1309
  583MOL0     C80330   1.415   9.998   4.465  0.3119  0.2760  0.3863
  583MOL0     C80331   1.501   9.879   4.502  0.0242  0.0555 -0.1203
  583MOL0     C80332   1.598   9.909   4.615  0.0859 -0.0451  0.9936
  583MOL0     N80333   1.681   9.781   4.643 -1.3722 -0.2718 -1.0268
  583MOL0     C80334   1.627   9.656   4.669  0.5695 -1.1274 -0.8239
  583MOL0     C80335   1.728   9.579   4.723 -0.0295 -0.2187  0.4258
  583MOL0     C80336   1.710   9.438   4.768  0.6354  0.1456  0.2365
  583MOL0     C80337   1.845   9.365   4.782 -0.0909 -0.7459  0.0079
  583MOL0     C80338   1.928   9.369   4.649  0.1960 -0.4362  0.4495
  583MOL0     C80339   1.957   9.213   4.619 -0.0232 -0.5338  0.4432
  583MOL0     O80340   2.083   9.203   4.558 -0.8889  0.1881  0.0547
  583MOL0     C80341   2.202   9.192   4.639  0.2554 -0.5019  0.5651
  583MOL0     C80342   2.320   9.153   4.573 -1.1130 -0.2330  0.0962
  583MOL0     C80343   2.446   9.124   4.635 -0.8984 -0.5586 -0.6252
  583MOL0     C80344   2.557   9.085   4.543  0.2959  0.3018  0.4348
  583MOL0     C80345   2.451   9.130   4.773 -0.9423  0.0172  0.0241
  583MOL0     C80346   2.570   9.081   4.847 -0.3066 -0.0412  0.1795
  583MOL0     O80347   2.697   9.103   4.799  0.0677  0.0243 -0.2047
  583MOL0     C80348   2.803   9.036   4.838 -0.2530  0.8221  0.5678
  583MOL0     C80349   2.919   9.043   4.749 -0.5329  0.4163  0.1964
  583MOL0     C80350   3.032   8.960   4.772  0.3159  0.0265  0.0293
  583MOL0     C80351   3.045   8.872   4.881  0.6839  0.3489  0.0982
  583MOL0     O80352   3.150   8.786   4.909 -0.1080 -0.3389 -0.1161
  583MOL0     C80353   3.275   8.809   4.848 -0.2678 -0.4022  0.2165
  583MOL0     C80354   3.383   8.759   4.929 -0.5528  0.0834 -1.1733
  583MOL0     C80355   3.516   8.776   4.846 -0.1245 -0.1124 -0.3820
  583MOL0     C80356   3.634   8.733   4.934 -0.3556  0.0548 -0.3281
  583MOL0     C80357   3.756   8.725   4.856  0.6378  0.4784  0.5500
  583MOL0     C80358   3.892   8.690   4.933  0.4131  0.0836  0.2394
  583MOL0     C80359   3.890   8.545   4.988  0.8912  0.6166 -0.1908
  583MOL0     C80360   4.002   8.530   5.094  0.3542 -0.5583 -0.1178
  583MOL0    Cl80361   4.168   8.542   5.022  0.0178  0.0959 -0.5032
  583MOL0     C80362   2.935   8.872   4.970 -0.4779  0.8732  0.6938
  583MOL0     C80363   2.825   8.955   4.961 -0.1515 -0.0707  0.7255
  583MOL0     O80364   2.544   9.017   4.945 -0.3371 -0.1146  0.9354
  583MOL0     C80365   2.330   9.156   4.846  0.4471 -0.2297  0.6229
  583MOL0     C80366   2.208   9.192   4.777 -0.4260 -1.3019  0.3059
  583MOL0     N80367   1.844   9.654   4.703  0.0277 -0.4188 -0.1609
  583MOL0     N80368   1.818   9.773   4.663 -0.0796 -0.0966 -0.1602
  583MOL0     C80369   0.603  10.028   4.125  0.6203 -0.1314 -0.5377
  583MOL0     C80370   0.472  10.021   4.074  0.1740 -1.1964 -0.1155
  583MOL0     C80371   0.163  10.185   3.768  0.0449 -0.8264  0.5842
  583MOL0     C80372   0.094  10.062   3.736 -0.3722  0.0166 -0.7196
  583MOL0     C80373  -0.032  10.060   3.677 -1.3551  0.4856  0.8160
  583MOL0     C80374  -0.073  10.185   3.614  0.2348  0.6288 -0.3674
  583MOL0     O80375  -0.175  10.200   3.523 -0.0335  0.5989  0.1351
  583MOL0     C80376  -0.239  10.084   3.458 -0.7577  0.2760 -0.2215
  583MOL0     C80377  -0.295  10.132   3.322 -0.4144 -0.7323 -0.7826
  583MOL0     C80378  -0.427  10.069   3.296  0.2794 -0.0337 -0.5987
  583MOL0     C80379  -0.422   9.938   3.226 -0.4957  0.0069  0.1803
  583MOL0     C80380  -0.359   9.832   3.310  0.2102 -0.4421 -0.4190
  583MOL0     C80381  -0.314   9.733   3.360 -0.0238 -0.5727  0.4218
  583MOL0     C80382  -0.007  10.307   3.638 -0.1475 -0.7007  0.3026
  583MOL0     C80383   0.099  10.311   3.721 -0.0239 -0.2142 -0.0979
  583MOL0     C80384   0.157  10.449   3.752  0.0474  0.9718  0.3828
  583MOL0     H80385   0.544  10.072   3.745 -1.1550  1.6744  1.6192
  583MOL0     H80386   0.790  10.064   3.841 -0.0738  1.1148  1.3988
  583MOL0     H80387   0.915  10.183   3.978  1.2450  0.1441 -0.3310
  583MOL0     H80388   0.997  10.026   3.962  0.5872 -1.6855  0.5765
  583MOL0     H80389   1.121  10.202   4.078  2.1785 -0.4950 -1.5271
  583MOL0     H80390   0.997  10.205   4.201  0.8714 -0.8925  0.3593
  583MOL0     H80391   1.023   9.982   4.279 -1.3604  2.1393 -0.8758
  583MOL0     H80392   1.152   9.950   4.159  1.1033  1.5981  0.2809
  583MOL0     H80393   1.276  10.144   4.274  0.1697  1.2479  2.7534
  583MOL0     H80394   1.178  10.115   4.414  1.8231 -2.5200  0.9884
  583MOL0     H80395   1.342   9.891   4.283  1.0482  2.7425 -1.5857
  583MOL0     H80396   1.236   9.882   4.416  1.3022 -1.2399 -0.2598
  583MOL0     H80397   1.469  10.079   4.415  1.5756 -1.7224 -1.6751
  583MOL0     H80398   1.375  10.042   4.557 -0.6907 -0.4000  0.2852
  583MOL0     H80399   1.572   9.841   4.428  0.4565 -3.5048  1.9281
  583MOL0     H80400   1.436   9.796   4.530  0.8638  0.0142  1.8385
  583MOL0     H80401   1.667   9.986   4.580  0.4528 -0.4151  0.8921
  583MOL0     H80402   1.550   9.955   4.702  0.9780  1.3419  0.7738
  583MOL0     H80403   1.522   9.634   4.659  0.2343 -0.1032  0.2253
  583MOL0     H80404   1.646   9.389   4.693  0.6706  1.4972 -0.7066
  583MOL0     H80405   1.663   9.431   4.867 -0.4106 -1.4950 -0.3240
  583MOL0     H80406   1.908   9.419   4.853 -2.9344 -0.0632  2.2278
  583MOL0     H80407   1.838   9.267   4.830  0.8717 -0.7435  0.1634
  583MOL0     H80408   1.876   9.408   4.562 -0.7109 -0.1889  1.0917
  583MOL0     H80409   2.025   9.418   4.660 -0.0865  0.0035  1.0589
  583MOL0     H80410   1.954   9.148   4.707  1.1516  2.0905  2.5952
  583MOL0     H80411   1.882   9.176   4.550 -0.5039  0.1797  0.5715
  583MOL0     H80412   2.320   9.149   4.464 -1.8298 -0.1818  0.0893
  583MOL0     H80413   2.526   9.112   4.442 -3.0145  0.1505  1.2952
  583MOL0     H80414   2.594   8.982   4.548  1.0849  0.5822  0.5885
  583MOL0     H80415   2.641   9.150   4.570 -0.0551  0.3801  1.3723
  583MOL0     H80416   2.911   9.114   4.668 -0.0360 -1.3966 -1.5253
  583MOL0     H80417   3.110   8.970   4.698 -0.0348 -1.4794 -0.5899
  583MOL0     H80418   3.270   8.764   4.749 -1.4468  1.1707 -0.4675
  583MOL0     H80419   3.292   8.917   4.842 -2.0021  0.1124  2.7235
  583MOL0     H80420   3.385   8.822   5.018  0.4349  0.8054 -1.6942
  583MOL0     H80421   3.374   8.654   4.960  2.4749  0.1395  0.2877
  583MOL0     H80422   3.529   8.881   4.821 -0.6465  0.6138  2.1422
  583MOL0     H80423   3.508   8.715   4.755  0.9596 -2.9615  1.2884
  583MOL0     H80424   3.603   8.638   4.978 -2.3576  2.3726  4.0152
  583MOL0     H80425   3.647   8.808   5.013 -1.0809 -0.2968  0.1399
  583MOL0     H80426   3.742   8.653   4.774  1.6369  1.3133 -0.3929
  583MOL0     H80427   3.768   8.826   4.817 -1.5375  1.8298  3.1125
  583MOL0     H80428   3.890   8.758   5.018 -2.9109 -0.1991  0.5152
  583MOL0     H80429   3.984   8.714   4.879  0.7605  1.0825  1.2435
  583MOL0     H80430   3.904   8.467   4.912 -0.4790 -2.1637  2.1857
  583MOL0     H80431   3.793   8.524   5.035 -0.1443  1.1900 -1.9470
  583MOL0     H80432   3.998   8.431   5.140  0.3529 -0.4052  0.2115
  583MOL0     H80433   3.983   8.613   5.162  0.7190  0.0886 -0.7908
  583MOL0     H80434   2.944   8.801   5.053 -1.8702  2.6767  2.4895
  583MOL0     H80435   2.758   8.952   5.046  1.7685 -1.9988  2.2967
  583MOL0     H80436   2.334   9.147   4.954  3.6991 -1.5678  0.4855
  583MOL0     H80437   2.121   9.202   4.841 -0.6372 -1.2312  0.0090
  583MOL0     H80438   0.627  10.030   4.231  2.4622  2.8298 -0.9226
  583MOL0     H80439   0.390  10.012   4.145  1.9203 -3.9054  1.7524
  583MOL0     H80440   0.139   9.971   3.773  0.6471  0.2039 -1.4384
  583MOL0     H80441  -0.078   9.965   3.652  0.8420 -0.6462  0.7985
  583MOL0     H80442  -0.171  10.000   3.441  0.0672  0.8343  0.3092
  583MOL0     H80443  -0.314  10.039   3.525  1.1986  0.0061  1.9118
  583MOL0     H80444  -0.219  10.124   3.243  0.9646  0.7514  0.3224
  583MOL0     H80445  -0.306  10.239   3.338  2.1065 -0.4037 -0.7878
  583MOL0     H80446  -0.483  10.071   3.390  4.3253  2.4382  2.1068
  583MOL0     H80447  -0.486  10.126   3.224  0.1635 -1.7087 -1.8758
  583MOL0     H80448  -0.378   9.939   3.126 -1.4646  0.8766 -0.2538
  583MOL0     H80449  -0.528   9.911   3.221 -1.0465  2.2075 -0.9065
  583MOL0     H80450  -0.278   9.635   3.383  2.5137  0.3783  0.8093
  583MOL0     H80451  -0.045  10.398   3.592 -1.3769 -1.2498  0.1742
  583MOL0     H80452   0.245  10.484   3.698 -1.2874  2.3776 -0.9515
  583MOL0     H80453   0.078  10.521   3.730 -2.2272 -1.4522  0.1669
  583MOL0     H80454   0.180  10.453   3.859  0.1528  0.3097  0.3885
  584MOL0     O80455  10.180   2.007  10.578  0.4432  0.0814 -0.0612
  584MOL0     C80456  10.169   2.089  10.488 -0.2830  0.0247 -0.7906
  584MOL0     O80457  10.276   2.155  10.435  0.6939  0.4047  0.0326
  584MOL0     C80458  10.408   2.135  10.464  0.4479  0.6423 -0.1410
  584MOL0     C80459  10.496   2.089  10.364  0.9460  0.9612 -0.4043
  584MOL0     C80460  10.628   2.063  10.401  0.1414 -0.3270 -0.9366
  584MOL0     C80461  10.679   2.083  10.529 -0.6905 -0.1531  0.3371
  584MOL0     O80462  10.812   2.066  10.540  0.2858  0.2398 -0.1034
  584MOL0     C80463  10.862   2.080  10.671  0.0504 -0.0983  0.4914
  584MOL0     C80464  11.013   2.051  10.689 -0.6235 -0.4040 -0.1140
  584MOL0     C80465  11.093   2.092  10.562  0.0328  0.3013 -0.0583
  584MOL0     C80466  11.235   2.103  10.608  0.2857 -0.0816  0.0937
  584MOL0     C80467  11.327   2.107  10.478  0.2337  0.2488  0.1010
  584MOL0     C80468  11.473   2.112  10.513  0.6679  0.5053 -0.0232
  584MOL0     C80469  11.575   2.080  10.395 -0.6915  0.1256 -0.1033
  584MOL0     C80470  11.697   2.018  10.462 -0.5360 -0.4968 -0.4447
  584MOL0     N80471  11.809   1.991  10.370  0.6074  0.1042 -0.6892
  584MOL0     C80472  11.857   2.044  10.254  0.0213 -0.3477 -0.2885
  584MOL0     C80473  11.966   1.962  10.220 -0.7028  0.4440 -0.4019
  584MOL0     C80474  12.068   1.977  10.106 -0.2934 -0.4189  0.2186
  584MOL0     C80475  12.197   2.058  10.145 -0.8157  0.6973  0.3259
  584MOL0     C80476  12.283   2.078  10.023  0.1721 -0.2792  0.2423
  584MOL0     C80477  12.435   2.110  10.061 -0.0847 -0.8378 -0.0070
  584MOL0     O80478  12.489   2.100   9.937 -0.8716 -0.4973  0.2634
  584MOL0     C80479  12.625   2.063   9.926 -0.7495 -0.3725 -0.1219
  584MOL0     C80480  12.709   2.029  10.033 -0.0442 -0.2496  0.4432
  584MOL0     C80481  12.838   1.977  10.010 -0.1980  0.0594  0.2398
  584MOL0     C80482  12.904   1.941  10.138  0.0330  0.2625  1.4144
  584MOL0     C80483  12.891   1.963   9.882 -1.1503  0.2026 -0.2388
  584MOL0     C80484  13.027   1.895   9.849  0.3132 -0.3314  0.5160
  584MOL0     O80485  13.076   1.798   9.927 -0.4808  0.3173  0.7389
  584MOL0     C80486  13.208   1.761   9.906  0.8583  0.3759  0.1188
  584MOL0     C80487  13.229   1.632   9.844 -0.1497 -0.8199  0.6792
  584MOL0     C80488  13.361   1.574   9.829 -0.2703  0.4352  0.2073
  584MOL0     C80489  13.470   1.646   9.882  0.3669  0.4022 -0.1063
  584MOL0     O80490  13.588   1.584   9.870 -0.1756  0.1802  0.6956
  584MOL0     C80491  13.686   1.669   9.802  0.6604 -0.2944  0.1346
  584MOL0     C80492  13.797   1.572   9.768  0.3811  0.8297  0.0259
  584MOL0     C80493  13.917   1.631   9.700  0.5373 -0.1755  0.6468
  584MOL0     C80494  14.016   1.512   9.670  0.7107  0.9664  1.0826
  584MOL0     C80495  14.158   1.570   9.648 -0.5252  0.0526 -0.1294
  584MOL0     C80496  14.266   1.470   9.599 -0.5557  0.9684  0.0367
  584MOL0     C80497  14.243   1.444   9.454  0.2087  0.2910  0.3947
  584MOL0     C80498  14.361   1.360   9.406  0.7565  0.0240 -0.5964
  584MOL0    Cl80499  14.505   1.463   9.386  0.0584  0.0693  0.3274
  584MOL0     C80500  13.445   1.762   9.951 -0.0183 -0.6032 -0.4821
  584MOL0     C80501  13.319   1.820   9.962 -0.1727  0.5339 -0.5627
  584MOL0     O80502  13.075   1.950   9.749 -0.2486 -0.3116  0.5713
  584MOL0     C80503  12.809   2.007   9.780 -0.3765 -0.2768  0.7757
  584MOL0     C80504  12.689   2.066   9.804  0.4786  0.1427  0.0432
  584MOL0     N80505  11.991   1.885  10.331 -0.7038  0.3696  0.5803
  584MOL0     N80506  11.897   1.896  10.416  0.5014 -0.1134 -0.1036
  584MOL0     C80507  10.587   2.116  10.628 -0.0062  0.1194 -0.2639
  584MOL0     C80508  10.456   2.146  10.595 -0.6540  0.7267 -0.3733
  584MOL0     C80509  10.042   2.113  10.436 -0.2476  0.1461 -0.6201
  584MOL0     C80510  10.039   2.195  10.324 -0.2361  0.4914  0.5322
  584MOL0     C80511   9.914   2.230  10.264 -0.4455  0.4072  0.1751
  584MOL0     C80512   9.794   2.183  10.322  0.1404  0.0056 -0.9369
  584MOL0     O80513   9.673   2.200  10.265 -0.3245  0.2304 -0.3669
  584MOL0     C80514   9.619   2.325  10.313 -0.3897 -0.3174 -0.2430
  584MOL0     C80515   9.670   2.458  10.244  0.0635  1.1668 -0.3045
  584MOL0     C80516   9.658   2.462  10.087  0.7676 -1.0385  0.1212
  584MOL0     C80517   9.525   2.414  10.036  0.5143  0.1095  0.2569
  584MOL0     C80518   9.409   2.481  10.093  0.1109 -1.0831 -0.1586
  584MOL0     C80519   9.316   2.543  10.148 -0.8738 -0.0600 -0.1359
  584MOL0     C80520   9.795   2.113  10.442  0.9526 -0.0189  0.5807
  584MOL0     C80521   9.916   2.075  10.505  0.3854 -0.2404 -0.3166
  584MOL0     C80522   9.900   1.991  10.632 -0.1719 -0.0162  0.3800
  584MOL0     H80523  10.461   2.084  10.261  0.0303  0.7738 -0.0935
  584MOL0     H80524  10.700   2.034  10.326 -0.2020  0.3466 -1.5426
  584MOL0     H80525  10.810   2.019  10.746  0.6412  2.5178  3.2153
  584MOL0     H80526  10.848   2.184  10.703  0.5568  0.2041 -0.2388
  584MOL0     H80527  11.047   2.121  10.767 -0.6341  3.9018 -3.5527
  584MOL0     H80528  11.029   1.947  10.719  0.7568 -0.4067 -0.7557
  584MOL0     H80529  11.086   2.016  10.483  0.2862  0.2301 -0.0130
  584MOL0     H80530  11.050   2.181  10.515 -0.4068 -1.2413 -2.8041
  584MOL0     H80531  11.242   2.191  10.672  0.9251  0.0005 -0.0876
  584MOL0     H80532  11.264   2.012  10.662 -0.1118  1.0689  2.3248
  584MOL0     H80533  11.313   2.180  10.398  0.0023 -0.0739 -0.1546
  584MOL0     H80534  11.313   2.017  10.418 -0.9664  1.6557 -1.8747
  584MOL0     H80535  11.499   2.207  10.560  0.8146 -0.4741  1.9938
  584MOL0     H80536  11.488   2.036  10.590 -1.3324 -0.8497 -0.8639
  584MOL0     H80537  11.603   2.169  10.339 -0.3994  0.4253  0.5086
  584MOL0     H80538  11.534   2.001  10.332 -2.7167 -0.6778  2.0654
  584MOL0     H80539  11.726   2.091  10.538 -0.9394 -0.4840 -0.3022
  584MOL0     H80540  11.672   1.921  10.506 -2.2907  0.1269  0.0199
  584MOL0     H80541  11.811   2.121  10.194  0.5290 -0.1842 -0.4746
  584MOL0     H80542  12.019   2.029  10.023  0.9246 -1.4455 -1.2055
  584MOL0     H80543  12.098   1.880  10.065 -3.3900 -1.3181 -0.1244
  584MOL0     H80544  12.169   2.152  10.193  1.1592  0.5616  1.8434
  584MOL0     H80545  12.256   2.006  10.221 -0.1657  1.5874  0.4362
  584MOL0     H80546  12.276   1.994   9.954  0.7602  0.9262 -1.3581
  584MOL0     H80547  12.257   2.170   9.969  1.5260  1.7953  2.9170
  584MOL0     H80548  12.443   2.203  10.117 -0.7386 -0.9196  0.2254
  584MOL0     H80549  12.469   2.036  10.134  3.0066  0.7077  0.3009
  584MOL0     H80550  12.671   2.030  10.134 -0.4067  1.1339  0.3141
  584MOL0     H80551  12.897   2.004  10.228 -1.4734 -0.2640  1.6967
  584MOL0     H80552  13.011   1.945  10.117  0.0972 -0.6863  1.5120
  584MOL0     H80553  12.879   1.840  10.173  0.3657 -1.0420 -1.8328
  584MOL0     H80554  13.143   1.570   9.824 -0.5883 -0.4891  1.4800
  584MOL0     H80555  13.386   1.475   9.790  0.4777 -1.0365  3.9764
  584MOL0     H80556  13.653   1.707   9.705 -1.2211 -0.8564  0.5166
  584MOL0     H80557  13.723   1.751   9.864  1.4092  1.1031 -2.0188
  584MOL0     H80558  13.839   1.522   9.856 -2.4129 -4.3437 -1.1984
  584MOL0     H80559  13.752   1.493   9.707 -2.5148  1.1854  1.5452
  584MOL0     H80560  13.971   1.702   9.764  1.1844 -0.6807  0.6774
  584MOL0     H80561  13.887   1.677   9.605 -1.9236 -1.1681  0.8872
  584MOL0     H80562  13.978   1.463   9.580  0.7177  0.5657  1.2962
  584MOL0     H80563  14.019   1.438   9.751  0.8466 -1.3331 -0.8934
  584MOL0     H80564  14.153   1.659   9.585 -3.4011 -1.0862 -1.6960
  584MOL0     H80565  14.199   1.600   9.746 -1.4715 -2.0662  0.9824
  584MOL0     H80566  14.271   1.380   9.662 -1.7995  0.7881 -0.1047
  584MOL0     H80567  14.356   1.530   9.613  0.7028 -0.6816 -0.6637
  584MOL0     H80568  14.215   1.536   9.401 -0.0446  0.0258  0.0666
  584MOL0     H80569  14.155   1.380   9.443  1.3203 -1.2178 -0.0357
  584MOL0     H80570  14.334   1.333   9.303 -2.0698 -0.9561  0.3169
  584MOL0     H80571  14.370   1.278   9.477 -1.1713  0.4086  0.1559
  584MOL0     H80572  13.531   1.809   9.998 -0.3301 -1.2753  0.7884
  584MOL0     H80573  13.298   1.910  10.018  0.4268 -0.3827  1.2240
  584MOL0     H80574  12.835   1.999   9.675 -0.2981  1.8708  0.5724
  584MOL0     H80575  12.629   2.103   9.722 -1.7499 -0.9858  1.0721
  584MOL0     H80576  10.612   2.140  10.731 -1.2482  2.3587 -0.4088
  584MOL0     H80577  10.377   2.172  10.664  0.3703  2.0262  0.3688
  584MOL0     H80578  10.126   2.214  10.263 -1.1114 -0.4511 -1.0947
  584MOL0     H80579   9.907   2.270  10.163 -2.0411  0.0367  0.1177
  584MOL0     H80580   9.510   2.322  10.299 -0.4630  1.3138 -0.2131
  584MOL0     H80581   9.637   2.340  10.419  2.0392  3.0156 -0.9702
  584MOL0     H80582   9.777   2.458  10.267  0.1996 -1.7559 -0.5173
  584MOL0     H80583   9.621   2.544  10.289 -2.0693  0.6567 -1.5111
  584MOL0     H80584   9.678   2.566  10.060  1.8431 -0.4967  2.6823
  584MOL0     H80585   9.723   2.406  10.019 -0.6612  1.1611 -3.3816
  584MOL0     H80586   9.507   2.306  10.046  0.3902  0.2527  1.7077
  584MOL0     H80587   9.523   2.431   9.928 -1.6202  1.6706  0.4868
  584MOL0     H80588   9.239   2.579  10.213 -0.8284 -0.0808 -0.0713
  584MOL0     H80589   9.701   2.077  10.483  1.3236  0.6911  2.1667
  584MOL0     H80590   9.951   2.034  10.719 -0.4997 -0.2768  0.7020
  584MOL0     H80591   9.799   1.980  10.671 -0.3317 -1.3483 -0.3503
  584MOL0     H80592   9.934   1.895  10.591 -1.9708  0.1584 -1.7054
  585MOL0     O80593   9.987  10.551   4.189  0.0362 -0.4876 -0.2028
  585MOL0     C80594   9.966  10.511   4.301 -0.5182  0.1348  0.0422
  585MOL0     O80595  10.037  10.529   4.414  0.5091 -0.5083 -0.4251
  585MOL0     C80596  10.171  10.576   4.397 -0.1711  0.0871  0.0250
  585MOL0     C80597  10.263  10.514   4.308  0.0331 -0.1378  0.9340
  585MOL0     C80598  10.389  10.576   4.297  0.1227 -0.7589 -0.3445
  585MOL0     C80599  10.430  10.681   4.383 -1.1467 -1.2280 -0.1380
  585MOL0     O80600  10.560  10.728   4.387 -0.1207 -0.2643  0.0188
  585MOL0     C80601  10.580  10.868   4.393  0.0777 -0.7746 -0.3579
  585MOL0     C80602  10.725  10.903   4.350  0.6843  0.0945  0.7126
  585MOL0     C80603  10.740  11.055   4.360 -0.5602 -0.1185  1.0773
  585MOL0     C80604  10.884  11.104   4.319  0.7143  0.3950  0.3675
  585MOL0     C80605  10.897  11.255   4.365 -1.0522 -0.0140 -0.4727
  585MOL0     C80606  11.040  11.311   4.333  0.3151  0.4602 -0.0031
  585MOL0     C80607  11.083  11.316   4.184  1.5093  0.0933  0.0101
  585MOL0     C80608  11.222  11.380   4.163 -0.0066  0.1257 -0.1431
  585MOL0     N80609  11.330  11.279   4.186 -0.8318 -0.0131 -0.2102
  585MOL0     C80610  11.340  11.149   4.153 -0.1849 -0.0272  0.1259
  585MOL0     C80611  11.460  11.097   4.191 -0.2125 -0.2902  0.6917
  585MOL0     C80612  11.507  10.960   4.177 -0.2169  0.0242  0.7511
  585MOL0     C80613  11.589  10.948   4.046  0.0430  0.3950  0.3568
  585MOL0     C80614  11.602  10.795   4.015  0.0744  0.8411 -0.2176
  585MOL0     C80615  11.734  10.727   4.063  0.6569 -0.2778 -0.2478
  585MOL0     O80616  11.849  10.815   4.041  0.2640 -0.2039 -0.5444
  585MOL0     C80617  11.971  10.767   4.086 -0.1338  0.6035 -0.0041
  585MOL0     C80618  12.007  10.625   4.088  0.3957  0.0907 -0.5718
  585MOL0     C80619  12.131  10.576   4.128 -1.0241  0.7947 -0.4953
  585MOL0     C80620  12.166  10.429   4.135  0.0346 -1.1036  1.0294
  585MOL0     C80621  12.229  10.672   4.171  0.1807 -0.3806 -0.1099
  585MOL0     C80622  12.365  10.635   4.201  0.0609  0.4235  0.1363
  585MOL0     O80623  12.465  10.692   4.137 -0.0295  0.7344  0.4001
  585MOL0     C80624  12.590  10.644   4.159  1.1404  0.2888  0.0115
  585MOL0     C80625  12.634  10.511   4.154 -0.3490  0.5715  0.3158
  585MOL0     C80626  12.766  10.481   4.169  0.5428 -0.0150 -0.3749
  585MOL0     C80627  12.866  10.579   4.184 -0.1757 -0.3246  0.4343
  585MOL0     O80628  12.995  10.540   4.205 -0.4088 -1.0679 -0.1912
  585MOL0     C80629  13.093  10.640   4.237 -0.3874 -0.5455 -0.5863
  585MOL0     C80630  13.070  10.715   4.372 -0.2864 -0.0177  0.5486
  585MOL0     C80631  13.168  10.831   4.387  0.9232 -0.5157  0.2828
  585MOL0     C80632  13.115  10.962   4.324  0.1515 -0.2855 -0.1562
  585MOL0     C80633  13.216  11.070   4.298 -0.3254 -0.0589 -0.0938
  585MOL0     C80634  13.163  11.201   4.259  0.7475 -0.1462  0.5102
  585MOL0     C80635  13.104  11.267   4.376  1.1237 -0.3348 -0.6693
  585MOL0     C80636  13.077  11.420   4.344  0.0147 -0.0270  0.5479
  585MOL0    Cl80637  13.218  11.518   4.290  0.3837 -0.1334  0.4405
  585MOL0     C80638  12.829  10.711   4.172 -0.6996 -0.7558  0.6639
  585MOL0     C80639  12.690  10.744   4.155  0.3356  1.0386 -0.5704
  585MOL0     O80640  12.381  10.556   4.296 -0.3641  0.1345 -0.6175
  585MOL0     C80641  12.191  10.804   4.171  0.4538 -0.2326  0.0670
  585MOL0     C80642  12.068  10.855   4.137  0.5893 -0.5639  0.3122
  585MOL0     N80643  11.526  11.208   4.235  0.0955  0.1999 -0.7708
  585MOL0     N80644  11.453  11.317   4.231  0.1201 -0.3023  0.3449
  585MOL0     C80645  10.335  10.743   4.467 -0.1661 -0.9178 -0.4170
  585MOL0     C80646  10.214  10.691   4.474 -0.3183 -0.1787 -0.4731
  585MOL0     C80647   9.847  10.420   4.312 -0.1356 -0.5075 -0.1858
  585MOL0     C80648   9.845  10.352   4.444  0.3410 -0.1861  0.1544
  585MOL0     C80649   9.742  10.265   4.466  0.3511 -0.0487 -0.1856
  585MOL0     C80650   9.644  10.231   4.371  0.4397  0.9482 -0.4241
  585MOL0     O80651   9.560  10.129   4.411  0.3583  0.2540 -0.0437
  585MOL0     C80652   9.447  10.115   4.327  0.5848 -0.0641  0.2759
  585MOL0     C80653   9.367   9.988   4.375  0.0371  0.2856  1.2062
  585MOL0     C80654   9.440   9.851   4.348 -0.4483 -0.2335 -1.3905
  585MOL0     C80655   9.521   9.825   4.479  0.3713  0.1384  0.3082
  585MOL0     C80656   9.623   9.726   4.478 -0.5564 -0.3950 -0.0559
  585MOL0     C80657   9.712   9.643   4.496 -0.4454  0.1731 -0.7482
  585MOL0     C80658   9.638  10.308   4.255 -0.4084  0.3879  0.3870
  585MOL0     C80659   9.747  10.397   4.221  0.2623  0.6305  0.0468
  585MOL0     C80660   9.741  10.467   4.085  1.1749  1.1694 -0.8099
  585MOL0     H80661  10.239  10.423   4.254 -1.3510  0.1261  1.0740
  585MOL0     H80662  10.457  10.517   4.236  1.4058  1.2273 -0.9024
  585MOL0     H80663  10.563  10.904   4.495  1.0549  0.7067 -0.6924
  585MOL0     H80664  10.515  10.927   4.328  0.2493  2.5725  2.2555
  585MOL0     H80665  10.782  10.852   4.427 -0.2649 -0.7889  0.8543
  585MOL0     H80666  10.749  10.866   4.250  0.5530 -1.5818  1.2711
  585MOL0     H80667  10.665  11.104   4.298  0.3597  1.4057  1.0911
  585MOL0     H80668  10.702  11.084   4.458 -2.3621 -1.6148  0.8762
  585MOL0     H80669  10.958  11.040   4.367 -1.0486 -2.4543 -0.4223
  585MOL0     H80670  10.886  11.094   4.210 -0.7825 -2.3042  0.4960
  585MOL0     H80671  10.890  11.261   4.474  1.7969  3.4245 -0.3047
  585MOL0     H80672  10.813  11.312   4.323 -2.4280 -1.3204  0.3737
  585MOL0     H80673  11.042  11.409   4.382 -0.2670  0.8636 -0.7705
  585MOL0     H80674  11.113  11.256   4.394  1.1484  0.1469 -1.2421
  585MOL0     H80675  11.009  11.359   4.116 -0.4544 -2.9771  0.0126
  585MOL0     H80676  11.082  11.215   4.142 -1.4512 -0.9335  2.2011
  585MOL0     H80677  11.236  11.430   4.067 -1.5041  0.5631 -0.1470
  585MOL0     H80678  11.231  11.462   4.235  0.5630  0.0285 -0.0918
  585MOL0     H80679  11.263  11.091   4.102 -0.0787 -1.0869  1.1297
  585MOL0     H80680  11.413  10.905   4.183 -0.7230  1.0293  3.0083
  585MOL0     H80681  11.556  10.926   4.268  0.9129 -2.1658 -0.5837
  585MOL0     H80682  11.538  10.999   3.963 -1.4601 -1.0988  0.3028
  585MOL0     H80683  11.684  10.998   4.064 -0.1506  2.6470 -3.7339
  585MOL0     H80684  11.519  10.741   4.061  2.8684 -1.6594  2.3249
  585MOL0     H80685  11.597  10.765   3.910  2.5264 -3.7005  0.6933
  585MOL0     H80686  11.724  10.715   4.171  1.2935 -1.2434 -0.2902
  585MOL0     H80687  11.749  10.627   4.022 -1.9687 -0.7236 -0.3151
  585MOL0     H80688  11.937  10.562   4.036 -1.7224 -0.0646  2.2166
  585MOL0     H80689  12.178  10.404   4.241  0.4615  1.4771  1.6560
  585MOL0     H80690  12.252  10.408   4.071 -0.3885  0.6944 -0.2320
  585MOL0     H80691  12.084  10.372   4.091 -1.2456  3.0400 -2.6549
  585MOL0     H80692  12.561  10.432   4.162 -0.8094  1.0411  0.8964
  585MOL0     H80693  12.777  10.375   4.187 -1.0574 -0.5819 -2.4553
  585MOL0     H80694  13.184  10.581   4.250  0.2854  0.9891  2.7902
  585MOL0     H80695  13.121  10.698   4.149  0.4291 -2.9119 -1.9959
  585MOL0     H80696  12.965  10.747   4.377 -0.1222  1.3792 -2.7415
  585MOL0     H80697  13.089  10.644   4.453  0.0822  0.0763  0.5456
  585MOL0     H80698  13.257  10.798   4.332  0.4414  1.4757 -1.8290
  585MOL0     H80699  13.195  10.851   4.491  0.3642 -2.2957  0.8204
  585MOL0     H80700  13.041  11.002   4.394  0.0210  2.2070 -1.5714
  585MOL0     H80701  13.065  10.941   4.229 -0.9522 -0.6724  0.4913
  585MOL0     H80702  13.286  11.081   4.381 -0.6257  0.1958  0.1326
  585MOL0     H80703  13.278  11.028   4.218  3.4169  0.3683  2.3605
  585MOL0     H80704  13.093  11.183   4.177  3.9794 -1.6438 -2.1921
  585MOL0     H80705  13.256  11.248   4.223 -0.1991  0.3631 -1.3742
  585MOL0     H80706  13.172  11.259   4.461 -0.6567 -0.9784  0.7647
  585MOL0     H80707  13.015  11.208   4.398  0.5238  0.5725 -0.6065
  585MOL0     H80708  13.026  11.474   4.425  0.4287  1.4473 -0.1365
  585MOL0     H80709  13.013  11.405   4.256  2.0980  4.0721 -1.9668
  585MOL0     H80710  12.891  10.800   4.169 -0.8109 -0.6585  1.1518
  585MOL0     H80711  12.664  10.850   4.153  1.3233  1.3362  0.8560
  585MOL0     H80712  12.266  10.873   4.208  0.3340 -0.9208  1.6583
  585MOL0     H80713  12.052  10.961   4.150 -0.5705 -0.3655 -2.0722
  585MOL0     H80714  10.361  10.820   4.539  0.6609  1.1204 -2.7345
  585MOL0     H80715  10.144  10.749   4.534  0.8594  1.2959 -0.4759
  585MOL0     H80716   9.913  10.370   4.525 -2.5179  0.3323  2.6216
  585MOL0     H80717   9.754  10.208   4.558  2.2027  2.1033  1.0279
  585MOL0     H80718   9.380  10.201   4.335  1.1872  0.2747  2.2825
  585MOL0     H80719   9.478  10.104   4.222  0.9591  1.2270  0.2346
  585MOL0     H80720   9.268   9.983   4.329  0.1895  0.6356  0.8376
  585MOL0     H80721   9.331   9.998   4.478 -2.2354  1.1324  0.3915
  585MOL0     H80722   9.374   9.768   4.322 -0.6429  0.6367 -4.0785
  585MOL0     H80723   9.514   9.866   4.269  2.0336  0.8069  0.9698
  585MOL0     H80724   9.450   9.782   4.550 -0.1192  0.4903  0.0377
  585MOL0     H80725   9.562   9.917   4.521  0.2345 -0.6270  2.1885
  585MOL0     H80726   9.796   9.583   4.523 -0.4690 -0.1553 -1.3870
  585MOL0     H80727   9.571  10.298   4.170 -0.6407 -2.6597  0.7946
  585MOL0     H80728   9.827  10.439   4.024  1.8803 -1.5619  1.2373
  585MOL0     H80729   9.650  10.433   4.033  1.5685 -0.5010 -0.4623
  585MOL0     H80730   9.747  10.575   4.099  1.0716  0.8316  2.5427
  586MOL0     O80731   8.239   5.622   6.642 -0.3161  0.0203 -0.4199
  586MOL0     C80732   8.207   5.682   6.542  1.2052 -1.2931 -0.5234
  586MOL0     O80733   8.261   5.801   6.502  0.4947 -1.0603 -0.2637
  586MOL0     C80734   8.375   5.849   6.556 -0.2534  0.7858  0.0954
  586MOL0     C80735   8.494   5.777   6.567  0.1623 -0.1236 -1.0953
  586MOL0     C80736   8.603   5.844   6.631  0.1402  0.5492  0.1440
  586MOL0     C80737   8.596   5.974   6.686 -0.0473  0.3681 -0.1282
  586MOL0     O80738   8.704   6.028   6.750 -0.0251 -0.3828 -0.5399
  586MOL0     C80739   8.826   6.037   6.674 -0.3415 -0.6868  0.3612
  586MOL0     C80740   8.925   6.145   6.734 -0.3923 -0.6140  0.2899
  586MOL0     C80741   9.033   6.210   6.638 -0.3853  0.0528  0.5545
  586MOL0     C80742   9.132   6.282   6.725  0.9119 -0.8575 -0.1835
  586MOL0     C80743   9.225   6.371   6.642  0.6753 -0.2676  0.1460
  586MOL0     C80744   9.320   6.275   6.572 -1.1834 -0.3149 -0.5166
  586MOL0     C80745   9.432   6.357   6.509 -0.4032 -0.3396  0.1566
  586MOL0     C80746   9.522   6.270   6.425 -0.0978  0.9061 -0.4217
  586MOL0     N80747   9.668   6.300   6.436 -0.0953 -0.0582 -0.3183
  586MOL0     C80748   9.744   6.233   6.537 -0.5155  0.6942 -0.1951
  586MOL0     C80749   9.871   6.240   6.484  0.0939  0.5621 -0.5561
  586MOL0     C80750   9.981   6.168   6.550 -0.3350  0.4062  0.0639
  586MOL0     C80751  10.011   6.212   6.696 -0.1311  0.0718  0.3517
  586MOL0     C80752  10.008   6.358   6.729 -0.1633  0.2169  0.1023
  586MOL0     C80753  10.020   6.378   6.885 -0.1453  0.0918  0.2807
  586MOL0     O80754  10.140   6.314   6.932 -0.0534  0.1161  0.3101
  586MOL0     C80755  10.258   6.392   6.920 -0.1867  0.3816 -0.4678
  586MOL0     C80756  10.350   6.373   6.823 -0.5418  0.5775 -0.7288
  586MOL0     C80757  10.480   6.424   6.815 -0.3879 -0.1584 -0.0119
  586MOL0     C80758  10.571   6.402   6.699 -0.8895  0.2688  0.1205
  586MOL0     C80759  10.507   6.523   6.910 -0.2775 -0.4525 -0.4408
  586MOL0     C80760  10.633   6.601   6.913  0.6843 -0.1791  0.3332
  586MOL0     O80761  10.603   6.732   6.908 -0.1816 -0.3705  0.6508
  586MOL0     C80762  10.703   6.828   6.905 -0.3283  1.1966  0.2339
  586MOL0     C80763  10.781   6.823   6.793  0.2283 -0.9765  0.1615
  586MOL0     C80764  10.884   6.926   6.780  0.7376  0.7680  1.0268
  586MOL0     C80765  10.904   7.026   6.879 -0.6536  0.2869 -1.1005
  586MOL0     O80766  11.013   7.108   6.862 -0.4408 -0.3848 -0.2410
  586MOL0     C80767  11.108   7.120   6.968 -0.0485 -0.0139 -0.1906
  586MOL0     C80768  11.253   7.151   6.923 -0.1953  0.1548 -0.8434
  586MOL0     C80769  11.348   7.113   7.041 -0.4929  0.2103 -0.1491
  586MOL0     C80770  11.358   7.222   7.152 -0.5737 -0.2020 -0.2480
  586MOL0     C80771  11.464   7.189   7.249  0.1314  0.4152  0.2856
  586MOL0     C80772  11.613   7.154   7.210  0.6310  0.1364  0.1967
  586MOL0     C80773  11.698   7.133   7.336 -0.6331  0.4536  0.6022
  586MOL0     C80774  11.822   7.061   7.283  0.6755 -0.4088 -0.5393
  586MOL0    Cl80775  11.908   7.017   7.429 -0.4165  0.0076 -0.2365
  586MOL0     C80776  10.822   7.018   6.994 -0.2752 -1.0936 -0.1829
  586MOL0     C80777  10.730   6.922   7.010 -0.2983 -0.1507  0.4125
  586MOL0     O80778  10.744   6.550   6.921  0.8123  0.2498 -0.4237
  586MOL0     C80779  10.417   6.555   7.014  0.3053  1.0963  0.1162
  586MOL0     C80780  10.294   6.493   7.011  0.1495  0.4548  0.7948
  586MOL0     N80781   9.861   6.315   6.365 -0.5111 -0.0266 -0.1481
  586MOL0     N80782   9.739   6.345   6.338  0.3053  0.0207  0.0124
  586MOL0     C80783   8.476   6.040   6.671 -0.1781 -0.0997  0.6253
  586MOL0     C80784   8.371   5.982   6.601  0.3991  0.3809 -0.7667
  586MOL0     C80785   8.098   5.624   6.463  0.8513  0.8093  0.3819
  586MOL0     C80786   8.007   5.707   6.402  0.0123 -0.3335 -0.0639
  586MOL0     C80787   7.908   5.653   6.315 -0.3817 -0.0151 -0.0594
  586MOL0     C80788   7.884   5.517   6.308  0.6437  0.5467 -0.1848
  586MOL0     O80789   7.792   5.465   6.220 -0.1198 -0.0659  0.3184
  586MOL0     C80790   7.650   5.519   6.254 -0.1853  0.5208 -0.6138
  586MOL0     C80791   7.552   5.465   6.153 -0.6299  0.4844  0.2919
  586MOL0     C80792   7.409   5.492   6.192 -0.5230 -1.0550  0.1774
  586MOL0     C80793   7.325   5.498   6.058 -0.6316 -0.1858 -1.3643
  586MOL0     C80794   7.199   5.583   6.073  0.8665  0.0499 -0.5386
  586MOL0     C80795   7.091   5.646   6.064  0.1666  0.4882 -0.3113
  586MOL0     C80796   7.971   5.434   6.376  0.5684  0.3824  0.1786
  586MOL0     C80797   8.079   5.484   6.448 -1.0018  0.3818  0.7754
  586MOL0     C80798   8.185   5.389   6.488 -0.8505  0.2205 -0.4857
  586MOL0     H80799   8.511   5.674   6.536  2.0705 -0.9612  2.2566
  586MOL0     H80800   8.697   5.790   6.641 -0.6201 -1.2393 -1.7984
  586MOL0     H80801   8.803   6.083   6.577  2.6555  0.4174  0.0391
  586MOL0     H80802   8.875   5.941   6.659 -2.6140 -1.4830 -3.1442
  586MOL0     H80803   8.873   6.234   6.771  1.8175  0.5864  0.6876
  586MOL0     H80804   8.960   6.102   6.829 -0.0675 -1.2295 -0.1018
  586MOL0     H80805   9.081   6.124   6.591 -0.2654  0.8599 -0.8430
  586MOL0     H80806   8.988   6.277   6.565  0.0049 -0.6181 -0.3124
  586MOL0     H80807   9.074   6.338   6.798 -2.9008 -2.7036 -1.5658
  586MOL0     H80808   9.189   6.208   6.783 -0.9245 -1.1687  1.3156
  586MOL0     H80809   9.289   6.433   6.705  1.0038 -1.4057  0.9599
  586MOL0     H80810   9.181   6.439   6.568 -0.4011  0.5732  1.5125
  586MOL0     H80811   9.371   6.213   6.646 -0.0492  2.5005  1.2416
  586MOL0     H80812   9.269   6.208   6.503  0.1786  0.6622 -2.6011
  586MOL0     H80813   9.486   6.403   6.592 -1.5724  2.4073 -0.4957
  586MOL0     H80814   9.396   6.438   6.445  1.9305  0.2046 -0.5861
  586MOL0     H80815   9.526   6.166   6.458  2.2295  0.8234 -0.8191
  586MOL0     H80816   9.490   6.274   6.320  0.2586 -1.8759 -0.7280
  586MOL0     H80817   9.698   6.181   6.620 -2.3037 -2.4509 -2.9372
  586MOL0     H80818  10.068   6.189   6.487 -0.3372  2.4902  0.6957
  586MOL0     H80819   9.958   6.061   6.555  1.0229  0.1703  2.4986
  586MOL0     H80820   9.931   6.163   6.754  1.7466  0.1265  3.1768
  586MOL0     H80821  10.110   6.173   6.720  0.5750  1.3284 -0.4312
  586MOL0     H80822  10.086   6.417   6.679 -2.3013 -0.2516 -4.2870
  586MOL0     H80823   9.911   6.395   6.696 -0.2901 -0.8034 -0.7403
  586MOL0     H80824  10.023   6.486   6.902 -0.3071  0.3528 -1.2606
  586MOL0     H80825   9.931   6.333   6.930 -0.5390  1.4690  0.9336
  586MOL0     H80826  10.319   6.301   6.749 -0.8554  1.4912 -1.5117
  586MOL0     H80827  10.671   6.373   6.733 -0.4119 -0.6517 -1.9106
  586MOL0     H80828  10.569   6.495   6.641 -1.5641  0.5080  0.5145
  586MOL0     H80829  10.530   6.320   6.639 -0.4545 -0.2946  0.5825
  586MOL0     H80830  10.757   6.754   6.713 -0.8763  0.9593 -1.2437
  586MOL0     H80831  10.938   6.926   6.686 -1.6777  2.7401 -0.5007
  586MOL0     H80832  11.070   7.198   7.036 -0.5285 -2.2103  2.2181
  586MOL0     H80833  11.112   7.033   7.033 -0.2846  0.5644  0.6168
  586MOL0     H80834  11.282   7.083   6.842 -0.9207 -1.3780  0.1346
  586MOL0     H80835  11.262   7.255   6.889 -3.2359  1.4275  1.7501
  586MOL0     H80836  11.448   7.113   6.997  0.6544  1.7036  2.2738
  586MOL0     H80837  11.331   7.015   7.087 -1.3875  1.8542  3.3562
  586MOL0     H80838  11.260   7.230   7.201 -0.9502 -0.3368 -0.9555
  586MOL0     H80839  11.388   7.315   7.105  0.7377 -0.4966 -0.0304
  586MOL0     H80840  11.467   7.266   7.327  2.7053 -0.3140  1.0107
  586MOL0     H80841  11.428   7.102   7.304  0.1521 -0.0383 -0.4152
  586MOL0     H80842  11.632   7.237   7.141 -0.3049 -0.5845 -0.9724
  586MOL0     H80843  11.614   7.065   7.147  0.6924  0.9684 -1.0143
  586MOL0     H80844  11.624   7.074   7.390 -1.7920  2.3914  1.2564
  586MOL0     H80845  11.726   7.228   7.383  0.2957  0.9393 -0.8610
  586MOL0     H80846  11.869   7.130   7.212 -0.8577  1.2178 -0.0327
  586MOL0     H80847  11.808   6.970   7.224  2.8952 -0.1377 -1.5894
  586MOL0     H80848  10.837   7.098   7.066 -1.4748  0.2360 -1.3392
  586MOL0     H80849  10.672   6.915   7.102 -2.7729 -3.6977 -1.1929
  586MOL0     H80850  10.438   6.628   7.092  2.5687 -0.3440  0.9817
  586MOL0     H80851  10.213   6.516   7.080 -1.1607 -1.0722 -0.1756
  586MOL0     H80852   8.463   6.137   6.718 -0.2903 -0.1978  0.8008
  586MOL0     H80853   8.274   6.028   6.588 -1.4126 -3.4434 -2.4640
  586MOL0     H80854   8.011   5.815   6.405 -0.6380 -0.2695 -1.0258
  586MOL0     H80855   7.849   5.717   6.250  0.4309 -0.3285 -1.1452
  586MOL0     H80856   7.619   5.467   6.345  1.2427  0.4383 -0.1459
  586MOL0     H80857   7.641   5.627   6.265  0.8081  0.5244  0.3772
  586MOL0     H80858   7.569   5.358   6.139  1.7673  0.7712  0.5927
  586MOL0     H80859   7.585   5.514   6.061  0.4924 -1.3241 -0.3320
  586MOL0     H80860   7.379   5.405   6.251  0.1033 -0.9886  0.6022
  586MOL0     H80861   7.404   5.585   6.250 -1.8743 -0.9520 -0.0513
  586MOL0     H80862   7.304   5.396   6.027 -3.9743 -0.0763  0.1206
  586MOL0     H80863   7.378   5.552   5.979  1.4158 -1.7821 -1.1644
  586MOL0     H80864   7.015   5.718   6.041  0.8645  0.2877 -3.8477
  586MOL0     H80865   7.954   5.328   6.366 -0.3073  0.1132  3.3578
  586MOL0     H80866   8.184   5.299   6.426 -1.0959  0.9398 -1.5520
  586MOL0     H80867   8.286   5.427   6.467 -0.4067 -1.4815 -1.7482
  586MOL0     H80868   8.172   5.362   6.593 -1.2613 -3.0759 -1.2628
  587MOL0     O80869   5.534   0.498   5.269 -0.0738 -0.5638  0.1481
  587MOL0     C80870   5.513   0.439   5.378 -0.4432 -0.6753 -1.0958
  587MOL0     O80871   5.591   0.340   5.429 -0.1834  0.3518  0.0336
  587MOL0     C80872   5.720   0.316   5.382 -0.5042  0.6555  0.2870
  587MOL0     C80873   5.772   0.194   5.394 -0.0993 -0.5615 -0.5718
  587MOL0     C80874   5.893   0.147   5.344  0.8379  0.5107 -0.0944
  587MOL0     C80875   5.984   0.244   5.297  0.4998 -0.6115  0.3507
  587MOL0     O80876   6.105   0.217   5.243 -0.5179  0.1615 -0.3748
  587MOL0     C80877   6.142   0.076   5.218 -0.3700  0.3564  0.5071
  587MOL0     C80878   6.282   0.075   5.169 -0.1310  0.4398 -1.2803
  587MOL0     C80879   6.313   0.173   5.060  1.0062 -0.0267  0.2119
  587MOL0     C80880   6.466   0.167   5.045 -0.6765 -0.6142 -0.4039
  587MOL0     C80881   6.498   0.068   4.934 -1.0216  0.5488 -0.2185
  587MOL0     C80882   6.653   0.078   4.919 -0.7439 -0.8862 -0.2282
  587MOL0     C80883   6.709  -0.039   4.835 -0.0797 -0.2681 -0.8161
  587MOL0     C80884   6.829  -0.001   4.762 -0.5450  0.3567 -0.2512
  587MOL0     N80885   6.914  -0.124   4.760  0.1742  0.4476 -0.8613
  587MOL0     C80886   6.989  -0.179   4.860 -0.0410 -0.4040 -0.0456
  587MOL0     C80887   7.036  -0.290   4.790  0.0833  0.5980 -0.1985
  587MOL0     C80888   7.130  -0.389   4.838  0.9382 -0.5279  0.2415
  587MOL0     C80889   7.276  -0.369   4.788  0.0378  0.5947  0.1320
  587MOL0     C80890   7.367  -0.459   4.870 -0.0440 -0.1012  0.0013
  587MOL0     C80891   7.510  -0.440   4.828  0.0897  0.1474 -0.1622
  587MOL0     O80892   7.539  -0.548   4.734  0.7522 -0.2728  0.5174
  587MOL0     C80893   7.677  -0.574   4.731  0.7581  1.0274 -0.5948
  587MOL0     C80894   7.695  -0.713   4.733 -1.1982  0.1388  0.4825
  587MOL0     C80895   7.822  -0.771   4.740 -0.2838  0.6293 -0.5278
  587MOL0     C80896   7.822  -0.915   4.725  0.0252 -0.2948  0.9612
  587MOL0     C80897   7.939  -0.689   4.743 -0.4372  0.5136 -0.8577
  587MOL0     C80898   8.083  -0.739   4.749  0.9187  0.1334 -0.1238
  587MOL0     O80899   8.183  -0.652   4.716  0.1886  0.5099 -0.0299
  587MOL0     C80900   8.308  -0.707   4.689  0.1988  0.9466 -0.2935
  587MOL0     C80901   8.395  -0.722   4.790  0.0503  0.0716  0.3352
  587MOL0     C80902   8.525  -0.768   4.772  0.0051  0.5984  0.6354
  587MOL0     C80903   8.570  -0.799   4.643 -0.2841 -0.6182  0.0158
  587MOL0     O80904   8.693  -0.849   4.613  0.4393  0.0839 -0.6919
  587MOL0     C80905   8.786  -0.843   4.723  0.2707  0.5814 -0.7624
  587MOL0     C80906   8.923  -0.895   4.667  0.3786 -0.2264  0.3839
  587MOL0     C80907   9.035  -0.868   4.773 -0.1146 -0.1514 -0.1623
  587MOL0     C80908   9.033  -0.983   4.880 -0.7359 -0.0362 -0.5624
  587MOL0     C80909   9.079  -0.942   5.015 -0.0077  0.1984 -0.3642
  587MOL0     C80910   9.232  -0.904   5.012  0.5347 -0.1840  0.5524
  587MOL0     C80911   9.289  -0.858   5.148 -0.2159  0.1694  0.5024
  587MOL0     C80912   9.282  -0.966   5.257 -0.8189  0.4516  0.1814
  587MOL0    Cl80913   9.306  -1.135   5.193  0.0443  0.2285 -0.4560
  587MOL0     C80914   8.482  -0.780   4.533 -0.0387  0.5915 -0.0201
  587MOL0     C80915   8.352  -0.736   4.563  0.1773 -1.0456  0.9466
  587MOL0     O80916   8.106  -0.862   4.772  0.7752 -0.6390 -0.0656
  587MOL0     C80917   7.917  -0.548   4.730 -0.4493 -0.1978  0.7993
  587MOL0     C80918   7.784  -0.491   4.724 -0.2776  0.2252  0.8700
  587MOL0     N80919   6.998  -0.291   4.660 -0.0032  0.5103  1.0466
  587MOL0     N80920   6.921  -0.196   4.645 -0.3214 -0.1171  0.4165
  587MOL0     C80921   5.942   0.378   5.304  0.1571 -0.1973  0.3579
  587MOL0     C80922   5.810   0.417   5.347 -0.3654  0.4713  0.7152
  587MOL0     C80923   5.382   0.455   5.442  0.7067  0.1571 -0.8940
  587MOL0     C80924   5.283   0.530   5.377 -0.5208  0.4273 -0.1941
  587MOL0     C80925   5.156   0.548   5.432 -0.0427 -0.1206  0.3287
  587MOL0     C80926   5.119   0.494   5.551 -0.1005 -0.0310  0.2132
  587MOL0     O80927   4.991   0.511   5.598  0.0185 -0.1563 -0.4217
  587MOL0     C80928   4.947   0.435   5.717  0.3038 -0.6220 -0.0805
  587MOL0     C80929   4.935   0.282   5.689 -0.3802 -0.3725 -0.7756
  587MOL0     C80930   4.863   0.241   5.562  0.3532  0.4075  0.5728
  587MOL0     C80931   4.735   0.320   5.531  0.4761  0.7715  0.3060
  587MOL0     C80932   4.630   0.285   5.631  0.4870 -0.0765 -0.7433
  587MOL0     C80933   4.539   0.260   5.700  0.7488  0.2802  0.0530
  587MOL0     C80934   5.214   0.406   5.615  0.2361  0.0629 -1.4627
  587MOL0     C80935   5.345   0.391   5.568 -0.3923  0.2755  1.1224
  587MOL0     C80936   5.424   0.297   5.653  0.5755 -0.6499  0.3150
  587MOL0     H80937   5.703   0.124   5.439  2.2002 -1.0484  2.5484
  587MOL0     H80938   5.915   0.041   5.350  0.9432  0.5684  0.6511
  587MOL0     H80939   6.084   0.038   5.134  3.0407 -1.0915 -1.3527
  587MOL0     H80940   6.139   0.014   5.308  0.7342 -0.3905  0.0400
  587MOL0     H80941   6.357   0.094   5.247 -0.5783  1.6477 -1.1132
  587MOL0     H80942   6.291  -0.030   5.140  1.0104 -0.9291  3.1873
  587MOL0     H80943   6.266   0.136   4.969  1.7241  1.4695 -0.8089
  587MOL0     H80944   6.279   0.275   5.083  0.1103 -0.2961  0.1369
  587MOL0     H80945   6.483   0.268   5.006 -0.6576 -0.9834 -1.3868
  587MOL0     H80946   6.521   0.158   5.139  0.0599 -1.3065 -0.8847
  587MOL0     H80947   6.452   0.103   4.841  1.9719  3.8426 -0.6506
  587MOL0     H80948   6.470  -0.033   4.965  1.9709 -0.1958  0.3605
  587MOL0     H80949   6.678   0.174   4.874 -3.2121  0.0209  0.1884
  587MOL0     H80950   6.702   0.081   5.017 -3.0169 -0.4579  0.9748
  587MOL0     H80951   6.639  -0.084   4.764  1.7444 -0.6326 -2.4798
  587MOL0     H80952   6.739  -0.117   4.905 -2.8147  1.3261  2.4159
  587MOL0     H80953   6.819   0.058   4.671  3.0059  0.2716 -0.8417
  587MOL0     H80954   6.877   0.077   4.823 -0.6429  0.8640 -0.8182
  587MOL0     H80955   7.005  -0.139   4.960  1.1039  0.0570 -0.3947
  587MOL0     H80956   7.097  -0.489   4.808  2.3704 -0.9266 -0.1191
  587MOL0     H80957   7.133  -0.375   4.946  0.9074  2.0734 -0.0392
  587MOL0     H80958   7.279  -0.393   4.682 -1.9358 -2.1555  0.5714
  587MOL0     H80959   7.305  -0.264   4.798 -0.2192  0.4567  3.6791
  587MOL0     H80960   7.353  -0.448   4.978 -0.7594  0.9058 -0.1724
  587MOL0     H80961   7.338  -0.560   4.839  2.3698 -0.5151 -1.1711
  587MOL0     H80962   7.521  -0.344   4.775  0.6511  0.0445 -0.2371
  587MOL0     H80963   7.580  -0.438   4.912 -0.7123  1.8984  0.5166
  587MOL0     H80964   7.610  -0.778   4.748 -1.8298  0.7249 -0.4911
  587MOL0     H80965   7.732  -0.955   4.678  0.8060  1.1035 -1.9427
  587MOL0     H80966   7.818  -0.980   4.813 -0.7637 -1.8744 -0.1964
  587MOL0     H80967   7.911  -0.937   4.666  0.7105 -1.0048  2.2036
  587MOL0     H80968   8.358  -0.696   4.889 -0.8587 -0.6478  0.1968
  587MOL0     H80969   8.581  -0.780   4.865 -0.8566  0.2487  1.1253
  587MOL0     H80970   8.792  -0.739   4.757 -0.3619  0.6444 -0.8325
  587MOL0     H80971   8.760  -0.913   4.803  0.5805 -0.1550 -1.2964
  587MOL0     H80972   8.915  -1.003   4.653  1.5559 -0.3877  0.8657
  587MOL0     H80973   8.950  -0.839   4.577  0.1103  2.0102  1.6168
  587MOL0     H80974   9.017  -0.771   4.820  2.1849 -0.0940  0.7214
  587MOL0     H80975   9.138  -0.871   4.736  0.2312 -2.0392  0.8067
  587MOL0     H80976   9.104  -1.061   4.851 -0.1802 -1.2120  3.3508
  587MOL0     H80977   8.937  -1.035   4.894 -1.4985  1.5291  0.2670
  587MOL0     H80978   9.015  -0.867   5.063 -1.1727 -0.0637 -1.4383
  587MOL0     H80979   9.074  -1.036   5.070 -0.8049 -0.6495 -1.8128
  587MOL0     H80980   9.236  -0.816   4.947 -0.8275 -1.0631 -0.7885
  587MOL0     H80981   9.299  -0.983   4.977  0.7406 -1.8161  4.1362
  587MOL0     H80982   9.238  -0.771   5.191  0.9784  1.5049 -0.6812
  587MOL0     H80983   9.394  -0.829   5.133 -0.1157 -0.2811  0.3203
  587MOL0     H80984   9.183  -0.961   5.302 -0.6923 -0.0636  0.5318
  587MOL0     H80985   9.362  -0.941   5.327 -0.2642  1.9451 -0.9373
  587MOL0     H80986   8.525  -0.814   4.440  1.3162 -0.5204  0.9719
  587MOL0     H80987   8.286  -0.723   4.479  0.8759 -0.2930  0.5000
  587MOL0     H80988   7.997  -0.474   4.735 -0.7878  0.1735  0.7250
  587MOL0     H80989   7.797  -0.383   4.719  1.5051  0.0471  0.9281
  587MOL0     H80990   6.012   0.457   5.278 -1.7010  2.0368  1.6716
  587MOL0     H80991   5.780   0.521   5.356  0.8109  0.6995  2.6784
  587MOL0     H80992   5.310   0.571   5.280  0.3296  0.3182 -0.0082
  587MOL0     H80993   5.078   0.611   5.391  1.5063  1.2959 -0.5459
  587MOL0     H80994   4.993   0.471   5.809 -2.8918 -0.1269  1.4806
  587MOL0     H80995   4.842   0.458   5.736  0.5576 -0.2383  0.9295
  587MOL0     H80996   4.872   0.238   5.767 -0.4843  3.0002  1.2469
  587MOL0     H80997   5.032   0.231   5.689  0.3410  0.9113  0.6933
  587MOL0     H80998   4.930   0.250   5.476 -2.1364  0.5493 -1.4696
  587MOL0     H80999   4.838   0.136   5.580 -1.9596  1.1906  2.6003
  587MOL0     H81000   4.686   0.297   5.436  0.9847  2.7157 -0.4613
  587MOL0     H81001   4.759   0.426   5.521 -0.0770  0.7893 -1.0035
  587MOL0     H81002   4.481   0.242   5.788  0.0137  2.6105  0.1171
  587MOL0     H81003   5.189   0.340   5.697  1.6589 -1.4526 -2.1955
  587MOL0     H81004   5.526   0.337   5.661 -1.0902  4.6085 -1.0302
  587MOL0     H81005   5.378   0.292   5.752 -2.3774  2.4046 -0.7370
  587MOL0     H81006   5.428   0.202   5.599 -0.3553  0.0980 -1.1526
  588MOL0     O81007   8.748  10.533  11.092 -0.2652 -0.3294 -0.5438
  588MOL0     C81008   8.760  10.617  10.995  0.4777  1.0136 -0.4866
  588MOL0     O81009   8.874  10.644  10.932  0.4837 -0.0701 -0.0080
  588MOL0     C81010   8.992  10.597  10.969  0.6180  0.7182  0.5938
  588MOL0     C81011   9.054  10.511  10.873 -0.2373  0.4798  0.0473
  588MOL0     C81012   9.188  10.474  10.889 -0.6140  0.0886  0.6937
  588MOL0     C81013   9.272  10.532  10.990  0.3786  0.6100  0.2289
  588MOL0     O81014   9.404  10.503  10.982 -1.0788  0.2358  0.9234
  588MOL0     C81015   9.502  10.573  11.056 -0.3806  0.2926  0.7706
  588MOL0     C81016   9.640  10.498  11.018  0.1485 -0.5549  0.3680
  588MOL0     C81017   9.754  10.557  11.112 -0.0473  0.6279  1.3589
  588MOL0     C81018   9.882  10.476  11.105 -0.1219  0.3979 -0.1491
  588MOL0     C81019  10.000  10.517  11.204  0.8784 -0.2793  0.7167
  588MOL0     C81020  10.104  10.406  11.194  0.3034 -0.1610  0.7221
  588MOL0     C81021  10.232  10.435  11.282 -0.0753  0.5915  0.4275
  588MOL0     C81022  10.323  10.520  11.200 -0.1007 -0.1500  0.4332
  588MOL0     N81023  10.462  10.525  11.252 -0.2301 -0.4609 -0.5973
  588MOL0     C81024  10.540  10.408  11.270 -0.2407 -0.0176  0.3029
  588MOL0     C81025  10.637  10.442  11.361 -0.5891 -0.4986  0.4408
  588MOL0     C81026  10.748  10.349  11.398 -0.3309  0.3144  0.7769
  588MOL0     C81027  10.838  10.343  11.274  0.0309 -0.0748 -0.1570
  588MOL0     C81028  10.966  10.261  11.321  0.1125  0.4465  0.6209
  588MOL0     C81029  11.042  10.229  11.192 -0.0354  0.6883  0.0717
  588MOL0     O81030  11.059  10.342  11.098  0.0278 -0.3379  0.1464
  588MOL0     C81031  11.192  10.393  11.087 -0.8712  0.0903  0.1836
  588MOL0     C81032  11.287  10.392  11.188 -0.4031 -0.4093 -0.1938
  588MOL0     C81033  11.417  10.446  11.173  0.1251  0.1629  0.2224
  588MOL0     C81034  11.515  10.436  11.294  0.6077  0.3424  0.4282
  588MOL0     C81035  11.457  10.508  11.044  0.5523 -0.4203  0.1547
  588MOL0     C81036  11.584  10.570  11.008 -0.0026 -0.3562 -0.5591
  588MOL0     O81037  11.605  10.592  10.876  0.3073  0.1342  0.1939
  588MOL0     C81038  11.732  10.614  10.833 -0.8668 -0.2491 -1.5931
  588MOL0     C81039  11.778  10.553  10.718  1.1830 -0.3908 -0.2753
  588MOL0     C81040  11.908  10.574  10.675 -0.7050 -0.1172  0.2367
  588MOL0     C81041  11.997  10.666  10.733  0.1689  0.0045 -0.5742
  588MOL0     O81042  12.128  10.700  10.695  0.3470  0.1412  0.2989
  588MOL0     C81043  12.192  10.612  10.608 -0.4521 -0.2135 -0.0674
  588MOL0     C81044  12.345  10.651  10.585 -0.0497  0.7284 -0.7373
  588MOL0     C81045  12.408  10.749  10.678  0.7475  0.1224 -0.9325
  588MOL0     C81046  12.547  10.800  10.634  0.5705  1.4009  0.6519
  588MOL0     C81047  12.642  10.838  10.741 -0.7004  0.6431  0.4813
  588MOL0     C81048  12.777  10.863  10.679 -0.2870 -0.8084 -0.2383
  588MOL0     C81049  12.879  10.899  10.779 -1.5213  0.5525  0.2562
  588MOL0     C81050  12.925  10.781  10.865 -0.4413 -0.3252 -0.3774
  588MOL0    Cl81051  12.853  10.784  11.029 -0.1242  0.1853  0.1808
  588MOL0     C81052  11.936  10.739  10.834 -0.2459 -1.2871  0.5065
  588MOL0     C81053  11.813  10.710  10.890 -0.0615  0.6961  0.7322
  588MOL0     O81054  11.667  10.584  11.092  0.2587 -0.0350 -0.2758
  588MOL0     C81055  11.353  10.516  10.948  0.3227  0.7186 -0.0758
  588MOL0     C81056  11.225  10.459  10.972  0.1044  0.2926 -0.1323
  588MOL0     N81057  10.623  10.573  11.393  0.2480 -0.1925  0.6069
  588MOL0     N81058  10.522  10.623  11.326  0.3110 -0.7321  0.5266
  588MOL0     C81059   9.210  10.610  11.091  0.1426 -0.4703  0.8508
  588MOL0     C81060   9.072  10.640  11.078  0.8975  0.6072 -0.5852
  588MOL0     C81061   8.641  10.682  10.942  0.2277  0.5379  1.0690
  588MOL0     C81062   8.656  10.763  10.823 -0.3153 -0.3348  0.2082
  588MOL0     C81063   8.545  10.815  10.756  0.3674 -0.6713  0.2433
  588MOL0     C81064   8.425  10.818  10.819 -0.1139 -0.0446 -0.4570
  588MOL0     O81065   8.327  10.886  10.751 -0.2106 -1.0441 -0.0576
  588MOL0     C81066   8.197  10.914  10.807  0.3361 -0.1621  0.1060
  588MOL0     C81067   8.141  11.012  10.701 -0.7887 -0.3438  0.6590
  588MOL0     C81068   7.997  11.053  10.716 -0.0139  0.1724 -0.1582
  588MOL0     C81069   7.895  10.936  10.722  0.4943 -0.3594 -0.0484
  588MOL0     C81070   7.761  10.980  10.727 -0.8633 -0.4357  0.5827
  588MOL0     C81071   7.648  11.007  10.756 -0.3209 -0.4895 -0.5329
  588MOL0     C81072   8.408  10.764  10.949 -0.3723  0.2837  0.5982
  588MOL0     C81073   8.511  10.690  11.005  0.1627 -0.2519  0.2368
  588MOL0     C81074   8.489  10.621  11.140  0.2479  0.4685  0.2902
  588MOL0     H81075   9.008  10.471  10.783  2.6863 -0.2046 -1.2738
  588MOL0     H81076   9.235  10.411  10.815 -2.4372  0.3565 -0.7663
  588MOL0     H81077   9.483  10.576  11.164 -0.4888 -0.4323  0.7791
  588MOL0     H81078   9.493  10.673  11.013 -0.1676 -0.2423 -0.5373
  588MOL0     H81079   9.632  10.389  11.029 -0.7948 -0.3961  1.3823
  588MOL0     H81080   9.673  10.518  10.915  0.2287  1.8534  0.8018
  588MOL0     H81081   9.764  10.662  11.085  2.7588  0.3830  1.1317
  588MOL0     H81082   9.721  10.551  11.217  0.2572  1.1188  1.4848
  588MOL0     H81083   9.866  10.371  11.130  0.4215 -0.1798 -2.0427
  588MOL0     H81084   9.907  10.479  10.999 -2.9742 -0.5626 -0.9350
  588MOL0     H81085   9.973  10.519  11.310  2.3445 -3.6847  1.2760
  588MOL0     H81086  10.049  10.610  11.172  1.9321 -1.4936 -1.4340
  588MOL0     H81087  10.050  10.320  11.235 -1.9600 -1.0732 -3.5751
  588MOL0     H81088  10.116  10.380  11.088 -0.0313  1.2882  0.3135
  588MOL0     H81089  10.290  10.345  11.303 -1.5389 -0.4375  0.2114
  588MOL0     H81090  10.206  10.482  11.377  1.8782 -0.6148  1.6231
  588MOL0     H81091  10.333  10.490  11.096  1.8447  1.4318  0.1234
  588MOL0     H81092  10.287  10.623  11.200  2.1384  0.7167  1.9894
  588MOL0     H81093  10.530  10.312  11.219 -1.8295  1.3087 -2.0753
  588MOL0     H81094  10.708  10.252  11.427 -1.6264  1.1000  1.7221
  588MOL0     H81095  10.811  10.385  11.479  1.5563  0.7356 -0.7876
  588MOL0     H81096  10.791  10.290  11.191 -3.0884 -1.5731  2.3719
  588MOL0     H81097  10.863  10.445  11.241 -0.9311  0.7051  1.4440
  588MOL0     H81098  11.027  10.309  11.398 -0.5211  1.1176  0.7231
  588MOL0     H81099  10.931  10.166  11.362  2.4708 -1.3626 -1.3020
  588MOL0     H81100  11.141  10.185  11.204  0.7095  2.2873  0.0575
  588MOL0     H81101  10.989  10.149  11.139 -1.1241  0.2722  1.7041
  588MOL0     H81102  11.261  10.348  11.284 -0.6052  0.9550  0.3996
  588MOL0     H81103  11.596  10.365  11.275 -0.0190 -0.0750 -0.8214
  588MOL0     H81104  11.457  10.406  11.382 -0.1504  0.7975  0.0986
  588MOL0     H81105  11.563  10.533  11.308 -1.0790  1.3107 -0.1258
  588MOL0     H81106  11.718  10.479  10.667 -0.7545 -0.0394  1.3515
  588MOL0     H81107  11.931  10.521  10.583  1.7292  0.0458  0.6929
  588MOL0     H81108  12.189  10.506  10.638 -1.5947  0.0852  0.9322
  588MOL0     H81109  12.154  10.617  10.505  3.8117  3.2143 -1.7737
  588MOL0     H81110  12.407  10.561  10.578  1.1786  1.6434 -2.2037
  588MOL0     H81111  12.348  10.691  10.483 -1.6308  1.6476 -0.4613
  588MOL0     H81112  12.416  10.703  10.778 -3.1840 -2.6118 -1.6454
  588MOL0     H81113  12.343  10.836  10.694 -1.0885 -1.6005  1.8828
  588MOL0     H81114  12.520  10.877  10.561 -1.6531 -1.5701 -1.9155
  588MOL0     H81115  12.603  10.719  10.586  1.9833  1.1127  2.6650
  588MOL0     H81116  12.603  10.919  10.803  1.0593  1.8756  0.0514
  588MOL0     H81117  12.654  10.760  10.817  1.8736  3.2484  3.0162
  588MOL0     H81118  12.767  10.952  10.616 -1.3047 -0.1580  0.7833
  588MOL0     H81119  12.809  10.780  10.616 -2.5329 -2.6333  0.8516
  588MOL0     H81120  12.832  10.978  10.838 -4.1293 -0.5894 -0.1664
  588MOL0     H81121  12.973  10.938  10.740 -2.0966  1.2968 -0.4188
  588MOL0     H81122  13.034  10.773  10.864 -0.3471  0.2909  1.2807
  588MOL0     H81123  12.900  10.684  10.821  0.1002 -0.6123 -0.0633
  588MOL0     H81124  11.995  10.815  10.884 -1.7874  0.6908 -0.4822
  588MOL0     H81125  11.788  10.767  10.979  1.5381 -0.2383  1.8177
  588MOL0     H81126  11.367  10.562  10.850  0.1365 -0.6170 -0.7599
  588MOL0     H81127  11.145  10.474  10.900 -1.3878 -2.7685  0.7075
  588MOL0     H81128   9.267  10.666  11.165 -0.3672  0.9993  0.1674
  588MOL0     H81129   9.036  10.705  11.156  0.1109 -1.3281  0.7510
  588MOL0     H81130   8.749  10.767  10.767 -1.5912 -0.8040 -2.1048
  588MOL0     H81131   8.554  10.861  10.658  1.0615  0.3045  0.7492
  588MOL0     H81132   8.144  10.822  10.832  1.4250 -0.3576  1.8772
  588MOL0     H81133   8.192  10.976  10.897 -2.0188  0.8776 -0.6610
  588MOL0     H81134   8.158  10.963  10.604 -0.3091 -1.1963  1.1622
  588MOL0     H81135   8.200  11.104  10.688 -0.6762 -0.5083 -0.0695
  588MOL0     H81136   7.990  11.120  10.802 -1.8206  0.1846 -0.2677
  588MOL0     H81137   7.983  11.113  10.625  4.2377  0.5707 -0.7632
  588MOL0     H81138   7.905  10.857  10.798 -3.2581 -2.0589 -1.1134
  588MOL0     H81139   7.902  10.880  10.628 -1.8073 -0.2596 -0.3315
  588MOL0     H81140   7.542  11.020  10.764  0.0745  2.0338  2.5621
  588MOL0     H81141   8.311  10.784  10.994 -0.5543 -1.0257  0.8185
  588MOL0     H81142   8.552  10.664  11.219  0.3616 -3.5162  2.6463
  588MOL0     H81143   8.388  10.645  11.176 -0.5916  1.0326 -2.2436
  588MOL0     H81144   8.503  10.513  11.131 -0.1831  0.5055 -0.9394
  589MOL0     O81145   2.122   3.960   0.271  0.4185  0.3278 -0.7492
  589MOL0     C81146   2.116   3.980   0.392 -0.2917 -0.5395 -0.5719
  589MOL0     O81147   2.217   4.026   0.464 -0.3664 -0.3539 -0.0691
  589MOL0     C81148   2.335   4.061   0.394  0.0956  0.1925 -0.1163
  589MOL0     C81149   2.339   4.152   0.291 -0.3081 -0.1214 -0.4695
  589MOL0     C81150   2.463   4.196   0.233 -0.6306 -0.1174  0.2179
  589MOL0     C81151   2.584   4.136   0.271  0.5408  0.7040  0.2608
  589MOL0     O81152   2.707   4.158   0.213  0.5418  0.4264 -0.2821
  589MOL0     C81153   2.728   4.258   0.115  0.0619  0.1452  0.0961
  589MOL0     C81154   2.876   4.255   0.088  0.0845  0.6718  1.2216
  589MOL0     C81155   2.917   4.379   0.004  0.3930 -0.2782 -0.3639
  589MOL0     C81156   3.047   4.365  -0.059 -0.1740  0.5558 -0.4403
  589MOL0     C81157   3.098   4.504  -0.114  0.3744  0.0116 -0.0440
  589MOL0     C81158   3.229   4.494  -0.189  0.2230  0.3786  0.9293
  589MOL0     C81159   3.305   4.626  -0.212 -0.4808  0.0083 -0.8356
  589MOL0     C81160   3.347   4.698  -0.082  0.3919  0.2711  0.1120
  589MOL0     N81161   3.418   4.824  -0.120 -0.0579 -0.2101 -0.6078
  589MOL0     C81162   3.552   4.826  -0.162 -0.7511 -1.0804 -0.2352
  589MOL0     C81163   3.576   4.954  -0.179 -0.3378  0.4924 -0.6328
  589MOL0     C81164   3.706   5.005  -0.229 -0.3095 -0.0497  0.0639
  589MOL0     C81165   3.785   5.071  -0.113 -0.7059 -0.5485  0.4103
  589MOL0     C81166   3.939   5.061  -0.146  0.1842  0.2453  0.5104
  589MOL0     C81167   3.982   5.129  -0.282 -0.2673 -0.4146 -0.1053
  589MOL0     O81168   4.108   5.201  -0.288  0.6234 -0.0395 -0.0871
  589MOL0     C81169   4.216   5.135  -0.340  0.9607  0.6066 -0.9913
  589MOL0     C81170   4.203   5.083  -0.473 -0.3047  0.1538  1.4325
  589MOL0     C81171   4.317   5.022  -0.525 -0.2970  1.2728  0.6098
  589MOL0     C81172   4.313   4.986  -0.673 -0.2509  0.0727  0.1962
  589MOL0     C81173   4.442   5.008  -0.451 -0.6460 -0.3034 -0.3978
  589MOL0     C81174   4.572   4.942  -0.500  0.1823 -0.3028  0.0856
  589MOL0     O81175   4.667   4.955  -0.404 -0.0839 -0.9103  0.2049
  589MOL0     C81176   4.804   4.960  -0.423 -0.1451  0.7897 -0.1100
  589MOL0     C81177   4.882   4.901  -0.529  0.4460  0.8312  0.3435
  589MOL0     C81178   5.020   4.893  -0.515 -0.2936  0.0182  0.2625
  589MOL0     C81179   5.087   4.939  -0.409 -0.0457  0.0887 -0.5643
  589MOL0     O81180   5.224   4.906  -0.413 -0.6042  0.9190  1.0554
  589MOL0     C81181   5.307   4.963  -0.318  0.5434  0.4115 -0.7231
  589MOL0     C81182   5.447   4.926  -0.351  0.1674  0.2344  0.5041
  589MOL0     C81183   5.559   4.949  -0.243  0.2798  1.4824 -0.0232
  589MOL0     C81184   5.553   5.096  -0.206  0.0014 -0.6488 -0.0969
  589MOL0     C81185   5.651   5.133  -0.090  0.2689  0.3498  0.3187
  589MOL0     C81186   5.626   5.073   0.046  0.1365  0.6864 -0.8132
  589MOL0     C81187   5.715   5.113   0.157  0.1449 -0.0111  0.1854
  589MOL0     C81188   5.678   5.047   0.282  0.2947  0.2420  0.2902
  589MOL0    Cl81189   5.780   5.108   0.423  0.0430  0.3414  0.2246
  589MOL0     C81190   5.013   5.001  -0.305  0.1300 -0.6703 -0.9619
  589MOL0     C81191   4.874   5.004  -0.310 -0.2705  0.6196 -0.3614
  589MOL0     O81192   4.579   4.882  -0.606 -0.1527  0.6502 -0.7348
  589MOL0     C81193   4.440   5.060  -0.322 -1.4235 -0.5415  0.3347
  589MOL0     C81194   4.336   5.126  -0.273 -0.1203 -0.6498  0.5904
  589MOL0     N81195   3.465   5.033  -0.150  0.4827 -0.3685  0.4994
  589MOL0     N81196   3.378   4.952  -0.103 -0.0449  0.2645  0.3914
  589MOL0     C81197   2.575   4.040   0.373 -0.1507  0.9253  0.5859
  589MOL0     C81198   2.454   4.002   0.438  0.4889 -0.6206  0.7303
  589MOL0     C81199   1.987   3.937   0.466  0.4315 -0.5904  0.7290
  589MOL0     C81200   1.871   3.928   0.391  0.0176  0.2524 -0.3475
  589MOL0     C81201   1.741   3.914   0.446  0.0413 -0.7409 -0.1657
  589MOL0     C81202   1.724   3.892   0.586  0.1067  0.2678  0.4901
  589MOL0     O81203   1.597   3.885   0.637  0.2858 -0.7489 -0.4709
  589MOL0     C81204   1.585   3.807   0.756  0.1391  0.1247  0.3943
  589MOL0     C81205   1.460   3.727   0.752  0.7824 -0.6039 -0.1001
  589MOL0     C81206   1.341   3.810   0.794 -0.1451 -0.1341  0.0492
  589MOL0     C81207   1.217   3.726   0.781  0.7031 -0.0537 -0.1356
  589MOL0     C81208   1.107   3.798   0.851 -0.1923  0.0567 -0.4846
  589MOL0     C81209   1.013   3.868   0.905 -0.2384 -0.0477 -0.3705
  589MOL0     C81210   1.847   3.878   0.657  0.6545  0.5147 -0.3939
  589MOL0     C81211   1.975   3.895   0.602  0.4105  0.2559  0.9707
  589MOL0     C81212   2.091   3.879   0.698  0.2311 -0.2529 -0.2651
  589MOL0     H81213   2.248   4.201   0.257 -0.1280 -0.5385 -1.5882
  589MOL0     H81214   2.459   4.276   0.160 -2.1552  0.2859  0.6922
  589MOL0     H81215   2.701   4.352   0.164 -2.3161  0.4856 -1.6841
  589MOL0     H81216   2.660   4.237   0.032 -0.7889  1.6343  0.3768
  589MOL0     H81217   2.927   4.259   0.184  0.0028  3.1855  1.2283
  589MOL0     H81218   2.896   4.159   0.040 -0.0085  0.3994  1.7272
  589MOL0     H81219   2.838   4.387  -0.071 -2.4310 -3.7691  1.8661
  589MOL0     H81220   2.923   4.469   0.065  2.0303  0.0521 -0.9693
  589MOL0     H81221   3.124   4.325   0.008 -0.2514  0.4693 -0.4031
  589MOL0     H81222   3.037   4.298  -0.144 -3.7112 -2.6141  2.1371
  589MOL0     H81223   3.114   4.580  -0.036 -0.5170  1.6155 -1.3515
  589MOL0     H81224   3.021   4.554  -0.174 -0.0282 -1.0833 -0.4562
  589MOL0     H81225   3.302   4.435  -0.133  0.4560  0.5135  0.7708
  589MOL0     H81226   3.205   4.449  -0.287  0.8165  1.0950  0.4497
  589MOL0     H81227   3.247   4.691  -0.279 -2.5087  0.0692  0.8990
  589MOL0     H81228   3.400   4.593  -0.256 -0.6802 -1.3270 -0.2958
  589MOL0     H81229   3.267   4.720  -0.010  0.8856 -1.2043  1.1847
  589MOL0     H81230   3.414   4.631  -0.026 -0.1959 -1.5319 -1.2666
  589MOL0     H81231   3.607   4.737  -0.191  0.1170 -0.7274  0.2777
  589MOL0     H81232   3.693   5.084  -0.304  0.9284  0.7826  0.6835
  589MOL0     H81233   3.757   4.915  -0.266 -1.7459 -0.3564 -1.2738
  589MOL0     H81234   3.744   5.171  -0.097  1.7548  1.1401 -2.7808
  589MOL0     H81235   3.760   5.019  -0.020 -0.8790 -0.5145  0.3822
  589MOL0     H81236   3.982   5.133  -0.075 -0.1099  3.2019 -2.0876
  589MOL0     H81237   3.964   4.955  -0.138 -0.3636  0.0902  0.1677
  589MOL0     H81238   3.967   5.057  -0.363 -0.2742 -0.8720  0.2998
  589MOL0     H81239   3.911   5.209  -0.310  0.7672  0.7946  0.6197
  589MOL0     H81240   4.110   5.094  -0.527  2.0795  1.7878 -2.8097
  589MOL0     H81241   4.341   4.883  -0.696 -3.5607 -0.5149 -1.8609
  589MOL0     H81242   4.383   5.054  -0.723 -0.4996  0.6831  0.6554
  589MOL0     H81243   4.216   5.006  -0.719  0.8908 -0.6213 -2.7669
  589MOL0     H81244   4.838   4.871  -0.624 -0.6945 -0.0228  1.1140
  589MOL0     H81245   5.087   4.866  -0.596  0.8665  1.9959  0.4811
  589MOL0     H81246   5.301   5.072  -0.321  2.5107  0.6419  1.2931
  589MOL0     H81247   5.280   4.921  -0.221 -1.8538 -3.4653 -2.7797
  589MOL0     H81248   5.455   4.819  -0.374  1.0083  0.5525 -0.7494
  589MOL0     H81249   5.471   4.970  -0.448 -0.9310  1.2076  0.6599
  589MOL0     H81250   5.652   4.914  -0.290 -1.1392  0.0050 -1.9017
  589MOL0     H81251   5.541   4.880  -0.160  3.3738  0.5681  0.0323
  589MOL0     H81252   5.453   5.130  -0.179  0.7108  2.6718 -1.1686
  589MOL0     H81253   5.587   5.158  -0.289  3.0435  0.0777  1.5293
  589MOL0     H81254   5.757   5.111  -0.108  0.5853  1.1055  1.1808
  589MOL0     H81255   5.652   5.242  -0.079 -0.6727  0.1442  3.6774
  589MOL0     H81256   5.629   4.964   0.044  2.8608  0.6258  1.4907
  589MOL0     H81257   5.523   5.097   0.075 -0.6812 -2.0072 -1.2122
  589MOL0     H81258   5.696   5.219   0.174 -0.4193  0.3109 -2.1249
  589MOL0     H81259   5.816   5.093   0.121 -1.3431 -2.0083 -3.5338
  589MOL0     H81260   5.700   4.941   0.274  0.4463  0.2109  1.0472
  589MOL0     H81261   5.570   5.053   0.299  0.1606 -0.4149 -0.3102
  589MOL0     H81262   5.065   5.034  -0.216  0.2622 -1.9648 -0.5302
  589MOL0     H81263   4.818   5.048  -0.228 -2.1148 -1.0015 -0.6647
  589MOL0     H81264   4.529   5.070  -0.260  0.3788 -3.4195 -1.5598
  589MOL0     H81265   4.338   5.181  -0.179  3.3008 -0.1602  0.3744
  589MOL0     H81266   2.673   3.998   0.391  0.3338  0.2619 -2.8950
  589MOL0     H81267   2.462   3.932   0.520  0.2290 -1.1256  0.3276
  589MOL0     H81268   1.863   3.944   0.284  0.9286 -0.3700 -0.5187
  589MOL0     H81269   1.651   3.927   0.386 -0.6610  2.3801  1.3499
  589MOL0     H81270   1.665   3.735   0.772  1.8187  1.5752 -0.9972
  589MOL0     H81271   1.584   3.878   0.840 -0.3915  0.4343  0.1319
  589MOL0     H81272   1.478   3.638   0.814  1.6751  0.0229  0.5763
  589MOL0     H81273   1.432   3.693   0.652 -4.2134  0.6805  0.6029
  589MOL0     H81274   1.356   3.841   0.898  0.8108 -0.3617 -0.0047
  589MOL0     H81275   1.323   3.899   0.734 -0.3273 -0.2530 -0.0748
  589MOL0     H81276   1.247   3.629   0.821  0.7969  0.8217  2.0728
  589MOL0     H81277   1.179   3.719   0.678  0.0802  0.4629  0.0523
  589MOL0     H81278   0.933   3.908   0.963  0.4429 -0.5512  0.9566
  589MOL0     H81279   1.849   3.860   0.764 -4.4012  3.1893  0.4753
  589MOL0     H81280   2.112   3.775   0.725  0.1223 -0.2079 -0.0090
  589MOL0     H81281   2.186   3.921   0.663  0.2752 -0.4766 -0.4203
  589MOL0     H81282   2.068   3.921   0.796  3.6048 -3.0109  1.9612
  590MOL0     O81283   1.785   7.648   8.543 -0.7127 -0.2624 -0.3573
  590MOL0     C81284   1.731   7.603   8.641  0.4209  0.6710 -0.0784
  590MOL0     O81285   1.794   7.563   8.752  0.7378  0.3001  0.3064
  590MOL0     C81286   1.927   7.574   8.797  0.0688 -0.8158 -0.2319
  590MOL0     C81287   1.945   7.542   8.934  0.4052  0.2931 -0.3787
  590MOL0     C81288   2.075   7.538   9.002  0.5576 -0.3440 -0.9390
  590MOL0     C81289   2.187   7.575   8.920  0.7544 -0.3586 -0.7718
  590MOL0     O81290   2.318   7.574   8.963  0.2807  0.1866 -0.0947
  590MOL0     C81291   2.339   7.569   9.109 -0.1549 -0.5683  0.1070
  590MOL0     C81292   2.486   7.583   9.138  0.2877 -0.3285 -0.2215
  590MOL0     C81293   2.537   7.717   9.080  0.7061 -1.3451 -0.2523
  590MOL0     C81294   2.680   7.743   9.128  0.1233 -0.0479 -0.2130
  590MOL0     C81295   2.785   7.636   9.097  0.2319 -0.0432  0.1985
  590MOL0     C81296   2.864   7.672   8.973 -0.7304 -0.0179  0.0982
  590MOL0     C81297   2.941   7.552   8.920 -0.1020  0.3469 -0.4068
  590MOL0     C81298   3.060   7.588   8.844  0.9120 -0.1470  0.0762
  590MOL0     N81299   3.149   7.482   8.795 -0.1779 -0.5882  0.4420
  590MOL0     C81300   3.229   7.409   8.876  0.5280  0.9522 -0.3680
  590MOL0     C81301   3.313   7.348   8.791 -0.6035 -0.0124 -0.0676
  590MOL0     C81302   3.415   7.243   8.827  0.6208 -0.9807  0.8534
  590MOL0     C81303   3.374   7.139   8.928 -0.0858 -0.2239  0.4737
  590MOL0     C81304   3.253   7.052   8.870  0.0660 -0.5325 -0.1670
  590MOL0     C81305   3.261   6.908   8.919  0.3386 -1.0131  0.4505
  590MOL0     O81306   3.389   6.842   8.886 -0.8101 -0.4752  0.2256
  590MOL0     C81307   3.413   6.732   8.960  0.2376  0.2125 -0.1984
  590MOL0     C81308   3.324   6.624   8.962  0.4735 -0.2635 -0.0057
  590MOL0     C81309   3.334   6.526   9.059  0.1653 -0.3578  0.1099
  590MOL0     C81310   3.250   6.400   9.038  1.2188 -0.3514  1.1492
  590MOL0     C81311   3.428   6.534   9.166 -0.0842  0.0801 -0.0461
  590MOL0     C81312   3.440   6.438   9.270  0.0641 -0.0643 -1.4851
  590MOL0     O81313   3.328   6.367   9.314  0.0710  1.1137  0.2301
  590MOL0     C81314   3.361   6.258   9.396 -0.1037 -0.5262 -0.7001
  590MOL0     C81315   3.452   6.167   9.362  0.3614 -0.5530 -0.3364
  590MOL0     C81316   3.478   6.068   9.460  0.2541 -0.4146  0.5399
  590MOL0     C81317   3.430   6.071   9.590 -0.3319  0.2753 -0.5837
  590MOL0     O81318   3.478   5.983   9.679  0.6564 -0.0586 -1.1193
  590MOL0     C81319   3.424   5.941   9.807  0.2923 -0.3317 -0.0533
  590MOL0     C81320   3.484   5.808   9.856  0.7127 -0.4659 -0.3692
  590MOL0     C81321   3.578   5.811   9.979 -0.1773 -0.0749 -0.3602
  590MOL0     C81322   3.696   5.893   9.965  0.4457 -0.1525  0.0640
  590MOL0     C81323   3.804   5.874  10.070 -0.6225 -0.0357 -0.8441
  590MOL0     C81324   3.752   5.937  10.202  0.4672  0.2633  0.6195
  590MOL0     C81325   3.856   5.918  10.308  0.3085 -0.3969 -1.5512
  590MOL0     C81326   3.839   5.992  10.439  0.7272 -1.1827 -0.0418
  590MOL0    Cl81327   3.940   6.138  10.425 -0.1759 -0.1861 -0.3040
  590MOL0     C81328   3.348   6.172   9.624  0.2407 -0.7609 -0.2809
  590MOL0     C81329   3.305   6.267   9.526 -0.6188  0.6629 -0.1826
  590MOL0     O81330   3.552   6.432   9.314 -0.2022 -0.0494  0.2569
  590MOL0     C81331   3.519   6.640   9.163  0.4634 -0.5000 -0.2876
  590MOL0     C81332   3.509   6.743   9.063  0.1764  0.6627 -0.0384
  590MOL0     N81333   3.300   7.387   8.662 -0.1495  0.2320  0.1427
  590MOL0     N81334   3.197   7.468   8.664  0.2378  0.3638  0.3033
  590MOL0     C81335   2.163   7.617   8.784 -0.5565  0.0210 -0.7552
  590MOL0     C81336   2.034   7.616   8.727 -0.5579 -0.1133 -0.7823
  590MOL0     C81337   1.586   7.570   8.634  0.4703  0.4106  0.0717
  590MOL0     C81338   1.530   7.494   8.739 -1.2355  0.7762  0.4470
  590MOL0     C81339   1.393   7.452   8.749 -0.3164 -0.0389 -0.3097
  590MOL0     C81340   1.308   7.488   8.650 -0.2485 -1.4243 -0.0120
  590MOL0     O81341   1.175   7.470   8.645 -0.3256 -0.1000 -0.5390
  590MOL0     C81342   1.128   7.356   8.709 -0.0858  0.3017  0.2266
  590MOL0     C81343   0.979   7.348   8.699 -0.1706  0.9775  0.1157
  590MOL0     C81344   0.903   7.232   8.788 -0.3344 -0.2504  0.2206
  590MOL0     C81345   0.932   7.241   8.935 -0.4095 -0.0247  1.4985
  590MOL0     C81346   0.873   7.132   9.016  0.0152 -0.5974  1.7585
  590MOL0     C81347   0.815   7.053   9.089  0.5245 -0.0577  0.3808
  590MOL0     C81348   1.357   7.572   8.542  0.4398  0.4480 -0.1176
  590MOL0     C81349   1.492   7.607   8.531  0.0095  0.5347  0.4420
  590MOL0     C81350   1.530   7.679   8.414 -0.3947 -0.0449  0.5292
  590MOL0     H81351   1.862   7.515   9.000  1.1853  0.3700  0.6655
  590MOL0     H81352   2.085   7.505   9.105 -0.9729 -1.7448 -1.1993
  590MOL0     H81353   2.307   7.478   9.160 -1.9494 -0.2427 -0.3633
  590MOL0     H81354   2.290   7.656   9.153  0.6656  0.7058 -1.3653
  590MOL0     H81355   2.508   7.578   9.245  2.2645 -1.0273 -0.6033
  590MOL0     H81356   2.539   7.502   9.088 -0.3513  0.8877 -3.1045
  590MOL0     H81357   2.533   7.717   8.971  1.1561 -2.8592 -0.2925
  590MOL0     H81358   2.477   7.801   9.118 -0.4895 -1.2664 -2.1936
  590MOL0     H81359   2.724   7.837   9.092  0.5407  0.0550  0.5286
  590MOL0     H81360   2.683   7.761   9.236  4.4782  1.8724 -0.4260
  590MOL0     H81361   2.734   7.541   9.076  0.6155  0.2180 -2.2051
  590MOL0     H81362   2.853   7.627   9.182  1.0787  1.3767 -0.3039
  590MOL0     H81363   2.792   7.692   8.893 -0.9804 -0.5864  0.1786
  590MOL0     H81364   2.932   7.757   8.983  0.3389 -0.9344  0.9234
  590MOL0     H81365   2.884   7.478   8.863 -1.6359  0.5788  0.7621
  590MOL0     H81366   2.972   7.493   9.007  1.0418  0.2604 -0.8573
  590MOL0     H81367   3.015   7.627   8.753  3.0470  2.7502  0.1194
  590MOL0     H81368   3.120   7.659   8.901  2.5498 -1.3590 -0.0765
  590MOL0     H81369   3.233   7.398   8.984  1.5276 -4.1742 -0.6820
  590MOL0     H81370   3.506   7.295   8.860 -1.4019  4.5804 -1.0710
  590MOL0     H81371   3.451   7.198   8.734  0.2935  0.0894  0.1864
  590MOL0     H81372   3.459   7.074   8.951  2.1864  1.4089 -2.7064
  590MOL0     H81373   3.344   7.180   9.025  2.5257  0.4217  1.0887
  590MOL0     H81374   3.159   7.092   8.910 -0.3010 -1.8191  0.2959
  590MOL0     H81375   3.253   7.055   8.760 -0.8103  2.2068 -0.1652
  590MOL0     H81376   3.256   6.905   9.028 -1.5079  0.4884  0.4717
  590MOL0     H81377   3.184   6.845   8.872  0.7521 -1.1934  0.0037
  590MOL0     H81378   3.257   6.612   8.877  1.9419 -1.3187 -1.0695
  590MOL0     H81379   3.311   6.328   8.983 -1.7430 -2.2513  0.1503
  590MOL0     H81380   3.165   6.434   8.978  2.9298  1.7562 -0.2555
  590MOL0     H81381   3.206   6.356   9.128 -1.5031  1.3963  0.8135
  590MOL0     H81382   3.509   6.167   9.269  1.6296 -1.5546  0.4004
  590MOL0     H81383   3.549   5.990   9.435 -0.5766 -0.7538 -0.8503
  590MOL0     H81384   3.438   6.024   9.878 -0.7056  0.4867 -0.7783
  590MOL0     H81385   3.316   5.938   9.793  0.0335 -1.5767  1.8503
  590MOL0     H81386   3.400   5.739   9.863  0.3952 -0.0353  0.1951
  590MOL0     H81387   3.539   5.760   9.775 -0.7033 -2.3064 -0.3032
  590MOL0     H81388   3.614   5.708   9.991 -0.6456 -0.1882  0.0931
  590MOL0     H81389   3.513   5.826  10.066 -0.0984 -2.3591  0.1732
  590MOL0     H81390   3.659   5.996   9.966  0.0353 -0.1758 -2.7849
  590MOL0     H81391   3.738   5.877   9.865  1.6335  1.5535  0.2464
  590MOL0     H81392   3.827   5.769  10.088 -3.5037 -0.2313  3.0182
  590MOL0     H81393   3.895   5.931  10.048 -1.9753  3.1507  1.1004
  590MOL0     H81394   3.659   5.890  10.234 -0.9547  1.7301 -1.0887
  590MOL0     H81395   3.739   6.046  10.194 -2.5012 -0.1076 -1.2666
  590MOL0     H81396   3.952   5.949  10.264  1.7668  0.4887  1.9133
  590MOL0     H81397   3.863   5.812  10.335 -0.4584  0.1418  1.0501
  590MOL0     H81398   3.871   5.925  10.519 -1.0312 -5.0531 -2.2642
  590MOL0     H81399   3.737   6.014  10.472  1.3426  0.6502  0.7349
  590MOL0     H81400   3.311   6.165   9.726  1.9964 -2.1533  0.3024
  590MOL0     H81401   3.221   6.333   9.548  0.1061  1.7284 -0.4927
  590MOL0     H81402   3.594   6.663   9.239 -0.8708  0.5214  0.7672
  590MOL0     H81403   3.585   6.820   9.055  0.7416  0.0915 -0.2789
  590MOL0     H81404   2.246   7.630   8.716 -0.2046 -2.4040 -0.8775
  590MOL0     H81405   2.025   7.637   8.621  1.4074  1.7493 -0.6456
  590MOL0     H81406   1.596   7.465   8.819 -1.0556 -0.8705 -0.2523
  590MOL0     H81407   1.364   7.389   8.832 -1.1485  3.9099  2.7518
  590MOL0     H81408   1.178   7.273   8.658  3.4700  1.7106  1.0849
  590MOL0     H81409   1.160   7.366   8.814  1.5750  1.5050 -0.3533
  590MOL0     H81410   0.960   7.340   8.591  0.2988 -2.5316  0.1555
  590MOL0     H81411   0.936   7.443   8.730  0.6032  2.1630 -2.1524
  590MOL0     H81412   0.796   7.238   8.770  0.0531  0.0841 -2.4197
  590MOL0     H81413   0.936   7.136   8.748  0.4159  0.2975 -0.5066
  590MOL0     H81414   0.894   7.337   8.971  0.7694  0.1149  2.4381
  590MOL0     H81415   1.039   7.244   8.953 -0.6528  0.8541  2.9240
  590MOL0     H81416   0.763   6.987   9.154 -2.0035  3.6096  2.4466
  590MOL0     H81417   1.280   7.603   8.472  2.1240  0.1243 -2.2038
  590MOL0     H81418   1.589   7.608   8.355 -2.6284 -0.7168 -1.0243
  590MOL0     H81419   1.446   7.714   8.354 -0.7848  2.6649  2.5035
  590MOL0     H81420   1.583   7.771   8.440  2.0992 -0.7297 -1.7491
  591MOL0     O81421   5.935   6.531   5.508 -0.1299 -0.1482  0.2207
  591MOL0     C81422   5.927   6.421   5.449 -0.9128 -0.4507  0.2250
  591MOL0     O81423   6.019   6.313   5.463 -0.0458  0.4737 -0.2458
  591MOL0     C81424   6.140   6.314   5.531  0.5684 -0.3784  0.7124
  591MOL0     C81425   6.235   6.221   5.482  0.2952  0.1581  0.5198
  591MOL0     C81426   6.359   6.201   5.541  0.1717  0.9326 -0.4605
  591MOL0     C81427   6.386   6.264   5.658  0.3382 -0.0674 -0.2071
  591MOL0     O81428   6.502   6.224   5.709  0.1698  0.3910  0.0369
  591MOL0     C81429   6.570   6.306   5.814  0.5012 -0.0920  0.0168
  591MOL0     C81430   6.670   6.209   5.886  0.1926 -0.1644 -0.3614
  591MOL0     C81431   6.787   6.150   5.802 -0.5056 -0.0681 -0.1899
  591MOL0     C81432   6.855   6.238   5.707 -0.1513 -0.3552  0.0794
  591MOL0     C81433   6.950   6.344   5.778 -0.1289  0.2355 -0.3053
  591MOL0     C81434   7.004   6.439   5.667  0.8308  0.1825 -0.4601
  591MOL0     C81435   7.114   6.539   5.702  0.1881 -0.3340  0.2687
  591MOL0     C81436   7.245   6.485   5.757  0.5345  1.1700 -0.1479
  591MOL0     N81437   7.355   6.583   5.771  0.1583 -0.0826  0.1870
  591MOL0     C81438   7.342   6.700   5.845 -0.6543  0.9370 -0.2509
  591MOL0     C81439   7.457   6.767   5.813 -0.3018 -0.0247 -0.5236
  591MOL0     C81440   7.501   6.890   5.877  0.6472 -0.2854 -0.1103
  591MOL0     C81441   7.560   6.986   5.767  0.9855  0.2484 -0.5608
  591MOL0     C81442   7.597   7.126   5.813 -0.9521  0.2689  0.1996
  591MOL0     C81443   7.601   7.221   5.696 -0.4915 -0.3665  0.4207
  591MOL0     O81444   7.628   7.350   5.748 -0.6051 -0.1071 -0.1837
  591MOL0     C81445   7.757   7.389   5.769 -0.5191 -0.0336  0.1842
  591MOL0     C81446   7.784   7.520   5.810 -0.0251  0.1802  0.2777
  591MOL0     C81447   7.912   7.571   5.834  0.8346 -0.1766  0.5511
  591MOL0     C81448   7.916   7.726   5.839 -0.1335  0.6337  0.2420
  591MOL0     C81449   8.027   7.481   5.824 -0.4864  0.5869  0.3232
  591MOL0     C81450   8.171   7.536   5.839 -0.3031  1.4537  0.3180
  591MOL0     O81451   8.187   7.647   5.917  0.2510 -0.1504  1.2232
  591MOL0     C81452   8.292   7.734   5.903  0.2729  0.1700  0.0269
  591MOL0     C81453   8.277   7.867   5.867  0.2205  0.2281 -0.3544
  591MOL0     C81454   8.395   7.953   5.870  1.0560  0.2982  0.2619
  591MOL0     C81455   8.511   7.904   5.923  0.3476 -0.4869 -0.4107
  591MOL0     O81456   8.625   7.980   5.914 -0.1177  0.2320 -0.0512
  591MOL0     C81457   8.635   8.078   6.017 -0.1562  0.1475  0.0543
  591MOL0     C81458   8.756   8.060   6.106 -0.0338  0.1293  0.3071
  591MOL0     C81459   8.893   8.055   6.041 -0.8354  0.0068  0.5068
  591MOL0     C81460   8.947   8.193   5.984  0.1671  0.4803  0.7158
  591MOL0     C81461   9.073   8.177   5.899  0.8413  0.4048 -0.0056
  591MOL0     C81462   9.186   8.137   5.987  0.7810  0.0195 -0.0110
  591MOL0     C81463   9.325   8.144   5.914 -0.8970 -0.4119  0.1051
  591MOL0     C81464   9.442   8.112   6.009 -0.0937  0.5367  0.1386
  591MOL0    Cl81465   9.441   8.210   6.159  0.0403 -0.0149  0.0547
  591MOL0     C81466   8.516   7.772   5.973 -0.3134 -0.0940  0.3578
  591MOL0     C81467   8.410   7.690   5.967  0.5425 -0.1455  0.8827
  591MOL0     O81468   8.265   7.471   5.769  0.0638  0.2579 -0.5456
  591MOL0     C81469   8.004   7.348   5.785  0.1573 -0.8714  0.2179
  591MOL0     C81470   7.875   7.310   5.750  0.3367  0.4956 -0.0421
  591MOL0     N81471   7.530   6.689   5.720  0.4953  0.1995  0.1564
  591MOL0     N81472   7.462   6.576   5.697  0.2145 -0.2849 -0.5376
  591MOL0     C81473   6.290   6.354   5.719  0.0114  0.4462 -0.3849
  591MOL0     C81474   6.169   6.384   5.646  1.1486  0.5414 -0.0404
  591MOL0     C81475   5.800   6.399   5.370  0.5146  0.0470  0.9339
  591MOL0     C81476   5.782   6.280   5.303 -0.4452 -0.0230  0.3735
  591MOL0     C81477   5.669   6.262   5.227 -0.3243  0.3444 -0.7576
  591MOL0     C81478   5.556   6.350   5.219  0.1249 -0.0451  0.2717
  591MOL0     O81479   5.443   6.302   5.166  0.4582  0.2218  0.6570
  591MOL0     C81480   5.319   6.367   5.183  0.1106  0.5886  0.8441
  591MOL0     C81481   5.212   6.288   5.100 -0.2327 -0.7740 -0.0783
  591MOL0     C81482   5.070   6.346   5.140 -0.2052 -0.2560  0.7944
  591MOL0     C81483   4.961   6.294   5.051  0.1719  0.5436  0.9420
  591MOL0     C81484   4.830   6.332   5.107  0.1991 -0.5404 -0.5646
  591MOL0     C81485   4.717   6.367   5.147 -0.5278 -1.0558 -1.1320
  591MOL0     C81486   5.575   6.474   5.280  0.0089  0.2227  0.1719
  591MOL0     C81487   5.692   6.497   5.355 -0.2765 -0.4511 -0.4746
  591MOL0     C81488   5.699   6.641   5.425 -0.1793 -0.0671 -0.2114
  591MOL0     H81489   6.203   6.165   5.394 -4.6649  1.5823  1.0783
  591MOL0     H81490   6.428   6.130   5.497 -0.0502  0.3958  0.0381
  591MOL0     H81491   6.510   6.356   5.891  0.1168  2.8838 -2.0367
  591MOL0     H81492   6.619   6.391   5.765 -0.9680 -0.3174 -1.9465
  591MOL0     H81493   6.723   6.255   5.970  1.2950 -2.1661  0.1175
  591MOL0     H81494   6.608   6.129   5.927 -0.7053  0.9736  0.5522
  591MOL0     H81495   6.860   6.102   5.868  0.0578 -0.3254 -0.9868
  591MOL0     H81496   6.746   6.071   5.739  1.3523 -0.2686 -1.2380
  591MOL0     H81497   6.918   6.178   5.641 -0.8315 -2.9012  1.6363
  591MOL0     H81498   6.780   6.298   5.653 -0.9796 -1.3721  0.0778
  591MOL0     H81499   7.039   6.300   5.823 -1.2010  0.6695  2.4253
  591MOL0     H81500   6.901   6.409   5.851  3.2216  1.8055  0.7293
  591MOL0     H81501   7.037   6.379   5.582  0.5495 -0.0673 -0.3960
  591MOL0     H81502   6.912   6.495   5.645 -0.3356 -0.3338  2.5612
  591MOL0     H81503   7.075   6.610   5.775  0.0569 -0.7529  0.6158
  591MOL0     H81504   7.141   6.596   5.613  0.5267 -3.0198 -1.4745
  591MOL0     H81505   7.227   6.444   5.857  1.9684 -1.4095 -0.8466
  591MOL0     H81506   7.266   6.399   5.692 -0.2162  0.1788  0.8768
  591MOL0     H81507   7.263   6.733   5.912  0.0382 -0.1848  1.1822
  591MOL0     H81508   7.578   6.870   5.951 -1.5114  0.3003  2.4482
  591MOL0     H81509   7.423   6.933   5.940  2.9416  0.6133  2.3102
  591MOL0     H81510   7.642   6.932   5.720  0.6109  1.8779 -3.3323
  591MOL0     H81511   7.476   6.992   5.697  1.8987  0.7981 -1.6438
  591MOL0     H81512   7.533   7.148   5.899  1.7723 -0.9346  2.7082
  591MOL0     H81513   7.694   7.128   5.863 -2.0600  2.6300  2.5541
  591MOL0     H81514   7.667   7.189   5.615 -1.1681 -0.0080 -0.2907
  591MOL0     H81515   7.503   7.218   5.647 -0.1836  0.6672 -0.3010
  591MOL0     H81516   7.706   7.592   5.835  0.3813  0.7506 -0.0777
  591MOL0     H81517   7.940   7.757   5.941  0.7504  1.5118 -0.2193
  591MOL0     H81518   7.820   7.765   5.806 -0.8374 -1.8026 -0.7997
  591MOL0     H81519   7.990   7.765   5.769  0.7063 -0.3386  0.5531
  591MOL0     H81520   8.176   7.878   5.829  0.4734  1.6409 -0.6518
  591MOL0     H81521   8.383   8.056   5.837  1.7356 -0.3220 -2.1431
  591MOL0     H81522   8.653   8.178   5.976 -0.5362  1.2204  2.3656
  591MOL0     H81523   8.539   8.081   6.069 -0.4051 -0.0816 -0.3794
  591MOL0     H81524   8.751   8.140   6.181 -4.0540  1.1241 -0.7606
  591MOL0     H81525   8.744   7.967   6.163 -2.0740  1.5601  2.3944
  591MOL0     H81526   8.892   7.985   5.957  0.4590 -1.4869  1.6778
  591MOL0     H81527   8.963   8.026   6.120  1.1176 -1.5500 -1.6439
  591MOL0     H81528   8.973   8.269   6.059 -0.4566  1.1234  0.3004
  591MOL0     H81529   8.865   8.232   5.923 -0.7473 -0.7574  1.1252
  591MOL0     H81530   9.052   8.105   5.820 -0.6754  0.2113  0.5368
  591MOL0     H81531   9.080   8.275   5.850 -2.6601  0.5186 -0.5023
  591MOL0     H81532   9.160   8.039   6.028 -0.7976  0.5253  0.2371
  591MOL0     H81533   9.196   8.201   6.075 -0.7744 -2.2271  1.9582
  591MOL0     H81534   9.334   8.248   5.883  3.0369 -0.2433  1.2597
  591MOL0     H81535   9.323   8.072   5.832 -0.0538 -1.0897  0.6569
  591MOL0     H81536   9.538   8.123   5.958  0.1366  0.0023  0.4478
  591MOL0     H81537   9.434   8.010   6.048 -2.0304  1.4931  2.5312
  591MOL0     H81538   8.610   7.731   6.009  0.2571 -0.1155 -1.0909
  591MOL0     H81539   8.412   7.592   6.013 -0.4927 -0.3060  0.5993
  591MOL0     H81540   8.093   7.286   5.778  0.7046 -0.0130 -0.6642
  591MOL0     H81541   7.867   7.205   5.724 -2.9037  0.1311  1.8145
  591MOL0     H81542   6.305   6.395   5.818 -0.0787 -0.4141 -0.0061
  591MOL0     H81543   6.096   6.452   5.688 -1.1999 -1.4932 -0.5941
  591MOL0     H81544   5.856   6.200   5.306 -0.3740 -0.2504 -3.0594
  591MOL0     H81545   5.651   6.166   5.180 -0.5832  1.4378 -3.0282
  591MOL0     H81546   5.298   6.358   5.290  0.5983 -0.4447  0.8692
  591MOL0     H81547   5.323   6.471   5.152 -2.1330  0.5391  0.2605
  591MOL0     H81548   5.219   6.183   5.129 -2.5515 -0.8662  0.3006
  591MOL0     H81549   5.237   6.303   4.994 -3.6603  1.1560 -0.7529
  591MOL0     H81550   5.055   6.314   5.244 -2.2555  0.4763  0.7735
  591MOL0     H81551   5.077   6.455   5.132 -0.7544 -0.3196 -0.9606
  591MOL0     H81552   4.974   6.185   5.048  0.8465  0.5421  2.7166
  591MOL0     H81553   4.974   6.330   4.949  3.0791 -0.6248  0.8026
  591MOL0     H81554   4.620   6.386   5.188  0.0250 -1.1581  0.2850
  591MOL0     H81555   5.493   6.542   5.262 -2.8980 -3.3497 -1.1865
  591MOL0     H81556   5.766   6.707   5.369  0.9622  0.3843  1.6139
  591MOL0     H81557   5.602   6.691   5.431 -0.1939 -0.0010 -0.8819
  591MOL0     H81558   5.734   6.646   5.528  0.7510 -1.6573 -0.4128
  592MOL0     O81559   6.101   6.386  10.411 -0.5598  0.0501 -0.3878
  592MOL0     C81560   6.073   6.492  10.352 -0.2717 -0.0683  0.0206
  592MOL0     O81561   6.120   6.536  10.235 -0.3157  0.4639 -0.3087
  592MOL0     C81562   6.217   6.474  10.160  0.0157 -0.1906  0.1743
  592MOL0     C81563   6.263   6.551  10.045 -0.5400  0.1380 -0.1621
  592MOL0     C81564   6.361   6.496   9.961 -0.7615  0.3044 -0.4213
  592MOL0     C81565   6.412   6.375   9.985 -0.1979  0.0031  0.1365
  592MOL0     O81566   6.501   6.328   9.892 -0.3904 -0.1431  0.9002
  592MOL0     C81567   6.444   6.226   9.813  0.1578 -0.4050  0.9224
  592MOL0     C81568   6.542   6.174   9.698  0.1752 -0.4312 -0.5161
  592MOL0     C81569   6.687   6.168   9.742 -0.1734 -0.1665 -0.7034
  592MOL0     C81570   6.713   6.082   9.868  0.4332  0.5893  0.6928
  592MOL0     C81571   6.867   6.067   9.876 -0.3810 -0.2374  0.7291
  592MOL0     C81572   6.950   6.202   9.875 -0.1771  0.3102  0.8936
  592MOL0     C81573   6.914   6.323   9.964  0.7185 -0.0163  0.0163
  592MOL0     C81574   6.929   6.292  10.114 -0.4972 -0.8604 -0.2202
  592MOL0     N81575   7.065   6.252  10.158 -0.6620  0.6362 -0.0605
  592MOL0     C81576   7.106   6.124  10.179  0.8318 -0.1401  0.2718
  592MOL0     C81577   7.230   6.122  10.242 -0.8956 -0.5962  0.8543
  592MOL0     C81578   7.313   6.009  10.285 -0.4128 -0.4925 -0.2401
  592MOL0     C81579   7.437   6.044  10.367 -0.2720  0.2578  0.1953
  592MOL0     C81580   7.545   5.934  10.383 -0.2965 -0.8950  0.4308
  592MOL0     C81581   7.620   5.906  10.250 -0.0860 -0.0491 -0.7596
  592MOL0     O81582   7.741   5.838  10.294  0.5520 -0.3206  1.1982
  592MOL0     C81583   7.837   5.815  10.200  0.4379 -0.4814 -0.1260
  592MOL0     C81584   7.819   5.831  10.059  0.2817 -0.3105  0.3468
  592MOL0     C81585   7.921   5.798   9.969  0.2068 -0.5305  0.4911
  592MOL0     C81586   7.889   5.820   9.823 -0.4187 -0.0862 -0.3524
  592MOL0     C81587   8.043   5.754  10.018 -0.5596  0.1783  0.0335
  592MOL0     C81588   8.160   5.709   9.933  1.0906 -0.4455 -0.9602
  592MOL0     O81589   8.260   5.650  10.008 -0.0558 -0.2954  0.4125
  592MOL0     C81590   8.392   5.637   9.964  0.5106 -1.0719  0.0764
  592MOL0     C81591   8.475   5.544  10.024  0.8448 -1.0325  0.2314
  592MOL0     C81592   8.612   5.527   9.981  0.9322 -0.3107 -0.4813
  592MOL0     C81593   8.669   5.625   9.902  0.5561 -0.2162  0.3289
  592MOL0     O81594   8.803   5.644   9.887 -0.6272 -0.2406 -0.3238
  592MOL0     C81595   8.881   5.591   9.996  0.3296  0.6578 -0.4320
  592MOL0     C81596   9.026   5.638   9.988 -0.2040 -0.5378  0.1608
  592MOL0     C81597   9.027   5.789   9.990 -0.5741  0.6925  0.4551
  592MOL0     C81598   9.169   5.835  10.036  0.4316 -0.0337  0.2696
  592MOL0     C81599   9.174   5.989  10.052 -0.3199  0.0577 -0.7000
  592MOL0     C81600   9.335   6.019  10.064 -0.0271 -0.5572 -0.5731
  592MOL0     C81601   9.343   6.171  10.050 -0.1065 -0.5891  1.0462
  592MOL0     C81602   9.483   6.210  10.013  0.5047 -0.7307 -0.5345
  592MOL0    Cl81603   9.466   6.382  10.053  0.0012 -0.1933  0.0946
  592MOL0     C81604   8.584   5.725   9.840  0.5213 -0.4579  0.5830
  592MOL0     C81605   8.449   5.724   9.862 -0.4690  0.5595  0.0645
  592MOL0     O81606   8.164   5.714   9.812 -0.4465 -0.1055  0.2904
  592MOL0     C81607   8.061   5.743  10.161 -0.1141 -0.1260  0.3816
  592MOL0     C81608   7.960   5.778  10.247  0.7772 -0.0692 -0.5885
  592MOL0     N81609   7.266   6.263  10.240  0.3744  0.0077 -0.2693
  592MOL0     N81610   7.170   6.337  10.198 -0.1103  0.4952  0.3386
  592MOL0     C81611   6.370   6.293  10.093  0.3797 -0.1053 -0.1253
  592MOL0     C81612   6.278   6.345  10.178 -0.3181 -1.1806 -0.0928
  592MOL0     C81613   5.971   6.574  10.417  0.6682  0.7277  0.3779
  592MOL0     C81614   5.889   6.509  10.513  1.0943 -0.2194  1.1653
  592MOL0     C81615   5.791   6.585  10.584  1.2651  0.0372  1.3749
  592MOL0     C81616   5.761   6.716  10.551 -0.1238  0.2421  0.5110
  592MOL0     O81617   5.651   6.773  10.616 -0.6122  0.1122 -0.4799
  592MOL0     C81618   5.595   6.894  10.569 -0.5880  0.0058 -0.3624
  592MOL0     C81619   5.489   6.953  10.669 -0.2140  0.2960 -0.3819
  592MOL0     C81620   5.350   6.885  10.639 -0.5963  0.0870 -0.1727
  592MOL0     C81621   5.237   6.908  10.753 -0.0558 -0.2428  0.1973
  592MOL0     C81622   5.103   6.882  10.699 -0.3240 -0.1429 -0.3680
  592MOL0     C81623   5.007   6.833  10.653 -0.1011  0.4906  0.0170
  592MOL0     C81624   5.836   6.781  10.457  0.1818  0.1573  0.2349
  592MOL0     C81625   5.939   6.707  10.390 -0.4977  0.4112 -0.2064
  592MOL0     C81626   6.018   6.794  10.300 -0.5446 -0.2530 -0.5944
  592MOL0     H81627   6.217   6.648  10.029  1.1404  0.7430 -1.8107
  592MOL0     H81628   6.394   6.557   9.878 -2.1831 -0.3521 -1.5063
  592MOL0     H81629   6.351   6.259   9.765  1.8041 -0.5326 -2.6873
  592MOL0     H81630   6.408   6.136   9.864 -1.1595 -0.9836 -0.9143
  592MOL0     H81631   6.503   6.079   9.662 -0.6141 -0.1069 -0.5252
  592MOL0     H81632   6.533   6.255   9.625  1.9238  3.5736  3.2425
  592MOL0     H81633   6.739   6.131   9.653  1.5582  0.2785  0.0806
  592MOL0     H81634   6.717   6.269   9.771  1.6180 -1.3206  1.8187
  592MOL0     H81635   6.675   6.127   9.960 -1.2075  0.8143 -0.0558
  592MOL0     H81636   6.670   5.982   9.860  1.6438  0.1535 -0.7416
  592MOL0     H81637   6.904   6.000   9.798 -3.0423 -2.0271  0.8546
  592MOL0     H81638   6.883   6.015   9.971 -2.9395  0.5175  1.6671
  592MOL0     H81639   7.055   6.175   9.888 -0.0663  0.6540  0.7198
  592MOL0     H81640   6.950   6.231   9.770 -1.4218 -3.2560 -0.2556
  592MOL0     H81641   6.817   6.367   9.937  0.7836 -0.0314 -0.2396
  592MOL0     H81642   6.979   6.406   9.934  0.7679  0.4894  1.4312
  592MOL0     H81643   6.908   6.378  10.179 -0.1005 -1.4679  0.7394
  592MOL0     H81644   6.862   6.210  10.142 -0.2834 -0.1343  2.7804
  592MOL0     H81645   7.056   6.029  10.165 -0.6276  0.7600 -0.8369
  592MOL0     H81646   7.352   5.953  10.199  1.2422  1.6513 -0.9599
  592MOL0     H81647   7.247   5.953  10.352  0.0102 -2.4673 -1.3934
  592MOL0     H81648   7.483   6.131  10.320  1.0670 -0.2607  0.5196
  592MOL0     H81649   7.406   6.080  10.466 -2.8621  3.7142 -1.6400
  592MOL0     H81650   7.615   5.979  10.454  0.5821 -0.8882 -0.4210
  592MOL0     H81651   7.494   5.845  10.420  0.0775 -1.6834 -0.8793
  592MOL0     H81652   7.553   5.845  10.188 -0.8220 -1.7668  1.5842
  592MOL0     H81653   7.640   6.002  10.202 -0.7442  0.3910 -0.1750
  592MOL0     H81654   7.727   5.876  10.022  0.0640 -1.9069 -1.1723
  592MOL0     H81655   7.794   5.870   9.804 -0.5436  0.2569  1.0905
  592MOL0     H81656   7.902   5.730   9.761  1.6515 -0.5424  0.6584
  592MOL0     H81657   7.960   5.890   9.780  0.3630 -0.2486  0.6451
  592MOL0     H81658   8.422   5.491  10.103 -0.8120  3.8897  2.8227
  592MOL0     H81659   8.669   5.449  10.029 -1.5017 -1.1254  1.2922
  592MOL0     H81660   8.838   5.619  10.093 -1.9000 -2.7152 -0.2946
  592MOL0     H81661   8.880   5.482  10.001 -0.0755  0.7106  1.9969
  592MOL0     H81662   9.075   5.611  10.081  1.2977  0.8125 -0.1743
  592MOL0     H81663   9.084   5.599   9.903  2.6079  1.6454  0.9011
  592MOL0     H81664   8.955   5.816  10.067 -1.9534 -2.7559  0.5483
  592MOL0     H81665   8.998   5.825   9.891  2.1991 -0.8366 -1.0393
  592MOL0     H81666   9.240   5.797   9.962  1.3757  1.0132  0.6165
  592MOL0     H81667   9.179   5.784  10.133 -3.4344 -1.3534  0.1766
  592MOL0     H81668   9.134   6.035   9.961 -2.0055 -1.4697 -0.7799
  592MOL0     H81669   9.119   6.030  10.138  0.8002  0.3937 -0.1186
  592MOL0     H81670   9.397   5.960   9.996  0.4924 -2.7193  1.6522
  592MOL0     H81671   9.368   5.984  10.162 -1.5366 -0.5723 -0.0506
  592MOL0     H81672   9.312   6.216  10.144 -0.4951  0.8022  0.2722
  592MOL0     H81673   9.281   6.205   9.967 -0.1902 -1.2040  0.8482
  592MOL0     H81674   9.505   6.206   9.905 -1.8741  1.5801 -1.2026
  592MOL0     H81675   9.546   6.153  10.081 -0.8210 -0.8521  0.6195
  592MOL0     H81676   8.616   5.800   9.768  0.6326  0.5260  1.6378
  592MOL0     H81677   8.384   5.792   9.808 -2.0089 -0.8343  0.0853
  592MOL0     H81678   8.155   5.707  10.200 -1.5137 -0.8367  3.4517
  592MOL0     H81679   7.971   5.770  10.355  2.1507 -0.3052 -0.7306
  592MOL0     H81680   6.404   6.193  10.117 -0.0068 -0.3474 -0.5746
  592MOL0     H81681   6.244   6.271  10.250 -2.5345 -2.1750 -2.0052
  592MOL0     H81682   5.897   6.404  10.537  1.4167 -0.6850 -0.7878
  592MOL0     H81683   5.744   6.540  10.670 -0.6595 -0.6342  0.0540
  592MOL0     H81684   5.683   6.959  10.564  1.8112 -2.4308  3.7703
  592MOL0     H81685   5.564   6.896  10.464  2.7033  0.8347 -1.4525
  592MOL0     H81686   5.486   7.062  10.659 -2.7875  0.1036 -2.9594
  592MOL0     H81687   5.523   6.925  10.770  4.2135 -1.5237 -2.1394
  592MOL0     H81688   5.325   6.928  10.542  2.7838  0.2050 -1.1077
  592MOL0     H81689   5.362   6.777  10.625 -2.3527 -0.1294 -0.1746
  592MOL0     H81690   5.243   7.016  10.773  1.3885 -0.4202  0.7982
  592MOL0     H81691   5.257   6.848  10.842 -1.4423  2.0798  2.2375
  592MOL0     H81692   4.913   6.791  10.621  1.2058 -5.0433  2.2293
  592MOL0     H81693   5.811   6.880  10.420  0.9824 -1.1513 -4.4106
  592MOL0     H81694   5.983   6.897  10.288 -1.5687 -0.5113  0.0359
  592MOL0     H81695   6.121   6.815  10.329  0.3184 -1.3250 -2.6970
  592MOL0     H81696   6.039   6.751  10.202  1.1907  2.1778 -1.4019
  593MOL0     O81697   7.978   7.266  11.358 -0.3898  0.6844 -0.3613
  593MOL0     C81698   7.949   7.150  11.403  0.1013 -1.4603 -0.0819
  593MOL0     O81699   8.036   7.054  11.425 -0.0541 -0.7341  0.0182
  593MOL0     C81700   8.172   7.082  11.438  0.0136 -0.0418 -0.3358
  593MOL0     C81701   8.235   7.011  11.535 -0.1533 -0.4442  0.2471
  593MOL0     C81702   8.370   7.038  11.574  0.0728  0.1582 -0.1862
  593MOL0     C81703   8.447   7.123  11.494 -0.1394  0.3306  0.3775
  593MOL0     O81704   8.573   7.144  11.542  0.4703  0.2775 -0.3798
  593MOL0     C81705   8.659   7.234  11.461  0.2587  0.1219 -0.1029
  593MOL0     C81706   8.796   7.254  11.532  0.1747 -0.1254 -0.1072
  593MOL0     C81707   8.861   7.120  11.566  0.1776 -0.0342 -0.0580
  593MOL0     C81708   9.009   7.125  11.599 -0.1793  1.0677  0.0787
  593MOL0     C81709   9.087   7.161  11.472 -0.9711  0.5195 -0.2483
  593MOL0     C81710   9.240   7.180  11.510  0.1860  0.0265 -0.2859
  593MOL0     C81711   9.314   7.213  11.379  0.4497  1.0406  0.1313
  593MOL0     C81712   9.464   7.233  11.394  0.5095  0.3856  0.1360
  593MOL0     N81713   9.543   7.122  11.444  0.4199 -0.1607  0.2777
  593MOL0     C81714   9.549   7.000  11.373 -0.4183 -0.4009 -1.2325
  593MOL0     C81715   9.654   6.936  11.433  0.7091 -0.8122 -0.4902
  593MOL0     C81716   9.707   6.804  11.379 -0.7691 -0.6809  0.5240
  593MOL0     C81717   9.806   6.829  11.258 -0.3124 -0.2336  0.1200
  593MOL0     C81718   9.933   6.915  11.287 -0.5317 -0.0805  0.2669
  593MOL0     C81719  10.028   6.859  11.397  0.6053 -0.0848 -0.7667
  593MOL0     O81720  10.152   6.931  11.390 -0.3681  0.2607 -0.3860
  593MOL0     C81721  10.265   6.878  11.327  0.4874 -0.1696 -0.0998
  593MOL0     C81722  10.381   6.952  11.342  0.1434  0.3222  0.1440
  593MOL0     C81723  10.508   6.909  11.291  0.0721  0.1421  0.0866
  593MOL0     C81724  10.635   7.000  11.313  0.8227 -0.3695 -0.4275
  593MOL0     C81725  10.511   6.794  11.214 -0.1621 -0.4425 -0.4216
  593MOL0     C81726  10.637   6.736  11.155  0.1036  0.0333 -0.0549
  593MOL0     O81727  10.737   6.824  11.118  1.2423  0.0670  0.0672
  593MOL0     C81728  10.831   6.788  11.028  0.5271  1.0792  0.3484
  593MOL0     C81729  10.951   6.851  11.053  0.1337  0.1673  0.1546
  593MOL0     C81730  11.053   6.823  10.962 -0.3784 -0.6694  0.4439
  593MOL0     C81731  11.044   6.730  10.857  0.4448  0.4785  0.2300
  593MOL0     O81732  11.148   6.701  10.772 -0.2160  0.0532 -0.0040
  593MOL0     C81733  11.277   6.678  10.828  0.4986 -0.7876  0.0001
  593MOL0     C81734  11.357   6.597  10.732 -0.4726 -0.4888  0.3669
  593MOL0     C81735  11.503   6.591  10.796  0.4167  0.3568 -0.1790
  593MOL0     C81736  11.614   6.511  10.725  0.4639 -0.1859  0.2398
  593MOL0     C81737  11.755   6.525  10.805  0.0075 -0.2846 -0.3736
  593MOL0     C81738  11.849   6.422  10.746 -0.3555 -0.6082 -0.2230
  593MOL0     C81739  11.910   6.469  10.615  0.1902  0.5641  0.6457
  593MOL0     C81740  12.023   6.372  10.563  0.1877 -0.2239  0.3353
  593MOL0    Cl81741  12.143   6.356  10.690 -0.1621 -0.3306 -0.1120
  593MOL0     C81742  10.921   6.674  10.827 -0.6900 -0.1444 -0.0089
  593MOL0     C81743  10.811   6.702  10.915 -0.0052 -0.8533 -0.0128
  593MOL0     O81744  10.640   6.615  11.148 -0.0872  0.3219  0.9179
  593MOL0     C81745  10.393   6.726  11.187  1.1535  0.0567 -0.2312
  593MOL0     C81746  10.265   6.772  11.235  0.1189 -1.2808  0.4448
  593MOL0     N81747   9.716   7.025  11.519 -0.1630  0.0371  0.4346
  593MOL0     N81748   9.651   7.140  11.525  0.4992 -0.0280  0.4516
  593MOL0     C81749   8.389   7.170  11.371 -0.5160 -0.4222 -0.1735
  593MOL0     C81750   8.250   7.158  11.350 -0.1358  0.1743 -0.3697
  593MOL0     C81751   7.815   7.120  11.429  0.5835 -0.1793 -0.6627
  593MOL0     C81752   7.717   7.210  11.384 -0.5240  0.3107 -0.1542
  593MOL0     C81753   7.584   7.179  11.411 -0.2488 -0.2053 -0.4946
  593MOL0     C81754   7.544   7.067  11.490 -0.5930 -0.2919 -0.4212
  593MOL0     O81755   7.407   7.027  11.508 -0.4673 -0.2344  0.4026
  593MOL0     C81756   7.310   7.137  11.511  0.6667 -0.1060 -0.2077
  593MOL0     C81757   7.226   7.155  11.384 -0.5516  0.1754  0.5274
  593MOL0     C81758   7.129   7.043  11.365 -0.5452  0.4080 -0.4387
  593MOL0     C81759   7.042   7.049  11.239  0.0070 -0.1328  0.4455
  593MOL0     C81760   6.956   7.166  11.241 -0.3031  0.5651  0.7516
  593MOL0     C81761   6.894   7.269  11.238 -0.3071 -0.2313  0.2104
  593MOL0     C81762   7.640   6.986  11.538  0.1386 -0.1956 -0.3688
  593MOL0     C81763   7.773   7.004  11.510  0.2324 -0.1417 -0.2879
  593MOL0     C81764   7.862   6.903  11.562 -0.3566  0.4367  0.0106
  593MOL0     H81765   8.163   6.948  11.587  1.4565 -0.1971  2.9700
  593MOL0     H81766   8.408   6.990  11.664 -3.0490  1.0099  1.7589
  593MOL0     H81767   8.603   7.328  11.452 -0.2127  0.0424  1.5924
  593MOL0     H81768   8.673   7.177  11.368  3.0411 -1.8196  1.3762
  593MOL0     H81769   8.856   7.321  11.470  0.2706  2.2634  2.3610
  593MOL0     H81770   8.788   7.311  11.625  1.6877 -1.0275  0.6233
  593MOL0     H81771   8.802   7.084  11.651 -1.6796  0.7781 -0.9378
  593MOL0     H81772   8.840   7.052  11.483 -0.6462  0.1808 -0.0311
  593MOL0     H81773   9.031   7.187  11.686 -0.8535  1.2735  0.1086
  593MOL0     H81774   9.042   7.025  11.627  3.3024  1.8022 -0.9520
  593MOL0     H81775   9.053   7.252  11.422  1.7470  1.6265 -0.2205
  593MOL0     H81776   9.072   7.079  11.401 -2.1467  1.4420 -1.1054
  593MOL0     H81777   9.243   7.257  11.588  3.4107 -1.1568  0.9179
  593MOL0     H81778   9.298   7.097  11.550  1.5781  0.6006 -1.0679
  593MOL0     H81779   9.276   7.307  11.337  1.3175 -0.0524 -3.4779
  593MOL0     H81780   9.296   7.139  11.301  2.1167  0.6021  0.1307
  593MOL0     H81781   9.498   7.258  11.293  1.5759 -0.8429  0.1656
  593MOL0     H81782   9.478   7.322  11.456  2.6693 -1.2178  2.1486
  593MOL0     H81783   9.492   6.970  11.286 -2.5780 -0.6301  0.1857
  593MOL0     H81784   9.620   6.743  11.351 -1.7676  1.1368 -0.5369
  593MOL0     H81785   9.769   6.749  11.451  0.5792  1.9324  1.4650
  593MOL0     H81786   9.846   6.732  11.228 -0.0281 -0.3450  0.8332
  593MOL0     H81787   9.746   6.870  11.176 -1.3053 -2.6878 -0.4825
  593MOL0     H81788   9.980   6.927  11.189 -2.3397  0.2406 -0.6133
  593MOL0     H81789   9.898   7.017  11.305 -0.4865  0.2699 -1.4924
  593MOL0     H81790   9.981   6.866  11.495  0.4330  0.3923 -0.8827
  593MOL0     H81791  10.047   6.753  11.375  1.4174  0.0657 -0.7994
  593MOL0     H81792  10.379   7.045  11.397  0.7837 -0.7743  2.1132
  593MOL0     H81793  10.616   7.072  11.393  0.4116  0.7883 -1.5474
  593MOL0     H81794  10.665   7.046  11.219  0.7209  1.4259  0.3850
  593MOL0     H81795  10.711   6.933  11.354 -1.4445 -2.9992 -0.1428
  593MOL0     H81796  10.970   6.915  11.140  0.6378 -1.8390  1.6031
  593MOL0     H81797  11.152   6.867  10.964 -0.4764  0.1641 -3.8404
  593MOL0     H81798  11.322   6.777  10.844 -0.3545 -0.7271  2.4104
  593MOL0     H81799  11.279   6.640  10.930  0.9294  0.4622  0.4784
  593MOL0     H81800  11.318   6.497  10.712  0.1283 -0.6388 -0.0803
  593MOL0     H81801  11.368   6.647  10.635  3.1400 -2.5225 -0.4593
  593MOL0     H81802  11.501   6.536  10.891 -1.3167  0.7617  0.0535
  593MOL0     H81803  11.539   6.692  10.819 -3.0417  2.5103 -3.0339
  593MOL0     H81804  11.632   6.560  10.629  2.6655 -0.0651  0.6586
  593MOL0     H81805  11.574   6.411  10.702 -1.6944  0.9645 -1.3566
  593MOL0     H81806  11.790   6.628  10.802 -0.6265 -0.0781 -1.0251
  593MOL0     H81807  11.751   6.500  10.911  0.3659  2.1057  0.2488
  593MOL0     H81808  11.794   6.328  10.743  0.8772 -1.3473 -0.3188
  593MOL0     H81809  11.928   6.412  10.821 -1.0404 -0.3396  0.5484
  593MOL0     H81810  11.944   6.572  10.617  1.0144  0.8413 -5.9719
  593MOL0     H81811  11.833   6.474  10.537  0.1077  2.5112  0.8125
  593MOL0     H81812  12.060   6.421  10.472 -0.0736 -1.4215 -0.4283
  593MOL0     H81813  11.980   6.273  10.548  1.8190 -0.9838  0.5022
  593MOL0     H81814  10.898   6.615  10.739  1.1596 -0.3231 -0.4016
  593MOL0     H81815  10.710   6.671  10.889  0.7097 -2.5643 -0.9533
  593MOL0     H81816  10.397   6.637  11.126 -3.1223 -0.6783  0.2228
  593MOL0     H81817  10.171   6.726  11.208  0.2230 -1.0943 -0.2570
  593MOL0     H81818   8.450   7.235  11.310 -2.1216  0.5180 -0.8448
  593MOL0     H81819   8.202   7.211  11.268  0.2385  1.7470  0.3843
  593MOL0     H81820   7.736   7.305  11.334  0.3829  1.0635  1.5216
  593MOL0     H81821   7.505   7.238  11.366  1.1110  0.7733 -1.6752
  593MOL0     H81822   7.236   7.119  11.590 -1.2510  2.3700 -1.3115
  593MOL0     H81823   7.355   7.227  11.554 -2.5998  0.5207  2.3106
  593MOL0     H81824   7.294   7.163  11.298  0.6150  2.7730  1.5892
  593MOL0     H81825   7.178   7.251  11.403  0.0966  0.5426  0.3480
  593MOL0     H81826   7.185   6.950  11.350  1.2019  1.4810 -0.7842
  593MOL0     H81827   7.065   7.029  11.453 -0.4926 -1.5112 -0.6560
  593MOL0     H81828   6.984   6.957  11.225 -1.8297  1.2049 -1.4528
  593MOL0     H81829   7.103   7.049  11.148 -0.7439 -0.2992 -0.0743
  593MOL0     H81830   6.853   7.368  11.235 -1.4093 -0.6920 -1.9151
  593MOL0     H81831   7.611   6.896  11.592  1.3780 -0.6645 -0.4634
  593MOL0     H81832   7.933   6.947  11.633 -0.2788  0.4208 -0.0573
  593MOL0     H81833   7.809   6.815  11.599 -0.9391  0.3369 -1.0485
  593MOL0     H81834   7.916   6.853  11.481 -1.5157 -0.9006  0.0230
  594MOL0     O81835   6.960   1.315  10.599  0.0401  0.3111  0.0602
  594MOL0     C81836   6.993   1.396  10.512 -0.3903 -0.2397 -0.6498
  594MOL0     O81837   6.909   1.461  10.433 -0.6946  0.8430  0.4545
  594MOL0     C81838   6.782   1.413  10.420  0.1488 -0.1104  0.2316
  594MOL0     C81839   6.682   1.497  10.460  0.1276 -0.8356  0.6069
  594MOL0     C81840   6.549   1.463  10.447  1.1794  0.4240 -0.1016
  594MOL0     C81841   6.509   1.337  10.401 -0.3073  0.0116  0.3854
  594MOL0     O81842   6.379   1.284  10.414  0.5520  0.3163  0.0873
  594MOL0     C81843   6.295   1.329  10.521 -0.0099 -0.3873  0.8307
  594MOL0     C81844   6.171   1.393  10.451 -0.2412 -0.3184 -0.1212
  594MOL0     C81845   6.108   1.494  10.548  0.3755  0.4553 -0.3773
  594MOL0     C81846   6.038   1.404  10.662  1.2021  0.1528  0.1374
  594MOL0     C81847   5.940   1.471  10.753 -0.3167 -0.3115  0.7058
  594MOL0     C81848   5.871   1.370  10.846  0.7571  0.0334 -0.3559
  594MOL0     C81849   5.791   1.450  10.955 -0.4023  0.0722 -0.1427
  594MOL0     C81850   5.738   1.356  11.070 -0.0588  0.2099  0.9303
  594MOL0     N81851   5.660   1.429  11.175  0.6721  0.6477  0.5816
  594MOL0     C81852   5.574   1.539  11.169  0.3125  0.3567  0.1299
  594MOL0     C81853   5.529   1.562  11.292 -0.3734  0.3444 -0.2259
  594MOL0     C81854   5.435   1.681  11.320  0.1787  0.0244  0.3207
  594MOL0     C81855   5.453   1.744  11.455 -0.7515 -0.9142 -0.2509
  594MOL0     C81856   5.562   1.856  11.455  0.6917  0.1445  0.4433
  594MOL0     C81857   5.702   1.805  11.426 -0.5871 -0.3495 -0.0965
  594MOL0     O81858   5.799   1.911  11.421  0.7745 -0.5388  0.0932
  594MOL0     C81859   5.926   1.883  11.427 -0.8592 -0.2198 -0.1319
  594MOL0     C81860   5.976   1.754  11.398  0.0466 -0.6203  0.1492
  594MOL0     C81861   6.118   1.736  11.399 -0.0600 -0.0937  0.3821
  594MOL0     C81862   6.165   1.599  11.361 -0.1790  0.1191  0.0246
  594MOL0     C81863   6.199   1.843  11.433 -1.1371 -0.2731  0.3845
  594MOL0     C81864   6.347   1.826  11.415  0.3957  0.1219  0.0936
  594MOL0     O81865   6.400   1.843  11.293  0.1278 -0.1225  0.4205
  594MOL0     C81866   6.534   1.855  11.280  0.0957  0.9977  0.6453
  594MOL0     C81867   6.608   1.761  11.211 -0.1102 -0.2047  0.8352
  594MOL0     C81868   6.749   1.768  11.203 -0.2804 -0.7071  1.0686
  594MOL0     C81869   6.821   1.875  11.256 -0.1047 -1.0473 -0.0527
  594MOL0     O81870   6.956   1.883  11.260  0.5353 -0.3772 -0.1513
  594MOL0     C81871   7.029   1.794  11.184  0.1910  0.6702  0.5585
  594MOL0     C81872   7.069   1.656  11.244 -0.2173  0.6473  0.0330
  594MOL0     C81873   7.144   1.660  11.379 -0.0162  0.1664 -0.1698
  594MOL0     C81874   7.171   1.512  11.437 -0.5756  0.1522  0.1997
  594MOL0     C81875   7.281   1.507  11.545  0.1285 -0.4137 -0.3541
  594MOL0     C81876   7.253   1.619  11.655  0.2628  0.6449 -0.0286
  594MOL0     C81877   7.335   1.598  11.783 -0.2480  0.5407  0.0157
  594MOL0     C81878   7.360   1.721  11.867 -0.7189 -0.6172  0.0936
  594MOL0    Cl81879   7.202   1.770  11.956 -0.0354 -0.0710 -0.1875
  594MOL0     C81880   6.752   1.974  11.312 -0.0360 -0.1343 -0.0794
  594MOL0     C81881   6.609   1.966  11.326 -0.1953  0.1412 -1.3587
  594MOL0     O81882   6.411   1.807  11.519  0.0861 -0.0462  0.8741
  594MOL0     C81883   6.147   1.964  11.461  0.8592  0.2352  1.0947
  594MOL0     C81884   6.012   1.988  11.446  0.4815  0.2685 -0.3972
  594MOL0     N81885   5.596   1.473  11.380 -0.3675 -0.4558  0.1491
  594MOL0     N81886   5.676   1.400  11.306  0.3206 -0.0233 -0.3299
  594MOL0     C81887   6.611   1.251  10.367 -0.4141 -0.2759  0.1053
  594MOL0     C81888   6.749   1.284  10.385  0.9491  0.8636 -0.0783
  594MOL0     C81889   7.141   1.409  10.491  0.7135 -0.8219 -0.0009
  594MOL0     C81890   7.226   1.413  10.602 -0.1859 -0.4623 -0.6077
  594MOL0     C81891   7.367   1.426  10.591 -0.0581 -0.0226  0.3564
  594MOL0     C81892   7.429   1.430  10.460  0.6985  0.0076  0.0782
  594MOL0     O81893   7.561   1.427  10.448 -0.1720  0.8334  0.4568
  594MOL0     C81894   7.631   1.347  10.543  0.4822 -0.4380  0.1210
  594MOL0     C81895   7.773   1.309  10.484 -0.6749  0.5903 -0.4136
  594MOL0     C81896   7.771   1.227  10.360 -0.4456 -0.4071 -0.0671
  594MOL0     C81897   7.702   1.088  10.367 -1.1897  0.3539 -0.6385
  594MOL0     C81898   7.695   1.024  10.233  0.2185 -0.6633 -0.7900
  594MOL0     C81899   7.676   0.967  10.127 -0.8410 -0.0497  0.5746
  594MOL0     C81900   7.345   1.412  10.346 -0.6503 -0.6980 -0.0469
  594MOL0     C81901   7.205   1.405  10.357  0.2112 -0.1457  0.2885
  594MOL0     C81902   7.127   1.380  10.227  0.4815  0.3321  0.1550
  594MOL0     H81903   6.716   1.589  10.504  0.2566 -1.2723  1.4256
  594MOL0     H81904   6.482   1.537  10.490  0.3818  0.5855 -1.5547
  594MOL0     H81905   6.340   1.401  10.590 -1.8025  0.3003  1.3341
  594MOL0     H81906   6.249   1.246  10.575  0.9916 -1.0495  0.7092
  594MOL0     H81907   6.218   1.439  10.364 -2.6908 -1.4962 -2.2400
  594MOL0     H81908   6.106   1.311  10.417 -0.7160 -0.9013  2.0219
  594MOL0     H81909   6.186   1.562  10.582  1.3287 -0.3039 -0.9729
  594MOL0     H81910   6.025   1.543  10.496 -0.3099 -2.3279 -2.1678
  594MOL0     H81911   5.974   1.337  10.604 -0.1900 -0.3824  2.1901
  594MOL0     H81912   6.105   1.339  10.718 -0.5947 -0.3128  1.8846
  594MOL0     H81913   5.868   1.540  10.709 -0.4099 -0.3058  0.8655
  594MOL0     H81914   5.998   1.538  10.818 -3.1471  3.5661 -0.4113
  594MOL0     H81915   5.802   1.311  10.785 -1.7465  0.9334  1.4024
  594MOL0     H81916   5.949   1.305  10.887  0.3497 -0.6587 -0.6569
  594MOL0     H81917   5.711   1.507  10.907  0.2285 -0.6381 -2.1214
  594MOL0     H81918   5.844   1.526  11.014 -3.3163  0.0986  2.7547
  594MOL0     H81919   5.684   1.268  11.034  0.8288 -0.3609  0.9639
  594MOL0     H81920   5.830   1.325  11.119 -0.3405 -0.3541  1.1086
  594MOL0     H81921   5.552   1.593  11.078 -0.5912 -0.4831 -0.1697
  594MOL0     H81922   5.336   1.635  11.312  1.4679 -2.6324 -3.4763
  594MOL0     H81923   5.437   1.768  11.254 -0.2446  0.1801  0.5094
  594MOL0     H81924   5.357   1.786  11.485 -2.4501 -4.2614 -0.5811
  594MOL0     H81925   5.483   1.671  11.530  1.1997  0.0946  0.0099
  594MOL0     H81926   5.542   1.940  11.388  1.4467 -0.1357 -0.1577
  594MOL0     H81927   5.566   1.910  11.549  0.4695  2.5339 -0.8395
  594MOL0     H81928   5.736   1.736  11.504 -1.8110 -0.1932  0.6071
  594MOL0     H81929   5.700   1.746  11.334 -1.3240 -1.4535  0.5892
  594MOL0     H81930   5.910   1.670  11.378 -0.0003 -0.4943 -0.2342
  594MOL0     H81931   6.188   1.595  11.254 -0.3912 -0.4423 -0.0017
  594MOL0     H81932   6.093   1.521  11.390  1.3072 -2.2219 -2.1936
  594MOL0     H81933   6.258   1.577  11.413 -0.5707 -0.3802  0.5155
  594MOL0     H81934   6.552   1.681  11.165 -0.5021  0.7263 -0.3714
  594MOL0     H81935   6.801   1.690  11.150 -0.7346  0.9856 -2.0910
  594MOL0     H81936   6.976   1.773  11.091  0.2676 -1.0492  0.8756
  594MOL0     H81937   7.126   1.839  11.158  1.0839 -0.2623  2.1001
  594MOL0     H81938   6.984   1.587  11.251  0.4609 -0.5081 -2.1558
  594MOL0     H81939   7.144   1.603  11.184  1.0776  1.1121  1.2126
  594MOL0     H81940   7.077   1.702  11.454 -0.8318 -0.8533 -0.2990
  594MOL0     H81941   7.234   1.718  11.358 -0.2613  1.1764  1.4362
  594MOL0     H81942   7.206   1.441  11.361 -0.5493  0.6359 -0.2460
  594MOL0     H81943   7.080   1.479  11.488 -0.4505 -1.7210 -0.7279
  594MOL0     H81944   7.273   1.408  11.592  0.6569  0.5611  1.9284
  594MOL0     H81945   7.381   1.508  11.501  0.5280  2.2826  0.3993
  594MOL0     H81946   7.147   1.618  11.683  0.2954  0.4146  0.0896
  594MOL0     H81947   7.270   1.721  11.619  0.9741 -0.1669 -2.1044
  594MOL0     H81948   7.431   1.554  11.754  0.5218  2.2920 -0.2322
  594MOL0     H81949   7.291   1.527  11.853  1.5634  1.4247  2.1500
  594MOL0     H81950   7.400   1.797  11.800 -1.5164  2.2900  2.6675
  594MOL0     H81951   7.441   1.696  11.936 -1.1168 -0.6118  0.5724
  594MOL0     H81952   6.813   2.057  11.345 -0.8763 -0.0690  1.3640
  594MOL0     H81953   6.567   2.041  11.391 -0.9010 -0.7677 -0.7328
  594MOL0     H81954   6.220   2.040  11.484 -1.1613  2.1411  1.4757
  594MOL0     H81955   5.965   2.085  11.441  2.1659  1.0868 -1.0557
  594MOL0     H81956   6.577   1.162  10.315 -0.1851  1.3085 -2.9675
  594MOL0     H81957   6.831   1.220  10.355  1.2774  1.7170 -1.0996
  594MOL0     H81958   7.180   1.402  10.700 -0.1468  0.4715 -0.4815
  594MOL0     H81959   7.414   1.442  10.687  2.8108 -2.5268 -0.4924
  594MOL0     H81960   7.646   1.401  10.637 -0.2483 -1.2769  0.7282
  594MOL0     H81961   7.571   1.258  10.562  0.1454 -0.4324 -0.8783
  594MOL0     H81962   7.829   1.249  10.556 -0.8527 -3.4030 -3.2528
  594MOL0     H81963   7.839   1.394  10.466  1.3129 -0.7864 -0.0089
  594MOL0     H81964   7.738   1.290  10.277  0.4527 -2.4121 -2.0285
  594MOL0     H81965   7.877   1.210  10.338 -0.5140  0.8319 -1.4589
  594MOL0     H81966   7.598   1.094  10.402 -1.6332  0.3461 -1.8794
  594MOL0     H81967   7.747   1.016  10.435 -0.9305 -0.2302 -1.4162
  594MOL0     H81968   7.674   0.929  10.027  2.1052  1.4286 -0.1386
  594MOL0     H81969   7.382   1.398  10.245 -2.8712  1.7962 -1.3104
  594MOL0     H81970   7.128   1.469  10.164  2.1146 -0.9687 -1.7869
  594MOL0     H81971   7.181   1.303  10.172 -2.7219 -1.8097 -0.2746
  594MOL0     H81972   7.025   1.343  10.240  0.6262 -0.0866  0.1216
  595MOL0     O81973   4.379   4.135  11.384  0.0398  0.4395 -0.0305
  595MOL0     C81974   4.315   4.031  11.365 -0.2883 -0.7484  0.5914
  595MOL0     O81975   4.343   3.909  11.426  0.0645 -0.2906  0.0900
  595MOL0     C81976   4.458   3.907  11.498  0.2137  0.6525 -0.0175
  595MOL0     C81977   4.582   3.942  11.442 -0.6730  0.7477  0.3420
  595MOL0     C81978   4.695   3.930  11.523 -0.1401 -0.2504  0.4467
  595MOL0     C81979   4.691   3.895  11.652  0.4353  0.8900  0.1325
  595MOL0     O81980   4.806   3.870  11.735  0.4913  0.0707 -0.1456
  595MOL0     C81981   4.940   3.871  11.689  0.2560  0.2254 -0.9053
  595MOL0     C81982   5.042   3.828  11.803 -0.8032 -0.4036  0.6479
  595MOL0     C81983   5.184   3.784  11.752  0.1818  0.4788 -0.6728
  595MOL0     C81984   5.263   3.730  11.872 -0.5351 -0.3370 -0.0722
  595MOL0     C81985   5.383   3.637  11.825  0.8254  0.6124  0.4235
  595MOL0     C81986   5.484   3.713  11.739 -0.7165  0.3570  0.1982
  595MOL0     C81987   5.625   3.643  11.730  0.4478 -0.7972 -0.2419
  595MOL0     C81988   5.715   3.665  11.850  0.0188 -0.2286 -0.0337
  595MOL0     N81989   5.823   3.570  11.848 -0.2372  0.4871  0.3704
  595MOL0     C81990   5.838   3.461  11.936 -0.3245 -0.0469 -0.8140
  595MOL0     C81991   5.971   3.425  11.921  0.1987  0.2873  0.1105
  595MOL0     C81992   6.063   3.318  11.991  0.5427 -0.2733 -0.2658
  595MOL0     C81993   6.174   3.386  12.080  0.5132  0.4168  0.1914
  595MOL0     C81994   6.266   3.271  12.138  0.3460 -0.2557 -0.0746
  595MOL0     C81995   6.383   3.332  12.215  0.1926 -0.5261  0.0814
  595MOL0     O81996   6.480   3.410  12.135  0.0673  0.5720 -0.0064
  595MOL0     C81997   6.606   3.361  12.125  0.6841  0.6314 -0.0722
  595MOL0     C81998   6.713   3.411  12.199 -0.1984  0.8703 -0.0442
  595MOL0     C81999   6.849   3.374  12.178 -0.2839 -0.0116  0.1948
  595MOL0     C82000   6.954   3.439  12.268  0.8298  0.6145 -0.0073
  595MOL0     C82001   6.873   3.269  12.092 -0.2294  0.0341 -0.3235
  595MOL0     C82002   7.014   3.207  12.079  0.1877  0.7775 -1.3436
  595MOL0     O82003   7.117   3.284  12.052  0.2970 -0.2860 -0.4755
  595MOL0     C82004   7.233   3.244  11.998  0.2843  0.9521  0.4426
  595MOL0     C82005   7.347   3.264  12.068  0.5225  1.2144 -0.8168
  595MOL0     C82006   7.474   3.225  12.024 -0.1646 -0.1377 -0.0751
  595MOL0     C82007   7.502   3.163  11.900  1.2697 -0.2251  0.1276
  595MOL0     O82008   7.618   3.106  11.857  0.6066 -0.4329 -0.1104
  595MOL0     C82009   7.736   3.141  11.925  0.7403  0.2232  0.2905
  595MOL0     C82010   7.867   3.100  11.845 -0.8432  0.5074 -0.8044
  595MOL0     C82011   7.895   3.196  11.736  0.0985 -0.0640  0.4043
  595MOL0     C82012   8.022   3.160  11.655 -0.9562 -0.4375 -0.1250
  595MOL0     C82013   8.024   3.257  11.540 -0.3508 -0.3564  0.6287
  595MOL0     C82014   8.156   3.240  11.466  0.5479  0.5978 -0.0117
  595MOL0     C82015   8.170   3.310  11.329 -0.0013 -0.3172  0.1711
  595MOL0     C82016   8.272   3.253  11.227  0.0993  0.3913  0.3332
  595MOL0    Cl82017   8.211   3.092  11.163 -0.1285  0.5757  0.6697
  595MOL0     C82018   7.384   3.136  11.823  0.7534  0.1397 -0.3715
  595MOL0     C82019   7.250   3.181  11.874 -0.1986 -0.1920  0.5684
  595MOL0     O82020   7.022   3.085  12.103 -0.1266 -0.6556  0.6078
  595MOL0     C82021   6.769   3.206  12.032 -0.0267  0.0770  0.3056
  595MOL0     C82022   6.638   3.259  12.037 -1.2398  0.7459  0.8964
  595MOL0     N82023   6.021   3.503  11.815  0.1670 -0.9871  0.5056
  595MOL0     N82024   5.929   3.576  11.774 -0.2748 -0.0128 -0.1123
  595MOL0     C82025   4.564   3.863  11.703  0.7739 -0.6420  0.1819
  595MOL0     C82026   4.451   3.869  11.629 -0.6222 -0.2899  0.0089
  595MOL0     C82027   4.213   4.025  11.260 -0.2701 -0.1905  0.4949
  595MOL0     C82028   4.137   3.905  11.234  0.2601 -0.0383  0.1154
  595MOL0     C82029   4.022   3.908  11.151  0.0470  1.1864 -0.6004
  595MOL0     C82030   3.981   4.023  11.082  0.1927 -0.0297  0.2461
  595MOL0     O82031   3.871   4.029  10.993 -0.2838  0.5071  0.6428
  595MOL0     C82032   3.780   3.910  10.968 -1.0091 -0.3946 -0.6971
  595MOL0     C82033   3.645   3.962  10.920  0.8649  0.0924  1.3097
  595MOL0     C82034   3.535   3.861  10.931 -0.7626 -0.3700  0.0079
  595MOL0     C82035   3.405   3.934  10.929  1.1432  1.3382  0.2799
  595MOL0     C82036   3.373   3.973  10.793 -0.1522  0.3493 -1.1471
  595MOL0     C82037   3.347   3.968  10.674 -0.4631  0.2074 -0.0894
  595MOL0     C82038   4.065   4.132  11.086 -0.3195  0.4354  0.1121
  595MOL0     C82039   4.180   4.134  11.167 -0.2891  0.0120  0.3210
  595MOL0     C82040   4.263   4.263  11.168 -0.8560  0.2318 -0.4594
  595MOL0     H82041   4.589   3.955  11.334 -2.2522  0.3594  0.1662
  595MOL0     H82042   4.797   3.937  11.488  1.1740 -0.3742  3.8957
  595MOL0     H82043   4.963   3.974  11.658 -0.3584  0.1581 -1.6052
  595MOL0     H82044   4.953   3.806  11.602  0.2543  0.9272 -1.4390
  595MOL0     H82045   5.054   3.911  11.873  1.5955 -0.5592  0.4974
  595MOL0     H82046   5.003   3.741  11.858 -0.3329 -1.0040  0.0353
  595MOL0     H82047   5.171   3.713  11.670 -0.6220 -0.4902  0.2637
  595MOL0     H82048   5.223   3.874  11.704  0.9182  0.5357  0.0151
  595MOL0     H82049   5.291   3.818  11.931 -1.6399  0.6891 -1.0436
  595MOL0     H82050   5.202   3.663  11.934 -1.2245  0.4628  0.1273
  595MOL0     H82051   5.354   3.554  11.760  1.9373 -0.9455  1.8215
  595MOL0     H82052   5.433   3.595  11.913  3.4456  0.1401 -1.1612
  595MOL0     H82053   5.452   3.736  11.637 -0.3564  1.2458  0.2821
  595MOL0     H82054   5.497   3.811  11.786  6.8013 -0.1396  0.2451
  595MOL0     H82055   5.684   3.677  11.644  0.1110 -0.4848 -0.3527
  595MOL0     H82056   5.615   3.535  11.723 -1.5748 -0.6152 -0.6717
  595MOL0     H82057   5.757   3.766  11.841  0.2120 -0.4256 -1.7233
  595MOL0     H82058   5.667   3.654  11.948 -0.2549  0.8739 -0.0331
  595MOL0     H82059   5.764   3.426  12.008  1.2997 -1.9019  0.0617
  595MOL0     H82060   6.098   3.260  11.905 -3.1649 -2.1218 -0.7003
  595MOL0     H82061   6.009   3.258  12.065 -0.1431 -0.0551 -0.5791
  595MOL0     H82062   6.228   3.457  12.017  0.0615  0.0556 -0.6302
  595MOL0     H82063   6.131   3.438  12.166 -1.1327 -0.6229  0.0560
  595MOL0     H82064   6.219   3.197  12.205 -0.3103  0.4964  0.3056
  595MOL0     H82065   6.312   3.226  12.050 -1.5687 -1.9374 -0.2946
  595MOL0     H82066   6.354   3.384  12.306  1.4873 -2.9592  2.0242
  595MOL0     H82067   6.440   3.249  12.259 -0.7022 -1.3903 -0.3436
  595MOL0     H82068   6.687   3.476  12.281 -0.2013 -0.2246  0.8559
  595MOL0     H82069   7.004   3.359  12.324 -0.2221  1.4146  2.1715
  595MOL0     H82070   6.911   3.506  12.343  0.9976 -0.3826  1.0179
  595MOL0     H82071   7.020   3.498  12.203  0.5117  0.7586 -0.1982
  595MOL0     H82072   7.330   3.304  12.168 -0.8973  0.9050 -0.9180
  595MOL0     H82073   7.555   3.238  12.095 -2.1826  3.0553  1.8752
  595MOL0     H82074   7.735   3.250  11.937  2.6676  0.6591 -2.6069
  595MOL0     H82075   7.741   3.089  12.021  1.9110 -1.1889 -0.5030
  595MOL0     H82076   7.950   3.075  11.913 -0.8301  0.0873 -0.9689
  595MOL0     H82077   7.864   3.000  11.801  2.3510  0.1994 -0.5356
  595MOL0     H82078   7.880   3.300  11.767 -3.1962 -0.4830  0.4855
  595MOL0     H82079   7.813   3.192  11.664  0.9734 -1.1463 -0.5718
  595MOL0     H82080   8.022   3.054  11.627 -0.4108  0.3725 -3.5866
  595MOL0     H82081   8.111   3.164  11.719 -1.3464 -1.2714  0.4924
  595MOL0     H82082   7.948   3.235  11.464  1.1723  0.8252 -1.3043
  595MOL0     H82083   8.020   3.363  11.565 -0.0204  0.6212 -2.9347
  595MOL0     H82084   8.180   3.134  11.452  0.1501  0.7623 -2.3628
  595MOL0     H82085   8.236   3.278  11.531  0.0758  1.6629 -0.0349
  595MOL0     H82086   8.203   3.414  11.342  0.3293 -0.6174  2.1898
  595MOL0     H82087   8.072   3.289  11.287 -1.8025 -0.7647  4.1274
  595MOL0     H82088   8.367   3.236  11.278 -0.5973  2.9807  2.7552
  595MOL0     H82089   8.286   3.328  11.148 -0.1409 -0.8706 -0.9498
  595MOL0     H82090   7.392   3.070  11.736  1.9173  0.3840 -0.4696
  595MOL0     H82091   7.161   3.154  11.818 -0.6958 -0.8103  1.6347
  595MOL0     H82092   6.795   3.126  11.964  2.8566  0.8552  0.3546
  595MOL0     H82093   6.559   3.218  11.974  0.1074  2.2003 -1.9277
  595MOL0     H82094   4.555   3.834  11.807  0.7891  3.1960  1.4162
  595MOL0     H82095   4.358   3.833  11.670  0.3177 -4.7083 -1.1991
  595MOL0     H82096   4.151   3.817  11.296 -0.4503  0.8097  1.5446
  595MOL0     H82097   3.957   3.821  11.164  0.7918  0.9953  2.4967
  595MOL0     H82098   3.829   3.838  10.903  1.5749  0.8613 -0.2594
  595MOL0     H82099   3.759   3.854  11.059 -0.2020 -0.8468 -0.7852
  595MOL0     H82100   3.656   3.981  10.813  1.0501 -1.0242  1.1112
  595MOL0     H82101   3.623   4.052  10.978 -3.1528 -0.9892  1.7544
  595MOL0     H82102   3.534   3.794  10.845 -0.2796  0.5082 -0.7013
  595MOL0     H82103   3.548   3.803  11.022 -0.6329 -2.9398 -1.5659
  595MOL0     H82104   3.400   4.024  10.992  2.1542  2.9821 -1.8443
  595MOL0     H82105   3.327   3.861  10.949 -1.6379  3.5773 -1.5487
  595MOL0     H82106   3.326   3.969  10.569 -1.2665  3.2987  0.0001
  595MOL0     H82107   4.052   4.217  11.021  0.0105  2.4435  2.5271
  595MOL0     H82108   4.254   4.303  11.067 -0.2210  1.1455 -0.1644
  595MOL0     H82109   4.232   4.328  11.250 -1.6320  1.1232 -1.4400
  595MOL0     H82110   4.370   4.241  11.178 -0.6358  1.5204  0.1919
  596MOL0     O82111  11.218   8.217   8.657 -0.3590 -0.5708  0.9999
  596MOL0     C82112  11.234   8.109   8.708 -0.7036  0.1717  0.2649
  596MOL0     O82113  11.356   8.037   8.697 -0.5121 -0.8331 -0.2084
  596MOL0     C82114  11.464   8.073   8.630 -0.2234 -0.5666  0.4757
  596MOL0     C82115  11.500   8.204   8.578  0.9861 -0.1240 -0.0870
  596MOL0     C82116  11.610   8.229   8.504  0.3971  0.4065 -0.1472
  596MOL0     C82117  11.695   8.120   8.473 -0.7108  0.3278  0.4061
  596MOL0     O82118  11.819   8.137   8.418  0.6334 -0.0156  0.0908
  596MOL0     C82119  11.894   8.254   8.458  0.3918  0.7620  1.2284
  596MOL0     C82120  11.901   8.365   8.347 -0.0831 -0.0166 -0.5438
  596MOL0     C82121  11.938   8.289   8.219 -0.0303  0.1695  0.2913
  596MOL0     C82122  11.992   8.395   8.116  0.5709  0.3256 -0.1195
  596MOL0     C82123  12.103   8.326   8.036  0.4196  0.4256  0.6260
  596MOL0     C82124  12.195   8.409   7.942  0.0777  0.0554 -0.3361
  596MOL0     C82125  12.155   8.395   7.798  0.1911 -0.5640 -0.3700
  596MOL0     C82126  12.231   8.478   7.689  0.3054  0.3704 -0.3044
  596MOL0     N82127  12.376   8.445   7.703  0.0541  0.1666 -0.0549
  596MOL0     C82128  12.430   8.338   7.640  0.2007  0.1111  0.6634
  596MOL0     C82129  12.561   8.371   7.620  0.2960  0.7077 -1.0028
  596MOL0     C82130  12.673   8.279   7.579 -0.2145 -0.0873 -1.1515
  596MOL0     C82131  12.752   8.331   7.460  0.0201 -0.0443 -0.1663
  596MOL0     C82132  12.897   8.286   7.447  0.5588 -0.2198 -0.7597
  596MOL0     C82133  12.920   8.131   7.436  0.7193  0.1679  0.0379
  596MOL0     O82134  13.056   8.111   7.400  1.0400 -0.1258 -0.6448
  596MOL0     C82135  13.164   8.133   7.485  0.2950  0.0518 -0.1467
  596MOL0     C82136  13.291   8.118   7.427 -0.1830 -0.1740 -0.7034
  596MOL0     C82137  13.406   8.127   7.504  0.0118 -0.0675 -0.4017
  596MOL0     C82138  13.537   8.114   7.430 -0.5541 -0.0241  0.5055
  596MOL0     C82139  13.400   8.158   7.648  0.5942 -0.0298  0.1351
  596MOL0     C82140  13.508   8.186   7.744  0.2681  0.5167  0.4329
  596MOL0     O82141  13.467   8.242   7.862 -0.3106  0.1337 -0.3818
  596MOL0     C82142  13.544   8.322   7.944  0.4896  0.0985  0.6898
  596MOL0     C82143  13.486   8.360   8.069  0.3685  0.1146 -0.1690
  596MOL0     C82144  13.564   8.421   8.164  0.0981  0.4438  0.2956
  596MOL0     C82145  13.700   8.446   8.143 -0.1836 -0.9268 -0.5881
  596MOL0     O82146  13.769   8.526   8.238 -0.1712 -0.0270  0.3109
  596MOL0     C82147  13.819   8.439   8.336 -0.5866  0.0422  0.0559
  596MOL0     C82148  13.917   8.509   8.435 -0.2957  0.0311 -0.8672
  596MOL0     C82149  14.058   8.551   8.379 -0.5033 -0.0797  0.1996
  596MOL0     C82150  14.050   8.652   8.264  0.1125 -0.0935  0.5279
  596MOL0     C82151  14.197   8.662   8.220 -0.0669  0.2303 -0.2013
  596MOL0     C82152  14.219   8.770   8.117  1.4313  0.3209 -0.1790
  596MOL0     C82153  14.148   8.750   7.982 -0.1077  0.2411 -0.0674
  596MOL0     C82154  14.187   8.625   7.908  0.0856  0.0081  0.3788
  596MOL0    Cl82155  14.365   8.613   7.872 -0.6471 -0.0914 -0.2205
  596MOL0     C82156  13.758   8.416   8.022 -0.2025  0.2341  0.8989
  596MOL0     C82157  13.680   8.356   7.919 -0.1729  0.0075 -0.1028
  596MOL0     O82158  13.619   8.134   7.721 -0.0063 -0.6212 -0.0803
  596MOL0     C82159  13.270   8.162   7.703  0.0100  0.8402  0.1996
  596MOL0     C82160  13.156   8.160   7.619 -0.0424  1.0425 -0.8772
  596MOL0     N82161  12.585   8.496   7.671  1.1682 -0.2151  0.8516
  596MOL0     N82162  12.470   8.540   7.722 -0.8502 -0.1774  0.1937
  596MOL0     C82163  11.652   7.989   8.505  0.0498 -1.0794  0.6493
  596MOL0     C82164  11.538   7.966   8.578  0.4202  0.9210 -0.0741
  596MOL0     C82165  11.119   8.064   8.796 -0.7754 -0.6478  0.1517
  596MOL0     C82166  11.006   8.151   8.796  0.2332  0.1579  0.4094
  596MOL0     C82167  10.889   8.101   8.845  0.2405 -0.0344 -0.0871
  596MOL0     C82168  10.876   7.971   8.906 -0.6589 -0.0981 -0.0595
  596MOL0     O82169  10.769   7.921   8.972  0.2319 -0.5880  0.4891
  596MOL0     C82170  10.682   7.835   8.891 -0.1254  0.3087  0.1477
  596MOL0     C82171  10.588   7.918   8.799 -0.4973 -0.4888  0.7145
  596MOL0     C82172  10.485   7.818   8.736 -0.1869 -1.1594  0.7214
  596MOL0     C82173  10.357   7.795   8.828 -0.6946 -0.5799 -0.0536
  596MOL0     C82174  10.259   7.714   8.751  0.0050 -1.2721  0.6255
  596MOL0     C82175  10.166   7.653   8.694 -0.0810 -0.2571  0.1288
  596MOL0     C82176  10.997   7.896   8.914 -0.2128  0.3875  0.1291
  596MOL0     C82177  11.114   7.933   8.855 -0.7411  0.0975  0.7702
  596MOL0     C82178  11.234   7.840   8.860  0.4589  0.1800 -0.4065
  596MOL0     H82179  11.438   8.289   8.605  0.3373  0.3124 -2.6913
  596MOL0     H82180  11.641   8.327   8.472  1.1372 -0.0982 -1.0262
  596MOL0     H82181  11.996   8.222   8.479  0.5139 -0.4868 -0.9336
  596MOL0     H82182  11.854   8.299   8.549  0.7645  1.5248  1.0306
  596MOL0     H82183  11.810   8.425   8.347  0.5150  0.9850  1.8580
  596MOL0     H82184  11.991   8.424   8.368 -1.5215  2.0181  0.1518
  596MOL0     H82185  12.016   8.215   8.236  1.7157  2.2927  2.1675
  596MOL0     H82186  11.849   8.247   8.171 -0.8412  1.7177  0.3555
  596MOL0     H82187  11.912   8.435   8.054 -0.6725 -0.6237  0.8308
  596MOL0     H82188  12.035   8.484   8.164 -1.9460  2.3778 -1.4088
  596MOL0     H82189  12.066   8.236   7.987 -1.9682  0.9603  1.3378
  596MOL0     H82190  12.175   8.292   8.111  0.6197 -3.6908 -1.1631
  596MOL0     H82191  12.194   8.510   7.984  0.5440 -0.6430  1.4629
  596MOL0     H82192  12.297   8.370   7.935 -0.4738 -1.2830 -1.2682
  596MOL0     H82193  12.053   8.434   7.794  0.9054  1.7132  1.2612
  596MOL0     H82194  12.155   8.289   7.773  0.2041 -0.2460 -1.7664
  596MOL0     H82195  12.199   8.445   7.590  0.0577 -1.5807  0.3734
  596MOL0     H82196  12.212   8.584   7.706 -0.9229  0.1764 -0.3874
  596MOL0     H82197  12.363   8.265   7.596 -0.7614  2.9273 -3.0545
  596MOL0     H82198  12.632   8.183   7.547  1.5807 -1.1057 -0.5586
  596MOL0     H82199  12.741   8.274   7.665  0.4116 -0.1425 -1.6379
  596MOL0     H82200  12.698   8.299   7.370  0.3615 -2.8930  0.5625
  596MOL0     H82201  12.746   8.440   7.465 -1.0325 -0.1259  0.7600
  596MOL0     H82202  12.938   8.325   7.353  0.4196 -0.6614 -1.0067
  596MOL0     H82203  12.960   8.335   7.523 -0.0480 -0.4008 -0.1309
  596MOL0     H82204  12.893   8.089   7.533  0.9155  0.5671  0.2680
  596MOL0     H82205  12.865   8.080   7.357  3.1460 -0.2961 -1.4381
  596MOL0     H82206  13.293   8.079   7.325  1.3146  0.2503 -0.8543
  596MOL0     H82207  13.588   8.019   7.447  0.2394  0.2718 -0.1756
  596MOL0     H82208  13.599   8.193   7.474 -4.6905  2.2406  2.9139
  596MOL0     H82209  13.532   8.136   7.323  0.7652 -0.5767  0.3162
  596MOL0     H82210  13.381   8.351   8.096 -0.4123 -0.4815 -3.0122
  596MOL0     H82211  13.522   8.450   8.259 -1.3630 -1.3347  0.2603
  596MOL0     H82212  13.743   8.391   8.398  0.4431  1.0064  2.1851
  596MOL0     H82213  13.867   8.354   8.287 -0.7721 -0.9300  1.5045
  596MOL0     H82214  13.862   8.597   8.468  2.3138  2.4437 -2.4851
  596MOL0     H82215  13.926   8.449   8.526  1.3434  0.7973 -0.4865
  596MOL0     H82216  14.115   8.466   8.341  1.0086  0.6820  0.6629
  596MOL0     H82217  14.113   8.607   8.456  1.4422  0.2649 -1.3447
  596MOL0     H82218  14.001   8.747   8.289 -1.9058 -0.4961 -1.5427
  596MOL0     H82219  13.992   8.611   8.181 -1.0311  2.0546  0.1778
  596MOL0     H82220  14.268   8.687   8.300 -0.1541 -1.8493  0.5903
  596MOL0     H82221  14.238   8.570   8.177  1.4068  1.3792 -1.3821
  596MOL0     H82222  14.325   8.769   8.088  1.3752 -0.2930 -0.3760
  596MOL0     H82223  14.201   8.865   8.169  1.2927  0.3898 -0.3502
  596MOL0     H82224  14.183   8.835   7.923 -0.7685  1.3089  1.0439
  596MOL0     H82225  14.039   8.752   7.985 -0.1402 -0.6301 -0.4014
  596MOL0     H82226  14.129   8.607   7.817 -2.8671  1.5052  1.8023
  596MOL0     H82227  14.154   8.548   7.979  2.2106 -0.0821  1.3472
  596MOL0     H82228  13.862   8.439   8.001 -0.9642  3.2873 -0.0741
  596MOL0     H82229  13.733   8.327   7.828 -1.1569  0.0821 -0.7220
  596MOL0     H82230  13.259   8.174   7.811  1.5551  0.5371  0.4148
  596MOL0     H82231  13.062   8.180   7.671  0.0625 -2.1547  0.7847
  596MOL0     H82232  11.716   7.906   8.477  1.2366  0.4926 -1.6440
  596MOL0     H82233  11.522   7.862   8.604  0.5621  1.0361  0.4877
  596MOL0     H82234  11.009   8.248   8.748  2.8463  0.8972  1.8563
  596MOL0     H82235  10.811   8.175   8.850  1.9084  1.7116  3.0959
  596MOL0     H82236  10.747   7.770   8.831  0.0398  2.3189 -2.0079
  596MOL0     H82237  10.625   7.774   8.961 -3.6495  1.3129 -1.5881
  596MOL0     H82238  10.639   7.981   8.725 -0.9617 -1.4842 -0.4757
  596MOL0     H82239  10.543   7.995   8.863 -0.2766  1.9305 -1.8298
  596MOL0     H82240  10.442   7.866   8.647 -1.8971  0.1226  2.1657
  596MOL0     H82241  10.524   7.718   8.716 -1.7274 -2.3312  3.1404
  596MOL0     H82242  10.317   7.894   8.853 -2.3707 -2.4351  6.7544
  596MOL0     H82243  10.389   7.742   8.919  1.6815 -0.2091 -0.6014
  596MOL0     H82244  10.105   7.590   8.632  0.1693 -1.4875  1.0976
  596MOL0     H82245  11.005   7.805   8.972  2.2638 -1.2878 -2.5819
  596MOL0     H82246  11.258   7.788   8.766  1.4373 -0.3041  0.1040
  596MOL0     H82247  11.323   7.895   8.890  1.0801 -1.1291  0.1725
  596MOL0     H82248  11.218   7.755   8.925  6.4335 -2.4147 -1.6753
  597MOL0     O82249  10.763   4.557   4.961 -0.1772 -0.3776 -0.6274
  597MOL0     C82250  10.810   4.457   4.914 -0.0714  0.3804  0.1079
  597MOL0     O82251  10.733   4.344   4.892  0.1497  0.2455 -0.4258
  597MOL0     C82252  10.596   4.365   4.888 -0.0464  0.0665 -0.0205
  597MOL0     C82253  10.523   4.396   5.006  0.5740  0.8793 -0.1492
  597MOL0     C82254  10.381   4.396   5.011 -0.3865  0.6270 -0.4483
  597MOL0     C82255  10.314   4.375   4.891 -0.2671 -0.0680  0.0478
  597MOL0     O82256  10.175   4.385   4.890 -0.3506  0.2441  0.1158
  597MOL0     C82257  10.108   4.468   4.982  0.5827  0.6982  0.3061
  597MOL0     C82258   9.966   4.429   4.945  0.4008 -0.7091  0.6120
  597MOL0     C82259   9.911   4.508   4.821  0.1508 -0.5598 -0.1614
  597MOL0     C82260   9.758   4.467   4.796 -0.3252  0.1394  0.2119
  597MOL0     C82261   9.702   4.497   4.657  0.7629 -1.0256  0.6585
  597MOL0     C82262   9.761   4.431   4.535 -1.0418  0.6955  0.6266
  597MOL0     C82263   9.724   4.282   4.528  0.5939 -0.3592 -0.0359
  597MOL0     C82264   9.771   4.213   4.402 -0.2713 -0.7479  0.1256
  597MOL0     N82265   9.911   4.222   4.385  0.1613  0.1624 -0.6346
  597MOL0     C82266   9.998   4.130   4.439  0.1195 -0.3371  0.7024
  597MOL0     C82267  10.123   4.176   4.409  0.2016 -0.7615 -0.7509
  597MOL0     C82268  10.246   4.102   4.453 -0.5131  0.2375 -0.2039
  597MOL0     C82269  10.318   4.038   4.335  0.3988 -0.6189  0.6042
  597MOL0     C82270  10.435   3.950   4.367 -0.8581 -0.1491  0.1056
  597MOL0     C82271  10.436   3.821   4.294  0.7348  0.2114  0.7411
  597MOL0     O82272  10.518   3.716   4.346 -1.0022 -0.8225 -0.3839
  597MOL0     C82273  10.639   3.679   4.300  0.6281 -0.1117  0.1244
  597MOL0     C82274  10.700   3.566   4.347 -0.1259 -0.5655 -0.0102
  597MOL0     C82275  10.826   3.520   4.304  0.4022  0.1668  1.1191
  597MOL0     C82276  10.867   3.389   4.347 -0.0965 -0.4092  0.1105
  597MOL0     C82277  10.907   3.602   4.216  1.1104 -0.6811  0.0815
  597MOL0     C82278  11.048   3.570   4.166 -0.2418 -0.9321  0.8697
  597MOL0     O82279  11.096   3.643   4.065  0.2970 -0.2117 -0.0842
  597MOL0     C82280  11.219   3.630   4.015 -0.6272  0.7132  1.0550
  597MOL0     C82281  11.228   3.609   3.876 -0.1250  0.9728  0.0820
  597MOL0     C82282  11.357   3.598   3.819 -0.5789  0.1370 -0.6294
  597MOL0     C82283  11.477   3.633   3.893 -0.1829 -0.5222  0.7575
  597MOL0     O82284  11.609   3.625   3.859 -0.2484 -0.2132  0.7532
  597MOL0     C82285  11.641   3.537   3.749  0.4266 -0.2899  0.0122
  597MOL0     C82286  11.785   3.508   3.739 -0.8908 -0.1052  0.5285
  597MOL0     C82287  11.836   3.421   3.859 -0.0307  0.8121 -0.7870
  597MOL0     C82288  11.986   3.404   3.852 -1.1641  0.0940  0.6373
  597MOL0     C82289  12.038   3.290   3.928  0.0896  0.3844 -0.2951
  597MOL0     C82290  12.192   3.284   3.952 -0.8020 -0.1767  0.3630
  597MOL0     C82291  12.269   3.282   3.816  0.1151 -0.4051 -0.2296
  597MOL0     C82292  12.423   3.273   3.828  0.1054 -0.3010 -0.1412
  597MOL0    Cl82293  12.467   3.139   3.917 -0.0944  0.0537 -0.6135
  597MOL0     C82294  11.455   3.666   4.023  0.0629  0.3371 -0.2871
  597MOL0     C82295  11.332   3.660   4.092 -0.0357  0.5144  0.4340
  597MOL0     O82296  11.110   3.490   4.224 -0.1400  0.2722 -0.2173
  597MOL0     C82297  10.845   3.720   4.171  0.5435 -0.5978 -0.6049
  597MOL0     C82298  10.715   3.754   4.212  0.2789  0.0464 -0.3517
  597MOL0     N82299  10.108   4.292   4.333 -0.1442  0.2790  0.1377
  597MOL0     N82300   9.987   4.319   4.325  0.2898  0.2068  0.1668
  597MOL0     C82301  10.381   4.336   4.777  0.2037  0.2368  0.0261
  597MOL0     C82302  10.526   4.330   4.775 -0.0772 -0.0340  0.4767
  597MOL0     C82303  10.950   4.446   4.876  0.1209  0.3734 -0.1461
  597MOL0     C82304  11.011   4.322   4.914 -0.5930 -0.1674  1.3524
  597MOL0     C82305  11.146   4.308   4.889  0.2887  0.4593  0.4627
  597MOL0     C82306  11.219   4.407   4.821 -0.7999  0.0682  0.8020
  597MOL0     O82307  11.353   4.403   4.786  0.1075 -0.1337  0.1500
  597MOL0     C82308  11.425   4.281   4.786  0.5516  0.2498  0.4241
  597MOL0     C82309  11.399   4.187   4.658 -0.3333  0.3868 -0.1652
  597MOL0     C82310  11.491   4.224   4.543  0.4322  0.2549 -0.0874
  597MOL0     C82311  11.457   4.163   4.407  0.3664  0.3599  0.0156
  597MOL0     C82312  11.492   4.018   4.396 -0.1760 -1.0692 -0.0298
  597MOL0     C82313  11.517   3.900   4.387 -0.1340 -0.7311 -0.0940
  597MOL0     C82314  11.156   4.527   4.790  0.2961  0.9098 -0.0449
  597MOL0     C82315  11.023   4.547   4.813  0.3396  0.1221  0.1444
  597MOL0     C82316  10.960   4.682   4.778  0.4441  0.1894 -1.1657
  597MOL0     H82317  10.576   4.415   5.099  0.0195 -2.4787  0.9876
  597MOL0     H82318  10.347   4.415   5.112  4.7210  3.0328  1.2013
  597MOL0     H82319  10.123   4.573   4.954  1.6873  0.6265  0.5880
  597MOL0     H82320  10.126   4.443   5.086  2.0116  0.3551 -0.0050
  597MOL0     H82321   9.955   4.321   4.930  0.6080 -0.5239 -0.9863
  597MOL0     H82322   9.895   4.445   5.027 -0.0261 -1.3410  0.3757
  597MOL0     H82323   9.905   4.616   4.841  0.1966 -0.6974  0.6308
  597MOL0     H82324   9.973   4.491   4.733  0.5111  0.5019 -0.1289
  597MOL0     H82325   9.747   4.359   4.813  0.0382  0.4000  2.3431
  597MOL0     H82326   9.693   4.514   4.870 -2.7768  0.3867 -1.9494
  597MOL0     H82327   9.711   4.604   4.636  1.1846 -1.4160 -1.4009
  597MOL0     H82328   9.594   4.479   4.659  0.9221 -1.9964  0.5607
  597MOL0     H82329   9.735   4.482   4.442 -0.4212  0.2264  0.1820
  597MOL0     H82330   9.869   4.446   4.544 -0.9531 -0.4932  1.7120
  597MOL0     H82331   9.614   4.284   4.526  0.5224 -0.9642 -3.8418
  597MOL0     H82332   9.748   4.223   4.616 -0.0441  1.2176  1.2451
  597MOL0     H82333   9.734   4.110   4.412 -1.1217 -0.2572  2.8387
  597MOL0     H82334   9.722   4.263   4.318  0.5769  2.3526  1.3554
  597MOL0     H82335   9.961   4.050   4.503 -0.8450  0.0569  0.6464
  597MOL0     H82336  10.224   4.018   4.520  0.6478  1.0526  1.2816
  597MOL0     H82337  10.316   4.167   4.508 -1.0598  0.1104  0.6554
  597MOL0     H82338  10.255   3.973   4.274  1.3187 -0.9052 -0.0683
  597MOL0     H82339  10.356   4.118   4.271  0.1273  1.4361  2.8955
  597MOL0     H82340  10.523   4.010   4.342 -0.8626  0.8971  2.3942
  597MOL0     H82341  10.441   3.935   4.475  0.4431  2.0081  0.3839
  597MOL0     H82342  10.336   3.779   4.279  1.5976 -0.7132 -4.5872
  597MOL0     H82343  10.468   3.830   4.189  1.6636 -1.5552  0.8330
  597MOL0     H82344  10.645   3.509   4.422 -1.6412 -0.2969 -0.8703
  597MOL0     H82345  10.908   3.342   4.257  0.9819  1.3368 -0.3703
  597MOL0     H82346  10.781   3.330   4.380 -0.2539 -2.0834 -2.9411
  597MOL0     H82347  10.942   3.397   4.427  1.8272  1.4512 -1.7554
  597MOL0     H82348  11.137   3.619   3.817 -0.7606 -0.6351  0.7229
  597MOL0     H82349  11.376   3.588   3.713 -2.2100  1.8763 -1.1383
  597MOL0     H82350  11.597   3.439   3.770 -0.5671  0.4457  1.5373
  597MOL0     H82351  11.603   3.569   3.652  1.4509  3.1384  0.6225
  597MOL0     H82352  11.805   3.440   3.656 -2.8618 -1.9495  1.4694
  597MOL0     H82353  11.853   3.593   3.728  0.2700 -0.9990  0.6601
  597MOL0     H82354  11.788   3.323   3.855  0.0408  0.6268  1.4531
  597MOL0     H82355  11.809   3.461   3.958 -1.9668  2.0238 -1.7408
  597MOL0     H82356  12.037   3.492   3.892  1.6296 -0.9823 -0.2355
  597MOL0     H82357  12.015   3.395   3.747  0.5599 -4.1474  1.2629
  597MOL0     H82358  11.974   3.293   4.017  1.3437 -1.8888  0.7811
  597MOL0     H82359  11.999   3.201   3.878 -1.0683 -0.1518  1.4402
  597MOL0     H82360  12.223   3.205   4.021  1.1999 -0.1099 -0.3993
  597MOL0     H82361  12.225   3.372   4.008  1.6700 -0.6205 -0.2892
  597MOL0     H82362  12.237   3.376   3.770 -2.8405  0.1984  2.7134
  597MOL0     H82363  12.242   3.204   3.744  4.2476 -2.5345  0.2018
  597MOL0     H82364  12.466   3.369   3.859  0.7573 -0.4695 -0.5032
  597MOL0     H82365  12.452   3.261   3.723  0.9696  0.2358  0.0266
  597MOL0     H82366  11.545   3.709   4.066  0.6815 -2.8325  1.9361
  597MOL0     H82367  11.327   3.705   4.191 -1.2632 -0.8940  1.0547
  597MOL0     H82368  10.900   3.782   4.101 -0.5676 -1.6824 -2.5373
  597MOL0     H82369  10.669   3.846   4.177  0.1850 -0.6140 -2.0310
  597MOL0     H82370  10.322   4.305   4.691  0.6676 -1.9466  0.4344
  597MOL0     H82371  10.568   4.271   4.694 -0.6747  1.1775 -0.7548
  597MOL0     H82372  10.961   4.240   4.963  0.8745 -2.1315 -0.2190
  597MOL0     H82373  11.196   4.216   4.919 -0.9249 -0.8463 -1.3273
  597MOL0     H82374  11.533   4.298   4.799  0.2997  1.6437  0.8379
  597MOL0     H82375  11.395   4.225   4.875 -0.6606 -1.7467 -1.1580
  597MOL0     H82376  11.297   4.182   4.619  0.7749  1.1856 -3.6020
  597MOL0     H82377  11.435   4.090   4.693  0.4744  1.1027  1.0697
  597MOL0     H82378  11.486   4.333   4.546 -2.0804  0.2142 -0.6624
  597MOL0     H82379  11.593   4.191   4.564  0.3043  0.6666  1.2895
  597MOL0     H82380  11.520   4.210   4.330  0.5874 -0.5505 -0.3641
  597MOL0     H82381  11.352   4.162   4.380 -0.1889  0.1617  1.9858
  597MOL0     H82382  11.536   3.795   4.382 -1.2341 -0.9013 -1.7219
  597MOL0     H82383  11.212   4.604   4.738  1.3453  2.6580  3.3701
  597MOL0     H82384  11.025   4.734   4.707 -0.9989  1.2364 -1.7446
  597MOL0     H82385  10.857   4.670   4.746  0.1158 -0.3039  0.0097
  597MOL0     H82386  10.953   4.749   4.865  0.5671 -0.3942 -0.6930
  598MOL0     O82387   1.133   0.376  10.126 -0.8985 -0.0754 -0.0119
  598MOL0     C82388   1.165   0.365  10.242 -0.7372 -0.1315 -1.4074
  598MOL0     O82389   1.289   0.408  10.291 -0.1413  0.1401 -0.8994
  598MOL0     C82390   1.382   0.455  10.196 -0.4997 -0.0967  0.0543
  598MOL0     C82391   1.470   0.375  10.121 -0.3355  0.3608  0.8434
  598MOL0     C82392   1.568   0.437  10.038  0.8782  0.0810 -0.4041
  598MOL0     C82393   1.566   0.578  10.023 -0.1403 -0.0567 -0.5641
  598MOL0     O82394   1.672   0.629   9.958  0.0259 -0.1755  0.0501
  598MOL0     C82395   1.638   0.747   9.878  1.2422 -0.6111  0.5212
  598MOL0     C82396   1.764   0.815   9.812 -0.0654 -0.1187 -1.2948
  598MOL0     C82397   1.838   0.729   9.710  0.1872 -0.1868  0.4938
  598MOL0     C82398   1.955   0.803   9.645  0.9050  0.1809  0.0929
  598MOL0     C82399   2.054   0.713   9.570 -0.0308 -0.0067 -0.0344
  598MOL0     C82400   2.128   0.622   9.661 -0.4183 -0.2469 -0.0581
  598MOL0     C82401   2.275   0.604   9.632 -0.0812 -0.4522 -0.7936
  598MOL0     C82402   2.366   0.719   9.684  0.3911 -0.1769 -0.4707
  598MOL0     N82403   2.507   0.704   9.642  0.5400  0.6812 -0.1770
  598MOL0     C82404   2.555   0.746   9.527  0.3001 -0.5604  0.6041
  598MOL0     C82405   2.676   0.679   9.510  0.1008 -0.0492 -0.2832
  598MOL0     C82406   2.757   0.687   9.384 -0.4848  0.5332  0.0409
  598MOL0     C82407   2.728   0.574   9.274 -0.5981  0.4073 -0.3986
  598MOL0     C82408   2.853   0.554   9.181 -0.4825  0.0312  0.1087
  598MOL0     C82409   2.843   0.416   9.119  0.5855  0.1627  0.2346
  598MOL0     O82410   2.935   0.391   9.012 -0.4013 -0.1375 -0.7956
  598MOL0     C82411   3.071   0.361   9.036 -0.5668 -0.0880 -0.0261
  598MOL0     C82412   3.167   0.350   8.927  0.4032  0.1353  0.2082
  598MOL0     C82413   3.306   0.332   8.938 -0.4725 -0.4642 -0.3035
  598MOL0     C82414   3.388   0.313   8.812 -0.2496  0.4489 -0.2780
  598MOL0     C82415   3.356   0.325   9.067  0.8243 -0.0133  0.4369
  598MOL0     C82416   3.497   0.311   9.102  0.5297  0.2596  0.1115
  598MOL0     O82417   3.549   0.187   9.145 -0.4538 -0.0323 -0.2573
  598MOL0     C82418   3.652   0.186   9.229  0.5536 -0.2041 -0.0746
  598MOL0     C82419   3.773   0.133   9.185 -0.5637 -0.8721  0.1518
  598MOL0     C82420   3.882   0.136   9.282 -0.0083  0.5575 -0.0078
  598MOL0     C82421   3.872   0.188   9.411  0.1622  0.1006 -0.1101
  598MOL0     O82422   3.984   0.165   9.489  0.1372 -0.2908 -0.7283
  598MOL0     C82423   4.005   0.258   9.596 -0.7016 -0.6082 -1.3656
  598MOL0     C82424   3.952   0.204   9.730  0.5088  0.3759 -0.6235
  598MOL0     C82425   3.992   0.309   9.835 -0.6146  0.1632  0.1683
  598MOL0     C82426   4.109   0.261   9.925 -0.0417  0.0007 -0.1509
  598MOL0     C82427   4.120   0.322  10.060  0.6328 -0.1969 -0.1487
  598MOL0     C82428   4.112   0.467  10.069  1.2804 -1.0609  0.6343
  598MOL0     C82429   4.214   0.539   9.980  0.1408  0.1850  0.1906
  598MOL0     C82430   4.241   0.678  10.040 -0.9833  0.1243 -0.0280
  598MOL0    Cl82431   4.370   0.748   9.956  0.3801  0.2405 -0.5205
  598MOL0     C82432   3.740   0.233   9.453  0.0045 -1.0142  0.0492
  598MOL0     C82433   3.633   0.232   9.362 -0.1821 -1.0633 -0.8932
  598MOL0     O82434   3.558   0.422   9.105  0.4270  0.6101 -0.1520
  598MOL0     C82435   3.269   0.336   9.178  0.5948  0.0323  0.1404
  598MOL0     C82436   3.133   0.360   9.163  0.0828 -0.7039  0.3499
  598MOL0     N82437   2.700   0.608   9.627  0.1108 -0.1403  0.2747
  598MOL0     N82438   2.595   0.616   9.696 -0.3148  0.4577  0.6199
  598MOL0     C82439   1.463   0.649  10.084  0.1994  0.0363  0.4326
  598MOL0     C82440   1.379   0.585  10.176 -0.8711 -0.4375  0.4366
  598MOL0     C82441   1.092   0.300  10.353  0.4151  0.2557 -1.3294
  598MOL0     C82442   1.161   0.238  10.468 -0.0845 -0.9918  1.2353
  598MOL0     C82443   1.089   0.168  10.567 -0.9151 -0.4076  0.7504
  598MOL0     C82444   0.949   0.167  10.575  0.5874  0.1600 -0.4095
  598MOL0     O82445   0.890   0.099  10.679 -0.7463 -0.1228  0.0576
  598MOL0     C82446   0.948   0.108  10.809 -0.2443 -0.3763 -0.4861
  598MOL0     C82447   0.842   0.080  10.908  0.2139  1.2740  1.1784
  598MOL0     C82448   0.736   0.200  10.913  0.3708 -0.4488  0.3177
  598MOL0     C82449   0.610   0.191  10.830  0.0816  0.3093 -0.2173
  598MOL0     C82450   0.512   0.300  10.829 -0.2452  0.6231 -0.1810
  598MOL0     C82451   0.435   0.395  10.853 -0.5337  0.6413 -0.0389
  598MOL0     C82452   0.886   0.234  10.466  0.5135  0.2706 -0.0576
  598MOL0     C82453   0.948   0.296  10.355  0.7380  0.3660 -0.0541
  598MOL0     C82454   0.862   0.363  10.243 -0.1765 -0.7744  0.1176
  598MOL0     H82455   1.475   0.267  10.136  3.1592  0.4937  1.4932
  598MOL0     H82456   1.650   0.372  10.013  2.5356  1.8290  0.2328
  598MOL0     H82457   1.602   0.826   9.944 -0.4801 -1.1817  0.2980
  598MOL0     H82458   1.564   0.722   9.802  0.9762 -2.7678  1.4321
  598MOL0     H82459   1.723   0.906   9.767 -0.6444  1.5670  2.2664
  598MOL0     H82460   1.831   0.848   9.892 -0.0207  0.4001 -1.5458
  598MOL0     H82461   1.879   0.646   9.769  0.5666 -2.6117 -2.8475
  598MOL0     H82462   1.765   0.686   9.640  0.7117  1.5659 -1.2318
  598MOL0     H82463   1.899   0.873   9.582 -0.9635 -1.7669 -0.5053
  598MOL0     H82464   2.010   0.864   9.717  1.7215 -1.3337  0.7744
  598MOL0     H82465   2.119   0.779   9.513 -0.6639  0.9756  0.3441
  598MOL0     H82466   2.011   0.655   9.488  0.2453  1.1141 -0.9976
  598MOL0     H82467   2.114   0.642   9.768 -0.0792 -1.4373  0.2227
  598MOL0     H82468   2.084   0.525   9.638 -1.3776  0.5113 -1.5411
  598MOL0     H82469   2.280   0.606   9.523  2.2343  0.6255 -0.7319
  598MOL0     H82470   2.318   0.509   9.665 -0.0084  0.2079  1.1965
  598MOL0     H82471   2.336   0.813   9.636  2.0480 -0.4715 -2.1888
  598MOL0     H82472   2.361   0.728   9.793  0.4192  2.4440 -0.6056
  598MOL0     H82473   2.498   0.800   9.451  0.4168  0.5691  1.2977
  598MOL0     H82474   2.861   0.669   9.412 -1.0765 -0.6992  1.5793
  598MOL0     H82475   2.750   0.786   9.339  0.6391  0.3494 -0.5474
  598MOL0     H82476   2.713   0.481   9.330 -1.3342  1.1499  0.6770
  598MOL0     H82477   2.634   0.594   9.222 -1.6291 -1.8443  0.4651
  598MOL0     H82478   2.847   0.625   9.097 -1.0029 -0.7123 -0.4930
  598MOL0     H82479   2.944   0.587   9.232 -1.4494  2.9732  0.1657
  598MOL0     H82480   2.854   0.340   9.196 -0.2836  1.6382  1.8846
  598MOL0     H82481   2.741   0.398   9.083  1.1623 -1.1740 -0.8437
  598MOL0     H82482   3.115   0.370   8.834 -0.5118  2.1198  1.1058
  598MOL0     H82483   3.339   0.372   8.734  0.9871  3.0848  0.8286
  598MOL0     H82484   3.402   0.207   8.790  1.1548  0.2209  1.5290
  598MOL0     H82485   3.493   0.343   8.823  0.3472 -2.3161  3.2014
  598MOL0     H82486   3.779   0.084   9.089  1.1142 -2.5933  1.0774
  598MOL0     H82487   3.973   0.097   9.237 -0.3277  0.5806 -0.6889
  598MOL0     H82488   4.113   0.272   9.605 -0.8450 -0.3784  0.4534
  598MOL0     H82489   3.960   0.356   9.578  2.2127  0.9692 -0.6365
  598MOL0     H82490   3.846   0.179   9.726  1.0613 -2.1482 -1.1728
  598MOL0     H82491   3.997   0.106   9.746 -0.1110  0.1639 -0.1756
  598MOL0     H82492   3.904   0.322   9.898 -1.6131  1.4780 -1.4324
  598MOL0     H82493   4.007   0.407   9.789  0.4360 -0.2092 -0.3229
  598MOL0     H82494   4.195   0.291   9.865 -0.0868  2.5156  0.9091
  598MOL0     H82495   4.108   0.155   9.949  1.5648 -0.6600 -2.6400
  598MOL0     H82496   4.043   0.279  10.125 -1.1060 -0.2975 -2.1643
  598MOL0     H82497   4.216   0.297  10.105 -0.2646 -1.6881  1.0616
  598MOL0     H82498   4.113   0.499  10.173  1.7048  0.5843  0.1446
  598MOL0     H82499   4.012   0.500  10.039  1.6017 -1.4013 -0.9025
  598MOL0     H82500   4.169   0.549   9.881  0.6921  0.5056 -0.0317
  598MOL0     H82501   4.301   0.473   9.977 -1.5271 -2.2177  1.4058
  598MOL0     H82502   4.273   0.666  10.144 -2.3906 -1.2085  0.3028
  598MOL0     H82503   4.159   0.748  10.023  0.4034  1.6843 -0.5481
  598MOL0     H82504   3.728   0.265   9.556  0.9739  1.7805 -0.6348
  598MOL0     H82505   3.537   0.265   9.399  0.9000  0.7362  0.4733
  598MOL0     H82506   3.314   0.317   9.275 -2.7516 -0.9610  1.6387
  598MOL0     H82507   3.074   0.384   9.251  0.4655  0.5324  0.2818
  598MOL0     H82508   1.457   0.756  10.071  2.7782  0.0224 -1.5629
  598MOL0     H82509   1.306   0.646  10.229 -0.4779 -0.1005  0.6025
  598MOL0     H82510   1.269   0.237  10.477  0.2202 -0.8563 -1.4720
  598MOL0     H82511   1.140   0.122  10.652 -2.1209  2.5720  3.2653
  598MOL0     H82512   1.028   0.035  10.825  0.7209  0.4671 -1.3426
  598MOL0     H82513   0.990   0.206  10.834  2.8156 -1.8752  0.8470
  598MOL0     H82514   0.881   0.073  11.010 -3.5617  0.1369  2.7393
  598MOL0     H82515   0.796  -0.018  10.898  0.0829  1.0935  3.1613
  598MOL0     H82516   0.706   0.200  11.018  2.8776  0.7651  1.1147
  598MOL0     H82517   0.782   0.297  10.891 -0.3148 -0.3214 -0.5759
  598MOL0     H82518   0.571   0.098  10.874 -0.0682  0.9717  1.0824
  598MOL0     H82519   0.641   0.181  10.726  3.2499  3.1542  0.2722
  598MOL0     H82520   0.363   0.469  10.882 -2.7663 -1.7514  0.7815
  598MOL0     H82521   0.778   0.233  10.472  0.6125 -0.2951  2.7211
  598MOL0     H82522   0.912   0.446  10.191 -0.6283 -0.1645  0.6352
  598MOL0     H82523   0.825   0.290  10.170 -1.8209 -0.4837  0.6196
  598MOL0     H82524   0.776   0.407  10.295  1.4163  0.9678  1.4390
  599MOL0     O82525   1.988   6.460   7.597 -0.4482 -0.0735 -0.3285
  599MOL0     C82526   1.895   6.465   7.683 -0.1698 -0.2288  0.1820
  599MOL0     O82527   1.908   6.500   7.813 -0.1302  0.2841 -0.0308
  599MOL0     C82528   2.031   6.534   7.860  0.2274  0.0063 -0.2743
  599MOL0     C82529   2.123   6.628   7.796  0.2649  0.6005 -0.5070
  599MOL0     C82530   2.237   6.669   7.863 -0.2997 -0.3036  0.4347
  599MOL0     C82531   2.265   6.616   7.989  0.1670 -1.0385 -0.2129
  599MOL0     O82532   2.379   6.659   8.063  0.3479 -0.0266  0.2675
  599MOL0     C82533   2.459   6.765   8.011 -0.0897 -0.3957  0.3353
  599MOL0     C82534   2.564   6.819   8.100  0.1199 -0.5369  1.1567
  599MOL0     C82535   2.688   6.734   8.103 -0.3068  0.3273 -0.5605
  599MOL0     C82536   2.785   6.787   8.207 -0.5619 -0.4779  0.6510
  599MOL0     C82537   2.923   6.729   8.199  0.1200 -1.2428  0.0793
  599MOL0     C82538   3.004   6.782   8.312  0.7039  0.6735 -0.8557
  599MOL0     C82539   3.150   6.752   8.273  0.6869  0.1385 -0.1659
  599MOL0     C82540   3.214   6.834   8.159  0.0286 -0.2124  0.2953
  599MOL0     N82541   3.193   6.983   8.179 -0.2570  0.0127  0.0071
  599MOL0     C82542   3.260   7.055   8.268  0.5245 -0.2814  0.3730
  599MOL0     C82543   3.215   7.183   8.242 -1.0183  0.3444 -0.0862
  599MOL0     C82544   3.259   7.315   8.303 -0.0293  1.5793 -0.0640
  599MOL0     C82545   3.362   7.384   8.209 -0.2080 -0.2076  0.7735
  599MOL0     C82546   3.393   7.530   8.249  0.4624 -0.7578  0.0022
  599MOL0     C82547   3.483   7.552   8.370  0.4147 -0.8047 -0.1915
  599MOL0     O82548   3.612   7.490   8.353  0.5211  0.4806 -0.8394
  599MOL0     C82549   3.698   7.480   8.456 -0.3670 -0.0108 -0.2932
  599MOL0     C82550   3.670   7.499   8.592 -0.6840  0.6754  0.7672
  599MOL0     C82551   3.764   7.492   8.696 -0.6792 -0.3416 -0.1565
  599MOL0     C82552   3.716   7.504   8.844  1.0662 -0.0153  0.0585
  599MOL0     C82553   3.902   7.470   8.669  0.7955 -0.4483  0.0955
  599MOL0     C82554   4.004   7.466   8.768  0.5916  0.3557 -0.0603
  599MOL0     O82555   4.123   7.408   8.721 -0.4568 -0.4534 -0.5149
  599MOL0     C82556   4.227   7.396   8.810 -0.4791  0.5779  0.9837
  599MOL0     C82557   4.218   7.299   8.908  0.0293 -0.3777  0.8582
  599MOL0     C82558   4.321   7.285   8.994 -0.7769 -0.4096 -0.1442
  599MOL0     C82559   4.439   7.366   8.986  0.2140 -0.3221 -0.2115
  599MOL0     O82560   4.533   7.372   9.084  0.4897 -0.2783  0.1977
  599MOL0     C82561   4.633   7.272   9.076  0.4680  0.2471  0.6114
  599MOL0     C82562   4.748   7.313   8.987 -0.2949  0.4484  0.7660
  599MOL0     C82563   4.844   7.202   8.966  0.0575  0.0506 -0.1254
  599MOL0     C82564   4.970   7.253   8.895 -0.1790  0.4491 -0.4484
  599MOL0     C82565   5.048   7.133   8.840  0.3441  1.2986  0.0164
  599MOL0     C82566   5.160   7.191   8.758 -0.4679 -0.1801  0.0286
  599MOL0     C82567   5.267   7.086   8.729  0.0029  0.3998  0.2080
  599MOL0     C82568   5.361   7.139   8.621 -0.5143  0.4956 -0.5806
  599MOL0    Cl82569   5.489   7.019   8.624 -0.3347  0.0041 -0.0947
  599MOL0     C82570   4.446   7.465   8.890 -0.0780 -0.4473  0.1245
  599MOL0     C82571   4.345   7.479   8.802 -0.4796 -0.5936 -0.4547
  599MOL0     O82572   3.992   7.499   8.888  1.2239  0.8314  0.3744
  599MOL0     C82573   3.931   7.438   8.537  1.0539  0.5200  0.2406
  599MOL0     C82574   3.835   7.450   8.432  0.2646  0.7174 -0.7194
  599MOL0     N82575   3.126   7.179   8.135  0.1472 -0.0990  0.3819
  599MOL0     N82576   3.120   7.057   8.091 -0.1780  0.4464 -0.3719
  599MOL0     C82577   2.188   6.518   8.043 -0.6067  0.4815  0.8354
  599MOL0     C82578   2.076   6.477   7.978 -0.4707 -0.0221 -0.3050
  599MOL0     C82579   1.762   6.446   7.644 -0.6068  0.4384  0.0724
  599MOL0     C82580   1.678   6.376   7.729 -0.0866 -0.2159  0.0424
  599MOL0     C82581   1.531   6.367   7.710 -0.0049 -0.3232  0.0486
  599MOL0     C82582   1.473   6.421   7.598  0.1209  0.1675 -0.9014
  599MOL0     O82583   1.338   6.411   7.580 -0.1581 -0.6956  0.3517
  599MOL0     C82584   1.244   6.381   7.682 -0.2398 -0.3906  0.0285
  599MOL0     C82585   1.106   6.400   7.632 -0.5430  0.4004  0.1600
  599MOL0     C82586   0.988   6.358   7.734  0.0112  0.2557  0.1492
  599MOL0     C82587   0.977   6.481   7.837 -0.0254  0.3998  0.5930
  599MOL0     C82588   0.945   6.609   7.780 -0.2296  0.5337 -0.1543
  599MOL0     C82589   0.914   6.712   7.718 -0.0722  0.3197 -0.0191
  599MOL0     C82590   1.563   6.482   7.508  0.7825 -0.6426  0.3896
  599MOL0     C82591   1.704   6.497   7.525 -0.8113 -0.3451  0.6715
  599MOL0     C82592   1.782   6.578   7.432 -0.2879  0.6317 -0.1427
  599MOL0     H82593   2.091   6.665   7.699  1.7613 -0.1970 -1.3373
  599MOL0     H82594   2.299   6.734   7.803  0.2410  0.0839  1.3814
  599MOL0     H82595   2.408   6.852   7.969  0.6905 -0.9048 -1.7875
  599MOL0     H82596   2.510   6.723   7.924  2.5852  0.7067  1.2622
  599MOL0     H82597   2.614   6.902   8.050  1.3841 -1.6865  0.4603
  599MOL0     H82598   2.530   6.846   8.201  0.2865  2.6327  0.4698
  599MOL0     H82599   2.650   6.634   8.129 -0.2695  0.7299  1.2067
  599MOL0     H82600   2.751   6.752   8.015 -0.5377  0.0140 -0.7895
  599MOL0     H82601   2.797   6.895   8.194 -0.7237 -0.4495  0.7291
  599MOL0     H82602   2.747   6.772   8.309 -0.4147  2.1444  1.1557
  599MOL0     H82603   2.972   6.765   8.107  1.3951  0.1306  1.2426
  599MOL0     H82604   2.915   6.620   8.191 -1.9080 -1.1045 -0.1830
  599MOL0     H82605   2.984   6.887   8.336  2.4420  0.6461  1.0352
  599MOL0     H82606   2.982   6.730   8.406 -1.3240  1.7945 -0.6717
  599MOL0     H82607   3.163   6.645   8.254 -0.3226  0.1249 -0.8854
  599MOL0     H82608   3.212   6.777   8.359  0.7133 -0.2813 -0.0626
  599MOL0     H82609   3.323   6.820   8.168  0.4216  2.0712 -0.3448
  599MOL0     H82610   3.179   6.792   8.065 -1.6062 -1.4121  1.3946
  599MOL0     H82611   3.345   7.040   8.334  1.0691  1.5565  0.1391
  599MOL0     H82612   3.316   7.283   8.391 -0.1103 -0.7537 -0.7942
  599MOL0     H82613   3.170   7.376   8.325 -0.7707  0.2959  0.5868
  599MOL0     H82614   3.455   7.327   8.220  0.9928  1.3378 -0.7978
  599MOL0     H82615   3.340   7.372   8.103  1.2574 -1.4951  0.5777
  599MOL0     H82616   3.443   7.570   8.160 -1.7274 -2.3977 -2.0745
  599MOL0     H82617   3.299   7.581   8.270  1.6686  1.9332 -0.6392
  599MOL0     H82618   3.492   7.660   8.384  2.8001 -1.2676  2.9372
  599MOL0     H82619   3.435   7.508   8.458 -1.4783 -1.6910 -1.5796
  599MOL0     H82620   3.568   7.514   8.627 -0.6015  0.2907  1.1836
  599MOL0     H82621   3.764   7.598   8.875  2.1122 -0.0838 -1.2423
  599MOL0     H82622   3.748   7.419   8.905  4.0780  0.1060 -1.1674
  599MOL0     H82623   3.609   7.509   8.864  1.0296 -1.8406  0.4488
  599MOL0     H82624   4.144   7.219   8.918 -2.2998  1.5119 -0.2137
  599MOL0     H82625   4.318   7.225   9.084 -0.6179  0.1083  0.2137
  599MOL0     H82626   4.671   7.234   9.171 -0.5324 -2.4127  0.0372
  599MOL0     H82627   4.583   7.185   9.033  0.6094  0.9772 -1.1208
  599MOL0     H82628   4.708   7.343   8.890 -0.8200 -0.3078  0.7426
  599MOL0     H82629   4.785   7.400   9.043  1.3397 -0.4798  1.1988
  599MOL0     H82630   4.798   7.119   8.913 -0.6483  0.6381 -0.4528
  599MOL0     H82631   4.871   7.167   9.066  0.7668  0.1163 -0.2885
  599MOL0     H82632   5.036   7.300   8.968 -2.2271  0.1827  1.6507
  599MOL0     H82633   4.937   7.328   8.823 -1.4160 -0.5621 -0.9678
  599MOL0     H82634   5.081   7.064   8.918  3.0871 -0.1912 -2.3063
  599MOL0     H82635   4.986   7.070   8.776  0.4848  0.5325  0.6231
  599MOL0     H82636   5.208   7.277   8.807 -2.4390  0.2801  1.2505
  599MOL0     H82637   5.109   7.231   8.670  0.2653 -0.9423 -0.7577
  599MOL0     H82638   5.214   6.996   8.696 -1.7237  0.6702  2.0134
  599MOL0     H82639   5.322   7.051   8.817 -0.8249  1.0246  0.9972
  599MOL0     H82640   5.408   7.227   8.667  1.5463 -0.1959 -1.2188
  599MOL0     H82641   5.323   7.168   8.523  1.9477 -0.5947 -1.9657
  599MOL0     H82642   4.532   7.530   8.880  0.1937 -0.8848 -0.4439
  599MOL0     H82643   4.342   7.561   8.731 -3.9082  1.4729  1.8104
  599MOL0     H82644   4.028   7.407   8.498  1.0402  0.3927  0.3084
  599MOL0     H82645   3.862   7.430   8.329 -0.4271 -0.7674 -0.6459
  599MOL0     H82646   2.208   6.494   8.147 -0.5629 -1.9346  0.3325
  599MOL0     H82647   2.012   6.395   8.009  0.0362 -1.7644 -3.4044
  599MOL0     H82648   1.710   6.327   7.821  2.4899 -0.5456 -0.9541
  599MOL0     H82649   1.470   6.311   7.780  1.1685 -0.6889  0.8017
  599MOL0     H82650   1.250   6.278   7.717 -0.7548 -1.0988 -1.8498
  599MOL0     H82651   1.262   6.454   7.762 -0.3672  0.0248 -0.3174
  599MOL0     H82652   1.100   6.341   7.540  1.2943 -0.2630  0.4276
  599MOL0     H82653   1.092   6.504   7.602 -0.9064  0.2973 -0.0325
  599MOL0     H82654   0.892   6.344   7.682 -0.2650  0.7182  0.5327
  599MOL0     H82655   1.017   6.266   7.786 -1.7076 -0.4963 -0.1509
  599MOL0     H82656   1.072   6.481   7.891  0.9260 -3.9645 -0.6910
  599MOL0     H82657   0.896   6.459   7.907 -1.3666 -1.6622 -1.4641
  599MOL0     H82658   0.871   6.806   7.690 -0.0154  0.3762  0.0834
  599MOL0     H82659   1.518   6.516   7.415 -1.4711 -1.8020  1.0057
  599MOL0     H82660   1.834   6.511   7.364  0.8535 -1.2878  2.4731
  599MOL0     H82661   1.711   6.631   7.367 -0.9871 -1.6612 -1.3247
  599MOL0     H82662   1.846   6.646   7.488  2.9977 -2.2698 -0.0972
  600MOL0     O82663   8.341   2.209   7.490 -0.2577 -0.1751 -0.3386
  600MOL0     C82664   8.295   2.217   7.606 -0.0387  0.0034  0.1066
  600MOL0     O82665   8.372   2.229   7.722 -0.0956 -0.4922 -0.0051
  600MOL0     C82666   8.511   2.243   7.699  0.9738 -0.0595 -0.3950
  600MOL0     C82667   8.603   2.130   7.694  0.5505  0.1152 -0.5249
  600MOL0     C82668   8.740   2.153   7.682  0.3711 -0.6513 -0.9021
  600MOL0     C82669   8.792   2.284   7.673 -0.3710  0.1023  0.2131
  600MOL0     O82670   8.927   2.286   7.664 -0.1719 -0.2142 -0.5156
  600MOL0     C82671   8.991   2.413   7.644  0.2641 -0.1140 -0.3985
  600MOL0     C82672   9.142   2.393   7.592  0.0098  0.2880 -0.2289
  600MOL0     C82673   9.214   2.283   7.679 -0.2711  0.3115  1.1317
  600MOL0     C82674   9.298   2.180   7.604 -0.1015 -0.2033 -0.1867
  600MOL0     C82675   9.372   2.113   7.725 -0.1952  0.2621 -0.1036
  600MOL0     C82676   9.452   1.994   7.694 -0.3782  0.4715 -0.1234
  600MOL0     C82677   9.513   1.934   7.824 -0.1752 -0.0830 -0.1087
  600MOL0     C82678   9.623   2.007   7.891 -0.5758  0.5483 -0.4910
  600MOL0     N82679   9.708   1.914   7.958 -0.8488  0.2130 -0.2928
  600MOL0     C82680   9.804   1.829   7.901  0.4231  1.1359  0.2855
  600MOL0     C82681   9.857   1.750   8.001  0.5756 -0.7020  0.4624
  600MOL0     C82682   9.974   1.665   7.974 -0.4523  1.2701 -0.4210
  600MOL0     C82683  10.105   1.744   7.975 -0.2159  0.3494 -0.0803
  600MOL0     C82684  10.217   1.647   7.953  0.0039 -0.0643  0.5141
  600MOL0     C82685  10.349   1.710   7.946 -0.6546  0.6957  0.6209
  600MOL0     O82686  10.364   1.745   7.811 -0.2244  0.3304  0.5708
  600MOL0     C82687  10.491   1.766   7.763  0.3604 -0.1552  0.5115
  600MOL0     C82688  10.496   1.801   7.626  0.5049  0.8137 -0.4373
  600MOL0     C82689  10.621   1.808   7.552  0.2308 -0.3464 -0.1619
  600MOL0     C82690  10.623   1.839   7.411  0.3884  0.1331  0.0276
  600MOL0     C82691  10.746   1.799   7.621  1.0614 -0.5712  0.7856
  600MOL0     C82692  10.877   1.803   7.546  0.5880  0.1256 -0.2541
  600MOL0     O82693  10.913   1.905   7.458  0.3686  0.3231 -0.2358
  600MOL0     C82694  11.006   1.886   7.361 -0.0929  0.4110 -0.3471
  600MOL0     C82695  11.040   1.768   7.300  0.0096 -0.3589 -0.3501
  600MOL0     C82696  11.131   1.764   7.192 -0.6495 -0.2126 -0.5299
  600MOL0     C82697  11.185   1.881   7.129  0.2167  0.1313  0.1415
  600MOL0     O82698  11.249   1.863   7.013 -0.3330 -0.4264  0.8125
  600MOL0     C82699  11.359   1.952   6.990  0.9754 -0.7900 -1.0715
  600MOL0     C82700  11.413   1.924   6.848 -0.2521 -0.4372 -0.2387
  600MOL0     C82701  11.296   1.916   6.749  0.4197  0.5297  0.4137
  600MOL0     C82702  11.341   1.858   6.611 -0.3491  0.1033 -0.4267
  600MOL0     C82703  11.253   1.904   6.498 -0.7325 -0.4119 -0.3481
  600MOL0     C82704  11.099   1.876   6.483 -0.6035 -0.3557 -0.5222
  600MOL0     C82705  11.054   1.927   6.345 -0.2978 -0.2569 -0.6696
  600MOL0     C82706  10.909   1.966   6.356  0.1445 -0.8065  0.2328
  600MOL0    Cl82707  10.804   1.834   6.402  0.1203 -0.1338  0.1072
  600MOL0     C82708  11.157   2.000   7.200  0.7284 -0.1465 -0.1978
  600MOL0     C82709  11.074   1.996   7.318  0.7824 -0.0102  0.0595
  600MOL0     O82710  10.954   1.718   7.592  0.8526  0.8423  0.6919
  600MOL0     C82711  10.737   1.775   7.764  0.6773 -0.7571  0.8334
  600MOL0     C82712  10.620   1.762   7.831  0.5877  1.8058 -0.1748
  600MOL0     N82713   9.794   1.795   8.114 -0.3277  0.1186 -1.0295
  600MOL0     N82714   9.699   1.877   8.089  0.1931  0.0440  0.0241
  600MOL0     C82715   8.703   2.396   7.698 -0.6011  0.7978 -0.8042
  600MOL0     C82716   8.568   2.366   7.718  0.0491  0.1903  0.5745
  600MOL0     C82717   8.149   2.262   7.631 -0.8417 -0.2239  0.1729
  600MOL0     C82718   8.113   2.315   7.756  0.3078 -0.2237  0.3872
  600MOL0     C82719   7.978   2.355   7.779 -0.2857  1.0037 -0.2048
  600MOL0     C82720   7.875   2.326   7.696 -0.7973  0.6485  0.4240
  600MOL0     O82721   7.747   2.363   7.738  0.5699  0.3310  0.3786
  600MOL0     C82722   7.640   2.361   7.658  0.2961  0.5470 -0.1141
  600MOL0     C82723   7.512   2.383   7.741  0.3182 -0.2843 -0.2049
  600MOL0     C82724   7.395   2.408   7.648 -0.5239  0.4774 -0.5373
  600MOL0     C82725   7.284   2.307   7.654 -0.1949 -0.3200 -0.5848
  600MOL0     C82726   7.323   2.179   7.603  0.2740  0.4240  0.3759
  600MOL0     C82727   7.346   2.063   7.564 -0.2235 -0.0291 -0.7828
  600MOL0     C82728   7.911   2.272   7.568  0.0581 -0.2676 -0.6164
  600MOL0     C82729   8.044   2.239   7.532  0.0591 -0.4851 -0.2094
  600MOL0     C82730   8.077   2.180   7.394  0.1608 -0.0091  0.2903
  600MOL0     H82731   8.540   2.042   7.684 -1.6993  1.4526  0.9401
  600MOL0     H82732   8.800   2.065   7.659  0.2159 -1.2161  0.7418
  600MOL0     H82733   9.004   2.464   7.740  1.6149  1.4558 -1.3539
  600MOL0     H82734   8.933   2.472   7.572 -2.2275 -0.4372  1.2164
  600MOL0     H82735   9.147   2.368   7.486 -3.4335 -1.0059 -0.2029
  600MOL0     H82736   9.190   2.491   7.587  0.0461  0.2068 -1.7471
  600MOL0     H82737   9.284   2.337   7.742 -1.3188  1.6341  1.2105
  600MOL0     H82738   9.145   2.223   7.739 -0.6881  0.3760  0.7307
  600MOL0     H82739   9.230   2.104   7.566 -1.5093  0.9799 -0.1272
  600MOL0     H82740   9.361   2.212   7.520 -1.2658  2.2884 -0.2128
  600MOL0     H82741   9.301   2.080   7.802 -0.1411  1.4831  0.4830
  600MOL0     H82742   9.432   2.191   7.773  0.3095 -0.8261  1.0830
  600MOL0     H82743   9.400   1.912   7.645 -1.1245 -0.4601  2.1033
  600MOL0     H82744   9.536   2.027   7.632  1.9231 -2.6080  1.0608
  600MOL0     H82745   9.552   1.836   7.794  1.0750  0.2409  0.4175
  600MOL0     H82746   9.431   1.926   7.895 -1.0353  0.3714 -1.0203
  600MOL0     H82747   9.689   2.061   7.823  4.5172 -2.2807  1.6246
  600MOL0     H82748   9.575   2.079   7.958 -0.1650  0.2492  0.1377
  600MOL0     H82749   9.830   1.826   7.795 -0.9025 -0.9874 -0.0465
  600MOL0     H82750   9.965   1.596   7.890 -0.0633  0.7777 -0.0669
  600MOL0     H82751   9.976   1.601   8.063  1.9159  1.2712 -0.3915
  600MOL0     H82752  10.106   1.824   7.901 -1.1247 -0.3118 -0.8226
  600MOL0     H82753  10.123   1.796   8.070 -1.8497  0.8818 -0.0196
  600MOL0     H82754  10.225   1.584   8.042 -2.5485 -1.8656 -0.4303
  600MOL0     H82755  10.187   1.578   7.874 -0.4103 -0.0519  0.6596
  600MOL0     H82756  10.354   1.798   8.011  1.4929  1.0906  0.0028
  600MOL0     H82757  10.426   1.636   7.973  0.5292  0.6892 -2.3372
  600MOL0     H82758  10.403   1.820   7.574 -1.4787 -1.1215  2.1674
  600MOL0     H82759  10.692   1.762   7.375  1.6498 -0.8941  4.1033
  600MOL0     H82760  10.657   1.943   7.399 -0.6068  0.1909 -3.1284
  600MOL0     H82761  10.526   1.817   7.367  0.8709 -2.6859  0.1770
  600MOL0     H82762  11.005   1.671   7.336  0.8620 -0.9885 -1.1566
  600MOL0     H82763  11.163   1.670   7.146  4.0699  0.7394  0.2419
  600MOL0     H82764  11.319   2.053   6.998 -1.0806 -1.6655  0.5818
  600MOL0     H82765  11.444   1.937   7.057  1.0034  2.3670 -0.2755
  600MOL0     H82766  11.490   2.000   6.829  0.0450 -0.8475 -0.6868
  600MOL0     H82767  11.460   1.826   6.848  0.1499 -0.2986  2.0810
  600MOL0     H82768  11.260   2.020   6.744 -0.6499  0.1534 -3.2732
  600MOL0     H82769  11.215   1.852   6.783  2.9162 -2.4046  1.2541
  600MOL0     H82770  11.355   1.750   6.624 -0.0700  0.0048 -1.4765
  600MOL0     H82771  11.444   1.891   6.599 -0.1387 -0.3124  0.1684
  600MOL0     H82772  11.273   2.012   6.496  2.5039 -0.9120 -0.4895
  600MOL0     H82773  11.293   1.860   6.406 -2.5300 -2.2260 -0.3233
  600MOL0     H82774  11.043   1.935   6.557 -0.6237 -1.5897  0.4732
  600MOL0     H82775  11.084   1.772   6.511  0.2360 -0.0865  1.0527
  600MOL0     H82776  11.077   1.851   6.269 -1.2442 -1.3381  0.0923
  600MOL0     H82777  11.123   2.011   6.329 -1.3083  1.0991  1.5710
  600MOL0     H82778  10.877   2.003   6.258  1.5030 -1.1177 -0.3614
  600MOL0     H82779  10.892   2.045   6.429  0.0465 -0.1218 -0.5195
  600MOL0     H82780  11.198   2.095   7.169  1.2094 -0.4369 -0.4762
  600MOL0     H82781  11.053   2.088   7.371 -0.0818  1.0360 -2.0014
  600MOL0     H82782  10.826   1.767   7.825  0.9955 -2.9627  0.1842
  600MOL0     H82783  10.620   1.741   7.938 -0.1968 -0.3831 -0.5615
  600MOL0     H82784   8.741   2.497   7.709 -0.1788  0.4939  0.7141
  600MOL0     H82785   8.498   2.448   7.734 -0.1843  0.3624 -1.1150
  600MOL0     H82786   8.184   2.337   7.835  2.7633  0.8293 -1.9434
  600MOL0     H82787   7.972   2.398   7.878  0.0745  1.2679 -0.2947
  600MOL0     H82788   7.651   2.439   7.582  2.7716  0.4001  0.0269
  600MOL0     H82789   7.627   2.264   7.608 -1.0420 -0.3080  1.7540
  600MOL0     H82790   7.524   2.477   7.797  3.0425  0.9426 -2.5782
  600MOL0     H82791   7.498   2.297   7.806 -1.5282  2.0199  2.7458
  600MOL0     H82792   7.354   2.505   7.675 -0.6586 -0.0289  1.2468
  600MOL0     H82793   7.437   2.417   7.547 -0.5982 -2.2230 -0.8877
  600MOL0     H82794   7.201   2.339   7.589 -1.6791  1.8167  2.1663
  600MOL0     H82795   7.235   2.305   7.751 -0.6360 -0.8942 -0.8135
  600MOL0     H82796   7.379   1.965   7.540 -0.3194 -1.1881  3.1382
  600MOL0     H82797   7.824   2.258   7.505 -1.6158  3.3071  0.5804
  600MOL0     H82798   7.985   2.157   7.339  1.0955 -0.8144 -0.9805
  600MOL0     H82799   8.131   2.260   7.343 -0.0567  0.4446  0.7537
  600MOL0     H82800   8.141   2.093   7.405  0.9828  0.5679  0.1211
  601MOL0     O82801   1.960   5.492   6.064 -0.3451  0.0269  0.5681
  601MOL0     C82802   1.902   5.522   5.960 -0.2418 -0.3337 -0.6114
  601MOL0     O82803   1.961   5.572   5.855 -0.5443  0.0633  0.4750
  601MOL0     C82804   2.100   5.595   5.871  1.4145 -0.3359  0.9312
  601MOL0     C82805   2.199   5.502   5.901  0.4298  0.2437 -1.0124
  601MOL0     C82806   2.336   5.533   5.898  1.1941  0.3254 -0.2549
  601MOL0     C82807   2.380   5.658   5.854 -0.2124 -0.1472 -0.9191
  601MOL0     O82808   2.511   5.698   5.857 -0.3964  0.0400  0.3659
  601MOL0     C82809   2.617   5.617   5.911  0.0436 -0.0092  0.1012
  601MOL0     C82810   2.746   5.698   5.895  0.0915 -0.3289  0.2089
  601MOL0     C82811   2.870   5.606   5.915  0.5618 -0.1516 -0.5374
  601MOL0     C82812   2.981   5.615   5.805  0.2200  0.1071  0.3239
  601MOL0     C82813   3.069   5.739   5.814 -0.3897 -0.4124  0.4235
  601MOL0     C82814   3.205   5.701   5.771 -0.2343  0.3645  0.4663
  601MOL0     C82815   3.216   5.634   5.638  0.0378 -1.0345 -0.0331
  601MOL0     C82816   3.349   5.656   5.568 -0.2288  0.6019 -0.7252
  601MOL0     N82817   3.465   5.609   5.633 -0.4980  0.7913 -0.7773
  601MOL0     C82818   3.529   5.658   5.746  0.8205  0.7583  0.2345
  601MOL0     C82819   3.631   5.578   5.762  0.3411 -0.1961 -0.4744
  601MOL0     C82820   3.706   5.565   5.890  0.3396  0.1139 -0.3814
  601MOL0     C82821   3.852   5.521   5.859  0.2594  0.1155 -0.2640
  601MOL0     C82822   3.944   5.552   5.972  0.1009  0.9548  0.0146
  601MOL0     C82823   4.074   5.487   5.951 -0.0283 -0.6754 -0.1067
  601MOL0     O82824   4.157   5.545   6.053  0.6424  0.7395  0.5767
  601MOL0     C82825   4.291   5.509   6.038 -0.1802 -0.0875  0.8171
  601MOL0     C82826   4.385   5.596   6.090  0.6478  0.1984 -0.4980
  601MOL0     C82827   4.531   5.571   6.072  0.5968 -0.8860 -0.1671
  601MOL0     C82828   4.622   5.682   6.132  0.1818 -0.9297  0.4862
  601MOL0     C82829   4.573   5.465   5.993  0.6569 -0.1792  0.2158
  601MOL0     C82830   4.712   5.438   5.957 -0.2081 -0.3042 -0.4019
  601MOL0     O82831   4.741   5.305   5.927  0.2889  1.2533 -0.4301
  601MOL0     C82832   4.859   5.278   5.855 -0.3513  0.6424 -0.0563
  601MOL0     C82833   4.849   5.217   5.730 -0.2291 -0.1898  0.5174
  601MOL0     C82834   4.967   5.190   5.656  0.4272 -0.2794 -0.1741
  601MOL0     C82835   5.098   5.209   5.713  0.7311 -0.3605  0.2892
  601MOL0     O82836   5.208   5.162   5.650 -0.0207 -0.0032  0.0504
  601MOL0     C82837   5.206   5.087   5.526  0.4197  0.0697  0.2423
  601MOL0     C82838   5.342   5.036   5.481 -0.2198 -0.4389  0.8304
  601MOL0     C82839   5.427   5.159   5.445 -0.1763  0.5420 -0.1204
  601MOL0     C82840   5.579   5.126   5.426 -0.0742  0.5017 -1.0735
  601MOL0     C82841   5.648   5.229   5.342 -0.1677 -0.6313 -1.0718
  601MOL0     C82842   5.692   5.353   5.425 -0.3666 -0.0600 -0.3114
  601MOL0     C82843   5.794   5.445   5.362 -1.1335 -0.2718 -0.8402
  601MOL0     C82844   5.752   5.503   5.229 -0.1228 -0.2372 -0.2551
  601MOL0    Cl82845   5.774   5.385   5.088  0.1763 -0.1349 -0.1905
  601MOL0     C82846   5.107   5.247   5.847  0.7263  0.0858  0.3354
  601MOL0     C82847   4.992   5.284   5.909 -0.2374 -0.1187  0.3885
  601MOL0     O82848   4.791   5.531   5.949 -0.4349 -0.0883 -1.1310
  601MOL0     C82849   4.480   5.373   5.948  0.3910 -0.9741  0.4344
  601MOL0     C82850   4.342   5.403   5.971  0.3031  0.3159 -0.7033
  601MOL0     N82851   3.631   5.482   5.666  0.2799  0.2784 -0.0496
  601MOL0     N82852   3.536   5.504   5.580  0.0773 -0.5111 -0.7836
  601MOL0     C82853   2.284   5.746   5.812 -0.3523 -0.7521  0.4737
  601MOL0     C82854   2.146   5.721   5.835 -1.2109  0.2397 -0.4038
  601MOL0     C82855   1.751   5.499   5.951  0.0682 -0.1756  0.0746
  601MOL0     C82856   1.698   5.399   6.042  0.1354  0.2756  0.3335
  601MOL0     C82857   1.559   5.370   6.046 -0.7215  0.2797 -0.2202
  601MOL0     C82858   1.472   5.437   5.966  0.4224  0.1065  0.6689
  601MOL0     O82859   1.346   5.392   5.979 -0.1171  0.6041 -0.7885
  601MOL0     C82860   1.237   5.455   5.910  0.0993 -0.5275  0.3054
  601MOL0     C82861   1.109   5.383   5.929 -0.5792  0.7226  0.0635
  601MOL0     C82862   0.985   5.470   5.902 -0.5211  0.9463 -0.5116
  601MOL0     C82863   0.861   5.386   5.859 -0.2721 -0.5555 -0.3051
  601MOL0     C82864   0.807   5.312   5.976  0.7030 -0.1356  0.8179
  601MOL0     C82865   0.762   5.250   6.072 -1.0680 -0.5865  0.1215
  601MOL0     C82866   1.519   5.533   5.870 -0.2185  0.3008 -0.2554
  601MOL0     C82867   1.659   5.573   5.874 -0.8071  1.2729  0.7786
  601MOL0     C82868   1.693   5.694   5.800 -0.1174 -1.2412  0.7882
  601MOL0     H82869   2.172   5.402   5.931 -0.1596 -0.1633 -2.8036
  601MOL0     H82870   2.406   5.454   5.923  0.1117 -0.4407  0.4295
  601MOL0     H82871   2.620   5.532   5.843  0.6485  0.8019 -0.9066
  601MOL0     H82872   2.592   5.589   6.014 -1.8497  1.5382  0.1260
  601MOL0     H82873   2.742   5.737   5.793  1.9967 -1.0903 -0.2046
  601MOL0     H82874   2.747   5.788   5.956 -1.3515 -0.1989  0.0683
  601MOL0     H82875   2.921   5.627   6.009  2.9228 -1.2081 -1.4918
  601MOL0     H82876   2.833   5.503   5.920 -3.3665  1.1251  0.7727
  601MOL0     H82877   3.033   5.519   5.816 -1.7180 -1.5133 -3.1306
  601MOL0     H82878   2.938   5.613   5.705  0.6270 -1.1460  0.1562
  601MOL0     H82879   3.078   5.787   5.912 -0.3182 -0.4011  0.4114
  601MOL0     H82880   3.030   5.814   5.745 -1.4544 -0.4270  0.9918
  601MOL0     H82881   3.275   5.785   5.766  0.8443 -0.5744 -1.3469
  601MOL0     H82882   3.245   5.632   5.845 -0.6068 -1.9949 -1.4050
  601MOL0     H82883   3.144   5.687   5.575 -0.5848 -0.1584  1.3643
  601MOL0     H82884   3.192   5.528   5.652 -2.3444 -0.3783  1.5324
  601MOL0     H82885   3.347   5.607   5.470  1.4895  0.5176 -0.7458
  601MOL0     H82886   3.354   5.764   5.550 -0.9988  0.3641 -2.6047
  601MOL0     H82887   3.486   5.739   5.804 -2.2395  0.6004 -1.5960
  601MOL0     H82888   3.666   5.496   5.965  4.0763 -2.0430 -0.1652
  601MOL0     H82889   3.714   5.663   5.940 -0.2130  0.0213 -0.1059
  601MOL0     H82890   3.846   5.413   5.838  1.4222  0.1468 -0.8520
  601MOL0     H82891   3.886   5.567   5.766  2.7080  1.3181  1.1275
  601MOL0     H82892   3.944   5.661   5.984 -0.4446  1.0380 -0.6638
  601MOL0     H82893   3.910   5.501   6.063 -0.9437 -2.3189 -2.0482
  601MOL0     H82894   4.070   5.380   5.972  2.6477 -0.5405  1.6713
  601MOL0     H82895   4.113   5.499   5.850 -2.4912 -0.6062 -1.1161
  601MOL0     H82896   4.352   5.687   6.140  2.2403  0.9974 -0.8364
  601MOL0     H82897   4.690   5.641   6.207  0.6631  0.3067  0.7353
  601MOL0     H82898   4.565   5.762   6.180  0.3653 -0.3721 -0.2127
  601MOL0     H82899   4.691   5.712   6.053 -3.1673 -0.5682 -2.6014
  601MOL0     H82900   4.756   5.210   5.675  1.4865 -1.6454 -2.4521
  601MOL0     H82901   4.949   5.141   5.561 -2.0451  0.2462 -0.0645
  601MOL0     H82902   5.150   4.995   5.544  2.2521 -0.9350  1.0963
  601MOL0     H82903   5.167   5.145   5.442 -1.0450 -1.6903 -0.3315
  601MOL0     H82904   5.394   4.997   5.569  0.9465 -2.0385 -0.5108
  601MOL0     H82905   5.341   4.953   5.410  3.5740  1.4271 -1.7120
  601MOL0     H82906   5.421   5.237   5.522  0.4019  1.8797 -1.3659
  601MOL0     H82907   5.380   5.189   5.351 -1.8376  1.2126  0.8832
  601MOL0     H82908   5.594   5.033   5.372  2.6693  1.3207 -1.8924
  601MOL0     H82909   5.634   5.120   5.521  1.7689  1.1538 -2.0543
  601MOL0     H82910   5.743   5.187   5.308 -0.7854 -2.3795 -0.7144
  601MOL0     H82911   5.584   5.259   5.258 -1.2869  0.7022  0.2119
  601MOL0     H82912   5.740   5.327   5.519  0.0209  2.3648  0.2137
  601MOL0     H82913   5.604   5.415   5.446 -1.9797 -1.5436 -2.1812
  601MOL0     H82914   5.882   5.381   5.348 -2.6803 -2.5133 -0.7634
  601MOL0     H82915   5.815   5.526   5.433 -1.2433 -1.9193  1.1671
  601MOL0     H82916   5.811   5.595   5.216 -1.2218  0.3223 -1.5388
  601MOL0     H82917   5.646   5.531   5.233 -0.0108  0.1108  0.8081
  601MOL0     H82918   5.202   5.270   5.893 -0.1752  3.4215  0.8083
  601MOL0     H82919   5.002   5.314   6.013 -2.3608 -2.9757  1.5404
  601MOL0     H82920   4.514   5.284   5.897  0.7795 -0.3772 -0.3652
  601MOL0     H82921   4.270   5.337   5.923  0.2609 -2.6914  2.9821
  601MOL0     H82922   2.307   5.842   5.767  2.8391 -2.3580 -1.7081
  601MOL0     H82923   2.068   5.794   5.817 -1.9120 -0.0121  1.4401
  601MOL0     H82924   1.763   5.349   6.114  0.3190 -1.8119 -1.1866
  601MOL0     H82925   1.513   5.293   6.107  2.2267 -0.4416  1.3107
  601MOL0     H82926   1.222   5.559   5.940  2.7174 -0.8572  3.3021
  601MOL0     H82927   1.256   5.457   5.802 -1.1047  0.2014  0.0866
  601MOL0     H82928   1.105   5.339   6.029 -0.3758 -2.5612 -1.2184
  601MOL0     H82929   1.113   5.291   5.870  2.3053  0.4243  0.5544
  601MOL0     H82930   0.966   5.526   5.995 -1.1096  0.6570 -0.4521
  601MOL0     H82931   1.007   5.543   5.824  0.7107  0.2876 -0.7999
  601MOL0     H82932   0.878   5.317   5.776 -1.5405 -1.2222 -0.0313
  601MOL0     H82933   0.788   5.459   5.822 -0.9780 -0.9146  0.3654
  601MOL0     H82934   0.714   5.213   6.160 -2.5597 -1.1915 -0.8980
  601MOL0     H82935   1.449   5.583   5.804 -0.9129 -1.2369 -0.7122
  601MOL0     H82936   1.612   5.762   5.775  3.6742  3.5855 -0.0559
  601MOL0     H82937   1.765   5.756   5.855  0.2884  1.0719 -2.1370
  601MOL0     H82938   1.736   5.674   5.702 -0.3302  0.6438  0.2788
  602MOL0     O82939   0.978   5.748   1.085 -0.3423 -0.0786  0.4976
  602MOL0     C82940   0.979   5.815   1.186  0.1601 -0.5581 -0.5365
  602MOL0     O82941   0.893   5.923   1.215  0.5047  0.4986  0.0954
  602MOL0     C82942   0.786   5.937   1.132 -0.3263  0.1929 -0.1071
  602MOL0     C82943   0.788   6.048   1.047  0.0356 -0.7012 -0.8836
  602MOL0     C82944   0.682   6.086   0.967 -0.4049  0.2582 -0.7878
  602MOL0     C82945   0.570   6.001   0.970  0.1459 -0.3913 -0.1430
  602MOL0     O82946   0.469   6.021   0.887 -0.7561 -0.2236 -0.5716
  602MOL0     C82947   0.415   6.152   0.913  0.0698 -0.3682 -0.8703
  602MOL0     C82948   0.271   6.156   0.863 -0.1467  0.1039 -1.0699
  602MOL0     C82949   0.216   6.303   0.854  0.6250  0.8882 -0.0305
  602MOL0     C82950   0.120   6.325   0.729 -0.5773 -0.4467  0.8044
  602MOL0     C82951   0.010   6.217   0.714  1.2408 -0.1936  0.7278
  602MOL0     C82952  -0.095   6.267   0.619 -0.3557 -0.1338 -0.6741
  602MOL0     C82953  -0.199   6.160   0.613 -0.0841 -0.1916  0.1053
  602MOL0     C82954  -0.333   6.217   0.619  0.3510  0.4684 -0.0942
  602MOL0     N82955  -0.429   6.108   0.594  1.0339 -0.2323 -0.2468
  602MOL0     C82956  -0.566   6.131   0.583 -0.6725  0.2680  1.1543
  602MOL0     C82957  -0.621   6.013   0.560 -0.2142  0.6406  0.1018
  602MOL0     C82958  -0.766   5.963   0.555 -0.8967  0.1691  0.3708
  602MOL0     C82959  -0.819   5.958   0.410 -0.3302 -0.0092 -0.7061
  602MOL0     C82960  -0.865   6.095   0.362  0.5231 -0.2849 -0.0240
  602MOL0     C82961  -0.987   6.083   0.276 -0.3018 -0.0862  0.7839
  602MOL0     O82962  -1.113   6.070   0.339 -0.4027 -0.5860 -0.1422
  602MOL0     C82963  -1.228   6.036   0.262 -0.5208 -0.5711 -0.2913
  602MOL0     C82964  -1.328   5.991   0.343  0.5448  0.2140  0.5963
  602MOL0     C82965  -1.447   5.935   0.297  0.0442 -0.5278 -0.2146
  602MOL0     C82966  -1.549   5.906   0.410 -1.0449 -0.3058 -0.5208
  602MOL0     C82967  -1.484   5.953   0.160 -0.3727 -0.8225  0.1107
  602MOL0     C82968  -1.611   5.906   0.090  0.2623  0.1214 -0.4346
  602MOL0     O82969  -1.612   5.902  -0.046 -0.0549 -0.1993 -0.6442
  602MOL0     C82970  -1.720   5.865  -0.125 -0.4462  0.1801  0.7813
  602MOL0     C82971  -1.693   5.844  -0.258  0.2931 -0.7958 -0.0522
  602MOL0     C82972  -1.796   5.809  -0.350  0.1529 -0.3529  0.0233
  602MOL0     C82973  -1.926   5.813  -0.304  0.4368 -0.3930  0.4080
  602MOL0     O82974  -2.034   5.776  -0.383  0.4700 -0.4756  0.2423
  602MOL0     C82975  -2.024   5.667  -0.481 -0.1040  0.8314  0.7243
  602MOL0     C82976  -2.163   5.610  -0.513  0.2937 -0.1732 -0.4730
  602MOL0     C82977  -2.264   5.716  -0.569 -0.3908  0.2539  0.4700
  602MOL0     C82978  -2.400   5.648  -0.589 -0.3968  0.6373 -0.2881
  602MOL0     C82979  -2.503   5.743  -0.645 -0.9231  0.1662  0.0027
  602MOL0     C82980  -2.632   5.665  -0.661 -1.0332 -0.6601 -0.6276
  602MOL0     C82981  -2.716   5.738  -0.772  0.5788  0.3969 -0.6317
  602MOL0     C82982  -2.837   5.650  -0.804 -0.1702 -0.0573  0.4046
  602MOL0    Cl82983  -2.914   5.713  -0.941 -0.0407  0.1940 -0.2927
  602MOL0     C82984  -1.957   5.847  -0.165  0.3600  0.0353 -0.0779
  602MOL0     C82985  -1.855   5.876  -0.082 -0.6924 -0.3465 -0.1807
  602MOL0     O82986  -1.706   5.878   0.160  0.3470 -0.9487 -0.1123
  602MOL0     C82987  -1.387   6.015   0.079  0.7456 -0.1778 -0.0423
  602MOL0     C82988  -1.264   6.056   0.123  0.1508  0.0110  0.3126
  602MOL0     N82989  -0.517   5.923   0.552 -0.3490 -0.3480  0.2906
  602MOL0     N82990  -0.399   5.980   0.578 -0.3967 -0.2165 -0.0273
  602MOL0     C82991   0.560   5.886   1.049 -0.0403 -0.3064  0.0262
  602MOL0     C82992   0.671   5.855   1.132 -0.5018 -0.0420  1.3230
  602MOL0     C82993   1.096   5.810   1.287  0.1036 -0.6563  0.7370
  602MOL0     C82994   1.129   5.925   1.363  1.1053  0.5551 -0.7086
  602MOL0     C82995   1.206   5.915   1.480  1.2941 -0.8932  0.2576
  602MOL0     C82996   1.284   5.802   1.495  0.3505  0.1367  0.5496
  602MOL0     O82997   1.374   5.790   1.607  0.2751 -0.1602  0.6014
  602MOL0     C82998   1.392   5.899   1.698  0.1023 -0.0621 -0.3232
  602MOL0     C82999   1.481   6.009   1.634  0.2359  0.4423  0.2047
  602MOL0     C83000   1.579   5.943   1.535  0.3830 -0.4033 -0.0785
  602MOL0     C83001   1.669   5.838   1.599  0.0731 -0.4988 -0.3552
  602MOL0     C83002   1.791   5.804   1.524  0.3557  0.2693  0.6341
  602MOL0     C83003   1.889   5.780   1.459  0.0845  0.3827 -0.2264
  602MOL0     C83004   1.257   5.684   1.424 -0.5576 -0.1000 -0.9937
  602MOL0     C83005   1.164   5.690   1.324 -0.3909  0.5497  0.4857
  602MOL0     C83006   1.129   5.560   1.266  0.2787  0.8926  0.4833
  602MOL0     H83007   0.882   6.103   1.049 -0.6933  0.5735 -0.1630
  602MOL0     H83008   0.699   6.170   0.901 -1.8352  2.4529  1.4287
  602MOL0     H83009   0.472   6.225   0.854 -0.9108 -0.1767 -1.6027
  602MOL0     H83010   0.416   6.186   1.017  1.6634  1.4983 -1.4349
  602MOL0     H83011   0.288   6.104   0.768  3.1913 -4.6731  1.7569
  602MOL0     H83012   0.207   6.086   0.917  1.9495 -1.0864 -0.0078
  602MOL0     H83013   0.159   6.325   0.945  1.5644  2.5432  0.1930
  602MOL0     H83014   0.299   6.373   0.848  2.7433 -1.3483  1.4680
  602MOL0     H83015   0.061   6.416   0.748  2.3224  1.7321  0.1650
  602MOL0     H83016   0.176   6.339   0.636 -1.3738  1.9531  0.6101
  602MOL0     H83017  -0.029   6.205   0.816  0.5664  1.4270  0.6944
  602MOL0     H83018   0.052   6.123   0.676 -2.0832 -1.5550  0.0371
  602MOL0     H83019  -0.143   6.355   0.663 -0.3071 -0.6018  0.3407
  602MOL0     H83020  -0.064   6.291   0.517 -4.3431  3.1993 -1.4101
  602MOL0     H83021  -0.198   6.098   0.702 -2.9376  3.3222  2.9109
  602MOL0     H83022  -0.175   6.104   0.522 -0.2007  0.8683 -0.5978
  602MOL0     H83023  -0.358   6.250   0.720  1.2735  0.3822  0.1689
  602MOL0     H83024  -0.356   6.301   0.552  0.4551 -0.4325 -1.3063
  602MOL0     H83025  -0.624   6.221   0.597 -1.6457  0.1691 -1.4934
  602MOL0     H83026  -0.828   6.023   0.623  1.6079  2.4768  0.8176
  602MOL0     H83027  -0.758   5.863   0.598 -0.3449  0.3370  0.6683
  602MOL0     H83028  -0.735   5.930   0.347  1.2697 -0.2562  1.4455
  602MOL0     H83029  -0.897   5.882   0.402 -0.6898  0.3620 -0.7635
  602MOL0     H83030  -0.890   6.161   0.446  1.9987 -1.5314  1.4635
  602MOL0     H83031  -0.779   6.135   0.308  1.5454 -1.7516  0.4545
  602MOL0     H83032  -0.995   6.175   0.217  3.8495 -0.5200 -0.8086
  602MOL0     H83033  -0.970   6.004   0.203  0.6254  1.0330 -0.2617
  602MOL0     H83034  -1.304   5.992   0.449  0.2927 -1.3135  0.6847
  602MOL0     H83035  -1.521   5.950   0.506  0.6135  1.8376 -1.8940
  602MOL0     H83036  -1.568   5.798   0.415 -0.2461 -0.5177 -1.5245
  602MOL0     H83037  -1.647   5.948   0.387 -0.9853  0.4978  0.6051
  602MOL0     H83038  -1.596   5.859  -0.303  0.6489  2.3847  1.4789
  602MOL0     H83039  -1.784   5.794  -0.457 -1.9096 -3.7789  0.1497
  602MOL0     H83040  -1.971   5.679  -0.576  0.3465  0.6175  0.9451
  602MOL0     H83041  -1.961   5.586  -0.442  0.6613  1.4570  0.8050
  602MOL0     H83042  -2.150   5.536  -0.593 -1.4694 -0.7620 -0.2545
  602MOL0     H83043  -2.211   5.571  -0.423  1.1790  2.8033  1.4349
  602MOL0     H83044  -2.233   5.755  -0.666 -0.2808 -1.6876 -0.3216
  602MOL0     H83045  -2.268   5.812  -0.517 -2.3439  0.2415  0.4364
  602MOL0     H83046  -2.434   5.632  -0.486  0.2230  1.7279  0.0980
  602MOL0     H83047  -2.381   5.546  -0.622  1.4745  0.0506  2.2440
  602MOL0     H83048  -2.512   5.831  -0.581  0.2155  2.0754 -2.2921
  602MOL0     H83049  -2.467   5.784  -0.740 -0.1019  1.3236  0.7880
  602MOL0     H83050  -2.681   5.659  -0.563  1.4108 -0.8317  0.6437
  602MOL0     H83051  -2.607   5.564  -0.694 -1.5440 -0.5938 -1.2448
  602MOL0     H83052  -2.660   5.764  -0.862  1.9699 -1.5887 -0.4035
  602MOL0     H83053  -2.744   5.832  -0.724  3.6986  1.2933 -0.3868
  602MOL0     H83054  -2.904   5.654  -0.718  0.8415  0.6232  1.1784
  602MOL0     H83055  -2.811   5.547  -0.827  1.0504  0.4119 -0.3999
  602MOL0     H83056  -2.059   5.854  -0.131 -0.7952 -2.9484 -2.4593
  602MOL0     H83057  -1.890   5.915   0.013 -1.7161  1.4217 -1.2097
  602MOL0     H83058  -1.410   6.018  -0.027 -1.9368  0.0081  0.4643
  602MOL0     H83059  -1.199   6.092   0.044  2.7858 -3.0250  0.8500
  602MOL0     H83060   0.468   5.830   1.037  0.8698 -2.2180  1.2585
  602MOL0     H83061   0.662   5.759   1.181 -0.3756  0.1089  1.6468
  602MOL0     H83062   1.081   6.018   1.336 -0.8282 -0.8870 -2.5529
  602MOL0     H83063   1.214   6.002   1.544  1.7224 -1.2939  0.7618
  602MOL0     H83064   1.293   5.938   1.725 -0.2882 -1.5127  0.4810
  602MOL0     H83065   1.437   5.870   1.793 -2.0427 -2.4575  0.0552
  602MOL0     H83066   1.533   6.068   1.711 -0.7392  0.6460  0.7243
  602MOL0     H83067   1.416   6.073   1.574 -2.3107 -0.2832  2.0137
  602MOL0     H83068   1.525   5.898   1.450  2.1294 -2.7084 -0.0570
  602MOL0     H83069   1.648   6.016   1.493 -0.5750 -0.0863 -1.1638
  602MOL0     H83070   1.607   5.751   1.621  0.5552 -1.2831 -1.9377
  602MOL0     H83071   1.705   5.872   1.697 -0.8021 -1.6769  0.4015
  602MOL0     H83072   1.984   5.765   1.412  0.5734  0.3481  0.7492
  602MOL0     H83073   1.319   5.598   1.445  1.9035  1.5087 -1.2952
  602MOL0     H83074   1.138   5.573   1.158  1.9332 -0.7669  0.3765
  602MOL0     H83075   1.194   5.476   1.291 -0.7377 -0.1291 -0.1881
  602MOL0     H83076   1.036   5.509   1.293  0.5145  1.3058  2.2004
  603MOL0     O83077   4.256   6.954   6.661  0.1964 -0.6638 -0.2350
  603MOL0     C83078   4.236   6.842   6.614 -0.6567  0.5582 -0.2200
  603MOL0     O83079   4.333   6.769   6.554  0.4107  0.0440 -0.1869
  603MOL0     C83080   4.445   6.839   6.515  0.0703  0.1605  0.3017
  603MOL0     C83081   4.431   6.915   6.397 -0.5345 -0.2247  0.5721
  603MOL0     C83082   4.541   6.980   6.339 -0.0924 -0.4790 -0.3795
  603MOL0     C83083   4.676   6.961   6.382 -0.1491  0.1072  0.3789
  603MOL0     O83084   4.788   7.031   6.327 -0.0158  1.0027  0.4909
  603MOL0     C83085   4.764   7.130   6.216 -0.1424 -0.0369  1.0609
  603MOL0     C83086   4.901   7.188   6.171 -0.0975 -0.1238  0.5214
  603MOL0     C83087   4.881   7.308   6.072  0.6019 -0.9207  0.2944
  603MOL0     C83088   5.013   7.362   6.034 -0.7139  0.7720  0.7916
  603MOL0     C83089   5.033   7.417   5.895  0.1118  0.7341 -0.6646
  603MOL0     C83090   5.144   7.519   5.883  0.1229  0.8568  0.6096
  603MOL0     C83091   5.284   7.463   5.929 -0.1280  0.0019  0.0863
  603MOL0     C83092   5.408   7.546   5.887 -0.2158 -0.0545 -0.1411
  603MOL0     N83093   5.510   7.542   5.994 -0.1349 -0.1940 -0.0447
  603MOL0     C83094   5.602   7.644   6.019  0.1181  0.2672 -0.3020
  603MOL0     C83095   5.680   7.600   6.120  1.2663  0.2483  0.5379
  603MOL0     C83096   5.796   7.680   6.163 -0.0191  0.6139 -0.6687
  603MOL0     C83097   5.817   7.670   6.311 -0.5234 -0.2271 -0.0291
  603MOL0     C83098   5.939   7.752   6.354 -0.8690 -0.7146 -0.2291
  603MOL0     C83099   5.909   7.902   6.377  0.7245 -0.0195  0.2273
  603MOL0     O83100   6.002   7.971   6.470  0.1529 -0.2826 -0.0245
  603MOL0     C83101   6.126   8.005   6.436 -0.4228  0.0164 -0.2547
  603MOL0     C83102   6.166   8.009   6.305 -0.9279 -0.7423  0.3501
  603MOL0     C83103   6.298   8.039   6.265 -0.3978  0.0122  0.2835
  603MOL0     C83104   6.327   8.025   6.121  0.1673  0.5943 -0.4156
  603MOL0     C83105   6.385   8.077   6.368 -0.8318 -0.5745  0.2557
  603MOL0     C83106   6.524   8.125   6.342 -0.1931  0.1512  0.0604
  603MOL0     O83107   6.587   8.187   6.449 -0.1833  0.2992 -0.2200
  603MOL0     C83108   6.701   8.265   6.446 -0.0210 -0.2211 -0.0585
  603MOL0     C83109   6.776   8.274   6.563  0.3699  0.4254  0.4238
  603MOL0     C83110   6.903   8.324   6.562  0.4307 -0.2827  0.5450
  603MOL0     C83111   6.966   8.373   6.444  0.4283 -0.6916 -0.1309
  603MOL0     O83112   7.099   8.406   6.447 -0.9015 -0.7109 -0.0909
  603MOL0     C83113   7.148   8.495   6.347 -0.0769 -0.4572 -0.2059
  603MOL0     C83114   7.299   8.517   6.394  0.3159 -0.3038  0.3254
  603MOL0     C83115   7.374   8.592   6.292 -0.5664 -0.1592  0.2525
  603MOL0     C83116   7.496   8.673   6.334  0.2313 -0.8065  0.1742
  603MOL0     C83117   7.576   8.728   6.215  0.5928 -0.3928  0.0712
  603MOL0     C83118   7.492   8.857   6.163  0.0343  0.3360 -0.5479
  603MOL0     C83119   7.553   8.931   6.043  0.4246  0.0552 -0.4591
  603MOL0     C83120   7.610   8.849   5.932 -0.0237 -0.3235  0.0954
  603MOL0    Cl83121   7.485   8.740   5.840  0.0034 -0.0836 -0.0515
  603MOL0     C83122   6.878   8.398   6.333 -0.8454 -0.3788 -0.4652
  603MOL0     C83123   6.745   8.338   6.332  0.0989  0.6932 -0.6243
  603MOL0     O83124   6.580   8.102   6.233 -0.0722 -0.2303 -0.0517
  603MOL0     C83125   6.346   8.087   6.501  0.2327  0.5270  0.0257
  603MOL0     C83126   6.213   8.048   6.538  0.3173  0.4108  0.8162
  603MOL0     N83127   5.637   7.474   6.154  0.4929  0.5172  0.8132
  603MOL0     N83128   5.533   7.438   6.079 -0.5759 -0.3088  0.2869
  603MOL0     C83129   4.686   6.885   6.502  0.0500 -0.3888 -0.2518
  603MOL0     C83130   4.581   6.821   6.560 -0.1717  0.1548 -1.0067
  603MOL0     C83131   4.100   6.791   6.619 -0.3330 -0.2336 -0.2645
  603MOL0     C83132   3.997   6.873   6.676  0.0957 -0.8870  0.6652
  603MOL0     C83133   3.859   6.834   6.671 -0.3978 -0.2463  0.4884
  603MOL0     C83134   3.824   6.706   6.618  0.2086  0.5067 -0.9079
  603MOL0     O83135   3.695   6.658   6.616  0.1256 -0.6324 -0.4636
  603MOL0     C83136   3.580   6.734   6.656 -0.3292 -0.1820  0.3981
  603MOL0     C83137   3.552   6.733   6.804  0.0803 -0.3087 -0.1765
  603MOL0     C83138   3.406   6.755   6.842 -0.9708  0.3883  0.1498
  603MOL0     C83139   3.346   6.889   6.800 -0.3854 -0.8005  0.5714
  603MOL0     C83140   3.232   6.925   6.887 -0.4300 -0.3410  0.4555
  603MOL0     C83141   3.143   6.949   6.965  0.7508  0.9418  0.6164
  603MOL0     C83142   3.921   6.623   6.582  0.6699 -0.0618 -0.2642
  603MOL0     C83143   4.062   6.652   6.580  0.3521 -0.7325 -0.5371
  603MOL0     C83144   4.168   6.546   6.552 -0.0309  0.0125  0.8959
  603MOL0     H83145   4.331   6.925   6.357  0.1601  2.3243 -0.6946
  603MOL0     H83146   4.526   7.046   6.254 -1.8925  1.7919  1.5855
  603MOL0     H83147   4.691   7.203   6.251  0.8855  0.5847  1.9916
  603MOL0     H83148   4.715   7.082   6.131 -0.5552 -1.8318  2.2581
  603MOL0     H83149   4.944   7.233   6.261 -1.2217  0.7149  0.6602
  603MOL0     H83150   4.958   7.106   6.127 -2.8077 -1.6852 -0.3574
  603MOL0     H83151   4.827   7.277   5.981 -1.0764  1.3554  0.4220
  603MOL0     H83152   4.831   7.394   6.118  0.4998 -0.3942 -0.7699
  603MOL0     H83153   5.058   7.428   6.110  0.1778  1.2186 -0.0988
  603MOL0     H83154   5.082   7.278   6.038 -2.1388 -0.4026  1.7285
  603MOL0     H83155   4.938   7.467   5.876  1.2167  4.6410  2.7823
  603MOL0     H83156   5.063   7.337   5.826  1.3188  0.8875 -0.3491
  603MOL0     H83157   5.143   7.555   5.779 -1.0597  0.2213  0.3889
  603MOL0     H83158   5.118   7.602   5.950  0.5862  0.3905  1.3810
  603MOL0     H83159   5.285   7.361   5.888  0.4084  0.1363 -0.2426
  603MOL0     H83160   5.277   7.458   6.038  0.9969  1.3612  0.2385
  603MOL0     H83161   5.461   7.502   5.802  0.3546 -0.1577  0.2614
  603MOL0     H83162   5.371   7.648   5.873  1.5554  0.2884 -3.1317
  603MOL0     H83163   5.611   7.736   5.963  0.7410  0.4467  0.0715
  603MOL0     H83164   5.780   7.786   6.140 -0.5836  0.3174 -1.7046
  603MOL0     H83165   5.881   7.645   6.104 -0.1307 -1.0539  0.1246
  603MOL0     H83166   5.729   7.691   6.372 -1.0181 -0.5913 -0.6004
  603MOL0     H83167   5.847   7.569   6.339  0.7061 -0.1120 -0.8317
  603MOL0     H83168   5.972   7.728   6.455 -2.3340 -0.0657  0.4383
  603MOL0     H83169   6.026   7.734   6.291  2.0990  3.1925  2.2780
  603MOL0     H83170   5.907   7.960   6.284 -0.5395 -2.4125 -1.3577
  603MOL0     H83171   5.816   7.914   6.433 -0.6919  0.7090 -2.1216
  603MOL0     H83172   6.101   7.966   6.229 -0.1971  0.8790 -1.2693
  603MOL0     H83173   6.382   7.931   6.110 -0.4088  0.2304 -0.2823
  603MOL0     H83174   6.375   8.116   6.085  1.0808  0.7416  1.0956
  603MOL0     H83175   6.232   8.006   6.070 -1.2199 -2.5429  2.9131
  603MOL0     H83176   6.756   8.230   6.660  0.4850 -0.1861  0.1748
  603MOL0     H83177   6.965   8.320   6.651 -1.7718 -0.9536  2.1475
  603MOL0     H83178   7.137   8.451   6.247  2.5469 -0.7955 -0.4078
  603MOL0     H83179   7.095   8.590   6.335 -2.1088 -1.5209 -0.1127
  603MOL0     H83180   7.312   8.570   6.489 -3.2073  2.0124 -0.3263
  603MOL0     H83181   7.348   8.419   6.390 -0.3295 -0.5970 -0.7653
  603MOL0     H83182   7.305   8.657   6.238 -0.1339 -1.7986 -2.4280
  603MOL0     H83183   7.412   8.521   6.218  0.8141  0.8936 -0.0768
  603MOL0     H83184   7.572   8.604   6.373 -1.1588 -1.5505  1.6826
  603MOL0     H83185   7.480   8.750   6.410  2.1931 -1.1650  1.0163
  603MOL0     H83186   7.673   8.763   6.251 -0.1931  0.9447  0.9579
  603MOL0     H83187   7.580   8.650   6.139 -0.3021  0.5152 -0.9265
  603MOL0     H83188   7.500   8.924   6.250 -0.7694 -0.4825  0.1827
  603MOL0     H83189   7.386   8.834   6.150 -0.2015 -0.4163  1.9763
  603MOL0     H83190   7.624   9.000   6.089 -0.1490 -0.0923  0.6893
  603MOL0     H83191   7.473   8.991   6.000  1.5918  2.7021  0.8511
  603MOL0     H83192   7.691   8.791   5.976 -1.0849 -1.1094  1.0701
  603MOL0     H83193   7.671   8.906   5.861  0.0095 -0.5892 -0.0892
  603MOL0     H83194   6.916   8.454   6.248 -1.0925 -1.5269 -1.3716
  603MOL0     H83195   6.685   8.335   6.242  0.5774  1.0247 -0.9571
  603MOL0     H83196   6.409   8.120   6.582 -1.9114 -1.1839  2.5609
  603MOL0     H83197   6.164   8.075   6.632 -1.6919  1.5219 -0.4759
  603MOL0     H83198   4.780   6.877   6.556 -1.3295 -1.6310  2.1540
  603MOL0     H83199   4.608   6.768   6.651  1.4213  3.9785  0.9929
  603MOL0     H83200   4.013   6.970   6.722 -0.6182 -1.0752  1.3271
  603MOL0     H83201   3.784   6.899   6.715 -0.1410 -1.5206  2.9600
  603MOL0     H83202   3.581   6.840   6.627 -2.4950 -0.5294 -1.2535
  603MOL0     H83203   3.500   6.687   6.597  0.9173 -0.6262 -0.9851
  603MOL0     H83204   3.619   6.798   6.861  0.6447 -2.4670  1.7912
  603MOL0     H83205   3.581   6.635   6.842  1.2073 -0.9738 -2.6003
  603MOL0     H83206   3.351   6.670   6.803  2.3209 -1.5152 -0.7391
  603MOL0     H83207   3.401   6.754   6.952 -0.1479  0.6076  0.1971
  603MOL0     H83208   3.312   6.868   6.699  2.8403 -2.8914 -0.2212
  603MOL0     H83209   3.415   6.974   6.794 -0.8848 -0.4814 -1.2967
  603MOL0     H83210   3.063   6.963   7.034 -1.1800 -0.5970 -1.1714
  603MOL0     H83211   3.891   6.520   6.568  0.1289 -0.0959  1.0146
  603MOL0     H83212   4.229   6.591   6.473 -1.5398  1.6603  0.5897
  603MOL0     H83213   4.216   6.503   6.640  2.6136  0.1775 -0.3856
  603MOL0     H83214   4.121   6.459   6.505 -2.2733  1.4426  0.3485
  604MOL0     O83215   6.357   2.418   4.985 -0.1400 -0.3917 -0.1447
  604MOL0     C83216   6.290   2.361   5.075  0.7643 -0.1148 -0.3640
  604MOL0     O83217   6.326   2.255   5.153  0.5344  0.1450  0.2551
  604MOL0     C83218   6.460   2.232   5.162  0.6962 -0.0196 -0.3838
  604MOL0     C83219   6.529   2.301   5.265 -0.4610  0.1826 -0.2376
  604MOL0     C83220   6.668   2.296   5.273  0.4647  0.5916  1.0141
  604MOL0     C83221   6.741   2.213   5.183  0.3043  0.1223  0.0592
  604MOL0     O83222   6.874   2.194   5.183  0.4705  0.1339 -0.1413
  604MOL0     C83223   6.949   2.239   5.293  0.0472  0.0926 -1.0734
  604MOL0     C83224   7.104   2.226   5.268 -0.2739 -0.1932  0.5427
  604MOL0     C83225   7.167   2.086   5.226  0.6365  0.0724 -0.3460
  604MOL0     C83226   7.309   2.069   5.166 -0.0491 -0.5616  0.4484
  604MOL0     C83227   7.410   2.051   5.283 -0.9815 -0.4905 -0.2422
  604MOL0     C83228   7.548   2.036   5.226 -0.1549  0.5766  1.4181
  604MOL0     C83229   7.669   2.045   5.319 -0.2895  0.7550  0.1866
  604MOL0     C83230   7.684   1.922   5.404 -0.1952  0.4412  0.1452
  604MOL0     N83231   7.799   1.940   5.491  0.2618  0.7352  0.1303
  604MOL0     C83232   7.929   1.893   5.463  0.4050  0.5366  0.4689
  604MOL0     C83233   7.993   1.922   5.583 -0.6482  0.1300  0.4241
  604MOL0     C83234   8.127   1.857   5.612 -0.1663  0.8144 -0.3016
  604MOL0     C83235   8.250   1.928   5.553 -0.6881  0.1199 -0.8058
  604MOL0     C83236   8.381   1.857   5.596  0.2948  0.4112 -0.1454
  604MOL0     C83237   8.499   1.898   5.504 -0.3935 -0.2555 -0.1912
  604MOL0     O83238   8.604   1.935   5.596 -0.8159  0.1092 -0.3885
  604MOL0     C83239   8.728   1.961   5.545  0.0863 -0.0642 -0.2934
  604MOL0     C83240   8.778   1.940   5.418 -0.1180  0.0186 -0.9666
  604MOL0     C83241   8.916   1.966   5.384 -0.8770  0.0791 -0.8005
  604MOL0     C83242   8.972   1.929   5.251  0.1622 -0.1453  0.5418
  604MOL0     C83243   8.993   2.035   5.482 -0.2717 -0.2100 -0.0604
  604MOL0     C83244   9.130   2.090   5.456  0.4959 -0.1947 -0.6599
  604MOL0     O83245   9.164   2.190   5.537  0.2712 -0.2358 -0.3723
  604MOL0     C83246   9.280   2.259   5.507 -0.3265  0.3934  0.2845
  604MOL0     C83247   9.282   2.377   5.430 -0.6676 -0.6019  0.2750
  604MOL0     C83248   9.402   2.450   5.404 -0.9985  0.8408 -0.3546
  604MOL0     C83249   9.525   2.398   5.445  0.2211  0.4423  0.1350
  604MOL0     O83250   9.637   2.472   5.401 -0.4211 -0.5943  0.6959
  604MOL0     C83251   9.756   2.442   5.469  0.0744  0.9650 -0.0216
  604MOL0     C83252   9.858   2.559   5.432 -0.7850 -0.1595  1.3680
  604MOL0     C83253   9.998   2.552   5.488 -0.0181 -0.1744 -0.2477
  604MOL0     C83254  10.091   2.656   5.431 -0.7630  0.4728  0.0774
  604MOL0     C83255  10.237   2.668   5.499 -0.8901 -1.0071  0.1396
  604MOL0     C83256  10.310   2.530   5.498 -0.6109 -0.4697 -0.1723
  604MOL0     C83257  10.316   2.477   5.354 -0.4117  0.1185 -1.0126
  604MOL0     C83258  10.419   2.363   5.342  0.0402  0.0543  0.9103
  604MOL0    Cl83259  10.586   2.424   5.384 -0.1552 -0.0328 -0.2088
  604MOL0     C83260   9.528   2.275   5.509  0.3150  0.7002  0.7788
  604MOL0     C83261   9.404   2.212   5.543  0.2946  0.1398  0.0303
  604MOL0     O83262   9.202   2.034   5.378 -0.3904  0.2753 -1.0448
  604MOL0     C83263   8.941   2.055   5.609 -0.7778  0.3375  0.3135
  604MOL0     C83264   8.809   2.020   5.638 -0.3315 -0.5368 -0.0907
  604MOL0     N83265   7.913   2.009   5.656  0.3183 -0.3724 -0.3569
  604MOL0     N83266   7.794   2.016   5.600 -0.3287  0.0505 -0.4178
  604MOL0     C83267   6.662   2.151   5.079 -0.1567  0.5400 -0.9439
  604MOL0     C83268   6.532   2.163   5.070  0.8327  0.1386  0.3771
  604MOL0     C83269   6.156   2.416   5.104  0.5601 -0.1383  0.2084
  604MOL0     C83270   6.120   2.435   5.232 -0.1420 -0.6203 -0.1583
  604MOL0     C83271   5.998   2.480   5.273  1.2645 -0.9627  1.2265
  604MOL0     C83272   5.904   2.515   5.175 -0.3755  0.8772 -0.7319
  604MOL0     O83273   5.789   2.561   5.219  0.3050 -0.1311  0.4231
  604MOL0     C83274   5.682   2.588   5.124  0.0874  0.2085 -0.6125
  604MOL0     C83275   5.565   2.671   5.180  0.6107 -0.0827 -0.8523
  604MOL0     C83276   5.514   2.601   5.309 -0.5334  0.0446 -0.1898
  604MOL0     C83277   5.384   2.657   5.364  0.1547 -0.8060  0.2683
  604MOL0     C83278   5.387   2.650   5.509 -0.5481  0.0788  0.3810
  604MOL0     C83279   5.400   2.646   5.632 -0.2388 -0.0619  1.3565
  604MOL0     C83280   5.948   2.512   5.035 -0.1956  0.3442  0.2317
  604MOL0     C83281   6.074   2.453   4.996  0.8939 -0.0064  0.2177
  604MOL0     C83282   6.104   2.441   4.852 -0.2100 -0.1294 -0.0533
  604MOL0     H83283   6.475   2.362   5.337 -0.8079 -0.3368 -0.0459
  604MOL0     H83284   6.722   2.356   5.345 -1.9849  0.8932  2.7411
  604MOL0     H83285   6.920   2.180   5.381 -2.9066  2.1284 -0.5552
  604MOL0     H83286   6.938   2.342   5.328 -0.0210 -0.4042  0.4540
  604MOL0     H83287   7.124   2.286   5.178 -0.9498  0.1278  0.5993
  604MOL0     H83288   7.149   2.270   5.358 -0.6246  0.5866  0.3485
  604MOL0     H83289   7.157   2.007   5.301 -1.1416  0.3652 -0.2313
  604MOL0     H83290   7.097   2.049   5.151 -0.9833 -0.5240  1.3761
  604MOL0     H83291   7.307   1.984   5.097 -1.5297 -0.2301  0.0561
  604MOL0     H83292   7.332   2.160   5.110 -2.9702  0.4369  0.7073
  604MOL0     H83293   7.382   1.958   5.334  0.5424  1.0923  3.8473
  604MOL0     H83294   7.396   2.126   5.360 -1.1786  1.0464 -1.7107
  604MOL0     H83295   7.548   1.939   5.176 -0.1563 -0.7880  3.8822
  604MOL0     H83296   7.562   2.107   5.144  0.5927  1.0400  1.9238
  604MOL0     H83297   7.646   2.133   5.379 -0.5443  1.6283 -1.1397
  604MOL0     H83298   7.763   2.053   5.264 -0.4142 -1.5117 -0.4682
  604MOL0     H83299   7.590   1.921   5.461 -1.5184  0.8101 -1.9144
  604MOL0     H83300   7.677   1.826   5.353 -2.3039 -2.7005  5.4869
  604MOL0     H83301   7.967   1.825   5.387 -3.3724  0.1032 -1.2653
  604MOL0     H83302   8.133   1.754   5.574 -0.1824  2.2497 -4.8414
  604MOL0     H83303   8.136   1.860   5.721  1.1661  3.8491 -0.4082
  604MOL0     H83304   8.249   1.932   5.443 -1.8605  0.9275 -0.7818
  604MOL0     H83305   8.258   2.033   5.582 -0.4382  0.9558 -3.5906
  604MOL0     H83306   8.412   1.871   5.700 -0.3461  0.5956  0.0220
  604MOL0     H83307   8.359   1.750   5.592 -0.4360  0.3791  2.6023
  604MOL0     H83308   8.532   1.814   5.441  1.8624 -1.3237  2.2460
  604MOL0     H83309   8.491   1.988   5.443  0.5057  0.3449  0.5545
  604MOL0     H83310   8.720   1.896   5.337  1.0134 -3.1614 -0.1863
  604MOL0     H83311   9.021   2.015   5.204 -0.6787  0.5540  0.9127
  604MOL0     H83312   8.887   1.921   5.184  1.0567 -0.6525 -0.5641
  604MOL0     H83313   9.038   1.841   5.254  1.9582  1.0977 -0.4780
  604MOL0     H83314   9.191   2.423   5.392 -2.4691 -0.2663  4.4296
  604MOL0     H83315   9.412   2.549   5.360 -0.9746  2.5686  3.1207
  604MOL0     H83316   9.734   2.440   5.576 -0.2591 -0.0531 -0.0943
  604MOL0     H83317   9.781   2.342   5.433  0.4196  0.8156  0.6246
  604MOL0     H83318   9.848   2.557   5.323 -1.8680 -0.1858  1.4529
  604MOL0     H83319   9.819   2.656   5.464  2.5632  1.5915  0.5727
  604MOL0     H83320  10.041   2.458   5.451  1.0579  0.1024  0.2334
  604MOL0     H83321   9.998   2.548   5.598 -0.8909 -2.0125 -0.2790
  604MOL0     H83322  10.040   2.752   5.431 -2.3211 -0.2017 -3.2461
  604MOL0     H83323  10.111   2.631   5.326 -1.4130  3.9243 -0.9683
  604MOL0     H83324  10.289   2.736   5.430 -0.8125  1.2996  2.2978
  604MOL0     H83325  10.247   2.717   5.596 -1.1870 -0.1848 -0.2286
  604MOL0     H83326  10.251   2.471   5.568 -0.0834  0.0078  0.6881
  604MOL0     H83327  10.409   2.551   5.539  0.4898 -2.7454 -1.4639
  604MOL0     H83328  10.338   2.557   5.283 -0.2155 -1.6175 -2.9993
  604MOL0     H83329  10.219   2.435   5.326 -0.7094 -1.6661  2.1243
  604MOL0     H83330  10.417   2.346   5.234  1.3213 -0.3722  0.9344
  604MOL0     H83331  10.396   2.274   5.401 -0.3142  0.5632  1.5570
  604MOL0     H83332   9.617   2.240   5.559  0.8032  0.1781 -0.4046
  604MOL0     H83333   9.405   2.121   5.603  0.1952  0.3144  0.2974
  604MOL0     H83334   9.008   2.112   5.673 -0.8199  2.4859 -1.4291
  604MOL0     H83335   8.766   2.025   5.738 -0.8219 -0.5773 -0.2983
  604MOL0     H83336   6.716   2.095   5.003  1.0755 -2.1838  1.7737
  604MOL0     H83337   6.479   2.110   4.992 -0.4991  4.1325 -1.7361
  604MOL0     H83338   6.177   2.406   5.320 -1.3985  0.6958  1.1489
  604MOL0     H83339   5.988   2.498   5.379 -1.2751  2.4086  0.5682
  604MOL0     H83340   5.720   2.644   5.038 -1.5351  0.1375 -1.4111
  604MOL0     H83341   5.650   2.492   5.084  0.4158 -1.4479  2.7401
  604MOL0     H83342   5.484   2.669   5.107  0.7047 -1.2599 -0.9422
  604MOL0     H83343   5.611   2.770   5.191  5.7088 -2.2579  0.4556
  604MOL0     H83344   5.513   2.492   5.303 -0.4325 -0.3575  4.1696
  604MOL0     H83345   5.589   2.615   5.387 -2.2973  0.6630  1.4768
  604MOL0     H83346   5.304   2.590   5.330 -0.7791 -0.9393  2.5533
  604MOL0     H83347   5.370   2.761   5.332  1.6985 -0.7177 -0.1782
  604MOL0     H83348   5.408   2.634   5.738 -0.5327 -0.5950  1.3258
  604MOL0     H83349   5.888   2.554   4.955  0.5889  1.0505 -0.0085
  604MOL0     H83350   6.009   2.401   4.814  0.2580 -0.1969 -1.1817
  604MOL0     H83351   6.133   2.538   4.811 -2.1337  0.4305 -0.1823
  604MOL0     H83352   6.174   2.360   4.832  0.5291  0.1989  1.1399
  605MOL0     O83353   8.160  11.284   7.458  0.3729  0.1145  0.2438
  605MOL0     C83354   8.122  11.216   7.558 -0.2461 -0.1907 -1.1911
  605MOL0     O83355   8.200  11.116   7.616 -0.1566 -0.0785 -0.5085
  605MOL0     C83356   8.298  11.053   7.537  0.4896  0.2278  0.0520
  605MOL0     C83357   8.293  10.912   7.516 -0.7406 -1.4517 -0.2990
  605MOL0     C83358   8.392  10.856   7.433 -0.5238  0.3577  1.4416
  605MOL0     C83359   8.505  10.926   7.387 -0.2192 -0.2525 -0.2861
  605MOL0     O83360   8.590  10.849   7.322 -0.6605  0.1623 -0.1931
  605MOL0     C83361   8.700  10.908   7.259  0.5725  0.4429  0.4417
  605MOL0     C83362   8.794  10.790   7.223 -0.0584 -0.4800 -0.5791
  605MOL0     C83363   8.914  10.843   7.149 -0.5131 -0.2103 -0.2315
  605MOL0     C83364   9.033  10.740   7.148  0.6295  1.0627  0.0754
  605MOL0     C83365   9.155  10.789   7.068 -0.0137  0.4388 -0.1616
  605MOL0     C83366   9.137  10.806   6.913  0.5093 -0.5872  0.6369
  605MOL0     C83367   9.066  10.681   6.843 -1.1065 -0.3831 -0.5875
  605MOL0     C83368   9.019  10.687   6.702 -0.1839 -0.4124 -0.2836
  605MOL0     N83369   9.139  10.709   6.616  0.3259 -0.1694  0.0648
  605MOL0     C83370   9.255  10.645   6.619 -0.8965  0.5950 -0.3712
  605MOL0     C83371   9.344  10.714   6.535  0.5836  0.1104  0.8690
  605MOL0     C83372   9.484  10.688   6.511  0.0128  0.4212  0.9364
  605MOL0     C83373   9.559  10.799   6.587 -1.3602 -0.3287 -0.5067
  605MOL0     C83374   9.703  10.799   6.547  0.7842  0.1973  0.1745
  605MOL0     C83375   9.780  10.883   6.641  0.2590  0.4546  0.0790
  605MOL0     O83376   9.911  10.907   6.593 -0.5030  0.4166  0.7330
  605MOL0     C83377   9.989  10.984   6.672 -0.6938 -0.2620 -0.0369
  605MOL0     C83378   9.961  11.119   6.653 -0.4398 -0.0805  0.9374
  605MOL0     C83379  10.037  11.217   6.708 -0.0405  0.0264  0.0382
  605MOL0     C83380  10.010  11.351   6.668  0.1202 -0.1539 -0.2754
  605MOL0     C83381  10.158  11.173   6.781  0.0079 -0.1433  0.2807
  605MOL0     C83382  10.263  11.272   6.841  0.4084  0.7194  0.9303
  605MOL0     O83383  10.262  11.405   6.809 -0.1786 -0.0030 -0.2571
  605MOL0     C83384  10.381  11.465   6.851 -0.5323  0.4076  0.5503
  605MOL0     C83385  10.415  11.469   6.984 -0.6125  0.3464  0.3770
  605MOL0     C83386  10.530  11.544   7.023  0.0380 -0.5049 -0.2461
  605MOL0     C83387  10.622  11.602   6.929 -0.2042 -0.3147  0.1037
  605MOL0     O83388  10.736  11.651   6.979  0.3291  0.4139  0.6222
  605MOL0     C83389  10.844  11.690   6.894 -0.0979  0.6700  0.0222
  605MOL0     C83390  10.932  11.782   6.976  0.3008  0.5020  0.5559
  605MOL0     C83391  11.054  11.823   6.893 -0.1148 -0.6208  0.2577
  605MOL0     C83392  11.034  11.956   6.811 -0.3523  0.7467 -0.4163
  605MOL0     C83393  11.150  11.993   6.713 -0.5026 -0.2227 -0.5944
  605MOL0     C83394  11.134  12.128   6.640 -0.5034 -0.0666  0.3672
  605MOL0     C83395  11.170  12.233   6.751 -0.1504  0.5654  0.7219
  605MOL0     C83396  11.248  12.351   6.690  1.1196 -1.1047 -0.8872
  605MOL0    Cl83397  11.154  12.426   6.569  0.0009 -0.4019 -0.4331
  605MOL0     C83398  10.585  11.585   6.797  0.2688 -0.4436  0.1703
  605MOL0     C83399  10.463  11.522   6.759  0.1151 -0.2695  0.1157
  605MOL0     O83400  10.350  11.210   6.906 -0.3451 -1.1491  0.1387
  605MOL0     C83401  10.172  11.028   6.806  0.1959 -0.7026  0.6919
  605MOL0     C83402  10.074  10.938   6.764  0.1231  0.0432  0.9049
  605MOL0     N83403   9.264  10.817   6.484  0.1405 -0.2611 -0.0515
  605MOL0     N83404   9.145  10.810   6.527 -0.1544  0.3597  0.5707
  605MOL0     C83405   8.511  11.063   7.418  0.7424 -0.1726  0.3129
  605MOL0     C83406   8.412  11.124   7.497 -0.5545  0.2137  0.4588
  605MOL0     C83407   7.998  11.257   7.618  0.2662  0.0778 -1.0481
  605MOL0     C83408   7.966  11.200   7.739 -0.6970 -0.1069  0.3316
  605MOL0     C83409   7.860  11.232   7.818 -0.8882  0.0852 -0.0879
  605MOL0     C83410   7.762  11.310   7.773 -0.2065 -1.3580  0.5117
  605MOL0     O83411   7.657  11.334   7.861  0.1055 -0.6380  0.7799
  605MOL0     C83412   7.542  11.405   7.811 -0.6874  0.0066 -0.2652
  605MOL0     C83413   7.436  11.438   7.917 -0.2359 -0.1151 -0.2853
  605MOL0     C83414   7.307  11.464   7.840  0.4353  0.2104  0.0759
  605MOL0     C83415   7.194  11.484   7.936  0.0260  0.3761 -0.6392
  605MOL0     C83416   7.065  11.480   7.868 -0.3734  0.3065 -0.7302
  605MOL0     C83417   6.955  11.463   7.813  0.0794 -0.7342 -1.2240
  605MOL0     C83418   7.777  11.363   7.636  0.0672 -0.0877  0.1415
  605MOL0     C83419   7.896  11.348   7.563  0.4420  0.2190 -1.1149
  605MOL0     C83420   7.910  11.430   7.439  0.0988 -0.8691 -0.4098
  605MOL0     H83421   8.214  10.847   7.553  0.9271 -3.9283 -0.8445
  605MOL0     H83422   8.378  10.749   7.419  0.5032  0.2027  1.5240
  605MOL0     H83423   8.760  10.974   7.323  1.1736  0.8880 -0.5682
  605MOL0     H83424   8.662  10.959   7.170 -2.6004  0.5618  1.7376
  605MOL0     H83425   8.829  10.737   7.312  0.7967 -2.9961 -2.2739
  605MOL0     H83426   8.750  10.711   7.160 -0.4548 -1.5891  1.0311
  605MOL0     H83427   8.886  10.861   7.045  1.6414  1.0878 -0.6469
  605MOL0     H83428   8.945  10.935   7.200 -0.6517 -0.3218  0.0565
  605MOL0     H83429   9.055  10.728   7.254 -0.1733  0.0243  0.1452
  605MOL0     H83430   9.008  10.640   7.111  1.5952  0.2717  1.4809
  605MOL0     H83431   9.238  10.720   7.091 -0.1958 -0.2248 -1.4105
  605MOL0     H83432   9.178  10.886   7.111 -1.2453  1.5574 -1.9050
  605MOL0     H83433   9.071  10.893   6.913  0.4386 -0.5350  3.3707
  605MOL0     H83434   9.235  10.830   6.871  0.6034  1.7323  1.9972
  605MOL0     H83435   8.976  10.645   6.894 -1.7910 -0.0382 -1.5118
  605MOL0     H83436   9.142  10.603   6.842  1.0216  1.5814 -1.2307
  605MOL0     H83437   8.951  10.603   6.682 -0.9929 -1.0227  4.0364
  605MOL0     H83438   8.960  10.780   6.697  1.3598  0.5530 -1.3220
  605MOL0     H83439   9.263  10.560   6.686 -1.0722  1.9202  1.3953
  605MOL0     H83440   9.497  10.683   6.403  1.5766  4.3389  0.7760
  605MOL0     H83441   9.519  10.593   6.552 -0.0854 -0.0878 -0.1244
  605MOL0     H83442   9.518  10.900   6.578 -0.6029  0.0383 -0.0015
  605MOL0     H83443   9.558  10.770   6.693  3.2982  2.8847  0.7380
  605MOL0     H83444   9.749  10.700   6.555  1.9245  0.7353  0.4270
  605MOL0     H83445   9.705  10.827   6.441 -2.7019 -2.7675 -0.8588
  605MOL0     H83446   9.740  10.984   6.640 -0.8639  0.0734  1.8824
  605MOL0     H83447   9.782  10.842   6.743 -1.3507  1.0714  0.3888
  605MOL0     H83448   9.880  11.139   6.584 -1.4608  0.0337  2.1390
  605MOL0     H83449   9.924  11.363   6.601 -0.2864  0.9625  0.4264
  605MOL0     H83450  10.096  11.383   6.609 -0.7772  2.3173 -0.3960
  605MOL0     H83451  10.006  11.421   6.752  3.1023  0.1265 -0.2852
  605MOL0     H83452  10.346  11.434   7.060 -1.0888  0.3708 -0.0408
  605MOL0     H83453  10.546  11.552   7.130 -0.7314 -1.6115 -0.0353
  605MOL0     H83454  10.892  11.595   6.867 -1.1816  0.7158 -2.2446
  605MOL0     H83455  10.812  11.732   6.799 -1.7605  0.6360  0.5477
  605MOL0     H83456  10.873  11.868   7.008 -0.6809  0.4115 -0.9106
  605MOL0     H83457  10.953  11.723   7.066 -5.8122 -1.1699  1.2938
  605MOL0     H83458  11.091  11.746   6.824 -2.2878 -0.6481 -0.9318
  605MOL0     H83459  11.129  11.852   6.968  0.5263 -1.3148 -0.1072
  605MOL0     H83460  11.013  12.044   6.872 -2.5933  0.3840 -0.5923
  605MOL0     H83461  10.949  11.937   6.746 -0.4633 -1.6259  0.3544
  605MOL0     H83462  11.244  11.996   6.768 -1.1133 -0.5054  0.4907
  605MOL0     H83463  11.155  11.915   6.637  1.7606 -0.8914  0.1876
  605MOL0     H83464  11.040  12.138   6.586  0.3192  1.1638 -0.9188
  605MOL0     H83465  11.219  12.125   6.570 -1.6838 -0.7203 -1.0971
  605MOL0     H83466  11.229  12.196   6.835  0.0535 -0.1689  0.2662
  605MOL0     H83467  11.079  12.276   6.793 -0.3135  0.3320  0.6098
  605MOL0     H83468  11.336  12.313   6.637  2.1373  0.2473 -0.2056
  605MOL0     H83469  11.281  12.414   6.773 -0.8795 -4.5609  2.8892
  605MOL0     H83470  10.653  11.623   6.722  2.2655  2.0907  3.0350
  605MOL0     H83471  10.447  11.509   6.653 -1.0829  0.4066  0.2060
  605MOL0     H83472  10.254  10.988   6.865 -0.3239 -1.4072  0.9516
  605MOL0     H83473  10.097  10.834   6.784  0.3808 -0.7147 -2.6321
  605MOL0     H83474   8.589  11.131   7.385 -1.3124  2.4881  0.5742
  605MOL0     H83475   8.422  11.230   7.520 -2.3377  1.4561 -3.4562
  605MOL0     H83476   8.026  11.121   7.783 -0.6190 -1.1215 -1.4521
  605MOL0     H83477   7.842  11.172   7.906 -1.9152  0.9663  0.3187
  605MOL0     H83478   7.575  11.493   7.755  0.6264 -1.2931 -1.6336
  605MOL0     H83479   7.498  11.339   7.736 -2.1938 -0.3159  0.8696
  605MOL0     H83480   7.461  11.533   7.966 -0.6694 -0.0831 -0.1235
  605MOL0     H83481   7.423  11.353   7.985  0.2607 -0.2438 -0.3423
  605MOL0     H83482   7.314  11.556   7.782  0.7593 -0.2605 -0.6422
  605MOL0     H83483   7.289  11.390   7.762  0.0863  1.8640 -1.4557
  605MOL0     H83484   7.203  11.587   7.973  1.7336  0.1718 -0.4225
  605MOL0     H83485   7.193  11.405   8.012 -3.0643 -0.9021 -1.8327
  605MOL0     H83486   6.874  11.442   7.745  0.3891 -2.2820 -1.1609
  605MOL0     H83487   7.705  11.436   7.601 -1.8993 -1.3210  1.4072
  605MOL0     H83488   7.921  11.369   7.349 -0.3667 -1.8491  0.1764
  605MOL0     H83489   7.836  11.509   7.424  3.4443  2.2966 -1.4151
  605MOL0     H83490   8.000  11.490   7.448 -1.5724  1.6018  0.8602
  606MOL0     O83491   8.554   8.345   3.519  0.2741  0.1886 -0.7424
  606MOL0     C83492   8.544   8.452   3.584  0.3288 -0.7934  0.6681
  606MOL0     O83493   8.614   8.482   3.690  0.1529 -0.0546 -0.5776
  606MOL0     C83494   8.710   8.399   3.739  0.6790 -0.2019  0.3626
  606MOL0     C83495   8.825   8.466   3.787 -1.0317  1.2574 -0.1575
  606MOL0     C83496   8.924   8.392   3.856  0.4324  0.6335 -0.2386
  606MOL0     C83497   8.905   8.263   3.884  0.1853 -0.0439 -0.3188
  606MOL0     O83498   9.005   8.197   3.951 -0.1275  0.9090  0.4725
  606MOL0     C83499   9.045   8.083   3.882  0.1339  0.1166 -0.3980
  606MOL0     C83500   9.194   8.055   3.895 -0.0351 -0.3207  0.3585
  606MOL0     C83501   9.236   8.007   4.034  0.4484 -0.2253 -0.3817
  606MOL0     C83502   9.390   8.020   4.050  0.4715 -0.4305 -0.6828
  606MOL0     C83503   9.448   7.954   4.174  0.1605 -0.1817 -0.0689
  606MOL0     C83504   9.385   8.019   4.309  0.1114  0.2249 -0.0195
  606MOL0     C83505   9.473   8.018   4.435  0.3573 -0.0046  0.8487
  606MOL0     C83506   9.609   8.093   4.412  0.4143  0.0181 -0.0336
  606MOL0     N83507   9.679   8.138   4.535  0.3235  0.0495  0.3418
  606MOL0     C83508   9.687   8.063   4.647 -0.0474  0.5296 -0.6760
  606MOL0     C83509   9.774   8.130   4.723  0.4326 -0.0108  0.2469
  606MOL0     C83510   9.816   8.094   4.869 -0.0324 -0.4607 -0.2313
  606MOL0     C83511   9.964   8.053   4.890  0.1383 -0.5568  1.1228
  606MOL0     C83512   9.992   7.926   4.813 -0.6677  0.4468 -0.0201
  606MOL0     C83513  10.140   7.879   4.823 -0.1768  0.9567 -0.4788
  606MOL0     O83514  10.236   7.969   4.779 -0.1625 -0.1428  0.3108
  606MOL0     C83515  10.364   7.962   4.831 -0.2088 -0.9335 -0.8273
  606MOL0     C83516  10.417   8.087   4.851  0.0406 -0.0986  0.5423
  606MOL0     C83517  10.553   8.108   4.868  0.6584  0.0327  0.1463
  606MOL0     C83518  10.602   8.253   4.875  0.2413  0.3109 -0.2976
  606MOL0     C83519  10.630   8.000   4.903  0.2207  0.0910 -0.7579
  606MOL0     C83520  10.768   8.002   4.962 -0.6133  0.0957  0.1505
  606MOL0     O83521  10.804   7.884   5.035 -0.0194 -0.1999  0.8176
  606MOL0     C83522  10.933   7.851   5.048 -0.2470  0.6052 -0.7473
  606MOL0     C83523  10.993   7.758   4.968  0.1091 -0.3276  0.2300
  606MOL0     C83524  11.125   7.715   4.977  0.3329 -0.2843  0.3227
  606MOL0     C83525  11.208   7.780   5.065 -0.1018 -0.2507 -0.2222
  606MOL0     O83526  11.346   7.778   5.080 -1.2591 -0.5088 -0.9704
  606MOL0     C83527  11.418   7.701   4.979  0.0580 -0.8403  0.6915
  606MOL0     C83528  11.557   7.763   4.952 -0.1045  0.6722  1.0846
  606MOL0     C83529  11.641   7.674   4.857  0.0062  0.2830  0.7069
  606MOL0     C83530  11.769   7.749   4.817  1.3330 -0.1298 -0.2627
  606MOL0     C83531  11.750   7.845   4.700  0.0435 -0.3449 -0.2283
  606MOL0     C83532  11.872   7.943   4.689 -0.5166 -0.4777  0.4877
  606MOL0     C83533  12.006   7.872   4.664 -0.4879 -0.0127 -0.4794
  606MOL0     C83534  12.003   7.780   4.534  0.6506 -0.3421  0.2953
  606MOL0    Cl83535  11.993   7.897   4.394  0.0700  0.2068 -0.1950
  606MOL0     C83536  11.149   7.873   5.157 -0.3947 -1.0154 -0.1839
  606MOL0     C83537  11.015   7.906   5.154  0.2122  0.4582 -0.3148
  606MOL0     O83538  10.845   8.091   4.939 -0.3664  0.0939  0.0477
  606MOL0     C83539  10.576   7.870   4.882 -0.1362 -0.7328  0.4315
  606MOL0     C83540  10.440   7.854   4.847 -0.4288  0.5630  0.4880
  606MOL0     N83541   9.821   8.246   4.666 -0.6522 -0.2718  0.2553
  606MOL0     N83542   9.761   8.246   4.554 -1.3263  0.1336  1.1507
  606MOL0     C83543   8.785   8.204   3.842 -0.7792 -1.0011  0.4562
  606MOL0     C83544   8.696   8.264   3.763 -0.0575 -0.1867  0.0807
  606MOL0     C83545   8.437   8.547   3.547  0.1315 -0.1455  1.0770
  606MOL0     C83546   8.362   8.622   3.646 -0.6321 -0.0021  0.5265
  606MOL0     C83547   8.281   8.725   3.600 -0.6099  0.3566 -0.7083
  606MOL0     C83548   8.252   8.749   3.465  0.5675  0.2962 -1.0518
  606MOL0     O83549   8.161   8.852   3.425 -0.1230 -0.0382 -0.1776
  606MOL0     C83550   8.149   8.967   3.513 -0.1709  0.0652  0.5205
  606MOL0     C83551   8.036   9.052   3.450 -0.1892  0.4595 -0.0765
  606MOL0     C83552   7.914   8.965   3.408 -0.4788  0.8587 -0.0311
  606MOL0     C83553   7.792   9.056   3.410  0.8421  0.0893 -0.0119
  606MOL0     C83554   7.665   8.986   3.373 -0.9223  0.2191 -0.1064
  606MOL0     C83555   7.551   8.955   3.333 -0.6417 -0.5250  0.2972
  606MOL0     C83556   8.317   8.678   3.374 -0.0359  0.2984 -0.1495
  606MOL0     C83557   8.415   8.580   3.404 -0.5731 -0.3068 -0.5897
  606MOL0     C83558   8.484   8.509   3.285  0.4049 -0.1156 -0.6192
  606MOL0     H83559   8.827   8.574   3.777  0.1726  1.4277  1.5227
  606MOL0     H83560   9.018   8.438   3.885  1.0316 -0.8272  0.2268
  606MOL0     H83561   9.036   8.098   3.774  1.9617 -1.7170 -0.8796
  606MOL0     H83562   8.987   7.996   3.916 -1.2181 -0.2291 -3.2040
  606MOL0     H83563   9.213   7.979   3.819  3.0885 -1.9452  2.5853
  606MOL0     H83564   9.251   8.141   3.857  2.5667 -1.9198  0.4259
  606MOL0     H83565   9.179   8.074   4.099  1.7160  1.5405 -1.0171
  606MOL0     H83566   9.196   7.906   4.045  0.1929 -0.0946 -0.0925
  606MOL0     H83567   9.436   7.988   3.956 -1.1996  1.3266 -2.1697
  606MOL0     H83568   9.404   8.128   4.055 -1.1528  0.1306 -4.7218
  606MOL0     H83569   9.557   7.955   4.170  0.4147  1.9824  3.5449
  606MOL0     H83570   9.422   7.848   4.175 -1.2911  0.1492  1.3515
  606MOL0     H83571   9.346   8.120   4.293  1.4906  0.9773  1.2416
  606MOL0     H83572   9.300   7.953   4.328  1.2598 -1.9660 -1.8813
  606MOL0     H83573   9.504   7.918   4.466 -1.5977 -0.6689  0.7924
  606MOL0     H83574   9.415   8.061   4.517  0.4587  2.4179 -0.2466
  606MOL0     H83575   9.676   8.020   4.364  0.5372  0.1881 -0.1186
  606MOL0     H83576   9.608   8.181   4.347  2.5432  1.1990  1.4019
  606MOL0     H83577   9.642   7.966   4.665 -1.1681  1.2714  0.7221
  606MOL0     H83578   9.750   8.015   4.906 -1.6526  1.3981  1.0286
  606MOL0     H83579   9.800   8.181   4.933  2.1934  0.9758 -1.4682
  606MOL0     H83580  10.019   8.140   4.853 -0.2388 -0.3170  1.1166
  606MOL0     H83581   9.997   8.047   4.994  2.3061  1.0662  0.5863
  606MOL0     H83582   9.923   7.850   4.850 -0.9657  0.1031 -1.2455
  606MOL0     H83583   9.963   7.941   4.709 -1.1453 -0.2809  0.0016
  606MOL0     H83584  10.168   7.852   4.925 -2.3783 -0.7508 -0.2654
  606MOL0     H83585  10.153   7.784   4.769  3.0421  1.1932 -0.3474
  606MOL0     H83586  10.361   8.178   4.831  0.8220  0.8546  2.4590
  606MOL0     H83587  10.653   8.275   4.969  1.4382 -4.5446  0.4496
  606MOL0     H83588  10.513   8.318   4.873 -0.2880 -0.3523  0.7011
  606MOL0     H83589  10.676   8.281   4.799 -0.3900  1.2036 -0.6020
  606MOL0     H83590  10.940   7.706   4.889 -2.0745 -1.1277  2.1000
  606MOL0     H83591  11.163   7.635   4.915  1.0647 -0.3671  0.8695
  606MOL0     H83592  11.420   7.595   5.008  0.3239 -1.1525 -0.4305
  606MOL0     H83593  11.359   7.710   4.888  0.5720 -0.7962  0.3561
  606MOL0     H83594  11.536   7.861   4.908  3.0600  1.1152  0.3586
  606MOL0     H83595  11.616   7.765   5.044  2.8351 -2.9245 -0.4677
  606MOL0     H83596  11.577   7.659   4.769 -0.9943  1.1514  1.2616
  606MOL0     H83597  11.648   7.572   4.895 -3.6593 -1.4254 -2.4807
  606MOL0     H83598  11.847   7.675   4.794 -0.1688 -0.9222 -3.1827
  606MOL0     H83599  11.805   7.801   4.907  0.6400 -0.8384  0.4507
  606MOL0     H83600  11.737   7.790   4.606  3.0655 -2.9498  0.6720
  606MOL0     H83601  11.651   7.889   4.712 -1.2363 -3.2129  0.8168
  606MOL0     H83602  11.893   7.991   4.785 -1.0641 -0.7478  0.7446
  606MOL0     H83603  11.848   8.022   4.618  1.0944 -3.6774 -4.1139
  606MOL0     H83604  12.032   7.804   4.745  5.4761 -0.5163 -2.3105
  606MOL0     H83605  12.086   7.946   4.654  0.6443 -1.2497 -0.8729
  606MOL0     H83606  11.931   7.698   4.534  1.5251 -1.1411  0.6365
  606MOL0     H83607  12.105   7.740   4.530  1.8736  2.6119 -1.7978
  606MOL0     H83608  11.213   7.927   5.227  0.3530 -0.9617 -0.8901
  606MOL0     H83609  10.976   7.981   5.221 -0.2434  0.3935 -0.5079
  606MOL0     H83610  10.638   7.784   4.906  0.5321  0.4078  3.2194
  606MOL0     H83611  10.411   7.753   4.819 -0.4459  0.9723 -1.0559
  606MOL0     H83612   8.773   8.098   3.866 -0.2805 -0.8809  1.2693
  606MOL0     H83613   8.612   8.206   3.726 -1.8637  1.9822  0.5336
  606MOL0     H83614   8.364   8.608   3.754 -3.5392 -0.8977  0.5324
  606MOL0     H83615   8.221   8.782   3.671 -1.5868  0.3476 -1.5056
  606MOL0     H83616   8.121   8.948   3.617  0.5846  0.4045  0.7897
  606MOL0     H83617   8.243   9.023   3.520  0.9929 -1.7468  0.3531
  606MOL0     H83618   8.077   9.104   3.363 -1.0501 -0.2726 -0.9456
  606MOL0     H83619   8.005   9.129   3.521  2.1819  1.5603 -0.1739
  606MOL0     H83620   7.927   8.928   3.306 -0.1246 -2.0859  0.9908
  606MOL0     H83621   7.911   8.887   3.484  0.4035  0.8038 -0.0340
  606MOL0     H83622   7.800   9.138   3.338 -2.4027  0.4756 -0.0703
  606MOL0     H83623   7.778   9.097   3.510  0.1723  1.4901 -0.6597
  606MOL0     H83624   7.451   8.923   3.314 -0.0602 -1.2217 -1.8956
  606MOL0     H83625   8.290   8.704   3.272  1.6839  1.3215 -0.3802
  606MOL0     H83626   8.479   8.400   3.288 -0.9349 -0.2126 -3.3412
  606MOL0     H83627   8.417   8.533   3.201  0.0207  2.1262  0.2497
  606MOL0     H83628   8.584   8.549   3.270  0.4403 -0.1644 -0.5132
  607MOL0     O83629   2.459   0.634   0.857  0.1283  0.3406 -0.2232
  607MOL0     C83630   2.422   0.698   0.758 -1.0050  1.2644  1.3912
  607MOL0     O83631   2.471   0.818   0.722 -0.1928 -0.1670 -0.2886
  607MOL0     C83632   2.605   0.846   0.739  0.6819  0.0104 -0.0265
  607MOL0     C83633   2.646   0.885   0.861  0.6108 -0.3055 -0.2849
  607MOL0     C83634   2.775   0.926   0.892 -0.8598  0.7350 -0.5386
  607MOL0     C83635   2.876   0.915   0.796 -0.2891 -0.1406  0.0850
  607MOL0     O83636   3.005   0.957   0.829  0.0461  0.0663 -0.3279
  607MOL0     C83637   3.107   0.941   0.729 -0.9071 -0.3982  0.8252
  607MOL0     C83638   3.168   0.803   0.707  0.2303  0.6396  0.0199
  607MOL0     C83639   3.296   0.772   0.784  0.2753  0.2690 -0.5020
  607MOL0     C83640   3.265   0.735   0.934 -0.4648 -0.3644 -0.5853
  607MOL0     C83641   3.388   0.670   1.006  0.5776 -0.1238  0.1668
  607MOL0     C83642   3.349   0.611   1.142 -0.1381 -0.5519 -0.2027
  607MOL0     C83643   3.469   0.579   1.223 -0.0117  0.2540 -0.1425
  607MOL0     C83644   3.431   0.514   1.354 -0.2393  0.3113 -0.0550
  607MOL0     N83645   3.543   0.468   1.441 -0.6955  0.1415  0.8072
  607MOL0     C83646   3.669   0.524   1.455 -0.4340  0.1041 -0.1787
  607MOL0     C83647   3.754   0.433   1.512 -0.7928 -0.3759 -1.3725
  607MOL0     C83648   3.899   0.454   1.553 -0.4175  0.4966 -0.1710
  607MOL0     C83649   3.961   0.347   1.638 -0.8542  0.8371 -0.3824
  607MOL0     C83650   3.949   0.392   1.788 -0.1845 -0.2750  1.1800
  607MOL0     C83651   4.031   0.301   1.886 -0.2111 -0.1779  0.3753
  607MOL0     O83652   3.966   0.291   2.023  0.1088  0.3386  0.4605
  607MOL0     C83653   3.838   0.252   2.028 -0.1563  0.3893 -0.3283
  607MOL0     C83654   3.764   0.195   1.920 -0.3155  0.2009 -0.5427
  607MOL0     C83655   3.637   0.151   1.928 -0.5745 -0.7242  0.7984
  607MOL0     C83656   3.575   0.090   1.803  0.6140  0.6711 -0.2645
  607MOL0     C83657   3.581   0.149   2.063 -0.3617  0.5865 -0.6294
  607MOL0     C83658   3.451   0.084   2.087 -0.3418  0.2655  0.1039
  607MOL0     O83659   3.351   0.097   2.000  0.0147  0.0828 -0.7065
  607MOL0     C83660   3.236   0.027   2.021  0.1633  0.2344  0.3483
  607MOL0     C83661   3.227  -0.112   1.985  0.4261 -0.1564 -0.1312
  607MOL0     C83662   3.101  -0.177   1.978 -1.0869  0.2220 -0.7376
  607MOL0     C83663   2.991  -0.102   2.017 -0.4131 -0.1057 -0.5932
  607MOL0     O83664   2.869  -0.160   2.000 -0.6169 -0.0851 -0.1727
  607MOL0     C83665   2.844  -0.287   2.062  0.3600 -0.4245 -0.4015
  607MOL0     C83666   2.699  -0.323   2.035  0.1417 -0.7077  0.1383
  607MOL0     C83667   2.607  -0.236   2.127 -0.7623 -0.3390  0.3462
  607MOL0     C83668   2.460  -0.240   2.076  0.0679 -0.1678 -0.2548
  607MOL0     C83669   2.371  -0.144   2.152 -0.5072 -0.4918 -0.1951
  607MOL0     C83670   2.226  -0.186   2.152  0.4301  0.6306  0.0545
  607MOL0     C83671   2.199  -0.309   2.248  0.1167 -0.6216  0.7670
  607MOL0     C83672   2.059  -0.321   2.299 -0.3819 -0.1535  0.7119
  607MOL0    Cl83673   2.044  -0.175   2.399 -0.0298  0.1309 -0.1115
  607MOL0     C83674   3.005   0.028   2.069  0.0239  0.1392  0.6628
  607MOL0     C83675   3.127   0.091   2.077 -0.5162  0.1157 -0.6618
  607MOL0     O83676   3.444   0.012   2.188  0.1676 -0.1899  0.4528
  607MOL0     C83677   3.652   0.201   2.171 -0.7558  0.1995 -0.2251
  607MOL0     C83678   3.777   0.262   2.150  0.0360 -0.4652 -0.0053
  607MOL0     N83679   3.681   0.318   1.529  0.2538 -0.2093  1.0902
  607MOL0     N83680   3.558   0.342   1.485  0.0888  0.5116  0.2901
  607MOL0     C83681   2.836   0.875   0.661 -0.3774  0.2363 -0.0248
  607MOL0     C83682   2.702   0.843   0.632  0.0095  0.2663 -0.4487
  607MOL0     C83683   2.321   0.629   0.660  0.4712  0.4826  0.5279
  607MOL0     C83684   2.283   0.499   0.697  0.9141  0.7204 -0.3309
  607MOL0     C83685   2.188   0.420   0.627  0.4731 -0.7005  0.0501
  607MOL0     C83686   2.130   0.475   0.513  0.5010 -0.0913 -0.4379
  607MOL0     O83687   2.040   0.416   0.425 -0.7853 -0.0089  0.4796
  607MOL0     C83688   1.972   0.294   0.453 -0.0700 -0.3140  0.3748
  607MOL0     C83689   2.056   0.174   0.402  0.1567  0.1548  0.0544
  607MOL0     C83690   1.996   0.035   0.419 -0.2070  0.7332 -0.7980
  607MOL0     C83691   1.845   0.011   0.411  0.2786  0.8190  0.9138
  607MOL0     C83692   1.788   0.064   0.286 -0.6261 -0.8610 -0.3682
  607MOL0     C83693   1.735   0.114   0.190  0.2745  0.2929  0.1064
  607MOL0     C83694   2.161   0.610   0.473 -0.6482  0.2944 -0.4153
  607MOL0     C83695   2.265   0.684   0.542  0.1682 -0.1860 -0.1393
  607MOL0     C83696   2.297   0.817   0.485  0.6386  1.0261  0.2010
  607MOL0     H83697   2.571   0.885   0.940  0.9289 -3.8554  0.1828
  607MOL0     H83698   2.803   0.954   0.992  0.8988 -1.2516 -0.4010
  607MOL0     H83699   3.190   1.007   0.757 -2.1801  1.0534  1.2788
  607MOL0     H83700   3.078   0.974   0.629 -0.5563 -0.2588  0.7676
  607MOL0     H83701   3.092   0.725   0.718  0.9254 -0.1224 -0.4427
  607MOL0     H83702   3.187   0.784   0.601 -3.0264 -0.7731 -0.4359
  607MOL0     H83703   3.345   0.685   0.741  2.7556  1.3655 -0.0814
  607MOL0     H83704   3.369   0.853   0.774  0.0855  0.4850 -0.1719
  607MOL0     H83705   3.248   0.819   1.002  0.8974 -1.2076  0.8637
  607MOL0     H83706   3.177   0.670   0.937 -0.6324 -0.1418 -0.6146
  607MOL0     H83707   3.468   0.745   1.010  0.4512  0.4338 -3.8666
  607MOL0     H83708   3.419   0.589   0.940 -2.3445 -1.9205  0.8265
  607MOL0     H83709   3.295   0.687   1.200 -1.1340 -1.6738  0.3891
  607MOL0     H83710   3.294   0.517   1.131 -0.4617 -0.1722 -2.1281
  607MOL0     H83711   3.535   0.662   1.247  0.8129 -0.5190  0.3050
  607MOL0     H83712   3.535   0.509   1.171  1.7903  1.8605 -0.1120
  607MOL0     H83713   3.375   0.579   1.421  1.6348 -0.1489  2.0837
  607MOL0     H83714   3.368   0.426   1.337 -2.8086  1.9558  0.3450
  607MOL0     H83715   3.682   0.623   1.414  1.2095 -0.5690 -1.3845
  607MOL0     H83716   3.917   0.557   1.584  2.8974 -0.6042  2.0892
  607MOL0     H83717   3.947   0.439   1.456 -2.3512  0.9157 -1.2517
  607MOL0     H83718   3.904   0.254   1.628  0.9007 -0.1573 -1.7748
  607MOL0     H83719   4.066   0.318   1.624 -1.2649 -0.6779 -0.5345
  607MOL0     H83720   3.983   0.494   1.808 -2.2960  0.2726  2.3420
  607MOL0     H83721   3.845   0.409   1.817 -0.5823  2.0708 -1.1743
  607MOL0     H83722   4.049   0.200   1.847 -0.4041 -0.1459  0.1994
  607MOL0     H83723   4.133   0.339   1.895  0.2317 -1.2748  0.0895
  607MOL0     H83724   3.797   0.177   1.818  0.5085 -0.8031 -0.1163
  607MOL0     H83725   3.649   0.057   1.729  0.5915 -1.9413  0.7424
  607MOL0     H83726   3.510   0.157   1.747 -0.1315 -0.4270 -0.7611
  607MOL0     H83727   3.530  -0.005   1.833  0.5221  0.5629 -0.7263
  607MOL0     H83728   3.307  -0.181   1.960 -0.3746 -3.2012  4.4385
  607MOL0     H83729   3.091  -0.279   1.942  0.2297 -0.9277  1.8328
  607MOL0     H83730   2.909  -0.365   2.022  2.0808  1.0765 -0.6613
  607MOL0     H83731   2.858  -0.275   2.169 -0.6514 -1.2425 -0.1623
  607MOL0     H83732   2.677  -0.317   1.928  0.8218 -1.8892 -0.0811
  607MOL0     H83733   2.673  -0.425   2.064 -1.8324 -0.1896  0.3619
  607MOL0     H83734   2.632  -0.130   2.117 -0.5588 -0.3583  0.6599
  607MOL0     H83735   2.628  -0.275   2.227  1.6612 -4.4344 -1.5060
  607MOL0     H83736   2.432  -0.346   2.076  4.5526 -1.6395  2.7904
  607MOL0     H83737   2.456  -0.206   1.972  0.7789  1.4609  0.2269
  607MOL0     H83738   2.409  -0.130   2.254 -0.7094  1.3387 -0.3287
  607MOL0     H83739   2.372  -0.051   2.095 -2.8034  1.2333  2.2697
  607MOL0     H83740   2.202  -0.198   2.046  1.3206  0.2191 -0.1100
  607MOL0     H83741   2.176  -0.101   2.198 -0.2787  0.3313 -0.1390
  607MOL0     H83742   2.273  -0.301   2.327  0.5809  2.1201  0.1707
  607MOL0     H83743   2.205  -0.406   2.198 -2.2253 -2.8403  4.3417
  607MOL0     H83744   2.053  -0.411   2.361 -1.3072 -0.5808  0.0208
  607MOL0     H83745   1.989  -0.321   2.215 -0.2016 -2.9771  0.4699
  607MOL0     H83746   2.913   0.074   2.102 -1.2825 -1.2314 -0.8726
  607MOL0     H83747   3.133   0.196   2.103  1.2005 -0.6833  2.7941
  607MOL0     H83748   3.616   0.193   2.273  2.9949  0.0737  1.2692
  607MOL0     H83749   3.842   0.287   2.233  0.4236  0.5256 -0.5925
  607MOL0     H83750   2.910   0.870   0.581  0.3485 -0.1915  0.6522
  607MOL0     H83751   2.659   0.815   0.537  0.3203  1.0857 -0.8380
  607MOL0     H83752   2.312   0.444   0.786  0.9551 -2.2819 -2.0772
  607MOL0     H83753   2.159   0.322   0.663  0.4759 -1.6601 -2.3344
  607MOL0     H83754   1.939   0.276   0.556  1.9350  0.1209  1.1317
  607MOL0     H83755   1.884   0.308   0.390  0.5874  3.7044  0.1134
  607MOL0     H83756   2.150   0.170   0.458 -1.7355  1.3391  3.6605
  607MOL0     H83757   2.065   0.191   0.294  1.0215  2.5624  0.4457
  607MOL0     H83758   2.052  -0.038   0.359 -1.0660 -0.9961  0.3968
  607MOL0     H83759   2.015   0.004   0.522  0.3384 -0.9060 -1.3498
  607MOL0     H83760   1.800   0.069   0.493 -2.4308 -0.0557  0.1662
  607MOL0     H83761   1.813  -0.093   0.403 -1.6500  1.5317 -1.9473
  607MOL0     H83762   1.696   0.172   0.108  0.7615 -0.9054 -1.0070
  607MOL0     H83763   2.119   0.648   0.380 -0.8814  1.4348  0.1410
  607MOL0     H83764   2.406   0.832   0.484  0.7704  0.5991  2.5590
  607MOL0     H83765   2.252   0.830   0.386  0.2144 -1.3013  0.0206
  607MOL0     H83766   2.244   0.890   0.547 -0.5889 -0.7932  1.3868
  608MOL0     O83767   9.871   5.933   8.375  0.4335  0.2721 -0.6674
  608MOL0     C83768   9.801   6.030   8.390 -0.3539  0.3893 -0.0028
  608MOL0     O83769   9.847   6.156   8.435 -0.4005 -0.5465 -0.1864
  608MOL0     C83770   9.982   6.179   8.463 -0.8833 -0.4835  0.6638
  608MOL0     C83771  10.067   6.092   8.532 -0.0346 -0.9200 -0.7306
  608MOL0     C83772  10.208   6.128   8.555  0.3411  0.1871 -1.1212
  608MOL0     C83773  10.253   6.252   8.508  0.4216  0.4049 -0.5084
  608MOL0     O83774  10.388   6.272   8.517 -0.4552 -0.3775  0.1262
  608MOL0     C83775  10.447   6.296   8.389  0.0316 -0.0393  1.3706
  608MOL0     C83776  10.596   6.256   8.397 -1.1847 -0.0381 -0.1737
  608MOL0     C83777  10.622   6.122   8.468 -0.5236  0.3487 -0.0955
  608MOL0     C83778  10.577   5.993   8.385  0.7698  0.2305 -0.3017
  608MOL0     C83779  10.580   5.854   8.452 -0.4240 -0.2049 -0.2453
  608MOL0     C83780  10.514   5.733   8.369 -1.1228 -0.3226  0.3523
  608MOL0     C83781  10.582   5.702   8.234  0.1418  0.2897 -0.4643
  608MOL0     C83782  10.694   5.601   8.248  0.1632 -0.9065 -0.0097
  608MOL0     N83783  10.759   5.567   8.125 -1.0005 -0.2154  0.2794
  608MOL0     C83784  10.828   5.653   8.043  1.0653 -0.6672  0.1801
  608MOL0     C83785  10.852   5.586   7.927  0.3693  0.7887 -0.4065
  608MOL0     C83786  10.923   5.637   7.805 -0.3603  0.3736  0.0180
  608MOL0     C83787  10.980   5.550   7.701 -0.1819  1.0127 -0.7140
  608MOL0     C83788  11.108   5.601   7.628  0.5784  0.3813 -0.9614
  608MOL0     C83789  11.144   5.511   7.510  0.5598  0.0131 -0.3288
  608MOL0     O83790  11.204   5.587   7.409 -0.2588 -0.2485 -0.3424
  608MOL0     C83791  11.332   5.636   7.420  1.2722 -0.1695 -0.1134
  608MOL0     C83792  11.415   5.614   7.533  0.5229  0.7904  0.1673
  608MOL0     C83793  11.545   5.650   7.533 -0.3417 -0.5433  0.4933
  608MOL0     C83794  11.636   5.621   7.656 -0.3313 -0.2746 -0.2991
  608MOL0     C83795  11.603   5.716   7.417  0.1260 -0.6159 -0.4243
  608MOL0     C83796  11.743   5.775   7.411  0.1130  1.5383 -0.2423
  608MOL0     O83797  11.806   5.765   7.284 -0.0994  0.0731 -0.0728
  608MOL0     C83798  11.927   5.838   7.271  1.0257  0.4564 -0.3840
  608MOL0     C83799  12.045   5.775   7.253  0.4940 -0.2382  0.1906
  608MOL0     C83800  12.168   5.849   7.257  0.3524 -1.0352  0.3218
  608MOL0     C83801  12.164   5.985   7.264 -0.2765 -0.9216 -0.2123
  608MOL0     O83802  12.275   6.071   7.267  0.2344  0.4657 -0.1568
  608MOL0     C83803  12.418   6.024   7.270 -0.3470  0.1872 -0.6659
  608MOL0     C83804  12.502   6.112   7.182  0.6851  0.9971  0.2398
  608MOL0     C83805  12.649   6.096   7.200  0.1570  0.6844  0.4628
  608MOL0     C83806  12.701   6.174   7.328  0.4788 -0.3513 -0.1460
  608MOL0     C83807  12.855   6.163   7.336 -0.9418 -0.2069  0.3063
  608MOL0     C83808  12.942   6.223   7.224 -0.5079  0.4874 -0.1272
  608MOL0     C83809  13.098   6.221   7.252  0.4660  0.0180 -0.2669
  608MOL0     C83810  13.175   6.304   7.149  0.1256 -0.2487  0.0611
  608MOL0    Cl83811  13.165   6.242   6.986 -0.4233 -0.3295 -0.1983
  608MOL0     C83812  12.039   6.051   7.272  0.9242  0.6477  0.0830
  608MOL0     C83813  11.921   5.977   7.279  0.3918 -0.1577 -0.3287
  608MOL0     O83814  11.795   5.815   7.515 -0.1730  0.2202 -0.0803
  608MOL0     C83815  11.520   5.731   7.303 -0.5562  0.0688 -0.3144
  608MOL0     C83816  11.387   5.695   7.305 -0.0287  0.1488 -0.2919
  608MOL0     N83817  10.810   5.452   7.947  0.2950 -0.5639 -0.2664
  608MOL0     N83818  10.750   5.447   8.069  0.6122  0.5917 -0.3127
  608MOL0     C83819  10.154   6.344   8.458  0.1202 -0.2006  0.3509
  608MOL0     C83820  10.023   6.313   8.440 -0.2120  0.3273  0.5015
  608MOL0     C83821   9.652   6.019   8.359 -0.5509  0.0705  0.6519
  608MOL0     C83822   9.581   6.133   8.400  0.4839  0.1352  0.0229
  608MOL0     C83823   9.442   6.129   8.393 -0.3366 -0.5161 -0.0732
  608MOL0     C83824   9.367   6.027   8.350 -0.1823 -1.2233  0.4784
  608MOL0     O83825   9.232   6.045   8.339  0.1754  0.0624  0.4763
  608MOL0     C83826   9.154   5.947   8.271 -0.4131  1.2083  0.4733
  608MOL0     C83827   9.007   5.974   8.263  0.0912 -0.7753  0.3641
  608MOL0     C83828   8.927   5.852   8.211  0.3366 -0.1946 -0.4022
  608MOL0     C83829   8.788   5.864   8.262 -0.2783 -0.3110  0.2320
  608MOL0     C83830   8.700   5.815   8.150 -0.2531 -0.7026  0.1429
  608MOL0     C83831   8.622   5.756   8.081 -0.1903  0.1775  0.8418
  608MOL0     C83832   9.437   5.912   8.313  0.9178  0.4927 -0.1028
  608MOL0     C83833   9.584   5.904   8.310  0.0035  0.4501  0.7656
  608MOL0     C83834   9.653   5.789   8.250  0.3022  0.1711  0.6240
  608MOL0     H83835  10.022   5.999   8.564  0.5439 -0.8005  0.4981
  608MOL0     H83836  10.272   6.060   8.610 -0.6761  1.4060  1.7730
  608MOL0     H83837  10.438   6.402   8.365  0.7340 -0.4560 -0.9765
  608MOL0     H83838  10.394   6.237   8.313 -0.4707  1.6874  0.3335
  608MOL0     H83839  10.635   6.256   8.295 -0.7360 -0.7637 -0.0123
  608MOL0     H83840  10.652   6.333   8.450  1.3690 -1.7810 -0.1605
  608MOL0     H83841  10.729   6.113   8.487 -0.8403 -1.8183  1.0704
  608MOL0     H83842  10.584   6.125   8.571  1.1671  1.0346  0.5340
  608MOL0     H83843  10.473   6.010   8.357  1.0171 -2.1678 -3.1977
  608MOL0     H83844  10.641   5.993   8.296 -0.0865 -0.8379 -0.9402
  608MOL0     H83845  10.537   5.859   8.552  0.4331  0.9092  0.0880
  608MOL0     H83846  10.685   5.825   8.461 -0.2029 -0.3153 -2.5588
  608MOL0     H83847  10.525   5.643   8.431  2.1804 -1.1639 -1.1964
  608MOL0     H83848  10.407   5.754   8.361 -0.7462  1.0213 -2.0069
  608MOL0     H83849  10.618   5.796   8.193 -2.4953  2.0006  0.8299
  608MOL0     H83850  10.508   5.664   8.163 -1.5066  3.7194 -0.7855
  608MOL0     H83851  10.773   5.643   8.310 -0.8468  1.7730 -0.4110
  608MOL0     H83852  10.661   5.508   8.296  0.3843 -0.1906  1.5949
  608MOL0     H83853  10.843   5.760   8.054 -3.2864 -0.0508  2.5269
  608MOL0     H83854  11.002   5.700   7.848 -0.7656  3.5989 -3.3800
  608MOL0     H83855  10.851   5.705   7.757 -1.7467  0.5125  2.1674
  608MOL0     H83856  11.005   5.452   7.741 -0.4941  1.8976  1.7825
  608MOL0     H83857  10.896   5.516   7.640 -0.7834  1.0528  0.0795
  608MOL0     H83858  11.092   5.702   7.589 -1.2381 -1.4016 -5.5274
  608MOL0     H83859  11.181   5.585   7.708 -1.3621 -0.0702  0.8090
  608MOL0     H83860  11.202   5.424   7.542 -1.2972 -0.6800  1.3760
  608MOL0     H83861  11.052   5.471   7.465 -0.4114  1.4005  0.3484
  608MOL0     H83862  11.380   5.564   7.622  1.1088 -0.2520 -0.1712
  608MOL0     H83863  11.743   5.619   7.632 -0.5191 -0.0418 -1.2143
  608MOL0     H83864  11.606   5.533   7.713  2.3205 -0.2385  1.3061
  608MOL0     H83865  11.613   5.701   7.727  1.1609  0.5056 -0.6548
  608MOL0     H83866  12.046   5.666   7.258 -1.3366 -0.3712 -1.2825
  608MOL0     H83867  12.267   5.807   7.274  0.5876 -0.4349  0.4674
  608MOL0     H83868  12.452   6.028   7.374 -0.6254  1.6646 -0.6078
  608MOL0     H83869  12.422   5.920   7.236  3.5237 -0.8408  2.2187
  608MOL0     H83870  12.472   6.080   7.081  1.4097  2.2037 -0.3836
  608MOL0     H83871  12.461   6.212   7.196 -1.6316  0.4725 -1.9321
  608MOL0     H83872  12.697   6.137   7.110 -1.5242  0.3766 -0.6240
  608MOL0     H83873  12.670   5.989   7.198 -0.7595  0.3462 -4.5085
  608MOL0     H83874  12.666   6.136   7.424 -0.6513  0.9327 -0.0105
  608MOL0     H83875  12.662   6.276   7.320  1.5358  0.8239  5.6738
  608MOL0     H83876  12.884   6.203   7.434  3.4726  0.7885 -1.1784
  608MOL0     H83877  12.880   6.058   7.349 -0.9058 -0.0512  1.6199
  608MOL0     H83878  12.916   6.330   7.216  0.1261  0.6778  0.3245
  608MOL0     H83879  12.918   6.166   7.134  0.1482  0.4986 -0.3141
  608MOL0     H83880  13.127   6.115   7.259 -2.5602 -0.9599 -1.2279
  608MOL0     H83881  13.114   6.271   7.348 -1.0903  0.4160 -0.1873
  608MOL0     H83882  13.280   6.305   7.181  1.7178 -3.0013 -4.2498
  608MOL0     H83883  13.141   6.408   7.139  2.3087  0.4272 -0.9125
  608MOL0     H83884  12.027   6.159   7.276  4.9358  1.2083  2.6477
  608MOL0     H83885  11.830   6.035   7.288  0.2965 -0.2010 -0.9359
  608MOL0     H83886  11.566   5.771   7.214  0.7002  1.7635  1.0254
  608MOL0     H83887  11.321   5.689   7.219 -0.7206  2.6438  0.0057
  608MOL0     H83888  10.190   6.441   8.425  1.1814 -1.0357 -1.0744
  608MOL0     H83889   9.964   6.396   8.402  0.9472  1.8111  1.7792
  608MOL0     H83890   9.626   6.227   8.432 -2.2231  2.2703 -1.9745
  608MOL0     H83891   9.395   6.223   8.421  1.3618  0.2173  0.4337
  608MOL0     H83892   9.197   5.924   8.173  0.8479  2.6004  0.6722
  608MOL0     H83893   9.172   5.852   8.323 -1.9184 -1.3927 -3.2869
  608MOL0     H83894   9.000   6.057   8.193 -0.2867 -1.0593  0.0655
  608MOL0     H83895   8.973   6.023   8.355 -2.4429  0.7476 -1.2596
  608MOL0     H83896   8.930   5.866   8.103  1.1397 -1.0878 -0.4995
  608MOL0     H83897   8.978   5.759   8.235  1.2052  0.9277  2.5285
  608MOL0     H83898   8.758   5.964   8.295  3.1410  0.1999  2.3228
  608MOL0     H83899   8.779   5.802   8.351 -1.1979  2.5999  2.3077
  608MOL0     H83900   8.550   5.684   8.047 -0.6194  0.9519  0.0603
  608MOL0     H83901   9.389   5.822   8.276 -0.0443  1.6164 -1.7719
  608MOL0     H83902   9.693   5.818   8.152 -0.4824 -0.0388  0.2271
  608MOL0     H83903   9.735   5.751   8.311  0.8307 -0.7411 -0.6105
  608MOL0     H83904   9.579   5.710   8.234  1.4570 -0.4710 -2.1342
  609MOL0     O83905   3.818   0.717   1.013  0.1174  0.0600  0.3221
  609MOL0     C83906   3.887   0.773   0.933 -0.0390 -0.5470  0.3169
  609MOL0     O83907   3.946   0.718   0.815  0.5506 -0.3699  0.8614
  609MOL0     C83908   3.921   0.593   0.765  0.1222  0.1731 -0.3706
  609MOL0     C83909   4.024   0.533   0.694  0.3691  0.6103  0.1314
  609MOL0     C83910   4.016   0.400   0.647 -0.0271  0.0577 -0.0458
  609MOL0     C83911   3.907   0.324   0.681  0.0505  0.2550  0.4557
  609MOL0     O83912   3.915   0.195   0.634 -0.7036 -0.0966 -0.6691
  609MOL0     C83913   3.787   0.128   0.619  0.2397 -0.0106  0.2757
  609MOL0     C83914   3.811  -0.007   0.550 -0.6836 -0.2845 -0.4125
  609MOL0     C83915   3.893  -0.095   0.647  0.0837 -0.1809 -0.3561
  609MOL0     C83916   3.878  -0.244   0.599  0.4736  0.5659  0.0474
  609MOL0     C83917   3.973  -0.308   0.499  0.3927  0.2362 -0.4259
  609MOL0     C83918   3.908  -0.447   0.457 -0.6747 -0.2806  0.5658
  609MOL0     C83919   3.979  -0.536   0.353 -0.3259 -0.6470 -0.2275
  609MOL0     C83920   3.987  -0.685   0.374  0.6075  0.7125  0.1454
  609MOL0     N83921   3.853  -0.752   0.349 -0.3569 -0.1002 -0.1325
  609MOL0     C83922   3.809  -0.751   0.221  0.6620 -0.3951 -0.2066
  609MOL0     C83923   3.703  -0.834   0.227 -0.3702  0.1958 -0.3267
  609MOL0     C83924   3.618  -0.874   0.111 -0.6203 -0.7700  0.7655
  609MOL0     C83925   3.539  -0.754   0.071 -0.3314 -0.1440  0.4043
  609MOL0     C83926   3.421  -0.742   0.169 -0.2748  0.6216 -0.0363
  609MOL0     C83927   3.305  -0.672   0.103  0.2386  0.6445  0.1840
  609MOL0     O83928   3.188  -0.672   0.189  0.3827  0.3908 -0.0896
  609MOL0     C83929   3.056  -0.635   0.142  0.2400  0.0370 -0.6400
  609MOL0     C83930   2.950  -0.628   0.233  0.1269  0.9954 -0.0333
  609MOL0     C83931   2.822  -0.577   0.199 -0.2214  0.1580 -0.1021
  609MOL0     C83932   2.703  -0.590   0.297  0.6724 -0.2931 -0.6977
  609MOL0     C83933   2.811  -0.540   0.064  0.6305  0.1942 -0.6922
  609MOL0     C83934   2.696  -0.461   0.017  0.1541  0.0495 -0.1997
  609MOL0     O83935   2.728  -0.357  -0.057  0.0672  0.3906  0.0409
  609MOL0     C83936   2.634  -0.261  -0.072 -0.1143 -0.1709  0.4618
  609MOL0     C83937   2.599  -0.177   0.037 -0.0060  0.4576  0.3445
  609MOL0     C83938   2.498  -0.088   0.029  0.2408  0.1718 -0.3725
  609MOL0     C83939   2.430  -0.070  -0.090  0.1617  0.2495  0.4290
  609MOL0     O83940   2.325   0.023  -0.108 -1.2513  0.1122  0.0759
  609MOL0     C83941   2.280   0.109  -0.002 -0.6997  0.5145  0.0754
  609MOL0     C83942   2.166   0.204  -0.051 -0.5000  0.1404  0.1584
  609MOL0     C83943   2.198   0.308  -0.165 -0.8320  0.3350  0.3035
  609MOL0     C83944   2.063   0.365  -0.204  0.4349  0.4544  0.2417
  609MOL0     C83945   2.083   0.482  -0.302 -0.1258  0.6908  0.2890
  609MOL0     C83946   1.953   0.502  -0.385 -0.4156  0.5968  0.3104
  609MOL0     C83947   1.960   0.609  -0.488 -0.5538 -0.7893  0.1527
  609MOL0     C83948   1.816   0.616  -0.554  0.0494  0.4500  0.0631
  609MOL0    Cl83949   1.724   0.747  -0.472  0.0330 -0.0460  0.0065
  609MOL0     C83950   2.455  -0.152  -0.198  0.7399  0.1817  0.0144
  609MOL0     C83951   2.555  -0.249  -0.187 -0.0078  0.2314 -0.0280
  609MOL0     O83952   2.578  -0.501   0.053  0.0256 -0.5681 -0.0133
  609MOL0     C83953   2.915  -0.549  -0.022 -1.0299  0.2491 -0.2405
  609MOL0     C83954   3.037  -0.595   0.008  0.2525  0.8543 -0.4662
  609MOL0     N83955   3.683  -0.883   0.359 -0.0743  0.0120 -0.6562
  609MOL0     N83956   3.775  -0.829   0.427  0.4601 -0.0906 -0.6538
  609MOL0     C83957   3.800   0.383   0.755  0.1049 -0.5447  0.6369
  609MOL0     C83958   3.802   0.519   0.789 -0.5481 -0.6525  0.5470
  609MOL0     C83959   3.926   0.916   0.952 -0.1540 -0.5363 -0.4168
  609MOL0     C83960   4.029   0.975   0.875  0.3851  0.2232  0.1334
  609MOL0     C83961   4.062   1.108   0.881  0.0926 -0.4293 -0.0898
  609MOL0     C83962   4.014   1.196   0.979 -0.1822  0.3589  0.0655
  609MOL0     O83963   4.060   1.322   0.980 -0.0783 -0.2374  0.8951
  609MOL0     C83964   4.005   1.421   1.069  0.2167 -0.2051 -0.3095
  609MOL0     C83965   4.104   1.529   1.097  0.6594  0.2997  0.1000
  609MOL0     C83966   4.045   1.633   1.190  0.4042 -0.8958  0.2962
  609MOL0     C83967   4.160   1.701   1.263  0.9597  0.9341 -0.0007
  609MOL0     C83968   4.101   1.800   1.348  0.5458 -1.3138  0.4184
  609MOL0     C83969   4.077   1.893   1.426 -0.3818  0.0350 -0.0492
  609MOL0     C83970   3.910   1.140   1.055  0.5589 -0.9061  0.3898
  609MOL0     C83971   3.859   1.013   1.041 -0.4863 -0.4273  0.7683
  609MOL0     C83972   3.735   0.982   1.119  0.7239  0.5382 -0.7428
  609MOL0     H83973   4.113   0.592   0.671  2.0119 -2.1092 -0.9319
  609MOL0     H83974   4.095   0.361   0.583 -0.9922 -0.6537 -0.8256
  609MOL0     H83975   3.729   0.189   0.549 -1.0144 -1.5731 -0.1093
  609MOL0     H83976   3.729   0.118   0.711 -0.0343 -0.6710  0.0358
  609MOL0     H83977   3.711  -0.044   0.527 -1.1505  0.8948 -0.3663
  609MOL0     H83978   3.864  -0.007   0.454  0.6775  1.7630  0.2681
  609MOL0     H83979   3.997  -0.064   0.637 -0.0343  0.3356  0.0123
  609MOL0     H83980   3.850  -0.071   0.744  1.2567  1.8464 -0.2784
  609MOL0     H83981   3.889  -0.302   0.691 -2.1538 -1.1400 -0.6261
  609MOL0     H83982   3.776  -0.250   0.560  1.1187  1.1204 -1.8271
  609MOL0     H83983   4.063  -0.331   0.558 -0.8383 -0.9961  1.0401
  609MOL0     H83984   3.977  -0.258   0.402 -0.5853 -1.0528 -1.1498
  609MOL0     H83985   3.895  -0.500   0.552 -2.3065  0.7988  0.9763
  609MOL0     H83986   3.809  -0.420   0.420 -0.6830  0.8195  1.3450
  609MOL0     H83987   4.085  -0.510   0.353  0.5892 -3.9469 -1.0900
  609MOL0     H83988   3.938  -0.502   0.257  0.8401  1.9864  0.1304
  609MOL0     H83989   4.058  -0.721   0.299 -0.6125  3.1563 -2.3977
  609MOL0     H83990   4.013  -0.720   0.474 -1.5938 -1.6936 -0.0025
  609MOL0     H83991   3.856  -0.707   0.134  1.8285 -2.8531 -0.9042
  609MOL0     H83992   3.568  -0.969   0.129 -1.6940 -0.6819 -1.4058
  609MOL0     H83993   3.684  -0.889   0.025 -1.6172 -2.4796  0.2585
  609MOL0     H83994   3.601  -0.664   0.077  0.7278 -0.9279  2.5462
  609MOL0     H83995   3.509  -0.780  -0.031  0.8046  0.7529 -0.1827
  609MOL0     H83996   3.383  -0.839   0.201 -0.8247  0.9962  0.4671
  609MOL0     H83997   3.454  -0.679   0.252  0.7088 -1.8063  1.4918
  609MOL0     H83998   3.346  -0.572   0.082  1.3437 -0.0099 -0.8831
  609MOL0     H83999   3.270  -0.724   0.013 -1.2815  2.8186 -0.5737
  609MOL0     H84000   2.968  -0.652   0.337 -1.7513 -1.6478 -0.2182
  609MOL0     H84001   2.729  -0.615   0.400 -2.0470 -1.5083 -0.1992
  609MOL0     H84002   2.639  -0.677   0.279  0.7686 -0.7949  1.1801
  609MOL0     H84003   2.638  -0.502   0.302  2.0730  0.7936 -1.0461
  609MOL0     H84004   2.651  -0.185   0.132  1.1985 -1.2870 -0.4025
  609MOL0     H84005   2.479  -0.019   0.111 -3.3564 -0.5773 -0.4111
  609MOL0     H84006   2.239   0.044   0.076 -0.3870  2.3572  1.8553
  609MOL0     H84007   2.365   0.165   0.037 -1.6561  1.7868  0.3752
  609MOL0     H84008   2.084   0.138  -0.084 -0.1655 -1.3168  2.0292
  609MOL0     H84009   2.141   0.262   0.038  0.3586 -0.8289  1.0607
  609MOL0     H84010   2.257   0.248  -0.234 -1.1711 -2.2266  2.1079
  609MOL0     H84011   2.266   0.387  -0.133  0.0316  0.2812 -1.3334
  609MOL0     H84012   1.998   0.387  -0.119 -3.0755 -1.5757 -1.6800
  609MOL0     H84013   2.015   0.289  -0.267  0.2114  0.7742  0.0187
  609MOL0     H84014   2.110   0.576  -0.253 -2.6074  2.3674 -1.2507
  609MOL0     H84015   2.165   0.456  -0.370 -2.5604 -1.7189 -1.9918
  609MOL0     H84016   1.872   0.523  -0.315  0.9703 -0.9190  2.5041
  609MOL0     H84017   1.938   0.407  -0.437  1.7716 -0.8679  2.1660
  609MOL0     H84018   2.028   0.574  -0.567 -0.8077 -1.3740  0.1825
  609MOL0     H84019   1.983   0.702  -0.437 -1.2526 -2.2775  3.4072
  609MOL0     H84020   1.764   0.522  -0.535 -1.7343  1.5080  0.6633
  609MOL0     H84021   1.802   0.650  -0.657 -1.4928  0.4693  0.2620
  609MOL0     H84022   2.394  -0.150  -0.288  0.6254  1.0883  0.1072
  609MOL0     H84023   2.581  -0.313  -0.271  0.1026  3.1424 -2.3583
  609MOL0     H84024   2.894  -0.514  -0.123 -4.0901  0.6534  0.4363
  609MOL0     H84025   3.127  -0.589  -0.052 -0.5366 -0.6570 -1.9024
  609MOL0     H84026   3.721   0.317   0.789 -1.0288  0.8066  0.7272
  609MOL0     H84027   3.725   0.567   0.848 -0.8523 -1.2873  0.6737
  609MOL0     H84028   4.090   0.916   0.808 -0.2317 -1.2852  0.8435
  609MOL0     H84029   4.130   1.148   0.807  0.6750 -2.8437 -0.9760
  609MOL0     H84030   3.917   1.469   1.024  2.4382  3.3916 -1.2793
  609MOL0     H84031   3.976   1.379   1.166 -1.9485  1.3122 -0.2244
  609MOL0     H84032   4.134   1.579   1.004  1.3171 -3.2914 -1.8032
  609MOL0     H84033   4.186   1.479   1.149  0.4231  0.9458  1.1375
  609MOL0     H84034   3.976   1.701   1.138  0.2399 -2.4084 -1.5604
  609MOL0     H84035   3.988   1.576   1.264 -1.4983 -0.2669 -0.6084
  609MOL0     H84036   4.223   1.741   1.183 -1.7211  1.6666 -1.8830
  609MOL0     H84037   4.206   1.623   1.325 -0.8265 -0.9550 -0.9608
  609MOL0     H84038   4.054   1.961   1.505 -1.8674  1.3681 -1.5478
  609MOL0     H84039   3.859   1.204   1.127 -0.0157  0.1351 -0.9025
  609MOL0     H84040   3.706   1.076   1.167  1.5020  0.1961  0.4475
  609MOL0     H84041   3.655   0.943   1.055  0.0309 -0.9962  0.9852
  609MOL0     H84042   3.763   0.911   1.197 -0.4283  0.3162 -0.5152
  610MOL0     O84043   8.319   7.683   9.499  0.0676  0.6610 -0.2579
  610MOL0     C84044   8.297   7.726   9.616  0.1115 -0.1185 -0.0211
  610MOL0     O84045   8.178   7.791   9.653  0.3778 -0.3455 -0.3400
  610MOL0     C84046   8.068   7.750   9.577  0.1502  0.5171 -0.4582
  610MOL0     C84047   8.021   7.827   9.466  0.2608 -0.4487 -0.4630
  610MOL0     C84048   7.899   7.788   9.404 -0.1529 -0.1799 -0.2757
  610MOL0     C84049   7.812   7.689   9.461  0.1394  0.5234  0.0528
  610MOL0     O84050   7.688   7.675   9.407  0.0813  0.4132  0.1922
  610MOL0     C84051   7.592   7.610   9.483  0.0709 -0.2806 -0.3068
  610MOL0     C84052   7.454   7.629   9.419 -0.0414  0.0960  1.5125
  610MOL0     C84053   7.346   7.586   9.512 -0.0780 -0.1704  1.0584
  610MOL0     C84054   7.209   7.589   9.450  0.4712 -0.1228  0.3843
  610MOL0     C84055   7.092   7.589   9.557  0.1720  0.9172 -0.1206
  610MOL0     C84056   6.949   7.629   9.501 -0.6016  0.5795  0.8026
  610MOL0     C84057   6.916   7.608   9.342 -0.5684  1.4291  0.4488
  610MOL0     C84058   6.805   7.692   9.293 -0.3171 -0.8231  0.7302
  610MOL0     N84059   6.803   7.686   9.142  0.0098 -0.0678  0.5476
  610MOL0     C84060   6.881   7.748   9.051  0.0748  0.0153 -0.4510
  610MOL0     C84061   6.840   7.686   8.934 -0.3623  0.0224 -0.6214
  610MOL0     C84062   6.889   7.719   8.795  0.5489  0.5698 -0.0354
  610MOL0     C84063   7.044   7.684   8.785 -0.2352  0.4615  0.1486
  610MOL0     C84064   7.096   7.751   8.651  0.1229 -0.3092 -0.4763
  610MOL0     C84065   7.243   7.721   8.629 -0.2650 -0.0846 -0.5517
  610MOL0     O84066   7.246   7.582   8.618  0.7055  0.8678 -0.5601
  610MOL0     C84067   7.371   7.525   8.620 -0.7520  0.0028  0.1151
  610MOL0     C84068   7.380   7.393   8.650  0.8574 -0.1483  0.2991
  610MOL0     C84069   7.498   7.324   8.661  0.0076  0.3853 -0.4636
  610MOL0     C84070   7.490   7.179   8.709 -0.4286 -0.8917 -0.2540
  610MOL0     C84071   7.626   7.401   8.656  1.3669 -0.0231  0.0344
  610MOL0     C84072   7.763   7.349   8.667 -0.1026  0.1456 -0.5469
  610MOL0     O84073   7.851   7.439   8.703 -0.6522 -0.0274  0.2030
  610MOL0     C84074   7.984   7.399   8.704  0.8520 -0.3555 -0.1510
  610MOL0     C84075   8.052   7.403   8.589 -1.1463  0.8330  0.5279
  610MOL0     C84076   8.188   7.357   8.594  0.6744  0.6956  0.0854
  610MOL0     C84077   8.249   7.307   8.713 -0.1418 -1.2120 -0.0974
  610MOL0     O84078   8.372   7.241   8.709 -0.3294 -0.8737 -0.3448
  610MOL0     C84079   8.432   7.209   8.839 -0.5602 -0.3974  0.4385
  610MOL0     C84080   8.583   7.181   8.806  0.4438  0.1927 -0.1121
  610MOL0     C84081   8.669   7.119   8.920 -0.0272 -0.4081 -0.4997
  610MOL0     C84082   8.813   7.173   8.914 -0.2628  0.5915 -0.8453
  610MOL0     C84083   8.907   7.150   8.791 -0.3489  0.4156 -0.7531
  610MOL0     C84084   9.019   7.265   8.797  0.6405  0.5419  1.0728
  610MOL0     C84085   9.128   7.241   8.695 -0.6944 -1.0637  0.0517
  610MOL0     C84086   9.253   7.331   8.739  0.4539  0.7582  0.3570
  610MOL0    Cl84087   9.403   7.273   8.658 -0.4611  0.0690  0.0563
  610MOL0     C84088   8.172   7.312   8.827 -0.6725 -0.2362 -0.6685
  610MOL0     C84089   8.038   7.350   8.824  0.1890 -0.3920  0.2571
  610MOL0     O84090   7.790   7.238   8.616 -0.4327 -0.3623  0.6762
  610MOL0     C84091   7.610   7.540   8.635 -0.0613 -0.5778  0.3220
  610MOL0     C84092   7.487   7.599   8.611  0.5708  0.4490  0.1062
  610MOL0     N84093   6.732   7.600   8.956  0.3074 -0.0527 -0.3888
  610MOL0     N84094   6.724   7.597   9.081 -0.5781  0.7212 -0.2644
  610MOL0     C84095   7.862   7.628   9.575  0.8260  0.4280  1.1931
  610MOL0     C84096   7.980   7.657   9.634  0.0138 -0.5490 -0.2721
  610MOL0     C84097   8.400   7.702   9.725 -0.5061  0.1949  0.0362
  610MOL0     C84098   8.356   7.721   9.858  0.2816 -0.1435 -0.1781
  610MOL0     C84099   8.439   7.674   9.961  0.4430  0.3347 -0.2297
  610MOL0     C84100   8.566   7.642   9.935 -0.2443  0.6525  1.4650
  610MOL0     O84101   8.642   7.598  10.039 -0.5965  0.1495 -0.2892
  610MOL0     C84102   8.764   7.663  10.068 -0.7761  0.1280 -0.5992
  610MOL0     C84103   8.778   7.658  10.220 -0.2630  0.0740  0.1315
  610MOL0     C84104   8.920   7.677  10.271 -0.0319  0.4980  0.6886
  610MOL0     C84105   8.956   7.825  10.313 -0.5648  0.6473  0.4304
  610MOL0     C84106   8.901   7.856  10.445 -0.2163 -0.0687 -0.8505
  610MOL0     C84107   8.855   7.897  10.550 -0.2538 -0.0588 -0.1466
  610MOL0     C84108   8.621   7.640   9.811  0.5729  0.4395  0.7800
  610MOL0     C84109   8.538   7.668   9.702  0.7828  0.3325 -0.8733
  610MOL0     C84110   8.595   7.648   9.568 -0.0951  0.0801  0.1727
  610MOL0     H84111   8.078   7.912   9.429  0.9764  0.2626  2.0519
  610MOL0     H84112   7.856   7.846   9.323 -2.6595 -0.4208  0.8170
  610MOL0     H84113   7.598   7.664   9.578 -0.8321 -0.9284  0.1360
  610MOL0     H84114   7.603   7.501   9.484  1.3734 -0.1914 -1.5454
  610MOL0     H84115   7.449   7.732   9.382  0.6367 -0.6044 -0.6401
  610MOL0     H84116   7.454   7.562   9.333 -3.5237  1.5013  0.2306
  610MOL0     H84117   7.358   7.486   9.554 -2.0917 -0.4938  0.9643
  610MOL0     H84118   7.332   7.654   9.597 -1.9157  0.4412  0.3087
  610MOL0     H84119   7.199   7.683   9.395  1.1189  0.5713  1.4290
  610MOL0     H84120   7.204   7.510   9.374  1.2826  0.4904 -0.3322
  610MOL0     H84121   7.125   7.659   9.634 -0.2688  2.7944 -1.5532
  610MOL0     H84122   7.082   7.494   9.610  2.5480  1.0782  0.7177
  610MOL0     H84123   6.881   7.570   9.563  1.9265 -0.7337  2.5052
  610MOL0     H84124   6.935   7.737   9.508 -0.1362  1.2377 -4.3231
  610MOL0     H84125   6.884   7.504   9.333 -1.2550  1.4116  2.6288
  610MOL0     H84126   6.999   7.633   9.275 -2.5884 -1.4344 -3.5764
  610MOL0     H84127   6.710   7.657   9.335 -0.9126 -1.3541 -0.9484
  610MOL0     H84128   6.827   7.796   9.317  1.3023 -1.1607  0.7867
  610MOL0     H84129   6.957   7.823   9.067 -1.4307  1.1958  1.6488
  610MOL0     H84130   6.867   7.822   8.767 -0.1999 -0.5833 -4.4355
  610MOL0     H84131   6.836   7.658   8.722 -0.4731 -2.7406  3.1839
  610MOL0     H84132   7.107   7.712   8.870 -0.7834 -1.0327  1.0822
  610MOL0     H84133   7.055   7.575   8.777 -0.2065  0.5507 -1.3549
  610MOL0     H84134   7.035   7.714   8.568 -0.1496 -2.4867  0.6221
  610MOL0     H84135   7.076   7.858   8.666 -1.4051 -0.5563 -0.5881
  610MOL0     H84136   7.279   7.760   8.533 -2.2819 -0.4332 -1.5093
  610MOL0     H84137   7.303   7.751   8.714 -3.9832 -1.0598  2.7376
  610MOL0     H84138   7.292   7.332   8.669  0.3798 -0.1346 -1.6637
  610MOL0     H84139   7.406   7.156   8.775  0.0070 -1.0282  0.2594
  610MOL0     H84140   7.580   7.149   8.763 -0.2637 -0.0075 -0.0202
  610MOL0     H84141   7.483   7.115   8.621  1.6132 -1.9206  0.2840
  610MOL0     H84142   8.003   7.435   8.498 -1.2536  0.0749  0.3061
  610MOL0     H84143   8.245   7.346   8.502  0.6033 -1.6578  0.2537
  610MOL0     H84144   8.422   7.290   8.912  4.2597 -0.3442  1.3829
  610MOL0     H84145   8.387   7.120   8.884 -0.2314 -2.8271 -3.5778
  610MOL0     H84146   8.608   7.127   8.714  2.2244  2.0600 -0.7934
  610MOL0     H84147   8.630   7.279   8.791  3.2760 -1.2951 -1.8929
  610MOL0     H84148   8.671   7.010   8.913 -1.5830 -0.3387 -3.3818
  610MOL0     H84149   8.630   7.139   9.020 -0.7809 -0.8391 -0.7010
  610MOL0     H84150   8.866   7.131   9.000 -1.4650  0.0831 -0.3337
  610MOL0     H84151   8.803   7.280   8.935  0.4119  0.3923  0.6620
  610MOL0     H84152   8.937   7.045   8.787  0.5930  0.1778  4.7523
  610MOL0     H84153   8.852   7.175   8.700 -0.3088  0.2761 -0.8154
  610MOL0     H84154   9.063   7.267   8.897  1.5569 -1.7186  0.7673
  610MOL0     H84155   8.968   7.357   8.766 -0.6406  0.0223  1.5887
  610MOL0     H84156   9.094   7.281   8.599  1.1711  1.6616  0.4299
  610MOL0     H84157   9.164   7.138   8.686 -1.7446 -1.3303 -1.5516
  610MOL0     H84158   9.277   7.313   8.845  2.1612 -3.2266 -0.5069
  610MOL0     H84159   9.236   7.433   8.705  0.6688  0.3650 -0.9525
  610MOL0     H84160   8.197   7.275   8.926 -2.3071 -0.6691 -0.3921
  610MOL0     H84161   7.974   7.342   8.912 -2.4427  2.0819 -1.2283
  610MOL0     H84162   7.692   7.611   8.624 -0.6868 -0.0594 -1.3111
  610MOL0     H84163   7.485   7.704   8.582 -1.2284  1.0970  2.3111
  610MOL0     H84164   7.799   7.562   9.634  0.1740 -0.8262 -0.8239
  610MOL0     H84165   8.004   7.609   9.728  1.5198  2.8684  1.2432
  610MOL0     H84166   8.260   7.767   9.879  0.5003  1.0954 -1.7221
  610MOL0     H84167   8.408   7.663  10.065  0.5657  1.3751 -0.0750
  610MOL0     H84168   8.847   7.613  10.019  0.4704 -0.2709  1.7747
  610MOL0     H84169   8.769   7.770  10.044 -0.9663 -0.2700 -2.5104
  610MOL0     H84170   8.733   7.569  10.263 -1.6315  0.7612  0.1786
  610MOL0     H84171   8.714   7.735  10.265 -0.5306  0.0644 -0.2230
  610MOL0     H84172   8.927   7.611  10.357 -0.6405  0.6552  0.8639
  610MOL0     H84173   9.004   7.652  10.205  0.8315  3.7961  0.3356
  610MOL0     H84174   8.927   7.896  10.235  3.6220  1.1819 -0.8837
  610MOL0     H84175   9.064   7.839  10.308 -0.5731  0.6198 -3.6692
  610MOL0     H84176   8.822   7.925  10.648 -1.2762  0.1546 -0.5398
  610MOL0     H84177   8.727   7.628   9.792  1.3494  5.7918  0.2337
  610MOL0     H84178   8.575   7.730   9.498  0.6077 -0.5725 -0.8135
  610MOL0     H84179   8.703   7.641   9.583  0.2280 -0.5143 -2.0682
  610MOL0     H84180   8.556   7.561   9.514 -2.4443  1.2309 -0.0998
  611MOL0     O84181   9.063   3.512   0.938 -0.1801  0.3014  0.1223
  611MOL0     C84182   9.045   3.415   0.862 -0.5039  0.1513 -0.9005
  611MOL0     O84183   9.137   3.313   0.842  0.3355  0.2812 -0.0905
  611MOL0     C84184   9.252   3.290   0.924  0.4624  0.1140 -0.9464
  611MOL0     C84185   9.372   3.257   0.864 -0.3900 -0.3464  0.5508
  611MOL0     C84186   9.492   3.239   0.933 -0.3618 -0.0195 -1.1338
  611MOL0     C84187   9.497   3.258   1.073  0.5189 -0.3765 -0.0184
  611MOL0     O84188   9.617   3.227   1.134  0.3033 -0.6367  0.0508
  611MOL0     C84189   9.629   3.262   1.274 -0.0557 -0.6418 -0.2807
  611MOL0     C84190   9.759   3.200   1.336 -0.1135 -0.1670 -0.6036
  611MOL0     C84191   9.753   3.054   1.371  0.7336  0.1121  0.2634
  611MOL0     C84192   9.880   3.007   1.439 -1.1866  0.4663 -0.2920
  611MOL0     C84193  10.001   2.988   1.342  0.2116  0.0908  0.6301
  611MOL0     C84194  10.113   2.903   1.412  0.3530  0.2421  0.9526
  611MOL0     C84195  10.232   2.897   1.324  0.0537 -1.3015  0.5298
  611MOL0     C84196  10.342   2.804   1.370  0.4901 -0.3328 -0.0088
  611MOL0     N84197  10.453   2.818   1.278  0.2856  1.0278 -0.9724
  611MOL0     C84198  10.504   2.936   1.244 -0.4502 -1.1388  1.0895
  611MOL0     C84199  10.624   2.908   1.191 -0.4653 -0.3810  0.4441
  611MOL0     C84200  10.728   3.007   1.147 -1.0546  0.1557 -0.6063
  611MOL0     C84201  10.869   2.991   1.216  0.0918  0.2209 -0.3563
  611MOL0     C84202  10.961   3.102   1.163 -0.0882  1.0063 -0.1819
  611MOL0     C84203  11.090   3.088   1.232 -0.1588  0.3477 -0.5538
  611MOL0     O84204  11.167   3.210   1.209 -0.5262 -0.5386 -0.9059
  611MOL0     C84205  11.285   3.221   1.283 -0.1959 -0.4085  0.3568
  611MOL0     C84206  11.343   3.130   1.374  0.3983  0.2840 -0.2504
  611MOL0     C84207  11.460   3.153   1.439  0.3430 -0.0640  0.8862
  611MOL0     C84208  11.503   3.048   1.529 -0.1453 -0.4533 -0.2648
  611MOL0     C84209  11.535   3.276   1.416  0.2072 -0.4470  0.6056
  611MOL0     C84210  11.651   3.318   1.495  0.5699 -0.9767  1.2054
  611MOL0     O84211  11.722   3.426   1.445  0.1074 -0.5644  0.4396
  611MOL0     C84212  11.814   3.486   1.519 -0.4611 -0.2457  0.2233
  611MOL0     C84213  11.793   3.622   1.553 -0.0840  0.6449  0.4917
  611MOL0     C84214  11.895   3.692   1.611  0.3331  0.1734 -0.9382
  611MOL0     C84215  12.016   3.639   1.650 -1.0313 -1.0581 -0.7455
  611MOL0     O84216  12.106   3.723   1.709 -0.0765 -0.6494 -0.0071
  611MOL0     C84217  12.231   3.682   1.756 -1.4275 -0.3914 -0.4569
  611MOL0     C84218  12.302   3.810   1.807 -0.2022 -0.1076  0.4176
  611MOL0     C84219  12.435   3.782   1.871  0.5873 -0.4033  0.3282
  611MOL0     C84220  12.535   3.718   1.763 -0.4239 -0.6672  0.4094
  611MOL0     C84221  12.678   3.709   1.832  0.0561 -0.3379 -0.0914
  611MOL0     C84222  12.776   3.616   1.758  0.3185  0.0965  0.1744
  611MOL0     C84223  12.922   3.610   1.820 -0.2937 -0.2312 -0.2541
  611MOL0     C84224  12.935   3.486   1.914  0.5092  0.0691  0.4282
  611MOL0    Cl84225  13.089   3.522   2.009  0.0444  0.2774  0.1031
  611MOL0     C84226  12.041   3.501   1.618 -0.3937 -0.4344  0.6389
  611MOL0     C84227  11.936   3.427   1.557 -1.4419  0.6959  0.0506
  611MOL0     O84228  11.682   3.262   1.596  0.3126  0.4172  0.3064
  611MOL0     C84229  11.480   3.364   1.319 -0.8081 -0.2876 -0.5615
  611MOL0     C84230  11.362   3.342   1.255  0.2007  0.1185 -0.8084
  611MOL0     N84231  10.638   2.767   1.185  0.1185 -0.0234 -0.6266
  611MOL0     N84232  10.538   2.715   1.239  0.3077  0.1525 -0.8866
  611MOL0     C84233   9.374   3.288   1.136 -0.4453  0.1132 -0.3522
  611MOL0     C84234   9.254   3.291   1.068 -0.0070 -0.0864  0.0258
  611MOL0     C84235   8.927   3.404   0.774 -0.3645  0.4630  0.4768
  611MOL0     C84236   8.860   3.284   0.762 -0.2372 -0.7535  0.3397
  611MOL0     C84237   8.738   3.271   0.693  0.3511 -0.0474 -1.5889
  611MOL0     C84238   8.680   3.379   0.629  0.0418 -0.3740  0.4832
  611MOL0     O84239   8.573   3.356   0.542 -0.7725  0.4885  0.4899
  611MOL0     C84240   8.495   3.465   0.483  0.2798  0.2464 -0.8341
  611MOL0     C84241   8.403   3.398   0.384 -0.6825  0.7871 -0.3205
  611MOL0     C84242   8.328   3.500   0.312  1.0890 -0.1704 -0.1571
  611MOL0     C84243   8.231   3.597   0.386  0.1356 -0.5345 -0.0341
  611MOL0     C84244   8.114   3.531   0.453 -0.9244  0.5389 -0.1508
  611MOL0     C84245   8.035   3.477   0.523  0.2600 -0.2640 -0.4203
  611MOL0     C84246   8.741   3.501   0.644  0.2560  0.4248 -1.2695
  611MOL0     C84247   8.859   3.520   0.722  1.1585  0.4927  0.3698
  611MOL0     C84248   8.915   3.656   0.748 -0.0265 -1.2186  0.0622
  611MOL0     H84249   9.368   3.240   0.757 -1.2766 -1.0195  0.6706
  611MOL0     H84250   9.581   3.222   0.873  0.4371  3.5493 -1.1621
  611MOL0     H84251   9.546   3.226   1.335 -0.1590 -1.4675 -0.8901
  611MOL0     H84252   9.633   3.370   1.287 -0.5493 -0.5596 -0.7912
  611MOL0     H84253   9.846   3.227   1.275 -1.0159  1.7958 -1.1046
  611MOL0     H84254   9.781   3.253   1.430  1.6337 -2.8239  0.6122
  611MOL0     H84255   9.673   3.037   1.443 -2.0396  1.2474 -2.3246
  611MOL0     H84256   9.733   2.998   1.279 -1.2535 -1.8656  1.7932
  611MOL0     H84257   9.905   3.075   1.521 -2.1413  0.6810 -0.1632
  611MOL0     H84258   9.862   2.910   1.486  1.5030 -0.6419 -1.3600
  611MOL0     H84259  10.041   3.087   1.316  1.5038 -0.0462  1.9918
  611MOL0     H84260   9.963   2.942   1.250  2.0557  0.7138 -0.5017
  611MOL0     H84261  10.142   2.942   1.510  0.3540  1.2591  0.5616
  611MOL0     H84262  10.074   2.803   1.432  4.0114 -1.2844  1.2753
  611MOL0     H84263  10.262   3.002   1.326 -0.8368 -1.0536  1.5946
  611MOL0     H84264  10.209   2.872   1.220  1.3038  1.3027 -0.4754
  611MOL0     H84265  10.364   2.821   1.475  0.9921 -0.5659 -0.0753
  611MOL0     H84266  10.298   2.704   1.359 -4.3070  1.5050 -0.0690
  611MOL0     H84267  10.480   3.041   1.254 -0.5162 -0.6142 -2.9336
  611MOL0     H84268  10.689   3.109   1.139 -0.2815  0.4116 -1.2665
  611MOL0     H84269  10.749   2.972   1.045 -1.8428 -0.7340 -0.4785
  611MOL0     H84270  10.857   2.994   1.325 -2.8241 -0.1929 -0.5714
  611MOL0     H84271  10.916   2.898   1.182  0.0690  0.0897 -0.0378
  611MOL0     H84272  10.963   3.098   1.054  1.5270  1.9953 -0.2172
  611MOL0     H84273  10.915   3.196   1.194 -1.4406 -0.2610  1.9628
  611MOL0     H84274  11.081   3.076   1.341  5.0491  2.7151  0.4364
  611MOL0     H84275  11.137   3.003   1.184 -0.3643 -1.3313  2.0351
  611MOL0     H84276  11.283   3.044   1.402 -1.4395  0.4098 -3.2570
  611MOL0     H84277  11.452   2.952   1.522  1.5035 -1.3263 -0.8153
  611MOL0     H84278  11.491   3.088   1.631  1.0899 -0.2156 -0.2006
  611MOL0     H84279  11.609   3.031   1.509  0.7821  0.9082  2.7903
  611MOL0     H84280  11.710   3.673   1.505  1.4366  1.9466 -0.8980
  611MOL0     H84281  11.867   3.794   1.638 -1.9227 -1.4896  4.3597
  611MOL0     H84282  12.216   3.617   1.843 -1.0627 -1.4660 -1.1759
  611MOL0     H84283  12.297   3.635   1.683 -1.4374  0.2703 -0.9024
  611MOL0     H84284  12.325   3.880   1.726 -0.4200  0.3945  0.7863
  611MOL0     H84285  12.235   3.867   1.873 -1.2653  0.4667 -1.1064
  611MOL0     H84286  12.416   3.722   1.960 -2.3789  2.4537  1.8256
  611MOL0     H84287  12.471   3.880   1.900 -1.6693  0.7372 -0.4685
  611MOL0     H84288  12.527   3.783   1.675 -1.7609  0.5271  1.3417
  611MOL0     H84289  12.499   3.618   1.739  0.8522 -1.4173  1.4964
  611MOL0     H84290  12.724   3.808   1.832  0.6929 -0.6236 -0.8203
  611MOL0     H84291  12.670   3.673   1.935  0.4898 -2.1454 -0.6604
  611MOL0     H84292  12.787   3.648   1.654 -0.2169 -1.9687 -0.5472
  611MOL0     H84293  12.736   3.515   1.754  0.1335  0.1597 -4.5995
  611MOL0     H84294  12.928   3.706   1.872 -0.6357 -1.3723  2.0176
  611MOL0     H84295  12.998   3.596   1.743  1.2534  2.0724  0.7722
  611MOL0     H84296  12.948   3.403   1.843 -1.1979 -1.4327  1.7770
  611MOL0     H84297  12.847   3.460   1.974  1.3994  0.9745  2.2012
  611MOL0     H84298  12.135   3.447   1.626  0.0768 -0.3962 -2.8740
  611MOL0     H84299  11.967   3.328   1.527  2.9714  1.5331  1.1186
  611MOL0     H84300  11.534   3.457   1.305 -1.9980  0.7510  1.3507
  611MOL0     H84301  11.328   3.419   1.187  0.6459  0.2023 -0.9366
  611MOL0     H84302   9.361   3.300   1.243 -2.8130 -0.6135 -0.4918
  611MOL0     H84303   9.160   3.291   1.121  0.0915 -1.1447  0.2288
  611MOL0     H84304   8.884   3.187   0.804 -2.1864 -1.5344 -0.2202
  611MOL0     H84305   8.697   3.172   0.683  1.2369 -0.3583 -2.2610
  611MOL0     H84306   8.433   3.504   0.565  1.6005 -1.6496  1.1795
  611MOL0     H84307   8.553   3.544   0.434  0.0903  0.4781 -0.6886
  611MOL0     H84308   8.338   3.321   0.427  0.8482 -0.2742  0.1995
  611MOL0     H84309   8.462   3.334   0.318 -0.8118 -2.4187  2.3671
  611MOL0     H84310   8.401   3.565   0.264  0.8871 -0.2487 -0.5884
  611MOL0     H84311   8.266   3.455   0.233 -0.0614  1.8000 -0.4343
  611MOL0     H84312   8.186   3.673   0.320  2.5949  0.2954 -0.8687
  611MOL0     H84313   8.293   3.654   0.456 -0.7794  1.1330 -0.5196
  611MOL0     H84314   7.959   3.442   0.591 -0.7855  4.3475  1.1290
  611MOL0     H84315   8.693   3.583   0.591 -2.7405 -0.3520  0.0598
  611MOL0     H84316   8.897   3.688   0.852  1.2336 -0.7612  0.1545
  611MOL0     H84317   9.019   3.662   0.714 -0.4237  1.2486 -0.9244
  611MOL0     H84318   8.873   3.741   0.695 -0.3235  0.6066  2.9886
  612MOL0     O84319   8.906   4.342   4.216 -0.0510 -0.1340  0.0310
  612MOL0     C84320   8.823   4.332   4.126  0.6654 -0.8962  0.3348
  612MOL0     O84321   8.826   4.245   4.026  0.2852  0.2869 -0.4470
  612MOL0     C84322   8.926   4.150   4.004  0.0050  0.2596  0.8034
  612MOL0     C84323   9.062   4.155   4.039  0.0594  0.3451  0.2774
  612MOL0     C84324   9.148   4.054   3.996 -0.0747 -0.6697 -0.8339
  612MOL0     C84325   9.106   3.945   3.922  0.0009  0.1447  0.3800
  612MOL0     O84326   9.198   3.861   3.880 -0.0490  0.1433 -0.0618
  612MOL0     C84327   9.171   3.732   3.826  0.3479  0.4723 -0.5701
  612MOL0     C84328   9.290   3.639   3.812  0.6763  0.3628  0.1013
  612MOL0     C84329   9.422   3.687   3.756  0.5778 -0.6761 -0.2620
  612MOL0     C84330   9.537   3.599   3.805  0.2515  0.7627 -0.0576
  612MOL0     C84331   9.676   3.638   3.750  0.3327 -0.5567  0.2629
  612MOL0     C84332   9.774   3.528   3.777  0.1312 -0.3005  0.7239
  612MOL0     C84333   9.814   3.514   3.926  0.2014 -0.2183  0.4752
  612MOL0     C84334   9.895   3.385   3.945  0.3772 -0.2176 -0.9162
  612MOL0     N84335  10.037   3.389   3.930  0.0075  0.1750 -0.1878
  612MOL0     C84336  10.107   3.386   3.809 -0.6852  0.0221 -0.2358
  612MOL0     C84337  10.238   3.411   3.845 -0.2133 -0.7105  0.1757
  612MOL0     C84338  10.339   3.440   3.744  0.6446 -0.6096 -0.3596
  612MOL0     C84339  10.461   3.342   3.750 -0.9944  0.0005  1.0278
  612MOL0     C84340  10.543   3.325   3.873 -0.3004 -0.4372 -0.8854
  612MOL0     C84341  10.609   3.451   3.927  0.2507 -0.7482  0.3017
  612MOL0     O84342  10.700   3.519   3.835 -0.0627 -0.0429 -0.4819
  612MOL0     C84343  10.818   3.463   3.797  0.1757 -0.3300 -0.0481
  612MOL0     C84344  10.878   3.518   3.684  0.5348  0.4836  0.7941
  612MOL0     C84345  11.001   3.465   3.628  0.8975 -0.0972  0.4857
  612MOL0     C84346  11.053   3.528   3.503 -0.0186 -0.6151  0.6076
  612MOL0     C84347  11.066   3.353   3.697 -0.0572  0.7924  0.3241
  612MOL0     C84348  11.186   3.284   3.653  0.2204  0.4582  0.1572
  612MOL0     O84349  11.256   3.231   3.758 -0.6191  0.5022  0.4528
  612MOL0     C84350  11.381   3.174   3.741  0.4426 -0.4491  0.6745
  612MOL0     C84351  11.474   3.219   3.653  0.2512  0.4060 -0.0369
  612MOL0     C84352  11.604   3.173   3.656 -0.1487  0.0902 -0.5781
  612MOL0     C84353  11.644   3.066   3.739  0.1888  0.5370  0.1413
  612MOL0     O84354  11.762   3.004   3.734 -0.2065 -0.6047  0.3010
  612MOL0     C84355  11.758   2.862   3.706 -0.0831  1.0132  0.0457
  612MOL0     C84356  11.893   2.806   3.756  0.9910 -0.4421  0.3709
  612MOL0     C84357  11.905   2.659   3.731  0.4775 -0.3156  0.2891
  612MOL0     C84358  11.811   2.564   3.811  0.4318 -0.1267 -0.0649
  612MOL0     C84359  11.819   2.588   3.966  0.2416  0.2333 -0.3589
  612MOL0     C84360  11.762   2.465   4.045  0.0929  0.0095  0.0628
  612MOL0     C84361  11.840   2.426   4.175 -0.5442  0.2482  0.0682
  612MOL0     C84362  11.754   2.342   4.270  0.8628  0.1886 -0.4299
  612MOL0    Cl84363  11.738   2.171   4.238  0.4343  0.5838 -0.1250
  612MOL0     C84364  11.536   3.018   3.829 -0.4321  1.4392  0.0601
  612MOL0     C84365  11.410   3.073   3.829 -0.0558  0.7437  0.2889
  612MOL0     O84366  11.191   3.255   3.532  0.5470 -0.3109 -0.3770
  612MOL0     C84367  11.002   3.299   3.810 -0.3567 -0.2677 -0.3421
  612MOL0     C84368  10.877   3.354   3.858 -0.7053  1.4444  0.8738
  612MOL0     N84369  10.243   3.415   3.983 -0.2370  0.3876 -0.4254
  612MOL0     N84370  10.126   3.410   4.034  0.4941 -0.6768  0.0872
  612MOL0     C84371   8.971   3.942   3.884  0.0305  0.2139 -0.4709
  612MOL0     C84372   8.887   4.051   3.917  0.6783  0.7305  0.7176
  612MOL0     C84373   8.723   4.446   4.127  0.7582 -0.1583 -0.9815
  612MOL0     C84374   8.761   4.557   4.203  0.1783  0.0323  0.2338
  612MOL0     C84375   8.682   4.664   4.231  0.2436  0.1902  0.6286
  612MOL0     C84376   8.560   4.672   4.176 -0.4503  0.0876 -0.3876
  612MOL0     O84377   8.482   4.781   4.204  0.2016 -0.2549 -0.0272
  612MOL0     C84378   8.387   4.825   4.101 -0.8551 -0.7554 -0.0890
  612MOL0     C84379   8.340   4.966   4.139 -0.5590  0.7897  0.5950
  612MOL0     C84380   8.457   5.064   4.119 -0.8573 -0.0826 -0.0897
  612MOL0     C84381   8.416   5.207   4.156  0.3508 -0.3463 -0.0948
  612MOL0     C84382   8.314   5.255   4.060  0.6804 -0.1791  0.9286
  612MOL0     C84383   8.234   5.267   3.967 -0.8152  0.3920 -0.5562
  612MOL0     C84384   8.511   4.571   4.091 -0.2320 -0.0806 -0.0885
  612MOL0     C84385   8.595   4.460   4.058 -0.7860 -0.3278  0.0939
  612MOL0     C84386   8.535   4.367   3.962 -0.4806  0.1600  0.2035
  612MOL0     H84387   9.084   4.238   4.106 -1.1145 -1.3711  2.9610
  612MOL0     H84388   9.248   4.052   4.039  0.4537 -0.5560 -2.0372
  612MOL0     H84389   9.143   3.749   3.722  0.4687 -0.5099 -0.7731
  612MOL0     H84390   9.092   3.675   3.875  2.9528 -2.2548  0.8524
  612MOL0     H84391   9.308   3.600   3.913 -1.6509 -1.7358 -0.2051
  612MOL0     H84392   9.249   3.570   3.738 -2.1260  4.1840 -2.2778
  612MOL0     H84393   9.424   3.693   3.646 -0.5345  0.2710 -0.2507
  612MOL0     H84394   9.440   3.786   3.797 -1.1857  0.0424 -1.1046
  612MOL0     H84395   9.541   3.624   3.911 -0.2855 -1.9087  0.6538
  612MOL0     H84396   9.509   3.494   3.795  1.7797 -0.0603  2.9922
  612MOL0     H84397   9.720   3.727   3.795  0.6865  0.5139 -2.0783
  612MOL0     H84398   9.668   3.667   3.645 -1.7714  0.9789  0.7796
  612MOL0     H84399   9.731   3.432   3.746 -0.1161 -0.9140  2.8353
  612MOL0     H84400   9.866   3.540   3.719 -1.5623  1.3704 -1.8193
  612MOL0     H84401   9.723   3.496   3.983  0.4722  0.6674  1.2136
  612MOL0     H84402   9.873   3.596   3.969  1.0226  1.5783 -3.6129
  612MOL0     H84403   9.869   3.353   4.046 -3.1336  0.8988 -1.3084
  612MOL0     H84404   9.856   3.308   3.878 -0.3789 -2.5991  2.0373
  612MOL0     H84405  10.065   3.378   3.710 -1.1930  1.1700 -0.1336
  612MOL0     H84406  10.369   3.545   3.756  1.5113 -1.0541  1.9282
  612MOL0     H84407  10.296   3.439   3.644 -0.9029 -1.4981  0.2801
  612MOL0     H84408  10.436   3.243   3.710 -0.5363  0.8850 -1.6084
  612MOL0     H84409  10.526   3.370   3.666 -0.6083  1.5867  1.8138
  612MOL0     H84410  10.477   3.276   3.947  0.6281 -1.2367 -0.5581
  612MOL0     H84411  10.619   3.248   3.853  1.1134  0.5141  0.5495
  612MOL0     H84412  10.531   3.525   3.946  0.3997 -0.4009 -0.4019
  612MOL0     H84413  10.660   3.428   4.021 -0.0234 -5.5829 -0.4792
  612MOL0     H84414  10.836   3.607   3.639 -1.8637 -0.7482  0.4550
  612MOL0     H84415  11.102   3.456   3.437  0.3264 -0.7286  0.9818
  612MOL0     H84416  11.105   3.615   3.545 -2.6370  0.7683  1.2085
  612MOL0     H84417  10.961   3.557   3.451  0.3734  0.5793  0.5491
  612MOL0     H84418  11.441   3.301   3.591 -1.1761  2.5881  3.3272
  612MOL0     H84419  11.690   3.207   3.599  0.6633 -0.4221  0.3054
  612MOL0     H84420  11.678   2.823   3.770 -0.0434  2.5488  1.0752
  612MOL0     H84421  11.729   2.832   3.605 -0.6578  2.2400 -0.1657
  612MOL0     H84422  11.975   2.857   3.704  2.2991 -1.0142  1.7674
  612MOL0     H84423  11.906   2.828   3.863  0.3753  0.6863  0.2257
  612MOL0     H84424  12.010   2.633   3.748  1.7034  3.1058 -1.1617
  612MOL0     H84425  11.893   2.648   3.622  1.9925  0.2678  0.0261
  612MOL0     H84426  11.842   2.462   3.787 -0.8487 -0.0304 -2.3829
  612MOL0     H84427  11.709   2.562   3.773  1.0192  0.1757 -1.7365
  612MOL0     H84428  11.926   2.599   3.986  0.8858 -1.1453 -2.6735
  612MOL0     H84429  11.774   2.684   3.996 -0.1745 -0.3583  0.9867
  612MOL0     H84430  11.772   2.373   3.987  1.5832 -0.4795  1.0392
  612MOL0     H84431  11.655   2.483   4.057 -0.0508  0.5731 -1.7789
  612MOL0     H84432  11.887   2.504   4.236 -1.6569  1.9229 -1.1231
  612MOL0     H84433  11.924   2.365   4.140 -2.7413 -1.2483 -3.1288
  612MOL0     H84434  11.652   2.379   4.284  0.0721 -1.3590 -1.7503
  612MOL0     H84435  11.804   2.345   4.367 -0.1070 -1.4159  0.1650
  612MOL0     H84436  11.538   2.946   3.910 -3.1645  0.1772 -0.8469
  612MOL0     H84437  11.347   3.042   3.911  1.1204 -3.0179 -0.0589
  612MOL0     H84438  11.042   3.210   3.858  1.9030  0.9087  0.1129
  612MOL0     H84439  10.816   3.306   3.934  1.1143 -0.3075  1.3111
  612MOL0     H84440   8.934   3.867   3.815  0.1129 -2.0462  1.8137
  612MOL0     H84441   8.784   4.057   3.883  0.7235 -0.1400  0.4059
  612MOL0     H84442   8.854   4.566   4.258 -0.4002 -0.8328  1.4124
  612MOL0     H84443   8.719   4.748   4.290  0.7487  1.0645 -0.8962
  612MOL0     H84444   8.437   4.827   4.004 -1.6613  0.5220 -0.4953
  612MOL0     H84445   8.301   4.758   4.091 -3.1330  1.9630  0.0783
  612MOL0     H84446   8.300   4.974   4.240 -3.5876 -1.9779 -0.2452
  612MOL0     H84447   8.258   4.985   4.069 -0.9667 -2.7804 -0.0977
  612MOL0     H84448   8.530   5.034   4.195  0.9903  1.2574 -1.2421
  612MOL0     H84449   8.504   5.061   4.020  1.7294 -1.4265  1.0762
  612MOL0     H84450   8.502   5.274   4.149 -0.1041  0.2485 -0.1044
  612MOL0     H84451   8.380   5.213   4.259 -2.4277 -1.0356 -0.9383
  612MOL0     H84452   8.172   5.283   3.881  0.0378 -0.1686 -1.3046
  612MOL0     H84453   8.415   4.576   4.043 -0.7105  1.3545  0.9461
  612MOL0     H84454   8.452   4.303   3.993  1.0259 -2.1631 -0.3609
  612MOL0     H84455   8.495   4.416   3.873 -1.6471  0.1909  0.7229
  612MOL0     H84456   8.609   4.296   3.925 -2.0550 -0.2799 -2.2959
  613MOL0     O84457   2.083   0.129   4.899 -0.9129  0.2502  0.6582
  613MOL0     C84458   2.061   0.243   4.924  0.6306 -0.7533 -0.1879
  613MOL0     O84459   2.154   0.327   4.967  0.1739  0.1980  0.1125
  613MOL0     C84460   2.279   0.275   4.984 -0.2058  0.5165 -0.0601
  613MOL0     C84461   2.331   0.243   5.113 -0.1000 -0.1032  0.4501
  613MOL0     C84462   2.464   0.191   5.132 -0.2119 -0.1071 -0.1588
  613MOL0     C84463   2.542   0.157   5.020  0.4696 -0.2527 -0.9506
  613MOL0     O84464   2.663   0.104   5.049 -0.0311 -0.0736 -0.9892
  613MOL0     C84465   2.764   0.106   4.950  0.8581  0.0613  0.6642
  613MOL0     C84466   2.895   0.131   5.027  0.0407 -0.4862 -0.5085
  613MOL0     C84467   3.015   0.109   4.937 -0.8525 -0.1133  0.2072
  613MOL0     C84468   3.139   0.188   4.978 -0.0558  0.0158 -0.3329
  613MOL0     C84469   3.245   0.164   4.861 -0.7692 -0.6621 -0.3304
  613MOL0     C84470   3.337   0.287   4.862  0.0211  0.2532  0.0546
  613MOL0     C84471   3.449   0.264   4.756  0.0515  0.0706  0.2656
  613MOL0     C84472   3.568   0.182   4.813 -0.0526 -0.1026  0.4465
  613MOL0     N84473   3.638   0.249   4.921  0.6029  0.3743 -0.0303
  613MOL0     C84474   3.722   0.356   4.905  0.3033  0.2861 -0.1133
  613MOL0     C84475   3.770   0.379   5.028  0.4964 -0.5534  0.4034
  613MOL0     C84476   3.862   0.496   5.071 -0.3168  0.7447 -0.3610
  613MOL0     C84477   4.003   0.443   5.117  0.0305 -0.4182 -0.3040
  613MOL0     C84478   4.000   0.358   5.239  0.8310 -0.2717  0.1249
  613MOL0     C84479   4.143   0.330   5.285  0.2561  0.3445  0.1251
  613MOL0     O84480   4.206   0.248   5.183 -0.6063  0.6277 -0.1509
  613MOL0     C84481   4.345   0.247   5.196  0.6307 -0.6601 -0.0185
  613MOL0     C84482   4.417   0.127   5.219  0.4961 -0.3765 -0.5580
  613MOL0     C84483   4.558   0.116   5.203 -0.3015  0.1876  0.0007
  613MOL0     C84484   4.610  -0.028   5.199  0.5377 -0.1659  0.2749
  613MOL0     C84485   4.632   0.238   5.181  0.0057  0.8470  0.0869
  613MOL0     C84486   4.779   0.240   5.165 -0.0494  0.3404  0.8095
  613MOL0     O84487   4.847   0.141   5.100  0.3652 -0.4293  0.0526
  613MOL0     C84488   4.984   0.162   5.082 -0.0114 -0.2051  0.6684
  613MOL0     C84489   5.036   0.124   4.957 -0.7768  0.9423  0.0222
  613MOL0     C84490   5.176   0.118   4.935 -0.0358  0.6559 -0.1180
  613MOL0     C84491   5.267   0.173   5.024 -0.2548  0.1722  0.1215
  613MOL0     O84492   5.399   0.176   4.983  0.7351  0.2511  0.6738
  613MOL0     C84493   5.491   0.191   5.092  0.0727 -0.3649 -0.1463
  613MOL0     C84494   5.628   0.191   5.038 -0.0191 -0.1520  0.2387
  613MOL0     C84495   5.646   0.303   4.936 -0.3499 -0.2724  0.8797
  613MOL0     C84496   5.779   0.287   4.854  0.3937 -0.4688  0.3467
  613MOL0     C84497   5.911   0.284   4.937 -0.3332 -0.3142  0.1752
  613MOL0     C84498   6.032   0.316   4.841 -0.1473 -0.3486 -0.6969
  613MOL0     C84499   6.073   0.203   4.746 -0.1107  0.4255  0.2982
  613MOL0     C84500   6.177   0.255   4.642  0.4872  0.4985  0.4595
  613MOL0    Cl84501   6.325   0.304   4.722  0.0753 -0.1099  0.0762
  613MOL0     C84502   5.216   0.201   5.148 -0.2648  0.0853 -1.0614
  613MOL0     C84503   5.080   0.200   5.179  0.3718  1.6448  0.2622
  613MOL0     O84504   4.837   0.337   5.213  1.1988  0.0463  0.6524
  613MOL0     C84505   4.557   0.363   5.168  0.2588  0.5423  0.2550
  613MOL0     C84506   4.418   0.368   5.169  0.1085  0.4984  1.0645
  613MOL0     N84507   3.724   0.280   5.111  0.4107 -0.0944 -0.6818
  613MOL0     N84508   3.655   0.200   5.044 -0.3209 -0.1122  0.1727
  613MOL0     C84509   2.485   0.176   4.895  0.7107 -0.6927 -0.3610
  613MOL0     C84510   2.361   0.234   4.872 -0.1844  1.0399  0.1653
  613MOL0     C84511   1.913   0.287   4.941 -0.9359 -0.8435  0.6369
  613MOL0     C84512   1.821   0.224   4.861  0.4535 -0.3276  0.0616
  613MOL0     C84513   1.682   0.260   4.866 -0.3757 -0.1904  0.9828
  613MOL0     C84514   1.638   0.355   4.947  0.1665 -0.9298  0.7654
  613MOL0     O84515   1.500   0.366   4.948 -0.1493 -0.5643 -0.2054
  613MOL0     C84516   1.450   0.408   5.073 -0.5231 -0.3553 -0.1929
  613MOL0     C84517   1.301   0.383   5.071  0.1271 -0.0628  0.6477
  613MOL0     C84518   1.220   0.492   4.995  0.5738 -0.2998  0.4256
  613MOL0     C84519   1.252   0.513   4.846  0.4784  0.5068 -0.2413
  613MOL0     C84520   1.179   0.618   4.775  0.3074  0.5476  0.1657
  613MOL0     C84521   1.117   0.700   4.707 -0.2418  0.5671  0.1019
  613MOL0     C84522   1.730   0.439   5.021 -0.5247  0.3667  0.1908
  613MOL0     C84523   1.866   0.400   5.015 -0.1588 -0.4916 -0.6770
  613MOL0     C84524   1.960   0.497   5.090 -0.4544 -0.4000  1.8512
  613MOL0     H84525   2.266   0.276   5.193  0.5385  3.6291 -0.3478
  613MOL0     H84526   2.508   0.184   5.231  1.1567 -1.2735 -0.7983
  613MOL0     H84527   2.757   0.188   4.879  1.2277 -1.4516 -1.2040
  613MOL0     H84528   2.763   0.019   4.884  2.1895  1.8594 -1.9100
  613MOL0     H84529   2.906   0.239   5.042  1.0116 -0.2455 -2.5587
  613MOL0     H84530   2.892   0.069   5.117 -1.9758  0.3523  0.0566
  613MOL0     H84531   3.048   0.005   4.937  0.9894  0.4260  1.2468
  613MOL0     H84532   2.988   0.140   4.835  0.7199  0.5399 -0.0444
  613MOL0     H84533   3.127   0.297   4.987  1.7423  0.0855  2.2957
  613MOL0     H84534   3.170   0.131   5.066 -2.4375 -0.1027  0.5018
  613MOL0     H84535   3.201   0.155   4.762  0.3302 -0.5586 -0.8431
  613MOL0     H84536   3.314   0.082   4.888  1.5408  1.5752  1.0216
  613MOL0     H84537   3.275   0.375   4.848  0.0065  0.3665  0.7804
  613MOL0     H84538   3.386   0.298   4.959  0.3113  1.2191 -0.1865
  613MOL0     H84539   3.469   0.364   4.716  2.0894 -1.6892 -3.6185
  613MOL0     H84540   3.416   0.213   4.665 -0.4565 -0.1031  0.5373
  613MOL0     H84541   3.543   0.076   4.826  4.8327 -1.7688 -1.1867
  613MOL0     H84542   3.636   0.174   4.727 -1.3450  0.9031 -0.7205
  613MOL0     H84543   3.725   0.408   4.810  0.6170 -1.2395 -0.9679
  613MOL0     H84544   3.820   0.543   5.160 -0.5021  1.7516 -0.9675
  613MOL0     H84545   3.869   0.561   4.984 -0.5503 -0.3870 -1.2430
  613MOL0     H84546   4.059   0.402   5.033 -0.2672  1.6841 -1.6257
  613MOL0     H84547   4.058   0.531   5.151 -1.3913 -0.1849  1.5373
  613MOL0     H84548   3.948   0.414   5.318  0.9080 -0.0652  0.0307
  613MOL0     H84549   3.946   0.265   5.220  0.5735  0.3226 -2.3436
  613MOL0     H84550   4.194   0.427   5.294  1.3012 -0.0011 -1.6638
  613MOL0     H84551   4.137   0.279   5.381 -1.2591 -0.4442 -0.3484
  613MOL0     H84552   4.364   0.032   5.220  0.5631 -0.4129 -0.3787
  613MOL0     H84553   4.677  -0.037   5.112 -0.3167 -3.0197 -0.1653
  613MOL0     H84554   4.522  -0.091   5.190 -2.3097  3.6842 -2.2398
  613MOL0     H84555   4.679  -0.053   5.280 -1.7280 -1.2584  1.9558
  613MOL0     H84556   4.970   0.083   4.881 -2.0071  0.9143  1.0856
  613MOL0     H84557   5.216   0.078   4.842 -0.9941 -0.0129 -0.2553
  613MOL0     H84558   5.476   0.276   5.159  0.0677  0.1147 -0.7457
  613MOL0     H84559   5.488   0.101   5.155  0.7693  1.2094  2.2767
  613MOL0     H84560   5.704   0.201   5.116 -0.5409  1.9579  0.5367
  613MOL0     H84561   5.654   0.098   4.988  0.9166  0.5011 -0.5400
  613MOL0     H84562   5.650   0.405   4.976 -1.6320  0.7466 -1.3902
  613MOL0     H84563   5.568   0.295   4.860  1.5546 -0.0243 -1.1860
  613MOL0     H84564   5.783   0.366   4.778  0.6161 -2.4485 -1.8050
  613MOL0     H84565   5.759   0.192   4.804 -2.4517 -0.2702  0.9442
  613MOL0     H84566   5.916   0.364   5.012  1.6664  0.1461 -0.4022
  613MOL0     H84567   5.910   0.185   4.982  0.5216 -1.1170 -1.4864
  613MOL0     H84568   6.119   0.353   4.895 -0.4154 -1.6091  0.6719
  613MOL0     H84569   6.010   0.403   4.777  5.3498 -1.2434 -4.5195
  613MOL0     H84570   5.982   0.164   4.700 -0.4531 -1.7378  2.6131
  613MOL0     H84571   6.114   0.112   4.790 -1.6135 -0.7676 -0.6774
  613MOL0     H84572   6.138   0.341   4.588 -0.4686  0.8927  1.7330
  613MOL0     H84573   6.203   0.183   4.564 -2.6997  1.2041 -1.3926
  613MOL0     H84574   5.276   0.229   5.234  0.8192 -0.8789 -1.4713
  613MOL0     H84575   5.040   0.225   5.277 -0.4144  0.6712  0.2000
  613MOL0     H84576   4.614   0.454   5.156  2.2913 -0.6283  0.5189
  613MOL0     H84577   4.367   0.460   5.141  0.8407  0.2623 -1.2327
  613MOL0     H84578   2.539   0.147   4.806  0.0683 -0.9359 -0.6796
  613MOL0     H84579   2.329   0.233   4.769  0.4370 -0.1326 -0.0328
  613MOL0     H84580   1.861   0.149   4.792  1.0700  1.1533 -1.2447
  613MOL0     H84581   1.615   0.205   4.802  0.7301 -1.1072  0.5799
  613MOL0     H84582   1.497   0.357   5.158  2.6224 -0.1124 -1.6647
  613MOL0     H84583   1.461   0.517   5.081 -4.4916  0.2031 -0.3503
  613MOL0     H84584   1.261   0.384   5.173  1.1491  0.1936  1.0489
  613MOL0     H84585   1.284   0.284   5.027 -0.5834  0.0590  0.6368
  613MOL0     H84586   1.119   0.450   5.003  0.9124 -1.5238 -1.1025
  613MOL0     H84587   1.229   0.591   5.041  0.0998 -0.7225  1.4638
  613MOL0     H84588   1.232   0.418   4.795 -0.4166 -1.3267  3.2134
  613MOL0     H84589   1.358   0.537   4.838  0.0755  2.4421 -0.0759
  613MOL0     H84590   1.054   0.768   4.653 -0.2203  2.0008  1.8094
  613MOL0     H84591   1.704   0.533   5.069 -0.8527 -0.2890  1.3307
  613MOL0     H84592   2.050   0.445   5.124  0.2023 -3.8076 -3.8190
  613MOL0     H84593   1.986   0.571   5.014  0.0585 -4.5731 -2.5422
  613MOL0     H84594   1.921   0.550   5.178  0.2146  1.5623  1.0175
  614MOL0     O84595   6.464   6.376   4.311  1.0279 -0.0317 -0.3321
  614MOL0     C84596   6.395   6.275   4.341  0.2907  0.7143  0.7192
  614MOL0     O84597   6.446   6.150   4.371 -0.4933 -0.7930  0.2526
  614MOL0     C84598   6.582   6.120   4.358 -0.9018  0.2028  0.2304
  614MOL0     C84599   6.624   6.033   4.452 -0.8886 -0.0500  0.0169
  614MOL0     C84600   6.749   5.969   4.447 -0.8463  0.1287 -0.9223
  614MOL0     C84601   6.840   6.002   4.341 -0.6751 -0.6019 -1.1995
  614MOL0     O84602   6.960   5.938   4.330  0.0250  0.6455 -0.8405
  614MOL0     C84603   6.972   5.806   4.392  0.0276  0.3360 -0.4849
  614MOL0     C84604   7.076   5.728   4.312  0.0044  1.4454  0.1444
  614MOL0     C84605   7.045   5.709   4.161 -0.1389 -0.4711  0.2352
  614MOL0     C84606   6.899   5.675   4.136  0.2307  0.4248  0.1623
  614MOL0     C84607   6.873   5.655   3.983  0.1426 -0.5846 -0.4625
  614MOL0     C84608   6.856   5.787   3.905 -0.1919  0.0279 -0.2155
  614MOL0     C84609   6.845   5.763   3.760  0.3944  0.1118  0.0388
  614MOL0     C84610   6.817   5.888   3.684 -0.8426 -0.1544  0.3201
  614MOL0     N84611   6.937   5.977   3.674 -0.0657 -0.2337 -0.1988
  614MOL0     C84612   6.946   6.102   3.738 -0.0905 -0.7610  0.4532
  614MOL0     C84613   7.045   6.166   3.677 -0.3581 -0.5377  0.6285
  614MOL0     C84614   7.097   6.301   3.715 -0.0739 -0.4495 -0.6667
  614MOL0     C84615   7.212   6.357   3.636 -0.4852  0.1537 -0.0668
  614MOL0     C84616   7.349   6.299   3.689 -0.4890 -0.4982  0.8657
  614MOL0     C84617   7.469   6.345   3.592  0.3639  0.1527 -0.3157
  614MOL0     O84618   7.452   6.287   3.466  0.1388  0.5587  0.1995
  614MOL0     C84619   7.551   6.306   3.364  0.0891  0.9866 -0.1864
  614MOL0     C84620   7.520   6.263   3.242 -0.8422  0.0361  0.1355
  614MOL0     C84621   7.609   6.270   3.128  0.2420  0.9253 -0.6142
  614MOL0     C84622   7.553   6.217   2.991 -0.2773 -0.2082 -0.0250
  614MOL0     C84623   7.742   6.313   3.148 -0.2822 -0.4922  0.3286
  614MOL0     C84624   7.849   6.328   3.040 -0.9525  0.2530 -0.5075
  614MOL0     O84625   7.972   6.387   3.074  0.4034  0.4740  0.3112
  614MOL0     C84626   8.094   6.348   3.024  0.2794  0.7704 -0.0711
  614MOL0     C84627   8.107   6.216   2.988  0.0242  0.1193 -0.2462
  614MOL0     C84628   8.224   6.164   2.929 -0.6024  0.4289  0.2978
  614MOL0     C84629   8.330   6.243   2.913 -0.1025 -0.0131 -0.4375
  614MOL0     O84630   8.438   6.185   2.849  0.4702  0.9911 -0.6812
  614MOL0     C84631   8.551   6.262   2.819  0.1257  0.7775 -0.3085
  614MOL0     C84632   8.659   6.185   2.748  0.1764  0.3281 -0.2200
  614MOL0     C84633   8.713   6.059   2.808 -0.3039 -0.3618 -0.2516
  614MOL0     C84634   8.848   6.005   2.753  0.2372  0.7583  0.5399
  614MOL0     C84635   8.891   5.875   2.829  0.9367 -0.3688  0.8229
  614MOL0     C84636   8.950   5.894   2.970  0.0257  0.6628  0.4623
  614MOL0     C84637   8.979   5.753   3.035 -0.3621 -0.0131  0.3406
  614MOL0     C84638   8.871   5.648   3.046 -0.3401 -0.5136 -0.5686
  614MOL0    Cl84639   8.856   5.522   2.910 -0.2333 -0.1664 -0.5846
  614MOL0     C84640   8.326   6.381   2.949  0.1406 -0.0571  0.1775
  614MOL0     C84641   8.213   6.434   3.011 -0.2443  0.8979 -0.0529
  614MOL0     O84642   7.823   6.288   2.928 -0.0367 -0.0436  0.1351
  614MOL0     C84643   7.769   6.351   3.279  0.0730  0.3410 -0.4079
  614MOL0     C84644   7.677   6.355   3.386 -0.3366 -0.3522 -0.5338
  614MOL0     N84645   7.094   6.085   3.577  0.1420  0.1898 -0.0297
  614MOL0     N84646   7.039   5.969   3.584  0.5353 -0.5232 -0.6399
  614MOL0     C84647   6.788   6.097   4.246  0.3271  0.4478 -0.1912
  614MOL0     C84648   6.666   6.156   4.257  0.1391  0.2008  0.0609
  614MOL0     C84649   6.249   6.290   4.338 -0.2284 -0.5706  0.3792
  614MOL0     C84650   6.193   6.420   4.350 -0.1909 -0.2331 -0.8737
  614MOL0     C84651   6.045   6.430   4.345 -0.1120  0.0400  0.1225
  614MOL0     C84652   5.958   6.323   4.336  0.1870  0.6074  0.8260
  614MOL0     O84653   5.822   6.318   4.341  0.0916 -0.0557  0.0105
  614MOL0     C84654   5.758   6.442   4.373 -0.0316 -0.0857 -1.0910
  614MOL0     C84655   5.605   6.439   4.368 -0.7754  0.2133 -0.5625
  614MOL0     C84656   5.549   6.423   4.228  0.1350 -0.0738 -0.0791
  614MOL0     C84657   5.393   6.433   4.232  0.0227 -0.0837  0.0144
  614MOL0     C84658   5.340   6.320   4.313 -0.0636 -0.5479  0.3622
  614MOL0     C84659   5.301   6.224   4.374  0.1785  0.4941 -0.4348
  614MOL0     C84660   6.020   6.198   4.321 -0.0561  0.6042  0.3873
  614MOL0     C84661   6.157   6.178   4.321  0.4667  0.1317  0.3569
  614MOL0     C84662   6.200   6.028   4.306  0.2918 -0.6677  0.3003
  614MOL0     H84663   6.551   5.996   4.522 -1.5843 -0.6746 -1.0045
  614MOL0     H84664   6.777   5.909   4.534  3.8211  2.3494 -0.5853
  614MOL0     H84665   6.880   5.748   4.383  0.1908 -0.1783  0.9517
  614MOL0     H84666   7.001   5.811   4.498 -0.9895 -0.9792 -0.1224
  614MOL0     H84667   7.179   5.758   4.333  1.3229 -1.7933 -0.9746
  614MOL0     H84668   7.063   5.624   4.344 -1.6937  2.7979  4.6179
  614MOL0     H84669   7.059   5.810   4.122 -3.9799 -0.3535 -1.1961
  614MOL0     H84670   7.102   5.627   4.116 -0.9976 -0.5900 -0.6617
  614MOL0     H84671   6.888   5.579   4.186  1.3016 -1.7866 -3.4770
  614MOL0     H84672   6.823   5.746   4.170  0.0219  0.0890  0.4014
  614MOL0     H84673   6.783   5.593   3.974 -1.4493  1.3781  0.9697
  614MOL0     H84674   6.957   5.598   3.941 -1.0142 -2.0251 -0.8905
  614MOL0     H84675   6.764   5.838   3.934  0.6062  0.6254  1.3584
  614MOL0     H84676   6.940   5.853   3.928 -0.1451  0.4110 -1.3978
  614MOL0     H84677   6.758   5.700   3.741  1.5196 -1.7089  0.7544
  614MOL0     H84678   6.940   5.724   3.724 -1.1208 -1.9421 -1.9987
  614MOL0     H84679   6.773   5.857   3.589 -3.6016 -1.2703  1.8441
  614MOL0     H84680   6.738   5.950   3.728  1.0696  0.8357  2.5673
  614MOL0     H84681   6.878   6.137   3.815 -0.6565  0.2751 -0.4905
  614MOL0     H84682   7.125   6.291   3.820  0.2746  0.8254 -0.6212
  614MOL0     H84683   7.017   6.375   3.706  0.7751  0.5829 -0.0562
  614MOL0     H84684   7.203   6.340   3.528  3.0698 -1.1908 -0.3050
  614MOL0     H84685   7.218   6.465   3.650  3.8734 -0.1993  2.7865
  614MOL0     H84686   7.370   6.351   3.783  3.3943  1.0416 -0.6337
  614MOL0     H84687   7.359   6.190   3.688  4.0654 -0.2835  0.1674
  614MOL0     H84688   7.468   6.454   3.582 -0.2795  0.1233 -0.6028
  614MOL0     H84689   7.561   6.312   3.641 -2.2985 -1.8936  3.8655
  614MOL0     H84690   7.421   6.218   3.237 -0.3217 -1.0697 -0.6206
  614MOL0     H84691   7.602   6.122   2.967  1.9463  0.8071  0.2291
  614MOL0     H84692   7.578   6.292   2.915 -0.3582  0.9471  1.0577
  614MOL0     H84693   7.446   6.195   2.998 -0.2066 -0.6864 -0.3888
  614MOL0     H84694   8.036   6.138   3.015  0.8571 -0.1925  1.1952
  614MOL0     H84695   8.231   6.063   2.889 -1.2610  0.0928  1.0080
  614MOL0     H84696   8.534   6.341   2.745  2.5539 -1.4249 -3.4887
  614MOL0     H84697   8.592   6.305   2.910 -1.2179  1.4750 -0.0001
  614MOL0     H84698   8.620   6.149   2.653 -1.1440 -1.6494  1.0058
  614MOL0     H84699   8.750   6.246   2.743  0.5073 -0.2377 -1.4064
  614MOL0     H84700   8.634   5.984   2.802  0.2956 -1.1201  0.9336
  614MOL0     H84701   8.736   6.083   2.913 -1.5245 -1.0312  0.1820
  614MOL0     H84702   8.927   6.080   2.757  1.5004 -0.5718  3.3633
  614MOL0     H84703   8.848   5.975   2.647  0.9476  2.2790  0.0814
  614MOL0     H84704   8.808   5.804   2.833  0.7219 -0.0957  1.3418
  614MOL0     H84705   8.965   5.824   2.768  1.2453  1.6248 -0.5760
  614MOL0     H84706   8.872   5.937   3.033 -1.9937 -1.4220 -0.4681
  614MOL0     H84707   9.037   5.960   2.959  0.2950  0.2448  0.0328
  614MOL0     H84708   9.015   5.772   3.137  0.4521 -2.2758  0.5494
  614MOL0     H84709   9.063   5.707   2.983 -0.8918 -1.0733  0.3924
  614MOL0     H84710   8.771   5.692   3.057 -0.2058 -0.5756  1.0312
  614MOL0     H84711   8.884   5.590   3.137  0.8814 -3.1750 -2.3118
  614MOL0     H84712   8.415   6.441   2.939  1.0805 -1.5154 -0.6520
  614MOL0     H84713   8.215   6.533   3.056 -0.2921  0.7086  0.3629
  614MOL0     H84714   7.867   6.394   3.298  0.3959 -0.5490 -0.0435
  614MOL0     H84715   7.709   6.395   3.481 -2.3287 -0.7762  0.3613
  614MOL0     H84716   6.841   6.118   4.154 -0.3376 -1.4506 -1.0500
  614MOL0     H84717   6.644   6.220   4.172  0.3503  1.0331  0.6289
  614MOL0     H84718   6.248   6.513   4.359 -0.3276 -0.2612  0.3429
  614MOL0     H84719   6.001   6.529   4.351 -3.3355 -1.3216  1.5411
  614MOL0     H84720   5.797   6.468   4.472  1.2751 -2.2842 -0.9730
  614MOL0     H84721   5.785   6.533   4.318  0.8163  0.7514  0.6097
  614MOL0     H84722   5.568   6.528   4.419  2.5133 -0.2100  3.0243
  614MOL0     H84723   5.565   6.362   4.435 -0.5591 -0.1971 -0.9006
  614MOL0     H84724   5.577   6.497   4.153 -0.3912 -1.7917 -2.0853
  614MOL0     H84725   5.584   6.326   4.190 -2.6086 -0.7549 -1.1051
  614MOL0     H84726   5.344   6.419   4.135  0.9463  0.1519 -0.4906
  614MOL0     H84727   5.350   6.525   4.273 -1.2254 -0.2719 -0.7944
  614MOL0     H84728   5.270   6.137   4.429 -0.7137  0.5644 -0.8127
  614MOL0     H84729   5.958   6.110   4.318 -0.8593  0.9575  3.2851
  614MOL0     H84730   6.231   5.992   4.404  2.1422 -0.2171 -0.0805
  614MOL0     H84731   6.119   5.961   4.273  0.3344 -1.2147  1.2722
  614MOL0     H84732   6.286   6.022   4.237  1.6796 -1.4800  2.0186
  615MOL0     O84733   7.137   4.683   5.884 -0.4569  0.3284  1.1347
  615MOL0     C84734   7.159   4.627   5.773  0.1708  1.1206  0.4314
  615MOL0     O84735   7.281   4.630   5.702  0.4732  0.1821 -0.8364
  615MOL0     C84736   7.398   4.651   5.773 -0.4993 -1.2660  0.3913
  615MOL0     C84737   7.503   4.729   5.711  1.0271  0.7538  0.3053
  615MOL0     C84738   7.627   4.755   5.768  0.2702  0.9245 -0.3246
  615MOL0     C84739   7.651   4.681   5.890  0.5810 -0.0222  0.2883
  615MOL0     O84740   7.778   4.682   5.950 -0.0348 -0.2291 -0.0195
  615MOL0     C84741   7.869   4.590   5.889  0.0334  0.4431 -0.0425
  615MOL0     C84742   7.972   4.652   5.794  0.1047  0.1933 -0.3249
  615MOL0     C84743   8.087   4.713   5.870  0.5040  0.4336 -0.0440
  615MOL0     C84744   8.194   4.772   5.776 -0.1565 -0.4410 -0.1898
  615MOL0     C84745   8.310   4.810   5.868 -0.1424 -0.2351 -0.1150
  615MOL0     C84746   8.436   4.853   5.789  0.1097  0.1443 -0.0811
  615MOL0     C84747   8.550   4.888   5.890  0.4763 -0.5219 -1.4706
  615MOL0     C84748   8.676   4.948   5.822  0.4057 -0.4056 -0.1541
  615MOL0     N84749   8.770   4.843   5.787 -0.2688 -0.0671  1.1737
  615MOL0     C84750   8.881   4.822   5.854  0.2169 -0.7844 -0.7766
  615MOL0     C84751   8.959   4.738   5.783 -0.4129 -0.6401  0.0566
  615MOL0     C84752   9.093   4.686   5.833 -0.4244  0.2590  0.6336
  615MOL0     C84753   9.205   4.671   5.727 -0.4143 -0.0193  1.1710
  615MOL0     C84754   9.343   4.635   5.793  0.0414  0.1664  1.0169
  615MOL0     C84755   9.432   4.763   5.823 -0.0620  0.0801  0.2167
  615MOL0     O84756   9.482   4.824   5.705  0.8085  0.1707 -1.0048
  615MOL0     C84757   9.579   4.904   5.756  0.8559  0.0882  0.4733
  615MOL0     C84758   9.562   5.025   5.811  0.4465 -0.6260 -1.1130
  615MOL0     C84759   9.664   5.114   5.864  0.0329 -0.0128  0.3673
  615MOL0     C84760   9.616   5.225   5.945  0.1289 -0.2441 -0.1928
  615MOL0     C84761   9.797   5.055   5.862 -0.7636  0.3434 -0.0583
  615MOL0     C84762   9.918   5.121   5.930  0.3770 -0.2753  0.2305
  615MOL0     O84763  10.026   5.045   5.950 -0.2323 -0.3169  0.2405
  615MOL0     C84764  10.159   5.079   5.978 -0.2170 -0.2894 -0.0301
  615MOL0     C84765  10.207   5.208   5.987 -1.2693 -0.0643  0.1668
  615MOL0     C84766  10.338   5.240   6.033  0.1138  0.4396 -0.5938
  615MOL0     C84767  10.421   5.135   6.068  0.3922  0.2318  0.5036
  615MOL0     O84768  10.553   5.164   6.105  0.6341  1.3066 -0.8728
  615MOL0     C84769  10.621   5.251   6.014 -1.1963  0.3769 -0.8041
  615MOL0     C84770  10.770   5.247   6.031 -0.4038 -0.3268  0.1217
  615MOL0     C84771  10.825   5.117   6.003 -0.2513  0.1405  0.6074
  615MOL0     C84772  10.981   5.111   6.037  0.8593 -0.8118  0.4287
  615MOL0     C84773  11.047   4.969   6.026 -0.0170 -0.4517  0.1554
  615MOL0     C84774  11.190   4.961   6.086  0.2491 -1.0663 -0.7640
  615MOL0     C84775  11.195   4.949   6.238 -0.1774 -0.6648  0.1412
  615MOL0     C84776  11.339   4.921   6.272  0.0318 -0.2541  0.8875
  615MOL0    Cl84777  11.451   5.047   6.198  0.5753 -0.4080  0.1028
  615MOL0     C84778  10.378   4.998   6.051 -0.1357  0.0174 -0.6698
  615MOL0     C84779  10.246   4.973   6.005  0.6140  0.4542  0.3877
  615MOL0     O84780   9.903   5.244   5.966 -0.2924 -0.1064 -0.5457
  615MOL0     C84781   9.820   4.925   5.800 -0.1228  0.6195 -0.8355
  615MOL0     C84782   9.712   4.858   5.742  0.3087 -0.0715 -0.1222
  615MOL0     N84783   8.894   4.710   5.665 -0.3341 -0.3635 -0.1486
  615MOL0     N84784   8.777   4.768   5.671 -0.2326  0.0869  0.7861
  615MOL0     C84785   7.551   4.604   5.953  0.0497 -0.5707 -0.0568
  615MOL0     C84786   7.427   4.594   5.897  0.1429 -0.6517 -0.3700
  615MOL0     C84787   7.043   4.565   5.697 -0.0713 -0.4845 -1.0248
  615MOL0     C84788   7.075   4.501   5.571  0.2859 -0.3549 -0.1356
  615MOL0     C84789   6.976   4.439   5.486 -0.3537 -0.9987 -0.3140
  615MOL0     C84790   6.841   4.454   5.519  0.7767 -0.4184  0.1771
  615MOL0     O84791   6.736   4.398   5.448  0.2531 -0.0837 -0.4205
  615MOL0     C84792   6.762   4.309   5.337 -0.0317 -0.4014  0.9344
  615MOL0     C84793   6.633   4.239   5.302  0.6985  0.1528 -0.3750
  615MOL0     C84794   6.517   4.340   5.272 -1.0393  0.1647  0.3390
  615MOL0     C84795   6.389   4.260   5.251 -0.1294  0.2769 -0.1915
  615MOL0     C84796   6.399   4.153   5.148  0.2826  0.4854  0.3221
  615MOL0     C84797   6.401   4.053   5.077 -0.1543  0.1693  0.2906
  615MOL0     C84798   6.804   4.514   5.641  0.3186 -0.0232  0.5328
  615MOL0     C84799   6.908   4.565   5.731  0.4549  0.2508  0.4638
  615MOL0     C84800   6.859   4.633   5.857 -0.6912 -0.1563 -0.1304
  615MOL0     H84801   7.486   4.773   5.613 -1.2063 -1.7513 -0.5396
  615MOL0     H84802   7.700   4.822   5.725 -0.1589  0.9088 -1.1051
  615MOL0     H84803   7.806   4.510   5.849 -3.2974  2.2461  1.2057
  615MOL0     H84804   7.924   4.530   5.962 -0.1376 -0.9447 -1.0176
  615MOL0     H84805   8.003   4.573   5.726  0.1615 -0.0689 -0.0005
  615MOL0     H84806   7.914   4.727   5.739 -1.4654 -0.4531  0.3745
  615MOL0     H84807   8.054   4.797   5.931  3.0924  2.0333 -0.6779
  615MOL0     H84808   8.133   4.632   5.928 -1.9610  0.2889  1.8795
  615MOL0     H84809   8.226   4.691   5.710 -1.9220 -0.5324 -0.9660
  615MOL0     H84810   8.159   4.858   5.717 -1.4218 -1.6564 -1.2546
  615MOL0     H84811   8.340   4.721   5.925 -1.5827  1.1152  3.0180
  615MOL0     H84812   8.271   4.880   5.942 -0.6623 -2.9752  2.4140
  615MOL0     H84813   8.473   4.773   5.724  2.3150  1.4497 -0.5328
  615MOL0     H84814   8.392   4.934   5.731 -2.5210  1.2566  3.1449
  615MOL0     H84815   8.566   4.800   5.953  2.1091  0.4872 -0.4233
  615MOL0     H84816   8.515   4.965   5.960  1.0968  0.0538 -1.7876
  615MOL0     H84817   8.640   5.009   5.738  2.9886  1.3121 -0.1413
  615MOL0     H84818   8.724   5.025   5.884 -2.5002 -0.2605  2.1055
  615MOL0     H84819   8.910   4.851   5.955  1.1971 -1.2768 -0.9001
  615MOL0     H84820   9.072   4.592   5.886 -1.6123  1.1385  1.8007
  615MOL0     H84821   9.131   4.766   5.897 -0.5855  1.7121 -1.0160
  615MOL0     H84822   9.174   4.590   5.660 -1.6870 -0.4723  2.2608
  615MOL0     H84823   9.215   4.758   5.662  1.5273 -1.9522 -1.3696
  615MOL0     H84824   9.332   4.571   5.881  1.2826 -2.3900 -0.5778
  615MOL0     H84825   9.406   4.574   5.727  4.5612  1.9469  3.2241
  615MOL0     H84826   9.384   4.838   5.886 -1.2643  1.1939 -1.9394
  615MOL0     H84827   9.514   4.712   5.874 -1.4063 -2.2515  0.1748
  615MOL0     H84828   9.457   5.052   5.807  0.8424  2.0302  1.9536
  615MOL0     H84829   9.663   5.321   5.924 -2.0729  1.1079  0.6860
  615MOL0     H84830   9.626   5.207   6.052  1.4833 -1.1937 -0.4526
  615MOL0     H84831   9.507   5.238   5.942 -0.1810 -1.8565  1.7923
  615MOL0     H84832  10.135   5.283   5.957  0.4304  1.0645 -1.2843
  615MOL0     H84833  10.364   5.345   6.039 -1.2404  0.7282  0.9615
  615MOL0     H84834  10.597   5.222   5.911  3.6192 -0.5307 -1.9369
  615MOL0     H84835  10.592   5.354   6.036 -1.7808  0.2598 -1.0102
  615MOL0     H84836  10.814   5.321   5.964 -2.0536  0.8836  0.3266
  615MOL0     H84837  10.791   5.276   6.134 -0.4855 -1.7948  0.5760
  615MOL0     H84838  10.815   5.088   5.898  0.9937  0.1019  0.4779
  615MOL0     H84839  10.766   5.045   6.061 -0.5532  1.2119  1.6593
  615MOL0     H84840  10.989   5.143   6.141  1.6323 -2.5231  0.9390
  615MOL0     H84841  11.038   5.184   5.978 -1.5352  1.7219  1.0452
  615MOL0     H84842  10.994   4.885   6.072 -2.1407 -1.1944 -3.2671
  615MOL0     H84843  11.045   4.932   5.924 -1.8525 -3.7423  1.2266
  615MOL0     H84844  11.244   5.051   6.058 -3.4792  1.9049  0.6082
  615MOL0     H84845  11.229   4.867   6.047 -1.2832 -1.8783 -0.4369
  615MOL0     H84846  11.127   4.871   6.274 -0.5085  0.2069  1.4432
  615MOL0     H84847  11.169   5.043   6.286  1.2867 -0.5665  0.7820
  615MOL0     H84848  11.368   4.822   6.235  1.1902  0.6080 -0.6588
  615MOL0     H84849  11.351   4.916   6.380  1.5433 -2.4038  0.6798
  615MOL0     H84850  10.438   4.917   6.091 -1.7687  0.2560  2.5518
  615MOL0     H84851  10.216   4.869   6.012  0.1905  0.6995  4.7070
  615MOL0     H84852   9.916   4.876   5.791 -1.8839 -3.0956 -1.1955
  615MOL0     H84853   9.732   4.761   5.699 -0.6403  0.0532 -0.8619
  615MOL0     H84854   7.569   4.549   6.046 -0.9482  1.1637  1.2171
  615MOL0     H84855   7.349   4.543   5.953  0.3915  0.8380  1.4164
  615MOL0     H84856   7.179   4.476   5.552  1.0324  1.4739  1.2621
  615MOL0     H84857   7.008   4.394   5.393  1.2285 -0.1884 -0.2107
  615MOL0     H84858   6.796   4.372   5.255 -1.8034  1.9537  1.9127
  615MOL0     H84859   6.842   4.241   5.371 -0.7328 -0.1072  3.4121
  615MOL0     H84860   6.601   4.168   5.379 -1.1136 -0.6991 -1.8334
  615MOL0     H84861   6.644   4.176   5.213  2.3422 -1.5451  0.9523
  615MOL0     H84862   6.506   4.405   5.359  1.8244  0.9750  0.2002
  615MOL0     H84863   6.529   4.388   5.175 -1.2838 -2.3572 -1.0290
  615MOL0     H84864   6.310   4.322   5.207 -0.6172 -0.8621 -0.9818
  615MOL0     H84865   6.356   4.219   5.347  1.1562  0.6454  0.4357
  615MOL0     H84866   6.410   3.965   5.015 -3.0297 -0.2718  0.3788
  615MOL0     H84867   6.697   4.517   5.657 -0.5251  0.8584 -3.9365
  615MOL0     H84868   6.752   4.649   5.844 -1.0586 -2.0579  0.2644
  615MOL0     H84869   6.878   4.572   5.946  1.3059 -2.3462 -1.9126
  615MOL0     H84870   6.906   4.732   5.866 -0.1744 -0.5258  1.8023
  616MOL0     O84871   8.596   6.347   8.535  0.3431 -0.2475  0.4256
  616MOL0     C84872   8.596   6.372   8.416  0.0981 -0.1571  0.5238
  616MOL0     O84873   8.714   6.374   8.343  0.7866  0.1424  0.3396
  616MOL0     C84874   8.828   6.340   8.413 -0.1418 -0.0637 -0.0511
  616MOL0     C84875   8.856   6.213   8.473 -0.6911 -0.4070  0.1217
  616MOL0     C84876   8.980   6.186   8.541 -0.2030  0.5625  1.0016
  616MOL0     C84877   9.067   6.292   8.564  0.4453  0.4510  0.0862
  616MOL0     O84878   9.190   6.267   8.627 -0.3147  0.1874  0.1802
  616MOL0     C84879   9.238   6.356   8.726 -0.4897  0.1994 -0.1560
  616MOL0     C84880   9.359   6.431   8.668 -0.3435  0.5321  0.1005
  616MOL0     C84881   9.489   6.356   8.700  0.1592 -0.5364  0.1333
  616MOL0     C84882   9.611   6.430   8.644 -0.3003 -0.8549 -0.4794
  616MOL0     C84883   9.742   6.342   8.670  0.1271  0.6531 -0.4507
  616MOL0     C84884   9.804   6.358   8.808 -0.0282 -0.2763  0.8188
  616MOL0     C84885   9.942   6.283   8.819 -0.0241 -0.2028  0.4066
  616MOL0     C84886   9.999   6.280   8.965 -0.2125  0.4713  0.3080
  616MOL0     N84887  10.085   6.167   8.989  0.3616  0.4478 -0.7748
  616MOL0     C84888  10.121   6.134   9.121  0.3033 -1.4584 -0.3110
  616MOL0     C84889  10.218   6.048   9.098  0.0372  0.3307 -0.0445
  616MOL0     C84890  10.288   5.966   9.201  0.9741 -0.2045  0.1996
  616MOL0     C84891  10.404   6.032   9.286  1.3385  0.1335  0.1014
  616MOL0     C84892  10.540   5.988   9.238 -0.0150 -0.0839 -0.4421
  616MOL0     C84893  10.580   5.846   9.285 -0.1951  0.0776  0.0783
  616MOL0     O84894  10.696   5.790   9.220 -0.1167 -0.8870 -0.3843
  616MOL0     C84895  10.764   5.687   9.284 -0.0169  0.0417  0.2873
  616MOL0     C84896  10.725   5.621   9.395 -0.7791 -0.1136  0.4036
  616MOL0     C84897  10.818   5.531   9.461  0.1054 -0.0866 -0.3927
  616MOL0     C84898  10.770   5.470   9.589  0.8664 -0.3596  0.8771
  616MOL0     C84899  10.947   5.501   9.404  0.4733 -0.2570  0.3693
  616MOL0     C84900  11.050   5.405   9.451 -0.1200 -0.0967  0.1038
  616MOL0     O84901  11.146   5.350   9.360  0.1953  0.1615 -0.5373
  616MOL0     C84902  11.273   5.326   9.418  0.4649 -0.1793  0.1925
  616MOL0     C84903  11.322   5.197   9.430  0.2564 -0.1361 -0.8358
  616MOL0     C84904  11.448   5.179   9.489  0.3266 -0.4446  0.0743
  616MOL0     C84905  11.525   5.286   9.542  0.2214 -0.6753  1.2911
  616MOL0     O84906  11.655   5.257   9.584  0.0025  0.5904  0.1871
  616MOL0     C84907  11.745   5.369   9.605  0.6128  0.3867  0.3726
  616MOL0     C84908  11.881   5.304   9.625  0.3713 -0.1756  0.1022
  616MOL0     C84909  11.897   5.235   9.767 -0.3177 -0.0215  0.0720
  616MOL0     C84910  12.035   5.240   9.825 -0.4072 -0.3665  0.2285
  616MOL0     C84911  12.145   5.164   9.748  0.0547  1.5778  0.2754
  616MOL0     C84912  12.118   5.006   9.728 -0.4590 -0.1989  0.3716
  616MOL0     C84913  12.259   4.950   9.701  0.6545  0.9881 -0.3345
  616MOL0     C84914  12.265   4.794   9.663  0.1159 -0.6816 -0.0980
  616MOL0    Cl84915  12.436   4.742   9.676  0.0022  0.0308 -0.0114
  616MOL0     C84916  11.470   5.420   9.535  0.0183  0.3563  0.0916
  616MOL0     C84917  11.347   5.439   9.470 -0.3858 -0.8297 -0.4764
  616MOL0     O84918  11.048   5.389   9.578  0.3233  0.2692 -0.3288
  616MOL0     C84919  10.981   5.575   9.286 -0.1259  0.5240  0.0442
  616MOL0     C84920  10.891   5.663   9.225 -0.0107  0.9946 -0.0600
  616MOL0     N84921  10.245   6.035   8.962  0.2271 -0.0985  0.5450
  616MOL0     N84922  10.165   6.111   8.898 -0.1526 -0.2594  0.6410
  616MOL0     C84923   9.041   6.420   8.504  0.4276 -0.2920  0.0951
  616MOL0     C84924   8.923   6.440   8.424 -0.0121 -0.1893 -0.3317
  616MOL0     C84925   8.463   6.410   8.349 -0.2416  0.6099  0.9609
  616MOL0     C84926   8.463   6.451   8.211 -0.7225 -0.3963  0.0861
  616MOL0     C84927   8.353   6.478   8.137  0.6345  0.1512 -0.4254
  616MOL0     C84928   8.232   6.494   8.205  0.8097 -0.3942  0.3301
  616MOL0     O84929   8.135   6.548   8.134  0.1321  0.1579  0.0113
  616MOL0     C84930   8.002   6.517   8.170 -0.2061  0.2319  0.2809
  616MOL0     C84931   7.929   6.503   8.041 -0.4019 -0.1173 -0.2763
  616MOL0     C84932   7.776   6.496   8.054 -0.4607 -0.0113  0.0849
  616MOL0     C84933   7.705   6.487   7.916  0.1946 -0.6873  0.1533
  616MOL0     C84934   7.725   6.364   7.846 -0.4280  0.1838 -0.4040
  616MOL0     C84935   7.740   6.255   7.796 -0.5342  0.2011  0.0018
  616MOL0     C84936   8.229   6.470   8.341 -0.3022 -0.1413  0.2232
  616MOL0     C84937   8.342   6.423   8.414  0.3318 -0.1803  0.5567
  616MOL0     C84938   8.309   6.394   8.563  0.4196  0.3095 -0.0097
  616MOL0     H84939   8.779   6.136   8.468 -2.0752  0.9921 -1.2275
  616MOL0     H84940   9.014   6.091   8.582 -0.8699 -0.2772 -0.3228
  616MOL0     H84941   9.270   6.295   8.811 -2.4913 -2.3106 -1.0634
  616MOL0     H84942   9.161   6.429   8.754 -0.8358 -0.3570  0.3817
  616MOL0     H84943   9.346   6.442   8.560 -0.1533 -0.4442 -0.0380
  616MOL0     H84944   9.357   6.533   8.706  3.4322  0.3571  1.1852
  616MOL0     H84945   9.484   6.348   8.809  3.3974 -1.6160  0.3038
  616MOL0     H84946   9.491   6.255   8.660 -0.0891  0.4206 -2.5070
  616MOL0     H84947   9.596   6.442   8.536  1.1707  5.2920 -0.3494
  616MOL0     H84948   9.609   6.535   8.674 -2.8593 -0.2154 -2.5133
  616MOL0     H84949   9.808   6.376   8.590 -1.4961  2.3497 -1.1650
  616MOL0     H84950   9.734   6.233   8.663  1.8510  0.6185 -2.7163
  616MOL0     H84951   9.818   6.463   8.835  1.7497 -0.0820 -0.6898
  616MOL0     H84952   9.733   6.316   8.880  3.2503 -1.8276  3.3620
  616MOL0     H84953  10.015   6.331   8.753 -0.1700  0.4164  0.6860
  616MOL0     H84954   9.923   6.178   8.795  0.9498  0.1973 -2.5208
  616MOL0     H84955  10.052   6.373   8.988 -0.6418  0.5752  0.9066
  616MOL0     H84956   9.904   6.277   9.018 -1.0457  0.1825 -1.1430
  616MOL0     H84957  10.070   6.153   9.215  4.6012  0.8067  1.8531
  616MOL0     H84958  10.318   5.876   9.147  0.0880  0.0384 -0.7373
  616MOL0     H84959  10.209   5.934   9.270 -0.2265  0.9261 -0.5741
  616MOL0     H84960  10.394   6.140   9.280  0.6511  0.0366 -0.6757
  616MOL0     H84961  10.399   5.997   9.390  1.3726  0.6140  0.2663
  616MOL0     H84962  10.550   5.987   9.129 -1.7939 -0.8656 -0.6295
  616MOL0     H84963  10.619   6.056   9.271  0.4394 -0.5600 -0.5329
  616MOL0     H84964  10.601   5.852   9.392 -2.4843  0.4168  0.5430
  616MOL0     H84965  10.492   5.785   9.264 -0.2912 -0.2835  1.4340
  616MOL0     H84966  10.629   5.646   9.438 -1.4622  0.2869 -1.2912
  616MOL0     H84967  10.795   5.363   9.591 -0.5391 -0.8271 -1.7339
  616MOL0     H84968  10.662   5.482   9.592  0.9627  0.2769  2.5924
  616MOL0     H84969  10.813   5.525   9.673 -2.8748  2.8288  0.9514
  616MOL0     H84970  11.272   5.104   9.401  2.3521 -1.2195 -1.1466
  616MOL0     H84971  11.500   5.084   9.497  2.4116  0.3048 -2.7310
  616MOL0     H84972  11.742   5.436   9.518  2.4391 -0.2489 -0.2100
  616MOL0     H84973  11.727   5.424   9.698  0.4330 -1.5466  1.5211
  616MOL0     H84974  11.896   5.224   9.551 -1.7724  0.2928 -0.9175
  616MOL0     H84975  11.956   5.383   9.612 -0.6200  0.2541 -4.5306
  616MOL0     H84976  11.871   5.129   9.761  0.7330 -0.4036  1.8477
  616MOL0     H84977  11.830   5.286   9.837 -0.7453  0.8670 -0.9500
  616MOL0     H84978  12.031   5.203   9.928  2.4748  1.9628  1.3016
  616MOL0     H84979  12.075   5.341   9.834 -0.9184  0.3624 -3.7479
  616MOL0     H84980  12.164   5.205   9.649  0.4741 -0.5118 -0.5505
  616MOL0     H84981  12.244   5.179   9.793  2.1844 -0.7452 -3.2223
  616MOL0     H84982  12.045   4.997   9.647  0.5904 -1.3423 -0.4931
  616MOL0     H84983  12.067   4.966   9.816  0.5054  2.2759  2.1810
  616MOL0     H84984  12.318   4.967   9.792  1.0222  1.1195 -0.5935
  616MOL0     H84985  12.318   4.998   9.622  0.5679 -3.1697 -3.2245
  616MOL0     H84986  12.215   4.770   9.569 -1.7630  2.3688  0.0103
  616MOL0     H84987  12.212   4.737   9.740 -1.9929  0.8990 -0.2853
  616MOL0     H84988  11.530   5.497   9.583  0.4102  0.7913 -1.0519
  616MOL0     H84989  11.314   5.542   9.461  1.9268  0.2219  2.0156
  616MOL0     H84990  11.080   5.565   9.243  0.6939 -2.4122  2.2815
  616MOL0     H84991  10.912   5.703   9.126 -1.2933 -0.2237 -0.8608
  616MOL0     H84992   9.108   6.503   8.525 -0.3718  0.3820 -0.0106
  616MOL0     H84993   8.920   6.538   8.378  1.1956 -1.1500 -2.6244
  616MOL0     H84994   8.562   6.445   8.165 -0.6578  2.9438 -0.4421
  616MOL0     H84995   8.362   6.506   8.033  1.7812 -1.0239 -0.6758
  616MOL0     H84996   7.994   6.424   8.227  4.0837 -2.3442 -2.7550
  616MOL0     H84997   7.972   6.598   8.238  3.4231  2.4387 -0.4966
  616MOL0     H84998   7.982   6.420   7.994  2.9402  0.7003  1.7003
  616MOL0     H84999   7.954   6.581   7.968  0.0789  0.2376  0.2586
  616MOL0     H85000   7.755   6.407   8.115 -2.5440  0.5415  0.2584
  616MOL0     H85001   7.733   6.583   8.104  0.5954 -0.4873  1.9169
  616MOL0     H85002   7.741   6.578   7.866 -0.2194  0.2919  1.5848
  616MOL0     H85003   7.598   6.506   7.924  0.4865  2.1136 -1.3782
  616MOL0     H85004   7.749   6.161   7.746  2.6427 -0.9224  2.3587
  616MOL0     H85005   8.140   6.478   8.403  0.0155 -0.2088  0.6896
  616MOL0     H85006   8.203   6.399   8.592 -0.0626 -1.2334 -1.3743
  616MOL0     H85007   8.341   6.293   8.588  0.5941  0.1564 -0.8292
  616MOL0     H85008   8.362   6.465   8.628 -0.4201  1.1683 -0.2238
  617MOL0     O85009   4.887   0.307   4.097  0.9316  0.6225  0.6311
  617MOL0     C85010   4.816   0.314   4.203  0.2547  0.0526  0.1218
  617MOL0     O85011   4.854   0.372   4.326 -0.0499 -0.0576 -0.0494
  617MOL0     C85012   4.968   0.441   4.336  0.1951  0.3671 -0.0712
  617MOL0     C85013   5.092   0.377   4.346 -0.0516  0.1734  0.5553
  617MOL0     C85014   5.207   0.459   4.358  0.1004  0.5581  0.1044
  617MOL0     C85015   5.203   0.599   4.342 -0.8857 -0.2769  0.5307
  617MOL0     O85016   5.314   0.683   4.331 -0.5829 -0.0944 -0.3632
  617MOL0     C85017   5.449   0.625   4.363  0.6181  1.0543 -0.5271
  617MOL0     C85018   5.562   0.722   4.330  0.0258 -0.4779  0.2352
  617MOL0     C85019   5.639   0.663   4.205  0.0129  0.4560 -0.0679
  617MOL0     C85020   5.771   0.743   4.213  0.4547  0.1231 -0.3956
  617MOL0     C85021   5.833   0.750   4.070  0.2436  0.9167 -0.3731
  617MOL0     C85022   5.966   0.819   4.065 -0.2171  0.3458  0.2037
  617MOL0     C85023   6.017   0.841   3.918  0.1602 -0.4454 -0.4961
  617MOL0     C85024   6.112   0.734   3.857  0.7730 -0.1779 -1.0336
  617MOL0     N85025   6.243   0.743   3.925 -0.4699  0.0777 -0.1043
  617MOL0     C85026   6.328   0.849   3.911 -0.2846  0.1078  0.1774
  617MOL0     C85027   6.451   0.803   3.892 -0.2358 -0.0161  0.4835
  617MOL0     C85028   6.578   0.886   3.884 -0.1148 -0.0870 -0.0901
  617MOL0     C85029   6.683   0.835   3.781 -0.1477 -0.2980 -0.4951
  617MOL0     C85030   6.824   0.871   3.816 -0.1316 -0.3198  0.5741
  617MOL0     C85031   6.932   0.786   3.745  0.1344  0.3498  0.1909
  617MOL0     O85032   7.050   0.850   3.783 -0.2321 -0.3778 -0.0122
  617MOL0     C85033   7.163   0.842   3.708 -0.7172  0.6848 -0.5250
  617MOL0     C85034   7.183   0.730   3.634 -0.7686  0.2247  0.6378
  617MOL0     C85035   7.291   0.709   3.550 -0.4099  0.0065  0.0669
  617MOL0     C85036   7.280   0.588   3.448  0.3045  0.7928  0.5932
  617MOL0     C85037   7.404   0.805   3.546  0.0105 -1.0659  0.2098
  617MOL0     C85038   7.515   0.801   3.446  0.0855  0.1604  0.2004
  617MOL0     O85039   7.536   0.687   3.382  0.2495 -0.0869  0.1857
  617MOL0     C85040   7.649   0.666   3.304  0.0279 -0.4001 -0.1910
  617MOL0     C85041   7.665   0.533   3.266 -0.4267 -0.7818  0.9550
  617MOL0     C85042   7.765   0.492   3.179  0.1824  0.3786  1.1777
  617MOL0     C85043   7.851   0.587   3.121  0.2590 -0.1366 -0.4162
  617MOL0     O85044   7.951   0.558   3.024 -0.3016 -0.1203  0.1837
  617MOL0     C85045   7.909   0.474   2.920 -0.4795  0.3465 -0.0097
  617MOL0     C85046   7.982   0.339   2.894 -0.8934  0.5998 -0.6211
  617MOL0     C85047   7.933   0.286   2.764  0.1886 -0.6821 -0.2171
  617MOL0     C85048   8.027   0.181   2.713  0.1626  0.6250 -0.3724
  617MOL0     C85049   7.979   0.122   2.576  0.3692  0.0278  0.5475
  617MOL0     C85050   7.838   0.054   2.591  0.5559 -0.0149  0.3950
  617MOL0     C85051   7.808  -0.048   2.476 -0.9186  0.8562  0.3064
  617MOL0     C85052   7.795  -0.001   2.325  0.4434  0.5204 -0.2115
  617MOL0    Cl85053   7.652   0.106   2.307 -0.0359 -0.3334 -0.0427
  617MOL0     C85054   7.840   0.719   3.165 -0.6739  0.0426 -0.3439
  617MOL0     C85055   7.744   0.760   3.256 -0.3939  0.5697 -0.0312
  617MOL0     O85056   7.582   0.901   3.430  0.0701  0.3496  0.6020
  617MOL0     C85057   7.380   0.923   3.615  0.2530  0.3857 -0.4636
  617MOL0     C85058   7.263   0.946   3.692 -0.0307  0.3439 -0.1434
  617MOL0     N85059   6.440   0.668   3.918  0.6208  0.4715 -0.8562
  617MOL0     N85060   6.313   0.630   3.944 -0.6784  0.3782  0.4551
  617MOL0     C85061   5.072   0.661   4.328 -0.2165  0.6057  0.2353
  617MOL0     C85062   4.962   0.579   4.332  0.0657 -0.5693  0.6202
  617MOL0     C85063   4.673   0.264   4.199  1.1246 -0.5563  0.7095
  617MOL0     C85064   4.604   0.252   4.322 -0.5130 -0.3934  0.0147
  617MOL0     C85065   4.474   0.198   4.325  0.1030 -0.1144  0.5473
  617MOL0     C85066   4.414   0.148   4.214 -0.0940 -0.3228  0.6095
  617MOL0     O85067   4.286   0.081   4.225 -0.4273 -0.3276 -0.0358
  617MOL0     C85068   4.172   0.149   4.190 -0.1679 -0.4379  0.4173
  617MOL0     C85069   4.129   0.265   4.281 -0.3451 -0.0166 -0.0031
  617MOL0     C85070   4.008   0.220   4.374 -0.1020  0.3736 -0.5206
  617MOL0     C85071   4.041   0.098   4.472  0.6256  0.6855  0.2845
  617MOL0     C85072   4.141   0.118   4.577  0.1307  0.9826 -0.2285
  617MOL0     C85073   4.228   0.152   4.655 -0.0898  0.6300 -0.9959
  617MOL0     C85074   4.477   0.163   4.086  0.5366 -0.1667 -0.3910
  617MOL0     C85075   4.613   0.216   4.079 -0.2969 -0.2082 -0.7806
  617MOL0     C85076   4.671   0.224   3.937  0.2457  0.3721  0.2295
  617MOL0     H85077   5.108   0.269   4.346  0.4203  0.1456 -2.8159
  617MOL0     H85078   5.305   0.413   4.373 -0.3385  0.3732  2.8654
  617MOL0     H85079   5.456   0.528   4.313 -0.8771 -0.4979  2.0485
  617MOL0     H85080   5.458   0.599   4.468 -1.5421  2.5729  0.1033
  617MOL0     H85081   5.522   0.820   4.301 -0.7279 -1.2566 -1.4255
  617MOL0     H85082   5.616   0.743   4.423  0.1218  0.5702 -0.0452
  617MOL0     H85083   5.651   0.554   4.214  0.7768  0.3154 -2.1347
  617MOL0     H85084   5.583   0.682   4.113 -0.9452  0.5582  0.5259
  617MOL0     H85085   5.749   0.842   4.252 -0.0119 -0.6355  1.3675
  617MOL0     H85086   5.848   0.698   4.277  2.7288  2.0172 -1.6190
  617MOL0     H85087   5.761   0.798   4.003 -1.5962  0.9609  1.5782
  617MOL0     H85088   5.832   0.650   4.026  3.2119  0.7936 -0.3689
  617MOL0     H85089   5.963   0.916   4.116 -0.5805 -0.8300  2.5555
  617MOL0     H85090   6.032   0.749   4.117 -1.9840 -0.7122  1.1197
  617MOL0     H85091   6.067   0.939   3.923  1.8287 -1.2076 -1.3686
  617MOL0     H85092   5.928   0.852   3.856 -0.4225  0.1264  0.4245
  617MOL0     H85093   6.079   0.633   3.881 -1.5906  0.8344  0.2701
  617MOL0     H85094   6.122   0.750   3.749  3.1477 -1.3451 -1.0445
  617MOL0     H85095   6.306   0.955   3.914 -1.6176 -0.1009 -1.1666
  617MOL0     H85096   6.638   0.882   3.976  1.1071  1.3889 -0.7857
  617MOL0     H85097   6.558   0.990   3.858  2.3678  0.0731 -1.6724
  617MOL0     H85098   6.682   0.726   3.792  2.5120 -0.2921  0.6882
  617MOL0     H85099   6.649   0.864   3.681 -1.0260  0.9245  0.1275
  617MOL0     H85100   6.849   0.969   3.776 -1.1428  0.1142  0.9829
  617MOL0     H85101   6.835   0.861   3.925  0.9913  1.4037  0.6525
  617MOL0     H85102   6.938   0.689   3.796 -0.1351  0.8750  1.2342
  617MOL0     H85103   6.920   0.768   3.638  1.1557  0.5241  0.0361
  617MOL0     H85104   7.113   0.647   3.627 -1.0332  0.3796  1.3846
  617MOL0     H85105   7.289   0.617   3.343  2.7839 -2.7890 -0.3862
  617MOL0     H85106   7.176   0.555   3.446  1.0242 -1.8066 -2.3544
  617MOL0     H85107   7.348   0.504   3.461  0.4921  1.0835  1.5188
  617MOL0     H85108   7.594   0.453   3.282 -1.6585  0.1895  0.5075
  617MOL0     H85109   7.772   0.388   3.149  0.5643  0.5464  0.6852
  617MOL0     H85110   7.800   0.466   2.923 -0.6394  1.1761 -2.0531
  617MOL0     H85111   7.934   0.520   2.824 -1.4133 -4.6025 -2.9544
  617MOL0     H85112   8.088   0.357   2.878 -1.3468  1.0163 -3.8345
  617MOL0     H85113   7.963   0.268   2.975 -0.4541  2.5456  1.2541
  617MOL0     H85114   7.911   0.364   2.691  2.3061  0.6287  0.4500
  617MOL0     H85115   7.841   0.232   2.785  1.9106 -2.9353  2.1479
  617MOL0     H85116   8.044   0.101   2.785 -0.1327  0.9397  0.0525
  617MOL0     H85117   8.129   0.211   2.689  1.1943 -0.8079  1.8538
  617MOL0     H85118   7.961   0.197   2.498 -0.9429 -1.3207 -0.5033
  617MOL0     H85119   8.057   0.055   2.539  0.3908 -1.0127  2.3413
  617MOL0     H85120   7.761   0.132   2.587 -0.9721 -1.4859 -0.8813
  617MOL0     H85121   7.823   0.009   2.689 -1.1177 -0.1861  0.0968
  617MOL0     H85122   7.707  -0.089   2.486 -1.2135  1.3883 -0.4554
  617MOL0     H85123   7.882  -0.129   2.476 -0.5051  1.1865  1.8570
  617MOL0     H85124   7.777  -0.085   2.257 -2.1445  0.8192  0.0285
  617MOL0     H85125   7.881   0.057   2.289  0.2416  0.0159 -1.5689
  617MOL0     H85126   7.915   0.790   3.131  1.2313 -1.3278  0.7547
  617MOL0     H85127   7.732   0.865   3.281 -2.1310  0.0208  1.7303
  617MOL0     H85128   7.446   1.009   3.608  1.4071 -0.4896 -0.6413
  617MOL0     H85129   7.232   1.037   3.741 -0.3253 -1.2636  2.9040
  617MOL0     H85130   5.069   0.767   4.303  1.1230  0.2718 -1.5800
  617MOL0     H85131   4.865   0.625   4.319  0.2702  0.5809  2.8016
  617MOL0     H85132   4.650   0.281   4.416 -1.5952 -0.0963  0.4705
  617MOL0     H85133   4.406   0.182   4.408 -0.7326 -1.4005 -0.3645
  617MOL0     H85134   4.193   0.201   4.096  0.6071 -1.0752  0.2293
  617MOL0     H85135   4.086   0.084   4.173 -0.4244 -0.3468  1.3074
  617MOL0     H85136   4.092   0.347   4.220  0.3090  0.8661  0.7604
  617MOL0     H85137   4.209   0.311   4.341  2.2484 -1.5820 -2.0243
  617MOL0     H85138   3.977   0.312   4.424 -0.7647  0.9356 -1.8925
  617MOL0     H85139   3.916   0.196   4.320  0.5744  1.7833 -2.4312
  617MOL0     H85140   4.053  -0.000   4.425  0.4099 -0.6088  2.8129
  617MOL0     H85141   3.951   0.068   4.527  1.3727  0.7081  1.5405
  617MOL0     H85142   4.314   0.186   4.710  2.1881 -2.1940 -2.5551
  617MOL0     H85143   4.429   0.133   3.994  3.6900 -1.1464 -1.8661
  617MOL0     H85144   4.703   0.329   3.927 -0.2303  0.7326  2.0729
  617MOL0     H85145   4.757   0.156   3.933 -0.6781 -0.8121  0.3399
  617MOL0     H85146   4.604   0.197   3.855  1.1068 -2.3464  0.3249
  618MOL0     O85147   6.359   6.539   6.071 -0.5642  0.1697 -1.2761
  618MOL0     C85148   6.311   6.646   6.081  0.5550 -0.4501 -0.1126
  618MOL0     O85149   6.377   6.769   6.112 -0.2455 -0.2690 -0.4618
  618MOL0     C85150   6.513   6.764   6.105 -0.7726  0.4165 -0.3599
  618MOL0     C85151   6.577   6.803   6.222  0.2327 -0.8931  0.2549
  618MOL0     C85152   6.715   6.784   6.238  0.4192 -0.7681 -0.9508
  618MOL0     C85153   6.788   6.722   6.139 -0.3247 -0.4422 -0.6264
  618MOL0     O85154   6.926   6.720   6.158 -0.0168  0.0666 -0.5342
  618MOL0     C85155   6.968   6.616   6.251 -0.3783  0.0123  0.9408
  618MOL0     C85156   7.003   6.488   6.171 -0.1260 -0.6157  0.1015
  618MOL0     C85157   7.008   6.371   6.266 -0.3626 -0.1222 -0.2231
  618MOL0     C85158   7.055   6.250   6.178 -0.0069  0.2682  1.0137
  618MOL0     C85159   7.048   6.121   6.258  0.2826 -0.1819 -0.0999
  618MOL0     C85160   7.111   6.008   6.183  0.2775  0.0289 -0.6806
  618MOL0     C85161   7.262   6.025   6.192  0.0123 -0.1556  0.2460
  618MOL0     C85162   7.342   5.917   6.111  0.6093  0.5789  0.1051
  618MOL0     N85163   7.488   5.915   6.139  0.4740  0.2349  0.1625
  618MOL0     C85164   7.574   5.974   6.054 -1.1151 -0.3115  0.6306
  618MOL0     C85165   7.696   5.954   6.120 -0.7886 -0.6457  0.7724
  618MOL0     C85166   7.832   6.002   6.062  0.1513  0.2682 -0.0018
  618MOL0     C85167   7.892   6.128   6.134 -0.2637  0.5305 -0.1711
  618MOL0     C85168   7.995   6.185   6.051 -0.5670  0.1793 -0.2928
  618MOL0     C85169   8.089   6.278   6.129 -0.0173  0.4173 -0.6392
  618MOL0     O85170   8.162   6.200   6.223  0.1664  0.6024  0.0754
  618MOL0     C85171   8.255   6.278   6.286 -0.6966  0.5603  0.2408
  618MOL0     C85172   8.293   6.420   6.273  0.2614  0.1214 -0.1189
  618MOL0     C85173   8.407   6.480   6.338  0.2151  0.2304 -0.6838
  618MOL0     C85174   8.436   6.626   6.290 -1.0026  1.7158  0.5075
  618MOL0     C85175   8.491   6.392   6.415 -0.1644  1.0576  0.2231
  618MOL0     C85176   8.625   6.430   6.461  0.7957  0.0340  1.4009
  618MOL0     O85177   8.640   6.566   6.483  0.1504  1.2266  0.6263
  618MOL0     C85178   8.760   6.622   6.523 -0.3532 -0.2207  1.1923
  618MOL0     C85179   8.837   6.572   6.633  0.7500 -0.3110 -0.1318
  618MOL0     C85180   8.962   6.622   6.668 -0.7560  0.3860 -0.3734
  618MOL0     C85181   9.025   6.707   6.582  0.5425  0.0228  0.0034
  618MOL0     O85182   9.148   6.750   6.616 -0.4077  0.2858  0.7073
  618MOL0     C85183   9.244   6.803   6.526 -0.3220  0.0541 -0.5765
  618MOL0     C85184   9.368   6.830   6.604 -0.3615 -0.4675 -0.1420
  618MOL0     C85185   9.499   6.826   6.524 -0.3288 -0.8367 -0.2004
  618MOL0     C85186   9.548   6.688   6.480 -0.3180 -0.3934 -0.5379
  618MOL0     C85187   9.680   6.699   6.410 -0.5174 -0.0808  0.5261
  618MOL0     C85188   9.689   6.766   6.269 -0.6418  0.8822  0.6659
  618MOL0     C85189   9.830   6.763   6.220 -0.0458  0.0141  0.7282
  618MOL0     C85190   9.876   6.633   6.153 -0.2573 -0.4402 -0.5046
  618MOL0    Cl85191   9.812   6.628   5.985 -0.3128 -0.2496 -0.0754
  618MOL0     C85192   8.950   6.767   6.472  0.7938 -0.2209  0.4517
  618MOL0     C85193   8.826   6.715   6.441  0.2980 -0.6144 -0.2314
  618MOL0     O85194   8.708   6.335   6.471  0.0460 -1.2344 -0.4354
  618MOL0     C85195   8.452   6.254   6.426  0.5389  0.0688  0.3824
  618MOL0     C85196   8.336   6.209   6.375  0.1537 -0.4396 -0.5370
  618MOL0     N85197   7.679   5.898   6.240  0.8335  0.2342  0.5085
  618MOL0     N85198   7.550   5.884   6.253  0.0350  0.5215 -0.2509
  618MOL0     C85199   6.721   6.674   6.019  0.0710 -0.0315 -0.9229
  618MOL0     C85200   6.586   6.696   6.005  0.6728  0.9557 -0.2690
  618MOL0     C85201   6.169   6.666   6.056 -0.5928  0.3196  0.2852
  618MOL0     C85202   6.116   6.642   5.935 -0.0025 -0.3780 -0.4307
  618MOL0     C85203   5.985   6.670   5.897  0.0957  1.0921 -0.2432
  618MOL0     C85204   5.903   6.729   5.992  0.2893 -0.7425 -0.3495
  618MOL0     O85205   5.770   6.769   5.964 -0.4972  0.1498  0.4343
  618MOL0     C85206   5.703   6.719   5.846 -0.1243  0.3255  0.3392
  618MOL0     C85207   5.674   6.573   5.876  0.7027 -0.1371 -0.8936
  618MOL0     C85208   5.605   6.484   5.771 -0.6757  0.7363  0.7972
  618MOL0     C85209   5.496   6.564   5.715 -1.3141  0.0612  0.3915
  618MOL0     C85210   5.393   6.606   5.805 -0.6019  0.9843  0.0943
  618MOL0     C85211   5.290   6.635   5.870  0.7033  0.0911  0.0934
  618MOL0     C85212   5.956   6.768   6.118 -0.0527  0.6130 -0.4237
  618MOL0     C85213   6.086   6.729   6.148 -0.0222  0.0815  0.6783
  618MOL0     C85214   6.129   6.757   6.296 -0.0464 -0.6738 -0.3556
  618MOL0     H85215   6.533   6.858   6.305  0.9736  0.4498 -0.1960
  618MOL0     H85216   6.769   6.825   6.322 -0.9095 -0.0090 -0.4247
  618MOL0     H85217   6.892   6.599   6.328 -0.8485 -1.1174  0.2475
  618MOL0     H85218   7.042   6.662   6.318 -0.6766  0.4956  0.9383
  618MOL0     H85219   6.935   6.492   6.085  0.3831  1.4046 -0.2558
  618MOL0     H85220   7.104   6.507   6.133 -1.3434  1.8206 -2.3187
  618MOL0     H85221   7.079   6.380   6.348  0.4425 -3.8132 -0.3566
  618MOL0     H85222   6.914   6.339   6.312  0.7588 -2.7718  0.3876
  618MOL0     H85223   6.969   6.250   6.110  0.5053  2.7483  0.2627
  618MOL0     H85224   7.142   6.269   6.114 -1.0712 -1.6990 -1.1314
  618MOL0     H85225   6.945   6.088   6.274 -0.6017  0.2018 -3.9358
  618MOL0     H85226   7.092   6.134   6.357  0.3269 -0.2882 -0.1056
  618MOL0     H85227   7.089   5.907   6.218 -1.1085  0.1956 -0.9957
  618MOL0     H85228   7.077   6.014   6.079  1.5955 -2.2581 -1.3099
  618MOL0     H85229   7.287   6.015   6.298 -1.8045  0.9559  0.8233
  618MOL0     H85230   7.304   6.122   6.166  0.8141 -0.5588 -0.0264
  618MOL0     H85231   7.306   5.822   6.151  1.2651 -1.4015 -3.5058
  618MOL0     H85232   7.322   5.918   6.003  2.0671 -1.6350 -0.2580
  618MOL0     H85233   7.572   6.031   5.962 -2.0708 -0.5138  0.5197
  618MOL0     H85234   7.828   6.024   5.955  3.4025 -1.3266 -0.5973
  618MOL0     H85235   7.904   5.919   6.068  2.1753  1.5355 -3.7196
  618MOL0     H85236   7.821   6.205   6.166  1.4407  2.2809 -0.4450
  618MOL0     H85237   7.934   6.086   6.226  0.1177 -3.7838 -2.0863
  618MOL0     H85238   8.053   6.108   5.999 -4.2459 -1.6101 -2.1345
  618MOL0     H85239   7.949   6.230   5.962  2.8749 -0.6669 -2.6908
  618MOL0     H85240   8.166   6.323   6.067  0.6744 -0.7568 -0.6621
  618MOL0     H85241   8.038   6.365   6.172  1.5869  0.3340  1.5829
  618MOL0     H85242   8.236   6.485   6.207  0.2135  0.2814  0.0790
  618MOL0     H85243   8.447   6.693   6.376  0.3978 -1.5183  3.0811
  618MOL0     H85244   8.369   6.668   6.215 -1.4530 -0.4062 -0.3574
  618MOL0     H85245   8.537   6.629   6.249 -2.0612 -1.2522 -2.8353
  618MOL0     H85246   8.789   6.493   6.690 -0.7454  1.5212  1.2578
  618MOL0     H85247   9.014   6.584   6.755  1.7283 -2.2920 -2.8235
  618MOL0     H85248   9.271   6.724   6.456 -3.6063 -2.1538  0.4034
  618MOL0     H85249   9.203   6.893   6.480 -1.2090 -1.2695 -2.5282
  618MOL0     H85250   9.361   6.928   6.651  2.4094  0.7418 -2.0079
  618MOL0     H85251   9.371   6.756   6.685  0.2933  0.9701  1.1890
  618MOL0     H85252   9.584   6.858   6.585  1.2824 -2.4724 -1.4774
  618MOL0     H85253   9.500   6.892   6.437 -0.2260 -2.5797 -1.5765
  618MOL0     H85254   9.475   6.649   6.409 -2.2558 -0.1818  1.2180
  618MOL0     H85255   9.558   6.618   6.563 -3.8319 -1.4709 -0.8457
  618MOL0     H85256   9.747   6.741   6.485 -3.4548  1.5519  2.4166
  618MOL0     H85257   9.699   6.592   6.397 -3.6644 -0.4882 -1.6667
  618MOL0     H85258   9.663   6.871   6.280 -0.2433  1.0775 -0.1961
  618MOL0     H85259   9.624   6.712   6.200  2.3613 -2.6353  0.2351
  618MOL0     H85260   9.900   6.777   6.303 -0.6402  1.8077  0.9714
  618MOL0     H85261   9.848   6.853   6.161  0.1602  1.2098  2.5243
  618MOL0     H85262   9.851   6.547   6.217 -2.4177  0.9401  0.6257
  618MOL0     H85263   9.985   6.623   6.145  0.5691  0.7435  4.8419
  618MOL0     H85264   8.999   6.836   6.403  2.9962 -0.9744  1.1752
  618MOL0     H85265   8.781   6.747   6.347  0.8595 -0.5135 -0.4749
  618MOL0     H85266   8.521   6.181   6.469  2.9680 -0.1745 -3.4028
  618MOL0     H85267   8.312   6.104   6.380  0.2404 -0.5661 -2.2697
  618MOL0     H85268   6.773   6.608   5.950 -1.3414  0.9857 -3.0678
  618MOL0     H85269   6.533   6.658   5.919 -2.2673 -3.3065  2.9580
  618MOL0     H85270   6.178   6.587   5.864  1.8706 -1.2364  1.7589
  618MOL0     H85271   5.959   6.645   5.794  0.9264  1.2217 -0.4920
  618MOL0     H85272   5.612   6.779   5.837 -0.0901  0.5091  1.1130
  618MOL0     H85273   5.761   6.737   5.755  1.6883  0.9744  1.5468
  618MOL0     H85274   5.618   6.577   5.970  0.2011  2.0971 -1.2513
  618MOL0     H85275   5.764   6.512   5.891  1.7789  0.9424 -2.6750
  618MOL0     H85276   5.670   6.459   5.686  0.8933  1.8707  1.6146
  618MOL0     H85277   5.556   6.396   5.813  1.6917 -2.3029 -2.2423
  618MOL0     H85278   5.442   6.494   5.649 -1.7386  1.9668 -1.3894
  618MOL0     H85279   5.542   6.644   5.657  0.1988  2.3680  4.3860
  618MOL0     H85280   5.213   6.668   5.937  2.2243  2.4155  0.8114
  618MOL0     H85281   5.908   6.827   6.195 -1.8175  1.6289 -2.2093
  618MOL0     H85282   6.193   6.845   6.312  0.3305 -1.1854  1.0980
  618MOL0     H85283   6.050   6.758   6.372  0.5292 -0.8754  0.2570
  618MOL0     H85284   6.187   6.679   6.346  2.4774  1.8276  0.8820
  619MOL0     O85285  10.276   8.227   2.378 -0.3719  0.2279  0.5152
  619MOL0     C85286  10.192   8.225   2.472 -0.8412 -0.4437  0.4589
  619MOL0     O85287  10.228   8.196   2.603  0.6395  0.2250 -0.1339
  619MOL0     C85288  10.365   8.180   2.632  0.7561  0.4906 -0.6716
  619MOL0     C85289  10.454   8.088   2.567 -0.5713  0.0969 -0.1833
  619MOL0     C85290  10.592   8.085   2.607 -0.5550 -0.9907  0.2038
  619MOL0     C85291  10.643   8.174   2.708  0.1154  0.6997  0.4670
  619MOL0     O85292  10.774   8.189   2.740 -0.0976  0.9439 -0.8433
  619MOL0     C85293  10.862   8.074   2.720 -0.0378 -0.3707 -0.2214
  619MOL0     C85294  11.003   8.105   2.750  0.2094  0.4871 -0.2354
  619MOL0     C85295  11.037   8.067   2.898 -0.1272  0.5309 -0.8788
  619MOL0     C85296  10.967   8.145   3.004 -0.1417  0.3209 -0.7483
  619MOL0     C85297  11.050   8.170   3.132 -0.6350  1.0992  0.0923
  619MOL0     C85298  11.089   8.051   3.219 -0.0782  0.3493  0.3205
  619MOL0     C85299  11.198   8.087   3.316  0.5262  0.2915  0.2605
  619MOL0     C85300  11.228   7.955   3.399 -0.3891 -0.3907  0.6094
  619MOL0     N85301  11.367   7.974   3.447 -0.1885  0.5720  0.0773
  619MOL0     C85302  11.473   7.951   3.360  0.4681  0.5490  0.8125
  619MOL0     C85303  11.577   7.930   3.450 -0.0293  0.4347  0.5093
  619MOL0     C85304  11.718   7.905   3.407  0.4206  0.7559  0.2431
  619MOL0     C85305  11.826   7.870   3.518  0.9027  0.0109  0.1335
  619MOL0     C85306  11.975   7.833   3.460  0.1167 -0.3298 -0.1540
  619MOL0     C85307  12.079   7.788   3.572  0.6991  0.0534  0.5060
  619MOL0     O85308  12.081   7.891   3.676 -0.4657  0.6834  0.7813
  619MOL0     C85309  12.174   7.984   3.678 -0.1075 -0.1400 -0.1348
  619MOL0     C85310  12.172   8.060   3.782 -0.2172  0.6431 -0.0730
  619MOL0     C85311  12.262   8.171   3.803 -0.0034 -0.6365 -1.0049
  619MOL0     C85312  12.252   8.244   3.943  0.0454 -0.2508  0.7419
  619MOL0     C85313  12.360   8.204   3.706  0.6573  0.3770  0.3196
  619MOL0     C85314  12.450   8.321   3.697  0.5626  0.1625 -0.3270
  619MOL0     O85315  12.540   8.315   3.592  0.4858  0.1332  0.1920
  619MOL0     C85316  12.621   8.426   3.566 -0.5341 -0.0304 -0.4506
  619MOL0     C85317  12.766   8.419   3.550  0.0681 -0.3238 -0.0574
  619MOL0     C85318  12.838   8.537   3.529  0.4752  1.5921 -0.4419
  619MOL0     C85319  12.773   8.662   3.534  0.8183  0.1516  1.1496
  619MOL0     O85320  12.842   8.781   3.525  0.4931 -0.5479 -0.0706
  619MOL0     C85321  12.964   8.770   3.456  0.0894 -0.9980  0.4892
  619MOL0     C85322  13.041   8.907   3.451  0.2191 -0.3094 -0.1673
  619MOL0     C85323  13.186   8.880   3.418 -0.0442 -0.6494  0.0673
  619MOL0     C85324  13.244   8.954   3.294 -0.1741  0.1714 -0.3522
  619MOL0     C85325  13.391   8.939   3.253  0.5990  0.0683  0.4550
  619MOL0     C85326  13.487   9.005   3.344 -0.1880  0.5177  0.1922
  619MOL0     C85327  13.628   8.996   3.283  0.3889 -0.3274 -0.1327
  619MOL0     C85328  13.731   9.053   3.376 -0.3860 -0.1053 -0.4643
  619MOL0    Cl85329  13.734   9.233   3.370  0.2028  0.7243  0.0062
  619MOL0     C85330  12.634   8.670   3.537 -0.7090 -0.3757  0.1870
  619MOL0     C85331  12.558   8.558   3.551 -0.1339  1.3666 -0.3809
  619MOL0     O85332  12.445   8.416   3.777 -0.0118 -1.2038  0.0521
  619MOL0     C85333  12.357   8.116   3.592 -0.0052 -0.2223  0.7547
  619MOL0     C85334  12.265   8.004   3.572 -0.2642  0.5165 -0.2047
  619MOL0     N85335  11.531   7.956   3.579  0.7541 -0.8789 -0.3358
  619MOL0     N85336  11.408   7.993   3.579 -0.3955  0.3832  0.1427
  619MOL0     C85337  10.548   8.256   2.770  0.1940  0.3129  0.0575
  619MOL0     C85338  10.412   8.257   2.738  0.1322 -0.1282 -0.2702
  619MOL0     C85339  10.047   8.259   2.427 -0.2397  0.2281 -0.3453
  619MOL0     C85340   9.947   8.209   2.512  0.4782  0.3208 -0.7203
  619MOL0     C85341   9.806   8.229   2.499 -0.4358  0.6247 -0.7755
  619MOL0     C85342   9.760   8.292   2.387  0.8749 -0.1482  0.7094
  619MOL0     O85343   9.632   8.297   2.346 -0.3672  0.4063  0.1800
  619MOL0     C85344   9.542   8.198   2.397  0.7502  0.1442  0.2240
  619MOL0     C85345   9.478   8.240   2.530 -0.1309 -0.1478  0.1586
  619MOL0     C85346   9.441   8.118   2.618  0.0100 -0.2568  0.4897
  619MOL0     C85347   9.323   8.044   2.570 -0.1522  0.0650 -0.2288
  619MOL0     C85348   9.209   8.136   2.543 -0.1829 -0.3156 -0.2195
  619MOL0     C85349   9.114   8.211   2.532 -0.5590  0.2520  0.6843
  619MOL0     C85350   9.858   8.346   2.300 -0.4632 -0.2843  0.5724
  619MOL0     C85351   9.997   8.334   2.315 -0.3427  1.2731  0.6317
  619MOL0     C85352  10.095   8.406   2.226 -0.6368 -1.0565  0.3997
  619MOL0     H85353  10.411   8.018   2.497  0.6537 -1.7051  0.7883
  619MOL0     H85354  10.656   8.031   2.538 -1.4274  0.5055 -1.8960
  619MOL0     H85355  10.858   8.051   2.613  0.5729  0.4757 -0.4354
  619MOL0     H85356  10.838   7.985   2.778 -4.7008  1.3318  0.8541
  619MOL0     H85357  11.061   8.045   2.680 -3.0140 -1.6967 -1.2445
  619MOL0     H85358  11.027   8.209   2.724 -0.2820  0.3183 -1.4222
  619MOL0     H85359  11.002   7.965   2.914 -0.0781  0.5624 -0.5514
  619MOL0     H85360  11.144   8.051   2.919 -0.7447 -1.2922  1.2723
  619MOL0     H85361  10.930   8.243   2.974  3.4998  2.0913 -0.0466
  619MOL0     H85362  10.882   8.089   3.042  1.6253 -1.7355  0.4472
  619MOL0     H85363  10.994   8.246   3.188 -0.9173  0.3028  0.9221
  619MOL0     H85364  11.148   8.207   3.102  0.5033 -1.7420  0.0297
  619MOL0     H85365  11.008   8.020   3.286 -1.6628  2.5161 -0.4517
  619MOL0     H85366  11.105   7.971   3.147 -3.4198  1.2098 -1.6246
  619MOL0     H85367  11.163   8.162   3.388  1.9573  0.2661  1.0046
  619MOL0     H85368  11.290   8.123   3.270 -0.3619  0.4240 -1.5318
  619MOL0     H85369  11.157   7.931   3.479  0.9334 -1.4727  1.5040
  619MOL0     H85370  11.233   7.872   3.328  1.1495  1.0627 -1.0816
  619MOL0     H85371  11.474   7.958   3.252  0.1491  0.4163  0.7987
  619MOL0     H85372  11.740   7.995   3.349  2.0913  0.3498  0.2093
  619MOL0     H85373  11.720   7.814   3.347  2.3574 -0.2276  1.6752
  619MOL0     H85374  11.819   7.956   3.584 -0.8777 -0.8551  1.1429
  619MOL0     H85375  11.793   7.787   3.581  1.3060  1.8590  2.9809
  619MOL0     H85376  11.970   7.743   3.398 -1.5415 -0.8249  0.6417
  619MOL0     H85377  12.012   7.913   3.396  0.0207  0.6769  1.0051
  619MOL0     H85378  12.042   7.695   3.615  1.0593 -0.8323 -1.0266
  619MOL0     H85379  12.174   7.761   3.524  0.4052 -0.3897  0.1648
  619MOL0     H85380  12.097   8.041   3.858 -1.0841 -0.7818 -1.2457
  619MOL0     H85381  12.191   8.187   4.013  1.4743 -0.2092  2.0979
  619MOL0     H85382  12.209   8.345   3.939  0.1576 -0.2200 -3.2350
  619MOL0     H85383  12.349   8.246   3.995 -0.6655 -0.7080  2.1313
  619MOL0     H85384  12.823   8.327   3.552 -1.0767 -1.0517 -0.2814
  619MOL0     H85385  12.944   8.522   3.508 -0.0006 -0.9710 -1.4356
  619MOL0     H85386  13.031   8.707   3.515  0.3583 -1.4495 -0.2728
  619MOL0     H85387  12.953   8.730   3.354 -0.5425  0.6242 -0.1031
  619MOL0     H85388  13.005   8.978   3.376  3.4569  1.5169 -0.1616
  619MOL0     H85389  13.032   8.958   3.548  2.8624 -0.7841  0.3897
  619MOL0     H85390  13.205   8.774   3.398 -2.9663 -1.2541 -0.0462
  619MOL0     H85391  13.240   8.919   3.504 -1.0209  1.1829 -0.1101
  619MOL0     H85392  13.221   9.060   3.311 -1.5366  0.0076 -1.0474
  619MOL0     H85393  13.190   8.922   3.204  1.6403  0.7503 -1.7038
  619MOL0     H85394  13.409   8.833   3.233 -4.0062 -0.5462 -1.7155
  619MOL0     H85395  13.402   8.991   3.157  1.5730 -0.7898  0.0919
  619MOL0     H85396  13.491   8.955   3.441  0.6364 -0.2335 -0.2128
  619MOL0     H85397  13.458   9.110   3.353  1.0703  0.7089  2.8618
  619MOL0     H85398  13.635   9.041   3.183 -1.3896  2.6591  0.9694
  619MOL0     H85399  13.639   8.888   3.269  0.8491 -0.0114 -2.8599
  619MOL0     H85400  13.830   9.015   3.349  1.5297  2.8739  1.5890
  619MOL0     H85401  13.720   9.019   3.480 -0.1435  1.2020  0.0164
  619MOL0     H85402  12.596   8.771   3.526  1.0476  0.4866  1.4699
  619MOL0     H85403  12.449   8.567   3.553 -0.0454  2.4739  0.2844
  619MOL0     H85404  12.424   8.138   3.510 -0.9733 -0.9734 -0.2755
  619MOL0     H85405  12.258   7.945   3.481 -2.6141  0.9784 -0.3918
  619MOL0     H85406  10.583   8.320   2.850  0.4716  1.5262 -0.9972
  619MOL0     H85407  10.354   8.337   2.783 -0.0243  0.2046 -1.0623
  619MOL0     H85408   9.972   8.156   2.603 -3.1623 -1.1209 -0.3934
  619MOL0     H85409   9.741   8.166   2.559 -0.3046  0.3033 -0.9697
  619MOL0     H85410   9.461   8.183   2.325  1.2045 -2.5321  0.1632
  619MOL0     H85411   9.580   8.096   2.411 -0.5847 -0.3446  0.4301
  619MOL0     H85412   9.394   8.304   2.502 -3.6986 -4.7600 -0.9871
  619MOL0     H85413   9.547   8.298   2.592 -1.0489 -2.0546  3.1760
  619MOL0     H85414   9.521   8.043   2.625  0.3631  0.0902  0.2479
  619MOL0     H85415   9.415   8.156   2.717 -0.7911  0.5295 -0.0102
  619MOL0     H85416   9.295   7.966   2.642 -0.5798  2.5083  2.4606
  619MOL0     H85417   9.344   7.995   2.474  0.1226 -2.6156  1.1048
  619MOL0     H85418   9.027   8.271   2.517  0.0458  0.9575 -0.0758
  619MOL0     H85419   9.826   8.399   2.210 -1.0274 -1.2775  0.1653
  619MOL0     H85420  10.178   8.347   2.188 -0.5368 -0.2842 -0.6289
  619MOL0     H85421  10.028   8.451   2.152 -0.6581  0.6423  1.3806
  619MOL0     H85422  10.134   8.488   2.288  3.1300 -2.1821 -0.2917
  620MOL0     O85423   6.903   9.992   9.426 -0.1051  0.7360 -0.0613
  620MOL0     C85424   6.955   9.885   9.462 -0.5558  0.0877  0.4856
  620MOL0     O85425   6.957   9.840   9.589  0.7856 -0.6509 -0.0685
  620MOL0     C85426   6.899   9.920   9.688  0.3759  0.2892 -0.1652
  620MOL0     C85427   6.760   9.946   9.690 -0.2606  0.0436 -0.7254
  620MOL0     C85428   6.701  10.021   9.798 -0.0212 -0.0052 -0.0184
  620MOL0     C85429   6.781  10.086   9.892 -0.9387 -0.0058 -0.2972
  620MOL0     O85430   6.745  10.157  10.005  0.0042  0.4082 -0.1804
  620MOL0     C85431   6.608  10.188  10.025  0.0027  0.1907 -0.5206
  620MOL0     C85432   6.602  10.292  10.134  0.0284  0.3200 -0.6227
  620MOL0     C85433   6.458  10.315  10.177  0.0388 -0.4503  0.5205
  620MOL0     C85434   6.444  10.436  10.265 -0.1071 -0.3026 -0.6076
  620MOL0     C85435   6.302  10.494  10.278 -0.3887  0.2175 -0.4116
  620MOL0     C85436   6.201  10.399  10.344  0.7856  0.5686  0.2638
  620MOL0     C85437   6.062  10.450  10.375 -0.2186  0.0331 -0.1481
  620MOL0     C85438   6.041  10.556  10.487 -0.1448  0.3087 -0.5453
  620MOL0     N85439   6.104  10.514  10.611  0.0129  0.0789 -0.1590
  620MOL0     C85440   6.235  10.529  10.654 -0.2731 -0.1219  0.0789
  620MOL0     C85441   6.237  10.478  10.780  0.5788  0.1490  0.5484
  620MOL0     C85442   6.357  10.478  10.869  0.4397 -0.6418  0.5390
  620MOL0     C85443   6.347  10.601  10.967 -0.4774 -0.7040 -0.4279
  620MOL0     C85444   6.437  10.608  11.087  0.2167 -0.0089  0.4942
  620MOL0     C85445   6.393  10.725  11.184 -0.2004  0.6846  0.0603
  620MOL0     O85446   6.438  10.849  11.129  0.5841 -0.9258  0.0354
  620MOL0     C85447   6.564  10.884  11.158  0.3249  0.3427 -0.3487
  620MOL0     C85448   6.592  10.933  11.290 -0.3880 -0.5384 -0.9181
  620MOL0     C85449   6.721  10.969  11.322  0.2149 -0.4221  0.1898
  620MOL0     C85450   6.765  11.015  11.459  0.4036  0.5708 -0.5529
  620MOL0     C85451   6.816  10.975  11.216  0.7053 -0.2440 -1.1626
  620MOL0     C85452   6.961  11.016  11.231  0.4619  0.0336 -0.0064
  620MOL0     O85453   7.021  11.073  11.122 -0.2161  0.0436 -0.5751
  620MOL0     C85454   7.155  11.086  11.120 -0.1445 -0.7295  0.2855
  620MOL0     C85455   7.239  10.978  11.119  0.2093  0.2776  0.0329
  620MOL0     C85456   7.373  10.995  11.097 -0.4798 -0.5518  0.7062
  620MOL0     C85457   7.424  11.128  11.072  0.0758  0.5588 -0.5875
  620MOL0     O85458   7.559  11.126  11.045 -0.3107  0.6836  0.4044
  620MOL0     C85459   7.632  11.233  11.090  0.4627  0.2269  0.2909
  620MOL0     C85460   7.781  11.217  11.084 -0.2291  1.1948 -0.0713
  620MOL0     C85461   7.858  11.138  11.194  0.5485 -0.4475  0.6398
  620MOL0     C85462   7.830  10.986  11.172  0.5281 -0.4016  0.1660
  620MOL0     C85463   7.921  10.913  11.267  0.6009  0.7973  0.9745
  620MOL0     C85464   7.895  10.758  11.261 -0.3316 -0.8911 -0.4702
  620MOL0     C85465   7.955  10.679  11.142 -0.0324  0.4449  0.4280
  620MOL0     C85466   8.053  10.570  11.192  0.1499  0.0875  0.1468
  620MOL0    Cl85467   8.162  10.552  11.047 -0.0211 -0.1968  0.4794
  620MOL0     C85468   7.344  11.236  11.069 -1.0174  0.1390 -0.5649
  620MOL0     C85469   7.205  11.222  11.088  0.8984  0.5879 -0.1714
  620MOL0     O85470   7.021  10.963  11.329  0.2326  0.7606  0.6970
  620MOL0     C85471   6.791  10.916  11.096  0.1189  0.3025 -0.3798
  620MOL0     C85472   6.668  10.859  11.068 -0.0124  0.4006 -0.6029
  620MOL0     N85473   6.119  10.409  10.801 -0.0978  0.4531 -0.4449
  620MOL0     N85474   6.041  10.432  10.697  0.1849  0.6273  0.8023
  620MOL0     C85475   6.919  10.062   9.887  0.3282  0.2968 -0.5382
  620MOL0     C85476   6.977   9.981   9.793 -0.5258 -0.6052 -0.3873
  620MOL0     C85477   7.023   9.798   9.357  0.8926 -0.5060  0.0751
  620MOL0     C85478   7.044   9.658   9.402  0.9929 -0.6803  0.1029
  620MOL0     C85479   7.110   9.573   9.319  1.5545 -0.2099 -0.2809
  620MOL0     C85480   7.173   9.615   9.206  0.7605 -0.4817 -0.1781
  620MOL0     O85481   7.253   9.515   9.148 -0.5924 -0.0955  0.1183
  620MOL0     C85482   7.329   9.556   9.037 -0.0144  0.3717  0.0559
  620MOL0     C85483   7.449   9.459   9.019  0.2412 -0.5409 -0.8421
  620MOL0     C85484   7.396   9.314   8.985 -0.2586 -0.8612  0.8469
  620MOL0     C85485   7.496   9.236   8.888 -0.8369  0.0211  0.0896
  620MOL0     C85486   7.499   9.091   8.911  0.0563  0.0334  0.1865
  620MOL0     C85487   7.516   8.971   8.937  0.0418 -0.2445  0.2591
  620MOL0     C85488   7.147   9.745   9.164  0.3663 -0.1123  0.0788
  620MOL0     C85489   7.085   9.843   9.240 -0.1730  0.3918  0.8171
  620MOL0     C85490   7.093   9.989   9.209 -0.2416  0.0356 -0.5808
  620MOL0     H85491   6.697   9.900   9.615  0.5188 -1.1716 -0.6621
  620MOL0     H85492   6.593  10.038   9.803  0.3514  4.2667 -2.0323
  620MOL0     H85493   6.562  10.092  10.049  2.0541 -0.1919  2.4828
  620MOL0     H85494   6.555  10.223   9.936 -0.7265  1.7784  0.4921
  620MOL0     H85495   6.663  10.261  10.220 -1.3991  2.9506  1.5218
  620MOL0     H85496   6.648  10.383  10.094  1.3316 -0.6298 -1.3420
  620MOL0     H85497   6.403  10.326  10.083  3.1580 -3.6770 -1.9614
  620MOL0     H85498   6.430  10.228  10.237 -0.7490 -1.5428 -1.3836
  620MOL0     H85499   6.482  10.407  10.364 -2.6124 -1.1587  0.1660
  620MOL0     H85500   6.506  10.513  10.218  2.8063 -0.1667  2.9476
  620MOL0     H85501   6.266  10.517  10.177 -3.9527  0.5798  0.7920
  620MOL0     H85502   6.310  10.588  10.334  0.9772 -1.0408  1.6314
  620MOL0     H85503   6.181  10.311  10.283 -0.5666 -0.9376  2.7177
  620MOL0     H85504   6.233  10.355  10.439  1.3588 -0.5881 -0.4425
  620MOL0     H85505   5.991  10.374  10.411 -0.4783  1.2617  2.0700
  620MOL0     H85506   6.015  10.487  10.283 -1.1333 -1.9088 -0.5366
  620MOL0     H85507   6.094  10.649  10.464 -1.2186  1.3548  0.9472
  620MOL0     H85508   5.940  10.598  10.492  0.0712  0.7589  0.3187
  620MOL0     H85509   6.321  10.575  10.607 -1.6822  0.8102 -1.6973
  620MOL0     H85510   6.449  10.493  10.812 -0.1654 -0.4087 -0.4036
  620MOL0     H85511   6.355  10.381  10.919 -0.6915 -1.3579 -0.8120
  620MOL0     H85512   6.367  10.691  10.910  3.1512 -0.0584  1.5198
  620MOL0     H85513   6.243  10.607  11.000  0.1584 -0.1713  1.6253
  620MOL0     H85514   6.428  10.518  11.149  1.5440 -0.2490  0.3686
  620MOL0     H85515   6.536  10.622  11.044  0.4701 -0.5069  0.9122
  620MOL0     H85516   6.285  10.719  11.197  0.0100 -0.0002  1.8328
  620MOL0     H85517   6.433  10.719  11.286  0.7691 -1.1818 -0.3791
  620MOL0     H85518   6.512  10.941  11.362 -0.2364 -3.7890 -0.2620
  620MOL0     H85519   6.843  10.943  11.487 -0.8734 -0.7028 -0.1944
  620MOL0     H85520   6.686  11.017  11.534  0.9946  0.8186  0.0775
  620MOL0     H85521   6.811  11.114  11.465 -0.5472  0.9208  1.8492
  620MOL0     H85522   7.185  10.886  11.138 -4.0587  2.3512 -0.8078
  620MOL0     H85523   7.444  10.915  11.115 -0.7318 -1.2359 -1.0511
  620MOL0     H85524   7.610  11.313  11.019 -0.4501  0.1167  0.4315
  620MOL0     H85525   7.593  11.264  11.188 -1.2173 -2.5825  0.6312
  620MOL0     H85526   7.815  11.176  10.989  3.6065  0.9022  1.2811
  620MOL0     H85527   7.821  11.319  11.081 -0.2528  1.2074  0.0347
  620MOL0     H85528   7.834  11.174  11.294 -0.6437  1.5213 -0.2911
  620MOL0     H85529   7.965  11.155  11.181  0.2665 -0.2029 -1.8639
  620MOL0     H85530   7.866  10.956  11.073  1.5746  0.6440  0.2070
  620MOL0     H85531   7.724  10.962  11.181 -0.0138  0.4521 -2.8392
  620MOL0     H85532   8.024  10.908  11.230  0.5569 -2.2675  0.9790
  620MOL0     H85533   7.916  10.958  11.366 -0.8798  0.6431  0.9872
  620MOL0     H85534   7.789  10.735  11.253 -0.6627  0.5629 -0.4720
  620MOL0     H85535   7.935  10.723  11.357  0.4705  1.1734  0.0031
  620MOL0     H85536   8.018  10.743  11.080  1.8710 -2.2973 -0.6307
  620MOL0     H85537   7.876  10.640  11.076 -0.1411  1.0687  0.1801
  620MOL0     H85538   7.998  10.477  11.213  1.9058 -1.0364 -0.0360
  620MOL0     H85539   8.107  10.601  11.282 -1.4863 -0.4325  1.3616
  620MOL0     H85540   7.388  11.335  11.059 -0.7037  0.3513  2.1998
  620MOL0     H85541   7.134  11.302  11.073 -0.4026 -0.5721 -0.4691
  620MOL0     H85542   6.871  10.901  11.024  1.4529  2.6059  0.5520
  620MOL0     H85543   6.650  10.809  10.974  1.0959  1.5400 -1.4562
  620MOL0     H85544   6.987  10.108   9.958 -0.0451  0.7324 -0.4615
  620MOL0     H85545   7.085   9.969   9.792 -0.5831 -1.2807 -2.0436
  620MOL0     H85546   7.001   9.626   9.496 -2.1865 -0.6840 -1.2297
  620MOL0     H85547   7.128   9.475   9.362  0.2846  0.8260  2.8811
  620MOL0     H85548   7.267   9.564   8.947 -0.3964 -1.3287  0.1328
  620MOL0     H85549   7.378   9.652   9.057  1.3879 -0.2663 -0.1635
  620MOL0     H85550   7.510   9.455   9.110  0.9807  2.1291 -1.1099
  620MOL0     H85551   7.518   9.497   8.943  0.9080 -1.9638 -0.9807
  620MOL0     H85552   7.384   9.268   9.084  2.6013  2.3493  2.9006
  620MOL0     H85553   7.296   9.312   8.940  0.4207  0.9563 -0.8669
  620MOL0     H85554   7.597   9.270   8.911  0.1234 -0.6403 -2.7444
  620MOL0     H85555   7.472   9.252   8.783 -1.4324 -1.1083  0.0342
  620MOL0     H85556   7.527   8.866   8.958 -2.4360 -0.6020  0.1531
  620MOL0     H85557   7.191   9.768   9.068 -1.2912  1.6974 -0.2987
  620MOL0     H85558   7.121  10.049   9.296 -1.0329 -0.9678  0.4061
  620MOL0     H85559   7.179   9.993   9.141 -1.8516  0.0240 -2.7132
  620MOL0     H85560   7.001  10.030   9.168  0.6221  1.6615 -0.9689
  621MOL0     O85561   1.763   4.902   9.930  0.3554 -0.5381 -0.1966
  621MOL0     C85562   1.725   5.008   9.988 -0.1136  0.2817 -1.0659
  621MOL0     O85563   1.802   5.078  10.082 -0.0352  1.0124 -0.5288
  621MOL0     C85564   1.928   5.027  10.117  0.3658  0.9053  0.5228
  621MOL0     C85565   1.949   5.026  10.255 -0.2624  0.4618 -0.5755
  621MOL0     C85566   2.072   4.974  10.299 -0.3185 -0.7936  0.4765
  621MOL0     C85567   2.177   4.929  10.219 -0.3782 -0.0294 -0.5534
  621MOL0     O85568   2.306   4.886  10.275 -0.1922 -0.1234  0.2724
  621MOL0     C85569   2.417   4.862  10.182 -0.4236 -0.6389 -0.2378
  621MOL0     C85570   2.543   4.810  10.253  0.1133 -0.5647 -0.0015
  621MOL0     C85571   2.622   4.925  10.314  0.6819  0.9620  0.5062
  621MOL0     C85572   2.732   4.865  10.394 -0.1653 -0.2774  0.9805
  621MOL0     C85573   2.832   4.781  10.317 -0.8932 -0.4756 -0.0535
  621MOL0     C85574   2.962   4.746  10.405  0.7217 -0.2190  0.5284
  621MOL0     C85575   3.061   4.650  10.333  0.7892  0.2705  0.4198
  621MOL0     C85576   3.126   4.706  10.202  0.1577 -1.1760  0.1834
  621MOL0     N85577   3.258   4.641  10.166  0.1757  0.0727 -0.2666
  621MOL0     C85578   3.353   4.590  10.258  0.4606 -0.3854 -0.2209
  621MOL0     C85579   3.464   4.583  10.179 -0.6720 -0.6764  0.0776
  621MOL0     C85580   3.604   4.543  10.222  0.3296 -0.6834  0.1288
  621MOL0     C85581   3.718   4.592  10.149 -0.1524 -0.2384 -0.2820
  621MOL0     C85582   3.852   4.583  10.229  0.2965 -0.0409  0.6973
  621MOL0     C85583   3.866   4.691  10.338 -0.0169 -0.0414 -1.1708
  621MOL0     O85584   3.907   4.815  10.291  0.3521  0.1798  0.3476
  621MOL0     C85585   4.034   4.860  10.294  0.0855  0.1230 -0.3933
  621MOL0     C85586   4.056   4.999  10.290  0.6590  0.0808 -0.6385
  621MOL0     C85587   4.183   5.057  10.326 -0.6669  0.2258  0.6854
  621MOL0     C85588   4.186   5.205  10.320  0.1199 -0.5220  0.2795
  621MOL0     C85589   4.300   4.973  10.353  0.0779 -0.4279 -0.6178
  621MOL0     C85590   4.441   5.027  10.396  0.3003  0.5877 -0.6221
  621MOL0     O85591   4.534   4.928  10.437  0.1508  0.6319  0.9056
  621MOL0     C85592   4.660   4.949  10.481 -0.1931 -0.1221 -0.4318
  621MOL0     C85593   4.718   5.076  10.502 -0.1121 -0.9779  0.5349
  621MOL0     C85594   4.859   5.091  10.517 -0.0123  0.2361  0.2514
  621MOL0     C85595   4.943   4.977  10.509 -0.4615  0.3042  0.3755
  621MOL0     O85596   5.076   4.969  10.561 -0.4413  0.0263  0.3733
  621MOL0     C85597   5.155   5.086  10.588 -0.3834 -0.1556 -0.6555
  621MOL0     C85598   5.290   5.033  10.632  0.3325  0.5202  1.2619
  621MOL0     C85599   5.403   5.140  10.633 -0.2309 -0.3496  0.0032
  621MOL0     C85600   5.545   5.086  10.645  0.1563 -0.6860  0.4329
  621MOL0     C85601   5.641   5.179  10.574 -0.4513  0.5834  0.9932
  621MOL0     C85602   5.792   5.176  10.630  0.0430 -0.0116  0.4951
  621MOL0     C85603   5.846   5.038  10.595 -0.3777  1.0903  0.0290
  621MOL0     C85604   5.996   5.025  10.552 -0.3252 -1.0110 -0.0570
  621MOL0    Cl85605   6.111   5.076  10.684 -0.0615 -0.4443 -0.2486
  621MOL0     C85606   4.884   4.853  10.485  0.5803 -0.2299 -0.0182
  621MOL0     C85607   4.740   4.841  10.467  0.2457  0.2181  0.0700
  621MOL0     O85608   4.462   5.144  10.391 -0.2189  0.1220 -0.3853
  621MOL0     C85609   4.276   4.835  10.345 -0.2197 -0.1606 -0.0515
  621MOL0     C85610   4.152   4.776  10.312 -0.0244  0.2521 -0.6427
  621MOL0     N85611   3.429   4.616  10.048 -0.4288  0.2700 -0.0253
  621MOL0     N85612   3.303   4.642  10.038 -0.0095  1.3016  0.5170
  621MOL0     C85613   2.143   4.926  10.086 -0.4647  0.8868  0.3752
  621MOL0     C85614   2.021   4.970  10.030  0.0509 -0.2542 -0.4409
  621MOL0     C85615   1.569   5.041   9.987 -0.3856  0.5709  0.0322
  621MOL0     C85616   1.516   5.167  10.022  1.2881  0.0971 -0.1520
  621MOL0     C85617   1.382   5.189  10.034  0.3621 -0.6790 -0.3866
  621MOL0     C85618   1.286   5.094   9.992 -0.1525 -0.6971  0.0550
  621MOL0     O85619   1.151   5.104   9.994  0.0237 -0.1130 -0.3624
  621MOL0     C85620   1.081   5.211  10.068  0.3921  0.1203 -0.2557
  621MOL0     C85621   0.947   5.159  10.111  0.5501 -0.2771  0.1639
  621MOL0     C85622   0.875   5.236  10.223 -0.0312 -0.1218  0.2023
  621MOL0     C85623   0.812   5.371  10.176  0.0555  0.0967  0.2341
  621MOL0     C85624   0.751   5.441  10.289  0.3232 -0.4125  0.2366
  621MOL0     C85625   0.706   5.496  10.379  1.1481  0.8173 -0.2395
  621MOL0     C85626   1.337   4.973   9.951  0.5602  0.0437  0.1516
  621MOL0     C85627   1.473   4.941   9.947 -0.1168  0.2300  0.5099
  621MOL0     C85628   1.506   4.816   9.862  0.3952 -0.4772  0.4288
  621MOL0     H85629   1.881   5.059  10.333 -0.1748 -2.3474  0.7903
  621MOL0     H85630   2.093   4.970  10.405 -2.0792 -1.3941  0.8285
  621MOL0     H85631   2.437   4.952  10.123 -1.3131 -0.0891  0.2715
  621MOL0     H85632   2.382   4.783  10.116 -1.2638 -0.4328 -0.0530
  621MOL0     H85633   2.504   4.750  10.337  0.5480  0.5694  1.0374
  621MOL0     H85634   2.599   4.753  10.178  2.2923 -0.7432  1.6564
  621MOL0     H85635   2.635   5.004  10.239  0.6396  0.3203 -0.1942
  621MOL0     H85636   2.555   4.975  10.385  0.4567  0.6116  0.5460
  621MOL0     H85637   2.780   4.950  10.443  0.4229  0.3152 -0.5545
  621MOL0     H85638   2.696   4.801  10.475  0.1738 -1.4250  0.2379
  621MOL0     H85639   2.874   4.850  10.243 -0.1635 -0.3083  0.5041
  621MOL0     H85640   2.792   4.686  10.280 -1.1160 -1.5890  2.7747
  621MOL0     H85641   3.024   4.833  10.429  2.0300 -0.6002 -1.3206
  621MOL0     H85642   2.930   4.700  10.499  0.1389  1.1479  1.0372
  621MOL0     H85643   3.008   4.555  10.321 -0.4480  0.3110  4.1704
  621MOL0     H85644   3.135   4.625  10.410 -0.5915 -2.1706  1.0502
  621MOL0     H85645   3.054   4.691  10.122  0.0492  1.3122 -0.2479
  621MOL0     H85646   3.156   4.809  10.222 -0.9460 -1.2557  2.6228
  621MOL0     H85647   3.336   4.566  10.362 -2.2714 -1.3686 -0.7957
  621MOL0     H85648   3.610   4.434  10.220  0.0914 -0.6978  0.0733
  621MOL0     H85649   3.612   4.570  10.327 -2.0615 -2.3668  0.8571
  621MOL0     H85650   3.724   4.532  10.058  0.5560  1.2073 -1.2331
  621MOL0     H85651   3.704   4.695  10.114 -3.5177 -1.4686 -3.1437
  621MOL0     H85652   3.854   4.483  10.274 -3.2648 -0.2384  0.7245
  621MOL0     H85653   3.941   4.595  10.165 -0.1848 -2.0838 -0.4509
  621MOL0     H85654   3.769   4.704  10.386  0.5677  0.1759  0.0001
  621MOL0     H85655   3.937   4.657  10.414 -0.4235 -2.5838 -1.8475
  621MOL0     H85656   3.972   5.065  10.273 -1.0728 -2.6003 -3.2897
  621MOL0     H85657   4.263   5.235  10.392  0.2489  0.6682 -0.3298
  621MOL0     H85658   4.091   5.247  10.355  1.5765  2.3373  1.1803
  621MOL0     H85659   4.225   5.240  10.223 -1.8780 -0.6280 -0.6076
  621MOL0     H85660   4.657   5.165  10.516  0.1167 -0.5907 -0.8001
  621MOL0     H85661   4.903   5.189  10.531  1.2942 -0.0700 -1.2892
  621MOL0     H85662   5.166   5.152  10.502 -1.2613  0.3762 -0.3816
  621MOL0     H85663   5.115   5.158  10.660 -0.2837 -0.3857 -0.3681
  621MOL0     H85664   5.281   4.984  10.729 -0.3949  0.8540  1.3764
  621MOL0     H85665   5.307   4.959  10.553 -3.5805 -1.3500  1.9278
  621MOL0     H85666   5.390   5.218  10.708  1.3931  0.3112 -0.3479
  621MOL0     H85667   5.405   5.190  10.535 -1.9292  1.8226  1.0045
  621MOL0     H85668   5.554   4.993  10.587 -1.1795 -0.8576  0.4556
  621MOL0     H85669   5.568   5.065  10.750  0.1791 -0.7141  0.4226
  621MOL0     H85670   5.649   5.157  10.467  0.0458  2.7865  0.5210
  621MOL0     H85671   5.607   5.282  10.576  0.4433  0.8859  1.6481
  621MOL0     H85672   5.801   5.203  10.736 -3.5501 -0.4118  1.0276
  621MOL0     H85673   5.849   5.248  10.571 -0.5808 -0.4917 -0.7331
  621MOL0     H85674   5.795   4.983  10.514 -1.5660  0.6445  1.0387
  621MOL0     H85675   5.833   4.976  10.684 -0.3492 -0.3782 -0.9530
  621MOL0     H85676   6.014   5.086  10.462  1.1125  0.4150  1.1299
  621MOL0     H85677   6.020   4.919  10.539  0.2029 -1.3813  3.1005
  621MOL0     H85678   4.949   4.767  10.491  0.9316  0.0650  0.4300
  621MOL0     H85679   4.699   4.745  10.436  3.2836 -0.7400 -1.3642
  621MOL0     H85680   4.358   4.765  10.359  1.6457  1.4127 -2.3289
  621MOL0     H85681   4.150   4.669  10.328 -0.0696  0.4267  0.5820
  621MOL0     H85682   2.219   4.896  10.015  0.7468 -2.1370  2.7324
  621MOL0     H85683   2.007   4.965   9.923  5.9577 -0.8135 -1.5058
  621MOL0     H85684   1.583   5.251  10.037  1.7854 -0.4566  0.8809
  621MOL0     H85685   1.347   5.283  10.074 -0.3089 -0.1729 -2.0635
  621MOL0     H85686   1.135   5.241  10.158 -1.0653  1.3753  0.2499
  621MOL0     H85687   1.074   5.304  10.010  2.6284  1.7809  1.9127
  621MOL0     H85688   0.967   5.060  10.153 -0.4981  0.5697  2.8403
  621MOL0     H85689   0.885   5.148  10.020 -0.4442  0.3543  0.7421
  621MOL0     H85690   0.800   5.183  10.282 -1.5901  2.4678  0.7239
  621MOL0     H85691   0.953   5.255  10.298  0.0896  1.9115 -0.3585
  621MOL0     H85692   0.730   5.342  10.110  1.9025  0.8717 -2.5604
  621MOL0     H85693   0.877   5.433  10.114  1.1828  1.2021  2.3775
  621MOL0     H85694   0.671   5.534  10.473 -0.3873  0.8471 -0.7930
  621MOL0     H85695   1.275   4.888   9.926 -0.1477  1.0278 -1.5766
  621MOL0     H85696   1.553   4.741   9.926  1.8070 -0.9205 -1.0784
  621MOL0     H85697   1.411   4.774   9.828 -1.1104  2.6349  0.3538
  621MOL0     H85698   1.570   4.837   9.776  1.5492  0.3749  1.4588
  622MOL0     O85699   7.535   8.403   6.018 -0.5416 -0.7892 -0.6293
  622MOL0     C85700   7.622   8.411   5.937  0.0739 -0.3003 -0.7593
  622MOL0     O85701   7.753   8.426   5.975 -0.3728  0.2774 -0.3282
  622MOL0     C85702   7.795   8.423   6.105  0.6472  0.7375  0.8132
  622MOL0     C85703   7.763   8.319   6.190 -0.2862 -0.1287  0.3520
  622MOL0     C85704   7.806   8.326   6.327  0.0076  0.0936 -0.6925
  622MOL0     C85705   7.892   8.432   6.361  0.1472  0.3810  0.0519
  622MOL0     O85706   7.939   8.447   6.489 -0.5130  0.1634  0.0687
  622MOL0     C85707   7.854   8.417   6.602 -1.0175  0.8662  0.6164
  622MOL0     C85708   7.902   8.499   6.720  0.4871 -0.5299 -0.6795
  622MOL0     C85709   7.848   8.432   6.852 -1.2764 -0.5785  0.7288
  622MOL0     C85710   7.941   8.471   6.963 -0.6090  0.2363 -0.4361
  622MOL0     C85711   7.943   8.369   7.081 -0.2315 -0.6574  0.1794
  622MOL0     C85712   7.806   8.352   7.137  0.1123 -0.4930 -0.0379
  622MOL0     C85713   7.749   8.484   7.197  0.0781  0.1640  0.1177
  622MOL0     C85714   7.675   8.473   7.317  0.7532  1.2540 -0.4690
  622MOL0     N85715   7.755   8.447   7.436  0.6693  0.1066  0.0973
  622MOL0     C85716   7.888   8.419   7.449  0.7483  0.0060  0.1477
  622MOL0     C85717   7.908   8.410   7.580  0.4098 -0.5084  0.2829
  622MOL0     C85718   8.034   8.363   7.648  0.8725 -0.1293 -0.2048
  622MOL0     C85719   8.013   8.292   7.784 -0.0182  1.2113  0.2448
  622MOL0     C85720   8.138   8.214   7.829 -0.4909 -0.2166 -0.0412
  622MOL0     C85721   8.255   8.299   7.877 -0.8020  0.1364 -0.2780
  622MOL0     O85722   8.335   8.338   7.763 -0.0589  0.1776 -0.4776
  622MOL0     C85723   8.449   8.405   7.771 -1.1648 -0.2783  0.1087
  622MOL0     C85724   8.505   8.479   7.664 -0.3793 -0.6006  0.0738
  622MOL0     C85725   8.632   8.555   7.668  0.5069  0.1823 -0.8112
  622MOL0     C85726   8.668   8.633   7.538  0.0704 -0.4647 -0.9085
  622MOL0     C85727   8.709   8.547   7.790 -0.2266  0.0359  0.6370
  622MOL0     C85728   8.833   8.625   7.800 -0.2219 -0.3219  0.6073
  622MOL0     O85729   8.878   8.648   7.926 -0.2207  0.6780 -0.0387
  622MOL0     C85730   9.006   8.695   7.934  0.0478  0.4111  0.2434
  622MOL0     C85731   9.103   8.596   7.952  0.0228 -0.2596 -0.5338
  622MOL0     C85732   9.230   8.641   7.995  0.8257 -0.3368  0.1558
  622MOL0     C85733   9.266   8.771   8.017 -0.6536 -0.3593 -0.1112
  622MOL0     O85734   9.399   8.794   8.062  0.5470  0.1743 -0.5353
  622MOL0     C85735   9.418   8.933   8.087  0.6517 -0.5861  0.6466
  622MOL0     C85736   9.564   8.946   8.112  0.8842 -0.0437 -0.2334
  622MOL0     C85737   9.627   9.076   8.065  0.7061 -0.4410  1.2546
  622MOL0     C85738   9.778   9.084   8.109 -0.2031 -0.1937  0.4712
  622MOL0     C85739   9.862   9.196   8.045  0.6110  0.1762 -0.0933
  622MOL0     C85740  10.006   9.204   8.109 -1.0047  0.0696  0.2013
  622MOL0     C85741  10.110   9.253   7.998  0.4273 -0.1994 -0.3537
  622MOL0     C85742  10.246   9.288   8.052  0.0220  0.0334  0.6691
  622MOL0    Cl85743  10.300   9.143   8.154 -0.1556 -0.0547  0.6500
  622MOL0     C85744   9.162   8.865   8.008 -0.0186 -1.0661  1.0055
  622MOL0     C85745   9.031   8.825   7.959 -0.6297  0.0466 -0.7549
  622MOL0     O85746   8.894   8.663   7.701  0.2967 -0.0205  0.0146
  622MOL0     C85747   8.649   8.478   7.899 -0.2779 -0.2372  0.5403
  622MOL0     C85748   8.525   8.410   7.884 -0.3976  0.2100 -0.5456
  622MOL0     N85749   7.788   8.445   7.650  0.1129  0.4948 -0.6387
  622MOL0     N85750   7.700   8.464   7.561  1.0314 -0.5173 -0.7754
  622MOL0     C85751   7.923   8.534   6.268 -0.2828  0.0889 -0.9398
  622MOL0     C85752   7.871   8.534   6.145  0.7322 -0.0108 -0.0757
  622MOL0     C85753   7.588   8.396   5.797 -0.4565  0.3193  0.3842
  622MOL0     C85754   7.459   8.410   5.759  0.0135 -0.0810  0.3046
  622MOL0     C85755   7.417   8.382   5.626 -0.2300  0.1852  0.7358
  622MOL0     C85756   7.514   8.358   5.529 -0.0679 -0.3318 -0.2882
  622MOL0     O85757   7.488   8.332   5.399  0.5125 -0.1166 -0.5188
  622MOL0     C85758   7.367   8.387   5.346  0.7782 -1.0526 -0.0226
  622MOL0     C85759   7.254   8.290   5.349 -0.4832  0.6531  0.4901
  622MOL0     C85760   7.125   8.326   5.277  0.0085 -0.3517 -0.5103
  622MOL0     C85761   7.078   8.468   5.304 -0.2345  0.4656  0.1079
  622MOL0     C85762   7.048   8.485   5.447 -0.0467  0.6406 -1.2033
  622MOL0     C85763   7.045   8.493   5.572 -0.1597 -0.2294 -0.3421
  622MOL0     C85764   7.651   8.357   5.557  0.0424  0.2481 -0.3521
  622MOL0     C85765   7.690   8.366   5.695  0.0114 -1.7595  0.2839
  622MOL0     C85766   7.837   8.368   5.721  0.6884  0.4240 -0.2645
  622MOL0     H85767   7.708   8.239   6.141 -2.2719  1.5657 -0.2861
  622MOL0     H85768   7.794   8.240   6.392 -1.2284  1.0274  0.3665
  622MOL0     H85769   7.859   8.310   6.623 -2.1459  0.6364 -0.2169
  622MOL0     H85770   7.748   8.434   6.585 -1.0309  0.3550  0.1593
  622MOL0     H85771   8.011   8.492   6.717  0.4137 -3.6988 -0.0473
  622MOL0     H85772   7.868   8.603   6.723  1.0218 -0.3789  0.5526
  622MOL0     H85773   7.748   8.468   6.879 -0.8498 -0.6265  2.5002
  622MOL0     H85774   7.837   8.323   6.840 -2.4551 -0.2408 -2.0802
  622MOL0     H85775   8.046   8.482   6.932 -0.5228  0.4107 -0.0807
  622MOL0     H85776   7.898   8.562   7.004  1.6017  0.1423  2.3877
  622MOL0     H85777   8.010   8.404   7.160  1.0579  1.1739 -1.6047
  622MOL0     H85778   7.979   8.270   7.055  1.4032 -0.5522  1.8534
  622MOL0     H85779   7.734   8.318   7.062  0.4581 -0.4261 -0.4009
  622MOL0     H85780   7.812   8.275   7.215 -0.3333 -2.0813 -1.5100
  622MOL0     H85781   7.684   8.521   7.118 -1.8045 -1.4577  0.8306
  622MOL0     H85782   7.829   8.557   7.214  1.9660 -1.4508 -1.3320
  622MOL0     H85783   7.617   8.562   7.346 -1.0613 -0.0178 -0.0562
  622MOL0     H85784   7.606   8.389   7.307 -1.4832  2.6131  2.2679
  622MOL0     H85785   7.956   8.391   7.369 -2.4631 -1.0354 -2.4441
  622MOL0     H85786   8.088   8.457   7.666 -0.9449  1.4918 -2.5546
  622MOL0     H85787   8.094   8.302   7.580  2.1638 -1.3414  1.9326
  622MOL0     H85788   7.985   8.368   7.858  1.5691  1.7529  0.3340
  622MOL0     H85789   7.932   8.219   7.775  0.1678  0.6218  2.6060
  622MOL0     H85790   8.099   8.148   7.907 -0.0782  0.3274  0.6353
  622MOL0     H85791   8.179   8.156   7.745  2.5109  0.0735  1.0791
  622MOL0     H85792   8.224   8.390   7.930  1.3681 -0.4018  2.1056
  622MOL0     H85793   8.299   8.240   7.958  0.1752  0.3263 -0.6490
  622MOL0     H85794   8.449   8.477   7.571 -0.0898  1.0665 -0.1651
  622MOL0     H85795   8.585   8.617   7.469 -0.1016 -0.3647 -0.7247
  622MOL0     H85796   8.766   8.602   7.498  1.4519  1.6962  0.6137
  622MOL0     H85797   8.681   8.740   7.551  0.6939 -0.4080 -1.8662
  622MOL0     H85798   9.070   8.494   7.936 -4.6794  1.1406 -1.1001
  622MOL0     H85799   9.302   8.559   8.002  0.2076 -0.8099  1.1636
  622MOL0     H85800   9.410   8.991   7.995  0.9056  0.9298  1.5412
  622MOL0     H85801   9.363   8.984   8.167 -0.0955 -0.1823 -0.0946
  622MOL0     H85802   9.589   8.935   8.218 -2.5828  1.0570  0.8041
  622MOL0     H85803   9.614   8.867   8.055 -0.9546 -0.4406 -1.3900
  622MOL0     H85804   9.575   9.162   8.106  1.2101 -0.5303  2.0888
  622MOL0     H85805   9.620   9.088   7.956  1.8721  0.8966  1.3133
  622MOL0     H85806   9.832   8.990   8.099  1.1374  0.8256 -4.5019
  622MOL0     H85807   9.770   9.094   8.218 -1.4644 -1.8271  0.5684
  622MOL0     H85808   9.877   9.170   7.940 -1.0816  2.0728 -0.8744
  622MOL0     H85809   9.812   9.293   8.054  3.3323  1.7019 -0.5051
  622MOL0     H85810  10.038   9.104   8.137  0.2125  0.8219  1.6539
  622MOL0     H85811  10.014   9.281   8.186  0.0466  2.3603 -2.0387
  622MOL0     H85812  10.070   9.346   7.956 -0.2394 -0.9063 -1.3212
  622MOL0     H85813  10.112   9.175   7.921  2.2240 -1.9816  1.3726
  622MOL0     H85814  10.243   9.388   8.097  1.3045 -0.0055  0.8860
  622MOL0     H85815  10.322   9.291   7.973  0.0155 -0.3118  0.6478
  622MOL0     H85816   9.176   8.967   8.043  2.1673 -1.0152  0.1730
  622MOL0     H85817   8.953   8.897   7.937 -1.5468 -0.6859  0.0344
  622MOL0     H85818   8.689   8.479   8.000 -2.4733 -2.8933  1.5739
  622MOL0     H85819   8.498   8.347   7.968  2.2425 -4.2315 -2.7017
  622MOL0     H85820   7.988   8.618   6.288 -0.8462  0.4373 -0.5195
  622MOL0     H85821   7.894   8.615   6.076  1.1234  0.6028  0.7638
  622MOL0     H85822   7.387   8.429   5.838 -0.4875  0.1307 -0.2004
  622MOL0     H85823   7.311   8.393   5.602 -0.6190  1.6257  2.8316
  622MOL0     H85824   7.344   8.487   5.384  1.5138 -0.2662 -1.5445
  622MOL0     H85825   7.388   8.401   5.240  3.0263 -2.2825  0.1911
  622MOL0     H85826   7.224   8.270   5.453  3.3511 -1.6822  1.3687
  622MOL0     H85827   7.293   8.197   5.307 -2.7026  1.1236 -2.9972
  622MOL0     H85828   7.144   8.306   5.171 -0.9090  1.6384 -1.1047
  622MOL0     H85829   7.040   8.267   5.313  0.0459 -1.8280 -2.6222
  622MOL0     H85830   6.990   8.487   5.242 -0.3214 -0.1042  0.0418
  622MOL0     H85831   7.152   8.539   5.269  0.6074  0.3675  1.6150
  622MOL0     H85832   7.043   8.506   5.678  1.6887  1.0500 -0.4094
  622MOL0     H85833   7.737   8.351   5.491  1.0841 -2.9226  1.0928
  622MOL0     H85834   7.870   8.294   5.794  0.3034  0.8846  0.3805
  622MOL0     H85835   7.899   8.326   5.641  0.5102  0.6127 -0.5059
  622MOL0     H85836   7.873   8.469   5.745 -1.6739  1.6509 -1.4699
  623MOL0     O85837   2.807   8.538   7.537  0.4566  1.3425  0.6674
  623MOL0     C85838   2.783   8.494   7.418  0.2017 -0.6157  0.3537
  623MOL0     O85839   2.874   8.464   7.320  0.0760 -0.4801 -0.4006
  623MOL0     C85840   2.997   8.522   7.335 -0.3544  0.7736 -0.3316
  623MOL0     C85841   3.079   8.490   7.447  1.2921  0.0968  0.3400
  623MOL0     C85842   3.194   8.567   7.481  0.5372  0.7387 -0.1767
  623MOL0     C85843   3.240   8.665   7.389  0.6020 -0.2208  0.6202
  623MOL0     O85844   3.353   8.742   7.408 -0.4322 -0.7568 -0.5241
  623MOL0     C85845   3.420   8.735   7.535 -0.2742  0.9108  0.2776
  623MOL0     C85846   3.562   8.800   7.530  0.6310  0.2238 -0.1563
  623MOL0     C85847   3.654   8.735   7.424  1.8999  0.0176  0.6602
  623MOL0     C85848   3.797   8.785   7.441  0.1635 -0.0575 -0.2987
  623MOL0     C85849   3.893   8.708   7.353  0.5138  0.6028 -0.1674
  623MOL0     C85850   4.033   8.731   7.404  1.0007 -0.0568  0.4271
  623MOL0     C85851   4.126   8.652   7.309 -0.4680  0.5696 -0.6109
  623MOL0     C85852   4.272   8.680   7.336 -0.5600 -0.1510  0.2436
  623MOL0     N85853   4.356   8.624   7.228 -1.1674  0.0275 -0.6324
  623MOL0     C85854   4.381   8.673   7.100  0.0298 -1.2381 -0.3815
  623MOL0     C85855   4.453   8.579   7.042 -0.4689 -0.8788  0.3494
  623MOL0     C85856   4.499   8.571   6.901  0.4696 -0.4207  0.2433
  623MOL0     C85857   4.640   8.639   6.882  0.9518 -0.1123  1.1293
  623MOL0     C85858   4.679   8.651   6.737  0.0063  0.0523 -0.2071
  623MOL0     C85859   4.826   8.707   6.739  0.4520 -0.0387 -0.0513
  623MOL0     O85860   4.865   8.730   6.608  0.7157 -0.1649  0.4902
  623MOL0     C85861   4.988   8.781   6.574 -0.1902  0.6183  0.4340
  623MOL0     C85862   5.019   8.766   6.437  0.5836  0.7076 -0.5343
  623MOL0     C85863   5.135   8.822   6.385 -1.2127 -0.9121  0.7954
  623MOL0     C85864   5.169   8.815   6.237  0.7441  0.4895  0.3955
  623MOL0     C85865   5.228   8.887   6.472  0.7466 -0.3597  0.1340
  623MOL0     C85866   5.365   8.938   6.441  0.4833 -1.4831 -0.1293
  623MOL0     O85867   5.447   8.980   6.542 -0.4615  0.1867  0.5208
  623MOL0     C85868   5.581   8.990   6.506  0.5447 -0.3488 -0.1748
  623MOL0     C85869   5.642   9.114   6.488  0.2300 -0.2931 -0.6623
  623MOL0     C85870   5.783   9.124   6.458 -0.7632  0.6726 -0.6322
  623MOL0     C85871   5.862   9.016   6.451  0.1289 -0.2657 -0.6083
  623MOL0     O85872   5.998   9.032   6.424  0.2503  0.1452  0.5063
  623MOL0     C85873   6.054   8.935   6.332 -0.9051 -0.2705  0.3251
  623MOL0     C85874   6.173   8.982   6.246  0.4607 -1.0123 -0.5512
  623MOL0     C85875   6.298   8.997   6.325 -0.0992 -0.8221 -0.0543
  623MOL0     C85876   6.395   9.069   6.238  0.4542  0.0569  0.1256
  623MOL0     C85877   6.520   9.110   6.306 -0.8627  0.4990 -0.6330
  623MOL0     C85878   6.593   9.217   6.220 -0.4997  0.1110 -0.9472
  623MOL0     C85879   6.697   9.150   6.119  0.5909 -0.3131  0.0476
  623MOL0     C85880   6.809   9.075   6.194 -0.0432  0.8756 -0.0506
  623MOL0    Cl85881   6.883   9.183   6.322  0.2075  0.0592 -0.4049
  623MOL0     C85882   5.805   8.889   6.472 -0.3089 -0.1524  0.2378
  623MOL0     C85883   5.666   8.876   6.503 -0.3858 -0.1450 -0.0470
  623MOL0     O85884   5.398   8.923   6.325  1.2843 -0.1844 -0.2750
  623MOL0     C85885   5.194   8.898   6.609  1.0342  0.0104 -0.1047
  623MOL0     C85886   5.069   8.851   6.662 -0.0788 -0.1734  0.5135
  623MOL0     N85887   4.476   8.479   7.136 -0.4531 -0.5650 -0.7914
  623MOL0     N85888   4.417   8.504   7.245  0.3089  0.4460 -0.1913
  623MOL0     C85889   3.175   8.683   7.265 -0.1547 -0.1565 -0.1630
  623MOL0     C85890   3.053   8.609   7.245 -1.0889 -0.0506 -0.1076
  623MOL0     C85891   2.644   8.476   7.372  0.3201 -0.1371 -0.1198
  623MOL0     C85892   2.613   8.463   7.236 -0.7456  1.7065 -0.5043
  623MOL0     C85893   2.486   8.444   7.181 -0.1277  1.1331  0.1396
  623MOL0     C85894   2.383   8.430   7.271  0.1315  0.2481 -0.3841
  623MOL0     O85895   2.251   8.427   7.242  0.5167 -0.0771 -0.3039
  623MOL0     C85896   2.217   8.375   7.109 -0.5611 -0.2872  0.6452
  623MOL0     C85897   2.071   8.353   7.110 -0.7802 -0.3517  0.1466
  623MOL0     C85898   1.994   8.479   7.145 -0.0130 -0.0400  0.2370
  623MOL0     C85899   1.846   8.450   7.172  0.1974 -0.1533  0.3703
  623MOL0     C85900   1.769   8.557   7.242  0.3259 -0.0921  0.1745
  623MOL0     C85901   1.698   8.633   7.307  0.8982 -0.2082  0.2446
  623MOL0     C85902   2.407   8.439   7.411  0.1148  0.7190 -0.1136
  623MOL0     C85903   2.535   8.467   7.462  0.0425 -0.1944 -1.2502
  623MOL0     C85904   2.551   8.483   7.616  0.0949 -0.6676  1.2885
  623MOL0     H85905   3.052   8.415   7.520 -2.1426  0.6049 -0.2824
  623MOL0     H85906   3.228   8.551   7.582 -3.1222 -0.2046  1.0507
  623MOL0     H85907   3.426   8.629   7.560 -1.5259  1.7328  4.8901
  623MOL0     H85908   3.353   8.771   7.613 -1.2780 -2.1812  0.9980
  623MOL0     H85909   3.550   8.909   7.520 -2.1485  0.0993  0.8645
  623MOL0     H85910   3.605   8.773   7.626  3.0314 -0.5300 -1.3724
  623MOL0     H85911   3.642   8.627   7.439 -2.3541  0.1126 -0.7798
  623MOL0     H85912   3.611   8.746   7.324 -2.3850 -0.4682  2.2188
  623MOL0     H85913   3.809   8.889   7.409 -0.8902  0.0994 -0.2349
  623MOL0     H85914   3.833   8.764   7.542  1.0124 -0.7427 -0.7345
  623MOL0     H85915   3.873   8.737   7.250 -0.6949 -0.2431 -0.1886
  623MOL0     H85916   3.872   8.601   7.359 -1.5501  0.7306 -3.1602
  623MOL0     H85917   4.049   8.839   7.413 -2.0272  0.3970  1.6468
  623MOL0     H85918   4.041   8.679   7.500  2.1830  1.0278  0.9521
  623MOL0     H85919   4.109   8.674   7.203 -1.9462 -1.5692 -0.8746
  623MOL0     H85920   4.108   8.545   7.320  1.6910  0.1030 -1.1673
  623MOL0     H85921   4.287   8.789   7.333  0.5867 -0.0761 -5.9118
  623MOL0     H85922   4.309   8.646   7.432  0.8337  1.9524  0.5291
  623MOL0     H85923   4.366   8.765   7.045 -0.3777 -2.6963 -2.8930
  623MOL0     H85924   4.424   8.624   6.841  0.8406 -0.4772 -0.2794
  623MOL0     H85925   4.496   8.471   6.857  2.2631 -0.1896 -0.4765
  623MOL0     H85926   4.642   8.735   6.935 -1.1149  0.0759  0.9835
  623MOL0     H85927   4.708   8.569   6.930  1.9489  0.0410 -0.0324
  623MOL0     H85928   4.671   8.550   6.697 -0.7141 -0.1629  0.4591
  623MOL0     H85929   4.611   8.715   6.681  1.0702 -0.5723 -2.3121
  623MOL0     H85930   4.837   8.799   6.797 -2.3018 -0.2861  1.0379
  623MOL0     H85931   4.889   8.630   6.785 -1.2669 -1.6248 -0.2270
  623MOL0     H85932   4.951   8.706   6.377  0.2137  0.5168  0.0609
  623MOL0     H85933   5.082   8.776   6.183  2.0632 -1.3310 -0.5230
  623MOL0     H85934   5.254   8.748   6.218 -1.0156 -2.3022  1.7539
  623MOL0     H85935   5.192   8.912   6.193  2.0236 -0.7370 -1.8455
  623MOL0     H85936   5.584   9.205   6.503 -1.3179 -1.0274 -1.8203
  623MOL0     H85937   5.844   9.213   6.445  1.4600 -0.6540  0.0846
  623MOL0     H85938   6.074   8.836   6.374 -1.4005  0.2049  1.7186
  623MOL0     H85939   5.971   8.913   6.264 -2.1085 -0.4199  1.8060
  623MOL0     H85940   6.196   8.910   6.166  1.8183 -0.5467 -0.6156
  623MOL0     H85941   6.152   9.081   6.205 -1.1147  0.9032  4.2433
  623MOL0     H85942   6.339   8.899   6.349 -1.2447 -1.1863  0.4990
  623MOL0     H85943   6.264   9.049   6.415  3.6175 -0.7038  1.4605
  623MOL0     H85944   6.351   9.164   6.204  1.7452  0.8455  0.6029
  623MOL0     H85945   6.420   9.019   6.145 -2.6200 -0.3004 -0.6380
  623MOL0     H85946   6.490   9.159   6.399 -2.0360 -3.7080  1.4537
  623MOL0     H85947   6.586   9.028   6.336 -2.1549 -0.7263 -1.0371
  623MOL0     H85948   6.647   9.285   6.285  2.3044 -0.2612 -2.7507
  623MOL0     H85949   6.525   9.277   6.159 -2.2246  1.6559  2.2496
  623MOL0     H85950   6.730   9.233   6.055 -0.7259  0.6249  0.5388
  623MOL0     H85951   6.648   9.077   6.054  1.7423  0.0764 -1.3152
  623MOL0     H85952   6.887   9.038   6.127  0.8009 -1.4400  2.0214
  623MOL0     H85953   6.760   8.983   6.229 -0.9397  0.2421 -2.7830
  623MOL0     H85954   5.861   8.797   6.456 -1.4374 -0.5303 -2.1335
  623MOL0     H85955   5.621   8.777   6.505 -1.0060  0.1393  0.1528
  623MOL0     H85956   5.261   8.940   6.683  1.6483 -0.2673 -0.4910
  623MOL0     H85957   5.044   8.860   6.767  1.5190 -1.0295  1.0135
  623MOL0     H85958   3.207   8.756   7.192 -2.7970  0.3102 -0.9550
  623MOL0     H85959   2.993   8.633   7.158  0.0743 -0.2962 -1.0115
  623MOL0     H85960   2.698   8.463   7.168  3.0682  1.1774  3.7879
  623MOL0     H85961   2.474   8.447   7.073 -2.2110  1.6123  0.3458
  623MOL0     H85962   2.252   8.435   7.024  0.7705 -2.4942 -0.4621
  623MOL0     H85963   2.274   8.284   7.089  2.0981  1.6118 -1.0914
  623MOL0     H85964   2.043   8.278   7.185 -2.8964  0.0392 -0.1872
  623MOL0     H85965   2.039   8.309   7.015  1.9071  0.9444 -1.4842
  623MOL0     H85966   2.043   8.522   7.232 -1.4126  0.5042  0.7712
  623MOL0     H85967   2.002   8.553   7.065  0.8269 -0.8109 -0.4120
  623MOL0     H85968   1.835   8.353   7.220 -1.8785  0.0587  0.4137
  623MOL0     H85969   1.794   8.435   7.077  1.0610 -0.4153 -0.0704
  623MOL0     H85970   1.624   8.693   7.355  0.9679 -0.9856  1.3562
  623MOL0     H85971   2.320   8.411   7.470 -0.6109 -1.8582 -2.1658
  623MOL0     H85972   2.635   8.421   7.650  1.4400  0.1736 -0.3342
  623MOL0     H85973   2.556   8.588   7.645  0.7121 -0.8420  1.8544
  623MOL0     H85974   2.458   8.440   7.655 -0.6028  0.3261  0.7572
  624MOL0     O85975   0.222   3.865  10.124  0.7806 -0.2497  0.3624
  624MOL0     C85976   0.175   3.756  10.114 -0.6396 -0.5846  0.5477
  624MOL0     O85977   0.234   3.640  10.156  0.0663  0.3095 -0.0862
  624MOL0     C85978   0.355   3.634  10.225 -1.0877 -0.8143 -0.2142
  624MOL0     C85979   0.413   3.749  10.296 -0.6112  0.7850 -0.1260
  624MOL0     C85980   0.537   3.749  10.352  0.7774 -0.0752 -0.2907
  624MOL0     C85981   0.614   3.638  10.345 -0.1728  0.0313 -0.5696
  624MOL0     O85982   0.742   3.646  10.392  0.0018 -0.2181 -0.2155
  624MOL0     C85983   0.822   3.528  10.395 -0.5080  0.3803 -0.6572
  624MOL0     C85984   0.968   3.580  10.419  0.5731  0.1665 -0.2234
  624MOL0     C85985   1.072   3.466  10.406  0.5414  0.1167  0.0516
  624MOL0     C85986   1.213   3.502  10.445 -0.5156 -0.3712  0.1178
  624MOL0     C85987   1.305   3.391  10.470  0.6814  0.4806  0.1555
  624MOL0     C85988   1.437   3.436  10.537  0.6600  0.5948 -0.2071
  624MOL0     C85989   1.520   3.330  10.604  0.0126 -0.0156  0.3909
  624MOL0     C85990   1.577   3.217  10.505  0.8094 -0.8312  0.6657
  624MOL0     N85991   1.684   3.130  10.553 -0.7585  0.7117 -0.1144
  624MOL0     C85992   1.672   3.037  10.652 -0.2813 -0.1591  0.0085
  624MOL0     C85993   1.799   2.990  10.675 -0.3238 -0.0500 -0.3429
  624MOL0     C85994   1.818   2.897  10.798 -0.2138  0.0167  1.2158
  624MOL0     C85995   1.953   2.814  10.799  0.2430  0.5526 -0.0437
  624MOL0     C85996   1.958   2.719  10.686 -0.5007  0.2182 -0.7176
  624MOL0     C85997   2.086   2.629  10.668  0.3195 -0.0390  0.1387
  624MOL0     O85998   2.127   2.567  10.792 -0.1239 -0.0458 -0.1261
  624MOL0     C85999   2.212   2.468  10.789 -0.4102  0.8038 -0.2043
  624MOL0     C86000   2.217   2.381  10.897  0.1430  0.5749  0.0414
  624MOL0     C86001   2.285   2.258  10.890 -0.3946 -0.8446 -0.0551
  624MOL0     C86002   2.248   2.162  11.002 -0.1311  0.4098  0.3205
  624MOL0     C86003   2.360   2.218  10.777 -1.0978  0.2137  0.0385
  624MOL0     C86004   2.455   2.101  10.762  0.9042 -0.6590  0.5895
  624MOL0     O86005   2.497   2.084  10.631 -0.1450 -0.1320 -0.4356
  624MOL0     C86006   2.571   1.977  10.601  1.2898  0.8049  0.3812
  624MOL0     C86007   2.523   1.846  10.593 -0.0132  0.3745 -0.1990
  624MOL0     C86008   2.616   1.736  10.575  0.0914  0.0846  0.0142
  624MOL0     C86009   2.743   1.757  10.538 -0.5150  0.3838 -0.5434
  624MOL0     O86010   2.812   1.643  10.507  0.3397  0.0290  0.2200
  624MOL0     C86011   2.922   1.667  10.420  0.6474  0.1137  0.0540
  624MOL0     C86012   2.975   1.532  10.372 -0.5606  0.0471 -0.2134
  624MOL0     C86013   3.058   1.462  10.478 -0.4038  0.5317 -0.1764
  624MOL0     C86014   3.122   1.347  10.401  0.0409 -1.1481  0.1220
  624MOL0     C86015   3.189   1.252  10.501 -0.4946 -0.5022  0.0777
  624MOL0     C86016   3.300   1.177  10.443  0.1292  0.3009  0.2873
  624MOL0     C86017   3.346   1.089  10.562 -0.2574  0.6902 -1.0722
  624MOL0     C86018   3.458   1.010  10.509  0.0707  0.0938  0.1732
  624MOL0    Cl86019   3.498   0.888  10.637 -0.1874  0.3797  0.4569
  624MOL0     C86020   2.787   1.889  10.526  0.9566  0.2691  0.3370
  624MOL0     C86021   2.705   1.995  10.567  0.3419  0.8409  0.8665
  624MOL0     O86022   2.472   2.025  10.854  0.1546  0.9801  0.4178
  624MOL0     C86023   2.351   2.315  10.668  1.5233 -0.0338  0.3064
  624MOL0     C86024   2.285   2.434  10.674 -0.6391  0.6625 -0.2613
  624MOL0     N86025   1.882   3.049  10.588 -0.6017 -0.6009 -0.2059
  624MOL0     N86026   1.817   3.130  10.516  1.2735 -0.5961  0.4350
  624MOL0     C86027   0.555   3.518  10.296 -0.3990 -0.2957  0.7926
  624MOL0     C86028   0.428   3.513  10.238  0.3996 -0.4381  0.0062
  624MOL0     C86029   0.051   3.736  10.034  0.5532  0.4363  0.2350
  624MOL0     C86030  -0.030   3.851  10.007  0.1565 -0.6859 -0.0923
  624MOL0     C86031  -0.135   3.854   9.920  1.3638  0.2474  0.9910
  624MOL0     C86032  -0.183   3.732   9.878 -0.3170 -0.1341 -0.4222
  624MOL0     O86033  -0.297   3.727   9.799  0.5827 -0.7652 -0.9586
  624MOL0     C86034  -0.342   3.608   9.741  0.2634 -0.4249  0.4732
  624MOL0     C86035  -0.479   3.629   9.691  0.6342  1.5688  0.3405
  624MOL0     C86036  -0.584   3.619   9.808  0.1698 -0.1635 -0.2578
  624MOL0     C86037  -0.733   3.616   9.754  0.1543  0.1654  0.4069
  624MOL0     C86038  -0.832   3.595   9.858  0.1292 -0.8140 -0.0371
  624MOL0     C86039  -0.931   3.597   9.932  0.5257  0.3103 -0.4929
  624MOL0     C86040  -0.111   3.618   9.909 -0.0417  0.6686 -0.3780
  624MOL0     C86041   0.008   3.616   9.983 -0.2242 -0.3672 -0.4799
  624MOL0     C86042   0.084   3.481   9.985  0.1923 -0.5075  0.0638
  624MOL0     H86043   0.358   3.841  10.310  3.8461  4.0313 -1.6443
  624MOL0     H86044   0.572   3.841  10.397  0.0564  1.3094 -2.4060
  624MOL0     H86045   0.818   3.470  10.302  0.0776 -2.4486  0.9698
  624MOL0     H86046   0.786   3.457  10.471  3.3181  0.0818  1.0780
  624MOL0     H86047   0.994   3.666  10.355  0.8550 -1.1853 -1.9984
  624MOL0     H86048   0.970   3.613  10.523 -0.7507 -0.1278 -0.0877
  624MOL0     H86049   1.027   3.385  10.464 -0.7541  0.2551 -0.7072
  624MOL0     H86050   1.070   3.431  10.302 -1.1035  0.3552 -0.0163
  624MOL0     H86051   1.265   3.564  10.371  1.6771 -1.1016  0.9758
  624MOL0     H86052   1.206   3.561  10.537  1.4829 -0.6615  0.4961
  624MOL0     H86053   1.320   3.323  10.386  2.3076 -0.1194  0.8853
  624MOL0     H86054   1.252   3.326  10.541 -1.0608 -0.8194 -2.1844
  624MOL0     H86055   1.492   3.480  10.454  2.1503  2.4302  1.6438
  624MOL0     H86056   1.405   3.518  10.602 -0.7412  1.5978 -2.0654
  624MOL0     H86057   1.466   3.274  10.681  0.7246 -0.0395  0.8911
  624MOL0     H86058   1.599   3.383  10.658 -0.3265  0.4433  0.4362
  624MOL0     H86059   1.488   3.158  10.481  0.2291  0.4469 -0.4708
  624MOL0     H86060   1.614   3.268  10.415  1.9966  1.3418  2.2943
  624MOL0     H86061   1.577   3.002  10.691  0.2952 -0.9959  0.6954
  624MOL0     H86062   1.737   2.823  10.796  0.5155 -0.7978  0.0619
  624MOL0     H86063   1.807   2.949  10.893  2.0908  2.7857  0.1056
  624MOL0     H86064   2.033   2.889  10.793  0.8761 -0.2319 -2.8094
  624MOL0     H86065   1.948   2.761  10.894 -1.1301 -0.5952 -0.7252
  624MOL0     H86066   1.870   2.654  10.695  0.3907 -0.7926  1.5759
  624MOL0     H86067   1.944   2.768  10.589  0.0911 -1.0928 -1.4923
  624MOL0     H86068   2.067   2.550  10.595 -0.0706  1.0455 -0.9554
  624MOL0     H86069   2.173   2.684  10.632  2.7687 -2.9368  1.1402
  624MOL0     H86070   2.161   2.425  10.979  1.1334 -0.6310  1.4143
  624MOL0     H86071   2.260   2.213  11.098 -1.0819 -0.9250  1.1856
  624MOL0     H86072   2.307   2.070  11.011 -0.6184  0.1784  1.2814
  624MOL0     H86073   2.142   2.139  10.987 -0.1031 -0.1999  0.9765
  624MOL0     H86074   2.422   1.820  10.622 -0.2336 -1.0074 -2.0004
  624MOL0     H86075   2.590   1.632  10.593 -0.7535  0.2419 -0.2467
  624MOL0     H86076   2.889   1.725  10.334 -1.8984 -1.3263 -0.0204
  624MOL0     H86077   2.997   1.720  10.480  0.7785 -1.1810  1.0803
  624MOL0     H86078   2.896   1.461  10.348 -1.3423 -0.1324  2.5705
  624MOL0     H86079   3.027   1.556  10.278  0.0722  0.8997  0.3389
  624MOL0     H86080   2.989   1.420  10.552 -0.8743  1.3166 -0.1472
  624MOL0     H86081   3.120   1.533  10.532 -0.0535  1.5374 -1.8151
  624MOL0     H86082   3.208   1.385  10.344  0.4036 -1.3793  0.5148
  624MOL0     H86083   3.050   1.305  10.330 -1.8666 -0.9987  1.9096
  624MOL0     H86084   3.232   1.312  10.582 -0.8077  1.9666 -1.4478
  624MOL0     H86085   3.117   1.184  10.546 -0.7821 -1.2505 -1.4524
  624MOL0     H86086   3.372   1.254  10.412 -0.1209 -0.0986 -1.4041
  624MOL0     H86087   3.262   1.126  10.354  1.1697  0.8521 -0.5128
  624MOL0     H86088   3.260   1.026  10.586  2.6549 -2.6988  1.4855
  624MOL0     H86089   3.391   1.141  10.647 -1.3210 -0.3352  0.1631
  624MOL0     H86090   3.542   1.065  10.465  1.0626 -0.6778  1.0694
  624MOL0     H86091   3.409   0.947  10.434  0.2152  0.0140  0.1465
  624MOL0     H86092   2.889   1.911  10.498  0.5256  0.6286 -1.0365
  624MOL0     H86093   2.738   2.098  10.572 -2.3562  1.9698 -1.4523
  624MOL0     H86094   2.409   2.292  10.579  0.9092 -3.4639  0.6607
  624MOL0     H86095   2.291   2.492  10.583 -1.2365  1.6584  0.3205
  624MOL0     H86096   0.617   3.431  10.277 -0.2383  0.3046 -1.8070
  624MOL0     H86097   0.382   3.417  10.218  1.3014 -0.8998  0.0720
  624MOL0     H86098   0.006   3.946  10.045 -0.0982  0.4925 -2.6024
  624MOL0     H86099  -0.176   3.945   9.878 -2.0542 -0.8071  1.7251
  624MOL0     H86100  -0.274   3.582   9.660 -1.1400 -2.5318 -0.0947
  624MOL0     H86101  -0.343   3.526   9.814  0.1641  1.3326  2.5622
  624MOL0     H86102  -0.499   3.555   9.613  0.0156  1.5219  0.5316
  624MOL0     H86103  -0.487   3.724   9.637 -0.2441  1.2604 -0.1025
  624MOL0     H86104  -0.569   3.533   9.873  2.2055 -1.4104 -2.2369
  624MOL0     H86105  -0.579   3.712   9.866 -0.3718 -0.7295  0.7263
  624MOL0     H86106  -0.739   3.529   9.688  2.4962 -1.5461  2.2596
  624MOL0     H86107  -0.762   3.716   9.721 -1.2586  0.0358  1.2054
  624MOL0     H86108  -1.027   3.588   9.979  0.1278  3.0130 -0.5961
  624MOL0     H86109  -0.157   3.524   9.879 -0.6780 -1.1649  5.0972
  624MOL0     H86110   0.190   3.502   9.967  0.3088 -0.2402  1.0264
  624MOL0     H86111   0.068   3.439  10.085  0.9144 -1.8434 -0.3535
  624MOL0     H86112   0.044   3.405   9.918 -1.4770 -0.0002  0.4539
  625MOL0     O86113   7.725   7.129   7.861 -0.5154 -0.3929 -0.2261
  625MOL0     C86114   7.660   7.025   7.868 -0.0790 -0.4184  0.7268
  625MOL0     O86115   7.713   6.903   7.835  0.2356 -0.1678 -0.2668
  625MOL0     C86116   7.852   6.886   7.844  0.4227 -0.2260  0.3685
  625MOL0     C86117   7.910   6.819   7.733  0.4531 -0.1605  0.4573
  625MOL0     C86118   8.052   6.803   7.724  0.5918  0.0458 -0.7042
  625MOL0     C86119   8.134   6.843   7.826  0.6448 -0.6727  0.2860
  625MOL0     O86120   8.264   6.809   7.816  0.3660 -0.9940 -0.2848
  625MOL0     C86121   8.355   6.837   7.928 -0.2148  0.1999 -0.4130
  625MOL0     C86122   8.482   6.761   7.882  0.3376  0.0926 -0.1027
  625MOL0     C86123   8.609   6.822   7.957 -0.8970 -0.2078  0.2847
  625MOL0     C86124   8.721   6.714   7.951  0.7401  0.0795  0.5204
  625MOL0     C86125   8.860   6.758   7.986 -0.0188 -0.1758 -0.1290
  625MOL0     C86126   8.952   6.782   7.864 -0.6081 -0.5081 -0.6985
  625MOL0     C86127   9.101   6.771   7.904  0.3511  0.7860  0.1818
  625MOL0     C86128   9.185   6.771   7.780 -0.1241  0.6179  0.9395
  625MOL0     N86129   9.319   6.796   7.817  0.1469  0.3070  0.2457
  625MOL0     C86130   9.377   6.921   7.831  0.9406  0.0974  0.7725
  625MOL0     C86131   9.495   6.901   7.895 -0.2268  0.0788  0.5976
  625MOL0     C86132   9.606   7.002   7.929 -0.6783  0.2751 -0.1885
  625MOL0     C86133   9.679   7.074   7.816  0.4005  0.9468  0.0841
  625MOL0     C86134   9.776   7.181   7.864  0.0118  0.2132  0.4770
  625MOL0     C86135   9.849   7.229   7.741 -0.6496 -0.5559 -0.6088
  625MOL0     O86136   9.925   7.352   7.761 -0.1848  0.0480 -0.5255
  625MOL0     C86137   9.984   7.420   7.657 -0.1466  0.1088  0.3960
  625MOL0     C86138   9.960   7.385   7.518  0.2413 -0.1123 -0.4813
  625MOL0     C86139  10.039   7.449   7.416 -0.2362 -0.0356 -0.9259
  625MOL0     C86140  10.012   7.409   7.276  0.1385  0.1184  0.0424
  625MOL0     C86141  10.140   7.540   7.459 -0.0524 -1.2310  0.0776
  625MOL0     C86142  10.243   7.588   7.366  0.1795 -0.3823 -0.1249
  625MOL0     O86143  10.370   7.583   7.411 -0.2409 -0.6329 -0.4473
  625MOL0     C86144  10.468   7.655   7.338 -0.3259 -1.1328 -0.6028
  625MOL0     C86145  10.446   7.793   7.300  0.0075 -0.1480 -0.7369
  625MOL0     C86146  10.547   7.877   7.243  0.3726 -0.5041 -0.3014
  625MOL0     C86147  10.674   7.815   7.236  0.3632 -0.0719 -0.2291
  625MOL0     O86148  10.782   7.873   7.184 -0.5378  0.2752 -0.3914
  625MOL0     C86149  10.794   8.012   7.162  0.1100 -0.4354  0.4325
  625MOL0     C86150  10.934   8.054   7.103  0.0517 -0.2618  0.8694
  625MOL0     C86151  10.977   7.967   6.984  0.6298 -0.3371 -0.0312
  625MOL0     C86152  11.118   8.008   6.936  0.2382  0.0470  0.1603
  625MOL0     C86153  11.220   7.959   7.038  0.0921 -0.1449 -0.7167
  625MOL0     C86154  11.370   7.948   6.990  0.3793 -0.6456  0.5294
  625MOL0     C86155  11.427   8.084   6.951  0.5783 -0.2799  0.0505
  625MOL0     C86156  11.567   8.082   6.889  0.1898 -0.7016 -0.6682
  625MOL0    Cl86157  11.586   7.982   6.739  0.0127 -0.0723 -0.0292
  625MOL0     C86158  10.691   7.688   7.281  0.4727 -0.2599  0.0896
  625MOL0     C86159  10.591   7.608   7.335 -0.4720  0.3503 -0.2706
  625MOL0     O86160  10.220   7.633   7.256  0.0552  0.5825 -0.2042
  625MOL0     C86161  10.155   7.572   7.594 -0.2184  0.2475 -0.3857
  625MOL0     C86162  10.085   7.508   7.690  0.0418 -0.0670  0.4920
  625MOL0     N86163   9.493   6.765   7.926 -0.1359 -0.5119 -0.0320
  625MOL0     N86164   9.384   6.702   7.894  0.7996 -0.1318  0.6705
  625MOL0     C86165   8.079   6.914   7.938  0.5128  0.6509 -0.6196
  625MOL0     C86166   7.937   6.932   7.951 -0.3439 -0.0736 -0.3803
  625MOL0     C86167   7.521   7.032   7.917  0.6882 -0.5997 -0.1671
  625MOL0     C86168   7.468   7.158   7.953 -0.4061  0.6874 -0.0045
  625MOL0     C86169   7.339   7.188   7.992  0.5052 -0.9085 -0.3053
  625MOL0     C86170   7.252   7.076   8.006  0.6552 -0.4601 -0.2958
  625MOL0     O86171   7.112   7.099   8.031 -0.6550  0.5317  0.7535
  625MOL0     C86172   7.018   7.053   7.928  0.4321 -0.7313  0.8149
  625MOL0     C86173   7.004   7.158   7.817 -0.1425 -0.6064 -0.5020
  625MOL0     C86174   6.903   7.098   7.720 -0.1894 -0.4553 -0.4347
  625MOL0     C86175   6.912   7.168   7.587 -0.0090 -1.2963  0.0523
  625MOL0     C86176   6.812   7.279   7.568 -0.6332  1.4487 -0.0721
  625MOL0     C86177   6.744   7.379   7.542 -0.4030  0.1013 -0.6808
  625MOL0     C86178   7.302   6.945   7.988  0.0772  0.3552  0.1418
  625MOL0     C86179   7.430   6.920   7.946  0.8086 -0.1653  0.1869
  625MOL0     C86180   7.475   6.779   7.926  0.3069 -0.1928  0.1003
  625MOL0     H86181   7.847   6.776   7.656  2.3121 -2.6342  0.1708
  625MOL0     H86182   8.099   6.745   7.645  1.0979  0.7827 -0.9544
  625MOL0     H86183   8.315   6.793   8.020  0.1028  1.0024  0.1168
  625MOL0     H86184   8.383   6.941   7.945 -3.2123  1.4828 -2.4715
  625MOL0     H86185   8.484   6.654   7.904 -1.1014 -0.4857 -2.4101
  625MOL0     H86186   8.490   6.779   7.775 -0.9105  3.5953  0.2486
  625MOL0     H86187   8.648   6.913   7.913  0.6791 -1.6273 -1.3906
  625MOL0     H86188   8.588   6.846   8.062 -1.8644 -1.3615  0.3876
  625MOL0     H86189   8.683   6.637   8.019 -1.4466  0.2887 -0.3905
  625MOL0     H86190   8.730   6.668   7.852  2.0957 -2.5059  1.7299
  625MOL0     H86191   8.899   6.679   8.051  0.3042  1.7553  2.1656
  625MOL0     H86192   8.857   6.843   8.055 -0.1773  0.4196 -0.8690
  625MOL0     H86193   8.927   6.714   7.782 -2.8319  2.4216 -2.6670
  625MOL0     H86194   8.933   6.880   7.819 -0.0881 -0.6021 -1.1256
  625MOL0     H86195   9.115   6.672   7.947 -0.2938  1.0969  1.1455
  625MOL0     H86196   9.128   6.847   7.977 -0.6314  0.3508  1.0184
  625MOL0     H86197   9.176   6.672   7.736  0.5517  0.6481  0.7113
  625MOL0     H86198   9.160   6.842   7.700 -0.4740 -1.4243 -0.8327
  625MOL0     H86199   9.344   7.019   7.798 -1.3452  0.0683  2.6590
  625MOL0     H86200   9.676   6.945   7.991 -0.0392  0.7273 -0.4880
  625MOL0     H86201   9.559   7.072   7.999 -0.7165  0.6457 -0.5797
  625MOL0     H86202   9.728   6.994   7.758  1.2222  0.8773  0.8570
  625MOL0     H86203   9.595   7.101   7.750 -2.1497 -4.0574  0.7608
  625MOL0     H86204   9.722   7.267   7.905 -1.0846  0.3368 -1.1179
  625MOL0     H86205   9.848   7.137   7.933  1.5906 -0.4494 -1.4706
  625MOL0     H86206   9.928   7.157   7.719  1.7011  1.1949  1.5512
  625MOL0     H86207   9.766   7.243   7.670 -0.6295 -0.7247 -0.6640
  625MOL0     H86208   9.898   7.301   7.488 -0.2302 -0.1880  0.6789
  625MOL0     H86209   9.916   7.454   7.249  0.3332  2.1693  2.3960
  625MOL0     H86210  10.023   7.301   7.262  1.7258  0.4896 -2.0523
  625MOL0     H86211  10.094   7.440   7.211  2.1034 -1.2556  1.7085
  625MOL0     H86212  10.348   7.837   7.316  0.4739  1.1303 -1.2452
  625MOL0     H86213  10.517   7.979   7.221 -0.7957 -1.1715 -1.9863
  625MOL0     H86214  10.716   8.032   7.089  0.4607  0.1621  0.2217
  625MOL0     H86215  10.781   8.066   7.256 -0.3825  1.9625 -0.9542
  625MOL0     H86216  10.936   8.158   7.068 -0.7417 -0.7166 -0.6537
  625MOL0     H86217  11.002   8.041   7.187 -2.4961 -1.3761  2.8814
  625MOL0     H86218  10.906   7.967   6.900 -1.4807 -2.5132  1.6292
  625MOL0     H86219  10.989   7.863   7.013  3.8697  0.1387  0.6486
  625MOL0     H86220  11.129   8.117   6.933  0.4284  0.1695  2.9463
  625MOL0     H86221  11.142   7.960   6.841 -2.4049 -0.9391 -0.0910
  625MOL0     H86222  11.223   8.017   7.131 -0.4985  1.5301 -1.6900
  625MOL0     H86223  11.189   7.858   7.063  0.2494 -0.1089 -0.3649
  625MOL0     H86224  11.383   7.882   6.904  0.7625  1.7176 -1.3334
  625MOL0     H86225  11.435   7.908   7.069  1.0026  3.1683  2.1601
  625MOL0     H86226  11.430   8.149   7.038  1.7216  0.6497 -0.6402
  625MOL0     H86227  11.362   8.139   6.882 -0.8474  2.4707  3.3203
  625MOL0     H86228  11.638   8.046   6.964  2.4086  0.3084 -2.1564
  625MOL0     H86229  11.597   8.185   6.869 -0.9293 -0.3262 -0.4824
  625MOL0     H86230  10.790   7.646   7.293  1.2321  2.0718  3.2805
  625MOL0     H86231  10.624   7.511   7.373 -0.4600  0.0610 -1.0020
  625MOL0     H86232  10.233   7.634   7.636  1.4048 -2.1202  0.2801
  625MOL0     H86233  10.102   7.541   7.792 -2.1750 -0.6708  1.1004
  625MOL0     H86234   8.148   6.942   8.018  3.6017 -4.0577 -1.2226
  625MOL0     H86235   7.884   6.974   8.036  0.4539 -1.4920  0.8670
  625MOL0     H86236   7.541   7.238   7.951  1.9834 -1.1704  3.2058
  625MOL0     H86237   7.294   7.287   7.994  1.2974 -0.5502  0.2504
  625MOL0     H86238   7.062   6.972   7.869  1.1152 -0.0916  0.4408
  625MOL0     H86239   6.920   7.018   7.962 -0.8658 -0.4406 -2.2523
  625MOL0     H86240   7.105   7.160   7.776  1.5485  0.1795  3.3163
  625MOL0     H86241   6.967   7.257   7.844 -0.0231 -0.8533  0.6158
  625MOL0     H86242   6.934   6.997   7.691  0.2844  0.3767 -3.1739
  625MOL0     H86243   6.807   7.110   7.771  0.5371  1.3549  0.6176
  625MOL0     H86244   6.895   7.100   7.503 -0.7156  1.0302 -1.7950
  625MOL0     H86245   7.009   7.217   7.573 -1.0530  0.5303 -1.4147
  625MOL0     H86246   6.679   7.459   7.513  0.2117  0.9235  0.1626
  625MOL0     H86247   7.241   6.862   8.024  1.2572 -0.8117 -0.4488
  625MOL0     H86248   7.568   6.762   7.982  0.3086 -2.2524 -0.4520
  625MOL0     H86249   7.403   6.706   7.966 -2.0780  2.6546  1.4494
  625MOL0     H86250   7.493   6.757   7.821  2.8087  0.0168  0.4354
  626MOL0     O86251   2.569   7.767   0.158 -0.1729  0.4011  0.0944
  626MOL0     C86252   2.583   7.834   0.260 -1.1031  0.4645  0.3784
  626MOL0     O86253   2.708   7.859   0.316  0.2147  0.7413  0.7714
  626MOL0     C86254   2.816   7.774   0.293 -0.1801  0.7285  0.5659
  626MOL0     C86255   2.939   7.832   0.341  0.1274  1.1416  0.0640
  626MOL0     C86256   3.060   7.749   0.324 -0.5060 -0.6459  0.6282
  626MOL0     C86257   3.064   7.622   0.258  1.2388  0.2543 -0.7200
  626MOL0     O86258   3.168   7.534   0.253 -0.5058 -0.2897  0.0744
  626MOL0     C86259   3.289   7.564   0.322 -0.8611 -0.5492  0.2305
  626MOL0     C86260   3.383   7.454   0.282  0.4917  0.7889  0.0296
  626MOL0     C86261   3.509   7.447   0.373  0.0428  0.4780 -0.5340
  626MOL0     C86262   3.605   7.339   0.320  0.4873 -0.6256 -0.6195
  626MOL0     C86263   3.725   7.301   0.412  0.3649  0.6264 -0.0636
  626MOL0     C86264   3.810   7.195   0.338  0.0652 -0.4364  0.0055
  626MOL0     C86265   3.952   7.187   0.407  0.6632  0.8191  0.0964
  626MOL0     C86266   3.952   7.134   0.552  0.2729 -0.5523  0.2741
  626MOL0     N86267   4.093   7.124   0.600  0.4006  0.0308  0.3630
  626MOL0     C86268   4.164   7.007   0.587 -0.1931 -1.0066 -0.1208
  626MOL0     C86269   4.294   7.046   0.606  0.0425 -0.6981  0.3150
  626MOL0     C86270   4.409   6.945   0.582  0.1187 -0.5451  0.1002
  626MOL0     C86271   4.535   7.037   0.570 -1.2904  0.3668 -0.0392
  626MOL0     C86272   4.660   6.951   0.533 -0.0374 -1.5791  0.0842
  626MOL0     C86273   4.776   7.025   0.583 -0.0230  0.6428 -0.0683
  626MOL0     O86274   4.897   6.964   0.532  0.3642  0.7300 -0.8034
  626MOL0     C86275   5.014   7.037   0.542 -0.6561  0.2967  0.1261
  626MOL0     C86276   5.111   7.013   0.442 -0.0932  0.2609  0.4071
  626MOL0     C86277   5.235   7.081   0.434 -0.5979  0.3545 -0.0789
  626MOL0     C86278   5.326   7.038   0.327 -0.0009  0.6446 -0.1588
  626MOL0     C86279   5.256   7.187   0.520 -0.1394  0.7803 -0.2161
  626MOL0     C86280   5.375   7.267   0.518 -0.1893 -0.8054  0.4016
  626MOL0     O86281   5.427   7.299   0.639 -0.1966  0.1410 -0.2055
  626MOL0     C86282   5.552   7.365   0.642 -0.2416 -0.7858 -0.1739
  626MOL0     C86283   5.563   7.483   0.717  0.2834 -0.2584  0.5949
  626MOL0     C86284   5.679   7.559   0.722 -0.4492  0.7429  0.1017
  626MOL0     C86285   5.791   7.522   0.657  0.0270  0.6581  0.9781
  626MOL0     O86286   5.900   7.614   0.653 -0.0347  0.4367  0.2548
  626MOL0     C86287   6.027   7.582   0.585  1.2058 -0.6890  0.3374
  626MOL0     C86288   6.118   7.703   0.587 -0.0029  0.3004 -0.7921
  626MOL0     C86289   6.186   7.742   0.727  0.3442  0.1024  0.2783
  626MOL0     C86290   6.336   7.776   0.730  0.0951  0.2611 -0.5300
  626MOL0     C86291   6.370   7.898   0.646 -0.8522  1.1827  0.4537
  626MOL0     C86292   6.320   8.028   0.700  0.8990  0.4149 -0.3609
  626MOL0     C86293   6.377   8.150   0.627 -0.4175  0.0037  0.0024
  626MOL0     C86294   6.518   8.178   0.663 -0.6715  0.0396 -0.0634
  626MOL0    Cl86295   6.595   8.289   0.556 -0.5214 -0.2583 -0.2886
  626MOL0     C86296   5.789   7.408   0.585  0.2650  0.1875  0.0336
  626MOL0     C86297   5.669   7.329   0.577  0.8334 -0.1618 -0.1808
  626MOL0     O86298   5.409   7.313   0.408  0.1409 -0.8401 -0.2465
  626MOL0     C86299   5.159   7.211   0.623  0.2665  0.0168 -0.6158
  626MOL0     C86300   5.041   7.141   0.624 -0.1016 -0.6604  0.0334
  626MOL0     N86301   4.299   7.185   0.631  0.8537  1.2015 -0.4158
  626MOL0     N86302   4.177   7.231   0.615 -0.1243  0.8856  0.9969
  626MOL0     C86303   2.943   7.580   0.206  0.4779 -0.2258  0.8792
  626MOL0     C86304   2.825   7.653   0.218  0.0742 -0.2269  0.9888
  626MOL0     C86305   2.457   7.873   0.322  0.5163  0.8442 -0.8180
  626MOL0     C86306   2.339   7.885   0.248  1.4187 -0.0322 -0.0438
  626MOL0     C86307   2.218   7.916   0.307  0.6006 -0.0574 -1.2000
  626MOL0     C86308   2.207   7.946   0.442  0.7202  0.4578 -0.7284
  626MOL0     O86309   2.082   8.004   0.479 -0.1942 -0.9132  0.2335
  626MOL0     C86310   2.063   8.068   0.609 -0.3641  0.0816  0.2432
  626MOL0     C86311   2.125   8.200   0.622  0.1986 -0.3142 -0.4424
  626MOL0     C86312   2.043   8.311   0.548  0.6727 -0.5924 -0.1193
  626MOL0     C86313   2.125   8.330   0.421 -0.5074  0.1944  0.7297
  626MOL0     C86314   2.044   8.418   0.333  0.0284 -0.0077 -0.8475
  626MOL0     C86315   1.970   8.478   0.260 -0.5428 -0.4661 -0.1420
  626MOL0     C86316   2.320   7.927   0.522 -0.1899  0.2139 -0.4730
  626MOL0     C86317   2.442   7.887   0.462 -0.4283  0.8805  0.0545
  626MOL0     C86318   2.564   7.876   0.553  1.0179  0.0555 -0.1461
  626MOL0     H86319   2.931   7.923   0.401  2.2844  0.0230  2.2022
  626MOL0     H86320   3.154   7.792   0.357  0.2990 -0.0287 -2.1854
  626MOL0     H86321   3.277   7.568   0.430 -1.1875  2.0848  0.1439
  626MOL0     H86322   3.339   7.654   0.286  0.9787 -1.7799 -0.4506
  626MOL0     H86323   3.322   7.364   0.294 -2.9027  3.0448  1.4481
  626MOL0     H86324   3.407   7.460   0.176 -2.8771 -1.3272 -0.9880
  626MOL0     H86325   3.562   7.543   0.376  1.0523 -0.0848  0.8200
  626MOL0     H86326   3.482   7.405   0.470  0.0569  0.9334 -0.3260
  626MOL0     H86327   3.553   7.246   0.293  0.5387  0.5124 -5.3759
  626MOL0     H86328   3.634   7.384   0.225 -3.9133  1.0755 -1.4202
  626MOL0     H86329   3.691   7.251   0.503 -1.9292  0.7333 -0.7876
  626MOL0     H86330   3.791   7.386   0.427  1.7192  0.4157 -3.7001
  626MOL0     H86331   3.759   7.099   0.335 -0.3961 -0.1765 -1.9803
  626MOL0     H86332   3.832   7.225   0.235 -0.6084  1.3175  0.3397
  626MOL0     H86333   3.997   7.287   0.407 -1.7187  1.9853  0.3316
  626MOL0     H86334   4.011   7.115   0.351  3.0165  1.3899  1.6893
  626MOL0     H86335   3.901   7.206   0.616  0.0486  0.4420 -1.0065
  626MOL0     H86336   3.901   7.037   0.557 -0.8525 -0.0264 -0.6752
  626MOL0     H86337   4.121   6.910   0.562 -0.9394 -0.5520 -0.6279
  626MOL0     H86338   4.382   6.899   0.487 -0.2182  1.2183 -0.6989
  626MOL0     H86339   4.420   6.866   0.657  0.8830 -1.0730 -0.5582
  626MOL0     H86340   4.525   7.115   0.494 -0.2000  1.8840  1.2814
  626MOL0     H86341   4.551   7.089   0.665 -2.4305 -1.7803  1.3980
  626MOL0     H86342   4.657   6.858   0.590 -0.1473 -0.0392  2.8012
  626MOL0     H86343   4.663   6.924   0.427  0.5733 -0.7719 -0.1141
  626MOL0     H86344   4.767   7.128   0.549 -2.8106  0.0930 -1.2750
  626MOL0     H86345   4.774   7.020   0.692 -2.3392 -0.5366 -0.0904
  626MOL0     H86346   5.088   6.944   0.361 -0.2850 -0.8890  1.4199
  626MOL0     H86347   5.307   7.087   0.231 -0.0530  1.0135  0.0418
  626MOL0     H86348   5.321   6.929   0.316 -0.9673  0.7151 -0.4600
  626MOL0     H86349   5.428   7.053   0.363 -0.7407  1.2872  1.7827
  626MOL0     H86350   5.474   7.531   0.755  0.6940  0.2956  0.8650
  626MOL0     H86351   5.677   7.657   0.769 -1.9988  0.7904 -0.0192
  626MOL0     H86352   6.078   7.494   0.625  0.5093 -1.0826  0.3729
  626MOL0     H86353   6.001   7.570   0.479  0.9528 -0.9097  0.4227
  626MOL0     H86354   6.194   7.685   0.510 -1.0972 -1.5970 -1.4882
  626MOL0     H86355   6.056   7.788   0.556  0.6537 -0.2558 -4.0595
  626MOL0     H86356   6.186   7.652   0.790  1.5625 -0.1344 -0.0259
  626MOL0     H86357   6.136   7.826   0.775  2.5976  1.3607  0.5963
  626MOL0     H86358   6.387   7.689   0.688  1.0554 -0.2209  1.5258
  626MOL0     H86359   6.378   7.786   0.830  1.9988 -0.5592 -1.2012
  626MOL0     H86360   6.479   7.904   0.637 -0.7658 -1.1273 -0.4797
  626MOL0     H86361   6.334   7.889   0.543 -0.4993 -0.8526  0.4856
  626MOL0     H86362   6.342   8.042   0.806  2.2088  0.6699 -0.6535
  626MOL0     H86363   6.212   8.041   0.685  0.5408  0.8284  2.1899
  626MOL0     H86364   6.302   8.227   0.644 -1.0227 -0.1587 -1.7541
  626MOL0     H86365   6.373   8.121   0.521  0.8248  0.4826 -0.1878
  626MOL0     H86366   6.585   8.091   0.660  1.5444  1.5727  1.5289
  626MOL0     H86367   6.527   8.208   0.767 -1.4733 -2.1123  0.6799
  626MOL0     H86368   5.880   7.369   0.541 -0.8611 -2.7979  0.1356
  626MOL0     H86369   5.675   7.237   0.520 -1.3091 -3.1581  3.9364
  626MOL0     H86370   5.169   7.301   0.683 -2.2727 -1.2670  1.9649
  626MOL0     H86371   4.973   7.187   0.694  0.8404  0.0489  0.5083
  626MOL0     H86372   2.941   7.479   0.166  0.2109  0.5243 -1.1076
  626MOL0     H86373   2.734   7.610   0.179 -1.2112  1.8065  1.5677
  626MOL0     H86374   2.344   7.869   0.140  1.0577  2.5353 -0.5049
  626MOL0     H86375   2.125   7.936   0.256 -1.0161 -2.4173  0.6289
  626MOL0     H86376   1.957   8.071   0.636 -0.3437 -1.4913  0.5705
  626MOL0     H86377   2.114   8.007   0.683 -0.2663  2.8239  2.5998
  626MOL0     H86378   2.233   8.206   0.605  0.3510  0.6637  0.7197
  626MOL0     H86379   2.115   8.229   0.727 -3.4046 -2.4876 -0.0314
  626MOL0     H86380   1.937   8.286   0.539 -0.4264  3.4952 -0.2071
  626MOL0     H86381   2.044   8.404   0.605  2.9589 -1.3089  1.1750
  626MOL0     H86382   2.143   8.241   0.360 -2.5479  1.4484 -1.8973
  626MOL0     H86383   2.223   8.376   0.443 -1.5572  1.4877  3.0662
  626MOL0     H86384   1.901   8.521   0.191  0.7249  0.7598 -0.7086
  626MOL0     H86385   2.303   7.936   0.629 -2.5254 -0.5077 -0.7223
  626MOL0     H86386   2.534   7.875   0.658 -1.1601 -1.1290 -0.7221
  626MOL0     H86387   2.623   7.786   0.533  0.3681  0.1999 -3.2249
  626MOL0     H86388   2.624   7.965   0.534 -0.7084  1.5512  1.0481
  627MOL0     O86389   1.346   1.735   1.153 -0.1269  0.2661 -0.1493
  627MOL0     C86390   1.334   1.784   1.043  0.3998  0.6547  0.1816
  627MOL0     O86391   1.419   1.767   0.934  0.0800 -0.2861 -0.0153
  627MOL0     C86392   1.540   1.707   0.962 -0.6310 -1.2632  0.0338
  627MOL0     C86393   1.583   1.578   0.934 -0.4151 -0.4188 -0.1109
  627MOL0     C86394   1.708   1.535   0.969 -0.7052 -0.1306 -0.1520
  627MOL0     C86395   1.800   1.624   1.030  0.7192 -0.2504 -0.2117
  627MOL0     O86396   1.929   1.596   1.067  0.0716 -0.3704  0.4680
  627MOL0     C86397   1.960   1.454   1.056 -0.6881  0.6539 -0.3649
  627MOL0     C86398   2.101   1.422   1.102 -0.4029 -0.2808 -0.5764
  627MOL0     C86399   2.118   1.457   1.255 -0.3961 -0.7175 -0.4161
  627MOL0     C86400   2.270   1.472   1.293 -0.7380  0.6502 -0.9183
  627MOL0     C86401   2.305   1.438   1.439 -0.2178 -0.9005 -0.1513
  627MOL0     C86402   2.454   1.420   1.456  0.1793 -0.1310  0.4011
  627MOL0     C86403   2.531   1.559   1.441 -0.8595  0.3099  0.3521
  627MOL0     C86404   2.655   1.563   1.536  0.0151 -0.3221  0.1794
  627MOL0     N86405   2.624   1.630   1.662  0.5012  0.2705 -0.4052
  627MOL0     C86406   2.710   1.706   1.743 -0.1536  0.9530 -0.0182
  627MOL0     C86407   2.642   1.702   1.858 -1.2168  0.4360  0.1388
  627MOL0     C86408   2.702   1.767   1.989  0.2105  0.4376 -0.5708
  627MOL0     C86409   2.632   1.905   2.011 -0.0755 -0.0764 -0.4616
  627MOL0     C86410   2.642   1.992   1.881  0.0414  0.1609  0.3401
  627MOL0     C86411   2.591   2.131   1.913  0.2262 -0.2589  0.1037
  627MOL0     O86412   2.454   2.122   1.952 -0.8209 -0.5973 -0.1085
  627MOL0     C86413   2.379   2.243   1.951 -0.0395 -0.4195  0.3775
  627MOL0     C86414   2.428   2.379   1.948  1.5127  0.0910  0.5240
  627MOL0     C86415   2.344   2.485   1.961 -0.4322 -0.7493 -1.0665
  627MOL0     C86416   2.413   2.623   1.950 -0.7067  0.3092  0.5847
  627MOL0     C86417   2.210   2.478   1.984 -0.1356  0.6616 -0.3742
  627MOL0     C86418   2.112   2.588   2.009  0.0827  0.0114 -0.1258
  627MOL0     O86419   2.145   2.719   1.964  0.3620  0.4406 -0.1179
  627MOL0     C86420   2.051   2.812   1.990  0.5582  0.0723  0.3597
  627MOL0     C86421   1.994   2.839   2.118 -0.8391 -0.5392  0.7175
  627MOL0     C86422   1.883   2.928   2.123  0.2356 -0.2433 -0.3141
  627MOL0     C86423   1.818   2.974   2.008  0.6050 -0.6247 -0.0627
  627MOL0     O86424   1.701   3.047   2.004  0.1227  0.2785 -0.4943
  627MOL0     C86425   1.634   3.067   2.128 -0.2606  0.0835 -0.0115
  627MOL0     C86426   1.514   3.156   2.113  0.0331  0.3514  0.0411
  627MOL0     C86427   1.386   3.077   2.062 -0.2656  0.3403  0.0732
  627MOL0     C86428   1.375   3.104   1.920 -0.8334 -0.3253 -0.7331
  627MOL0     C86429   1.241   3.069   1.874 -0.4214  0.3711  0.4625
  627MOL0     C86430   1.225   2.922   1.874  0.2682 -0.2863  0.9733
  627MOL0     C86431   1.091   2.874   1.811  0.4714  0.3782 -0.2528
  627MOL0     C86432   1.071   2.725   1.845 -0.6638  0.4066 -0.4058
  627MOL0    Cl86433   1.195   2.607   1.792 -0.4278 -0.0595  0.3301
  627MOL0     C86434   1.884   2.955   1.891  0.1288 -0.2013  0.0763
  627MOL0     C86435   2.001   2.875   1.873  1.1173  0.1537  1.0600
  627MOL0     O86436   2.020   2.555   2.090  0.2919  0.2653  0.1815
  627MOL0     C86437   2.156   2.346   1.982 -0.0159 -0.4002 -0.6094
  627MOL0     C86438   2.237   2.233   1.967  0.1927 -0.0593  0.6595
  627MOL0     N86439   2.526   1.623   1.851  0.0209 -0.5053 -0.1139
  627MOL0     N86440   2.512   1.581   1.735  0.5717 -0.3393 -0.5874
  627MOL0     C86441   1.767   1.757   1.055 -0.0299  0.0481  0.6972
  627MOL0     C86442   1.633   1.798   1.020  0.2741 -0.5394  0.1924
  627MOL0     C86443   1.213   1.858   1.016  0.3290  0.5411  0.5922
  627MOL0     C86444   1.099   1.811   1.080 -0.5778  0.2857 -0.0451
  627MOL0     C86445   0.982   1.887   1.063  0.7233  0.8880  1.0089
  627MOL0     C86446   0.972   2.000   0.992  0.2854  0.1933 -0.7919
  627MOL0     O86447   0.852   2.050   0.982  0.1086 -0.6863  0.0475
  627MOL0     C86448   0.825   2.153   0.886  0.7095  0.7992 -0.7470
  627MOL0     C86449   0.675   2.200   0.885 -0.1144  0.0512 -0.0906
  627MOL0     C86450   0.642   2.288   1.009  0.3707 -0.5334  0.2502
  627MOL0     C86451   0.707   2.435   1.001 -0.3525 -0.2242  0.2657
  627MOL0     C86452   0.850   2.450   1.027  0.3301 -0.2589  0.0018
  627MOL0     C86453   0.970   2.457   1.035 -0.2123  0.3968  0.0587
  627MOL0     C86454   1.083   2.065   0.943 -0.2032 -0.7305 -1.0468
  627MOL0     C86455   1.206   1.985   0.953 -0.2735 -0.9295  0.0574
  627MOL0     C86456   1.324   2.042   0.875 -0.8337  0.2470  0.1215
  627MOL0     H86457   1.514   1.511   0.885 -0.1336  1.0255 -2.6835
  627MOL0     H86458   1.717   1.428   0.957 -0.6785 -0.3574  1.5369
  627MOL0     H86459   1.955   1.425   0.950  2.6728 -0.3745 -0.3635
  627MOL0     H86460   1.892   1.406   1.127 -1.5237  0.8269 -1.0243
  627MOL0     H86461   2.142   1.322   1.090 -1.7724 -0.7946 -1.1418
  627MOL0     H86462   2.179   1.482   1.054  0.9515 -0.5723  1.1531
  627MOL0     H86463   2.062   1.546   1.284  0.2047 -1.1782  2.5140
  627MOL0     H86464   2.081   1.378   1.322 -1.8776 -0.6095 -1.0714
  627MOL0     H86465   2.320   1.395   1.233 -0.3805 -0.5818  0.9059
  627MOL0     H86466   2.305   1.571   1.264 -2.0110  1.4820  0.2460
  627MOL0     H86467   2.260   1.343   1.470  2.3761 -2.6442 -1.3939
  627MOL0     H86468   2.280   1.517   1.511  4.0746  0.1759  0.4446
  627MOL0     H86469   2.460   1.377   1.557 -1.9418 -1.1804  0.1369
  627MOL0     H86470   2.494   1.349   1.384  0.2161  0.8004 -0.5138
  627MOL0     H86471   2.462   1.642   1.463 -1.9600 -0.9245  1.7839
  627MOL0     H86472   2.557   1.564   1.335 -1.6282 -1.4644  0.0451
  627MOL0     H86473   2.685   1.461   1.562  0.6935 -0.9075 -2.6015
  627MOL0     H86474   2.738   1.613   1.486 -0.5093 -1.6195 -2.1934
  627MOL0     H86475   2.808   1.749   1.730  0.0750  0.5228  0.2832
  627MOL0     H86476   2.810   1.772   1.972  0.4448 -2.3629 -0.3642
  627MOL0     H86477   2.695   1.703   2.077  1.0274  0.6138 -0.3733
  627MOL0     H86478   2.528   1.897   2.044  0.2885  1.2980  1.1407
  627MOL0     H86479   2.687   1.964   2.084 -2.3510  0.4106  0.9553
  627MOL0     H86480   2.743   2.005   1.840 -0.9646 -0.7831 -2.7488
  627MOL0     H86481   2.583   1.951   1.799  0.4995 -1.3565  0.7218
  627MOL0     H86482   2.643   2.178   1.997 -0.1373  2.8365 -1.2524
  627MOL0     H86483   2.590   2.204   1.831 -2.8249 -2.4613 -2.0593
  627MOL0     H86484   2.535   2.392   1.962  2.3177 -1.9204 -2.7012
  627MOL0     H86485   2.379   2.673   1.859 -0.7420  0.3209  0.6041
  627MOL0     H86486   2.521   2.607   1.939 -0.7545  0.3771 -0.0155
  627MOL0     H86487   2.386   2.687   2.035  0.3204 -0.9106  1.8741
  627MOL0     H86488   2.036   2.792   2.206 -0.7701 -0.6482  0.6255
  627MOL0     H86489   1.848   2.957   2.221  0.7706 -0.4295 -0.0642
  627MOL0     H86490   1.614   2.967   2.169  2.4335 -1.0258 -1.2203
  627MOL0     H86491   1.698   3.121   2.198 -1.7260  1.7632  0.1014
  627MOL0     H86492   1.494   3.191   2.215 -1.6322  3.9027 -1.3228
  627MOL0     H86493   1.528   3.240   2.044 -1.8073  1.4089  0.8736
  627MOL0     H86494   1.297   3.124   2.105 -0.3747  1.3168 -1.1545
  627MOL0     H86495   1.386   2.970   2.084 -4.0250  0.2890  0.4221
  627MOL0     H86496   1.444   3.046   1.858 -1.5380 -0.1734 -1.6968
  627MOL0     H86497   1.384   3.207   1.886 -0.6634 -0.2326 -0.4087
  627MOL0     H86498   1.164   3.112   1.939  1.6436  2.5525  1.5947
  627MOL0     H86499   1.224   3.115   1.776 -1.0705  2.2155  1.3919
  627MOL0     H86500   1.216   2.875   1.972 -3.0794 -0.4778  0.6881
  627MOL0     H86501   1.313   2.880   1.824  1.7778  1.5840  1.9421
  627MOL0     H86502   1.082   2.878   1.702  1.0576  0.3514 -0.3029
  627MOL0     H86503   1.014   2.931   1.864  0.6826  0.3231  0.1067
  627MOL0     H86504   0.976   2.685   1.809  0.0344 -2.2748  0.4176
  627MOL0     H86505   1.068   2.709   1.953  1.4475 -1.4035 -0.5296
  627MOL0     H86506   1.830   2.991   1.805 -4.1512 -1.6320  1.9011
  627MOL0     H86507   2.044   2.870   1.774 -0.2392 -0.3267  0.4715
  627MOL0     H86508   2.048   2.338   1.987  0.1571 -2.6613  1.8587
  627MOL0     H86509   2.191   2.135   1.975  0.6361 -0.2312  1.1950
  627MOL0     H86510   1.839   1.830   1.091 -1.4396  0.9872  1.7233
  627MOL0     H86511   1.594   1.896   1.045  0.4215 -0.7488  1.2931
  627MOL0     H86512   1.093   1.716   1.131  1.3520  0.0717 -0.1313
  627MOL0     H86513   0.899   1.854   1.126 -0.1497  0.7246 -0.1902
  627MOL0     H86514   0.886   2.243   0.898 -0.3984  1.2658  2.0302
  627MOL0     H86515   0.846   2.107   0.789 -3.3547 -0.5351 -1.2099
  627MOL0     H86516   0.614   2.109   0.877 -3.0686  1.8264  0.4253
  627MOL0     H86517   0.650   2.255   0.793  0.8316  1.3940  0.4325
  627MOL0     H86518   0.535   2.312   1.014  0.0077 -2.0900  0.6175
  627MOL0     H86519   0.663   2.234   1.102 -0.9400 -2.0190 -0.2754
  627MOL0     H86520   0.662   2.509   1.067  1.1310  0.8088  0.1833
  627MOL0     H86521   0.685   2.473   0.900 -1.9786 -0.4256  0.5239
  627MOL0     H86522   1.074   2.480   1.021 -0.5915  2.0120 -0.3603
  627MOL0     H86523   1.081   2.164   0.898 -0.9762  0.7674  1.9853
  627MOL0     H86524   1.372   1.977   0.801  0.3665  2.8275 -1.5223
  627MOL0     H86525   1.295   2.133   0.823 -1.2511 -1.1266 -2.1784
  627MOL0     H86526   1.408   2.073   0.938  2.5753 -0.9825 -3.4267
  628MOL0     O86527   8.774   2.403   2.707  0.7195 -0.2316 -0.0040
  628MOL0     C86528   8.698   2.356   2.798 -0.4969 -0.3326  0.1389
  628MOL0     O86529   8.739   2.325   2.921  0.2385  0.5513  0.4220
  628MOL0     C86530   8.869   2.341   2.962 -0.1277  0.4530  0.2012
  628MOL0     C86531   8.944   2.455   2.931  0.0652  0.2210 -1.0036
  628MOL0     C86532   9.072   2.472   2.983 -0.6421 -0.0495 -0.2162
  628MOL0     C86533   9.135   2.381   3.071  0.6175  0.1576  0.0080
  628MOL0     O86534   9.270   2.389   3.119  0.4176  0.8241  0.1768
  628MOL0     C86535   9.281   2.390   3.263 -0.2770  0.4669  0.4749
  628MOL0     C86536   9.342   2.266   3.320  0.6241 -0.8893 -0.8012
  628MOL0     C86537   9.500   2.274   3.330  0.3232 -0.3396  0.0328
  628MOL0     C86538   9.546   2.133   3.351 -0.6493 -0.0012  0.4487
  628MOL0     C86539   9.696   2.139   3.372  0.0306 -0.3209 -0.4781
  628MOL0     C86540   9.744   1.991   3.373  0.5170 -0.4162  0.3662
  628MOL0     C86541   9.901   1.984   3.382  0.1555 -0.1232  0.5141
  628MOL0     C86542   9.958   2.034   3.516 -0.0708  0.4063 -1.1618
  628MOL0     N86543  10.098   1.994   3.541  0.1158  0.3208  0.2542
  628MOL0     C86544  10.183   1.913   3.469 -1.4718 -0.0039 -0.1424
  628MOL0     C86545  10.318   1.950   3.490 -0.0401  0.0590  0.0753
  628MOL0     C86546  10.438   1.887   3.421 -0.4966 -0.7437 -0.0252
  628MOL0     C86547  10.465   1.750   3.486  0.2769  0.1144 -0.9787
  628MOL0     C86548  10.492   1.758   3.641  0.7929 -0.9698 -0.2000
  628MOL0     C86549  10.579   1.630   3.673 -0.3100 -0.0864 -0.6282
  628MOL0     O86550  10.610   1.627   3.810  0.4130  0.7214 -0.2791
  628MOL0     C86551  10.717   1.551   3.856 -0.0477  0.2459 -0.5194
  628MOL0     C86552  10.761   1.439   3.784 -0.3560 -0.3659 -1.2675
  628MOL0     C86553  10.857   1.349   3.829 -0.6091  0.8174  0.1809
  628MOL0     C86554  10.883   1.229   3.751  0.7287 -0.8654  0.3991
  628MOL0     C86555  10.924   1.386   3.948  0.7538 -0.3029  0.7895
  628MOL0     C86556  11.042   1.313   3.997  0.1705  0.7896  0.0756
  628MOL0     O86557  11.051   1.296   4.127 -0.1300 -0.0330 -0.8725
  628MOL0     C86558  11.148   1.213   4.179 -0.2126 -0.1026 -0.4091
  628MOL0     C86559  11.283   1.240   4.172  0.4612  0.0752 -0.0313
  628MOL0     C86560  11.372   1.167   4.251  0.6696 -0.3505 -0.6225
  628MOL0     C86561  11.333   1.052   4.319 -0.0554 -0.5061  0.6765
  628MOL0     O86562  11.414   0.973   4.395  0.5074 -0.8054 -0.2066
  628MOL0     C86563  11.558   1.007   4.406  0.6196  0.2770  0.1326
  628MOL0     C86564  11.626   0.899   4.497  0.6301 -0.2583  0.6340
  628MOL0     C86565  11.773   0.915   4.527 -0.7209 -0.2229 -0.3636
  628MOL0     C86566  11.806   1.042   4.613  0.2593  0.6180 -0.2210
  628MOL0     C86567  11.947   1.086   4.608  0.0304 -0.2022  0.7037
  628MOL0     C86568  12.041   0.981   4.672 -0.4979 -0.0508  0.1167
  628MOL0     C86569  12.154   1.045   4.764  0.9393 -0.2831  0.6523
  628MOL0     C86570  12.259   1.137   4.703 -0.5311  0.2167  0.6609
  628MOL0    Cl86571  12.368   1.045   4.599 -0.1563  0.3901 -0.3114
  628MOL0     C86572  11.205   1.016   4.314 -0.0353 -0.2305 -0.2927
  628MOL0     C86573  11.109   1.090   4.246 -0.0633  0.2308  0.2570
  628MOL0     O86574  11.126   1.267   3.915  0.2528 -0.4528 -0.5253
  628MOL0     C86575  10.887   1.501   4.019 -0.2694 -0.5847  0.1184
  628MOL0     C86576  10.780   1.577   3.980 -0.0325 -0.3185 -0.0387
  628MOL0     N86577  10.309   2.047   3.586  0.0785  0.8737 -0.7326
  628MOL0     N86578  10.180   2.074   3.608  0.1910 -0.3829  0.4888
  628MOL0     C86579   9.057   2.265   3.107  0.7028 -0.5162  0.0673
  628MOL0     C86580   8.926   2.247   3.048 -0.0679  0.3170 -0.9497
  628MOL0     C86581   8.558   2.323   2.762 -1.2111  0.4178  0.6582
  628MOL0     C86582   8.516   2.196   2.817  0.0841  0.0795 -0.4982
  628MOL0     C86583   8.381   2.144   2.783  0.0097  0.4000 -0.1301
  628MOL0     C86584   8.297   2.230   2.710  0.9165 -0.2345  0.2110
  628MOL0     O86585   8.173   2.172   2.682 -0.0788  0.4300  0.1740
  628MOL0     C86586   8.066   2.255   2.628 -0.6142 -1.1528  0.4459
  628MOL0     C86587   7.946   2.197   2.698  0.2835 -0.6226 -0.0482
  628MOL0     C86588   7.825   2.294   2.693  0.7884 -0.1390 -0.7499
  628MOL0     C86589   7.691   2.219   2.733 -0.7024  0.6257  0.6064
  628MOL0     C86590   7.686   2.178   2.873 -0.2350  0.4855 -0.1687
  628MOL0     C86591   7.670   2.139   2.982 -0.6809 -0.2149 -0.0202
  628MOL0     C86592   8.344   2.348   2.652 -0.2704  0.5934 -1.1211
  628MOL0     C86593   8.468   2.398   2.683 -0.0621 -0.9542  0.1740
  628MOL0     C86594   8.499   2.543   2.633 -0.3095 -0.3173  0.1281
  628MOL0     H86595   8.914   2.539   2.869  4.1351  1.7404 -1.1808
  628MOL0     H86596   9.125   2.565   2.970 -0.7343 -0.2915 -2.7805
  628MOL0     H86597   9.185   2.399   3.315  0.1328 -1.1428  1.6074
  628MOL0     H86598   9.347   2.477   3.277  1.1852  0.3484 -4.1429
  628MOL0     H86599   9.305   2.263   3.423  1.9047  1.7597 -0.1899
  628MOL0     H86600   9.301   2.182   3.262 -0.7378 -0.5811 -0.3113
  628MOL0     H86601   9.554   2.321   3.247  1.4149 -0.7863  0.4716
  628MOL0     H86602   9.517   2.323   3.426  0.5693  0.7780 -0.5659
  628MOL0     H86603   9.497   2.097   3.442 -0.5919 -1.9424 -0.2572
  628MOL0     H86604   9.530   2.067   3.266  0.6277  0.8691 -0.5043
  628MOL0     H86605   9.727   2.190   3.464  1.5139 -1.6052 -0.2200
  628MOL0     H86606   9.733   2.206   3.293 -0.4009  2.9966  1.9333
  628MOL0     H86607   9.700   1.943   3.461  1.8345 -0.0211  1.2832
  628MOL0     H86608   9.714   1.954   3.275  0.5129 -0.5869  0.4321
  628MOL0     H86609   9.941   2.037   3.295 -2.1583 -0.0368 -0.5718
  628MOL0     H86610   9.924   1.879   3.361 -1.6015 -0.2175 -1.2292
  628MOL0     H86611   9.949   2.143   3.520  0.1087  0.3942  2.2692
  628MOL0     H86612   9.896   1.998   3.598  1.1210  0.4902 -0.1915
  628MOL0     H86613  10.157   1.842   3.391  0.4619  2.2246 -3.0526
  628MOL0     H86614  10.521   1.959   3.427  0.5772 -1.7760 -1.5895
  628MOL0     H86615  10.407   1.886   3.316  1.6600 -0.7491 -0.7268
  628MOL0     H86616  10.386   1.676   3.476  0.9348 -1.2369  2.2455
  628MOL0     H86617  10.554   1.711   3.436 -1.3116 -2.2866 -2.0944
  628MOL0     H86618  10.537   1.854   3.668 -3.2771  1.4085 -0.8619
  628MOL0     H86619  10.401   1.762   3.702  0.5031  2.5346 -0.6149
  628MOL0     H86620  10.516   1.542   3.661  1.0826 -1.2091 -0.0025
  628MOL0     H86621  10.665   1.624   3.606 -0.4545 -0.5794 -0.7778
  628MOL0     H86622  10.701   1.415   3.697 -0.1081 -1.5417 -1.1387
  628MOL0     H86623  10.975   1.232   3.693  2.0088  0.9701  2.3844
  628MOL0     H86624  10.804   1.209   3.678  0.4044 -1.3347  0.8653
  628MOL0     H86625  10.880   1.142   3.818 -1.6291 -2.6084 -1.7626
  628MOL0     H86626  11.322   1.326   4.120 -2.2181  1.5370  0.2599
  628MOL0     H86627  11.477   1.195   4.252  0.1062  1.8971 -0.2595
  628MOL0     H86628  11.597   1.009   4.304  0.8468 -1.1351  0.1676
  628MOL0     H86629  11.574   1.109   4.441 -0.1279  0.7825 -0.9207
  628MOL0     H86630  11.578   0.900   4.595  2.7160  3.5540  1.8164
  628MOL0     H86631  11.596   0.810   4.441  2.4804  1.2881 -3.2397
  628MOL0     H86632  11.829   0.918   4.433 -1.5505  1.6382 -0.8405
  628MOL0     H86633  11.806   0.827   4.584 -0.8860 -0.7459 -1.0625
  628MOL0     H86634  11.789   1.019   4.719 -0.0484 -0.3100 -0.4656
  628MOL0     H86635  11.734   1.117   4.578 -1.7827 -0.5729  1.1926
  628MOL0     H86636  11.986   1.102   4.507  0.9667 -3.2431  0.5110
  628MOL0     H86637  11.949   1.168   4.680  1.7412 -0.6319  1.1739
  628MOL0     H86638  12.084   0.920   4.593 -0.5640 -0.4161  0.3596
  628MOL0     H86639  11.987   0.909   4.734  1.5985 -1.2519  0.6333
  628MOL0     H86640  12.209   0.969   4.820  1.1151  0.1016  1.0045
  628MOL0     H86641  12.108   1.105   4.843 -0.2135  0.7596 -0.7519
  628MOL0     H86642  12.319   1.180   4.783 -0.4206  2.1675 -0.4143
  628MOL0     H86643  12.207   1.213   4.644 -1.6583 -2.2671 -1.8124
  628MOL0     H86644  11.191   0.926   4.373  1.5898  0.1981  0.8077
  628MOL0     H86645  11.003   1.069   4.242  0.2042 -1.0325 -2.2688
  628MOL0     H86646  10.934   1.525   4.114  1.2700  0.5469 -0.8781
  628MOL0     H86647  10.738   1.660   4.035  2.9674  0.3439  1.4891
  628MOL0     H86648   9.104   2.191   3.172 -2.1876 -0.5928  2.2818
  628MOL0     H86649   8.871   2.164   3.089 -0.2324  1.0505  0.3691
  628MOL0     H86650   8.574   2.141   2.890 -0.6263  1.5647  1.2587
  628MOL0     H86651   8.342   2.049   2.817  2.4847 -0.3377  0.8654
  628MOL0     H86652   8.085   2.358   2.658  0.4056 -0.5026 -2.1591
  628MOL0     H86653   8.063   2.254   2.519 -2.1632 -0.9471  0.4637
  628MOL0     H86654   7.980   2.187   2.801  1.1734  1.1754 -0.1181
  628MOL0     H86655   7.920   2.100   2.655 -1.8120  0.6616 -1.8874
  628MOL0     H86656   7.838   2.377   2.763 -1.0539  0.3964 -0.9750
  628MOL0     H86657   7.812   2.340   2.594 -0.3519 -0.8352 -0.9416
  628MOL0     H86658   7.683   2.124   2.678 -0.9937  0.6042  0.6821
  628MOL0     H86659   7.608   2.288   2.715  1.6610  3.7887  0.9589
  628MOL0     H86660   7.643   2.099   3.077  0.7272 -1.2263 -0.0120
  628MOL0     H86661   8.284   2.407   2.583 -2.9578 -1.6776 -0.9273
  628MOL0     H86662   8.546   2.526   2.536 -2.8421 -1.6329 -0.9549
  628MOL0     H86663   8.407   2.603   2.631 -0.3304 -0.3145 -3.1814
  628MOL0     H86664   8.567   2.584   2.709  0.1312 -0.0107 -0.4291
  629MOL0     O86665   5.720   4.534   5.523  0.6999  0.4681  0.1907
  629MOL0     C86666   5.831   4.563   5.493  0.4017  0.2581  0.5857
  629MOL0     O86667   5.920   4.483   5.436 -0.4917  0.4447  0.8038
  629MOL0     C86668   5.894   4.356   5.390 -0.4199  0.2163  0.4723
  629MOL0     C86669   5.771   4.286   5.378 -0.3060  0.0355 -0.1191
  629MOL0     C86670   5.754   4.166   5.306  0.5393  1.0420 -0.9626
  629MOL0     C86671   5.867   4.100   5.256 -0.5302  0.1572 -0.7709
  629MOL0     O86672   5.864   3.983   5.191 -0.5755 -0.2253  0.3141
  629MOL0     C86673   5.828   3.988   5.055 -0.4300  0.4550  0.6455
  629MOL0     C86674   5.959   3.969   4.975 -0.3543 -0.1727 -0.0379
  629MOL0     C86675   6.040   3.836   5.006  0.7680 -0.6415 -0.1398
  629MOL0     C86676   6.008   3.731   4.896 -0.4018  0.9522  0.3183
  629MOL0     C86677   6.118   3.619   4.878 -0.2010  0.4500  0.7586
  629MOL0     C86678   6.258   3.669   4.827  0.4385 -0.6324 -0.0485
  629MOL0     C86679   6.339   3.548   4.771 -0.4392 -0.5951  0.3761
  629MOL0     C86680   6.488   3.596   4.756  0.4907 -0.0598  0.6054
  629MOL0     N86681   6.536   3.631   4.885  0.1677 -0.4993 -0.3243
  629MOL0     C86682   6.538   3.543   4.991 -0.1941 -0.3379 -0.3262
  629MOL0     C86683   6.552   3.620   5.103  0.0754 -0.5994  0.5818
  629MOL0     C86684   6.569   3.571   5.247  0.3735 -0.1561  0.0907
  629MOL0     C86685   6.716   3.573   5.298  0.1843  0.1244  0.0674
  629MOL0     C86686   6.814   3.467   5.246 -0.8086 -1.1522  1.0369
  629MOL0     C86687   6.937   3.491   5.331 -0.6883  0.1543 -0.0113
  629MOL0     O86688   6.921   3.449   5.458 -0.5955 -0.6118 -0.1986
  629MOL0     C86689   7.033   3.458   5.534  0.0455  0.3769 -0.4062
  629MOL0     C86690   7.085   3.585   5.572 -0.1861 -0.1345  0.1825
  629MOL0     C86691   7.205   3.596   5.646 -0.2086  0.5097  0.6044
  629MOL0     C86692   7.247   3.733   5.689 -0.6371 -0.0694 -0.3683
  629MOL0     C86693   7.267   3.476   5.692  0.3237 -0.3911 -0.0921
  629MOL0     C86694   7.386   3.467   5.776  0.1371 -0.1089 -0.4454
  629MOL0     O86695   7.424   3.343   5.820 -0.6463  0.0077 -0.1239
  629MOL0     C86696   7.552   3.323   5.879 -0.6540 -1.2144  0.2109
  629MOL0     C86697   7.576   3.220   5.967  0.2683  0.3578  0.5436
  629MOL0     C86698   7.702   3.199   6.028  0.8021 -0.0763 -0.1307
  629MOL0     C86699   7.819   3.263   5.987 -0.3895  0.5701  0.4210
  629MOL0     O86700   7.930   3.222   6.057  0.1088 -0.0038  0.5497
  629MOL0     C86701   8.039   3.309   6.057 -0.5641  0.3087  1.1118
  629MOL0     C86702   8.165   3.246   6.130 -0.4324 -0.0516 -0.2357
  629MOL0     C86703   8.151   3.226   6.277  0.2125  0.7777 -0.4861
  629MOL0     C86704   8.280   3.167   6.330 -0.4556  0.3490 -0.2401
  629MOL0     C86705   8.268   3.113   6.479 -0.0697 -0.1213  0.0044
  629MOL0     C86706   8.396   3.055   6.533  0.2750  0.3138 -0.4095
  629MOL0     C86707   8.440   2.934   6.448 -0.0572 -0.3535  0.0275
  629MOL0     C86708   8.564   2.868   6.507 -0.1554  1.0814  0.1349
  629MOL0    Cl86709   8.611   2.747   6.382 -0.1978  0.3799 -0.4157
  629MOL0     C86710   7.802   3.362   5.899 -0.5049  0.0946  1.1118
  629MOL0     C86711   7.672   3.392   5.849 -0.4170 -0.4403  1.1760
  629MOL0     O86712   7.446   3.567   5.800  0.1596  0.2288  0.1445
  629MOL0     C86713   7.199   3.351   5.673  0.3966  0.2079 -0.1205
  629MOL0     C86714   7.089   3.340   5.586  0.6923 -0.3888  0.3068
  629MOL0     N86715   6.579   3.752   5.062 -0.1953 -0.3780  0.0995
  629MOL0     N86716   6.566   3.759   4.932 -0.0039 -0.4918 -0.1967
  629MOL0     C86717   5.990   4.165   5.279  0.1076  0.0614 -0.5300
  629MOL0     C86718   6.001   4.289   5.343 -0.5179  0.1034  0.5329
  629MOL0     C86719   5.881   4.693   5.529 -0.1697  0.6873  0.3862
  629MOL0     C86720   6.022   4.710   5.523 -1.2837 -0.2505 -0.2717
  629MOL0     C86721   6.088   4.833   5.543 -0.1177 -0.1335 -0.1090
  629MOL0     C86722   6.006   4.940   5.581 -0.0166  0.5900 -1.0127
  629MOL0     O86723   6.053   5.057   5.634  0.0591 -0.0553  0.0545
  629MOL0     C86724   6.113   5.048   5.767 -0.0118 -0.1502 -0.0815
  629MOL0     C86725   6.184   5.184   5.782  0.3080  0.1406 -0.9376
  629MOL0     C86726   6.091   5.305   5.790  0.1214 -0.1460  0.4959
  629MOL0     C86727   6.067   5.396   5.668 -0.7234  0.0131 -0.3881
  629MOL0     C86728   6.188   5.442   5.600 -0.0733 -0.4734 -0.3088
  629MOL0     C86729   6.272   5.500   5.543  0.1616 -0.2746 -0.0270
  629MOL0     C86730   5.869   4.928   5.586  0.2776 -0.2573 -0.3755
  629MOL0     C86731   5.800   4.807   5.568 -0.4799  0.5931 -0.2572
  629MOL0     C86732   5.652   4.802   5.598 -0.3359 -0.8436 -0.0538
  629MOL0     H86733   5.677   4.336   5.402 -0.8894 -1.3036  0.5198
  629MOL0     H86734   5.656   4.122   5.290  0.1385  0.6061  2.0973
  629MOL0     H86735   5.788   4.083   5.019  0.1613  0.2647 -0.5848
  629MOL0     H86736   5.758   3.915   5.014  3.4484 -2.9705 -0.5666
  629MOL0     H86737   5.940   3.973   4.867  1.8342 -1.9132 -0.5599
  629MOL0     H86738   6.028   4.051   4.998 -0.1488 -0.1671 -0.6602
  629MOL0     H86739   6.145   3.866   5.008  0.8442 -0.5291 -2.5513
  629MOL0     H86740   6.010   3.807   5.107 -1.8890 -1.2794 -1.0265
  629MOL0     H86741   5.904   3.702   4.910 -0.1593  0.5746  1.3826
  629MOL0     H86742   6.017   3.785   4.801  1.9673 -0.6013 -0.4545
  629MOL0     H86743   6.079   3.537   4.816  0.9479 -0.7509  1.5537
  629MOL0     H86744   6.153   3.579   4.974  2.8472  0.2385 -0.3222
  629MOL0     H86745   6.249   3.747   4.750 -1.5786  0.9364  1.6472
  629MOL0     H86746   6.312   3.710   4.913  0.6146  0.5086 -0.6784
  629MOL0     H86747   6.312   3.503   4.675  3.0399  0.0322 -1.0636
  629MOL0     H86748   6.332   3.468   4.846  1.1628  0.1594  1.4077
  629MOL0     H86749   6.558   3.521   4.718  1.9561  0.7365  1.6641
  629MOL0     H86750   6.496   3.684   4.691 -1.5379 -0.9591 -0.9876
  629MOL0     H86751   6.513   3.438   4.988 -2.5287  0.1603 -0.1007
  629MOL0     H86752   6.532   3.468   5.259 -2.2182  0.9591  3.3119
  629MOL0     H86753   6.501   3.622   5.316  0.1893 -1.0458  0.5952
  629MOL0     H86754   6.749   3.678   5.299 -1.9190  0.9095  3.0900
  629MOL0     H86755   6.705   3.543   5.402  0.6216 -0.6896 -0.1178
  629MOL0     H86756   6.786   3.363   5.266 -0.2680 -1.5355 -0.1370
  629MOL0     H86757   6.837   3.483   5.140 -1.1778 -2.3227  0.7631
  629MOL0     H86758   7.019   3.432   5.289 -1.9169 -1.1187 -0.7358
  629MOL0     H86759   6.976   3.593   5.324 -0.0897  0.0007  0.8120
  629MOL0     H86760   7.043   3.679   5.536 -1.0037  0.0807  1.6520
  629MOL0     H86761   7.263   3.736   5.797  2.0611  1.5310 -0.7163
  629MOL0     H86762   7.161   3.798   5.670  0.3882  0.6915 -2.7160
  629MOL0     H86763   7.341   3.765   5.643  1.3675 -2.2546  1.9279
  629MOL0     H86764   7.488   3.169   6.004 -0.1430  1.2361  0.7872
  629MOL0     H86765   7.713   3.116   6.097  2.4284 -2.4784 -3.0403
  629MOL0     H86766   8.070   3.335   5.956  0.1039  2.4418  1.8088
  629MOL0     H86767   8.013   3.403   6.107 -0.1211  1.7678 -1.2510
  629MOL0     H86768   8.172   3.144   6.092 -0.6445  0.1524 -0.8382
  629MOL0     H86769   8.257   3.304   6.118  1.1565 -2.3815  0.1066
  629MOL0     H86770   8.074   3.149   6.282  2.5542 -1.7253 -0.5616
  629MOL0     H86771   8.124   3.311   6.341 -2.5355 -1.0715  0.9719
  629MOL0     H86772   8.362   3.239   6.321 -1.7357  1.9960  0.5684
  629MOL0     H86773   8.308   3.077   6.275 -0.9366 -1.4936  2.3337
  629MOL0     H86774   8.243   3.204   6.536  1.6557  0.6719 -0.4400
  629MOL0     H86775   8.185   3.043   6.489 -1.6047  1.4326 -1.2091
  629MOL0     H86776   8.384   3.021   6.636 -0.8048  0.1493 -0.5774
  629MOL0     H86777   8.467   3.137   6.519  0.7513 -0.2598 -1.4639
  629MOL0     H86778   8.457   2.954   6.342 -3.3129 -1.4603 -0.8214
  629MOL0     H86779   8.362   2.857   6.443  0.8238 -1.2543 -0.0371
  629MOL0     H86780   8.547   2.818   6.603 -2.1285  1.3697 -0.0322
  629MOL0     H86781   8.653   2.931   6.513  2.6552 -2.3610 -1.2091
  629MOL0     H86782   7.883   3.421   5.857 -0.2378 -0.0107  1.4702
  629MOL0     H86783   7.667   3.484   5.791 -1.0222 -1.2768 -0.1375
  629MOL0     H86784   7.228   3.258   5.719  2.5862  1.2923  0.8376
  629MOL0     H86785   7.040   3.246   5.561  0.0355 -0.0781  0.4078
  629MOL0     H86786   6.078   4.118   5.233 -0.1603 -0.1994 -0.7848
  629MOL0     H86787   6.099   4.335   5.349 -0.7938  0.6920  0.6086
  629MOL0     H86788   6.092   4.630   5.501 -0.2768  1.1501 -2.4372
  629MOL0     H86789   6.195   4.851   5.545  0.1952 -1.8691  0.6929
  629MOL0     H86790   6.027   5.041   5.835 -1.1964  2.0624 -1.2350
  629MOL0     H86791   6.188   4.970   5.780  2.3882  2.0605 -0.0583
  629MOL0     H86792   6.254   5.201   5.700 -0.1086  0.2782 -1.2651
  629MOL0     H86793   6.240   5.183   5.876  2.3234  2.3445 -1.9917
  629MOL0     H86794   5.992   5.261   5.808 -0.3164  0.6998  0.2098
  629MOL0     H86795   6.115   5.367   5.877  0.8451  3.1165 -1.8804
  629MOL0     H86796   6.016   5.479   5.718 -1.0457 -0.2730 -0.2355
  629MOL0     H86797   5.995   5.354   5.597 -0.7620 -4.0143  1.7053
  629MOL0     H86798   6.347   5.546   5.481  2.4018 -1.9184  1.3292
  629MOL0     H86799   5.821   5.017   5.626  0.1902 -0.1842 -0.6413
  629MOL0     H86800   5.621   4.716   5.658 -0.5588  0.9845  2.6123
  629MOL0     H86801   5.628   4.895   5.651 -0.5341  0.0036 -1.5781
  629MOL0     H86802   5.595   4.785   5.506  0.6882  0.5752 -0.9988
  630MOL0     O86803   3.692   4.233   7.511  0.4499  1.1676 -0.2576
  630MOL0     C86804   3.639   4.199   7.617 -0.1457 -0.5518  1.3669
  630MOL0     O86805   3.690   4.222   7.746  0.2190 -0.4668  0.0416
  630MOL0     C86806   3.830   4.223   7.761  0.3109  0.1171 -0.3157
  630MOL0     C86807   3.883   4.300   7.861 -0.7143  0.4568  0.7274
  630MOL0     C86808   4.025   4.308   7.888 -0.6145  0.5337 -0.2464
  630MOL0     C86809   4.114   4.227   7.815  0.3371 -0.0765 -0.1391
  630MOL0     O86810   4.256   4.223   7.818 -0.0492 -0.7237 -0.0449
  630MOL0     C86811   4.309   4.302   7.929 -0.0242  0.1849 -0.4297
  630MOL0     C86812   4.464   4.287   7.927  0.0245  0.8979 -0.0015
  630MOL0     C86813   4.526   4.386   8.024 -0.0909  0.1351 -0.2950
  630MOL0     C86814   4.677   4.348   8.035  0.0957 -0.5671  0.7375
  630MOL0     C86815   4.771   4.464   8.053  0.0909 -0.7634  0.2198
  630MOL0     C86816   4.920   4.421   8.038 -0.6450 -0.6132 -0.4339
  630MOL0     C86817   5.010   4.518   8.125  0.4744 -0.6974 -0.3932
  630MOL0     C86818   5.061   4.645   8.055 -0.1758  0.3742  0.2793
  630MOL0     N86819   5.109   4.744   8.155  0.3921 -0.0759 -0.6894
  630MOL0     C86820   5.043   4.849   8.223  0.0988 -0.8843 -0.0576
  630MOL0     C86821   5.146   4.908   8.298 -0.8561  0.5138 -0.2188
  630MOL0     C86822   5.136   5.039   8.375 -0.1548  0.5516 -0.1540
  630MOL0     C86823   5.195   5.156   8.293 -0.3897 -0.1500  0.1084
  630MOL0     C86824   5.343   5.127   8.245 -0.1179 -0.4643 -0.8441
  630MOL0     C86825   5.417   5.254   8.258 -0.2292 -0.2899  0.4217
  630MOL0     O86826   5.537   5.237   8.187 -0.7407  0.1204  0.1580
  630MOL0     C86827   5.638   5.328   8.208 -0.4917 -0.1107  0.5397
  630MOL0     C86828   5.616   5.451   8.267 -0.1428 -0.1589  0.1157
  630MOL0     C86829   5.722   5.536   8.301  0.3834  0.0767  0.1846
  630MOL0     C86830   5.678   5.666   8.357 -0.3906 -0.3384 -0.2798
  630MOL0     C86831   5.850   5.502   8.266  0.6240 -0.1940  0.6478
  630MOL0     C86832   5.966   5.588   8.276 -0.5112  0.9189 -0.2608
  630MOL0     O86833   6.088   5.525   8.296  0.6152  0.2108  0.5516
  630MOL0     C86834   6.205   5.600   8.292 -0.5080 -0.9004  0.3522
  630MOL0     C86835   6.279   5.607   8.172  0.1720 -0.0956 -0.4495
  630MOL0     C86836   6.401   5.671   8.175  0.0740  0.1214  0.3969
  630MOL0     C86837   6.450   5.735   8.293  0.3587 -0.0009 -0.8457
  630MOL0     O86838   6.565   5.804   8.304  0.0161 -1.1391  0.3863
  630MOL0     C86839   6.661   5.796   8.193 -0.1533 -0.4856  0.4091
  630MOL0     C86840   6.794   5.871   8.222 -0.3016 -0.4895 -0.2318
  630MOL0     C86841   6.886   5.825   8.336  0.5641 -0.1118 -1.0194
  630MOL0     C86842   7.036   5.849   8.306  0.4966  0.3745 -0.4346
  630MOL0     C86843   7.115   5.822   8.443  0.1229 -0.8108  0.8875
  630MOL0     C86844   7.272   5.839   8.418 -0.5035 -0.0527  0.3594
  630MOL0     C86845   7.318   5.973   8.379  0.4549  0.3075  0.9515
  630MOL0     C86846   7.466   5.956   8.339  0.3242 -0.0387  0.5228
  630MOL0    Cl86847   7.559   5.957   8.487  0.0145  0.0123  0.0504
  630MOL0     C86848   6.363   5.739   8.408 -0.4222  0.1074 -0.1868
  630MOL0     C86849   6.247   5.672   8.410  0.1542 -0.0927 -0.4126
  630MOL0     O86850   5.955   5.711   8.263  0.2184 -0.3109  0.4329
  630MOL0     C86851   5.870   5.370   8.225  0.2533 -0.3007 -0.0618
  630MOL0     C86852   5.768   5.279   8.197  0.1441  0.3413 -0.6727
  630MOL0     N86853   5.252   4.815   8.306 -0.4929  0.3481 -0.6663
  630MOL0     N86854   5.228   4.726   8.223  0.7338  0.3745  0.2085
  630MOL0     C86855   4.054   4.141   7.717  0.5316  0.8113 -0.3611
  630MOL0     C86856   3.912   4.142   7.689  0.3735  0.2108  0.1716
  630MOL0     C86857   3.520   4.115   7.611 -0.3113 -0.4980 -0.4948
  630MOL0     C86858   3.489   4.036   7.723  0.1357 -0.6468  0.2227
  630MOL0     C86859   3.363   3.981   7.725 -0.5327 -0.1909 -0.8192
  630MOL0     C86860   3.279   3.984   7.615  0.5437 -0.3436  0.7439
  630MOL0     O86861   3.167   3.914   7.602  0.8482  0.4647 -0.8326
  630MOL0     C86862   3.079   3.925   7.720 -0.3021 -0.2267  0.4716
  630MOL0     C86863   2.983   3.802   7.719 -0.7423 -0.0649  0.1743
  630MOL0     C86864   2.888   3.791   7.843 -0.3963 -0.5870  0.5136
  630MOL0     C86865   2.802   3.662   7.841 -0.2964 -0.4163  0.4159
  630MOL0     C86866   2.700   3.679   7.944  0.3764 -0.4392  0.2756
  630MOL0     C86867   2.613   3.710   8.026  0.4216  0.7418 -0.1739
  630MOL0     C86868   3.316   4.039   7.493  0.1612 -0.0404  0.2429
  630MOL0     C86869   3.435   4.114   7.497  0.0200  0.5322 -0.3677
  630MOL0     C86870   3.462   4.189   7.365 -0.5898  0.3227 -0.4848
  630MOL0     H86871   3.812   4.358   7.920  0.2241  2.3969  0.0302
  630MOL0     H86872   4.050   4.387   7.958  0.3009  0.7812 -0.8421
  630MOL0     H86873   4.271   4.270   8.027  0.6651  2.0980  0.5268
  630MOL0     H86874   4.292   4.410   7.924 -0.5957  0.2291  1.4751
  630MOL0     H86875   4.486   4.188   7.967 -1.2630 -0.3009 -2.0567
  630MOL0     H86876   4.511   4.285   7.828  3.5192 -0.5596  1.4941
  630MOL0     H86877   4.504   4.488   7.991 -1.4932 -0.9019 -2.8356
  630MOL0     H86878   4.476   4.373   8.121 -2.5646  1.1941 -1.3419
  630MOL0     H86879   4.686   4.275   8.116 -0.1044 -0.4649  0.8501
  630MOL0     H86880   4.707   4.301   7.940  0.1951  0.2613  0.3522
  630MOL0     H86881   4.748   4.500   8.154 -0.2673  0.6042 -0.3146
  630MOL0     H86882   4.747   4.545   7.983 -0.6623 -1.6473 -0.5677
  630MOL0     H86883   4.926   4.320   8.080 -2.5475  0.3079  2.3739
  630MOL0     H86884   4.954   4.414   7.934  0.1600 -2.0241 -0.1019
  630MOL0     H86885   5.106   4.468   8.142  0.7142  0.0612  0.5933
  630MOL0     H86886   4.965   4.538   8.223  0.3009 -2.2380 -0.1389
  630MOL0     H86887   5.144   4.608   7.994 -1.2335 -1.3775 -0.1733
  630MOL0     H86888   4.993   4.685   7.980  0.7772  0.0294 -0.8060
  630MOL0     H86889   4.954   4.908   8.205 -1.9749 -3.9299 -0.5153
  630MOL0     H86890   5.184   5.028   8.473 -0.3435  3.9952  0.4470
  630MOL0     H86891   5.030   5.053   8.397  0.1321  2.3547  0.2737
  630MOL0     H86892   5.132   5.177   8.206  2.6602  0.3809 -2.1505
  630MOL0     H86893   5.187   5.243   8.359  0.3302  1.7226 -2.0989
  630MOL0     H86894   5.389   5.054   8.312  2.4730  0.9265 -0.9874
  630MOL0     H86895   5.344   5.104   8.138  1.1998 -0.9358 -0.7478
  630MOL0     H86896   5.361   5.331   8.205 -1.7325  0.1991  2.5616
  630MOL0     H86897   5.430   5.271   8.366 -0.5446 -1.8630  0.7320
  630MOL0     H86898   5.513   5.481   8.284  0.5074  2.2176  0.1284
  630MOL0     H86899   5.732   5.684   8.451  1.0848  3.3324 -1.6623
  630MOL0     H86900   5.570   5.660   8.376 -0.4935  0.2082 -0.6689
  630MOL0     H86901   5.692   5.752   8.291 -2.0472  0.9728  0.9632
  630MOL0     H86902   6.234   5.571   8.080  1.0131 -0.3554 -0.7631
  630MOL0     H86903   6.469   5.682   8.091 -0.6701 -1.7027 -0.4832
  630MOL0     H86904   6.679   5.693   8.161 -0.3321 -0.0660 -1.1323
  630MOL0     H86905   6.618   5.856   8.112  0.1686  1.8166  1.8340
  630MOL0     H86906   6.851   5.859   8.129 -0.5080 -0.3674 -0.3724
  630MOL0     H86907   6.773   5.976   8.246 -0.2059 -0.9349  2.0816
  630MOL0     H86908   6.863   5.722   8.363  0.1620  0.7892  2.5470
  630MOL0     H86909   6.854   5.887   8.420  0.5577 -1.3907 -0.0617
  630MOL0     H86910   7.048   5.953   8.273 -1.1682  0.1137 -1.9908
  630MOL0     H86911   7.064   5.777   8.229 -1.7537 -1.0206 -0.0551
  630MOL0     H86912   7.083   5.899   8.513  1.5654  1.1780 -0.5263
  630MOL0     H86913   7.105   5.721   8.485  0.1559 -0.0536  2.8130
  630MOL0     H86914   7.312   5.767   8.346 -1.2619  0.8568 -1.0103
  630MOL0     H86915   7.333   5.815   8.506  4.3485  1.5949 -2.2076
  630MOL0     H86916   7.308   6.031   8.471  1.2541 -1.7099  2.3949
  630MOL0     H86917   7.270   6.034   8.302  2.3634  1.4904  0.6188
  630MOL0     H86918   7.512   6.041   8.286 -0.5261  0.2533  0.2282
  630MOL0     H86919   7.488   5.862   8.288 -0.1106  0.3583 -0.4265
  630MOL0     H86920   6.394   5.782   8.503  1.4370  0.1238 -0.7650
  630MOL0     H86921   6.169   5.680   8.484  0.0128  2.2219 -0.7346
  630MOL0     H86922   5.969   5.333   8.202  1.0551  2.1251 -0.7748
  630MOL0     H86923   5.779   5.171   8.196  0.4420  0.2802  2.2484
  630MOL0     H86924   4.124   4.084   7.658  2.1148  0.6313  1.6064
  630MOL0     H86925   3.872   4.077   7.613  0.5274 -0.6725  0.8360
  630MOL0     H86926   3.541   4.036   7.818 -1.0917 -1.0579  0.9126
  630MOL0     H86927   3.335   3.948   7.825 -0.3516  0.9070 -0.3853
  630MOL0     H86928   3.128   3.923   7.818 -2.4934  1.1862  1.6924
  630MOL0     H86929   3.024   4.018   7.703 -0.6211 -0.4656  0.1694
  630MOL0     H86930   3.049   3.715   7.720  1.1869  1.3002 -0.3941
  630MOL0     H86931   2.922   3.810   7.628 -1.2998  0.8344  0.6169
  630MOL0     H86932   2.942   3.812   7.936  1.0070  1.3669 -0.6487
  630MOL0     H86933   2.822   3.878   7.847  1.4862  0.9133  0.3958
  630MOL0     H86934   2.851   3.565   7.851 -0.7939 -0.8133 -0.8673
  630MOL0     H86935   2.743   3.659   7.749  3.2185  1.4314 -2.1507
  630MOL0     H86936   2.536   3.747   8.090  1.8331  2.7900  0.4659
  630MOL0     H86937   3.250   4.034   7.407  1.2180  0.4066 -0.6069
  630MOL0     H86938   3.527   4.132   7.298 -1.6165  0.3539 -1.5419
  630MOL0     H86939   3.373   4.196   7.301 -0.0540  1.1111 -1.1718
  630MOL0     H86940   3.486   4.295   7.382  0.6744 -0.3989  2.9721
  631MOL0     O86941   0.292   2.245   6.306 -0.2951  0.3683  0.1344
  631MOL0     C86942   0.191   2.290   6.358 -0.1907  0.1098  0.0511
  631MOL0     O86943   0.180   2.331   6.492 -0.0091  0.0211 -0.0809
  631MOL0     C86944   0.289   2.300   6.573 -0.1263  0.1933 -0.5025
  631MOL0     C86945   0.396   2.388   6.583 -1.2208 -0.0835  0.5095
  631MOL0     C86946   0.518   2.367   6.653 -0.2436  0.7855 -0.2137
  631MOL0     C86947   0.513   2.249   6.732  0.5429 -0.1185 -0.3066
  631MOL0     O86948   0.614   2.202   6.811 -0.3585  0.4007 -1.3439
  631MOL0     C86949   0.747   2.268   6.805  0.8146  0.3440  0.2791
  631MOL0     C86950   0.837   2.212   6.904 -0.2669  0.1479  0.1478
  631MOL0     C86951   0.982   2.256   6.863  0.2911  0.3245 -0.2866
  631MOL0     C86952   1.083   2.145   6.910  0.0538 -0.8454 -0.0054
  631MOL0     C86953   1.225   2.202   6.889 -0.3035  0.7137  0.1097
  631MOL0     C86954   1.252   2.253   6.744 -0.0466  0.5061  0.1214
  631MOL0     C86955   1.397   2.292   6.719 -0.3413 -0.5799  0.4717
  631MOL0     C86956   1.411   2.408   6.619  0.2878  0.1026 -0.6818
  631MOL0     N86957   1.316   2.392   6.508 -0.4145  0.0737  0.0750
  631MOL0     C86958   1.344   2.293   6.416  0.1716  0.2493  0.2155
  631MOL0     C86959   1.285   2.343   6.305  0.5590 -0.1883 -0.0473
  631MOL0     C86960   1.292   2.291   6.161 -0.5561  0.8920  0.1338
  631MOL0     C86961   1.189   2.356   6.062  0.8391 -0.2988 -0.4769
  631MOL0     C86962   1.041   2.303   6.076 -0.6141  0.8357  0.8706
  631MOL0     C86963   0.959   2.372   5.966 -0.1070  0.8510 -0.7361
  631MOL0     O86964   0.819   2.374   6.007 -0.3209  0.1697 -0.5933
  631MOL0     C86965   0.728   2.316   5.927  0.3930 -0.0744 -0.2954
  631MOL0     C86966   0.666   2.190   5.960 -0.2641  0.1995 -0.0192
  631MOL0     C86967   0.550   2.157   5.888 -0.2279 -0.9593 -0.5285
  631MOL0     C86968   0.477   2.037   5.929  0.4201  0.9208 -0.2272
  631MOL0     C86969   0.516   2.238   5.777  0.7394  0.1577 -0.0718
  631MOL0     C86970   0.403   2.214   5.689  0.7217  0.4156 -0.3203
  631MOL0     O86971   0.288   2.175   5.756  0.3194 -0.2972 -0.3289
  631MOL0     C86972   0.182   2.140   5.679  0.3392 -0.3151 -0.3718
  631MOL0     C86973   0.106   2.242   5.620  0.2814  0.6183 -0.2436
  631MOL0     C86974   0.009   2.212   5.527 -0.3082  0.1288 -0.9520
  631MOL0     C86975  -0.021   2.084   5.491 -0.1111 -0.3658 -0.6937
  631MOL0     O86976  -0.130   2.079   5.404  0.0052  0.7149 -0.3973
  631MOL0     C86977  -0.163   1.941   5.361 -0.1463 -0.3112 -0.3267
  631MOL0     C86978  -0.307   1.940   5.304 -0.4551 -0.8006  0.1527
  631MOL0     C86979  -0.332   1.844   5.194 -0.3372  0.4558  0.2781
  631MOL0     C86980  -0.273   1.888   5.064  0.0099 -0.3190 -0.0530
  631MOL0     C86981  -0.371   1.983   4.989  0.2310 -0.7486  0.2307
  631MOL0     C86982  -0.335   1.995   4.843  0.6032 -0.1637  0.7605
  631MOL0     C86983  -0.426   2.106   4.780  1.0440 -0.2020 -0.5041
  631MOL0     C86984  -0.451   2.091   4.627  0.2707  0.2669 -0.2930
  631MOL0    Cl86985  -0.519   1.928   4.583  0.3000 -0.2426 -0.3005
  631MOL0     C86986   0.057   1.979   5.533 -0.6265 -0.0814 -0.6712
  631MOL0     C86987   0.153   2.006   5.638  0.0459  0.1529  0.3409
  631MOL0     O86988   0.421   2.214   5.570 -0.5617  0.2349  0.7707
  631MOL0     C86989   0.581   2.357   5.750 -0.1333  0.4772  0.2274
  631MOL0     C86990   0.684   2.398   5.832  0.7978 -0.5626 -0.0187
  631MOL0     N86991   1.220   2.461   6.338 -0.0683  0.3383  0.0485
  631MOL0     N86992   1.243   2.497   6.458  0.6327 -0.4658  0.8030
  631MOL0     C86993   0.405   2.159   6.732  1.0133 -1.6179  0.4541
  631MOL0     C86994   0.288   2.191   6.658 -0.4306 -0.2253  0.2458
  631MOL0     C86995   0.079   2.307   6.275 -0.2447 -0.4069 -0.3088
  631MOL0     C86996  -0.051   2.292   6.326  0.0066 -0.0970 -0.4094
  631MOL0     C86997  -0.163   2.300   6.237  0.3356  0.5255 -1.1427
  631MOL0     C86998  -0.146   2.346   6.110 -0.6232 -0.7797 -0.2364
  631MOL0     O86999  -0.267   2.368   6.044  0.0265 -0.3060 -0.0458
  631MOL0     C87000  -0.267   2.410   5.903  0.0558 -0.0164  0.8018
  631MOL0     C87001  -0.395   2.476   5.868  0.2429  0.4284  0.2581
  631MOL0     C87002  -0.507   2.381   5.836  0.5439  0.7393  0.3064
  631MOL0     C87003  -0.639   2.461   5.810 -0.7042 -0.3942  0.6393
  631MOL0     C87004  -0.759   2.388   5.785 -0.4745  0.3739 -0.9687
  631MOL0     C87005  -0.847   2.321   5.743  0.4214  0.0399  0.2674
  631MOL0     C87006  -0.023   2.370   6.054 -0.9687  0.4352 -0.3233
  631MOL0     C87007   0.094   2.348   6.134  0.3138 -0.3187 -0.1560
  631MOL0     C87008   0.224   2.358   6.053  0.3339  0.0740 -0.2552
  631MOL0     H87009   0.389   2.469   6.511 -0.8840 -2.3147 -2.2224
  631MOL0     H87010   0.600   2.428   6.619 -1.3497  1.7944 -1.1597
  631MOL0     H87011   0.736   2.376   6.822 -0.7021  0.3945 -0.8706
  631MOL0     H87012   0.790   2.263   6.705 -2.1917  0.4573 -1.1237
  631MOL0     H87013   0.811   2.250   7.003 -2.0416 -0.7439  0.0696
  631MOL0     H87014   0.834   2.103   6.907 -0.1704  0.1044 -0.9306
  631MOL0     H87015   0.976   2.260   6.754 -0.6279 -0.4576 -0.2871
  631MOL0     H87016   1.013   2.354   6.900 -0.5142 -0.0680  1.5666
  631MOL0     H87017   1.067   2.127   7.017 -0.4330  2.8447  0.6916
  631MOL0     H87018   1.063   2.058   6.847  1.2664  0.0846 -1.7620
  631MOL0     H87019   1.304   2.128   6.906 -0.1333  1.0879  0.9579
  631MOL0     H87020   1.249   2.276   6.965 -2.6286 -0.0844  1.7132
  631MOL0     H87021   1.217   2.182   6.669  1.6381 -1.0644  0.7424
  631MOL0     H87022   1.187   2.341   6.734 -0.9836  0.2389  3.0378
  631MOL0     H87023   1.449   2.198   6.699 -0.9405 -0.8810  0.3049
  631MOL0     H87024   1.434   2.320   6.818  0.4332  0.9685 -0.2280
  631MOL0     H87025   1.376   2.501   6.666 -0.6663 -0.5793  0.0034
  631MOL0     H87026   1.516   2.416   6.590  0.4729  0.1192 -0.0280
  631MOL0     H87027   1.406   2.204   6.424  0.6205  0.5904  0.5756
  631MOL0     H87028   1.297   2.183   6.175 -2.0803  0.7782 -0.0842
  631MOL0     H87029   1.392   2.324   6.130  0.4014 -2.1757 -0.3996
  631MOL0     H87030   1.187   2.461   6.090 -2.2076 -0.7453  1.5599
  631MOL0     H87031   1.216   2.343   5.957  0.3901 -3.2193 -0.3439
  631MOL0     H87032   1.040   2.196   6.056  0.2342  1.3849 -3.0047
  631MOL0     H87033   1.008   2.330   6.177  3.0788  2.6253  1.7649
  631MOL0     H87034   0.994   2.475   5.959 -0.3296  0.8081 -3.4880
  631MOL0     H87035   0.974   2.336   5.864 -1.4654  1.6613 -1.2577
  631MOL0     H87036   0.698   2.133   6.046 -1.0503  1.6444  1.2851
  631MOL0     H87037   0.489   1.960   5.853 -1.0221  1.9229 -1.5464
  631MOL0     H87038   0.370   2.053   5.949  0.8873  1.2231  2.3384
  631MOL0     H87039   0.505   2.003   6.029  0.5018  0.0018 -0.5612
  631MOL0     H87040   0.122   2.345   5.652  3.7772  0.2666 -0.4645
  631MOL0     H87041  -0.047   2.296   5.487  1.7863  1.4335 -1.2935
  631MOL0     H87042  -0.090   1.917   5.283 -0.1578 -1.4523  0.0063
  631MOL0     H87043  -0.164   1.877   5.449  0.2152  0.7888  0.5024
  631MOL0     H87044  -0.369   1.914   5.389  1.5345 -1.5868  1.4369
  631MOL0     H87045  -0.342   2.037   5.266  1.0815  0.0840  0.8915
  631MOL0     H87046  -0.435   1.810   5.187  0.3846 -2.3902  1.8270
  631MOL0     H87047  -0.283   1.751   5.225  1.2652  0.8234 -1.0179
  631MOL0     H87048  -0.247   1.805   4.998 -0.9979  0.6183 -1.6917
  631MOL0     H87049  -0.188   1.954   5.086 -2.3534  2.9776 -0.0549
  631MOL0     H87050  -0.470   1.938   4.999 -0.4415  0.8094  0.9100
  631MOL0     H87051  -0.376   2.080   5.039 -0.2774 -0.6520 -0.0093
  631MOL0     H87052  -0.343   1.896   4.798  3.6977 -0.6823  1.1286
  631MOL0     H87053  -0.239   2.041   4.818 -0.6092  2.1973  0.0636
  631MOL0     H87054  -0.370   2.199   4.793 -1.5386  1.4475 -0.3214
  631MOL0     H87055  -0.521   2.111   4.834  0.4854  0.3203 -1.4966
  631MOL0     H87056  -0.354   2.103   4.578 -0.3224 -1.2032 -1.9590
  631MOL0     H87057  -0.520   2.161   4.578 -0.8835 -0.3538  0.3865
  631MOL0     H87058   0.039   1.874   5.512  0.8247 -0.8089  1.4585
  631MOL0     H87059   0.215   1.922   5.670 -2.7613 -1.7345  1.1636
  631MOL0     H87060   0.529   2.414   5.674  0.0779 -0.8391 -0.9688
  631MOL0     H87061   0.723   2.497   5.811 -1.7672  0.5622  0.1620
  631MOL0     H87062   0.406   2.076   6.802 -2.9535  0.1997  3.0503
  631MOL0     H87063   0.196   2.133   6.665 -2.7136  3.2137  1.6040
  631MOL0     H87064  -0.082   2.274   6.428  0.2725  1.4686 -0.0432
  631MOL0     H87065  -0.264   2.296   6.276  0.6614  1.9270 -0.0506
  631MOL0     H87066  -0.186   2.480   5.882 -2.1106  2.1026 -1.0675
  631MOL0     H87067  -0.256   2.322   5.838 -1.9851  0.3568 -0.1074
  631MOL0     H87068  -0.378   2.546   5.786  3.7130  1.4762  1.6885
  631MOL0     H87069  -0.423   2.552   5.941 -1.1160  1.6189 -1.4008
  631MOL0     H87070  -0.486   2.319   5.748  2.0049  0.8911  0.5259
  631MOL0     H87071  -0.515   2.316   5.923 -0.5787  0.5500  0.0761
  631MOL0     H87072  -0.620   2.515   5.717 -0.3693 -2.5989 -0.6519
  631MOL0     H87073  -0.663   2.522   5.897 -1.7797 -0.5853  0.4900
  631MOL0     H87074  -0.909   2.245   5.700 -0.7687  0.6743  0.8106
  631MOL0     H87075  -0.000   2.385   5.949  0.8025  4.3280  0.4214
  631MOL0     H87076   0.309   2.403   6.106  1.1087  1.8594 -2.8423
  631MOL0     H87077   0.257   2.254   6.048  4.0951  1.1854 -1.5919
  631MOL0     H87078   0.202   2.405   5.957  1.7667  3.5649  0.9548
  632MOL0     O87079   2.421   7.342   9.578  0.6765  0.3537 -0.9819
  632MOL0     C87080   2.442   7.303   9.466  0.1891  1.0643 -0.0480
  632MOL0     O87081   2.561   7.319   9.403  0.1434  0.3641  0.1957
  632MOL0     C87082   2.677   7.318   9.473  0.1851  0.7129  0.1089
  632MOL0     C87083   2.700   7.245   9.593  0.1970  0.5252 -0.0516
  632MOL0     C87084   2.834   7.225   9.641 -0.5588  0.1720 -0.1238
  632MOL0     C87085   2.945   7.279   9.574 -0.1031 -0.4713  0.0784
  632MOL0     O87086   3.075   7.245   9.594  0.3445  0.5208  0.2968
  632MOL0     C87087   3.113   7.121   9.663  0.6207  0.1709 -0.7198
  632MOL0     C87088   3.146   7.145   9.810 -0.5267  0.0901  0.2162
  632MOL0     C87089   3.297   7.184   9.828  0.8500 -0.5030 -0.8387
  632MOL0     C87090   3.318   7.168   9.981 -0.3787 -0.0356  0.7100
  632MOL0     C87091   3.457   7.192  10.016 -0.7356 -0.0191  1.4325
  632MOL0     C87092   3.494   7.172  10.164  0.8935 -0.0984 -0.0052
  632MOL0     C87093   3.639   7.192  10.185  0.0681  0.0595  0.3454
  632MOL0     C87094   3.681   7.336  10.160  0.1770 -0.3500  0.7741
  632MOL0     N87095   3.822   7.340  10.166  0.0798  0.1147 -0.4800
  632MOL0     C87096   3.913   7.340  10.060 -1.2271  0.2170 -0.5712
  632MOL0     C87097   4.034   7.372  10.120  0.3790 -0.3356  0.1907
  632MOL0     C87098   4.160   7.384  10.046 -0.6432  0.0373 -0.6464
  632MOL0     C87099   4.238   7.247  10.053  0.0424 -0.1215  0.0639
  632MOL0     C87100   4.332   7.239  10.169  0.3833  0.9119  0.0725
  632MOL0     C87101   4.456   7.341  10.167 -0.1254  0.6681 -1.6962
  632MOL0     O87102   4.568   7.275  10.233  0.3211 -0.1000 -0.7277
  632MOL0     C87103   4.653   7.197  10.157 -0.1258 -0.2109 -0.5104
  632MOL0     C87104   4.753   7.134  10.229  1.1876  0.4223  0.1675
  632MOL0     C87105   4.856   7.064  10.166 -0.3369  0.0177 -0.0289
  632MOL0     C87106   4.967   7.004  10.252 -0.3728 -0.0529 -0.3911
  632MOL0     C87107   4.847   7.039  10.026  0.5407 -0.0952 -0.4941
  632MOL0     C87108   4.934   6.941   9.954 -0.1958 -0.0617  0.8630
  632MOL0     O87109   5.060   6.924   9.989 -0.5904  0.6983  0.4844
  632MOL0     C87110   5.119   6.802   9.947  0.7914  0.6851 -1.0160
  632MOL0     C87111   5.086   6.690  10.025 -0.9265  0.7972 -0.4314
  632MOL0     C87112   5.146   6.570   9.989  0.9261  0.7108  0.5748
  632MOL0     C87113   5.241   6.551   9.887  0.2595  0.4479 -0.2651
  632MOL0     O87114   5.300   6.430   9.856  0.2678 -0.4876  1.1617
  632MOL0     C87115   5.235   6.310   9.880  0.0243  0.3058 -0.0686
  632MOL0     C87116   5.148   6.271   9.763  0.0132  0.0032 -0.5255
  632MOL0     C87117   5.107   6.126   9.752  0.0669  0.1619  0.2036
  632MOL0     C87118   5.040   6.087   9.623  0.1949 -0.2301 -0.0125
  632MOL0     C87119   4.968   5.956   9.653 -0.1718  0.0020 -0.6380
  632MOL0     C87120   4.908   5.902   9.519 -0.4142  0.1888  0.7570
  632MOL0     C87121   4.806   5.785   9.534 -0.1945  0.0334  0.2585
  632MOL0     C87122   4.750   5.734   9.400 -0.2238  0.3758 -0.1702
  632MOL0    Cl87123   4.633   5.608   9.421  0.0289  0.0623  0.2107
  632MOL0     C87124   5.273   6.663   9.813  0.2257 -1.2300  0.3667
  632MOL0     C87125   5.223   6.795   9.854 -1.2777 -0.0318  0.2382
  632MOL0     O87126   4.873   6.877   9.866  0.9228 -0.2350 -0.2237
  632MOL0     C87127   4.739   7.099   9.952 -0.1281  0.6578  0.3500
  632MOL0     C87128   4.643   7.173  10.018  0.1724 -0.0134 -0.2340
  632MOL0     N87129   4.009   7.380  10.260 -1.0210 -0.2472  0.2488
  632MOL0     N87130   3.888   7.354  10.290 -0.0129  0.4062  0.5172
  632MOL0     C87131   2.919   7.360   9.468 -0.6240  0.7236  0.0131
  632MOL0     C87132   2.793   7.373   9.412  0.2034 -0.0762  0.9796
  632MOL0     C87133   2.327   7.267   9.382  0.2106  0.2452  0.1550
  632MOL0     C87134   2.200   7.288   9.441  0.3533 -0.6048  0.3643
  632MOL0     C87135   2.085   7.257   9.362 -1.0827 -0.4982 -0.0081
  632MOL0     C87136   2.097   7.207   9.232 -0.2147  1.0338  0.1666
  632MOL0     O87137   1.999   7.165   9.146  0.2759 -0.3271 -0.3137
  632MOL0     C87138   1.868   7.184   9.198 -0.4029 -0.9160 -0.5231
  632MOL0     C87139   1.783   7.141   9.077  0.2728  0.6677  0.4625
  632MOL0     C87140   1.630   7.131   9.105  0.1744  0.7452 -0.5948
  632MOL0     C87141   1.554   7.119   8.973  1.2038  0.3163  0.1514
  632MOL0     C87142   1.404   7.119   9.001 -0.7498 -0.2614  0.1140
  632MOL0     C87143   1.284   7.120   9.023 -0.5852 -0.2868 -0.5714
  632MOL0     C87144   2.226   7.179   9.172 -0.3717  0.1782  0.8913
  632MOL0     C87145   2.340   7.219   9.246  0.3744 -0.2195 -0.2480
  632MOL0     C87146   2.474   7.210   9.164 -0.8797  0.5009 -0.9345
  632MOL0     H87147   2.610   7.199   9.633  0.2431  0.3665 -0.1311
  632MOL0     H87148   2.850   7.172   9.734  1.8594  0.3299 -0.3978
  632MOL0     H87149   3.200   7.075   9.615  0.7763 -0.2433 -0.0532
  632MOL0     H87150   3.035   7.046   9.647 -0.5054  1.2717 -0.4959
  632MOL0     H87151   3.078   7.209   9.866  0.9024 -0.3411  2.5868
  632MOL0     H87152   3.135   7.044   9.852 -2.4769 -1.7791 -4.1533
  632MOL0     H87153   3.364   7.122   9.768  0.1814 -0.2930 -1.8325
  632MOL0     H87154   3.316   7.286   9.795 -0.7893  0.0430 -0.1919
  632MOL0     H87155   3.263   7.244  10.037  0.9527  3.0097 -1.7251
  632MOL0     H87156   3.287   7.070  10.017 -1.9952 -0.2161 -1.0077
  632MOL0     H87157   3.487   7.295   9.994  0.0383 -0.3885  0.7149
  632MOL0     H87158   3.521   7.120   9.964 -0.9750  0.4707  0.4402
  632MOL0     H87159   3.432   7.238  10.226  0.3044 -0.2211 -0.4517
  632MOL0     H87160   3.465   7.070  10.192  2.0087 -0.3882  0.1224
  632MOL0     H87161   3.687   7.124  10.114  0.2610  0.7788 -0.2258
  632MOL0     H87162   3.665   7.165  10.288  2.6276  2.4969  0.4721
  632MOL0     H87163   3.659   7.366  10.057  1.5260  0.8916  0.8184
  632MOL0     H87164   3.643   7.413  10.227  0.3690 -1.1980  1.8804
  632MOL0     H87165   3.886   7.318   9.957 -0.4052 -1.1078 -0.5174
  632MOL0     H87166   4.223   7.464  10.088  1.0718 -1.5607 -0.0668
  632MOL0     H87167   4.146   7.419   9.943  0.1889  2.3716 -0.0330
  632MOL0     H87168   4.165   7.166  10.057 -1.2020  0.8286 -1.8444
  632MOL0     H87169   4.296   7.232   9.961 -0.9381 -1.2352 -0.3874
  632MOL0     H87170   4.277   7.263  10.261 -0.3111  1.7343 -0.5388
  632MOL0     H87171   4.367   7.136  10.184  0.3331  1.1166  1.8540
  632MOL0     H87172   4.478   7.381  10.067 -0.4871 -1.8932 -2.8865
  632MOL0     H87173   4.426   7.429  10.223 -0.1752 -0.7063  0.5577
  632MOL0     H87174   4.744   7.131  10.337 -3.1611  0.9072  0.0166
  632MOL0     H87175   4.994   6.904  10.218  0.5548  0.7002 -2.0130
  632MOL0     H87176   4.932   6.994  10.355 -0.0297  1.1717 -0.1413
  632MOL0     H87177   5.056   7.068  10.246 -0.8798  0.5386 -2.1684
  632MOL0     H87178   5.021   6.701  10.111 -0.7487 -0.2738 -0.1428
  632MOL0     H87179   5.115   6.491  10.056  1.7669 -0.5305 -0.4434
  632MOL0     H87180   5.304   6.226   9.891 -0.9387 -0.2598  2.1784
  632MOL0     H87181   5.174   6.308   9.971  0.6180 -0.8230  0.3261
  632MOL0     H87182   5.055   6.329   9.770 -1.0075 -1.6501  0.5015
  632MOL0     H87183   5.209   6.298   9.677  0.6377 -2.3921 -0.9152
  632MOL0     H87184   5.046   6.099   9.838  1.1103  1.9878  1.5958
  632MOL0     H87185   5.201   6.070   9.759  0.3387  0.0601 -2.7841
  632MOL0     H87186   5.114   6.074   9.543  0.6706  1.1917  0.1627
  632MOL0     H87187   4.971   6.167   9.594  2.6535  2.1792  0.3815
  632MOL0     H87188   5.031   5.883   9.703  2.2894  1.1017 -1.9544
  632MOL0     H87189   4.887   5.978   9.724  0.7474 -1.3365  0.8965
  632MOL0     H87190   4.991   5.870   9.456 -0.6566  1.7825 -0.4350
  632MOL0     H87191   4.873   5.989   9.464  1.7153  0.6682  0.0725
  632MOL0     H87192   4.716   5.818   9.587 -0.0572  1.2079 -0.2127
  632MOL0     H87193   4.862   5.709   9.590 -1.9121  1.1563  3.8353
  632MOL0     H87194   4.830   5.693   9.337  0.2227  0.9382  0.0143
  632MOL0     H87195   4.705   5.820   9.350 -1.1934  0.7625  1.3040
  632MOL0     H87196   5.339   6.653   9.727 -1.4480 -1.3891 -0.9584
  632MOL0     H87197   5.259   6.884   9.804 -0.0206  1.1489  3.0806
  632MOL0     H87198   4.740   7.093   9.844 -1.7234 -0.1172  0.3559
  632MOL0     H87199   4.574   7.212   9.944  0.1722  0.0764 -0.1854
  632MOL0     H87200   3.003   7.403   9.413 -0.4272 -0.3914 -0.5960
  632MOL0     H87201   2.785   7.421   9.315 -1.5360  0.7220  1.4813
  632MOL0     H87202   2.180   7.340   9.534 -0.7433 -0.7223  0.2096
  632MOL0     H87203   1.991   7.276   9.413 -0.6102 -0.5103  0.9007
  632MOL0     H87204   1.862   7.128   9.292  0.4558  0.2574  0.2649
  632MOL0     H87205   1.839   7.287   9.223 -1.5679 -0.7377 -2.3937
  632MOL0     H87206   1.824   7.043   9.049  2.1221  2.0375 -1.9600
  632MOL0     H87207   1.787   7.204   8.988  1.1402 -1.4220 -1.0791
  632MOL0     H87208   1.606   7.044   9.166 -1.1116 -0.2096 -2.3606
  632MOL0     H87209   1.591   7.219   9.158 -2.0786 -1.4044  1.5845
  632MOL0     H87210   1.592   7.030   8.924 -1.5177 -0.7857 -0.1201
  632MOL0     H87211   1.568   7.208   8.910 -0.3465 -0.5591 -1.5421
  632MOL0     H87212   1.184   7.121   9.063 -1.5195 -0.0494 -2.7675
  632MOL0     H87213   2.227   7.135   9.073  2.7557  0.2207  0.7943
  632MOL0     H87214   2.548   7.151   9.219 -1.0417  0.3775 -0.8488
  632MOL0     H87215   2.440   7.177   9.066 -2.0716 -0.7295 -0.1388
  632MOL0     H87216   2.527   7.305   9.153  0.6361 -0.4472 -2.2330
  633MOL0     O87217   9.033  11.329   1.008 -0.1785 -0.3782  0.6864
  633MOL0     C87218   8.992  11.221   1.048 -0.4711 -0.5291 -0.1721
  633MOL0     O87219   9.023  11.173   1.173 -0.1901 -0.2430 -0.8804
  633MOL0     C87220   9.138  11.215   1.236  0.2457  1.1904  0.0316
  633MOL0     C87221   9.221  11.117   1.278  0.1726 -0.1452  0.2186
  633MOL0     C87222   9.326  11.146   1.364 -0.6165  0.1724 -0.4671
  633MOL0     C87223   9.359  11.275   1.413  0.7522  0.8101 -0.0287
  633MOL0     O87224   9.465  11.303   1.500  0.2253  0.4298  0.3829
  633MOL0     C87225   9.558  11.191   1.527 -0.0179 -0.3188  0.8191
  633MOL0     C87226   9.685  11.230   1.605 -0.6951 -0.2464 -0.0056
  633MOL0     C87227   9.783  11.300   1.508  0.3399 -0.7490 -0.2521
  633MOL0     C87228   9.866  11.199   1.430 -0.2951 -0.2943 -1.0563
  633MOL0     C87229   9.946  11.282   1.334 -0.8367 -0.5978 -0.0898
  633MOL0     C87230  10.033  11.189   1.236  0.4177  0.3230  0.0927
  633MOL0     C87231  10.107  11.283   1.132  0.8575  0.4304 -1.0401
  633MOL0     C87232  10.165  11.217   1.006 -0.4915 -0.3927 -1.0833
  633MOL0     N87233  10.281  11.139   1.038 -0.8496  0.5478 -0.3230
  633MOL0     C87234  10.409  11.185   1.071  0.5329 -0.1325  1.3294
  633MOL0     C87235  10.472  11.072   1.095 -0.5480  0.0096  0.1691
  633MOL0     C87236  10.626  11.074   1.130 -0.2453 -0.9638 -0.7382
  633MOL0     C87237  10.688  10.937   1.142 -1.1260 -0.4487  0.1773
  633MOL0     C87238  10.756  10.919   1.283 -0.9821  0.4949 -0.4476
  633MOL0     C87239  10.786  10.772   1.337 -0.5591 -0.3363 -0.0289
  633MOL0     O87240  10.883  10.710   1.248  0.0805 -1.1715 -0.3088
  633MOL0     C87241  11.021  10.735   1.266  0.2477  0.4382  0.8872
  633MOL0     C87242  11.102  10.683   1.162 -0.4022  0.3778  0.9839
  633MOL0     C87243  11.244  10.699   1.153 -0.3716 -0.1800 -0.3484
  633MOL0     C87244  11.302  10.627   1.035 -0.3363  1.0713  0.2808
  633MOL0     C87245  11.309  10.769   1.260 -0.5979  0.4020  0.2411
  633MOL0     C87246  11.460  10.771   1.275  0.2290  0.4922 -0.2418
  633MOL0     O87247  11.502  10.858   1.375 -0.3793 -0.2177  0.7352
  633MOL0     C87248  11.634  10.847   1.404  0.6356  0.1988  0.3843
  633MOL0     C87249  11.677  10.857   1.538 -0.3957 -0.5122 -0.1372
  633MOL0     C87250  11.817  10.852   1.585  0.3751  0.0022 -0.7822
  633MOL0     C87251  11.913  10.840   1.486  0.0229 -0.2765  0.3360
  633MOL0     O87252  12.051  10.828   1.514  0.4432 -0.0807 -0.1898
  633MOL0     C87253  12.094  10.793   1.645 -0.9308  0.1011 -0.5594
  633MOL0     C87254  12.243  10.751   1.656  0.5543 -0.4501 -0.0319
  633MOL0     C87255  12.325  10.856   1.584 -1.0281  0.1126 -1.2404
  633MOL0     C87256  12.470  10.859   1.630 -0.0526 -0.6701  1.0377
  633MOL0     C87257  12.548  10.737   1.570  0.6504  0.2146 -0.2605
  633MOL0     C87258  12.646  10.682   1.675  0.5893  0.2960  0.2091
  633MOL0     C87259  12.740  10.586   1.606 -0.6944 -0.1415 -0.2898
  633MOL0     C87260  12.849  10.664   1.534 -0.2238  0.1385 -0.0849
  633MOL0    Cl87261  12.994  10.563   1.522  0.2850  0.2794 -0.0621
  633MOL0     C87262  11.869  10.845   1.350 -0.0756 -0.1965  0.5201
  633MOL0     C87263  11.739  10.848   1.312  0.7000  0.1870 -0.4405
  633MOL0     O87264  11.527  10.693   1.212 -0.1033 -0.1299  0.5317
  633MOL0     C87265  11.233  10.833   1.353 -0.1510 -0.2737  1.5701
  633MOL0     C87266  11.088  10.824   1.357  0.4993  0.1513  0.4169
  633MOL0     N87267  10.394  10.962   1.070  0.2711 -0.0527  0.1480
  633MOL0     N87268  10.284  11.003   1.034 -0.6711  0.0656 -0.4803
  633MOL0     C87269   9.269  11.370   1.382  0.8239  0.3269  0.6264
  633MOL0     C87270   9.165  11.342   1.284  0.1903  0.3819 -0.2216
  633MOL0     C87271   8.895  11.147   0.971  0.7106 -0.1533  0.8203
  633MOL0     C87272   8.820  11.061   1.036  0.7247  0.4436 -0.1465
  633MOL0     C87273   8.723  10.985   0.970  0.1442  0.3287 -1.1878
  633MOL0     C87274   8.699  10.992   0.836 -1.2786 -0.1560  0.0250
  633MOL0     O87275   8.601  10.922   0.777  0.0402  0.3992 -0.0494
  633MOL0     C87276   8.560  10.792   0.820  0.4672 -0.1161 -0.3972
  633MOL0     C87277   8.463  10.713   0.735 -0.5608  0.5697  0.0427
  633MOL0     C87278   8.343  10.788   0.704 -0.1059 -0.1546  0.1725
  633MOL0     C87279   8.239  10.714   0.620 -0.2290  1.2707 -0.4017
  633MOL0     C87280   8.182  10.593   0.694  0.2365  0.2944 -0.0813
  633MOL0     C87281   8.147  10.501   0.759 -0.1568 -0.2955 -0.3101
  633MOL0     C87282   8.777  11.079   0.761 -0.2637  0.5691 -0.0691
  633MOL0     C87283   8.877  11.147   0.826  0.3872 -0.8465  0.5750
  633MOL0     C87284   8.955  11.240   0.737 -1.2423 -0.0679 -0.5045
  633MOL0     H87285   9.198  11.016   1.247 -2.2971  0.5872 -0.5372
  633MOL0     H87286   9.381  11.055   1.385 -0.8275 -0.2788 -1.7652
  633MOL0     H87287   9.584  11.142   1.433 -0.9549  0.3835  0.1812
  633MOL0     H87288   9.503  11.119   1.589 -0.0488 -0.2327  0.8914
  633MOL0     H87289   9.667  11.293   1.693  0.4471 -0.1820  0.1963
  633MOL0     H87290   9.736  11.139   1.638  1.0985  0.6544 -0.2021
  633MOL0     H87291   9.724  11.356   1.435  1.4509 -0.4544 -0.9523
  633MOL0     H87292   9.835  11.379   1.564 -3.2263  1.2310  0.5767
  633MOL0     H87293   9.929  11.138   1.496  1.1665  0.9885 -1.2225
  633MOL0     H87294   9.805  11.133   1.368 -0.1486  1.1951 -2.8434
  633MOL0     H87295  10.005  11.363   1.379 -1.7757  0.0009  0.0946
  633MOL0     H87296   9.878  11.328   1.262  0.9165  1.2506 -0.6703
  633MOL0     H87297  10.113  11.130   1.283  1.8694 -0.1305 -2.7585
  633MOL0     H87298   9.966  11.122   1.181 -0.5635  0.7254  0.7698
  633MOL0     H87299  10.187  11.337   1.183 -0.8604  2.1379  0.0097
  633MOL0     H87300  10.035  11.359   1.101  1.1069  0.4088 -1.6826
  633MOL0     H87301  10.088  11.158   0.956 -3.2534  1.4472  0.7259
  633MOL0     H87302  10.184  11.299   0.937 -4.1796  1.4591 -0.1173
  633MOL0     H87303  10.448  11.286   1.084  0.8878 -0.2385  1.0912
  633MOL0     H87304  10.639  11.119   1.229 -2.9490 -1.9936  0.1930
  633MOL0     H87305  10.685  11.136   1.061  0.2251 -0.0438  0.4529
  633MOL0     H87306  10.614  10.856   1.136 -1.7479  0.0910  0.3562
  633MOL0     H87307  10.767  10.930   1.068  1.5026  1.2868  2.5874
  633MOL0     H87308  10.854  10.968   1.289 -0.1082 -1.2188 -0.1293
  633MOL0     H87309  10.692  10.962   1.361 -0.7939  0.3210 -0.1957
  633MOL0     H87310  10.826  10.773   1.439  0.6285 -0.4327 -0.4755
  633MOL0     H87311  10.690  10.720   1.336 -1.5512  1.3279  1.7217
  633MOL0     H87312  11.046  10.627   1.087  2.0970 -0.8064 -0.1491
  633MOL0     H87313  11.373  10.556   1.079  0.2966  1.0275 -0.7732
  633MOL0     H87314  11.346  10.706   0.973 -0.0785  0.5531 -0.2114
  633MOL0     H87315  11.230  10.566   0.978  0.7922  1.7270 -1.9728
  633MOL0     H87316  11.601  10.872   1.614 -0.9257 -0.3638 -0.6890
  633MOL0     H87317  11.843  10.843   1.690  1.2398  0.6386 -0.9356
  633MOL0     H87318  12.080  10.878   1.712  1.3784  0.4922 -0.5022
  633MOL0     H87319  12.032  10.710   1.682  1.4389 -2.0015 -1.0677
  633MOL0     H87320  12.257  10.747   1.765 -1.4542 -0.4063  0.2557
  633MOL0     H87321  12.259  10.650   1.617 -4.7280 -1.0552 -1.2859
  633MOL0     H87322  12.285  10.956   1.601  0.0045  0.6089 -1.6137
  633MOL0     H87323  12.324  10.841   1.476  1.4373 -0.1053 -1.3099
  633MOL0     H87324  12.471  10.862   1.739  2.9767 -2.7550  1.1793
  633MOL0     H87325  12.524  10.944   1.588 -0.6361 -0.8890 -0.2038
  633MOL0     H87326  12.486  10.654   1.535  1.0452  0.1576 -0.8364
  633MOL0     H87327  12.599  10.774   1.481  1.6769  0.6607  0.4990
  633MOL0     H87328  12.585  10.639   1.755 -0.0468 -0.0584 -0.4593
  633MOL0     H87329  12.693  10.765   1.729 -1.2844  1.8723 -0.4634
  633MOL0     H87330  12.689  10.521   1.535 -1.7038  1.8511 -1.4649
  633MOL0     H87331  12.789  10.540   1.693 -3.4577  2.1857  2.7410
  633MOL0     H87332  12.860  10.754   1.595 -0.6759  1.4867 -1.9017
  633MOL0     H87333  12.823  10.698   1.433 -0.7068 -0.2348 -0.0919
  633MOL0     H87334  11.952  10.845   1.280  1.3058 -1.0991  2.0860
  633MOL0     H87335  11.722  10.861   1.206  0.1996  0.2491 -0.3563
  633MOL0     H87336  11.285  10.904   1.417  0.2471  2.0349 -1.1201
  633MOL0     H87337  11.043  10.883   1.437  0.5968 -1.2768  1.5588
  633MOL0     H87338   9.282  11.472   1.416 -0.2117  1.6307 -2.4872
  633MOL0     H87339   9.083  11.410   1.262  0.3075  0.6521  0.1589
  633MOL0     H87340   8.821  11.058   1.145 -2.6137  0.6606 -0.0273
  633MOL0     H87341   8.651  10.932   1.031 -0.4648 -0.1674 -2.3253
  633MOL0     H87342   8.649  10.730   0.837 -0.6391 -1.3350  1.3135
  633MOL0     H87343   8.515  10.815   0.917  3.7298 -2.3950  1.8706
  633MOL0     H87344   8.432  10.627   0.794 -0.9307 -2.2355 -3.8125
  633MOL0     H87345   8.504  10.675   0.640 -0.0822 -1.2596  0.9454
  633MOL0     H87346   8.296  10.804   0.802 -1.9045 -0.5448 -0.5863
  633MOL0     H87347   8.370  10.884   0.660  0.1770 -0.2786  0.0731
  633MOL0     H87348   8.288  10.669   0.533  3.1389 -0.3512  2.0781
  633MOL0     H87349   8.158  10.784   0.598  1.2281  4.8487  4.1194
  633MOL0     H87350   8.118  10.415   0.815  0.7268 -0.2778  0.1936
  633MOL0     H87351   8.777  11.080   0.652  1.1218 -2.2684 -0.1867
  633MOL0     H87352   9.055  11.198   0.727 -0.8957 -0.2800  2.7825
  633MOL0     H87353   8.918  11.259   0.636 -0.6338 -0.0947 -0.7363
  633MOL0     H87354   8.970  11.340   0.779  0.1826 -0.5986  0.3347
  634MOL0     O87355   0.799   8.495   5.916 -0.1993  0.4030  0.7929
  634MOL0     C87356   0.688   8.505   5.965  1.0404  0.1270  0.3073
  634MOL0     O87357   0.642   8.609   6.036 -0.0293  0.4080 -0.2224
  634MOL0     C87358   0.733   8.706   6.058 -0.1265 -0.1946 -0.3812
  634MOL0     C87359   0.744   8.825   5.990 -0.0433  0.1195  0.1739
  634MOL0     C87360   0.821   8.934   6.040  0.6503  0.1177  0.2882
  634MOL0     C87361   0.904   8.916   6.147  0.2766  0.4378 -0.5306
  634MOL0     O87362   0.969   9.027   6.184 -0.1870 -0.1042 -0.1279
  634MOL0     C87363   1.096   9.051   6.123 -0.3803  0.3115 -0.1860
  634MOL0     C87364   1.104   9.193   6.071 -0.4697 -0.0425 -0.2624
  634MOL0     C87365   1.241   9.230   6.005 -0.6272  0.1407  0.6130
  634MOL0     C87366   1.299   9.140   5.891 -0.8357 -0.7227  0.4088
  634MOL0     C87367   1.420   9.198   5.818 -0.1114  0.1791  0.2865
  634MOL0     C87368   1.526   9.269   5.904  0.8296  0.0934  0.3461
  634MOL0     C87369   1.651   9.308   5.827 -0.4842 -0.0586 -0.4159
  634MOL0     C87370   1.639   9.416   5.724 -0.4942 -0.2412 -0.3258
  634MOL0     N87371   1.629   9.548   5.789 -0.5485 -0.0756  0.3171
  634MOL0     C87372   1.726   9.608   5.872  0.4542  0.0325  0.7101
  634MOL0     C87373   1.680   9.735   5.870  0.1067  0.2847 -0.4763
  634MOL0     C87374   1.728   9.853   5.955 -0.7921  1.2121 -0.1988
  634MOL0     C87375   1.656   9.867   6.094 -0.5535 -0.1282  0.6134
  634MOL0     C87376   1.719   9.969   6.188 -0.0460  0.3415 -0.3655
  634MOL0     C87377   1.861   9.923   6.225 -0.1712 -0.1464 -0.7381
  634MOL0     O87378   1.871   9.783   6.271 -0.3109 -0.1421 -0.3020
  634MOL0     C87379   1.996   9.759   6.330  0.1274  0.9017 -0.3821
  634MOL0     C87380   2.012   9.641   6.400  0.1360 -0.3637  0.2759
  634MOL0     C87381   2.134   9.596   6.448 -0.3993  0.1632  0.1708
  634MOL0     C87382   2.130   9.468   6.525  0.6883  0.1374  0.0125
  634MOL0     C87383   2.249   9.675   6.440  0.2423 -0.0940 -0.6045
  634MOL0     C87384   2.372   9.649   6.520  0.4967 -0.1800  0.1701
  634MOL0     O87385   2.347   9.619   6.646  0.9820 -0.3490 -0.7926
  634MOL0     C87386   2.440   9.593   6.741  0.1809  0.1738  0.0816
  634MOL0     C87387   2.427   9.466   6.794 -0.6876  0.5731  0.2252
  634MOL0     C87388   2.504   9.420   6.897 -0.4193  0.0524  0.1414
  634MOL0     C87389   2.617   9.493   6.940  0.1989 -1.0758  0.6449
  634MOL0     O87390   2.687   9.445   7.055  0.4486 -0.4203 -0.3816
  634MOL0     C87391   2.812   9.508   7.089  1.0377  0.9344  0.6878
  634MOL0     C87392   2.871   9.404   7.180 -0.2086  0.4511 -0.9325
  634MOL0     C87393   2.939   9.293   7.114  0.5454  0.2708 -0.6243
  634MOL0     C87394   2.843   9.172   7.095 -0.5682 -0.2962 -0.4858
  634MOL0     C87395   2.924   9.043   7.062 -0.1945  1.3825  0.4129
  634MOL0     C87396   2.961   9.025   6.903 -0.2996 -0.3656 -0.0906
  634MOL0     C87397   3.058   8.903   6.882  0.5949  0.2284 -0.8221
  634MOL0     C87398   2.977   8.780   6.880  1.3286 -0.1317  0.9649
  634MOL0    Cl87399   2.878   8.764   6.738  0.0029 -0.0403 -0.3665
  634MOL0     C87400   2.628   9.628   6.895 -0.0523 -0.3587  0.5303
  634MOL0     C87401   2.542   9.672   6.791  0.6823 -0.3957 -0.5386
  634MOL0     O87402   2.485   9.649   6.478  0.0896 -0.0397  0.3047
  634MOL0     C87403   2.238   9.794   6.379 -0.0842 -0.3598  0.2371
  634MOL0     C87404   2.114   9.835   6.317 -0.1818  0.2301  0.1101
  634MOL0     N87405   1.570   9.758   5.793  0.1993 -0.0719  0.3094
  634MOL0     N87406   1.546   9.643   5.737  0.2235 -0.0214 -0.2698
  634MOL0     C87407   0.903   8.789   6.220  0.3410  1.0770 -0.0935
  634MOL0     C87408   0.811   8.692   6.173 -0.3119  1.1913  0.4615
  634MOL0     C87409   0.596   8.393   5.935  0.0424 -1.0837  0.8677
  634MOL0     C87410   0.458   8.426   5.939  0.6252  0.9729  0.2360
  634MOL0     C87411   0.362   8.327   5.914 -0.2489  0.1380  0.0506
  634MOL0     C87412   0.401   8.190   5.898  0.9541 -0.2119 -1.0477
  634MOL0     O87413   0.310   8.092   5.880 -0.3045 -0.6841  0.5473
  634MOL0     C87414   0.170   8.111   5.899  0.9250  1.0925  0.7495
  634MOL0     C87415   0.111   8.188   5.781 -0.0268  0.4659 -0.9954
  634MOL0     C87416   0.073   8.089   5.668 -0.3234  0.1382  0.1237
  634MOL0     C87417   0.196   8.021   5.604  0.2862 -0.5858 -0.8133
  634MOL0     C87418   0.158   7.958   5.479 -0.4443  0.2020  0.4681
  634MOL0     C87419   0.110   7.909   5.379 -0.8483  0.8418 -0.5079
  634MOL0     C87420   0.534   8.161   5.907 -0.6217 -0.2784  0.1744
  634MOL0     C87421   0.635   8.258   5.919  0.4790 -0.4381  0.2103
  634MOL0     C87422   0.776   8.203   5.924 -0.8812  1.1941  0.0616
  634MOL0     H87423   0.675   8.843   5.908  0.2672  0.2147 -0.0677
  634MOL0     H87424   0.813   9.031   5.993  1.2977 -0.1521 -0.3943
  634MOL0     H87425   1.115   8.987   6.037  1.2905  0.0702  0.3253
  634MOL0     H87426   1.180   9.035   6.191  1.4800  3.9087 -1.3832
  634MOL0     H87427   1.022   9.234   6.011  0.3134  2.7725  0.4503
  634MOL0     H87428   1.102   9.247   6.166  1.0326  0.2858 -0.3871
  634MOL0     H87429   1.222   9.331   5.967 -0.0564 -0.4272 -1.3026
  634MOL0     H87430   1.320   9.243   6.080 -0.2177 -1.9740  0.5978
  634MOL0     H87431   1.336   9.049   5.939 -2.0412 -1.0533  0.7400
  634MOL0     H87432   1.223   9.127   5.813 -1.0222  0.9789  0.2736
  634MOL0     H87433   1.392   9.271   5.742 -0.1419 -0.1650 -0.0356
  634MOL0     H87434   1.455   9.113   5.759 -1.8605 -0.3237 -0.0650
  634MOL0     H87435   1.484   9.360   5.948  1.6560  1.4949 -1.5945
  634MOL0     H87436   1.565   9.205   5.984 -0.4530  1.1340  1.8754
  634MOL0     H87437   1.697   9.219   5.783  1.6044  0.1960  1.0959
  634MOL0     H87438   1.729   9.337   5.898 -0.2323  0.5602 -0.9354
  634MOL0     H87439   1.733   9.424   5.669  0.5845  1.6783  1.6687
  634MOL0     H87440   1.547   9.403   5.666  0.7871  0.6696 -2.7440
  634MOL0     H87441   1.813   9.561   5.917 -0.7033 -0.4847  2.4752
  634MOL0     H87442   1.709   9.944   5.898 -1.7337  0.0339 -1.8338
  634MOL0     H87443   1.838   9.848   5.962 -0.6628 -0.0599 -2.2750
  634MOL0     H87444   1.550   9.887   6.072 -0.3535 -0.4420 -0.7324
  634MOL0     H87445   1.654   9.775   6.152  2.6830 -1.1891 -0.7211
  634MOL0     H87446   1.715  10.070   6.146 -1.6614 -0.1261 -1.4267
  634MOL0     H87447   1.668   9.971   6.285  1.5450 -0.3841  0.5159
  634MOL0     H87448   1.926   9.937   6.138  1.7985 -1.3287  0.4513
  634MOL0     H87449   1.900   9.986   6.306  0.0281 -0.2707 -0.7369
  634MOL0     H87450   1.920   9.586   6.415 -0.2633 -0.3041 -1.6825
  634MOL0     H87451   2.052   9.404   6.484 -0.5202  0.3498  1.8519
  634MOL0     H87452   2.115   9.487   6.632 -1.8986  4.1239 -0.8706
  634MOL0     H87453   2.227   9.416   6.518  0.7717  0.0423  1.5170
  634MOL0     H87454   2.338   9.410   6.769 -1.4770  2.2206 -0.8362
  634MOL0     H87455   2.483   9.326   6.949  1.3356 -0.3827  0.1449
  634MOL0     H87456   2.875   9.536   7.004  0.8733  1.2812  0.6768
  634MOL0     H87457   2.778   9.600   7.138  2.1696  1.5872  0.3074
  634MOL0     H87458   2.940   9.459   7.245  0.1472 -2.0078  0.8978
  634MOL0     H87459   2.788   9.383   7.248 -0.4511  1.6401 -0.8427
  634MOL0     H87460   3.033   9.264   7.162  1.9435 -0.1434 -3.4064
  634MOL0     H87461   2.974   9.328   7.017 -0.4531  2.4223 -0.2527
  634MOL0     H87462   2.776   9.201   7.014  1.2095  0.3919 -1.7997
  634MOL0     H87463   2.785   9.145   7.183  0.6063 -2.0791 -0.2062
  634MOL0     H87464   3.015   9.038   7.124  0.2135  2.7327 -0.0473
  634MOL0     H87465   2.863   8.956   7.090 -0.4658  1.9122  1.5222
  634MOL0     H87466   3.001   9.116   6.858  3.0692 -2.8741 -2.7097
  634MOL0     H87467   2.866   8.998   6.856 -1.2725 -0.2109  1.7115
  634MOL0     H87468   3.140   8.892   6.953  0.1578 -0.4232 -0.4047
  634MOL0     H87469   3.100   8.921   6.783 -0.0831 -3.0161 -1.8431
  634MOL0     H87470   2.908   8.782   6.966 -1.8640  1.6040 -1.4315
  634MOL0     H87471   3.037   8.689   6.888  1.7424  0.1683  1.3710
  634MOL0     H87472   2.688   9.704   6.943 -1.0242  0.8808 -0.1462
  634MOL0     H87473   2.559   9.774   6.758  4.8814 -1.2099 -1.5045
  634MOL0     H87474   2.328   9.855   6.379 -0.7666  0.6579  0.3022
  634MOL0     H87475   2.115   9.921   6.251 -0.6730  0.9827  1.0525
  634MOL0     H87476   0.965   8.768   6.307  0.3850  0.0787 -0.3497
  634MOL0     H87477   0.803   8.590   6.208  1.5216  0.8735  0.0679
  634MOL0     H87478   0.425   8.529   5.934 -1.5243  0.4565  2.1847
  634MOL0     H87479   0.259   8.358   5.902 -0.5979 -1.8629 -3.5662
  634MOL0     H87480   0.120   8.016   5.920 -0.3241  2.1166  2.6644
  634MOL0     H87481   0.150   8.167   5.990 -2.0546  2.2875 -0.5234
  634MOL0     H87482   0.182   8.261   5.741 -0.6625  1.2768 -0.6708
  634MOL0     H87483   0.029   8.241   5.829 -0.1791 -3.2187  3.5512
  634MOL0     H87484   0.000   8.015   5.703  0.8944 -0.1976  2.0697
  634MOL0     H87485   0.015   8.145   5.594  1.2515  2.6227  0.6586
  634MOL0     H87486   0.223   7.947   5.680 -2.2698 -0.4935  0.3038
  634MOL0     H87487   0.275   8.093   5.583  2.7177 -2.4183  1.3452
  634MOL0     H87488   0.075   7.869   5.287  0.2758 -1.1218 -0.1285
  634MOL0     H87489   0.558   8.055   5.911  1.3478  0.1318  0.4075
  634MOL0     H87490   0.846   8.272   5.875 -2.5619  2.5217 -0.5625
  634MOL0     H87491   0.810   8.188   6.027 -1.2912  0.6914  0.1283
  634MOL0     H87492   0.787   8.109   5.868  0.5923  0.9757  0.6687
  635MOL0     O87493   1.957   8.033   7.061 -0.1776  0.5970  0.0533
  635MOL0     C87494   1.983   8.016   6.943  0.2862  0.2589  0.0593
  635MOL0     O87495   2.111   7.992   6.895 -0.4952 -0.5606 -0.6938
  635MOL0     C87496   2.221   7.999   6.978 -0.6277  0.8897  0.4477
  635MOL0     C87497   2.224   7.936   7.109  1.0524  0.2078 -0.0641
  635MOL0     C87498   2.343   7.930   7.180 -0.1760  0.2418  0.3410
  635MOL0     C87499   2.457   7.989   7.127  0.2020  0.1326 -0.2361
  635MOL0     O87500   2.585   7.984   7.176 -0.3425 -0.4254 -0.5296
  635MOL0     C87501   2.615   7.923   7.301  0.6909 -0.8248  0.0832
  635MOL0     C87502   2.580   8.028   7.412  0.0492 -0.1866 -0.6724
  635MOL0     C87503   2.561   7.967   7.550  0.8062  0.3827 -0.8797
  635MOL0     C87504   2.571   8.075   7.659  0.4977 -0.3066  0.9639
  635MOL0     C87505   2.705   8.105   7.714  0.0036 -0.1743  0.3541
  635MOL0     C87506   2.828   8.096   7.620  0.3416  0.4173 -0.5206
  635MOL0     C87507   2.960   8.123   7.693 -0.4015  0.0092 -0.6155
  635MOL0     C87508   3.026   8.002   7.766 -0.3458  0.2616  0.5879
  635MOL0     N87509   3.099   7.912   7.664 -0.1551  0.2300  0.1904
  635MOL0     C87510   3.049   7.805   7.600  0.4207 -0.2145  0.1520
  635MOL0     C87511   3.148   7.760   7.522  0.6565  0.5302 -0.8906
  635MOL0     C87512   3.142   7.630   7.448  0.1211  0.7273  0.0228
  635MOL0     C87513   3.138   7.654   7.291 -0.1864 -0.4900 -0.3028
  635MOL0     C87514   2.998   7.692   7.241 -0.3306  0.3250  0.5242
  635MOL0     C87515   2.990   7.701   7.093  0.2448  0.2424 -0.5110
  635MOL0     O87516   2.870   7.763   7.056 -0.0006 -0.1383  0.2527
  635MOL0     C87517   2.777   7.688   6.990  0.5082 -0.5436  0.5790
  635MOL0     C87518   2.745   7.555   7.015  0.0582 -0.3067 -0.3605
  635MOL0     C87519   2.636   7.492   6.959  0.7637  0.6287 -0.4420
  635MOL0     C87520   2.601   7.352   7.001  0.1811  0.6558 -0.7584
  635MOL0     C87521   2.553   7.570   6.869  0.6713  0.2061 -0.8526
  635MOL0     C87522   2.426   7.514   6.814  0.6682 -0.7384  0.0109
  635MOL0     O87523   2.315   7.599   6.807  0.1391 -0.6027 -0.3821
  635MOL0     C87524   2.207   7.572   6.731  0.0869 -0.0593 -0.3817
  635MOL0     C87525   2.091   7.647   6.758 -0.3473 -0.9524  0.1192
  635MOL0     C87526   1.965   7.620   6.699  1.1401  0.0795 -0.2050
  635MOL0     C87527   1.953   7.522   6.600 -1.1129  0.0215  0.1091
  635MOL0     O87528   1.831   7.483   6.543 -0.3215 -0.4894 -0.4339
  635MOL0     C87529   1.743   7.586   6.521  0.2921  0.4904 -0.2785
  635MOL0     C87530   1.654   7.567   6.403 -0.1094 -0.2237 -0.2101
  635MOL0     C87531   1.722   7.492   6.280  0.1264 -0.0327  0.3403
  635MOL0     C87532   1.632   7.466   6.158  0.5064  0.4088  0.3999
  635MOL0     C87533   1.714   7.405   6.038 -0.1009 -0.4943  0.3426
  635MOL0     C87534   1.622   7.371   5.916 -0.4408  0.1544 -0.0194
  635MOL0     C87535   1.513   7.264   5.949 -0.3947  0.6223 -0.6557
  635MOL0     C87536   1.568   7.131   6.008 -0.6662  0.2680  0.0547
  635MOL0    Cl87537   1.439   7.000   6.014  0.1137 -0.6497 -0.6373
  635MOL0     C87538   2.066   7.450   6.567 -0.0707  0.2441 -0.0902
  635MOL0     C87539   2.194   7.474   6.626 -0.5388 -0.1125 -0.2764
  635MOL0     O87540   2.426   7.403   6.769 -0.7776 -0.1564  0.1414
  635MOL0     C87541   2.573   7.707   6.852  0.5580 -0.2492  0.5615
  635MOL0     C87542   2.684   7.763   6.906  0.5327 -0.3027 -0.2526
  635MOL0     N87543   3.255   7.839   7.535 -0.0079 -0.6346  0.3921
  635MOL0     N87544   3.224   7.929   7.622 -0.5498 -0.5593  0.8006
  635MOL0     C87545   2.459   8.040   7.004  0.0053 -0.0673  0.6296
  635MOL0     C87546   2.341   8.044   6.929 -0.2244  0.3850 -0.2618
  635MOL0     C87547   1.867   8.003   6.839  0.2076  0.1259 -0.2696
  635MOL0     C87548   1.902   7.963   6.712  0.2745 -0.8299  0.2009
  635MOL0     C87549   1.814   7.966   6.609  0.2517  0.0897 -0.2564
  635MOL0     C87550   1.683   7.997   6.633 -0.0908 -0.4460  0.4180
  635MOL0     O87551   1.608   8.000   6.519  0.0832 -0.1378  0.0542
  635MOL0     C87552   1.469   8.033   6.516 -0.2129 -0.6138  0.7694
  635MOL0     C87553   1.423   8.034   6.370  0.3798  0.2428  0.2975
  635MOL0     C87554   1.415   7.891   6.316 -0.3882 -0.3197  0.3328
  635MOL0     C87555   1.315   7.876   6.200 -0.6697  0.5160 -0.8705
  635MOL0     C87556   1.314   7.731   6.158  1.4445  0.1900  0.8281
  635MOL0     C87557   1.306   7.614   6.122  0.0842 -0.9035 -0.2376
  635MOL0     C87558   1.641   8.021   6.761  0.2076  0.2429  0.4953
  635MOL0     C87559   1.729   8.040   6.860 -0.0003  0.2141 -0.5918
  635MOL0     C87560   1.679   8.081   6.997 -0.0039 -1.3114 -0.0694
  635MOL0     H87561   2.139   7.879   7.144  1.6018 -0.5975 -0.0033
  635MOL0     H87562   2.345   7.889   7.280 -0.1855 -0.5786  0.0087
  635MOL0     H87563   2.720   7.894   7.306  1.1449  0.6660 -0.1356
  635MOL0     H87564   2.554   7.834   7.317 -1.7234  0.5329 -0.9443
  635MOL0     H87565   2.667   8.093   7.406 -0.4837  0.3587 -5.0569
  635MOL0     H87566   2.486   8.075   7.382 -0.1576 -0.6859 -0.8328
  635MOL0     H87567   2.467   7.912   7.558  1.7315 -1.4567 -2.1352
  635MOL0     H87568   2.641   7.895   7.568  0.6016  0.8039  2.2044
  635MOL0     H87569   2.523   8.168   7.627 -3.5465 -2.3216  0.5441
  635MOL0     H87570   2.504   8.049   7.742  2.6085 -0.8003  2.5986
  635MOL0     H87571   2.728   8.026   7.787  0.7329  0.9920  1.4329
  635MOL0     H87572   2.710   8.207   7.753  0.1021  0.9883 -2.4360
  635MOL0     H87573   2.837   7.999   7.570  1.2429  0.5010 -0.5308
  635MOL0     H87574   2.821   8.168   7.538 -0.1987  0.4027 -0.4910
  635MOL0     H87575   2.952   8.207   7.763 -0.3630 -2.4590  2.5627
  635MOL0     H87576   3.028   8.155   7.614 -0.7963 -0.3107 -1.0839
  635MOL0     H87577   3.096   8.020   7.848  0.1086 -2.0646  0.7818
  635MOL0     H87578   2.941   7.942   7.801 -1.3514  1.0734 -0.3793
  635MOL0     H87579   2.953   7.758   7.612 -0.5537  1.6060 -0.1390
  635MOL0     H87580   3.055   7.570   7.472  1.1704 -1.0386 -0.4172
  635MOL0     H87581   3.226   7.567   7.480 -0.6796  0.0849  0.8866
  635MOL0     H87582   3.200   7.742   7.276 -1.7172  0.2005 -3.5365
  635MOL0     H87583   3.183   7.565   7.245  2.0193  0.2153  0.3763
  635MOL0     H87584   2.923   7.620   7.274 -0.7886  0.4160 -0.2813
  635MOL0     H87585   2.971   7.788   7.286  2.4866  0.1240  2.9119
  635MOL0     H87586   3.070   7.763   7.051  0.3258 -1.5235 -3.1871
  635MOL0     H87587   2.995   7.601   7.050  2.0772 -0.1771  0.5599
  635MOL0     H87588   2.802   7.491   7.082  0.1027  0.3290  0.2256
  635MOL0     H87589   2.578   7.280   6.922  1.6829 -0.1033 -0.5471
  635MOL0     H87590   2.503   7.361   7.048 -0.8989 -1.7272 -2.3515
  635MOL0     H87591   2.671   7.297   7.064 -4.5638 -1.8738  2.9631
  635MOL0     H87592   2.090   7.718   6.840 -1.7605 -1.2526  0.3821
  635MOL0     H87593   1.889   7.694   6.724  2.1947  1.2120 -0.2598
  635MOL0     H87594   1.666   7.596   6.598 -0.2651  0.6680 -0.8520
  635MOL0     H87595   1.788   7.686   6.521 -2.6093  1.9021 -0.5448
  635MOL0     H87596   1.564   7.511   6.429 -1.0057  0.9812 -0.6245
  635MOL0     H87597   1.616   7.664   6.368 -2.2642 -1.6335 -2.0011
  635MOL0     H87598   1.767   7.397   6.309 -1.3690 -1.2086 -0.9806
  635MOL0     H87599   1.798   7.560   6.240 -1.2526  0.9934 -0.6382
  635MOL0     H87600   1.584   7.563   6.138 -0.9397 -0.8307 -2.7512
  635MOL0     H87601   1.561   7.394   6.200  1.9782 -0.7858  0.9201
  635MOL0     H87602   1.796   7.473   6.013 -2.3167  1.7097 -1.5149
  635MOL0     H87603   1.763   7.313   6.070  2.0252 -0.0890 -1.4516
  635MOL0     H87604   1.688   7.317   5.847 -1.2909 -0.2032 -0.5751
  635MOL0     H87605   1.581   7.457   5.862  0.6211 -1.2945 -3.4354
  635MOL0     H87606   1.459   7.250   5.855 -0.2600  1.8128 -0.9187
  635MOL0     H87607   1.441   7.300   6.023  1.7690  0.9087  1.4125
  635MOL0     H87608   1.605   7.145   6.110  1.0003  1.1082 -0.6298
  635MOL0     H87609   1.648   7.087   5.948 -2.0054 -0.9203 -0.9317
  635MOL0     H87610   2.049   7.375   6.491  0.1078  1.0064 -0.9067
  635MOL0     H87611   2.281   7.417   6.595 -0.1617 -0.3326  1.1090
  635MOL0     H87612   2.509   7.781   6.806  0.1834 -0.0969  1.3308
  635MOL0     H87613   2.696   7.869   6.884 -0.5576 -0.0468  0.3570
  635MOL0     H87614   2.553   8.079   6.965  0.3557 -1.9022 -0.4890
  635MOL0     H87615   2.338   8.093   6.832  2.5269  2.6281  0.6422
  635MOL0     H87616   2.007   7.965   6.685  0.1753  1.4267 -0.2728
  635MOL0     H87617   1.848   7.955   6.506 -2.4421 -0.0714 -1.2086
  635MOL0     H87618   1.412   7.966   6.581  0.4305  0.0098  2.0031
  635MOL0     H87619   1.452   8.132   6.559  0.8990 -0.8791  1.8746
  635MOL0     H87620   1.483   8.097   6.304 -1.1094  2.2444  0.7785
  635MOL0     H87621   1.326   8.084   6.374  1.3763  2.2462  3.4522
  635MOL0     H87622   1.513   7.852   6.287  0.9358  1.5758  1.9851
  635MOL0     H87623   1.380   7.833   6.401  0.7879  0.7036  1.5487
  635MOL0     H87624   1.331   7.935   6.110 -0.5285  1.9579  0.0738
  635MOL0     H87625   1.224   7.910   6.251  0.8901 -1.9801  4.2666
  635MOL0     H87626   1.337   7.514   6.105  2.5530 -0.2809  0.2106
  635MOL0     H87627   1.535   8.030   6.778 -0.3272 -3.0959 -0.4024
  635MOL0     H87628   1.578   8.121   6.983  0.4716 -0.7715 -2.4352
  635MOL0     H87629   1.683   8.004   7.074  3.1905 -1.2582 -0.0597
  635MOL0     H87630   1.738   8.163   7.039 -4.2819  2.8895 -1.3680
  636MOL0     O87631   1.757   0.247   5.392 -0.2837  0.4827  0.7233
  636MOL0     C87632   1.728   0.334   5.474 -0.7213 -0.4387  0.1248
  636MOL0     O87633   1.816   0.405   5.556 -0.0959 -0.1802  0.1312
  636MOL0     C87634   1.949   0.401   5.523  0.7548 -0.3526  0.2216
  636MOL0     C87635   2.016   0.514   5.468  0.8573  0.4864 -0.5680
  636MOL0     C87636   2.152   0.500   5.441 -0.1202  0.2819 -0.0577
  636MOL0     C87637   2.232   0.393   5.479  0.5089  0.8780 -0.7798
  636MOL0     O87638   2.367   0.407   5.465 -0.0986  0.1649 -0.4907
  636MOL0     C87639   2.452   0.327   5.555  0.0305 -0.4524  0.4098
  636MOL0     C87640   2.598   0.338   5.512 -0.8112  0.2885  0.0928
  636MOL0     C87641   2.667   0.459   5.577 -0.1361  0.3211  0.5264
  636MOL0     C87642   2.824   0.449   5.550 -0.0142 -0.6471 -0.6959
  636MOL0     C87643   2.905   0.558   5.625 -0.4442  0.6662 -0.2355
  636MOL0     C87644   3.057   0.547   5.611  0.8034 -0.4359  0.4841
  636MOL0     C87645   3.138   0.638   5.699 -0.6718  0.7662  0.4555
  636MOL0     C87646   3.291   0.605   5.681  0.6525  0.7577 -0.8476
  636MOL0     N87647   3.378   0.710   5.722 -0.2582 -0.0668  0.0388
  636MOL0     C87648   3.381   0.842   5.685  0.7912 -0.5431  0.2027
  636MOL0     C87649   3.455   0.914   5.768 -0.5319 -0.2338  0.3799
  636MOL0     C87650   3.492   1.064   5.771 -0.0573  0.1323 -0.2202
  636MOL0     C87651   3.541   1.113   5.906 -0.3858  0.7462  0.7487
  636MOL0     C87652   3.678   1.057   5.950 -0.2188 -0.9018  0.4411
  636MOL0     C87653   3.774   1.052   5.833  0.7478 -0.5039 -0.2492
  636MOL0     O87654   3.903   1.021   5.891 -0.4779 -0.0501  0.3268
  636MOL0     C87655   4.013   1.043   5.811 -0.7690  0.4968  0.0250
  636MOL0     C87656   4.137   1.035   5.874 -0.0866  0.3471  0.1296
  636MOL0     C87657   4.261   1.051   5.809  0.5434 -0.5176  0.0412
  636MOL0     C87658   4.381   1.048   5.891 -0.2114  1.2826 -0.0988
  636MOL0     C87659   4.257   1.063   5.664  0.2637 -0.3925  0.6687
  636MOL0     C87660   4.380   1.059   5.577 -0.1899  0.7360 -0.5461
  636MOL0     O87661   4.505   1.057   5.637  0.4178  0.4746  1.3276
  636MOL0     C87662   4.617   1.044   5.557 -0.6378 -0.4900  0.0402
  636MOL0     C87663   4.720   0.959   5.600  0.7588 -0.3990 -0.3339
  636MOL0     C87664   4.834   0.936   5.528 -0.1460 -0.5090  0.0445
  636MOL0     C87665   4.860   1.008   5.404 -0.3238  0.5543  0.3179
  636MOL0     O87666   4.982   0.986   5.343  0.0711 -0.4768 -0.4564
  636MOL0     C87667   4.997   1.028   5.209 -0.7412 -0.6110  0.4348
  636MOL0     C87668   5.097   0.929   5.139  0.4872  0.5327  0.5937
  636MOL0     C87669   5.242   0.972   5.152 -0.6099  0.6404  0.5030
  636MOL0     C87670   5.345   0.881   5.089  0.3926  0.5716 -0.1957
  636MOL0     C87671   5.494   0.930   5.088 -0.6695 -0.0917 -0.3416
  636MOL0     C87672   5.552   0.959   5.230 -0.0976 -0.0756  0.6689
  636MOL0     C87673   5.533   0.834   5.313  0.3161 -0.4944 -0.0386
  636MOL0     C87674   5.620   0.843   5.438  0.2335  0.2611 -0.1607
  636MOL0    Cl87675   5.788   0.878   5.411  0.3163  0.2297 -0.1492
  636MOL0     C87676   4.759   1.097   5.358 -0.3026 -0.7305 -0.3975
  636MOL0     C87677   4.645   1.114   5.434 -0.2127  0.6262 -0.1393
  636MOL0     O87678   4.356   1.046   5.458  0.7635 -0.4261  0.1351
  636MOL0     C87679   4.132   1.078   5.597  0.2773 -0.1828  0.0879
  636MOL0     C87680   4.013   1.077   5.673  0.0650  0.6385 -0.2455
  636MOL0     N87681   3.506   0.823   5.856 -0.1066 -0.4630 -1.2084
  636MOL0     N87682   3.459   0.705   5.828  0.3429  0.0822  0.0887
  636MOL0     C87683   2.172   0.290   5.531 -0.1705  0.2988  0.0205
  636MOL0     C87684   2.028   0.292   5.552 -0.1530 -0.7521  1.2799
  636MOL0     C87685   1.577   0.343   5.500  0.2668 -0.7270 -1.1999
  636MOL0     C87686   1.545   0.451   5.592  0.6067 -0.5443 -0.1528
  636MOL0     C87687   1.410   0.477   5.625 -0.4647  0.2472 -0.4736
  636MOL0     C87688   1.307   0.391   5.577 -0.7012 -0.2264 -0.3958
  636MOL0     O87689   1.181   0.398   5.627  0.3178 -0.0051 -0.0305
  636MOL0     C87690   1.138   0.514   5.694  0.1309 -0.3828 -0.6981
  636MOL0     C87691   1.003   0.487   5.753 -0.2703  0.4815  1.1733
  636MOL0     C87692   0.891   0.458   5.644 -0.5889 -0.8320 -0.1207
  636MOL0     C87693   0.843   0.588   5.571 -0.2628 -0.2580  1.0701
  636MOL0     C87694   0.726   0.552   5.494 -0.8654  0.3644 -0.0157
  636MOL0     C87695   0.623   0.526   5.436  0.2117 -0.5513  0.3270
  636MOL0     C87696   1.342   0.286   5.492 -0.3514 -0.5304  0.4318
  636MOL0     C87697   1.474   0.256   5.451  0.3096  0.7213 -0.4213
  636MOL0     C87698   1.488   0.130   5.372 -1.0646 -0.2939  0.3427
  636MOL0     H87699   1.949   0.595   5.444 -0.6016 -0.1617  1.0484
  636MOL0     H87700   2.202   0.586   5.396 -1.9175 -0.4130 -3.8223
  636MOL0     H87701   2.428   0.222   5.536  1.5207 -0.3977 -2.2939
  636MOL0     H87702   2.446   0.349   5.662  0.6924  0.6110  0.2453
  636MOL0     H87703   2.646   0.250   5.558  1.2771  2.1404  1.6924
  636MOL0     H87704   2.614   0.340   5.404  0.8340  3.8165  0.2417
  636MOL0     H87705   2.620   0.552   5.543 -2.4927 -0.0689  2.5222
  636MOL0     H87706   2.653   0.450   5.685 -0.8113  1.0554  0.5100
  636MOL0     H87707   2.853   0.348   5.581 -0.5956 -0.0059  2.1240
  636MOL0     H87708   2.837   0.465   5.442  2.6869  0.6703 -0.2651
  636MOL0     H87709   2.881   0.546   5.731 -1.8955 -1.7929 -0.7496
  636MOL0     H87710   2.865   0.656   5.599 -1.9385  0.5143  1.3300
  636MOL0     H87711   3.073   0.443   5.639 -3.5756 -1.4828 -0.0750
  636MOL0     H87712   3.077   0.560   5.505  1.6167 -1.1260  0.5464
  636MOL0     H87713   3.115   0.630   5.805  0.5000  2.3424  0.8787
  636MOL0     H87714   3.114   0.737   5.659 -1.1940 -0.0107 -1.2883
  636MOL0     H87715   3.327   0.517   5.733 -0.0445  2.6511  3.2052
  636MOL0     H87716   3.316   0.588   5.576 -0.4091  0.7608 -1.1176
  636MOL0     H87717   3.316   0.879   5.607  0.3081  1.0249  1.2864
  636MOL0     H87718   3.408   1.125   5.736 -0.7706  1.2966  3.2102
  636MOL0     H87719   3.578   1.076   5.704  1.5519 -2.0872  1.2914
  636MOL0     H87720   3.557   1.221   5.897 -1.3427  0.7517 -2.3536
  636MOL0     H87721   3.458   1.109   5.976 -0.9304  1.6593  0.1805
  636MOL0     H87722   3.714   1.114   6.036 -0.3954  2.1153 -1.3482
  636MOL0     H87723   3.662   0.953   5.979 -3.0306 -0.0668  2.3232
  636MOL0     H87724   3.742   0.976   5.761 -0.9599  0.6568 -0.7677
  636MOL0     H87725   3.772   1.145   5.776  1.1550  0.3190  1.0466
  636MOL0     H87726   4.137   1.029   5.982 -1.4336  0.8401  0.1855
  636MOL0     H87727   4.443   1.133   5.864  1.4303  0.3684  0.6709
  636MOL0     H87728   4.446   0.964   5.866  0.0448  2.3387 -3.4097
  636MOL0     H87729   4.359   1.046   5.998 -1.2387 -0.6759 -0.2941
  636MOL0     H87730   4.699   0.892   5.683 -0.1349  0.0822 -0.1540
  636MOL0     H87731   4.907   0.865   5.565  0.7531  0.9883  1.2737
  636MOL0     H87732   4.898   1.021   5.162 -0.4861  0.8359 -0.3835
  636MOL0     H87733   5.035   1.131   5.203 -0.7581 -0.5533  1.1912
  636MOL0     H87734   5.076   0.827   5.172  0.8614  0.6351  1.1489
  636MOL0     H87735   5.073   0.921   5.032  1.1484  4.6156 -0.0220
  636MOL0     H87736   5.264   0.993   5.257  1.4109 -1.1423  0.5213
  636MOL0     H87737   5.247   1.070   5.104 -0.8638  0.0555 -0.7553
  636MOL0     H87738   5.305   0.883   4.987 -2.3950 -2.9701  0.6156
  636MOL0     H87739   5.329   0.783   5.136 -1.1586  1.8241  2.0900
  636MOL0     H87740   5.558   0.850   5.051 -0.7249 -1.1422  1.6918
  636MOL0     H87741   5.509   1.019   5.026  2.1649 -0.8789 -0.9016
  636MOL0     H87742   5.492   1.042   5.269 -1.3341 -0.1733 -0.9372
  636MOL0     H87743   5.658   0.982   5.217 -0.4629  2.8494  2.2167
  636MOL0     H87744   5.555   0.749   5.248 -1.0613 -1.5588  0.8275
  636MOL0     H87745   5.429   0.817   5.344  0.0828 -1.6989 -1.3872
  636MOL0     H87746   5.609   0.754   5.500  3.6061 -1.4211 -1.6923
  636MOL0     H87747   5.573   0.920   5.499 -1.6255 -2.0117  1.4505
  636MOL0     H87748   4.768   1.161   5.271  2.5219 -0.6848 -0.1665
  636MOL0     H87749   4.560   1.171   5.396 -1.9042 -0.0537  2.4324
  636MOL0     H87750   4.136   1.096   5.490 -1.2459  2.6062  0.4030
  636MOL0     H87751   3.917   1.089   5.623  0.3267 -2.3807 -1.7118
  636MOL0     H87752   2.229   0.200   5.553  0.2920  0.4426 -0.5600
  636MOL0     H87753   1.974   0.205   5.587 -2.3495 -1.0443 -2.3441
  636MOL0     H87754   1.619   0.527   5.618  0.0302  0.6995 -1.9496
  636MOL0     H87755   1.383   0.569   5.675 -0.4653  0.9277 -1.6849
  636MOL0     H87756   1.203   0.543   5.777 -1.0778  1.5891 -0.3522
  636MOL0     H87757   1.137   0.600   5.627  1.6933 -1.7332 -2.5571
  636MOL0     H87758   0.974   0.573   5.814  4.1942  3.2576 -0.1094
  636MOL0     H87759   1.019   0.402   5.821  0.7600  0.9221  1.5081
  636MOL0     H87760   0.917   0.378   5.574 -0.5021 -1.0499  0.1633
  636MOL0     H87761   0.808   0.426   5.707 -0.1140 -0.4965  0.6837
  636MOL0     H87762   0.918   0.629   5.503  0.1981 -0.0491  1.6988
  636MOL0     H87763   0.814   0.663   5.645  0.6092 -1.6164  2.8628
  636MOL0     H87764   0.529   0.512   5.386 -0.4132  2.1465  0.5798
  636MOL0     H87765   1.252   0.234   5.461 -0.7501  1.4021 -2.0219
  636MOL0     H87766   1.411   0.055   5.392  1.2483 -2.5647  1.3668
  636MOL0     H87767   1.491   0.153   5.265  0.6534  0.5323  0.5353
  636MOL0     H87768   1.578   0.071   5.392 -1.0152  0.5412  3.0080
  637MOL0     O87769   6.354   9.132   5.160  0.1842  0.0612 -0.0536
  637MOL0     C87770   6.313   9.016   5.180  0.5563 -1.1214 -0.2700
  637MOL0     O87771   6.394   8.925   5.232 -0.2363 -0.1591  0.4928
  637MOL0     C87772   6.532   8.934   5.226 -0.1329  0.3278  0.6994
  637MOL0     C87773   6.605   8.956   5.113  0.1533  0.0512  0.4309
  637MOL0     C87774   6.744   8.957   5.113  0.1171  0.2331  0.2223
  637MOL0     C87775   6.811   8.932   5.227 -0.7406  0.5910  0.2312
  637MOL0     O87776   6.943   8.931   5.211 -0.5676  0.0988 -0.1866
  637MOL0     C87777   7.011   8.901   5.330  0.2147 -1.0647 -0.2224
  637MOL0     C87778   7.161   8.886   5.295  0.1218  0.4995  0.0219
  637MOL0     C87779   7.232   8.832   5.415 -0.4606 -0.0553  0.5562
  637MOL0     C87780   7.389   8.828   5.387 -0.4833  0.2432  0.1007
  637MOL0     C87781   7.487   8.819   5.503 -0.2451  0.5915  0.1714
  637MOL0     C87782   7.630   8.813   5.456  0.4425 -0.0490  0.1382
  637MOL0     C87783   7.720   8.810   5.577 -0.0781  0.2075 -0.5296
  637MOL0     C87784   7.870   8.783   5.542 -0.2422 -0.1166  0.7832
  637MOL0     N87785   7.939   8.722   5.655 -0.0920 -0.0917 -0.4473
  637MOL0     C87786   8.058   8.654   5.643 -0.2807  0.4426 -0.1505
  637MOL0     C87787   8.107   8.662   5.768 -0.1943  0.2009  0.8947
  637MOL0     C87788   8.252   8.627   5.792  0.1986  0.2890  0.0931
  637MOL0     C87789   8.350   8.748   5.770  0.7444  0.6412 -0.2747
  637MOL0     C87790   8.366   8.780   5.623  0.3602  0.7300 -1.0462
  637MOL0     C87791   8.488   8.861   5.606 -0.3296 -0.3302 -0.1282
  637MOL0     O87792   8.601   8.785   5.646 -0.8426 -0.5004  0.4801
  637MOL0     C87793   8.722   8.842   5.614  0.8767 -1.0388  0.0448
  637MOL0     C87794   8.762   8.869   5.483 -0.5101 -0.3106 -0.3699
  637MOL0     C87795   8.887   8.921   5.452  0.2395  0.3117  0.0071
  637MOL0     C87796   8.915   8.961   5.310 -0.7357  0.3625 -0.0788
  637MOL0     C87797   8.981   8.921   5.550  0.1273  0.2844  0.0561
  637MOL0     C87798   9.121   8.974   5.533  0.3423 -0.1859 -0.5414
  637MOL0     O87799   9.211   8.930   5.628 -0.2453  0.0868 -0.1193
  637MOL0     C87800   9.347   8.954   5.621  0.4821  0.0959  0.4445
  637MOL0     C87801   9.414   9.017   5.719  0.8608  0.3099 -0.1317
  637MOL0     C87802   9.549   9.044   5.707 -0.0967 -0.0841 -0.4675
  637MOL0     C87803   9.614   9.022   5.587 -0.0022 -1.2512  0.5785
  637MOL0     O87804   9.745   9.034   5.563 -0.3611  0.6825 -1.4033
  637MOL0     C87805   9.822   8.966   5.655 -0.8144 -0.1907  0.6720
  637MOL0     C87806   9.959   8.919   5.592 -0.4457 -0.0879  0.2792
  637MOL0     C87807   9.929   8.806   5.493  0.2646  0.7311 -1.0498
  637MOL0     C87808  10.047   8.760   5.408 -0.4347 -1.8306  0.5368
  637MOL0     C87809  10.003   8.633   5.329 -0.5092 -0.8690 -0.1511
  637MOL0     C87810  10.117   8.578   5.239 -0.0889  0.0687 -0.0277
  637MOL0     C87811  10.056   8.450   5.184 -0.5964  0.1516  0.0344
  637MOL0     C87812  10.152   8.386   5.089  0.4933  0.3012 -0.8590
  637MOL0    Cl87813  10.216   8.492   4.965  0.1129 -0.0634  0.2238
  637MOL0     C87814   9.539   8.971   5.477 -0.4072  0.2486 -0.1717
  637MOL0     C87815   9.407   8.930   5.500 -0.2966  0.1492  0.5969
  637MOL0     O87816   9.146   9.064   5.450 -0.2419 -0.7467  0.5488
  637MOL0     C87817   8.949   8.878   5.675  0.2022 -0.5751 -0.0468
  637MOL0     C87818   8.820   8.842   5.713 -0.4288  0.3384 -0.0030
  637MOL0     N87819   8.022   8.711   5.859  0.3119 -0.1724 -0.4701
  637MOL0     N87820   7.925   8.760   5.787 -0.1200  0.6004  0.4687
  637MOL0     C87821   6.745   8.905   5.351 -0.3574  0.7831  0.1637
  637MOL0     C87822   6.607   8.902   5.339  0.2006 -0.3182 -0.8576
  637MOL0     C87823   6.173   8.974   5.155  0.0431  0.6041  0.5027
  637MOL0     C87824   6.074   9.072   5.147  0.5443  0.0771  0.5022
  637MOL0     C87825   5.942   9.055   5.103 -0.1101 -0.4910 -0.5258
  637MOL0     C87826   5.901   8.920   5.071  0.1298  0.3624 -0.2973
  637MOL0     O87827   5.782   8.885   5.022  0.3945  0.4955 -0.0979
  637MOL0     C87828   5.685   8.986   4.997  0.3689  0.6264 -0.2352
  637MOL0     C87829   5.597   8.999   5.112  0.2300  0.1688 -0.4574
  637MOL0     C87830   5.477   9.086   5.091 -0.4129 -0.1710 -0.3334
  637MOL0     C87831   5.422   9.128   5.228  0.1502  0.0116  0.5926
  637MOL0     C87832   5.487   9.245   5.284 -0.5938 -0.9663 -0.0878
  637MOL0     C87833   5.559   9.336   5.329 -0.0381 -0.0740 -0.1591
  637MOL0     C87834   5.998   8.824   5.080 -0.6697  0.1173  0.9076
  637MOL0     C87835   6.129   8.847   5.111 -0.1885 -1.0581 -0.5477
  637MOL0     C87836   6.225   8.738   5.087 -0.2251 -0.0448 -0.1335
  637MOL0     H87837   6.563   8.981   5.016  3.1364 -2.1779 -1.6092
  637MOL0     H87838   6.801   8.972   5.022 -0.4247  0.6078 -0.0560
  637MOL0     H87839   6.976   8.807   5.374 -1.6749 -0.9472 -1.4010
  637MOL0     H87840   7.007   8.978   5.407  3.2962 -1.5059  0.5470
  637MOL0     H87841   7.170   8.828   5.202 -2.4737 -0.0605  0.0435
  637MOL0     H87842   7.200   8.985   5.273  1.8775  0.2644  1.8159
  637MOL0     H87843   7.209   8.899   5.499  0.6831  1.3582 -0.2069
  637MOL0     H87844   7.204   8.728   5.433  3.9279 -2.4520 -3.9577
  637MOL0     H87845   7.413   8.735   5.335  1.4945  1.3650 -1.0945
  637MOL0     H87846   7.421   8.908   5.319  0.9983 -1.5640 -1.4294
  637MOL0     H87847   7.463   8.732   5.565 -1.0587  0.5834 -0.1355
  637MOL0     H87848   7.475   8.911   5.561 -1.6555  0.9534 -0.6273
  637MOL0     H87849   7.634   8.732   5.382 -3.0239  0.9974 -1.4043
  637MOL0     H87850   7.661   8.906   5.408  0.6241 -0.1913 -0.0212
  637MOL0     H87851   7.683   8.726   5.637  0.1544  1.4671  1.4442
  637MOL0     H87852   7.722   8.896   5.644  0.8866 -2.3409  3.0310
  637MOL0     H87853   7.866   8.703   5.468 -1.5575  1.7438 -1.3013
  637MOL0     H87854   7.923   8.870   5.501 -0.1784 -0.8855 -0.8709
  637MOL0     H87855   8.114   8.600   5.568  0.2142 -2.5490  2.1870
  637MOL0     H87856   8.281   8.542   5.729 -1.1495  0.3126 -0.5857
  637MOL0     H87857   8.258   8.599   5.898 -0.0687  0.5333  0.1722
  637MOL0     H87858   8.298   8.831   5.819 -1.4280 -0.6347 -0.2485
  637MOL0     H87859   8.447   8.724   5.814  0.4659  2.5096  1.4965
  637MOL0     H87860   8.368   8.694   5.555 -1.2613 -1.4894  1.5119
  637MOL0     H87861   8.274   8.837   5.606  0.3644  2.0573  2.4766
  637MOL0     H87862   8.484   8.909   5.508  0.8185  0.4003  0.1685
  637MOL0     H87863   8.480   8.945   5.675 -2.3812  0.0810 -0.7869
  637MOL0     H87864   8.698   8.844   5.399  1.2322 -1.1832 -1.5089
  637MOL0     H87865   8.927   9.070   5.310 -1.7797  0.4923  1.0168
  637MOL0     H87866   8.829   8.947   5.244  0.0145 -1.1566 -0.7858
  637MOL0     H87867   9.003   8.908   5.272 -0.9045  1.0090 -1.4514
  637MOL0     H87868   9.364   9.027   5.815 -2.2531  0.3145 -1.6458
  637MOL0     H87869   9.605   9.088   5.790 -1.2894 -0.8153  0.7619
  637MOL0     H87870   9.838   9.029   5.743  0.5811 -2.3844  2.0890
  637MOL0     H87871   9.772   8.875   5.688 -0.1861 -0.6842  0.2784
  637MOL0     H87872  10.011   9.002   5.545  0.4262 -1.8993 -2.2024
  637MOL0     H87873  10.020   8.883   5.676 -0.4337  1.8997  1.1598
  637MOL0     H87874   9.841   8.821   5.429 -0.4378  0.6475 -0.1340
  637MOL0     H87875   9.895   8.723   5.556  0.3030 -0.2132 -2.2408
  637MOL0     H87876  10.136   8.744   5.470  1.3529  1.1832 -1.0306
  637MOL0     H87877  10.075   8.843   5.343  0.5468 -0.1326  2.9514
  637MOL0     H87878   9.982   8.558   5.406 -0.2856 -1.6240 -0.8121
  637MOL0     H87879   9.913   8.670   5.280  0.0354  1.4546  0.4485
  637MOL0     H87880  10.215   8.570   5.286  0.2017  2.2930 -0.1574
  637MOL0     H87881  10.127   8.646   5.154  0.1282 -0.0787 -0.1207
  637MOL0     H87882   9.958   8.466   5.137 -0.1381  0.7652 -0.7373
  637MOL0     H87883  10.046   8.381   5.268 -0.1084  1.6624  1.3933
  637MOL0     H87884  10.110   8.297   5.041 -0.1195 -1.2480  2.3232
  637MOL0     H87885  10.237   8.360   5.152 -0.6221  3.5273  2.2761
  637MOL0     H87886   9.580   8.945   5.380 -1.7948  0.0106 -0.7117
  637MOL0     H87887   9.346   8.877   5.428  0.9460 -1.1052  0.4379
  637MOL0     H87888   9.019   8.872   5.758  0.2896 -0.6510 -0.1264
  637MOL0     H87889   8.804   8.796   5.809  2.9699 -0.3880  0.3294
  637MOL0     H87890   6.794   8.870   5.441  0.3203  0.3865 -0.3499
  637MOL0     H87891   6.557   8.886   5.434 -0.1026  3.7694 -0.1402
  637MOL0     H87892   6.107   9.170   5.179 -0.8012 -0.1087  2.6531
  637MOL0     H87893   5.868   9.135   5.098 -0.6475 -1.0558 -2.6526
  637MOL0     H87894   5.730   9.081   4.966  2.1179 -0.4118 -1.0097
  637MOL0     H87895   5.619   8.959   4.914 -0.8885  1.3469  0.4984
  637MOL0     H87896   5.644   9.025   5.207 -2.4578 -0.5799  1.1711
  637MOL0     H87897   5.559   8.898   5.129 -2.0744  1.1167  0.4619
  637MOL0     H87898   5.503   9.176   5.034 -0.9029 -0.3249 -0.8094
  637MOL0     H87899   5.406   9.020   5.039  1.2749 -3.4019  1.1844
  637MOL0     H87900   5.428   9.038   5.290  3.1494 -0.0436  0.3520
  637MOL0     H87901   5.317   9.159   5.219 -0.0677 -1.0882 -1.0415
  637MOL0     H87902   5.600   9.420   5.382  0.5493 -1.5497  1.8741
  637MOL0     H87903   5.971   8.723   5.052 -0.0389  0.1197  0.2750
  637MOL0     H87904   6.261   8.698   5.182  0.2022 -1.5028 -0.8798
  637MOL0     H87905   6.177   8.653   5.037  2.4179 -0.7164 -1.6965
  637MOL0     H87906   6.312   8.766   5.027 -0.9944 -0.0419 -1.2952
  638MOL0     O87907   2.012   8.830   1.511  0.5438  0.5916  0.1083
  638MOL0     C87908   2.061   8.829   1.399 -0.2467  0.4688  0.7715
  638MOL0     O87909   1.996   8.777   1.281  0.4622  0.2016  0.2017
  638MOL0     C87910   1.880   8.707   1.299 -0.2804  0.4150 -0.0255
  638MOL0     C87911   1.760   8.752   1.242  0.4916 -0.1988 -0.0752
  638MOL0     C87912   1.642   8.671   1.264 -0.3637 -0.2046  0.4107
  638MOL0     C87913   1.649   8.551   1.342  1.1160 -0.6109 -1.1644
  638MOL0     O87914   1.542   8.464   1.348  0.0882 -0.0013  0.0341
  638MOL0     C87915   1.535   8.350   1.434 -0.4239 -0.4028  0.0228
  638MOL0     C87916   1.392   8.293   1.434 -1.2979 -0.4279  0.0362
  638MOL0     C87917   1.280   8.392   1.457 -0.1953  0.1154  0.2573
  638MOL0     C87918   1.142   8.332   1.449 -0.3242  0.0057  0.0993
  638MOL0     C87919   1.104   8.213   1.541 -0.3258 -0.3751 -0.3873
  638MOL0     C87920   0.951   8.190   1.562 -0.4879  0.0790  0.6724
  638MOL0     C87921   0.926   8.110   1.688  0.2955  0.8380 -0.5666
  638MOL0     C87922   0.801   8.036   1.683 -0.2505  0.3744  0.7399
  638MOL0     N87923   0.806   7.937   1.574 -0.8851  0.1026 -1.0117
  638MOL0     C87924   0.886   7.825   1.573 -0.6608 -0.0841  0.6336
  638MOL0     C87925   0.869   7.763   1.448  0.8604 -1.0205 -0.1117
  638MOL0     C87926   0.949   7.646   1.398  0.6164  0.3682 -0.5257
  638MOL0     C87927   1.098   7.693   1.374 -0.1062  0.2087 -0.3926
  638MOL0     C87928   1.191   7.570   1.360 -0.2698  0.6119 -0.1266
  638MOL0     C87929   1.318   7.616   1.282  0.0060  0.3160  1.3759
  638MOL0     O87930   1.432   7.529   1.309 -0.6080 -0.3304  0.2851
  638MOL0     C87931   1.510   7.559   1.419 -0.2638 -0.7466  0.2640
  638MOL0     C87932   1.630   7.495   1.440  0.1619  0.3934  0.2818
  638MOL0     C87933   1.700   7.515   1.560 -0.0833 -0.4947 -0.9732
  638MOL0     C87934   1.838   7.440   1.578 -0.4075 -0.3205  1.2636
  638MOL0     C87935   1.655   7.610   1.658 -1.2347  0.3611  0.6263
  638MOL0     C87936   1.723   7.630   1.789  0.4125  0.1135  0.5941
  638MOL0     O87937   1.692   7.745   1.844 -0.3029 -0.1252 -0.0629
  638MOL0     C87938   1.740   7.777   1.970 -0.7651  0.3834 -0.3873
  638MOL0     C87939   1.825   7.892   1.982 -0.1185 -0.2241 -0.5673
  638MOL0     C87940   1.878   7.920   2.111  0.7913  0.8799  0.1598
  638MOL0     C87941   1.831   7.848   2.224  0.2820  0.0399 -0.4018
  638MOL0     O87942   1.871   7.896   2.346 -0.1366  0.8102  0.0680
  638MOL0     C87943   1.863   7.813   2.462  0.2215  0.1882 -0.5878
  638MOL0     C87944   1.925   7.893   2.581 -0.1577 -0.7652 -0.3090
  638MOL0     C87945   2.068   7.944   2.545 -0.2213 -0.3239  0.2065
  638MOL0     C87946   2.144   7.979   2.678  0.1533  0.0755  0.7566
  638MOL0     C87947   2.280   8.042   2.647  0.2364  0.1824 -0.0850
  638MOL0     C87948   2.356   8.084   2.768 -0.5505 -0.5733 -1.4892
  638MOL0     C87949   2.495   8.131   2.725  0.0632 -0.1843  0.1821
  638MOL0     C87950   2.590   8.134   2.840  0.9997  0.6562 -0.7849
  638MOL0    Cl87951   2.555   8.267   2.944 -0.0582  0.0916 -0.1299
  638MOL0     C87952   1.751   7.733   2.206 -0.5856 -0.7179 -0.1518
  638MOL0     C87953   1.704   7.695   2.079 -0.1604 -0.2634 -0.3333
  638MOL0     O87954   1.788   7.542   1.843 -0.1785 -0.6019  0.1186
  638MOL0     C87955   1.540   7.683   1.626 -0.3065 -0.6040 -0.2889
  638MOL0     C87956   1.470   7.658   1.510 -0.0285  0.5659 -1.0318
  638MOL0     N87957   0.772   7.840   1.384 -0.2124  0.1162  0.3448
  638MOL0     N87958   0.739   7.939   1.459 -0.4948  0.5691  0.1254
  638MOL0     C87959   1.772   8.523   1.412  0.6089 -0.0603  0.7708
  638MOL0     C87960   1.888   8.596   1.381 -0.7040  0.1313  0.0349
  638MOL0     C87961   2.201   8.869   1.385  0.6654  0.6701 -0.3103
  638MOL0     C87962   2.239   8.986   1.445 -1.1892 -0.3695  0.4598
  638MOL0     C87963   2.367   9.019   1.451  0.1515  1.0908 -0.0741
  638MOL0     C87964   2.466   8.954   1.376  0.7725  0.6763  0.1366
  638MOL0     O87965   2.581   9.015   1.383  0.3187 -0.2543  0.3014
  638MOL0     C87966   2.698   8.957   1.333 -0.4154 -0.3646  0.3342
  638MOL0     C87967   2.755   8.844   1.423 -0.0041 -0.5718  0.7637
  638MOL0     C87968   2.904   8.818   1.381  0.5982 -0.3267 -0.0775
  638MOL0     C87969   2.976   8.711   1.457  0.2311 -0.4895 -0.5897
  638MOL0     C87970   3.113   8.694   1.420 -0.7897 -0.1634 -0.0076
  638MOL0     C87971   3.231   8.698   1.400 -0.3511  0.4380  0.5705
  638MOL0     C87972   2.424   8.847   1.297 -0.5791 -0.1303 -0.2339
  638MOL0     C87973   2.296   8.798   1.306  0.1042 -0.8162  0.3463
  638MOL0     C87974   2.267   8.666   1.234 -1.1186 -0.2927  0.5443
  638MOL0     H87975   1.749   8.838   1.177 -2.3338  0.5495  1.2326
  638MOL0     H87976   1.548   8.689   1.212 -1.2983 -2.6082  1.1441
  638MOL0     H87977   1.554   8.378   1.538 -1.5973 -1.4102  0.5383
  638MOL0     H87978   1.615   8.281   1.407 -0.0517 -0.8212  2.0659
  638MOL0     H87979   1.369   8.238   1.342 -6.2269  0.3796  0.5004
  638MOL0     H87980   1.388   8.209   1.504 -3.1571 -0.4847 -0.0698
  638MOL0     H87981   1.301   8.424   1.560 -0.7048 -0.4575  0.5437
  638MOL0     H87982   1.288   8.478   1.390  1.2202  1.4409  2.0236
  638MOL0     H87983   1.069   8.412   1.460 -2.5189 -1.7085 -1.0934
  638MOL0     H87984   1.123   8.305   1.345  0.6737  4.0790 -1.3180
  638MOL0     H87985   1.153   8.234   1.637  0.3145 -0.8896 -0.5961
  638MOL0     H87986   1.153   8.124   1.501  1.3438  0.6084 -0.5973
  638MOL0     H87987   0.906   8.290   1.566  0.8378  0.6550  2.3474
  638MOL0     H87988   0.912   8.139   1.473  0.7647  0.6706 -0.2545
  638MOL0     H87989   0.920   8.174   1.776 -2.6096 -1.8708  1.4120
  638MOL0     H87990   1.005   8.037   1.709 -0.6859  0.2392  1.3133
  638MOL0     H87991   0.775   7.983   1.775 -0.4995  0.8631  0.9558
  638MOL0     H87992   0.724   8.112   1.669  1.2436  1.7395 -0.4772
  638MOL0     H87993   0.954   7.803   1.655  0.4222 -1.3240 -0.5379
  638MOL0     H87994   0.909   7.596   1.309 -1.5759  0.5898  0.2853
  638MOL0     H87995   0.962   7.582   1.486 -2.7547  0.8185  0.4184
  638MOL0     H87996   1.098   7.735   1.273 -0.7408 -1.3962 -1.1041
  638MOL0     H87997   1.133   7.757   1.455  0.0601 -1.7215  1.1301
  638MOL0     H87998   1.232   7.535   1.455 -0.2483 -1.1436 -0.7471
  638MOL0     H87999   1.141   7.490   1.305 -0.0289  1.3768 -1.5225
  638MOL0     H88000   1.301   7.596   1.176  1.6898  2.2171  0.6802
  638MOL0     H88001   1.355   7.718   1.293 -0.2353  0.5314  0.2516
  638MOL0     H88002   1.687   7.433   1.371 -0.5787  0.0986 -0.0833
  638MOL0     H88003   1.912   7.498   1.634  1.3286 -0.5385 -0.6769
  638MOL0     H88004   1.873   7.425   1.476  0.4658 -0.7697  1.6200
  638MOL0     H88005   1.824   7.346   1.632 -3.6332 -0.4809  0.3851
  638MOL0     H88006   1.856   7.953   1.898 -0.0140  1.0124  0.3524
  638MOL0     H88007   1.949   8.001   2.127  2.0960 -0.6037  2.4272
  638MOL0     H88008   1.759   7.793   2.487  0.0701  2.8846  1.2021
  638MOL0     H88009   1.922   7.720   2.459  0.5410  0.4138 -1.7188
  638MOL0     H88010   1.858   7.976   2.605  0.0718 -0.1442 -1.7097
  638MOL0     H88011   1.936   7.833   2.672  2.7510  0.8690  0.5494
  638MOL0     H88012   2.055   8.023   2.471  1.7547 -0.9270 -0.8637
  638MOL0     H88013   2.132   7.871   2.494  2.0178  1.7993 -0.2347
  638MOL0     H88014   2.145   7.893   2.745  2.3717  0.3711  1.1997
  638MOL0     H88015   2.092   8.054   2.738  0.2567 -0.9170  2.1258
  638MOL0     H88016   2.341   7.964   2.599  0.2967  1.4163 -2.1247
  638MOL0     H88017   2.276   8.135   2.590 -2.2523  0.4073  0.3672
  638MOL0     H88018   2.371   7.989   2.819  1.3215 -0.5268 -1.8655
  638MOL0     H88019   2.297   8.153   2.828  2.4110 -0.8141  2.0728
  638MOL0     H88020   2.489   8.235   2.692  1.5932  0.3113  1.3733
  638MOL0     H88021   2.541   8.062   2.653  2.9349  0.1112  1.5729
  638MOL0     H88022   2.694   8.154   2.813  0.5673  0.3802 -2.7764
  638MOL0     H88023   2.584   8.035   2.887 -1.6904  1.2719  0.3851
  638MOL0     H88024   1.711   7.688   2.296 -0.1106 -1.2573 -0.2027
  638MOL0     H88025   1.622   7.630   2.053 -0.2187  0.7716 -3.0445
  638MOL0     H88026   1.492   7.757   1.689  1.5928  1.6889 -1.3850
  638MOL0     H88027   1.373   7.706   1.504 -2.3906 -3.3944  1.1869
  638MOL0     H88028   1.777   8.435   1.475  2.2598 -1.0036 -0.5993
  638MOL0     H88029   1.984   8.564   1.420 -0.0189  1.6730 -0.2989
  638MOL0     H88030   2.170   9.056   1.493  2.2406  1.7244  2.7749
  638MOL0     H88031   2.389   9.104   1.515  1.4250 -0.2248  1.3078
  638MOL0     H88032   2.679   8.916   1.234 -0.9303 -1.7707  0.9737
  638MOL0     H88033   2.767   9.041   1.321 -2.6976  1.5598 -0.0984
  638MOL0     H88034   2.690   8.757   1.407 -2.4187  1.5749 -2.2642
  638MOL0     H88035   2.756   8.875   1.527 -0.2775  0.7220  0.3960
  638MOL0     H88036   2.904   8.791   1.275 -0.1089  0.6724 -0.3490
  638MOL0     H88037   2.964   8.909   1.392  1.6695 -1.1340  1.1183
  638MOL0     H88038   2.910   8.626   1.437 -0.5323  0.7200 -3.8739
  638MOL0     H88039   2.965   8.734   1.564  0.8187  2.3162 -1.0399
  638MOL0     H88040   3.336   8.695   1.379 -0.9694 -2.6803 -3.3208
  638MOL0     H88041   2.494   8.817   1.221 -0.8819  0.8742 -0.9287
  638MOL0     H88042   2.199   8.693   1.153 -1.2875 -0.7925  0.5128
  638MOL0     H88043   2.358   8.613   1.204 -2.0033 -1.1221 -0.8260
  638MOL0     H88044   2.209   8.612   1.310 -0.3284  1.0235  2.1456
  639MOL0     O88045   2.316   2.133   3.735 -0.1175 -0.1990  0.1445
  639MOL0     C88046   2.291   2.142   3.611 -0.0782 -0.0468 -0.4655
  639MOL0     O88047   2.313   2.257   3.536 -0.1709  0.6017 -0.2688
  639MOL0     C88048   2.365   2.365   3.600 -0.0747  0.3953  0.3856
  639MOL0     C88049   2.497   2.359   3.647 -0.1645 -0.3785 -0.4722
  639MOL0     C88050   2.565   2.473   3.697 -0.1742  0.3991  0.7487
  639MOL0     C88051   2.489   2.592   3.694 -0.0557  0.1195  1.3040
  639MOL0     O88052   2.569   2.701   3.727 -0.0114  0.2004  0.1997
  639MOL0     C88053   2.501   2.828   3.722 -0.0345  1.0999 -0.6592
  639MOL0     C88054   2.597   2.942   3.766  0.2908  0.7499  1.3045
  639MOL0     C88055   2.650   2.935   3.908 -0.6523  0.5738  0.1806
  639MOL0     C88056   2.782   3.020   3.919 -0.0337 -0.2464  0.2741
  639MOL0     C88057   2.845   3.040   4.064  0.6074  0.6712  0.1841
  639MOL0     C88058   2.981   3.106   4.060  1.0149 -0.6179  1.1971
  639MOL0     C88059   3.043   3.110   4.204 -0.1858 -0.2175  0.2739
  639MOL0     C88060   3.171   3.196   4.210  0.1132  0.3051  0.7135
  639MOL0     N88061   3.296   3.155   4.132  0.2513  0.1505 -0.7190
  639MOL0     C88062   3.355   3.031   4.138 -0.8765  0.2607  0.4535
  639MOL0     C88063   3.456   3.038   4.049  0.6542 -1.0770 -0.2576
  639MOL0     C88064   3.537   2.926   3.999  0.3647 -0.1670  0.4537
  639MOL0     C88065   3.636   2.958   3.882  0.1805  0.7052  0.6382
  639MOL0     C88066   3.691   2.828   3.833 -0.0003  0.2645  0.0590
  639MOL0     C88067   3.772   2.856   3.708  0.4845  0.3587  0.8308
  639MOL0     O88068   3.893   2.929   3.753  0.8552 -0.4473  0.4185
  639MOL0     C88069   3.973   2.988   3.650  0.4242  0.0412  0.1774
  639MOL0     C88070   3.955   2.953   3.513 -0.6527 -0.4307  0.4977
  639MOL0     C88071   4.037   3.000   3.407 -0.1521 -0.0192 -0.6376
  639MOL0     C88072   4.012   2.943   3.269 -0.3922 -0.2176  0.1181
  639MOL0     C88073   4.144   3.085   3.442 -0.5782 -0.6451  0.4497
  639MOL0     C88074   4.242   3.151   3.343 -0.2178 -0.4561  0.1217
  639MOL0     O88075   4.339   3.225   3.395  0.4590  0.0457  0.3554
  639MOL0     C88076   4.405   3.313   3.320  0.3601 -0.3617 -0.4974
  639MOL0     C88077   4.516   3.279   3.255  0.2350  0.7324  0.9283
  639MOL0     C88078   4.582   3.354   3.164  0.1765  0.9242 -0.0753
  639MOL0     C88079   4.537   3.482   3.136  0.2115  0.0455  0.9244
  639MOL0     O88080   4.608   3.558   3.044 -0.7701  0.3592 -0.0032
  639MOL0     C88081   4.535   3.586   2.929  0.1459 -0.0751 -0.0280
  639MOL0     C88082   4.566   3.482   2.819  0.3845 -0.8689 -0.0210
  639MOL0     C88083   4.448   3.491   2.713 -0.2658 -0.6542  0.6911
  639MOL0     C88084   4.491   3.418   2.586  0.2537 -0.1767 -0.0406
  639MOL0     C88085   4.363   3.359   2.517 -0.2574  0.5480 -0.0920
  639MOL0     C88086   4.393   3.331   2.366  0.5010  0.1200 -0.3018
  639MOL0     C88087   4.484   3.206   2.345  1.0047  0.3039 -0.6895
  639MOL0     C88088   4.494   3.169   2.191 -0.4466 -0.6536 -0.0566
  639MOL0    Cl88089   4.620   3.270   2.115  0.2725 -0.2871  0.2045
  639MOL0     C88090   4.431   3.529   3.210  0.1673  0.5146  0.2351
  639MOL0     C88091   4.355   3.451   3.299 -0.1604  0.2719  0.4287
  639MOL0     O88092   4.224   3.139   3.223  0.1566 -0.7964  0.9531
  639MOL0     C88093   4.149   3.128   3.576 -0.8773  0.4974  1.2989
  639MOL0     C88094   4.070   3.076   3.679  0.1286 -0.0695  0.1301
  639MOL0     N88095   3.472   3.167   4.000  0.2911 -0.3482  0.6073
  639MOL0     N88096   3.366   3.234   4.045  0.1088 -0.3469  0.2844
  639MOL0     C88097   2.350   2.599   3.653 -0.3034  0.1813 -0.5880
  639MOL0     C88098   2.291   2.483   3.604  0.3987 -0.9917  0.8252
  639MOL0     C88099   2.245   2.023   3.534  0.7084 -0.2329 -0.3493
  639MOL0     C88100   2.184   1.918   3.602  0.8437 -0.5158  0.0028
  639MOL0     C88101   2.132   1.806   3.540 -0.7254 -0.6122 -1.2208
  639MOL0     C88102   2.146   1.786   3.405  0.3597 -0.3986  0.5542
  639MOL0     O88103   2.093   1.683   3.334 -0.3531 -0.0856 -0.7339
  639MOL0     C88104   2.135   1.556   3.382  0.0506 -0.6267  0.7788
  639MOL0     C88105   2.211   1.473   3.275  0.0190  0.2324 -1.0062
  639MOL0     C88106   2.354   1.530   3.258 -0.4806  0.1464 -0.5492
  639MOL0     C88107   2.442   1.469   3.146  0.4170  0.6033  0.7981
  639MOL0     C88108   2.419   1.325   3.116  0.5341 -0.2580  0.4260
  639MOL0     C88109   2.387   1.209   3.110  0.0263  0.5350  0.2444
  639MOL0     C88110   2.220   1.881   3.338  0.5924  0.7621  0.0216
  639MOL0     C88111   2.268   2.002   3.401 -1.1018 -0.6237  0.2607
  639MOL0     C88112   2.360   2.090   3.320  0.3115 -0.0667  0.2396
  639MOL0     H88113   2.552   2.268   3.623 -0.3652  0.4298 -4.8601
  639MOL0     H88114   2.671   2.478   3.718  0.3218  0.6181 -1.5054
  639MOL0     H88115   2.422   2.826   3.797 -0.8818 -0.7786 -1.5652
  639MOL0     H88116   2.453   2.843   3.625 -2.0325  3.0689  0.5141
  639MOL0     H88117   2.670   2.926   3.686  0.9043 -0.0518  2.0150
  639MOL0     H88118   2.548   3.037   3.744  2.1121  1.1474 -1.7217
  639MOL0     H88119   2.577   2.968   3.983 -0.4592  1.1347  0.1269
  639MOL0     H88120   2.678   2.833   3.936  0.1286  1.1666  1.6422
  639MOL0     H88121   2.856   2.968   3.857 -2.0234 -2.0594 -0.7012
  639MOL0     H88122   2.776   3.122   3.880  1.8698 -0.3964 -0.5070
  639MOL0     H88123   2.853   2.947   4.123 -1.2986 -0.0751 -0.6445
  639MOL0     H88124   2.766   3.088   4.123  1.5869 -0.0279  2.1834
  639MOL0     H88125   3.050   3.042   4.004  1.0024 -0.1387  0.6166
  639MOL0     H88126   2.981   3.206   4.015  0.3705 -1.0455  0.2003
  639MOL0     H88127   3.068   3.009   4.239  1.2900  0.5103  1.3969
  639MOL0     H88128   2.973   3.145   4.280 -2.5050 -1.6876 -1.0465
  639MOL0     H88129   3.144   3.300   4.192 -1.9638 -0.1724  0.8025
  639MOL0     H88130   3.220   3.186   4.307 -0.0808  0.4793  0.8288
  639MOL0     H88131   3.330   2.944   4.198 -0.5517  0.0602  0.2971
  639MOL0     H88132   3.466   2.846   3.980 -2.4585  2.1081  0.6388
  639MOL0     H88133   3.597   2.897   4.086 -0.4940 -1.0077  0.7814
  639MOL0     H88134   3.568   2.997   3.805  0.4576 -0.0383  0.0043
  639MOL0     H88135   3.714   3.028   3.914  0.3654  0.2721  1.1399
  639MOL0     H88136   3.749   2.774   3.908 -0.6355 -4.0867 -2.2617
  639MOL0     H88137   3.607   2.764   3.802 -0.2285 -0.6416  2.3519
  639MOL0     H88138   3.795   2.762   3.658 -2.2012  0.0653  0.0244
  639MOL0     H88139   3.707   2.925   3.654  0.3189  1.2685  2.1383
  639MOL0     H88140   3.876   2.884   3.484 -0.1943 -0.0717 -1.8501
  639MOL0     H88141   3.926   2.876   3.274 -0.8341  0.4108  2.0743
  639MOL0     H88142   4.095   2.879   3.241  0.5471  0.3582  1.4798
  639MOL0     H88143   3.996   3.023   3.196 -2.0154  0.3565  1.0509
  639MOL0     H88144   4.542   3.174   3.270  0.6207  0.8820  1.3213
  639MOL0     H88145   4.670   3.312   3.117  0.5837 -0.6491  1.9588
  639MOL0     H88146   4.428   3.599   2.942 -0.0774 -0.8665 -0.9701
  639MOL0     H88147   4.567   3.682   2.886  0.7140 -1.1122 -2.0657
  639MOL0     H88148   4.665   3.516   2.789  0.9716  1.7696  4.1194
  639MOL0     H88149   4.574   3.382   2.861  0.7472 -0.2906  1.3528
  639MOL0     H88150   4.439   3.596   2.684  7.1803  0.4517  0.2271
  639MOL0     H88151   4.359   3.446   2.757 -1.5308 -0.2700 -1.3557
  639MOL0     H88152   4.544   3.328   2.617 -1.9510 -2.0960 -1.4544
  639MOL0     H88153   4.550   3.482   2.519 -0.8695  2.8398  1.6896
  639MOL0     H88154   4.321   3.277   2.576 -0.4960  1.4942  1.0870
  639MOL0     H88155   4.282   3.432   2.518 -0.9575 -0.1618 -1.4412
  639MOL0     H88156   4.447   3.416   2.324  1.5458 -0.2995  0.1679
  639MOL0     H88157   4.298   3.337   2.311  1.0055  0.3207 -1.1753
  639MOL0     H88158   4.446   3.116   2.395 -0.6275  1.0089 -0.6218
  639MOL0     H88159   4.584   3.225   2.385 -1.0619  3.2266  3.8481
  639MOL0     H88160   4.395   3.180   2.145 -0.8296 -2.3203  0.2675
  639MOL0     H88161   4.528   3.065   2.189 -0.2676 -0.5787 -1.4254
  639MOL0     H88162   4.406   3.633   3.191  0.3168  0.4314 -0.4798
  639MOL0     H88163   4.272   3.491   3.357  2.0084  4.4461  0.9837
  639MOL0     H88164   4.230   3.191   3.612  1.0006 -0.4225 -1.0522
  639MOL0     H88165   4.079   3.111   3.781  0.7587  0.0180  0.0479
  639MOL0     H88166   2.291   2.690   3.656 -1.7156 -0.7149 -0.3195
  639MOL0     H88167   2.190   2.507   3.571  0.7580  0.2383  0.5601
  639MOL0     H88168   2.187   1.927   3.711  0.3289  2.3544 -0.1467
  639MOL0     H88169   2.082   1.729   3.598  2.4223 -0.9402  1.4049
  639MOL0     H88170   2.191   1.556   3.476 -0.1540  2.0617  0.9665
  639MOL0     H88171   2.043   1.502   3.408 -0.0473 -1.2353 -0.7239
  639MOL0     H88172   2.153   1.481   3.183 -0.6030 -2.4577 -0.9309
  639MOL0     H88173   2.216   1.370   3.312  0.4270  1.1635  1.7365
  639MOL0     H88174   2.343   1.638   3.243 -0.1463 -0.0988 -3.0883
  639MOL0     H88175   2.405   1.498   3.349 -0.0762 -3.2386 -1.8253
  639MOL0     H88176   2.547   1.496   3.155  0.5249 -0.1731  2.0530
  639MOL0     H88177   2.407   1.514   3.052 -1.3743 -0.3173  0.9680
  639MOL0     H88178   2.355   1.108   3.094  1.8191  0.2413 -1.9618
  639MOL0     H88179   2.254   1.864   3.236 -2.0505 -0.1963 -0.7679
  639MOL0     H88180   2.392   2.047   3.225  1.7407  1.5364 -0.0525
  639MOL0     H88181   2.317   2.187   3.296 -0.1121  0.4585  2.8172
  639MOL0     H88182   2.449   2.123   3.375 -0.4498  2.6044 -0.0343
  640MOL0     O88183   4.579   3.111   9.532  0.1361 -0.0408  0.6839
  640MOL0     C88184   4.603   3.144   9.646  0.2177  0.1159 -0.1780
  640MOL0     O88185   4.723   3.134   9.698 -1.2297 -0.1450  0.4098
  640MOL0     C88186   4.836   3.077   9.634  0.2273 -1.0489  0.2397
  640MOL0     C88187   4.961   3.133   9.664 -0.9366 -0.1413  0.1322
  640MOL0     C88188   5.080   3.094   9.608  0.1670 -0.2151  0.1312
  640MOL0     C88189   5.072   2.983   9.521  0.2629  0.9427 -1.1143
  640MOL0     O88190   5.187   2.936   9.466  0.3836  0.4862  0.1934
  640MOL0     C88191   5.247   2.838   9.552  0.5685 -0.1429 -0.5068
  640MOL0     C88192   5.297   2.724   9.462  0.3412 -0.4076 -0.3907
  640MOL0     C88193   5.426   2.759   9.385 -0.2388  0.0504 -0.0811
  640MOL0     C88194   5.478   2.636   9.318 -1.7996 -0.4593  0.7486
  640MOL0     C88195   5.613   2.668   9.247 -0.2500 -0.8983 -0.7742
  640MOL0     C88196   5.697   2.540   9.212 -0.3450 -0.1857  0.2758
  640MOL0     C88197   5.837   2.564   9.141 -0.0253 -0.5416 -0.3503
  640MOL0     C88198   5.954   2.515   9.235  0.0216 -0.2799 -0.3648
  640MOL0     N88199   6.084   2.556   9.180  0.5619 -0.6054 -0.0531
  640MOL0     C88200   6.134   2.501   9.068  0.6593  0.1566  0.4854
  640MOL0     C88201   6.249   2.559   9.029  0.3735  0.1106  0.5415
  640MOL0     C88202   6.326   2.525   8.909 -0.7577  0.0856 -0.7161
  640MOL0     C88203   6.424   2.409   8.942 -0.4012  0.2212 -0.0047
  640MOL0     C88204   6.461   2.345   8.810  0.7641 -0.1656 -0.4144
  640MOL0     C88205   6.588   2.251   8.813  0.8161  0.2334 -0.5346
  640MOL0     O88206   6.704   2.337   8.792  0.2778  0.4396 -0.5524
  640MOL0     C88207   6.817   2.279   8.736 -0.6519  0.1919 -0.5565
  640MOL0     C88208   6.917   2.366   8.689  0.6410  0.0723 -0.7563
  640MOL0     C88209   7.035   2.325   8.638  1.0812 -0.2235 -0.5998
  640MOL0     C88210   7.128   2.433   8.586  0.9321 -1.2267 -0.1972
  640MOL0     C88211   7.061   2.184   8.636  0.1131  0.1608 -0.1275
  640MOL0     C88212   7.181   2.122   8.576  0.4410 -0.5083 -0.5179
  640MOL0     O88213   7.297   2.180   8.622  0.7465 -0.2980 -0.7253
  640MOL0     C88214   7.414   2.108   8.608  0.4758  0.7736  0.1972
  640MOL0     C88215   7.431   1.980   8.656 -0.7438  0.0085 -0.6766
  640MOL0     C88216   7.556   1.908   8.642  0.1931  0.4998 -0.2664
  640MOL0     C88217   7.670   1.975   8.585  0.2402 -0.4142  0.1581
  640MOL0     O88218   7.785   1.905   8.577  0.1976 -0.1846 -0.4022
  640MOL0     C88219   7.911   1.968   8.535 -0.0972  0.0596  0.4996
  640MOL0     C88220   8.018   1.874   8.595  0.5373  0.9805 -0.2710
  640MOL0     C88221   8.164   1.924   8.556 -0.0706  0.6497  0.3653
  640MOL0     C88222   8.262   1.815   8.596 -0.7541 -0.7813 -0.0361
  640MOL0     C88223   8.404   1.881   8.596 -0.4799  0.5336 -0.8779
  640MOL0     C88224   8.503   1.775   8.638 -1.1898 -0.4581  0.1255
  640MOL0     C88225   8.654   1.825   8.631  0.1222 -0.4005  0.6154
  640MOL0     C88226   8.741   1.745   8.728 -0.7547  0.3825 -0.4465
  640MOL0    Cl88227   8.752   1.583   8.665  0.1841  0.7274 -0.2710
  640MOL0     C88228   7.654   2.109   8.543  0.4928  0.2942 -0.1807
  640MOL0     C88229   7.526   2.169   8.548  0.5812 -0.6231  0.1813
  640MOL0     O88230   7.168   2.028   8.507 -0.2543  0.3214 -0.6099
  640MOL0     C88231   6.969   2.095   8.693  1.5410 -0.1801  0.2322
  640MOL0     C88232   6.844   2.142   8.736  0.6603 -0.0083  0.4749
  640MOL0     N88233   6.279   2.651   9.128  0.4926  0.6449 -0.2064
  640MOL0     N88234   6.171   2.654   9.211 -0.6512  0.2236  0.9794
  640MOL0     C88235   4.951   2.915   9.497  0.5515  0.2584 -0.0397
  640MOL0     C88236   4.833   2.961   9.552  0.1391  0.6703 -1.1613
  640MOL0     C88237   4.518   3.251   9.709  0.0244  0.6961  0.3281
  640MOL0     C88238   4.491   3.363   9.630 -0.9086 -0.1781 -0.2459
  640MOL0     C88239   4.411   3.468   9.680  0.2121 -0.3430  0.0593
  640MOL0     C88240   4.375   3.472   9.814  0.6045  0.4196  0.1023
  640MOL0     O88241   4.288   3.567   9.860 -0.6278  0.3171 -0.2302
  640MOL0     C88242   4.202   3.623   9.766  0.2674  0.2674 -0.5260
  640MOL0     C88243   4.081   3.669   9.844 -0.2165 -0.2966  0.1236
  640MOL0     C88244   3.954   3.703   9.760  0.6254 -0.1918 -0.4156
  640MOL0     C88245   3.856   3.785   9.853 -0.1196 -0.1811 -0.0619
  640MOL0     C88246   3.773   3.703   9.935 -1.1872  0.1874 -0.8969
  640MOL0     C88247   3.695   3.647  10.015  0.9774  0.0785  0.9229
  640MOL0     C88248   4.425   3.376   9.896 -0.1319 -0.3237 -0.7483
  640MOL0     C88249   4.506   3.272   9.852  1.0239  0.0877 -0.1484
  640MOL0     C88250   4.562   3.180   9.958  0.0143  0.0683 -0.2853
  640MOL0     H88251   4.973   3.216   9.734  1.0029 -1.2030  1.1318
  640MOL0     H88252   5.172   3.152   9.611  0.1734 -0.1590 -0.7844
  640MOL0     H88253   5.186   2.799   9.633  1.3949  3.1855  1.9772
  640MOL0     H88254   5.330   2.888   9.604  0.1533 -0.2229  0.2405
  640MOL0     H88255   5.312   2.631   9.517 -0.7382 -1.5197 -1.9098
  640MOL0     H88256   5.214   2.720   9.390  1.3255 -0.5066 -1.5492
  640MOL0     H88257   5.405   2.842   9.318 -0.8579  2.3433  2.7204
  640MOL0     H88258   5.499   2.797   9.458 -0.5985 -0.7212  0.7007
  640MOL0     H88259   5.499   2.564   9.398  2.8837  1.0547  1.1930
  640MOL0     H88260   5.403   2.601   9.247  0.4405  0.6833 -2.4175
  640MOL0     H88261   5.667   2.722   9.325  2.5597 -2.3295 -1.5763
  640MOL0     H88262   5.597   2.731   9.159  1.5720 -0.2072 -0.6545
  640MOL0     H88263   5.720   2.477   9.298  0.2747 -1.0016 -0.4691
  640MOL0     H88264   5.629   2.482   9.148  0.2090  1.5843 -2.0820
  640MOL0     H88265   5.853   2.669   9.116  4.0602 -1.0702 -0.6106
  640MOL0     H88266   5.828   2.498   9.054 -1.6032 -0.0679 -0.5783
  640MOL0     H88267   5.941   2.559   9.334  0.0925  0.9935 -0.9106
  640MOL0     H88268   5.954   2.407   9.252 -0.8628  0.1195  2.7570
  640MOL0     H88269   6.083   2.416   9.024  1.8490 -0.5723  0.4416
  640MOL0     H88270   6.381   2.614   8.877 -1.4575 -0.1156 -2.5876
  640MOL0     H88271   6.258   2.494   8.829 -1.6123  1.6794 -0.6562
  640MOL0     H88272   6.515   2.445   8.991 -0.5804 -0.0653  0.5506
  640MOL0     H88273   6.376   2.337   9.010  0.1029 -0.7143 -0.6185
  640MOL0     H88274   6.372   2.290   8.776  2.3314 -1.7487 -2.2181
  640MOL0     H88275   6.482   2.418   8.731  1.8847  3.0146  2.5788
  640MOL0     H88276   6.590   2.190   8.904  0.3929 -0.5719 -1.0468
  640MOL0     H88277   6.586   2.179   8.730  3.1696 -1.0400  0.4084
  640MOL0     H88278   6.892   2.471   8.701 -2.1567 -0.3007 -2.4287
  640MOL0     H88279   7.220   2.439   8.645  0.7979  2.6723 -0.1393
  640MOL0     H88280   7.083   2.533   8.588  2.2002 -0.6402 -0.2185
  640MOL0     H88281   7.168   2.417   8.486  0.9477  3.6986 -1.1929
  640MOL0     H88282   7.351   1.932   8.712 -0.1113  0.2962  0.5099
  640MOL0     H88283   7.575   1.805   8.672  0.7190  0.4411 -0.7777
  640MOL0     H88284   7.929   1.982   8.428  0.8572  0.6051  0.7175
  640MOL0     H88285   7.916   2.071   8.574  0.8154 -0.3405  1.4851
  640MOL0     H88286   8.008   1.855   8.703 -0.7252 -0.3320 -0.5774
  640MOL0     H88287   8.007   1.773   8.554 -1.9468  1.3166 -0.5934
  640MOL0     H88288   8.178   2.020   8.606 -2.5940  1.1922  0.1660
  640MOL0     H88289   8.178   1.949   8.450 -1.5301  3.2695  0.7075
  640MOL0     H88290   8.266   1.743   8.514  0.7107  0.3783 -1.0372
  640MOL0     H88291   8.229   1.768   8.689  0.6291 -1.9237 -0.0944
  640MOL0     H88292   8.421   1.912   8.492 -0.0178 -3.0419 -2.0166
  640MOL0     H88293   8.409   1.960   8.671 -1.1487  0.5733 -0.8735
  640MOL0     H88294   8.506   1.683   8.578  3.0328  1.8971 -4.0132
  640MOL0     H88295   8.467   1.757   8.740 -1.1007 -0.4010  0.1674
  640MOL0     H88296   8.639   1.928   8.662 -0.7927 -0.4923  0.5062
  640MOL0     H88297   8.686   1.834   8.527 -0.3628  2.0795  0.6254
  640MOL0     H88298   8.696   1.743   8.828 -1.2194 -0.1557 -0.6623
  640MOL0     H88299   8.838   1.794   8.742  1.6136 -3.4585 -1.6831
  640MOL0     H88300   7.733   2.160   8.488  0.2607  1.5672  0.6533
  640MOL0     H88301   7.508   2.266   8.504  1.8157 -0.9755 -1.1902
  640MOL0     H88302   6.999   1.991   8.708 -1.3408 -1.1770 -0.2185
  640MOL0     H88303   6.780   2.079   8.797 -0.9482  1.4227  0.3133
  640MOL0     H88304   4.933   2.829   9.433  0.4612  0.9505 -0.9761
  640MOL0     H88305   4.740   2.908   9.535  1.0646 -2.2164  1.6234
  640MOL0     H88306   4.517   3.356   9.524 -0.9404  0.9493 -0.3455
  640MOL0     H88307   4.389   3.539   9.600  1.4878 -0.8682 -0.7915
  640MOL0     H88308   4.266   3.701   9.722  0.8740 -0.6531 -1.3201
  640MOL0     H88309   4.160   3.558   9.689 -3.3704  1.2892  0.3909
  640MOL0     H88310   4.122   3.751   9.903 -0.8634  1.1797 -1.4103
  640MOL0     H88311   4.043   3.606   9.925 -2.5015  0.8213 -0.0111
  640MOL0     H88312   3.965   3.776   9.680  2.8048  1.4458  1.2584
  640MOL0     H88313   3.915   3.606   9.725 -0.9950  1.0255 -2.1633
  640MOL0     H88314   3.790   3.838   9.784 -0.7779 -2.1924 -1.0566
  640MOL0     H88315   3.904   3.860   9.917 -1.8843  0.0862  1.0135
  640MOL0     H88316   3.620   3.622  10.087  0.6394 -0.8909  0.2482
  640MOL0     H88317   4.419   3.387  10.004  0.2287 -1.5912 -0.5789
  640MOL0     H88318   4.499   3.166  10.046  0.7331  1.0839  0.4159
  640MOL0     H88319   4.576   3.079   9.920  1.8951  0.7888 -1.6631
  640MOL0     H88320   4.662   3.211   9.988 -0.2645  0.3301  0.4098
  641MOL0     O88321   5.692   0.308   4.216  0.3770  0.4604  0.9005
  641MOL0     C88322   5.666   0.284   4.336  0.6910 -0.3643  0.6673
  641MOL0     O88323   5.737   0.331   4.448  0.1512  0.5450  0.2406
  641MOL0     C88324   5.852   0.409   4.438 -0.0062 -0.1438  0.7359
  641MOL0     C88325   5.859   0.520   4.525 -0.6586 -0.4015 -0.1284
  641MOL0     C88326   5.983   0.593   4.531  0.3054 -0.9471 -0.0922
  641MOL0     C88327   6.084   0.555   4.449 -0.4307 -0.2919  0.6352
  641MOL0     O88328   6.208   0.619   4.456  0.9950 -0.0735  0.2786
  641MOL0     C88329   6.283   0.631   4.335 -0.8486 -0.1766 -0.5172
  641MOL0     C88330   6.343   0.775   4.337 -0.3033 -0.3995  0.0027
  641MOL0     C88331   6.463   0.780   4.439 -0.4316  0.6520 -0.8331
  641MOL0     C88332   6.560   0.900   4.419  0.6470  0.8314 -0.1559
  641MOL0     C88333   6.489   1.037   4.451 -0.6938  0.4914 -0.7466
  641MOL0     C88334   6.471   1.036   4.608  0.8045  0.6610  0.0332
  641MOL0     C88335   6.402   1.174   4.652 -0.1464  1.2354 -0.1956
  641MOL0     C88336   6.265   1.181   4.600 -0.9020  0.3523  0.2602
  641MOL0     N88337   6.200   1.302   4.650 -0.2322 -0.1916  0.3109
  641MOL0     C88338   6.178   1.341   4.778 -0.6155  0.1400 -0.3578
  641MOL0     C88339   6.121   1.462   4.772 -0.1872  0.5683 -0.6471
  641MOL0     C88340   6.079   1.534   4.899 -0.0916  0.1373 -0.6720
  641MOL0     C88341   5.937   1.593   4.899  0.0264 -0.4039  0.3726
  641MOL0     C88342   5.820   1.505   4.907 -1.0490 -0.1284  0.8239
  641MOL0     C88343   5.696   1.575   4.878  0.2925  0.5145  0.2704
  641MOL0     O88344   5.692   1.630   4.752 -0.6892 -0.6961 -0.5396
  641MOL0     C88345   5.646   1.560   4.648  0.1127  0.4403 -0.0524
  641MOL0     C88346   5.715   1.566   4.532 -0.3014  0.1819  0.5962
  641MOL0     C88347   5.678   1.497   4.413 -0.7896 -0.3232  0.0279
  641MOL0     C88348   5.771   1.506   4.291 -0.0596 -0.0222 -1.0455
  641MOL0     C88349   5.554   1.431   4.416  0.5343  0.6064 -0.3214
  641MOL0     C88350   5.499   1.353   4.297 -0.4703  0.8333 -0.0487
  641MOL0     O88351   5.370   1.296   4.314  0.0448 -0.3302 -0.5623
  641MOL0     C88352   5.312   1.229   4.213  0.4858 -0.8390  0.5208
  641MOL0     C88353   5.278   1.292   4.093 -0.3466  0.1056 -0.6577
  641MOL0     C88354   5.210   1.223   3.989 -0.1703  0.3442 -0.1321
  641MOL0     C88355   5.169   1.083   4.010 -0.2744  0.0170 -0.2618
  641MOL0     O88356   5.119   1.021   3.891 -0.0825  0.1522  0.1761
  641MOL0     C88357   5.041   0.893   3.910 -1.3415  0.4826 -0.1957
  641MOL0     C88358   4.905   0.937   3.956 -0.0615  0.0666 -0.7690
  641MOL0     C88359   4.841   0.806   4.013 -0.0078 -0.2450  1.0024
  641MOL0     C88360   4.686   0.801   4.012 -0.2547  0.4466 -0.5125
  641MOL0     C88361   4.642   0.669   4.071 -0.3452  0.1120 -0.7820
  641MOL0     C88362   4.506   0.634   4.007 -0.4715 -0.2428  0.6129
  641MOL0     C88363   4.428   0.527   4.089  0.6233  0.0106  0.0391
  641MOL0     C88364   4.326   0.591   4.168  0.5725 -0.4524 -0.4322
  641MOL0    Cl88365   4.181   0.647   4.078  0.1935 -0.4000 -0.3664
  641MOL0     C88366   5.192   1.022   4.137  0.1474 -0.1065  0.1153
  641MOL0     C88367   5.269   1.099   4.238 -0.2236  0.6094 -0.1437
  641MOL0     O88368   5.553   1.350   4.194 -0.3919 -0.0363  0.2195
  641MOL0     C88369   5.471   1.435   4.533 -0.2753  0.4802  0.3476
  641MOL0     C88370   5.519   1.496   4.652  0.1757  0.0291  0.0067
  641MOL0     N88371   6.101   1.498   4.638 -0.5357  0.3065  0.6063
  641MOL0     N88372   6.148   1.402   4.571  0.7328  0.3742 -0.4682
  641MOL0     C88373   6.071   0.454   4.358 -0.0286  0.7229 -0.0201
  641MOL0     C88374   5.951   0.385   4.344  0.1100  0.4194 -0.5474
  641MOL0     C88375   5.543   0.202   4.353  0.5828  0.0005 -0.2561
  641MOL0     C88376   5.504   0.111   4.254  0.5405 -0.2141 -0.0005
  641MOL0     C88377   5.394   0.033   4.284 -0.7130  0.2466  0.2993
  641MOL0     C88378   5.307   0.042   4.391  0.2352 -0.0061 -0.2764
  641MOL0     O88379   5.197  -0.037   4.388 -0.4900  0.4936  0.2684
  641MOL0     C88380   5.187  -0.108   4.512  0.1970 -0.3954 -0.1267
  641MOL0     C88381   5.045  -0.135   4.553  1.1184 -0.5639  0.2413
  641MOL0     C88382   4.961  -0.004   4.558 -0.5539 -0.0836 -0.1149
  641MOL0     C88383   4.815  -0.041   4.593 -0.2981  0.1515 -0.0422
  641MOL0     C88384   4.753   0.058   4.679 -0.0427  0.1081  1.1025
  641MOL0     C88385   4.681   0.129   4.745 -0.2427  0.2585  0.3013
  641MOL0     C88386   5.344   0.136   4.494  0.6301 -0.0705 -0.0247
  641MOL0     C88387   5.469   0.207   4.475  0.7661 -0.4894 -0.0564
  641MOL0     C88388   5.496   0.313   4.579 -0.2719  0.3972 -0.8933
  641MOL0     H88389   5.781   0.556   4.591 -0.9119 -0.9006 -0.1557
  641MOL0     H88390   5.992   0.681   4.595  0.8345 -0.0798 -1.3183
  641MOL0     H88391   6.217   0.623   4.248 -2.5414 -0.7458  0.7682
  641MOL0     H88392   6.364   0.559   4.327  0.1222  0.9117 -0.7871
  641MOL0     H88393   6.392   0.791   4.240  5.2723  2.2747  2.7686
  641MOL0     H88394   6.268   0.854   4.349 -1.2307 -1.4134  1.2114
  641MOL0     H88395   6.423   0.779   4.541  1.7547  0.6174  0.0890
  641MOL0     H88396   6.521   0.687   4.431 -2.2691 -0.9800  2.5181
  641MOL0     H88397   6.650   0.888   4.480  0.9520 -3.2348 -1.0927
  641MOL0     H88398   6.592   0.891   4.315 -1.5677  1.9518 -1.0123
  641MOL0     H88399   6.401   1.055   4.389 -0.1991  2.1699 -0.9933
  641MOL0     H88400   6.552   1.123   4.429  0.4582 -0.3695 -0.9386
  641MOL0     H88401   6.416   0.949   4.644 -1.4392  2.1813  0.4868
  641MOL0     H88402   6.571   1.040   4.652  0.9704 -0.1994 -0.2451
  641MOL0     H88403   6.464   1.259   4.622  0.2537  0.5614 -1.3216
  641MOL0     H88404   6.398   1.178   4.762 -1.5262 -2.2232  0.0092
  641MOL0     H88405   6.271   1.190   4.491 -0.1809 -3.6673 -0.1861
  641MOL0     H88406   6.200   1.099   4.633 -0.6709 -0.4499 -1.2036
  641MOL0     H88407   6.214   1.287   4.865  3.3802  2.5227 -0.2680
  641MOL0     H88408   6.152   1.613   4.920 -1.3711  1.9285 -2.5770
  641MOL0     H88409   6.085   1.465   4.984 -1.4327  2.2062  1.2171
  641MOL0     H88410   5.941   1.654   4.990  1.9423 -1.5557  1.1206
  641MOL0     H88411   5.924   1.663   4.816 -1.1379 -2.5891 -1.3879
  641MOL0     H88412   5.830   1.438   4.821 -0.8369  0.9279  0.0059
  641MOL0     H88413   5.824   1.443   4.998  2.5429 -1.9251 -0.3982
  641MOL0     H88414   5.617   1.504   4.900  1.3673 -0.6329  0.5346
  641MOL0     H88415   5.691   1.657   4.950 -1.4120 -0.4101  1.2650
  641MOL0     H88416   5.813   1.611   4.525 -0.3040  0.0030 -1.4257
  641MOL0     H88417   5.733   1.574   4.214 -0.0420 -1.2483 -2.1699
  641MOL0     H88418   5.792   1.403   4.260 -1.3669 -0.4322 -0.6321
  641MOL0     H88419   5.863   1.560   4.319 -0.1887 -0.0822 -0.4938
  641MOL0     H88420   5.303   1.397   4.081 -1.3895  0.3881 -0.4453
  641MOL0     H88421   5.205   1.259   3.887 -1.9309  0.6723  0.0497
  641MOL0     H88422   5.037   0.834   3.818  2.3421 -1.2704  0.5791
  641MOL0     H88423   5.089   0.829   3.984  1.0390  2.4237  0.0812
  641MOL0     H88424   4.928   1.004   4.040  2.5918 -1.7716  0.1055
  641MOL0     H88425   4.854   0.986   3.873 -1.6693 -0.1546  0.0470
  641MOL0     H88426   4.864   0.790   4.118  0.1852 -1.6711  0.7552
  641MOL0     H88427   4.876   0.721   3.954 -0.7062 -0.6009  1.1014
  641MOL0     H88428   4.654   0.815   3.909  0.1925 -0.0004 -0.7145
  641MOL0     H88429   4.637   0.876   4.075 -1.3862  1.4686 -2.5183
  641MOL0     H88430   4.715   0.589   4.054 -0.8074 -0.0652 -2.0195
  641MOL0     H88431   4.628   0.692   4.177 -0.2529  1.3924 -1.0306
  641MOL0     H88432   4.518   0.614   3.901 -2.0187  0.6047  0.2394
  641MOL0     H88433   4.441   0.722   3.998  0.2815  0.2498 -0.1671
  641MOL0     H88434   4.501   0.489   4.162  0.0759 -1.6491 -0.2295
  641MOL0     H88435   4.396   0.441   4.029  2.7108  0.0057 -1.1630
  641MOL0     H88436   4.370   0.679   4.217 -0.5075 -0.0742 -0.1114
  641MOL0     H88437   4.295   0.518   4.243  2.2068 -2.0156 -1.2080
  641MOL0     H88438   5.158   0.925   4.171  1.8270  0.0567  2.4741
  641MOL0     H88439   5.289   1.063   4.338 -0.2452 -1.5568 -0.8779
  641MOL0     H88440   5.377   1.383   4.541 -1.7208  2.5672 -1.6853
  641MOL0     H88441   5.452   1.498   4.737 -2.1657  3.7243 -1.6629
  641MOL0     H88442   6.146   0.426   4.284 -0.7089  2.3935 -1.3991
  641MOL0     H88443   5.943   0.307   4.270 -2.2344 -0.9646  1.0312
  641MOL0     H88444   5.559   0.094   4.163  0.9664  0.8029  0.0565
  641MOL0     H88445   5.380  -0.050   4.215 -1.8141 -2.0208  3.0741
  641MOL0     H88446   5.249  -0.197   4.504  5.5185  2.8033  0.5755
  641MOL0     H88447   5.215  -0.051   4.601 -0.9413 -1.0138  0.6485
  641MOL0     H88448   5.043  -0.174   4.655 -2.0442 -0.0917  0.4591
  641MOL0     H88449   4.999  -0.204   4.483  1.9985  0.1194 -1.0505
  641MOL0     H88450   4.994   0.062   4.638 -1.9387 -0.6935  1.0112
  641MOL0     H88451   4.964   0.052   4.465 -2.9398 -2.5271 -1.8293
  641MOL0     H88452   4.809  -0.132   4.655  0.1271 -0.8655 -1.4290
  641MOL0     H88453   4.764  -0.059   4.499 -1.0856  1.9035  0.0168
  641MOL0     H88454   4.609   0.193   4.793  0.4919  0.6143  0.9458
  641MOL0     H88455   5.280   0.160   4.578 -0.7876  3.0114 -1.8122
  641MOL0     H88456   5.572   0.277   4.648  0.3726  0.5625 -1.5100
  641MOL0     H88457   5.527   0.407   4.533  3.6509  0.8149  2.1352
  641MOL0     H88458   5.404   0.324   4.637  1.4184 -2.0279  2.5760
  642MOL0     O88459   2.616   7.342   2.890  0.3464  0.2867 -0.4861
  642MOL0     C88460   2.571   7.372   3.001 -0.6580 -0.8558  0.0155
  642MOL0     O88461   2.654   7.417   3.104 -0.2792  0.3873  0.3959
  642MOL0     C88462   2.797   7.420   3.103  0.8443  0.6825 -0.8215
  642MOL0     C88463   2.863   7.366   3.214  0.1405  0.0130  0.2335
  642MOL0     C88464   2.998   7.362   3.229 -1.1259 -0.7720  0.2662
  642MOL0     C88465   3.078   7.420   3.127  0.3850  0.2566  0.5073
  642MOL0     O88466   3.214   7.421   3.113 -0.0821 -0.3203  0.7514
  642MOL0     C88467   3.287   7.371   3.222 -0.3261  0.2883 -0.0094
  642MOL0     C88468   3.423   7.418   3.203  0.1261 -0.6896 -0.8427
  642MOL0     C88469   3.518   7.343   3.286  0.3293  0.6409  0.2657
  642MOL0     C88470   3.662   7.393   3.256 -0.1540 -0.0979 -0.4017
  642MOL0     C88471   3.713   7.323   3.133 -0.9151  0.6985  0.7022
  642MOL0     C88472   3.850   7.385   3.076 -0.0006 -0.2114 -0.7411
  642MOL0     C88473   3.960   7.396   3.177 -0.6366 -0.6611  0.6803
  642MOL0     C88474   4.086   7.440   3.106  0.1423 -0.4097 -0.3329
  642MOL0     N88475   4.140   7.334   3.020 -0.7723  0.9649 -0.9794
  642MOL0     C88476   4.236   7.238   3.063  0.5318 -0.6783  0.3300
  642MOL0     C88477   4.286   7.176   2.954  0.2709 -0.0557 -0.9994
  642MOL0     C88478   4.395   7.076   2.941 -0.3901  1.2289 -0.9229
  642MOL0     C88479   4.536   7.143   2.968  0.7500 -0.9973 -0.7620
  642MOL0     C88480   4.596   7.207   2.832 -0.0774  0.3843  0.5252
  642MOL0     C88481   4.750   7.175   2.825  0.1450 -0.2309 -0.6042
  642MOL0     O88482   4.776   7.039   2.867  0.0632  0.6688 -0.0650
  642MOL0     C88483   4.910   7.008   2.868 -0.0851  0.0784  0.4468
  642MOL0     C88484   4.944   6.869   2.870  0.2714  0.1287  0.1817
  642MOL0     C88485   5.087   6.833   2.886 -0.0111 -0.3152 -0.2612
  642MOL0     C88486   5.121   6.689   2.891  0.5162 -0.0440  0.3296
  642MOL0     C88487   5.191   6.936   2.880  0.4481  0.3950 -0.0307
  642MOL0     C88488   5.346   6.903   2.872  1.0099  0.1058  0.1291
  642MOL0     O88489   5.422   7.008   2.839 -0.6029  0.2817  0.2988
  642MOL0     C88490   5.546   7.024   2.889 -0.1508  0.9922  0.3005
  642MOL0     C88491   5.649   7.078   2.816  0.3404 -0.1771  0.5038
  642MOL0     C88492   5.767   7.123   2.876 -0.8171 -0.7225  0.2606
  642MOL0     C88493   5.792   7.101   3.013  0.7545  0.0792  0.2757
  642MOL0     O88494   5.913   7.137   3.079 -0.0474 -0.4132  0.6866
  642MOL0     C88495   6.005   7.203   2.998  0.4541 -0.2449  0.3387
  642MOL0     C88496   6.125   7.238   3.089 -0.6305 -0.3629 -0.5001
  642MOL0     C88497   6.233   7.332   3.035 -0.3140  0.2883 -0.5261
  642MOL0     C88498   6.318   7.416   3.132  0.4402  0.4647  0.0174
  642MOL0     C88499   6.381   7.328   3.236 -0.6786  0.3680 -0.3641
  642MOL0     C88500   6.491   7.393   3.327 -0.0636  0.2028 -0.8208
  642MOL0     C88501   6.525   7.299   3.445 -0.4405  0.6555  1.3624
  642MOL0     C88502   6.666   7.313   3.497 -0.5316  0.0413  0.4938
  642MOL0    Cl88503   6.691   7.191   3.621  0.6055 -0.0609 -0.2104
  642MOL0     C88504   5.692   7.035   3.085  0.0016  0.5071 -0.0851
  642MOL0     C88505   5.572   6.996   3.027 -0.2264  0.5832 -0.5648
  642MOL0     O88506   5.382   6.795   2.906  0.6815  0.1958 -0.0368
  642MOL0     C88507   5.149   7.067   2.865 -0.5603  0.0753 -0.0715
  642MOL0     C88508   5.018   7.103   2.862 -0.2813 -0.0805  0.4965
  642MOL0     N88509   4.222   7.234   2.846 -0.0438 -0.6681 -0.3276
  642MOL0     N88510   4.130   7.322   2.885 -0.6482 -0.4963 -0.5543
  642MOL0     C88511   3.015   7.482   3.020 -0.1476 -0.0404 -0.3771
  642MOL0     C88512   2.876   7.485   3.011 -0.8882  0.1039  0.2709
  642MOL0     C88513   2.421   7.355   3.021 -0.3051 -0.1501  0.3021
  642MOL0     C88514   2.358   7.420   3.136 -0.3217 -0.0790  0.1126
  642MOL0     C88515   2.224   7.412   3.169 -0.2116 -0.1648  0.0495
  642MOL0     C88516   2.150   7.334   3.076  0.7338  0.1684  0.1045
  642MOL0     O88517   2.017   7.333   3.114  1.0536  0.6289  1.3093
  642MOL0     C88518   1.924   7.286   3.011 -0.1433  0.5901 -0.7440
  642MOL0     C88519   1.782   7.296   3.068  0.4802  0.1294  0.1868
  642MOL0     C88520   1.757   7.207   3.187 -1.0753 -0.5757 -0.3024
  642MOL0     C88521   1.611   7.202   3.234  0.0408  0.4792 -0.5548
  642MOL0     C88522   1.580   7.077   3.305 -0.7840 -0.5848  0.0035
  642MOL0     C88523   1.559   6.970   3.346 -0.6487  0.6723 -0.0368
  642MOL0     C88524   2.199   7.278   2.960 -0.2343 -0.0539 -0.0153
  642MOL0     C88525   2.333   7.293   2.920  0.2802 -0.1542 -0.5353
  642MOL0     C88526   2.369   7.233   2.788  0.3946  0.3187 -0.4622
  642MOL0     H88527   2.804   7.334   3.299 -0.3354  1.0977  0.3291
  642MOL0     H88528   3.053   7.328   3.316  1.1706 -0.3244 -0.9308
  642MOL0     H88529   3.287   7.262   3.227  0.1426  0.1859 -1.8307
  642MOL0     H88530   3.244   7.421   3.310  0.6382  0.3343  0.4542
  642MOL0     H88531   3.447   7.409   3.096  2.2279 -2.9204 -0.2681
  642MOL0     H88532   3.418   7.524   3.231 -0.9201 -0.6315 -1.2163
  642MOL0     H88533   3.505   7.351   3.395 -0.7816 -0.6762  0.2603
  642MOL0     H88534   3.509   7.235   3.268  0.7062  0.9674 -2.1250
  642MOL0     H88535   3.665   7.502   3.260 -0.6235 -0.1201  1.2411
  642MOL0     H88536   3.729   7.367   3.340 -0.9365  2.1736  1.0019
  642MOL0     H88537   3.637   7.325   3.055 -0.0079 -4.5980 -0.7456
  642MOL0     H88538   3.738   7.217   3.147 -1.7136  0.5973  1.4074
  642MOL0     H88539   3.886   7.317   2.998 -0.4338  0.2822 -1.3886
  642MOL0     H88540   3.809   7.475   3.029 -3.1078 -0.9921  0.2877
  642MOL0     H88541   3.991   7.300   3.221 -0.6308 -0.5398  0.9416
  642MOL0     H88542   3.937   7.467   3.257  1.2686  0.1164  0.5765
  642MOL0     H88543   4.057   7.523   3.041 -1.6001 -2.7955 -2.8178
  642MOL0     H88544   4.148   7.483   3.186 -0.0872 -2.7896  1.2360
  642MOL0     H88545   4.253   7.215   3.168 -2.2341 -0.8801  0.8010
  642MOL0     H88546   4.399   7.028   2.843  1.7481 -0.4660 -0.0890
  642MOL0     H88547   4.394   6.990   3.008  1.2049  2.0798  0.2598
  642MOL0     H88548   4.518   7.225   3.038 -1.0864 -1.8973 -0.1129
  642MOL0     H88549   4.598   7.071   3.022 -1.8609 -1.7860  1.3710
  642MOL0     H88550   4.538   7.163   2.751 -2.2099 -0.0579  2.1945
  642MOL0     H88551   4.578   7.314   2.838  1.4079  0.6768  0.2198
  642MOL0     H88552   4.776   7.191   2.720 -1.0769  2.0285 -0.6312
  642MOL0     H88553   4.795   7.244   2.896  0.1003 -0.1835 -0.6223
  642MOL0     H88554   4.872   6.788   2.873  0.6521 -0.1958  1.2334
  642MOL0     H88555   5.201   6.670   2.819 -0.1684  1.3666 -0.8552
  642MOL0     H88556   5.031   6.631   2.871 -0.2504  1.2876 -0.2165
  642MOL0     H88557   5.152   6.680   2.995 -0.5406  0.5386  0.7098
  642MOL0     H88558   5.617   7.077   2.712 -0.6003  0.2411  0.7721
  642MOL0     H88559   5.848   7.167   2.818  0.1728 -1.4164  1.0582
  642MOL0     H88560   6.041   7.139   2.918 -0.4435  1.2464 -1.3156
  642MOL0     H88561   5.967   7.294   2.951  1.1311 -2.1830 -4.5693
  642MOL0     H88562   6.084   7.282   3.180 -5.2713 -1.8141 -1.5925
  642MOL0     H88563   6.181   7.150   3.122  0.4753  0.2329 -0.7464
  642MOL0     H88564   6.194   7.396   2.955  1.7790  0.8265 -1.1629
  642MOL0     H88565   6.292   7.268   2.967 -1.7463  1.8070 -3.3854
  642MOL0     H88566   6.257   7.489   3.184  0.7510 -0.5646  1.9350
  642MOL0     H88567   6.393   7.468   3.072 -0.9907  1.3894 -1.0194
  642MOL0     H88568   6.303   7.277   3.293  0.3660 -1.1359 -0.2012
  642MOL0     H88569   6.438   7.257   3.174  0.1859  0.5304  0.2247
  642MOL0     H88570   6.449   7.477   3.382 -1.0494 -2.5395  3.0132
  642MOL0     H88571   6.581   7.425   3.274  0.1803  1.9202  0.5471
  642MOL0     H88572   6.509   7.193   3.426 -0.5266  1.0957 -1.4229
  642MOL0     H88573   6.471   7.332   3.534 -0.4071  1.0192  1.2497
  642MOL0     H88574   6.683   7.416   3.529 -0.5510  0.6379 -1.3234
  642MOL0     H88575   6.738   7.287   3.419 -1.5681 -1.3065 -0.0502
  642MOL0     H88576   5.688   7.001   3.188 -3.1956  0.4013 -0.1423
  642MOL0     H88577   5.494   6.937   3.075 -1.9642  0.5055 -3.2901
  642MOL0     H88578   5.219   7.150   2.857 -4.3949  3.7230  0.6555
  642MOL0     H88579   4.997   7.207   2.839 -0.6675 -0.3363 -0.3552
  642MOL0     H88580   3.082   7.512   2.940  1.6873 -1.5682  0.5072
  642MOL0     H88581   2.834   7.520   2.917  0.9927  0.1547 -0.6020
  642MOL0     H88582   2.430   7.473   3.199  1.1579 -0.5620 -1.1138
  642MOL0     H88583   2.175   7.462   3.252  0.4855 -1.0084  0.9904
  642MOL0     H88584   1.943   7.340   2.918  1.9661  1.1883 -0.0354
  642MOL0     H88585   1.938   7.180   2.987 -1.9084  0.0353  0.4752
  642MOL0     H88586   1.716   7.265   2.986 -0.3345 -1.9994  1.5702
  642MOL0     H88587   1.748   7.400   3.076 -3.3944 -0.8308 -1.5124
  642MOL0     H88588   1.780   7.104   3.159  1.9079 -0.5462  1.6459
  642MOL0     H88589   1.826   7.247   3.261 -0.9134  1.9107 -1.6437
  642MOL0     H88590   1.546   7.218   3.148  0.4281  1.9543 -0.5965
  642MOL0     H88591   1.590   7.285   3.303  0.0883  0.7299 -0.8386
  642MOL0     H88592   1.548   6.870   3.385  4.0740  0.2985  0.8912
  642MOL0     H88593   2.136   7.244   2.878 -0.2644  2.4018 -1.0774
  642MOL0     H88594   2.428   7.142   2.804  0.2898 -0.3113 -3.1608
  642MOL0     H88595   2.280   7.207   2.730  0.7930 -0.9245 -0.5404
  642MOL0     H88596   2.435   7.301   2.733  2.2288 -0.7982  0.2709
  643MOL0     O88597   7.728   6.943   2.575  0.1268  0.2954 -0.6126
  643MOL0     C88598   7.707   6.824   2.555 -0.0908 -0.6912  0.3352
  643MOL0     O88599   7.582   6.769   2.543  0.4056  0.2912  0.0862
  643MOL0     C88600   7.467   6.834   2.572  0.1128 -0.7852  1.5181
  643MOL0     C88601   7.384   6.781   2.667 -0.2212 -0.4538 -1.2392
  643MOL0     C88602   7.262   6.835   2.699 -1.2511  0.2276 -0.3070
  643MOL0     C88603   7.219   6.951   2.628  0.3144  0.6320 -0.9696
  643MOL0     O88604   7.103   7.010   2.672 -0.1452  0.3869 -0.7017
  643MOL0     C88605   6.985   6.961   2.599  0.4971 -0.3987 -0.3113
  643MOL0     C88606   6.951   7.060   2.494  0.1196  0.4749  0.1336
  643MOL0     C88607   6.928   7.200   2.549 -0.2001  0.8156  0.1590
  643MOL0     C88608   6.872   7.294   2.442  0.3392 -0.2021  0.7905
  643MOL0     C88609   6.874   7.440   2.502 -0.2891 -1.3885 -0.0353
  643MOL0     C88610   7.007   7.512   2.473 -0.4110 -0.1772 -0.0083
  643MOL0     C88611   7.049   7.542   2.327 -0.3097 -0.0768  0.7831
  643MOL0     C88612   7.156   7.652   2.315  0.7101  0.2093  0.1865
  643MOL0     N88613   7.276   7.637   2.403  1.2789  0.2148 -0.4028
  643MOL0     C88614   7.282   7.697   2.529  0.0256 -0.6056  0.6976
  643MOL0     C88615   7.366   7.619   2.605  0.2236  1.0849 -0.2425
  643MOL0     C88616   7.419   7.636   2.746  0.6627  0.7811  0.9538
  643MOL0     C88617   7.562   7.701   2.740 -0.0373 -1.3421 -0.3470
  643MOL0     C88618   7.620   7.711   2.874  0.1429 -0.4894  0.1762
  643MOL0     C88619   7.751   7.789   2.881 -0.7899 -0.3247  0.7599
  643MOL0     O88620   7.847   7.737   2.800 -0.4700  0.5186  0.4091
  643MOL0     C88621   7.956   7.815   2.761 -0.7796 -0.3069  0.0389
  643MOL0     C88622   8.042   7.763   2.668 -0.8761 -0.7196 -0.0125
  643MOL0     C88623   8.159   7.832   2.627 -0.4225 -0.9546  0.0602
  643MOL0     C88624   8.236   7.776   2.520 -0.2741  0.0436 -0.2115
  643MOL0     C88625   8.190   7.960   2.691  0.2600  0.7812 -0.6982
  643MOL0     C88626   8.312   8.049   2.647  0.4216 -0.6516  0.8330
  643MOL0     O88627   8.396   8.013   2.551 -0.1775 -0.6104 -0.0819
  643MOL0     C88628   8.503   8.100   2.523  0.6606  0.5404  0.3644
  643MOL0     C88629   8.472   8.217   2.458 -0.2885 -0.1111 -0.6807
  643MOL0     C88630   8.567   8.307   2.427 -1.1970 -1.0173 -0.5417
  643MOL0     C88631   8.703   8.282   2.466  0.2216 -1.0325  0.8220
  643MOL0     O88632   8.801   8.374   2.458  0.2689 -0.3132  0.1414
  643MOL0     C88633   8.790   8.480   2.365  0.9340 -1.0085  0.4741
  643MOL0     C88634   8.918   8.559   2.367  0.0219 -0.0009  0.6074
  643MOL0     C88635   8.925   8.667   2.266  0.7454  0.0502 -0.1301
  643MOL0     C88636   9.066   8.726   2.254 -0.6253 -0.3717  1.1941
  643MOL0     C88637   9.073   8.805   2.127 -0.5106 -0.4287 -0.3725
  643MOL0     C88638   9.208   8.881   2.118  0.2170 -0.1528 -0.3383
  643MOL0     C88639   9.190   9.000   2.021  0.0638  0.4329 -0.9491
  643MOL0     C88640   9.317   9.071   1.992 -0.4787 -0.9406 -0.3386
  643MOL0    Cl88641   9.453   8.961   1.944 -0.1901  0.0925  0.6519
  643MOL0     C88642   8.730   8.160   2.537 -0.2310 -0.3083 -0.0107
  643MOL0     C88643   8.631   8.069   2.560  0.3600  0.5645 -0.4477
  643MOL0     O88644   8.316   8.156   2.698 -0.1543  0.2069 -0.1053
  643MOL0     C88645   8.101   8.010   2.789 -0.4154  0.4194 -0.8137
  643MOL0     C88646   7.992   7.936   2.826 -0.2035  0.3575 -0.3646
  643MOL0     N88647   7.406   7.518   2.519 -0.7572 -0.1332 -0.1068
  643MOL0     N88648   7.358   7.532   2.399 -1.2043 -0.0451  0.1948
  643MOL0     C88649   7.301   7.016   2.537 -0.3720  0.6162 -0.1070
  643MOL0     C88650   7.420   6.954   2.508  0.2632 -0.2979  0.7168
  643MOL0     C88651   7.823   6.720   2.555 -0.7142 -0.5789  0.0110
  643MOL0     C88652   7.954   6.768   2.513  0.6681  0.0147 -0.0934
  643MOL0     C88653   8.063   6.690   2.499 -0.1700  0.4626  0.9981
  643MOL0     C88654   8.052   6.555   2.526  0.3735  0.3776  0.4489
  643MOL0     O88655   8.165   6.482   2.518 -0.2000 -0.4010  0.1124
  643MOL0     C88656   8.170   6.342   2.542 -0.5329 -0.7409 -0.0760
  643MOL0     C88657   8.324   6.301   2.542  0.3248  0.7836  0.2411
  643MOL0     C88658   8.382   6.304   2.403 -0.3326  0.0042  0.6407
  643MOL0     C88659   8.534   6.277   2.390  0.3494  0.1838  0.5104
  643MOL0     C88660   8.603   6.370   2.476 -0.6372 -0.2590 -0.7937
  643MOL0     C88661   8.670   6.459   2.529 -0.2821 -0.2953  0.7539
  643MOL0     C88662   7.929   6.503   2.578 -0.4782  0.4584 -0.0448
  643MOL0     C88663   7.815   6.579   2.592 -0.3996  0.1078  0.0860
  643MOL0     C88664   7.695   6.502   2.649 -0.0913  0.2371 -0.0044
  643MOL0     H88665   7.412   6.687   2.713 -3.4645 -0.2061  1.6486
  643MOL0     H88666   7.211   6.791   2.784  2.8976 -1.2644  1.7039
  643MOL0     H88667   6.909   6.949   2.677  2.5613 -0.9964  1.7315
  643MOL0     H88668   6.999   6.864   2.549 -0.8447 -0.2986 -0.9207
  643MOL0     H88669   7.026   7.076   2.417  1.3567  0.9845  1.3930
  643MOL0     H88670   6.855   7.036   2.447  0.0374  2.8442 -1.0791
  643MOL0     H88671   6.862   7.194   2.636  1.5394  1.1310  1.5546
  643MOL0     H88672   7.027   7.242   2.569  0.5809 -0.5045 -0.8174
  643MOL0     H88673   6.931   7.282   2.351 -1.9399  0.2562 -0.8253
  643MOL0     H88674   6.768   7.267   2.425  0.6040  0.4380 -2.4210
  643MOL0     H88675   6.857   7.439   2.610  0.6167  1.5214  0.2071
  643MOL0     H88676   6.795   7.498   2.455  2.1241  2.5518  0.2944
  643MOL0     H88677   7.005   7.608   2.525  1.4051  0.0494 -0.2962
  643MOL0     H88678   7.094   7.468   2.521 -0.8558  0.0267  1.0033
  643MOL0     H88679   6.962   7.554   2.261  1.5298  1.7188 -1.4384
  643MOL0     H88680   7.100   7.453   2.289 -0.1248 -1.3458  3.7455
  643MOL0     H88681   7.187   7.656   2.210 -1.7937  3.1062 -0.5886
  643MOL0     H88682   7.104   7.743   2.346 -0.0505 -0.5066  1.0825
  643MOL0     H88683   7.242   7.793   2.559  0.8033 -0.7340  2.2185
  643MOL0     H88684   7.434   7.536   2.787  1.7802  0.4775 -0.1333
  643MOL0     H88685   7.352   7.691   2.812 -2.0937  0.1133 -1.1265
  643MOL0     H88686   7.635   7.661   2.669  1.8811 -0.6423  1.1335
  643MOL0     H88687   7.541   7.806   2.713  1.5011 -0.7830  0.5269
  643MOL0     H88688   7.551   7.761   2.943  0.2067  1.2122 -0.9292
  643MOL0     H88689   7.626   7.611   2.917 -1.3067  0.0180  1.6498
  643MOL0     H88690   7.726   7.893   2.861  1.1367  0.0590  0.1839
  643MOL0     H88691   7.794   7.791   2.982 -0.2436  3.1308  0.5500
  643MOL0     H88692   8.012   7.674   2.614  1.7528 -0.4512 -2.1206
  643MOL0     H88693   8.226   7.831   2.426 -0.7515  1.1719  0.4927
  643MOL0     H88694   8.199   7.674   2.501 -1.6694  0.5885 -0.4758
  643MOL0     H88695   8.342   7.777   2.548 -0.4742  2.8245  0.7655
  643MOL0     H88696   8.368   8.235   2.433  0.2184  2.2128 -1.4171
  643MOL0     H88697   8.536   8.402   2.385 -1.2187 -1.2192 -0.9913
  643MOL0     H88698   8.780   8.437   2.265  1.3604  0.3615 -0.1718
  643MOL0     H88699   8.706   8.549   2.381  0.8455 -0.3405 -2.3559
  643MOL0     H88700   8.936   8.607   2.464  0.7948  1.6871 -0.3199
  643MOL0     H88701   9.004   8.495   2.349  0.3460  0.4883  0.3738
  643MOL0     H88702   8.872   8.758   2.297  4.8053  2.6304  0.1257
  643MOL0     H88703   8.888   8.628   2.171  1.3961 -0.0787 -0.3347
  643MOL0     H88704   9.139   8.645   2.255  0.2816  0.1976 -2.7629
  643MOL0     H88705   9.092   8.793   2.337 -1.4643  1.9574 -0.3109
  643MOL0     H88706   9.046   8.739   2.043  0.0640 -1.0390 -0.0854
  643MOL0     H88707   8.997   8.881   2.145  0.8501  0.1257  4.3027
  643MOL0     H88708   9.288   8.814   2.084  0.2961 -1.7242  2.6349
  643MOL0     H88709   9.239   8.923   2.214 -2.3223  0.7838  0.1401
  643MOL0     H88710   9.123   9.075   2.065 -1.3720 -1.5174  0.3389
  643MOL0     H88711   9.150   8.968   1.924 -0.4719  1.0877 -0.9526
  643MOL0     H88712   9.356   9.132   2.074 -0.3049 -0.2220 -0.9482
  643MOL0     H88713   9.297   9.147   1.916 -2.4181  0.3536  1.3503
  643MOL0     H88714   8.835   8.149   2.564 -0.1114 -0.1413 -0.4009
  643MOL0     H88715   8.648   7.978   2.617 -2.2179  0.3490  0.1229
  643MOL0     H88716   8.120   8.092   2.857  0.5520 -1.5789  1.4985
  643MOL0     H88717   7.936   7.976   2.910  1.6779  2.2731  0.0689
  643MOL0     H88718   7.265   7.104   2.485 -2.4133  1.0032  1.8072
  643MOL0     H88719   7.484   6.991   2.429  1.6749  0.5745  2.2147
  643MOL0     H88720   7.953   6.874   2.490 -1.6160  0.4137  1.4644
  643MOL0     H88721   8.154   6.730   2.456 -0.0725  0.7388  1.4526
  643MOL0     H88722   8.128   6.306   2.637 -0.6386 -1.4099 -0.3711
  643MOL0     H88723   8.123   6.294   2.456  0.9795 -0.0679 -1.3124
  643MOL0     H88724   8.347   6.199   2.574 -1.2178  0.0362 -0.9225
  643MOL0     H88725   8.385   6.370   2.601  3.9397 -0.1503 -2.0451
  643MOL0     H88726   8.330   6.226   2.347  1.1516 -0.2823 -0.3930
  643MOL0     H88727   8.364   6.395   2.345  0.8033 -0.9297 -1.3096
  643MOL0     H88728   8.571   6.286   2.288 -1.2841  3.0208  0.0659
  643MOL0     H88729   8.544   6.173   2.423 -1.6689  0.3760  1.9017
  643MOL0     H88730   8.728   6.537   2.574 -1.1387  0.4014  0.6839
  643MOL0     H88731   7.919   6.401   2.612  1.3486  0.7208  1.4810
  643MOL0     H88732   7.729   6.440   2.732  0.3106  0.2301 -0.1683
  643MOL0     H88733   7.619   6.570   2.688  0.3076  2.0689 -2.1905
  643MOL0     H88734   7.644   6.447   2.569  0.9365  1.2705 -1.4352
  644MOL0     O88735   6.103   1.589   7.884  0.1480 -0.4155  0.0584
  644MOL0     C88736   6.043   1.658   7.968 -0.2482 -0.5041  0.5559
  644MOL0     O88737   6.094   1.706   8.081  0.3418  0.1297 -0.4769
  644MOL0     C88738   6.204   1.655   8.139 -0.1531  0.9269  0.4919
  644MOL0     C88739   6.194   1.564   8.248 -0.4002  0.2037  0.4595
  644MOL0     C88740   6.315   1.510   8.306  0.1574 -0.3580 -0.1589
  644MOL0     C88741   6.438   1.572   8.269  0.7187 -0.1712 -0.3197
  644MOL0     O88742   6.559   1.531   8.317  0.8066 -0.6308  0.1238
  644MOL0     C88743   6.555   1.416   8.404 -0.7790 -0.4482  0.5224
  644MOL0     C88744   6.705   1.379   8.451 -0.3949  0.5193 -0.1272
  644MOL0     C88745   6.786   1.328   8.332 -0.6519  0.6135  0.3844
  644MOL0     C88746   6.939   1.300   8.367 -0.1238 -0.4366 -0.9236
  644MOL0     C88747   6.987   1.180   8.275  0.0041 -0.1616  0.2084
  644MOL0     C88748   6.964   1.213   8.124 -0.1254  0.3465  0.4722
  644MOL0     C88749   7.068   1.127   8.039  1.0177  0.3017 -0.5835
  644MOL0     C88750   7.049   1.163   7.890  0.4429  0.8196  0.8128
  644MOL0     N88751   7.054   1.300   7.854  0.1712 -0.3648  0.4330
  644MOL0     C88752   7.166   1.386   7.864  0.2649  0.4747 -0.1335
  644MOL0     C88753   7.122   1.510   7.829  0.4941  0.4976 -0.7736
  644MOL0     C88754   7.205   1.626   7.808 -0.3185 -1.2687 -0.2559
  644MOL0     C88755   7.289   1.610   7.680 -0.0718 -0.4066  0.9183
  644MOL0     C88756   7.426   1.657   7.704 -0.2416 -0.3002  0.4536
  644MOL0     C88757   7.519   1.622   7.583 -0.3078 -0.3581 -0.0894
  644MOL0     O88758   7.632   1.704   7.585  0.2671 -0.1725 -0.1119
  644MOL0     C88759   7.750   1.675   7.646  0.3239  0.8272  0.0606
  644MOL0     C88760   7.849   1.768   7.634  0.3038  0.5844 -0.4545
  644MOL0     C88761   7.980   1.758   7.680 -0.1065  0.7048  0.4226
  644MOL0     C88762   8.070   1.879   7.656 -0.2188 -0.0601 -0.1134
  644MOL0     C88763   8.016   1.625   7.725  0.7036 -0.5979  0.3397
  644MOL0     C88764   8.146   1.590   7.780 -0.8328 -0.0392  0.2169
  644MOL0     O88765   8.168   1.465   7.847 -0.2827 -0.1653  0.1313
  644MOL0     C88766   8.269   1.467   7.940 -0.4147  0.5207 -0.3621
  644MOL0     C88767   8.284   1.556   8.048  0.3295 -0.0258 -0.8510
  644MOL0     C88768   8.388   1.545   8.138 -0.0247 -0.4904  0.0997
  644MOL0     C88769   8.481   1.446   8.126  0.7460 -0.5572  0.2590
  644MOL0     O88770   8.583   1.451   8.214  0.4461 -0.1176 -0.6313
  644MOL0     C88771   8.723   1.447   8.162 -0.6026 -0.1779 -0.1049
  644MOL0     C88772   8.805   1.468   8.291  0.4907  0.4217 -0.6003
  644MOL0     C88773   8.956   1.483   8.262 -0.0462  0.7793 -0.4994
  644MOL0     C88774   9.008   1.618   8.204  0.7270  0.1852  1.3068
  644MOL0     C88775   9.160   1.611   8.180 -0.4871 -0.3795  0.4578
  644MOL0     C88776   9.237   1.669   8.298 -0.3551 -0.9385 -0.3065
  644MOL0     C88777   9.375   1.606   8.305  0.4902 -0.9315 -0.3925
  644MOL0     C88778   9.450   1.626   8.176 -0.4787 -0.5505  0.4424
  644MOL0    Cl88779   9.619   1.549   8.198  0.0138 -0.0631  0.0786
  644MOL0     C88780   8.478   1.358   8.025 -0.2300 -0.5250 -0.7940
  644MOL0     C88781   8.371   1.365   7.931  0.1549  0.4044  0.0283
  644MOL0     O88782   8.233   1.676   7.774 -0.3116 -0.1782 -0.5931
  644MOL0     C88783   7.912   1.528   7.748  0.2139  0.4871  0.1723
  644MOL0     C88784   7.784   1.558   7.707 -0.2890  0.6603 -0.3403
  644MOL0     N88785   6.984   1.498   7.808 -0.6628 -0.9646  0.6627
  644MOL0     N88786   6.945   1.373   7.819  0.2139 -0.0223  0.8422
  644MOL0     C88787   6.443   1.668   8.171  0.5576  0.4045  0.0769
  644MOL0     C88788   6.333   1.700   8.094 -0.9220 -1.1248  0.3985
  644MOL0     C88789   5.902   1.691   7.937  0.3302  0.2665  1.1486
  644MOL0     C88790   5.862   1.823   7.959 -0.0628  0.0669 -0.3065
  644MOL0     C88791   5.728   1.853   7.954  0.0553 -0.5957 -0.0288
  644MOL0     C88792   5.640   1.758   7.911  0.0416 -0.6164  0.1531
  644MOL0     O88793   5.508   1.776   7.889  0.4949  0.1453  0.0437
  644MOL0     C88794   5.465   1.914   7.884  0.2871 -0.2956  0.7767
  644MOL0     C88795   5.311   1.927   7.873 -0.1918 -0.0756  0.7691
  644MOL0     C88796   5.234   1.844   7.973 -0.5694  0.0738  0.3779
  644MOL0     C88797   5.075   1.855   7.948  0.1353 -0.5671 -0.5260
  644MOL0     C88798   5.030   1.994   7.960  0.2648 -0.0913 -1.5034
  644MOL0     C88799   5.012   2.113   7.961  0.0185 -0.0648 -1.1031
  644MOL0     C88800   5.677   1.628   7.893  1.0293 -0.5911  0.1090
  644MOL0     C88801   5.812   1.590   7.908 -0.0108  0.3004  0.7018
  644MOL0     C88802   5.837   1.441   7.899  0.8819 -0.3822  0.0382
  644MOL0     H88803   6.096   1.534   8.284 -0.8823  2.2201  0.9309
  644MOL0     H88804   6.309   1.435   8.385 -0.0462  0.8874  1.0599
  644MOL0     H88805   6.523   1.328   8.348 -1.9592 -0.2259  0.8318
  644MOL0     H88806   6.492   1.441   8.490  1.6585 -0.8990  2.5723
  644MOL0     H88807   6.749   1.461   8.510 -0.3573 -0.0859  0.7082
  644MOL0     H88808   6.688   1.297   8.522 -2.3643 -2.7049 -3.9355
  644MOL0     H88809   6.740   1.242   8.282 -2.4371  3.1347 -2.6975
  644MOL0     H88810   6.798   1.404   8.255  0.8276 -0.8442 -0.8880
  644MOL0     H88811   6.993   1.393   8.346 -0.1569  0.1298  1.2751
  644MOL0     H88812   6.955   1.272   8.472  0.7950  0.6585 -0.7611
  644MOL0     H88813   6.943   1.085   8.306 -0.7452 -0.3359 -1.3018
  644MOL0     H88814   7.096   1.174   8.283  0.2437 -1.5672 -2.8274
  644MOL0     H88815   6.861   1.186   8.104 -0.4398  2.7078 -1.6273
  644MOL0     H88816   6.985   1.319   8.105  0.0905  0.1720 -0.2882
  644MOL0     H88817   7.041   1.021   8.045  2.5937 -0.1328 -0.5718
  644MOL0     H88818   7.169   1.146   8.078  0.8899  0.2802 -0.2358
  644MOL0     H88819   7.124   1.100   7.843 -0.0096  1.5744 -1.0227
  644MOL0     H88820   6.950   1.123   7.863 -0.4097  2.6888  0.9704
  644MOL0     H88821   7.263   1.355   7.899 -0.0831 -4.2324 -2.6170
  644MOL0     H88822   7.272   1.637   7.895 -2.6850  1.0986  1.4407
  644MOL0     H88823   7.145   1.718   7.804 -1.0818 -1.6915  0.9229
  644MOL0     H88824   7.295   1.501   7.667  0.7348 -0.4633  1.7514
  644MOL0     H88825   7.247   1.654   7.589  0.5305 -1.6772 -0.0014
  644MOL0     H88826   7.437   1.764   7.723 -0.9708  0.0337 -0.8822
  644MOL0     H88827   7.472   1.608   7.790  0.9741  0.0036  0.0054
  644MOL0     H88828   7.532   1.516   7.563  1.4665 -0.5787  1.9142
  644MOL0     H88829   7.464   1.658   7.496 -0.6225  0.4267  0.4264
  644MOL0     H88830   7.820   1.858   7.580  0.0963  0.2673 -0.8817
  644MOL0     H88831   8.017   1.962   7.609  3.9330  1.9502 -1.7584
  644MOL0     H88832   8.150   1.848   7.588  2.5736  1.5010  2.2666
  644MOL0     H88833   8.118   1.909   7.749  1.2479  0.7736 -1.1050
  644MOL0     H88834   8.214   1.636   8.067  1.4743  1.3332 -2.1566
  644MOL0     H88835   8.397   1.617   8.218 -0.6320  0.6146 -0.8039
  644MOL0     H88836   8.755   1.348   8.128 -0.5287 -1.0161  2.2517
  644MOL0     H88837   8.731   1.524   8.085 -1.3903 -0.0249 -0.0360
  644MOL0     H88838   8.773   1.560   8.340  1.3631  1.0664 -1.2076
  644MOL0     H88839   8.783   1.383   8.357 -4.1269  4.4034  3.7819
  644MOL0     H88840   8.976   1.407   8.186 -2.7311 -0.5152  0.0066
  644MOL0     H88841   9.011   1.465   8.355 -0.1002 -0.4393 -0.6894
  644MOL0     H88842   8.984   1.707   8.265 -0.5002  1.6979 -1.1994
  644MOL0     H88843   8.965   1.621   8.104  0.4557 -0.0095  1.4160
  644MOL0     H88844   9.194   1.507   8.172 -1.0733 -0.8174  2.8698
  644MOL0     H88845   9.183   1.675   8.094  0.6170 -0.9033  0.3427
  644MOL0     H88846   9.194   1.677   8.398  2.6705  2.9392  0.9731
  644MOL0     H88847   9.249   1.775   8.272 -2.9471  0.0217  1.9049
  644MOL0     H88848   9.361   1.500   8.332  0.4249 -0.2171  2.7053
  644MOL0     H88849   9.430   1.649   8.389 -1.3860 -1.2162  1.0584
  644MOL0     H88850   9.455   1.732   8.153 -0.9214 -0.7364 -0.6088
  644MOL0     H88851   9.394   1.595   8.087  0.2294  2.2216 -1.0650
  644MOL0     H88852   8.558   1.285   8.026 -0.2374 -0.5586  0.7885
  644MOL0     H88853   8.353   1.292   7.852 -3.6477 -2.4268  3.0761
  644MOL0     H88854   7.922   1.431   7.795  1.8929 -1.2614 -3.4518
  644MOL0     H88855   7.704   1.488   7.726  0.6561  0.6695  5.7692
  644MOL0     H88856   6.540   1.708   8.144  0.5493  1.8370  1.9314
  644MOL0     H88857   6.346   1.768   8.011 -4.4331 -1.4542 -0.5776
  644MOL0     H88858   5.941   1.889   7.993  1.7964 -0.9704 -2.3690
  644MOL0     H88859   5.700   1.957   7.966 -0.1887 -0.5982 -0.5527
  644MOL0     H88860   5.498   1.953   7.981  1.6788 -2.0048  1.0334
  644MOL0     H88861   5.509   1.961   7.795  0.9420 -2.0900  0.1261
  644MOL0     H88862   5.270   1.914   7.773 -1.3240  0.9025  1.0823
  644MOL0     H88863   5.298   2.034   7.891  0.5716  0.7195 -2.6548
  644MOL0     H88864   5.260   1.738   7.967 -1.2677 -0.2068  1.9440
  644MOL0     H88865   5.259   1.881   8.072  0.0355 -0.6248  0.4957
  644MOL0     H88866   5.018   1.793   8.017 -2.8624  1.5066 -0.9501
  644MOL0     H88867   5.063   1.819   7.845  1.5356  1.0852 -1.3237
  644MOL0     H88868   4.978   2.215   7.960  1.8776  0.6871 -5.0786
  644MOL0     H88869   5.602   1.554   7.869 -1.0233  1.0007  1.2281
  644MOL0     H88870   5.755   1.377   7.935 -1.3238  1.2876 -1.7527
  644MOL0     H88871   5.847   1.417   7.793  2.0457  2.7897 -0.6792
  644MOL0     H88872   5.927   1.408   7.952 -0.0135 -1.8721  0.7223
  645MOL0     O88873   0.390   6.431   1.219  0.7219  1.1680  0.2025
  645MOL0     C88874   0.430   6.330   1.275  0.0339 -0.8597  0.4383
  645MOL0     O88875   0.353   6.222   1.297 -0.1211 -0.6125 -0.2340
  645MOL0     C88876   0.223   6.218   1.257  0.4035 -0.6864 -0.1921
  645MOL0     C88877   0.137   6.318   1.293 -1.1573 -0.1708  0.5487
  645MOL0     C88878   0.006   6.307   1.243 -0.6350 -0.1585 -0.0041
  645MOL0     C88879  -0.039   6.200   1.167  0.0126 -0.2022 -0.0996
  645MOL0     O88880  -0.174   6.210   1.132  0.3989 -0.2895  0.1187
  645MOL0     C88881  -0.226   6.102   1.058  0.6620 -0.1659  1.1235
  645MOL0     C88882  -0.375   6.101   1.038  0.0588 -0.1439  0.3606
  645MOL0     C88883  -0.417   5.974   0.957  0.4432  0.5655 -0.7868
  645MOL0     C88884  -0.570   5.973   0.920  0.2922  0.2818  0.4529
  645MOL0     C88885  -0.608   5.832   0.866  0.3960 -0.0757 -0.2256
  645MOL0     C88886  -0.644   5.735   0.982  0.1304  0.6037 -0.1996
  645MOL0     C88887  -0.676   5.589   0.934  0.3195 -0.8846 -0.1717
  645MOL0     C88888  -0.823   5.594   0.906 -0.2153  0.1553 -0.1826
  645MOL0     N88889  -0.869   5.458   0.863  0.0311 -0.4000 -0.3127
  645MOL0     C88890  -0.790   5.360   0.820  1.0511  0.5374  0.4772
  645MOL0     C88891  -0.882   5.278   0.765 -1.5089  0.5243 -0.2267
  645MOL0     C88892  -0.844   5.156   0.680  0.3884  0.5138  0.6689
  645MOL0     C88893  -0.795   5.046   0.780  0.8862  0.4309  0.7896
  645MOL0     C88894  -0.757   4.908   0.725  0.3009  0.2165  0.7097
  645MOL0     C88895  -0.628   4.909   0.648 -0.4288  1.1372  0.3593
  645MOL0     O88896  -0.632   4.977   0.517  0.5142 -0.1184  0.2294
  645MOL0     C88897  -0.521   4.997   0.452 -0.2157  0.2020 -0.2173
  645MOL0     C88898  -0.444   4.888   0.419  0.9021 -0.7035 -0.5676
  645MOL0     C88899  -0.339   4.907   0.324  0.1030  0.7590 -0.8873
  645MOL0     C88900  -0.258   4.782   0.290 -0.0839  0.0806 -0.0608
  645MOL0     C88901  -0.299   5.040   0.283 -0.0779  0.5465 -0.4940
  645MOL0     C88902  -0.189   5.070   0.197 -0.1502 -0.4598 -0.4269
  645MOL0     O88903  -0.154   4.977   0.098 -0.0761 -0.6081  0.8822
  645MOL0     C88904  -0.049   5.010   0.013  0.4683  0.0878  0.3655
  645MOL0     C88905   0.085   5.036   0.057  0.3272 -0.6258 -0.4336
  645MOL0     C88906   0.186   5.077  -0.027  0.9854 -0.4019 -0.3004
  645MOL0     C88907   0.162   5.096  -0.161 -0.1936 -0.6790 -0.3735
  645MOL0     O88908   0.271   5.131  -0.236  0.1652  0.0887  0.1838
  645MOL0     C88909   0.242   5.188  -0.367 -0.2606  0.5683  0.4824
  645MOL0     C88910   0.373   5.225  -0.440 -0.2601  0.1699 -0.3233
  645MOL0     C88911   0.442   5.099  -0.501 -0.9112  0.7081  0.3556
  645MOL0     C88912   0.580   5.125  -0.550 -0.8676 -0.4109 -1.3599
  645MOL0     C88913   0.590   5.174  -0.696  0.3357 -0.6936 -0.2472
  645MOL0     C88914   0.714   5.122  -0.771  0.2033 -0.3028 -0.0986
  645MOL0     C88915   0.837   5.175  -0.691  0.2650 -0.3264 -0.1468
  645MOL0     C88916   0.971   5.115  -0.740  0.6184  0.6383 -0.0740
  645MOL0    Cl88917   1.120   5.173  -0.658 -0.4311 -0.6617 -0.0964
  645MOL0     C88918   0.031   5.064  -0.209 -0.2966  0.8702 -0.3676
  645MOL0     C88919  -0.069   5.020  -0.124 -0.1896  0.4829  0.0393
  645MOL0     O88920  -0.138   5.180   0.224 -0.2301 -0.3556  0.3588
  645MOL0     C88921  -0.377   5.148   0.333  0.1320 -0.8514  0.5670
  645MOL0     C88922  -0.487   5.124   0.415 -0.2443 -0.7833 -0.2792
  645MOL0     N88923  -1.006   5.326   0.776 -0.1191 -0.8160 -0.2762
  645MOL0     N88924  -1.000   5.433   0.830 -0.1484 -0.4891  0.0986
  645MOL0     C88925   0.047   6.096   1.145 -0.4430 -0.1470 -0.3193
  645MOL0     C88926   0.181   6.104   1.191 -0.2986  0.5026 -0.4302
  645MOL0     C88927   0.582   6.327   1.313  0.3041  0.0216 -0.2931
  645MOL0     C88928   0.636   6.207   1.354  0.4374 -0.4410  0.3367
  645MOL0     C88929   0.765   6.190   1.386 -0.2541 -0.3312 -0.4344
  645MOL0     C88930   0.860   6.292   1.362 -0.9221  0.4534 -0.1570
  645MOL0     O88931   0.998   6.258   1.390  0.6751  0.3213  0.4840
  645MOL0     C88932   1.093   6.364   1.362  0.7671 -0.6547 -0.0400
  645MOL0     C88933   1.221   6.325   1.429 -0.3134 -0.2089  0.3551
  645MOL0     C88934   1.323   6.438   1.439  0.7596 -0.6220  0.1666
  645MOL0     C88935   1.460   6.389   1.499 -1.0979 -0.5589 -0.3280
  645MOL0     C88936   1.544   6.501   1.531 -1.1258  0.4781  0.3392
  645MOL0     C88937   1.621   6.596   1.553  0.3635 -1.0443  0.3251
  645MOL0     C88938   0.805   6.420   1.329  0.0059 -0.2721  0.8510
  645MOL0     C88939   0.668   6.437   1.304  0.9419 -0.2141  0.1150
  645MOL0     C88940   0.632   6.580   1.259  0.8021  0.2329  0.6653
  645MOL0     H88941   0.162   6.398   1.362 -1.4386 -0.2761  0.7730
  645MOL0     H88942  -0.063   6.386   1.271  1.0845  1.2336  0.5371
  645MOL0     H88943  -0.204   6.005   1.103  1.5922  0.1696  1.4111
  645MOL0     H88944  -0.176   6.107   0.960  0.6594  3.1477  1.1802
  645MOL0     H88945  -0.432   6.106   1.132 -0.8815  4.2556 -0.2193
  645MOL0     H88946  -0.401   6.181   0.968  0.8450  0.3075  0.5642
  645MOL0     H88947  -0.360   5.986   0.865 -0.1108  4.4150 -0.7822
  645MOL0     H88948  -0.392   5.879   1.005 -1.0736  0.4961 -0.0950
  645MOL0     H88949  -0.629   5.998   1.009  1.2638  1.7815  0.7214
  645MOL0     H88950  -0.596   6.049   0.846  1.4982  0.7863  0.5131
  645MOL0     H88951  -0.523   5.793   0.809 -0.0513 -1.9280  0.3046
  645MOL0     H88952  -0.689   5.840   0.792 -0.3176  2.5278  0.7307
  645MOL0     H88953  -0.556   5.737   1.047  1.7924  1.1976 -2.3293
  645MOL0     H88954  -0.728   5.778   1.037 -0.6276 -1.3472  0.2490
  645MOL0     H88955  -0.656   5.521   1.018 -0.8073  1.0825  1.7929
  645MOL0     H88956  -0.616   5.553   0.850  1.3935  0.1835  0.1084
  645MOL0     H88957  -0.880   5.632   0.991  0.2419  0.1182  0.1454
  645MOL0     H88958  -0.839   5.656   0.817 -3.7137 -1.5686 -0.9475
  645MOL0     H88959  -0.685   5.341   0.803  0.5348  0.3383 -3.4059
  645MOL0     H88960  -0.772   5.187   0.604 -1.0181 -1.0397 -1.4163
  645MOL0     H88961  -0.933   5.122   0.626  0.4129  0.7194  0.4968
  645MOL0     H88962  -0.702   5.080   0.827  2.4382 -2.3271 -0.1119
  645MOL0     H88963  -0.862   5.035   0.866  0.5827  0.2019  0.5290
  645MOL0     H88964  -0.735   4.839   0.808  1.5487 -0.4589 -0.1392
  645MOL0     H88965  -0.833   4.873   0.655 -1.4303 -0.5578  2.8785
  645MOL0     H88966  -0.552   4.949   0.715 -1.8255 -2.5569  4.6461
  645MOL0     H88967  -0.603   4.804   0.630 -1.1776  1.3333 -2.3359
  645MOL0     H88968  -0.485   4.793   0.452 -1.8083  0.3539 -0.6434
  645MOL0     H88969  -0.280   4.713   0.372  0.7744 -2.1574 -1.6175
  645MOL0     H88970  -0.152   4.807   0.283 -0.6059  2.3274 -0.8608
  645MOL0     H88971  -0.299   4.732   0.202  0.4430  1.3685 -1.0750
  645MOL0     H88972   0.112   5.021   0.161  3.6153 -1.6436 -1.3224
  645MOL0     H88973   0.276   5.101   0.028  0.9077  0.8607 -0.6756
  645MOL0     H88974   0.178   5.121  -0.426 -0.7258  2.0258 -0.7191
  645MOL0     H88975   0.192   5.283  -0.347 -1.9964  0.3711 -2.3805
  645MOL0     H88976   0.358   5.311  -0.506  3.2292  1.2796  0.0954
  645MOL0     H88977   0.441   5.270  -0.366 -1.8251 -0.2975  1.4947
  645MOL0     H88978   0.383   5.060  -0.584  0.0460  0.1040 -0.0561
  645MOL0     H88979   0.444   5.016  -0.429 -1.6965 -0.9270 -1.4306
  645MOL0     H88980   0.632   5.031  -0.533 -4.1754 -1.9674  1.5096
  645MOL0     H88981   0.624   5.206  -0.491  2.5670 -2.1747 -1.2538
  645MOL0     H88982   0.504   5.139  -0.753 -0.0493 -0.7766  0.3779
  645MOL0     H88983   0.588   5.283  -0.697  0.5563 -0.6657  0.7988
  645MOL0     H88984   0.722   5.169  -0.869 -2.8000 -1.0380 -0.8129
  645MOL0     H88985   0.714   5.013  -0.774 -0.3370 -0.2808 -1.9996
  645MOL0     H88986   0.838   5.167  -0.582  0.1557  3.1704  0.2440
  645MOL0     H88987   0.833   5.284  -0.701 -2.8964 -0.2055  1.1656
  645MOL0     H88988   0.992   5.135  -0.845  0.8819 -3.2896 -0.9295
  645MOL0     H88989   0.958   5.006  -0.731 -2.0824  0.5960 -2.9214
  645MOL0     H88990   0.003   5.072  -0.314 -0.0991  0.2737 -0.4689
  645MOL0     H88991  -0.167   4.991  -0.162  0.4623 -0.9611 -0.6076
  645MOL0     H88992  -0.360   5.251   0.303  0.6340 -0.5028  1.9745
  645MOL0     H88993  -0.537   5.216   0.442  0.1279 -0.7567  0.3228
  645MOL0     H88994   0.016   6.014   1.082  0.1600 -1.0948  0.5897
  645MOL0     H88995   0.244   6.020   1.164  1.5060  2.2043 -1.7232
  645MOL0     H88996   0.564   6.125   1.359 -1.0792  0.8477  0.2945
  645MOL0     H88997   0.799   6.094   1.424  0.0964  1.0800  3.2599
  645MOL0     H88998   1.113   6.380   1.256  1.3440  0.0116  0.1642
  645MOL0     H88999   1.052   6.459   1.399 -1.3545 -1.1738 -0.8890
  645MOL0     H89000   1.259   6.243   1.367 -0.1627  1.6947 -2.2284
  645MOL0     H89001   1.191   6.282   1.525  1.2852 -1.4763  0.3174
  645MOL0     H89002   1.365   6.464   1.341  0.0273  1.6532  0.3977
  645MOL0     H89003   1.282   6.526   1.488  1.2338 -0.8576  1.0297
  645MOL0     H89004   1.517   6.315   1.443  3.8864  0.5856  2.5722
  645MOL0     H89005   1.442   6.343   1.597 -0.3957  3.8518  2.1299
  645MOL0     H89006   1.688   6.679   1.562 -1.1321  0.1116  1.0425
  645MOL0     H89007   0.866   6.509   1.323 -0.0899 -0.2693 -0.7036
  645MOL0     H89008   0.701   6.662   1.282 -1.2256  2.0312  0.7927
  645MOL0     H89009   0.603   6.574   1.153 -1.4353  2.4699  1.0489
  645MOL0     H89010   0.538   6.613   1.305 -0.9111 -1.1161 -1.6530
  646MOL0     O89011   1.209   2.221   7.984  0.0597  0.2175 -0.3245
  646MOL0     C89012   1.098   2.161   7.985 -0.4582 -0.5188  0.9724
  646MOL0     O89013   1.093   2.023   7.957 -0.3401 -0.0527 -0.9465
  646MOL0     C89014   1.213   1.961   7.936  0.1969 -0.2964  0.5431
  646MOL0     C89015   1.248   1.948   7.805 -0.7434  0.0001  0.5724
  646MOL0     C89016   1.371   1.891   7.776  0.4412  0.4602  0.2043
  646MOL0     C89017   1.465   1.854   7.871 -0.8368 -0.2577  0.0234
  646MOL0     O89018   1.592   1.808   7.845 -0.2395  0.1783 -0.4539
  646MOL0     C89019   1.637   1.805   7.704 -0.1791 -0.1600 -0.2854
  646MOL0     C89020   1.793   1.816   7.689 -0.5405 -0.4958  0.4495
  646MOL0     C89021   1.875   1.734   7.783 -0.2677  0.1272 -0.7430
  646MOL0     C89022   2.021   1.696   7.733  0.3897 -0.0974 -0.3212
  646MOL0     C89023   2.108   1.826   7.698 -0.0739  0.4334 -0.3076
  646MOL0     C89024   2.107   1.927   7.808 -0.5536 -0.4009  0.3121
  646MOL0     C89025   2.215   2.029   7.812  0.1516 -0.1829 -0.0805
  646MOL0     C89026   2.354   1.964   7.820  0.1293 -0.5321  0.2584
  646MOL0     N89027   2.454   2.071   7.838  0.2359 -0.2137  0.1179
  646MOL0     C89028   2.495   2.158   7.743 -0.3455  0.3694 -0.6673
  646MOL0     C89029   2.597   2.227   7.801 -0.3004  0.6346  0.0619
  646MOL0     C89030   2.681   2.320   7.723 -0.0198  0.3298 -0.3349
  646MOL0     C89031   2.791   2.382   7.808 -0.4097 -0.3377 -0.1841
  646MOL0     C89032   2.730   2.484   7.903  0.7033 -0.2758  0.5134
  646MOL0     C89033   2.830   2.536   8.008 -0.1751 -0.8935 -0.1306
  646MOL0     O89034   2.925   2.628   7.948  0.4460 -0.7284  0.3425
  646MOL0     C89035   3.045   2.580   7.903  0.5936 -0.1987  0.3787
  646MOL0     C89036   3.149   2.528   7.975  0.1280  0.5327  0.6031
  646MOL0     C89037   3.279   2.494   7.932 -0.2220  0.6784 -0.2110
  646MOL0     C89038   3.368   2.429   8.037  0.2517 -0.4723  0.4685
  646MOL0     C89039   3.309   2.512   7.788  0.0505 -0.8593 -0.2593
  646MOL0     C89040   3.434   2.467   7.722 -0.1825  0.2037  0.6863
  646MOL0     O89041   3.461   2.523   7.594  0.3138 -0.2886  0.4399
  646MOL0     C89042   3.599   2.539   7.568  1.0557 -0.1780  0.4106
  646MOL0     C89043   3.702   2.579   7.659  0.3404 -0.4297  0.6357
  646MOL0     C89044   3.830   2.581   7.618 -0.0764  1.3317 -0.0031
  646MOL0     C89045   3.863   2.543   7.488 -0.6133  0.1791  0.2812
  646MOL0     O89046   3.984   2.532   7.425 -0.1750 -0.2351 -0.4305
  646MOL0     C89047   4.102   2.557   7.512 -0.5069  0.3305 -0.1174
  646MOL0     C89048   4.132   2.701   7.529  0.9347 -0.2634 -0.3243
  646MOL0     C89049   4.222   2.763   7.419  0.4865  0.3938  0.0366
  646MOL0     C89050   4.348   2.836   7.466  0.2380 -0.6871 -0.5809
  646MOL0     C89051   4.409   2.917   7.350 -0.8513 -0.7639  0.5524
  646MOL0     C89052   4.532   3.005   7.395  0.1369 -0.0884 -0.0384
  646MOL0     C89053   4.654   2.926   7.420 -0.1516  0.3732 -0.4869
  646MOL0     C89054   4.768   3.018   7.430 -0.3047 -0.3227 -0.1184
  646MOL0    Cl89055   4.915   2.927   7.449 -0.0560 -0.4455 -0.4058
  646MOL0     C89056   3.759   2.507   7.397 -0.1428 -0.2396 -0.0683
  646MOL0     C89057   3.624   2.509   7.435 -0.4785  0.6250 -0.1276
  646MOL0     O89058   3.510   2.390   7.781  0.7490  0.3706 -0.7260
  646MOL0     C89059   3.203   2.566   7.713  0.3546  0.2571  0.3548
  646MOL0     C89060   3.075   2.596   7.766 -0.0609  0.1645 -0.0681
  646MOL0     N89061   2.605   2.188   7.934  0.3142 -0.6421  0.0578
  646MOL0     N89062   2.516   2.097   7.958 -0.0280 -0.1975 -0.1175
  646MOL0     C89063   1.428   1.878   8.007 -0.2189 -0.3886 -0.4350
  646MOL0     C89064   1.301   1.936   8.040 -1.2162  0.1676  0.3163
  646MOL0     C89065   0.969   2.232   8.007 -0.4373 -0.5330  0.3293
  646MOL0     C89066   0.841   2.170   7.965  0.1275  0.2680  0.1160
  646MOL0     C89067   0.724   2.241   7.979  0.8119  0.1582 -0.1535
  646MOL0     C89068   0.718   2.369   8.032 -0.2245 -1.0129  0.4918
  646MOL0     O89069   0.597   2.430   8.026  0.0328  0.2028 -0.2064
  646MOL0     C89070   0.568   2.527   7.932 -0.4872 -0.2652 -0.2013
  646MOL0     C89071   0.447   2.612   7.964  0.4256  0.5733 -0.9405
  646MOL0     C89072   0.338   2.541   8.052  0.1427  0.6129 -0.7164
  646MOL0     C89073   0.275   2.410   7.997  0.7248 -0.3600 -0.4027
  646MOL0     C89074   0.194   2.453   7.882 -0.0656 -0.3493  0.1647
  646MOL0     C89075   0.140   2.479   7.778 -0.4105 -0.4441 -0.5516
  646MOL0     C89076   0.835   2.422   8.083 -0.7661 -0.1300 -0.3925
  646MOL0     C89077   0.962   2.358   8.072  0.2612  0.2020  0.0057
  646MOL0     C89078   1.083   2.426   8.140 -0.2054  0.0809  0.4339
  646MOL0     H89079   1.176   1.978   7.730  0.0051  1.3876  0.3660
  646MOL0     H89080   1.378   1.862   7.672 -0.4480  1.0246 -0.0208
  646MOL0     H89081   1.582   1.881   7.648 -1.4374 -0.8234  0.0072
  646MOL0     H89082   1.623   1.705   7.661  2.2141 -0.0604 -1.5007
  646MOL0     H89083   1.820   1.781   7.589  3.4152 -0.9161  1.4949
  646MOL0     H89084   1.823   1.920   7.699  0.4335 -0.2806 -3.2632
  646MOL0     H89085   1.875   1.776   7.884  0.3742  0.1230 -0.7375
  646MOL0     H89086   1.828   1.643   7.821  0.8845  0.1519  0.8991
  646MOL0     H89087   2.068   1.637   7.812 -0.6277 -0.4112  0.0661
  646MOL0     H89088   2.019   1.634   7.643  4.2222 -1.8295  0.5576
  646MOL0     H89089   2.055   1.875   7.615  0.3462  1.9700  0.3012
  646MOL0     H89090   2.211   1.799   7.673 -0.0466  0.8171 -0.6161
  646MOL0     H89091   2.014   1.983   7.807  0.1093  0.7831 -1.7295
  646MOL0     H89092   2.114   1.875   7.904 -1.2310 -1.1417 -0.0347
  646MOL0     H89093   2.203   2.100   7.894 -0.1169  0.0865 -0.3450
  646MOL0     H89094   2.204   2.092   7.722  0.0882 -1.2357 -0.8265
  646MOL0     H89095   2.362   1.899   7.908  1.9671 -3.0848 -1.6220
  646MOL0     H89096   2.392   1.912   7.731  1.0721  0.5513  0.0220
  646MOL0     H89097   2.463   2.161   7.639 -1.6604  4.6661 -0.3453
  646MOL0     H89098   2.618   2.391   7.670  1.9281  2.7499  0.4277
  646MOL0     H89099   2.739   2.269   7.646  0.7407  0.7654 -0.0604
  646MOL0     H89100   2.856   2.308   7.855  1.7902  0.8522 -1.2050
  646MOL0     H89101   2.859   2.436   7.741  0.7068  0.0505  1.2295
  646MOL0     H89102   2.699   2.562   7.833 -2.5708 -3.2940 -1.7825
  646MOL0     H89103   2.635   2.451   7.945 -0.3677  0.8790 -0.9013
  646MOL0     H89104   2.768   2.590   8.080  1.4448 -1.5974  1.9067
  646MOL0     H89105   2.878   2.450   8.055 -1.3788 -2.8821 -2.3551
  646MOL0     H89106   3.136   2.545   8.081 -1.4360 -0.1215  0.5526
  646MOL0     H89107   3.332   2.440   8.140 -1.5995  3.1530 -0.3898
  646MOL0     H89108   3.469   2.469   8.031 -0.2534  0.9124  0.8049
  646MOL0     H89109   3.383   2.323   8.014 -3.2974 -0.7557 -1.4061
  646MOL0     H89110   3.680   2.606   7.762 -1.4432 -2.6166  0.9020
  646MOL0     H89111   3.910   2.602   7.690  0.3567  0.2265 -0.1418
  646MOL0     H89112   4.092   2.510   7.610 -1.4079 -1.2243 -0.9051
  646MOL0     H89113   4.176   2.490   7.466  0.6957  0.9481  0.8765
  646MOL0     H89114   4.034   2.749   7.529  0.9357 -0.1218  2.3246
  646MOL0     H89115   4.169   2.723   7.630  1.8058 -0.4385 -0.5942
  646MOL0     H89116   4.157   2.831   7.363 -0.9909 -1.4613 -0.6110
  646MOL0     H89117   4.252   2.683   7.351  1.1058  1.8684 -1.4803
  646MOL0     H89118   4.412   2.773   7.528  0.0049 -0.2031  0.1701
  646MOL0     H89119   4.319   2.912   7.539 -1.8641 -2.3786  0.4574
  646MOL0     H89120   4.435   2.846   7.270 -0.5543 -1.7265  1.4676
  646MOL0     H89121   4.328   2.980   7.313 -2.3226 -1.5748  2.2109
  646MOL0     H89122   4.496   3.080   7.467 -0.3991  2.2926 -2.5950
  646MOL0     H89123   4.537   3.067   7.305 -0.3060  1.8104  1.1896
  646MOL0     H89124   4.666   2.859   7.334 -1.3111  1.6697 -1.7055
  646MOL0     H89125   4.644   2.870   7.514  2.0323  0.9084  0.1407
  646MOL0     H89126   4.758   3.085   7.516  1.3137 -0.8950  0.5520
  646MOL0     H89127   4.788   3.078   7.340  0.1106  0.5155  0.5165
  646MOL0     H89128   3.786   2.485   7.294 -0.8744  0.6171 -0.4622
  646MOL0     H89129   3.542   2.480   7.371  0.3771 -0.4594 -0.7608
  646MOL0     H89130   3.221   2.567   7.605  0.9449 -0.2027  0.4410
  646MOL0     H89131   2.995   2.619   7.696  0.0367  1.1004  0.1175
  646MOL0     H89132   1.498   1.859   8.089 -1.5390 -0.2613  0.7572
  646MOL0     H89133   1.264   1.967   8.137 -0.7667  1.9293 -0.0485
  646MOL0     H89134   0.838   2.076   7.911  2.6594 -0.3117  0.8234
  646MOL0     H89135   0.631   2.193   7.946  0.4754  1.5079 -1.2557
  646MOL0     H89136   0.649   2.597   7.910  0.1385 -0.9703 -0.1698
  646MOL0     H89137   0.545   2.468   7.844  1.3236 -0.8830 -0.2992
  646MOL0     H89138   0.406   2.656   7.873 -1.7466  1.2182  0.2900
  646MOL0     H89139   0.479   2.693   8.029 -0.8963 -0.0577  0.5871
  646MOL0     H89140   0.395   2.513   8.141  0.4587 -0.0371 -1.1137
  646MOL0     H89141   0.264   2.617   8.075  0.8994  1.1280  0.0780
  646MOL0     H89142   0.217   2.371   8.081 -1.4209  1.0166 -1.1738
  646MOL0     H89143   0.349   2.341   7.956  2.1397  0.0034  1.4109
  646MOL0     H89144   0.083   2.496   7.688 -3.8721 -2.3728  1.0864
  646MOL0     H89145   0.833   2.518   8.135  1.6819 -0.0416 -0.3464
  646MOL0     H89146   1.124   2.352   8.209  0.6117 -0.3064 -0.4380
  646MOL0     H89147   1.168   2.451   8.077  0.1829 -0.1398  0.8618
  646MOL0     H89148   1.046   2.518   8.186 -0.5292  0.4617 -0.5680
  647MOL0     O89149   4.106  11.371   2.520  0.3058  0.6518  0.3594
  647MOL0     C89150   4.055  11.472   2.568 -0.8471 -0.3525  0.3818
  647MOL0     O89151   4.126  11.573   2.628 -0.0846  0.7366 -0.8286
  647MOL0     C89152   4.268  11.575   2.627 -0.4289 -0.5451 -0.3161
  647MOL0     C89153   4.340  11.525   2.519  0.0762 -0.5126 -0.4122
  647MOL0     C89154   4.485  11.526   2.519  0.7114 -0.4720  0.3672
  647MOL0     C89155   4.547  11.586   2.632 -0.3438  0.0275 -0.0448
  647MOL0     O89156   4.677  11.621   2.643 -0.4287 -0.3390  0.1512
  647MOL0     C89157   4.744  11.640   2.517  0.1443  0.2244 -0.6592
  647MOL0     C89158   4.866  11.726   2.529 -0.5837  1.6147 -0.4719
  647MOL0     C89159   4.847  11.865   2.587  0.6093 -0.5821 -0.4771
  647MOL0     C89160   4.975  11.936   2.622  0.1713  0.0080  0.6676
  647MOL0     C89161   4.957  12.075   2.687 -0.7812  1.0437 -0.0546
  647MOL0     C89162   5.091  12.131   2.754 -0.5799  0.0381  1.2633
  647MOL0     C89163   5.092  12.284   2.738  0.3244 -0.2442  0.8589
  647MOL0     C89164   5.000  12.346   2.847 -0.2057 -0.5669 -0.4892
  647MOL0     N89165   5.046  12.325   2.987 -0.3907  0.1337  0.3442
  647MOL0     C89166   5.153  12.391   3.041 -0.1285  0.5078  0.0164
  647MOL0     C89167   5.189  12.315   3.149 -0.4823  0.1747  0.0739
  647MOL0     C89168   5.305  12.364   3.236 -0.2763  0.4843 -0.4410
  647MOL0     C89169   5.253  12.368   3.390 -0.6402  0.1729  0.8963
  647MOL0     C89170   5.327  12.477   3.466 -0.2264  0.3018 -0.1301
  647MOL0     C89171   5.270  12.502   3.607 -0.5646  0.6836 -0.8070
  647MOL0     O89172   5.195  12.622   3.621  0.6153 -0.3020 -0.1165
  647MOL0     C89173   5.054  12.619   3.599 -0.7319 -0.8881 -0.2848
  647MOL0     C89174   4.975  12.505   3.614 -0.0035  0.9605  0.6792
  647MOL0     C89175   4.838  12.502   3.587 -0.4976  0.5483 -0.8732
  647MOL0     C89176   4.770  12.360   3.595  0.2406  1.0219 -0.1962
  647MOL0     C89177   4.765  12.623   3.577 -0.7998  0.6937 -0.1665
  647MOL0     C89178   4.621  12.641   3.579 -0.1867  0.2096  0.1741
  647MOL0     O89179   4.571  12.771   3.556 -0.0180  0.4256  0.2028
  647MOL0     C89180   4.427  12.793   3.545 -0.4688  1.1665 -0.3524
  647MOL0     C89181   4.379  12.915   3.583 -0.3413 -0.6885 -0.0907
  647MOL0     C89182   4.246  12.952   3.569 -0.7055 -0.3132 -0.6286
  647MOL0     C89183   4.156  12.868   3.494 -0.2269 -0.3270 -0.0448
  647MOL0     O89184   4.024  12.886   3.465  0.0462 -0.3705 -0.5260
  647MOL0     C89185   3.963  12.996   3.532 -0.4294  0.7834 -0.3643
  647MOL0     C89186   3.815  12.995   3.489 -0.7835 -0.5108  0.1596
  647MOL0     C89187   3.739  12.867   3.525 -0.2445 -0.3670 -0.0797
  647MOL0     C89188   3.711  12.867   3.673  0.8153 -0.5460  0.5865
  647MOL0     C89189   3.599  12.758   3.716 -0.0676 -0.2467 -0.1406
  647MOL0     C89190   3.457  12.780   3.654 -1.1946 -0.3344 -0.7416
  647MOL0     C89191   3.364  12.687   3.728 -0.0283  0.2715  0.2235
  647MOL0     C89192   3.220  12.698   3.693 -0.0618 -0.2503  0.5029
  647MOL0    Cl89193   3.103  12.664   3.831  0.4651  0.6090  0.2353
  647MOL0     C89194   4.204  12.741   3.451  0.1713  0.0176 -0.2317
  647MOL0     C89195   4.341  12.703   3.476 -0.2840 -0.4488  0.3753
  647MOL0     O89196   4.552  12.549   3.623  0.3653 -0.5102  0.7327
  647MOL0     C89197   4.838  12.739   3.570 -0.8655 -1.0922  0.1038
  647MOL0     C89198   4.982  12.745   3.580 -1.3246 -0.0041  0.4772
  647MOL0     N89199   5.091  12.220   3.163  0.2049  0.5053  0.3479
  647MOL0     N89200   5.012  12.217   3.071 -0.0202 -0.9795  0.5078
  647MOL0     C89201   4.467  11.629   2.741 -0.0084 -0.4276  0.2283
  647MOL0     C89202   4.330  11.625   2.737 -0.1555 -0.2112 -1.0497
  647MOL0     C89203   3.907  11.482   2.556  0.4197  0.9570  0.7079
  647MOL0     C89204   3.841  11.543   2.662  0.0604 -0.8499 -1.0259
  647MOL0     C89205   3.704  11.558   2.660  0.9786 -0.0078 -0.5677
  647MOL0     C89206   3.630  11.507   2.555  0.1506  0.7610  0.0917
  647MOL0     O89207   3.500  11.503   2.552  0.1761 -0.4500  0.8996
  647MOL0     C89208   3.413  11.567   2.653 -0.6626  0.4835 -0.5849
  647MOL0     C89209   3.267  11.582   2.604  0.5467  0.9394  0.7117
  647MOL0     C89210   3.248  11.604   2.448  0.4217  0.1158  0.2471
  647MOL0     C89211   3.253  11.755   2.417  0.4138 -0.3727  0.0740
  647MOL0     C89212   3.310  11.769   2.281 -0.6407  0.2140  0.2747
  647MOL0     C89213   3.353  11.792   2.169  0.6777  1.1323 -0.1210
  647MOL0     C89214   3.691  11.446   2.453  0.5269  0.1678  1.0534
  647MOL0     C89215   3.828  11.432   2.437 -0.4796 -0.9427  0.1456
  647MOL0     C89216   3.872  11.351   2.319  0.1574  0.4072 -0.1285
  647MOL0     H89217   4.282  11.487   2.436 -0.2800  0.7867 -0.7913
  647MOL0     H89218   4.549  11.505   2.434  2.3763  1.4908  1.0651
  647MOL0     H89219   4.677  11.702   2.457 -2.5553  1.1845  2.9790
  647MOL0     H89220   4.767  11.543   2.470  0.0765  0.1524 -0.5461
  647MOL0     H89221   4.931  11.672   2.598 -1.3668  2.1771  0.7482
  647MOL0     H89222   4.911  11.724   2.429  1.5303  1.0281  0.4241
  647MOL0     H89223   4.792  11.934   2.523 -1.7149 -1.5785  0.3488
  647MOL0     H89224   4.787  11.864   2.679 -0.1137 -0.4678 -0.9432
  647MOL0     H89225   5.042  11.863   2.668  0.4221 -3.2752 -4.1999
  647MOL0     H89226   5.026  11.952   2.527 -1.9274 -0.4803 -0.6064
  647MOL0     H89227   4.885  12.069   2.769 -0.5558 -0.0594  0.0782
  647MOL0     H89228   4.917  12.141   2.609 -2.2233  0.8295  0.4658
  647MOL0     H89229   5.105  12.109   2.860  2.8383  2.8145  1.5466
  647MOL0     H89230   5.181  12.085   2.712 -0.6077 -1.0701  2.3723
  647MOL0     H89231   5.059  12.319   2.640 -0.5282 -0.3992  1.0786
  647MOL0     H89232   5.189  12.329   2.759 -0.5587  1.9513  0.5632
  647MOL0     H89233   5.003  12.453   2.825  0.6330  0.0647  2.3039
  647MOL0     H89234   4.896  12.310   2.843  0.3918 -2.2560 -2.6991
  647MOL0     H89235   5.199  12.484   3.011 -0.5943  0.1352 -2.0570
  647MOL0     H89236   5.322  12.468   3.206 -0.4358  0.3216 -1.1097
  647MOL0     H89237   5.401  12.314   3.221 -0.4912  0.3863 -1.5756
  647MOL0     H89238   5.144  12.382   3.395 -0.8109 -0.0753 -1.2321
  647MOL0     H89239   5.271  12.267   3.427 -0.8412  0.0088  0.5514
  647MOL0     H89240   5.432  12.446   3.470  1.0526  3.5807 -2.9581
  647MOL0     H89241   5.326  12.565   3.401  0.3375 -0.5631 -1.3491
  647MOL0     H89242   5.222  12.410   3.642 -1.7169  2.1705  1.7311
  647MOL0     H89243   5.358  12.521   3.669 -0.8491  1.2467 -0.5776
  647MOL0     H89244   5.027  12.410   3.622 -0.6811  0.1131 -3.1772
  647MOL0     H89245   4.695  12.336   3.671 -1.0883  1.4433 -1.3281
  647MOL0     H89246   4.847  12.284   3.611  0.4899  0.9032 -1.7914
  647MOL0     H89247   4.722  12.328   3.502 -1.2006  2.1571  0.1238
  647MOL0     H89248   4.444  12.979   3.643 -0.9964 -1.6864  1.7429
  647MOL0     H89249   4.213  13.051   3.598 -3.4591 -1.6627  1.2383
  647MOL0     H89250   3.980  12.995   3.641  3.3624  0.5326 -0.8310
  647MOL0     H89251   4.012  13.090   3.506 -1.6288  1.1357 -1.4288
  647MOL0     H89252   3.763  13.083   3.527 -0.3760 -0.1670 -0.0767
  647MOL0     H89253   3.804  13.003   3.381 -0.7150 -2.2271 -0.0064
  647MOL0     H89254   3.784  12.774   3.488  1.0105  0.2543 -0.1611
  647MOL0     H89255   3.651  12.872   3.461  0.7863  1.2372 -1.4479
  647MOL0     H89256   3.672  12.967   3.696 -0.5990 -0.1284 -3.0411
  647MOL0     H89257   3.802  12.842   3.729  0.8028 -1.4399  0.2122
  647MOL0     H89258   3.648  12.670   3.674  1.1387 -1.3297  3.2301
  647MOL0     H89259   3.588  12.748   3.824 -0.2249  2.7860  0.2234
  647MOL0     H89260   3.460  12.756   3.547  2.6417 -1.2893 -0.5748
  647MOL0     H89261   3.421  12.882   3.668 -0.0390 -0.2646  2.4726
  647MOL0     H89262   3.386  12.701   3.834  0.0490 -0.5339  0.3166
  647MOL0     H89263   3.388  12.584   3.699  1.7702 -0.0957  2.7364
  647MOL0     H89264   3.206  12.629   3.609  3.2623 -0.6316  0.1358
  647MOL0     H89265   3.214  12.802   3.658  0.3434  0.5929  2.7653
  647MOL0     H89266   4.133  12.667   3.416  0.9985 -0.8004 -0.2284
  647MOL0     H89267   4.372  12.614   3.422 -3.0954 -1.8039  0.7748
  647MOL0     H89268   4.785  12.834   3.559 -1.1893 -1.4348 -1.6023
  647MOL0     H89269   5.030  12.841   3.572  0.9510 -0.9475  1.9480
  647MOL0     H89270   4.515  11.682   2.823 -0.3266  0.5620 -0.2078
  647MOL0     H89271   4.273  11.668   2.818 -0.2688 -0.1623 -1.1552
  647MOL0     H89272   3.882  11.600   2.744 -3.1374 -0.9759  0.8111
  647MOL0     H89273   3.669  11.613   2.748 -3.0674 -1.0522 -1.2902
  647MOL0     H89274   3.407  11.509   2.746 -0.2039  1.2799 -0.0359
  647MOL0     H89275   3.438  11.671   2.680 -0.5082  0.8433 -2.0616
  647MOL0     H89276   3.217  11.664   2.657  2.0838  0.5902  2.8598
  647MOL0     H89277   3.226  11.484   2.627  3.0587 -0.6313 -1.0733
  647MOL0     H89278   3.328  11.557   2.390  1.4467  2.6324 -0.5074
  647MOL0     H89279   3.154  11.561   2.411  0.1928 -0.2804  1.2316
  647MOL0     H89280   3.322  11.800   2.489 -2.6477 -0.6819  3.4815
  647MOL0     H89281   3.156  11.805   2.428  0.0932 -1.4808  3.2119
  647MOL0     H89282   3.406  11.796   2.076 -0.8260  2.0222 -0.9855
  647MOL0     H89283   3.634  11.406   2.370  2.6222  1.7036 -1.2708
  647MOL0     H89284   3.881  11.413   2.230  2.0770 -0.6226 -0.7314
  647MOL0     H89285   3.972  11.308   2.336 -0.0965  0.4853  1.7959
  647MOL0     H89286   3.802  11.271   2.291 -1.4063  1.6062  0.2441
  648MOL0     O89287   0.943   8.448   9.777 -0.3488 -0.1255 -0.1182
  648MOL0     C89288   0.897   8.340   9.734 -0.6360 -0.0725  0.4270
  648MOL0     O89289   0.968   8.220   9.727  0.4144 -0.0155 -0.4435
  648MOL0     C89290   1.099   8.237   9.775  0.0978 -0.0252  0.1614
  648MOL0     C89291   1.214   8.212   9.694  0.5285  0.2982 -0.6677
  648MOL0     C89292   1.341   8.241   9.744 -0.1615 -0.9049  0.0358
  648MOL0     C89293   1.370   8.281   9.869 -0.4888 -0.2075  0.2358
  648MOL0     O89294   1.495   8.296   9.905  0.0832  1.1219  0.4210
  648MOL0     C89295   1.553   8.178   9.963 -0.2930 -0.2704 -0.4806
  648MOL0     C89296   1.539   8.183  10.116 -0.7257  0.1011  0.3274
  648MOL0     C89297   1.624   8.081  10.180 -0.6232  0.2464 -0.0846
  648MOL0     C89298   1.614   7.939  10.142 -0.4119 -0.7450 -0.0685
  648MOL0     C89299   1.686   7.859  10.247 -0.2280  0.6066  0.4576
  648MOL0     C89300   1.681   7.709  10.207 -0.2441 -0.4863 -0.4489
  648MOL0     C89301   1.804   7.643  10.267 -0.1483  0.1502 -0.0633
  648MOL0     C89302   1.802   7.493  10.246 -0.5794  1.2410  0.5162
  648MOL0     N89303   1.919   7.439  10.307  0.5405  0.0147  0.5417
  648MOL0     C89304   2.050   7.441  10.268  0.1495  0.1061 -0.0221
  648MOL0     C89305   2.111   7.354  10.348  0.0281  0.0728  0.0814
  648MOL0     C89306   2.250   7.309  10.326 -1.2729 -0.1718 -0.1152
  648MOL0     C89307   2.316   7.365  10.444  0.6260 -0.0029 -0.3434
  648MOL0     C89308   2.462   7.333  10.443  1.0353 -0.2452 -0.6192
  648MOL0     C89309   2.544   7.382  10.566  0.4180  0.3445  0.1680
  648MOL0     O89310   2.684   7.350  10.551  0.2044 -0.0539  0.1737
  648MOL0     C89311   2.731   7.262  10.649  0.2990 -0.3491  0.5350
  648MOL0     C89312   2.699   7.129  10.653 -0.2942 -0.1193 -0.1196
  648MOL0     C89313   2.761   7.047  10.755 -0.1824 -0.8026  0.1417
  648MOL0     C89314   2.737   6.898  10.739  0.0937  0.1071 -0.6125
  648MOL0     C89315   2.845   7.102  10.851 -0.4619 -0.2553  0.1367
  648MOL0     C89316   2.940   7.025  10.943 -0.3793 -0.1889  0.3765
  648MOL0     O89317   2.925   6.884  10.946  0.1815 -0.7739  0.0287
  648MOL0     C89318   3.002   6.802  11.024  0.6665  0.3730 -0.2498
  648MOL0     C89319   2.955   6.758  11.143  0.1621 -0.2292 -0.2216
  648MOL0     C89320   3.042   6.683  11.220 -0.4057  0.4619  0.5623
  648MOL0     C89321   3.165   6.632  11.184  0.7688  0.5298  0.1278
  648MOL0     O89322   3.226   6.553  11.274  0.2522 -0.6944  0.5257
  648MOL0     C89323   3.350   6.489  11.218  0.4835 -0.7973  0.1555
  648MOL0     C89324   3.414   6.399  11.325 -0.0963 -0.4511 -0.2500
  648MOL0     C89325   3.465   6.476  11.450 -0.3366  0.4883 -0.0869
  648MOL0     C89326   3.554   6.374  11.535 -0.5516  0.2917 -0.6340
  648MOL0     C89327   3.597   6.434  11.674  0.1890  0.1480  0.6887
  648MOL0     C89328   3.669   6.340  11.763 -0.7608  0.2441  0.2266
  648MOL0     C89329   3.805   6.309  11.724  0.2020  0.3556 -0.6639
  648MOL0     C89330   3.904   6.384  11.814 -0.3112  0.2333  0.3519
  648MOL0    Cl89331   3.881   6.355  11.977 -0.0108  0.3064  0.1404
  648MOL0     C89332   3.212   6.685  11.065 -0.8647  0.1148 -0.0265
  648MOL0     C89333   3.131   6.769  10.987 -0.1469 -0.2204 -0.1405
  648MOL0     O89334   3.027   7.088  11.012 -0.3337  0.0713  0.3612
  648MOL0     C89335   2.867   7.240  10.840 -0.2642  0.2712  0.9868
  648MOL0     C89336   2.819   7.313  10.736 -0.1392 -0.6335  0.2391
  648MOL0     N89337   2.019   7.301  10.443 -1.2642 -0.6003  0.1859
  648MOL0     N89338   1.912   7.372  10.423  0.3179  0.5961 -0.3504
  648MOL0     C89339   1.261   8.286   9.954 -0.2676  0.5846  0.4758
  648MOL0     C89340   1.128   8.277   9.908  0.7757 -0.0545  0.4268
  648MOL0     C89341   0.760   8.343   9.687  0.5415  0.3763 -0.7599
  648MOL0     C89342   0.686   8.227   9.722  0.1391 -0.7069  0.3585
  648MOL0     C89343   0.551   8.207   9.689  0.5356 -0.7583  0.2782
  648MOL0     C89344   0.482   8.317   9.635  0.1481 -0.2550 -0.6000
  648MOL0     O89345   0.349   8.312   9.599 -0.1799 -0.1933  0.1625
  648MOL0     C89346   0.264   8.408   9.655 -0.8719 -0.4147 -0.2072
  648MOL0     C89347   0.141   8.341   9.710 -0.4363  0.7129 -0.9613
  648MOL0     C89348   0.171   8.234   9.815  0.5452  0.8775 -0.1513
  648MOL0     C89349   0.038   8.164   9.846 -0.5458  0.5049  0.9857
  648MOL0     C89350  -0.063   8.249   9.921  0.3268  0.2374  0.1937
  648MOL0     C89351  -0.155   8.305   9.978 -0.7119 -0.5468 -0.3394
  648MOL0     C89352   0.552   8.434   9.608 -0.4039  0.1209 -0.3790
  648MOL0     C89353   0.688   8.455   9.639 -0.0185 -0.2412 -0.8545
  648MOL0     C89354   0.736   8.601   9.622 -0.3249 -0.0179 -0.6914
  648MOL0     H89355   1.204   8.177   9.592 -1.4646  0.8755 -0.7206
  648MOL0     H89356   1.427   8.216   9.682  0.5216 -1.5822  1.2208
  648MOL0     H89357   1.659   8.190   9.938 -0.5292 -0.6468 -1.7458
  648MOL0     H89358   1.513   8.086   9.920 -0.3323 -1.6144  2.2166
  648MOL0     H89359   1.574   8.280  10.152  0.0966  0.1516 -0.5641
  648MOL0     H89360   1.434   8.179  10.147 -0.6451  0.3306  0.6330
  648MOL0     H89361   1.729   8.106  10.167 -0.6348  0.6795  0.6044
  648MOL0     H89362   1.587   8.092  10.283 -0.7741 -1.1752  0.0357
  648MOL0     H89363   1.509   7.913  10.132 -0.2191 -1.8217  0.5589
  648MOL0     H89364   1.661   7.932  10.043 -3.7412 -0.1434 -1.8320
  648MOL0     H89365   1.645   7.887  10.344 -0.6754  3.4360 -0.4544
  648MOL0     H89366   1.788   7.898  10.241 -0.8426  2.0802 -2.1487
  648MOL0     H89367   1.586   7.674  10.249 -0.4176 -1.0706 -1.3140
  648MOL0     H89368   1.689   7.708  10.098  1.4225 -1.1151 -0.3647
  648MOL0     H89369   1.805   7.657  10.376  1.4589 -0.2141 -0.0117
  648MOL0     H89370   1.892   7.694  10.227 -0.3896 -0.1446 -0.9763
  648MOL0     H89371   1.715   7.448  10.295  0.7129 -2.4821 -0.2707
  648MOL0     H89372   1.795   7.471  10.139 -0.1217  2.0904  0.3104
  648MOL0     H89373   2.076   7.502  10.181  1.3857  0.3933  0.5322
  648MOL0     H89374   2.299   7.343  10.234 -1.7762  0.0935 -0.2886
  648MOL0     H89375   2.263   7.200  10.323 -0.8899 -0.1435  0.3779
  648MOL0     H89376   2.295   7.471  10.425 -1.8890 -0.2442  0.6308
  648MOL0     H89377   2.262   7.316  10.526 -3.3280  0.6941 -2.2704
  648MOL0     H89378   2.480   7.225  10.436 -0.7501 -0.5930 -0.3169
  648MOL0     H89379   2.503   7.363  10.346 -1.2016  0.6432 -1.3687
  648MOL0     H89380   2.530   7.490  10.572 -2.9746  0.0545 -0.6868
  648MOL0     H89381   2.504   7.332  10.655  0.3617 -0.0868 -0.0979
  648MOL0     H89382   2.642   7.063  10.589  0.6845 -0.2299 -0.8876
  648MOL0     H89383   2.833   6.857  10.707  0.5529  1.5926 -1.2583
  648MOL0     H89384   2.650   6.870  10.679 -1.1871  1.3567  0.5842
  648MOL0     H89385   2.716   6.852  10.836 -0.1650  1.2789 -0.1010
  648MOL0     H89386   2.855   6.783  11.176  0.7066  0.6736  0.8084
  648MOL0     H89387   3.011   6.644  11.317  1.0187 -0.5404  0.6627
  648MOL0     H89388   3.317   6.445  11.124 -0.6206  2.3599 -1.0530
  648MOL0     H89389   3.422   6.563  11.182 -1.1912 -0.4106 -2.7015
  648MOL0     H89390   3.345   6.322  11.360 -0.1437 -0.7257 -0.9293
  648MOL0     H89391   3.492   6.347  11.268  0.3709  0.5310 -0.5266
  648MOL0     H89392   3.381   6.514  11.509  0.6863  0.5681  1.3757
  648MOL0     H89393   3.525   6.563  11.422 -2.0075  1.2254 -1.5438
  648MOL0     H89394   3.642   6.342  11.478  0.0409  1.1673 -0.2363
  648MOL0     H89395   3.494   6.288  11.566 -1.5079  0.3667 -2.2045
  648MOL0     H89396   3.654   6.528  11.667 -0.0593  0.3683  1.4163
  648MOL0     H89397   3.507   6.462  11.730 -1.7313 -2.1540 -1.0611
  648MOL0     H89398   3.618   6.243  11.776  0.9966 -0.6697  0.6028
  648MOL0     H89399   3.667   6.386  11.863 -2.6723 -2.4149  1.5460
  648MOL0     H89400   3.824   6.337  11.620  0.6227  0.3252 -0.5942
  648MOL0     H89401   3.811   6.200  11.731  1.6185  0.5016  0.9297
  648MOL0     H89402   3.888   6.491  11.799 -1.7221 -0.2678 -2.4181
  648MOL0     H89403   4.001   6.350  11.779 -0.8739 -2.4851  1.2203
  648MOL0     H89404   3.311   6.661  11.028 -1.0433  0.6079 -0.8432
  648MOL0     H89405   3.174   6.806  10.894 -0.7518  1.7025  0.2918
  648MOL0     H89406   2.940   7.288  10.905  0.4289 -0.0875  0.4870
  648MOL0     H89407   2.823   7.421  10.740  2.4233 -0.5662 -1.4689
  648MOL0     H89408   1.280   8.300  10.060  0.2096 -1.2873  0.6880
  648MOL0     H89409   1.038   8.291   9.967  0.3320  0.2291 -0.3033
  648MOL0     H89410   0.730   8.143   9.775  1.7781 -0.1268 -0.0049
  648MOL0     H89411   0.514   8.107   9.711 -2.2133  0.5839  2.3442
  648MOL0     H89412   0.307   8.472   9.732 -0.0994 -2.8928  1.5436
  648MOL0     H89413   0.232   8.474   9.574 -0.4735  1.7686  1.3250
  648MOL0     H89414   0.083   8.296   9.629 -1.4686  0.2157  0.0272
  648MOL0     H89415   0.074   8.408   9.766  0.5311 -0.7086  2.0867
  648MOL0     H89416   0.236   8.154   9.778 -0.0557 -0.1719  0.9708
  648MOL0     H89417   0.212   8.276   9.908  2.3596 -4.8589  2.1262
  648MOL0     H89418   0.056   8.071   9.901 -0.9752 -0.4939 -0.4952
  648MOL0     H89419  -0.010   8.139   9.750  1.2574 -0.0951  0.1937
  648MOL0     H89420  -0.232   8.344  10.042 -0.3064  1.7216 -1.1218
  648MOL0     H89421   0.491   8.518   9.577 -1.4841 -0.1964  0.8129
  648MOL0     H89422   0.741   8.649   9.720 -1.5913 -0.4465 -0.3930
  648MOL0     H89423   0.838   8.596   9.583  0.3293  0.4527  0.8828
  648MOL0     H89424   0.670   8.664   9.560 -0.3673 -1.3514 -2.0631
  649MOL0     O89425   5.628   8.390   7.502 -0.3984  0.0187  0.7253
  649MOL0     C89426   5.529   8.401   7.576 -0.5993 -0.4680  0.1691
  649MOL0     O89427   5.510   8.503   7.668  0.6192 -0.6144 -0.4507
  649MOL0     C89428   5.609   8.601   7.687  0.4735  0.2870  0.5153
  649MOL0     C89429   5.624   8.704   7.606  0.3422 -0.6113  0.1141
  649MOL0     C89430   5.726   8.797   7.632 -0.6987 -0.2737  0.1322
  649MOL0     C89431   5.810   8.779   7.742  0.0723  0.5734  0.7737
  649MOL0     O89432   5.921   8.858   7.764 -0.0523  0.0255  0.5077
  649MOL0     C89433   5.931   8.978   7.682  0.1921 -0.4340  0.4602
  649MOL0     C89434   6.054   9.067   7.723 -0.1469 -0.5982 -0.7073
  649MOL0     C89435   6.176   8.985   7.780 -0.3653 -0.3380  0.7434
  649MOL0     C89436   6.230   8.898   7.670  0.0399  0.5785 -0.2818
  649MOL0     C89437   6.354   8.813   7.721 -0.4959 -0.5364  0.4886
  649MOL0     C89438   6.315   8.693   7.816 -0.4921 -0.5164 -0.2579
  649MOL0     C89439   6.429   8.634   7.896  0.5585  0.4423 -0.9877
  649MOL0     C89440   6.536   8.604   7.797 -0.2426 -0.1502 -0.1012
  649MOL0     N89441   6.651   8.537   7.859  0.4907  0.0795 -0.0860
  649MOL0     C89442   6.688   8.404   7.845 -0.6032  0.1674  0.1821
  649MOL0     C89443   6.793   8.388   7.935 -0.1223  0.0534 -0.2425
  649MOL0     C89444   6.857   8.261   7.968  0.0289 -0.5509  0.2033
  649MOL0     C89445   6.932   8.250   8.101  0.1872 -0.1332 -1.0777
  649MOL0     C89446   7.069   8.279   8.086 -0.4388 -1.7431 -0.3026
  649MOL0     C89447   7.160   8.255   8.206  1.0054  0.2156  0.3231
  649MOL0     O89448   7.121   8.124   8.253  0.0623 -0.4382  0.6996
  649MOL0     C89449   7.226   8.065   8.313  0.3492  0.0704 -0.0848
  649MOL0     C89450   7.269   8.121   8.433  0.2270  0.0097  0.0010
  649MOL0     C89451   7.382   8.069   8.501  0.3187 -0.5492  0.3117
  649MOL0     C89452   7.430   8.152   8.620 -0.3296  0.8148 -0.7743
  649MOL0     C89453   7.448   7.954   8.460 -1.1204  0.2211  0.0654
  649MOL0     C89454   7.580   7.912   8.506 -0.9510 -0.2354 -0.8785
  649MOL0     O89455   7.662   7.846   8.423 -0.5812 -0.6276  0.3581
  649MOL0     C89456   7.792   7.803   8.455  0.2041 -0.6847  0.1187
  649MOL0     C89457   7.872   7.841   8.565 -0.2946 -0.2649  1.0523
  649MOL0     C89458   8.010   7.794   8.556 -0.9410 -0.0988 -0.3143
  649MOL0     C89459   8.067   7.718   8.456  0.4316 -0.1873 -0.0477
  649MOL0     O89460   8.198   7.674   8.459 -0.0588  0.9928  0.6091
  649MOL0     C89461   8.297   7.773   8.494 -0.4178  0.8446 -0.2205
  649MOL0     C89462   8.435   7.741   8.439  0.1239 -0.5211  0.1657
  649MOL0     C89463   8.493   7.634   8.522 -0.1337  0.3364 -0.0563
  649MOL0     C89464   8.611   7.562   8.454 -0.4964  1.2603  0.2532
  649MOL0     C89465   8.743   7.638   8.469  0.0919 -0.7078 -0.4730
  649MOL0     C89466   8.852   7.567   8.384  0.3878  0.2814  0.7643
  649MOL0     C89467   8.983   7.639   8.373  0.0814 -0.4359 -0.4011
  649MOL0     C89468   9.029   7.717   8.493 -0.3218  1.2526 -0.0140
  649MOL0    Cl89469   9.174   7.808   8.470 -0.5107  0.1272  0.1103
  649MOL0     C89470   7.978   7.680   8.352  0.6301 -0.1924 -0.5403
  649MOL0     C89471   7.843   7.723   8.359  0.1065 -0.0759  0.3717
  649MOL0     O89472   7.588   7.919   8.630 -0.6863  0.1145  0.1757
  649MOL0     C89473   7.398   7.892   8.343  0.4761 -0.9618 -0.8898
  649MOL0     C89474   7.295   7.946   8.276  1.0412  0.9781  1.7235
  649MOL0     N89475   6.821   8.511   7.985  0.5389 -0.2250  0.9195
  649MOL0     N89476   6.736   8.599   7.937 -0.3732  0.0760  0.1184
  649MOL0     C89477   5.803   8.654   7.810  0.4707 -0.0418  0.2296
  649MOL0     C89478   5.696   8.571   7.785 -0.3322 -0.2429 -0.5284
  649MOL0     C89479   5.433   8.285   7.585 -0.6947  0.2916 -0.5179
  649MOL0     C89480   5.315   8.310   7.660 -0.4421 -0.3388  0.4631
  649MOL0     C89481   5.221   8.215   7.668  0.9907  0.2417 -1.0116
  649MOL0     C89482   5.231   8.088   7.618  0.2688 -0.4898  0.4189
  649MOL0     O89483   5.127   7.996   7.642 -0.2984 -0.5144  0.2286
  649MOL0     C89484   5.015   8.021   7.727 -0.3899 -0.6460 -0.4970
  649MOL0     C89485   4.906   7.910   7.716  0.3406 -0.3382 -0.3099
  649MOL0     C89486   4.961   7.788   7.788 -0.4102  0.3663 -0.0416
  649MOL0     C89487   4.955   7.777   7.941  0.1795  0.1664  0.5034
  649MOL0     C89488   4.817   7.777   7.993 -0.4163 -0.1274 -0.1999
  649MOL0     C89489   4.703   7.775   8.028  0.5257  0.6528  0.5561
  649MOL0     C89490   5.349   8.054   7.547  0.1766 -0.5381  0.2151
  649MOL0     C89491   5.453   8.154   7.532  0.1098 -0.4730 -0.5596
  649MOL0     C89492   5.581   8.127   7.448  0.1748 -0.1492  0.1698
  649MOL0     H89493   5.552   8.716   7.526  0.0440 -0.1255  0.4538
  649MOL0     H89494   5.738   8.883   7.567  2.0844 -1.7140 -1.4758
  649MOL0     H89495   5.838   9.033   7.693 -0.5881 -2.1138  3.1888
  649MOL0     H89496   5.957   8.958   7.577 -0.2380  2.1988 -0.2115
  649MOL0     H89497   6.087   9.136   7.645 -0.5765 -1.6759 -1.8847
  649MOL0     H89498   6.019   9.139   7.797 -0.2100  1.1310 -2.3403
  649MOL0     H89499   6.260   9.053   7.796 -0.3001  0.5012 -2.4465
  649MOL0     H89500   6.161   8.924   7.869  2.4266  0.4126  1.8193
  649MOL0     H89501   6.160   8.824   7.632  2.2680 -1.8384  0.0647
  649MOL0     H89502   6.259   8.961   7.585 -1.3631  2.6748  0.7014
  649MOL0     H89503   6.426   8.875   7.776 -2.1328 -0.1521  2.2886
  649MOL0     H89504   6.408   8.770   7.636 -2.1611 -1.0557 -0.3500
  649MOL0     H89505   6.240   8.727   7.888  1.8810  3.7603  0.4895
  649MOL0     H89506   6.270   8.613   7.756  0.7675 -2.0444  0.7398
  649MOL0     H89507   6.387   8.547   7.948  1.1088  1.4314  1.2249
  649MOL0     H89508   6.458   8.715   7.963 -0.7453  1.0733 -1.1536
  649MOL0     H89509   6.497   8.537   7.720 -0.8053 -1.6058  1.3955
  649MOL0     H89510   6.575   8.699   7.757 -1.8958  0.4752 -0.2723
  649MOL0     H89511   6.655   8.320   7.785 -1.4957  2.4950 -2.8267
  649MOL0     H89512   6.915   8.231   7.881 -0.5371 -0.4161 -0.2261
  649MOL0     H89513   6.776   8.188   7.973  1.1539 -1.7712  2.3995
  649MOL0     H89514   6.878   8.302   8.180  2.7408 -1.7485  1.9909
  649MOL0     H89515   6.910   8.148   8.136 -3.8482  1.3574  1.3163
  649MOL0     H89516   7.093   8.208   8.006 -2.5767 -1.8905 -0.8877
  649MOL0     H89517   7.083   8.381   8.049  1.5887 -1.0899  2.0369
  649MOL0     H89518   7.256   8.259   8.153 -1.0437 -0.1359 -3.8583
  649MOL0     H89519   7.160   8.344   8.270  1.6326  0.3897  0.0928
  649MOL0     H89520   7.221   8.212   8.467  0.0964 -0.7210  1.8817
  649MOL0     H89521   7.524   8.205   8.599  0.4079  0.6246  1.7238
  649MOL0     H89522   7.440   8.105   8.718 -1.1665  1.8271 -0.1793
  649MOL0     H89523   7.360   8.235   8.635 -0.4380  0.5664  0.1806
  649MOL0     H89524   7.838   7.905   8.646 -0.4086 -0.3738  1.0925
  649MOL0     H89525   8.066   7.828   8.643 -0.7958  0.6757 -0.7019
  649MOL0     H89526   8.258   7.874   8.479 -3.1541  0.2408  1.9671
  649MOL0     H89527   8.313   7.760   8.601  0.7373 -0.3198 -0.5054
  649MOL0     H89528   8.419   7.700   8.339 -0.3970 -2.8786  1.1558
  649MOL0     H89529   8.499   7.829   8.430  0.0500 -0.5931 -1.5092
  649MOL0     H89530   8.412   7.570   8.557 -1.8611  2.1245 -0.6495
  649MOL0     H89531   8.531   7.673   8.617  2.9762  1.1170 -1.4731
  649MOL0     H89532   8.588   7.541   8.349 -0.0125 -0.6722  0.4917
  649MOL0     H89533   8.617   7.463   8.500 -2.5083  1.3614  0.8306
  649MOL0     H89534   8.727   7.742   8.439  1.3517 -0.3629 -0.0254
  649MOL0     H89535   8.766   7.643   8.576 -2.7570 -1.9374  0.2893
  649MOL0     H89536   8.815   7.573   8.281  0.0014 -0.0223  0.8833
  649MOL0     H89537   8.859   7.463   8.416  1.3106  0.1634  0.1867
  649MOL0     H89538   8.985   7.713   8.292  1.0828  0.9775  0.8447
  649MOL0     H89539   9.054   7.559   8.349  0.7835  0.2157 -0.5282
  649MOL0     H89540   9.037   7.646   8.577 -3.0869  2.2108  1.1814
  649MOL0     H89541   8.954   7.788   8.528 -1.2516 -0.8574  2.5769
  649MOL0     H89542   8.013   7.615   8.272 -0.9409 -1.9461  0.1062
  649MOL0     H89543   7.775   7.696   8.279  0.3008  3.3159 -1.1051
  649MOL0     H89544   7.463   7.818   8.297  1.1285 -0.4820 -0.7626
  649MOL0     H89545   7.263   7.913   8.177  0.7376  1.7097  1.5658
  649MOL0     H89546   5.877   8.627   7.885 -0.7853  1.5487  2.1699
  649MOL0     H89547   5.683   8.477   7.836 -2.0718 -0.5493 -1.4368
  649MOL0     H89548   5.294   8.405   7.709 -1.2070 -0.1728 -0.1758
  649MOL0     H89549   5.129   8.245   7.717  2.5592  1.6216  1.2898
  649MOL0     H89550   5.049   8.047   7.828  1.4087 -1.5820 -0.8329
  649MOL0     H89551   4.966   8.112   7.691 -0.9995 -0.5159  0.5927
  649MOL0     H89552   4.893   7.880   7.612 -1.0210 -0.5231 -0.1095
  649MOL0     H89553   4.810   7.945   7.757 -2.5713 -4.3363 -2.9689
  649MOL0     H89554   4.892   7.711   7.754 -1.3780  0.7957  0.9024
  649MOL0     H89555   5.064   7.765   7.759  0.1139  2.9356 -0.4670
  649MOL0     H89556   5.003   7.860   7.994 -1.0730  2.1730 -1.3045
  649MOL0     H89557   4.997   7.680   7.969  1.6784  0.2045 -1.3914
  649MOL0     H89558   4.604   7.755   8.064 -0.4268 -0.1275 -2.2720
  649MOL0     H89559   5.360   7.956   7.501 -0.1946 -0.2550 -0.5080
  649MOL0     H89560   5.668   8.147   7.511  0.1493 -0.8657  0.4464
  649MOL0     H89561   5.578   8.027   7.404  0.2345  0.4651 -1.2887
  649MOL0     H89562   5.573   8.199   7.366  0.9228  0.1116  0.3156
  650MOL0     O89563   7.120   4.346   3.207  0.1000 -0.2584 -0.2007
  650MOL0     C89564   7.011   4.395   3.231  0.2655  0.1686  0.3328
  650MOL0     O89565   6.942   4.367   3.346 -0.1695 -0.6037  0.2436
  650MOL0     C89566   7.026   4.322   3.449  0.6221 -0.0935 -0.2665
  650MOL0     C89567   7.100   4.199   3.446 -0.4923 -0.1992 -0.2819
  650MOL0     C89568   7.171   4.146   3.555  0.3504  0.2581 -0.5018
  650MOL0     C89569   7.171   4.203   3.682 -0.1074  0.0002  1.1413
  650MOL0     O89570   7.253   4.147   3.780 -0.1013  0.5187  0.1005
  650MOL0     C89571   7.290   4.232   3.892 -0.4690 -0.1423 -0.5007
  650MOL0     C89572   7.325   4.147   4.018  0.5392  0.9049 -0.6895
  650MOL0     C89573   7.397   4.231   4.126  0.2270  0.5761 -0.1703
  650MOL0     C89574   7.431   4.149   4.259 -0.8150 -0.2008  1.1645
  650MOL0     C89575   7.567   4.191   4.318  0.2934  0.9288  0.1360
  650MOL0     C89576   7.599   4.342   4.323 -0.6514  0.1445 -0.1626
  650MOL0     C89577   7.741   4.362   4.396  0.1826  0.9162  0.4729
  650MOL0     C89578   7.779   4.507   4.426 -0.6983 -0.0407 -0.3268
  650MOL0     N89579   7.774   4.583   4.302 -0.0620  0.5979 -0.3182
  650MOL0     C89580   7.885   4.592   4.223  0.9174 -0.7230  0.1985
  650MOL0     C89581   7.851   4.693   4.134 -0.0717  0.2610 -0.3784
  650MOL0     C89582   7.946   4.737   4.032  0.3056 -0.7649 -0.0167
  650MOL0     C89583   7.879   4.748   3.893  0.1920  0.0909  0.5585
  650MOL0     C89584   7.967   4.808   3.795 -1.0491  0.2541  0.7893
  650MOL0     C89585   7.997   4.959   3.798 -0.0021 -0.7306  0.3918
  650MOL0     O89586   7.876   5.036   3.774 -0.1982 -0.1910  0.1379
  650MOL0     C89587   7.903   5.168   3.772 -0.2343 -0.2855 -1.4490
  650MOL0     C89588   7.855   5.250   3.880 -1.3911  0.3237 -0.1925
  650MOL0     C89589   7.903   5.385   3.880 -0.3938  0.4017  0.2229
  650MOL0     C89590   7.877   5.469   4.006 -1.0225  0.0701 -0.3084
  650MOL0     C89591   7.973   5.440   3.769 -0.0414  0.8090  0.9789
  650MOL0     C89592   8.003   5.581   3.752 -0.3808 -0.3207  0.2644
  650MOL0     O89593   7.891   5.668   3.741 -0.6284 -0.1184 -0.2970
  650MOL0     C89594   7.900   5.799   3.751  0.0238 -0.7140 -0.8709
  650MOL0     C89595   7.993   5.861   3.835 -0.3916  0.0082  0.6036
  650MOL0     C89596   7.992   6.004   3.851 -0.1934 -0.6671 -0.6321
  650MOL0     C89597   7.915   6.084   3.779 -0.4878 -0.3829  0.2822
  650MOL0     O89598   7.911   6.226   3.782  0.0520 -0.3197  0.0991
  650MOL0     C89599   7.962   6.284   3.658  0.2431  0.3624 -0.3292
  650MOL0     C89600   8.080   6.364   3.697 -1.3044 -0.4974 -0.2467
  650MOL0     C89601   8.051   6.498   3.775  0.5502  0.9183 -0.1108
  650MOL0     C89602   8.181   6.577   3.796  0.6572 -0.6339  0.1220
  650MOL0     C89603   8.137   6.695   3.883 -0.2449  0.0459 -0.2084
  650MOL0     C89604   8.263   6.767   3.929  0.3666  0.6077 -0.0705
  650MOL0     C89605   8.232   6.859   4.048  0.3059  0.3792 -0.6826
  650MOL0     C89606   8.346   6.953   4.084  0.3157 -0.2992  0.3053
  650MOL0    Cl89607   8.351   7.087   3.963 -0.2283 -0.2955 -0.2514
  650MOL0     C89608   7.819   6.020   3.710 -0.1405 -0.7407  0.4142
  650MOL0     C89609   7.810   5.883   3.693  0.0786 -0.7590  0.8928
  650MOL0     O89610   8.124   5.608   3.748  0.6152 -0.1414  0.2538
  650MOL0     C89611   8.024   5.353   3.671 -0.3713 -0.1735 -0.0715
  650MOL0     C89612   7.984   5.223   3.672  0.6352  0.2702  0.0362
  650MOL0     N89613   7.720   4.724   4.144  0.4744 -0.1064 -0.5941
  650MOL0     N89614   7.677   4.669   4.258 -0.3497  0.0780 -0.0206
  650MOL0     C89615   7.089   4.317   3.693  0.2350  0.1377 -1.0207
  650MOL0     C89616   7.027   4.380   3.577  0.2021 -1.1644  0.3976
  650MOL0     C89617   6.945   4.478   3.129 -0.6939 -0.5445 -0.6437
  650MOL0     C89618   6.811   4.469   3.125 -0.1812 -0.4522 -0.0254
  650MOL0     C89619   6.735   4.551   3.038  0.2361 -0.6297  0.4631
  650MOL0     C89620   6.793   4.633   2.939 -0.6196 -0.0386  0.0210
  650MOL0     O89621   6.728   4.709   2.847 -0.1409 -0.2668  0.3099
  650MOL0     C89622   6.592   4.752   2.877 -0.3632 -1.1792 -0.8252
  650MOL0     C89623   6.561   4.883   2.802 -0.3613  0.0561 -0.9429
  650MOL0     C89624   6.440   4.962   2.838  0.4957 -0.1056 -0.1372
  650MOL0     C89625   6.316   4.887   2.779  0.1865  0.4504 -0.6821
  650MOL0     C89626   6.216   4.875   2.886 -0.4256 -1.0318  0.2907
  650MOL0     C89627   6.159   4.840   2.989 -0.1611  0.5984  0.3767
  650MOL0     C89628   6.935   4.641   2.947 -0.7226  0.2872 -0.2251
  650MOL0     C89629   7.016   4.563   3.043 -0.3666 -0.7223  0.6057
  650MOL0     C89630   7.166   4.569   3.038 -0.3426  0.4318 -0.5406
  650MOL0     H89631   7.101   4.151   3.349  1.8221 -1.3364  0.2276
  650MOL0     H89632   7.224   4.051   3.555  0.2646  0.1910  0.9728
  650MOL0     H89633   7.213   4.303   3.924  0.1347 -0.8319  2.8008
  650MOL0     H89634   7.382   4.286   3.871  0.2844 -0.9342  0.6354
  650MOL0     H89635   7.234   4.099   4.053  2.4693 -0.9297  2.2638
  650MOL0     H89636   7.394   4.066   3.995  0.5301 -0.5186  3.5026
  650MOL0     H89637   7.487   4.266   4.074  2.4849 -3.4759  0.5604
  650MOL0     H89638   7.330   4.317   4.138 -1.8112 -0.6300 -2.1751
  650MOL0     H89639   7.351   4.162   4.332  0.7425  0.8670  2.7398
  650MOL0     H89640   7.438   4.044   4.230 -0.7968 -0.1964  1.1534
  650MOL0     H89641   7.636   4.130   4.260 -0.3881 -0.4525  0.7004
  650MOL0     H89642   7.565   4.149   4.419 -1.5107  2.4669  0.8060
  650MOL0     H89643   7.601   4.383   4.222  2.6933 -0.5533 -0.5212
  650MOL0     H89644   7.524   4.387   4.389  1.2579 -0.1293  2.3919
  650MOL0     H89645   7.816   4.323   4.326 -1.8803  1.7824 -2.4176
  650MOL0     H89646   7.736   4.302   4.488 -4.0194 -1.8723 -1.2579
  650MOL0     H89647   7.727   4.560   4.506  2.7469  1.2881  1.2358
  650MOL0     H89648   7.884   4.514   4.456 -0.9372  1.5351  0.2577
  650MOL0     H89649   7.985   4.552   4.227  0.9820 -0.6141 -0.2454
  650MOL0     H89650   8.029   4.665   4.032  2.1161  1.2075 -1.3086
  650MOL0     H89651   7.982   4.834   4.068 -1.0286 -0.4765  0.6038
  650MOL0     H89652   7.847   4.649   3.859 -1.1440  1.2639 -1.8952
  650MOL0     H89653   7.784   4.800   3.904 -0.7899 -1.9320  2.6177
  650MOL0     H89654   8.054   4.744   3.781 -0.7755  0.8684 -0.4765
  650MOL0     H89655   7.922   4.800   3.696 -2.3270 -1.5778  1.4594
  650MOL0     H89656   8.046   4.991   3.891 -1.7879  2.3503  0.3768
  650MOL0     H89657   8.063   4.980   3.714 -0.9945 -1.6661 -0.6485
  650MOL0     H89658   7.803   5.217   3.969  0.4230 -0.6904  0.5297
  650MOL0     H89659   7.853   5.575   3.996  1.1548  0.7110  0.5985
  650MOL0     H89660   7.964   5.467   4.073 -0.9491  0.7662 -0.3807
  650MOL0     H89661   7.785   5.440   4.057 -0.2433 -1.4990  0.2867
  650MOL0     H89662   8.064   5.795   3.885 -0.3590  0.1497  0.7446
  650MOL0     H89663   8.077   6.034   3.912  0.2887 -2.0553 -0.5923
  650MOL0     H89664   7.984   6.202   3.589 -1.7402 -1.2999  0.8876
  650MOL0     H89665   7.892   6.345   3.601  0.5155  0.7214 -0.2798
  650MOL0     H89666   8.140   6.306   3.768 -0.4262 -0.6588 -1.1018
  650MOL0     H89667   8.136   6.388   3.606  0.1555  0.9712  0.9655
  650MOL0     H89668   7.997   6.471   3.866  0.3676  0.2191 -0.4240
  650MOL0     H89669   7.984   6.554   3.709  1.1561 -1.0592 -2.5498
  650MOL0     H89670   8.226   6.598   3.699  1.7027  0.5700  0.8424
  650MOL0     H89671   8.254   6.516   3.849  1.8335 -2.3221 -3.1493
  650MOL0     H89672   8.074   6.757   3.819 -0.3501  1.2325  0.9862
  650MOL0     H89673   8.071   6.669   3.967  0.4604 -0.3239  0.2459
  650MOL0     H89674   8.290   6.830   3.844  0.0413  2.3064  1.0359
  650MOL0     H89675   8.343   6.696   3.950 -2.5755 -3.1846 -0.5795
  650MOL0     H89676   8.212   6.803   4.140  0.3491  0.0277 -0.8865
  650MOL0     H89677   8.148   6.926   4.028  0.2254  0.3993 -0.2791
  650MOL0     H89678   8.445   6.907   4.092 -0.3899 -1.6055  2.9356
  650MOL0     H89679   8.319   6.993   4.182 -3.2125  2.2164 -1.4572
  650MOL0     H89680   7.740   6.076   3.661 -1.0503 -1.0479  1.4852
  650MOL0     H89681   7.732   5.844   3.627  1.0404 -2.2345  0.5849
  650MOL0     H89682   8.088   5.397   3.596 -2.8120  1.2835 -1.4286
  650MOL0     H89683   8.024   5.161   3.592  0.8859  2.4254 -1.6231
  650MOL0     H89684   7.069   4.378   3.780  1.2679  0.6728 -1.1461
  650MOL0     H89685   6.968   4.471   3.580  0.7372 -0.7081 -1.3335
  650MOL0     H89686   6.752   4.436   3.211 -1.2791 -1.0300 -0.9729
  650MOL0     H89687   6.630   4.550   3.067  0.1685  1.5688  0.4996
  650MOL0     H89688   6.526   4.668   2.854  0.1900 -1.3974 -1.6625
  650MOL0     H89689   6.594   4.774   2.984  0.7083 -1.0002 -0.8695
  650MOL0     H89690   6.562   4.861   2.695  0.5288 -0.2090 -0.8935
  650MOL0     H89691   6.648   4.949   2.817  0.1388 -1.2190  2.7906
  650MOL0     H89692   6.443   4.978   2.946 -1.4034  4.9050 -0.5725
  650MOL0     H89693   6.437   5.063   2.797 -2.8651  0.1001  0.3334
  650MOL0     H89694   6.355   4.792   2.741  2.1841  1.2348 -0.7139
  650MOL0     H89695   6.269   4.949   2.703 -1.2252  1.6179  1.0551
  650MOL0     H89696   6.120   4.802   3.081  0.4811  0.3330  0.5501
  650MOL0     H89697   6.997   4.708   2.889 -0.2948 -1.8381 -2.3746
  650MOL0     H89698   7.204   4.615   2.946  0.3440  1.0230  0.0278
  650MOL0     H89699   7.219   4.610   3.125  1.8300  0.3267 -1.7263
  650MOL0     H89700   7.201   4.467   3.016 -0.6004 -0.3104  2.1383
  651MOL0     O89701   7.978   4.063   5.645 -0.8593  0.7544 -0.5879
  651MOL0     C89702   7.888   4.126   5.710  0.2016  0.2444  0.4386
  651MOL0     O89703   7.907   4.225   5.803 -0.4080  0.0252  0.0023
  651MOL0     C89704   8.034   4.260   5.818 -1.2252 -0.2358  0.0815
  651MOL0     C89705   8.081   4.287   5.945 -0.1877 -0.3160  0.0528
  651MOL0     C89706   8.213   4.346   5.970 -0.4367 -0.9265  0.6332
  651MOL0     C89707   8.294   4.390   5.863  0.3877 -0.0881  0.7643
  651MOL0     O89708   8.410   4.447   5.886 -0.2704 -0.4684  0.5854
  651MOL0     C89709   8.499   4.453   5.776  0.1826 -0.1140 -0.0162
  651MOL0     C89710   8.636   4.481   5.830 -0.3484  0.1087  0.3121
  651MOL0     C89711   8.695   4.368   5.916  0.1029  0.3408  0.2165
  651MOL0     C89712   8.816   4.409   6.016  0.6141  1.0383 -0.6304
  651MOL0     C89713   8.861   4.281   6.101  0.0719 -0.1305  0.3172
  651MOL0     C89714   8.940   4.338   6.221 -0.1266  0.6976 -0.7059
  651MOL0     C89715   9.013   4.218   6.284 -0.1009 -0.9086 -0.4497
  651MOL0     C89716   9.093   4.241   6.418 -0.1297 -0.9251  0.1493
  651MOL0     N89717   9.178   4.358   6.402  0.3627  0.3573  0.3299
  651MOL0     C89718   9.289   4.358   6.323 -0.4816 -0.2139 -0.0310
  651MOL0     C89719   9.324   4.487   6.313 -0.4461 -0.1710  0.3247
  651MOL0     C89720   9.428   4.538   6.222 -0.2110 -1.1506  0.4260
  651MOL0     C89721   9.580   4.543   6.276  0.7109 -0.2395 -0.4705
  651MOL0     C89722   9.680   4.600   6.179  0.1075 -0.3723  0.4558
  651MOL0     C89723   9.818   4.595   6.231  0.5925  0.2601 -0.1171
  651MOL0     O89724   9.894   4.671   6.135  0.2604 -0.3602 -0.2449
  651MOL0     C89725  10.029   4.655   6.155  0.4795  0.4766 -0.4495
  651MOL0     C89726  10.111   4.607   6.052  0.4452  0.7003  0.4421
  651MOL0     C89727  10.248   4.587   6.068 -0.2363 -0.0449 -0.6005
  651MOL0     C89728  10.337   4.562   5.945  0.6508 -0.2046 -0.1128
  651MOL0     C89729  10.305   4.601   6.196 -0.1051 -0.0367 -0.0937
  651MOL0     C89730  10.448   4.575   6.237 -0.1403 -0.8348  0.1554
  651MOL0     O89731  10.489   4.652   6.347  0.2952  0.3824  0.9181
  651MOL0     C89732  10.620   4.634   6.395  1.2490 -0.3646 -0.0320
  651MOL0     C89733  10.732   4.664   6.323 -0.5034  1.1765  1.2187
  651MOL0     C89734  10.865   4.643   6.375  0.5578 -0.2459 -0.2159
  651MOL0     C89735  10.872   4.583   6.502  0.3400 -0.1637 -0.3531
  651MOL0     O89736  10.994   4.557   6.558 -0.5298  0.0168  0.2027
  651MOL0     C89737  11.067   4.434   6.533  0.1072  0.4368 -0.5858
  651MOL0     C89738  11.163   4.444   6.417 -0.1499  0.2011  1.1463
  651MOL0     C89739  11.290   4.530   6.429  0.1934 -0.3827 -0.7985
  651MOL0     C89740  11.395   4.502   6.535 -0.4240  0.0494 -0.3396
  651MOL0     C89741  11.500   4.602   6.538 -0.3615 -0.2881  0.5437
  651MOL0     C89742  11.565   4.632   6.405 -0.4136 -0.0825 -0.2000
  651MOL0     C89743  11.681   4.731   6.423  0.1371 -0.1064  0.2898
  651MOL0     C89744  11.764   4.739   6.298  0.5844 -0.2757  0.1116
  651MOL0    Cl89745  11.662   4.794   6.163 -0.0293  0.3394 -0.3010
  651MOL0     C89746  10.761   4.564   6.585  0.6507 -0.0796 -0.1822
  651MOL0     C89747  10.631   4.584   6.530  0.2444 -0.0165  0.4452
  651MOL0     O89748  10.514   4.481   6.183  0.8574 -0.3184  0.1223
  651MOL0     C89749  10.222   4.654   6.292 -0.8903 -1.1759  0.4329
  651MOL0     C89750  10.088   4.676   6.278 -0.5838  0.4661 -0.1300
  651MOL0     N89751   9.245   4.563   6.393  0.1645  0.0070 -0.6636
  651MOL0     N89752   9.159   4.480   6.450  0.2876 -0.4056  0.0548
  651MOL0     C89753   8.243   4.362   5.730  0.3179 -0.4858  0.0812
  651MOL0     C89754   8.121   4.300   5.708  0.3877 -0.1022  0.1078
  651MOL0     C89755   7.741   4.098   5.677 -0.0348  0.0968 -0.6849
  651MOL0     C89756   7.635   4.173   5.731 -0.0249 -0.2876 -0.1830
  651MOL0     C89757   7.500   4.165   5.688 -0.2960  1.1464  0.7342
  651MOL0     C89758   7.457   4.064   5.601 -0.2299 -0.9459  0.2691
  651MOL0     O89759   7.322   4.031   5.584 -0.2709 -0.6352  0.2997
  651MOL0     C89760   7.215   4.102   5.658  0.0442  1.0308  0.4937
  651MOL0     C89761   7.085   4.067   5.599 -0.1178 -0.3373 -0.2154
  651MOL0     C89762   6.976   4.112   5.682 -0.2463 -0.1881 -0.0916
  651MOL0     C89763   6.842   4.066   5.628  0.1243 -0.2426  0.0712
  651MOL0     C89764   6.832   3.924   5.635 -1.0163 -0.0872  0.0954
  651MOL0     C89765   6.831   3.808   5.660 -0.0129  0.1076 -0.0384
  651MOL0     C89766   7.554   3.975   5.559 -0.0479  0.6016  0.2639
  651MOL0     C89767   7.693   3.997   5.586  0.7079  0.2318 -1.0669
  651MOL0     C89768   7.790   3.893   5.535  0.3308 -0.2119 -0.1873
  651MOL0     H89769   8.019   4.268   6.032  0.1970  4.3464  1.6603
  651MOL0     H89770   8.248   4.356   6.073  1.1619 -0.3866  0.0699
  651MOL0     H89771   8.462   4.531   5.709  0.8622 -0.9025 -1.3457
  651MOL0     H89772   8.516   4.361   5.719  2.9939  1.3158 -1.7257
  651MOL0     H89773   8.704   4.502   5.747 -0.5803 -1.2178 -0.2317
  651MOL0     H89774   8.639   4.571   5.893 -0.1675  0.2397  0.1128
  651MOL0     H89775   8.612   4.325   5.972  1.2843 -2.1490  0.1852
  651MOL0     H89776   8.723   4.283   5.853  1.1535 -0.1188  1.2605
  651MOL0     H89777   8.904   4.429   5.953 -0.1561 -1.7982 -2.8126
  651MOL0     H89778   8.793   4.497   6.077  0.9952 -1.2194  3.0169
  651MOL0     H89779   8.921   4.214   6.038 -1.5334 -0.3610 -1.0548
  651MOL0     H89780   8.771   4.227   6.132 -1.0881  1.6232  0.1299
  651MOL0     H89781   9.011   4.413   6.185  0.1807  0.5708 -0.3667
  651MOL0     H89782   8.881   4.378   6.304  1.3515  1.3001  0.1061
  651MOL0     H89783   9.083   4.181   6.209 -0.5574  0.4551 -1.6054
  651MOL0     H89784   8.946   4.136   6.312  0.1810 -1.0928 -0.3188
  651MOL0     H89785   9.029   4.262   6.504  2.1553  0.6953  1.5770
  651MOL0     H89786   9.157   4.154   6.433 -1.0936 -1.5734  0.5638
  651MOL0     H89787   9.333   4.283   6.258  2.8008  2.6681 -1.5123
  651MOL0     H89788   9.394   4.638   6.193 -0.8568 -1.4662  0.0602
  651MOL0     H89789   9.422   4.482   6.129  2.9786  0.6793 -1.0348
  651MOL0     H89790   9.566   4.602   6.367 -0.7630  0.0851 -0.8828
  651MOL0     H89791   9.598   4.441   6.312 -1.5384 -0.5579 -0.0840
  651MOL0     H89792   9.668   4.562   6.078 -4.8075  1.2589  0.1153
  651MOL0     H89793   9.657   4.707   6.165 -1.1030 -0.4817  1.4247
  651MOL0     H89794   9.835   4.630   6.334  2.6189  0.0596 -0.3460
  651MOL0     H89795   9.844   4.489   6.234  0.6300  0.2265  3.4689
  651MOL0     H89796  10.082   4.580   5.951  3.9296  1.5289 -0.9260
  651MOL0     H89797  10.373   4.656   5.901  0.7374 -0.9713 -1.7771
  651MOL0     H89798  10.276   4.510   5.870 -2.5365  0.6794  1.6685
  651MOL0     H89799  10.426   4.506   5.973  0.5482  0.3350  1.3952
  651MOL0     H89800  10.731   4.709   6.224  0.5023 -2.8942 -0.8438
  651MOL0     H89801  10.950   4.664   6.310  1.0757  0.0922  0.5586
  651MOL0     H89802  11.124   4.419   6.625  3.1345 -0.9755 -2.5541
  651MOL0     H89803  11.002   4.347   6.520 -0.2251  0.6319 -0.2619
  651MOL0     H89804  11.201   4.346   6.386  0.1745  0.3128  1.1872
  651MOL0     H89805  11.108   4.483   6.331  1.8408  2.7506  0.9172
  651MOL0     H89806  11.249   4.626   6.463 -0.8332 -0.8219 -0.7459
  651MOL0     H89807  11.335   4.554   6.333 -0.3765 -0.9628 -1.2185
  651MOL0     H89808  11.429   4.400   6.514 -1.1771 -0.9282  2.6325
  651MOL0     H89809  11.354   4.485   6.635 -3.5693  0.2868 -1.4634
  651MOL0     H89810  11.468   4.700   6.575 -1.6671 -0.5998  0.2855
  651MOL0     H89811  11.567   4.561   6.614  0.5391 -0.8322 -0.5137
  651MOL0     H89812  11.496   4.677   6.333  0.7346  1.4837 -0.3580
  651MOL0     H89813  11.600   4.536   6.364  0.2341 -0.2352  0.6900
  651MOL0     H89814  11.744   4.686   6.501  0.6531  0.1500  0.0282
  651MOL0     H89815  11.652   4.832   6.455  1.7978  0.4164  0.2450
  651MOL0     H89816  11.798   4.638   6.272  1.5789  0.0183  0.2183
  651MOL0     H89817  11.842   4.814   6.315  0.6871 -0.3828  0.1110
  651MOL0     H89818  10.776   4.547   6.691 -0.2127  1.4637  0.2233
  651MOL0     H89819  10.543   4.575   6.593  0.4036  1.7045  0.9600
  651MOL0     H89820  10.246   4.651   6.398 -3.1384 -3.0761  0.9543
  651MOL0     H89821  10.029   4.707   6.364 -1.9330 -2.0046 -0.0840
  651MOL0     H89822   8.311   4.376   5.647 -2.4870 -3.9330 -3.1457
  651MOL0     H89823   8.091   4.294   5.604  1.5095 -0.9293 -0.1893
  651MOL0     H89824   7.651   4.252   5.804 -1.9485 -1.1034  1.2291
  651MOL0     H89825   7.439   4.235   5.743 -3.5847  0.3708 -1.6157
  651MOL0     H89826   7.206   4.061   5.759 -3.1034 -0.9492 -0.4637
  651MOL0     H89827   7.219   4.212   5.653  0.2882  1.0254  0.5545
  651MOL0     H89828   7.076   3.960   5.581  0.3243 -0.1939 -1.4067
  651MOL0     H89829   7.075   4.104   5.496  0.6098 -0.6736 -0.4143
  651MOL0     H89830   6.989   4.065   5.780 -0.2434  0.0533  0.0227
  651MOL0     H89831   6.983   4.220   5.696  1.0873 -0.1306 -0.9960
  651MOL0     H89832   6.829   4.099   5.524 -0.4551 -1.0821 -0.1359
  651MOL0     H89833   6.764   4.120   5.682 -1.0860  1.5774 -3.2145
  651MOL0     H89834   6.819   3.707   5.693 -0.2102 -0.5590 -2.0172
  651MOL0     H89835   7.526   3.885   5.506  0.5705 -1.3480  2.9937
  651MOL0     H89836   7.737   3.823   5.469  0.5990 -1.3868  0.8133
  651MOL0     H89837   7.871   3.936   5.475  0.1048 -1.9040 -1.8175
  651MOL0     H89838   7.835   3.837   5.617  1.1983  2.0934  1.0062
  652MOL0     O89839   5.479   5.701   8.955 -0.2799  0.2100 -0.5190
  652MOL0     C89840   5.579   5.647   8.908 -0.0045  0.5451  0.5057
  652MOL0     O89841   5.569   5.529   8.839  0.0938 -0.0309  0.1262
  652MOL0     C89842   5.442   5.483   8.815 -0.3876 -0.5529 -0.8428
  652MOL0     C89843   5.365   5.433   8.922 -0.4704 -0.5789  0.5299
  652MOL0     C89844   5.245   5.380   8.892  0.7389  0.0589  0.3603
  652MOL0     C89845   5.200   5.355   8.765 -0.2443  0.3825 -0.8885
  652MOL0     O89846   5.087   5.278   8.733 -0.2801  0.1212  0.5636
  652MOL0     C89847   5.078   5.156   8.809 -0.1099  0.3941  0.3017
  652MOL0     C89848   4.931   5.132   8.828 -0.9239 -0.4313  0.3522
  652MOL0     C89849   4.901   5.024   8.931 -0.0697  0.8163 -0.7482
  652MOL0     C89850   4.937   4.878   8.894  0.3784  0.6565 -0.1493
  652MOL0     C89851   4.893   4.773   8.997 -0.1535  0.2351  0.4483
  652MOL0     C89852   4.739   4.752   9.014  0.4455  0.6460 -0.3559
  652MOL0     C89853   4.716   4.665   9.142 -0.7405  0.2241 -0.1529
  652MOL0     C89854   4.583   4.589   9.134 -0.0968 -1.0551  0.0215
  652MOL0     N89855   4.560   4.527   9.259  0.2969 -0.0515 -0.1933
  652MOL0     C89856   4.505   4.595   9.365 -0.1981  0.3426 -0.3488
  652MOL0     C89857   4.530   4.503   9.471  0.3588 -0.0787 -0.2147
  652MOL0     C89858   4.481   4.531   9.614 -0.2048 -0.5216  0.0130
  652MOL0     C89859   4.581   4.484   9.716  0.2519  0.4405 -0.0442
  652MOL0     C89860   4.557   4.341   9.764  0.0346  0.6151  0.0225
  652MOL0     C89861   4.689   4.303   9.839 -0.4133  0.0116 -0.1106
  652MOL0     O89862   4.742   4.421   9.910 -0.3193  0.3766 -1.0679
  652MOL0     C89863   4.854   4.398   9.989  0.1825 -0.2685  0.0137
  652MOL0     C89864   4.899   4.507  10.063  0.2911  0.7704  0.1813
  652MOL0     C89865   5.022   4.501  10.128  0.6325  0.5263  0.8102
  652MOL0     C89866   5.079   4.624  10.190  0.0262 -0.7047  0.0071
  652MOL0     C89867   5.097   4.380  10.128 -0.7076 -0.2720 -0.1891
  652MOL0     C89868   5.230   4.365  10.193 -1.3625  0.2067  0.2955
  652MOL0     O89869   5.331   4.295  10.123 -0.3065  0.6692 -0.8311
  652MOL0     C89870   5.447   4.310  10.188  1.0593  0.1646 -0.1560
  652MOL0     C89871   5.477   4.221  10.291  0.4914  0.8682 -0.3759
  652MOL0     C89872   5.597   4.231  10.357 -0.2846 -0.7906 -0.6455
  652MOL0     C89873   5.700   4.315  10.310 -0.8988 -0.3198 -0.2031
  652MOL0     O89874   5.827   4.330  10.361 -0.1196  0.7898 -0.4460
  652MOL0     C89875   5.876   4.217  10.440  0.7084 -0.7533  0.5197
  652MOL0     C89876   6.019   4.253  10.482  0.6101  0.3637 -0.1845
  652MOL0     C89877   6.119   4.262  10.374  0.1273  0.1344 -0.7657
  652MOL0     C89878   6.252   4.307  10.429 -0.7776 -0.1022  0.0177
  652MOL0     C89879   6.357   4.331  10.316 -0.0874 -0.7799  0.1889
  652MOL0     C89880   6.489   4.400  10.364 -0.3862  0.3152 -0.0313
  652MOL0     C89881   6.582   4.423  10.249 -0.4804  0.5396  1.0223
  652MOL0     C89882   6.697   4.513  10.297 -0.9579 -0.7777 -0.1041
  652MOL0    Cl89883   6.840   4.510  10.190 -0.2533 -0.1240  0.0771
  652MOL0     C89884   5.665   4.410  10.219  0.1417 -0.5019 -0.1007
  652MOL0     C89885   5.542   4.413  10.152  0.4450 -0.1469 -0.1067
  652MOL0     O89886   5.245   4.407  10.305  0.1961 -0.4529 -0.3949
  652MOL0     C89887   5.051   4.268  10.054  0.4948 -0.1229 -0.2871
  652MOL0     C89888   4.935   4.283   9.977 -0.3142 -0.2187 -0.8471
  652MOL0     N89889   4.576   4.382   9.415 -0.4388  0.7762  0.4941
  652MOL0     N89890   4.589   4.399   9.291 -0.0495  0.5034  0.6568
  652MOL0     C89891   5.276   5.390   8.655 -0.3606 -0.0900 -0.0611
  652MOL0     C89892   5.396   5.458   8.683  0.2424  0.1049  0.4670
  652MOL0     C89893   5.712   5.704   8.926  0.0972 -0.1218 -0.0376
  652MOL0     C89894   5.806   5.694   8.817  1.0750  0.9880  0.3649
  652MOL0     C89895   5.936   5.734   8.833  0.1549 -0.0701 -0.8998
  652MOL0     C89896   5.978   5.776   8.950 -0.7286 -0.1980 -0.2251
  652MOL0     O89897   6.106   5.815   8.954  0.6122 -0.4097  1.6092
  652MOL0     C89898   6.175   5.811   9.074  0.9967 -0.1256 -0.1710
  652MOL0     C89899   6.202   5.952   9.129 -0.2887 -0.1661  0.5013
  652MOL0     C89900   6.289   5.972   9.253 -0.2038  0.1971 -0.7004
  652MOL0     C89901   6.226   5.914   9.382  0.1289 -0.4660 -0.3264
  652MOL0     C89902   6.083   5.943   9.401 -0.4894 -0.0368  0.7776
  652MOL0     C89903   5.964   5.958   9.409  0.7763  0.3640 -0.6360
  652MOL0     C89904   5.890   5.784   9.059 -0.8036  0.2084 -0.0638
  652MOL0     C89905   5.755   5.758   9.052 -0.3892 -0.9748 -0.0867
  652MOL0     C89906   5.658   5.790   9.166  0.4581  0.0421 -0.2913
  652MOL0     H89907   5.416   5.447   9.017  1.5669 -0.1177 -0.5772
  652MOL0     H89908   5.185   5.339   8.973  1.3496 -1.2342  0.1982
  652MOL0     H89909   5.134   5.156   8.903  1.5486  3.1445 -0.5454
  652MOL0     H89910   5.118   5.076   8.746 -0.6579  1.7007 -1.8506
  652MOL0     H89911   4.889   5.228   8.860  2.1806  1.0322  0.3365
  652MOL0     H89912   4.885   5.106   8.732  2.1262 -0.4435 -1.2116
  652MOL0     H89913   4.966   5.052   9.014  2.2732  0.5925 -2.4096
  652MOL0     H89914   4.796   5.034   8.961  0.0067 -1.6800  0.6181
  652MOL0     H89915   4.881   4.868   8.801 -2.2549  1.1376  1.2569
  652MOL0     H89916   5.042   4.860   8.870  0.2065  0.6091 -0.8657
  652MOL0     H89917   4.940   4.802   9.092  0.2335 -1.0969  0.6920
  652MOL0     H89918   4.931   4.675   8.965  1.7518  1.2110 -0.4391
  652MOL0     H89919   4.689   4.849   9.014 -0.7759  0.0305 -1.1449
  652MOL0     H89920   4.707   4.690   8.930  0.4362 -2.7487  1.9139
  652MOL0     H89921   4.705   4.738   9.222  0.6024  0.9200 -0.5815
  652MOL0     H89922   4.801   4.596   9.149  1.1920  2.6121  1.6047
  652MOL0     H89923   4.502   4.660   9.117 -0.1959 -1.4539 -1.2863
  652MOL0     H89924   4.582   4.514   9.054  0.3839  0.6894 -1.6956
  652MOL0     H89925   4.474   4.699   9.369 -2.6552 -0.3594  1.2046
  652MOL0     H89926   4.392   4.470   9.627 -0.3698 -0.4249 -0.6130
  652MOL0     H89927   4.464   4.639   9.620  0.5471 -0.2805 -1.5727
  652MOL0     H89928   4.682   4.489   9.673 -0.7509  1.8592 -2.4612
  652MOL0     H89929   4.580   4.553   9.800  2.8620  1.2481 -0.5772
  652MOL0     H89930   4.462   4.321   9.813  1.7386 -3.3530  2.2011
  652MOL0     H89931   4.551   4.279   9.674 -0.2049 -0.7346  0.9371
  652MOL0     H89932   4.688   4.225   9.915  0.0629  0.7031  0.6317
  652MOL0     H89933   4.758   4.273   9.759 -1.8448  2.2235 -2.3170
  652MOL0     H89934   4.846   4.601  10.056  0.5968  0.9574  0.3683
  652MOL0     H89935   5.022   4.713  10.163 -1.1907 -0.2057  3.6711
  652MOL0     H89936   5.177   4.641  10.145 -0.2211  0.9397  0.0234
  652MOL0     H89937   5.099   4.626  10.298  1.6190 -0.9570 -0.2562
  652MOL0     H89938   5.403   4.148  10.325 -1.6360  1.7667 -2.7960
  652MOL0     H89939   5.608   4.168  10.445  0.1230  0.3095  0.1056
  652MOL0     H89940   5.812   4.194  10.526 -1.5395  3.7347  0.3492
  652MOL0     H89941   5.884   4.127  10.379 -2.2314 -0.2072 -0.8064
  652MOL0     H89942   6.016   4.351  10.531  0.8832 -0.3901  1.4407
  652MOL0     H89943   6.057   4.192  10.565 -0.5283  2.4242  1.9922
  652MOL0     H89944   6.086   4.344  10.309 -2.8377 -0.5141 -0.2004
  652MOL0     H89945   6.129   4.170  10.315 -0.9231 -2.0680  2.2707
  652MOL0     H89946   6.286   4.223  10.491 -1.5249 -0.0245  0.5461
  652MOL0     H89947   6.242   4.400  10.485 -0.1910  1.1997 -1.9200
  652MOL0     H89948   6.376   4.245  10.252 -0.6200 -0.8694  0.1502
  652MOL0     H89949   6.312   4.407  10.252 -0.3060 -0.9197  0.1773
  652MOL0     H89950   6.537   4.324  10.426 -0.8238 -0.4814 -0.6485
  652MOL0     H89951   6.464   4.489  10.423 -1.7264 -0.2634  0.2968
  652MOL0     H89952   6.533   4.482  10.171  1.8274 -1.3546 -2.1023
  652MOL0     H89953   6.613   4.327  10.207 -0.4440  0.9814 -0.0089
  652MOL0     H89954   6.738   4.464  10.386  0.9293 -2.7875 -1.9557
  652MOL0     H89955   6.650   4.612  10.310 -1.9611 -1.3748  1.0573
  652MOL0     H89956   5.731   4.493  10.196 -2.0849  0.9970 -1.4628
  652MOL0     H89957   5.503   4.490  10.087  1.3132 -0.5560 -1.1530
  652MOL0     H89958   5.108   4.176  10.065  0.5981 -0.0460 -0.1887
  652MOL0     H89959   4.915   4.191   9.925 -1.4102  0.7412 -2.1955
  652MOL0     H89960   5.255   5.373   8.550  1.3789  1.4334 -0.7169
  652MOL0     H89961   5.474   5.473   8.609 -2.0792  0.4832 -2.0828
  652MOL0     H89962   5.769   5.655   8.723 -1.1138 -1.4529  2.1137
  652MOL0     H89963   5.995   5.729   8.743  0.5734 -2.3292 -0.5756
  652MOL0     H89964   6.122   5.756   9.153  0.2495  0.2838 -0.3800
  652MOL0     H89965   6.271   5.760   9.063  1.7388  1.4191 -1.1431
  652MOL0     H89966   6.112   6.014   9.137  0.8082  1.6097 -0.4307
  652MOL0     H89967   6.258   6.004   9.051  0.6003 -1.3456  0.3352
  652MOL0     H89968   6.380   5.912   9.239  0.0087 -0.4563  2.5924
  652MOL0     H89969   6.319   6.077   9.261 -0.1293  0.4541 -3.2684
  652MOL0     H89970   6.285   5.953   9.466 -0.5474 -0.2126  0.0379
  652MOL0     H89971   6.242   5.806   9.380 -1.4361 -1.1081  5.0294
  652MOL0     H89972   5.862   5.982   9.433  0.4884  0.0976 -1.5299
  652MOL0     H89973   5.923   5.822   9.155  0.6662  3.2296 -1.5924
  652MOL0     H89974   5.574   5.849   9.130 -0.8974  0.7774  3.5971
  652MOL0     H89975   5.630   5.694   9.212 -0.1746  0.0805 -0.5869
  652MOL0     H89976   5.691   5.856   9.247 -2.6163 -1.5635  2.4871
  653MOL0     O89977   7.551   9.601  10.794  0.1822  0.3319  0.4126
  653MOL0     C89978   7.504   9.698  10.851  0.2013 -1.2178 -0.4462
  653MOL0     O89979   7.575   9.816  10.879 -0.3086  0.1039 -0.0805
  653MOL0     C89980   7.711   9.814  10.836  1.3300  0.5155  0.5720
  653MOL0     C89981   7.804   9.790  10.923 -0.3612  0.3197 -0.3858
  653MOL0     C89982   7.940   9.777  10.889  0.3066  0.0232 -0.0213
  653MOL0     C89983   7.976   9.797  10.756  0.1175  0.2476  0.0023
  653MOL0     O89984   8.107   9.793  10.732  0.0631 -0.4080  0.4099
  653MOL0     C89985   8.155   9.796  10.591  0.8241 -0.6793 -0.1426
  653MOL0     C89986   8.296   9.740  10.584 -0.3834 -0.3190 -0.2842
  653MOL0     C89987   8.400   9.839  10.630 -0.6029  0.3257 -0.5332
  653MOL0     C89988   8.546   9.777  10.638 -1.1396  0.5158 -0.6154
  653MOL0     C89989   8.612   9.750  10.507 -0.2695  0.4194  0.7940
  653MOL0     C89990   8.752   9.688  10.506 -0.7411  0.0900 -0.0805
  653MOL0     C89991   8.866   9.792  10.531  0.2580 -0.2363  0.7084
  653MOL0     C89992   8.874   9.901  10.419 -1.1474  0.2642 -0.4474
  653MOL0     N89993   8.872   9.844  10.281  0.0947  0.1510  0.4979
  653MOL0     C89994   8.977   9.769  10.225 -0.5869  0.1717 -0.5063
  653MOL0     C89995   8.946   9.745  10.093 -0.3192  0.1560 -0.3203
  653MOL0     C89996   9.039   9.679   9.988 -0.6150  0.3957  0.3911
  653MOL0     C89997   9.139   9.779   9.928  0.3296  1.0830 -0.4640
  653MOL0     C89998   9.084   9.872   9.818 -0.0198 -0.5084 -0.3782
  653MOL0     C89999   9.190   9.953   9.746  0.2971  0.0348  0.4707
  653MOL0     O90000   9.278  10.031   9.827  0.2705 -0.0365  0.2686
  653MOL0     C90001   9.373  10.112   9.765 -0.4510  1.3946 -0.3929
  653MOL0     C90002   9.476  10.150   9.846  0.2773  0.1664  0.1178
  653MOL0     C90003   9.587  10.225   9.801  0.1592  0.1168  0.0622
  653MOL0     C90004   9.682  10.259   9.908 -0.8039 -0.5876  0.6930
  653MOL0     C90005   9.589  10.276   9.667 -0.1065  0.6575 -0.6181
  653MOL0     C90006   9.704  10.366   9.617 -0.3125  0.3251  0.7347
  653MOL0     O90007   9.800  10.412   9.698 -0.1949 -0.4416  0.6703
  653MOL0     C90008   9.910  10.486   9.654  0.1727 -0.1803 -0.0012
  653MOL0     C90009   9.962  10.572   9.744  0.8590 -1.0175  0.1136
  653MOL0     C90010  10.074  10.648   9.714  0.8476 -0.7172 -0.6188
  653MOL0     C90011  10.136  10.642   9.589 -0.2346  0.5346  0.2885
  653MOL0     O90012  10.243  10.711   9.546 -0.4439  0.7076  0.1141
  653MOL0     C90013  10.279  10.833   9.615  0.2686  0.0455 -0.1577
  653MOL0     C90014  10.331  10.929   9.513  0.7078  0.7376  0.4692
  653MOL0     C90015  10.397  11.043   9.598 -0.1112 -0.7475  0.0033
  653MOL0     C90016  10.445  11.162   9.516 -0.7359 -0.8815  0.1981
  653MOL0     C90017  10.600  11.176   9.488  0.0584 -0.6868 -0.2314
  653MOL0     C90018  10.628  11.115   9.350 -0.0383  0.1451 -0.8426
  653MOL0     C90019  10.764  11.152   9.299 -0.2332  0.7352  0.3146
  653MOL0     C90020  10.795  11.078   9.170  0.5389 -1.1345  0.3734
  653MOL0    Cl90021  10.695  11.149   9.036 -0.2096 -0.3480 -0.2057
  653MOL0     C90022  10.077  10.546   9.495  0.5378 -0.5995 -0.3511
  653MOL0     C90023   9.965  10.469   9.526 -1.0086  0.1181 -0.4189
  653MOL0     O90024   9.678  10.411   9.508  0.1939  0.8707 -0.2534
  653MOL0     C90025   9.483  10.229   9.584 -0.4142 -0.5147  0.0750
  653MOL0     C90026   9.369  10.156   9.631  0.9608  0.0829  0.4508
  653MOL0     N90027   8.813   9.781  10.069 -0.5244  1.0903  0.5041
  653MOL0     N90028   8.767   9.838  10.183 -0.4938 -0.4498 -1.0234
  653MOL0     C90029   7.882   9.846  10.668 -0.0615 -0.5132 -0.3171
  653MOL0     C90030   7.750   9.853  10.706  0.2985  0.6021  0.4537
  653MOL0     C90031   7.363   9.694  10.878  0.3047 -0.2532 -0.5534
  653MOL0     C90032   7.298   9.821  10.897  0.3879  0.3904 -0.1724
  653MOL0     C90033   7.155   9.818  10.918 -0.1692  0.4229  0.8059
  653MOL0     C90034   7.077   9.705  10.910  0.4980  0.5705 -0.1453
  653MOL0     O90035   6.941   9.722  10.935  0.0009  0.3072 -0.9016
  653MOL0     C90036   6.847   9.612  10.939  0.1157 -0.5061  0.3574
  653MOL0     C90037   6.711   9.656  10.985 -0.4523  0.5586 -0.0620
  653MOL0     C90038   6.723   9.728  11.127  0.4159 -0.5457 -0.4049
  653MOL0     C90039   6.596   9.706  11.210 -0.6320 -0.1327 -0.3143
  653MOL0     C90040   6.617   9.756  11.352 -0.6170  0.7180  0.7336
  653MOL0     C90041   6.624   9.790  11.470 -0.2485 -0.8546  0.0319
  653MOL0     C90042   7.147   9.589  10.883 -0.4034 -0.4714 -0.1832
  653MOL0     C90043   7.283   9.573  10.867  0.0193  0.5690  0.3703
  653MOL0     C90044   7.342   9.430  10.851  0.3826 -0.4524  0.0833
  653MOL0     H90045   7.790   9.771  11.029  0.7146 -0.6066 -0.3868
  653MOL0     H90046   8.017   9.744  10.958  2.0277 -1.1949 -2.3824
  653MOL0     H90047   8.144   9.890  10.536 -1.8408 -2.2805 -2.6203
  653MOL0     H90048   8.092   9.733  10.529 -1.1191  0.8868  0.1312
  653MOL0     H90049   8.300   9.645  10.637 -1.8586 -0.4096 -0.2931
  653MOL0     H90050   8.320   9.721  10.479  3.0045  1.6319 -0.0133
  653MOL0     H90051   8.409   9.919  10.556  1.9941 -0.6036 -1.3500
  653MOL0     H90052   8.369   9.879  10.727  2.2875  2.1109 -0.2286
  653MOL0     H90053   8.602   9.856  10.689 -1.0849 -0.1673  0.4125
  653MOL0     H90054   8.545   9.685  10.698 -0.3227  0.0340 -1.3038
  653MOL0     H90055   8.599   9.840  10.446 -4.0959 -1.4399 -1.4982
  653MOL0     H90056   8.554   9.676  10.451  2.0652 -2.4502  1.9079
  653MOL0     H90057   8.760   9.619  10.591  1.7354 -1.2537 -1.3138
  653MOL0     H90058   8.770   9.642  10.408  5.2754 -1.2055  1.1934
  653MOL0     H90059   8.954   9.727  10.530 -1.0689 -2.2393 -2.6754
  653MOL0     H90060   8.840   9.845  10.623 -2.4636  1.7597 -1.0465
  653MOL0     H90061   8.787   9.967  10.426 -1.0271  0.4430 -0.6554
  653MOL0     H90062   8.969   9.949  10.442  0.6802 -3.6524  1.0422
  653MOL0     H90063   9.073   9.735  10.263 -0.5599 -0.0842 -0.7987
  653MOL0     H90064   8.978   9.630   9.912 -1.0102  0.5472  0.6057
  653MOL0     H90065   9.099   9.596  10.026 -1.6582 -0.3111  0.5305
  653MOL0     H90066   9.182   9.841  10.008 -0.5487 -1.4157  2.1238
  653MOL0     H90067   9.215   9.717   9.882 -1.3441 -2.0035  0.6246
  653MOL0     H90068   9.035   9.806   9.746 -1.4239 -1.3870  1.2835
  653MOL0     H90069   9.005   9.933   9.862 -1.7042 -1.3455 -2.1066
  653MOL0     H90070   9.262   9.888   9.695  0.3297  1.5862 -1.5749
  653MOL0     H90071   9.131  10.008   9.672 -0.5925  0.3013  1.3676
  653MOL0     H90072   9.479  10.115   9.949  0.3025 -0.7456 -0.1854
  653MOL0     H90073   9.676  10.366   9.931 -1.8375 -0.6926  0.9485
  653MOL0     H90074   9.782  10.226   9.878 -1.2566 -0.1894 -1.4068
  653MOL0     H90075   9.653  10.205   9.998 -2.7919 -0.3978  0.2127
  653MOL0     H90076   9.892  10.597   9.824 -1.6765  2.0604 -2.7564
  653MOL0     H90077  10.103  10.720   9.790  2.4777 -0.6260 -1.2879
  653MOL0     H90078  10.192  10.870   9.671  0.7376 -2.0179  2.1060
  653MOL0     H90079  10.348  10.828   9.700 -2.2960  4.9395  2.6974
  653MOL0     H90080  10.399  10.878   9.445 -0.0732 -0.4486  0.5428
  653MOL0     H90081  10.240  10.960   9.459 -2.0745 -1.2564  3.5786
  653MOL0     H90082  10.470  10.997   9.665  0.0442 -0.5293 -0.0133
  653MOL0     H90083  10.323  11.086   9.666 -2.0394  1.2777 -3.1185
  653MOL0     H90084  10.428  11.256   9.570  2.8569  0.3890 -0.5734
  653MOL0     H90085  10.393  11.180   9.421  0.5572 -0.7873 -0.5188
  653MOL0     H90086  10.633  11.280   9.490 -1.5832 -0.1199 -0.3648
  653MOL0     H90087  10.652  11.123   9.568  1.8503  2.2554  0.7288
  653MOL0     H90088  10.560  11.168   9.282  0.4199  1.5323 -0.2634
  653MOL0     H90089  10.608  11.009   9.338 -1.5461  0.1893  0.8560
  653MOL0     H90090  10.833  11.129   9.380 -0.7857  0.9476  0.8540
  653MOL0     H90091  10.771  11.257   9.271  0.0314  1.0644  1.5490
  653MOL0     H90092  10.767  10.972   9.181  0.3645 -1.1359 -0.0879
  653MOL0     H90093  10.901  11.084   9.144  0.1035  0.9140 -1.1969
  653MOL0     H90094  10.128  10.551   9.399  1.2910 -4.1658 -0.2565
  653MOL0     H90095   9.923  10.399   9.454  0.0497 -1.7914  0.7127
  653MOL0     H90096   9.472  10.261   9.481 -1.3552 -3.2699 -0.7588
  653MOL0     H90097   9.282  10.128   9.572 -0.0199  2.8424  0.4060
  653MOL0     H90098   7.907   9.879  10.567  2.6969  0.1707  0.5034
  653MOL0     H90099   7.668   9.882  10.640 -0.2992 -0.7539  0.5729
  653MOL0     H90100   7.337   9.922  10.888  1.0195  0.2047  0.4168
  653MOL0     H90101   7.109   9.914  10.941 -0.3724  0.5911 -0.2751
  653MOL0     H90102   6.842   9.566  10.840  1.8153 -2.1570  0.9714
  653MOL0     H90103   6.891   9.534  11.002 -0.2277 -0.0540  1.1659
  653MOL0     H90104   6.643   9.572  10.999  0.9983 -0.4540  1.1345
  653MOL0     H90105   6.679   9.725  10.906  0.9950 -1.4998 -2.5885
  653MOL0     H90106   6.803   9.677  11.181  0.0224 -0.6829  0.0527
  653MOL0     H90107   6.756   9.829  11.101  1.3461 -1.3434 -2.5550
  653MOL0     H90108   6.580   9.598  11.219  0.0198 -0.1548  0.8853
  653MOL0     H90109   6.508   9.745  11.159  0.5980  1.5372 -1.2827
  653MOL0     H90110   6.630   9.811  11.575  0.4893  2.7244 -0.5881
  653MOL0     H90111   7.095   9.494  10.871 -0.6064 -0.1115 -2.5363
  653MOL0     H90112   7.413   9.411  10.932 -0.0313  0.5007  0.6981
  653MOL0     H90113   7.261   9.356  10.850 -0.2925  0.2607  0.2837
  653MOL0     H90114   7.387   9.423  10.752 -0.6901  1.3205 -0.5957
  654MOL0     O90115   1.316   9.816   0.797 -0.2610  0.2256 -0.6788
  654MOL0     C90116   1.290   9.853   0.911  0.7448 -0.0753 -0.7036
  654MOL0     O90117   1.375   9.839   1.016 -0.2802  0.0035 -0.2461
  654MOL0     C90118   1.487   9.759   1.005 -0.2232  0.5276  0.5976
  654MOL0     C90119   1.591   9.761   0.905  0.2572  0.2700 -1.2390
  654MOL0     C90120   1.695   9.670   0.908  0.1520 -0.0868 -0.3608
  654MOL0     C90121   1.695   9.570   1.009  0.1303  0.3254  0.2225
  654MOL0     O90122   1.787   9.469   1.007  0.0097 -0.6789  0.6305
  654MOL0     C90123   1.766   9.343   1.069  0.6282 -1.0457 -0.5974
  654MOL0     C90124   1.848   9.227   1.017  0.3207  0.0198  0.2694
  654MOL0     C90125   1.996   9.249   1.029 -0.3582  0.0656  0.3738
  654MOL0     C90126   2.078   9.122   0.996  0.3160  0.1367 -0.1091
  654MOL0     C90127   2.220   9.144   1.023  0.3511 -0.4003  0.4459
  654MOL0     C90128   2.290   9.016   1.058  0.1424 -0.6479 -0.3673
  654MOL0     C90129   2.284   8.912   0.949 -0.2053 -0.4847  0.2769
  654MOL0     C90130   2.372   8.961   0.842 -0.6208 -0.2033 -0.3341
  654MOL0     N90131   2.371   8.869   0.723 -0.1016  0.5893 -0.7273
  654MOL0     C90132   2.268   8.857   0.631 -0.4348 -0.1734  0.1346
  654MOL0     C90133   2.297   8.751   0.556  0.2300 -0.3175  0.2146
  654MOL0     C90134   2.234   8.696   0.434  0.6635  0.3344 -0.8226
  654MOL0     C90135   2.295   8.762   0.318  0.1683  0.3037  0.6647
  654MOL0     C90136   2.430   8.680   0.279  0.3499 -0.2249  0.3045
  654MOL0     C90137   2.399   8.537   0.215  0.1080 -1.1288 -0.5748
  654MOL0     O90138   2.453   8.428   0.299 -0.4971 -0.1773 -0.5604
  654MOL0     C90139   2.589   8.390   0.288 -0.2630  0.5294  0.3405
  654MOL0     C90140   2.683   8.471   0.221 -0.3076 -0.8139 -0.0229
  654MOL0     C90141   2.818   8.443   0.216 -0.0040 -0.3373 -0.4989
  654MOL0     C90142   2.907   8.543   0.144 -0.5791  0.2266  0.1048
  654MOL0     C90143   2.861   8.325   0.290  0.0042 -0.1300  0.6374
  654MOL0     C90144   2.998   8.288   0.311  0.1401 -0.6682  0.7968
  654MOL0     O90145   3.023   8.156   0.332 -1.0924 -0.9021 -0.7544
  654MOL0     C90146   3.153   8.130   0.357  0.1897 -0.5752  0.0374
  654MOL0     C90147   3.212   8.171   0.474 -0.1017  0.5351  0.8851
  654MOL0     C90148   3.340   8.127   0.510 -1.0052  0.4291  0.9823
  654MOL0     C90149   3.421   8.057   0.423 -0.2826 -0.2268  0.3132
  654MOL0     O90150   3.546   8.011   0.453  0.5492 -0.0886 -0.2563
  654MOL0     C90151   3.606   8.079   0.560  1.2443  0.0958  0.3101
  654MOL0     C90152   3.763   8.075   0.531  0.1520  0.3684 -0.2749
  654MOL0     C90153   3.827   8.132   0.652 -0.3370 -0.7695 -0.6016
  654MOL0     C90154   3.977   8.168   0.638 -0.7123 -0.3559  0.9814
  654MOL0     C90155   4.043   8.211   0.770  0.1590 -0.0026 -0.1603
  654MOL0     C90156   4.199   8.217   0.754 -0.2465  0.8142 -0.1379
  654MOL0     C90157   4.273   8.268   0.889 -0.2461 -0.2978  0.0072
  654MOL0     C90158   4.422   8.242   0.894  0.2609  0.3294 -0.1579
  654MOL0    Cl90159   4.500   8.306   0.743 -0.2168  0.3909  0.2828
  654MOL0     C90160   3.364   8.017   0.295  0.0901 -0.1464 -0.7908
  654MOL0     C90161   3.230   8.051   0.266 -0.1575 -0.1328  0.7633
  654MOL0     O90162   3.079   8.379   0.306 -0.7078 -0.3551 -0.5258
  654MOL0     C90163   2.770   8.241   0.351  0.3492 -0.3352  0.0622
  654MOL0     C90164   2.633   8.271   0.344 -0.1160 -0.1284 -0.5584
  654MOL0     N90165   2.407   8.693   0.608 -0.8580  0.3623 -1.1260
  654MOL0     N90166   2.445   8.759   0.707 -0.6190  0.0780 -0.3406
  654MOL0     C90167   1.601   9.576   1.116  0.7128  0.0066 -0.0955
  654MOL0     C90168   1.500   9.676   1.107 -0.2370  0.7210  0.8347
  654MOL0     C90169   1.161   9.922   0.923  0.4747 -0.7549 -1.0273
  654MOL0     C90170   1.084   9.967   0.818  0.3053  0.4778  0.2581
  654MOL0     C90171   0.971  10.036   0.826 -0.2030  0.7100  0.3367
  654MOL0     C90172   0.912  10.050   0.947  1.1505 -0.1477  0.6796
  654MOL0     O90173   0.788  10.117   0.935 -0.1748  0.1817  0.6191
  654MOL0     C90174   0.672  10.044   0.988  0.1636 -0.6696  0.2054
  654MOL0     C90175   0.543  10.126   0.951 -0.5241  0.2974 -0.3218
  654MOL0     C90176   0.532  10.132   0.802 -0.0830  0.1298 -0.5433
  654MOL0     C90177   0.391  10.165   0.766 -0.6332  0.2549 -0.8424
  654MOL0     C90178   0.365  10.198   0.624  0.5198 -0.1402  0.4179
  654MOL0     C90179   0.328  10.219   0.511 -0.5609 -0.2068 -0.3929
  654MOL0     C90180   0.974  10.004   1.060  0.2232 -0.0756  0.7808
  654MOL0     C90181   1.107   9.947   1.055  0.3966 -0.3951  1.0363
  654MOL0     C90182   1.164   9.904   1.185 -0.7927  0.0000 -0.5963
  654MOL0     H90183   1.583   9.822   0.816 -0.9963  0.4705 -1.0049
  654MOL0     H90184   1.768   9.677   0.827 -1.3325  1.4527 -1.6564
  654MOL0     H90185   1.659   9.322   1.068 -0.0380  1.6867  1.6773
  654MOL0     H90186   1.793   9.357   1.174  1.3128  0.8268 -0.9685
  654MOL0     H90187   1.816   9.136   1.068  0.5156  0.0413  0.4329
  654MOL0     H90188   1.828   9.217   0.910  0.4698 -1.6262  0.3696
  654MOL0     H90189   2.015   9.341   0.974 -2.2242  0.9550  1.1185
  654MOL0     H90190   2.010   9.272   1.135  2.8914 -2.0303  0.5196
  654MOL0     H90191   2.044   9.038   1.059  2.8837  0.2253  1.5220
  654MOL0     H90192   2.063   9.105   0.889 -1.0847  0.5386 -0.0069
  654MOL0     H90193   2.233   9.202   1.115 -0.0903  2.1101 -0.9631
  654MOL0     H90194   2.265   9.217   0.955 -2.2891  1.3241  0.3793
  654MOL0     H90195   2.393   9.034   1.092 -0.4167 -1.0852  1.6878
  654MOL0     H90196   2.240   8.976   1.147 -0.3923 -2.3701 -1.4041
  654MOL0     H90197   2.185   8.902   0.905  1.4616 -1.7435 -3.6689
  654MOL0     H90198   2.318   8.814   0.986  0.5323  0.1848  1.4653
  654MOL0     H90199   2.339   9.063   0.823 -1.7268 -0.1023  1.8197
  654MOL0     H90200   2.477   8.961   0.872 -0.1554 -0.8856 -1.8496
  654MOL0     H90201   2.195   8.935   0.613  2.3577  2.2895 -1.4055
  654MOL0     H90202   2.125   8.713   0.433  0.3080 -1.3623 -3.9365
  654MOL0     H90203   2.249   8.588   0.428  0.1391 -0.0337  2.5834
  654MOL0     H90204   2.232   8.741   0.231  0.7975 -0.3307  0.3485
  654MOL0     H90205   2.296   8.868   0.345  0.3692 -0.1402  2.4888
  654MOL0     H90206   2.487   8.736   0.205  2.8633 -1.4735  1.1647
  654MOL0     H90207   2.506   8.668   0.357 -0.5562  0.5888  1.3487
  654MOL0     H90208   2.294   8.514   0.197  0.8815 -3.6557 -2.5170
  654MOL0     H90209   2.449   8.543   0.118  0.2881  1.2498 -0.3910
  654MOL0     H90210   2.651   8.567   0.183 -1.8084 -0.6212  1.5630
  654MOL0     H90211   2.964   8.499   0.062  0.5381  0.9334  0.4854
  654MOL0     H90212   2.984   8.582   0.211  0.0757  0.7234 -0.9123
  654MOL0     H90213   2.857   8.633   0.108  3.2216  2.4651 -0.1273
  654MOL0     H90214   3.151   8.221   0.548  0.9937  1.5169  1.1553
  654MOL0     H90215   3.364   8.158   0.611 -0.6232  1.7019  0.5200
  654MOL0     H90216   3.581   8.185   0.565  1.7852  0.2994 -0.8915
  654MOL0     H90217   3.594   8.015   0.648  3.4164 -1.8042 -0.6487
  654MOL0     H90218   3.781   7.968   0.519 -0.3692 -0.0519  2.0362
  654MOL0     H90219   3.775   8.127   0.436 -0.1133 -2.5969 -2.0511
  654MOL0     H90220   3.826   8.062   0.736  2.5775 -2.5572 -1.8727
  654MOL0     H90221   3.783   8.224   0.691  1.1807 -0.5430  0.6997
  654MOL0     H90222   3.984   8.247   0.563 -1.9166 -0.8669  0.3064
  654MOL0     H90223   4.037   8.087   0.597 -1.1871 -1.0851  1.6992
  654MOL0     H90224   4.002   8.307   0.803 -1.7862 -1.2133  1.0923
  654MOL0     H90225   4.016   8.136   0.845 -0.3943 -0.9438 -1.2645
  654MOL0     H90226   4.232   8.275   0.667  0.6288 -1.1302 -1.1644
  654MOL0     H90227   4.236   8.116   0.736  0.7766 -0.1046  5.4072
  654MOL0     H90228   4.221   8.224   0.975  0.5658  1.1882  1.3086
  654MOL0     H90229   4.265   8.377   0.898  1.7815  0.1765 -2.7385
  654MOL0     H90230   4.450   8.136   0.894 -0.6727  0.0485 -1.7964
  654MOL0     H90231   4.465   8.292   0.981 -0.9775  0.1132  0.6004
  654MOL0     H90232   3.423   7.968   0.218  0.9406 -1.8385  0.8675
  654MOL0     H90233   3.176   8.018   0.178 -2.3205 -0.8486  2.2934
  654MOL0     H90234   2.794   8.143   0.392  0.8899 -0.0932  0.3220
  654MOL0     H90235   2.576   8.191   0.391 -0.2639 -0.4541 -1.2817
  654MOL0     H90236   1.611   9.513   1.204 -0.7945  3.2242  2.5919
  654MOL0     H90237   1.439   9.680   1.197  1.5525  0.5496  2.1188
  654MOL0     H90238   1.110   9.958   0.713 -0.5348  1.6455 -0.0657
  654MOL0     H90239   0.928  10.079   0.736  2.3786  2.1507 -0.3263
  654MOL0     H90240   0.674   9.945   0.943 -1.3584  0.5109 -2.7195
  654MOL0     H90241   0.678  10.038   1.097 -1.2944 -0.5369  0.3197
  654MOL0     H90242   0.540  10.223   1.003  3.0287  0.6016 -0.4441
  654MOL0     H90243   0.464  10.060   0.989  0.1320 -2.0378 -2.7383
  654MOL0     H90244   0.596  10.201   0.747 -0.6512  1.5853  0.5567
  654MOL0     H90245   0.565  10.036   0.762  3.2013  1.4200 -1.1976
  654MOL0     H90246   0.368  10.256   0.823 -0.4078 -0.4896  0.4713
  654MOL0     H90247   0.320  10.088   0.796 -0.7227  1.0193  1.0025
  654MOL0     H90248   0.310  10.232   0.406 -0.6391  0.4157 -0.3021
  654MOL0     H90249   0.925  10.016   1.155  1.8426 -2.7507  2.0786
  654MOL0     H90250   1.102   9.944   1.266 -1.1264 -0.7828 -0.4576
  654MOL0     H90251   1.162   9.795   1.196  1.4458  0.1096  2.2666
  654MOL0     H90252   1.267   9.929   1.213 -0.2404  0.0985 -2.5751
  655MOL0     O90253  10.386   2.413  11.112  0.6906 -0.5603 -0.0274
  655MOL0     C90254  10.376   2.405  10.989  0.0270  0.7395 -0.8564
  655MOL0     O90255  10.468   2.361  10.905 -0.1435 -0.4343  0.0409
  655MOL0     C90256  10.591   2.332  10.945 -0.5397 -0.2662 -0.3673
  655MOL0     C90257  10.696   2.435  10.936  0.5827  0.8574 -0.0244
  655MOL0     C90258  10.821   2.398  10.978 -0.0837 -0.9207  0.0314
  655MOL0     C90259  10.857   2.268  11.020  0.1682  0.1584  0.0551
  655MOL0     O90260  10.987   2.237  11.061  0.0359 -0.4663  0.0216
  655MOL0     C90261  11.086   2.335  11.086 -0.8361 -0.0718 -0.1770
  655MOL0     C90262  11.219   2.266  11.112 -1.2630  0.0583 -0.6680
  655MOL0     C90263  11.287   2.220  10.984  0.1335 -0.2230 -0.1252
  655MOL0     C90264  11.421   2.158  11.022  0.0517  0.5143  0.5322
  655MOL0     C90265  11.504   2.118  10.900 -0.2515  0.3142 -0.6227
  655MOL0     C90266  11.613   2.012  10.924  0.4278 -0.7019  0.3203
  655MOL0     C90267  11.673   1.970  10.795  0.3529  0.5642  0.1770
  655MOL0     C90268  11.790   1.875  10.819 -0.1809 -0.0371  0.2583
  655MOL0     N90269  11.911   1.947  10.854 -0.4239 -0.2814 -0.4110
  655MOL0     C90270  12.044   1.917  10.836  0.3599  0.0083  0.6333
  655MOL0     C90271  12.115   2.006  10.901 -0.1793  0.3180 -0.1348
  655MOL0     C90272  12.262   1.987  10.913 -0.5285  0.2109 -0.5496
  655MOL0     C90273  12.341   2.102  10.843  0.4131  0.7804 -1.5470
  655MOL0     C90274  12.494   2.075  10.859  0.1088 -0.4740  0.0705
  655MOL0     C90275  12.582   2.185  10.792  0.5226  0.6491 -0.1605
  655MOL0     O90276  12.719   2.146  10.795 -0.1528  0.1352  0.2802
  655MOL0     C90277  12.769   2.056  10.706  0.1074  0.1068  0.5041
  655MOL0     C90278  12.698   1.975  10.608  0.1957  0.3152  0.1200
  655MOL0     C90279  12.758   1.883  10.520 -0.1105  0.1094 -0.4028
  655MOL0     C90280  12.665   1.810  10.426  0.1413 -0.6819  0.0969
  655MOL0     C90281  12.898   1.863  10.531 -0.4703 -0.4879  0.4028
  655MOL0     C90282  12.966   1.752  10.459 -0.6479 -0.2028  0.4764
  655MOL0     O90283  13.102   1.734  10.464 -0.4159  0.4094 -0.7942
  655MOL0     C90284  13.165   1.637  10.403 -0.4566 -0.4539 -0.5730
  655MOL0     C90285  13.201   1.645  10.268 -0.7082 -0.5824  0.2814
  655MOL0     C90286  13.280   1.543  10.206  0.3871  0.6902  0.6274
  655MOL0     C90287  13.336   1.435  10.278 -0.5259 -1.0563 -0.2345
  655MOL0     O90288  13.420   1.340  10.234  0.1384 -0.0398  0.2360
  655MOL0     C90289  13.504   1.373  10.127 -0.1915 -0.9617 -0.1225
  655MOL0     C90290  13.592   1.252  10.103 -0.1361 -0.5248 -0.8992
  655MOL0     C90291  13.694   1.292   9.999  0.6759  0.2696 -0.0929
  655MOL0     C90292  13.798   1.183   9.973  0.0245  0.8399  0.8341
  655MOL0     C90293  13.895   1.219   9.861  0.0756 -0.1134  0.1505
  655MOL0     C90294  13.980   1.101   9.803  0.7859 -0.4475 -0.0711
  655MOL0     C90295  14.076   1.127   9.688 -0.8043  0.5599 -0.4972
  655MOL0     C90296  14.165   1.012   9.659  0.9272 -0.0535  0.1616
  655MOL0    Cl90297  14.266   1.040   9.514 -0.0085 -0.2145 -0.0145
  655MOL0     C90298  13.311   1.437  10.415 -0.7911  0.4556  0.4984
  655MOL0     C90299  13.226   1.534  10.479 -0.4490 -0.5450  0.3039
  655MOL0     O90300  12.892   1.678  10.392 -0.6765  0.1296  0.0147
  655MOL0     C90301  12.969   1.942  10.612  0.4701 -0.0667  0.0258
  655MOL0     C90302  12.900   2.028  10.697 -0.9055 -0.3800  0.5382
  655MOL0     N90303  12.028   2.085  10.965 -0.8900  0.2319  0.1445
  655MOL0     N90304  11.910   2.062  10.930  0.0823  0.1677  1.3155
  655MOL0     C90305  10.757   2.175  11.041  0.2013  0.8023  0.5108
  655MOL0     C90306  10.620   2.210  10.997  0.3203  0.1030  0.2764
  655MOL0     C90307  10.246   2.442  10.929 -0.3053 -1.3450  0.2526
  655MOL0     C90308  10.174   2.345  10.858  0.7161  0.3063  0.3850
  655MOL0     C90309  10.050   2.384  10.793 -0.4535  0.6795 -0.5858
  655MOL0     C90310  10.019   2.519  10.785  0.6125 -0.3730 -0.1896
  655MOL0     O90311   9.921   2.570  10.703  0.1907 -0.3421 -1.2958
  655MOL0     C90312   9.799   2.500  10.697 -0.1305 -0.5331 -0.5816
  655MOL0     C90313   9.694   2.578  10.605  0.5349  0.0488 -0.8222
  655MOL0     C90314   9.661   2.712  10.657  0.3443  0.7265  0.4446
  655MOL0     C90315   9.597   2.794  10.546 -0.6081 -0.1920  0.1987
  655MOL0     C90316   9.457   2.758  10.545  0.0846  0.7012  0.0990
  655MOL0     C90317   9.341   2.725  10.549 -0.4907 -0.2742 -0.2635
  655MOL0     C90318  10.099   2.612  10.851  1.2454 -0.0625  0.4709
  655MOL0     C90319  10.213   2.579  10.916 -0.2687 -1.0467 -0.4776
  655MOL0     C90320  10.289   2.681  10.984  0.2073  0.5978  0.2717
  655MOL0     H90321  10.670   2.533  10.898 -1.9899  0.4332  0.4651
  655MOL0     H90322  10.901   2.468  10.958 -2.0900  0.9467 -2.0016
  655MOL0     H90323  11.070   2.397  11.175  2.0645  2.0668 -0.9957
  655MOL0     H90324  11.094   2.402  11.001  4.1327 -1.9421 -1.5860
  655MOL0     H90325  11.281   2.339  11.164 -0.6062 -0.3136 -0.9251
  655MOL0     H90326  11.217   2.183  11.184  3.1050 -2.2419 -2.7819
  655MOL0     H90327  11.223   2.151  10.928 -1.1202 -1.2313  2.4107
  655MOL0     H90328  11.303   2.305  10.917  2.7530 -1.1642 -0.8230
  655MOL0     H90329  11.483   2.228  11.079  1.7464 -0.6834  0.2312
  655MOL0     H90330  11.401   2.068  11.081 -0.2820  0.4691  0.3563
  655MOL0     H90331  11.545   2.203  10.845  0.6259  0.3799  0.1137
  655MOL0     H90332  11.432   2.077  10.828  1.6630  0.5273 -2.7674
  655MOL0     H90333  11.681   2.069  10.988  1.0552 -0.4168 -0.5808
  655MOL0     H90334  11.580   1.929  10.987 -1.2571 -1.2055 -1.1239
  655MOL0     H90335  11.723   2.051  10.741  2.4850 -0.1753  0.9332
  655MOL0     H90336  11.600   1.922  10.729 -0.1209  2.8312 -1.0461
  655MOL0     H90337  11.774   1.796  10.893 -1.2413 -0.5586 -0.5083
  655MOL0     H90338  11.799   1.825  10.722 -1.4158 -0.7053  0.4748
  655MOL0     H90339  12.088   1.833  10.784 -0.7243  1.8414 -3.8143
  655MOL0     H90340  12.274   1.892  10.860  0.9912  0.5386 -0.8415
  655MOL0     H90341  12.295   1.980  11.017  0.6447  0.2960 -0.8918
  655MOL0     H90342  12.296   2.119  10.744 -4.2303 -1.2860 -0.0543
  655MOL0     H90343  12.320   2.201  10.884 -1.9475 -1.2741  2.8262
  655MOL0     H90344  12.525   2.050  10.961  0.3507 -2.1125 -0.3742
  655MOL0     H90345  12.507   1.992  10.789  1.9734  0.7038 -1.0563
  655MOL0     H90346  12.546   2.207  10.691  0.3640 -0.8562 -0.4617
  655MOL0     H90347  12.578   2.279  10.849 -2.6458 -0.1240  1.1597
  655MOL0     H90348  12.591   1.981  10.592  0.4506 -0.5571 -2.2153
  655MOL0     H90349  12.692   1.826  10.321  1.1850 -2.1354  0.1225
  655MOL0     H90350  12.565   1.853  10.440  0.0757 -1.3728  2.2272
  655MOL0     H90351  12.657   1.701  10.432  0.9669 -0.7092  0.9865
  655MOL0     H90352  13.161   1.717  10.197  0.5192  1.2689  1.3632
  655MOL0     H90353  13.289   1.534  10.099 -0.3908  1.2496  0.5045
  655MOL0     H90354  13.444   1.384  10.035  2.3729 -0.6688 -1.8587
  655MOL0     H90355  13.552   1.470  10.136 -1.0537 -0.3017 -2.0929
  655MOL0     H90356  13.654   1.227  10.190  0.2548 -1.6624 -1.4874
  655MOL0     H90357  13.536   1.164  10.070  0.3042 -0.8038 -0.9086
  655MOL0     H90358  13.744   1.384  10.029 -1.8373  2.2177 -1.4202
  655MOL0     H90359  13.650   1.314   9.901 -0.1367  1.7211  0.5617
  655MOL0     H90360  13.753   1.088   9.943 -0.9262  1.3065  0.7375
  655MOL0     H90361  13.861   1.174  10.062  0.3567 -2.5600  0.3866
  655MOL0     H90362  13.840   1.256   9.775 -1.0106 -2.0542 -0.0497
  655MOL0     H90363  13.969   1.289   9.902  2.1674 -2.3308  0.4389
  655MOL0     H90364  13.914   1.023   9.765 -0.3463 -0.5358  1.9428
  655MOL0     H90365  14.037   1.063   9.889 -1.5070  0.6093  2.0532
  655MOL0     H90366  14.144   1.207   9.717 -0.8219  2.0981 -4.1308
  655MOL0     H90367  14.021   1.158   9.598 -3.0826 -1.3962  0.1108
  655MOL0     H90368  14.112   0.917   9.651  1.0194 -0.0243 -0.9887
  655MOL0     H90369  14.236   1.001   9.741 -0.0036  0.3501  1.0444
  655MOL0     H90370  13.377   1.367  10.466  0.2891 -0.1066 -1.5385
  655MOL0     H90371  13.210   1.543  10.586  1.7053  0.9975  0.5666
  655MOL0     H90372  13.076   1.930  10.620  0.6993  0.9816 -1.1968
  655MOL0     H90373  12.964   2.083  10.766  1.3828 -1.6539 -0.4297
  655MOL0     H90374  10.775   2.089  11.105 -1.9178 -0.5190 -0.5411
  655MOL0     H90375  10.544   2.133  11.009 -0.7214  0.8628 -1.1824
  655MOL0     H90376  10.214   2.244  10.864 -3.1395 -1.3359  2.3200
  655MOL0     H90377  10.001   2.305  10.738 -0.5356 -0.1089  0.5779
  655MOL0     H90378   9.813   2.403  10.649  0.3957 -0.6799 -0.1428
  655MOL0     H90379   9.758   2.481  10.797 -0.5611  2.1743 -0.1530
  655MOL0     H90380   9.603   2.519  10.597 -0.4358  1.3589  0.1571
  655MOL0     H90381   9.756   2.581  10.515  0.3428 -1.8063 -1.0576
  655MOL0     H90382   9.592   2.708  10.742  1.7639  0.6319  1.6325
  655MOL0     H90383   9.752   2.759  10.695  0.8528 -0.1233  0.3191
  655MOL0     H90384   9.653   2.795  10.452  0.3307  1.0085  0.7537
  655MOL0     H90385   9.606   2.897  10.580 -0.1089  0.2402 -1.1957
  655MOL0     H90386   9.236   2.708  10.555 -0.2100 -3.0111 -1.5651
  655MOL0     H90387  10.079   2.719  10.844  3.5154  0.4348  0.7752
  655MOL0     H90388  10.398   2.670  10.977  0.2182 -0.5223  1.7803
  655MOL0     H90389  10.261   2.783  10.957 -1.3935 -0.1999 -1.2565
  655MOL0     H90390  10.264   2.668  11.090 -1.2843 -0.9989 -0.2414
  656MOL0     O90391   3.806  10.131   0.618 -0.8652 -0.0299  0.5470
  656MOL0     C90392   3.714  10.104   0.696  0.6957  0.5199 -0.4848
  656MOL0     O90393   3.722  10.018   0.805  0.3940  0.1764 -0.2616
  656MOL0     C90394   3.831   9.956   0.834  0.5457 -0.2295 -0.0720
  656MOL0     C90395   3.947  10.024   0.877  0.8172 -0.1404  0.1218
  656MOL0     C90396   4.069   9.949   0.895 -0.2651 -0.0302  0.5827
  656MOL0     C90397   4.061   9.809   0.886  0.0979  0.1717  0.9792
  656MOL0     O90398   4.179   9.745   0.909  0.4477 -0.3613 -0.5485
  656MOL0     C90399   4.186   9.603   0.884  0.5551 -0.3586  0.5789
  656MOL0     C90400   4.313   9.540   0.953  1.7002  0.0201  0.4214
  656MOL0     C90401   4.437   9.575   0.868 -0.4305 -0.5901  0.7220
  656MOL0     C90402   4.566   9.531   0.943  0.3768 -1.0359  0.2185
  656MOL0     C90403   4.688   9.543   0.850 -0.5935 -0.2297 -0.6395
  656MOL0     C90404   4.705   9.693   0.818 -0.7544 -0.9131 -0.1101
  656MOL0     C90405   4.841   9.712   0.751  0.6193 -0.0882  0.2063
  656MOL0     C90406   4.846   9.845   0.677  0.6321 -0.0020  0.4108
  656MOL0     N90407   4.979   9.883   0.628  0.1830  0.2815 -0.1061
  656MOL0     C90408   5.053   9.987   0.669 -0.7311 -0.4107  0.3906
  656MOL0     C90409   5.154   9.999   0.580  0.3896  0.9114 -0.2926
  656MOL0     C90410   5.271  10.088   0.580 -0.1504 -0.4764  0.4042
  656MOL0     C90411   5.391  10.017   0.530 -0.2631  0.3592  0.0713
  656MOL0     C90412   5.427   9.900   0.624 -0.6061  0.7204  0.1935
  656MOL0     C90413   5.586   9.868   0.616 -0.0910 -0.0373  0.1718
  656MOL0     O90414   5.668   9.969   0.659  0.3202  0.6176  0.2339
  656MOL0     C90415   5.804   9.932   0.677  0.5593  0.6175  0.1319
  656MOL0     C90416   5.875   9.842   0.596  0.3780  1.1693 -0.1654
  656MOL0     C90417   6.009   9.813   0.624 -0.8021  0.4224  0.7326
  656MOL0     C90418   6.073   9.706   0.534  0.2961  0.1399  0.1972
  656MOL0     C90419   6.083   9.870   0.727 -0.1746 -0.0624  0.4566
  656MOL0     C90420   6.216   9.846   0.758 -0.9746  0.1239  0.3991
  656MOL0     O90421   6.280   9.961   0.794  0.0291 -0.3389 -0.1974
  656MOL0     C90422   6.409   9.962   0.834 -0.1130 -0.2976 -0.6650
  656MOL0     C90423   6.444   9.942   0.972  0.2775  0.5120  0.0681
  656MOL0     C90424   6.572   9.945   1.016 -0.5740  0.1023 -0.2316
  656MOL0     C90425   6.675   9.958   0.923  0.9127  0.4600  0.3136
  656MOL0     O90426   6.793   9.959   0.985 -0.4801 -0.1811 -0.6188
  656MOL0     C90427   6.899   9.905   0.908 -0.4422  0.0406  0.5211
  656MOL0     C90428   7.014  10.008   0.883  0.0947 -0.4944 -0.0215
  656MOL0     C90429   7.087  10.069   1.006  0.1146 -0.1630 -0.1504
  656MOL0     C90430   7.187   9.968   1.055 -1.1708 -0.3555 -0.0480
  656MOL0     C90431   7.266  10.008   1.175 -0.0088 -0.6940 -0.3017
  656MOL0     C90432   7.373  10.111   1.125  0.7258 -0.2170 -0.4391
  656MOL0     C90433   7.325  10.253   1.152 -0.2557 -0.1065 -0.5353
  656MOL0     C90434   7.395  10.350   1.062 -0.9864 -0.2215  0.2463
  656MOL0    Cl90435   7.574  10.350   1.095  0.3278  0.0758  0.2662
  656MOL0     C90436   6.648   9.973   0.785 -0.5808  0.5021 -0.4855
  656MOL0     C90437   6.515   9.977   0.742  0.8243 -0.1891 -0.5025
  656MOL0     O90438   6.268   9.729   0.752  0.7169  0.5118  0.6897
  656MOL0     C90439   6.007   9.943   0.817  1.1631 -1.0323 -0.7046
  656MOL0     C90440   5.871   9.979   0.788  0.3588 -0.4867 -0.1035
  656MOL0     N90441   5.128   9.911   0.474 -0.0368  0.0199  0.2471
  656MOL0     N90442   5.026   9.839   0.506  0.2527  0.3141 -0.4036
  656MOL0     C90443   3.943   9.735   0.853 -1.1168 -1.0304 -0.0694
  656MOL0     C90444   3.830   9.813   0.822  0.1578 -0.5757 -0.2605
  656MOL0     C90445   3.585  10.177   0.674  0.8563 -0.4409  0.6208
  656MOL0     C90446   3.567  10.249   0.546 -0.1186 -0.2329 -0.1562
  656MOL0     C90447   3.456  10.331   0.518 -0.0979  0.4348 -0.2628
  656MOL0     C90448   3.351  10.326   0.612 -0.4121  0.4873 -0.8551
  656MOL0     O90449   3.229  10.386   0.584 -1.0846  0.1421  0.6691
  656MOL0     C90450   3.187  10.442   0.460 -0.5503  0.1738  0.4156
  656MOL0     C90451   3.047  10.493   0.485  0.1377 -0.2645 -0.0337
  656MOL0     C90452   2.947  10.389   0.510 -0.4812 -0.1569  0.7822
  656MOL0     C90453   2.800  10.443   0.509 -0.5116 -0.2100  0.8206
  656MOL0     C90454   2.706  10.347   0.569 -0.4074  0.4397 -0.1968
  656MOL0     C90455   2.633  10.283   0.640 -0.1148 -0.4282  0.0672
  656MOL0     C90456   3.367  10.269   0.737 -0.3754  0.2652  0.4703
  656MOL0     C90457   3.483  10.194   0.768  0.2516  0.1629 -0.2424
  656MOL0     C90458   3.482  10.129   0.906 -0.1020 -0.1559 -0.4561
  656MOL0     H90459   3.937  10.131   0.891 -0.2626 -0.3581  1.1936
  656MOL0     H90460   4.161  10.003   0.911  0.3415  0.5174 -3.5778
  656MOL0     H90461   4.187   9.577   0.778  2.9601  0.5707  0.3011
  656MOL0     H90462   4.103   9.560   0.941 -1.0301 -0.4400 -1.6602
  656MOL0     H90463   4.336   9.580   1.053 -0.2421  2.1385  0.0946
  656MOL0     H90464   4.295   9.432   0.950  1.1164  0.0775  1.3169
  656MOL0     H90465   4.428   9.531   0.768  2.2595  0.3100  0.0175
  656MOL0     H90466   4.451   9.682   0.851  1.5084 -0.9793 -0.3996
  656MOL0     H90467   4.585   9.588   1.035  1.3646 -0.6389 -0.2130
  656MOL0     H90468   4.550   9.429   0.978  2.8670 -1.4332  0.3859
  656MOL0     H90469   4.678   9.486   0.757 -1.4061 -0.2164 -0.5615
  656MOL0     H90470   4.777   9.511   0.905  0.9066  2.1974 -1.4404
  656MOL0     H90471   4.623   9.730   0.756 -0.5309 -2.7228 -1.5753
  656MOL0     H90472   4.701   9.745   0.914  2.1075 -1.6489  0.5014
  656MOL0     H90473   4.868   9.633   0.681  1.0514 -0.5107  0.8410
  656MOL0     H90474   4.921   9.705   0.825  2.3807 -2.6095 -1.7715
  656MOL0     H90475   4.778   9.837   0.592 -0.2954  0.6055  1.0776
  656MOL0     H90476   4.809   9.922   0.746  1.9598  0.6298  0.4557
  656MOL0     H90477   5.035  10.042   0.761 -0.2374 -1.7980  1.3516
  656MOL0     H90478   5.296  10.111   0.684  0.5048  0.1763  0.1065
  656MOL0     H90479   5.242  10.178   0.524 -0.2533 -0.7234  0.0625
  656MOL0     H90480   5.371   9.971   0.432 -0.4747  1.6978 -0.5403
  656MOL0     H90481   5.479  10.080   0.512 -0.4450 -0.0580 -2.8946
  656MOL0     H90482   5.402   9.914   0.730 -0.1082 -1.1324  0.6120
  656MOL0     H90483   5.373   9.814   0.584 -0.3694  0.3072  0.7462
  656MOL0     H90484   5.602   9.785   0.686 -4.3091 -1.4335 -0.2015
  656MOL0     H90485   5.611   9.824   0.519 -0.0113 -2.3130  1.1559
  656MOL0     H90486   5.819   9.789   0.520 -0.8242 -0.0641  1.5179
  656MOL0     H90487   6.157   9.752   0.480  0.1176 -0.8963 -1.0066
  656MOL0     H90488   6.011   9.674   0.450 -0.7518 -1.1320  1.4084
  656MOL0     H90489   6.103   9.620   0.594  3.1560  1.5087  0.9338
  656MOL0     H90490   6.358   9.945   1.038  0.3488  2.2226  0.1163
  656MOL0     H90491   6.605   9.944   1.119  1.4614  0.7517 -0.8349
  656MOL0     H90492   6.941   9.820   0.962 -1.9989  0.6594  2.8526
  656MOL0     H90493   6.858   9.863   0.816 -1.3981  2.2992 -0.1564
  656MOL0     H90494   7.094   9.968   0.820  2.6900  2.5192  1.1276
  656MOL0     H90495   6.965  10.089   0.828  1.4053 -1.4958 -2.8914
  656MOL0     H90496   7.018  10.093   1.088  0.0384  1.3831 -0.6298
  656MOL0     H90497   7.141  10.157   0.971 -1.2637  0.0794 -1.7923
  656MOL0     H90498   7.263   9.949   0.979  1.0924  2.2836  1.3674
  656MOL0     H90499   7.133   9.877   1.083  1.6864 -1.4665  2.2849
  656MOL0     H90500   7.196  10.059   1.241 -0.0299 -1.8217  0.5685
  656MOL0     H90501   7.316   9.924   1.224  2.6024  0.4670 -0.7523
  656MOL0     H90502   7.393  10.101   1.018 -3.6636  0.4885 -1.5074
  656MOL0     H90503   7.471  10.095   1.172 -0.0208 -0.6931  1.0016
  656MOL0     H90504   7.334  10.292   1.253 -2.4652  1.3916 -0.8418
  656MOL0     H90505   7.217  10.266   1.142 -0.0213  2.3182 -0.7160
  656MOL0     H90506   7.359  10.453   1.068  0.0556  0.3405 -2.0222
  656MOL0     H90507   7.384  10.326   0.956  4.2404  2.8066 -1.3236
  656MOL0     H90508   6.724   9.972   0.708 -1.6782 -0.5975 -1.6052
  656MOL0     H90509   6.498   9.992   0.636 -1.1726  1.6643  0.0122
  656MOL0     H90510   6.055   9.976   0.908  1.9618 -0.0259 -1.4635
  656MOL0     H90511   5.819  10.047   0.854  2.2397  1.1807 -0.2378
  656MOL0     H90512   3.937   9.626   0.859  0.7975 -1.1077  2.1450
  656MOL0     H90513   3.734   9.765   0.805 -0.3824  0.5321 -0.3775
  656MOL0     H90514   3.645  10.259   0.472  0.9888  1.8373  1.2068
  656MOL0     H90515   3.461  10.396   0.431 -0.4903  1.3787  0.4057
  656MOL0     H90516   3.257  10.519   0.428 -1.2788  1.3451  1.5517
  656MOL0     H90517   3.196  10.370   0.378  1.9841  2.4168 -1.4525
  656MOL0     H90518   3.029  10.541   0.388  2.2502 -0.2720 -0.4828
  656MOL0     H90519   3.041  10.567   0.564  0.6103 -3.3510  3.1468
  656MOL0     H90520   2.954  10.322   0.424  1.3016  0.0553  0.7246
  656MOL0     H90521   2.978  10.338   0.601  0.2155 -1.6183 -0.2339
  656MOL0     H90522   2.758  10.465   0.411 -3.6907 -1.7997  1.6538
  656MOL0     H90523   2.798  10.542   0.556 -0.9251  1.3500 -2.2573
  656MOL0     H90524   2.568  10.238   0.714  1.5525 -0.8541  1.3382
  656MOL0     H90525   3.289  10.285   0.811 -0.1021  1.9740  0.4284
  656MOL0     H90526   3.409  10.166   0.978  0.6534 -1.6544  1.1286
  656MOL0     H90527   3.461  10.023   0.894 -0.6085 -0.1428  0.2760
  656MOL0     H90528   3.580  10.136   0.955 -1.0862 -0.2217  1.6072
  657MOL0     O90529   2.523   9.940  10.171  0.2200  1.0423 -0.4795
  657MOL0     C90530   2.441   9.927  10.257 -1.0524 -0.1349 -0.6643
  657MOL0     O90531   2.470   9.940  10.392  0.8862 -0.6762  0.0879
  657MOL0     C90532   2.596   9.980  10.425  0.4782 -1.4122 -0.0756
  657MOL0     C90533   2.625  10.120  10.393  0.4160 -0.3718  0.7484
  657MOL0     C90534   2.755  10.171  10.419 -0.6116 -0.0465 -0.0822
  657MOL0     C90535   2.848  10.095  10.487 -0.4147  0.6590  0.9359
  657MOL0     O90536   2.972  10.134  10.519  0.3321  0.5340 -0.5342
  657MOL0     C90537   3.026  10.263  10.497 -0.4480 -0.4450  0.0366
  657MOL0     C90538   3.165  10.261  10.558 -0.6088  0.8733 -0.6364
  657MOL0     C90539   3.260  10.183  10.453 -0.9686 -0.3213 -0.4468
  657MOL0     C90540   3.414  10.185  10.498  1.2190 -0.3821 -0.0817
  657MOL0     C90541   3.497  10.134  10.376  0.4061 -0.3763 -1.4048
  657MOL0     C90542   3.641  10.116  10.432  0.4408 -0.1230 -0.1416
  657MOL0     C90543   3.724  10.053  10.317  0.2607 -0.3228 -0.4352
  657MOL0     C90544   3.860  10.005  10.368  0.9833 -0.4458 -0.2136
  657MOL0     N90545   3.923  10.120  10.432 -0.2519  0.3868  0.5770
  657MOL0     C90546   3.965  10.238  10.375 -0.0205 -0.4910 -0.0347
  657MOL0     C90547   4.034  10.307  10.471  0.9440 -0.3264 -0.3625
  657MOL0     C90548   4.092  10.440  10.468 -0.1758 -0.0820  0.0512
  657MOL0     C90549   4.069  10.533  10.583 -0.1090  0.4827  0.0579
  657MOL0     C90550   4.123  10.676  10.555 -0.5744 -0.3973 -0.7397
  657MOL0     C90551   4.280  10.671  10.543 -0.1015  0.3221 -0.3618
  657MOL0     O90552   4.340  10.801  10.544  0.4135  0.1489  0.2277
  657MOL0     C90553   4.467  10.825  10.595  0.1381  0.2550 -0.2589
  657MOL0     C90554   4.560  10.733  10.645  0.2870 -0.1072 -0.3017
  657MOL0     C90555   4.688  10.774  10.685  0.6323  0.1782  0.1750
  657MOL0     C90556   4.770  10.677  10.758 -0.3725 -0.2427 -0.4779
  657MOL0     C90557   4.729  10.909  10.664  0.9464 -0.0033 -0.3836
  657MOL0     C90558   4.859  10.970  10.710 -0.2913  0.5332 -0.1610
  657MOL0     O90559   4.911  11.069  10.634 -0.2848  0.1897  0.5014
  657MOL0     C90560   5.032  11.125  10.673 -0.0447 -0.4847 -0.6074
  657MOL0     C90561   5.154  11.073  10.632  0.2500  0.3600  0.4503
  657MOL0     C90562   5.278  11.125  10.684  0.7818  0.5302  0.7869
  657MOL0     C90563   5.279  11.230  10.770 -0.5986  1.2316 -0.0140
  657MOL0     O90564   5.408  11.272  10.800  0.2521 -0.0696  0.5627
  657MOL0     C90565   5.444  11.313  10.935 -1.2837 -0.1181  0.3700
  657MOL0     C90566   5.599  11.322  10.940 -0.6764  0.9714 -0.9536
  657MOL0     C90567   5.648  11.427  10.837 -0.4296 -0.3714 -0.2294
  657MOL0     C90568   5.797  11.469  10.867 -0.4337 -0.5814 -0.1181
  657MOL0     C90569   5.868  11.531  10.753 -0.9913 -0.4573  0.6870
  657MOL0     C90570   5.999  11.598  10.775  0.4375  1.0863 -0.5999
  657MOL0     C90571   6.107  11.509  10.842 -0.1292  0.2787  0.3059
  657MOL0     C90572   6.226  11.600  10.864 -0.1410 -0.9353 -0.2186
  657MOL0    Cl90573   6.178  11.723  11.001  0.4919  0.2284 -0.4963
  657MOL0     C90574   5.162  11.287  10.810  0.1266 -0.3647  0.0794
  657MOL0     C90575   5.036  11.222  10.768  0.4786 -0.1480 -0.2893
  657MOL0     O90576   4.921  10.917  10.809  0.6531 -0.5296  0.6865
  657MOL0     C90577   4.640  10.994  10.603  0.3950 -0.0120  0.2644
  657MOL0     C90578   4.506  10.961  10.582  0.7325  0.0051  0.6286
  657MOL0     N90579   4.030  10.229  10.585 -0.3508  0.1575 -0.6079
  657MOL0     N90580   3.966  10.121  10.562  0.1060  0.0634 -0.4705
  657MOL0     C90581   2.815   9.963  10.521 -0.7945 -0.1768  0.1314
  657MOL0     C90582   2.696   9.906  10.476  0.0898 -0.6892 -0.1682
  657MOL0     C90583   2.305   9.909  10.209 -0.6821  0.3122  0.5949
  657MOL0     C90584   2.207   9.917  10.305  0.3371 -0.4129 -0.6240
  657MOL0     C90585   2.071   9.889  10.281 -0.4943  0.3821  0.0597
  657MOL0     C90586   2.026   9.853  10.157  0.0529 -0.3296 -0.6250
  657MOL0     O90587   1.898   9.806  10.155 -0.0581  0.0238  0.2040
  657MOL0     C90588   1.830   9.832  10.025 -0.3855 -0.0913 -0.4019
  657MOL0     C90589   1.803   9.980  10.000  0.1586 -0.3445  0.1198
  657MOL0     C90590   1.695  10.029  10.091  0.1257  0.2916 -0.3777
  657MOL0     C90591   1.628  10.151  10.025 -0.7861 -1.1542 -0.2609
  657MOL0     C90592   1.525  10.107   9.930 -0.3113 -0.0544  0.5334
  657MOL0     C90593   1.451  10.061   9.843 -0.0322  0.5456 -0.4600
  657MOL0     C90594   2.115   9.847  10.049 -0.2782 -0.0360  0.1630
  657MOL0     C90595   2.253   9.876  10.075 -0.4155 -0.2498  0.0260
  657MOL0     C90596   2.348   9.881   9.953 -0.1915  0.1829 -0.8228
  657MOL0     H90597   2.562  10.173  10.322  1.0312 -1.0199 -0.3052
  657MOL0     H90598   2.784  10.267  10.378 -0.5683  0.2349  0.5863
  657MOL0     H90599   2.961  10.343  10.535  1.3266  0.1722  1.9514
  657MOL0     H90600   3.045  10.276  10.390 -2.7927  1.8570 -0.2115
  657MOL0     H90601   3.199  10.365  10.560  1.9916  0.0878  0.4660
  657MOL0     H90602   3.167  10.222  10.660 -3.2306  2.9491  0.3469
  657MOL0     H90603   3.224  10.083  10.425  1.2175 -0.4663 -3.2194
  657MOL0     H90604   3.257  10.235  10.356  2.0915 -1.0569 -1.0238
  657MOL0     H90605   3.447  10.284  10.528 -1.1123  0.5574 -0.3539
  657MOL0     H90606   3.446  10.118  10.579 -2.1690 -2.1562  0.0015
  657MOL0     H90607   3.492  10.205  10.294 -1.0276  0.0816 -0.9488
  657MOL0     H90608   3.459  10.035  10.347  1.5037 -2.1810  2.5361
  657MOL0     H90609   3.675  10.216  10.458 -0.7872  0.0640  0.8639
  657MOL0     H90610   3.638  10.053  10.522  1.3955  1.9926  1.4618
  657MOL0     H90611   3.731  10.125  10.236  0.5554  1.0718  0.7890
  657MOL0     H90612   3.670   9.963  10.286 -1.7695  0.2514  1.2247
  657MOL0     H90613   3.853   9.924  10.441  0.7891 -0.7713 -0.5916
  657MOL0     H90614   3.921   9.962  10.288  0.3248 -0.6609 -0.6042
  657MOL0     H90615   3.958  10.263  10.270 -0.6574  1.3439  0.4129
  657MOL0     H90616   4.071  10.491  10.373 -2.3539 -0.5041  0.2439
  657MOL0     H90617   4.199  10.418  10.472 -0.1166  0.0537 -0.6319
  657MOL0     H90618   3.960  10.539  10.591 -0.5358 -3.9713  0.1419
  657MOL0     H90619   4.111  10.486  10.672  1.0704  1.6743  0.1518
  657MOL0     H90620   4.076  10.725  10.469 -0.4280  1.5042  0.2193
  657MOL0     H90621   4.093  10.740  10.638 -3.5005 -0.4198 -1.6700
  657MOL0     H90622   4.326  10.615  10.625 -1.5718 -1.9036 -0.9756
  657MOL0     H90623   4.313  10.620  10.452  3.2139 -0.5087  1.1386
  657MOL0     H90624   4.533  10.628  10.646  0.5740 -0.1810  0.8747
  657MOL0     H90625   4.738  10.573  10.744 -0.0487 -0.1906 -1.7562
  657MOL0     H90626   4.776  10.699  10.865  0.5705 -0.1694 -0.5398
  657MOL0     H90627   4.870  10.675  10.715 -0.0741 -1.7096  0.2156
  657MOL0     H90628   5.156  10.984  10.570 -2.5548 -0.3928  1.3171
  657MOL0     H90629   5.366  11.076  10.643  0.9467 -1.8020  3.6392
  657MOL0     H90630   5.396  11.408  10.960 -1.7970 -0.2250 -0.1674
  657MOL0     H90631   5.411  11.239  11.008 -1.7420 -2.0306 -1.6812
  657MOL0     H90632   5.623  11.333  11.047 -0.8070  2.6742 -1.0662
  657MOL0     H90633   5.641  11.226  10.910  1.0435  1.2703  0.3148
  657MOL0     H90634   5.592  11.521  10.835 -0.3473 -0.2929  0.9057
  657MOL0     H90635   5.644  11.392  10.733  0.5751  1.5141 -0.9354
  657MOL0     H90636   5.857  11.385  10.906  0.2550 -0.8365 -1.6339
  657MOL0     H90637   5.786  11.551  10.938 -3.4659  1.4913 -2.7642
  657MOL0     H90638   5.889  11.456  10.676  0.9565 -0.8547  1.5343
  657MOL0     H90639   5.801  11.608  10.715 -2.7509 -2.9518 -1.6625
  657MOL0     H90640   5.988  11.698  10.820  1.0125 -0.4402  3.3567
  657MOL0     H90641   6.039  11.612  10.674 -0.4872 -2.7745 -1.6673
  657MOL0     H90642   6.135  11.422  10.781 -1.2627 -0.0737  0.2563
  657MOL0     H90643   6.058  11.458  10.925 -3.3387 -0.2089 -1.6960
  657MOL0     H90644   6.256  11.660  10.778  1.4622 -1.0888  0.2151
  657MOL0     H90645   6.317  11.546  10.891 -0.1773 -0.7656  0.2463
  657MOL0     H90646   5.156  11.370  10.880 -2.1326 -1.3004  1.0908
  657MOL0     H90647   4.944  11.269  10.802 -1.2056 -2.1316 -1.8428
  657MOL0     H90648   4.661  11.098  10.583 -1.6670  1.2704  3.8150
  657MOL0     H90649   4.430  11.031  10.549  0.9703  0.3913  0.8903
  657MOL0     H90650   2.895   9.903  10.562  1.5467  1.6986 -1.3741
  657MOL0     H90651   2.684   9.801  10.500  5.2256 -1.6326 -0.6903
  657MOL0     H90652   2.215   9.956  10.406 -0.9381 -2.3847  0.3050
  657MOL0     H90653   1.999   9.901  10.362  2.7440  2.0750  2.9560
  657MOL0     H90654   1.885   9.790   9.941 -1.4473 -0.1576 -1.0902
  657MOL0     H90655   1.735   9.777  10.031 -2.6093  3.0162 -3.0433
  657MOL0     H90656   1.782   9.995   9.894  1.8613  1.6528  0.0089
  657MOL0     H90657   1.894  10.040  10.007 -0.0042 -0.2113  1.4874
  657MOL0     H90658   1.611   9.960  10.106  0.6421  0.3869  4.1670
  657MOL0     H90659   1.732  10.046  10.193  0.3721 -0.1997 -0.3827
  657MOL0     H90660   1.698  10.215   9.971 -1.6158  0.1785  0.1825
  657MOL0     H90661   1.587  10.224  10.096  0.7972 -0.0266 -0.4633
  657MOL0     H90662   1.398  10.028   9.756 -1.3482  0.3957  0.3592
  657MOL0     H90663   2.091   9.830   9.944  1.5624  1.6937 -0.5911
  657MOL0     H90664   2.410   9.970   9.949  1.4582 -0.7949  1.3130
  657MOL0     H90665   2.421   9.799   9.950  1.3874  1.4344  0.9562
  657MOL0     H90666   2.299   9.872   9.855 -0.9760 -4.4678 -0.2414
  658MOL0     O90667   3.358   7.460   0.806  0.1339 -0.3324  0.4616
  658MOL0     C90668   3.288   7.526   0.728  0.1636  0.3977 -0.6681
  658MOL0     O90669   3.319   7.653   0.689  0.0728  0.2256 -0.3779
  658MOL0     C90670   3.428   7.716   0.740  0.2754  0.2177 -0.3391
  658MOL0     C90671   3.560   7.674   0.711 -0.4160  0.3137  0.6218
  658MOL0     C90672   3.664   7.724   0.788  0.3402  0.2873  0.4685
  658MOL0     C90673   3.654   7.827   0.881  0.0365 -0.1168 -0.8509
  658MOL0     O90674   3.733   7.890   0.971 -0.1639 -0.0033 -0.2497
  658MOL0     C90675   3.868   7.846   0.970  0.7422 -0.2637 -0.5411
  658MOL0     C90676   3.937   7.947   1.047  0.2163  0.0146  0.2988
  658MOL0     C90677   4.084   7.906   1.082 -0.3448  1.3980 -0.6678
  658MOL0     C90678   4.147   8.001   1.189  0.1525  0.0900 -0.4696
  658MOL0     C90679   4.286   7.938   1.219  0.5014 -1.1687  0.1485
  658MOL0     C90680   4.366   8.012   1.327 -0.4906 -1.3551 -0.0421
  658MOL0     C90681   4.507   7.962   1.340  0.1062  0.2032 -0.4701
  658MOL0     C90682   4.600   8.037   1.248  0.3517 -0.0153  0.0632
  658MOL0     N90683   4.738   7.988   1.259  0.0592 -0.3332  0.6008
  658MOL0     C90684   4.787   7.890   1.173  0.9185 -0.2177  0.2611
  658MOL0     C90685   4.911   7.856   1.217  1.2537 -0.8381 -1.1578
  658MOL0     C90686   5.000   7.744   1.167  0.6136  0.3212  0.3415
  658MOL0     C90687   5.144   7.781   1.152  0.4606 -0.7129  0.0919
  658MOL0     C90688   5.210   7.679   1.078 -0.8243 -0.1923  0.3200
  658MOL0     C90689   5.360   7.703   1.073 -0.0202  0.2796 -0.3977
  658MOL0     O90690   5.416   7.670   1.200 -1.7295 -0.2213  0.2679
  658MOL0     C90691   5.552   7.640   1.205  0.1396 -0.3526 -0.0053
  658MOL0     C90692   5.647   7.660   1.098  0.4967  0.9761  0.0268
  658MOL0     C90693   5.782   7.629   1.122  0.2508  0.8561 -1.0358
  658MOL0     C90694   5.886   7.671   1.015  0.9121 -0.4210 -0.1271
  658MOL0     C90695   5.828   7.587   1.249  0.3414  0.6607  0.3332
  658MOL0     C90696   5.966   7.562   1.280  0.4118 -0.7647 -0.3718
  658MOL0     O90697   6.064   7.549   1.181  1.0291  0.0018 -0.1896
  658MOL0     C90698   6.175   7.476   1.207  0.0234  0.5733  0.5740
  658MOL0     C90699   6.196   7.362   1.285  0.4269 -0.8045 -0.7218
  658MOL0     C90700   6.322   7.319   1.323  0.7984 -0.4691 -0.7600
  658MOL0     C90701   6.432   7.383   1.276 -0.2179 -0.2528 -0.0780
  658MOL0     O90702   6.553   7.327   1.315  0.0843  0.4410  0.0413
  658MOL0     C90703   6.668   7.361   1.238  0.2143 -0.0946 -0.0551
  658MOL0     C90704   6.791   7.287   1.260 -0.7419  0.5192  0.5352
  658MOL0     C90705   6.904   7.348   1.181  0.1815  1.0601  0.2355
  658MOL0     C90706   7.039   7.292   1.231 -0.0546 -0.5093 -0.7198
  658MOL0     C90707   7.164   7.371   1.180  0.0731 -0.3714  0.1481
  658MOL0     C90708   7.284   7.283   1.206 -0.0354 -0.2513 -0.9930
  658MOL0     C90709   7.407   7.383   1.208 -0.0309  0.5551  0.5449
  658MOL0     C90710   7.541   7.310   1.203  0.1364 -0.4431 -0.5048
  658MOL0    Cl90711   7.672   7.420   1.161  0.0768 -0.4895 -0.1131
  658MOL0     C90712   6.419   7.495   1.189 -0.6037  0.0031  0.6664
  658MOL0     C90713   6.293   7.535   1.157  0.7721  0.1199  0.4885
  658MOL0     O90714   5.995   7.565   1.402 -0.1652 -0.5156  0.0741
  658MOL0     C90715   5.735   7.570   1.350  0.0599 -0.6046 -0.3771
  658MOL0     C90716   5.600   7.590   1.326  0.7586 -0.6210 -0.0022
  658MOL0     N90717   4.936   7.928   1.330 -0.4761 -0.6842  0.8581
  658MOL0     N90718   4.832   8.003   1.353 -1.3247 -0.9299 -0.0824
  658MOL0     C90719   3.523   7.874   0.896 -0.2737 -0.2875  0.1571
  658MOL0     C90720   3.415   7.815   0.825  0.6674  0.3094 -0.0987
  658MOL0     C90721   3.178   7.457   0.656 -0.4736 -0.3724 -0.5802
  658MOL0     C90722   3.202   7.340   0.596 -0.0312 -0.0951  0.9725
  658MOL0     C90723   3.110   7.270   0.506 -0.5310 -0.3942  0.2745
  658MOL0     C90724   2.993   7.337   0.467 -0.3739 -0.0095  0.0808
  658MOL0     O90725   2.917   7.273   0.375  0.4917  0.3372  0.0025
  658MOL0     C90726   2.811   7.201   0.427 -1.1187 -0.4146 -0.3724
  658MOL0     C90727   2.684   7.212   0.338  0.5668  0.7642  0.3906
  658MOL0     C90728   2.614   7.346   0.362  0.5348 -0.0733 -0.1602
  658MOL0     C90729   2.580   7.380   0.508  1.0914  0.2403 -0.5170
  658MOL0     C90730   2.465   7.470   0.510  0.1778  0.1604 -0.4271
  658MOL0     C90731   2.369   7.537   0.507  0.0772  0.1439  0.2174
  658MOL0     C90732   2.960   7.452   0.528  0.1956 -1.0258  0.0311
  658MOL0     C90733   3.049   7.507   0.627 -0.3372 -0.1761  0.2697
  658MOL0     C90734   3.003   7.645   0.683  0.7547  0.3797  0.2276
  658MOL0     H90735   3.580   7.601   0.634  2.4084  1.2937  0.3146
  658MOL0     H90736   3.766   7.686   0.789  0.1417 -0.2505  0.7569
  658MOL0     H90737   3.905   7.838   0.867 -0.2252  0.3242 -0.9554
  658MOL0     H90738   3.878   7.745   1.009 -1.6001 -1.3767 -2.5294
  658MOL0     H90739   3.938   8.042   0.993  3.4369 -0.7465 -1.1830
  658MOL0     H90740   3.884   7.959   1.143 -2.5327  1.9931 -1.3042
  658MOL0     H90741   4.085   7.800   1.110  0.1968  1.8670  1.2036
  658MOL0     H90742   4.144   7.902   0.991  0.6655 -0.3945  0.0298
  658MOL0     H90743   4.168   8.100   1.145 -0.8547  1.6092  2.2249
  658MOL0     H90744   4.094   8.011   1.284 -0.0607 -0.5407 -0.5214
  658MOL0     H90745   4.354   7.939   1.134 -1.1516 -1.7907 -1.2461
  658MOL0     H90746   4.272   7.836   1.257  1.8718 -2.2755 -2.0994
  658MOL0     H90747   4.371   8.121   1.317  0.9286 -1.3131  0.8221
  658MOL0     H90748   4.315   7.992   1.422  1.4123 -2.3434  0.8303
  658MOL0     H90749   4.512   7.854   1.323  2.7242  0.2642 -0.4013
  658MOL0     H90750   4.547   7.977   1.440  1.3374  0.7571 -1.0287
  658MOL0     H90751   4.568   8.033   1.144  0.7814 -2.0135 -0.0439
  658MOL0     H90752   4.606   8.141   1.280 -3.1274  0.4081 -0.2335
  658MOL0     H90753   4.735   7.835   1.095 -1.4767 -1.0962  2.3465
  658MOL0     H90754   4.955   7.706   1.075 -0.2271  1.4343  0.2696
  658MOL0     H90755   4.982   7.670   1.245 -1.9925  1.0896  0.5624
  658MOL0     H90756   5.151   7.877   1.100  0.4334 -1.4393 -1.2783
  658MOL0     H90757   5.186   7.782   1.254 -2.0059  0.3819  1.1748
  658MOL0     H90758   5.194   7.585   1.131 -0.6762  0.5787  1.7688
  658MOL0     H90759   5.171   7.671   0.976 -1.4623  0.2901  0.5257
  658MOL0     H90760   5.404   7.645   0.992  2.7479  0.2560  0.9876
  658MOL0     H90761   5.377   7.809   1.052 -1.1251  0.0072 -2.9568
  658MOL0     H90762   5.614   7.709   1.007 -0.0501  0.7523  0.1007
  658MOL0     H90763   5.956   7.748   1.049  0.0355 -0.0420  0.9091
  658MOL0     H90764   5.827   7.716   0.934 -3.5499 -2.4409  1.6478
  658MOL0     H90765   5.939   7.580   0.986 -1.0341 -2.1185  1.3100
  658MOL0     H90766   6.113   7.325   1.344  0.6090  1.1228  0.8971
  658MOL0     H90767   6.321   7.237   1.394 -2.3919 -1.5910 -1.9236
  658MOL0     H90768   6.638   7.363   1.133  1.6248  0.4339 -0.4754
  658MOL0     H90769   6.688   7.465   1.265 -1.7139  0.8248 -1.8787
  658MOL0     H90770   6.797   7.283   1.370 -1.4878  1.5264  0.6303
  658MOL0     H90771   6.781   7.186   1.219  3.7774  0.0434  0.0939
  658MOL0     H90772   6.897   7.456   1.197  1.6317  1.2140  0.0563
  658MOL0     H90773   6.903   7.337   1.072 -2.7728  1.6854  0.1354
  658MOL0     H90774   7.043   7.191   1.188 -1.0487  0.0962 -2.3178
  658MOL0     H90775   7.047   7.272   1.339  0.4359  0.7051 -0.5239
  658MOL0     H90776   7.159   7.398   1.074 -3.0610  1.2317  0.5898
  658MOL0     H90777   7.166   7.462   1.240 -2.0592 -0.2894  0.1476
  658MOL0     H90778   7.295   7.215   1.121  1.7959  0.7465 -1.6010
  658MOL0     H90779   7.276   7.236   1.305  0.0157  0.9001 -0.4260
  658MOL0     H90780   7.404   7.446   1.298  0.9967  1.0304  0.2609
  658MOL0     H90781   7.406   7.448   1.119  0.4741  0.7157  0.6543
  658MOL0     H90782   7.544   7.243   1.116 -1.3162 -1.3783  0.1409
  658MOL0     H90783   7.562   7.258   1.297 -0.7099 -0.4774 -0.3292
  658MOL0     H90784   6.499   7.552   1.142 -2.9187  2.2155 -0.8638
  658MOL0     H90785   6.287   7.634   1.112  0.6300  0.0762  0.4087
  658MOL0     H90786   5.760   7.531   1.448  1.6824  0.0584 -0.5041
  658MOL0     H90787   5.530   7.584   1.408  0.0613  2.0575 -0.3040
  658MOL0     H90788   3.510   7.947   0.975  3.4008 -1.6293  2.2584
  658MOL0     H90789   3.311   7.844   0.837 -0.0857 -0.9317 -2.7622
  658MOL0     H90790   3.287   7.280   0.626 -1.2437 -0.4067  4.1092
  658MOL0     H90791   3.148   7.174   0.473  1.2922  0.6666 -0.8542
  658MOL0     H90792   2.846   7.099   0.447  1.0106  0.5695  1.3966
  658MOL0     H90793   2.801   7.232   0.532  1.9371  0.7740 -0.3156
  658MOL0     H90794   2.621   7.126   0.364  2.3651 -0.7419 -0.0467
  658MOL0     H90795   2.710   7.199   0.233 -0.1626 -1.0106  0.3998
  658MOL0     H90796   2.660   7.436   0.319 -0.6218  0.7369  0.2483
  658MOL0     H90797   2.520   7.338   0.307 -1.0067  1.2124  2.1361
  658MOL0     H90798   2.667   7.431   0.550  1.6739  0.2514 -1.7105
  658MOL0     H90799   2.568   7.285   0.562  0.9548  1.4630  1.7012
  658MOL0     H90800   2.275   7.589   0.510  0.0559  0.1153  0.0220
  658MOL0     H90801   2.866   7.499   0.504 -2.2027 -4.7450  1.2842
  658MOL0     H90802   3.040   7.731   0.627 -0.2568  1.4420  1.1371
  658MOL0     H90803   2.895   7.640   0.665  0.0180  0.2677  3.9671
  658MOL0     H90804   3.023   7.650   0.790  1.2342 -1.9550  0.3175
  659MOL0     O90805   9.879   8.964  11.297  0.0022  0.2407 -0.4898
  659MOL0     C90806   9.828   8.853  11.319  0.3606 -0.1856  0.7147
  659MOL0     O90807   9.902   8.743  11.349  0.3569 -0.0835 -0.0372
  659MOL0     C90808  10.033   8.752  11.369 -0.0082 -0.7724  0.1484
  659MOL0     C90809  10.088   8.724  11.489 -0.2799 -0.4005 -0.5795
  659MOL0     C90810  10.228   8.728  11.510 -0.1691  0.0462  0.0214
  659MOL0     C90811  10.322   8.753  11.415  0.9896  0.5993  0.0854
  659MOL0     O90812  10.456   8.750  11.457 -0.0449  0.4111 -0.3077
  659MOL0     C90813  10.539   8.778  11.342  0.2735  0.9930 -0.3918
  659MOL0     C90814  10.688   8.779  11.380 -0.6698  0.5560 -0.4069
  659MOL0     C90815  10.728   8.644  11.444 -0.3000 -0.9318  0.0255
  659MOL0     C90816  10.882   8.637  11.446 -0.5647  0.6485  0.0326
  659MOL0     C90817  10.934   8.505  11.502 -0.5724 -0.9601 -0.8031
  659MOL0     C90818  11.063   8.506  11.588 -0.0327  0.0076  0.0379
  659MOL0     C90819  11.174   8.593  11.525  0.5944  0.3164 -0.4503
  659MOL0     C90820  11.316   8.539  11.560 -0.1146 -0.1808 -0.1054
  659MOL0     N90821  11.340   8.403  11.507 -0.4359 -0.1125  0.5543
  659MOL0     C90822  11.363   8.306  11.597  0.0057  0.3246  0.7425
  659MOL0     C90823  11.446   8.224  11.521 -0.2824  0.0356 -0.8839
  659MOL0     C90824  11.519   8.098  11.579 -0.3287  0.0940  0.3658
  659MOL0     C90825  11.556   8.121  11.733  0.1518 -0.2188 -0.1140
  659MOL0     C90826  11.629   7.992  11.772  0.2099  0.1191  0.4197
  659MOL0     C90827  11.630   7.995  11.924 -0.4385  0.3286 -0.2922
  659MOL0     O90828  11.743   7.912  11.974 -0.8732  0.5580  0.5359
  659MOL0     C90829  11.876   7.953  11.985  0.1915 -0.7288 -0.1043
  659MOL0     C90830  11.974   7.863  12.026  0.2649 -0.0373 -0.2721
  659MOL0     C90831  12.110   7.896  12.022 -0.4736  0.1216 -0.8513
  659MOL0     C90832  12.203   7.795  12.083  0.1688  0.7376  0.4242
  659MOL0     C90833  12.157   8.013  11.967  0.5186 -0.1452  0.5881
  659MOL0     C90834  12.298   8.060  11.962  0.5817  0.1110  0.0700
  659MOL0     O90835  12.327   8.171  11.887 -0.4470 -0.1755  0.4528
  659MOL0     C90836  12.459   8.221  11.904  0.4037 -0.0152  0.3796
  659MOL0     C90837  12.504   8.280  12.023 -1.1227 -0.0018  0.5314
  659MOL0     C90838  12.627   8.343  12.045  0.3192 -0.0041  0.2841
  659MOL0     C90839  12.724   8.302  11.950  0.4869 -1.1090  0.7091
  659MOL0     O90840  12.854   8.338  11.972 -0.0238 -0.6057  0.6863
  659MOL0     C90841  12.900   8.456  11.907  0.0109 -1.3354 -0.3412
  659MOL0     C90842  13.058   8.471  11.927  0.3732 -0.0530  0.0491
  659MOL0     C90843  13.111   8.599  11.870  0.1343 -0.0800 -0.4047
  659MOL0     C90844  13.070   8.733  11.938  0.0420 -0.3403  0.6033
  659MOL0     C90845  13.166   8.838  11.896 -0.3097  0.6085  0.0967
  659MOL0     C90846  13.148   8.872  11.745  0.0598 -0.8949  0.7880
  659MOL0     C90847  13.192   9.010  11.696  1.2022  0.2331  0.5543
  659MOL0     C90848  13.338   9.051  11.695  0.8061 -0.3509 -0.1807
  659MOL0    Cl90849  13.419   8.974  11.569  0.0077 -0.3074 -0.1197
  659MOL0     C90850  12.691   8.248  11.828  0.0127  0.1307  0.4048
  659MOL0     C90851  12.554   8.214  11.802 -0.9092  0.4005  0.0179
  659MOL0     O90852  12.369   8.008  12.053 -0.1794  0.1599 -0.5611
  659MOL0     C90853  12.062   8.102  11.909  0.1177 -0.6193  0.2159
  659MOL0     C90854  11.918   8.073  11.920 -0.6261 -0.5241  0.2798
  659MOL0     N90855  11.458   8.274  11.398  0.2174 -0.3630  0.8353
  659MOL0     N90856  11.400   8.386  11.389  0.1690  0.4954  0.8097
  659MOL0     C90857  10.267   8.778  11.285  0.4992 -0.4529  0.3192
  659MOL0     C90858  10.126   8.774  11.266 -0.7197 -0.2668 -0.0158
  659MOL0     C90859   9.681   8.837  11.328 -0.3193  0.3422  0.1097
  659MOL0     C90860   9.628   8.708  11.367 -0.1564 -0.2085  0.1030
  659MOL0     C90861   9.497   8.681  11.377 -0.3880 -0.0944 -0.7447
  659MOL0     C90862   9.410   8.789  11.369  0.3095  0.2032 -0.2152
  659MOL0     O90863   9.280   8.756  11.389 -0.5153 -0.1820  0.1971
  659MOL0     C90864   9.174   8.858  11.400 -0.3281  0.4064  0.2463
  659MOL0     C90865   9.108   8.894  11.273 -0.1267  0.1838 -0.2201
  659MOL0     C90866   9.078   8.772  11.183  0.1105 -0.1162 -0.0101
  659MOL0     C90867   8.968   8.682  11.243 -1.1450 -0.3099  0.7578
  659MOL0     C90868   8.985   8.540  11.197  0.0662  0.5329 -0.0177
  659MOL0     C90869   8.985   8.428  11.168 -0.3398  0.6773 -0.1452
  659MOL0     C90870   9.456   8.918  11.332  0.0548  0.5237 -0.0671
  659MOL0     C90871   9.587   8.934  11.299 -0.8878 -1.0321  0.4456
  659MOL0     C90872   9.610   9.065  11.225  0.3138  0.6386  0.9463
  659MOL0     H90873  10.031   8.704  11.579  0.0872 -0.2614 -0.3147
  659MOL0     H90874  10.258   8.720  11.614 -1.2700  1.0828  0.4463
  659MOL0     H90875  10.508   8.873  11.298 -1.0277  0.8247  0.0991
  659MOL0     H90876  10.528   8.694  11.274 -0.9745  0.2760  0.6418
  659MOL0     H90877  10.754   8.792  11.294  4.8710 -0.8697  3.1677
  659MOL0     H90878  10.708   8.863  11.447 -4.3873  0.7012  0.7383
  659MOL0     H90879  10.678   8.651  11.541 -1.2446 -0.3417 -0.4814
  659MOL0     H90880  10.680   8.560  11.392 -1.0914 -0.4747 -0.0061
  659MOL0     H90881  10.919   8.669  11.349  0.8560  3.2781  1.3318
  659MOL0     H90882  10.911   8.721  11.509  0.2628 -0.6969  1.5112
  659MOL0     H90883  10.962   8.437  11.421  0.6374 -0.2142 -1.0370
  659MOL0     H90884  10.858   8.457  11.565  0.9448  0.8160  2.6718
  659MOL0     H90885  11.038   8.547  11.686 -2.1730  0.3755 -0.6052
  659MOL0     H90886  11.097   8.403  11.597 -1.4145 -0.6467 -1.6829
  659MOL0     H90887  11.161   8.698  11.551  3.5922  0.7095 -0.2450
  659MOL0     H90888  11.155   8.577  11.419 -1.4000 -5.6887  0.3907
  659MOL0     H90889  11.385   8.614  11.521 -2.3259  2.0864  0.0978
  659MOL0     H90890  11.326   8.546  11.668  1.4043 -3.7694  0.1156
  659MOL0     H90891  11.334   8.310  11.701  0.6652  1.5784  0.9050
  659MOL0     H90892  11.611   8.073  11.527  0.0126  1.8089  0.0880
  659MOL0     H90893  11.452   8.012  11.582 -0.3878  0.1552  1.8621
  659MOL0     H90894  11.619   8.208  11.752 -2.2580  1.1924  2.1159
  659MOL0     H90895  11.460   8.136  11.783 -1.5786  1.9127 -3.6349
  659MOL0     H90896  11.588   7.896  11.740  2.4082 -1.2241  1.4232
  659MOL0     H90897  11.731   7.993  11.733  1.7797  1.2587  4.1551
  659MOL0     H90898  11.638   8.095  11.967  2.3510  0.2164 -0.3544
  659MOL0     H90899  11.530   7.964  11.955 -1.1815  0.7505 -2.1328
  659MOL0     H90900  11.953   7.765  12.068  1.3619  0.2312  0.9731
  659MOL0     H90901  12.288   7.773  12.019  1.2384 -1.5187  2.4632
  659MOL0     H90902  12.153   7.698  12.093 -1.5678  1.5206 -0.2414
  659MOL0     H90903  12.225   7.828  12.185 -0.9946  1.4749  0.4625
  659MOL0     H90904  12.426   8.274  12.098 -2.5374  0.5142 -0.8401
  659MOL0     H90905  12.657   8.392  12.137  0.9667 -1.2056  0.7374
  659MOL0     H90906  12.883   8.458  11.799  1.1726 -2.4278 -0.5555
  659MOL0     H90907  12.844   8.536  11.957  3.7852  2.4649 -1.5551
  659MOL0     H90908  13.080   8.466  12.034 -1.2142 -1.9165  0.3382
  659MOL0     H90909  13.108   8.394  11.867 -1.5391 -0.4506 -1.1424
  659MOL0     H90910  13.082   8.605  11.764 -0.0113 -0.8707 -0.4177
  659MOL0     H90911  13.220   8.593  11.872  0.1506  0.2704 -0.2106
  659MOL0     H90912  13.064   8.709  12.044  0.2950  2.7651  1.4256
  659MOL0     H90913  12.968   8.762  11.912  0.0493  0.3780  1.3623
  659MOL0     H90914  13.145   8.927  11.956  0.4064  1.6450 -1.1466
  659MOL0     H90915  13.270   8.814  11.920 -0.2007  0.7197 -0.2550
  659MOL0     H90916  13.042   8.870  11.719 -0.6649  2.5576  2.8160
  659MOL0     H90917  13.187   8.798  11.675 -1.8154 -1.6041  0.4133
  659MOL0     H90918  13.127   9.074  11.756  1.3621 -1.3529  2.5551
  659MOL0     H90919  13.153   9.024  11.595  3.7323 -0.4764 -0.5997
  659MOL0     H90920  13.375   9.022  11.793  0.0546  0.8835  0.4989
  659MOL0     H90921  13.345   9.160  11.682  0.7262 -0.0798  1.7914
  659MOL0     H90922  12.772   8.239  11.757 -0.4506 -2.6094  0.0957
  659MOL0     H90923  12.524   8.157  11.715  1.9064 -0.8587 -0.2128
  659MOL0     H90924  12.090   8.185  11.845 -2.9415 -0.9327 -1.7636
  659MOL0     H90925  11.851   8.154  11.893  0.0021  0.1580  0.6974
  659MOL0     H90926  10.333   8.779  11.198  0.4214  2.5703  0.1867
  659MOL0     H90927  10.087   8.784  11.166 -1.9602  2.4509  0.6260
  659MOL0     H90928   9.697   8.625  11.374 -0.6569 -1.0111 -2.8856
  659MOL0     H90929   9.462   8.583  11.409  1.2356 -0.2757  0.6593
  659MOL0     H90930   9.112   8.821  11.482  1.8637 -0.0289  1.7889
  659MOL0     H90931   9.217   8.950  11.441 -0.7547  1.3511 -1.3413
  659MOL0     H90932   9.168   8.959  11.209 -0.6054  0.7620 -0.0933
  659MOL0     H90933   9.013   8.944  11.296 -0.0413 -0.6784  2.2340
  659MOL0     H90934   9.033   8.811  11.091  0.8410 -1.5484 -1.0047
  659MOL0     H90935   9.167   8.723  11.143  0.1023 -0.1159 -0.0273
  659MOL0     H90936   8.867   8.710  11.213 -1.1684  0.2181  1.3175
  659MOL0     H90937   8.971   8.676  11.352 -2.5789 -0.8451  0.7787
  659MOL0     H90938   8.995   8.321  11.159 -0.7920  0.8065 -3.7562
  659MOL0     H90939   9.376   8.988  11.312 -1.4109 -1.4888 -1.5509
  659MOL0     H90940   9.669   9.046  11.135 -0.2311 -1.2403  0.9402
  659MOL0     H90941   9.516   9.108  11.190 -0.5923 -2.1821 -0.4293
  659MOL0     H90942   9.661   9.130  11.296  1.7047 -0.1319  0.6977
  660MOL0     O90943  10.317   9.455   8.540  0.0148  0.6424 -0.4533
  660MOL0     C90944  10.250   9.451   8.437 -0.3647 -0.9753 -0.2254
  660MOL0     O90945  10.298   9.495   8.312  0.1368 -0.3783 -0.0742
  660MOL0     C90946  10.435   9.496   8.293 -0.0204 -0.5777  0.1896
  660MOL0     C90947  10.487   9.615   8.242  0.0287 -0.6863 -0.3366
  660MOL0     C90948  10.617   9.625   8.194  0.0132 -1.3829 -0.0987
  660MOL0     C90949  10.701   9.506   8.206 -0.5056 -0.2033  0.2394
  660MOL0     O90950  10.826   9.519   8.140  0.2188  0.3277 -0.7129
  660MOL0     C90951  10.927   9.426   8.187 -0.1580  0.2085 -0.2205
  660MOL0     C90952  11.049   9.510   8.219  0.1657  0.3654 -0.7604
  660MOL0     C90953  11.162   9.434   8.292  0.8143  0.0770 -0.3885
  660MOL0     C90954  11.251   9.539   8.360  0.8711  0.0147  1.2140
  660MOL0     C90955  11.380   9.488   8.423  0.6373  0.1914  0.3098
  660MOL0     C90956  11.463   9.592   8.494  0.2018  0.8750  0.5399
  660MOL0     C90957  11.598   9.532   8.540  0.0286  0.4453  0.8413
  660MOL0     C90958  11.675   9.629   8.627  0.1365 -0.0271 -0.0953
  660MOL0     N90959  11.803   9.574   8.665 -0.1719 -0.2329  0.3311
  660MOL0     C90960  11.925   9.610   8.602 -0.1179  0.1329 -0.1752
  660MOL0     C90961  12.013   9.529   8.666  0.7326  0.2653 -0.7940
  660MOL0     C90962  12.155   9.529   8.637 -0.6604 -0.6498 -0.3833
  660MOL0     C90963  12.224   9.579   8.758 -0.1714 -0.5352  0.1102
  660MOL0     C90964  12.201   9.734   8.791  0.4395  0.0998  0.4722
  660MOL0     C90965  12.328   9.819   8.813 -0.4203 -0.0689  0.3936
  660MOL0     O90966  12.375   9.825   8.953  0.3246 -0.2934  0.1492
  660MOL0     C90967  12.489   9.766   8.992  0.9787 -0.1103 -0.6419
  660MOL0     C90968  12.497   9.628   9.019  0.1821  0.4950  0.3823
  660MOL0     C90969  12.618   9.568   9.059 -0.3134  0.5374  0.2558
  660MOL0     C90970  12.618   9.413   9.072 -0.2286  0.0797 -0.0764
  660MOL0     C90971  12.740   9.650   9.067  0.7877  0.2124  0.4678
  660MOL0     C90972  12.878   9.596   9.097 -0.1955 -0.1579  0.0651
  660MOL0     O90973  12.896   9.462   9.080 -0.8407  0.6121  0.1319
  660MOL0     C90974  13.012   9.411   9.133 -0.1915  0.1263  0.3668
  660MOL0     C90975  13.122   9.390   9.051  0.4851  0.1396 -0.0254
  660MOL0     C90976  13.241   9.352   9.111 -0.1574 -0.1085 -0.6957
  660MOL0     C90977  13.247   9.310   9.251  0.0291 -0.2871  0.6336
  660MOL0     O90978  13.368   9.262   9.304  0.1051  0.5792  0.4317
  660MOL0     C90979  13.471   9.205   9.223  0.2331 -0.1830  0.0941
  660MOL0     C90980  13.583   9.175   9.320  0.3126 -0.5940  0.0849
  660MOL0     C90981  13.684   9.086   9.247 -0.5326 -0.7648  0.1144
  660MOL0     C90982  13.818   9.069   9.326 -0.0283 -0.5721  0.2631
  660MOL0     C90983  13.916   8.993   9.244  0.6457 -0.4411 -0.3761
  660MOL0     C90984  14.046   8.989   9.322 -0.4804  0.2594 -0.0475
  660MOL0     C90985  14.144   8.908   9.235  0.2623 -0.2841 -0.1196
  660MOL0     C90986  14.284   8.913   9.281 -0.0175 -0.1037 -0.1149
  660MOL0    Cl90987  14.312   8.833   9.447  0.2138  0.2406  0.0121
  660MOL0     C90988  13.141   9.349   9.329  0.2565 -0.9370 -0.1129
  660MOL0     C90989  13.021   9.396   9.271 -0.1833 -1.2291 -0.0613
  660MOL0     O90990  12.964   9.671   9.139 -0.2246  0.6458 -0.2003
  660MOL0     C90991  12.723   9.795   9.044  0.0673 -0.2923  0.6642
  660MOL0     C90992  12.598   9.849   9.009  0.3323  0.3510  0.7418
  660MOL0     N90993  11.949   9.453   8.762  0.5470 -0.5263 -0.2094
  660MOL0     N90994  11.823   9.486   8.767  0.3016  0.8974  1.0329
  660MOL0     C90995  10.642   9.387   8.254 -0.2522  0.4333  0.5187
  660MOL0     C90996  10.512   9.384   8.295  0.9805 -0.1874  0.4511
  660MOL0     C90997  10.112   9.426   8.446  0.0815  0.1778 -0.8989
  660MOL0     C90998  10.026   9.471   8.348 -0.4877  0.7312 -0.8784
  660MOL0     C90999   9.885   9.458   8.360  0.2619  0.8688 -0.2219
  660MOL0     C91000   9.828   9.421   8.478  0.1048 -0.2767  0.4728
  660MOL0     O91001   9.695   9.445   8.509 -0.2497  0.3457 -0.0107
  660MOL0     C91002   9.603   9.475   8.405  0.1845  0.4980 -0.4300
  660MOL0     C91003   9.572   9.348   8.310  0.2537 -0.1653 -0.3327
  660MOL0     C91004   9.524   9.231   8.392  0.2024  0.1104 -0.2890
  660MOL0     C91005   9.388   9.245   8.458  0.1642  1.1768  0.6736
  660MOL0     C91006   9.290   9.288   8.361  0.4402 -0.1160  0.3106
  660MOL0     C91007   9.195   9.316   8.291  0.4442 -0.4241  0.0794
  660MOL0     C91008   9.913   9.380   8.580 -0.4281  0.6200 -0.2295
  660MOL0     C91009  10.055   9.366   8.561 -0.5211 -0.1853 -0.1440
  660MOL0     C91010  10.137   9.302   8.675 -0.5421 -0.2289 -0.8563
  660MOL0     H91011  10.418   9.699   8.229 -2.4613 -2.4184  0.8454
  660MOL0     H91012  10.646   9.721   8.152 -3.6371  0.3119  0.8633
  660MOL0     H91013  10.949   9.338   8.126 -1.3928 -3.6071  4.2466
  660MOL0     H91014  10.890   9.382   8.280 -1.5252  2.8838  0.6103
  660MOL0     H91015  11.090   9.561   8.131  1.7833  3.3582  1.5128
  660MOL0     H91016  11.021   9.594   8.284 -0.5112 -0.5087  0.0927
  660MOL0     H91017  11.120   9.355   8.354 -1.0548  0.6351 -0.8989
  660MOL0     H91018  11.233   9.384   8.226  1.8424 -3.6690  3.1091
  660MOL0     H91019  11.279   9.604   8.276 -1.8326 -0.4047 -0.1242
  660MOL0     H91020  11.189   9.589   8.434  0.4810  3.5292 -1.2387
  660MOL0     H91021  11.428   9.443   8.336 -2.3441 -1.4255 -0.6497
  660MOL0     H91022  11.350   9.403   8.486 -2.4442  0.0466 -1.1689
  660MOL0     H91023  11.476   9.678   8.428  2.4312  1.8282  2.0854
  660MOL0     H91024  11.411   9.622   8.585  0.2665  0.2372  0.7945
  660MOL0     H91025  11.651   9.528   8.445 -0.5349  1.5022  0.4616
  660MOL0     H91026  11.589   9.431   8.582 -3.0299 -0.9191 -2.5360
  660MOL0     H91027  11.678   9.725   8.574 -0.0633  0.0008 -0.0573
  660MOL0     H91028  11.607   9.636   8.712 -1.4676 -2.0676 -1.1037
  660MOL0     H91029  11.952   9.679   8.523 -0.1966  0.8318  0.3973
  660MOL0     H91030  12.184   9.601   8.560 -2.9838  2.5664  1.5156
  660MOL0     H91031  12.190   9.427   8.619  3.7936  0.8928 -2.0316
  660MOL0     H91032  12.203   9.514   8.844 -0.9415  0.7530  0.9183
  660MOL0     H91033  12.331   9.561   8.739 -0.1438 -0.8505  0.5315
  660MOL0     H91034  12.145   9.770   8.705 -0.0657 -1.9127 -0.1049
  660MOL0     H91035  12.137   9.746   8.879 -3.2709  1.8579 -2.2318
  660MOL0     H91036  12.402   9.771   8.748 -1.3943 -0.6312 -0.3306
  660MOL0     H91037  12.307   9.914   8.764 -2.3891 -0.8514 -0.4110
  660MOL0     H91038  12.401   9.578   9.009 -1.3647  3.5653 -2.0993
  660MOL0     H91039  12.516   9.379   9.088 -1.6380  1.5708 -4.4472
  660MOL0     H91040  12.673   9.383   9.161 -3.9993 -1.5462  1.9178
  660MOL0     H91041  12.651   9.368   8.978  1.2295 -0.1823  0.5343
  660MOL0     H91042  13.116   9.418   8.947  0.5508  1.0811  0.2186
  660MOL0     H91043  13.332   9.347   9.052 -0.4537  2.9029 -1.5530
  660MOL0     H91044  13.450   9.115   9.165  2.2072 -2.5066  2.6802
  660MOL0     H91045  13.519   9.276   9.155 -0.0658  0.3111  0.3958
  660MOL0     H91046  13.623   9.270   9.357  0.5687 -1.1068  1.1494
  660MOL0     H91047  13.547   9.128   9.412  1.8949  2.8525  2.6827
  660MOL0     H91048  13.715   9.142   9.157 -0.7979  4.8652  3.0506
  660MOL0     H91049  13.637   9.000   9.200  0.0109 -0.4642 -1.0271
  660MOL0     H91050  13.799   9.014   9.419 -0.3074 -2.9127 -1.0877
  660MOL0     H91051  13.862   9.164   9.356 -1.9977  0.9045 -1.2718
  660MOL0     H91052  13.872   8.894   9.222 -1.7537  0.7817 -1.5279
  660MOL0     H91053  13.929   9.045   9.148 -2.5806  0.5213 -0.4140
  660MOL0     H91054  14.037   8.944   9.421 -0.8287  2.8328  1.1824
  660MOL0     H91055  14.086   9.090   9.336  2.2850 -0.9574  1.6239
  660MOL0     H91056  14.131   8.948   9.134  0.6155  1.3223  0.4328
  660MOL0     H91057  14.126   8.800   9.235  0.5240 -0.3708 -2.0473
  660MOL0     H91058  14.308   9.020   9.292 -1.2157  0.3179 -1.3787
  660MOL0     H91059  14.350   8.863   9.210 -1.6808 -1.4922 -0.7296
  660MOL0     H91060  13.132   9.335   9.436 -0.0305  0.6325  0.0865
  660MOL0     H91061  12.940   9.437   9.331 -0.4861 -1.1343 -0.5303
  660MOL0     H91062  12.818   9.848   9.040 -0.0945 -0.1166 -1.9720
  660MOL0     H91063  12.580   9.956   9.002  1.5871  0.5382  0.1933
  660MOL0     H91064  10.706   9.300   8.244  0.5019  1.2003 -2.1955
  660MOL0     H91065  10.477   9.283   8.315 -2.1044  0.4036 -1.2334
  660MOL0     H91066  10.067   9.520   8.260  1.2089 -0.6260 -0.8890
  660MOL0     H91067   9.823   9.513   8.289 -0.4257  3.3274  2.1162
  660MOL0     H91068   9.506   9.500   8.450  0.5108 -2.7103  2.5020
  660MOL0     H91069   9.643   9.557   8.345  1.0935 -1.1487 -2.1979
  660MOL0     H91070   9.655   9.322   8.244 -0.4870  0.2872 -1.4750
  660MOL0     H91071   9.491   9.381   8.244 -1.5672 -0.8972  1.4319
  660MOL0     H91072   9.530   9.145   8.326 -0.5523 -0.5527  0.4893
  660MOL0     H91073   9.596   9.206   8.471 -0.5703 -0.0912  0.3625
  660MOL0     H91074   9.387   9.316   8.541  1.3073  3.1641 -0.9132
  660MOL0     H91075   9.365   9.142   8.488 -0.1201  0.8142 -0.7000
  660MOL0     H91076   9.104   9.327   8.236 -0.9026 -0.4956  2.1585
  660MOL0     H91077   9.862   9.346   8.670  1.1391  1.6049  1.0922
  660MOL0     H91078  10.219   9.253   8.622 -2.0061 -1.4821 -2.0566
  660MOL0     H91079  10.173   9.373   8.750  2.1425 -2.2299 -0.1027
  660MOL0     H91080  10.080   9.232   8.737 -2.1635  0.9366 -0.9445
  661MOL0     O91081   9.441   2.268   4.475  0.2775 -0.4019 -0.0965
  661MOL0     C91082   9.363   2.178   4.511 -0.8044 -0.1447  0.2306
  661MOL0     O91083   9.395   2.066   4.583  0.2229  0.2364 -0.2823
  661MOL0     C91084   9.518   2.014   4.587 -0.3727  0.0014  0.1243
  661MOL0     C91085   9.547   1.913   4.680  0.3782 -0.3347  0.5255
  661MOL0     C91086   9.665   1.837   4.662  0.2855 -0.3300 -0.3902
  661MOL0     C91087   9.768   1.882   4.579  0.1560  0.2442 -0.3054
  661MOL0     O91088   9.889   1.825   4.592 -0.7317  0.7056  0.3177
  661MOL0     C91089   9.991   1.924   4.599  0.3500  0.2686 -0.0706
  661MOL0     C91090  10.114   1.860   4.661 -0.0860  0.0793  0.0625
  661MOL0     C91091  10.111   1.839   4.810  0.8122 -0.2826 -0.5077
  661MOL0     C91092  10.141   1.962   4.890  0.4421  0.0356 -0.8866
  661MOL0     C91093  10.151   1.947   5.044  0.0812  0.3990 -0.6632
  661MOL0     C91094  10.210   2.069   5.120 -0.4183  0.0631 -0.4856
  661MOL0     C91095  10.269   2.020   5.259 -0.4659 -0.3235  0.3279
  661MOL0     C91096  10.159   2.011   5.370 -0.0738  0.2541  0.2223
  661MOL0     N91097  10.223   1.977   5.494  0.6338  0.0354 -0.0446
  661MOL0     C91098  10.259   1.852   5.524  0.3971 -0.5428 -0.1424
  661MOL0     C91099  10.275   1.864   5.665 -0.4605  0.1033  0.7482
  661MOL0     C91100  10.306   1.756   5.763  0.1208 -0.0525 -0.6779
  661MOL0     C91101  10.186   1.718   5.847  0.2580  0.7741  0.2722
  661MOL0     C91102  10.064   1.662   5.771 -0.8432  0.4067  1.2603
  661MOL0     C91103   9.958   1.622   5.871 -0.2535  0.5226 -0.0376
  661MOL0     O91104   9.835   1.595   5.803  0.7633 -0.1564 -0.7770
  661MOL0     C91105   9.722   1.574   5.877  0.4336  0.3213 -0.0178
  661MOL0     C91106   9.728   1.568   6.017  0.3024  0.0388  0.1192
  661MOL0     C91107   9.611   1.533   6.090 -0.1397  0.9330 -1.0041
  661MOL0     C91108   9.625   1.528   6.249  0.1889 -0.5598  0.3666
  661MOL0     C91109   9.486   1.515   6.021  0.3837  0.4503 -0.7682
  661MOL0     C91110   9.353   1.493   6.093 -0.5987 -0.6115  0.1693
  661MOL0     O91111   9.340   1.530   6.219 -0.6794 -0.0893 -0.0502
  661MOL0     C91112   9.237   1.485   6.287  0.7314 -0.4013  0.0275
  661MOL0     C91113   9.200   1.569   6.396  0.0738  0.1381 -1.1081
  661MOL0     C91114   9.085   1.535   6.472 -0.9040  0.4651  0.9928
  661MOL0     C91115   9.016   1.412   6.453 -0.0157 -0.6951  0.2448
  661MOL0     O91116   8.917   1.361   6.540  0.1158 -0.0966  0.3306
  661MOL0     C91117   8.783   1.398   6.515 -0.3064 -0.1579 -0.2981
  661MOL0     C91118   8.724   1.318   6.403  0.1175  0.2146 -0.0670
  661MOL0     C91119   8.571   1.325   6.397 -0.2785 -0.1083 -1.2986
  661MOL0     C91120   8.504   1.464   6.406 -0.0925 -0.5211  0.2451
  661MOL0     C91121   8.423   1.481   6.537 -0.3819  0.2067 -0.1845
  661MOL0     C91122   8.297   1.395   6.522  0.0051 -0.2509 -0.9978
  661MOL0     C91123   8.189   1.469   6.446  0.0561 -0.3892 -0.5445
  661MOL0     C91124   8.071   1.373   6.420  0.6183  0.1259  0.3096
  661MOL0    Cl91125   8.004   1.301   6.568 -0.0052 -0.0272 -0.2042
  661MOL0     C91126   9.053   1.331   6.342 -0.2188  1.2280  0.9369
  661MOL0     C91127   9.161   1.373   6.261  0.3929  0.5247  0.2677
  661MOL0     O91128   9.260   1.455   6.016 -0.2562  0.3446 -0.8143
  661MOL0     C91129   9.485   1.513   5.878 -0.5391  0.1100  0.2923
  661MOL0     C91130   9.599   1.552   5.808 -0.3359  0.3550 -0.6793
  661MOL0     N91131  10.253   1.995   5.701  0.4768  0.3102 -0.1233
  661MOL0     N91132  10.232   2.063   5.597  0.1376  0.4416 -0.6401
  661MOL0     C91133   9.737   1.983   4.500 -1.0160 -0.6788  0.3515
  661MOL0     C91134   9.612   2.042   4.500 -0.4153  0.6469 -0.6430
  661MOL0     C91135   9.223   2.188   4.475  0.3998 -0.3061  0.2098
  661MOL0     C91136   9.144   2.069   4.461 -0.4400 -0.1174  1.0897
  661MOL0     C91137   9.011   2.076   4.418  0.0804 -0.1037  0.5475
  661MOL0     C91138   8.949   2.195   4.401  0.1243  0.2805 -0.1152
  661MOL0     O91139   8.820   2.210   4.348  0.4174  0.6112  0.5922
  661MOL0     C91140   8.729   2.100   4.360 -0.1776  0.6003 -0.0448
  661MOL0     C91141   8.633   2.144   4.243 -0.7844 -0.5537 -0.4069
  661MOL0     C91142   8.502   2.068   4.230  0.2606  0.2088  0.3199
  661MOL0     C91143   8.520   1.911   4.248  0.6421 -0.2336  0.8744
  661MOL0     C91144   8.567   1.837   4.128  0.1651  0.4895 -0.0433
  661MOL0     C91145   8.622   1.778   4.038  0.4168 -0.3626  0.2834
  661MOL0     C91146   9.022   2.311   4.435  0.3823 -1.0293  0.0979
  661MOL0     C91147   9.152   2.317   4.468  0.8236 -0.3832 -0.4925
  661MOL0     C91148   9.216   2.445   4.499  0.8548  0.2343  0.4996
  661MOL0     H91149   9.465   1.891   4.748 -0.8750  1.7570 -0.2363
  661MOL0     H91150   9.661   1.737   4.705 -1.4650  0.2168  0.8406
  661MOL0     H91151   9.959   2.009   4.661  0.0718  0.9633 -1.1357
  661MOL0     H91152  10.011   1.967   4.501 -0.1277 -0.5367 -0.5275
  661MOL0     H91153  10.135   1.766   4.608  0.7946  0.3182 -0.0286
  661MOL0     H91154  10.195   1.929   4.638 -0.8592  1.1353  0.4286
  661MOL0     H91155  10.010   1.803   4.828  0.2670  1.3835 -0.0973
  661MOL0     H91156  10.186   1.761   4.826  1.8867  0.8762  0.3777
  661MOL0     H91157  10.238   1.991   4.848  1.7904 -0.9662  1.3277
  661MOL0     H91158  10.059   2.032   4.874 -0.4412 -1.3253 -2.7248
  661MOL0     H91159  10.212   1.857   5.061  1.9215  0.7599 -4.3448
  661MOL0     H91160  10.050   1.938   5.084  0.2628  0.6382 -0.1527
  661MOL0     H91161  10.287   2.108   5.053  0.7921 -0.7795  0.3907
  661MOL0     H91162  10.135   2.149   5.115  1.4353  1.8139 -4.6029
  661MOL0     H91163  10.346   2.089   5.297 -1.6632  0.8657  0.6609
  661MOL0     H91164  10.331   1.931   5.243  1.6236  0.7017  2.1278
  661MOL0     H91165  10.107   2.105   5.388  0.4720  0.6834 -0.3910
  661MOL0     H91166  10.091   1.929   5.344  1.3433 -0.7811 -0.4182
  661MOL0     H91167  10.267   1.769   5.455  0.5390 -2.0670  1.6586
  661MOL0     H91168  10.377   1.796   5.837  1.8512 -3.7374 -0.1012
  661MOL0     H91169  10.350   1.664   5.722  1.7626  0.1795  0.4570
  661MOL0     H91170  10.219   1.642   5.918 -1.2144  0.9962  1.2301
  661MOL0     H91171  10.150   1.804   5.905  0.4364  0.6792  0.5255
  661MOL0     H91172  10.022   1.734   5.700  1.0329 -0.8719 -1.3250
  661MOL0     H91173  10.094   1.572   5.716 -0.7177  2.2549 -1.9411
  661MOL0     H91174   9.993   1.536   5.929  1.7858  1.7122  0.6121
  661MOL0     H91175   9.936   1.704   5.940 -4.5676 -0.1269 -0.3232
  661MOL0     H91176   9.821   1.584   6.070  0.3062 -0.0149  0.1275
  661MOL0     H91177   9.590   1.616   6.303 -0.8721 -0.0516 -1.0839
  661MOL0     H91178   9.733   1.533   6.267  0.0421  0.1744  1.0819
  661MOL0     H91179   9.571   1.439   6.282 -3.0950  1.6636  1.4698
  661MOL0     H91180   9.264   1.656   6.409 -1.9187  1.5641 -0.4483
  661MOL0     H91181   9.066   1.599   6.558  0.5189  1.7057  0.4138
  661MOL0     H91182   8.712   1.370   6.593 -2.8764  0.0289 -2.4305
  661MOL0     H91183   8.787   1.507   6.501 -1.1525 -0.1338 -0.3935
  661MOL0     H91184   8.771   1.339   6.306  1.8419 -3.1807 -0.0929
  661MOL0     H91185   8.755   1.216   6.426  0.1113  0.1778 -0.2244
  661MOL0     H91186   8.533   1.259   6.476 -1.5847  1.2859 -0.7153
  661MOL0     H91187   8.551   1.289   6.295  3.4041 -1.3214 -1.7463
  661MOL0     H91188   8.441   1.461   6.316  1.8314  2.1414 -1.3600
  661MOL0     H91189   8.580   1.541   6.389 -1.6903  0.9292 -0.7807
  661MOL0     H91190   8.489   1.445   6.616  1.3233  0.0851 -1.6082
  661MOL0     H91191   8.406   1.588   6.552 -0.6781  0.3158 -1.2398
  661MOL0     H91192   8.265   1.369   6.624  1.7262 -0.2215 -0.4077
  661MOL0     H91193   8.312   1.296   6.478  0.5352 -1.1704  1.0914
  661MOL0     H91194   8.227   1.498   6.347  2.2510  0.7277  0.5616
  661MOL0     H91195   8.160   1.553   6.510  1.9828 -1.5990  2.0809
  661MOL0     H91196   8.100   1.282   6.367 -0.6133 -2.4078  3.5982
  661MOL0     H91197   7.996   1.416   6.353  0.8781 -0.0693 -0.1165
  661MOL0     H91198   9.016   1.230   6.329  0.1185  1.2846 -0.6360
  661MOL0     H91199   9.187   1.309   6.176 -0.9217  1.6881 -1.0751
  661MOL0     H91200   9.402   1.492   5.812 -0.9173 -0.5783  0.9733
  661MOL0     H91201   9.590   1.549   5.700 -1.9422  0.9326 -0.5834
  661MOL0     H91202   9.816   2.021   4.436 -1.2013  1.4372  1.2733
  661MOL0     H91203   9.586   2.108   4.418 -3.8820  3.5491  2.4204
  661MOL0     H91204   9.189   1.971   4.475  0.3875 -0.1617 -1.3999
  661MOL0     H91205   8.960   1.985   4.388  1.7100 -0.6309 -0.7609
  661MOL0     H91206   8.771   2.002   4.332 -0.4932  0.2679  0.6141
  661MOL0     H91207   8.682   2.093   4.458 -0.0953 -0.9367 -0.0904
  661MOL0     H91208   8.682   2.138   4.146 -1.9330 -0.6781 -0.9948
  661MOL0     H91209   8.605   2.249   4.261  1.2364 -0.0270 -0.0909
  661MOL0     H91210   8.436   2.104   4.310  1.2110  1.1895  0.6813
  661MOL0     H91211   8.466   2.079   4.128 -2.1971 -1.2806  0.9419
  661MOL0     H91212   8.422   1.874   4.282  0.2531  0.2931  0.3527
  661MOL0     H91213   8.585   1.883   4.331 -0.6594 -1.1223  1.6244
  661MOL0     H91214   8.667   1.717   3.962  0.4991  1.9495 -1.6529
  661MOL0     H91215   8.969   2.405   4.428  0.1215 -1.2293 -0.8686
  661MOL0     H91216   9.155   2.531   4.527 -1.4547 -2.1037  3.3818
  661MOL0     H91217   9.290   2.444   4.580  1.1088  0.0381  0.2657
  661MOL0     H91218   9.266   2.462   4.404  1.1453 -0.5363  0.5071
  662MOL0     O91219   7.071  10.227   1.441  0.4222  0.1954 -0.6291
  662MOL0     C91220   7.037  10.222   1.562 -0.0894 -0.7362 -0.3667
  662MOL0     O91221   7.127  10.242   1.663 -0.3338 -0.1808 -0.3561
  662MOL0     C91222   7.265  10.224   1.641 -0.6925 -0.1792 -1.3525
  662MOL0     C91223   7.323  10.126   1.555 -0.0255 -0.7414  0.2355
  662MOL0     C91224   7.455  10.126   1.518 -0.6881  0.3449  0.0269
  662MOL0     C91225   7.541  10.213   1.579  0.4554 -0.5822 -1.0955
  662MOL0     O91226   7.676  10.224   1.546  0.1017  0.3086  0.1233
  662MOL0     C91227   7.708  10.225   1.406 -0.7342  0.1212  0.5679
  662MOL0     C91228   7.832  10.306   1.383  0.2310  0.2925  0.3222
  662MOL0     C91229   7.838  10.445   1.443 -0.4605  0.5217 -0.3492
  662MOL0     C91230   7.978  10.500   1.438  0.3179 -0.1661  0.1219
  662MOL0     C91231   7.980  10.641   1.490  0.5100  0.7102 -0.0924
  662MOL0     C91232   8.128  10.695   1.488  0.2198 -0.4214 -0.0191
  662MOL0     C91233   8.225  10.647   1.599 -0.2700  0.3121 -0.5894
  662MOL0     C91234   8.364  10.610   1.534 -0.1124 -0.2960 -0.9502
  662MOL0     N91235   8.469  10.605   1.638 -0.2289 -0.1399 -0.5034
  662MOL0     C91236   8.499  10.709   1.714 -0.6467 -0.3528 -0.5663
  662MOL0     C91237   8.615  10.692   1.779 -0.8882 -0.2635 -0.3650
  662MOL0     C91238   8.667  10.786   1.882  0.3041  0.1135 -0.2275
  662MOL0     C91239   8.790  10.733   1.970 -0.0009  0.3431 -0.7334
  662MOL0     C91240   8.836  10.845   2.060  0.0912 -0.7735 -0.5677
  662MOL0     C91241   8.968  10.813   2.132 -0.7880 -1.0524 -0.1197
  662MOL0     O91242   8.998  10.919   2.228  0.1999 -0.1147 -0.5569
  662MOL0     C91243   9.114  10.903   2.300 -0.7785 -0.2632 -0.8952
  662MOL0     C91244   9.142  11.019   2.367 -0.1570  0.8885 -0.5697
  662MOL0     C91245   9.236  11.025   2.468 -0.7424 -0.7996 -0.1107
  662MOL0     C91246   9.233  11.162   2.546 -0.3540 -0.0452 -0.1727
  662MOL0     C91247   9.319  10.906   2.499 -0.2967 -0.4343  0.0377
  662MOL0     C91248   9.419  10.895   2.607  0.5396  0.0981 -0.6647
  662MOL0     O91249   9.425  10.994   2.695  0.1371  0.2789  0.1099
  662MOL0     C91250   9.495  10.986   2.810  0.4495  0.3909  0.6740
  662MOL0     C91251   9.491  11.106   2.880  0.3437 -0.3176 -0.5148
  662MOL0     C91252   9.530  11.121   3.019  0.8121  0.0759  0.8689
  662MOL0     C91253   9.602  11.016   3.080 -0.4505 -0.2919 -0.4617
  662MOL0     O91254   9.651  11.009   3.206  1.2187  0.0852 -0.2550
  662MOL0     C91255   9.629  11.123   3.297  0.5487 -0.2622  0.8829
  662MOL0     C91256   9.755  11.161   3.372  0.5948  0.3607  0.3363
  662MOL0     C91257   9.764  11.084   3.505  0.7144 -0.0772  0.4386
  662MOL0     C91258   9.871  11.124   3.605 -0.0289  0.2355  0.1215
  662MOL0     C91259   9.839  11.072   3.744  1.1499  0.4605 -0.6032
  662MOL0     C91260   9.910  10.938   3.770 -0.5512  1.3214 -0.4731
  662MOL0     C91261   9.890  10.872   3.908  0.3690 -0.3621  0.7855
  662MOL0     C91262   9.932  10.953   4.029 -0.0351  0.7894  0.7858
  662MOL0    Cl91263  10.110  10.978   4.012  0.2787 -0.2817  0.3984
  662MOL0     C91264   9.611  10.898   3.003  0.1514  0.0602  0.1653
  662MOL0     C91265   9.557  10.881   2.876  0.7247  0.2119  0.6183
  662MOL0     O91266   9.506  10.807   2.589  0.5475  0.2315  0.0686
  662MOL0     C91267   9.294  10.788   2.417 -0.6803  0.5973 -0.0197
  662MOL0     C91268   9.190  10.788   2.318 -0.4246 -0.4705  1.0257
  662MOL0     N91269   8.670  10.574   1.724  0.1123  0.0600  0.6488
  662MOL0     N91270   8.574  10.527   1.651  0.3233  0.9665 -0.3605
  662MOL0     C91271   7.490  10.298   1.675 -0.4845  0.7052 -0.9946
  662MOL0     C91272   7.354  10.310   1.704  0.0299 -0.1942 -0.0235
  662MOL0     C91273   6.896  10.227   1.594  0.6501  0.2329  0.6450
  662MOL0     C91274   6.853  10.297   1.700  0.2435 -0.0030  0.0349
  662MOL0     C91275   6.718  10.302   1.743  0.3284  0.6214 -0.3035
  662MOL0     C91276   6.624  10.242   1.662 -0.3425 -0.5271  0.1877
  662MOL0     O91277   6.494  10.251   1.703  0.6523  0.0818 -0.3008
  662MOL0     C91278   6.441  10.124   1.750 -0.1991  0.3640  0.0846
  662MOL0     C91279   6.313  10.162   1.827  0.7824  1.3090  0.9771
  662MOL0     C91280   6.222  10.253   1.758  1.1068 -0.4534  0.6396
  662MOL0     C91281   6.086  10.270   1.831 -0.5039 -0.1703  0.9896
  662MOL0     C91282   5.996  10.157   1.795  0.7219 -0.1330 -0.2949
  662MOL0     C91283   5.930  10.066   1.753 -0.1702 -0.5846 -0.2798
  662MOL0     C91284   6.659  10.176   1.552 -0.6847  0.8890 -0.0913
  662MOL0     C91285   6.798  10.166   1.509  0.3934  0.9254  0.2556
  662MOL0     C91286   6.828  10.073   1.391 -0.5087  0.5756 -0.1654
  662MOL0     H91287   7.261  10.050   1.509 -2.0971  1.0299 -0.0350
  662MOL0     H91288   7.502  10.063   1.442 -0.1699  0.3504  0.3370
  662MOL0     H91289   7.626  10.273   1.351 -1.3711  1.3930  2.5239
  662MOL0     H91290   7.724  10.123   1.368 -0.2011  0.2796  0.3547
  662MOL0     H91291   7.915  10.254   1.431 -0.6216 -0.8106  0.6436
  662MOL0     H91292   7.856  10.313   1.277 -1.5961 -0.7509 -0.2041
  662MOL0     H91293   7.767  10.516   1.401  0.2638  3.6578  3.2111
  662MOL0     H91294   7.821  10.439   1.551  1.4642  0.1377 -0.0220
  662MOL0     H91295   8.051  10.448   1.501  0.8045  1.9121  1.3573
  662MOL0     H91296   8.010  10.494   1.333 -0.6623 -1.1874 -0.1401
  662MOL0     H91297   7.936  10.647   1.590  0.5271  1.4033 -0.1256
  662MOL0     H91298   7.919  10.702   1.425  0.3574 -0.0583 -0.6837
  662MOL0     H91299   8.174  10.662   1.395  2.2692 -0.1084  0.8444
  662MOL0     H91300   8.140  10.804   1.490 -3.4871  0.2513 -3.0824
  662MOL0     H91301   8.203  10.549   1.641  0.7391  0.0585 -0.6286
  662MOL0     H91302   8.230  10.712   1.687 -1.1754 -0.0634 -0.2373
  662MOL0     H91303   8.359  10.506   1.500  1.2461 -2.6495  4.8934
  662MOL0     H91304   8.393  10.687   1.462 -2.1697 -0.0389 -1.5661
  662MOL0     H91305   8.428  10.786   1.738 -0.0748 -0.5196  1.9711
  662MOL0     H91306   8.592  10.814   1.956 -0.8134 -1.8672 -0.5387
  662MOL0     H91307   8.702  10.876   1.830 -0.7391 -0.0879 -1.3330
  662MOL0     H91308   8.770  10.644   2.030 -0.3950 -0.7084 -2.3421
  662MOL0     H91309   8.872  10.711   1.900 -0.6209  0.9345 -1.6745
  662MOL0     H91310   8.845  10.936   1.999 -5.0554  1.3796  1.2761
  662MOL0     H91311   8.760  10.869   2.135  0.6562 -0.5673 -0.0497
  662MOL0     H91312   8.947  10.720   2.185  0.2527 -0.4789  1.3763
  662MOL0     H91313   9.049  10.794   2.061  1.6178 -2.1410  2.7407
  662MOL0     H91314   9.093  11.113   2.348 -0.8390  1.3076  2.6291
  662MOL0     H91315   9.148  11.225   2.516 -0.8526 -1.5599 -2.1175
  662MOL0     H91316   9.323  11.224   2.538 -2.0539  2.7516  0.6835
  662MOL0     H91317   9.221  11.146   2.653  0.7984  2.6736  0.4444
  662MOL0     H91318   9.448  11.196   2.836 -1.1570  0.2597  1.9353
  662MOL0     H91319   9.521  11.214   3.073  3.1066  0.1472  1.2566
  662MOL0     H91320   9.603  11.216   3.245 -0.3895 -1.2024 -0.3947
  662MOL0     H91321   9.548  11.105   3.369  1.8842 -1.6893  2.0935
  662MOL0     H91322   9.844  11.137   3.314 -0.5002  2.2720 -2.3021
  662MOL0     H91323   9.758  11.267   3.400  0.1586  0.3852  0.2958
  662MOL0     H91324   9.774  10.976   3.489 -1.5501 -0.2135 -0.4528
  662MOL0     H91325   9.669  11.100   3.556 -0.3437  0.8891 -1.7200
  662MOL0     H91326   9.886  11.232   3.617  2.0133  0.3482 -2.5110
  662MOL0     H91327   9.973  11.098   3.576 -0.1286  1.1318 -1.1272
  662MOL0     H91328   9.872  11.143   3.820  1.4521  0.3049 -0.5895
  662MOL0     H91329   9.731  11.056   3.759  1.3553 -1.5928 -1.0005
  662MOL0     H91330  10.019  10.952   3.768 -0.6173  2.1509  0.7872
  662MOL0     H91331   9.879  10.874   3.687  1.4594 -0.1358 -0.1788
  662MOL0     H91332   9.948  10.781   3.893 -0.2323 -0.1928 -3.9478
  662MOL0     H91333   9.784  10.846   3.917 -0.3456  1.6613 -0.9606
  662MOL0     H91334   9.906  10.897   4.119 -0.4724 -1.6046 -0.7491
  662MOL0     H91335   9.868  11.042   4.018 -1.0504 -0.1270 -1.2520
  662MOL0     H91336   9.652  10.812   3.052  1.5390  0.6550  0.0876
  662MOL0     H91337   9.566  10.785   2.825 -0.4857 -0.6692  1.9631
  662MOL0     H91338   9.357  10.699   2.423  0.3495  1.3349  0.3245
  662MOL0     H91339   9.163  10.694   2.271  1.8888 -1.2274  1.0917
  662MOL0     H91340   7.562  10.366   1.720  0.2850  0.2159 -1.4618
  662MOL0     H91341   7.319  10.377   1.783  0.5158  1.3778 -1.0827
  662MOL0     H91342   6.931  10.349   1.755  1.0030 -0.0226 -0.9778
  662MOL0     H91343   6.675  10.353   1.830 -0.8305 -1.6691  0.5457
  662MOL0     H91344   6.429  10.054   1.667  0.8337 -1.5834  1.4971
  662MOL0     H91345   6.512  10.069   1.813  0.3357 -1.6828 -2.1198
  662MOL0     H91346   6.341  10.216   1.918 -2.4358  2.0663  1.6501
  662MOL0     H91347   6.253  10.073   1.849  2.5457  0.5508  3.1605
  662MOL0     H91348   6.273  10.350   1.751  2.0718 -1.0432 -1.0113
  662MOL0     H91349   6.215  10.223   1.653  2.5663  1.3766 -0.0364
  662MOL0     H91350   6.046  10.369   1.806  0.0734  0.6320  3.0188
  662MOL0     H91351   6.101  10.271   1.940  2.0730  0.2141  0.6939
  662MOL0     H91352   5.871   9.981   1.725 -1.8835 -0.4484  2.5457
  662MOL0     H91353   6.591  10.120   1.488  0.9576 -0.6880 -0.5532
  662MOL0     H91354   6.907  10.004   1.419 -1.1421 -0.2872 -0.4488
  662MOL0     H91355   6.750   9.999   1.368 -0.6686  0.9100 -0.7374
  662MOL0     H91356   6.846  10.126   1.296  0.3949  2.1708  0.8532
  663MOL0     O91357   5.911  11.125   0.354 -0.1458 -0.0811  0.0163
  663MOL0     C91358   5.872  11.020   0.310 -0.2322  1.2691  0.9855
  663MOL0     O91359   5.948  10.946   0.221  0.0246  0.5350 -0.4429
  663MOL0     C91360   6.054  11.015   0.164 -0.6079  0.2710  0.2058
  663MOL0     C91361   6.174  11.019   0.229 -0.0559  0.4515 -0.5063
  663MOL0     C91362   6.278  11.091   0.172 -0.2999 -0.0747 -0.3049
  663MOL0     C91363   6.266  11.164   0.053 -0.0814  0.9609 -0.1107
  663MOL0     O91364   6.368  11.223  -0.021 -0.3007  0.3286 -0.5202
  663MOL0     C91365   6.475  11.271   0.058  0.4566  0.0354  0.2314
  663MOL0     C91366   6.578  11.351  -0.025  0.0311  0.1939 -0.2385
  663MOL0     C91367   6.689  11.393   0.079  0.1463 -0.3611 -0.1523
  663MOL0     C91368   6.820  11.425   0.010  0.5264  0.1089 -0.0457
  663MOL0     C91369   6.930  11.454   0.111 -0.5325 -0.6256 -0.4663
  663MOL0     C91370   7.038  11.539   0.051  0.4364  0.2381  0.6181
  663MOL0     C91371   7.142  11.586   0.155 -0.1220  0.3184  0.0257
  663MOL0     C91372   7.255  11.669   0.089  0.4195  0.2607  0.3179
  663MOL0     N91373   7.361  11.698   0.193 -0.2107  0.7374  1.4072
  663MOL0     C91374   7.388  11.811   0.254 -1.3497 -0.2036 -0.2787
  663MOL0     C91375   7.476  11.798   0.355  0.7968  0.1939  0.2331
  663MOL0     C91376   7.526  11.910   0.443  0.0865  0.6359 -0.0085
  663MOL0     C91377   7.684  11.920   0.434  0.0921  0.5346 -0.1074
  663MOL0     C91378   7.736  12.045   0.507 -0.3534 -0.4173 -0.1787
  663MOL0     C91379   7.879  12.056   0.475  0.6367  0.0119  0.5664
  663MOL0     O91380   7.883  12.133   0.353  0.5220  0.1446 -0.0266
  663MOL0     C91381   7.980  12.230   0.332 -0.0465  0.9895 -0.3885
  663MOL0     C91382   8.116  12.222   0.379  0.1486 -0.2786  0.1445
  663MOL0     C91383   8.210  12.319   0.351 -0.4680 -0.4880  0.8836
  663MOL0     C91384   8.355  12.303   0.410 -0.0859 -0.4674 -0.8053
  663MOL0     C91385   8.159  12.439   0.276  0.1495 -0.1982 -0.2014
  663MOL0     C91386   8.250  12.550   0.231 -0.1430  0.2913  0.5044
  663MOL0     O91387   8.213  12.631   0.123  0.2492 -0.5389  0.0184
  663MOL0     C91388   8.303  12.723   0.092 -0.0416 -0.2824 -0.5452
  663MOL0     C91389   8.291  12.840   0.163 -0.5579  0.3687 -0.3505
  663MOL0     C91390   8.403  12.923   0.153  0.2387 -0.2988  0.5689
  663MOL0     C91391   8.507  12.903   0.065 -0.2448 -0.0537 -0.2554
  663MOL0     O91392   8.613  12.996   0.076 -0.2294  0.1800  0.2700
  663MOL0     C91393   8.559  13.128   0.096 -0.1193  0.2104  0.0614
  663MOL0     C91394   8.661  13.214   0.015  0.5268 -0.9146 -0.2470
  663MOL0     C91395   8.636  13.366  -0.015  0.2270  0.9554  0.5315
  663MOL0     C91396   8.727  13.424  -0.112  0.2504  0.0497  0.9695
  663MOL0     C91397   8.676  13.542  -0.191  0.3277  0.0943  0.3323
  663MOL0     C91398   8.648  13.656  -0.096  0.0012 -0.1900 -0.0863
  663MOL0     C91399   8.591  13.778  -0.173 -0.4794 -0.7573 -0.4508
  663MOL0     C91400   8.591  13.912  -0.097  0.3247  0.9281  1.0314
  663MOL0    Cl91401   8.761  13.967  -0.094 -0.2189 -0.0578  0.2027
  663MOL0     C91402   8.516  12.780  -0.007  0.3302 -0.8088 -0.2158
  663MOL0     C91403   8.411  12.688   0.007  0.3361 -0.2619  1.2798
  663MOL0     O91404   8.359  12.555   0.291 -0.0774  0.3341 -1.1005
  663MOL0     C91405   8.021  12.444   0.242  0.3218  0.1694  0.4817
  663MOL0     C91406   7.938  12.344   0.268  0.8888 -0.8023  0.8786
  663MOL0     N91407   7.507  11.661   0.352 -0.0954 -0.3785 -0.0321
  663MOL0     N91408   7.435  11.604   0.258 -0.2043  0.0429  0.0592
  663MOL0     C91409   6.143  11.156  -0.009 -0.3119  0.1220  0.2214
  663MOL0     C91410   6.039  11.084   0.047  0.0291  0.1047  1.3744
  663MOL0     C91411   5.739  10.964   0.344  0.1319  0.0466  0.3114
  663MOL0     C91412   5.700  10.855   0.267 -0.3615  0.0376 -0.0291
  663MOL0     C91413   5.570  10.802   0.277 -0.4668  0.2317 -0.2329
  663MOL0     C91414   5.479  10.863   0.369  0.4419  1.0000 -0.2028
  663MOL0     O91415   5.353  10.820   0.394  0.2902 -0.1559 -0.0224
  663MOL0     C91416   5.337  10.675   0.377  0.5140 -0.2025  0.1054
  663MOL0     C91417   5.200  10.632   0.441  0.2023 -0.3017 -0.4852
  663MOL0     C91418   5.176  10.482   0.422  0.4949 -0.7918 -0.2592
  663MOL0     C91419   5.057  10.428   0.492 -0.1931 -0.2304 -0.1404
  663MOL0     C91420   4.936  10.457   0.416 -0.4625 -0.9593 -0.0975
  663MOL0     C91421   4.836  10.452   0.348 -0.5181  0.3263 -0.1227
  663MOL0     C91422   5.521  10.976   0.442  0.2003 -0.4518  0.2214
  663MOL0     C91423   5.650  11.036   0.426 -0.3539  0.2137 -0.1438
  663MOL0     C91424   5.679  11.167   0.501  0.1374 -0.7029 -0.3491
  663MOL0     H91425   6.188  10.964   0.321 -0.2422  0.4660 -0.4699
  663MOL0     H91426   6.367  11.111   0.231 -0.8362  0.6596  0.2835
  663MOL0     H91427   6.522  11.188   0.111 -1.6878  0.5169  3.1533
  663MOL0     H91428   6.434  11.319   0.147 -1.6678 -1.2260  0.0212
  663MOL0     H91429   6.631  11.292  -0.101 -1.6136 -0.5774 -0.8274
  663MOL0     H91430   6.521  11.435  -0.067  0.6079  1.3048  1.1143
  663MOL0     H91431   6.654  11.477   0.139 -0.2637 -0.5628 -0.1000
  663MOL0     H91432   6.722  11.321   0.154  1.2419  0.2283 -0.0585
  663MOL0     H91433   6.850  11.336  -0.047 -2.5124  0.4899 -2.5109
  663MOL0     H91434   6.806  11.502  -0.065  2.7212 -0.3123 -0.9613
  663MOL0     H91435   6.971  11.371   0.170  0.9414  0.4797  0.1226
  663MOL0     H91436   6.878  11.515   0.186  1.1259 -1.7524  1.7011
  663MOL0     H91437   7.088  11.469  -0.017 -0.2273 -2.2274  2.5362
  663MOL0     H91438   6.998  11.616  -0.016 -1.4069 -1.0351  0.1850
  663MOL0     H91439   7.187  11.504   0.211 -0.2277 -1.4211 -2.2983
  663MOL0     H91440   7.092  11.652   0.226  0.1528  1.4551 -0.8010
  663MOL0     H91441   7.309  11.607   0.017 -0.3231 -1.9668  1.5879
  663MOL0     H91442   7.217  11.756   0.035 -0.5360 -1.5761 -2.0939
  663MOL0     H91443   7.343  11.903   0.219 -0.0853  0.6695  0.3006
  663MOL0     H91444   7.518  11.876   0.546 -0.5452 -1.1326 -0.5929
  663MOL0     H91445   7.461  11.997   0.430 -1.0928 -0.0337  1.1655
  663MOL0     H91446   7.733  11.826   0.459 -0.2873 -0.0429 -1.4190
  663MOL0     H91447   7.714  11.925   0.329 -0.8826  0.2014 -0.4167
  663MOL0     H91448   7.677  12.135   0.487  1.1716  0.8124  0.6249
  663MOL0     H91449   7.720  12.017   0.612  3.1448 -0.8713  0.3513
  663MOL0     H91450   7.929  12.115   0.553  1.3920  2.2655 -1.4790
  663MOL0     H91451   7.925  11.959   0.455 -0.1743 -0.2174 -0.2571
  663MOL0     H91452   8.145  12.133   0.434 -1.1964 -1.0474 -0.3304
  663MOL0     H91453   8.387  12.391   0.466 -0.4198 -2.2024  2.2993
  663MOL0     H91454   8.424  12.284   0.328  2.0415  0.7983  0.6017
  663MOL0     H91455   8.360  12.212   0.470 -0.4958 -0.4807 -0.7835
  663MOL0     H91456   8.218  12.869   0.238  1.1844 -0.9263  2.0032
  663MOL0     H91457   8.401  13.006   0.222 -1.2458 -0.7959  1.1835
  663MOL0     H91458   8.464  13.144   0.045  1.6957 -1.2687 -4.2851
  663MOL0     H91459   8.563  13.149   0.203 -0.8821 -0.1536  0.1634
  663MOL0     H91460   8.757  13.201   0.066  0.9177 -2.4972 -1.3200
  663MOL0     H91461   8.669  13.163  -0.081  0.7492 -2.7292  0.6886
  663MOL0     H91462   8.612  13.418   0.078 -3.7736 -2.4067  1.7268
  663MOL0     H91463   8.543  13.360  -0.072  0.3981  0.7506  0.2750
  663MOL0     H91464   8.766  13.339  -0.169  3.1274  1.4887  0.5535
  663MOL0     H91465   8.808  13.463  -0.050  0.3511  2.4767 -0.5430
  663MOL0     H91466   8.749  13.586  -0.259 -0.6789 -0.0100 -0.8483
  663MOL0     H91467   8.589  13.508  -0.248  1.4363  1.0062 -1.9969
  663MOL0     H91468   8.744  13.681  -0.050  1.6100 -5.6162  0.2990
  663MOL0     H91469   8.581  13.619  -0.018 -1.4502 -1.0405 -1.6534
  663MOL0     H91470   8.489  13.747  -0.200 -0.2802 -0.6398 -1.3645
  663MOL0     H91471   8.654  13.797  -0.260 -0.7003 -2.5026 -1.0308
  663MOL0     H91472   8.556  13.903   0.006  0.7288  1.3634  1.2125
  663MOL0     H91473   8.526  13.984  -0.148 -1.2471  0.6753  2.5757
  663MOL0     H91474   8.597  12.769  -0.079  0.0721 -2.7474 -0.2627
  663MOL0     H91475   8.407  12.593  -0.046 -2.5793 -0.2806  1.3730
  663MOL0     H91476   7.991  12.536   0.192 -1.8723 -2.1600 -3.0108
  663MOL0     H91477   7.835  12.366   0.244  1.0867  2.6741  2.6411
  663MOL0     H91478   6.125  11.220  -0.095  0.1300 -0.4507 -0.3092
  663MOL0     H91479   5.941  11.094   0.002  1.0712 -2.0047 -1.6912
  663MOL0     H91480   5.760  10.802   0.193 -1.1740 -0.1593 -0.5722
  663MOL0     H91481   5.545  10.715   0.218 -0.0902  0.3668 -0.5992
  663MOL0     H91482   5.329  10.653   0.270 -1.1590  2.4853 -0.4081
  663MOL0     H91483   5.419  10.622   0.427 -1.3158 -0.2908  3.2986
  663MOL0     H91484   5.116  10.699   0.418 -0.3405  0.0965  2.2810
  663MOL0     H91485   5.213  10.638   0.550 -0.2734 -3.2969 -0.1870
  663MOL0     H91486   5.166  10.454   0.317  1.8142  1.6201 -1.1152
  663MOL0     H91487   5.267  10.434   0.460  1.7625  0.9839 -0.8750
  663MOL0     H91488   5.046  10.464   0.595 -3.1298  0.5890 -0.6632
  663MOL0     H91489   5.069  10.319   0.485 -0.0289 -0.1289 -1.8910
  663MOL0     H91490   4.741  10.443   0.300 -1.6284  1.2811  1.7792
  663MOL0     H91491   5.446  11.014   0.510 -2.6043 -0.8445 -2.3984
  663MOL0     H91492   5.784  11.176   0.530 -0.4935 -1.3458  2.4431
  663MOL0     H91493   5.641  11.245   0.434 -1.6695 -2.0227 -0.9272
  663MOL0     H91494   5.628  11.186   0.596 -1.0615 -1.3631 -0.8371
  664MOL0     O91495   1.405   5.336   9.332 -0.1858 -0.2879 -0.2743
  664MOL0     C91496   1.385   5.366   9.216  0.4871  0.4742  0.0165
  664MOL0     O91497   1.466   5.334   9.117 -0.4807 -0.1442  0.4708
  664MOL0     C91498   1.607   5.306   9.128 -0.3608  0.2537  0.1614
  664MOL0     C91499   1.685   5.292   9.247  0.4157 -0.5116  0.0969
  664MOL0     C91500   1.825   5.297   9.243  0.5132 -0.6431 -0.4307
  664MOL0     C91501   1.894   5.284   9.126  0.6009  0.0231 -0.0585
  664MOL0     O91502   2.033   5.283   9.136 -0.6556  0.0102 -0.7479
  664MOL0     C91503   2.104   5.340   9.019  0.0411 -1.0127  0.5947
  664MOL0     C91504   2.252   5.341   9.024 -0.4879 -0.1194 -0.7689
  664MOL0     C91505   2.316   5.461   8.949  0.4719  0.6928 -0.1971
  664MOL0     C91506   2.471   5.457   8.929  0.7513 -0.5390 -0.7645
  664MOL0     C91507   2.532   5.586   8.881 -0.8167 -0.4983  0.1139
  664MOL0     C91508   2.670   5.549   8.827  0.2953 -0.8245 -0.1815
  664MOL0     C91509   2.754   5.668   8.780 -0.0830 -0.6745 -0.5955
  664MOL0     C91510   2.869   5.625   8.684  0.6839  0.4107  0.0092
  664MOL0     N91511   2.986   5.554   8.754  0.3458  0.2871 -0.0506
  664MOL0     C91512   3.084   5.612   8.830 -0.3147 -0.2377  0.1421
  664MOL0     C91513   3.188   5.527   8.847 -0.1381 -0.5578  0.0522
  664MOL0     C91514   3.318   5.550   8.915 -0.2161  0.3210 -0.2867
  664MOL0     C91515   3.300   5.582   9.059  0.0040  0.2821 -0.2727
  664MOL0     C91516   3.282   5.465   9.151  0.0298 -0.1546  0.1496
  664MOL0     C91517   3.218   5.497   9.284  0.2166  0.2086  0.7880
  664MOL0     O91518   3.291   5.591   9.369 -0.4029 -0.1353 -0.4542
  664MOL0     C91519   3.380   5.545   9.456 -0.5750 -0.5190  0.7577
  664MOL0     C91520   3.407   5.408   9.489 -0.4414 -0.4352  0.2982
  664MOL0     C91521   3.508   5.372   9.572 -0.2988 -0.2713 -0.0516
  664MOL0     C91522   3.516   5.229   9.613 -0.3360  0.6094 -0.1793
  664MOL0     C91523   3.601   5.475   9.613 -0.6557 -0.2873  0.0758
  664MOL0     C91524   3.711   5.453   9.715 -0.1145 -0.2485  0.8812
  664MOL0     O91525   3.802   5.550   9.725  0.7900 -0.0636  0.6993
  664MOL0     C91526   3.900   5.558   9.819 -0.8801  0.4376 -0.4829
  664MOL0     C91527   3.939   5.458   9.910  0.1099 -0.4487 -0.4615
  664MOL0     C91528   4.047   5.485   9.997 -0.6018  0.4173  0.1660
  664MOL0     C91529   4.108   5.609  10.006  0.2505 -0.0797 -0.2337
  664MOL0     O91530   4.207   5.631  10.098  0.0163 -0.9669  0.2972
  664MOL0     C91531   4.276   5.519  10.157 -1.1929  0.0431  0.0702
  664MOL0     C91532   4.407   5.569  10.221  0.6666  0.4663  0.0964
  664MOL0     C91533   4.473   5.449  10.291 -0.7357 -0.1373  0.5836
  664MOL0     C91534   4.622   5.472  10.339  0.5955  0.6303 -0.0934
  664MOL0     C91535   4.711   5.500  10.217  0.5611  0.3677  0.0749
  664MOL0     C91536   4.862   5.499  10.255  0.5809  0.1468 -0.5208
  664MOL0     C91537   4.898   5.641  10.311 -0.4215 -0.6093 -0.1159
  664MOL0     C91538   5.051   5.644  10.349  1.0028  0.4054 -0.2692
  664MOL0    Cl91539   5.081   5.506  10.463  0.2957 -0.0011  0.1604
  664MOL0     C91540   4.068   5.711   9.911 -1.0981  0.5488 -0.7448
  664MOL0     C91541   3.971   5.679   9.822  0.0915  0.0522  0.0995
  664MOL0     O91542   3.722   5.342   9.762  0.9716  0.7163  0.3218
  664MOL0     C91543   3.584   5.604   9.566  0.2504 -0.5518 -1.1235
  664MOL0     C91544   3.469   5.651   9.495 -0.9720  0.6896  0.5786
  664MOL0     N91545   3.134   5.403   8.803  0.2254 -0.0074  0.4651
  664MOL0     N91546   3.011   5.420   8.751  0.0979  0.2879  0.0542
  664MOL0     C91547   1.820   5.268   9.008  0.2170  0.1208  0.4735
  664MOL0     C91548   1.679   5.281   9.013  0.7443  0.3127 -0.2029
  664MOL0     C91549   1.260   5.433   9.172 -0.6166 -0.2673 -0.6774
  664MOL0     C91550   1.238   5.451   9.034  0.0828  0.5558  0.4242
  664MOL0     C91551   1.131   5.515   8.986  0.2126  0.9150 -0.4920
  664MOL0     C91552   1.024   5.547   9.066  0.0950 -0.3653  0.1124
  664MOL0     O91553   0.928   5.601   8.991 -0.2304 -0.8593 -0.2940
  664MOL0     C91554   0.793   5.612   9.054  0.1997 -0.8596  1.0603
  664MOL0     C91555   0.734   5.474   9.085 -0.1621  0.6560  0.9121
  664MOL0     C91556   0.579   5.477   9.088 -0.3674 -0.6353  0.4213
  664MOL0     C91557   0.522   5.572   9.191  0.7001 -0.5168  0.9603
  664MOL0     C91558   0.385   5.535   9.219  0.5146 -0.0763 -0.6807
  664MOL0     C91559   0.269   5.512   9.240  0.7900 -0.4090 -0.1634
  664MOL0     C91560   1.033   5.538   9.199 -0.5292  0.0622 -0.6528
  664MOL0     C91561   1.156   5.474   9.255  1.0652 -0.2419  0.5175
  664MOL0     C91562   1.163   5.462   9.405 -0.9993  0.2772 -0.4643
  664MOL0     H91563   1.633   5.296   9.342 -2.8797 -1.5114 -1.5184
  664MOL0     H91564   1.888   5.299   9.332  0.6280 -1.1631 -0.4936
  664MOL0     H91565   2.070   5.443   9.002 -0.2953 -1.4772 -1.9154
  664MOL0     H91566   2.081   5.279   8.931 -2.7815  1.9150 -0.9039
  664MOL0     H91567   2.291   5.340   9.126  0.5180 -0.3974 -1.1448
  664MOL0     H91568   2.282   5.247   8.977  1.0084  0.4856 -1.0861
  664MOL0     H91569   2.269   5.473   8.850  0.9137 -0.1405 -0.5193
  664MOL0     H91570   2.291   5.557   8.994 -0.6955  1.2851 -1.9624
  664MOL0     H91571   2.516   5.430   9.026 -0.8118 -0.8929 -0.1100
  664MOL0     H91572   2.486   5.380   8.853  0.7752 -0.1513 -1.1582
  664MOL0     H91573   2.548   5.657   8.963 -0.6843 -0.3021 -0.0786
  664MOL0     H91574   2.471   5.629   8.800 -0.5809 -1.2645 -0.4856
  664MOL0     H91575   2.715   5.494   8.910 -2.0566 -2.2342  0.2677
  664MOL0     H91576   2.662   5.490   8.736 -0.6186 -2.1398  0.7101
  664MOL0     H91577   2.784   5.722   8.870  0.7213 -2.6672  0.3952
  664MOL0     H91578   2.685   5.729   8.721  0.4775 -0.7287 -1.3234
  664MOL0     H91579   2.831   5.559   8.606  1.1132 -0.6609  0.6756
  664MOL0     H91580   2.904   5.702   8.615 -0.8514 -0.3514 -1.7008
  664MOL0     H91581   3.078   5.715   8.862  1.8448  0.4923 -1.5411
  664MOL0     H91582   3.371   5.628   8.858  2.4749  0.1126  1.7572
  664MOL0     H91583   3.376   5.458   8.915 -4.1848 -2.4573 -0.1251
  664MOL0     H91584   3.384   5.642   9.095  0.9978 -0.4469 -1.3274
  664MOL0     H91585   3.211   5.645   9.071 -0.2673 -0.4500  1.8614
  664MOL0     H91586   3.202   5.404   9.108 -0.6092  0.9991 -0.3180
  664MOL0     H91587   3.375   5.408   9.165  0.9972  1.5323  0.8461
  664MOL0     H91588   3.117   5.537   9.267  0.1947  0.7109  2.0526
  664MOL0     H91589   3.197   5.402   9.334  2.6005  0.6044  2.7304
  664MOL0     H91590   3.359   5.321   9.445 -1.2616  1.5840 -3.2223
  664MOL0     H91591   3.536   5.215   9.720 -0.1124  1.8617 -0.0384
  664MOL0     H91592   3.591   5.182   9.549 -0.4419 -0.1885  0.2628
  664MOL0     H91593   3.422   5.176   9.595  0.1280 -0.7479  1.1913
  664MOL0     H91594   3.893   5.360   9.914 -0.5400 -0.1093  1.9780
  664MOL0     H91595   4.082   5.396  10.047 -1.3686  0.4865  0.8280
  664MOL0     H91596   4.209   5.477  10.232 -0.1343  0.6511  1.3988
  664MOL0     H91597   4.308   5.444  10.083  1.7260  2.6940 -1.5884
  664MOL0     H91598   4.476   5.596  10.141  0.4770 -0.5662 -0.4356
  664MOL0     H91599   4.390   5.649  10.294  0.1795 -0.0711  0.5857
  664MOL0     H91600   4.472   5.363  10.223  0.7696  1.7096 -1.9655
  664MOL0     H91601   4.416   5.418  10.379 -1.7162  0.5932  0.2072
  664MOL0     H91602   4.653   5.377  10.384  2.3682  0.4927 -1.4721
  664MOL0     H91603   4.609   5.559  10.405 -3.6764 -1.4494  2.1968
  664MOL0     H91604   4.695   5.407  10.161  2.2213  0.9258 -1.4293
  664MOL0     H91605   4.679   5.586  10.157 -3.3066 -0.3916  0.7926
  664MOL0     H91606   4.922   5.479  10.166 -1.9555 -1.3226 -2.0210
  664MOL0     H91607   4.868   5.420  10.330 -0.4048 -0.1699 -0.7523
  664MOL0     H91608   4.842   5.673  10.399  2.7661 -1.2385  2.3520
  664MOL0     H91609   4.876   5.717  10.236  2.0024 -0.1729 -0.4799
  664MOL0     H91610   5.076   5.739  10.398 -3.9707  1.7377  0.1564
  664MOL0     H91611   5.114   5.633  10.260  0.4467  0.9501 -0.7345
  664MOL0     H91612   4.118   5.807   9.921  0.7654 -0.5724  1.9968
  664MOL0     H91613   3.951   5.752   9.744  3.6354 -0.5319 -1.5588
  664MOL0     H91614   3.646   5.679   9.614 -0.9032 -0.8490  0.9342
  664MOL0     H91615   3.467   5.754   9.463  0.5575  0.8158  0.8096
  664MOL0     H91616   1.867   5.237   8.916 -1.3115  0.7550 -0.5531
  664MOL0     H91617   1.634   5.265   8.915  2.0063 -1.1374 -0.5772
  664MOL0     H91618   1.312   5.400   8.972 -0.4643 -2.3267  1.9587
  664MOL0     H91619   1.116   5.530   8.879 -1.3303  1.1782 -0.2526
  664MOL0     H91620   0.796   5.677   9.143 -0.4054 -0.0836  0.5288
  664MOL0     H91621   0.720   5.662   8.989  0.2423  0.0613  1.6906
  664MOL0     H91622   0.751   5.442   9.188 -0.2055  2.2493  1.4497
  664MOL0     H91623   0.772   5.403   9.012  0.4615  1.1251  0.7743
  664MOL0     H91624   0.559   5.499   8.983  0.5270  1.0367  0.5656
  664MOL0     H91625   0.561   5.370   9.095  0.5464 -0.9954 -1.8246
  664MOL0     H91626   0.529   5.672   9.148  1.8977 -1.8975 -2.4186
  664MOL0     H91627   0.578   5.564   9.285  0.2316  0.9427  1.3955
  664MOL0     H91628   0.173   5.489   9.281 -0.1247 -1.8301 -2.9031
  664MOL0     H91629   0.954   5.573   9.265  0.5520 -1.9075  1.8296
  664MOL0     H91630   1.062   5.484   9.440 -1.4874 -2.0055 -0.2713
  664MOL0     H91631   1.190   5.370   9.458 -0.9381  2.0649  2.8984
  664MOL0     H91632   1.234   5.538   9.438  2.6903 -2.1481 -2.1235
  665MOL0     O91633   9.602   9.871   5.445  1.0209  0.1078  0.9074
  665MOL0     C91634   9.592   9.873   5.567  0.5820 -0.8001 -0.1330
  665MOL0     O91635   9.690   9.828   5.661 -0.6923 -0.5160  0.4200
  665MOL0     C91636   9.808   9.768   5.623 -0.0791  0.2520  0.0911
  665MOL0     C91637   9.916   9.776   5.709 -0.3533 -0.0293 -0.2483
  665MOL0     C91638  10.041   9.709   5.680  0.0038  0.1339  0.6209
  665MOL0     C91639  10.060   9.645   5.555  0.0301 -1.1698  0.8012
  665MOL0     O91640  10.178   9.606   5.501  0.0999  0.9333 -0.3300
  665MOL0     C91641  10.299   9.615   5.574 -0.0056 -0.1692  1.0864
  665MOL0     C91642  10.404   9.524   5.501  0.4325 -0.6894 -0.0890
  665MOL0     C91643  10.536   9.508   5.580 -0.2846 -0.3682  0.8426
  665MOL0     C91644  10.630   9.409   5.522  0.2340 -0.3676 -0.5689
  665MOL0     C91645  10.774   9.412   5.582  0.0084  0.0761  1.4497
  665MOL0     C91646  10.856   9.515   5.498  0.3088  0.2780 -0.1623
  665MOL0     C91647  10.921   9.464   5.355  0.1534 -1.1476 -0.6860
  665MOL0     C91648  11.035   9.368   5.376 -0.0815 -0.9289 -0.0487
  665MOL0     N91649  11.140   9.453   5.432  0.1825  0.5467 -0.1520
  665MOL0     C91650  11.166   9.469   5.566 -0.1641  0.9504  0.6581
  665MOL0     C91651  11.292   9.520   5.572 -0.4844 -0.3701 -0.0463
  665MOL0     C91652  11.362   9.572   5.693  0.7786  0.6483 -0.2503
  665MOL0     C91653  11.480   9.489   5.710 -0.4677  0.6093 -0.1738
  665MOL0     C91654  11.589   9.505   5.597  0.2489 -0.5321 -0.1979
  665MOL0     C91655  11.713   9.434   5.624 -0.5667 -0.3437  0.6046
  665MOL0     O91656  11.778   9.498   5.732  0.2374  0.3479 -0.3633
  665MOL0     C91657  11.885   9.588   5.718  0.3162  0.9176 -0.4339
  665MOL0     C91658  11.937   9.641   5.840 -1.4545 -0.3092  0.2775
  665MOL0     C91659  12.053   9.729   5.842  0.5199 -0.1485  0.5539
  665MOL0     C91660  12.094   9.785   5.970 -0.1291 -0.2384  0.5677
  665MOL0     C91661  12.123   9.755   5.719  0.2590 -0.1023 -0.4205
  665MOL0     C91662  12.242   9.841   5.718 -0.3039 -0.8930 -0.3625
  665MOL0     O91663  12.333   9.827   5.610  0.2264  0.0214  0.1812
  665MOL0     C91664  12.441   9.902   5.615 -0.4876 -0.9343  0.8559
  665MOL0     C91665  12.560   9.833   5.598  0.3584 -0.0268  0.0340
  665MOL0     C91666  12.676   9.908   5.574 -0.8742  0.2331  0.0783
  665MOL0     C91667  12.683  10.042   5.587 -0.1780  0.2715 -0.9900
  665MOL0     O91668  12.798  10.115   5.575 -0.1402  0.1069 -0.2901
  665MOL0     C91669  12.926  10.049   5.548  0.5317 -0.0922  0.3996
  665MOL0     C91670  13.036  10.155   5.561  0.6292  0.2273 -0.2168
  665MOL0     C91671  13.176  10.084   5.544  0.7194 -0.0215 -1.1744
  665MOL0     C91672  13.192  10.028   5.394  0.4615  0.2805  0.5766
  665MOL0     C91673  13.316   9.938   5.383  0.4814  0.1726 -0.5006
  665MOL0     C91674  13.451   9.993   5.420  0.0925 -0.7310  0.0644
  665MOL0     C91675  13.487  10.116   5.325 -0.4665 -0.7929 -0.1650
  665MOL0     C91676  13.619  10.186   5.356 -0.4290 -1.0597  0.8750
  665MOL0    Cl91677  13.616  10.339   5.267 -0.1101 -0.5011  0.3780
  665MOL0     C91678  12.568  10.116   5.618 -0.6018 -0.0336 -0.3151
  665MOL0     C91679  12.443  10.045   5.627 -0.0131 -0.4920  0.7670
  665MOL0     O91680  12.239   9.943   5.791  0.3384  0.1009 -0.8180
  665MOL0     C91681  12.063   9.706   5.603  0.2697  0.8666  0.9998
  665MOL0     C91682  11.949   9.625   5.603  0.7286 -1.2502  0.6914
  665MOL0     N91683  11.324   9.553   5.439 -0.7504  0.2295 -0.2322
  665MOL0     N91684  11.240   9.507   5.358 -0.3270 -0.0817  0.5890
  665MOL0     C91685   9.949   9.620   5.481  0.9028  0.2779 -0.3556
  665MOL0     C91686   9.825   9.681   5.510 -1.0378  0.0858 -0.3613
  665MOL0     C91687   9.470   9.933   5.634 -0.3973  0.6735  0.0489
  665MOL0     C91688   9.485  10.001   5.760  0.6076 -0.3735  0.1678
  665MOL0     C91689   9.377  10.046   5.828 -0.0555 -0.8945  0.7975
  665MOL0     C91690   9.251  10.047   5.767 -0.3524 -0.3964  0.1654
  665MOL0     O91691   9.143  10.103   5.822  0.1111  0.5334  0.2977
  665MOL0     C91692   9.159  10.164   5.950  0.0261 -0.1651  0.1053
  665MOL0     C91693   9.028  10.226   6.002  0.1149  0.4912  0.2700
  665MOL0     C91694   8.914  10.121   6.020 -0.1178  1.3047  0.0013
  665MOL0     C91695   8.928  10.050   6.150 -0.4648 -0.2025  0.4179
  665MOL0     C91696   8.853   9.925   6.176 -0.4676 -0.0105  0.6948
  665MOL0     C91697   8.789   9.831   6.211 -0.3668  0.0305  0.0239
  665MOL0     C91698   9.232   9.993   5.635 -0.1057  0.0723 -0.2111
  665MOL0     C91699   9.339   9.936   5.568 -0.9551  0.4611 -0.4983
  665MOL0     C91700   9.307   9.883   5.430  0.4434 -0.3430 -0.5216
  665MOL0     H91701   9.897   9.830   5.801  0.5082  0.0302 -0.0954
  665MOL0     H91702  10.119   9.747   5.745 -0.9712  2.7382  0.4068
  665MOL0     H91703  10.286   9.574   5.674 -0.4992  0.9914  1.5187
  665MOL0     H91704  10.338   9.717   5.581  2.9219 -1.1004 -0.0487
  665MOL0     H91705  10.360   9.425   5.491 -0.8309 -0.1313 -0.2429
  665MOL0     H91706  10.423   9.553   5.397  0.4248 -1.7452 -0.3994
  665MOL0     H91707  10.581   9.608   5.583  4.0325 -2.1110  1.1389
  665MOL0     H91708  10.520   9.480   5.684 -0.5114  0.2067  0.9689
  665MOL0     H91709  10.579   9.314   5.538  2.2901 -1.2195  1.4657
  665MOL0     H91710  10.646   9.422   5.415 -0.0877  0.1744 -0.5567
  665MOL0     H91711  10.825   9.316   5.571 -1.5546 -0.6937  0.4165
  665MOL0     H91712  10.765   9.443   5.687  2.2637  1.7482  1.2198
  665MOL0     H91713  10.789   9.599   5.480 -0.3910 -0.4841 -1.3083
  665MOL0     H91714  10.944   9.555   5.549  2.3434 -2.1895 -1.4924
  665MOL0     H91715  10.967   9.541   5.293 -0.5675  0.1101  0.2785
  665MOL0     H91716  10.842   9.414   5.298  1.4113 -0.5716 -3.0554
  665MOL0     H91717  11.008   9.292   5.450 -0.3056 -0.5776  0.2332
  665MOL0     H91718  11.064   9.324   5.280  0.1055 -1.9610  0.4575
  665MOL0     H91719  11.098   9.440   5.646 -1.9527  0.4508 -0.9575
  665MOL0     H91720  11.305   9.550   5.784 -1.2761  1.3392 -1.2913
  665MOL0     H91721  11.378   9.680   5.694 -2.8232  1.3177 -0.8333
  665MOL0     H91722  11.520   9.524   5.805  0.6112  0.1313 -0.4416
  665MOL0     H91723  11.462   9.381   5.721 -0.8728  0.7346  0.4875
  665MOL0     H91724  11.548   9.462   5.505 -0.3083 -2.0090  0.7065
  665MOL0     H91725  11.614   9.609   5.574 -0.6938 -0.0319  0.9181
  665MOL0     H91726  11.707   9.330   5.660 -1.0498 -0.8019 -0.7269
  665MOL0     H91727  11.783   9.425   5.541  0.2896  0.5965  1.2032
  665MOL0     H91728  11.884   9.602   5.926 -2.0900 -0.4281 -0.1599
  665MOL0     H91729  12.057   9.888   5.971 -0.3907 -0.2664 -1.7146
  665MOL0     H91730  12.202   9.777   5.978 -0.0454 -0.9678 -1.0238
  665MOL0     H91731  12.055   9.733   6.058  1.2003 -0.9776  0.7345
  665MOL0     H91732  12.569   9.725   5.597 -3.5120 -0.7542  4.9394
  665MOL0     H91733  12.767   9.853   5.555 -0.8085  0.6809 -0.9809
  665MOL0     H91734  12.952   9.975   5.623  2.1569  0.0679  0.0199
  665MOL0     H91735  12.924  10.013   5.445 -3.8973 -1.2737  0.6854
  665MOL0     H91736  13.034  10.240   5.492 -1.1255  1.1320  0.8774
  665MOL0     H91737  13.029  10.211   5.655 -1.5104  1.2064 -0.9106
  665MOL0     H91738  13.182  10.001   5.615  0.8628 -0.7686 -2.0503
  665MOL0     H91739  13.255  10.154   5.570 -0.5956  0.3921  2.1575
  665MOL0     H91740  13.198  10.108   5.320  0.8757 -1.6902 -1.6594
  665MOL0     H91741  13.107   9.974   5.353  2.0817 -0.2182 -2.4498
  665MOL0     H91742  13.292   9.851   5.444  0.8461  0.8469  0.6282
  665MOL0     H91743  13.318   9.899   5.281  1.2109  2.1305 -1.2715
  665MOL0     H91744  13.518   9.914   5.387  0.1906 -0.6919  0.1663
  665MOL0     H91745  13.474  10.007   5.527 -0.0465 -2.0207  0.2795
  665MOL0     H91746  13.407  10.189   5.341 -0.6325 -1.3211  1.7011
  665MOL0     H91747  13.494  10.072   5.225 -0.8422 -0.2180 -0.4425
  665MOL0     H91748  13.694  10.134   5.294 -0.7170  1.0765 -1.4218
  665MOL0     H91749  13.639  10.194   5.463  1.2110  1.2052  0.4773
  665MOL0     H91750  12.565  10.218   5.656  1.2898 -0.3145  0.7014
  665MOL0     H91751  12.354  10.100   5.657  0.6117  0.8740  0.2208
  665MOL0     H91752  12.098   9.741   5.507 -1.0997  2.2320  0.9703
  665MOL0     H91753  11.914   9.602   5.503  0.2236  4.2999 -0.7249
  665MOL0     H91754   9.951   9.543   5.405  0.0887 -0.2588  0.1569
  665MOL0     H91755   9.739   9.657   5.448 -0.7988  0.3815 -0.8092
  665MOL0     H91756   9.585  10.013   5.800  0.6494  1.4200 -0.3794
  665MOL0     H91757   9.388  10.076   5.932  0.8780 -2.4496  1.1909
  665MOL0     H91758   9.196  10.083   6.014 -0.7592 -1.9696 -1.6338
  665MOL0     H91759   9.231  10.246   5.955  0.0471 -0.2263  1.1773
  665MOL0     H91760   8.997  10.310   5.940 -1.4193  1.0997  1.7993
  665MOL0     H91761   9.047  10.268   6.101  0.6023 -1.2169  0.9526
  665MOL0     H91762   8.816  10.170   6.008 -1.7092 -0.7413  3.3264
  665MOL0     H91763   8.922  10.050   5.937 -1.6390 -0.2291  1.0963
  665MOL0     H91764   8.903  10.122   6.229  2.1720 -1.1478  2.2340
  665MOL0     H91765   9.030  10.018   6.174 -0.1448 -1.8768 -2.7590
  665MOL0     H91766   8.734   9.743   6.239  1.2168 -0.9990  0.0144
  665MOL0     H91767   9.127   9.997   5.605 -0.0088  0.6198 -0.4936
  665MOL0     H91768   9.297   9.966   5.359  1.1808 -0.9444 -1.3599
  665MOL0     H91769   9.382   9.807   5.403 -1.4738 -2.8890  0.8585
  665MOL0     H91770   9.215   9.825   5.441  2.5936 -4.6543 -2.5444
  666MOL0     O91771   0.312   8.376   9.015  0.2476  0.4188 -0.1095
  666MOL0     C91772   0.276   8.317   9.121  0.4582 -0.9497  0.2264
  666MOL0     O91773   0.366   8.269   9.220  0.1477 -0.3853 -0.1026
  666MOL0     C91774   0.474   8.340   9.238  0.4113 -0.1091 -0.6656
  666MOL0     C91775   0.594   8.283   9.197 -0.0965  0.2101 -0.6200
  666MOL0     C91776   0.715   8.354   9.207  0.7568  0.2596  0.4265
  666MOL0     C91777   0.714   8.489   9.244  0.1228  0.1904 -0.8931
  666MOL0     O91778   0.828   8.570   9.256  0.6685  0.4815 -0.0133
  666MOL0     C91779   0.955   8.512   9.230  0.8311 -0.0371  0.7812
  666MOL0     C91780   1.064   8.615   9.247 -0.0559 -0.5219 -0.3430
  666MOL0     C91781   1.206   8.555   9.239 -0.1081 -0.0519 -0.0636
  666MOL0     C91782   1.301   8.672   9.277  0.1685  0.1228 -0.2669
  666MOL0     C91783   1.446   8.630   9.292  0.0385  0.3471 -0.8275
  666MOL0     C91784   1.475   8.557   9.424 -0.1290 -0.5986 -0.2728
  666MOL0     C91785   1.619   8.490   9.433  0.0578 -0.6406  0.3904
  666MOL0     C91786   1.650   8.407   9.557  0.8706  0.5303  0.5622
  666MOL0     N91787   1.786   8.394   9.599  0.3488  0.0723  0.6359
  666MOL0     C91788   1.882   8.333   9.528 -0.5406 -0.5670 -0.3181
  666MOL0     C91789   1.975   8.302   9.613 -0.8992 -0.0103 -0.0495
  666MOL0     C91790   2.103   8.231   9.570 -0.2383  0.3327 -0.4281
  666MOL0     C91791   2.239   8.296   9.613  0.8593 -0.2162  0.0293
  666MOL0     C91792   2.248   8.299   9.761  0.1401  0.3190 -0.6809
  666MOL0     C91793   2.397   8.301   9.793  0.3215 -0.4486  0.4130
  666MOL0     O91794   2.438   8.161   9.793  0.2705 -0.1137  0.0914
  666MOL0     C91795   2.556   8.136   9.855 -0.0291 -0.1796 -0.0908
  666MOL0     C91796   2.598   8.006   9.886 -0.2449 -0.2962  0.0982
  666MOL0     C91797   2.708   7.974   9.961 -0.0191  0.4875 -0.2767
  666MOL0     C91798   2.706   7.828  10.015  0.5238  0.9742  0.4710
  666MOL0     C91799   2.792   8.080  10.002  0.9647 -0.1223  0.2850
  666MOL0     C91800   2.919   8.053  10.066  0.3181 -0.8954  0.2905
  666MOL0     O91801   2.985   8.162  10.109  0.0329 -0.0847 -0.1788
  666MOL0     C91802   3.118   8.139  10.119  0.4091 -0.2300 -0.1016
  666MOL0     C91803   3.170   8.050  10.210 -0.0927 -0.1222  0.0434
  666MOL0     C91804   3.310   8.028  10.230  0.3929 -0.8324  0.1176
  666MOL0     C91805   3.401   8.094  10.147 -0.3502 -0.6651  0.7209
  666MOL0     O91806   3.534   8.073  10.161  1.1384  0.4276  0.0997
  666MOL0     C91807   3.590   7.993  10.265  0.4508 -0.8209 -0.5090
  666MOL0     C91808   3.744   8.015  10.259  0.2346  0.6680 -0.4083
  666MOL0     C91809   3.806   7.894  10.179 -0.2612 -0.5270  0.6249
  666MOL0     C91810   3.958   7.899  10.185  0.0416  0.2950 -0.2253
  666MOL0     C91811   4.020   7.802  10.084  0.8182  0.0835 -0.4749
  666MOL0     C91812   3.989   7.850   9.941  0.0114  0.1463  0.4711
  666MOL0     C91813   4.107   7.809   9.850 -0.4159 -0.3869 -1.0215
  666MOL0     C91814   4.088   7.829   9.703 -0.6613 -0.7331  0.1878
  666MOL0    Cl91815   3.969   7.721   9.637 -0.1607 -0.6783 -0.2409
  666MOL0     C91816   3.346   8.179  10.045 -0.3668  0.1323 -0.3205
  666MOL0     C91817   3.205   8.193  10.027 -0.1462 -0.6576 -0.4059
  666MOL0     O91818   2.946   7.936  10.084 -0.4636 -0.6139 -0.3188
  666MOL0     C91819   2.765   8.210   9.957 -0.8010 -0.4946  0.4466
  666MOL0     C91820   2.649   8.233   9.890  1.0954 -0.9383 -0.1409
  666MOL0     N91821   1.930   8.343   9.739 -0.5187 -0.2137 -1.0277
  666MOL0     N91822   1.824   8.406   9.731  1.0254 -0.1819  0.2281
  666MOL0     C91823   0.586   8.543   9.275  0.2722  0.8249 -0.8781
  666MOL0     C91824   0.468   8.474   9.274  1.0276 -0.2727  0.1685
  666MOL0     C91825   0.136   8.301   9.150  0.7066  0.3480 -0.1806
  666MOL0     C91826   0.093   8.278   9.285 -0.2014  0.1263  0.0832
  666MOL0     C91827  -0.042   8.256   9.318 -0.5875 -0.8680  0.2750
  666MOL0     C91828  -0.137   8.271   9.224 -0.4389 -0.6297  0.5434
  666MOL0     O91829  -0.260   8.235   9.271 -0.1612 -0.1953  0.0168
  666MOL0     C91830  -0.378   8.269   9.192 -0.0334 -0.8496 -0.6342
  666MOL0     C91831  -0.496   8.196   9.263  0.2478 -0.8726 -0.3101
  666MOL0     C91832  -0.635   8.235   9.193 -1.1257 -0.1247 -0.8589
  666MOL0     C91833  -0.748   8.168   9.277  0.5369 -0.0059  0.3717
  666MOL0     C91834  -0.776   8.242   9.396 -0.8633  1.3432 -0.7303
  666MOL0     C91835  -0.796   8.322   9.487 -0.0828  0.8413  0.8500
  666MOL0     C91836  -0.101   8.305   9.095  1.1333  0.2560  0.3590
  666MOL0     C91837   0.030   8.314   9.052 -0.6769  0.3254  0.4827
  666MOL0     C91838   0.050   8.330   8.904  0.2584 -0.0110  1.1028
  666MOL0     H91839   0.600   8.177   9.174 -0.0285 -0.2387  1.3011
  666MOL0     H91840   0.799   8.296   9.172  0.6883  0.9675 -0.9972
  666MOL0     H91841   0.959   8.490   9.122 -0.5099  1.4247  0.3900
  666MOL0     H91842   0.977   8.427   9.295 -0.1718 -2.1803 -1.4994
  666MOL0     H91843   1.062   8.688   9.166 -0.4252  1.2780  1.2099
  666MOL0     H91844   1.045   8.668   9.341  0.1457  0.1513 -0.6698
  666MOL0     H91845   1.215   8.486   9.324  1.7844  1.3913  0.9949
  666MOL0     H91846   1.242   8.509   9.147  0.9657 -0.9708  0.7785
  666MOL0     H91847   1.293   8.740   9.191 -1.6164  0.5524  0.2113
  666MOL0     H91848   1.268   8.725   9.367  1.0977 -1.2898  0.9472
  666MOL0     H91849   1.518   8.712   9.293  1.0159 -0.4624  1.9725
  666MOL0     H91850   1.472   8.571   9.203 -1.0855  3.0153 -3.1033
  666MOL0     H91851   1.474   8.635   9.502  0.9035 -1.0170  0.1722
  666MOL0     H91852   1.399   8.479   9.436  1.3455 -2.0682 -0.1443
  666MOL0     H91853   1.696   8.566   9.415  0.4147 -0.8446  1.0329
  666MOL0     H91854   1.629   8.420   9.349 -1.1644 -1.8956  1.2568
  666MOL0     H91855   1.597   8.440   9.647  3.9956 -1.1671  3.2305
  666MOL0     H91856   1.606   8.309   9.535 -2.3759  2.1238 -0.7651
  666MOL0     H91857   1.881   8.312   9.421  1.3258 -0.4569 -0.3917
  666MOL0     H91858   2.110   8.229   9.461 -1.7689  1.7973 -0.6035
  666MOL0     H91859   2.094   8.126   9.599  1.4806  0.2417 -0.1454
  666MOL0     H91860   2.326   8.244   9.571  0.3372 -0.1446 -1.2058
  666MOL0     H91861   2.248   8.397   9.573  1.3604 -0.0603  0.5330
  666MOL0     H91862   2.193   8.386   9.796  0.2715  0.0223  0.2800
  666MOL0     H91863   2.208   8.211   9.812  1.3376 -0.2335 -0.6637
  666MOL0     H91864   2.454   8.370   9.731  0.0186  0.0784  0.7131
  666MOL0     H91865   2.403   8.334   9.897  1.1127  2.0313 -0.3560
  666MOL0     H91866   2.529   7.930   9.850 -1.2352  0.6693 -0.1136
  666MOL0     H91867   2.611   7.776   9.998  0.9093  0.0479  1.0080
  666MOL0     H91868   2.718   7.834  10.124 -1.0430 -1.6361  0.8804
  666MOL0     H91869   2.785   7.764   9.975  0.8007  0.3036  1.9835
  666MOL0     H91870   3.102   7.995  10.274  1.9607 -3.9417 -0.7485
  666MOL0     H91871   3.346   7.950  10.295  1.9025  0.5790  1.0562
  666MOL0     H91872   3.559   8.023  10.365  1.2077 -0.1688 -0.4682
  666MOL0     H91873   3.567   7.886  10.257 -0.8805 -0.6742  0.8915
  666MOL0     H91874   3.782   8.109  10.220  3.4274  0.5052  1.8649
  666MOL0     H91875   3.776   8.012  10.364  3.6210  0.3880 -1.3059
  666MOL0     H91876   3.781   7.922  10.076  1.1174  0.7372  0.5970
  666MOL0     H91877   3.768   7.797  10.211  0.9318 -0.9757  0.7392
  666MOL0     H91878   4.002   7.881  10.284 -1.2846  0.0079  0.3425
  666MOL0     H91879   3.991   8.000  10.159 -3.6170  1.3703 -1.3123
  666MOL0     H91880   4.126   7.813  10.106  0.9520  1.7708 -1.8225
  666MOL0     H91881   3.988   7.697  10.092  0.2757  0.3661  1.5240
  666MOL0     H91882   3.980   7.959   9.948 -1.6767  0.1651 -1.2977
  666MOL0     H91883   3.895   7.803   9.911  0.8371  0.2715 -2.6875
  666MOL0     H91884   4.129   7.703   9.861  1.1162  0.0846  1.2450
  666MOL0     H91885   4.197   7.861   9.885 -1.6394  1.2776 -0.2021
  666MOL0     H91886   4.182   7.816   9.648 -0.6623 -1.2911  0.3076
  666MOL0     H91887   4.057   7.934   9.699  2.3568  0.3174  1.4236
  666MOL0     H91888   3.414   8.244   9.992  0.0690 -0.5365 -0.5977
  666MOL0     H91889   3.169   8.270   9.959  1.6385  2.7132  2.1578
  666MOL0     H91890   2.829   8.298   9.966  2.4297 -2.5582 -0.5212
  666MOL0     H91891   2.636   8.339   9.870 -2.7377 -0.7193  2.4718
  666MOL0     H91892   0.570   8.641   9.320  2.2036 -0.8519  4.2852
  666MOL0     H91893   0.370   8.517   9.290 -1.0763 -4.5658  0.0965
  666MOL0     H91894   0.167   8.266   9.363  0.0867  0.0090 -0.2071
  666MOL0     H91895  -0.075   8.237   9.420 -0.6802 -0.7267  0.2725
  666MOL0     H91896  -0.399   8.377   9.193  0.1543 -0.8115 -0.8799
  666MOL0     H91897  -0.373   8.243   9.086 -0.8201  1.5016 -1.3214
  666MOL0     H91898  -0.491   8.234   9.365  1.0524  1.6985 -1.2094
  666MOL0     H91899  -0.484   8.088   9.271 -2.3341 -1.0948  2.2790
  666MOL0     H91900  -0.635   8.344   9.205 -2.5133  0.0378 -2.0470
  666MOL0     H91901  -0.633   8.206   9.088 -2.3074 -0.7352 -0.7251
  666MOL0     H91902  -0.721   8.066   9.306  4.9300  1.0883  0.9160
  666MOL0     H91903  -0.831   8.166   9.206  0.5439  1.6968  0.2610
  666MOL0     H91904  -0.797   8.399   9.562  2.1198  2.4682 -0.6530
  666MOL0     H91905  -0.174   8.321   9.016  2.5079  1.3643 -0.7514
  666MOL0     H91906   0.089   8.235   8.867 -0.4415  0.6412 -1.5321
  666MOL0     H91907  -0.045   8.339   8.850  0.4966  0.1928  0.7075
  666MOL0     H91908   0.115   8.416   8.884 -0.2500 -0.0164 -0.7415
  667MOL0     O91909   0.435   5.439   0.422  0.4743  0.4645 -0.4313
  667MOL0     C91910   0.326   5.409   0.390 -1.3089  0.8359 -0.2177
  667MOL0     O91911   0.280   5.409   0.261 -0.1308 -0.5567  0.1903
  667MOL0     C91912   0.337   5.473   0.155  0.6528  0.1178  0.3494
  667MOL0     C91913   0.305   5.427   0.018 -0.1734  0.1531 -0.3854
  667MOL0     C91914   0.365   5.494  -0.087 -0.1175 -0.3947 -0.4896
  667MOL0     C91915   0.461   5.602  -0.071  0.4345 -0.6213 -0.0104
  667MOL0     O91916   0.516   5.672  -0.179  0.1931 -0.2152  0.3614
  667MOL0     C91917   0.630   5.612  -0.240  0.2889  0.3011  0.3489
  667MOL0     C91918   0.753   5.612  -0.145  0.6262 -0.8483 -0.5189
  667MOL0     C91919   0.873   5.563  -0.212 -0.6650  0.0770 -0.2089
  667MOL0     C91920   0.863   5.426  -0.287  0.2541 -0.1393  0.5277
  667MOL0     C91921   0.993   5.391  -0.359  0.7408  1.0087  0.2088
  667MOL0     C91922   1.098   5.327  -0.279 -0.3063 -0.7920 -0.8835
  667MOL0     C91923   1.224   5.288  -0.359  0.3046  0.8606  0.2513
  667MOL0     C91924   1.350   5.276  -0.267  0.1410  0.3185 -0.6611
  667MOL0     N91925   1.337   5.210  -0.130  0.0579 -0.0530 -0.6012
  667MOL0     C91926   1.329   5.078  -0.096 -1.1962 -0.1350  0.8012
  667MOL0     C91927   1.334   5.072   0.043  0.1292  0.1575  0.9375
  667MOL0     C91928   1.336   4.946   0.129  0.0131 -0.2062 -0.4907
  667MOL0     C91929   1.265   4.831   0.067  0.5384 -0.3372 -0.3355
  667MOL0     C91930   1.113   4.830   0.076 -0.1778  0.3316  0.5653
  667MOL0     C91931   1.076   4.847   0.223  0.7632  0.0859 -0.2836
  667MOL0     O91932   0.938   4.823   0.225 -0.3000  0.3417  0.5966
  667MOL0     C91933   0.881   4.760   0.330 -0.4720  1.1505 -0.7937
  667MOL0     C91934   0.939   4.771   0.460  0.0489 -0.3388 -0.5850
  667MOL0     C91935   0.877   4.715   0.569  0.0893  0.2076 -0.4907
  667MOL0     C91936   0.939   4.728   0.702 -0.2536 -0.0987 -0.2143
  667MOL0     C91937   0.748   4.649   0.552  0.8466 -0.8466 -0.0950
  667MOL0     C91938   0.663   4.596   0.663  0.4556  0.5802  0.4096
  667MOL0     O91939   0.524   4.616   0.647  0.2650  0.2868 -0.2178
  667MOL0     C91940   0.431   4.539   0.713  0.5632  0.1964 -0.3154
  667MOL0     C91941   0.326   4.494   0.627 -0.5116  0.4310 -0.0124
  667MOL0     C91942   0.227   4.398   0.666  0.7692  0.5665  1.5507
  667MOL0     C91943   0.221   4.367   0.806  0.7098  0.1051 -0.7617
  667MOL0     O91944   0.125   4.275   0.846 -0.0248 -0.8682  0.2545
  667MOL0     C91945   0.136   4.201   0.974  0.4850 -0.0285  0.3029
  667MOL0     C91946   0.030   4.093   0.987  0.6819 -1.0687  0.0634
  667MOL0     C91947  -0.106   4.165   1.022 -0.3765  0.7623 -0.6074
  667MOL0     C91948  -0.228   4.065   1.029 -0.5132  0.5551 -0.8179
  667MOL0     C91949  -0.355   4.129   1.087 -0.2388 -0.4019  0.0608
  667MOL0     C91950  -0.467   4.017   1.091  0.1364  0.5056  0.0107
  667MOL0     C91951  -0.604   4.066   1.146  0.0508  0.0113 -0.3710
  667MOL0     C91952  -0.698   3.948   1.183  0.2690  0.2851 -0.7079
  667MOL0    Cl91953  -0.843   4.016   1.250 -0.0794  0.4485 -0.1258
  667MOL0     C91954   0.308   4.425   0.894  0.4834 -0.2977 -0.4939
  667MOL0     C91955   0.423   4.505   0.849  1.0506 -0.5970  0.5041
  667MOL0     O91956   0.715   4.527   0.751  0.5683  0.1688 -0.0317
  667MOL0     C91957   0.691   4.649   0.425  0.1038  0.2068 -0.1227
  667MOL0     C91958   0.751   4.707   0.318  0.3926 -0.4234 -0.4225
  667MOL0     N91959   1.337   5.209   0.084 -0.0507  0.5253 -0.3646
  667MOL0     N91960   1.350   5.284  -0.018 -0.1989  0.1250 -0.1835
  667MOL0     C91961   0.491   5.644   0.058 -0.0175 -0.8208  0.2212
  667MOL0     C91962   0.429   5.583   0.171 -0.6108  0.0651  0.0629
  667MOL0     C91963   0.244   5.347   0.502  0.3271 -0.4039  0.0645
  667MOL0     C91964   0.109   5.329   0.492  0.7525 -0.3442 -0.4429
  667MOL0     C91965   0.029   5.276   0.586 -0.3247  0.3880 -0.4115
  667MOL0     C91966   0.081   5.209   0.693  0.1438 -0.9020 -0.3725
  667MOL0     O91967  -0.015   5.158   0.772 -0.0560 -0.2696 -0.2272
  667MOL0     C91968   0.031   5.120   0.902 -0.6613  0.0935 -0.5413
  667MOL0     C91969  -0.081   5.091   0.992 -0.3308  0.0332 -0.4487
  667MOL0     C91970  -0.028   5.056   1.137  0.2189 -0.3968  0.0491
  667MOL0     C91971  -0.140   5.001   1.224 -0.1827  0.0395  0.3935
  667MOL0     C91972  -0.109   4.951   1.357  0.1661 -0.3550 -1.0697
  667MOL0     C91973  -0.076   4.911   1.475  0.9323 -0.5084 -0.5969
  667MOL0     C91974   0.224   5.212   0.714  0.2863  0.4402  0.8583
  667MOL0     C91975   0.304   5.287   0.622 -1.0757  0.3468 -0.2706
  667MOL0     C91976   0.454   5.291   0.656  0.2031  0.1159 -0.1784
  667MOL0     H91977   0.236   5.345   0.003  1.0751 -0.7551 -1.4255
  667MOL0     H91978   0.338   5.454  -0.185 -2.8981  2.2037 -0.9574
  667MOL0     H91979   0.655   5.653  -0.338 -0.4772  0.5413  0.2460
  667MOL0     H91980   0.607   5.508  -0.265  0.9067  0.6629 -2.0220
  667MOL0     H91981   0.777   5.715  -0.117 -1.4217  0.4319 -3.0215
  667MOL0     H91982   0.725   5.564  -0.051 -2.4848  0.3983 -0.6931
  667MOL0     H91983   0.908   5.646  -0.274  0.0851  0.1706  0.3322
  667MOL0     H91984   0.950   5.541  -0.138 -0.2540  1.7270 -0.1049
  667MOL0     H91985   0.833   5.347  -0.217 -0.8816 -0.1108  0.1107
  667MOL0     H91986   0.786   5.432  -0.365 -0.3460  0.1513  1.1304
  667MOL0     H91987   1.030   5.484  -0.403  1.5231  0.8563  0.5247
  667MOL0     H91988   0.983   5.323  -0.444  1.9286  1.1298 -0.0450
  667MOL0     H91989   1.137   5.387  -0.197 -0.4906  0.5377 -1.7270
  667MOL0     H91990   1.053   5.243  -0.225 -0.7365  0.1301  0.2267
  667MOL0     H91991   1.252   5.346  -0.448  1.2778 -0.0619 -0.0628
  667MOL0     H91992   1.201   5.187  -0.395  2.5398  0.3606  0.0675
  667MOL0     H91993   1.427   5.220  -0.320  2.0014  1.2969  0.9197
  667MOL0     H91994   1.400   5.372  -0.249  1.6024 -0.3479 -1.0717
  667MOL0     H91995   1.323   5.010  -0.181  0.4007  1.5659 -0.7845
  667MOL0     H91996   1.296   4.956   0.230 -0.2277 -2.7092 -0.2647
  667MOL0     H91997   1.434   4.899   0.138 -0.2821 -1.3062 -2.4969
  667MOL0     H91998   1.303   4.812  -0.033  2.3011  0.4917  0.1331
  667MOL0     H91999   1.287   4.740   0.123  0.1342  0.0079  0.4064
  667MOL0     H92000   1.060   4.904   0.014 -2.4423  0.2607  2.2754
  667MOL0     H92001   1.082   4.733   0.034 -0.8151  1.3472 -1.4683
  667MOL0     H92002   1.135   4.779   0.285  2.5288  2.5190  0.8866
  667MOL0     H92003   1.100   4.951   0.247  1.2135  0.2608 -1.4444
  667MOL0     H92004   1.035   4.818   0.477 -0.2597  0.0354  0.1835
  667MOL0     H92005   0.999   4.642   0.732 -2.0295 -1.9889 -1.7293
  667MOL0     H92006   0.866   4.726   0.783  1.2263 -3.0938  1.2082
  667MOL0     H92007   0.997   4.820   0.710 -0.8642  0.3056 -0.3437
  667MOL0     H92008   0.332   4.525   0.523 -0.4445 -0.0528 -0.1594
  667MOL0     H92009   0.167   4.349   0.590  3.2092 -1.9603  1.0745
  667MOL0     H92010   0.232   4.148   0.974  0.2803 -0.4497 -0.9889
  667MOL0     H92011   0.134   4.262   1.064 -1.4160 -0.2641  0.4683
  667MOL0     H92012   0.019   4.038   0.893 -2.1555 -0.5272  0.0065
  667MOL0     H92013   0.055   4.028   1.071  3.4405 -2.1410 -1.4397
  667MOL0     H92014  -0.138   4.235   0.944  0.4902  1.8742 -0.0050
  667MOL0     H92015  -0.091   4.225   1.112  0.6798  2.3020 -1.7460
  667MOL0     H92016  -0.194   3.973   1.077  1.8469 -0.1582 -3.5924
  667MOL0     H92017  -0.264   4.043   0.928  1.1751 -1.7394 -1.0002
  667MOL0     H92018  -0.343   4.164   1.190 -2.7963  1.8821 -0.3096
  667MOL0     H92019  -0.377   4.220   1.029  0.0487 -0.2376  0.2069
  667MOL0     H92020  -0.421   3.938   1.152 -0.0087 -0.7100 -1.3680
  667MOL0     H92021  -0.487   3.989   0.987 -2.8373  2.5527 -0.0599
  667MOL0     H92022  -0.655   4.132   1.075 -1.4630 -1.3629 -0.6302
  667MOL0     H92023  -0.588   4.120   1.240 -0.3894  0.8645 -0.7720
  667MOL0     H92024  -0.656   3.883   1.260  0.3371  0.1347 -0.8701
  667MOL0     H92025  -0.720   3.890   1.093 -0.5888 -0.7729  0.1538
  667MOL0     H92026   0.299   4.409   1.001 -0.0606 -0.4185 -0.5550
  667MOL0     H92027   0.497   4.543   0.920  1.0734  4.2446 -1.7015
  667MOL0     H92028   0.603   4.589   0.407 -2.5403  1.8773  5.0117
  667MOL0     H92029   0.711   4.693   0.218 -1.3310 -1.6787  0.3818
  667MOL0     H92030   0.570   5.716   0.076 -1.7204  0.6175  2.4497
  667MOL0     H92031   0.460   5.613   0.270  1.4245  0.3478 -0.6145
  667MOL0     H92032   0.063   5.369   0.402  0.0141 -1.9306 -0.7917
  667MOL0     H92033  -0.079   5.277   0.575 -0.4643  1.0885  0.8460
  667MOL0     H92034   0.090   5.029   0.888  1.8014  1.7270 -1.5347
  667MOL0     H92035   0.092   5.199   0.947  0.4135  0.4932 -2.5539
  667MOL0     H92036  -0.146   5.009   0.959 -0.6740 -0.5686  1.5787
  667MOL0     H92037  -0.147   5.178   1.000  1.9114  1.9016 -1.1416
  667MOL0     H92038   0.048   4.977   1.142 -0.8506 -1.3971  0.9725
  667MOL0     H92039   0.006   5.151   1.178  0.0893 -0.6863  0.8318
  667MOL0     H92040  -0.195   4.927   1.164 -0.4561 -0.7848  1.6254
  667MOL0     H92041  -0.209   5.083   1.242  1.8588  1.7295  0.8533
  667MOL0     H92042  -0.055   4.875   1.574 -1.1048 -1.0680 -0.3360
  667MOL0     H92043   0.273   5.163   0.798 -1.1240  1.2181  2.1887
  667MOL0     H92044   0.472   5.237   0.749 -1.0591  1.0722  0.6384
  667MOL0     H92045   0.521   5.252   0.578  0.9755  1.2738 -0.1166
  667MOL0     H92046   0.479   5.397   0.654 -2.5197  0.9167 -4.1143
  668MOL0     O92047   6.221   7.661   7.055  0.0388  0.1705  0.8330
  668MOL0     C92048   6.183   7.669   6.935 -0.2430 -0.0373 -0.6440
  668MOL0     O92049   6.233   7.753   6.841  0.3832  0.1826  0.3468
  668MOL0     C92050   6.347   7.828   6.860  0.4441 -0.0462  0.1764
  668MOL0     C92051   6.468   7.769   6.839 -0.1982  0.4608 -0.1024
  668MOL0     C92052   6.589   7.828   6.855 -0.2339 -0.2370 -0.2123
  668MOL0     C92053   6.600   7.957   6.900  0.4653 -0.1580 -0.2939
  668MOL0     O92054   6.721   8.027   6.907  0.6883  0.0561  0.2335
  668MOL0     C92055   6.844   7.946   6.923 -0.0615 -0.1398 -0.2434
  668MOL0     C92056   6.956   8.045   6.948  0.0831 -0.0122  0.3993
  668MOL0     C92057   7.103   7.993   6.952  0.3671 -0.4726  0.2593
  668MOL0     C92058   7.200   8.097   6.885  0.1355  0.2537  0.0397
  668MOL0     C92059   7.336   8.033   6.888  0.1019 -0.1290 -1.0621
  668MOL0     C92060   7.451   8.131   6.892 -0.3956 -0.1359  0.3995
  668MOL0     C92061   7.586   8.059   6.880 -0.2086  0.0776 -0.5180
  668MOL0     C92062   7.632   7.996   7.013  0.8682 -0.7607  0.1504
  668MOL0     N92063   7.775   7.957   6.998  0.2457 -0.5094 -0.6269
  668MOL0     C92064   7.824   7.839   6.946  0.2698 -0.0076 -0.0057
  668MOL0     C92065   7.952   7.870   6.929  0.3721 -0.1332  0.3479
  668MOL0     C92066   8.053   7.766   6.894 -0.3201  0.4411  0.9484
  668MOL0     C92067   8.199   7.794   6.933 -0.1951 -0.1980 -0.3560
  668MOL0     C92068   8.295   7.674   6.901 -0.0107  0.0750 -0.0707
  668MOL0     C92069   8.438   7.721   6.877  0.9751 -0.3522 -0.8019
  668MOL0     O92070   8.531   7.611   6.850 -0.1664  0.5579 -0.1598
  668MOL0     C92071   8.666   7.644   6.843  0.0084  0.2981  0.5933
  668MOL0     C92072   8.759   7.540   6.810 -0.3901 -0.3278 -0.5796
  668MOL0     C92073   8.897   7.552   6.827  0.1689 -0.1281  0.0843
  668MOL0     C92074   8.971   7.423   6.805  1.1343  0.5400  0.0396
  668MOL0     C92075   8.950   7.685   6.846  0.2579 -0.4461 -1.5842
  668MOL0     C92076   9.090   7.724   6.837 -1.6464 -0.3822  0.3604
  668MOL0     O92077   9.123   7.850   6.866 -0.1520  0.2569 -0.5886
  668MOL0     C92078   9.246   7.902   6.848 -0.8003  0.4908 -0.3741
  668MOL0     C92079   9.351   7.878   6.936  0.5044  0.5438  0.0383
  668MOL0     C92080   9.472   7.940   6.909 -0.4476 -0.1098  0.3518
  668MOL0     C92081   9.491   8.028   6.806  0.1802 -0.1744 -0.5082
  668MOL0     O92082   9.607   8.096   6.815 -0.0239  0.4528 -0.3718
  668MOL0     C92083   9.652   8.158   6.700 -0.4308  0.0254 -0.7370
  668MOL0     C92084   9.805   8.144   6.709  0.4219  0.6520  0.8914
  668MOL0     C92085   9.872   8.221   6.819 -0.1011 -0.2963  0.1089
  668MOL0     C92086   9.861   8.162   6.959  0.8422  0.1914 -0.0002
  668MOL0     C92087   9.961   8.227   7.052 -0.2450 -0.4028 -0.7397
  668MOL0     C92088   9.948   8.176   7.190  0.7689  0.3543 -0.0743
  668MOL0     C92089  10.056   8.213   7.299  0.2272  0.6983 -0.1094
  668MOL0     C92090  10.193   8.156   7.264  0.1250  0.7988 -0.8096
  668MOL0    Cl92091  10.303   8.161   7.397  0.1854  0.5164  0.4053
  668MOL0     C92092   9.395   8.044   6.711  0.8054  0.7038  1.2616
  668MOL0     C92093   9.266   7.983   6.733  0.2120 -0.4485 -0.3830
  668MOL0     O92094   9.173   7.635   6.814 -0.1999  0.3092  0.3343
  668MOL0     C92095   8.853   7.793   6.873  0.0575  0.3409 -0.4893
  668MOL0     C92096   8.718   7.770   6.864  0.0913 -0.1896  0.4304
  668MOL0     N92097   7.991   7.993   6.989  0.3815 -0.1572 -0.1303
  668MOL0     N92098   7.876   8.036   7.034 -0.2697  0.1991 -0.3398
  668MOL0     C92099   6.472   8.022   6.924 -0.3710  0.1564  1.1866
  668MOL0     C92100   6.349   7.953   6.903  0.7439 -0.2051  0.0422
  668MOL0     C92101   6.072   7.584   6.892  0.1192  0.0453  0.5542
  668MOL0     C92102   6.004   7.615   6.763  0.1009  0.0001 -0.3733
  668MOL0     C92103   5.905   7.535   6.711  0.3332 -0.5666 -0.4483
  668MOL0     C92104   5.856   7.433   6.789  0.9387  0.2270  0.1152
  668MOL0     O92105   5.756   7.344   6.752 -0.5129 -0.0583  0.1780
  668MOL0     C92106   5.679   7.373   6.628 -0.6370 -0.1564  0.5223
  668MOL0     C92107   5.573   7.263   6.619 -0.5159  0.5511 -0.7685
  668MOL0     C92108   5.500   7.271   6.491  1.0577 -0.1612 -0.4518
  668MOL0     C92109   5.406   7.395   6.489 -0.1326 -0.8616  0.2136
  668MOL0     C92110   5.307   7.395   6.602  1.0493 -0.2984  0.4967
  668MOL0     C92111   5.211   7.379   6.680  0.0884 -0.2160  0.2406
  668MOL0     C92112   5.921   7.396   6.908 -0.1745  0.0560  0.1276
  668MOL0     C92113   6.026   7.470   6.965 -0.0778  0.0252 -0.1727
  668MOL0     C92114   6.094   7.416   7.090 -0.3868 -1.3777 -0.3379
  668MOL0     H92115   6.467   7.666   6.806 -2.9491  0.3547  0.1169
  668MOL0     H92116   6.677   7.771   6.828 -0.1144  0.0341 -0.3939
  668MOL0     H92117   6.863   7.891   6.831 -2.1810  1.6863 -1.9100
  668MOL0     H92118   6.822   7.879   7.006 -3.0678 -1.1060 -1.6694
  668MOL0     H92119   6.951   8.119   6.868  0.1518 -1.9203 -1.4289
  668MOL0     H92120   6.939   8.088   7.048 -1.6262 -0.8273  0.4922
  668MOL0     H92121   7.134   7.971   7.055  2.7863 -0.9706 -0.5037
  668MOL0     H92122   7.111   7.893   6.908 -1.4665  0.2584 -1.8965
  668MOL0     H92123   7.159   8.103   6.784  0.4098  0.8330 -0.0408
  668MOL0     H92124   7.198   8.196   6.930 -2.1653  0.8080 -1.1407
  668MOL0     H92125   7.352   7.967   6.802  1.4141 -1.5363  0.1985
  668MOL0     H92126   7.343   7.960   6.969 -0.9098  1.2642  0.3388
  668MOL0     H92127   7.440   8.200   6.808 -0.2972 -0.5019  0.0823
  668MOL0     H92128   7.450   8.194   6.981 -2.9227  1.4690 -0.6518
  668MOL0     H92129   7.659   8.128   6.837  1.2047 -0.2937  1.1757
  668MOL0     H92130   7.573   7.985   6.801  0.6071  1.3513 -1.9086
  668MOL0     H92131   7.615   8.068   7.093  0.8181 -0.1553 -0.3971
  668MOL0     H92132   7.575   7.903   7.017  0.5603 -0.7782 -2.7765
  668MOL0     H92133   7.772   7.746   6.927  4.2775 -3.6615  4.4098
  668MOL0     H92134   8.050   7.752   6.786 -0.0166 -1.3684  1.1481
  668MOL0     H92135   8.032   7.671   6.944  0.7053  0.4749  1.4708
  668MOL0     H92136   8.228   7.890   6.890 -0.0679  0.7044  1.6283
  668MOL0     H92137   8.191   7.814   7.041  0.2545  0.1804 -0.3864
  668MOL0     H92138   8.301   7.603   6.984  4.0625  0.9327  0.5558
  668MOL0     H92139   8.265   7.627   6.807 -1.1918  1.9399 -0.6857
  668MOL0     H92140   8.433   7.798   6.800  0.7141  2.3163  1.6935
  668MOL0     H92141   8.467   7.780   6.965 -1.1647  1.7893 -1.4178
  668MOL0     H92142   8.723   7.440   6.788 -1.2039  0.0770 -1.1233
  668MOL0     H92143   8.919   7.335   6.843  2.6874 -0.7608 -0.7372
  668MOL0     H92144   9.069   7.422   6.854  0.2914 -1.1285  1.8458
  668MOL0     H92145   8.993   7.394   6.702 -1.2661  0.6793 -0.5711
  668MOL0     H92146   9.336   7.821   7.027 -1.5951  2.5135  1.0300
  668MOL0     H92147   9.554   7.913   6.973  0.2649 -0.8600 -0.8387
  668MOL0     H92148   9.618   8.114   6.606  1.9140  0.9967 -2.1224
  668MOL0     H92149   9.622   8.263   6.698  3.8958  1.4353 -0.7675
  668MOL0     H92150   9.827   8.039   6.731  3.3142  1.1986  1.0162
  668MOL0     H92151   9.847   8.168   6.611  1.5539 -2.7744  0.4104
  668MOL0     H92152   9.828   8.321   6.823 -2.6438 -1.1976 -2.4353
  668MOL0     H92153   9.979   8.229   6.796 -0.2138  0.5287 -0.1689
  668MOL0     H92154   9.858   8.054   6.944 -3.6033  0.3416 -2.0359
  668MOL0     H92155   9.763   8.187   7.001  0.2197 -1.6014 -0.2919
  668MOL0     H92156  10.062   8.210   7.014  0.2446  1.1555 -0.2030
  668MOL0     H92157   9.944   8.335   7.051 -0.2590 -0.4069 -1.6358
  668MOL0     H92158   9.953   8.067   7.177 -0.4732 -0.0698  2.3637
  668MOL0     H92159   9.850   8.208   7.228  1.3771  0.1276  1.7933
  668MOL0     H92160  10.030   8.157   7.389 -0.1504  1.7714  0.4732
  668MOL0     H92161  10.056   8.316   7.335 -1.1285  0.6259  0.1519
  668MOL0     H92162  10.237   8.198   7.173  1.6461 -2.4799 -1.7528
  668MOL0     H92163  10.172   8.050   7.247  0.4206  0.6071 -0.0004
  668MOL0     H92164   9.398   8.112   6.627 -1.0681  0.6591  1.1237
  668MOL0     H92165   9.183   7.987   6.664  0.0986 -0.1825 -0.2317
  668MOL0     H92166   8.887   7.894   6.892  4.1951 -1.3375  2.3444
  668MOL0     H92167   8.656   7.859   6.869  0.2569 -0.0779  0.5290
  668MOL0     H92168   6.463   8.119   6.972 -2.5692 -0.3920  2.0009
  668MOL0     H92169   6.263   8.016   6.925  1.8924  0.8266  1.8214
  668MOL0     H92170   6.032   7.706   6.710 -0.4389  1.9274  2.4186
  668MOL0     H92171   5.863   7.546   6.612 -4.0510 -2.7044  0.9388
  668MOL0     H92172   5.628   7.470   6.632 -2.0932 -0.7538 -1.6712
  668MOL0     H92173   5.739   7.368   6.537  1.5592  0.2172  1.8574
  668MOL0     H92174   5.514   7.275   6.711  2.1112  1.4668  0.8983
  668MOL0     H92175   5.614   7.162   6.627  0.1660  0.9839  3.3669
  668MOL0     H92176   5.571   7.286   6.409  2.5595 -0.1603  0.8055
  668MOL0     H92177   5.456   7.172   6.478  2.1715 -0.5240 -1.6155
  668MOL0     H92178   5.352   7.397   6.394  0.8825  1.0713 -0.3752
  668MOL0     H92179   5.466   7.486   6.497  0.8533 -1.4647 -0.1398
  668MOL0     H92180   5.122   7.369   6.739 -1.3518 -2.3921 -2.0490
  668MOL0     H92181   5.888   7.308   6.963 -2.9648  0.1215 -1.2544
  668MOL0     H92182   6.052   7.318   7.116 -3.3447  0.2128  1.4272
  668MOL0     H92183   6.201   7.413   7.066 -0.9921 -2.8272 -3.2707
  668MOL0     H92184   6.072   7.489   7.169 -0.3135 -0.4719 -1.1332
  669MOL0     O92185   7.373   0.064   6.687  0.6458  0.4726 -0.1967
  669MOL0     C92186   7.452  -0.024   6.689 -0.1093 -0.3130 -0.6058
  669MOL0     O92187   7.422  -0.153   6.718  0.4461  0.2311  0.6969
  669MOL0     C92188   7.286  -0.175   6.713  0.2632 -0.3075 -1.4109
  669MOL0     C92189   7.222  -0.225   6.600 -0.0168 -0.6581 -0.0423
  669MOL0     C92190   7.086  -0.242   6.605 -0.6198 -0.1666  1.4778
  669MOL0     C92191   7.006  -0.220   6.716 -0.5796  0.0030 -0.3794
  669MOL0     O92192   6.870  -0.231   6.718 -0.0954 -0.4943  0.1051
  669MOL0     C92193   6.798  -0.243   6.590 -0.5132  0.2279  0.0463
  669MOL0     C92194   6.660  -0.216   6.644  0.1840  0.4837  0.0342
  669MOL0     C92195   6.556  -0.194   6.527 -0.4420 -0.1378 -0.2511
  669MOL0     C92196   6.417  -0.201   6.571  0.0932  0.2482  0.0877
  669MOL0     C92197   6.332  -0.212   6.444  0.4855  0.2542  0.3350
  669MOL0     C92198   6.184  -0.206   6.496 -0.1491  0.2709 -0.1825
  669MOL0     C92199   6.083  -0.201   6.376  0.5653 -0.0609  0.7016
  669MOL0     C92200   6.063  -0.333   6.315  0.0281 -0.3546 -0.1894
  669MOL0     N92201   5.968  -0.313   6.204 -0.1831 -0.1385  0.4971
  669MOL0     C92202   5.985  -0.256   6.076 -0.8193 -1.1569  1.3968
  669MOL0     C92203   5.857  -0.234   6.029 -0.6231 -0.0905 -0.2443
  669MOL0     C92204   5.820  -0.181   5.891 -0.2289 -0.2812  0.1652
  669MOL0     C92205   5.759  -0.041   5.923 -0.5737 -0.1560 -0.4256
  669MOL0     C92206   5.715   0.030   5.796 -0.2595 -0.7674 -0.1269
  669MOL0     C92207   5.811   0.139   5.741 -0.9589 -0.2725  0.4236
  669MOL0     O92208   5.930   0.080   5.686  0.4763  0.4948 -0.5725
  669MOL0     C92209   6.041   0.053   5.762 -0.7826 -0.1072 -0.2474
  669MOL0     C92210   6.135  -0.032   5.704 -0.1083 -0.7431 -0.2015
  669MOL0     C92211   6.265  -0.044   5.758  0.5074  0.7639 -0.3958
  669MOL0     C92212   6.364  -0.119   5.676  0.4688 -0.4569 -0.6006
  669MOL0     C92213   6.291  -0.004   5.888 -0.2218  0.0011  0.5194
  669MOL0     C92214   6.419  -0.016   5.960 -0.1280  0.2072 -0.2125
  669MOL0     O92215   6.482   0.101   5.994  0.3885 -0.4176 -0.0463
  669MOL0     C92216   6.600   0.087   6.058  0.5839 -0.3876  0.3601
  669MOL0     C92217   6.715   0.051   5.984 -1.3559 -0.3265  0.9454
  669MOL0     C92218   6.841   0.031   6.052  0.1735 -0.4656 -0.0445
  669MOL0     C92219   6.857   0.066   6.186  0.4112  0.3711 -0.1295
  669MOL0     O92220   6.985   0.055   6.241 -0.0013 -0.9029  0.2440
  669MOL0     C92221   7.003   0.078   6.383  0.1892 -0.5456  0.6956
  669MOL0     C92222   7.152   0.080   6.400  1.5372  0.0502 -0.5887
  669MOL0     C92223   7.238   0.190   6.332 -0.0112  0.6863 -0.3316
  669MOL0     C92224   7.390   0.178   6.339 -0.6364 -0.3290  0.1859
  669MOL0     C92225   7.433   0.049   6.273 -0.9160 -0.0274 -0.2012
  669MOL0     C92226   7.583   0.048   6.268  0.6063  0.8899  1.0648
  669MOL0     C92227   7.625  -0.074   6.189  0.4313 -0.3981  0.0869
  669MOL0     C92228   7.779  -0.097   6.178  0.4208 -0.5970  1.0891
  669MOL0    Cl92229   7.847   0.047   6.088 -0.1275 -0.7367 -0.4323
  669MOL0     C92230   6.737   0.100   6.251  0.2297 -0.3167 -0.7612
  669MOL0     C92231   6.610   0.110   6.190 -0.7025  0.8135  0.0305
  669MOL0     O92232   6.465  -0.129   5.982 -0.4950  0.0458 -0.1348
  669MOL0     C92233   6.187   0.061   5.954 -0.0292  0.4066  0.2031
  669MOL0     C92234   6.072   0.102   5.891 -0.5444 -0.3612  0.0224
  669MOL0     N92235   5.770  -0.282   6.128  0.3861 -0.7559  1.1076
  669MOL0     N92236   5.833  -0.318   6.231  0.5015  0.9926  0.1421
  669MOL0     C92237   7.070  -0.179   6.841  0.6016  0.0377 -0.3240
  669MOL0     C92238   7.207  -0.153   6.830 -0.2636  0.1215 -0.4968
  669MOL0     C92239   7.596   0.026   6.664 -0.0151  0.4671 -0.4089
  669MOL0     C92240   7.613   0.166   6.654  1.3315 -0.6502 -0.1948
  669MOL0     C92241   7.745   0.214   6.645  0.0158 -0.5668 -0.6979
  669MOL0     C92242   7.856   0.135   6.656 -0.4313  0.2945 -0.4736
  669MOL0     O92243   7.981   0.183   6.660  0.2830 -0.3067  0.5286
  669MOL0     C92244   8.010   0.288   6.763 -0.1764 -0.8977  0.6351
  669MOL0     C92245   8.160   0.308   6.750 -0.2416 -0.2321  0.2462
  669MOL0     C92246   8.221   0.390   6.864 -0.0793 -0.2110 -0.7705
  669MOL0     C92247   8.213   0.536   6.833  0.0383  0.0518 -0.9205
  669MOL0     C92248   8.232   0.627   6.947 -0.2764 -0.8815  0.1851
  669MOL0     C92249   8.239   0.702   7.041 -0.7610 -0.5394 -0.4093
  669MOL0     C92250   7.836  -0.007   6.640  0.1093 -0.1265 -0.7346
  669MOL0     C92251   7.709  -0.056   6.670 -0.9875  0.2555  0.0388
  669MOL0     C92252   7.708  -0.203   6.705 -0.5880  0.6319  0.1115
  669MOL0     H92253   7.282  -0.237   6.510  2.1338  2.3838  0.8233
  669MOL0     H92254   7.040  -0.294   6.521  0.6635  0.0660  0.6043
  669MOL0     H92255   6.816  -0.337   6.537 -0.8847  1.8234 -3.1938
  669MOL0     H92256   6.828  -0.160   6.524 -2.9120  2.4228  1.5540
  669MOL0     H92257   6.617  -0.300   6.699 -1.1207  1.4506  0.5425
  669MOL0     H92258   6.663  -0.142   6.725  0.6960  0.8860 -0.3385
  669MOL0     H92259   6.566  -0.098   6.477 -2.4727 -0.6995 -1.8753
  669MOL0     H92260   6.579  -0.269   6.450 -0.5248  0.1957 -0.6017
  669MOL0     H92261   6.403  -0.283   6.643  1.3988  0.6956  0.8810
  669MOL0     H92262   6.387  -0.114   6.629  1.5500  0.0970  1.1197
  669MOL0     H92263   6.347  -0.305   6.388 -0.9128 -0.7264  1.5021
  669MOL0     H92264   6.351  -0.125   6.380  2.9369  0.2620  0.9890
  669MOL0     H92265   6.160  -0.293   6.557  1.5422  0.5020  0.8695
  669MOL0     H92266   6.163  -0.118   6.558 -1.8512  0.0320 -0.3553
  669MOL0     H92267   6.135  -0.137   6.305  0.0830 -1.2141 -0.7462
  669MOL0     H92268   5.987  -0.154   6.400 -0.2976 -0.5519 -1.4967
  669MOL0     H92269   6.155  -0.372   6.270  1.7301  0.9653  1.9307
  669MOL0     H92270   6.021  -0.406   6.386 -1.9533 -0.1807 -1.1171
  669MOL0     H92271   6.076  -0.224   6.027 -2.9537  2.5378 -0.6258
  669MOL0     H92272   5.743  -0.239   5.840  1.3176 -1.5050 -0.8795
  669MOL0     H92273   5.905  -0.170   5.823  0.5903 -1.5414  0.9549
  669MOL0     H92274   5.670  -0.055   5.986 -2.6866  0.8210 -2.9786
  669MOL0     H92275   5.829   0.021   5.980  2.2176 -2.3650 -1.2212
  669MOL0     H92276   5.694  -0.039   5.713 -0.5025  0.0523 -0.7614
  669MOL0     H92277   5.620   0.081   5.814 -0.5434 -1.6983  1.1513
  669MOL0     H92278   5.772   0.194   5.655  3.0558  0.1039 -1.4225
  669MOL0     H92279   5.836   0.212   5.818 -1.0608  0.5878 -0.3435
  669MOL0     H92280   6.100  -0.076   5.611 -0.3520  1.4904 -1.2217
  669MOL0     H92281   6.323  -0.115   5.574 -2.5337 -3.1129  0.3212
  669MOL0     H92282   6.363  -0.223   5.709  0.2952 -0.9174 -1.9670
  669MOL0     H92283   6.466  -0.080   5.685 -0.1948  0.8257  2.2040
  669MOL0     H92284   6.706   0.020   5.880  1.9593  1.3131  0.0381
  669MOL0     H92285   6.926  -0.010   5.999  0.3027  1.6514 -1.5917
  669MOL0     H92286   6.963   0.177   6.409  0.7083 -0.9412  3.2436
  669MOL0     H92287   6.945   0.001   6.434 -2.9368  1.8790  1.1414
  669MOL0     H92288   7.170   0.097   6.506  1.4788 -0.4150 -0.5013
  669MOL0     H92289   7.181  -0.023   6.376 -1.2670 -1.0949  0.4544
  669MOL0     H92290   7.227   0.290   6.375  0.5633 -0.2166  2.0398
  669MOL0     H92291   7.209   0.203   6.227 -0.3987  2.9943  0.0066
  669MOL0     H92292   7.409   0.189   6.447 -0.1477 -2.9556  0.4212
  669MOL0     H92293   7.438   0.263   6.288  1.5000 -0.5498  1.6775
  669MOL0     H92294   7.410  -0.039   6.334  1.6054  0.8575  2.1577
  669MOL0     H92295   7.394   0.038   6.171  0.2383  1.5722 -0.8459
  669MOL0     H92296   7.639   0.041   6.361  5.6470  0.6168 -1.6215
  669MOL0     H92297   7.620   0.137   6.217  1.0898  0.0919 -0.0306
  669MOL0     H92298   7.568  -0.072   6.095 -2.5155 -0.3919  1.7678
  669MOL0     H92299   7.583  -0.163   6.237 -2.6512  1.0773  0.3567
  669MOL0     H92300   7.793  -0.194   6.130 -1.4759 -1.0991  1.4746
  669MOL0     H92301   7.809  -0.109   6.282 -3.1097 -4.4752  1.9072
  669MOL0     H92302   6.736   0.125   6.356  3.0975  1.0511 -0.9661
  669MOL0     H92303   6.512   0.122   6.235 -1.7743  1.8753 -2.3553
  669MOL0     H92304   6.198   0.093   6.057  1.9914  2.3782 -0.5612
  669MOL0     H92305   6.012   0.179   5.938  0.9654  2.7282 -2.6863
  669MOL0     H92306   7.019  -0.166   6.936  0.5461 -0.8037 -0.2323
  669MOL0     H92307   7.249  -0.101   6.915 -2.1227  2.3113 -0.8374
  669MOL0     H92308   7.529   0.235   6.654  0.2132 -1.8414 -2.6137
  669MOL0     H92309   7.756   0.321   6.630 -1.9035  0.1405  2.1757
  669MOL0     H92310   7.952   0.377   6.739  1.1657 -0.0067  0.5447
  669MOL0     H92311   7.978   0.262   6.864  0.2197 -1.3663  0.6444
  669MOL0     H92312   8.189   0.359   6.658 -2.8079  2.0365  0.5607
  669MOL0     H92313   8.210   0.211   6.752  0.9004  0.3361  0.6262
  669MOL0     H92314   8.174   0.374   6.962 -0.1283  1.9787 -0.3706
  669MOL0     H92315   8.328   0.373   6.869 -0.3368 -1.6624  0.8309
  669MOL0     H92316   8.122   0.565   6.779  0.7073 -0.3096 -2.3048
  669MOL0     H92317   8.291   0.558   6.759 -0.4900  2.1066 -0.9231
  669MOL0     H92318   8.263   0.762   7.126  0.2607 -0.7918 -0.4937
  669MOL0     H92319   7.932  -0.058   6.642  0.6861  0.9129  1.9033
  669MOL0     H92320   7.665  -0.228   6.803 -1.3939 -1.7806 -0.7682
  669MOL0     H92321   7.650  -0.248   6.624 -0.8985  2.5813 -0.7992
  669MOL0     H92322   7.812  -0.235   6.705 -0.2867  1.5534  1.0667
  670MOL0     O92323   5.135   5.214   4.191  0.0757 -0.4180 -0.1033
  670MOL0     C92324   5.129   5.268   4.302  0.1359 -0.5205 -0.7556
  670MOL0     O92325   5.243   5.301   4.377  0.0990  0.6650  0.1647
  670MOL0     C92326   5.355   5.232   4.357 -0.6772  0.7011  0.1135
  670MOL0     C92327   5.470   5.306   4.396  1.1078 -0.3524  0.6106
  670MOL0     C92328   5.591   5.254   4.370  0.9055 -0.6157  0.4394
  670MOL0     C92329   5.611   5.120   4.331  0.3864 -0.3919  0.0411
  670MOL0     O92330   5.740   5.078   4.303 -0.4962 -0.6176  0.2334
  670MOL0     C92331   5.755   4.944   4.270 -0.0387  0.1105  0.3367
  670MOL0     C92332   5.893   4.927   4.204  0.4724  0.0452  0.5678
  670MOL0     C92333   6.006   4.993   4.293 -0.3083  0.0396 -0.0895
  670MOL0     C92334   6.150   4.929   4.257  0.8496  0.4549 -0.1323
  670MOL0     C92335   6.263   5.010   4.331 -0.8870  0.6364  0.3963
  670MOL0     C92336   6.387   4.915   4.329 -1.0417  0.0661  0.1476
  670MOL0     C92337   6.506   4.978   4.405  0.4803 -0.3670 -0.3959
  670MOL0     C92338   6.605   4.881   4.460  1.4931  0.1620  0.2175
  670MOL0     N92339   6.673   4.801   4.354 -0.1713 -0.4407 -0.6146
  670MOL0     C92340   6.731   4.850   4.237  0.3974  0.1832 -0.2453
  670MOL0     C92341   6.815   4.747   4.192  0.0259 -0.6761  0.7905
  670MOL0     C92342   6.877   4.754   4.060 -0.0777 -0.3580  0.2237
  670MOL0     C92343   6.800   4.677   3.947 -0.3506  0.4154  0.1172
  670MOL0     C92344   6.884   4.669   3.824 -0.1503  0.0843  0.3366
  670MOL0     C92345   6.878   4.798   3.746 -0.8280  0.1398 -0.2847
  670MOL0     O92346   6.747   4.806   3.686  0.1487 -0.0634 -0.3155
  670MOL0     C92347   6.723   4.940   3.655 -0.4619  0.0462 -0.6299
  670MOL0     C92348   6.825   5.035   3.618  0.1060  0.1232 -0.0539
  670MOL0     C92349   6.798   5.172   3.608  0.5535 -0.2959 -0.1211
  670MOL0     C92350   6.915   5.264   3.567  0.1109 -0.4624  0.0472
  670MOL0     C92351   6.667   5.220   3.642 -0.1741 -0.8326 -0.2598
  670MOL0     C92352   6.642   5.366   3.649  0.6489  0.2195 -0.5538
  670MOL0     O92353   6.515   5.398   3.608 -0.1441  0.0506 -0.5723
  670MOL0     C92354   6.478   5.533   3.610  0.3359  0.5917  0.4001
  670MOL0     C92355   6.472   5.593   3.728  0.1842 -0.3438  0.1497
  670MOL0     C92356   6.434   5.728   3.740  0.2284 -0.5354 -0.1356
  670MOL0     C92357   6.400   5.796   3.625  0.1790 -0.0716  0.2783
  670MOL0     O92358   6.386   5.933   3.657  0.3135 -0.0693 -0.1899
  670MOL0     C92359   6.445   6.018   3.565  0.3320  0.4596  0.4643
  670MOL0     C92360   6.473   6.152   3.631 -0.0939 -0.4359  0.1150
  670MOL0     C92361   6.556   6.230   3.529 -0.4203  0.5381 -0.3905
  670MOL0     C92362   6.625   6.339   3.595 -0.5523  0.0331  0.2633
  670MOL0     C92363   6.727   6.404   3.509 -0.4966 -0.2142  0.2484
  670MOL0     C92364   6.794   6.533   3.570 -0.4524  0.0361 -0.2424
  670MOL0     C92365   6.904   6.584   3.474 -0.2438 -0.4577  0.5663
  670MOL0     C92366   6.973   6.718   3.525 -0.9529  0.1292  0.4152
  670MOL0    Cl92367   7.086   6.787   3.406  0.2013 -0.3029 -0.1334
  670MOL0     C92368   6.392   5.730   3.503  0.3346 -0.5734  1.3630
  670MOL0     C92369   6.426   5.598   3.497  0.4799  0.7604  0.6865
  670MOL0     O92370   6.731   5.442   3.695 -0.6997 -0.0838  0.5810
  670MOL0     C92371   6.559   5.125   3.666 -0.4066 -0.0392  0.4159
  670MOL0     C92372   6.593   4.988   3.668  0.4838  0.1937 -0.8269
  670MOL0     N92373   6.810   4.649   4.277 -0.2063  0.1793  0.0172
  670MOL0     N92374   6.720   4.677   4.372  0.5748 -0.2509  0.3187
  670MOL0     C92375   5.492   5.038   4.314 -0.1902 -0.5211 -0.2067
  670MOL0     C92376   5.365   5.090   4.327 -0.3820  0.1676  0.5332
  670MOL0     C92377   4.998   5.283   4.364  0.5585 -0.1917 -0.5633
  670MOL0     C92378   4.982   5.267   4.504 -0.4376 -0.0547 -0.0667
  670MOL0     C92379   4.855   5.273   4.565 -0.0958  0.5369  0.3437
  670MOL0     C92380   4.738   5.284   4.485 -0.5933  0.2762 -0.2916
  670MOL0     O92381   4.617   5.285   4.553 -0.0428 -0.5081  0.2233
  670MOL0     C92382   4.488   5.268   4.489 -0.4033 -0.4427 -0.0646
  670MOL0     C92383   4.377   5.268   4.589 -0.5153  0.4941 -0.9899
  670MOL0     C92384   4.234   5.255   4.538 -0.6343 -0.0041 -0.6787
  670MOL0     C92385   4.232   5.162   4.423 -0.3604 -0.1316 -0.1044
  670MOL0     C92386   4.099   5.139   4.373  0.0385  0.4294 -0.3606
  670MOL0     C92387   3.984   5.117   4.342  0.4238  0.6818  0.2342
  670MOL0     C92388   4.754   5.296   4.349  0.4491  0.1787 -0.1913
  670MOL0     C92389   4.879   5.294   4.288 -0.1392  0.2552 -0.5678
  670MOL0     C92390   4.877   5.300   4.139 -0.4111  0.3701  0.0375
  670MOL0     H92391   5.459   5.406   4.437  0.3225 -0.5180  0.8259
  670MOL0     H92392   5.673   5.322   4.393 -0.9666  1.0204  2.8721
  670MOL0     H92393   5.690   4.909   4.190  3.0338 -0.2693 -2.2334
  670MOL0     H92394   5.737   4.888   4.362 -3.8368 -0.0423 -0.3668
  670MOL0     H92395   5.911   4.819   4.197  1.4824  0.1391  1.4606
  670MOL0     H92396   5.897   4.961   4.100  0.1035 -2.7852 -0.4651
  670MOL0     H92397   6.007   5.102   4.285 -0.5605  0.0622  0.1655
  670MOL0     H92398   5.982   4.963   4.396  1.6600 -1.2224  0.0619
  670MOL0     H92399   6.148   4.824   4.288  1.8991  0.0287 -1.4159
  670MOL0     H92400   6.173   4.927   4.150  2.6544  0.6132  0.2293
  670MOL0     H92401   6.235   5.027   4.435  1.5744  1.8144  0.9351
  670MOL0     H92402   6.300   5.098   4.278  0.4543 -0.0348  0.1733
  670MOL0     H92403   6.361   4.819   4.376  0.5935  0.1850  1.3602
  670MOL0     H92404   6.419   4.896   4.226  2.5885  1.2011  0.9369
  670MOL0     H92405   6.463   5.022   4.496 -1.5577  2.5600 -2.5860
  670MOL0     H92406   6.562   5.050   4.344  0.9709 -0.4626 -0.0613
  670MOL0     H92407   6.680   4.946   4.505  2.6022 -0.2746 -0.9445
  670MOL0     H92408   6.555   4.816   4.533  1.9543  0.7592  1.0766
  670MOL0     H92409   6.705   4.938   4.179 -3.1102  0.1683  1.0494
  670MOL0     H92410   6.982   4.723   4.060 -0.6510 -2.5788 -1.6410
  670MOL0     H92411   6.872   4.858   4.027  1.7056  0.3235  1.8370
  670MOL0     H92412   6.770   4.578   3.982  1.9968 -0.8435 -1.2015
  670MOL0     H92413   6.717   4.741   3.915 -1.3349 -1.4656 -1.2204
  670MOL0     H92414   6.990   4.660   3.851  0.5007  1.2939 -1.5974
  670MOL0     H92415   6.858   4.587   3.757  0.5890 -0.3109  0.5248
  670MOL0     H92416   6.907   4.882   3.809  1.7646 -0.1616 -0.9606
  670MOL0     H92417   6.950   4.798   3.664 -2.2051  1.7814 -1.5675
  670MOL0     H92418   6.920   4.998   3.581  0.4586 -0.5901  1.4859
  670MOL0     H92419   6.990   5.202   3.516 -0.9465 -1.7937  0.0213
  670MOL0     H92420   6.959   5.303   3.659 -1.1562  3.6757 -0.9183
  670MOL0     H92421   6.884   5.344   3.499 -2.5548 -2.1703 -0.9404
  670MOL0     H92422   6.504   5.541   3.818 -0.4423 -3.9033 -1.4975
  670MOL0     H92423   6.419   5.777   3.836 -2.1040  1.0709 -1.2442
  670MOL0     H92424   6.543   5.975   3.544  0.4816 -0.9022  3.3863
  670MOL0     H92425   6.385   6.032   3.475  1.7802 -0.8854 -0.7623
  670MOL0     H92426   6.387   6.213   3.661  1.3541  0.6901  2.3088
  670MOL0     H92427   6.529   6.121   3.721 -0.5031 -1.0642  0.1584
  670MOL0     H92428   6.486   6.279   3.461 -3.0820 -1.1464  0.9836
  670MOL0     H92429   6.634   6.167   3.485 -1.2480 -1.7714  1.2806
  670MOL0     H92430   6.671   6.311   3.690  1.0383 -1.4371 -0.8700
  670MOL0     H92431   6.555   6.413   3.635  1.8432  0.9623  3.1132
  670MOL0     H92432   6.806   6.333   3.480  0.5184  0.8021  0.4686
  670MOL0     H92433   6.670   6.423   3.418 -1.5068 -4.3177 -0.1946
  670MOL0     H92434   6.842   6.514   3.666  2.0736  0.2660 -1.3765
  670MOL0     H92435   6.722   6.615   3.581 -1.2513 -0.2954 -2.4369
  670MOL0     H92436   6.851   6.616   3.383 -0.5398  0.0378  0.9112
  670MOL0     H92437   6.985   6.514   3.454  0.8106  0.5164  1.3321
  670MOL0     H92438   7.034   6.689   3.610  0.0517  1.1605  0.0681
  670MOL0     H92439   6.904   6.798   3.555  1.4223  2.5416 -0.1827
  670MOL0     H92440   6.387   5.790   3.413 -0.5272 -0.7635  1.2743
  670MOL0     H92441   6.418   5.547   3.402 -4.2594  3.2646 -0.5510
  670MOL0     H92442   6.459   5.163   3.680 -0.7999 -0.9855  0.2650
  670MOL0     H92443   6.503   4.928   3.679  0.5588 -0.5194 -3.5130
  670MOL0     H92444   5.502   4.938   4.275  2.9576  0.0870 -1.2477
  670MOL0     H92445   5.272   5.034   4.320  0.3499 -0.9500 -0.7203
  670MOL0     H92446   5.077   5.251   4.554 -0.4297 -1.6194 -0.4986
  670MOL0     H92447   4.834   5.263   4.671 -3.0749 -1.1193 -0.2948
  670MOL0     H92448   4.463   5.355   4.428 -1.7074  0.1901  1.3164
  670MOL0     H92449   4.489   5.178   4.427  0.9003  0.2383 -1.0625
  670MOL0     H92450   4.380   5.360   4.649 -1.3594 -0.0760 -0.0352
  670MOL0     H92451   4.391   5.188   4.664 -1.0485  1.9678  0.7521
  670MOL0     H92452   4.171   5.209   4.615  1.7926 -2.6814 -0.1281
  670MOL0     H92453   4.188   5.352   4.516  1.6127  1.4242  0.5453
  670MOL0     H92454   4.269   5.069   4.468 -0.6461  1.0718  2.8387
  670MOL0     H92455   4.292   5.185   4.334 -1.1083  2.6514  0.0121
  670MOL0     H92456   3.888   5.078   4.314  1.9097 -2.3179 -1.1623
  670MOL0     H92457   4.668   5.289   4.283  0.7545 -0.8307 -0.4939
  670MOL0     H92458   4.911   5.205   4.098 -1.1276  0.7749 -1.5844
  670MOL0     H92459   4.787   5.330   4.085  0.5542 -0.0258 -1.8659
  670MOL0     H92460   4.958   5.369   4.114  1.2743 -1.1165  1.1821
  671MOL0     O92461   9.890   7.111   6.256 -0.4436  0.3135  0.2512
  671MOL0     C92462   9.900   7.210   6.182  0.6471 -0.4248  0.3012
  671MOL0     O92463   9.926   7.213   6.053  0.8444 -0.4130  0.0026
  671MOL0     C92464   9.945   7.093   5.992 -0.3390  0.2678  0.6767
  671MOL0     C92465  10.061   7.008   6.017 -0.2127 -0.4202 -0.2976
  671MOL0     C92466  10.083   6.891   5.945  0.0271 -0.2482 -0.3124
  671MOL0     C92467   9.990   6.852   5.839 -0.5503 -0.5323  0.4592
  671MOL0     O92468   9.997   6.739   5.762 -0.3847  0.5077  0.3324
  671MOL0     C92469  10.116   6.680   5.730 -0.2317  0.3879  0.7577
  671MOL0     C92470  10.093   6.625   5.586 -0.2190  0.2285 -1.0521
  671MOL0     C92471  10.228   6.574   5.532  0.0466 -0.5004  0.7496
  671MOL0     C92472  10.205   6.496   5.401  0.0085 -0.4926  0.1588
  671MOL0     C92473  10.336   6.439   5.336  0.4239 -1.1556 -0.3696
  671MOL0     C92474  10.410   6.344   5.422  0.0461 -0.0173  0.1297
  671MOL0     C92475  10.514   6.265   5.346 -0.2196  0.0681 -1.0673
  671MOL0     C92476  10.651   6.338   5.318  0.1655 -0.4819  0.2507
  671MOL0     N92477  10.724   6.261   5.221  0.2067  0.1312 -0.6085
  671MOL0     C92478  10.824   6.174   5.264 -0.7355 -0.1248  0.0043
  671MOL0     C92479  10.853   6.098   5.153 -0.0837 -0.9207 -0.0454
  671MOL0     C92480  10.959   5.994   5.141 -0.0536 -0.2840 -0.3196
  671MOL0     C92481  11.078   6.009   5.226 -1.2661  0.6221 -0.7188
  671MOL0     C92482  11.181   5.914   5.172 -0.1548 -0.0147  0.0636
  671MOL0     C92483  11.306   5.922   5.252 -0.4517 -0.5712  0.0717
  671MOL0     O92484  11.399   5.822   5.208  0.5145 -0.0808 -0.6836
  671MOL0     C92485  11.529   5.864   5.236  0.9570 -0.6252 -0.1974
  671MOL0     C92486  11.581   5.979   5.161 -0.1691 -0.3149 -0.5102
  671MOL0     C92487  11.717   6.011   5.177  0.6577  0.1350 -0.4933
  671MOL0     C92488  11.754   6.136   5.102  0.5180 -0.1740  0.1315
  671MOL0     C92489  11.801   5.943   5.267 -0.5707  0.3398 -0.3938
  671MOL0     C92490  11.947   5.968   5.291 -0.9748  1.0476 -0.1430
  671MOL0     O92491  12.009   6.061   5.226  0.4342 -0.4573 -0.1705
  671MOL0     C92492  12.137   6.103   5.265 -0.2951 -0.0619  0.0397
  671MOL0     C92493  12.243   6.037   5.215 -0.8282  0.8123  0.9571
  671MOL0     C92494  12.379   6.083   5.231  0.2727 -0.4684  0.8400
  671MOL0     C92495  12.408   6.188   5.320 -0.1424  0.3991  0.0676
  671MOL0     O92496  12.537   6.218   5.346 -0.5914  0.0129 -0.1365
  671MOL0     C92497  12.562   6.306   5.462  0.7410 -0.2183  0.7013
  671MOL0     C92498  12.704   6.298   5.520  0.0449  0.4161  0.1997
  671MOL0     C92499  12.798   6.344   5.412 -0.2829 -0.0497 -0.7430
  671MOL0     C92500  12.946   6.308   5.449  0.0956 -0.9077 -0.0346
  671MOL0     C92501  13.012   6.428   5.532  0.6290  0.5367  0.3413
  671MOL0     C92502  13.079   6.539   5.452  0.0180 -0.2768  0.0281
  671MOL0     C92503  13.158   6.640   5.540  0.0973 -0.5869  0.6480
  671MOL0     C92504  13.230   6.750   5.469  0.0284 -0.1046 -0.1055
  671MOL0    Cl92505  13.360   6.690   5.365  0.2208  0.4429  0.2721
  671MOL0     C92506  12.294   6.252   5.374  0.7201 -0.5981 -0.1345
  671MOL0     C92507  12.159   6.223   5.334  0.0589 -0.7767 -0.0353
  671MOL0     O92508  12.005   5.901   5.374  0.1619  0.1516  0.2544
  671MOL0     C92509  11.746   5.841   5.337 -0.6124  0.3437  0.5379
  671MOL0     C92510  11.616   5.804   5.320 -0.4047  0.3726  0.1193
  671MOL0     N92511  10.769   6.140   5.050 -0.3513 -0.5809 -0.3573
  671MOL0     N92512  10.691   6.234   5.090  0.1654  0.5974  0.4167
  671MOL0     C92513   9.883   6.946   5.819  0.5008 -0.0556  0.5131
  671MOL0     C92514   9.862   7.055   5.896  0.0446 -0.0936  0.3129
  671MOL0     C92515   9.875   7.341   6.241 -0.5765  0.4602  0.5057
  671MOL0     C92516   9.775   7.355   6.342 -0.1916 -1.0384  0.0578
  671MOL0     C92517   9.750   7.485   6.390 -0.0147 -0.4371  0.1978
  671MOL0     C92518   9.813   7.597   6.345 -0.9267 -0.2335  0.7528
  671MOL0     O92519   9.771   7.715   6.381  0.1462 -0.2031 -0.1489
  671MOL0     C92520   9.758   7.805   6.272 -0.0824 -0.5484  0.2500
  671MOL0     C92521   9.637   7.902   6.280  0.7478 -0.5656  0.0781
  671MOL0     C92522   9.545   7.899   6.406 -0.3010 -0.0867 -0.2412
  671MOL0     C92523   9.453   7.779   6.416  1.3068 -0.0341  0.2241
  671MOL0     C92524   9.366   7.772   6.295 -0.3947 -0.6403 -0.3962
  671MOL0     C92525   9.280   7.774   6.214 -0.4067 -0.3571  0.6113
  671MOL0     C92526   9.928   7.576   6.267  0.0538 -0.6805 -0.2958
  671MOL0     C92527   9.957   7.458   6.201  0.2171 -0.4377  0.0397
  671MOL0     C92528  10.077   7.462   6.104  0.7742  0.3274 -0.7264
  671MOL0     H92529  10.133   7.039   6.092 -0.9850  0.0491  0.2556
  671MOL0     H92530  10.163   6.829   5.985 -0.9036 -0.3316  1.5489
  671MOL0     H92531  10.140   6.597   5.797 -2.1701 -2.6724 -2.0356
  671MOL0     H92532  10.204   6.744   5.739  2.2237 -2.9663  2.9953
  671MOL0     H92533  10.013   6.551   5.588  0.9223 -1.0333 -0.2129
  671MOL0     H92534  10.059   6.716   5.535 -2.0552  2.0517  2.9463
  671MOL0     H92535  10.299   6.651   5.498 -0.1647 -1.6948 -2.7850
  671MOL0     H92536  10.273   6.501   5.600  1.4764 -1.1574 -0.8195
  671MOL0     H92537  10.140   6.410   5.419 -0.3966 -0.6396 -1.7596
  671MOL0     H92538  10.156   6.557   5.325 -0.1069 -2.1594 -1.1469
  671MOL0     H92539  10.403   6.525   5.322 -0.4584 -0.1094  1.3597
  671MOL0     H92540  10.320   6.377   5.248 -0.3300 -0.1795 -0.9461
  671MOL0     H92541  10.451   6.394   5.510 -1.8528  2.1840 -0.1319
  671MOL0     H92542  10.342   6.268   5.463  0.5484 -0.8845 -0.6123
  671MOL0     H92543  10.473   6.238   5.248 -0.6238 -2.4843 -0.2722
  671MOL0     H92544  10.534   6.175   5.405 -0.1279 -0.2122 -1.5152
  671MOL0     H92545  10.620   6.437   5.283 -2.2134 -0.6651  1.6051
  671MOL0     H92546  10.712   6.354   5.407 -0.5439  1.2109  0.4707
  671MOL0     H92547  10.861   6.164   5.366 -0.9155 -0.1180  0.0706
  671MOL0     H92548  10.992   5.997   5.037  0.5859 -2.7166 -0.2465
  671MOL0     H92549  10.912   5.898   5.162 -2.2026  0.9431  0.8554
  671MOL0     H92550  11.107   6.114   5.223  1.9925 -0.1886 -4.2414
  671MOL0     H92551  11.055   5.966   5.325  1.8485 -2.0208 -0.9782
  671MOL0     H92552  11.137   5.816   5.192 -3.2518  0.6928 -2.3899
  671MOL0     H92553  11.191   5.923   5.063  0.0482  1.8405  0.2019
  671MOL0     H92554  11.342   6.024   5.232  0.0019 -0.7187  0.1201
  671MOL0     H92555  11.282   5.906   5.358 -0.2591  0.1749  0.2389
  671MOL0     H92556  11.514   6.042   5.103  1.2564 -0.2523 -2.1477
  671MOL0     H92557  11.670   6.178   5.045  1.3370  1.8606  0.3678
  671MOL0     H92558  11.840   6.110   5.039 -0.9666 -0.2288 -1.9940
  671MOL0     H92559  11.771   6.217   5.173 -0.3352  1.9860 -1.9912
  671MOL0     H92560  12.231   5.947   5.156 -3.2766 -0.3540  3.0343
  671MOL0     H92561  12.467   6.032   5.192  2.6773  4.0083 -0.2052
  671MOL0     H92562  12.548   6.411   5.436  3.5379  0.1355  0.2709
  671MOL0     H92563  12.498   6.280   5.547 -0.2090 -0.7326 -0.1595
  671MOL0     H92564  12.720   6.362   5.607 -0.6744  0.7046  0.1262
  671MOL0     H92565  12.727   6.194   5.547 -0.3362  0.3391  0.2219
  671MOL0     H92566  12.799   6.451   5.387  1.6999 -0.2579 -1.7441
  671MOL0     H92567  12.776   6.286   5.322  0.0479  0.4508 -1.1499
  671MOL0     H92568  13.001   6.268   5.364  2.6687 -1.2139  1.6636
  671MOL0     H92569  12.945   6.222   5.516  0.6313  0.5951  2.0208
  671MOL0     H92570  12.939   6.462   5.606 -0.3777  3.1778 -1.6954
  671MOL0     H92571  13.086   6.389   5.603 -0.7442 -0.1951  1.4070
  671MOL0     H92572  13.004   6.596   5.396  0.3843 -0.8171 -1.0366
  671MOL0     H92573  13.149   6.510   5.374 -1.0057  0.6007 -1.2483
  671MOL0     H92574  13.241   6.585   5.586  3.0536  2.4806 -0.6194
  671MOL0     H92575  13.096   6.682   5.619  2.1211  0.0876  1.9569
  671MOL0     H92576  13.280   6.816   5.541 -0.6034  0.6615 -0.3461
  671MOL0     H92577  13.159   6.809   5.409  0.0303 -1.9469 -2.0283
  671MOL0     H92578  12.309   6.341   5.434 -0.5639  0.7931 -1.7979
  671MOL0     H92579  12.073   6.286   5.355  0.1123  0.6379 -3.4662
  671MOL0     H92580  11.812   5.777   5.393  1.2098  0.4002 -1.4006
  671MOL0     H92581  11.589   5.712   5.372  0.4560  0.5456  0.8967
  671MOL0     H92582   9.809   6.927   5.742  0.0730 -1.1654  1.1721
  671MOL0     H92583   9.784   7.125   5.867  0.1724  0.6014  1.5604
  671MOL0     H92584   9.701   7.282   6.375 -2.8761  2.4015  2.3008
  671MOL0     H92585   9.677   7.496   6.471  3.2620  0.9467  3.2040
  671MOL0     H92586   9.846   7.870   6.265  1.4973 -2.7339 -1.3186
  671MOL0     H92587   9.747   7.758   6.174  1.5594 -1.8883  0.6622
  671MOL0     H92588   9.574   7.894   6.190 -2.6476 -1.4822  2.3517
  671MOL0     H92589   9.669   8.006   6.284 -1.9425  0.3425  0.4917
  671MOL0     H92590   9.600   7.898   6.501 -0.1986  2.4303 -0.2153
  671MOL0     H92591   9.498   7.997   6.405 -0.6250 -0.2019  1.3024
  671MOL0     H92592   9.386   7.784   6.501 -0.6081  2.3402 -1.2789
  671MOL0     H92593   9.509   7.685   6.422  3.9807  1.5082  1.2373
  671MOL0     H92594   9.200   7.781   6.143  2.0616  3.2495 -2.1914
  671MOL0     H92595   9.995   7.660   6.256 -0.0128 -0.2405  2.1813
  671MOL0     H92596  10.039   7.477   6.002  2.0298 -1.1315 -1.4605
  671MOL0     H92597  10.147   7.544   6.125 -0.7096  1.6538 -0.7712
  671MOL0     H92598  10.141   7.373   6.108  1.8546  0.9432 -2.5744
  672MOL0     O92599   0.927  10.434   3.776 -0.2099 -0.6577  0.0318
  672MOL0     C92600   0.907  10.349   3.692 -0.5799  0.7540 -0.0838
  672MOL0     O92601   0.979  10.231   3.670  0.3421  0.1251  0.2145
  672MOL0     C92602   1.104  10.215   3.726  0.0895  0.4602  0.7128
  672MOL0     C92603   1.142  10.079   3.736 -0.5595 -0.2414  0.0084
  672MOL0     C92604   1.268  10.048   3.796 -0.5012 -0.4966  0.7500
  672MOL0     C92605   1.356  10.150   3.843  0.6727 -0.6137  0.2279
  672MOL0     O92606   1.471  10.127   3.912  0.2863 -0.2713 -0.3812
  672MOL0     C92607   1.479  10.000   3.980 -0.6647 -0.6009  0.9301
  672MOL0     C92608   1.565  10.016   4.105 -0.2925 -0.2753  0.0293
  672MOL0     C92609   1.657   9.897   4.124  0.5891 -0.0375 -0.1813
  672MOL0     C92610   1.768   9.938   4.218  0.6513  0.0171 -0.1713
  672MOL0     C92611   1.872   9.826   4.243  0.5238  0.3226  0.8189
  672MOL0     C92612   1.966   9.899   4.340 -0.4726 -0.3866 -0.0264
  672MOL0     C92613   2.065   9.809   4.413  0.4312 -0.6481  0.4262
  672MOL0     C92614   2.172   9.879   4.488  1.5485  0.0929  0.5343
  672MOL0     N92615   2.279   9.789   4.534 -0.0619  0.7903  0.7691
  672MOL0     C92616   2.265   9.668   4.603 -0.9441  0.0619  1.1639
  672MOL0     C92617   2.387   9.645   4.642 -0.0447  0.0653  0.2925
  672MOL0     C92618   2.454   9.527   4.709 -0.5836  0.5158  0.8451
  672MOL0     C92619   2.485   9.559   4.852  0.5225  0.2726  0.2465
  672MOL0     C92620   2.631   9.560   4.885  0.5402  0.7183  0.2473
  672MOL0     C92621   2.714   9.657   4.806  0.1785 -0.0867 -0.3236
  672MOL0     O92622   2.849   9.655   4.840  0.2181  0.3455  0.0613
  672MOL0     C92623   2.882   9.709   4.969 -0.0871  0.0417 -0.0955
  672MOL0     C92624   3.009   9.684   5.003 -0.5141  0.3556  0.3889
  672MOL0     C92625   3.067   9.726   5.127  0.4372 -0.6354  0.5307
  672MOL0     C92626   3.208   9.704   5.142 -0.0809  0.0821  0.0535
  672MOL0     C92627   2.987   9.793   5.220  0.1535 -0.9369  0.0247
  672MOL0     C92628   3.031   9.834   5.352  0.6587 -0.2213  0.0621
  672MOL0     O92629   3.154   9.803   5.399  0.2181 -0.4661 -0.1796
  672MOL0     C92630   3.190   9.847   5.527 -0.4412 -1.0938 -0.1293
  672MOL0     C92631   3.196   9.761   5.633 -0.0436 -0.3999  0.1272
  672MOL0     C92632   3.215   9.805   5.764 -0.2954  0.3718 -0.5194
  672MOL0     C92633   3.241   9.941   5.793  0.3742 -0.7232 -0.3092
  672MOL0     O92634   3.274   9.971   5.926  0.2392  0.0783  0.8843
  672MOL0     C92635   3.309  10.107   5.962  0.0627 -0.1841  0.4620
  672MOL0     C92636   3.348  10.116   6.115  0.5978 -0.3415  0.7417
  672MOL0     C92637   3.421   9.987   6.159  0.1890 -0.3705  0.4391
  672MOL0     C92638   3.487   9.998   6.292 -0.6605  0.0162 -0.1753
  672MOL0     C92639   3.561   9.869   6.319 -0.3680 -0.1681 -0.1304
  672MOL0     C92640   3.629   9.858   6.456  0.2388  0.8711  0.1497
  672MOL0     C92641   3.685   9.716   6.464  0.9564  0.2388  0.0893
  672MOL0     C92642   3.764   9.696   6.592  0.3941  0.6025 -0.4623
  672MOL0    Cl92643   3.857   9.843   6.637  0.0299 -0.2977  0.0761
  672MOL0     C92644   3.225  10.027   5.686  0.2645  0.0768  0.2841
  672MOL0     C92645   3.201   9.982   5.553 -0.1694  0.0470  1.3120
  672MOL0     O92646   2.942   9.889   5.420  0.7872  0.4736 -0.1640
  672MOL0     C92647   2.850   9.816   5.181  0.2375 -0.4664 -0.0416
  672MOL0     C92648   2.795   9.771   5.061 -0.1624  0.8988  0.0647
  672MOL0     N92649   2.475   9.744   4.604  0.9133  0.2248 -0.0091
  672MOL0     N92650   2.409   9.830   4.537 -0.7306 -0.8413 -0.4164
  672MOL0     C92651   1.309  10.286   3.836  0.4905  0.2029 -0.4875
  672MOL0     C92652   1.186  10.314   3.769 -0.4859 -0.8236 -0.2815
  672MOL0     C92653   0.784  10.358   3.614 -0.2053  0.8314  0.3968
  672MOL0     C92654   0.775  10.286   3.497  0.4727  0.1047 -0.1210
  672MOL0     C92655   0.658  10.275   3.424 -0.1384  0.6623  0.0248
  672MOL0     C92656   0.540  10.329   3.476  0.4583 -1.0618  0.3289
  672MOL0     O92657   0.421  10.307   3.404  0.3299 -0.4385 -0.4079
  672MOL0     C92658   0.310  10.267   3.478  0.0440 -0.4610 -1.1934
  672MOL0     C92659   0.228  10.178   3.389  0.0016  0.1843 -0.2839
  672MOL0     C92660   0.163  10.244   3.269  0.6143  0.4931  0.0900
  672MOL0     C92661   0.054  10.346   3.305 -0.0719  0.4329 -0.3340
  672MOL0     C92662   0.026  10.433   3.193 -0.1929 -0.2353  0.4339
  672MOL0     C92663   0.011  10.485   3.082  0.2747 -0.3118 -0.1531
  672MOL0     C92664   0.546  10.411   3.592 -0.0495 -0.1415 -0.7369
  672MOL0     C92665   0.661  10.424   3.657 -0.2007  0.3236 -0.4031
  672MOL0     C92666   0.650  10.493   3.793 -0.4733 -0.0875 -0.2000
  672MOL0     H92667   1.083  10.000   3.690  0.4656 -0.9718 -0.0926
  672MOL0     H92668   1.300   9.944   3.790  0.5514 -0.1145 -2.2917
  672MOL0     H92669   1.522   9.928   3.910  1.8724  2.3032 -0.7898
  672MOL0     H92670   1.381   9.964   4.013 -1.3802 -1.0720 -1.5440
  672MOL0     H92671   1.614  10.113   4.093 -1.5281  0.3063 -0.4416
  672MOL0     H92672   1.505  10.030   4.195 -0.2487  1.3180 -0.1595
  672MOL0     H92673   1.597   9.811   4.154  1.6651 -0.7779 -0.0735
  672MOL0     H92674   1.689   9.863   4.025 -3.4317 -0.7275 -1.4317
  672MOL0     H92675   1.817  10.028   4.181  3.1304 -0.5045  1.5557
  672MOL0     H92676   1.721   9.978   4.309 -1.9171 -1.0123 -0.9515
  672MOL0     H92677   1.925   9.778   4.160  0.7257 -4.0338  3.1942
  672MOL0     H92678   1.820   9.740   4.284  0.1309  0.0231 -0.2566
  672MOL0     H92679   2.022   9.964   4.272 -1.5967  2.1295  1.3181
  672MOL0     H92680   1.918   9.976   4.401  0.1467  1.3601 -1.6762
  672MOL0     H92681   2.124   9.753   4.339 -0.2935  0.4098 -0.9993
  672MOL0     H92682   2.017   9.743   4.485 -0.2882  0.5628  1.0925
  672MOL0     H92683   2.210   9.963   4.430 -0.1647  0.5758  0.0737
  672MOL0     H92684   2.129   9.931   4.574 -1.5179 -0.0211 -0.8150
  672MOL0     H92685   2.188   9.592   4.611  0.2303 -1.3447 -0.1776
  672MOL0     H92686   2.543   9.499   4.652 -2.7000 -2.4573 -1.2546
  672MOL0     H92687   2.402   9.431   4.704 -1.6976  1.1426 -0.1800
  672MOL0     H92688   2.447   9.659   4.873  2.7038  1.2108 -0.0009
  672MOL0     H92689   2.435   9.485   4.915 -1.3359  0.3727 -1.0411
  672MOL0     H92690   2.646   9.580   4.992  2.6006  1.0563 -0.0641
  672MOL0     H92691   2.684   9.466   4.865  0.9227  1.1245 -0.7243
  672MOL0     H92692   2.701   9.636   4.700 -0.4128 -0.2512 -0.2198
  672MOL0     H92693   2.684   9.761   4.819  1.4947  0.3026 -0.2068
  672MOL0     H92694   3.076   9.640   4.930 -0.4784 -1.8375  1.6556
  672MOL0     H92695   3.238   9.652   5.234 -0.0721  1.3825  0.8154
  672MOL0     H92696   3.275   9.787   5.118  2.7630 -2.3902 -1.3221
  672MOL0     H92697   3.234   9.625   5.071 -1.2814  1.8122 -2.4588
  672MOL0     H92698   3.184   9.653   5.626 -0.3508 -0.5151  1.8674
  672MOL0     H92699   3.227   9.727   5.838  0.1960 -2.1380 -3.0473
  672MOL0     H92700   3.386  10.136   5.890 -0.8505  1.5517  0.1210
  672MOL0     H92701   3.226  10.174   5.941  0.5639  0.6401  1.0330
  672MOL0     H92702   3.405  10.206   6.138  0.5828 -0.6431  2.0314
  672MOL0     H92703   3.253  10.113   6.170  1.0367 -3.0488  1.4905
  672MOL0     H92704   3.504   9.982   6.088  1.1750  2.0837  1.3120
  672MOL0     H92705   3.369   9.891   6.153 -1.5455  0.1412  4.3282
  672MOL0     H92706   3.410  10.017   6.368 -2.8734  0.3969 -2.3732
  672MOL0     H92707   3.561  10.079   6.300 -0.5723 -0.1543  0.9062
  672MOL0     H92708   3.496   9.783   6.301  0.5298 -1.9347  3.9385
  672MOL0     H92709   3.642   9.861   6.246  0.6559 -0.9257  1.0408
  672MOL0     H92710   3.548   9.877   6.526  0.4137  0.7534  0.3872
  672MOL0     H92711   3.710   9.930   6.472  2.5783 -1.7324  1.0354
  672MOL0     H92712   3.751   9.711   6.378  0.3949  0.5632 -0.3649
  672MOL0     H92713   3.607   9.639   6.463  1.1761 -0.0026 -2.1977
  672MOL0     H92714   3.827   9.607   6.587  0.8307  0.9701 -1.9031
  672MOL0     H92715   3.695   9.673   6.674  1.0237 -1.2391 -0.3885
  672MOL0     H92716   3.260  10.130   5.696  0.4842  0.0299  0.0029
  672MOL0     H92717   3.195  10.050   5.469  1.1670 -0.6184  0.6485
  672MOL0     H92718   2.774   9.859   5.245 -0.7716 -0.1209 -1.4406
  672MOL0     H92719   2.690   9.783   5.033 -0.0798  2.2635  0.2851
  672MOL0     H92720   1.373  10.365   3.875  1.5147 -1.5820  1.6798
  672MOL0     H92721   1.175  10.421   3.754 -0.4323 -0.5637  1.3882
  672MOL0     H92722   0.863  10.244   3.451  1.2902 -1.7568  2.8697
  672MOL0     H92723   0.664  10.223   3.328 -0.4962  1.1408 -0.2578
  672MOL0     H92724   0.327  10.215   3.573 -4.5908  0.2329  0.2999
  672MOL0     H92725   0.251  10.355   3.505  0.8220 -0.3679  0.3048
  672MOL0     H92726   0.150  10.129   3.449 -0.2433  1.1451  0.1945
  672MOL0     H92727   0.293  10.100   3.347 -2.2554 -0.1427 -3.5174
  672MOL0     H92728   0.244  10.282   3.206  3.7808 -2.8556  1.7069
  672MOL0     H92729   0.120  10.163   3.209  1.3755 -0.0001  0.2002
  672MOL0     H92730   0.087  10.411   3.387 -0.1421 -0.1058  0.1230
  672MOL0     H92731  -0.032  10.292   3.345  0.8393  0.1709  1.3625
  672MOL0     H92732   0.010  10.544   2.992 -1.0480  2.0345  1.2925
  672MOL0     H92733   0.464  10.478   3.615  0.1885 -0.7273  2.1412
  672MOL0     H92734   0.674  10.416   3.866  3.4622 -0.3492 -1.5675
  672MOL0     H92735   0.724  10.574   3.791 -1.2655  0.6673 -2.3516
  672MOL0     H92736   0.549  10.529   3.817 -0.1080 -0.6732  2.6052
  673MOL0     O92737   3.025  10.410   3.863  0.2625 -0.0205  0.9531
  673MOL0     C92738   3.010  10.445   3.748  0.5187 -0.5073  0.0274
  673MOL0     O92739   3.110  10.445   3.653 -0.5481 -0.3191 -0.8686
  673MOL0     C92740   3.234  10.464   3.711  0.3904 -0.7268  0.0148
  673MOL0     C92741   3.311  10.354   3.722 -0.0386  0.2593 -0.6566
  673MOL0     C92742   3.441  10.367   3.767 -0.0727  0.4326 -0.3072
  673MOL0     C92743   3.498  10.490   3.794 -1.0696  0.2654 -0.3925
  673MOL0     O92744   3.631  10.487   3.824 -0.2571  0.2425  0.0616
  673MOL0     C92745   3.718  10.588   3.774  0.0907 -0.5125 -0.6361
  673MOL0     C92746   3.858  10.545   3.786 -0.0846 -0.4798  0.2580
  673MOL0     C92747   3.895  10.425   3.694  0.2122  0.8739 -0.5353
  673MOL0     C92748   4.046  10.386   3.714  0.0405  0.2871  1.0018
  673MOL0     C92749   4.098  10.277   3.624  0.4767  0.1438  0.2425
  673MOL0     C92750   4.252  10.262   3.622  0.0103  0.9197 -0.1989
  673MOL0     C92751   4.318  10.220   3.760 -0.3015 -0.2488 -0.0530
  673MOL0     C92752   4.442  10.135   3.742 -0.7770 -0.0570  0.6525
  673MOL0     N92753   4.563  10.215   3.724  0.5799  0.4409  0.0369
  673MOL0     C92754   4.588  10.272   3.602 -0.1160 -0.6219 -0.0902
  673MOL0     C92755   4.723  10.296   3.604  0.5344  0.8473  0.2395
  673MOL0     C92756   4.809  10.372   3.508  0.4812  0.7672  0.1149
  673MOL0     C92757   4.942  10.301   3.503 -0.5371 -0.6674  0.6327
  673MOL0     C92758   5.027  10.352   3.396 -0.2605 -1.2603  0.4093
  673MOL0     C92759   5.062  10.504   3.404  0.1832  0.1722  0.1958
  673MOL0     O92760   5.175  10.518   3.320  0.0123 -0.9876 -0.3204
  673MOL0     C92761   5.301  10.492   3.360  0.6799  0.2810  0.0066
  673MOL0     C92762   5.331  10.439   3.487 -0.1738  0.9636 -0.9185
  673MOL0     C92763   5.463  10.405   3.522 -0.3960  0.5677 -0.4668
  673MOL0     C92764   5.490  10.337   3.659  0.3569 -0.2678 -0.2482
  673MOL0     C92765   5.565  10.442   3.430  0.1138  0.3193 -1.4916
  673MOL0     C92766   5.711  10.419   3.463 -0.2159  0.2592  0.4701
  673MOL0     O92767   5.783  10.342   3.372 -0.1613  0.4820 -0.1928
  673MOL0     C92768   5.903  10.297   3.413  0.3985  0.4220 -0.1918
  673MOL0     C92769   5.941  10.258   3.542  0.6202  0.1109 -0.7182
  673MOL0     C92770   6.061  10.189   3.554  0.1185  0.2624  0.4293
  673MOL0     C92771   6.150  10.188   3.444  0.3368  0.2081 -0.9355
  673MOL0     O92772   6.270  10.122   3.455 -0.4026  0.1113 -0.0538
  673MOL0     C92773   6.307  10.039   3.569  0.2341 -0.6170 -0.5093
  673MOL0     C92774   6.456  10.013   3.553 -0.7599  0.2044  0.0150
  673MOL0     C92775   6.531  10.140   3.573  0.7175  0.4462  0.5199
  673MOL0     C92776   6.679  10.119   3.553  0.5697 -0.0877  0.0407
  673MOL0     C92777   6.739  10.253   3.604  0.6734 -0.3279 -0.6249
  673MOL0     C92778   6.888  10.276   3.570 -0.0886  0.1090 -0.1333
  673MOL0     C92779   6.966  10.158   3.642  0.4286 -0.3766 -0.0699
  673MOL0     C92780   7.115  10.191   3.658  0.0279  0.4214  1.1675
  673MOL0    Cl92781   7.192  10.198   3.503 -0.2856 -0.2294 -0.3285
  673MOL0     C92782   6.116  10.242   3.319 -0.3102  0.3465 -0.4444
  673MOL0     C92783   5.989  10.290   3.306  0.0597  0.3285 -0.3406
  673MOL0     O92784   5.759  10.480   3.562  0.3278  0.3119  0.1932
  673MOL0     C92785   5.539  10.494   3.302 -0.2676  0.2757 -0.9795
  673MOL0     C92786   5.405  10.524   3.271  0.4117  0.0342 -0.3234
  673MOL0     N92787   4.766  10.251   3.730  0.3815 -0.6830 -0.3766
  673MOL0     N92788   4.672  10.204   3.799  0.0732 -0.2182  0.1794
  673MOL0     C92789   3.414  10.606   3.786  0.0739  0.1064 -0.7621
  673MOL0     C92790   3.284  10.592   3.742  0.6038 -0.0338 -0.2461
  673MOL0     C92791   2.889  10.526   3.708 -0.0129  0.6705 -0.0496
  673MOL0     C92792   2.805  10.578   3.804  0.0762 -0.0992  0.0124
  673MOL0     C92793   2.686  10.644   3.776 -0.7735  0.6171  0.5408
  673MOL0     C92794   2.653  10.683   3.645  0.0962 -0.3617  0.1630
  673MOL0     O92795   2.541  10.765   3.630  0.5926  0.3330 -0.2816
  673MOL0     C92796   2.499  10.794   3.496  0.5748 -0.7408  0.1475
  673MOL0     C92797   2.385  10.892   3.512  0.2503 -0.6109 -0.1099
  673MOL0     C92798   2.308  10.918   3.385 -0.5772  0.1240  0.5113
  673MOL0     C92799   2.376  11.014   3.284 -0.4848  0.3275 -0.1481
  673MOL0     C92800   2.275  11.048   3.185 -0.2993 -0.4841  0.6495
  673MOL0     C92801   2.181  11.088   3.115 -1.0362  0.1274  0.1330
  673MOL0     C92802   2.733  10.637   3.547 -0.9095  0.1157  0.3448
  673MOL0     C92803   2.847  10.549   3.575  0.1094 -0.6536 -0.3175
  673MOL0     C92804   2.904  10.473   3.459  0.5088 -1.0052  0.0944
  673MOL0     H92805   3.270  10.257   3.696 -0.9027  0.4453 -0.0426
  673MOL0     H92806   3.505  10.279   3.776 -1.1172 -0.4508 -1.2252
  673MOL0     H92807   3.701  10.690   3.809  0.6550 -0.4729 -0.4770
  673MOL0     H92808   3.697  10.596   3.667 -2.2284  0.3004 -0.1763
  673MOL0     H92809   3.931  10.621   3.759  1.2118 -2.0149 -0.8017
  673MOL0     H92810   3.875  10.521   3.891 -2.2360  3.0852  1.5868
  673MOL0     H92811   3.830  10.339   3.709  0.8417  0.6465  1.0335
  673MOL0     H92812   3.883  10.447   3.587 -0.1194  0.0261 -0.6745
  673MOL0     H92813   4.107  10.474   3.690 -0.3774  0.1471 -0.7831
  673MOL0     H92814   4.064  10.358   3.818 -0.9012 -0.7917  0.8947
  673MOL0     H92815   4.061  10.292   3.522  0.6380  1.5025  0.3629
  673MOL0     H92816   4.054  10.183   3.657  0.2579  0.3553  0.5469
  673MOL0     H92817   4.281  10.186   3.548  0.4297  0.5118  0.3745
  673MOL0     H92818   4.309  10.352   3.597  1.8338  0.6300  2.5309
  673MOL0     H92819   4.240  10.162   3.809 -1.2870  0.6467 -0.5288
  673MOL0     H92820   4.347  10.306   3.821  3.2306 -1.0799 -0.3370
  673MOL0     H92821   4.465  10.082   3.835  0.3879 -1.4546 -0.4039
  673MOL0     H92822   4.436  10.058   3.665  2.8414  0.2460 -0.1185
  673MOL0     H92823   4.523  10.290   3.518 -0.8805 -0.9208  0.4293
  673MOL0     H92824   4.828  10.473   3.545  2.0616  0.7302 -0.5003
  673MOL0     H92825   4.750  10.368   3.416 -0.4864 -0.9350  0.7598
  673MOL0     H92826   4.994  10.304   3.600  4.4194  0.3775 -1.7269
  673MOL0     H92827   4.932  10.194   3.486  1.7594 -1.1821  2.0421
  673MOL0     H92828   5.114  10.287   3.383  0.6116 -0.5531  2.2962
  673MOL0     H92829   4.967  10.331   3.307 -0.4476 -3.8995  1.0633
  673MOL0     H92830   4.974  10.552   3.360 -0.9055 -2.2687 -0.4596
  673MOL0     H92831   5.091  10.538   3.504  0.5777  2.4053 -0.6080
  673MOL0     H92832   5.252  10.397   3.548  1.8322  0.9633  1.8471
  673MOL0     H92833   5.588  10.293   3.678  0.5816 -0.3619 -1.5535
  673MOL0     H92834   5.414  10.261   3.676 -0.0556 -0.1573 -1.4940
  673MOL0     H92835   5.482  10.420   3.730  2.3889  0.4186 -0.7548
  673MOL0     H92836   5.869  10.248   3.623  0.2815 -2.2459 -1.2283
  673MOL0     H92837   6.073  10.150   3.654  0.8918  0.3012  0.3558
  673MOL0     H92838   6.285  10.083   3.667  3.5654  3.3256 -1.2808
  673MOL0     H92839   6.256   9.943   3.557  1.4456 -1.4385  0.6692
  673MOL0     H92840   6.501   9.946   3.627  0.3775  1.8810  0.9029
  673MOL0     H92841   6.460   9.969   3.453 -0.4832  0.2453  0.0086
  673MOL0     H92842   6.513  10.186   3.671  1.2687 -0.4725  1.0733
  673MOL0     H92843   6.490  10.216   3.506  0.2947  0.5128  0.8519
  673MOL0     H92844   6.695  10.102   3.446  0.1991  0.1002 -0.0469
  673MOL0     H92845   6.712  10.032   3.609  1.4744  1.2424  1.6534
  673MOL0     H92846   6.680  10.330   3.555  0.0619 -2.1190 -2.8518
  673MOL0     H92847   6.727  10.264   3.712 -1.2055 -0.5225 -0.7931
  673MOL0     H92848   6.920  10.376   3.600 -0.2089  0.5576 -1.4376
  673MOL0     H92849   6.924  10.260   3.468  1.9184  2.4572  0.1130
  673MOL0     H92850   6.954  10.069   3.580  0.0022 -1.4872  1.5645
  673MOL0     H92851   6.936  10.133   3.744 -4.0375  0.6217 -0.9472
  673MOL0     H92852   7.167  10.119   3.722  2.8456  0.3543 -1.0138
  673MOL0     H92853   7.132  10.291   3.699  2.9315  0.8367 -0.7562
  673MOL0     H92854   6.182  10.224   3.235 -1.1777 -0.9923 -0.8846
  673MOL0     H92855   5.955  10.309   3.204  2.1418 -1.2140 -1.3835
  673MOL0     H92856   5.628  10.516   3.244 -0.0410 -2.6983 -1.9333
  673MOL0     H92857   5.387  10.574   3.177 -1.9229 -2.4118 -1.3223
  673MOL0     H92858   3.446  10.698   3.833 -1.9507 -0.8659  2.9612
  673MOL0     H92859   3.229  10.685   3.732 -0.0904 -0.4395 -0.2673
  673MOL0     H92860   2.820  10.552   3.908 -2.4159 -6.0248 -0.6990
  673MOL0     H92861   2.627  10.670   3.863 -2.6325  1.8505 -1.0117
  673MOL0     H92862   2.584  10.839   3.444  2.0552 -1.9266  1.4602
  673MOL0     H92863   2.461  10.701   3.452 -0.2794  0.1403 -1.0296
  673MOL0     H92864   2.418  10.983   3.562 -2.2610  0.7095 -0.7000
  673MOL0     H92865   2.314  10.851   3.583  2.3113 -2.1676  1.1656
  673MOL0     H92866   2.286  10.828   3.328 -0.7241 -0.2185  1.0966
  673MOL0     H92867   2.212  10.968   3.403 -0.3168  2.2604 -3.0116
  673MOL0     H92868   2.473  10.989   3.239  0.6931  2.3164  1.0999
  673MOL0     H92869   2.396  11.102   3.346 -1.9394  0.3126  0.3703
  673MOL0     H92870   2.100  11.117   3.051 -0.8334 -1.0058 -0.6818
  673MOL0     H92871   2.707  10.646   3.442 -0.3740 -5.4712 -0.5502
  673MOL0     H92872   2.930  10.369   3.482 -1.8444 -1.4655  0.9980
  673MOL0     H92873   2.822  10.469   3.386 -2.3544 -2.1044  3.1096
  673MOL0     H92874   2.989  10.526   3.417  0.6430 -0.8955  0.5036
  674MOL0     O92875   5.074   5.332   1.683  0.0124 -0.0756  0.2478
  674MOL0     C92876   5.096   5.259   1.580 -0.5009 -0.7571 -0.7310
  674MOL0     O92877   5.218   5.208   1.556  0.5229 -0.6805  0.6238
  674MOL0     C92878   5.325   5.255   1.625 -0.2297  0.4876 -0.5845
  674MOL0     C92879   5.418   5.326   1.558  0.0510 -0.1364 -0.5809
  674MOL0     C92880   5.538   5.352   1.620  0.5541 -0.3000  0.7836
  674MOL0     C92881   5.570   5.320   1.746  0.3580 -0.4090 -0.5612
  674MOL0     O92882   5.698   5.359   1.786 -0.1780 -0.5179 -0.7020
  674MOL0     C92883   5.751   5.291   1.897 -0.5329 -1.1869 -0.4050
  674MOL0     C92884   5.884   5.359   1.924 -0.1501  0.0582  0.3610
  674MOL0     C92885   5.976   5.322   1.808 -0.2329 -0.0809 -1.4481
  674MOL0     C92886   6.128   5.319   1.847  0.0654 -0.1854  0.2368
  674MOL0     C92887   6.209   5.251   1.729 -0.6131 -0.7250 -0.3339
  674MOL0     C92888   6.361   5.262   1.747  0.0115 -0.0160 -0.1180
  674MOL0     C92889   6.435   5.262   1.612 -0.7201 -0.3579  0.4093
  674MOL0     C92890   6.586   5.305   1.619 -0.3844  0.0503  0.5906
  674MOL0     N92891   6.653   5.238   1.731  0.1448 -0.6988  0.1691
  674MOL0     C92892   6.659   5.271   1.862 -0.3103  0.1596 -0.3153
  674MOL0     C92893   6.712   5.165   1.930 -0.7585  0.0895 -0.3537
  674MOL0     C92894   6.731   5.158   2.077  0.9229  0.5603  0.4671
  674MOL0     C92895   6.597   5.173   2.137  0.1378 -0.2285  0.0854
  674MOL0     C92896   6.506   5.047   2.098 -0.1259 -1.0552  0.0810
  674MOL0     C92897   6.364   5.069   2.158  0.3758 -0.1906  1.1526
  674MOL0     O92898   6.368   5.111   2.299 -0.2299  0.3662 -0.3150
  674MOL0     C92899   6.252   5.123   2.370 -0.4585 -0.2597 -0.6427
  674MOL0     C92900   6.263   5.148   2.504  1.1318  0.7384  0.0792
  674MOL0     C92901   6.161   5.189   2.581  0.0199 -0.1211 -0.2434
  674MOL0     C92902   6.194   5.220   2.722 -0.6137  0.2588  0.3810
  674MOL0     C92903   6.027   5.194   2.527  0.4049 -0.9582 -0.0503
  674MOL0     C92904   5.906   5.210   2.611 -0.0241 -0.4445  0.3201
  674MOL0     O92905   5.792   5.220   2.541  0.1096  0.4773  0.3272
  674MOL0     C92906   5.680   5.257   2.611  1.6296 -0.6003 -0.2188
  674MOL0     C92907   5.680   5.364   2.701 -0.7966 -0.2867 -0.3808
  674MOL0     C92908   5.562   5.403   2.765  0.1190 -0.0624 -0.5873
  674MOL0     C92909   5.445   5.318   2.753  0.2834 -0.9328 -0.3587
  674MOL0     O92910   5.322   5.339   2.806  0.0862 -0.2115 -0.4381
  674MOL0     C92911   5.291   5.460   2.878 -0.4335  0.3412 -0.0501
  674MOL0     C92912   5.158   5.468   2.946  0.1440  0.4384 -0.5712
  674MOL0     C92913   5.042   5.470   2.842 -0.9785 -0.6692  0.3765
  674MOL0     C92914   4.906   5.417   2.891 -0.0329  0.1887  0.5484
  674MOL0     C92915   4.796   5.452   2.796  0.5024 -0.6806  0.0361
  674MOL0     C92916   4.664   5.396   2.861 -0.5836 -0.0629 -0.8439
  674MOL0     C92917   4.556   5.404   2.752  0.2948  0.0840  0.0825
  674MOL0     C92918   4.414   5.372   2.789  0.3737  0.1457  0.1257
  674MOL0    Cl92919   4.397   5.189   2.778  0.3489  0.0173 -0.6132
  674MOL0     C92920   5.451   5.205   2.668  0.0801 -0.4528  0.0814
  674MOL0     C92921   5.561   5.181   2.592 -0.6395  0.2595 -0.0115
  674MOL0     O92922   5.916   5.197   2.729  0.2689  0.0082 -0.3317
  674MOL0     C92923   6.009   5.168   2.388  0.1295 -0.0716  0.3267
  674MOL0     C92924   6.128   5.134   2.309  0.5791  0.4213  0.0533
  674MOL0     N92925   6.746   5.069   1.831 -0.5903  0.5011  0.0092
  674MOL0     N92926   6.712   5.120   1.716  0.3044  0.1694  0.5087
  674MOL0     C92927   5.470   5.254   1.826 -0.1438  0.5118 -0.2160
  674MOL0     C92928   5.347   5.214   1.757  0.7936  0.2890  0.0789
  674MOL0     C92929   5.000   5.258   1.483 -0.4078  1.0103  0.5952
  674MOL0     C92930   5.016   5.323   1.355  0.6528 -0.1168 -1.0712
  674MOL0     C92931   4.914   5.319   1.265  0.8219 -0.4347  1.0737
  674MOL0     C92932   4.794   5.251   1.290  0.4379  0.4022  0.7664
  674MOL0     O92933   4.686   5.255   1.205  0.1391 -0.3404 -0.8743
  674MOL0     C92934   4.675   5.370   1.121 -0.0433  0.7307  1.0170
  674MOL0     C92935   4.531   5.373   1.052 -0.6770  0.3628 -1.1713
  674MOL0     C92936   4.508   5.514   0.984  0.0250  0.3646 -0.3709
  674MOL0     C92937   4.364   5.517   0.922 -0.0163 -0.3684  0.3689
  674MOL0     C92938   4.360   5.596   0.790  0.4497  0.1773 -0.0443
  674MOL0     C92939   4.334   5.631   0.677 -0.3531 -0.1406 -0.2076
  674MOL0     C92940   4.793   5.171   1.397  0.5914  0.0880 -0.4471
  674MOL0     C92941   4.883   5.182   1.502 -0.5534  0.5606  0.2941
  674MOL0     C92942   4.860   5.101   1.619  0.6487  0.0275  1.2550
  674MOL0     H92943   5.409   5.348   1.453  1.9505  0.7774 -0.5809
  674MOL0     H92944   5.615   5.396   1.557  0.5607 -0.1542  0.8930
  674MOL0     H92945   5.767   5.183   1.891  0.5509 -1.1005  0.5459
  674MOL0     H92946   5.699   5.314   1.991 -0.9019 -1.0416 -0.6460
  674MOL0     H92947   5.871   5.468   1.926 -2.1643 -0.0503 -2.3560
  674MOL0     H92948   5.928   5.333   2.021  2.3553  0.4389 -0.5975
  674MOL0     H92949   5.949   5.219   1.781 -1.6807 -0.0883 -0.1314
  674MOL0     H92950   5.967   5.376   1.714 -0.4490  0.3850 -1.1641
  674MOL0     H92951   6.143   5.426   1.868 -1.4555 -0.2023  1.5512
  674MOL0     H92952   6.147   5.273   1.944  2.2126  0.0254 -0.0415
  674MOL0     H92953   6.170   5.292   1.635 -0.0480 -0.4447 -0.4497
  674MOL0     H92954   6.199   5.142   1.740  2.0346 -0.9991  0.0614
  674MOL0     H92955   6.379   5.357   1.798 -2.4636  0.5459 -0.1231
  674MOL0     H92956   6.407   5.181   1.804  0.6480  0.4100 -0.0217
  674MOL0     H92957   6.379   5.327   1.545  1.7848  0.4781 -1.0269
  674MOL0     H92958   6.428   5.169   1.555  0.7363  0.1896 -0.7211
  674MOL0     H92959   6.636   5.284   1.525 -1.1770  1.5903 -0.2133
  674MOL0     H92960   6.607   5.410   1.640  2.1136 -0.5441  1.4160
  674MOL0     H92961   6.614   5.362   1.901 -1.0879 -0.2277 -0.2955
  674MOL0     H92962   6.785   5.250   2.102 -3.3147  3.3562  0.3245
  674MOL0     H92963   6.773   5.061   2.105 -0.7069 -1.2043 -2.7337
  674MOL0     H92964   6.613   5.178   2.245  1.0766  1.6417 -0.1003
  674MOL0     H92965   6.544   5.268   2.121 -2.1125 -1.2889  0.8821
  674MOL0     H92966   6.491   5.041   1.990 -1.3113  1.1262  0.0737
  674MOL0     H92967   6.553   4.952   2.125 -1.9840 -1.5783  1.6716
  674MOL0     H92968   6.310   5.141   2.096  1.4947 -1.1956 -1.1091
  674MOL0     H92969   6.315   4.972   2.153  3.8028 -2.0366  0.5190
  674MOL0     H92970   6.365   5.147   2.541  0.9871  1.3351  0.5037
  674MOL0     H92971   6.164   5.140   2.790  2.9145 -0.5544  1.1963
  674MOL0     H92972   6.135   5.309   2.742 -1.9069  0.2711 -2.7870
  674MOL0     H92973   6.302   5.238   2.730 -0.7088  1.4467 -0.7405
  674MOL0     H92974   5.772   5.421   2.707 -1.8273  1.3567  0.8854
  674MOL0     H92975   5.568   5.498   2.818  0.0169 -0.4222  0.0728
  674MOL0     H92976   5.366   5.463   2.958 -0.1300 -1.3568 -0.2255
  674MOL0     H92977   5.309   5.549   2.817  0.3901 -0.4085 -0.9318
  674MOL0     H92978   5.151   5.374   3.003 -0.2131  0.8469  0.0703
  674MOL0     H92979   5.152   5.557   3.009  1.7327  0.3926 -0.3152
  674MOL0     H92980   5.076   5.423   2.749  1.8729  2.5415 -0.4204
  674MOL0     H92981   5.026   5.576   2.818  0.9386 -0.5196 -0.4149
  674MOL0     H92982   4.880   5.458   2.989  2.4296 -1.3688  1.9784
  674MOL0     H92983   4.922   5.310   2.902  4.9694  0.5576 -0.3621
  674MOL0     H92984   4.784   5.559   2.779 -0.1481 -0.7359  0.1238
  674MOL0     H92985   4.808   5.419   2.693 -0.2038  1.4527 -0.7754
  674MOL0     H92986   4.642   5.470   2.939  2.0768 -0.7089  0.6648
  674MOL0     H92987   4.674   5.295   2.902 -3.1318  0.3175  0.9616
  674MOL0     H92988   4.576   5.337   2.667  0.0828 -0.7613  0.6813
  674MOL0     H92989   4.562   5.510   2.725  1.9627 -0.0769 -0.2588
  674MOL0     H92990   4.355   5.419   2.709  3.2187  1.7317 -1.2202
  674MOL0     H92991   4.380   5.402   2.888  2.1095  0.4389  0.6618
  674MOL0     H92992   5.360   5.147   2.659 -0.4279  0.4898 -1.1161
  674MOL0     H92993   5.555   5.101   2.519 -2.6105 -1.5578  2.0082
  674MOL0     H92994   5.909   5.185   2.347  0.0307  1.0416  0.9765
  674MOL0     H92995   6.106   5.118   2.204  1.1503  1.6610 -0.2711
  674MOL0     H92996   5.486   5.236   1.932  4.0885  0.5475 -0.6758
  674MOL0     H92997   5.269   5.161   1.810  1.5964 -0.6632  0.3309
  674MOL0     H92998   5.113   5.370   1.340  1.8952 -1.0136  3.0862
  674MOL0     H92999   4.942   5.374   1.175 -2.3656  0.0932  0.2941
  674MOL0     H93000   4.684   5.458   1.186  0.0023  1.5158 -0.0333
  674MOL0     H93001   4.752   5.368   1.043 -1.8821 -0.6993 -0.8570
  674MOL0     H93002   4.462   5.348   1.133  2.7094  0.9280  2.1827
  674MOL0     H93003   4.528   5.296   0.974 -1.7108  0.5730 -1.3459
  674MOL0     H93004   4.532   5.590   1.058 -0.9241  0.0781  0.2550
  674MOL0     H93005   4.583   5.526   0.905  1.4468  1.2205  1.0528
  674MOL0     H93006   4.296   5.566   0.992  0.7494  1.2646  0.0085
  674MOL0     H93007   4.321   5.417   0.904 -5.2451  0.8288  3.8579
  674MOL0     H93008   4.326   5.659   0.574 -1.4952  2.1043  0.4380
  674MOL0     H93009   4.710   5.105   1.421  0.6633 -0.5673 -1.9107
  674MOL0     H93010   4.761   5.054   1.623 -0.6676  2.1263 -2.2295
  674MOL0     H93011   4.928   5.015   1.618  1.2811  0.5230  0.5105
  674MOL0     H93012   4.868   5.157   1.712  1.8676 -0.5149  1.5011
  675MOL0     O93013   5.095   5.277   7.330  0.0636  0.2694  0.0434
  675MOL0     C93014   5.079   5.157   7.346 -0.3822  0.8020  0.0652
  675MOL0     O93015   5.177   5.073   7.381  0.1029 -0.8761 -0.3407
  675MOL0     C93016   5.305   5.113   7.401 -0.9088 -0.1561  0.8751
  675MOL0     C93017   5.403   5.121   7.300 -0.6958 -0.0275  0.2654
  675MOL0     C93018   5.527   5.165   7.332 -0.3983  0.5806  0.0806
  675MOL0     C93019   5.562   5.190   7.463  0.4987 -0.1172  0.0636
  675MOL0     O93020   5.687   5.223   7.484  0.5430 -0.3831  0.1146
  675MOL0     C93021   5.707   5.341   7.572  0.8120  0.1031 -0.6068
  675MOL0     C93022   5.849   5.386   7.561  0.8473 -0.7909  0.1852
  675MOL0     C93023   5.871   5.480   7.441  0.1366 -0.2205  0.9636
  675MOL0     C93024   6.015   5.534   7.447  0.3271  0.4256  0.3496
  675MOL0     C93025   6.045   5.573   7.304  0.3585 -0.2401 -0.4986
  675MOL0     C93026   6.179   5.656   7.302 -0.0682  0.3950 -0.0112
  675MOL0     C93027   6.310   5.571   7.326 -0.2943 -0.0553 -0.0372
  675MOL0     C93028   6.430   5.664   7.309 -0.2183 -0.9748  0.1798
  675MOL0     N93029   6.556   5.615   7.368  0.7822 -0.4301  0.3522
  675MOL0     C93030   6.645   5.529   7.312 -0.8189  0.4813  0.5369
  675MOL0     C93031   6.747   5.521   7.400 -0.4499 -0.0465  0.8181
  675MOL0     C93032   6.870   5.434   7.395 -0.7035 -0.8480  0.8441
  675MOL0     C93033   6.960   5.420   7.515 -0.3363  0.0125 -0.0741
  675MOL0     C93034   7.046   5.296   7.504  0.1422 -0.2210  0.5335
  675MOL0     C93035   7.132   5.270   7.630  1.2418  0.1872  0.1424
  675MOL0     O93036   7.251   5.343   7.632  0.9735 -0.0423 -0.2905
  675MOL0     C93037   7.346   5.304   7.723 -0.1894  0.6621  0.2646
  675MOL0     C93038   7.476   5.346   7.707  0.0684 -0.2554  0.1201
  675MOL0     C93039   7.574   5.318   7.797  0.1823  0.4650  0.3671
  675MOL0     C93040   7.707   5.375   7.760  0.9283 -0.3011 -0.0874
  675MOL0     C93041   7.552   5.242   7.911  0.3845  0.2014 -0.0287
  675MOL0     C93042   7.652   5.205   8.018 -0.0723 -0.2607  0.0007
  675MOL0     O93043   7.611   5.129   8.125  0.0966  0.1282 -0.0395
  675MOL0     C93044   7.709   5.118   8.219  0.7994  0.0137 -0.0982
  675MOL0     C93045   7.749   5.229   8.288 -0.2256  0.4663  0.1909
  675MOL0     C93046   7.832   5.225   8.397  0.1139  0.0533 -0.4629
  675MOL0     C93047   7.890   5.107   8.438  0.3169  0.4506  0.0939
  675MOL0     O93048   7.981   5.103   8.546  0.5585  0.4960  0.3668
  675MOL0     C93049   8.060   4.985   8.573  0.3341  0.4318  0.0862
  675MOL0     C93050   8.183   5.025   8.650  0.1411 -0.1074 -0.2023
  675MOL0     C93051   8.169   5.083   8.793  0.2510 -0.3291 -0.3504
  675MOL0     C93052   8.105   5.229   8.811 -0.0638  0.4410 -0.0516
  675MOL0     C93053   8.131   5.291   8.955 -0.3825  0.1195  0.9439
  675MOL0     C93054   8.278   5.338   8.967 -0.4448 -0.5755 -0.4130
  675MOL0     C93055   8.311   5.415   9.091 -0.0754 -0.3306  0.0655
  675MOL0     C93056   8.263   5.566   9.096 -0.3267 -0.7400  0.2358
  675MOL0    Cl93057   8.374   5.658   8.981 -0.2464  0.4514  0.3267
  675MOL0     C93058   7.856   4.992   8.361 -0.3365 -0.4289 -0.3670
  675MOL0     C93059   7.765   4.997   8.253 -0.1310  0.7621 -1.0202
  675MOL0     O93060   7.768   5.243   8.009  0.3790  0.2484 -0.2962
  675MOL0     C93061   7.419   5.204   7.937  0.2400  0.1949 -0.0151
  675MOL0     C93062   7.318   5.237   7.849  0.1599  0.3961 -0.7890
  675MOL0     N93063   6.710   5.592   7.511 -0.4491 -0.1055 -0.3289
  675MOL0     N93064   6.593   5.656   7.486 -0.3042 -0.2564  0.6500
  675MOL0     C93065   5.472   5.181   7.558 -0.0046  0.1474 -0.9082
  675MOL0     C93066   5.338   5.136   7.530 -0.8328  0.0840  0.5656
  675MOL0     C93067   4.947   5.106   7.318 -0.1059  0.3573  0.6689
  675MOL0     C93068   4.919   4.968   7.337 -0.0040 -0.3153  0.9068
  675MOL0     C93069   4.789   4.916   7.326  0.2055  0.3236 -0.3913
  675MOL0     C93070   4.675   4.993   7.293  0.5624 -0.1490  0.7513
  675MOL0     O93071   4.543   4.953   7.270 -0.5587 -0.2705  0.4606
  675MOL0     C93072   4.524   4.816   7.265  0.8668  0.0162 -0.3050
  675MOL0     C93073   4.383   4.783   7.217  0.0176 -0.5549  0.0202
  675MOL0     C93074   4.277   4.852   7.298 -0.2394  0.5498  0.2330
  675MOL0     C93075   4.141   4.797   7.275 -0.5014  0.4609 -0.5282
  675MOL0     C93076   4.079   4.860   7.158 -0.4064  0.4411 -0.4862
  675MOL0     C93077   3.998   4.916   7.080 -0.3181 -0.0278  0.3602
  675MOL0     C93078   4.707   5.124   7.260 -0.4015  1.1898  0.1220
  675MOL0     C93079   4.832   5.183   7.274  0.0641 -0.5499  0.1893
  675MOL0     C93080   4.824   5.329   7.250 -0.1552 -0.2555  0.3842
  675MOL0     H93081   5.371   5.097   7.199 -1.3096 -1.6138  0.8039
  675MOL0     H93082   5.605   5.175   7.258 -0.0678  0.5637  0.4268
  675MOL0     H93083   5.698   5.310   7.676 -3.5078  1.7953 -0.2775
  675MOL0     H93084   5.640   5.426   7.556  0.2824 -0.1473  0.2210
  675MOL0     H93085   5.869   5.437   7.656  0.5935 -0.1318 -0.1081
  675MOL0     H93086   5.913   5.297   7.554 -0.2873 -1.5608 -0.6011
  675MOL0     H93087   5.861   5.420   7.350  0.3863 -1.0076  1.4460
  675MOL0     H93088   5.798   5.561   7.442 -0.5206 -0.8053  0.8278
  675MOL0     H93089   6.019   5.617   7.517 -0.6276  0.2609  0.6104
  675MOL0     H93090   6.089   5.459   7.478  0.9352  0.6971 -0.4142
  675MOL0     H93091   5.966   5.640   7.266 -1.0879 -1.2804  0.5834
  675MOL0     H93092   6.062   5.489   7.236 -2.4146 -0.2633 -1.2975
  675MOL0     H93093   6.191   5.696   7.201 -0.7525 -1.4018 -0.8542
  675MOL0     H93094   6.182   5.737   7.376 -3.2920  0.2238  0.4687
  675MOL0     H93095   6.331   5.475   7.277  2.8843 -0.3991  1.7112
  675MOL0     H93096   6.306   5.527   7.426  0.9149 -1.4934 -0.5698
  675MOL0     H93097   6.446   5.690   7.204 -2.1637  2.4379  0.5587
  675MOL0     H93098   6.408   5.761   7.355  2.0011  0.3716 -1.3916
  675MOL0     H93099   6.632   5.475   7.219 -2.8976  1.8487 -0.0487
  675MOL0     H93100   6.927   5.470   7.308 -0.8299  2.4331  2.0123
  675MOL0     H93101   6.835   5.336   7.362  0.9709 -1.2147  0.0121
  675MOL0     H93102   7.017   5.513   7.515  0.5136 -0.4602  1.8459
  675MOL0     H93103   6.897   5.420   7.605 -0.3635 -0.2440 -0.0921
  675MOL0     H93104   6.992   5.201   7.498 -1.8422  0.9370 -0.6506
  675MOL0     H93105   7.103   5.302   7.411  1.1765  2.1831  1.2484
  675MOL0     H93106   7.073   5.296   7.718 -0.1052  0.4900 -0.8245
  675MOL0     H93107   7.152   5.163   7.640 -0.1493  0.0732  2.4362
  675MOL0     H93108   7.502   5.401   7.617  0.6339 -1.7168 -0.6544
  675MOL0     H93109   7.782   5.295   7.757  0.1298 -1.0483 -0.8022
  675MOL0     H93110   7.736   5.456   7.827  1.6498 -0.0265 -0.7183
  675MOL0     H93111   7.712   5.419   7.660 -0.7724 -0.2460 -0.1839
  675MOL0     H93112   7.703   5.323   8.258 -1.0483  0.2076  0.6024
  675MOL0     H93113   7.845   5.318   8.451  0.0010  1.0250 -2.0252
  675MOL0     H93114   7.998   4.909   8.622 -0.1070 -0.5389 -1.8444
  675MOL0     H93115   8.101   4.937   8.484  1.0804  0.3421  0.4728
  675MOL0     H93116   8.234   4.929   8.665  0.6726 -0.1231 -1.9196
  675MOL0     H93117   8.259   5.085   8.599  0.1856 -0.9283 -1.1122
  675MOL0     H93118   8.271   5.082   8.834  0.1351 -0.0526 -0.0505
  675MOL0     H93119   8.117   5.016   8.863 -0.6990  3.2359  2.6945
  675MOL0     H93120   7.997   5.225   8.792 -0.5544  0.5689  2.4069
  675MOL0     H93121   8.145   5.281   8.723  1.9536 -2.7475 -1.2232
  675MOL0     H93122   8.064   5.376   8.966  3.3322  3.8621 -2.1407
  675MOL0     H93123   8.121   5.211   9.030  0.9479 -0.4671  0.5411
  675MOL0     H93124   8.296   5.392   8.874 -0.7535 -2.8956 -1.9011
  675MOL0     H93125   8.343   5.251   8.958 -0.5446 -0.5431 -1.5299
  675MOL0     H93126   8.419   5.411   9.109 -0.0000  0.0347 -0.2937
  675MOL0     H93127   8.270   5.367   9.181 -1.0924 -0.7911 -0.6269
  675MOL0     H93128   8.285   5.594   9.200 -1.5518  0.2476  0.2639
  675MOL0     H93129   8.158   5.575   9.064 -0.7642 -1.7478  1.3219
  675MOL0     H93130   7.897   4.893   8.381  2.4354  0.6855 -0.1934
  675MOL0     H93131   7.724   4.909   8.204 -1.6832 -1.7496  4.0875
  675MOL0     H93132   7.378   5.148   8.020 -2.0064  1.4390 -0.1990
  675MOL0     H93133   7.219   5.212   7.884  1.5100  0.2561  3.5779
  675MOL0     H93134   5.515   5.189   7.657  0.1749 -1.8871 -0.7739
  675MOL0     H93135   5.254   5.130   7.598 -0.3145  2.3428  1.4900
  675MOL0     H93136   4.997   4.894   7.353  0.4811 -0.0164 -0.0186
  675MOL0     H93137   4.778   4.809   7.342  1.4006  0.5681  2.5422
  675MOL0     H93138   4.593   4.766   7.196 -0.5516 -1.9349 -0.4059
  675MOL0     H93139   4.545   4.765   7.360 -1.3920 -2.2505 -0.8960
  675MOL0     H93140   4.370   4.675   7.222 -0.4819 -0.4980  0.0035
  675MOL0     H93141   4.367   4.812   7.113 -0.1465  1.9462  0.6715
  675MOL0     H93142   4.302   4.828   7.402  1.3442 -1.6400 -0.5765
  675MOL0     H93143   4.282   4.961   7.283 -1.7780  0.6045  0.0088
  675MOL0     H93144   4.066   4.811   7.353 -0.5229  1.4015 -0.6996
  675MOL0     H93145   4.136   4.688   7.268 -0.8450  0.5771 -2.9553
  675MOL0     H93146   3.922   4.959   7.019 -1.6781 -0.4517  1.7100
  675MOL0     H93147   4.618   5.170   7.216 -0.3844 -0.0544 -1.3105
  675MOL0     H93148   4.836   5.398   7.333 -1.6301  0.9689 -0.3536
  675MOL0     H93149   4.912   5.355   7.191 -0.7218 -0.6297 -0.6602
  675MOL0     H93150   4.731   5.354   7.196  0.0035 -0.3558  0.0625
  676MOL0     O93151   3.592   6.094   1.088  0.4832 -0.3416 -0.4123
  676MOL0     C93152   3.528   5.992   1.057 -0.0249 -0.6143 -0.3219
  676MOL0     O93153   3.582   5.868   1.042  0.5513 -0.1113  0.6433
  676MOL0     C93154   3.710   5.863   1.087  0.0365 -0.5393  0.8944
  676MOL0     C93155   3.821   5.847   1.002  0.1759  0.4545 -0.6556
  676MOL0     C93156   3.957   5.834   1.048 -0.4153 -0.6201 -0.6543
  676MOL0     C93157   3.983   5.835   1.186  0.0052 -0.5457  0.2114
  676MOL0     O93158   4.111   5.833   1.237 -0.1297 -0.0823 -0.0491
  676MOL0     C93159   4.144   5.890   1.359  0.0451 -1.0618  0.1977
  676MOL0     C93160   4.290   5.863   1.367  0.0139 -0.6074 -0.1862
  676MOL0     C93161   4.346   5.904   1.502 -0.0274  0.5624  0.2051
  676MOL0     C93162   4.332   5.792   1.607 -0.5867  0.5899  1.0508
  676MOL0     C93163   4.399   5.836   1.739  0.6786  1.3313 -0.6611
  676MOL0     C93164   4.414   5.710   1.830  0.0672 -0.0830  0.6356
  676MOL0     C93165   4.286   5.624   1.840  0.3847 -0.5453 -0.1859
  676MOL0     C93166   4.184   5.699   1.934  0.5650 -0.0374  0.2969
  676MOL0     N93167   4.219   5.694   2.078 -0.1547  0.4199  0.0306
  676MOL0     C93168   4.279   5.598   2.143 -0.1814  0.8522 -0.7371
  676MOL0     C93169   4.315   5.645   2.265  0.2379 -0.6966  0.9781
  676MOL0     C93170   4.403   5.583   2.369 -0.1558 -0.2572  0.1671
  676MOL0     C93171   4.545   5.560   2.302  0.3571 -0.7377  0.4590
  676MOL0     C93172   4.647   5.530   2.411  0.7053 -0.5190 -0.6874
  676MOL0     C93173   4.773   5.483   2.352 -0.1274  0.2459  0.3360
  676MOL0     O93174   4.877   5.497   2.457  0.1628 -0.1489  0.3388
  676MOL0     C93175   4.954   5.609   2.468 -1.1464  0.5516 -0.4163
  676MOL0     C93176   4.919   5.736   2.422  1.3106 -1.4894 -0.1761
  676MOL0     C93177   5.006   5.849   2.424 -0.7462  0.8139  0.7893
  676MOL0     C93178   4.948   5.974   2.352 -0.8251 -0.0246 -0.0414
  676MOL0     C93179   5.142   5.830   2.458 -0.4761  0.7419 -0.1082
  676MOL0     C93180   5.250   5.929   2.455  0.4782 -0.6172 -0.8169
  676MOL0     O93181   5.366   5.882   2.464 -0.0354 -0.4039  0.0445
  676MOL0     C93182   5.483   5.954   2.461 -0.0046  0.7860 -0.7717
  676MOL0     C93183   5.560   5.962   2.580  0.2164  0.2992  0.9037
  676MOL0     C93184   5.676   6.023   2.574  0.0330 -0.1029  0.2639
  676MOL0     C93185   5.737   6.062   2.454 -0.3988 -0.2467  0.5264
  676MOL0     O93186   5.869   6.110   2.465  0.0559 -0.4575 -0.0629
  676MOL0     C93187   5.965   6.062   2.371  0.5879  0.4190 -0.3716
  676MOL0     C93188   6.106   6.084   2.439 -0.4779  0.2012  0.1424
  676MOL0     C93189   6.214   6.032   2.345 -0.0379  0.2650  0.5375
  676MOL0     C93190   6.349   6.034   2.428 -0.5273 -0.5067 -0.9903
  676MOL0     C93191   6.472   5.998   2.349  0.0859  0.5970  0.2988
  676MOL0     C93192   6.603   6.010   2.427 -0.2808  0.0451  0.4052
  676MOL0     C93193   6.730   5.962   2.354  0.3759  0.1471  0.0139
  676MOL0     C93194   6.807   6.078   2.287  0.1882  1.0123  0.6607
  676MOL0    Cl93195   6.906   6.172   2.404 -0.5851  0.3932 -0.2370
  676MOL0     C93196   5.661   6.065   2.342 -0.0885  0.5822 -0.8458
  676MOL0     C93197   5.536   6.010   2.339  0.4305  0.4443  0.6601
  676MOL0     O93198   5.225   6.051   2.446 -0.2972  0.6153  0.2212
  676MOL0     C93199   5.178   5.703   2.503 -0.3665  0.6558  0.0692
  676MOL0     C93200   5.086   5.594   2.514 -0.4300 -0.2066  0.4699
  676MOL0     N93201   4.260   5.773   2.280 -0.0236  0.1426 -0.7246
  676MOL0     N93202   4.200   5.796   2.168 -0.4407 -0.3437 -0.2429
  676MOL0     C93203   3.873   5.841   1.271  0.0872 -0.1065 -0.6430
  676MOL0     C93204   3.746   5.869   1.227  0.7252 -0.4919  0.0046
  676MOL0     C93205   3.392   6.015   1.006  1.5043  0.8160 -0.3590
  676MOL0     C93206   3.337   5.919   0.916 -0.1809  0.0986 -0.2011
  676MOL0     C93207   3.208   5.942   0.869  0.0353 -0.3267 -0.2997
  676MOL0     C93208   3.129   6.047   0.903 -0.0659 -0.2226 -0.2757
  676MOL0     O93209   2.999   6.089   0.854 -1.1005  0.5702  0.2033
  676MOL0     C93210   2.926   5.987   0.785  0.5579 -0.9612 -0.5362
  676MOL0     C93211   2.788   6.046   0.764  0.2365 -0.4595  0.6221
  676MOL0     C93212   2.689   5.945   0.683 -0.1500  0.3398  0.2797
  676MOL0     C93213   2.593   6.005   0.581 -0.3936  0.5324 -0.1252
  676MOL0     C93214   2.657   6.104   0.485  0.2958  0.4736  0.2192
  676MOL0     C93215   2.715   6.188   0.416 -0.3278  0.2362 -0.5072
  676MOL0     C93216   3.181   6.139   0.990  0.3856 -1.0423 -0.1557
  676MOL0     C93217   3.308   6.121   1.047  0.2566 -0.4276  0.1792
  676MOL0     C93218   3.352   6.225   1.139  0.2468  0.0215 -0.1336
  676MOL0     H93219   3.807   5.852   0.895 -2.8370  1.3974 -0.3028
  676MOL0     H93220   4.037   5.836   0.975  1.4620  1.8913  1.2908
  676MOL0     H93221   4.095   5.855   1.450  2.3049  1.6533  2.6770
  676MOL0     H93222   4.139   6.000   1.363 -0.0757 -1.0528 -0.1272
  676MOL0     H93223   4.309   5.756   1.360 -2.6205 -1.1825  0.2340
  676MOL0     H93224   4.335   5.918   1.283  0.6884  1.1592  1.2577
  676MOL0     H93225   4.444   5.953   1.504  1.5693 -2.3879  1.2324
  676MOL0     H93226   4.281   5.985   1.534  1.2393  0.7725  2.5312
  676MOL0     H93227   4.226   5.764   1.614 -0.7342  0.3752 -1.1535
  676MOL0     H93228   4.381   5.703   1.566  0.2199  0.7595  1.6373
  676MOL0     H93229   4.336   5.910   1.789 -0.1561  0.8392 -0.9616
  676MOL0     H93230   4.499   5.872   1.713  1.5747 -1.0461 -0.7356
  676MOL0     H93231   4.497   5.650   1.792 -0.5731 -2.0669  2.2335
  676MOL0     H93232   4.451   5.743   1.927 -1.3701  1.7045  0.6176
  676MOL0     H93233   4.314   5.524   1.874 -1.0872 -1.4823 -1.5615
  676MOL0     H93234   4.231   5.603   1.747 -0.9968  1.4264  0.1213
  676MOL0     H93235   4.165   5.798   1.893  1.6057 -0.3082 -0.9119
  676MOL0     H93236   4.084   5.657   1.921  0.5020  0.3253 -0.4605
  676MOL0     H93237   4.305   5.507   2.090  0.9202  0.6415  0.1165
  676MOL0     H93238   4.367   5.486   2.406 -1.4439  0.1025 -0.0775
  676MOL0     H93239   4.405   5.647   2.458 -0.4695  1.5100 -1.0472
  676MOL0     H93240   4.536   5.479   2.229  0.3398 -0.2275 -0.1114
  676MOL0     H93241   4.568   5.653   2.250 -2.7504  1.0957  2.0850
  676MOL0     H93242   4.656   5.627   2.460  1.3038 -1.1815  0.5668
  676MOL0     H93243   4.606   5.459   2.484  1.9348 -0.6246 -0.0737
  676MOL0     H93244   4.771   5.377   2.324  0.1053 -0.1749  1.8319
  676MOL0     H93245   4.792   5.541   2.261 -3.5380 -0.2647 -0.8332
  676MOL0     H93246   4.823   5.757   2.377  0.8346  1.2736  1.9479
  676MOL0     H93247   4.953   6.066   2.412 -1.1776  1.3452 -2.0136
  676MOL0     H93248   4.849   5.964   2.306  0.7587 -0.6242 -3.6585
  676MOL0     H93249   5.011   5.996   2.266  0.6013  2.2488  1.4619
  676MOL0     H93250   5.506   5.929   2.668 -0.9806 -1.3203 -0.3724
  676MOL0     H93251   5.721   6.040   2.671 -2.5414  1.5004  1.2923
  676MOL0     H93252   5.949   5.955   2.355 -2.3767  0.3130  2.3412
  676MOL0     H93253   5.962   6.122   2.280  2.6645  1.8568  0.4373
  676MOL0     H93254   6.125   6.184   2.480 -1.8715 -0.1129  1.6297
  676MOL0     H93255   6.100   6.023   2.530 -0.5140  1.0860  0.7475
  676MOL0     H93256   6.223   6.104   2.263  0.9716  3.4447  3.1821
  676MOL0     H93257   6.198   5.928   2.315  1.0452 -0.5639  2.5884
  676MOL0     H93258   6.348   5.964   2.511  0.0691  2.3026  1.5522
  676MOL0     H93259   6.368   6.127   2.482  1.2256  0.4455 -3.0845
  676MOL0     H93260   6.468   5.892   2.323  0.7628  0.1037  2.0504
  676MOL0     H93261   6.483   6.053   2.254  2.1632  0.0879  0.2032
  676MOL0     H93262   6.587   5.941   2.511  0.6625 -0.4469  0.1848
  676MOL0     H93263   6.612   6.110   2.472  0.3863 -0.9722  2.7007
  676MOL0     H93264   6.704   5.891   2.275 -1.8815 -0.6273  1.3644
  676MOL0     H93265   6.789   5.905   2.426  0.4493 -1.6440 -1.3871
  676MOL0     H93266   6.736   6.149   2.244 -0.8908  0.5223  1.5926
  676MOL0     H93267   6.856   6.033   2.199 -1.2508 -1.8573  1.2013
  676MOL0     H93268   5.705   6.108   2.253  0.6838 -0.0236 -0.7632
  676MOL0     H93269   5.484   6.006   2.244 -0.1047 -1.7992  0.9830
  676MOL0     H93270   5.280   5.676   2.531 -1.4154 -1.9507  1.8470
  676MOL0     H93271   5.124   5.498   2.548  1.3945  0.2091 -0.2300
  676MOL0     H93272   3.895   5.830   1.377 -1.8378  1.1028 -0.0764
  676MOL0     H93273   3.658   5.891   1.287  2.0064  2.2786  1.0599
  676MOL0     H93274   3.400   5.834   0.891 -2.7026 -2.3395  1.1219
  676MOL0     H93275   3.161   5.873   0.799  0.7968 -0.1580 -0.9987
  676MOL0     H93276   2.976   5.959   0.691 -0.7272 -2.1206 -0.9055
  676MOL0     H93277   2.926   5.905   0.856  0.9037 -0.6561 -0.1797
  676MOL0     H93278   2.810   6.139   0.711  0.0253 -0.6451  0.2010
  676MOL0     H93279   2.740   6.065   0.860  1.0326 -2.0830  1.3686
  676MOL0     H93280   2.740   5.870   0.621  1.2181  0.2060  1.4996
  676MOL0     H93281   2.621   5.896   0.752 -0.8607 -1.2957 -1.4926
  676MOL0     H93282   2.508   6.046   0.636 -1.0756  0.8875 -1.3894
  676MOL0     H93283   2.558   5.920   0.522  0.3499  1.6577 -2.2839
  676MOL0     H93284   2.762   6.268   0.364 -0.4765  1.6265  1.4025
  676MOL0     H93285   3.110   6.220   1.004 -1.8181 -2.4044 -2.5550
  676MOL0     H93286   3.265   6.281   1.173  0.4512 -0.0429  0.5045
  676MOL0     H93287   3.394   6.178   1.228 -1.7956  0.7930  1.3091
  676MOL0     H93288   3.426   6.290   1.093  1.3520 -0.6149  0.6960
  677MOL0     O93289   9.380   7.124   2.488  0.4474  0.0071  0.3111
  677MOL0     C93290   9.343   7.094   2.608 -0.1578 -0.4296  0.3322
  677MOL0     O93291   9.413   7.007   2.686 -0.4858  0.4938 -0.0291
  677MOL0     C93292   9.535   6.968   2.647  0.1999  0.3048 -0.1313
  677MOL0     C93293   9.556   6.851   2.567 -0.1087 -0.4795 -0.3390
  677MOL0     C93294   9.681   6.812   2.525  0.0273 -0.2266 -0.0010
  677MOL0     C93295   9.793   6.883   2.572  0.3053  0.8113  0.4702
  677MOL0     O93296   9.911   6.844   2.516  0.1910  0.8187  0.3552
  677MOL0     C93297  10.007   6.944   2.476 -0.9051 -0.3008  0.2145
  677MOL0     C93298  10.129   6.866   2.406  0.5665 -0.3506 -0.5931
  677MOL0     C93299  10.074   6.806   2.270 -0.0432  0.0622  0.1297
  677MOL0     C93300  10.164   6.692   2.224  0.1245  0.4049  0.1309
  677MOL0     C93301  10.282   6.734   2.136  0.0481  0.2222  0.6069
  677MOL0     C93302  10.361   6.625   2.071  0.4322 -0.6993 -0.5786
  677MOL0     C93303  10.464   6.685   1.961 -0.3761 -0.5620  0.9334
  677MOL0     C93304  10.404   6.734   1.821 -0.2484  0.3461 -0.5698
  677MOL0     N93305  10.504   6.767   1.714  0.8153 -0.3112 -0.4139
  677MOL0     C93306  10.592   6.671   1.669  0.1453  0.1890 -0.3987
  677MOL0     C93307  10.660   6.736   1.575 -0.6326 -0.1777  0.9427
  677MOL0     C93308  10.779   6.688   1.496  0.1678  0.0145 -0.0459
  677MOL0     C93309  10.905   6.711   1.577 -0.3434  0.0173 -0.2194
  677MOL0     C93310  10.922   6.620   1.700 -0.1022 -0.0766 -0.6808
  677MOL0     C93311  11.060   6.593   1.746 -0.4814  0.0447 -0.4757
  677MOL0     O93312  11.116   6.715   1.799 -0.6753 -0.4110  0.3054
  677MOL0     C93313  11.230   6.705   1.877 -0.4167  0.4563  0.2784
  677MOL0     C93314  11.268   6.812   1.956 -0.2039 -0.2683 -0.5185
  677MOL0     C93315  11.378   6.802   2.046  0.3078 -0.2977  0.3778
  677MOL0     C93316  11.409   6.915   2.137 -0.0050 -0.3781  0.4617
  677MOL0     C93317  11.458   6.680   2.039  0.9179 -0.4927  0.0359
  677MOL0     C93318  11.597   6.661   2.091 -0.4239  0.3580 -0.3431
  677MOL0     O93319  11.681   6.564   2.036 -0.0616 -0.1596 -0.1207
  677MOL0     C93320  11.807   6.561   2.089  0.1029  0.3404 -0.0824
  677MOL0     C93321  11.913   6.514   2.010 -0.7455  0.3042 -0.2275
  677MOL0     C93322  12.051   6.512   2.048 -0.5227 -0.2471 -0.7221
  677MOL0     C93323  12.087   6.551   2.177  0.0740 -0.4246 -0.7261
  677MOL0     O93324  12.215   6.549   2.228  0.6296 -0.6289 -0.2781
  677MOL0     C93325  12.312   6.465   2.155 -0.3787  0.1199 -0.3046
  677MOL0     C93326  12.446   6.451   2.234 -0.0858 -0.0573  0.2838
  677MOL0     C93327  12.515   6.324   2.184  0.7097  0.0914  0.2047
  677MOL0     C93328  12.660   6.307   2.232  0.4228  0.1173 -0.0379
  677MOL0     C93329  12.714   6.175   2.175 -0.4116  0.0464 -0.5562
  677MOL0     C93330  12.870   6.171   2.186 -0.2853 -0.0831 -0.5547
  677MOL0     C93331  12.909   6.050   2.115  0.2783 -0.0387 -0.5908
  677MOL0     C93332  13.061   6.035   2.094  0.4701  0.2832  0.3945
  677MOL0    Cl93333  13.063   5.879   2.015  0.0531  0.2602  0.2250
  677MOL0     C93334  11.981   6.578   2.267  0.1388  0.4488 -0.6279
  677MOL0     C93335  11.843   6.581   2.222 -0.5309  0.7785 -0.1124
  677MOL0     O93336  11.632   6.759   2.154 -0.0280 -0.1655 -0.7154
  677MOL0     C93337  11.408   6.574   1.966  0.2081 -0.2689  0.3875
  677MOL0     C93338  11.303   6.590   1.880  0.3419  0.2887 -0.3630
  677MOL0     N93339  10.596   6.844   1.537  0.8039 -0.6589 -0.2890
  677MOL0     N93340  10.510   6.874   1.634  0.2712  0.0847 -0.1305
  677MOL0     C93341   9.779   6.998   2.639  0.5131 -0.0554 -0.1337
  677MOL0     C93342   9.649   7.039   2.684 -0.0637  0.4518  0.4630
  677MOL0     C93343   9.226   7.160   2.667  0.5787  0.0976 -0.2899
  677MOL0     C93344   9.200   7.140   2.807  0.2404 -0.6277  0.0443
  677MOL0     C93345   9.080   7.178   2.859 -0.2782  0.3352 -0.2138
  677MOL0     C93346   8.977   7.234   2.783  0.5870 -0.1863  0.3820
  677MOL0     O93347   8.852   7.270   2.845  0.6339  0.8203 -0.3605
  677MOL0     C93348   8.719   7.216   2.803  0.0336 -1.4715  0.3311
  677MOL0     C93349   8.727   7.076   2.746  0.1861  0.9030  0.3633
  677MOL0     C93350   8.588   7.004   2.744 -0.6815 -0.5120  0.0303
  677MOL0     C93351   8.616   6.867   2.698  0.6799  0.1922 -0.0102
  677MOL0     C93352   8.489   6.796   2.693  0.7379  0.7672 -0.2663
  677MOL0     C93353   8.407   6.703   2.687  0.4943 -0.6391  0.4906
  677MOL0     C93354   9.006   7.270   2.653  0.2138  1.0088  0.1303
  677MOL0     C93355   9.129   7.230   2.593 -0.1317 -0.0300  0.5357
  677MOL0     C93356   9.142   7.269   2.448  0.3521 -0.2738 -0.1814
  677MOL0     H93357   9.464   6.807   2.530  0.0610 -1.6958  0.6089
  677MOL0     H93358   9.690   6.727   2.458 -1.6923 -0.6647  0.2895
  677MOL0     H93359  10.040   6.991   2.569 -3.6042  1.0593  0.6058
  677MOL0     H93360   9.971   7.025   2.411  0.3806  0.4974  0.4574
  677MOL0     H93361  10.204   6.939   2.373  1.2041 -0.8191 -0.1935
  677MOL0     H93362  10.174   6.798   2.478 -0.9503 -2.0249 -1.1434
  677MOL0     H93363   9.972   6.772   2.289  0.1722 -0.3935  0.4952
  677MOL0     H93364  10.069   6.883   2.193 -1.6290  1.9151  1.9519
  677MOL0     H93365  10.209   6.637   2.307 -1.8625 -0.3396  0.7650
  677MOL0     H93366  10.105   6.619   2.168 -0.3207  0.8002  0.0782
  677MOL0     H93367  10.351   6.803   2.186 -0.1170  1.7407 -1.1209
  677MOL0     H93368  10.228   6.801   2.068  0.5918  2.6661  2.4686
  677MOL0     H93369  10.425   6.575   2.145 -0.9825 -1.3120  0.2592
  677MOL0     H93370  10.305   6.549   2.016  0.4833 -1.5669  0.5175
  677MOL0     H93371  10.526   6.598   1.934  0.0367 -0.3643  1.2424
  677MOL0     H93372  10.519   6.771   2.001  0.8006 -0.4282 -0.8212
  677MOL0     H93373  10.339   6.661   1.774  0.1378 -0.4698  0.1379
  677MOL0     H93374  10.341   6.824   1.833  2.9410  2.8500 -1.1959
  677MOL0     H93375  10.621   6.572   1.702 -1.3144 -0.4041 -0.8199
  677MOL0     H93376  10.792   6.743   1.403  0.4561  2.3107  1.2819
  677MOL0     H93377  10.768   6.586   1.459  0.6614  1.0809 -3.4347
  677MOL0     H93378  10.988   6.692   1.508  0.0979  0.2703  0.2298
  677MOL0     H93379  10.916   6.817   1.604 -2.8366  0.6734 -1.4785
  677MOL0     H93380  10.865   6.662   1.783  0.0324  0.2527 -0.7578
  677MOL0     H93381  10.877   6.522   1.680  0.6165 -0.4212 -0.6533
  677MOL0     H93382  11.076   6.502   1.804  1.0749  1.0804  0.7959
  677MOL0     H93383  11.118   6.570   1.656  0.9771  0.3652  0.3477
  677MOL0     H93384  11.215   6.906   1.949 -0.4127 -0.5335 -3.4053
  677MOL0     H93385  11.329   6.989   2.145  1.4180  1.6736 -2.3593
  677MOL0     H93386  11.497   6.969   2.101 -1.6313  2.6519  0.7111
  677MOL0     H93387  11.437   6.871   2.233  3.0896 -0.8514 -0.5341
  677MOL0     H93388  11.887   6.484   1.909 -0.7926 -0.7255  0.0851
  677MOL0     H93389  12.121   6.485   1.970 -0.5404 -0.8085 -0.5471
  677MOL0     H93390  12.258   6.372   2.134 -2.1586  1.0141  0.1865
  677MOL0     H93391  12.342   6.510   2.060 -1.3958  0.4783 -0.4654
  677MOL0     H93392  12.510   6.537   2.209 -2.4531  1.1211 -2.2775
  677MOL0     H93393  12.421   6.441   2.340  1.0835 -0.6588  0.5214
  677MOL0     H93394  12.525   6.339   2.076  0.9814  0.2931  0.2551
  677MOL0     H93395  12.456   6.238   2.214  0.8709  0.4427  1.6167
  677MOL0     H93396  12.662   6.320   2.341  0.3625 -2.7137  0.3644
  677MOL0     H93397  12.719   6.386   2.184  2.9472 -2.0554 -0.7347
  677MOL0     H93398  12.675   6.088   2.227  3.8909 -1.8678 -0.0957
  677MOL0     H93399  12.685   6.171   2.069  1.0825  4.0379 -1.3266
  677MOL0     H93400  12.903   6.180   2.290 -2.3142  3.0458 -0.0651
  677MOL0     H93401  12.900   6.257   2.125  0.6659  0.8115  1.1160
  677MOL0     H93402  12.865   6.041   2.015  2.8471  0.8197 -1.9004
  677MOL0     H93403  12.865   5.973   2.179  1.4854  1.0713  1.6935
  677MOL0     H93404  13.127   6.026   2.180  0.9803  0.8396  0.0693
  677MOL0     H93405  13.102   6.104   2.020 -0.6736 -0.4542 -0.9955
  677MOL0     H93406  12.005   6.605   2.369  0.6250  0.6131 -0.7798
  677MOL0     H93407  11.771   6.626   2.290  0.7118  2.2300  0.3005
  677MOL0     H93408  11.451   6.474   1.978 -1.3041 -0.9958 -0.0408
  677MOL0     H93409  11.284   6.502   1.820 -3.3573 -0.3128  1.4226
  677MOL0     H93410   9.862   7.059   2.672  0.2737  0.6240 -0.7710
  677MOL0     H93411   9.620   7.132   2.733  0.3395  0.4367  0.7344
  677MOL0     H93412   9.261   7.083   2.877  0.0884 -1.6062 -0.5940
  677MOL0     H93413   9.047   7.142   2.957  2.8808 -0.0347  0.8347
  677MOL0     H93414   8.654   7.209   2.891 -0.6238  1.3992  0.1481
  677MOL0     H93415   8.682   7.281   2.723  0.6921 -2.3980 -0.7535
  677MOL0     H93416   8.795   7.011   2.802 -0.7582 -0.9491 -0.5505
  677MOL0     H93417   8.770   7.075   2.646 -1.6155  1.7899 -0.4725
  677MOL0     H93418   8.544   7.008   2.844 -1.1724  2.0475 -0.2383
  677MOL0     H93419   8.528   7.044   2.662  3.3586 -0.4229 -3.2396
  677MOL0     H93420   8.687   6.822   2.768  1.5641 -1.4484 -1.8604
  677MOL0     H93421   8.659   6.859   2.597  0.0613 -1.7999 -0.1557
  677MOL0     H93422   8.339   6.624   2.663  1.8663 -1.3242 -1.3630
  677MOL0     H93423   8.942   7.327   2.586  0.9390  0.1133 -1.3580
  677MOL0     H93424   9.226   7.336   2.428 -0.5419  0.8795 -0.1095
  677MOL0     H93425   9.135   7.183   2.380  1.3182 -1.3898  1.0640
  677MOL0     H93426   9.060   7.331   2.410  0.0665 -1.2993 -1.3132
  678MOL0     O93427   8.353   7.260   2.812  1.2075 -0.6126  0.3696
  678MOL0     C93428   8.261   7.331   2.762  0.0390 -0.1173 -0.9401
  678MOL0     O93429   8.276   7.461   2.707 -0.3752  0.1841  0.5978
  678MOL0     C93430   8.404   7.511   2.710 -0.3659 -0.8148 -0.0969
  678MOL0     C93431   8.489   7.473   2.605  0.1112  0.4614  0.2826
  678MOL0     C93432   8.620   7.512   2.603 -0.6525 -0.3380  0.2155
  678MOL0     C93433   8.668   7.600   2.704 -0.2124  1.0308 -0.5867
  678MOL0     O93434   8.795   7.642   2.685 -0.3116 -0.1010 -0.2734
  678MOL0     C93435   8.866   7.686   2.806  0.4307 -0.6524 -0.1134
  678MOL0     C93436   9.008   7.723   2.774 -0.2334  0.1963  0.2015
  678MOL0     C93437   9.083   7.608   2.720 -1.3631  0.4652 -0.0597
  678MOL0     C93438   9.219   7.667   2.678  1.0369 -0.6328 -0.0007
  678MOL0     C93439   9.303   7.563   2.609 -0.4492 -0.0232  0.4714
  678MOL0     C93440   9.448   7.613   2.581  0.2566 -0.2146  0.3692
  678MOL0     C93441   9.464   7.689   2.450 -0.6732  0.1396 -0.3388
  678MOL0     C93442   9.609   7.690   2.397  0.0425  0.5726  1.1555
  678MOL0     N93443   9.702   7.754   2.487 -0.5297  0.2456 -1.0041
  678MOL0     C93444   9.753   7.688   2.596 -0.1957 -0.0064  0.1945
  678MOL0     C93445   9.799   7.785   2.679  1.0901 -0.2372 -0.0764
  678MOL0     C93446   9.863   7.768   2.817  0.3207 -0.1712  0.7175
  678MOL0     C93447   9.974   7.872   2.841 -0.3416 -0.7196 -0.4994
  678MOL0     C93448  10.099   7.834   2.763  0.5178 -0.0432  0.1450
  678MOL0     C93449  10.166   7.712   2.823  0.3422 -0.7033  0.4113
  678MOL0     O93450  10.275   7.676   2.746 -0.7311 -0.4565 -0.1710
  678MOL0     C93451  10.398   7.695   2.802  0.0470 -0.1650  0.1577
  678MOL0     C93452  10.474   7.590   2.821  0.0010 -0.0224 -0.4316
  678MOL0     C93453  10.607   7.593   2.867  0.7877  0.1305  0.9167
  678MOL0     C93454  10.685   7.458   2.881 -0.1980  1.0542  0.2154
  678MOL0     C93455  10.658   7.714   2.912  0.1154  1.0162  0.5211
  678MOL0     C93456  10.781   7.711   2.992 -0.7007  0.6718  0.7526
  678MOL0     O93457  10.893   7.633   2.950  0.4255 -0.0950  0.4708
  678MOL0     C93458  11.015   7.647   3.004  0.8014 -0.6574  0.4923
  678MOL0     C93459  11.109   7.717   2.926 -0.2516 -0.7418 -0.5465
  678MOL0     C93460  11.243   7.726   2.964  0.0469 -1.0382 -0.4116
  678MOL0     C93461  11.278   7.664   3.085 -0.0961  0.0183  0.3996
  678MOL0     O93462  11.409   7.675   3.114 -0.0147  0.2254 -0.2742
  678MOL0     C93463  11.474   7.548   3.161  0.1947  0.2174  0.1295
  678MOL0     C93464  11.622   7.569   3.118 -0.0896 -0.1532 -0.0715
  678MOL0     C93465  11.724   7.475   3.182 -0.2442  0.8337  0.3178
  678MOL0     C93466  11.864   7.492   3.124 -0.6341 -0.2850  0.3500
  678MOL0     C93467  11.950   7.385   3.181  0.3860 -0.0368  0.2696
  678MOL0     C93468  12.042   7.430   3.291  0.2425  0.4232 -0.4927
  678MOL0     C93469  12.115   7.317   3.357  0.4057  0.8784  0.2302
  678MOL0     C93470  12.194   7.345   3.479  0.4787  0.6709  0.0692
  678MOL0    Cl93471  12.290   7.490   3.448 -0.8994 -0.1458  0.2227
  678MOL0     C93472  11.185   7.591   3.162 -0.1094 -1.1176 -0.0766
  678MOL0     C93473  11.050   7.586   3.129  0.0691  0.0943 -0.2247
  678MOL0     O93474  10.784   7.804   3.067  0.3360 -0.4783 -1.1048
  678MOL0     C93475  10.579   7.833   2.894  0.7206 -0.2298  0.0324
  678MOL0     C93476  10.446   7.823   2.842 -0.2636 -0.4353 -0.7629
  678MOL0     N93477   9.789   7.907   2.618  0.8056  0.5053 -0.1759
  678MOL0     N93478   9.722   7.892   2.509  0.5333 -0.0121 -0.1433
  678MOL0     C93479   8.576   7.645   2.807 -0.3508  0.3779 -0.3417
  678MOL0     C93480   8.451   7.593   2.812 -0.0792 -0.9076 -0.2823
  678MOL0     C93481   8.121   7.278   2.776  0.0697 -0.1106  0.2256
  678MOL0     C93482   8.022   7.380   2.807  0.0573  0.9471 -0.0474
  678MOL0     C93483   7.894   7.343   2.835  0.1988  0.2078 -0.2091
  678MOL0     C93484   7.856   7.206   2.815 -0.8111 -0.2447 -0.2697
  678MOL0     O93485   7.723   7.161   2.827 -0.3711 -0.0358 -0.6828
  678MOL0     C93486   7.608   7.244   2.810 -0.4417  0.3392 -0.4056
  678MOL0     C93487   7.483   7.159   2.803 -0.2744 -0.6407  0.3378
  678MOL0     C93488   7.426   7.108   2.935 -0.6007 -0.5302 -0.4266
  678MOL0     C93489   7.377   7.209   3.034 -0.6079 -0.1118 -1.6034
  678MOL0     C93490   7.316   7.144   3.151 -0.5915  0.2313 -0.2706
  678MOL0     C93491   7.267   7.083   3.242  0.1861  0.3575 -0.1124
  678MOL0     C93492   7.950   7.112   2.786 -0.0153 -0.3779  0.3842
  678MOL0     C93493   8.082   7.147   2.765  0.0175  0.8535  0.1648
  678MOL0     C93494   8.188   7.047   2.725 -0.3768 -1.3047 -0.4311
  678MOL0     H93495   8.444   7.407   2.530 -0.5323  0.2078  0.8775
  678MOL0     H93496   8.692   7.477   2.531 -0.7795 -2.3256  0.9811
  678MOL0     H93497   8.866   7.610   2.885 -1.1387  0.7043  1.2528
  678MOL0     H93498   8.828   7.783   2.838 -1.0464 -1.5910  1.1214
  678MOL0     H93499   9.017   7.805   2.702  0.2629 -0.3535 -0.3760
  678MOL0     H93500   9.052   7.762   2.866  2.0693  1.4953 -1.3472
  678MOL0     H93501   9.092   7.539   2.804 -0.4925  0.0487 -0.4712
  678MOL0     H93502   9.033   7.569   2.631  2.1086  0.3557 -2.1504
  678MOL0     H93503   9.197   7.750   2.610 -1.8654  1.2148  2.9026
  678MOL0     H93504   9.268   7.720   2.760  0.9034 -0.3741 -0.0837
  678MOL0     H93505   9.242   7.540   2.521 -0.3035  0.4633  0.2400
  678MOL0     H93506   9.315   7.470   2.665  0.5881  1.1497  2.2998
  678MOL0     H93507   9.482   7.680   2.661 -0.1220  1.7887 -1.0578
  678MOL0     H93508   9.520   7.531   2.573  0.2890 -0.1052 -0.6264
  678MOL0     H93509   9.435   7.791   2.477 -2.8292 -1.1999  3.0522
  678MOL0     H93510   9.391   7.645   2.382 -0.1477 -0.8219 -0.3005
  678MOL0     H93511   9.648   7.588   2.394  0.2752  0.6776  0.2195
  678MOL0     H93512   9.616   7.753   2.308  0.6303  0.1498  0.8934
  678MOL0     H93513   9.757   7.581   2.617 -1.4309  0.0677  0.8552
  678MOL0     H93514   9.908   7.668   2.810  1.2767  0.3441 -1.2037
  678MOL0     H93515   9.781   7.779   2.888  1.5903 -0.1207  2.2180
  678MOL0     H93516   9.938   7.966   2.799  0.2491  0.5142  1.6284
  678MOL0     H93517   9.999   7.888   2.946 -2.4123 -0.1372 -0.0656
  678MOL0     H93518  10.058   7.805   2.666 -0.2610  1.1919  0.0899
  678MOL0     H93519  10.170   7.916   2.751  2.3545 -1.6143 -0.3032
  678MOL0     H93520  10.200   7.734   2.924  4.2883  0.0422 -0.9034
  678MOL0     H93521  10.112   7.617   2.820  0.9562 -1.0780  0.9778
  678MOL0     H93522  10.437   7.493   2.789  3.9298 -1.0054 -2.5577
  678MOL0     H93523  10.622   7.372   2.857  0.6692  0.6550 -0.6886
  678MOL0     H93524  10.722   7.436   2.982  3.1331 -1.1747 -1.3129
  678MOL0     H93525  10.774   7.456   2.817  1.5142  0.8961  2.4415
  678MOL0     H93526  11.082   7.752   2.828 -2.6358 -0.8306  0.0325
  678MOL0     H93527  11.323   7.766   2.903  0.8013  0.4087  1.4169
  678MOL0     H93528  11.482   7.544   3.270 -0.1458  3.6665  0.3832
  678MOL0     H93529  11.432   7.462   3.108 -0.1230  1.0875 -1.0875
  678MOL0     H93530  11.622   7.565   3.009 -1.8518  2.8434 -0.2717
  678MOL0     H93531  11.660   7.670   3.133  2.8536 -1.1255 -0.2716
  678MOL0     H93532  11.690   7.372   3.167  0.8434  0.5063 -0.0423
  678MOL0     H93533  11.728   7.491   3.290  1.4423  3.3754 -0.0406
  678MOL0     H93534  11.898   7.593   3.148 -1.2887  0.3872 -1.3890
  678MOL0     H93535  11.855   7.493   3.015  0.3712 -2.6736  0.1765
  678MOL0     H93536  11.898   7.296   3.217  1.0237 -0.7618 -0.5656
  678MOL0     H93537  12.020   7.348   3.105 -1.5298 -0.0467 -1.5674
  678MOL0     H93538  11.982   7.485   3.364  0.7543  0.2684  0.0537
  678MOL0     H93539  12.109   7.505   3.249 -0.0737 -1.2564 -4.3820
  678MOL0     H93540  12.191   7.275   3.290 -0.0203 -1.2090  0.9689
  678MOL0     H93541  12.049   7.231   3.376  3.5170 -1.7648 -0.0270
  678MOL0     H93542  12.262   7.266   3.513 -0.1731  0.1010  0.0770
  678MOL0     H93543  12.124   7.363   3.561  0.3445 -0.4530  0.2199
  678MOL0     H93544  11.211   7.551   3.260 -0.5863  0.8549  0.9103
  678MOL0     H93545  10.974   7.533   3.185 -0.6857  1.3655 -0.0023
  678MOL0     H93546  10.618   7.931   2.919  2.6038 -1.2476  1.3803
  678MOL0     H93547  10.389   7.914   2.828 -1.7183 -1.4470 -1.6666
  678MOL0     H93548   8.609   7.710   2.888 -0.0288 -1.7912  1.3855
  678MOL0     H93549   8.391   7.614   2.901 -0.3345  1.7927 -1.0300
  678MOL0     H93550   8.045   7.486   2.799 -1.4735  1.1605 -2.9557
  678MOL0     H93551   7.813   7.412   2.858  1.7034  1.2222  2.5954
  678MOL0     H93552   7.603   7.313   2.895 -0.4674 -2.2388  1.8152
  678MOL0     H93553   7.621   7.301   2.717  0.3880 -0.5938 -0.8853
  678MOL0     H93554   7.510   7.074   2.739  0.0652 -0.9033  0.8242
  678MOL0     H93555   7.412   7.222   2.748  1.0596  1.2619  0.7028
  678MOL0     H93556   7.335   7.056   2.902 -1.0976  0.9211 -1.4403
  678MOL0     H93557   7.482   7.026   2.980  1.0212 -1.7243 -4.2187
  678MOL0     H93558   7.304   7.270   2.979 -1.2694  0.2897 -0.3307
  678MOL0     H93559   7.460   7.266   3.076  1.2189 -2.9081 -1.1805
  678MOL0     H93560   7.220   7.021   3.315  0.9370  0.1334  0.1974
  678MOL0     H93561   7.925   7.007   2.792  0.3124 -0.3970  1.9771
  678MOL0     H93562   8.245   7.025   2.815 -0.4545 -0.1947 -0.0951
  678MOL0     H93563   8.136   6.954   2.701 -0.2871 -1.4247 -0.1652
  678MOL0     H93564   8.252   7.087   2.646  1.3120 -1.5080  0.7782
  679MOL0     O93565   4.255   8.398   1.775  0.4178  0.3450  0.0053
  679MOL0     C93566   4.217   8.311   1.695 -0.1108 -0.0506  0.3829
  679MOL0     O93567   4.277   8.187   1.677 -0.2798  0.3212 -0.2045
  679MOL0     C93568   4.396   8.158   1.726  0.5515  0.4491 -0.3945
  679MOL0     C93569   4.415   8.128   1.864 -0.1319  0.2848  0.4902
  679MOL0     C93570   4.542   8.101   1.907 -1.1692 -0.7689 -0.6829
  679MOL0     C93571   4.655   8.098   1.821  0.0781  0.3778 -0.1188
  679MOL0     O93572   4.777   8.065   1.868  0.0486 -0.0753 -0.3992
  679MOL0     C93573   4.897   8.036   1.787  0.3023 -0.0827  0.2695
  679MOL0     C93574   4.983   7.953   1.882  0.4705 -0.0511 -0.8837
  679MOL0     C93575   5.105   7.885   1.824  0.1461 -0.3845  0.5002
  679MOL0     C93576   5.183   7.808   1.937 -0.9151 -0.0591 -0.5147
  679MOL0     C93577   5.324   7.758   1.895  0.7811  0.4088  0.0045
  679MOL0     C93578   5.325   7.627   1.812  0.2094  0.1422  0.6158
  679MOL0     C93579   5.461   7.553   1.813  0.1363  0.8107 -0.9056
  679MOL0     C93580   5.575   7.638   1.759  0.3307  0.6519  0.5226
  679MOL0     N93581   5.707   7.566   1.784 -0.1842 -0.0687  0.7895
  679MOL0     C93582   5.833   7.613   1.776 -0.3958  0.3483 -0.1371
  679MOL0     C93583   5.925   7.505   1.763 -0.2213 -0.2875  0.2828
  679MOL0     C93584   6.076   7.496   1.773  0.3503 -0.5223  0.4895
  679MOL0     C93585   6.126   7.382   1.677 -0.5071  0.2585  1.1109
  679MOL0     C93586   6.282   7.370   1.664  0.5232  0.5953 -0.2542
  679MOL0     C93587   6.371   7.495   1.643 -0.5157 -0.1339 -0.2695
  679MOL0     O93588   6.507   7.450   1.631  0.2796 -0.1630  0.2049
  679MOL0     C93589   6.601   7.535   1.577  0.2171 -0.3896 -0.3786
  679MOL0     C93590   6.579   7.621   1.467 -0.0013 -0.6934  0.5939
  679MOL0     C93591   6.679   7.696   1.402  0.3864 -0.2018  0.2504
  679MOL0     C93592   6.640   7.790   1.297  0.0328  0.1665 -0.1137
  679MOL0     C93593   6.812   7.680   1.448 -0.7278  0.2251  0.3493
  679MOL0     C93594   6.924   7.758   1.394  0.3084  0.1268 -0.5734
  679MOL0     O93595   7.030   7.684   1.348 -0.2067  0.1877 -0.2811
  679MOL0     C93596   7.147   7.750   1.318 -0.7728  0.1979  0.0585
  679MOL0     C93597   7.164   7.810   1.191 -0.7496 -0.7106  0.7608
  679MOL0     C93598   7.283   7.871   1.161  0.8340 -0.1465  0.1837
  679MOL0     C93599   7.392   7.867   1.252  0.1763  1.0950 -0.2249
  679MOL0     O93600   7.519   7.931   1.231 -0.3880 -0.4897 -0.6243
  679MOL0     C93601   7.569   7.941   1.095 -1.1397 -0.5084  0.5069
  679MOL0     C93602   7.683   8.049   1.081 -0.7615  0.4434 -0.3334
  679MOL0     C93603   7.810   8.019   1.162 -1.0179 -0.6201 -0.9503
  679MOL0     C93604   7.883   7.899   1.103 -0.6792 -0.2052  0.0832
  679MOL0     C93605   8.031   7.888   1.152 -0.5633  0.3680  0.0747
  679MOL0     C93606   8.130   7.990   1.093  0.3271 -0.4189 -0.2072
  679MOL0     C93607   8.276   7.973   1.132  0.2233  0.2073 -1.3158
  679MOL0     C93608   8.374   8.021   1.032 -0.5808  0.5845  0.0516
  679MOL0    Cl93609   8.530   8.044   1.105 -0.2326 -0.0348 -0.1188
  679MOL0     C93610   7.374   7.796   1.375 -0.0890 -0.3319  0.1586
  679MOL0     C93611   7.253   7.741   1.409 -0.5376 -0.1700 -1.4118
  679MOL0     O93612   6.920   7.880   1.394  0.8836  0.1929 -0.3729
  679MOL0     C93613   6.834   7.597   1.558  0.3718  0.1286  0.4537
  679MOL0     C93614   6.734   7.516   1.608 -0.0299  0.4368 -0.4270
  679MOL0     N93615   5.854   7.388   1.772 -0.1692  0.0740  0.6635
  679MOL0     N93616   5.729   7.428   1.773 -0.4028  0.1232 -0.1777
  679MOL0     C93617   4.635   8.123   1.685  0.2433  0.0597 -0.2030
  679MOL0     C93618   4.508   8.152   1.635 -0.0920 -0.8206 -0.0439
  679MOL0     C93619   4.095   8.352   1.613  0.6202  0.3220  0.6682
  679MOL0     C93620   4.023   8.246   1.551 -0.0153  0.0613  0.5886
  679MOL0     C93621   3.910   8.264   1.470 -0.7610 -0.1486 -0.1374
  679MOL0     C93622   3.850   8.388   1.471 -0.1904 -0.2261 -0.0853
  679MOL0     O93623   3.736   8.409   1.395  0.2634  0.3485  0.5541
  679MOL0     C93624   3.610   8.354   1.442 -0.0934 -0.6801 -0.0478
  679MOL0     C93625   3.546   8.419   1.565  0.6663  0.0640  0.0429
  679MOL0     C93626   3.402   8.379   1.572  0.0769 -0.6075 -0.3014
  679MOL0     C93627   3.354   8.406   1.712 -0.4173  0.4076  0.1127
  679MOL0     C93628   3.205   8.398   1.718 -0.0366 -0.2244 -0.3034
  679MOL0     C93629   3.078   8.412   1.715  0.6877 -0.0158 -0.6327
  679MOL0     C93630   3.919   8.492   1.536 -0.2215  0.3129  0.0306
  679MOL0     C93631   4.039   8.481   1.608  0.5363 -0.1226 -0.5803
  679MOL0     C93632   4.109   8.607   1.659  0.0857 -0.2963  0.0343
  679MOL0     H93633   4.334   8.128   1.936 -1.1567 -0.4332 -0.6282
  679MOL0     H93634   4.554   8.083   2.013 -2.7346  1.8198  0.0152
  679MOL0     H93635   4.952   8.121   1.747 -2.3291  1.7962  0.3891
  679MOL0     H93636   4.862   7.977   1.702 -2.3464  1.0158  0.5330
  679MOL0     H93637   5.022   8.017   1.963  0.3220 -1.4159  0.3040
  679MOL0     H93638   4.914   7.883   1.929 -0.9328  2.6564  1.4386
  679MOL0     H93639   5.077   7.817   1.743 -2.6194  0.8528  0.2919
  679MOL0     H93640   5.175   7.958   1.781 -0.1098 -0.4432 -0.0265
  679MOL0     H93641   5.192   7.884   2.016 -1.9422 -0.1214 -0.3245
  679MOL0     H93642   5.126   7.726   1.981 -1.4666  1.7350  2.4452
  679MOL0     H93643   5.382   7.749   1.987  0.6521 -4.4147 -0.1317
  679MOL0     H93644   5.379   7.832   1.834  0.3573 -0.3747 -1.3625
  679MOL0     H93645   5.260   7.548   1.849 -0.3507 -0.3958 -1.3601
  679MOL0     H93646   5.290   7.632   1.708  2.0948  0.5566 -0.0623
  679MOL0     H93647   5.455   7.462   1.753 -1.0788  2.6059 -3.7334
  679MOL0     H93648   5.491   7.529   1.915 -1.3895  0.5300 -0.4929
  679MOL0     H93649   5.550   7.650   1.653  0.1095  0.1403  0.5125
  679MOL0     H93650   5.583   7.736   1.807  0.9644  1.8806 -1.8978
  679MOL0     H93651   5.861   7.718   1.774 -2.4112  0.9246 -0.1550
  679MOL0     H93652   6.107   7.474   1.875 -1.6786  0.2829  1.3349
  679MOL0     H93653   6.122   7.593   1.749 -1.8131  1.0733  2.3944
  679MOL0     H93654   6.086   7.284   1.705  1.8733 -1.0155  0.3605
  679MOL0     H93655   6.079   7.407   1.582  1.1690 -0.9712 -0.0937
  679MOL0     H93656   6.306   7.316   1.755  1.1985 -1.6586 -1.6881
  679MOL0     H93657   6.309   7.289   1.595 -1.5205  0.1767 -0.6220
  679MOL0     H93658   6.336   7.542   1.551 -0.3271  0.6994  0.0809
  679MOL0     H93659   6.367   7.560   1.731 -0.4950  0.6693 -0.8604
  679MOL0     H93660   6.477   7.638   1.435  0.4381  1.7582  0.2674
  679MOL0     H93661   6.708   7.793   1.211 -0.1116  2.2322 -0.1928
  679MOL0     H93662   6.622   7.893   1.328  1.9416 -0.1833  2.4558
  679MOL0     H93663   6.544   7.758   1.254  0.4189 -1.9769  0.4983
  679MOL0     H93664   7.086   7.812   1.116  2.0083  2.1643 -2.3413
  679MOL0     H93665   7.274   7.919   1.065 -1.3155  2.3020  1.4785
  679MOL0     H93666   7.611   7.846   1.059  1.1134  1.1300 -1.5333
  679MOL0     H93667   7.491   7.987   1.034  0.9222  1.6764 -0.6820
  679MOL0     H93668   7.716   8.070   0.979  2.4654  0.5849  0.6560
  679MOL0     H93669   7.644   8.146   1.115 -1.3977  0.7232 -1.7816
  679MOL0     H93670   7.795   7.993   1.267  1.0695 -0.1762 -0.4974
  679MOL0     H93671   7.862   8.115   1.167 -0.3806 -1.0275  1.1904
  679MOL0     H93672   7.882   7.904   0.994 -1.5757  2.6133  0.1418
  679MOL0     H93673   7.835   7.804   1.128  1.5461 -1.8007 -1.3083
  679MOL0     H93674   8.018   7.892   1.260 -2.1886 -3.5377  0.2114
  679MOL0     H93675   8.073   7.788   1.138 -0.9489  0.3005 -0.7102
  679MOL0     H93676   8.090   8.087   1.123  1.2855 -0.8425  2.6762
  679MOL0     H93677   8.125   7.983   0.983  0.0033  1.3510 -0.3350
  679MOL0     H93678   8.311   7.874   1.162 -2.6545  0.4546  4.1481
  679MOL0     H93679   8.277   8.027   1.228 -1.4910 -3.0170  0.7093
  679MOL0     H93680   8.344   8.116   0.987 -0.7810  0.1072 -0.8554
  679MOL0     H93681   8.379   7.943   0.955 -1.0694 -0.0319  0.6348
  679MOL0     H93682   7.443   7.791   1.459  0.4112 -0.9258 -0.2760
  679MOL0     H93683   7.252   7.699   1.509  5.1967  0.5874 -0.7074
  679MOL0     H93684   6.936   7.577   1.591  0.2981 -1.4173 -0.1629
  679MOL0     H93685   6.762   7.446   1.686 -0.0420  0.7232 -0.1626
  679MOL0     H93686   4.710   8.122   1.606  0.5396  1.1629  0.0447
  679MOL0     H93687   4.491   8.168   1.529 -1.4430  1.6573  0.4605
  679MOL0     H93688   4.066   8.147   1.546 -0.0574  0.1201 -1.7103
  679MOL0     H93689   3.862   8.183   1.416  0.3818 -2.2323  1.7979
  679MOL0     H93690   3.541   8.353   1.357  0.6529 -1.7675 -0.6664
  679MOL0     H93691   3.623   8.247   1.464 -3.0045 -1.1843 -0.3283
  679MOL0     H93692   3.561   8.527   1.556 -0.9554  0.2022 -1.7188
  679MOL0     H93693   3.598   8.389   1.656  1.2028 -2.3011 -0.9482
  679MOL0     H93694   3.336   8.437   1.506 -1.0858  0.8292  1.9665
  679MOL0     H93695   3.393   8.272   1.553 -1.3418 -0.1165 -2.8259
  679MOL0     H93696   3.381   8.506   1.749  1.5656  0.5689 -1.5883
  679MOL0     H93697   3.391   8.322   1.771  3.6536  1.2392 -0.9804
  679MOL0     H93698   2.972   8.429   1.719  0.7821  0.3021  1.0430
  679MOL0     H93699   3.872   8.590   1.530 -0.3311  0.2739  0.2458
  679MOL0     H93700   4.051   8.695   1.628 -1.6083 -1.5770 -0.5878
  679MOL0     H93701   4.116   8.612   1.768 -2.0235  2.7992  0.1588
  679MOL0     H93702   4.211   8.607   1.619  0.0179 -1.5998 -0.1758
  680MOL0     O93703   4.406   4.629   7.726  0.0810 -0.2985 -0.4694
  680MOL0     C93704   4.345   4.737   7.710  0.9319 -0.5186  0.1509
  680MOL0     O93705   4.400   4.867   7.716  0.0798 -0.6329  0.0451
  680MOL0     C93706   4.538   4.863   7.748  0.0440 -0.1247 -0.5034
  680MOL0     C93707   4.583   4.835   7.877 -0.0302 -0.1028  0.1262
  680MOL0     C93708   4.717   4.852   7.910 -0.4879 -0.0947  0.4935
  680MOL0     C93709   4.808   4.894   7.816 -0.5096 -0.3223  0.7503
  680MOL0     O93710   4.937   4.906   7.862 -0.2078  0.8679 -0.7335
  680MOL0     C93711   5.028   4.999   7.797 -0.1781 -0.0610  0.2237
  680MOL0     C93712   5.162   5.006   7.863 -0.2251 -0.2889  0.3192
  680MOL0     C93713   5.234   4.879   7.827  0.0668  0.7672 -0.2890
  680MOL0     C93714   5.366   4.860   7.911  0.2546 -0.1595  0.0223
  680MOL0     C93715   5.487   4.960   7.882 -0.0463 -0.0090  0.1579
  680MOL0     C93716   5.624   4.920   7.939  0.5747  0.3219 -0.0692
  680MOL0     C93717   5.736   5.008   7.872 -0.0860  0.5300  0.5257
  680MOL0     C93718   5.870   4.998   7.954 -0.5358  0.3026 -0.9826
  680MOL0     N93719   5.971   5.089   7.893  0.4130  0.8285 -0.3813
  680MOL0     C93720   5.981   5.221   7.900  0.3432 -0.1382  0.2552
  680MOL0     C93721   6.088   5.253   7.829 -0.6855 -0.7944 -1.0944
  680MOL0     C93722   6.150   5.395   7.820 -0.5586  0.5777 -0.1495
  680MOL0     C93723   6.305   5.392   7.818 -0.2502 -0.0113 -0.0559
  680MOL0     C93724   6.344   5.539   7.802  0.1664  0.0985 -0.0902
  680MOL0     C93725   6.491   5.565   7.797  0.8732  0.2242 -0.3565
  680MOL0     O93726   6.517   5.522   7.933 -0.1577 -0.1677 -0.3063
  680MOL0     C93727   6.648   5.494   7.972  0.6284 -0.6284 -0.7107
  680MOL0     C93728   6.671   5.410   8.081  1.6969  0.3495  0.6590
  680MOL0     C93729   6.800   5.378   8.123  0.2545  1.6427  0.8645
  680MOL0     C93730   6.816   5.261   8.223  0.3502  0.6357 -0.2300
  680MOL0     C93731   6.910   5.435   8.058 -0.3543 -0.8012  0.3607
  680MOL0     C93732   7.055   5.408   8.082  0.5315  0.2658  0.3833
  680MOL0     O93733   7.147   5.504   8.046  0.3511  0.3928  0.3896
  680MOL0     C93734   7.268   5.512   8.106 -1.0434  0.6410  0.6759
  680MOL0     C93735   7.296   5.498   8.247 -0.5927 -0.0900  0.8418
  680MOL0     C93736   7.422   5.524   8.285 -0.4260 -0.1469 -0.0593
  680MOL0     C93737   7.532   5.543   8.197  0.7668 -0.1289 -0.8686
  680MOL0     O93738   7.652   5.559   8.253 -0.3476  0.3050 -0.2926
  680MOL0     C93739   7.741   5.641   8.182  0.3577  0.2578 -0.3698
  680MOL0     C93740   7.856   5.661   8.283  0.0176  0.5544  0.1076
  680MOL0     C93741   7.974   5.723   8.213 -0.1068  0.3687 -0.5320
  680MOL0     C93742   8.084   5.736   8.311  0.0861 -0.6814 -0.2779
  680MOL0     C93743   8.197   5.830   8.263 -0.0241 -0.6362 -0.3169
  680MOL0     C93744   8.300   5.861   8.377 -0.0028 -0.0944 -0.5719
  680MOL0     C93745   8.393   5.742   8.397 -0.0523  0.6314  0.4697
  680MOL0     C93746   8.465   5.752   8.533 -0.4545 -0.6510  0.8296
  680MOL0    Cl93747   8.574   5.899   8.548 -0.0909  0.5155  0.3029
  680MOL0     C93748   7.502   5.543   8.060 -0.1562  0.2920  0.0864
  680MOL0     C93749   7.371   5.539   8.014  0.0752 -0.1499  0.5880
  680MOL0     O93750   7.082   5.306   8.148 -0.6709 -0.2935  0.3093
  680MOL0     C93751   6.883   5.531   7.958 -0.3960 -0.4911 -0.9822
  680MOL0     C93752   6.759   5.550   7.905 -0.0043  0.8881  0.8055
  680MOL0     N93753   6.137   5.135   7.770  0.6821 -0.4288  0.2091
  680MOL0     N93754   6.073   5.042   7.820  0.3675  0.8898 -0.4161
  680MOL0     C93755   4.775   4.895   7.677  1.2468  0.0038  0.2310
  680MOL0     C93756   4.632   4.895   7.652  1.1307  0.3566  0.0219
  680MOL0     C93757   4.198   4.718   7.677  0.0488 -0.3437  0.4743
  680MOL0     C93758   4.144   4.595   7.685 -0.1192  0.1513 -0.4491
  680MOL0     C93759   4.008   4.576   7.671 -0.1914 -0.6767 -0.9697
  680MOL0     C93760   3.930   4.681   7.627  0.5790  0.6319  0.1280
  680MOL0     O93761   3.795   4.673   7.618  0.1397  0.4290  1.2072
  680MOL0     C93762   3.749   4.551   7.544 -0.0511 -0.6906 -1.0419
  680MOL0     C93763   3.593   4.569   7.517  0.2928  0.3075 -0.4104
  680MOL0     C93764   3.516   4.525   7.642 -0.1133 -0.8791 -0.1548
  680MOL0     C93765   3.490   4.635   7.752  0.1075 -0.3844 -0.5675
  680MOL0     C93766   3.424   4.762   7.707 -0.7917 -0.6460 -0.2313
  680MOL0     C93767   3.373   4.874   7.676  0.1922  0.3228  0.7512
  680MOL0     C93768   3.975   4.810   7.616 -0.3043 -0.6286  0.5727
  680MOL0     C93769   4.116   4.824   7.637  1.2399  0.7420  0.8742
  680MOL0     C93770   4.158   4.971   7.622  0.4577 -0.1343  0.7182
  680MOL0     H93771   4.504   4.816   7.949 -0.9416  0.0656 -0.8027
  680MOL0     H93772   4.755   4.828   8.009 -1.3462 -1.0542  0.6129
  680MOL0     H93773   4.974   5.094   7.801 -1.7571 -0.9365  0.1135
  680MOL0     H93774   5.045   4.973   7.692 -0.5585 -0.3914  0.2417
  680MOL0     H93775   5.213   5.092   7.817 -3.3391  2.3157  1.3800
  680MOL0     H93776   5.163   5.033   7.969  1.2570 -1.7756  0.7314
  680MOL0     H93777   5.172   4.789   7.837 -0.6128  0.9983 -1.9768
  680MOL0     H93778   5.263   4.887   7.722  0.8284 -0.2391 -0.1742
  680MOL0     H93779   5.334   4.867   8.015 -1.8917  0.8527 -0.6389
  680MOL0     H93780   5.409   4.760   7.899  3.7604  0.9935  1.8667
  680MOL0     H93781   5.475   5.064   7.913  1.1654  1.2778 -3.1836
  680MOL0     H93782   5.495   4.959   7.773  0.9145  1.4913  0.1847
  680MOL0     H93783   5.623   4.935   8.047 -1.0282  1.1309 -0.1704
  680MOL0     H93784   5.645   4.814   7.921 -0.5258  0.1160 -0.2272
  680MOL0     H93785   5.703   5.112   7.873 -1.8056  0.0251  2.2373
  680MOL0     H93786   5.755   4.961   7.775 -0.4307 -0.3956  0.8912
  680MOL0     H93787   5.858   5.035   8.056 -1.1296 -2.5818  0.0760
  680MOL0     H93788   5.908   4.896   7.958 -0.1309  0.4084 -1.8779
  680MOL0     H93789   5.907   5.283   7.949 -1.6778 -0.9817 -1.5929
  680MOL0     H93790   6.108   5.452   7.904 -3.8668 -2.4946  0.5205
  680MOL0     H93791   6.109   5.438   7.728 -1.4254  0.5074  0.1921
  680MOL0     H93792   6.328   5.344   7.914 -0.2571  1.2468  0.5970
  680MOL0     H93793   6.346   5.334   7.735  1.5022 -1.7765  1.9307
  680MOL0     H93794   6.309   5.577   7.706 -0.5669  1.4482  0.6763
  680MOL0     H93795   6.290   5.603   7.872 -2.2750 -2.2470  0.3373
  680MOL0     H93796   6.538   5.500   7.722  0.6203 -0.3601 -0.0205
  680MOL0     H93797   6.503   5.673   7.784  0.8917  0.1571 -0.9037
  680MOL0     H93798   6.589   5.364   8.135  0.8917  0.1602 -0.6895
  680MOL0     H93799   6.730   5.230   8.283  0.7042  2.6774  1.4381
  680MOL0     H93800   6.895   5.291   8.293 -0.7233  3.0531  0.0330
  680MOL0     H93801   6.852   5.176   8.164 -1.5600  0.7566 -1.6731
  680MOL0     H93802   7.224   5.492   8.328 -0.1831 -0.1398  1.2069
  680MOL0     H93803   7.455   5.526   8.388 -1.1148  0.4624  0.1582
  680MOL0     H93804   7.785   5.597   8.092  0.3512  3.5861 -2.2003
  680MOL0     H93805   7.698   5.734   8.142  0.4695 -1.3526 -4.8641
  680MOL0     H93806   7.824   5.728   8.364  1.4926  0.6353  0.6535
  680MOL0     H93807   7.875   5.567   8.336  2.4014  1.5044  1.0819
  680MOL0     H93808   7.942   5.820   8.173  2.9856  0.8254 -2.2280
  680MOL0     H93809   8.002   5.668   8.123  1.9548  2.5642 -1.3403
  680MOL0     H93810   8.130   5.637   8.321  2.3612  0.3604  0.1505
  680MOL0     H93811   8.042   5.777   8.403 -0.8293 -0.6435 -0.7040
  680MOL0     H93812   8.245   5.782   8.177 -0.0033 -0.8643 -0.1818
  680MOL0     H93813   8.156   5.924   8.227  2.1230  1.2197  1.7740
  680MOL0     H93814   8.249   5.885   8.471 -1.1487  0.2885 -1.2685
  680MOL0     H93815   8.361   5.935   8.324 -1.9071 -0.5848 -3.7126
  680MOL0     H93816   8.472   5.742   8.321  0.1594  1.3982  0.6798
  680MOL0     H93817   8.335   5.649   8.389 -0.8077  1.0550  0.9528
  680MOL0     H93818   8.535   5.670   8.546 -0.7644 -1.2772 -1.1425
  680MOL0     H93819   8.397   5.754   8.619 -0.9275 -5.0208  0.7926
  680MOL0     H93820   7.579   5.565   7.987 -0.0875 -2.1422 -0.6752
  680MOL0     H93821   7.353   5.556   7.908 -1.6960  2.4368  1.1985
  680MOL0     H93822   6.972   5.567   7.909 -0.1006 -0.4014 -0.3856
  680MOL0     H93823   6.764   5.614   7.817  1.1958 -2.0044 -1.4166
  680MOL0     H93824   4.845   4.913   7.597 -0.2689  4.4488 -0.3450
  680MOL0     H93825   4.591   4.898   7.551 -0.2839 -2.4948  0.4204
  680MOL0     H93826   4.201   4.504   7.701 -1.3627 -0.6511 -0.5212
  680MOL0     H93827   3.962   4.481   7.695  2.9904 -1.7104  1.7082
  680MOL0     H93828   3.808   4.548   7.452 -0.3705  0.5113 -1.3056
  680MOL0     H93829   3.770   4.458   7.598  2.0939 -0.2577 -1.0466
  680MOL0     H93830   3.560   4.503   7.436  1.9980  0.4264 -1.2353
  680MOL0     H93831   3.574   4.676   7.502 -1.2583  0.0752 -0.2481
  680MOL0     H93832   3.417   4.494   7.609  0.0023 -1.7199  0.2635
  680MOL0     H93833   3.573   4.443   7.687 -1.8044 -1.6700  0.6141
  680MOL0     H93834   3.581   4.660   7.806  0.1320 -0.6095 -0.5037
  680MOL0     H93835   3.416   4.590   7.818  2.1262 -1.6261  0.9512
  680MOL0     H93836   3.333   4.973   7.679  2.4261  1.3194 -0.1642
  680MOL0     H93837   3.914   4.893   7.585 -0.6764 -1.0606  0.1357
  680MOL0     H93838   4.071   5.034   7.600  0.7377  0.6939  1.8900
  680MOL0     H93839   4.199   5.015   7.713 -0.7740  3.1211 -0.1889
  680MOL0     H93840   4.234   4.998   7.549  0.9348 -1.6647  0.6152
  681MOL0     O93841   9.492   0.567   2.787 -0.8108 -0.4113  0.0606
  681MOL0     C93842   9.452   0.684   2.790 -0.0188 -0.9754 -0.1483
  681MOL0     O93843   9.525   0.801   2.745  0.3863  0.0551  0.2682
  681MOL0     C93844   9.642   0.784   2.688 -0.4490  1.0592 -0.1687
  681MOL0     C93845   9.673   0.814   2.565  0.2369 -0.2123 -0.2554
  681MOL0     C93846   9.806   0.803   2.515  0.4788  0.4243  1.0413
  681MOL0     C93847   9.906   0.759   2.598 -0.3765  0.1849 -0.1598
  681MOL0     O93848  10.024   0.737   2.535  0.0572  0.3303 -0.0286
  681MOL0     C93849  10.143   0.794   2.609  0.2356  1.1771  0.2074
  681MOL0     C93850  10.276   0.804   2.530  0.4282  0.3464 -0.5418
  681MOL0     C93851  10.335   0.663   2.503  0.1006  0.2172  0.3526
  681MOL0     C93852  10.459   0.702   2.420 -0.4148  0.1883  0.4924
  681MOL0     C93853  10.539   0.563   2.389  0.2063  0.0424 -0.4903
  681MOL0     C93854  10.667   0.588   2.322  0.3470 -0.1919 -0.2290
  681MOL0     C93855  10.764   0.476   2.317  0.0410 -0.1042 -0.2515
  681MOL0     C93856  10.692   0.364   2.239 -0.7648  0.0023  0.3395
  681MOL0     N93857  10.785   0.258   2.199  0.0953  1.0583 -0.0535
  681MOL0     C93858  10.844   0.237   2.077  1.2803  0.2007 -0.6999
  681MOL0     C93859  10.874   0.108   2.076 -0.8723  0.1380  0.3275
  681MOL0     C93860  10.940   0.020   1.962  0.0431  0.2357  0.7480
  681MOL0     C93861  11.092   0.049   1.977  0.3405  1.1043 -0.0735
  681MOL0     C93862  11.173  -0.022   1.865 -0.0350  0.1320  0.2919
  681MOL0     C93863  11.320   0.009   1.863 -0.3769  0.5145  0.1385
  681MOL0     O93864  11.377  -0.010   1.989 -0.3688 -0.0908 -0.3821
  681MOL0     C93865  11.502   0.044   2.005 -1.1035 -0.3799 -0.2184
  681MOL0     C93866  11.545   0.054   2.142  0.5173  0.4885 -0.3769
  681MOL0     C93867  11.675   0.100   2.175 -0.2808 -0.4690  0.6647
  681MOL0     C93868  11.701   0.101   2.317 -0.1824 -0.0601  0.1139
  681MOL0     C93869  11.765   0.138   2.075 -0.2736  0.0741 -0.1355
  681MOL0     C93870  11.907   0.170   2.104  0.1066  0.2305 -0.0921
  681MOL0     O93871  11.968   0.265   2.025 -0.4302  0.3202 -0.8396
  681MOL0     C93872  12.101   0.296   2.049  0.0821 -0.2954 -0.2071
  681MOL0     C93873  12.202   0.231   1.979 -0.3669  0.0771  0.1192
  681MOL0     C93874  12.332   0.281   2.013  0.0176 -0.8344 -0.4910
  681MOL0     C93875  12.363   0.390   2.095  0.3099  0.1553  0.6492
  681MOL0     O93876  12.494   0.425   2.115  0.6517 -0.0009 -0.8197
  681MOL0     C93877  12.529   0.555   2.145  0.8116 -1.2437 -0.2111
  681MOL0     C93878  12.676   0.559   2.107  0.7280 -0.9010 -0.1295
  681MOL0     C93879  12.754   0.502   2.216  0.1711 -0.1703 -0.7859
  681MOL0     C93880  12.900   0.502   2.165 -0.3852  0.6753  0.3062
  681MOL0     C93881  13.005   0.477   2.283 -0.5206  0.1904 -0.8600
  681MOL0     C93882  13.155   0.480   2.221  0.8759 -0.5882  0.0656
  681MOL0     C93883  13.201   0.353   2.160 -0.6541  1.2170  0.2084
  681MOL0     C93884  13.340   0.359   2.103  0.0713  0.6477  0.5290
  681MOL0    Cl93885  13.372   0.210   2.018  0.2168 -0.0376  0.1150
  681MOL0     C93886  12.254   0.453   2.159 -0.6751 -0.5868 -1.4459
  681MOL0     C93887  12.126   0.411   2.131 -0.6196 -0.1466 -0.1157
  681MOL0     O93888  11.965   0.096   2.183  0.4098 -0.2901 -0.2287
  681MOL0     C93889  11.712   0.134   1.939 -1.3383  0.0642  0.5030
  681MOL0     C93890  11.581   0.104   1.906 -1.2049  0.3398 -0.9180
  681MOL0     N93891  10.842   0.046   2.200 -0.7137 -0.0108  0.2991
  681MOL0     N93892  10.788   0.135   2.261 -0.1628 -0.1452 -0.5421
  681MOL0     C93893   9.880   0.727   2.727  0.9643  0.7645 -0.3593
  681MOL0     C93894   9.746   0.742   2.772  0.1226 -0.1310 -0.5030
  681MOL0     C93895   9.335   0.730   2.870 -0.1658  0.9490 -0.4633
  681MOL0     C93896   9.359   0.807   2.982  0.0421  0.4283  0.0116
  681MOL0     C93897   9.245   0.861   3.046  0.2834 -0.5450  0.6700
  681MOL0     C93898   9.122   0.847   2.993  0.3468  0.1563  0.7422
  681MOL0     O93899   9.003   0.890   3.054 -0.0748 -0.0696  0.2120
  681MOL0     C93900   9.010   0.981   3.168  0.0446 -0.5122  0.2038
  681MOL0     C93901   8.874   1.039   3.205 -0.0044  0.1887 -0.3154
  681MOL0     C93902   8.755   0.944   3.221  0.0086  0.5053 -0.3295
  681MOL0     C93903   8.624   1.023   3.228  0.0620  0.1886  0.5479
  681MOL0     C93904   8.513   0.931   3.280  0.1080 -0.8022  0.2598
  681MOL0     C93905   8.422   0.863   3.321  0.1581  0.1326 -0.5374
  681MOL0     C93906   9.099   0.777   2.874  0.1563 -0.2131  0.1478
  681MOL0     C93907   9.207   0.724   2.812  0.3884  0.0115 -0.3030
  681MOL0     C93908   9.183   0.660   2.682  0.3865  0.7551 -0.6711
  681MOL0     H93909   9.598   0.856   2.498  0.9443  0.4905 -0.6164
  681MOL0     H93910   9.810   0.829   2.410 -2.3060 -1.2475  0.4249
  681MOL0     H93911  10.149   0.740   2.704 -4.5792 -1.9239 -0.9132
  681MOL0     H93912  10.120   0.896   2.640 -1.7606  1.4321 -1.8544
  681MOL0     H93913  10.251   0.855   2.436 -3.0483  1.2327  0.7144
  681MOL0     H93914  10.347   0.866   2.588 -2.1060  0.7103  2.4431
  681MOL0     H93915  10.361   0.610   2.596  2.8249  2.8646  1.2345
  681MOL0     H93916  10.267   0.607   2.438 -1.0064 -0.7006  2.1887
  681MOL0     H93917  10.432   0.765   2.334  0.4408 -2.8272 -2.1752
  681MOL0     H93918  10.531   0.766   2.471 -0.3325  2.9981 -2.8197
  681MOL0     H93919  10.462   0.503   2.340 -0.2060  0.1531  0.0043
  681MOL0     H93920  10.560   0.519   2.487  1.7151  2.4529  0.3648
  681MOL0     H93921  10.643   0.637   2.227 -1.1537 -1.1102 -0.3687
  681MOL0     H93922  10.719   0.655   2.390  0.3332 -2.0962  1.7717
  681MOL0     H93923  10.799   0.444   2.417 -0.4358  1.8191  0.5653
  681MOL0     H93924  10.855   0.508   2.267  1.3972 -0.9374  1.5377
  681MOL0     H93925  10.619   0.328   2.311 -0.6622 -1.4162 -0.2403
  681MOL0     H93926  10.641   0.404   2.150  1.0632  2.6901  0.3747
  681MOL0     H93927  10.865   0.314   2.003  2.9853 -0.0475 -0.5248
  681MOL0     H93928  10.909   0.038   1.859  1.6564 -1.4990 -0.1028
  681MOL0     H93929  10.935  -0.087   1.982  1.7871  0.1615  0.9593
  681MOL0     H93930  11.102   0.157   1.963  2.8174  1.2258  1.9004
  681MOL0     H93931  11.127   0.006   2.071  2.6768 -0.5476 -1.5642
  681MOL0     H93932  11.159  -0.130   1.869 -5.6225  0.4613 -2.0427
  681MOL0     H93933  11.139   0.009   1.766 -1.0995 -1.1717  0.2305
  681MOL0     H93934  11.362  -0.063   1.793 -1.1028  1.2569 -1.1014
  681MOL0     H93935  11.338   0.110   1.825  0.1308  0.7684  1.0376
  681MOL0     H93936  11.471   0.025   2.217  0.6087  0.1502 -0.4200
  681MOL0     H93937  11.761   0.189   2.345 -1.2693  0.5948  0.4701
  681MOL0     H93938  11.748   0.006   2.344 -0.3566 -0.3458 -0.5815
  681MOL0     H93939  11.607   0.110   2.372  0.4023 -1.5409  1.4211
  681MOL0     H93940  12.210   0.145   1.913  1.5688  0.8980 -0.8286
  681MOL0     H93941  12.420   0.232   1.973 -0.0003  0.7909 -2.7099
  681MOL0     H93942  12.479   0.625   2.077  1.1095 -1.0983 -0.2824
  681MOL0     H93943  12.522   0.588   2.249  1.7384  1.1854 -0.8583
  681MOL0     H93944  12.695   0.516   2.008  0.8942  0.0367 -0.5209
  681MOL0     H93945  12.702   0.665   2.094 -0.9270 -0.2113  1.6602
  681MOL0     H93946  12.742   0.396   2.242 -0.7709  0.2259  0.4795
  681MOL0     H93947  12.751   0.564   2.306  0.9938 -1.5868  0.2525
  681MOL0     H93948  12.927   0.598   2.120 -0.5112  0.4438 -0.2749
  681MOL0     H93949  12.901   0.432   2.081 -0.4319  1.1109 -0.0626
  681MOL0     H93950  12.999   0.558   2.355 -1.7331 -1.2866  0.7924
  681MOL0     H93951  12.974   0.381   2.326 -2.3762  1.6066  1.1247
  681MOL0     H93952  13.224   0.507   2.301  0.6507 -1.0094  0.4024
  681MOL0     H93953  13.155   0.560   2.146 -4.4516 -0.2796  0.0374
  681MOL0     H93954  13.127   0.316   2.088 -1.5694  0.3227  1.5664
  681MOL0     H93955  13.203   0.275   2.236 -1.6487  0.2949 -0.6833
  681MOL0     H93956  13.413   0.382   2.181 -0.5900  2.0177  0.7743
  681MOL0     H93957  13.341   0.430   2.019 -1.9273 -0.8890 -0.9168
  681MOL0     H93958  12.276   0.539   2.221  1.2618 -2.6820  0.9888
  681MOL0     H93959  12.038   0.454   2.178 -1.3379 -0.6628 -0.9609
  681MOL0     H93960  11.784   0.166   1.865 -1.2063  0.9051  0.9741
  681MOL0     H93961  11.551   0.107   1.802  0.4618  3.5685 -1.4457
  681MOL0     H93962   9.962   0.704   2.795  0.0289  0.2961  0.6496
  681MOL0     H93963   9.729   0.736   2.879  2.4191 -0.7493 -0.1055
  681MOL0     H93964   9.459   0.806   3.024  1.0895 -0.2252 -2.3434
  681MOL0     H93965   9.255   0.911   3.141 -2.0401  3.2643 -0.8482
  681MOL0     H93966   9.057   0.925   3.250  0.7265 -1.1827 -0.6284
  681MOL0     H93967   9.079   1.065   3.151  0.9915 -1.1854  0.5977
  681MOL0     H93968   8.852   1.111   3.126 -0.7380  1.2053  0.7893
  681MOL0     H93969   8.893   1.097   3.296 -1.8688 -1.4633  1.2278
  681MOL0     H93970   8.738   0.885   3.130  0.3317 -2.4823  1.4117
  681MOL0     H93971   8.768   0.869   3.299 -0.5368  0.5777 -0.1665
  681MOL0     H93972   8.595   1.060   3.129  3.4377 -0.2731 -0.7308
  681MOL0     H93973   8.648   1.110   3.291 -1.9234  1.6866 -0.6118
  681MOL0     H93974   8.346   0.800   3.362  1.5285 -1.0390  0.3013
  681MOL0     H93975   9.001   0.779   2.828  1.1354  3.9305 -2.2515
  681MOL0     H93976   9.083   0.687   2.647  0.4741  1.0048 -0.7307
  681MOL0     H93977   9.255   0.691   2.605  4.5777 -4.4683  0.5098
  681MOL0     H93978   9.183   0.550   2.686 -1.6280  0.6733 -1.7149
  682MOL0     O93979   4.258   8.636   4.219 -0.8554  0.4223  0.0804
  682MOL0     C93980   4.199   8.600   4.322 -0.3167  0.0270  0.2025
  682MOL0     O93981   4.257   8.516   4.410 -0.0988 -0.7110  0.0801
  682MOL0     C93982   4.390   8.489   4.399 -0.4536 -0.8202  0.2666
  682MOL0     C93983   4.477   8.511   4.510  0.2245  0.2896  0.5107
  682MOL0     C93984   4.615   8.491   4.498  0.2619 -0.2505 -0.1079
  682MOL0     C93985   4.668   8.448   4.375  0.6544 -0.0092 -0.3040
  682MOL0     O93986   4.803   8.440   4.377  0.2521 -0.0602 -0.1031
  682MOL0     C93987   4.874   8.462   4.257 -0.1971 -0.0662 -0.1314
  682MOL0     C93988   5.022   8.448   4.285 -0.1976  0.0793 -0.6905
  682MOL0     C93989   5.110   8.521   4.183  0.7855 -0.3178  0.2866
  682MOL0     C93990   5.244   8.553   4.232 -0.4032 -0.3729 -0.1460
  682MOL0     C93991   5.332   8.610   4.119  0.2994  0.9043 -0.0206
  682MOL0     C93992   5.482   8.597   4.147 -0.2141 -0.5791 -0.0650
  682MOL0     C93993   5.555   8.671   4.040  0.4494  1.0650 -0.3078
  682MOL0     C93994   5.695   8.703   4.092 -0.1502 -0.7909 -0.3792
  682MOL0     N93995   5.756   8.806   4.010 -0.2831 -0.4455  1.0018
  682MOL0     C93996   5.809   8.787   3.877 -0.1576 -0.3456 -0.6365
  682MOL0     C93997   5.891   8.900   3.862  0.3617  0.0396  0.7526
  682MOL0     C93998   5.968   8.920   3.733  0.3148 -0.5968  0.7489
  682MOL0     C93999   5.912   9.005   3.618 -0.4301  0.6560 -0.1046
  682MOL0     C94000   5.946   9.155   3.633  0.5901  0.1961  0.6155
  682MOL0     C94001   6.089   9.199   3.607 -0.4224  0.8272 -0.0370
  682MOL0     O94002   6.142   9.166   3.475  0.0622  0.5653  0.2975
  682MOL0     C94003   6.273   9.197   3.447  0.0074  0.1155 -0.1946
  682MOL0     C94004   6.350   9.277   3.534  0.5436  0.0429 -0.2023
  682MOL0     C94005   6.488   9.288   3.510 -0.7563 -0.5951 -0.5107
  682MOL0     C94006   6.560   9.363   3.619 -0.5977 -0.6462 -0.5817
  682MOL0     C94007   6.554   9.249   3.388 -0.4625 -0.1162 -0.1565
  682MOL0     C94008   6.702   9.260   3.357  1.2133  0.0395 -0.2725
  682MOL0     O94009   6.737   9.190   3.249 -1.1206  0.1674 -0.2368
  682MOL0     C94010   6.875   9.196   3.212  0.3457 -0.0828 -0.3571
  682MOL0     C94011   6.957   9.086   3.200 -0.1339  0.0465 -0.3157
  682MOL0     C94012   7.098   9.099   3.171  0.4457  0.1107  0.6867
  682MOL0     C94013   7.154   9.225   3.140  0.2630  0.1817  0.7901
  682MOL0     O94014   7.288   9.254   3.122  0.0681 -0.7473  0.3885
  682MOL0     C94015   7.349   9.194   3.007  0.1627 -0.2992 -0.3165
  682MOL0     C94016   7.492   9.185   3.055 -0.4155 -0.5250  0.8486
  682MOL0     C94017   7.577   9.115   2.945  0.3260 -0.1485 -0.3358
  682MOL0     C94018   7.697   9.050   3.023 -1.1966 -0.6788 -0.1800
  682MOL0     C94019   7.787   9.002   2.906  0.4798  0.4716  0.1622
  682MOL0     C94020   7.902   8.915   2.957  0.2761  0.5695  0.3305
  682MOL0     C94021   8.023   8.892   2.861 -0.0595  1.1128  0.0296
  682MOL0     C94022   8.139   8.814   2.925 -1.2130 -0.5879  0.0695
  682MOL0    Cl94023   8.185   8.870   3.087 -0.0443  0.0709  0.9558
  682MOL0     C94024   7.066   9.335   3.148  1.1255  0.1203  0.4632
  682MOL0     C94025   6.931   9.321   3.188 -0.0097  0.5766 -0.6828
  682MOL0     O94026   6.771   9.341   3.423 -0.5368 -0.0879  0.0397
  682MOL0     C94027   6.469   9.165   3.304  0.3888 -0.6700 -0.2925
  682MOL0     C94028   6.330   9.139   3.335  0.6159  0.7190  0.5796
  682MOL0     N94029   5.886   8.979   3.976  0.4151  0.2010 -0.7955
  682MOL0     N94030   5.808   8.927   4.061 -0.0293  0.3275  0.1384
  682MOL0     C94031   4.585   8.420   4.265  0.7772 -0.6377  0.2764
  682MOL0     C94032   4.444   8.436   4.287 -0.3590  0.2256  0.4166
  682MOL0     C94033   4.054   8.637   4.340 -0.3520  0.8945  0.3090
  682MOL0     C94034   3.992   8.712   4.235  0.1715 -0.4416 -0.1239
  682MOL0     C94035   3.871   8.775   4.249 -0.0721  0.8010  0.8956
  682MOL0     C94036   3.805   8.777   4.374  1.2806  0.8866 -0.0930
  682MOL0     O94037   3.680   8.829   4.391 -0.3290 -0.2873 -0.6930
  682MOL0     C94038   3.697   8.947   4.473  0.0700  0.6573 -0.1735
  682MOL0     C94039   3.561   8.971   4.546  0.7970  0.0638  0.2517
  682MOL0     C94040   3.455   9.056   4.464  0.1203  0.0072 -0.4070
  682MOL0     C94041   3.327   8.997   4.522  1.1322 -0.6187 -0.4627
  682MOL0     C94042   3.207   9.049   4.460  0.6481 -0.9722 -0.7979
  682MOL0     C94043   3.106   9.073   4.402  0.2253 -0.5157 -0.3983
  682MOL0     C94044   3.856   8.699   4.476 -0.4311 -0.0244 -0.0482
  682MOL0     C94045   3.983   8.634   4.463  0.4576  0.6144 -1.3729
  682MOL0     C94046   4.012   8.545   4.575  0.0272  0.5340 -0.8471
  682MOL0     H94047   4.442   8.559   4.600  1.7043 -0.0764  1.3135
  682MOL0     H94048   4.682   8.515   4.580 -1.1414  0.5828  0.8379
  682MOL0     H94049   4.840   8.561   4.226 -2.3333 -0.7612 -0.1937
  682MOL0     H94050   4.852   8.397   4.172 -2.6880 -0.1166  0.4834
  682MOL0     H94051   5.046   8.483   4.386  3.3235  1.2485 -1.7809
  682MOL0     H94052   5.063   8.346   4.288  1.5093  0.7375  0.3417
  682MOL0     H94053   5.115   8.465   4.089  0.4733 -1.1219  0.7427
  682MOL0     H94054   5.067   8.621   4.164  1.3136  0.6078  3.4668
  682MOL0     H94055   5.243   8.633   4.307  1.5522  1.8408 -2.3471
  682MOL0     H94056   5.292   8.471   4.286  1.0566 -0.2757 -1.2439
  682MOL0     H94057   5.293   8.709   4.095 -3.2677 -0.1482  0.9014
  682MOL0     H94058   5.315   8.557   4.025 -0.9316  0.4447  0.4452
  682MOL0     H94059   5.506   8.629   4.249  0.8190 -0.4742 -0.3289
  682MOL0     H94060   5.516   8.493   4.147 -1.0405 -0.9476 -3.1892
  682MOL0     H94061   5.497   8.760   4.014 -1.5455 -0.3036 -0.8110
  682MOL0     H94062   5.568   8.615   3.946 -0.5418 -3.4770  1.9534
  682MOL0     H94063   5.682   8.748   4.192  0.1666  2.6940 -1.7461
  682MOL0     H94064   5.753   8.612   4.109  3.3588  1.3175 -0.1234
  682MOL0     H94065   5.786   8.703   3.814 -1.2330 -0.2158 -0.4405
  682MOL0     H94066   5.984   8.818   3.697 -0.8766 -0.2584 -0.8816
  682MOL0     H94067   6.062   8.969   3.760 -0.3494  0.2480  1.6105
  682MOL0     H94068   5.965   8.965   3.531 -0.3374 -1.8669  1.0026
  682MOL0     H94069   5.806   8.985   3.596 -0.2688 -0.0823 -0.2610
  682MOL0     H94070   5.885   9.225   3.576  3.0143  3.8871  2.2005
  682MOL0     H94071   5.913   9.179   3.735  0.0363  0.7111  0.3191
  682MOL0     H94072   6.090   9.308   3.619  0.8243  0.6583  1.8696
  682MOL0     H94073   6.164   9.153   3.673 -0.6825 -3.9316 -2.6791
  682MOL0     H94074   6.308   9.324   3.623 -0.0708  1.5460 -1.2528
  682MOL0     H94075   6.614   9.449   3.579  3.1501 -1.1536  2.7424
  682MOL0     H94076   6.645   9.306   3.656  1.0260  2.7160  1.3221
  682MOL0     H94077   6.494   9.389   3.704  0.0980 -2.1620  0.4642
  682MOL0     H94078   6.928   8.982   3.214  4.2290 -1.2845  0.3344
  682MOL0     H94079   7.169   9.017   3.176  1.9051  0.8986 -3.4429
  682MOL0     H94080   7.310   9.097   2.974  4.5729 -2.1903 -0.5758
  682MOL0     H94081   7.349   9.260   2.919 -0.8961 -0.9300 -0.8070
  682MOL0     H94082   7.535   9.285   3.069 -0.4083 -0.1269 -1.5217
  682MOL0     H94083   7.487   9.130   3.149  1.1822  0.5642  1.6091
  682MOL0     H94084   7.613   9.179   2.864  0.4871 -0.1714 -0.2830
  682MOL0     H94085   7.512   9.039   2.901  0.3887 -0.4912  0.1564
  682MOL0     H94086   7.659   8.971   3.089 -1.1934 -0.3413  0.2269
  682MOL0     H94087   7.762   9.119   3.077  1.1080 -2.7972 -0.0582
  682MOL0     H94088   7.733   8.947   2.829 -1.6604  1.7366  0.6734
  682MOL0     H94089   7.829   9.089   2.855  1.9366 -0.4381 -0.2416
  682MOL0     H94090   7.867   8.815   2.986  1.1903 -0.5773 -2.2580
  682MOL0     H94091   7.931   8.957   3.054 -0.3941 -3.4105  2.4999
  682MOL0     H94092   8.065   8.992   2.846 -0.7198  1.1690 -1.6319
  682MOL0     H94093   8.006   8.839   2.767 -0.5832 -0.8333  1.1483
  682MOL0     H94094   8.232   8.833   2.869 -1.1245  1.1878  0.7523
  682MOL0     H94095   8.124   8.706   2.932 -1.3236 -0.5430  0.5307
  682MOL0     H94096   7.086   9.433   3.107 -1.4683  1.2678  1.7255
  682MOL0     H94097   6.866   9.408   3.198 -1.5484 -0.6795  0.7963
  682MOL0     H94098   6.497   9.124   3.207 -2.4696  0.5104 -1.7261
  682MOL0     H94099   6.271   9.072   3.274 -0.5072 -0.7578  3.1281
  682MOL0     H94100   4.629   8.389   4.171 -0.1332 -0.2031 -0.3114
  682MOL0     H94101   4.376   8.411   4.206 -1.7937  1.0358  1.3381
  682MOL0     H94102   4.052   8.739   4.148  0.8997 -1.3357  0.0795
  682MOL0     H94103   3.827   8.832   4.168 -0.9659 -0.9645  0.0622
  682MOL0     H94104   3.770   8.936   4.553  2.5059 -0.5191 -2.3770
  682MOL0     H94105   3.716   9.032   4.407  0.6468  0.1527 -0.6772
  682MOL0     H94106   3.588   9.030   4.634 -1.6774  1.7861 -0.0523
  682MOL0     H94107   3.519   8.879   4.589  1.7281 -0.3686  0.2771
  682MOL0     H94108   3.466   9.162   4.490  0.2409 -0.1149  0.0605
  682MOL0     H94109   3.455   9.039   4.356 -0.4815  1.5756 -0.6826
  682MOL0     H94110   3.314   9.024   4.628 -1.9064 -0.9076 -0.6658
  682MOL0     H94111   3.324   8.889   4.511 -4.4948 -0.9237  0.7704
  682MOL0     H94112   3.030   9.108   4.335 -0.4476 -0.3109  0.4645
  682MOL0     H94113   3.786   8.694   4.559 -0.3318 -2.0518 -0.0291
  682MOL0     H94114   4.111   8.561   4.619 -0.5259 -0.0945  0.6742
  682MOL0     H94115   3.942   8.553   4.658  1.0370  1.8648 -0.0647
  682MOL0     H94116   4.002   8.444   4.535  1.1659 -0.4153  1.1259
  683MOL0     O94117   4.393   1.951   4.578  0.4004 -0.2662  0.0383
  683MOL0     C94118   4.310   2.032   4.622 -0.7517 -0.2212 -0.5257
  683MOL0     O94119   4.334   2.163   4.631 -0.4323 -0.3874  1.1695
  683MOL0     C94120   4.445   2.216   4.564 -0.8870  0.5515 -0.5016
  683MOL0     C94121   4.558   2.238   4.646  0.0637  0.0384  0.3111
  683MOL0     C94122   4.670   2.297   4.597  0.0956  0.5594 -0.8037
  683MOL0     C94123   4.675   2.333   4.463  0.0106 -0.0243  0.2360
  683MOL0     O94124   4.797   2.393   4.429 -0.9199  0.1776 -0.0222
  683MOL0     C94125   4.817   2.443   4.301  0.7199  0.5227  0.3179
  683MOL0     C94126   4.945   2.528   4.300  0.3278 -0.6427  0.4202
  683MOL0     C94127   4.943   2.637   4.190  0.1938 -0.4735  0.1405
  683MOL0     C94128   4.892   2.586   4.059 -1.1112  0.1490  0.6274
  683MOL0     C94129   4.914   2.686   3.942  0.3247 -0.0896  0.0376
  683MOL0     C94130   4.848   2.643   3.809  0.2908 -0.5126  0.0351
  683MOL0     C94131   4.879   2.749   3.693  0.3528  0.3859 -0.0667
  683MOL0     C94132   4.829   2.892   3.725 -0.2347  0.3645 -0.0538
  683MOL0     N94133   4.827   2.975   3.606  0.0961 -0.5347 -0.2333
  683MOL0     C94134   4.922   3.072   3.584  0.2306  0.4179 -0.6686
  683MOL0     C94135   4.902   3.107   3.458  0.4098 -0.5089  0.5778
  683MOL0     C94136   4.999   3.205   3.388 -0.3551 -0.6660  0.0318
  683MOL0     C94137   4.979   3.225   3.238 -0.3371 -0.2925  0.9168
  683MOL0     C94138   5.053   3.347   3.177 -0.4086 -0.0984  0.1027
  683MOL0     C94139   5.049   3.367   3.025 -0.3217 -0.2624 -0.6926
  683MOL0     O94140   5.109   3.265   2.948 -0.6043 -0.7140 -0.2540
  683MOL0     C94141   5.249   3.235   2.939 -0.0290  0.9749  0.3169
  683MOL0     C94142   5.351   3.311   2.990 -0.4282 -0.5796 -0.3191
  683MOL0     C94143   5.489   3.286   2.983  0.1088 -0.0848  0.3217
  683MOL0     C94144   5.572   3.391   3.036 -0.7390 -0.4929 -0.2858
  683MOL0     C94145   5.532   3.160   2.931  0.3933 -0.1272 -0.1032
  683MOL0     C94146   5.672   3.118   2.905 -0.1529  0.1165 -0.3851
  683MOL0     O94147   5.768   3.200   2.960 -0.0036  0.1597 -0.4139
  683MOL0     C94148   5.901   3.172   2.943  0.8719 -0.8200 -1.0814
  683MOL0     C94149   5.980   3.285   2.933  0.8230 -0.1916 -0.3839
  683MOL0     C94150   6.117   3.272   2.932  0.4723 -0.3393  1.2702
  683MOL0     C94151   6.176   3.147   2.932 -0.2925 -0.4546  0.5862
  683MOL0     O94152   6.313   3.136   2.933  0.3775 -0.2083  0.6760
  683MOL0     C94153   6.402   3.232   2.880 -0.2546  0.2462  1.0151
  683MOL0     C94154   6.514   3.146   2.818  0.0878 -0.1803  0.2174
  683MOL0     C94155   6.622   3.230   2.758  0.3856  0.8906 -0.4062
  683MOL0     C94156   6.718   3.138   2.683  0.1024  0.1180 -0.8067
  683MOL0     C94157   6.804   3.057   2.792  0.4118 -0.1242 -1.0426
  683MOL0     C94158   6.909   2.969   2.725  0.6646 -0.1257  0.6502
  683MOL0     C94159   7.009   2.910   2.826 -0.5539  0.4611 -0.3740
  683MOL0     C94160   7.156   2.902   2.771  0.0419  0.8538  0.2023
  683MOL0    Cl94161   7.169   2.784   2.621 -0.2939  0.2056 -0.3251
  683MOL0     C94162   6.099   3.030   2.935  0.0219 -0.1900  0.4931
  683MOL0     C94163   5.961   3.048   2.954 -0.6365  0.7454  0.4359
  683MOL0     O94164   5.688   3.024   2.828 -0.5097  0.2955 -0.5047
  683MOL0     C94165   5.429   3.076   2.888  0.7932  0.9044 -0.8915
  683MOL0     C94166   5.295   3.110   2.888  0.7370  0.2578  0.7378
  683MOL0     N94167   4.797   3.039   3.407 -0.4223  0.1212  0.0443
  683MOL0     N94168   4.754   2.951   3.493 -1.1189 -0.9163 -0.1016
  683MOL0     C94169   4.575   2.299   4.377  0.8259  0.7163  0.3814
  683MOL0     C94170   4.451   2.245   4.429 -0.0497  0.3874 -0.0607
  683MOL0     C94171   4.173   1.983   4.660 -1.5330 -0.4003  0.7327
  683MOL0     C94172   4.074   2.083   4.678 -0.2186  0.6485  0.2279
  683MOL0     C94173   3.938   2.044   4.692 -0.6754  0.1608 -0.6406
  683MOL0     C94174   3.900   1.906   4.688  0.0855 -0.3605 -0.7768
  683MOL0     O94175   3.770   1.858   4.697 -0.6894  0.0759  0.4671
  683MOL0     C94176   3.660   1.947   4.710  0.8686  0.0012 -0.3561
  683MOL0     C94177   3.549   1.856   4.772  0.6538 -1.3197  0.0436
  683MOL0     C94178   3.405   1.917   4.775  0.1391  0.4455  0.3511
  683MOL0     C94179   3.375   2.019   4.669  0.0058  1.0412 -0.0133
  683MOL0     C94180   3.237   2.066   4.681  0.1914 -0.1052  0.0689
  683MOL0     C94181   3.111   2.083   4.679 -0.2802  0.1920  0.3255
  683MOL0     C94182   4.000   1.814   4.668  0.6257  0.4723 -0.0509
  683MOL0     C94183   4.138   1.852   4.658  0.7879 -0.1327 -0.2307
  683MOL0     C94184   4.238   1.732   4.638  0.6509 -0.5438 -0.3036
  683MOL0     H94185   4.549   2.198   4.747 -1.5759  2.6464  1.3185
  683MOL0     H94186   4.750   2.316   4.667 -0.4298  1.0259 -0.3171
  683MOL0     H94187   4.732   2.509   4.275  0.4989  0.6831  1.4249
  683MOL0     H94188   4.826   2.366   4.224 -0.3311  0.2697  0.4284
  683MOL0     H94189   4.956   2.571   4.400  0.5326 -0.7552  0.4464
  683MOL0     H94190   5.031   2.464   4.282 -1.1850 -2.6589 -0.0164
  683MOL0     H94191   4.877   2.721   4.216  0.5944 -0.3142  0.6493
  683MOL0     H94192   5.046   2.670   4.179 -0.1058 -0.1529 -2.1172
  683MOL0     H94193   4.947   2.492   4.043 -1.3537  0.2528 -0.9922
  683MOL0     H94194   4.785   2.574   4.074 -1.2765  1.0903  0.2313
  683MOL0     H94195   5.021   2.703   3.927  0.0628  0.8759 -0.8449
  683MOL0     H94196   4.874   2.781   3.979 -1.0285 -0.9967  0.9949
  683MOL0     H94197   4.891   2.551   3.768  0.5872  0.6580 -2.4701
  683MOL0     H94198   4.739   2.636   3.814  0.2048  0.1820 -0.6506
  683MOL0     H94199   4.810   2.728   3.611 -0.2430  1.2637  0.1943
  683MOL0     H94200   4.981   2.740   3.657  0.3919 -1.6246  0.4382
  683MOL0     H94201   4.733   2.894   3.778 -0.5835 -0.0857 -0.6599
  683MOL0     H94202   4.908   2.921   3.794 -1.7401 -0.1950  2.0011
  683MOL0     H94203   5.008   3.100   3.644 -0.5563  1.8542 -0.1647
  683MOL0     H94204   5.098   3.162   3.407 -0.0163  0.0404 -0.0864
  683MOL0     H94205   4.992   3.302   3.438 -0.3673  0.1846 -1.5684
  683MOL0     H94206   5.004   3.141   3.172  0.5666 -0.5674  1.5923
  683MOL0     H94207   4.872   3.249   3.233  0.3734  3.2287 -0.2740
  683MOL0     H94208   5.014   3.437   3.224  0.9312 -0.8069  2.7533
  683MOL0     H94209   5.160   3.346   3.202 -0.7550 -1.2185  1.7035
  683MOL0     H94210   4.944   3.373   2.994 -0.7574 -1.9347  0.3194
  683MOL0     H94211   5.090   3.462   2.991 -2.2412  1.6825  1.9649
  683MOL0     H94212   5.319   3.406   3.033  0.3150 -0.4481 -0.0543
  683MOL0     H94213   5.632   3.341   3.112 -0.5275  0.9083  0.5007
  683MOL0     H94214   5.516   3.475   3.077  1.9180  0.5637  1.4543
  683MOL0     H94215   5.636   3.431   2.957 -1.5039  0.1097 -0.6149
  683MOL0     H94216   5.932   3.382   2.929  1.1006  0.1942  2.8157
  683MOL0     H94217   6.173   3.366   2.927  1.0889 -0.7571 -2.0545
  683MOL0     H94218   6.347   3.295   2.809 -2.2246  0.2230  2.4456
  683MOL0     H94219   6.435   3.295   2.963  0.9172  1.4189 -0.2858
  683MOL0     H94220   6.558   3.095   2.904  3.3321  1.5019 -0.2739
  683MOL0     H94221   6.456   3.083   2.750 -0.8202  1.1016 -0.2386
  683MOL0     H94222   6.672   3.296   2.829 -0.2633  3.8214 -2.4841
  683MOL0     H94223   6.577   3.304   2.690  0.4951  1.2648 -0.0737
  683MOL0     H94224   6.787   3.208   2.635  1.8864 -1.7323 -1.0643
  683MOL0     H94225   6.687   3.071   2.602  1.8691 -0.4266 -1.0813
  683MOL0     H94226   6.853   3.139   2.846 -2.7258  0.9406  0.4789
  683MOL0     H94227   6.754   2.988   2.861  0.6635 -1.4712 -2.1755
  683MOL0     H94228   6.962   3.034   2.654 -3.2334  1.3230 -1.2138
  683MOL0     H94229   6.858   2.891   2.667 -0.7669 -0.2144  1.9713
  683MOL0     H94230   6.984   2.813   2.870  3.5412 -1.4650 -1.8212
  683MOL0     H94231   7.017   2.974   2.914  0.5542 -2.9092  2.1751
  683MOL0     H94232   7.226   2.856   2.841  1.4276  0.3205 -1.4764
  683MOL0     H94233   7.196   2.997   2.735  0.1823  0.2797 -1.1823
  683MOL0     H94234   6.149   2.934   2.926  1.4756  0.6390 -0.6485
  683MOL0     H94235   5.900   2.963   2.981 -0.5396  1.4292  3.0103
  683MOL0     H94236   5.440   2.972   2.859  1.0859  1.1725 -1.7581
  683MOL0     H94237   5.220   3.038   2.856  0.1114  0.5432  1.5408
  683MOL0     H94238   4.585   2.325   4.272  1.7649 -0.8311  0.0491
  683MOL0     H94239   4.370   2.240   4.357 -1.3494  1.0623  1.3003
  683MOL0     H94240   4.096   2.189   4.676 -0.8746  1.0815  4.8482
  683MOL0     H94241   3.859   2.118   4.699 -0.5882  0.9068 -4.8956
  683MOL0     H94242   3.685   2.037   4.766  2.7088 -0.9864  0.5011
  683MOL0     H94243   3.623   1.980   4.612 -1.0919 -0.3074  0.2376
  683MOL0     H94244   3.578   1.829   4.874 -2.1100  0.0062  1.2883
  683MOL0     H94245   3.536   1.763   4.716 -0.3426 -0.2978 -1.5102
  683MOL0     H94246   3.340   1.832   4.750  0.6392  0.4653 -1.0597
  683MOL0     H94247   3.382   1.957   4.874 -2.2952 -0.5018  0.2404
  683MOL0     H94248   3.383   1.978   4.568 -1.6159 -0.1226  0.3054
  683MOL0     H94249   3.450   2.098   4.683  2.2735 -1.0055 -0.0991
  683MOL0     H94250   3.005   2.095   4.672 -0.3163  0.5584  1.3649
  683MOL0     H94251   3.962   1.713   4.662 -4.8447  2.2701 -1.1141
  683MOL0     H94252   4.327   1.751   4.699 -0.0098 -0.5812  0.6845
  683MOL0     H94253   4.193   1.635   4.663  0.9397 -0.2751  1.3906
  683MOL0     H94254   4.255   1.721   4.531  1.9170 -2.0219  0.0126
  684MOL0     O94255   0.862   1.072   1.301  0.1540  0.1246  0.0455
  684MOL0     C94256   0.792   1.100   1.395 -0.1382 -0.0599 -0.4444
  684MOL0     O94257   0.829   1.184   1.501 -0.6843  0.4083  0.0117
  684MOL0     C94258   0.958   1.231   1.501 -0.2931  0.3438 -0.1221
  684MOL0     C94259   1.057   1.141   1.514  0.3388  0.1804  0.1169
  684MOL0     C94260   1.189   1.190   1.519  0.3272 -0.2845  0.1915
  684MOL0     C94261   1.225   1.324   1.515 -0.1507  0.1171  0.4377
  684MOL0     O94262   1.364   1.355   1.520 -0.0601 -0.1254 -0.8417
  684MOL0     C94263   1.413   1.487   1.543  1.2004  0.0438 -0.6549
  684MOL0     C94264   1.560   1.486   1.514  0.9362 -0.0796 -0.0131
  684MOL0     C94265   1.642   1.433   1.628 -0.1267 -0.5702 -0.1192
  684MOL0     C94266   1.789   1.444   1.586 -0.0705  0.4012 -0.3716
  684MOL0     C94267   1.873   1.403   1.696 -0.2230 -1.0881 -0.8717
  684MOL0     C94268   2.019   1.421   1.664 -1.1320  0.0051 -1.1895
  684MOL0     C94269   2.113   1.407   1.788 -0.3831 -0.1074 -0.1177
  684MOL0     C94270   2.174   1.264   1.795 -0.5598 -0.4315 -0.6844
  684MOL0     N94271   2.229   1.229   1.932  0.0447  0.5433 -0.1597
  684MOL0     C94272   2.304   1.314   2.013  0.1605 -0.7146  0.2360
  684MOL0     C94273   2.298   1.263   2.140 -1.1850 -1.0089 -0.4396
  684MOL0     C94274   2.368   1.328   2.263 -0.6446  0.5917  0.5446
  684MOL0     C94275   2.511   1.276   2.283 -0.7092 -0.1744 -0.2003
  684MOL0     C94276   2.583   1.347   2.398 -0.3416  0.2562  0.0515
  684MOL0     C94277   2.727   1.294   2.433  0.4439  0.3107  0.3231
  684MOL0     O94278   2.813   1.282   2.319 -0.2306  0.5187 -0.2916
  684MOL0     C94279   2.954   1.265   2.332  0.9634 -0.3320 -0.0024
  684MOL0     C94280   3.040   1.300   2.233 -0.4725  0.3326 -0.1440
  684MOL0     C94281   3.180   1.284   2.240 -0.7538  0.1323 -0.1634
  684MOL0     C94282   3.260   1.337   2.123 -0.2889 -0.1114  0.0275
  684MOL0     C94283   3.232   1.214   2.352  0.6464  0.0310 -0.2629
  684MOL0     C94284   3.378   1.189   2.382  0.6897  0.0214  0.2880
  684MOL0     O94285   3.416   1.128   2.498 -0.8591  0.1301 -0.0504
  684MOL0     C94286   3.553   1.104   2.499  0.1766  0.3349  0.3504
  684MOL0     C94287   3.635   1.202   2.560 -0.6458  0.2533  0.5194
  684MOL0     C94288   3.780   1.187   2.560  0.5177 -0.5432  0.2389
  684MOL0     C94289   3.838   1.068   2.518  0.6011  0.5908  0.1145
  684MOL0     O94290   3.966   1.043   2.542  0.2089  0.5774  0.1948
  684MOL0     C94291   4.038   0.935   2.475 -0.9986 -0.2631 -0.3963
  684MOL0     C94292   4.184   0.957   2.495  0.6624 -0.3655 -0.7164
  684MOL0     C94293   4.228   1.080   2.410  0.5930 -0.1581 -0.0609
  684MOL0     C94294   4.378   1.090   2.409  0.3021  0.1954  0.3127
  684MOL0     C94295   4.435   1.185   2.304  0.0594 -0.0248 -0.1760
  684MOL0     C94296   4.588   1.179   2.317 -0.3051 -0.0049  0.2652
  684MOL0     C94297   4.659   1.261   2.213  0.6436 -0.6182 -0.7507
  684MOL0     C94298   4.804   1.249   2.234  0.3385 -0.5722  0.0747
  684MOL0    Cl94299   4.891   1.374   2.132 -0.2710  0.4284 -0.1001
  684MOL0     C94300   3.757   0.963   2.455 -0.2794  0.3180  0.8789
  684MOL0     C94301   3.612   0.985   2.447  0.3320  0.4237  0.2321
  684MOL0     O94302   3.455   1.219   2.287  0.1439 -0.6269  0.1523
  684MOL0     C94303   3.139   1.182   2.458  0.1701  0.0957  0.2704
  684MOL0     C94304   3.002   1.205   2.448 -0.3103  0.4038 -0.4021
  684MOL0     N94305   2.210   1.152   2.136 -0.0325 -0.1452 -0.0075
  684MOL0     N94306   2.169   1.139   2.015 -0.7723  0.4783  0.5056
  684MOL0     C94307   1.118   1.413   1.516 -0.3987  0.3053  0.5297
  684MOL0     C94308   0.985   1.369   1.504 -0.2327  0.2899 -0.1778
  684MOL0     C94309   0.666   1.050   1.407  0.3802 -0.4424 -0.6782
  684MOL0     C94310   0.567   1.085   1.313  0.1073  0.2172  0.3731
  684MOL0     C94311   0.433   1.036   1.325 -1.0023 -0.4251  0.2094
  684MOL0     C94312   0.391   0.960   1.431 -0.7416  0.1824  0.1749
  684MOL0     O94313   0.256   0.934   1.436  0.1485  0.9507  0.7375
  684MOL0     C94314   0.189   0.897   1.558 -0.4531  0.4154 -0.1224
  684MOL0     C94315   0.064   0.817   1.525  0.2553 -0.5870 -0.0979
  684MOL0     C94316  -0.038   0.802   1.637 -0.1440 -0.3756  0.1491
  684MOL0     C94317  -0.147   0.907   1.640 -0.4513 -0.2589 -0.7987
  684MOL0     C94318  -0.228   0.924   1.515  0.2790  0.3672  0.0253
  684MOL0     C94319  -0.299   0.945   1.424 -0.3547  0.1232  0.3903
  684MOL0     C94320   0.489   0.926   1.524 -1.0132  0.0241 -0.3862
  684MOL0     C94321   0.621   0.967   1.515  0.6147  0.2191  0.0797
  684MOL0     C94322   0.720   0.919   1.621 -0.1759  0.0913  0.3861
  684MOL0     H94323   1.035   1.035   1.525 -0.4766  0.5088  2.0245
  684MOL0     H94324   1.264   1.114   1.508 -0.7884 -1.4228  0.2117
  684MOL0     H94325   1.396   1.507   1.649  1.9244  1.1858 -0.7376
  684MOL0     H94326   1.357   1.565   1.490 -0.8094 -1.0821 -0.3021
  684MOL0     H94327   1.585   1.427   1.426  1.0016 -0.0401 -0.0206
  684MOL0     H94328   1.590   1.587   1.485  1.5722 -0.2106  0.1714
  684MOL0     H94329   1.622   1.500   1.713 -0.1333 -1.4983  0.6272
  684MOL0     H94330   1.614   1.332   1.659 -2.5188 -0.1244 -0.5652
  684MOL0     H94331   1.800   1.377   1.500  2.4149 -1.7273  1.4729
  684MOL0     H94332   1.817   1.546   1.555  0.6714  0.8003  1.4956
  684MOL0     H94333   1.851   1.296   1.707 -1.6575 -0.8399 -1.1331
  684MOL0     H94334   1.847   1.463   1.783  0.9645  2.1803 -2.5754
  684MOL0     H94335   2.052   1.352   1.586 -0.0071 -0.9957  0.1040
  684MOL0     H94336   2.034   1.518   1.615 -0.5262 -1.3898 -3.9599
  684MOL0     H94337   2.072   1.433   1.886  0.7468  1.4792 -0.0240
  684MOL0     H94338   2.200   1.472   1.774  0.9658 -1.1203  2.8339
  684MOL0     H94339   2.096   1.188   1.784  1.8605 -2.9392 -1.5648
  684MOL0     H94340   2.249   1.258   1.716 -1.0184  0.9381 -1.2593
  684MOL0     H94341   2.362   1.401   1.984 -3.2517  1.9136  0.6399
  684MOL0     H94342   2.303   1.320   2.351 -0.1189 -1.7944  0.7779
  684MOL0     H94343   2.370   1.437   2.251 -0.5535  0.5722  0.3820
  684MOL0     H94344   2.499   1.168   2.293 -2.2872 -0.0799 -0.7607
  684MOL0     H94345   2.567   1.300   2.192  0.9130 -0.8623  0.5905
  684MOL0     H94346   2.599   1.451   2.368 -0.9892 -0.0007 -1.2267
  684MOL0     H94347   2.512   1.333   2.480 -1.8922 -2.9430 -1.6380
  684MOL0     H94348   2.775   1.365   2.502  2.1148  0.5884 -1.0523
  684MOL0     H94349   2.719   1.194   2.476  0.2452  0.5845  0.9364
  684MOL0     H94350   3.002   1.360   2.151 -3.2893 -1.7207 -0.4949
  684MOL0     H94351   3.295   1.261   2.052 -1.5984 -0.5975 -0.1177
  684MOL0     H94352   3.349   1.390   2.158  0.3955 -2.4536  2.1729
  684MOL0     H94353   3.206   1.406   2.058  1.8089  3.5753  1.8696
  684MOL0     H94354   3.588   1.290   2.602  0.5830  1.9863 -1.5390
  684MOL0     H94355   3.844   1.269   2.590  1.0372 -0.4462 -1.0522
  684MOL0     H94356   3.999   0.845   2.523 -1.1310  0.5531  1.1149
  684MOL0     H94357   4.020   0.932   2.367  1.6735  4.7666 -1.3049
  684MOL0     H94358   4.201   0.972   2.602  0.8217 -0.3596 -0.7421
  684MOL0     H94359   4.244   0.872   2.462  0.4264 -0.4047 -1.0514
  684MOL0     H94360   4.179   1.170   2.449 -1.1819 -0.6369 -1.0374
  684MOL0     H94361   4.197   1.074   2.305  0.5828 -1.2311 -0.0061
  684MOL0     H94362   4.417   0.988   2.408 -2.0170 -0.8627  2.9299
  684MOL0     H94363   4.411   1.126   2.507  1.7413  1.1987 -0.5100
  684MOL0     H94364   4.406   1.146   2.206 -0.2002 -0.8601  0.2263
  684MOL0     H94365   4.389   1.283   2.318  0.9182  0.8055 -2.6689
  684MOL0     H94366   4.634   1.080   2.321 -1.4410 -0.6006 -0.7487
  684MOL0     H94367   4.605   1.219   2.417 -2.6166  0.2891  0.6077
  684MOL0     H94368   4.641   1.369   2.221 -2.5577 -0.8281 -2.9227
  684MOL0     H94369   4.613   1.246   2.115 -0.2866 -0.4488 -0.3536
  684MOL0     H94370   4.844   1.154   2.195  1.8088  0.7286 -1.7876
  684MOL0     H94371   4.830   1.258   2.339 -0.5109  0.6210  0.2023
  684MOL0     H94372   3.789   0.869   2.413 -0.9939 -0.1154  1.2768
  684MOL0     H94373   3.554   0.904   2.403  2.2172 -1.4148  0.9820
  684MOL0     H94374   3.175   1.138   2.551  0.7985 -1.2740 -0.5743
  684MOL0     H94375   2.950   1.174   2.538  1.9982  0.7550  1.1170
  684MOL0     H94376   1.145   1.518   1.504  1.3024 -0.3208 -1.6952
  684MOL0     H94377   0.898   1.431   1.491  0.7934  1.5161 -1.5286
  684MOL0     H94378   0.593   1.145   1.227  1.6923 -2.2487 -0.9815
  684MOL0     H94379   0.358   1.062   1.251 -1.1506 -1.3987  0.0053
  684MOL0     H94380   0.246   0.824   1.615 -1.5538 -0.6933 -0.3834
  684MOL0     H94381   0.166   0.991   1.608  0.5078 -0.4938  2.1770
  684MOL0     H94382   0.093   0.713   1.503  0.8452 -0.4214 -0.1352
  684MOL0     H94383   0.016   0.855   1.435 -3.3373 -0.9997  1.4742
  684MOL0     H94384  -0.089   0.705   1.638  1.6929 -1.3949 -0.4840
  684MOL0     H94385   0.007   0.786   1.736 -1.3594 -1.9575  0.4775
  684MOL0     H94386  -0.099   1.004   1.658 -1.3242  0.2939 -1.3976
  684MOL0     H94387  -0.209   0.891   1.729  1.4826  1.8737  1.0640
  684MOL0     H94388  -0.370   0.966   1.346 -2.3806  1.7585  2.5503
  684MOL0     H94389   0.460   0.859   1.605 -3.9401 -0.7513 -1.9634
  684MOL0     H94390   0.724   0.810   1.626 -1.3648  0.0773  3.9455
  684MOL0     H94391   0.821   0.954   1.597 -0.2020 -2.6785 -5.4542
  684MOL0     H94392   0.703   0.950   1.724 -0.4027  0.2966  0.2898
  685MOL0     O94393   1.083   6.274   6.111 -0.5046 -0.0507 -0.0083
  685MOL0     C94394   1.052   6.269   5.992  0.1137 -0.8709 -0.8837
  685MOL0     O94395   1.136   6.310   5.888  0.1118  0.0589  0.4555
  685MOL0     C94396   1.248   6.384   5.926 -1.0872 -1.1396  0.7310
  685MOL0     C94397   1.250   6.508   6.004  0.7345 -0.0517 -0.0121
  685MOL0     C94398   1.363   6.574   6.032  0.2444  0.5773 -0.2342
  685MOL0     C94399   1.484   6.548   5.973 -0.2528 -0.4998  0.3640
  685MOL0     O94400   1.586   6.624   6.001 -0.6107 -0.5976  0.3116
  685MOL0     C94401   1.620   6.645   6.137  0.7579  0.2507 -0.7849
  685MOL0     C94402   1.699   6.524   6.191 -0.1825  0.0776 -0.2236
  685MOL0     C94403   1.851   6.532   6.169 -1.0556 -0.4773  0.0279
  685MOL0     C94404   1.919   6.415   6.240 -0.3043  0.4132  0.1727
  685MOL0     C94405   2.066   6.418   6.197 -0.3987  0.7251 -0.6254
  685MOL0     C94406   2.142   6.517   6.289 -0.6571  0.4591 -0.1116
  685MOL0     C94407   2.295   6.528   6.253  0.5978  0.2247 -0.4356
  685MOL0     C94408   2.351   6.659   6.300 -0.1303 -0.4521  0.2545
  685MOL0     N94409   2.481   6.660   6.240  0.2140  0.5636  0.0642
  685MOL0     C94410   2.595   6.619   6.308  0.1771  0.1941 -0.8071
  685MOL0     C94411   2.694   6.661   6.228  0.1633 -0.5898 -0.3178
  685MOL0     C94412   2.840   6.639   6.261 -0.3138  0.6155  0.3497
  685MOL0     C94413   2.912   6.513   6.203 -0.4417 -0.2953  0.0857
  685MOL0     C94414   3.055   6.487   6.261 -0.4383  0.4231 -0.7541
  685MOL0     C94415   3.151   6.609   6.255  0.2879 -0.1694 -0.0081
  685MOL0     O94416   3.279   6.548   6.282 -0.9610 -0.6266  0.5546
  685MOL0     C94417   3.393   6.581   6.219  0.6772  0.3772  0.1331
  685MOL0     C94418   3.406   6.652   6.099 -0.3060  0.5932  0.4805
  685MOL0     C94419   3.532   6.692   6.035  0.4809  0.3279  0.4661
  685MOL0     C94420   3.533   6.764   5.898  0.5468 -0.4447 -0.2517
  685MOL0     C94421   3.645   6.663   6.112  0.5056  0.1857 -0.5116
  685MOL0     C94422   3.782   6.676   6.063  0.3638  0.0460 -0.0789
  685MOL0     O94423   3.863   6.744   6.148 -0.3690  0.4566  0.0832
  685MOL0     C94424   3.973   6.813   6.083 -1.0523  0.2005 -0.0659
  685MOL0     C94425   3.944   6.895   5.972  0.3692 -0.6604 -0.7961
  685MOL0     C94426   4.041   6.979   5.915 -0.0162 -0.0780  0.7507
  685MOL0     C94427   4.174   6.977   5.967 -0.8732  0.1837 -0.5534
  685MOL0     O94428   4.267   7.055   5.897  0.9832 -0.5842  0.0709
  685MOL0     C94429   4.404   7.028   5.924  0.6260  0.5433 -1.1726
  685MOL0     C94430   4.479   7.120   5.831 -0.3069  0.0213 -0.9416
  685MOL0     C94431   4.456   7.082   5.688  0.0321  0.7984  0.7020
  685MOL0     C94432   4.511   7.180   5.590 -0.1559 -0.3533 -0.3400
  685MOL0     C94433   4.428   7.307   5.581  0.2581  0.1999 -0.1828
  685MOL0     C94434   4.335   7.327   5.459  0.2213  0.6477 -0.8772
  685MOL0     C94435   4.240   7.211   5.429 -0.6773  0.3895  0.3134
  685MOL0     C94436   4.135   7.194   5.532  0.0658  0.3612  0.1888
  685MOL0    Cl94437   3.995   7.295   5.504  0.6748 -0.1092  0.3434
  685MOL0     C94438   4.207   6.881   6.078 -0.1153 -1.0117  0.3443
  685MOL0     C94439   4.101   6.806   6.137 -0.4550 -0.0075  0.6066
  685MOL0     O94440   3.810   6.633   5.953  0.0737 -0.7073  0.3153
  685MOL0     C94441   3.631   6.597   6.239 -0.4200 -0.4334 -0.0671
  685MOL0     C94442   3.503   6.557   6.289 -0.1251  0.1665 -0.5649
  685MOL0     N94443   2.640   6.720   6.110  0.4607  0.8308 -0.2127
  685MOL0     N94444   2.515   6.725   6.119 -0.2613  0.1742 -0.2846
  685MOL0     C94445   1.489   6.429   5.890  0.1338 -0.3009 -0.1679
  685MOL0     C94446   1.375   6.343   5.879 -0.1486  0.6624  0.3590
  685MOL0     C94447   0.920   6.216   5.949  0.1427  0.2585 -0.1778
  685MOL0     C94448   0.908   6.169   5.818 -0.4521 -0.3890 -0.3551
  685MOL0     C94449   0.782   6.111   5.781  0.1123 -0.3823  0.1424
  685MOL0     C94450   0.675   6.102   5.865  0.4603 -0.8414 -1.1717
  685MOL0     O94451   0.544   6.052   5.832 -0.6101  0.1874 -0.4744
  685MOL0     C94452   0.521   5.980   5.704 -0.7815  0.2895  0.0474
  685MOL0     C94453   0.605   5.844   5.708 -0.6245 -1.0165  0.5492
  685MOL0     C94454   0.599   5.754   5.829 -0.1333 -0.4693  0.3701
  685MOL0     C94455   0.487   5.661   5.809  0.7651  0.3742  0.3611
  685MOL0     C94456   0.456   5.598   5.939 -0.7032  0.1438  0.2465
  685MOL0     C94457   0.430   5.552   6.047 -0.1681 -0.2430  0.0862
  685MOL0     C94458   0.692   6.138   5.999 -0.4090 -0.2741  0.1415
  685MOL0     C94459   0.815   6.192   6.045 -0.2336 -0.0903 -0.8484
  685MOL0     C94460   0.816   6.230   6.194 -0.1093 -0.2094  0.3317
  685MOL0     H94461   1.163   6.541   6.059  0.5515  0.2862 -0.5029
  685MOL0     H94462   1.363   6.667   6.088  1.5673  1.1533 -1.1497
  685MOL0     H94463   1.535   6.665   6.203  0.1020 -1.3054 -1.1001
  685MOL0     H94464   1.691   6.728   6.139  1.0721  0.0047  2.2462
  685MOL0     H94465   1.681   6.513   6.299  0.1908 -4.0699 -0.4218
  685MOL0     H94466   1.651   6.435   6.149  0.0633  0.2190 -0.8119
  685MOL0     H94467   1.864   6.524   6.060 -2.0162  1.2084 -0.2486
  685MOL0     H94468   1.894   6.625   6.206 -0.3351 -0.7531 -0.1047
  685MOL0     H94469   1.905   6.421   6.348  0.9717  0.2734  0.3531
  685MOL0     H94470   1.883   6.317   6.205 -2.0093  1.4649 -1.2085
  685MOL0     H94471   2.079   6.439   6.090 -2.9621 -2.7293 -1.8209
  685MOL0     H94472   2.102   6.315   6.198 -3.4820 -0.4886 -1.3833
  685MOL0     H94473   2.097   6.617   6.287  1.2667  1.4454  2.3092
  685MOL0     H94474   2.144   6.479   6.391 -1.6611 -1.8438 -0.8701
  685MOL0     H94475   2.308   6.523   6.144  0.5440 -0.3986 -0.4148
  685MOL0     H94476   2.347   6.441   6.295 -0.9104 -0.0415  0.9512
  685MOL0     H94477   2.297   6.743   6.256  0.8581 -1.6849 -3.8076
  685MOL0     H94478   2.357   6.662   6.409 -0.0604 -2.5900  0.3643
  685MOL0     H94479   2.598   6.564   6.401  3.2590  2.2334  0.4636
  685MOL0     H94480   2.832   6.624   6.368 -1.3778 -1.4130  0.0224
  685MOL0     H94481   2.904   6.724   6.232  0.5438 -0.6322 -1.6541
  685MOL0     H94482   2.852   6.422   6.212  0.7138 -1.0434  0.3466
  685MOL0     H94483   2.930   6.527   6.096  2.3671  0.4582  0.5860
  685MOL0     H94484   3.044   6.456   6.365  1.9381  2.2382  0.1299
  685MOL0     H94485   3.104   6.408   6.204  1.0522 -0.1300  1.1817
  685MOL0     H94486   3.149   6.656   6.156  1.9096  0.0203  0.0367
  685MOL0     H94487   3.116   6.685   6.326 -0.7381 -1.0324  0.4473
  685MOL0     H94488   3.323   6.677   6.033  2.1873  0.2730 -3.0422
  685MOL0     H94489   3.576   6.690   5.830 -1.7791 -2.5096  0.3682
  685MOL0     H94490   3.601   6.847   5.913 -0.1674 -0.0884  1.1431
  685MOL0     H94491   3.434   6.795   5.863  0.9693  2.1205  0.6532
  685MOL0     H94492   3.841   6.886   5.938 -0.2402  2.6034 -0.1650
  685MOL0     H94493   4.014   7.029   5.823  1.0572  1.2119  1.1164
  685MOL0     H94494   4.421   7.055   6.028  2.2470  0.5201 -1.4037
  685MOL0     H94495   4.430   6.923   5.909 -0.8769  0.3292 -2.5292
  685MOL0     H94496   4.448   7.222   5.857 -1.0891  0.0107 -1.8110
  685MOL0     H94497   4.586   7.114   5.853 -0.4559  0.0725 -0.1725
  685MOL0     H94498   4.347   7.070   5.681  0.0126 -1.4001  2.9774
  685MOL0     H94499   4.499   6.984   5.665  0.8866  1.5755 -1.1297
  685MOL0     H94500   4.515   7.144   5.487  1.7732 -2.3764  0.3619
  685MOL0     H94501   4.614   7.202   5.620  0.0654 -0.1378 -1.2504
  685MOL0     H94502   4.383   7.340   5.675 -2.1988 -2.5458 -0.2596
  685MOL0     H94503   4.506   7.380   5.558  1.4448 -1.1759 -0.7592
  685MOL0     H94504   4.407   7.343   5.379  1.3529 -0.4464 -0.1019
  685MOL0     H94505   4.276   7.419   5.466 -2.2384 -0.7017 -2.3168
  685MOL0     H94506   4.303   7.121   5.427  0.1942  0.9841  0.3209
  685MOL0     H94507   4.192   7.235   5.333  1.1250  0.3616 -0.6524
  685MOL0     H94508   4.174   7.223   5.630 -1.2223 -0.9260  1.1208
  685MOL0     H94509   4.107   7.088   5.538  0.2758  0.3757  1.9247
  685MOL0     H94510   4.306   6.884   6.122  0.6917 -1.2716 -1.3552
  685MOL0     H94511   4.108   6.739   6.223 -3.7575 -0.4466  0.6528
  685MOL0     H94512   3.718   6.567   6.298 -0.4010 -1.3803 -0.5545
  685MOL0     H94513   3.509   6.495   6.378  1.2144 -1.2703 -1.6136
  685MOL0     H94514   1.582   6.392   5.848  0.6331  1.2092 -0.4421
  685MOL0     H94515   1.388   6.262   5.808  0.1769  0.2771  0.8486
  685MOL0     H94516   0.989   6.178   5.747 -0.9797 -0.0193 -0.9264
  685MOL0     H94517   0.772   6.086   5.676 -0.0533 -0.2034  0.1137
  685MOL0     H94518   0.417   5.948   5.701 -0.6810 -0.2186  1.2249
  685MOL0     H94519   0.543   6.041   5.616  0.9858 -1.7275 -1.0243
  685MOL0     H94520   0.713   5.865   5.705 -0.6672 -0.8920 -0.5750
  685MOL0     H94521   0.590   5.781   5.619 -0.7579 -0.5289  0.2200
  685MOL0     H94522   0.685   5.686   5.832 -0.2534 -0.6109  0.6478
  685MOL0     H94523   0.591   5.815   5.919  1.7748 -0.2675  0.4522
  685MOL0     H94524   0.515   5.575   5.747 -1.1841 -0.8840  1.1020
  685MOL0     H94525   0.402   5.715   5.766 -0.0383  0.9008  2.4402
  685MOL0     H94526   0.410   5.522   6.148  0.3437  0.9776  0.5627
  685MOL0     H94527   0.606   6.122   6.063  0.5420 -1.4205  1.1875
  685MOL0     H94528   0.904   6.193   6.246 -0.2167 -1.2087 -0.1759
  685MOL0     H94529   0.817   6.339   6.203 -0.7637 -0.3112  1.9218
  685MOL0     H94530   0.722   6.196   6.238 -1.1270 -1.6086 -2.6519
  686MOL0     O94531   6.847   8.221  10.781 -0.1311  0.0978  0.1093
  686MOL0     C94532   6.850   8.100  10.762  0.8288  0.0084 -0.4157
  686MOL0     O94533   6.959   8.020  10.724  0.1708 -0.3966 -0.4013
  686MOL0     C94534   7.083   8.071  10.730 -0.9432 -0.2410 -0.7786
  686MOL0     C94535   7.144   8.089  10.849  0.5077 -0.5361 -0.4129
  686MOL0     C94536   7.269   8.147  10.857 -0.3560  0.6908 -0.2885
  686MOL0     C94537   7.325   8.196  10.741 -1.0702 -0.4198  0.3348
  686MOL0     O94538   7.444   8.271  10.729 -0.3287  0.0183 -0.6467
  686MOL0     C94539   7.502   8.334  10.850  0.3414  0.5293  1.0461
  686MOL0     C94540   7.623   8.413  10.803  0.0488 -0.4676 -1.2885
  686MOL0     C94541   7.727   8.313  10.739 -0.5750  0.3990 -0.5185
  686MOL0     C94542   7.869   8.368  10.722  0.0308 -0.2432 -0.9984
  686MOL0     C94543   7.970   8.272  10.662 -0.5219  0.5898  0.3880
  686MOL0     C94544   7.938   8.227  10.523  0.0680  0.2031  0.3836
  686MOL0     C94545   7.963   8.336  10.416 -0.6043 -0.7189 -0.1525
  686MOL0     C94546   8.110   8.385  10.390  0.5364  0.0312 -0.1163
  686MOL0     N94547   8.192   8.281  10.352 -0.6360  0.2201  1.2560
  686MOL0     C94548   8.212   8.216  10.223 -0.4900 -0.2792 -0.6322
  686MOL0     C94549   8.320   8.137  10.239  0.1241 -0.1388 -0.0910
  686MOL0     C94550   8.376   8.026  10.149 -0.2366  0.8922 -0.5419
  686MOL0     C94551   8.515   7.974  10.190  0.4179  0.1969  1.1470
  686MOL0     C94552   8.624   8.075  10.228  0.2163  0.1774 -0.0991
  686MOL0     C94553   8.630   8.206  10.142 -0.6819  0.1584  0.0259
  686MOL0     O94554   8.734   8.296  10.188 -0.3528 -0.4016  0.6393
  686MOL0     C94555   8.868   8.257  10.161  1.0755 -0.4396  0.2764
  686MOL0     C94556   8.944   8.237  10.266  0.0851  0.4505 -0.2234
  686MOL0     C94557   9.073   8.202  10.258 -0.2479 -0.0167  0.3817
  686MOL0     C94558   9.136   8.159  10.397  0.6537 -0.0109  0.8412
  686MOL0     C94559   9.124   8.174  10.132 -0.3891 -0.0163  0.1453
  686MOL0     C94560   9.267   8.129  10.103 -0.4445  0.1019 -0.2176
  686MOL0     O94561   9.343   8.128  10.215 -0.2880 -0.2284  0.1546
  686MOL0     C94562   9.477   8.109  10.197  0.6378  0.5957  0.6121
  686MOL0     C94563   9.534   7.978  10.183 -0.0598 -0.1477  0.6437
  686MOL0     C94564   9.667   7.965  10.175  0.2905 -0.4131  0.1102
  686MOL0     C94565   9.750   8.070  10.194  0.5203  0.1156  0.4912
  686MOL0     O94566   9.882   8.044  10.207 -0.4986  0.1790  0.3549
  686MOL0     C94567   9.974   8.157  10.196 -0.5890  0.1150 -0.3649
  686MOL0     C94568  10.117   8.113  10.162  0.4925 -0.2873 -1.1227
  686MOL0     C94569  10.203   8.062  10.281 -0.0704 -0.1107 -0.4350
  686MOL0     C94570  10.342   8.002  10.232 -0.3398  0.1428 -0.6699
  686MOL0     C94571  10.444   8.007  10.345  0.6319 -0.8581  0.4626
  686MOL0     C94572  10.590   7.989  10.310  0.4645  0.2277 -0.0277
  686MOL0     C94573  10.663   8.094  10.227 -1.2510  0.4970 -0.6230
  686MOL0     C94574  10.664   8.228  10.291 -0.2905 -0.1935 -0.1646
  686MOL0    Cl94575  10.762   8.333  10.182 -0.1031 -0.0584 -0.1555
  686MOL0     C94576   9.693   8.197  10.201  0.0043 -0.8354 -0.4259
  686MOL0     C94577   9.557   8.214  10.199 -0.8169 -0.0001 -0.5583
  686MOL0     O94578   9.304   8.116   9.986  0.1815  0.2723  0.4190
  686MOL0     C94579   9.050   8.210  10.017 -0.3688  0.3635 -0.3945
  686MOL0     C94580   8.921   8.252  10.034  0.3058  1.0536 -0.3415
  686MOL0     N94581   8.353   8.144  10.376 -0.2129 -0.6464  0.1515
  686MOL0     N94582   8.282   8.229  10.442  0.4969  0.1868 -0.2711
  686MOL0     C94583   7.266   8.175  10.618 -0.7146 -0.0570 -0.0162
  686MOL0     C94584   7.151   8.108  10.612  0.9294  0.1078  0.4202
  686MOL0     C94585   6.720   8.027  10.760  0.3318 -0.1749 -0.1373
  686MOL0     C94586   6.716   7.882  10.764  0.9008  0.0111  0.9050
  686MOL0     C94587   6.596   7.811  10.748 -0.5056 -0.2302 -0.6210
  686MOL0     C94588   6.469   7.867  10.736  0.1113 -0.6828  0.6757
  686MOL0     O94589   6.349   7.806  10.705  0.2163  0.2711 -0.1064
  686MOL0     C94590   6.328   7.663  10.742 -1.3328 -0.3745 -0.3108
  686MOL0     C94591   6.187   7.631  10.697  0.9088 -0.1714  0.1042
  686MOL0     C94592   6.165   7.483  10.697 -0.2470 -0.2095  0.1829
  686MOL0     C94593   6.019   7.427  10.681 -0.1829  0.0583 -0.1113
  686MOL0     C94594   5.929   7.461  10.793 -0.9174 -0.2152 -0.3764
  686MOL0     C94595   5.849   7.481  10.876  0.4403 -0.5779 -0.2884
  686MOL0     C94596   6.477   8.003  10.737 -0.6578  0.0481 -0.5194
  686MOL0     C94597   6.590   8.088  10.748  0.1035 -0.1514 -0.1993
  686MOL0     C94598   6.559   8.244  10.736 -0.4881  0.6652 -1.4764
  686MOL0     H94599   7.102   8.059  10.944 -1.0294 -2.5846 -1.6723
  686MOL0     H94600   7.306   8.157  10.958 -0.3613  0.1723 -0.2344
  686MOL0     H94601   7.528   8.255  10.921 -0.7941  0.6746  1.6433
  686MOL0     H94602   7.437   8.408  10.896  1.4474  2.9263 -1.0205
  686MOL0     H94603   7.590   8.487  10.730 -0.7415 -0.4113 -0.8779
  686MOL0     H94604   7.667   8.476  10.881 -0.1672 -2.5343  0.6153
  686MOL0     H94605   7.734   8.226  10.805  2.3935  0.7680 -0.1955
  686MOL0     H94606   7.687   8.289  10.640  3.3643  0.7775 -2.4039
  686MOL0     H94607   7.870   8.459  10.661 -0.8911 -0.6409 -1.6277
  686MOL0     H94608   7.900   8.394  10.824 -0.8294  1.9918 -1.2549
  686MOL0     H94609   7.983   8.189  10.731 -0.4573  1.4353  1.4098
  686MOL0     H94610   8.067   8.321  10.663 -0.4027  0.3638  0.1357
  686MOL0     H94611   8.003   8.145  10.492  1.6029  1.5716 -0.1486
  686MOL0     H94612   7.835   8.190  10.520  0.3250 -0.4321 -1.5035
  686MOL0     H94613   7.908   8.426  10.446 -0.5514  0.2622 -2.7268
  686MOL0     H94614   7.926   8.292  10.323 -1.4805  1.2244 -0.7715
  686MOL0     H94615   8.114   8.457  10.308  1.4826 -0.9777 -0.9905
  686MOL0     H94616   8.153   8.438  10.476  0.6910 -1.0330  0.4825
  686MOL0     H94617   8.146   8.221  10.136  0.8531 -0.2528 -1.6805
  686MOL0     H94618   8.375   8.066  10.047  2.9617 -2.4534 -2.0926
  686MOL0     H94619   8.300   7.948  10.152 -1.4015  1.9412 -1.3948
  686MOL0     H94620   8.507   7.903  10.273  0.1415 -0.2533  0.7317
  686MOL0     H94621   8.549   7.915  10.105 -1.0819  2.2202 -0.9882
  686MOL0     H94622   8.589   8.101  10.329 -0.4000  1.1816 -0.5519
  686MOL0     H94623   8.725   8.032  10.229 -1.0480 -3.0970 -1.1990
  686MOL0     H94624   8.647   8.183  10.036 -1.9966  0.3382 -0.2433
  686MOL0     H94625   8.539   8.262  10.163 -0.9408 -0.7656  1.5558
  686MOL0     H94626   8.898   8.239  10.364  0.3114 -1.5955 -0.0359
  686MOL0     H94627   9.163   8.053  10.385  0.3958 -0.0052  0.1648
  686MOL0     H94628   9.064   8.163  10.479 -0.0234  1.7274  0.1912
  686MOL0     H94629   9.211   8.235  10.418 -1.7124  2.8082 -0.2866
  686MOL0     H94630   9.480   7.885  10.164 -2.3405  1.1032  0.6898
  686MOL0     H94631   9.703   7.866  10.149 -0.4269 -0.0708 -2.4423
  686MOL0     H94632   9.954   8.225  10.113 -1.0015 -1.3932 -1.5624
  686MOL0     H94633   9.977   8.221  10.284  1.8871 -0.2488 -0.1140
  686MOL0     H94634  10.122   8.040  10.081 -1.4855  0.0318 -1.6008
  686MOL0     H94635  10.178   8.198  10.131  2.9592 -1.5508  0.0176
  686MOL0     H94636  10.134   8.002  10.342 -1.5713  1.7960 -0.1473
  686MOL0     H94637  10.226   8.149  10.342  0.6588 -1.0454  0.6595
  686MOL0     H94638  10.371   8.054  10.140 -1.0604  2.9787  0.6174
  686MOL0     H94639  10.319   7.898  10.207 -1.2768  0.4023 -0.9516
  686MOL0     H94640  10.433   8.098  10.406 -0.1716 -0.7318  0.1433
  686MOL0     H94641  10.414   7.929  10.415  0.4176 -0.7455  0.4957
  686MOL0     H94642  10.594   7.900  10.247 -3.4438 -1.4026  1.7230
  686MOL0     H94643  10.636   7.981  10.409  0.0873  0.9590  0.2190
  686MOL0     H94644  10.610   8.108  10.132 -1.4457  0.1368 -0.5708
  686MOL0     H94645  10.763   8.059  10.201 -1.3267 -0.0641 -0.1710
  686MOL0     H94646  10.716   8.226  10.387  0.5532 -2.9787 -0.5689
  686MOL0     H94647  10.566   8.270  10.311  0.1872  0.5415  0.6582
  686MOL0     H94648   9.752   8.287  10.207 -0.4752 -0.5318 -0.2391
  686MOL0     H94649   9.513   8.313  10.211 -1.1526 -0.0183 -1.5490
  686MOL0     H94650   9.089   8.209   9.916 -0.3931 -0.9494 -0.4017
  686MOL0     H94651   8.861   8.286   9.950 -3.7217 -0.5052  1.6683
  686MOL0     H94652   7.326   8.207  10.533 -0.5287  2.2992  0.9282
  686MOL0     H94653   7.097   8.093  10.519 -0.2363  1.4027  0.8610
  686MOL0     H94654   6.810   7.829  10.768  0.6620 -0.6194 -1.0599
  686MOL0     H94655   6.601   7.702  10.747 -0.7047 -0.3085  1.6111
  686MOL0     H94656   6.402   7.595  10.698 -2.2508 -3.2872  2.2609
  686MOL0     H94657   6.338   7.640  10.849 -1.1172 -2.1829 -0.6900
  686MOL0     H94658   6.167   7.672  10.598  1.1327 -2.4206 -0.9132
  686MOL0     H94659   6.120   7.682  10.767  1.9048  2.2216 -0.5933
  686MOL0     H94660   6.233   7.438  10.624  1.3838  2.1138  0.1550
  686MOL0     H94661   6.195   7.456  10.799  2.3585  1.7302  0.0241
  686MOL0     H94662   6.020   7.318  10.668 -0.0964 -0.0023  0.3581
  686MOL0     H94663   5.978   7.479  10.594 -0.1372  1.0014  0.4167
  686MOL0     H94664   5.768   7.485  10.946  1.4801  0.0035  0.9321
  686MOL0     H94665   6.379   8.049  10.745 -0.1566  0.8829  1.2782
  686MOL0     H94666   6.453   8.266  10.745 -0.1769  2.3685 -1.6318
  686MOL0     H94667   6.605   8.297  10.820 -0.3821 -0.2282 -0.9508
  686MOL0     H94668   6.599   8.279  10.641  2.0880  1.4800 -0.2019
  687MOL0     O94669   4.422  10.426   9.004  0.1265 -0.5329 -0.3395
  687MOL0     C94670   4.344  10.395   8.917 -0.2921  0.7241  0.0146
  687MOL0     O94671   4.362  10.285   8.837 -0.0538  0.0415  0.3233
  687MOL0     C94672   4.469  10.207   8.863 -0.8501  0.4531 -0.7612
  687MOL0     C94673   4.477  10.128   8.984  0.1255  0.1108 -0.3007
  687MOL0     C94674   4.592  10.057   9.018 -0.0203  0.2474  0.4658
  687MOL0     C94675   4.706  10.072   8.932 -0.2266 -0.2136  0.4922
  687MOL0     O94676   4.823  10.009   8.979  0.4213 -0.1440 -0.0706
  687MOL0     C94677   4.947  10.073   8.949 -1.3927  0.0087  0.2813
  687MOL0     C94678   5.068  10.017   9.029  0.3437 -0.3970 -0.4669
  687MOL0     C94679   5.202  10.075   8.980 -0.8498 -0.1763 -0.7939
  687MOL0     C94680   5.315   9.997   9.034 -0.6117  0.1674 -0.1179
  687MOL0     C94681   5.452  10.059   9.013  1.0463 -0.5622  0.0151
  687MOL0     C94682   5.570   9.974   9.057 -0.3988  0.5936 -0.2419
  687MOL0     C94683   5.710  10.038   9.031  0.3146  0.7106 -0.0170
  687MOL0     C94684   5.726  10.165   9.109 -0.2827 -0.1862 -0.0405
  687MOL0     N94685   5.868  10.203   9.097  0.3739 -0.5623 -0.1558
  687MOL0     C94686   5.907  10.328   9.082 -0.4697  0.8387  0.0688
  687MOL0     C94687   6.042  10.305   9.053 -0.4826 -0.4858  0.4283
  687MOL0     C94688   6.134  10.413   8.996 -0.2929  0.1782  1.0337
  687MOL0     C94689   6.278  10.410   9.050 -0.8220  1.2514  0.1989
  687MOL0     C94690   6.288  10.424   9.211 -0.2665  0.2385  0.2314
  687MOL0     C94691   6.429  10.384   9.265  0.1014 -0.5190  0.1349
  687MOL0     O94692   6.531  10.459   9.203  0.2079  0.4582 -0.3586
  687MOL0     C94693   6.652  10.456   9.263  0.8566  0.2483 -0.5484
  687MOL0     C94694   6.718  10.572   9.269 -0.0527 -0.2367  0.6741
  687MOL0     C94695   6.847  10.588   9.323  0.2400  0.7441  0.7060
  687MOL0     C94696   6.909  10.724   9.335  0.3998 -0.3206 -0.1479
  687MOL0     C94697   6.918  10.465   9.355  0.2499  0.6100  0.3379
  687MOL0     C94698   7.060  10.467   9.419 -0.3670 -0.5653  0.0252
  687MOL0     O94699   7.108  10.346   9.439  0.6239  0.1752 -0.4223
  687MOL0     C94700   7.217  10.327   9.517 -0.6133  0.8394  0.0976
  687MOL0     C94701   7.346  10.390   9.493 -0.0318 -0.4844 -0.4800
  687MOL0     C94702   7.454  10.369   9.576  0.8797 -0.2925  0.3303
  687MOL0     C94703   7.447  10.290   9.689  0.3860  0.2147  0.3939
  687MOL0     O94704   7.566  10.286   9.758 -0.4982 -0.0018 -0.9628
  687MOL0     C94705   7.594  10.176   9.847  0.1735 -0.0141 -0.6802
  687MOL0     C94706   7.739  10.195   9.900  1.2592  0.4406  0.5393
  687MOL0     C94707   7.837  10.216   9.787 -0.3754 -0.4934 -0.5298
  687MOL0     C94708   7.971  10.201   9.853  0.0986  0.3812  0.1316
  687MOL0     C94709   8.092  10.205   9.755 -0.4565  0.3768  0.8105
  687MOL0     C94710   8.230  10.189   9.811 -0.1454  0.7688 -0.3460
  687MOL0     C94711   8.260  10.245   9.954 -0.0024  0.2387 -0.1823
  687MOL0     C94712   8.398  10.203  10.018  0.4184  0.0805 -0.0133
  687MOL0    Cl94713   8.530  10.263   9.894  0.3978  0.0946 -0.3526
  687MOL0     C94714   7.335  10.221   9.711  0.6531  0.5155  0.1121
  687MOL0     C94715   7.220  10.234   9.624  0.0395 -0.4394 -0.5252
  687MOL0     O94716   7.114  10.570   9.456  0.3648 -0.3364 -0.6853
  687MOL0     C94717   6.853  10.341   9.331 -0.1636 -0.0219 -0.7653
  687MOL0     C94718   6.720  10.335   9.290 -0.2352  0.0540 -0.4163
  687MOL0     N94719   6.080  10.179   9.080 -0.2240  0.0784  0.5039
  687MOL0     N94720   5.973  10.112   9.098 -0.3163 -0.1767  0.5251
  687MOL0     C94721   4.705  10.147   8.817 -0.8027 -0.4218 -0.0143
  687MOL0     C94722   4.583  10.211   8.784 -0.1320  0.3301 -0.5051
  687MOL0     C94723   4.229  10.481   8.890 -0.0146  0.7840 -0.3940
  687MOL0     C94724   4.252  10.607   8.844 -0.0320 -0.0187  0.1569
  687MOL0     C94725   4.147  10.692   8.805  0.3204  0.0288 -0.5042
  687MOL0     C94726   4.012  10.646   8.806  0.0660 -0.9208  0.8705
  687MOL0     O94727   3.895  10.717   8.771 -0.3112  0.8786 -0.2482
  687MOL0     C94728   3.891  10.826   8.671 -0.4089 -0.4923  0.4738
  687MOL0     C94729   3.779  10.921   8.711 -0.3560  0.8499  0.3902
  687MOL0     C94730   3.745  11.031   8.619 -0.0265  0.8367 -0.2487
  687MOL0     C94731   3.665  10.976   8.498  0.4313  0.4327  1.2701
  687MOL0     C94732   3.622  11.096   8.426 -0.5088 -0.0647  0.9379
  687MOL0     C94733   3.601  11.203   8.368  0.3543 -0.2899  0.2067
  687MOL0     C94734   3.988  10.513   8.838  0.4049 -0.5005 -0.1699
  687MOL0     C94735   4.092  10.434   8.888 -0.2477 -0.0697 -0.3879
  687MOL0     C94736   4.071  10.288   8.910 -0.4223 -0.1182  0.3416
  687MOL0     H94737   4.394  10.134   9.053  0.4741  1.7769  0.0354
  687MOL0     H94738   4.592   9.999   9.110 -2.7188  0.2627  0.5474
  687MOL0     H94739   4.935  10.180   8.969 -0.3068  0.0033  1.0151
  687MOL0     H94740   4.963  10.060   8.841 -2.5470 -3.8513  0.4208
  687MOL0     H94741   5.064  10.051   9.133 -2.9254  0.7485 -0.8560
  687MOL0     H94742   5.077   9.909   9.014  0.3518 -0.9654  2.9091
  687MOL0     H94743   5.196  10.070   8.870  1.1417  0.5494 -0.9716
  687MOL0     H94744   5.216  10.180   9.009 -1.6314  0.2930 -2.0213
  687MOL0     H94745   5.291   9.990   9.140 -0.2581 -3.5106 -0.1400
  687MOL0     H94746   5.311   9.894   8.997  0.4591  0.6362 -1.6600
  687MOL0     H94747   5.446  10.157   9.062  0.5746  0.1175 -1.3320
  687MOL0     H94748   5.460  10.090   8.908 -1.0544 -1.3169 -0.4365
  687MOL0     H94749   5.560   9.960   9.165  0.9009  1.7567  0.0513
  687MOL0     H94750   5.555   9.873   9.018 -0.6051  0.9179 -1.0298
  687MOL0     H94751   5.712  10.053   8.923 -4.1960 -0.6445 -0.4826
  687MOL0     H94752   5.774   9.964   9.080 -0.0660  1.5302  1.7968
  687MOL0     H94753   5.665  10.242   9.061 -2.2824 -2.1928 -0.9350
  687MOL0     H94754   5.703  10.155   9.216  0.0561  0.5427  0.1039
  687MOL0     H94755   5.857  10.424   9.084  0.2851  1.2880 -1.0446
  687MOL0     H94756   6.108  10.518   9.013 -0.3664  0.3386  0.0178
  687MOL0     H94757   6.134  10.394   8.888 -0.6950 -0.7197  1.1877
  687MOL0     H94758   6.327  10.320   9.014  0.1637  1.6563  0.5085
  687MOL0     H94759   6.340  10.488   9.006 -0.6367 -0.1279 -2.1457
  687MOL0     H94760   6.261  10.526   9.242  0.4474  0.2765  0.7537
  687MOL0     H94761   6.219  10.351   9.253  0.0402  0.3995  1.0323
  687MOL0     H94762   6.431  10.404   9.372  0.1929  2.6198 -0.3332
  687MOL0     H94763   6.451  10.279   9.244  2.5514 -0.6123  2.6379
  687MOL0     H94764   6.684  10.660   9.215  2.6995  0.3355 -0.2563
  687MOL0     H94765   6.929  10.733   9.442 -2.4808 -1.7682  0.6165
  687MOL0     H94766   6.845  10.810   9.312 -1.2793 -1.9844 -2.1420
  687MOL0     H94767   7.000  10.729   9.274  0.9315  0.3064  0.6760
  687MOL0     H94768   7.351  10.464   9.413  0.0232  0.2689  0.2115
  687MOL0     H94769   7.543  10.426   9.550  1.1822 -0.3625  1.1693
  687MOL0     H94770   7.522  10.164   9.928  2.3191 -4.4792  0.9046
  687MOL0     H94771   7.596  10.078   9.797  1.6022 -0.7232  0.6844
  687MOL0     H94772   7.740  10.288   9.957 -1.3413  0.3890  0.7782
  687MOL0     H94773   7.762  10.112   9.967  0.3909  2.2648  3.2609
  687MOL0     H94774   7.832  10.315   9.741  1.5042 -0.0711  0.0800
  687MOL0     H94775   7.826  10.148   9.703  0.3124 -0.6011 -0.5373
  687MOL0     H94776   7.972  10.105   9.905  0.3352  0.6325  0.5994
  687MOL0     H94777   7.976  10.276   9.932 -1.6921 -0.6453  1.2859
  687MOL0     H94778   8.079  10.131   9.675 -1.1016  2.6472 -1.3244
  687MOL0     H94779   8.081  10.304   9.710 -0.3927  0.6060  1.2921
  687MOL0     H94780   8.303  10.229   9.741  0.6985 -0.2461 -0.0749
  687MOL0     H94781   8.256  10.083   9.818  1.0067  1.1434  2.6301
  687MOL0     H94782   8.182  10.210  10.022 -2.0054  3.7878 -0.4281
  687MOL0     H94783   8.257  10.354   9.960 -2.1416  0.4206 -2.6801
  687MOL0     H94784   8.398  10.095  10.033  0.0963 -0.2024 -1.7897
  687MOL0     H94785   8.416  10.258  10.111  1.0870 -2.0527  1.1895
  687MOL0     H94786   7.314  10.162   9.800  1.5007 -0.6749 -0.4536
  687MOL0     H94787   7.137  10.170   9.650 -0.9823  0.9106 -0.3568
  687MOL0     H94788   6.910  10.249   9.342 -1.5558 -0.9478 -1.0016
  687MOL0     H94789   6.682  10.233   9.287  2.8420 -1.3433  1.6737
  687MOL0     H94790   4.793  10.154   8.755  1.0339 -0.9786  2.3715
  687MOL0     H94791   4.578  10.279   8.699  0.8675  1.3813  0.2634
  687MOL0     H94792   4.355  10.643   8.835  0.3803  0.0310  3.7276
  687MOL0     H94793   4.170  10.797   8.785  1.8743 -0.1206  0.3317
  687MOL0     H94794   3.980  10.889   8.660 -0.4853 -0.5935 -0.9243
  687MOL0     H94795   3.882  10.779   8.573 -0.2493 -3.8325  1.9472
  687MOL0     H94796   3.805  10.965   8.807 -0.6348  1.4180  0.2064
  687MOL0     H94797   3.694  10.854   8.728 -0.4089  0.9967  0.7048
  687MOL0     H94798   3.673  11.095   8.672 -2.8238 -1.7276 -0.6724
  687MOL0     H94799   3.830  11.093   8.591 -0.7629  1.8629 -0.2924
  687MOL0     H94800   3.573  10.923   8.525 -0.8404  1.6295 -0.4077
  687MOL0     H94801   3.730  10.918   8.432 -0.3118 -0.8634  1.6412
  687MOL0     H94802   3.585  11.298   8.321  0.7058  0.3791  1.3771
  687MOL0     H94803   3.888  10.478   8.816 -0.7874  2.3952  0.2315
  687MOL0     H94804   4.132  10.262   8.997  0.6697  1.4393  0.0792
  687MOL0     H94805   3.964  10.280   8.932 -0.2425  0.7111  1.6773
  687MOL0     H94806   4.105  10.234   8.821  0.0349  0.2112  0.3134
  688MOL0     O94807   2.926   3.337   5.354  0.0251 -0.1330  0.0687
  688MOL0     C94808   2.848   3.431   5.380  0.7213 -0.4617 -0.1606
  688MOL0     O94809   2.884   3.560   5.407 -0.0689 -0.0419 -0.1483
  688MOL0     C94810   3.016   3.582   5.430 -0.5887  0.5509  0.0784
  688MOL0     C94811   3.080   3.520   5.532 -0.1783  0.2897  0.0727
  688MOL0     C94812   3.215   3.549   5.565  0.8380 -0.3009  0.1841
  688MOL0     C94813   3.287   3.643   5.489  0.5570  0.5134  0.6224
  688MOL0     O94814   3.410   3.680   5.512 -0.0354 -0.0373 -0.6970
  688MOL0     C94815   3.471   3.774   5.421 -0.5496  0.7844 -0.6305
  688MOL0     C94816   3.618   3.801   5.460 -0.6529 -0.3949 -0.1108
  688MOL0     C94817   3.712   3.836   5.345 -0.5674  1.0819 -0.2091
  688MOL0     C94818   3.847   3.871   5.403  0.3748  0.2642  0.0733
  688MOL0     C94819   3.950   3.871   5.292 -0.0321  0.8774  0.4399
  688MOL0     C94820   4.085   3.902   5.352 -0.4284  0.2325  0.2935
  688MOL0     C94821   4.192   3.945   5.256  0.5585  0.0637  0.0741
  688MOL0     C94822   4.167   4.086   5.199  0.1324 -0.5313 -0.2583
  688MOL0     N94823   4.290   4.147   5.131  0.0081 -0.1312  0.2330
  688MOL0     C94824   4.284   4.262   5.057  0.2485  0.0409 -1.0478
  688MOL0     C94825   4.415   4.281   5.022  0.9046 -0.6310  0.1049
  688MOL0     C94826   4.460   4.402   4.928  0.2190  1.0767 -0.5479
  688MOL0     C94827   4.417   4.353   4.788 -0.3391  0.0600  0.0417
  688MOL0     C94828   4.452   4.204   4.754  0.1628 -0.4905 -0.2774
  688MOL0     C94829   4.398   4.179   4.611 -0.2464  0.2086 -0.9740
  688MOL0     O94830   4.472   4.244   4.511  0.4435 -0.7472 -0.3204
  688MOL0     C94831   4.572   4.184   4.447  0.1201  0.6151 -0.1655
  688MOL0     C94832   4.618   4.246   4.333 -0.3899  0.3534 -0.1495
  688MOL0     C94833   4.733   4.212   4.263 -0.9186  0.4952 -0.8187
  688MOL0     C94834   4.793   4.297   4.150 -1.0867 -0.3465  0.0333
  688MOL0     C94835   4.805   4.096   4.302 -0.0942 -0.3558  0.6842
  688MOL0     C94836   4.923   4.051   4.227 -0.8507  0.0384  0.2803
  688MOL0     O94837   5.031   4.016   4.312  0.0603  0.2913 -0.2151
  688MOL0     C94838   5.117   3.916   4.264  0.0483 -0.2557  0.2386
  688MOL0     C94839   5.071   3.812   4.186 -0.8136  0.1061  0.0337
  688MOL0     C94840   5.161   3.703   4.159  0.2727  0.7388  0.8249
  688MOL0     C94841   5.299   3.711   4.176 -0.8612 -0.4639  0.0896
  688MOL0     O94842   5.393   3.617   4.153  0.2688 -0.2484 -0.0190
  688MOL0     C94843   5.355   3.497   4.092  0.5464 -0.0593  0.1037
  688MOL0     C94844   5.479   3.406   4.084 -0.2177 -0.3902 -0.0710
  688MOL0     C94845   5.462   3.279   3.990 -0.6406 -0.1735 -0.4268
  688MOL0     C94846   5.587   3.203   3.984 -0.1173 -0.4970  0.7632
  688MOL0     C94847   5.556   3.075   3.904  0.2224 -0.1122  0.1996
  688MOL0     C94848   5.674   2.992   3.860  0.2630  0.3277 -0.1373
  688MOL0     C94849   5.631   2.873   3.783 -0.2303  0.0528  0.1752
  688MOL0     C94850   5.740   2.797   3.707 -0.6736  0.4195 -0.6595
  688MOL0    Cl94851   5.897   2.783   3.794  0.0791  0.0776 -0.4111
  688MOL0     C94852   5.343   3.833   4.237 -0.6412 -0.2018 -0.9626
  688MOL0     C94853   5.256   3.927   4.289 -0.4861 -0.4203  0.0680
  688MOL0     O94854   4.914   4.041   4.105 -0.3215  0.6626 -0.6141
  688MOL0     C94855   4.755   4.020   4.404  0.5360  0.4747  0.0258
  688MOL0     C94856   4.642   4.068   4.478 -0.5469  0.3379  0.9455
  688MOL0     N94857   4.490   4.180   5.075 -0.3146  0.5632 -0.3714
  688MOL0     N94858   4.419   4.095   5.135  0.4109  0.0524  0.8068
  688MOL0     C94859   3.214   3.693   5.375  0.6684 -0.7493 -0.0515
  688MOL0     C94860   3.090   3.661   5.343 -0.2349 -1.3700  0.6435
  688MOL0     C94861   2.707   3.400   5.383  0.9261 -0.7860 -0.2701
  688MOL0     C94862   2.618   3.496   5.341 -0.3532 -0.4494  1.0097
  688MOL0     C94863   2.482   3.466   5.313 -0.6113 -0.0067 -0.7142
  688MOL0     C94864   2.427   3.342   5.359 -0.1603 -0.5900  0.1550
  688MOL0     O94865   2.296   3.307   5.334  0.3472  0.4771 -0.0049
  688MOL0     C94866   2.206   3.393   5.273  0.5380  0.0548  0.7301
  688MOL0     C94867   2.100   3.311   5.209  0.2626  0.0294  0.5187
  688MOL0     C94868   2.028   3.211   5.306  0.3715 -0.4353  0.2922
  688MOL0     C94869   1.878   3.180   5.272  0.2202  0.7830 -0.0602
  688MOL0     C94870   1.852   3.114   5.139  0.2177  1.0395  0.2730
  688MOL0     C94871   1.817   3.068   5.037  0.0121 -0.6303  0.7564
  688MOL0     C94872   2.514   3.247   5.415 -0.0471  0.3561 -0.6316
  688MOL0     C94873   2.650   3.275   5.417 -0.3653  0.3110 -0.0255
  688MOL0     C94874   2.746   3.163   5.461  0.3367 -0.0566  0.3250
  688MOL0     H94875   3.029   3.449   5.597  2.6002 -1.1486  0.8713
  688MOL0     H94876   3.263   3.496   5.647  2.7280 -0.7704 -1.1419
  688MOL0     H94877   3.412   3.865   5.407 -1.3905  0.0774 -1.8734
  688MOL0     H94878   3.483   3.728   5.322  1.0780 -1.5641  0.5482
  688MOL0     H94879   3.631   3.868   5.546  2.6977  0.2997 -0.9959
  688MOL0     H94880   3.643   3.705   5.506  1.3369 -0.8682 -2.0342
  688MOL0     H94881   3.711   3.748   5.280 -0.9929  1.3888 -0.6282
  688MOL0     H94882   3.680   3.924   5.288  2.8526  2.4165 -0.3081
  688MOL0     H94883   3.835   3.972   5.441  1.1384  1.8952 -3.5480
  688MOL0     H94884   3.877   3.796   5.477  4.7823  1.4224 -0.2782
  688MOL0     H94885   3.913   3.945   5.221  0.3737  0.2770 -0.4184
  688MOL0     H94886   3.947   3.775   5.239  1.8762  1.6835 -1.2638
  688MOL0     H94887   4.063   3.976   5.430  0.2174  1.1889 -0.4088
  688MOL0     H94888   4.117   3.811   5.404 -1.2396 -0.8055 -0.9695
  688MOL0     H94889   4.196   3.870   5.176 -0.8223 -0.4315  0.4407
  688MOL0     H94890   4.285   3.944   5.313 -0.1818 -0.3465  1.3073
  688MOL0     H94891   4.072   4.087   5.144  0.0779 -2.2526 -0.2455
  688MOL0     H94892   4.155   4.146   5.289 -0.1875 -0.0561 -0.6158
  688MOL0     H94893   4.205   4.327   5.019  1.4247  0.1095 -3.6060
  688MOL0     H94894   4.567   4.413   4.947  0.3667 -1.5982  0.5848
  688MOL0     H94895   4.411   4.495   4.959  3.0549  3.2352 -2.1498
  688MOL0     H94896   4.310   4.374   4.773 -0.3324 -2.1236 -4.9042
  688MOL0     H94897   4.468   4.417   4.715  0.7271 -1.7744 -0.8884
  688MOL0     H94898   4.558   4.177   4.763  0.3711 -0.5432 -2.3590
  688MOL0     H94899   4.399   4.138   4.824  0.6093 -1.3761 -0.7594
  688MOL0     H94900   4.384   4.072   4.591 -0.8983 -0.5632  2.7620
  688MOL0     H94901   4.294   4.208   4.595 -0.5237 -0.7319 -0.9393
  688MOL0     H94902   4.571   4.341   4.307 -2.9855 -0.6247  0.6673
  688MOL0     H94903   4.771   4.400   4.178  0.5667 -0.2607  1.1352
  688MOL0     H94904   4.762   4.273   4.048  4.3145 -0.8964 -1.7847
  688MOL0     H94905   4.902   4.287   4.141 -1.0978 -4.0493  2.0965
  688MOL0     H94906   4.965   3.795   4.168 -0.5831 -1.1738 -0.2228
  688MOL0     H94907   5.115   3.614   4.118 -1.3883  1.2909  1.3971
  688MOL0     H94908   5.277   3.448   4.151  2.7985 -1.9486  1.7131
  688MOL0     H94909   5.327   3.523   3.990  1.6576  2.1303  0.2962
  688MOL0     H94910   5.565   3.463   4.048 -1.2496  0.3109 -1.5415
  688MOL0     H94911   5.506   3.371   4.184  2.6354  0.2689 -0.5364
  688MOL0     H94912   5.439   3.319   3.890  3.2022  3.9089 -0.0208
  688MOL0     H94913   5.379   3.216   4.021 -0.6591 -0.7512 -1.5925
  688MOL0     H94914   5.626   3.168   4.080 -0.4700  0.7603  1.3818
  688MOL0     H94915   5.660   3.268   3.937  0.1430 -0.4680  1.2046
  688MOL0     H94916   5.492   3.008   3.962  0.5716 -1.0526 -0.4649
  688MOL0     H94917   5.495   3.101   3.817 -0.3623 -0.3933  0.5211
  688MOL0     H94918   5.743   2.961   3.939  0.2117 -1.9428 -0.9153
  688MOL0     H94919   5.732   3.050   3.788  1.9605  0.3322  1.1711
  688MOL0     H94920   5.559   2.906   3.708 -0.9655 -1.3998  0.2001
  688MOL0     H94921   5.580   2.800   3.847 -0.1991  1.7860  2.3167
  688MOL0     H94922   5.760   2.853   3.615  0.5711  0.4530 -0.3942
  688MOL0     H94923   5.703   2.699   3.676  1.0528 -0.2028 -0.8801
  688MOL0     H94924   5.447   3.853   4.261 -0.7353  0.9303 -1.4108
  688MOL0     H94925   5.292   4.013   4.344  0.7136 -0.9450  0.1322
  688MOL0     H94926   4.816   3.936   4.437  2.4966  2.2722  1.1631
  688MOL0     H94927   4.610   4.022   4.571  1.1394  0.8347  1.8101
  688MOL0     H94928   3.257   3.751   5.294 -2.2658  1.2932 -0.3233
  688MOL0     H94929   3.056   3.703   5.249  5.1627 -0.1716 -1.1474
  688MOL0     H94930   2.663   3.591   5.315  0.3968 -0.5234  1.9643
  688MOL0     H94931   2.415   3.537   5.267 -0.1548  1.6088  0.9851
  688MOL0     H94932   2.162   3.463   5.345 -0.1252  0.4577 -0.0651
  688MOL0     H94933   2.244   3.458   5.194 -1.8191  0.6949  0.0347
  688MOL0     H94934   2.140   3.250   5.127  3.0930 -0.3032  2.0452
  688MOL0     H94935   2.028   3.386   5.176  1.5675  1.2516  0.3444
  688MOL0     H94936   2.083   3.118   5.295  1.7823  0.4882 -0.7222
  688MOL0     H94937   2.031   3.248   5.409  2.5088  0.4682 -0.0470
  688MOL0     H94938   1.817   3.270   5.284 -3.0143 -0.9259 -2.2550
  688MOL0     H94939   1.839   3.110   5.346 -1.8101  0.5234 -1.3006
  688MOL0     H94940   1.780   3.020   4.949  1.7893  0.0409 -0.4301
  688MOL0     H94941   2.486   3.147   5.447 -0.0859  0.3326 -0.7379
  688MOL0     H94942   2.771   3.105   5.372 -1.3135 -0.9964  0.4131
  688MOL0     H94943   2.833   3.200   5.515  0.5012  0.6128 -0.3902
  688MOL0     H94944   2.685   3.095   5.523  0.7890 -0.1530  0.6729
  689MOL0     O94945   9.086   4.777   9.166 -0.3090 -0.1453 -0.3965
  689MOL0     C94946   9.018   4.853   9.095  0.0314 -0.0506  0.4115
  689MOL0     O94947   9.061   4.896   8.965  0.2017  0.5873 -0.2829
  689MOL0     C94948   9.176   4.845   8.918  0.3792 -0.6173  0.5006
  689MOL0     C94949   9.300   4.856   8.990  0.1988  0.0600  0.2077
  689MOL0     C94950   9.419   4.798   8.932  0.6834 -0.1630 -0.3467
  689MOL0     C94951   9.411   4.723   8.811  0.5289 -0.5528 -1.6983
  689MOL0     O94952   9.521   4.656   8.757  0.1677 -0.1057  0.0172
  689MOL0     C94953   9.647   4.663   8.823 -0.7617 -0.3179 -1.0989
  689MOL0     C94954   9.758   4.609   8.734  0.9624  1.1562 -0.1866
  689MOL0     C94955   9.894   4.637   8.796 -0.5157  0.8178  0.9486
  689MOL0     C94956  10.004   4.623   8.686 -0.0115 -0.3038  0.1964
  689MOL0     C94957  10.149   4.647   8.747 -0.5944 -0.0675 -0.2336
  689MOL0     C94958  10.256   4.620   8.640 -0.0725 -0.0917 -0.0284
  689MOL0     C94959  10.285   4.751   8.553  0.3399 -0.7955 -0.2401
  689MOL0     C94960  10.393   4.727   8.449  0.5163 -0.4110 -0.2466
  689MOL0     N94961  10.519   4.783   8.509  0.4863 -0.2500  0.6077
  689MOL0     C94962  10.544   4.915   8.504 -0.2511 -0.1422  0.3034
  689MOL0     C94963  10.648   4.930   8.587  0.2583 -0.3362 -1.0376
  689MOL0     C94964  10.707   5.061   8.618  0.1750 -0.4107 -0.3883
  689MOL0     C94965  10.813   5.117   8.535 -0.3035 -0.3301 -0.4009
  689MOL0     C94966  10.778   5.182   8.404 -0.4115  0.1018 -0.0592
  689MOL0     C94967  10.881   5.257   8.326  0.7318 -0.2825 -0.1003
  689MOL0     O94968  11.007   5.188   8.330  0.2443  0.5074  0.2945
  689MOL0     C94969  11.097   5.244   8.244 -0.6499 -0.3986  0.0780
  689MOL0     C94970  11.093   5.367   8.182 -1.0645  0.8026  0.3501
  689MOL0     C94971  11.201   5.406   8.105 -0.0540  0.3913  0.0007
  689MOL0     C94972  11.188   5.543   8.044  0.3641 -0.2031 -0.2834
  689MOL0     C94973  11.313   5.324   8.087  0.5164  0.9747  0.0752
  689MOL0     C94974  11.434   5.353   8.006 -0.3263  0.3806  0.3399
  689MOL0     O94975  11.547   5.265   8.013 -0.3468 -0.6019  0.3731
  689MOL0     C94976  11.658   5.297   7.927  0.7321  0.4255  0.4161
  689MOL0     C94977  11.729   5.413   7.934 -0.3237  0.1307  0.3049
  689MOL0     C94978  11.831   5.436   7.837 -0.6809 -0.4778 -0.0690
  689MOL0     C94979  11.864   5.343   7.736  0.5950  0.5179 -0.4801
  689MOL0     O94980  11.960   5.365   7.641 -0.5937  0.5999  0.8040
  689MOL0     C94981  12.022   5.490   7.610 -0.4746 -0.2267  0.2724
  689MOL0     C94982  12.150   5.486   7.540 -1.0643  0.3390  0.0400
  689MOL0     C94983  12.256   5.410   7.627 -0.3527  0.0124 -0.0605
  689MOL0     C94984  12.389   5.401   7.542  0.8251  0.2413 -0.2017
  689MOL0     C94985  12.488   5.307   7.616 -0.3168  0.3382  0.3022
  689MOL0     C94986  12.614   5.291   7.527 -0.3529  0.9076 -0.0677
  689MOL0     C94987  12.724   5.219   7.616  0.5098 -0.1485  0.4771
  689MOL0     C94988  12.844   5.188   7.531  0.7719 -0.4683  0.0059
  689MOL0    Cl94989  12.899   5.350   7.478  0.5679 -0.0628 -0.2753
  689MOL0     C94990  11.796   5.223   7.744  0.3859  0.5299  0.6701
  689MOL0     C94991  11.695   5.200   7.838 -0.0271 -0.5766  0.7901
  689MOL0     O94992  11.422   5.441   7.917  0.1841  0.4738 -0.1073
  689MOL0     C94993  11.323   5.198   8.151  0.7923 -0.2746 -0.9522
  689MOL0     C94994  11.212   5.164   8.226 -0.6712 -0.4462  0.1191
  689MOL0     N94995  10.703   4.805   8.625  0.2401 -0.1051  0.3018
  689MOL0     N94996  10.623   4.714   8.565  0.2325  0.0678 -0.3169
  689MOL0     C94997   9.287   4.706   8.751  0.1550 -0.0744  0.0509
  689MOL0     C94998   9.169   4.769   8.806 -0.2267 -0.2294  0.0217
  689MOL0     C94999   8.896   4.910   9.153 -0.5466 -0.3619 -0.5815
  689MOL0     C95000   8.882   4.902   9.299 -0.2447  0.3077 -0.4665
  689MOL0     C95001   8.768   4.964   9.353 -0.1535 -0.0337 -1.2507
  689MOL0     C95002   8.664   5.020   9.278  0.1041  0.4305 -1.2644
  689MOL0     O95003   8.555   5.065   9.349  0.3214 -0.4687  0.1135
  689MOL0     C95004   8.428   5.093   9.291  0.0091  0.0696  0.5510
  689MOL0     C95005   8.341   4.990   9.338  0.0823 -0.5109 -0.1551
  689MOL0     C95006   8.344   4.972   9.488  0.2235  0.0394 -0.3380
  689MOL0     C95007   8.248   4.865   9.527 -0.0166 -0.0274  0.6081
  689MOL0     C95008   8.263   4.816   9.660 -0.7436 -1.0624  0.8726
  689MOL0     C95009   8.273   4.770   9.773 -0.1256 -0.2921 -0.4808
  689MOL0     C95010   8.678   5.026   9.140 -0.0046  0.9201  0.5527
  689MOL0     C95011   8.791   4.963   9.083 -0.8553 -0.6798  0.9240
  689MOL0     C95012   8.789   4.974   8.928  0.0884 -0.3209 -0.6117
  689MOL0     H95013   9.293   4.905   9.087  2.7975 -0.6211  0.8343
  689MOL0     H95014   9.515   4.806   8.982  0.0228  2.4008  0.6322
  689MOL0     H95015   9.641   4.600   8.912 -0.9691  1.6133  0.3239
  689MOL0     H95016   9.664   4.767   8.853 -0.0069 -0.9774  0.8511
  689MOL0     H95017   9.744   4.500   8.736 -0.1169  1.2764  1.9715
  689MOL0     H95018   9.753   4.647   8.632  2.2969 -3.2382 -2.1542
  689MOL0     H95019   9.893   4.740   8.833 -1.7764  2.2714 -2.6578
  689MOL0     H95020   9.912   4.571   8.881  3.4618 -0.2733 -0.4983
  689MOL0     H95021  10.001   4.529   8.629  1.2104 -0.8259  0.9565
  689MOL0     H95022   9.977   4.696   8.609 -2.0618 -1.5132 -0.3113
  689MOL0     H95023  10.164   4.578   8.831  0.2153  1.7302  1.1683
  689MOL0     H95024  10.164   4.748   8.786 -2.4738  0.8154 -1.6914
  689MOL0     H95025  10.353   4.588   8.680 -0.5867 -2.5090 -0.5578
  689MOL0     H95026  10.232   4.538   8.572 -2.0604  0.4432 -0.0439
  689MOL0     H95027  10.315   4.828   8.624  1.0414 -3.1783  2.2230
  689MOL0     H95028  10.195   4.778   8.497  1.2718 -1.8140 -2.3114
  689MOL0     H95029  10.404   4.624   8.413  0.6341  0.1043 -1.7342
  689MOL0     H95030  10.366   4.793   8.367 -4.4843 -0.3912  1.1138
  689MOL0     H95031  10.479   4.994   8.467 -2.6634 -1.4968  1.4423
  689MOL0     H95032  10.736   5.044   8.722 -0.9874 -2.8695 -0.3950
  689MOL0     H95033  10.624   5.133   8.609  0.5983  0.3434  1.3891
  689MOL0     H95034  10.844   5.204   8.594 -2.9695 -0.1509  0.8872
  689MOL0     H95035  10.888   5.039   8.523  0.8061  0.5324  0.6596
  689MOL0     H95036  10.748   5.109   8.328  0.1085  1.8975 -2.0887
  689MOL0     H95037  10.696   5.251   8.424  0.7385  1.1929  1.0561
  689MOL0     H95038  10.835   5.282   8.230 -2.8051  0.9432  1.7631
  689MOL0     H95039  10.884   5.348   8.387 -1.2558 -0.8348  0.8953
  689MOL0     H95040  11.008   5.434   8.189 -1.5657  0.2292 -0.0224
  689MOL0     H95041  11.104   5.598   8.089 -0.4246 -1.6484  0.0716
  689MOL0     H95042  11.176   5.523   7.938 -0.2388 -3.0391  0.2561
  689MOL0     H95043  11.276   5.608   8.051  0.1797  0.1418 -1.1059
  689MOL0     H95044  11.721   5.489   8.011  5.4359  0.6069  0.8923
  689MOL0     H95045  11.885   5.530   7.833 -2.6803  0.7868  1.0169
  689MOL0     H95046  11.954   5.542   7.541  2.0943  2.0185 -0.7626
  689MOL0     H95047  12.017   5.557   7.696 -1.6701 -2.4959  2.0986
  689MOL0     H95048  12.143   5.430   7.446  0.0890 -0.7502  0.5755
  689MOL0     H95049  12.187   5.587   7.519  0.6684 -0.0551  0.9820
  689MOL0     H95050  12.229   5.305   7.647  3.8219 -0.9949  1.1821
  689MOL0     H95051  12.271   5.465   7.720 -1.0894  1.4495 -0.7535
  689MOL0     H95052  12.436   5.500   7.545 -1.7270  1.4941  1.6692
  689MOL0     H95053  12.376   5.375   7.436 -0.8317  1.0981 -0.2375
  689MOL0     H95054  12.508   5.335   7.720 -0.6129 -0.9856  0.7401
  689MOL0     H95055  12.436   5.210   7.619 -1.3598  0.9032  1.4294
  689MOL0     H95056  12.644   5.395   7.508  0.7417  0.5487 -0.3240
  689MOL0     H95057  12.595   5.232   7.437  0.1754 -0.8035  0.8991
  689MOL0     H95058  12.692   5.123   7.657 -1.7600  0.6184  0.6328
  689MOL0     H95059  12.761   5.284   7.695  0.2036 -0.9377  1.2788
  689MOL0     H95060  12.810   5.139   7.439 -0.5301  2.2409 -1.0648
  689MOL0     H95061  12.914   5.131   7.592  0.3685 -1.0358 -0.0477
  689MOL0     H95062  11.806   5.167   7.652 -2.1468  0.5891  0.2874
  689MOL0     H95063  11.644   5.105   7.848 -0.9609 -0.0080  1.7330
  689MOL0     H95064  11.411   5.136   8.141  0.8093 -0.1823 -1.3945
  689MOL0     H95065  11.220   5.067   8.274  2.7682 -0.0250  0.6715
  689MOL0     H95066   9.283   4.645   8.660 -0.9325  2.5634 -1.7887
  689MOL0     H95067   9.076   4.779   8.750  0.3444 -1.3536 -1.1811
  689MOL0     H95068   8.949   4.858   9.372 -0.5759  1.3276  0.4727
  689MOL0     H95069   8.767   4.972   9.462 -0.5213  2.1817 -1.3715
  689MOL0     H95070   8.385   5.188   9.327 -2.8311 -1.4987  1.6537
  689MOL0     H95071   8.433   5.104   9.182  1.9648  1.8829  0.7574
  689MOL0     H95072   8.374   4.896   9.292 -2.2366 -2.7307  2.3151
  689MOL0     H95073   8.239   5.014   9.306 -0.4298  0.3027  1.8732
  689MOL0     H95074   8.444   4.963   9.532  0.0080  0.7993  0.3501
  689MOL0     H95075   8.297   5.061   9.531 -1.0714 -0.7325 -0.1027
  689MOL0     H95076   8.254   4.778   9.461 -2.2353  1.1134 -1.2550
  689MOL0     H95077   8.142   4.890   9.515  0.6494  2.5587 -0.3794
  689MOL0     H95078   8.281   4.713   9.863 -0.4013 -0.7410 -0.7397
  689MOL0     H95079   8.605   5.072   9.074 -0.9629 -1.3233 -0.0422
  689MOL0     H95080   8.829   4.881   8.889 -2.4443 -3.1930  2.9190
  689MOL0     H95081   8.686   4.982   8.893 -0.4755  2.8011  1.3447
  689MOL0     H95082   8.840   5.059   8.883 -1.6635  0.5465 -1.0618
  690MOL0     O95083   8.797   0.806   1.118 -0.4588  0.1450 -0.7975
  690MOL0     C95084   8.719   0.713   1.087 -1.1896  0.2571  0.2671
  690MOL0     O95085   8.754   0.618   0.997 -0.4796 -0.9064  0.4470
  690MOL0     C95086   8.875   0.605   0.943  0.1719  0.6436 -0.4301
  690MOL0     C95087   8.993   0.610   1.018  0.4344  0.2612  0.1918
  690MOL0     C95088   9.115   0.592   0.945 -0.0217 -0.0175 -0.3371
  690MOL0     C95089   9.109   0.573   0.805 -0.0683 -0.1001 -1.7814
  690MOL0     O95090   9.222   0.572   0.722  0.0533  0.4646  0.4475
  690MOL0     C95091   9.338   0.511   0.784 -0.6029  0.4098  0.6578
  690MOL0     C95092   9.455   0.531   0.674  0.3161  0.3280 -0.3962
  690MOL0     C95093   9.484   0.679   0.657 -0.1117 -0.2435 -0.7274
  690MOL0     C95094   9.540   0.751   0.786  0.4894  0.9973 -0.3304
  690MOL0     C95095   9.690   0.733   0.808 -0.0608 -0.5387  0.5964
  690MOL0     C95096   9.733   0.804   0.938 -1.0579 -0.3402 -0.0800
  690MOL0     C95097   9.884   0.818   0.936 -0.1646  0.6710  0.0667
  690MOL0     C95098   9.958   0.691   0.972  0.1648 -0.2624  0.1005
  690MOL0     N95099  10.102   0.707   0.980  0.1307 -0.9521  0.6634
  690MOL0     C95100  10.175   0.806   1.049 -0.1679  0.2701  0.0122
  690MOL0     C95101  10.298   0.806   1.004  0.6299 -0.0701  0.2662
  690MOL0     C95102  10.405   0.906   1.037  0.8838  0.6266 -0.8197
  690MOL0     C95103  10.472   0.857   1.155  0.0733 -0.3108 -0.8448
  690MOL0     C95104  10.579   0.954   1.208  0.7080 -0.4723 -0.1148
  690MOL0     C95105  10.646   0.907   1.333 -0.1654 -0.6720 -0.5073
  690MOL0     O95106  10.557   0.894   1.450 -0.3668  0.1746 -0.0209
  690MOL0     C95107  10.620   0.892   1.576  0.3520 -0.3433  0.6946
  690MOL0     C95108  10.540   0.925   1.683 -0.4164 -0.5112  0.5790
  690MOL0     C95109  10.594   0.962   1.808  0.1192 -0.6669 -0.3683
  690MOL0     C95110  10.490   1.004   1.911 -0.8584  0.0822 -0.0418
  690MOL0     C95111  10.736   0.950   1.822  0.0389 -0.0114  0.0313
  690MOL0     C95112  10.803   0.968   1.949  0.0208 -0.6039  0.1355
  690MOL0     O95113  10.924   1.037   1.953 -0.3462 -0.6994 -0.1251
  690MOL0     C95114  11.018   1.016   2.058  0.3585 -0.2790 -0.5925
  690MOL0     C95115  11.126   1.103   2.062  0.1080 -1.3455  0.7668
  690MOL0     C95116  11.229   1.095   2.154 -0.1395  0.4173  0.0682
  690MOL0     C95117  11.232   1.016   2.266  0.1767 -0.1345 -0.3511
  690MOL0     O95118  11.343   1.011   2.349  0.0493  0.1469 -0.0857
  690MOL0     C95119  11.360   0.894   2.436  0.4157  0.2656 -0.2804
  690MOL0     C95120  11.485   0.913   2.506 -0.6299  0.6929  0.0168
  690MOL0     C95121  11.615   0.910   2.409  0.4196  0.5223 -0.4801
  690MOL0     C95122  11.733   0.966   2.491  0.3011  0.7917 -0.2793
  690MOL0     C95123  11.865   0.896   2.479 -1.2053 -0.2928 -0.9702
  690MOL0     C95124  11.976   0.943   2.579 -0.8539 -0.0132 -0.1573
  690MOL0     C95125  12.118   0.910   2.528 -0.1921 -0.0117  0.2306
  690MOL0     C95126  12.138   0.756   2.496 -0.5754 -0.2494 -0.4882
  690MOL0    Cl95127  12.301   0.709   2.439 -0.0810  0.0130 -0.4282
  690MOL0     C95128  11.120   0.921   2.262 -0.2436  0.1736  0.2123
  690MOL0     C95129  11.024   0.922   2.163  0.0712  0.3548  0.2308
  690MOL0     O95130  10.758   0.913   2.041  0.4580 -0.3535 -0.3771
  690MOL0     C95131  10.817   0.909   1.711 -0.5848 -0.5478  0.5763
  690MOL0     C95132  10.754   0.874   1.593  0.0468 -0.1030 -0.0349
  690MOL0     N95133  10.303   0.703   0.910 -0.4752 -0.4450 -0.1448
  690MOL0     N95134  10.186   0.651   0.891 -0.2322  0.3082  0.4566
  690MOL0     C95135   8.990   0.572   0.738  0.9319  0.2258  0.8718
  690MOL0     C95136   8.870   0.593   0.805  0.2781  0.8566  0.4024
  690MOL0     C95137   8.581   0.724   1.141 -0.3641 -0.0056 -0.1181
  690MOL0     C95138   8.472   0.671   1.069  0.3999  0.1911  0.6893
  690MOL0     C95139   8.339   0.670   1.117  0.1350  0.4824 -0.2669
  690MOL0     C95140   8.317   0.720   1.248 -0.1588  0.7223 -0.6304
  690MOL0     O95141   8.196   0.732   1.316  1.0073  0.0133 -0.2331
  690MOL0     C95142   8.077   0.720   1.236 -0.4268 -1.0995  0.8207
  690MOL0     C95143   8.052   0.855   1.161  0.0546  0.1296 -0.0290
  690MOL0     C95144   8.025   0.976   1.252  0.2425 -0.5272 -0.6576
  690MOL0     C95145   8.142   1.041   1.324 -0.0646 -0.1235 -0.5984
  690MOL0     C95146   8.097   1.151   1.414 -0.6617  0.3944 -0.0981
  690MOL0     C95147   8.048   1.235   1.484  0.1144 -0.1871  0.1240
  690MOL0     C95148   8.425   0.775   1.319 -0.0072 -1.1445  0.4073
  690MOL0     C95149   8.557   0.782   1.269 -0.2508  1.6597  0.4298
  690MOL0     C95150   8.660   0.841   1.362  0.1764 -0.8024 -0.1017
  690MOL0     H95151   8.985   0.638   1.123 -1.3004  0.2388  0.0907
  690MOL0     H95152   9.207   0.588   1.003 -0.8459 -1.1781  0.9569
  690MOL0     H95153   9.327   0.406   0.813  0.5830  0.6439  2.0839
  690MOL0     H95154   9.369   0.554   0.879  1.3164 -2.3868  1.4316
  690MOL0     H95155   9.545   0.473   0.693 -0.2206 -0.6623 -0.7968
  690MOL0     H95156   9.416   0.501   0.576 -0.2356  0.2194 -0.1469
  690MOL0     H95157   9.559   0.696   0.579  0.6672 -0.1221  0.0362
  690MOL0     H95158   9.394   0.732   0.623 -0.7744 -1.0605 -0.3101
  690MOL0     H95159   9.511   0.856   0.784  4.5738  2.2992 -0.4553
  690MOL0     H95160   9.492   0.709   0.875  0.7024 -1.1109 -1.1371
  690MOL0     H95161   9.746   0.772   0.722 -1.2336 -2.3634 -1.0962
  690MOL0     H95162   9.711   0.626   0.810 -1.3249 -0.8200  0.0776
  690MOL0     H95163   9.686   0.903   0.947  0.8531  0.4266  3.0381
  690MOL0     H95164   9.705   0.752   1.030 -2.7251 -0.3803 -0.5812
  690MOL0     H95165   9.895   0.894   1.014 -0.2158  1.3799 -0.6022
  690MOL0     H95166   9.915   0.870   0.845 -0.2027  0.0437 -0.3139
  690MOL0     H95167   9.923   0.645   1.065 -2.1052 -1.7513 -1.3830
  690MOL0     H95168   9.936   0.613   0.899  2.6204 -0.4982 -0.4770
  690MOL0     H95169  10.132   0.870   1.125 -1.1646 -0.5937  0.1989
  690MOL0     H95170  10.356   1.002   1.056 -0.3894 -0.3387  1.1582
  690MOL0     H95171  10.469   0.932   0.952  1.1345 -1.0174 -1.1580
  690MOL0     H95172  10.398   0.847   1.235  2.5629  1.5295  1.9354
  690MOL0     H95173  10.513   0.756   1.145  1.1427 -0.1400  1.1894
  690MOL0     H95174  10.653   0.984   1.133  1.1807  2.3536  1.3523
  690MOL0     H95175  10.531   1.048   1.236  1.5768 -1.0292  3.9568
  690MOL0     H95176  10.696   0.812   1.313  0.7572 -0.3496  0.1828
  690MOL0     H95177  10.723   0.980   1.360 -3.8576  1.8441  5.1155
  690MOL0     H95178  10.435   0.924   1.658 -0.7388 -0.1976  1.8402
  690MOL0     H95179  10.430   0.929   1.964  1.4405 -0.7588  1.5267
  690MOL0     H95180  10.422   1.079   1.869 -1.3444  0.1502  0.8393
  690MOL0     H95181  10.539   1.060   1.991 -1.0544  2.9155 -1.7519
  690MOL0     H95182  11.123   1.175   1.981  4.9817 -2.2202 -0.5792
  690MOL0     H95183  11.308   1.165   2.129 -1.4674  1.5731 -1.1466
  690MOL0     H95184  11.283   0.894   2.514  1.3533  3.3464  0.7864
  690MOL0     H95185  11.357   0.798   2.383  0.8628  1.4140 -2.4807
  690MOL0     H95186  11.482   1.009   2.557  1.0796  2.0475 -2.1942
  690MOL0     H95187  11.502   0.832   2.578  0.9433  1.2070  0.2767
  690MOL0     H95188  11.593   0.965   2.317  1.2782 -0.4686 -1.3147
  690MOL0     H95189  11.640   0.806   2.385 -1.8698 -0.7096  1.9316
  690MOL0     H95190  11.703   0.977   2.596  0.7846 -0.0047 -0.0457
  690MOL0     H95191  11.762   1.062   2.447  3.7966 -0.6847 -1.5415
  690MOL0     H95192  11.862   0.787   2.489 -0.6867 -0.1828  0.5949
  690MOL0     H95193  11.896   0.917   2.376 -0.4503  1.0946 -0.4939
  690MOL0     H95194  11.961   0.904   2.680  2.4639  0.5688  0.6632
  690MOL0     H95195  11.971   1.052   2.590 -2.3974 -0.3666  4.8219
  690MOL0     H95196  12.180   0.948   2.610 -1.2649  1.0733  0.5729
  690MOL0     H95197  12.146   0.975   2.444  2.4656 -1.7476 -0.3472
  690MOL0     H95198  12.062   0.716   2.428 -0.1542 -4.5227  1.1922
  690MOL0     H95199  12.118   0.708   2.593  0.6170 -1.8802 -0.9992
  690MOL0     H95200  11.110   0.848   2.342 -1.1428  2.0787  1.9581
  690MOL0     H95201  10.941   0.853   2.177 -0.9016  1.1920 -1.1892
  690MOL0     H95202  10.924   0.909   1.729 -0.6534  1.7192  1.2871
  690MOL0     H95203  10.802   0.833   1.504 -0.0321 -1.6663  0.6120
  690MOL0     H95204   8.988   0.560   0.630 -1.3195 -0.4026  0.9336
  690MOL0     H95205   8.769   0.588   0.765  0.5082 -4.2923 -0.2417
  690MOL0     H95206   8.499   0.628   0.973 -2.1618  0.8904 -0.4197
  690MOL0     H95207   8.257   0.638   1.053 -1.1193 -1.1087  2.0032
  690MOL0     H95208   8.082   0.632   1.171  1.0684 -0.2196 -0.3133
  690MOL0     H95209   7.987   0.706   1.296 -2.5989  1.2366 -1.6233
  690MOL0     H95210   7.957   0.820   1.118 -0.3851 -1.4579  2.0587
  690MOL0     H95211   8.124   0.878   1.082  1.4520 -1.9100  0.5676
  690MOL0     H95212   7.981   1.054   1.189  0.5992  0.4142  0.2435
  690MOL0     H95213   7.943   0.944   1.318 -1.1452 -0.8524 -2.4381
  690MOL0     H95214   8.208   1.085   1.248  0.1644  1.0427  0.2572
  690MOL0     H95215   8.194   0.965   1.384  1.0180  0.5608 -0.6396
  690MOL0     H95216   8.004   1.311   1.546 -2.6514 -1.9446  0.5322
  690MOL0     H95217   8.394   0.824   1.411  0.6482  0.8932 -0.4120
  690MOL0     H95218   8.740   0.774   1.394 -0.5670 -0.8799  1.6915
  690MOL0     H95219   8.702   0.933   1.319  1.1907 -2.3085 -2.6120
  690MOL0     H95220   8.615   0.872   1.456  0.7291 -1.0181  0.2365
  691MOL0     O95221  10.203   3.832   3.453 -0.6106 -0.8599  0.3249
  691MOL0     C95222  10.285   3.912   3.501 -0.1901  0.6515 -0.4579
  691MOL0     O95223  10.421   3.893   3.501  0.5525  0.6038 -0.3657
  691MOL0     C95224  10.477   3.780   3.453 -0.1020 -0.9503  0.3675
  691MOL0     C95225  10.542   3.696   3.545  0.5632 -0.5308  0.4209
  691MOL0     C95226  10.600   3.578   3.496  0.3541 -0.6300  0.8588
  691MOL0     C95227  10.590   3.532   3.364 -0.4744 -0.7631 -0.0965
  691MOL0     O95228  10.642   3.415   3.326  0.2114  0.7263  0.2213
  691MOL0     C95229  10.659   3.372   3.192 -1.0336 -0.7880  0.1983
  691MOL0     C95230  10.704   3.226   3.170 -0.2369  0.3783 -0.5443
  691MOL0     C95231  10.846   3.207   3.232 -0.4491  0.2172 -0.6704
  691MOL0     C95232  10.961   3.274   3.145  0.7468  0.3836 -0.4796
  691MOL0     C95233  11.096   3.222   3.181 -0.7211  0.7630 -0.2720
  691MOL0     C95234  11.128   3.075   3.124 -0.3018 -0.0272  0.4960
  691MOL0     C95235  11.282   3.046   3.135  1.0601 -0.1424 -0.1840
  691MOL0     C95236  11.330   3.061   3.285  0.5376 -1.0904  0.3245
  691MOL0     N95237  11.473   3.046   3.293  0.6692  0.1120 -0.3032
  691MOL0     C95238  11.536   2.919   3.298  0.3565 -0.2937 -0.2660
  691MOL0     C95239  11.669   2.958   3.292  0.2826  0.8926  0.4373
  691MOL0     C95240  11.785   2.858   3.308  0.6261  0.1260  0.4518
  691MOL0     C95241  11.924   2.925   3.345 -0.3398  0.6096 -0.7036
  691MOL0     C95242  12.029   2.820   3.338 -0.0713  0.2015  0.2151
  691MOL0     C95243  12.159   2.882   3.367 -0.1236  0.3420  0.2444
  691MOL0     O95244  12.170   2.921   3.507 -0.3562 -0.2741  0.1730
  691MOL0     C95245  12.220   2.832   3.599 -0.3176 -0.4592  0.2623
  691MOL0     C95246  12.248   2.701   3.581 -0.8602 -0.2544 -0.5822
  691MOL0     C95247  12.315   2.626   3.688  0.1885  0.5326 -0.9508
  691MOL0     C95248  12.354   2.484   3.663  0.3481 -0.3364  0.6135
  691MOL0     C95249  12.321   2.686   3.817  0.9146 -0.2345  0.6385
  691MOL0     C95250  12.381   2.609   3.939  0.2909 -0.8858  0.1584
  691MOL0     O95251  12.425   2.476   3.930  0.3763 -0.0401 -1.0367
  691MOL0     C95252  12.473   2.427   4.049 -1.1222  0.5522 -0.5266
  691MOL0     C95253  12.385   2.359   4.128 -0.2506 -0.2497  0.1133
  691MOL0     C95254  12.423   2.305   4.253 -0.3091 -0.8926  1.0105
  691MOL0     C95255  12.547   2.325   4.304 -0.3587  0.4931  0.3185
  691MOL0     O95256  12.576   2.290   4.434 -0.7198 -0.3182  0.5448
  691MOL0     C95257  12.488   2.355   4.527  0.4071 -0.1066  0.1456
  691MOL0     C95258  12.525   2.327   4.671  0.1710 -0.5160  0.1021
  691MOL0     C95259  12.631   2.422   4.735 -0.0806 -0.2890  0.8285
  691MOL0     C95260  12.720   2.353   4.840 -0.1510 -0.7281  0.4315
  691MOL0     C95261  12.839   2.449   4.879  1.0626  0.4426  0.4655
  691MOL0     C95262  12.916   2.383   5.000  0.8451 -0.0829 -0.6831
  691MOL0     C95263  13.037   2.467   5.044 -0.0347  0.9093  0.1210
  691MOL0     C95264  13.105   2.413   5.171 -0.1860 -0.7321 -0.1930
  691MOL0    Cl95265  13.241   2.534   5.179  0.0869 -0.4003 -0.1503
  691MOL0     C95266  12.647   2.381   4.219 -0.0809  0.2640  0.0210
  691MOL0     C95267  12.607   2.444   4.095 -0.2965 -0.2345 -0.5043
  691MOL0     O95268  12.377   2.670   4.044  0.4197 -0.3159  0.0891
  691MOL0     C95269  12.284   2.822   3.835 -0.4833  0.4496 -0.5274
  691MOL0     C95270  12.241   2.896   3.730  0.6711  0.2698  0.4281
  691MOL0     N95271  11.682   3.098   3.278 -0.9472  0.3356 -0.8707
  691MOL0     N95272  11.561   3.148   3.281  0.0699 -0.1312 -0.1044
  691MOL0     C95273  10.518   3.618   3.278 -0.5314  0.5764  0.8346
  691MOL0     C95274  10.464   3.739   3.321  0.0421  0.0133 -0.1484
  691MOL0     C95275  10.231   4.034   3.573 -0.5828  0.4750 -0.0319
  691MOL0     C95276  10.322   4.122   3.631 -0.1650  0.0582 -0.4778
  691MOL0     C95277  10.284   4.236   3.700 -0.7217 -0.7456 -0.2045
  691MOL0     C95278  10.153   4.264   3.720  0.8604 -0.3666  0.7042
  691MOL0     O95279  10.114   4.384   3.778  0.8824  0.0846  0.1177
  691MOL0     C95280  10.060   4.485   3.680  0.4030 -0.0770 -0.5362
  691MOL0     C95281   9.903   4.487   3.663 -0.3083 -0.3282  0.9370
  691MOL0     C95282   9.824   4.456   3.789 -0.9271  0.4113  0.0643
  691MOL0     C95283   9.823   4.560   3.900 -0.8203  0.0959  0.3000
  691MOL0     C95284   9.765   4.518   4.025  0.3142 -0.1709  0.9320
  691MOL0     C95285   9.703   4.479   4.118  0.1855 -0.8078 -0.1574
  691MOL0     C95286  10.053   4.180   3.664  0.1121  0.3691  0.5935
  691MOL0     C95287  10.091   4.063   3.596 -0.4513 -0.2985  0.0058
  691MOL0     C95288   9.977   3.984   3.545  0.2360  0.6467 -0.0820
  691MOL0     H95289  10.543   3.725   3.650 -0.9007  0.1107  0.2870
  691MOL0     H95290  10.635   3.519   3.581  0.1344 -2.1603 -0.0787
  691MOL0     H95291  10.735   3.430   3.139  0.1273 -0.9580  1.6232
  691MOL0     H95292  10.563   3.387   3.140 -0.3115  2.1865 -0.4879
  691MOL0     H95293  10.636   3.152   3.212 -0.7225  0.3549 -1.3583
  691MOL0     H95294  10.703   3.209   3.062  0.4327  0.7458 -0.6159
  691MOL0     H95295  10.849   3.247   3.334 -1.3721 -0.2297 -0.4544
  691MOL0     H95296  10.863   3.099   3.235 -2.0428 -0.0361 -0.1502
  691MOL0     H95297  10.959   3.241   3.041  3.3497 -0.4118 -0.3561
  691MOL0     H95298  10.963   3.383   3.152  3.0109  0.4173 -0.9363
  691MOL0     H95299  11.102   3.211   3.290 -0.7946  0.5622 -0.2879
  691MOL0     H95300  11.168   3.300   3.156 -0.7626  1.3263  1.2229
  691MOL0     H95301  11.064   3.001   3.172  0.1300  0.1948  1.4383
  691MOL0     H95302  11.101   3.078   3.018 -1.2514  0.5390  0.7384
  691MOL0     H95303  11.341   3.118   3.078 -0.2701  1.6047  0.5589
  691MOL0     H95304  11.309   2.945   3.101  1.5124  0.2032 -0.8691
  691MOL0     H95305  11.298   3.158   3.324 -3.1376 -1.6738 -0.8256
  691MOL0     H95306  11.273   2.985   3.340 -2.7602 -1.3783 -3.0999
  691MOL0     H95307  11.490   2.821   3.309  1.3789 -0.8638 -0.9830
  691MOL0     H95308  11.804   2.818   3.208  0.8355  0.4337  0.3667
  691MOL0     H95309  11.756   2.778   3.376 -1.1309  0.9365  0.7150
  691MOL0     H95310  11.954   3.007   3.279  2.7148 -2.1724 -3.1139
  691MOL0     H95311  11.916   2.973   3.443 -1.5270 -0.2517 -0.3486
  691MOL0     H95312  12.005   2.743   3.412 -1.1342  0.1083 -0.2163
  691MOL0     H95313  12.038   2.787   3.234  1.8415  0.2867  0.3028
  691MOL0     H95314  12.243   2.820   3.335 -0.4102 -0.5071  1.0856
  691MOL0     H95315  12.161   2.973   3.306 -0.5124 -1.9726 -3.5286
  691MOL0     H95316  12.238   2.659   3.482 -2.6456 -0.3821 -0.3895
  691MOL0     H95317  12.306   2.419   3.737 -3.0523  0.1593 -0.9671
  691MOL0     H95318  12.462   2.470   3.658  0.9542  3.3673  0.2249
  691MOL0     H95319  12.310   2.439   3.573 -2.5782 -0.4646  1.9902
  691MOL0     H95320  12.289   2.351   4.079  1.2469  1.2974 -3.4707
  691MOL0     H95321  12.349   2.262   4.319 -0.6229  1.7195  2.4679
  691MOL0     H95322  12.498   2.460   4.498  1.2036  0.1661  1.3239
  691MOL0     H95323  12.384   2.325   4.513 -0.0503  2.0701 -1.7698
  691MOL0     H95324  12.429   2.335   4.723 -1.0103 -4.9341 -1.0293
  691MOL0     H95325  12.545   2.221   4.689 -1.0926 -0.8640 -0.4036
  691MOL0     H95326  12.581   2.500   4.794  2.3154  0.7190  1.6459
  691MOL0     H95327  12.702   2.471   4.668 -1.7106  0.8218 -0.1604
  691MOL0     H95328  12.757   2.258   4.801 -2.6897 -1.3972 -0.5585
  691MOL0     H95329  12.666   2.331   4.933  0.1845  1.6108  1.2386
  691MOL0     H95330  12.900   2.470   4.790  1.2016 -0.5099  0.3302
  691MOL0     H95331  12.795   2.545   4.908  0.0455 -0.3977  1.8021
  691MOL0     H95332  12.935   2.276   4.987  0.2658 -0.4301  1.1013
  691MOL0     H95333  12.844   2.376   5.082 -0.6883  0.2604 -1.9608
  691MOL0     H95334  13.002   2.570   5.057  0.2355  1.0856 -0.5250
  691MOL0     H95335  13.104   2.461   4.958 -0.3972  0.6060 -0.1455
  691MOL0     H95336  13.135   2.308   5.164 -1.8116 -1.5153  2.8036
  691MOL0     H95337  13.036   2.422   5.255 -1.0033 -0.5889 -0.8702
  691MOL0     H95338  12.745   2.402   4.262  0.3906  1.2087 -1.4102
  691MOL0     H95339  12.682   2.495   4.034  0.9666 -1.8290 -0.3603
  691MOL0     H95340  12.286   2.867   3.934  1.5102  1.6269 -1.0359
  691MOL0     H95341  12.214   3.001   3.734  0.2647  0.2937 -1.6415
  691MOL0     H95342  10.512   3.590   3.173 -1.4701  1.6294  0.5891
  691MOL0     H95343  10.406   3.800   3.253 -0.1961  1.2562  1.1280
  691MOL0     H95344  10.429   4.105   3.624  0.3241  2.2826  0.7684
  691MOL0     H95345  10.359   4.306   3.735 -2.1094 -0.0099  1.4207
  691MOL0     H95346  10.103   4.578   3.719  2.7378 -0.6131 -1.6056
  691MOL0     H95347  10.095   4.472   3.576 -2.9780 -3.2929 -1.4888
  691MOL0     H95348   9.888   4.420   3.578 -3.1186  2.2432 -0.7706
  691MOL0     H95349   9.866   4.586   3.635 -2.1119 -0.9017  1.2238
  691MOL0     H95350   9.722   4.430   3.761 -1.1335  1.2255  0.0381
  691MOL0     H95351   9.862   4.367   3.841 -0.4480 -1.3326 -3.0692
  691MOL0     H95352   9.762   4.644   3.866 -4.6577 -2.7658 -0.7029
  691MOL0     H95353   9.926   4.588   3.924 -1.2053 -0.1937  2.4846
  691MOL0     H95354   9.653   4.453   4.209 -0.3133  1.2780  0.2114
  691MOL0     H95355   9.949   4.195   3.689 -0.5111 -0.9523 -0.9889
  691MOL0     H95356   9.979   3.886   3.594 -1.4337  0.0359 -1.1771
  691MOL0     H95357   9.887   4.041   3.570  1.4799  1.2773  3.6496
  691MOL0     H95358   9.985   3.972   3.437 -0.0683  2.0850 -0.2825
  692MOL0     O95359   3.554   2.764   5.677 -0.4071  0.1254 -0.2038
  692MOL0     C95360   3.446   2.766   5.615 -0.5208  0.2280  0.2352
  692MOL0     O95361   3.436   2.769   5.479  0.1468  0.4780 -0.5095
  692MOL0     C95362   3.549   2.805   5.414  0.0864  0.2596  0.0817
  692MOL0     C95363   3.578   2.942   5.408  0.5027 -0.2360  0.3507
  692MOL0     C95364   3.687   2.986   5.330  0.4125  0.1659  0.2820
  692MOL0     C95365   3.768   2.901   5.256 -0.1156  0.1042  0.2982
  692MOL0     O95366   3.866   2.952   5.170 -0.8282  0.7512 -0.3006
  692MOL0     C95367   3.995   2.964   5.235  0.3758 -0.0089  0.1327
  692MOL0     C95368   4.095   2.995   5.115  0.8412  0.2715  0.6997
  692MOL0     C95369   4.241   3.026   5.168 -0.1089 -0.1697 -0.1615
  692MOL0     C95370   4.317   3.087   5.055  0.0762 -0.6784  0.3378
  692MOL0     C95371   4.469   3.106   5.077  0.3771  0.3086  0.8879
  692MOL0     C95372   4.546   2.971   5.058 -0.9161 -0.3331  0.6533
  692MOL0     C95373   4.704   2.987   5.076  0.6535 -0.2215  0.0415
  692MOL0     C95374   4.781   2.855   5.069  0.4509 -1.0477 -0.8874
  692MOL0     N95375   4.910   2.862   5.151  0.4638 -0.5815  0.1004
  692MOL0     C95376   5.008   2.930   5.094 -0.1780 -0.6169  0.0476
  692MOL0     C95377   5.118   2.917   5.176  0.4855  0.2155 -0.0714
  692MOL0     C95378   5.264   2.961   5.164  0.2459 -0.8781  0.3051
  692MOL0     C95379   5.283   3.050   5.293  0.2914  0.3089  0.0299
  692MOL0     C95380   5.383   3.164   5.271  0.2073 -0.4562 -0.7376
  692MOL0     C95381   5.524   3.118   5.238 -0.6276  0.0962 -0.7444
  692MOL0     O95382   5.613   3.231   5.216 -0.4928 -0.2978 -0.4490
  692MOL0     C95383   5.736   3.187   5.158  0.7649  0.1969 -0.5621
  692MOL0     C95384   5.789   3.054   5.157  0.5114 -0.2986 -0.1195
  692MOL0     C95385   5.921   3.024   5.120  0.5776  1.0019  0.2707
  692MOL0     C95386   5.968   2.889   5.151 -0.3202 -0.2251 -1.1217
  692MOL0     C95387   6.006   3.132   5.077 -0.4490 -0.4280  0.7203
  692MOL0     C95388   6.146   3.113   5.027 -1.4840  0.4559 -0.2726
  692MOL0     O95389   6.214   3.219   4.963  0.1304 -0.4861  0.1253
  692MOL0     C95390   6.345   3.198   4.925  0.7284 -0.2632  0.6245
  692MOL0     C95391   6.380   3.221   4.786 -0.1593  0.0224  0.0958
  692MOL0     C95392   6.519   3.199   4.758  0.4462 -1.3720  0.1609
  692MOL0     C95393   6.616   3.183   4.847 -0.1131  1.3314 -0.3712
  692MOL0     O95394   6.740   3.173   4.790 -0.1467 -0.1995  0.3730
  692MOL0     C95395   6.854   3.151   4.873  0.2723 -0.0411 -0.1418
  692MOL0     C95396   6.986   3.112   4.804  0.3076  0.1698  0.3568
  692MOL0     C95397   7.085   3.072   4.917  0.4337  0.5206 -0.3812
  692MOL0     C95398   7.205   3.000   4.859 -0.3287  0.5843 -1.5264
  692MOL0     C95399   7.320   2.969   4.964  0.0051 -0.6818  0.0691
  692MOL0     C95400   7.452   2.922   4.904 -0.4977  0.8221 -0.1998
  692MOL0     C95401   7.546   2.891   5.024  0.0685  0.1272 -0.5888
  692MOL0     C95402   7.682   2.857   4.971  0.1294  0.1761 -0.1364
  692MOL0    Cl95403   7.793   2.818   5.105  0.0168 -0.3322  0.4713
  692MOL0     C95404   6.585   3.169   4.990 -0.5503  0.1041  0.8719
  692MOL0     C95405   6.449   3.178   5.021 -0.2734 -0.5337 -0.8099
  692MOL0     O95406   6.196   3.003   5.044 -0.1062 -0.6309 -0.7254
  692MOL0     C95407   5.950   3.256   5.064  0.1981  1.0908  0.1539
  692MOL0     C95408   5.824   3.279   5.113  0.0651 -0.1445  0.3869
  692MOL0     N95409   5.074   2.836   5.276 -0.1181  0.2026  0.6471
  692MOL0     N95410   4.950   2.797   5.259  0.5493 -1.4511  0.3863
  692MOL0     C95411   3.744   2.768   5.268  0.7675 -0.1044  0.2263
  692MOL0     C95412   3.629   2.724   5.339  0.0247 -0.4119 -0.2558
  692MOL0     C95413   3.324   2.727   5.681  0.3850 -0.0543 -0.3942
  692MOL0     C95414   3.237   2.629   5.623 -0.2805 -0.6680 -0.5170
  692MOL0     C95415   3.130   2.575   5.689 -0.4590 -0.8700 -0.0248
  692MOL0     C95416   3.105   2.610   5.822  0.6979 -1.1646 -0.7981
  692MOL0     O95417   2.998   2.569   5.891  0.2875 -0.7294 -0.2558
  692MOL0     C95418   2.900   2.482   5.823 -0.6144  0.5470 -0.7482
  692MOL0     C95419   2.783   2.429   5.898 -0.5349 -0.1957  0.2037
  692MOL0     C95420   2.820   2.395   6.044  0.1382 -0.0045 -0.8273
  692MOL0     C95421   2.733   2.298   6.112  0.3308 -0.1388  0.7399
  692MOL0     C95422   2.709   2.333   6.250  0.9150 -0.4433 -0.5167
  692MOL0     C95423   2.682   2.353   6.366  0.0516 -0.5050 -0.0241
  692MOL0     C95424   3.189   2.700   5.884  0.4213  0.0851  0.7448
  692MOL0     C95425   3.298   2.768   5.814  0.2942 -0.0346 -0.5410
  692MOL0     C95426   3.374   2.883   5.886 -0.6535 -0.0464  0.0362
  692MOL0     H95427   3.520   3.015   5.465  0.3796 -1.9009  2.4767
  692MOL0     H95428   3.715   3.090   5.325 -3.0137  1.3357  1.8671
  692MOL0     H95429   4.026   2.873   5.286 -3.0721 -0.7993  1.0469
  692MOL0     H95430   3.995   3.041   5.313 -2.0387 -0.8422  1.0425
  692MOL0     H95431   4.099   2.901   5.059 -1.2547  1.3628 -1.4553
  692MOL0     H95432   4.054   3.075   5.052 -1.9966  0.3938  2.5070
  692MOL0     H95433   4.229   3.083   5.261 -2.6475  1.0604 -1.1487
  692MOL0     H95434   4.286   2.929   5.190  0.3704  0.2411  0.7138
  692MOL0     H95435   4.301   3.021   4.969  1.6588 -0.9236  0.1980
  692MOL0     H95436   4.277   3.184   5.024  0.6047 -0.5690 -0.0141
  692MOL0     H95437   4.500   3.143   5.175  2.1336  2.4784 -0.3841
  692MOL0     H95438   4.515   3.180   5.011  2.0294 -0.9794  0.5278
  692MOL0     H95439   4.511   2.900   5.134 -0.2167 -1.9548 -0.4777
  692MOL0     H95440   4.525   2.924   4.962 -1.1780 -0.1279  0.6120
  692MOL0     H95441   4.717   3.020   5.179  1.3730 -4.0170  1.3210
  692MOL0     H95442   4.746   3.063   5.009 -0.0325  0.3516  0.2424
  692MOL0     H95443   4.710   2.790   5.121 -0.5635  0.3775 -0.4359
  692MOL0     H95444   4.785   2.814   4.968 -1.8385  1.5778 -2.1682
  692MOL0     H95445   4.999   2.991   5.004 -1.0676  0.2888  0.7289
  692MOL0     H95446   5.283   3.011   5.069 -0.0121 -0.2660  0.5688
  692MOL0     H95447   5.342   2.885   5.177  2.3924  1.4419  1.8451
  692MOL0     H95448   5.189   3.100   5.319  0.9099  0.6345  1.7939
  692MOL0     H95449   5.317   2.989   5.377  3.7146  1.5548 -0.2627
  692MOL0     H95450   5.345   3.240   5.202  1.1127  2.0950  1.4320
  692MOL0     H95451   5.377   3.226   5.361 -3.5382 -1.3501 -0.1994
  692MOL0     H95452   5.553   3.056   5.323 -2.1203  0.7842  0.3009
  692MOL0     H95453   5.519   3.061   5.144  0.9789  1.4634 -1.7225
  692MOL0     H95454   5.730   2.970   5.194  1.0835 -0.8539 -0.4470
  692MOL0     H95455   5.985   2.835   5.058  1.0134  0.2066 -1.1476
  692MOL0     H95456   5.899   2.837   5.219 -2.6866  0.5578 -2.8017
  692MOL0     H95457   6.068   2.889   5.196  1.0580 -1.8855 -3.9399
  692MOL0     H95458   6.300   3.243   4.716  0.9090 -1.5822 -1.7278
  692MOL0     H95459   6.551   3.203   4.655 -1.6309  0.3204 -0.4924
  692MOL0     H95460   6.888   3.240   4.926  1.1345  0.1399 -0.9814
  692MOL0     H95461   6.830   3.074   4.947 -2.6193  1.6122  0.8228
  692MOL0     H95462   6.959   3.029   4.739  0.2491  1.1829 -0.9375
  692MOL0     H95463   7.024   3.194   4.742 -0.5568  0.7144  0.5334
  692MOL0     H95464   7.039   3.002   4.986  2.0989  0.6428  0.9238
  692MOL0     H95465   7.118   3.164   4.966 -1.8733  0.6189  1.1585
  692MOL0     H95466   7.246   3.060   4.777  0.5629  1.7164 -0.3053
  692MOL0     H95467   7.180   2.904   4.813 -0.3999  0.3848 -1.0748
  692MOL0     H95468   7.340   3.066   5.011 -2.0077  0.9297 -2.1686
  692MOL0     H95469   7.283   2.906   5.045  0.3061 -0.1530  0.6292
  692MOL0     H95470   7.494   3.011   4.856  2.4816  0.6207  1.7694
  692MOL0     H95471   7.437   2.842   4.832  2.6071  0.3130 -0.4522
  692MOL0     H95472   7.507   2.805   5.079  1.5821  0.5626  1.2929
  692MOL0     H95473   7.549   2.983   5.084 -2.4560 -0.4779  0.6030
  692MOL0     H95474   7.713   2.945   4.913  0.5258 -0.6700 -1.2517
  692MOL0     H95475   7.686   2.771   4.903 -1.3637  1.6993 -2.3015
  692MOL0     H95476   6.661   3.148   5.065  1.3622  1.5068 -0.5512
  692MOL0     H95477   6.421   3.156   5.124  1.1207  1.4654  0.0517
  692MOL0     H95478   6.002   3.347   5.034  1.7358  0.6245  1.2861
  692MOL0     H95479   5.778   3.376   5.096 -2.7626 -1.3890  0.3441
  692MOL0     H95480   3.790   2.700   5.198 -0.3235 -1.4685  0.7755
  692MOL0     H95481   3.614   2.617   5.330 -1.4793 -0.1376 -1.5358
  692MOL0     H95482   3.267   2.589   5.526  0.7318 -1.2862  0.0423
  692MOL0     H95483   3.072   2.499   5.638 -3.9650  2.1500 -0.9964
  692MOL0     H95484   2.871   2.521   5.726 -0.3895 -0.7904 -1.3765
  692MOL0     H95485   2.965   2.397   5.798  0.0140  0.2841  1.5465
  692MOL0     H95486   2.745   2.341   5.846 -0.1863 -0.1911 -0.0612
  692MOL0     H95487   2.712   2.513   5.898 -1.1537 -0.7132  0.4569
  692MOL0     H95488   2.921   2.356   6.060 -1.0698 -2.3068  2.1990
  692MOL0     H95489   2.822   2.491   6.096 -0.0970  0.1215 -1.0476
  692MOL0     H95490   2.781   2.200   6.117 -1.4785 -1.0479  1.3456
  692MOL0     H95491   2.637   2.294   6.059 -0.2868  2.5356  1.4838
  692MOL0     H95492   2.651   2.369   6.467  1.6186  1.6602  0.1691
  692MOL0     H95493   3.174   2.717   5.990  0.6489 -0.2060  0.8227
  692MOL0     H95494   3.306   2.928   5.960  0.6015  0.4393  0.9359
  692MOL0     H95495   3.463   2.852   5.942 -0.7760  0.8616  0.7804
  692MOL0     H95496   3.397   2.966   5.819 -1.0625  0.7526  0.8511
  693MOL0     O95497   4.157   5.384   5.605 -0.4429 -0.1770 -0.4008
  693MOL0     C95498   4.189   5.315   5.511  0.2494 -0.1167  0.4771
  693MOL0     O95499   4.302   5.321   5.439  0.7279 -0.8548  0.7065
  693MOL0     C95500   4.388   5.422   5.465 -0.3545 -0.8758 -1.2653
  693MOL0     C95501   4.357   5.554   5.447  0.8051 -0.1194 -0.5518
  693MOL0     C95502   4.440   5.658   5.495 -0.4284 -0.1195 -0.1069
  693MOL0     C95503   4.554   5.628   5.561 -0.5946 -0.3115  0.1399
  693MOL0     O95504   4.612   5.731   5.626 -0.3442 -0.4058  0.2017
  693MOL0     C95505   4.746   5.771   5.590  1.2106  0.4570  0.3624
  693MOL0     C95506   4.847   5.705   5.685 -0.5692  0.0975 -0.5571
  693MOL0     C95507   4.991   5.772   5.690 -0.3845  1.1654 -1.2517
  693MOL0     C95508   5.054   5.812   5.553  0.0866  0.4223 -0.1005
  693MOL0     C95509   5.203   5.836   5.549 -0.4085 -0.1473  0.4441
  693MOL0     C95510   5.289   5.710   5.562  0.0982 -0.0482  0.2809
  693MOL0     C95511   5.410   5.741   5.653 -0.0210 -0.4086  0.0228
  693MOL0     C95512   5.492   5.615   5.650 -1.4188 -0.1622  0.2663
  693MOL0     N95513   5.607   5.614   5.744  0.3978 -0.3332  0.0848
  693MOL0     C95514   5.605   5.639   5.876 -0.4930 -0.2157  0.0171
  693MOL0     C95515   5.731   5.625   5.921  0.1225 -0.3065 -0.2862
  693MOL0     C95516   5.781   5.633   6.058 -0.3848  0.8046 -0.3595
  693MOL0     C95517   5.838   5.764   6.107 -0.3486  1.3029  0.7062
  693MOL0     C95518   5.959   5.803   6.011 -0.0582 -0.1671  0.4073
  693MOL0     C95519   6.084   5.701   6.011 -0.9470  0.0216 -0.1045
  693MOL0     O95520   6.122   5.669   6.143 -0.0478  0.3547 -0.0520
  693MOL0     C95521   6.228   5.580   6.161  0.1328  0.0217  0.5455
  693MOL0     C95522   6.295   5.518   6.058 -0.5290 -0.4154  0.1928
  693MOL0     C95523   6.415   5.446   6.074 -0.4581  0.4117 -0.2630
  693MOL0     C95524   6.477   5.396   5.939  0.2578  0.2900 -0.1440
  693MOL0     C95525   6.461   5.423   6.210 -0.1357  0.2616  0.1340
  693MOL0     C95526   6.581   5.347   6.238 -0.6633  0.8793 -0.3645
  693MOL0     O95527   6.638   5.392   6.356 -0.2289 -0.3805 -0.6703
  693MOL0     C95528   6.769   5.374   6.396  0.8048 -0.2140 -0.9581
  693MOL0     C95529   6.886   5.399   6.317  0.4667  0.3079  0.1401
  693MOL0     C95530   7.015   5.378   6.370 -0.4006 -0.7569  0.2990
  693MOL0     C95531   7.029   5.344   6.503 -0.2199  0.2513  0.0629
  693MOL0     O95532   7.159   5.338   6.562  0.4720  1.0343 -0.7348
  693MOL0     C95533   7.179   5.326   6.704  0.0035  0.2452 -0.9478
  693MOL0     C95534   7.316   5.355   6.759 -0.0918 -0.5344 -0.2281
  693MOL0     C95535   7.433   5.318   6.657 -1.6266 -0.2869 -0.9083
  693MOL0     C95536   7.563   5.306   6.743 -0.1192 -0.1311 -0.6627
  693MOL0     C95537   7.681   5.260   6.655 -0.4728 -0.1761  0.5045
  693MOL0     C95538   7.815   5.260   6.737  0.5748 -0.2369 -0.2341
  693MOL0     C95539   7.912   5.155   6.680 -0.3436  0.4918 -0.2150
  693MOL0     C95540   7.879   5.012   6.720  0.4090  0.0152 -0.2106
  693MOL0    Cl95541   8.001   4.908   6.648 -0.0230 -0.2391 -0.0997
  693MOL0     C95542   6.917   5.321   6.580 -0.0406  0.8510  0.2580
  693MOL0     C95543   6.789   5.329   6.525 -0.0164 -0.0278  0.1860
  693MOL0     O95544   6.624   5.253   6.171  0.1738  0.2908 -0.1634
  693MOL0     C95545   6.393   5.477   6.318  0.2059  0.4445 -0.5167
  693MOL0     C95546   6.270   5.553   6.293  0.5911  0.9403 -0.3272
  693MOL0     N95547   5.808   5.582   5.811 -0.1479 -0.8243  0.3301
  693MOL0     N95548   5.740   5.574   5.703  0.5249 -0.3787 -0.0960
  693MOL0     C95549   4.603   5.497   5.563 -0.5741 -0.3686 -0.2390
  693MOL0     C95550   4.511   5.390   5.525  0.0400 -0.1736 -0.5593
  693MOL0     C95551   4.101   5.207   5.450 -0.6360 -0.4858  0.4997
  693MOL0     C95552   4.154   5.143   5.335  0.5496 -0.1829  0.0075
  693MOL0     C95553   4.079   5.042   5.279  0.3218 -0.6605 -0.3027
  693MOL0     C95554   3.956   5.008   5.323  0.3895 -0.0453 -0.7332
  693MOL0     O95555   3.878   4.908   5.280  0.0965  0.2873  0.5859
  693MOL0     C95556   3.909   4.834   5.160 -0.5639  0.0641  0.1266
  693MOL0     C95557   3.876   4.910   5.031 -0.0559  0.0258 -0.1943
  693MOL0     C95558   3.732   4.869   4.973  0.5041  0.4086  0.2052
  693MOL0     C95559   3.663   4.969   4.868 -0.8617 -0.0805  0.0565
  693MOL0     C95560   3.758   4.992   4.756  0.2501 -0.3320 -0.1799
  693MOL0     C95561   3.839   5.031   4.673  0.6201  0.6734 -0.4645
  693MOL0     C95562   3.906   5.060   5.445  0.5595 -0.0026  0.7552
  693MOL0     C95563   3.976   5.174   5.504  0.2313 -0.7134  0.2329
  693MOL0     C95564   3.921   5.236   5.630 -0.4735  0.3721  0.5571
  693MOL0     H95565   4.264   5.590   5.405  2.7706  2.5192 -3.1198
  693MOL0     H95566   4.407   5.761   5.489  0.7655  0.2832 -0.0639
  693MOL0     H95567   4.748   5.876   5.621  0.9268  0.2318  1.1657
  693MOL0     H95568   4.770   5.761   5.484  1.3116 -0.8808  0.4956
  693MOL0     H95569   4.805   5.710   5.785 -0.8244 -1.1566 -0.5786
  693MOL0     H95570   4.873   5.602   5.658  0.4745  0.8734 -2.7725
  693MOL0     H95571   4.984   5.856   5.761 -1.6965 -0.6518  0.9001
  693MOL0     H95572   5.063   5.696   5.722  2.0966  3.6983 -0.3680
  693MOL0     H95573   5.044   5.724   5.489  0.2084 -1.0591  1.8155
  693MOL0     H95574   5.002   5.901   5.518 -0.5231  0.8984  1.8694
  693MOL0     H95575   5.222   5.902   5.634  1.3923 -1.6679  1.2771
  693MOL0     H95576   5.230   5.901   5.465 -1.1489 -1.5567 -0.9457
  693MOL0     H95577   5.239   5.621   5.600  2.5372 -1.9736 -0.7589
  693MOL0     H95578   5.320   5.672   5.464  0.8812  2.0412 -0.3538
  693MOL0     H95579   5.375   5.763   5.754 -1.0240  0.6826 -0.5364
  693MOL0     H95580   5.464   5.828   5.616 -2.1019  0.1166 -1.9612
  693MOL0     H95581   5.437   5.522   5.666 -0.8502 -0.6884 -0.7625
  693MOL0     H95582   5.546   5.605   5.555  0.4912 -0.5109  1.3125
  693MOL0     H95583   5.518   5.655   5.939 -0.5260  0.3220 -0.1616
  693MOL0     H95584   5.850   5.548   6.069 -1.1094  0.1565 -0.8040
  693MOL0     H95585   5.700   5.617   6.130 -2.1053 -1.8495 -2.6889
  693MOL0     H95586   5.756   5.834   6.092 -0.4523  0.9485 -0.4930
  693MOL0     H95587   5.863   5.768   6.214 -1.1381 -0.8294  1.0256
  693MOL0     H95588   5.922   5.822   5.910 -0.5124  2.4296  0.9961
  693MOL0     H95589   5.990   5.902   6.045  0.5421 -0.6038  1.1713
  693MOL0     H95590   6.056   5.616   5.949 -0.4542 -1.6218  1.8300
  693MOL0     H95591   6.166   5.752   5.958 -0.9671  0.1242 -0.0370
  693MOL0     H95592   6.271   5.537   5.954  0.5659  0.1723  0.0367
  693MOL0     H95593   6.571   5.445   5.915 -1.1467  2.0839 -2.3940
  693MOL0     H95594   6.411   5.420   5.855 -0.9153 -2.7056 -0.1996
  693MOL0     H95595   6.492   5.287   5.937 -0.1714  0.2340 -1.5597
  693MOL0     H95596   6.862   5.421   6.213  1.9076  2.3101  0.1649
  693MOL0     H95597   7.100   5.390   6.303 -0.6308 -1.2740 -0.0938
  693MOL0     H95598   7.116   5.398   6.755  2.2835 -0.5595  3.4859
  693MOL0     H95599   7.160   5.220   6.725  2.7638 -0.0989  0.2259
  693MOL0     H95600   7.318   5.461   6.785 -0.9653 -0.2585 -1.2414
  693MOL0     H95601   7.330   5.298   6.852  1.1256  1.4260  0.8613
  693MOL0     H95602   7.445   5.398   6.584  0.3346  0.1911 -0.1386
  693MOL0     H95603   7.405   5.226   6.603  0.6172 -0.4616 -1.8892
  693MOL0     H95604   7.542   5.234   6.823  1.9164  0.4832  0.4941
  693MOL0     H95605   7.588   5.406   6.780 -1.0613  0.0225 -0.4009
  693MOL0     H95606   7.658   5.157   6.627 -1.4159  0.4745 -1.2434
  693MOL0     H95607   7.699   5.312   6.561  1.4891 -0.7613  0.5195
  693MOL0     H95608   7.812   5.248   6.845  1.3984  1.4379  0.0085
  693MOL0     H95609   7.860   5.358   6.717 -1.9803  0.9538 -0.5663
  693MOL0     H95610   8.015   5.187   6.699 -0.2202  1.7307 -2.5814
  693MOL0     H95611   7.906   5.167   6.572 -0.1520 -1.2855 -0.4582
  693MOL0     H95612   7.778   4.986   6.685 -0.0376  0.1358  0.9305
  693MOL0     H95613   7.879   5.001   6.829 -2.1312 -3.0232 -0.3579
  693MOL0     H95614   6.932   5.303   6.686  0.2016  1.3565  0.3119
  693MOL0     H95615   6.701   5.317   6.588 -0.6251 -0.7378 -0.7716
  693MOL0     H95616   6.424   5.459   6.420  1.0587 -0.0865 -0.8619
  693MOL0     H95617   6.230   5.600   6.383  3.1622  3.6685 -0.4237
  693MOL0     H95618   4.698   5.475   5.609  1.1288 -2.1746 -4.1750
  693MOL0     H95619   4.533   5.291   5.561 -0.3015 -0.8617 -2.1311
  693MOL0     H95620   4.252   5.161   5.292  0.3478  0.7260 -0.1045
  693MOL0     H95621   4.129   4.997   5.194 -0.7025  0.3520 -1.4705
  693MOL0     H95622   4.009   4.789   5.165 -2.6908 -5.2837  2.7695
  693MOL0     H95623   3.850   4.742   5.158  1.6983 -1.4819 -0.0816
  693MOL0     H95624   3.944   4.875   4.953 -1.3351 -2.2780 -0.3749
  693MOL0     H95625   3.885   5.019   5.030  0.0818  0.0362  0.7288
  693MOL0     H95626   3.739   4.771   4.926 -1.8576 -0.0948  0.8034
  693MOL0     H95627   3.664   4.860   5.058  0.7029 -1.2580  0.2085
  693MOL0     H95628   3.646   5.068   4.912  2.8693 -0.0632  1.8277
  693MOL0     H95629   3.574   4.916   4.833 -1.9874 -0.1617  2.7407
  693MOL0     H95630   3.902   5.059   4.592  0.8598  2.2482  0.2275
  693MOL0     H95631   3.814   5.023   5.490  0.0121 -1.0616 -1.1389
  693MOL0     H95632   3.922   5.345   5.620  1.6534  0.3396 -0.1955
  693MOL0     H95633   3.822   5.194   5.649 -1.1660  2.3821  1.7100
  693MOL0     H95634   3.994   5.222   5.712 -0.4794  0.9602  0.6642
  694MOL0     O95635   6.420   9.038   5.645  0.2153  0.4681  0.0956
  694MOL0     C95636   6.495   9.080   5.732  0.7684  0.0130 -0.0437
  694MOL0     O95637   6.447   9.144   5.849  0.9230 -0.9567  0.4105
  694MOL0     C95638   6.312   9.168   5.866 -0.6263 -0.2529  0.5518
  694MOL0     C95639   6.277   9.305   5.885  0.4062 -0.3314  0.2524
  694MOL0     C95640   6.139   9.339   5.895 -0.1963  0.1813  0.9395
  694MOL0     C95641   6.041   9.238   5.871 -1.2179 -1.0302  0.2731
  694MOL0     O95642   5.907   9.248   5.868  0.1309 -0.2055  0.2056
  694MOL0     C95643   5.838   9.382   5.863  0.5139  0.4152  0.6494
  694MOL0     C95644   5.864   9.459   5.735  0.8242 -0.2763  0.3613
  694MOL0     C95645   5.835   9.386   5.610  0.0427 -0.1200 -0.6138
  694MOL0     C95646   5.870   9.460   5.482  0.2514  0.0916  0.7493
  694MOL0     C95647   6.020   9.476   5.444 -0.1861 -0.8132  0.1708
  694MOL0     C95648   6.096   9.347   5.452 -0.0280  1.0152 -0.0647
  694MOL0     C95649   6.245   9.368   5.410  0.1139 -0.2125  0.8122
  694MOL0     C95650   6.326   9.414   5.533  0.1839 -0.4092 -0.3897
  694MOL0     N95651   6.454   9.425   5.474 -0.0068 -0.1010  0.1220
  694MOL0     C95652   6.524   9.329   5.415 -0.5212  0.1157  0.1731
  694MOL0     C95653   6.642   9.388   5.386  0.1507 -0.7746  0.5899
  694MOL0     C95654   6.766   9.318   5.334  0.2724 -0.1886 -0.1119
  694MOL0     C95655   6.873   9.306   5.440 -0.3191 -0.2161 -0.2876
  694MOL0     C95656   6.966   9.421   5.432 -0.9000 -1.1814 -1.0362
  694MOL0     C95657   7.077   9.410   5.327 -0.0466 -0.7762  0.5095
  694MOL0     O95658   7.134   9.280   5.347  0.2116 -0.1654  0.3140
  694MOL0     C95659   7.266   9.270   5.381  0.2679  1.0352  0.6345
  694MOL0     C95660   7.371   9.341   5.327  0.4082  0.1997 -0.1802
  694MOL0     C95661   7.493   9.350   5.399 -0.0556  0.0690 -0.4395
  694MOL0     C95662   7.588   9.455   5.356 -0.0918 -0.6740 -0.0097
  694MOL0     C95663   7.513   9.265   5.513  0.5216 -0.7067 -0.0875
  694MOL0     C95664   7.638   9.268   5.588 -0.2019 -0.4715  0.5180
  694MOL0     O95665   7.632   9.232   5.723  0.2810  0.4525  0.0892
  694MOL0     C95666   7.747   9.202   5.794 -0.0521 -0.0567  0.4178
  694MOL0     C95667   7.754   9.232   5.931  0.1938  0.4850 -0.4036
  694MOL0     C95668   7.869   9.197   6.011 -0.0082  0.0467 -0.6985
  694MOL0     C95669   7.986   9.152   5.954 -0.2797  0.1990 -0.6954
  694MOL0     O95670   8.090   9.125   6.029 -0.2403  0.1089 -0.6694
  694MOL0     C95671   8.160   8.999   5.994  0.3274 -0.3006 -0.5688
  694MOL0     C95672   8.184   8.921   6.118 -0.3917 -0.2086 -0.6710
  694MOL0     C95673   8.283   8.998   6.207 -0.3017 -0.0858 -0.2148
  694MOL0     C95674   8.422   8.946   6.175 -0.3191 -0.0074  1.4922
  694MOL0     C95675   8.518   9.007   6.282  0.5510  0.1611  0.1561
  694MOL0     C95676   8.658   8.958   6.275  0.0852 -0.3440  0.0702
  694MOL0     C95677   8.735   9.027   6.392  0.0728 -1.0102 -0.4460
  694MOL0     C95678   8.863   8.960   6.411  0.2569 -0.3892 -0.4242
  694MOL0    Cl95679   8.960   9.037   6.530  0.3311 -0.1185 -0.1287
  694MOL0     C95680   7.975   9.118   5.814 -0.5104  0.3978  0.1417
  694MOL0     C95681   7.860   9.142   5.741  0.4024  0.5629 -0.8197
  694MOL0     O95682   7.742   9.287   5.528 -0.2730  0.2177  0.0730
  694MOL0     C95683   7.408   9.179   5.553  0.4589 -0.3165  0.6785
  694MOL0     C95684   7.284   9.196   5.488 -0.3653  1.3569 -0.1909
  694MOL0     N95685   6.642   9.522   5.426  0.0463 -0.3115 -0.7495
  694MOL0     N95686   6.529   9.544   5.485  0.1775  0.5474  0.4315
  694MOL0     C95687   6.082   9.107   5.865 -0.0275 -0.3310 -0.1445
  694MOL0     C95688   6.213   9.068   5.866 -0.4186  0.0467  0.1526
  694MOL0     C95689   6.640   9.074   5.726 -0.9242 -0.7455 -0.3475
  694MOL0     C95690   6.697   8.947   5.700  0.1929  0.2312 -0.8507
  694MOL0     C95691   6.832   8.926   5.714  0.3155  0.1354 -0.9032
  694MOL0     C95692   6.919   9.028   5.758  0.6036  0.6989  0.4999
  694MOL0     O95693   7.056   9.016   5.773  0.0919 -0.3655  0.1123
  694MOL0     C95694   7.124   8.887   5.792  0.5265 -0.1495  0.7817
  694MOL0     C95695   7.145   8.853   5.942  0.2118  0.4066  0.2775
  694MOL0     C95696   7.009   8.810   6.003 -0.1443 -0.2825  0.4582
  694MOL0     C95697   6.982   8.663   5.983 -0.3202 -0.7918 -0.4369
  694MOL0     C95698   6.838   8.633   6.012  0.2588  0.1834 -0.2230
  694MOL0     C95699   6.721   8.617   6.047  0.8831 -0.0288 -1.3875
  694MOL0     C95700   6.862   9.157   5.780 -0.7724  0.5835 -0.2907
  694MOL0     C95701   6.722   9.177   5.756 -0.6727 -0.4073  0.9385
  694MOL0     C95702   6.676   9.323   5.778 -0.1483 -0.1894 -0.1280
  694MOL0     H95703   6.360   9.375   5.891 -0.6034  0.9012  0.0157
  694MOL0     H95704   6.115   9.439   5.929 -0.8640 -0.4756  2.4877
  694MOL0     H95705   5.869   9.451   5.942 -1.6719 -1.8026  3.6726
  694MOL0     H95706   5.731   9.364   5.871  0.5511 -0.0180  0.2124
  694MOL0     H95707   5.808   9.553   5.744 -1.4362 -1.4954 -0.4376
  694MOL0     H95708   5.970   9.489   5.731  1.3506 -1.8339  1.6970
  694MOL0     H95709   5.888   9.291   5.610 -3.3466 -2.1802 -0.4542
  694MOL0     H95710   5.727   9.368   5.608 -0.2615  1.6114 -1.3898
  694MOL0     H95711   5.823   9.401   5.403  0.8541 -1.3790  1.4459
  694MOL0     H95712   5.838   9.565   5.477 -0.1722 -0.0070  1.2814
  694MOL0     H95713   6.074   9.543   5.511 -0.1576  0.3987 -1.0097
  694MOL0     H95714   6.025   9.523   5.345 -0.4248  0.0834  0.5712
  694MOL0     H95715   6.099   9.306   5.554  0.1593  2.0395  0.3587
  694MOL0     H95716   6.058   9.277   5.378 -0.6720  0.6581  0.5978
  694MOL0     H95717   6.257   9.440   5.328 -3.5148 -1.1528 -0.7451
  694MOL0     H95718   6.287   9.277   5.365  1.6180  1.4120 -1.3200
  694MOL0     H95719   6.293   9.506   5.582  0.3714  0.0303 -1.0678
  694MOL0     H95720   6.331   9.342   5.615  0.1238  0.2608  0.2124
  694MOL0     H95721   6.509   9.221   5.412 -1.7574  0.2653  0.6796
  694MOL0     H95722   6.804   9.351   5.237  0.3199  0.0649 -0.0067
  694MOL0     H95723   6.741   9.211   5.327  4.6474 -1.4954  1.2731
  694MOL0     H95724   6.827   9.315   5.539  0.8095 -2.0915  0.4547
  694MOL0     H95725   6.916   9.206   5.436 -1.3092 -0.6147 -1.2414
  694MOL0     H95726   6.915   9.516   5.416  0.8366 -0.1458 -0.6920
  694MOL0     H95727   7.008   9.430   5.533  1.2010 -0.7666 -1.8883
  694MOL0     H95728   7.038   9.433   5.228  0.9031  0.8279  0.4763
  694MOL0     H95729   7.144   9.491   5.357 -0.2142 -0.0437 -1.0032
  694MOL0     H95730   7.366   9.390   5.231 -0.5170  0.1283 -0.1777
  694MOL0     H95731   7.689   9.419   5.334  0.1917  0.5523 -0.7923
  694MOL0     H95732   7.591   9.527   5.438 -1.7872 -1.7110  1.0430
  694MOL0     H95733   7.548   9.509   5.270  1.3528 -0.2160 -0.4085
  694MOL0     H95734   7.664   9.259   5.984  1.6227 -0.2996  2.6643
  694MOL0     H95735   7.876   9.189   6.119  0.3238  1.7367 -0.5729
  694MOL0     H95736   8.106   8.936   5.923 -0.6891 -0.7730  0.5998
  694MOL0     H95737   8.255   9.025   5.946  0.3311  0.5491 -0.1171
  694MOL0     H95738   8.093   8.920   6.179  0.2834  1.4385  0.4382
  694MOL0     H95739   8.213   8.816   6.109  3.5125  0.4734  1.6974
  694MOL0     H95740   8.258   8.964   6.308  0.3414 -0.7043 -0.2571
  694MOL0     H95741   8.273   9.107   6.199 -1.2986 -0.2690 -1.9808
  694MOL0     H95742   8.455   8.984   6.077 -1.8694  0.2441  1.0280
  694MOL0     H95743   8.423   8.837   6.172  0.5195  0.0005  1.1488
  694MOL0     H95744   8.511   9.114   6.260 -1.0479  0.0627  0.0543
  694MOL0     H95745   8.486   9.001   6.386  0.0579 -1.1729 -0.0507
  694MOL0     H95746   8.696   8.991   6.178 -0.9849 -0.4761 -0.4046
  694MOL0     H95747   8.664   8.850   6.293  0.8022 -0.7058 -2.0163
  694MOL0     H95748   8.682   9.026   6.488  2.1096  0.5686  0.7979
  694MOL0     H95749   8.756   9.134   6.381  0.9112 -1.2977 -1.8894
  694MOL0     H95750   8.918   8.959   6.317  0.1105  1.0122 -0.5560
  694MOL0     H95751   8.832   8.859   6.438  1.3852 -0.8884 -0.9621
  694MOL0     H95752   8.059   9.066   5.769  0.8751  2.0410  0.7018
  694MOL0     H95753   7.854   9.109   5.637  0.1798 -0.0651 -0.6140
  694MOL0     H95754   7.431   9.118   5.640  4.4712 -2.0947 -1.3031
  694MOL0     H95755   7.199   9.142   5.529  0.7792 -0.8798 -0.6078
  694MOL0     H95756   6.000   9.036   5.873  0.4373 -0.6517  3.8436
  694MOL0     H95757   6.239   8.963   5.858  2.2972  0.7810 -2.2797
  694MOL0     H95758   6.644   8.854   5.684 -1.0826  0.7826  0.0118
  694MOL0     H95759   6.880   8.831   5.693  3.6418  1.2423  1.0453
  694MOL0     H95760   7.060   8.816   5.739  1.6466 -0.5283 -0.0982
  694MOL0     H95761   7.217   8.891   5.735  0.2087 -1.1401  0.1585
  694MOL0     H95762   7.180   8.943   5.993 -0.1363  0.4372  0.4674
  694MOL0     H95763   7.225   8.783   5.965  1.1536  1.8845  1.6619
  694MOL0     H95764   6.993   8.839   6.107  0.0904  0.7261  0.2249
  694MOL0     H95765   6.934   8.866   5.946 -0.0386 -2.5566 -2.1803
  694MOL0     H95766   7.046   8.601   6.046  0.3043  0.1812 -0.0890
  694MOL0     H95767   7.012   8.643   5.880  4.2948  0.7841  0.3635
  694MOL0     H95768   6.619   8.598   6.074  2.4608 -3.2556  3.5599
  694MOL0     H95769   6.932   9.238   5.797 -1.4621  1.2404 -0.5152
  694MOL0     H95770   6.627   9.357   5.686  0.9401  0.8121 -0.3624
  694MOL0     H95771   6.609   9.320   5.865 -0.2138 -0.9106 -0.1999
  694MOL0     H95772   6.759   9.391   5.798 -1.2554  1.1064  0.2712
  695MOL0     O95773   0.773  10.764   0.983 -0.1849 -0.4828  0.6073
  695MOL0     C95774   0.672  10.703   1.024  0.9636 -0.3610 -0.3048
  695MOL0     O95775   0.677  10.581   1.093 -0.0617 -0.5104 -0.3286
  695MOL0     C95776   0.799  10.529   1.117 -0.2492 -0.4077 -0.5049
  695MOL0     C95777   0.868  10.566   1.235  0.4542 -0.0267  0.7490
  695MOL0     C95778   0.987  10.507   1.263 -0.2935  0.6360  0.0685
  695MOL0     C95779   1.057  10.418   1.177 -0.2911 -0.5385  1.2969
  695MOL0     O95780   1.180  10.366   1.175 -0.3733 -0.3759 -0.1637
  695MOL0     C95781   1.261  10.389   1.291 -0.4758  0.2162 -0.3385
  695MOL0     C95782   1.383  10.295   1.301  0.3036 -0.2127 -0.1704
  695MOL0     C95783   1.483  10.324   1.190  0.6462  0.2974  0.3048
  695MOL0     C95784   1.476  10.213   1.076  0.5816 -0.2560  0.0449
  695MOL0     C95785   1.564  10.244   0.957 -1.0009  0.4081 -0.7505
  695MOL0     C95786   1.718  10.219   0.980 -0.7795 -0.7269  0.2251
  695MOL0     C95787   1.756  10.065   0.986  0.8622 -1.0769 -0.0918
  695MOL0     C95788   1.733  10.003   1.120 -0.1416  0.0140 -0.1030
  695MOL0     N95789   1.840   9.912   1.171 -0.6487  1.3449 -0.0028
  695MOL0     C95790   1.906   9.807   1.097 -0.2949 -0.9993 -0.0436
  695MOL0     C95791   1.984   9.748   1.194  0.3373  0.0758 -1.3376
  695MOL0     C95792   2.085   9.639   1.173  0.1840  0.3000 -0.2088
  695MOL0     C95793   2.192   9.676   1.062 -0.3569 -0.3490 -0.2513
  695MOL0     C95794   2.279   9.552   1.047  0.5896 -0.6879  0.3950
  695MOL0     C95795   2.394   9.527   1.151 -0.8999  0.5449  0.3284
  695MOL0     O95796   2.474   9.419   1.098 -0.0024  0.0631 -0.9565
  695MOL0     C95797   2.578   9.376   1.176 -0.5659  0.1150 -0.6486
  695MOL0     C95798   2.675   9.302   1.108  0.4824  1.0130  0.4678
  695MOL0     C95799   2.794   9.277   1.164 -0.5124  0.7512 -0.3836
  695MOL0     C95800   2.896   9.211   1.075 -0.8991  0.4990  0.4181
  695MOL0     C95801   2.829   9.327   1.293 -0.7712  0.3516  0.5648
  695MOL0     C95802   2.951   9.307   1.370 -0.9104 -0.5456  0.7739
  695MOL0     O95803   2.969   9.390   1.483 -0.0715  0.4723 -0.0115
  695MOL0     C95804   3.067   9.375   1.571 -0.7735 -0.5989 -0.2848
  695MOL0     C95805   3.053   9.297   1.687  0.5719 -0.5671  0.6196
  695MOL0     C95806   3.155   9.289   1.787  0.5666  0.4195 -0.0074
  695MOL0     C95807   3.280   9.347   1.771 -0.3880  0.1190 -0.5952
  695MOL0     O95808   3.384   9.325   1.857  0.5797  0.3461 -0.6932
  695MOL0     C95809   3.361   9.264   1.985 -0.0934 -0.1213  0.2357
  695MOL0     C95810   3.486   9.271   2.075 -0.4417 -0.0366 -0.4387
  695MOL0     C95811   3.602   9.177   2.040 -0.0375  0.5417  0.4017
  695MOL0     C95812   3.717   9.188   2.141  1.0266  0.4802  0.6209
  695MOL0     C95813   3.837   9.096   2.109 -0.6460  0.3629 -0.7415
  695MOL0     C95814   3.935   9.080   2.225  0.1989  0.0789  0.0491
  695MOL0     C95815   4.041   8.985   2.175 -0.3921  0.1508 -0.4418
  695MOL0     C95816   4.123   8.923   2.279  0.8172  0.2811 -0.1228
  695MOL0    Cl95817   4.209   9.056   2.371  0.1327 -0.3376  0.3610
  695MOL0     C95818   3.297   9.433   1.657 -0.1483  0.4455 -0.5526
  695MOL0     C95819   3.193   9.443   1.565 -0.6308 -0.2852  0.6120
  695MOL0     O95820   3.035   9.227   1.331 -0.6977  0.1564 -0.1367
  695MOL0     C95821   2.726   9.403   1.358 -0.5156 -0.8920 -0.8257
  695MOL0     C95822   2.604   9.420   1.311 -0.2723 -0.2805  0.3915
  695MOL0     N95823   1.969   9.811   1.315  0.0366 -0.4453  0.3741
  695MOL0     N95824   1.883   9.904   1.299  0.3833 -0.4106 -0.5040
  695MOL0     C95825   0.984  10.384   1.057  0.1867  0.3121 -1.1647
  695MOL0     C95826   0.855  10.438   1.032  0.6776  0.0164  0.5578
  695MOL0     C95827   0.541  10.752   0.990  0.2432 -0.7389 -1.3908
  695MOL0     C95828   0.436  10.662   0.991 -0.0747  0.5025  0.4195
  695MOL0     C95829   0.313  10.699   0.949 -0.4679 -0.6837 -0.1005
  695MOL0     C95830   0.291  10.831   0.917  0.0956  0.1741  0.3416
  695MOL0     O95831   0.173  10.868   0.853 -0.4932  0.8634 -0.3547
  695MOL0     C95832   0.166  10.827   0.722 -0.3992 -0.2851 -0.3916
  695MOL0     C95833   0.029  10.837   0.656  0.0286 -0.6977  0.4538
  695MOL0     C95834  -0.010  10.985   0.626  1.1472 -0.3358 -0.3268
  695MOL0     C95835  -0.163  11.012   0.637 -1.1007 -0.5122 -0.2422
  695MOL0     C95836  -0.229  10.936   0.525 -1.0049 -0.5073 -0.6899
  695MOL0     C95837  -0.290  10.877   0.435 -0.5498  0.1606  0.1940
  695MOL0     C95838   0.398  10.922   0.918  0.0129 -0.0954 -0.3613
  695MOL0     C95839   0.523  10.891   0.971 -0.5363  1.3436  0.2770
  695MOL0     C95840   0.625  10.994   0.995  0.3543  0.0076 -0.4058
  695MOL0     H95841   0.832  10.638   1.309 -0.0657 -0.2637  0.7320
  695MOL0     H95842   1.028  10.527   1.361  0.8126 -1.4307  0.0647
  695MOL0     H95843   1.204  10.381   1.384 -0.4133  0.8257 -0.2384
  695MOL0     H95844   1.293  10.494   1.285 -1.4912  0.5031 -1.0283
  695MOL0     H95845   1.432  10.328   1.394 -1.1418 -0.5175  0.7214
  695MOL0     H95846   1.356  10.189   1.306  4.9381 -1.6875 -1.0969
  695MOL0     H95847   1.475  10.425   1.147  2.9712 -0.2335 -1.5629
  695MOL0     H95848   1.585  10.325   1.227 -0.5953  0.1103  4.1633
  695MOL0     H95849   1.507  10.122   1.129  2.5022  0.7677  0.7690
  695MOL0     H95850   1.371  10.216   1.047  0.0413  1.2084  1.9693
  695MOL0     H95851   1.540  10.346   0.925 -1.9594  0.6864  0.7426
  695MOL0     H95852   1.528  10.177   0.878 -0.5534 -0.7590  0.0196
  695MOL0     H95853   1.772  10.269   0.899 -0.8083 -1.9916 -0.6138
  695MOL0     H95854   1.740  10.273   1.072  1.0688 -2.7688  1.0837
  695MOL0     H95855   1.863  10.071   0.966  0.8209  0.2157 -0.0029
  695MOL0     H95856   1.700  10.012   0.909 -1.5529  0.9676  0.1159
  695MOL0     H95857   1.715  10.083   1.193 -3.4485 -0.4173 -0.2998
  695MOL0     H95858   1.642   9.943   1.113  1.0768 -1.9931  0.4452
  695MOL0     H95859   1.901   9.792   0.990  1.8926 -3.3060  0.0916
  695MOL0     H95860   2.019   9.556   1.145 -1.8247  0.1330  4.2304
  695MOL0     H95861   2.134   9.616   1.268  2.9224 -0.0304 -1.5914
  695MOL0     H95862   2.141   9.702   0.969 -0.1013 -0.0919 -0.3202
  695MOL0     H95863   2.250   9.760   1.101 -1.0525 -1.1327  2.6591
  695MOL0     H95864   2.212   9.465   1.047 -3.4497  1.9929  4.5148
  695MOL0     H95865   2.329   9.550   0.950 -0.4883 -0.0074 -0.2012
  695MOL0     H95866   2.455   9.615   1.174  0.8762 -0.9307  1.4444
  695MOL0     H95867   2.340   9.497   1.241 -0.7446 -0.5735  0.0551
  695MOL0     H95868   2.661   9.282   1.003 -1.4167  3.8583  0.0795
  695MOL0     H95869   2.868   9.204   0.969  3.6601  0.4019 -0.9656
  695MOL0     H95870   2.912   9.109   1.111 -1.3432  0.9525  1.9518
  695MOL0     H95871   2.991   9.265   1.072  0.5377 -1.8765  0.9550
  695MOL0     H95872   2.960   9.252   1.717 -0.7899  0.2530 -2.0042
  695MOL0     H95873   3.135   9.224   1.871  1.1506  1.0124  0.6038
  695MOL0     H95874   3.282   9.320   2.035  0.5489  1.6637 -0.6296
  695MOL0     H95875   3.335   9.159   1.970 -1.6214 -0.1123  2.3814
  695MOL0     H95876   3.520   9.375   2.073 -0.9319  0.1893  1.1309
  695MOL0     H95877   3.456   9.254   2.179 -2.4716  2.9824 -0.3826
  695MOL0     H95878   3.638   9.181   1.937 -1.7085  1.1784 -0.1915
  695MOL0     H95879   3.553   9.080   2.055 -0.8737  0.9484  0.4008
  695MOL0     H95880   3.666   9.160   2.234 -0.6044 -0.4049 -0.5008
  695MOL0     H95881   3.745   9.293   2.149 -0.0516  1.0725 -2.4728
  695MOL0     H95882   3.800   8.995   2.090 -4.3633  1.7264 -1.5104
  695MOL0     H95883   3.904   9.133   2.031  2.4618  0.0621  1.5602
  695MOL0     H95884   3.879   9.026   2.303  1.0219 -1.7309 -0.5412
  695MOL0     H95885   3.981   9.172   2.262  0.5198  0.8336 -2.0765
  695MOL0     H95886   4.113   9.034   2.109  0.6980 -0.3271  0.3546
  695MOL0     H95887   4.001   8.903   2.114 -0.7508 -0.7148  0.9122
  695MOL0     H95888   4.197   8.856   2.236  1.1679  0.5743  0.0176
  695MOL0     H95889   4.068   8.868   2.356 -0.5819  3.3752  1.2701
  695MOL0     H95890   3.392   9.476   1.624  0.2583  0.6522  0.8347
  695MOL0     H95891   3.209   9.499   1.474 -0.2422 -1.2666  0.0582
  695MOL0     H95892   2.749   9.442   1.456  2.5580 -0.2485 -1.6886
  695MOL0     H95893   2.524   9.459   1.374 -0.5791 -0.9353  0.4072
  695MOL0     H95894   1.024  10.306   0.992 -0.1076 -1.9179  1.1726
  695MOL0     H95895   0.798  10.418   0.942 -1.0541  2.4768  1.0174
  695MOL0     H95896   0.448  10.563   1.034  2.4456  0.7195  0.3584
  695MOL0     H95897   0.232  10.626   0.947 -0.4273 -0.8402  1.6807
  695MOL0     H95898   0.238  10.886   0.664  0.3487  1.3312  2.0199
  695MOL0     H95899   0.191  10.721   0.714 -1.0725 -0.3901 -1.1770
  695MOL0     H95900  -0.033  10.787   0.731  0.1995  0.6337  1.5480
  695MOL0     H95901   0.028  10.790   0.558  0.0340  0.1877  0.0162
  695MOL0     H95902   0.039  11.047   0.702  2.4206  0.8260 -2.0137
  695MOL0     H95903   0.022  11.012   0.525  1.3300  2.0682  0.3165
  695MOL0     H95904  -0.162  11.121   0.634 -0.1764 -0.2284  3.9213
  695MOL0     H95905  -0.199  10.975   0.733  1.5825 -0.5858  0.8453
  695MOL0     H95906  -0.339  10.833   0.351  0.1125 -0.7747  0.2836
  695MOL0     H95907   0.369  11.024   0.894  1.8499  0.9751  1.5879
  695MOL0     H95908   0.663  10.987   1.098 -1.6016  1.8946  0.5342
  695MOL0     H95909   0.708  10.994   0.924  0.0619 -2.5782 -0.8631
  695MOL0     H95910   0.577  11.092   1.002 -0.6927 -0.5292  0.2388
  696MOL0     O95911   3.876   3.091   9.135 -0.1405  0.0665 -0.3348
  696MOL0     C95912   3.794   3.058   9.050 -0.2767  0.4506  0.4288
  696MOL0     O95913   3.770   2.932   9.012  0.3092 -0.3161 -0.1073
  696MOL0     C95914   3.847   2.831   9.059 -0.9001 -0.5254  0.1887
  696MOL0     C95915   3.829   2.784   9.186 -0.3577  0.3130  1.0571
  696MOL0     C95916   3.919   2.692   9.242  0.1193 -0.1074  0.0143
  696MOL0     C95917   4.025   2.643   9.166  0.4742  0.2540  1.0076
  696MOL0     O95918   4.100   2.536   9.208  0.2150 -0.0915 -0.0308
  696MOL0     C95919   4.118   2.522   9.347  0.5156 -0.0042  0.1132
  696MOL0     C95920   4.202   2.398   9.358 -0.4526 -0.0092  0.0042
  696MOL0     C95921   4.184   2.321   9.493  0.1252 -0.1156 -0.1754
  696MOL0     C95922   4.219   2.403   9.621  0.6887 -0.5508 -0.0284
  696MOL0     C95923   4.175   2.324   9.740 -1.4826  0.3381  0.5337
  696MOL0     C95924   4.179   2.403   9.876  0.3341  0.1057 -0.7503
  696MOL0     C95925   4.317   2.474   9.899  0.2979 -0.1052  1.0481
  696MOL0     C95926   4.315   2.543  10.040  0.5274 -0.2129 -0.5214
  696MOL0     N95927   4.444   2.596  10.092 -0.2450  0.6422  0.0215
  696MOL0     C95928   4.518   2.694  10.036  0.2567  0.2862  0.2949
  696MOL0     C95929   4.640   2.674  10.090  0.0153  0.1479  0.5124
  696MOL0     C95930   4.765   2.759  10.073 -0.5735  0.7093  0.6320
  696MOL0     C95931   4.817   2.759   9.925 -0.5602 -0.1079  0.3849
  696MOL0     C95932   4.912   2.874   9.903  0.1870 -0.2280 -0.1798
  696MOL0     C95933   5.032   2.874  10.003  0.1921  0.8072 -0.3903
  696MOL0     O95934   5.116   2.765   9.954  0.1955  0.1437  0.0511
  696MOL0     C95935   5.242   2.787   9.898  0.1194  0.5224  0.7595
  696MOL0     C95936   5.314   2.678   9.850 -0.5521  0.6684 -0.9103
  696MOL0     C95937   5.444   2.689   9.800 -0.8732  0.3292  0.1855
  696MOL0     C95938   5.514   2.562   9.765 -0.0216 -0.4657 -0.4270
  696MOL0     C95939   5.512   2.818   9.802  0.1015  0.6495  0.5649
  696MOL0     C95940   5.644   2.841   9.736 -0.2867 -0.0961  0.5785
  696MOL0     O95941   5.718   2.934   9.807 -0.4116  0.9293  1.3749
  696MOL0     C95942   5.835   2.969   9.737 -0.5635  0.6235 -0.0977
  696MOL0     C95943   5.940   2.883   9.719  0.7623 -0.1114 -0.4048
  696MOL0     C95944   6.061   2.931   9.668 -0.0931  0.3618 -0.4393
  696MOL0     C95945   6.069   3.059   9.624 -0.5180  0.2175 -0.1879
  696MOL0     O95946   6.187   3.121   9.590  0.6040  0.0894 -0.2543
  696MOL0     C95947   6.260   3.042   9.495 -0.5771  0.2637 -0.1836
  696MOL0     C95948   6.354   3.143   9.427  0.0290 -0.7108 -0.3638
  696MOL0     C95949   6.469   3.074   9.342 -0.9358 -0.2014  0.2869
  696MOL0     C95950   6.556   3.184   9.277 -0.3152  0.2434  0.3458
  696MOL0     C95951   6.650   3.118   9.175  0.7156  0.0079  0.1841
  696MOL0     C95952   6.772   3.206   9.132  0.5084 -0.0995  0.4250
  696MOL0     C95953   6.850   3.122   9.041 -0.6988 -0.3973  0.6136
  696MOL0     C95954   6.948   3.211   8.971 -0.1227 -0.3238  0.8738
  696MOL0    Cl95955   7.070   3.271   9.083  0.0197 -0.4230  0.2374
  696MOL0     C95956   5.966   3.147   9.652  0.6257  0.5458  0.4731
  696MOL0     C95957   5.842   3.103   9.701  0.1066 -0.0514 -0.3696
  696MOL0     O95958   5.681   2.795   9.626 -0.0919  0.6109 -0.3209
  696MOL0     C95959   5.428   2.930   9.820 -0.3811 -0.0113  0.5025
  696MOL0     C95960   5.305   2.911   9.881  0.8620  0.1049 -0.6182
  696MOL0     N95961   4.639   2.555  10.161  0.4511 -0.0516 -0.3995
  696MOL0     N95962   4.523   2.509  10.155 -0.0213 -0.5777 -0.2896
  696MOL0     C95963   4.041   2.691   9.036  0.1070 -0.5362  0.7145
  696MOL0     C95964   3.952   2.785   8.978  0.2530 -0.1075  0.5033
  696MOL0     C95965   3.722   3.162   8.967  0.7871  0.7758 -0.0662
  696MOL0     C95966   3.595   3.120   8.910  0.2779 -0.6117 -0.1677
  696MOL0     C95967   3.525   3.209   8.833 -0.2955  0.2205  0.0598
  696MOL0     C95968   3.556   3.341   8.829  0.2993  0.7788 -0.8135
  696MOL0     O95969   3.473   3.415   8.758 -0.1952  0.2056  0.4568
  696MOL0     C95970   3.435   3.538   8.825 -0.1559  0.3804  0.3612
  696MOL0     C95971   3.281   3.527   8.824 -0.4889 -0.5127  0.1012
  696MOL0     C95972   3.226   3.410   8.899  0.1055  0.1148 -0.1170
  696MOL0     C95973   3.087   3.435   8.956 -0.0049 -0.7951 -0.9398
  696MOL0     C95974   3.088   3.514   9.077 -0.2620  0.2694  0.0950
  696MOL0     C95975   3.082   3.582   9.176 -0.1185 -0.3157  0.0976
  696MOL0     C95976   3.666   3.391   8.895  0.0460  0.4609 -1.0658
  696MOL0     C95977   3.757   3.301   8.956 -0.8675 -0.5004  0.2639
  696MOL0     C95978   3.892   3.351   8.994  0.0324 -0.2885 -0.3388
  696MOL0     H95979   3.748   2.818   9.249  0.5719  2.4849  1.1869
  696MOL0     H95980   3.887   2.652   9.337 -2.2203  1.8399  0.1631
  696MOL0     H95981   4.025   2.504   9.402  0.9467 -2.4277  0.1574
  696MOL0     H95982   4.171   2.609   9.386 -0.1471  0.5277 -0.1668
  696MOL0     H95983   4.171   2.332   9.277  2.0205 -0.5535 -0.5907
  696MOL0     H95984   4.309   2.413   9.341 -0.9779  0.1547 -4.2306
  696MOL0     H95985   4.085   2.275   9.495  1.2999 -3.3993 -4.2164
  696MOL0     H95986   4.250   2.234   9.491  1.3739  0.7347  1.2782
  696MOL0     H95987   4.324   2.430   9.629  0.8499 -1.3325  0.7135
  696MOL0     H95988   4.165   2.498   9.614  0.8562 -0.5862 -2.7384
  696MOL0     H95989   4.247   2.242   9.754 -1.8143 -0.6961 -2.8711
  696MOL0     H95990   4.075   2.281   9.733 -0.6832 -2.3486  3.4007
  696MOL0     H95991   4.101   2.475   9.852 -1.7255 -2.1329 -1.1720
  696MOL0     H95992   4.153   2.339   9.961 -0.1809  3.7203  2.0490
  696MOL0     H95993   4.334   2.554   9.826  0.5551  0.2024  1.4437
  696MOL0     H95994   4.394   2.397   9.906 -0.3443 -0.7631  0.9301
  696MOL0     H95995   4.240   2.622  10.046 -0.9404 -1.6678  2.4566
  696MOL0     H95996   4.282   2.467  10.112  1.3650 -1.6562 -1.6079
  696MOL0     H95997   4.494   2.763   9.956 -1.1935 -1.6404 -1.0306
  696MOL0     H95998   4.846   2.716  10.132  1.6660  1.2517 -1.8393
  696MOL0     H95999   4.743   2.861  10.106 -2.1250  0.1783  1.3085
  696MOL0     H96000   4.869   2.666   9.900  0.1059  0.3463  0.0458
  696MOL0     H96001   4.733   2.778   9.858  1.1933  1.3710 -1.5057
  696MOL0     H96002   4.964   2.884   9.808 -0.1265  2.7493 -0.1343
  696MOL0     H96003   4.841   2.957   9.915 -3.6069 -3.0542 -1.1781
  696MOL0     H96004   5.084   2.970  10.003 -1.3241  1.6542  0.1606
  696MOL0     H96005   5.009   2.857  10.108  0.4309 -0.0213 -0.4683
  696MOL0     H96006   5.259   2.585   9.856 -0.2383  0.5777  1.2662
  696MOL0     H96007   5.620   2.580   9.785 -0.5526  1.2512  1.1318
  696MOL0     H96008   5.493   2.518   9.667  1.6275 -0.4041 -0.8494
  696MOL0     H96009   5.492   2.480   9.833 -2.5001 -0.5377 -1.2219
  696MOL0     H96010   5.929   2.779   9.748 -0.7005 -0.4632 -2.0587
  696MOL0     H96011   6.147   2.867   9.649  0.1800  1.1768 -2.1214
  696MOL0     H96012   6.324   2.969   9.546 -0.5705  0.5392  0.2012
  696MOL0     H96013   6.201   2.997   9.415  0.2812 -0.0247 -0.6760
  696MOL0     H96014   6.299   3.218   9.369 -1.1714 -0.2473  1.2820
  696MOL0     H96015   6.386   3.206   9.511 -1.1696  0.6781 -0.8953
  696MOL0     H96016   6.435   2.998   9.271  1.2391 -2.2291  1.2638
  696MOL0     H96017   6.532   3.024   9.417 -3.3646 -1.5688  1.5245
  696MOL0     H96018   6.626   3.234   9.346  1.1559 -1.9346  0.5136
  696MOL0     H96019   6.499   3.260   9.222 -0.6343 -1.2591 -1.4814
  696MOL0     H96020   6.695   3.032   9.226  0.0185 -1.1809 -1.1613
  696MOL0     H96021   6.590   3.088   9.089 -0.3205 -1.8004  1.4797
  696MOL0     H96022   6.839   3.226   9.216 -1.8645  1.3025  2.1088
  696MOL0     H96023   6.749   3.302   9.085  1.4121 -0.7627 -1.4936
  696MOL0     H96024   6.791   3.074   8.962  0.7170  1.2338 -1.5466
  696MOL0     H96025   6.909   3.052   9.101 -0.5058  1.6771  2.9818
  696MOL0     H96026   6.895   3.295   8.923  1.1990  1.3559  2.2092
  696MOL0     H96027   7.005   3.157   8.896 -1.3570  0.5804 -0.7943
  696MOL0     H96028   5.982   3.252   9.626 -0.1856  1.3559  2.9651
  696MOL0     H96029   5.751   3.160   9.718 -0.5973 -1.9451  2.9186
  696MOL0     H96030   5.461   3.032   9.800  0.0612 -0.7672 -3.1360
  696MOL0     H96031   5.249   3.001   9.903 -0.6819 -0.7004 -1.1127
  696MOL0     H96032   4.115   2.644   8.973  1.0594 -2.7285  3.3041
  696MOL0     H96033   3.975   2.821   8.878 -1.3579  0.9533  0.4651
  696MOL0     H96034   3.545   3.029   8.943 -2.2385  1.4238  2.0699
  696MOL0     H96035   3.426   3.170   8.811 -0.1383 -1.8935  2.6602
  696MOL0     H96036   3.466   3.537   8.930  0.1012 -0.3844  0.2913
  696MOL0     H96037   3.470   3.622   8.766 -0.1797  0.5725  0.6173
  696MOL0     H96038   3.244   3.525   8.721  0.3981 -3.1842 -0.2271
  696MOL0     H96039   3.248   3.620   8.871 -1.7200 -1.0341  0.3077
  696MOL0     H96040   3.217   3.317   8.841  0.6340 -2.5469  3.6798
  696MOL0     H96041   3.301   3.386   8.975 -0.4709  0.0866  0.4520
  696MOL0     H96042   3.026   3.344   8.963  0.3107 -1.1326 -2.3202
  696MOL0     H96043   3.040   3.494   8.877  0.5060  0.3078 -0.4351
  696MOL0     H96044   3.064   3.635   9.267 -0.5426 -0.6080  0.1906
  696MOL0     H96045   3.693   3.496   8.897  0.2554  0.4136  1.2760
  696MOL0     H96046   3.876   3.405   9.088 -0.6042  2.5143 -1.9323
  696MOL0     H96047   3.971   3.276   8.991  2.3478  2.0245 -1.1805
  696MOL0     H96048   3.922   3.433   8.929  0.3872 -0.1509 -0.0085
  697MOL0     O96049   0.553   4.337   6.324 -0.4489 -1.2906  0.6520
  697MOL0     C96050   0.532   4.244   6.401  0.0087 -0.7342  0.0241
  697MOL0     O96051   0.620   4.193   6.488 -0.6085  0.4836 -0.1296
  697MOL0     C96052   0.742   4.238   6.500 -0.6822 -0.2259 -0.3089
  697MOL0     C96053   0.778   4.255   6.637 -0.1482 -0.6402 -0.2578
  697MOL0     C96054   0.908   4.288   6.676  0.6318 -0.5547 -0.8393
  697MOL0     C96055   1.005   4.303   6.586  0.2984  0.0808  0.2282
  697MOL0     O96056   1.137   4.326   6.607 -0.1934 -0.5422  0.2350
  697MOL0     C96057   1.190   4.279   6.728 -1.7473  0.9188 -0.6245
  697MOL0     C96058   1.345   4.265   6.718  0.2332 -0.1197 -0.3760
  697MOL0     C96059   1.410   4.403   6.733 -1.0878  0.0697  0.2360
  697MOL0     C96060   1.562   4.387   6.713 -0.5306  0.3077  0.0823
  697MOL0     C96061   1.652   4.521   6.723 -0.1524 -0.5880 -0.0490
  697MOL0     C96062   1.796   4.481   6.688 -0.0234  0.0648 -0.2530
  697MOL0     C96063   1.903   4.570   6.751  0.3516  0.1833  0.5716
  697MOL0     C96064   1.868   4.713   6.736 -0.4992 -0.6510  0.5395
  697MOL0     N96065   1.985   4.802   6.762  0.4803  0.0931  0.0931
  697MOL0     C96066   2.054   4.880   6.667 -0.8780  0.1737  0.2781
  697MOL0     C96067   2.127   4.975   6.741  0.5018 -0.1504 -1.0180
  697MOL0     C96068   2.209   5.085   6.684  0.0370 -0.4076  0.4150
  697MOL0     C96069   2.232   5.207   6.770 -0.7859 -0.3155 -0.0855
  697MOL0     C96070   2.337   5.309   6.703 -0.0112  0.0025  0.5684
  697MOL0     C96071   2.481   5.255   6.713 -0.1878 -0.3472  0.0343
  697MOL0     O96072   2.575   5.349   6.652  1.1440 -0.1048  0.1058
  697MOL0     C96073   2.704   5.324   6.647  0.1636  0.0733  0.0596
  697MOL0     C96074   2.789   5.424   6.619 -0.7610  1.0253 -0.4893
  697MOL0     C96075   2.928   5.411   6.634  0.1016 -0.2335 -0.3821
  697MOL0     C96076   3.017   5.532   6.616 -0.2425 -0.5576  0.1007
  697MOL0     C96077   2.991   5.286   6.660  0.2811 -0.6078  0.0912
  697MOL0     C96078   3.136   5.258   6.674 -0.6131 -0.1405  0.4876
  697MOL0     O96079   3.222   5.357   6.651  0.7613  0.4436  0.0360
  697MOL0     C96080   3.359   5.342   6.648  0.0906 -0.0965  0.4285
  697MOL0     C96081   3.424   5.265   6.551  0.5238 -0.4581 -0.0178
  697MOL0     C96082   3.567   5.250   6.547 -0.5943 -0.0256 -0.1000
  697MOL0     C96083   3.649   5.316   6.639  0.1930  0.6508  0.0571
  697MOL0     O96084   3.787   5.315   6.625  0.6599  0.2488 -0.0128
  697MOL0     C96085   3.863   5.433   6.661 -0.1753  0.5983  0.3876
  697MOL0     C96086   3.982   5.425   6.571  0.4391  0.2516  0.5111
  697MOL0     C96087   4.092   5.528   6.613  0.2582 -0.3492  0.9027
  697MOL0     C96088   4.235   5.486   6.587  0.0333 -0.2707 -0.1889
  697MOL0     C96089   4.313   5.567   6.483  0.0011  0.4336  0.5597
  697MOL0     C96090   4.327   5.719   6.495 -0.4516 -1.1067  0.4807
  697MOL0     C96091   4.425   5.761   6.599  0.3832 -0.0621  0.0968
  697MOL0     C96092   4.570   5.761   6.547 -0.2175  0.3692  0.1458
  697MOL0    Cl96093   4.594   5.909   6.440 -0.0025 -0.1936 -0.1442
  697MOL0     C96094   3.586   5.401   6.728  0.3414  0.7824  1.2375
  697MOL0     C96095   3.443   5.405   6.738 -0.0015 -0.3188  0.5357
  697MOL0     O96096   3.172   5.151   6.712 -0.6987  0.0010  0.5515
  697MOL0     C96097   2.899   5.180   6.669  0.1063 -0.5631  0.7272
  697MOL0     C96098   2.762   5.199   6.658 -0.7142  1.5872  0.3537
  697MOL0     N96099   2.108   4.948   6.879  0.2052  0.0054 -0.0396
  697MOL0     N96100   2.034   4.841   6.880 -0.4084 -0.1472  0.0927
  697MOL0     C96101   0.974   4.285   6.447  0.3217  0.1032  0.4907
  697MOL0     C96102   0.839   4.258   6.404  0.0049  0.2885  0.2436
  697MOL0     C96103   0.398   4.180   6.384  0.6082  0.0054 -0.0534
  697MOL0     C96104   0.310   4.241   6.296 -0.0377  0.1002 -0.2753
  697MOL0     C96105   0.175   4.213   6.290  0.2421  0.5686  0.1828
  697MOL0     C96106   0.122   4.115   6.373 -0.9912  0.6486  0.4063
  697MOL0     O96107  -0.008   4.077   6.374  0.1905  0.3863  0.1866
  697MOL0     C96108  -0.095   4.106   6.265  0.5706 -0.3313  0.3697
  697MOL0     C96109  -0.237   4.060   6.296  0.8802 -0.7203 -0.0925
  697MOL0     C96110  -0.308   4.036   6.165  0.2747  0.1583 -0.6446
  697MOL0     C96111  -0.363   4.176   6.100  0.1512  0.3063 -0.6253
  697MOL0     C96112  -0.440   4.250   6.204  0.6918 -0.1766 -0.1271
  697MOL0     C96113  -0.514   4.311   6.283  0.1327  0.6388  0.8268
  697MOL0     C96114   0.209   4.039   6.456  0.0167  0.2998  0.4668
  697MOL0     C96115   0.347   4.073   6.467 -0.3791  0.3151 -0.3172
  697MOL0     C96116   0.416   4.012   6.589  0.2940  0.6040 -1.5151
  697MOL0     H96117   0.697   4.244   6.708  0.2705  2.2312  0.7782
  697MOL0     H96118   0.926   4.303   6.782 -0.5122  1.5849 -0.8750
  697MOL0     H96119   1.149   4.180   6.750  1.2893 -0.3390 -0.1827
  697MOL0     H96120   1.171   4.341   6.816 -0.4267  0.0836  0.2929
  697MOL0     H96121   1.372   4.206   6.806 -1.0568 -1.5099 -0.8695
  697MOL0     H96122   1.377   4.216   6.625 -2.3598 -0.4504 -1.1661
  697MOL0     H96123   1.375   4.464   6.649  1.0064 -0.1798 -0.8947
  697MOL0     H96124   1.399   4.448   6.832  2.5730  0.9767  0.3856
  697MOL0     H96125   1.602   4.306   6.775  2.3303  0.1208 -1.8110
  697MOL0     H96126   1.576   4.346   6.613 -1.2904 -1.6470  0.7202
  697MOL0     H96127   1.646   4.571   6.820  2.5052  0.8230 -0.5173
  697MOL0     H96128   1.617   4.598   6.653 -3.5233 -2.7233 -0.9324
  697MOL0     H96129   1.811   4.382   6.731 -2.5161 -0.2481  0.0863
  697MOL0     H96130   1.800   4.473   6.579  0.0308  1.7002 -0.3939
  697MOL0     H96131   2.000   4.540   6.710 -1.2354  0.0597 -3.5063
  697MOL0     H96132   1.907   4.553   6.859 -0.5515 -0.6705  0.4871
  697MOL0     H96133   1.827   4.734   6.637 -1.6199 -2.3224  0.6007
  697MOL0     H96134   1.799   4.748   6.814  3.2754  2.8766  2.7484
  697MOL0     H96135   2.043   4.870   6.560  1.7325 -1.5791  0.0782
  697MOL0     H96136   2.166   5.116   6.588  2.1094 -1.5118 -0.9527
  697MOL0     H96137   2.310   5.048   6.665  0.1680  0.3973 -0.5980
  697MOL0     H96138   2.136   5.256   6.792 -0.2326  1.2027 -0.9079
  697MOL0     H96139   2.273   5.180   6.868  0.9041  0.9043 -0.4173
  697MOL0     H96140   2.316   5.323   6.597  1.6806 -2.0517 -0.1053
  697MOL0     H96141   2.340   5.408   6.749  2.1902  0.6595 -0.7985
  697MOL0     H96142   2.522   5.230   6.811  0.5240  2.8378  0.6667
  697MOL0     H96143   2.485   5.171   6.643  1.6601 -0.5955  0.3909
  697MOL0     H96144   2.743   5.515   6.582  0.7140  0.5128 -4.0354
  697MOL0     H96145   3.082   5.516   6.529 -0.7677 -2.8185  0.0475
  697MOL0     H96146   3.073   5.553   6.708  2.3440  0.1224 -1.5372
  697MOL0     H96147   2.956   5.620   6.596  1.4676  0.1891 -2.2798
  697MOL0     H96148   3.366   5.205   6.483  1.8623 -1.3594 -0.4146
  697MOL0     H96149   3.617   5.177   6.485 -0.3201 -0.1661  0.2818
  697MOL0     H96150   3.808   5.523   6.631 -0.9612 -0.0264 -0.0720
  697MOL0     H96151   3.897   5.438   6.765 -2.1804 -1.1251  1.1800
  697MOL0     H96152   4.027   5.326   6.577  1.6595  0.6982 -0.7951
  697MOL0     H96153   3.950   5.451   6.470 -0.0489  1.7410  1.0162
  697MOL0     H96154   4.089   5.536   6.722 -0.3292 -1.1670  0.9556
  697MOL0     H96155   4.074   5.624   6.562  0.5574  0.2081  1.8287
  697MOL0     H96156   4.244   5.380   6.562  0.2679  0.0318 -1.4351
  697MOL0     H96157   4.297   5.504   6.676  3.0168 -1.3685 -1.8908
  697MOL0     H96158   4.414   5.528   6.466  0.9475  3.8673 -3.1745
  697MOL0     H96159   4.265   5.550   6.387  0.0933 -1.6078  0.8122
  697MOL0     H96160   4.228   5.762   6.513 -0.0962  0.5181 -1.1198
  697MOL0     H96161   4.347   5.753   6.393  0.0252 -1.5010  0.4397
  697MOL0     H96162   4.417   5.691   6.683 -0.8320 -0.9370 -0.7119
  697MOL0     H96163   4.399   5.863   6.629  0.7709 -0.4936  1.9716
  697MOL0     H96164   4.588   5.669   6.490  0.1081  0.0794  0.7087
  697MOL0     H96165   4.628   5.747   6.639  1.2119 -0.2682 -0.8181
  697MOL0     H96166   3.645   5.464   6.794  2.0209 -0.5064  1.0249
  697MOL0     H96167   3.387   5.481   6.792 -1.0703  0.1856 -1.2248
  697MOL0     H96168   2.940   5.082   6.689 -0.5391 -1.0054 -0.1277
  697MOL0     H96169   2.702   5.108   6.666  0.2302  0.9834  0.7462
  697MOL0     H96170   1.059   4.305   6.383  1.4328  0.5544  2.0281
  697MOL0     H96171   0.813   4.255   6.298  0.7819  0.3046  0.0474
  697MOL0     H96172   0.341   4.321   6.229 -0.9243 -0.9842 -2.0688
  697MOL0     H96173   0.108   4.262   6.220  0.8444  2.0734  0.6118
  697MOL0     H96174  -0.104   4.213   6.247  2.3617 -0.6116 -2.8073
  697MOL0     H96175  -0.042   4.065   6.179 -0.2527  0.7405 -0.6831
  697MOL0     H96176  -0.291   4.119   6.370  0.0843 -0.7805 -0.6194
  697MOL0     H96177  -0.222   3.961   6.342  0.5344 -2.0704 -2.6832
  697MOL0     H96178  -0.243   3.988   6.092  0.6523 -1.0625  0.4439
  697MOL0     H96179  -0.386   3.965   6.193  2.8581 -1.8695  2.1348
  697MOL0     H96180  -0.420   4.152   6.010  1.5843 -2.5563 -0.9078
  697MOL0     H96181  -0.271   4.228   6.073  1.1062 -1.2100 -0.4036
  697MOL0     H96182  -0.580   4.370   6.343 -5.3898 -2.2724 -1.6186
  697MOL0     H96183   0.174   3.957   6.517 -0.7148  0.5741  0.4181
  697MOL0     H96184   0.428   4.070   6.682  2.9014  0.4873 -1.6911
  697MOL0     H96185   0.354   3.928   6.622 -1.9640  1.9584 -2.0870
  697MOL0     H96186   0.515   3.972   6.565  0.5633 -0.6440  1.2864
  698MOL0     O96187   4.672   5.667   3.346  0.4514  0.1145 -0.2173
  698MOL0     C96188   4.621   5.591   3.431  0.3206  0.5601 -0.2141
  698MOL0     O96189   4.684   5.553   3.544  0.4735 -0.3735  0.6026
  698MOL0     C96190   4.811   5.591   3.567  0.1773 -0.8252  0.3662
  698MOL0     C96191   4.915   5.567   3.482  0.0142 -0.3528  1.4515
  698MOL0     C96192   5.048   5.588   3.517  0.3454 -1.1194  0.4650
  698MOL0     C96193   5.083   5.636   3.643  0.1506 -0.4914  0.2322
  698MOL0     O96194   5.215   5.637   3.688 -0.1728 -0.2535  0.0737
  698MOL0     C96195   5.310   5.718   3.614  0.4951  0.4340  0.3552
  698MOL0     C96196   5.458   5.661   3.618  0.1257  0.6466  0.1387
  698MOL0     C96197   5.484   5.544   3.516  0.4694  0.0454 -0.6180
  698MOL0     C96198   5.628   5.488   3.509 -0.4074  0.0279  0.3040
  698MOL0     C96199   5.649   5.368   3.413  0.0716  0.1444 -0.2158
  698MOL0     C96200   5.622   5.400   3.264  0.1637 -0.7568 -0.6080
  698MOL0     C96201   5.684   5.285   3.185  0.4048 -0.8814 -0.4396
  698MOL0     C96202   5.785   5.327   3.082 -0.3184  0.3404  0.8673
  698MOL0     N96203   5.927   5.336   3.130  0.0481  0.0687 -0.3593
  698MOL0     C96204   6.009   5.229   3.147  0.0542 -0.1425 -0.7583
  698MOL0     C96205   6.113   5.279   3.211 -0.5090  0.4351 -0.2154
  698MOL0     C96206   6.239   5.199   3.239 -0.0064 -0.3586 -0.0269
  698MOL0     C96207   6.347   5.288   3.304 -0.1895 -0.3508  0.5446
  698MOL0     C96208   6.484   5.223   3.287  0.0457  0.8245 -0.0959
  698MOL0     C96209   6.601   5.330   3.302  0.5711  0.1447  0.3339
  698MOL0     O96210   6.623   5.398   3.176  0.0262 -0.0409  0.2733
  698MOL0     C96211   6.687   5.516   3.190  0.0670  1.0727  0.2378
  698MOL0     C96212   6.804   5.525   3.249 -0.7535  0.2106 -0.5839
  698MOL0     C96213   6.871   5.647   3.256 -0.3372 -1.0686  0.5999
  698MOL0     C96214   7.012   5.641   3.315  0.6879 -0.1490  0.1369
  698MOL0     C96215   6.813   5.769   3.217  0.3013 -0.0165  1.0674
  698MOL0     C96216   6.869   5.899   3.224 -0.5940  0.0776 -0.2568
  698MOL0     O96217   6.969   5.924   3.141  0.2113  0.6825  0.1409
  698MOL0     C96218   7.027   6.050   3.146 -0.1487  0.1169 -0.4626
  698MOL0     C96219   7.020   6.145   3.242 -0.1093 -0.1909  0.3595
  698MOL0     C96220   7.076   6.278   3.223  0.0520  0.2660 -0.2977
  698MOL0     C96221   7.153   6.307   3.103  0.0983 -0.2036  0.0184
  698MOL0     O96222   7.201   6.434   3.073 -0.3457 -0.5431  0.4696
  698MOL0     C96223   7.221   6.513   3.184  0.3492  0.0135  0.2801
  698MOL0     C96224   7.294   6.637   3.141 -0.1479  0.9903  0.4747
  698MOL0     C96225   7.448   6.615   3.133  0.2151  0.3061  0.5490
  698MOL0     C96226   7.513   6.718   3.046 -0.6091 -1.4299  0.3134
  698MOL0     C96227   7.658   6.677   3.023 -0.3383  1.4416 -0.2726
  698MOL0     C96228   7.727   6.766   2.911  0.5341  0.9089  0.6110
  698MOL0     C96229   7.879   6.726   2.905 -1.1606 -0.0965 -0.2941
  698MOL0     C96230   7.970   6.765   3.022  0.2168 -0.2003 -1.0088
  698MOL0    Cl96231   7.951   6.933   3.089  0.4328  0.5299 -0.0557
  698MOL0     C96232   7.154   6.204   3.006  0.9611  0.4029  0.2180
  698MOL0     C96233   7.089   6.082   3.024 -0.2360  0.5936 -0.5932
  698MOL0     O96234   6.802   5.982   3.284  0.7918  0.3966  0.0383
  698MOL0     C96235   6.682   5.760   3.168  0.0976  0.8290 -0.4533
  698MOL0     C96236   6.622   5.633   3.152  0.5352  0.8158 -0.8590
  698MOL0     N96237   6.094   5.417   3.236  0.4543 -0.8220  0.4929
  698MOL0     N96238   5.986   5.447   3.181  0.5171 -0.1439  0.5793
  698MOL0     C96239   4.980   5.668   3.730 -0.9051  0.3778 -0.3177
  698MOL0     C96240   4.843   5.634   3.696 -0.1059 -1.2016  0.8598
  698MOL0     C96241   4.482   5.544   3.418 -0.4446  0.6066  0.6956
  698MOL0     C96242   4.410   5.511   3.532 -0.1568 -0.1460  0.2721
  698MOL0     C96243   4.285   5.465   3.541  0.1414 -0.1858  1.4094
  698MOL0     C96244   4.216   5.450   3.420  0.3168  0.2159 -0.1764
  698MOL0     O96245   4.085   5.408   3.403 -0.0061  0.1676 -0.1645
  698MOL0     C96246   4.001   5.403   3.518  0.9054  0.3551 -0.3329
  698MOL0     C96247   3.855   5.398   3.486 -0.3703  0.4340 -0.0017
  698MOL0     C96248   3.770   5.350   3.610 -0.1759  0.3677 -0.0690
  698MOL0     C96249   3.621   5.358   3.589  0.7181 -0.2553  0.0633
  698MOL0     C96250   3.574   5.480   3.645  0.2250 -0.2053  0.2895
  698MOL0     C96251   3.538   5.588   3.691 -0.0659 -0.1375 -0.5268
  698MOL0     C96252   4.278   5.487   3.302 -0.4665 -0.2326  0.7289
  698MOL0     C96253   4.408   5.530   3.293  0.1865 -0.2889  0.5354
  698MOL0     C96254   4.467   5.546   3.158 -0.0379 -0.0493 -0.4106
  698MOL0     H96255   4.902   5.519   3.385 -0.2781 -2.4027  2.4603
  698MOL0     H96256   5.123   5.572   3.440 -0.7757  1.5104 -1.3044
  698MOL0     H96257   5.296   5.822   3.646 -0.7726  0.4602 -0.2344
  698MOL0     H96258   5.285   5.720   3.507 -2.4587 -0.9117  0.9427
  698MOL0     H96259   5.530   5.736   3.585  0.4509  0.8976  1.3375
  698MOL0     H96260   5.472   5.635   3.724 -4.2299 -1.3191  0.4201
  698MOL0     H96261   5.424   5.458   3.549  0.2793 -0.1140 -1.3629
  698MOL0     H96262   5.436   5.579   3.425 -0.9468 -0.9527 -0.2881
  698MOL0     H96263   5.691   5.564   3.461 -0.5727 -0.0616 -0.0629
  698MOL0     H96264   5.672   5.471   3.607 -1.8818 -2.0855  0.6666
  698MOL0     H96265   5.580   5.286   3.435 -0.9148  1.0562  0.1816
  698MOL0     H96266   5.753   5.338   3.426 -0.0077 -0.0734 -0.0707
  698MOL0     H96267   5.514   5.403   3.248  0.2791 -1.1279 -1.5048
  698MOL0     H96268   5.669   5.497   3.245 -1.0393 -0.2137 -0.8832
  698MOL0     H96269   5.604   5.232   3.132  0.5496  0.2027 -1.8158
  698MOL0     H96270   5.721   5.205   3.249 -1.2361  0.5546  2.4950
  698MOL0     H96271   5.787   5.249   3.006 -3.0963  0.8265  0.2111
  698MOL0     H96272   5.758   5.425   3.041 -0.1291  0.3495  0.7617
  698MOL0     H96273   5.991   5.124   3.123 -1.2814 -0.0929 -0.0748
  698MOL0     H96274   6.262   5.158   3.140 -1.2653  1.1221 -0.9777
  698MOL0     H96275   6.216   5.117   3.307 -0.3943 -1.3361 -1.2833
  698MOL0     H96276   6.348   5.377   3.240 -2.6093 -1.6778 -1.5357
  698MOL0     H96277   6.317   5.301   3.408 -0.1078 -1.0452  0.6649
  698MOL0     H96278   6.491   5.148   3.366  1.4981  2.3588  1.3350
  698MOL0     H96279   6.493   5.179   3.187 -2.4045  0.0011 -0.0037
  698MOL0     H96280   6.581   5.407   3.377 -2.5535  0.1842 -0.4241
  698MOL0     H96281   6.696   5.289   3.339  1.2361  0.7307 -0.6606
  698MOL0     H96282   6.848   5.433   3.288 -1.0144  1.1615  2.2195
  698MOL0     H96283   7.079   5.717   3.275  1.8438 -0.8285  0.7285
  698MOL0     H96284   7.057   5.542   3.301 -0.2824 -0.5656 -0.1505
  698MOL0     H96285   7.009   5.660   3.423  0.7498 -0.1625  0.1411
  698MOL0     H96286   6.977   6.126   3.340 -0.2446  1.6775  0.7105
  698MOL0     H96287   7.058   6.354   3.299  0.9390 -0.6867  0.9127
  698MOL0     H96288   7.130   6.554   3.229  0.6489  2.1921 -0.9640
  698MOL0     H96289   7.281   6.456   3.255 -0.2457 -0.7944  0.1464
  698MOL0     H96290   7.261   6.670   3.042  1.1702  0.5714 -0.1375
  698MOL0     H96291   7.270   6.708   3.220 -0.9711  1.3558 -0.0910
  698MOL0     H96292   7.468   6.519   3.084 -2.6468 -0.0501 -0.1410
  698MOL0     H96293   7.497   6.604   3.230 -2.7623 -1.4887  1.9920
  698MOL0     H96294   7.509   6.818   3.089 -0.1761 -1.9023  1.4934
  698MOL0     H96295   7.462   6.720   2.949  3.0254  1.4558 -1.7753
  698MOL0     H96296   7.712   6.683   3.119 -2.0174 -0.3906  0.8584
  698MOL0     H96297   7.670   6.577   2.980  1.0143  1.7692 -0.7274
  698MOL0     H96298   7.709   6.871   2.936 -2.1987  0.7082 -0.2604
  698MOL0     H96299   7.677   6.751   2.816 -0.7674  2.7300  0.9718
  698MOL0     H96300   7.924   6.761   2.812  2.9677  1.6080  2.0482
  698MOL0     H96301   7.894   6.618   2.912 -1.3438 -0.0977  0.0900
  698MOL0     H96302   8.075   6.743   3.002  0.6783 -3.6211  3.5601
  698MOL0     H96303   7.945   6.702   3.108  0.1510  1.6646  0.4182
  698MOL0     H96304   7.211   6.216   2.915 -0.7124 -0.2133 -0.9478
  698MOL0     H96305   7.093   6.011   2.943 -1.3037 -3.3245  2.4421
  698MOL0     H96306   6.624   5.849   3.145 -0.7851  0.8438  1.5948
  698MOL0     H96307   6.519   5.622   3.118 -0.1763 -3.5688  1.9211
  698MOL0     H96308   5.002   5.714   3.826  2.5641 -3.4593  1.0325
  698MOL0     H96309   4.769   5.637   3.776 -2.2583 -0.7868 -1.0270
  698MOL0     H96310   4.457   5.531   3.628 -0.5740  1.9869  0.0909
  698MOL0     H96311   4.238   5.443   3.636 -1.9922  1.1329  0.7595
  698MOL0     H96312   4.025   5.307   3.566 -0.8836 -1.2594 -2.4469
  698MOL0     H96313   4.016   5.495   3.574 -3.4666  2.3683 -1.9434
  698MOL0     H96314   3.826   5.338   3.399  0.8071  1.2490 -0.9908
  698MOL0     H96315   3.826   5.498   3.452  0.6877  0.6740 -0.2415
  698MOL0     H96316   3.794   5.243   3.614 -1.5005 -0.3151 -4.4756
  698MOL0     H96317   3.820   5.398   3.694  4.5368  0.5697 -2.6082
  698MOL0     H96318   3.582   5.272   3.644 -0.1699  1.2423  1.8441
  698MOL0     H96319   3.598   5.352   3.482  0.3260  1.7413 -0.0078
  698MOL0     H96320   3.509   5.685   3.727  0.1939  0.3773 -1.6590
  698MOL0     H96321   4.207   5.496   3.221 -0.7249 -1.0887  0.8540
  698MOL0     H96322   4.574   5.521   3.153  0.1481  0.6583 -0.1027
  698MOL0     H96323   4.417   5.475   3.092 -3.2177  1.5703  0.0619
  698MOL0     H96324   4.453   5.647   3.118  1.0492  0.4509  0.4005
  699MOL0     O96325   9.984   7.009   0.966 -0.4744  0.4798 -0.0716
  699MOL0     C96326   9.956   7.110   0.906  0.3214 -0.6071  0.4583
  699MOL0     O96327  10.042   7.210   0.865  0.3140  0.2224  0.2507
  699MOL0     C96328  10.170   7.175   0.844  0.3285  0.1391  0.5241
  699MOL0     C96329  10.251   7.128   0.949 -0.2865  0.1991 -0.2624
  699MOL0     C96330  10.391   7.117   0.937 -0.0703  0.1536 -0.7169
  699MOL0     C96331  10.450   7.138   0.810 -0.2749 -0.4439 -0.3469
  699MOL0     O96332  10.584   7.127   0.780 -0.3114 -0.0814  0.0282
  699MOL0     C96333  10.670   7.053   0.870 -0.5336 -0.1676 -0.1224
  699MOL0     C96334  10.784   7.144   0.904  1.1845  0.6856  0.5765
  699MOL0     C96335  10.872   7.201   0.790 -0.5770  0.4219  0.1574
  699MOL0     C96336  11.012   7.231   0.827  0.9550 -0.0574 -0.6716
  699MOL0     C96337  11.084   7.320   0.728 -0.0634  0.5586  0.6153
  699MOL0     C96338  11.239   7.314   0.726 -0.6382  0.1855  0.3624
  699MOL0     C96339  11.296   7.195   0.636 -0.1658  0.2898 -0.4363
  699MOL0     C96340  11.301   7.244   0.492  0.5106 -0.3579  0.5553
  699MOL0     N96341  11.355   7.138   0.409 -0.4043 -0.1653 -0.0486
  699MOL0     C96342  11.485   7.111   0.384 -0.9478 -0.0152 -0.0807
  699MOL0     C96343  11.492   6.987   0.338  0.2591  0.1418 -0.1547
  699MOL0     C96344  11.623   6.914   0.293  0.7225  0.0978 -0.6568
  699MOL0     C96345  11.744   6.960   0.380  0.5678 -0.1372 -0.4052
  699MOL0     C96346  11.882   6.914   0.322  0.3878 -0.6149  0.0061
  699MOL0     C96347  11.995   6.973   0.410  0.0239  0.3716  0.4918
  699MOL0     O96348  11.984   6.959   0.557 -0.5619  0.1001 -0.0303
  699MOL0     C96349  12.087   6.983   0.645 -0.5215  0.3681 -0.0105
  699MOL0     C96350  12.058   6.965   0.776 -0.4470 -0.0179 -0.7293
  699MOL0     C96351  12.161   6.993   0.865 -0.0800 -0.0538 -0.8475
  699MOL0     C96352  12.136   6.954   1.005  0.0418 -0.3007  0.3742
  699MOL0     C96353  12.282   7.053   0.826 -0.0462 -0.0950 -0.2340
  699MOL0     C96354  12.385   7.097   0.925 -0.1408 -0.5558  0.8899
  699MOL0     O96355  12.509   7.107   0.867  0.3662 -0.5302 -0.2532
  699MOL0     C96356  12.628   7.139   0.932  0.7980  0.0978  0.4130
  699MOL0     C96357  12.639   7.196   1.056  0.2251  0.8041 -0.4911
  699MOL0     C96358  12.766   7.221   1.107 -0.1524  0.0852  0.1039
  699MOL0     C96359  12.891   7.192   1.043 -1.1078  0.4685  0.1224
  699MOL0     O96360  13.001   7.213   1.119 -0.1213  0.3858 -0.1357
  699MOL0     C96361  13.117   7.186   1.045 -0.6926 -0.4689  0.7452
  699MOL0     C96362  13.239   7.210   1.137 -0.2478  0.1975  0.3243
  699MOL0     C96363  13.261   7.108   1.239 -0.3771 -0.1079  0.4475
  699MOL0     C96364  13.396   7.120   1.313 -0.4317 -0.9537 -0.2435
  699MOL0     C96365  13.392   7.019   1.436  0.4754  0.4574  0.7921
  699MOL0     C96366  13.378   6.866   1.400  0.0698 -0.4502 -0.4816
  699MOL0     C96367  13.511   6.804   1.349  0.9546 -0.4927 -0.6538
  699MOL0     C96368  13.504   6.653   1.332  1.1204  0.2667  0.4547
  699MOL0    Cl96369  13.364   6.607   1.220  0.0664  0.3744  0.2096
  699MOL0     C96370  12.873   7.126   0.917  0.7662  0.8083  0.6698
  699MOL0     C96371  12.743   7.112   0.863 -0.5001  0.9859 -0.2624
  699MOL0     O96372  12.355   7.129   1.040 -0.0685  1.4017 -0.7160
  699MOL0     C96373  12.302   7.084   0.689 -0.5210 -0.5206  0.1154
  699MOL0     C96374  12.199   7.052   0.600 -0.6372  1.1812  0.2481
  699MOL0     N96375  11.366   6.928   0.355  0.0632 -0.8701  0.3077
  699MOL0     N96376  11.285   7.021   0.385 -0.5916  0.3289 -0.3496
  699MOL0     C96377  10.367   7.176   0.702 -0.8033 -0.1260  0.2927
  699MOL0     C96378  10.229   7.205   0.716 -0.0920 -0.1586 -0.0370
  699MOL0     C96379   9.820   7.153   0.898 -0.2531  0.3838  0.5379
  699MOL0     C96380   9.778   7.356   0.883  0.3634  0.8911 -0.2939
  699MOL0     C96381   9.580   7.427   0.866 -0.5732  0.1970 -0.3868
  699MOL0     C96382   9.420   7.289   0.856 -0.0598  1.0836  0.0658
  699MOL0     O96383   9.294   7.339   0.859  0.0470  0.0050 -0.3132
  699MOL0     C96384   9.204   7.242   0.903 -0.0664  0.3445 -0.4313
  699MOL0     C96385   9.066   7.314   0.888 -0.0529 -0.4243  0.1793
  699MOL0     C96386   8.946   7.232   0.912 -0.1782  0.3700 -0.0022
  699MOL0     C96387   8.819   7.313   0.899 -0.0471 -0.5867 -0.2109
  699MOL0     C96388   8.699   7.224   0.886  0.6914  0.0219  0.5100
  699MOL0     C96389   8.610   7.143   0.880 -0.4985 -0.2538 -0.3568
  699MOL0     C96390   9.464   7.083   0.874  0.0514  0.1041 -0.0409
  699MOL0     C96391   9.666   7.018   0.894  0.6335  0.4338  0.0685
  699MOL0     C96392   9.683   6.873   0.903  0.3161  0.2330  0.5648
  699MOL0     H96393  10.198   7.094   1.037 -1.1180 -0.4788 -1.0024
  699MOL0     H96394  10.442   7.087   1.028  0.1729  1.0142 -0.5582
  699MOL0     H96395  10.710   6.964   0.821 -2.4633  0.1110 -2.3948
  699MOL0     H96396  10.623   7.006   0.957 -0.1052 -1.6087 -0.6326
  699MOL0     H96397  10.741   7.227   0.959  1.1747  0.9260  0.2099
  699MOL0     H96398  10.849   7.095   0.977  0.0062 -0.7754  0.6754
  699MOL0     H96399  10.855   7.138   0.702 -2.6432  1.0936  0.0054
  699MOL0     H96400  10.827   7.296   0.758  2.5832  1.1510 -2.6584
  699MOL0     H96401  11.014   7.282   0.923 -0.8342  1.7126 -1.5026
  699MOL0     H96402  11.075   7.142   0.837  1.4738  0.5835  2.5821
  699MOL0     H96403  11.053   7.421   0.759  1.4937  1.5099 -0.7491
  699MOL0     H96404  11.042   7.291   0.632  0.5574 -0.7812  0.7230
  699MOL0     H96405  11.264   7.409   0.679 -0.9349 -0.9005 -2.1376
  699MOL0     H96406  11.283   7.309   0.826 -0.9555 -0.1291  0.4924
  699MOL0     H96407  11.233   7.106   0.646 -0.4588  0.4941 -0.4720
  699MOL0     H96408  11.397   7.169   0.670 -0.5551  0.1845  0.6838
  699MOL0     H96409  11.196   7.249   0.462  0.5775 -1.3239  0.1256
  699MOL0     H96410  11.353   7.338   0.473 -2.2123  0.5290 -3.9835
  699MOL0     H96411  11.562   7.187   0.395 -1.4711  0.5902 -0.5025
  699MOL0     H96412  11.645   6.932   0.187  2.2007  4.4636  0.1746
  699MOL0     H96413  11.616   6.806   0.306  0.1284  0.3557  1.6042
  699MOL0     H96414  11.747   7.069   0.394 -1.5083 -0.4901  5.4545
  699MOL0     H96415  11.730   6.923   0.482  1.4410  0.2182 -0.1413
  699MOL0     H96416  11.898   6.806   0.322  3.4061 -0.3475  2.9684
  699MOL0     H96417  11.887   6.952   0.220 -1.3229  2.0561  0.8204
  699MOL0     H96418  12.084   6.912   0.389 -1.0382 -1.3062  0.6569
  699MOL0     H96419  12.011   7.078   0.386  0.6901  1.0547  3.5104
  699MOL0     H96420  11.974   6.901   0.800  0.1744 -0.4930  0.2324
  699MOL0     H96421  12.232   6.909   1.036  0.3742  0.9163  1.1696
  699MOL0     H96422  12.053   6.885   1.018  0.1090 -0.4160  0.1986
  699MOL0     H96423  12.114   7.046   1.060 -1.4589 -1.6842  2.2612
  699MOL0     H96424  12.548   7.217   1.113 -0.1320 -0.4126 -0.5838
  699MOL0     H96425  12.765   7.265   1.206 -1.5770  0.6271 -0.1350
  699MOL0     H96426  13.127   7.079   1.027  3.8880 -0.5369  2.2836
  699MOL0     H96427  13.128   7.245   0.953  1.7205 -1.3768  0.3685
  699MOL0     H96428  13.327   7.213   1.072 -0.4123 -1.7271 -0.0443
  699MOL0     H96429  13.235   7.294   1.207 -1.3995 -1.6180  2.5523
  699MOL0     H96430  13.267   7.012   1.186  2.9096  0.1780  0.0935
  699MOL0     H96431  13.181   7.107   1.314  0.0202  0.8317  0.9086
  699MOL0     H96432  13.406   7.224   1.347 -2.9694 -0.6895 -0.0774
  699MOL0     H96433  13.479   7.086   1.251  0.7695 -1.6774  1.6749
  699MOL0     H96434  13.492   7.043   1.474  1.2121 -2.3257  0.8572
  699MOL0     H96435  13.318   7.056   1.507  0.4656 -1.3667  1.7966
  699MOL0     H96436  13.294   6.860   1.330 -2.2616  0.3673  2.0571
  699MOL0     H96437  13.349   6.802   1.485  0.2918 -2.3360 -1.7571
  699MOL0     H96438  13.593   6.833   1.415 -1.5409  2.4655  1.4901
  699MOL0     H96439  13.521   6.845   1.248 -1.7142 -1.1461 -1.2632
  699MOL0     H96440  13.487   6.600   1.427 -1.3357  0.4395  0.1756
  699MOL0     H96441  13.594   6.611   1.287  0.7305  0.1187 -0.1995
  699MOL0     H96442  12.953   7.072   0.867  0.1455  1.0206 -0.5699
  699MOL0     H96443  12.729   7.080   0.760  1.4612 -1.8105  0.2128
  699MOL0     H96444  12.385   7.146   0.656 -0.5400 -0.5864 -0.0606
  699MOL0     H96445  12.219   7.072   0.495  0.5215  2.3877  0.6690
  699MOL0     H96446  10.417   7.212   0.612 -2.1446  0.9229 -0.0530
  699MOL0     H96447  10.184   7.260   0.633 -2.6207  0.4864  1.6370
  699MOL0     H96448   9.869   7.415   0.895  1.1575 -0.6802  2.1061
  699MOL0     H96449   9.563   7.533   0.858  0.4210  0.4314  0.3197
  699MOL0     H96450   9.199   7.163   0.827 -5.2107  0.6340 -0.7630
  699MOL0     H96451   9.237   7.196   0.997 -2.8491 -2.4023 -0.6239
  699MOL0     H96452   9.058   7.371   0.795 -0.4886 -0.6077  0.0993
  699MOL0     H96453   9.063   7.391   0.966 -0.6565 -0.0039 -0.2509
  699MOL0     H96454   8.930   7.144   0.849  0.3026 -0.5347  1.0937
  699MOL0     H96455   8.959   7.201   1.016  1.5942 -0.2600 -0.3728
  699MOL0     H96456   8.822   7.380   0.812  1.0474 -2.9823 -2.1262
  699MOL0     H96457   8.801   7.363   0.995  3.2155 -0.7571  0.6116
  699MOL0     H96458   8.529   7.075   0.861  0.0479 -1.0820  0.1996
  699MOL0     H96459   9.386   7.008   0.875 -0.4697  0.6331  0.4795
  699MOL0     H96460   9.612   6.827   0.833  1.1135  1.1975 -0.9250
  699MOL0     H96461   9.783   6.842   0.873 -0.2142  1.0031 -2.3677
  699MOL0     H96462   9.659   6.841   1.005  0.8024  1.8279  1.2033
  700MOL0     O96463  10.210  10.676   7.126 -0.4205 -0.4066  0.9138
  700MOL0     C96464  10.190  10.788   7.161  0.9211 -0.8240  0.2650
  700MOL0     O96465  10.290  10.872   7.210  0.1829 -0.5107 -0.4660
  700MOL0     C96466  10.424  10.831   7.201  0.3042  0.8203  0.6068
  700MOL0     C96467  10.509  10.859   7.310  0.3472 -0.2557  0.4956
  700MOL0     C96468  10.649  10.825   7.307  0.7921  0.6441  0.1735
  700MOL0     C96469  10.706  10.747   7.201  0.0541  0.2683  0.2704
  700MOL0     O96470  10.836  10.704   7.187  0.3090 -0.0694  0.5779
  700MOL0     C96471  10.917  10.708   7.305  0.1756  0.5376  0.3596
  700MOL0     C96472  11.064  10.668   7.282 -0.0897 -0.7452 -0.4403
  700MOL0     C96473  11.067  10.539   7.200 -0.1832 -1.1030 -0.4514
  700MOL0     C96474  11.194  10.447   7.227  0.2307 -0.3268  0.0363
  700MOL0     C96475  11.313  10.520   7.163  0.4224 -0.8479 -0.4067
  700MOL0     C96476  11.439  10.440   7.167 -0.4283 -0.3606  0.3954
  700MOL0     C96477  11.502  10.393   7.309 -0.2319 -0.4707 -0.4091
  700MOL0     C96478  11.637  10.313   7.304  0.7309  0.3968 -0.0708
  700MOL0     N96479  11.727  10.336   7.187 -0.4008 -0.1205 -0.1106
  700MOL0     C96480  11.787  10.456   7.152 -0.2370 -0.0227 -0.7305
  700MOL0     C96481  11.847  10.436   7.030 -0.1453 -0.1151  0.1152
  700MOL0     C96482  11.927  10.545   6.962  0.5549 -0.3011 -0.3870
  700MOL0     C96483  12.072  10.517   6.948 -0.0019 -1.0326 -0.4512
  700MOL0     C96484  12.104  10.395   6.870  0.2007  0.8021 -0.6079
  700MOL0     C96485  12.254  10.387   6.846 -0.2886 -0.0985 -0.2834
  700MOL0     O96486  12.329  10.397   6.969  0.4369 -0.5052  0.5478
  700MOL0     C96487  12.465  10.397   6.954  0.3034 -0.7825  0.3317
  700MOL0     C96488  12.536  10.421   7.067  0.1055  0.8767  0.0235
  700MOL0     C96489  12.676  10.411   7.077 -0.2556  0.1493 -0.3075
  700MOL0     C96490  12.737  10.404   7.215  0.2131  0.3774  0.0901
  700MOL0     C96491  12.749  10.391   6.956  0.0756 -0.4451 -0.3818
  700MOL0     C96492  12.895  10.393   6.951 -0.6309  0.7990  1.2017
  700MOL0     O96493  12.939  10.308   6.852 -0.2458  0.8317  0.4491
  700MOL0     C96494  13.073  10.300   6.831  0.3066  0.1929 -0.5168
  700MOL0     C96495  13.121  10.339   6.711  0.4246  0.0740 -0.3231
  700MOL0     C96496  13.260  10.345   6.691  0.0758  0.0701 -0.2564
  700MOL0     C96497  13.355  10.299   6.788  0.0695  0.8722  0.1693
  700MOL0     O96498  13.490  10.329   6.785 -0.6068 -0.0069 -0.2554
  700MOL0     C96499  13.555  10.381   6.671 -0.5062  0.1299  0.6007
  700MOL0     C96500  13.699  10.433   6.696  0.3370 -0.6455 -0.5035
  700MOL0     C96501  13.808  10.334   6.700 -0.2432  0.3384  0.0869
  700MOL0     C96502  13.927  10.397   6.783 -0.3873 -0.6338 -0.0617
  700MOL0     C96503  13.909  10.350   6.927  0.8036  0.8053 -0.3742
  700MOL0     C96504  14.008  10.411   7.027 -0.8436 -0.5596 -0.6093
  700MOL0     C96505  14.000  10.337   7.169 -0.5217 -0.4815  0.6335
  700MOL0     C96506  14.106  10.380   7.267 -0.3313  0.2427 -0.0176
  700MOL0    Cl96507  14.088  10.307   7.435  0.1830 -0.3682 -0.1232
  700MOL0     C96508  13.304  10.236   6.899  0.8425  0.0471 -1.0252
  700MOL0     C96509  13.164  10.249   6.920  0.1776  0.1307 -0.7716
  700MOL0     O96510  12.968  10.454   7.027  0.5239 -0.4503 -0.0220
  700MOL0     C96511  12.680  10.373   6.836  0.7049  0.2946  0.1058
  700MOL0     C96512  12.542  10.368   6.834  0.1077 -0.0741 -0.8758
  700MOL0     N96513  11.811  10.306   6.986 -0.4483 -0.6863 -0.0149
  700MOL0     N96514  11.736  10.260   7.077  0.2958  0.8380  0.3048
  700MOL0     C96515  10.617  10.710   7.103 -0.0772  0.1140  0.8532
  700MOL0     C96516  10.480  10.750   7.101  0.2252 -0.4364  0.5973
  700MOL0     C96517  10.062  10.863   7.158 -0.4587  1.2315  0.2292
  700MOL0     C96518  10.058  10.992   7.117 -0.1543  0.3945 -1.3443
  700MOL0     C96519   9.939  11.062   7.092  0.0368 -0.2297 -0.8082
  700MOL0     C96520   9.818  10.989   7.106  0.4773 -0.1252  0.1249
  700MOL0     O96521   9.701  11.059   7.066  0.2335 -0.2056 -0.0847
  700MOL0     C96522   9.590  10.987   7.040  1.0388  0.3906  0.8930
  700MOL0     C96523   9.468  11.076   6.992 -0.3539  0.5077  0.2240
  700MOL0     C96524   9.399  11.156   7.102 -0.1046  0.8825 -0.0366
  700MOL0     C96525   9.472  11.283   7.141  0.6645  0.6542  0.3642
  700MOL0     C96526   9.375  11.379   7.197 -0.2464 -0.9814  0.0668
  700MOL0     C96527   9.297  11.455   7.244 -0.4744  1.0020 -0.1180
  700MOL0     C96528   9.815  10.853   7.149  0.1873 -0.6396  0.1520
  700MOL0     C96529   9.941  10.797   7.182  1.1463  0.4676  0.9325
  700MOL0     C96530   9.935  10.644   7.216 -0.0031  0.2950 -0.2501
  700MOL0     H96531  10.464  10.905   7.397 -1.8146  0.6810 -1.0307
  700MOL0     H96532  10.707  10.859   7.392 -1.7788 -1.6438  3.1297
  700MOL0     H96533  10.874  10.632   7.372  0.4982 -1.7858 -1.8931
  700MOL0     H96534  10.911  10.806   7.352  1.0596  0.4122  0.7471
  700MOL0     H96535  11.126  10.741   7.228 -0.0003  0.6610  1.4991
  700MOL0     H96536  11.118  10.649   7.375 -1.7453 -0.7091  0.5438
  700MOL0     H96537  10.972  10.486   7.210 -0.4553 -0.9174 -1.7873
  700MOL0     H96538  11.065  10.554   7.091 -0.1555 -1.6711 -0.5305
  700MOL0     H96539  11.216  10.428   7.333 -2.6824  0.1793  0.8124
  700MOL0     H96540  11.173  10.352   7.178 -0.6657 -0.0378 -0.1513
  700MOL0     H96541  11.341  10.610   7.218  1.5601 -1.6776  0.4297
  700MOL0     H96542  11.282  10.547   7.062  1.5139  0.6414 -0.3751
  700MOL0     H96543  11.422  10.349   7.108 -1.3911  1.1624 -1.8270
  700MOL0     H96544  11.507  10.495   7.101  0.0405 -1.6315 -0.2132
  700MOL0     H96545  11.429  10.339   7.371  0.9328  1.2810  2.7133
  700MOL0     H96546  11.533  10.483   7.362 -0.3528 -1.0398  0.6603
  700MOL0     H96547  11.688  10.321   7.400 -1.6866 -1.9724  1.5503
  700MOL0     H96548  11.609  10.207   7.304  0.3040  0.4999 -1.0193
  700MOL0     H96549  11.790  10.549   7.207  2.5896 -0.2438 -0.3338
  700MOL0     H96550  11.901  10.634   7.021 -0.4461 -1.6598  1.3218
  700MOL0     H96551  11.883  10.561   6.863 -2.0170 -0.5482  0.6346
  700MOL0     H96552  12.126  10.606   6.915 -1.3009 -0.7891 -2.0437
  700MOL0     H96553  12.102  10.493   7.051 -1.4660 -1.4343 -0.1021
  700MOL0     H96554  12.069  10.307   6.924 -3.4131  0.7027 -2.7742
  700MOL0     H96555  12.048  10.388   6.776 -0.8352 -0.6109  0.0842
  700MOL0     H96556  12.274  10.295   6.790  1.5657  1.8301 -3.0402
  700MOL0     H96557  12.282  10.473   6.786  1.0059  1.1783  2.0345
  700MOL0     H96558  12.472  10.440   7.152 -1.1570 -1.8168 -0.1941
  700MOL0     H96559  12.783  10.501   7.236  0.4228  0.7432 -1.9082
  700MOL0     H96560  12.806  10.321   7.233 -2.6254 -2.4529 -1.1546
  700MOL0     H96561  12.662  10.379   7.291  1.6400 -3.0873  0.5625
  700MOL0     H96562  13.057  10.361   6.627  0.3184 -2.9246 -1.1283
  700MOL0     H96563  13.297  10.377   6.595  2.1595  4.8112  1.8394
  700MOL0     H96564  13.560  10.305   6.592  0.6814 -0.6534  1.3930
  700MOL0     H96565  13.503  10.466   6.626  0.9881 -1.0188 -3.7732
  700MOL0     H96566  13.724  10.508   6.621  0.8923 -0.5662 -0.2407
  700MOL0     H96567  13.704  10.492   6.788 -2.5192 -0.6853 -0.2075
  700MOL0     H96568  13.845  10.320   6.598 -2.0783  0.6865 -0.6739
  700MOL0     H96569  13.770  10.246   6.752  0.1695 -0.6383 -1.1951
  700MOL0     H96570  13.928  10.506   6.769 -0.3687 -0.2299  2.5675
  700MOL0     H96571  14.023  10.360   6.745 -0.1702  0.1323 -0.2948
  700MOL0     H96572  13.805  10.363   6.961  0.3858 -0.3169 -1.1744
  700MOL0     H96573  13.923  10.242   6.934 -1.0846  0.6310  3.6402
  700MOL0     H96574  13.977  10.514   7.045 -1.7402 -1.0883  1.0996
  700MOL0     H96575  14.099  10.379   6.975 -0.0049  1.2755 -0.3346
  700MOL0     H96576  14.026  10.231   7.158  0.2034 -0.4863  2.1682
  700MOL0     H96577  13.901  10.341   7.216  0.4254 -0.0942  2.6683
  700MOL0     H96578  14.104  10.487   7.290 -2.5632  0.7298 -2.1191
  700MOL0     H96579  14.203  10.352   7.225  1.0603  0.7906  2.5973
  700MOL0     H96580  13.363  10.183   6.973 -1.0658 -0.4490  0.2079
  700MOL0     H96581  13.119  10.212   7.012 -2.6475  2.0481 -1.2463
  700MOL0     H96582  12.720  10.354   6.736 -0.6746 -1.6918 -0.1332
  700MOL0     H96583  12.496  10.366   6.735 -0.9749  3.3805 -0.5855
  700MOL0     H96584  10.657  10.657   7.017 -2.4387  1.4739 -1.2629
  700MOL0     H96585  10.419  10.708   7.022 -0.5184  1.5453  0.0620
  700MOL0     H96586  10.153  11.036   7.090  0.3547 -0.5620 -1.1387
  700MOL0     H96587   9.936  11.167   7.065  2.1070  0.1625  0.2137
  700MOL0     H96588   9.611  10.915   6.961  0.1153 -0.1640  1.1385
  700MOL0     H96589   9.550  10.924   7.120  0.8575  1.6370  1.8357
  700MOL0     H96590   9.392  11.016   6.941 -1.3278  0.2589  1.9275
  700MOL0     H96591   9.499  11.149   6.917 -1.4773 -1.9616 -2.8773
  700MOL0     H96592   9.290  11.156   7.103 -0.1683 -1.9121 -0.1078
  700MOL0     H96593   9.416  11.102   7.196 -3.6673  1.4602  1.0589
  700MOL0     H96594   9.530  11.326   7.059 -0.3811  0.8468 -0.2829
  700MOL0     H96595   9.546  11.263   7.220  1.7432  2.0089 -0.2595
  700MOL0     H96596   9.215  11.502   7.294 -0.6303  0.1821  0.4133
  700MOL0     H96597   9.724  10.795   7.163 -2.0239  2.8715  1.6278
  700MOL0     H96598   9.981  10.587   7.136  0.5220  1.5179 -0.8503
  700MOL0     H96599   9.995  10.624   7.305 -1.1859 -1.7861  0.1405
  700MOL0     H96600   9.831  10.611   7.224  0.7123 -2.0368  0.0215
  701MOL0     O96601   5.540   2.351   6.665  0.0412  0.3301 -0.1243
  701MOL0     C96602   5.477   2.342   6.776  0.0247  0.2943 -0.4193
  701MOL0     O96603   5.504   2.257   6.879 -0.6683 -0.2699 -0.7561
  701MOL0     C96604   5.623   2.183   6.879 -0.3164  0.5341 -0.0013
  701MOL0     C96605   5.744   2.254   6.896 -0.2048 -0.0032  0.7514
  701MOL0     C96606   5.853   2.183   6.940 -0.5322  0.1833 -1.4391
  701MOL0     C96607   5.859   2.045   6.947  0.4188 -0.3988 -0.1894
  701MOL0     O96608   5.976   1.988   6.997 -0.3512 -0.0781 -0.1802
  701MOL0     C96609   6.024   1.898   6.896 -0.1514  0.4597 -0.0017
  701MOL0     C96610   6.170   1.877   6.935 -0.4565 -0.4067  0.3532
  701MOL0     C96611   6.268   1.793   6.854 -0.1591 -0.1029  0.9564
  701MOL0     C96612   6.399   1.773   6.924  0.4934  1.2942  0.7833
  701MOL0     C96613   6.501   1.705   6.833 -0.1727 -0.0449  0.3590
  701MOL0     C96614   6.456   1.598   6.727  0.7981 -0.6953  0.8147
  701MOL0     C96615   6.409   1.472   6.795  0.3851  0.2665  0.4759
  701MOL0     C96616   6.439   1.349   6.710  0.4033  0.6949 -0.3267
  701MOL0     N96617   6.577   1.304   6.740 -0.1811 -0.5736  0.1663
  701MOL0     C96618   6.608   1.194   6.820  0.9098 -0.4211 -0.0730
  701MOL0     C96619   6.739   1.188   6.834 -0.2487  0.4682 -0.6562
  701MOL0     C96620   6.817   1.115   6.937  0.5659 -0.5401  0.6045
  701MOL0     C96621   6.950   1.069   6.883 -0.1226 -0.5734  0.0800
  701MOL0     C96622   7.023   0.982   6.991 -0.0349  0.1877 -0.0152
  701MOL0     C96623   7.165   0.947   6.942  0.6035  0.2908 -0.0760
  701MOL0     O96624   7.146   0.849   6.847  0.2952  0.2443  0.5469
  701MOL0     C96625   7.266   0.801   6.796  0.0044  0.4407 -0.1587
  701MOL0     C96626   7.273   0.668   6.750  0.6429 -0.4622 -0.0705
  701MOL0     C96627   7.369   0.614   6.667 -0.1368 -1.0111  0.0042
  701MOL0     C96628   7.343   0.486   6.602 -0.6026  0.2230  0.2009
  701MOL0     C96629   7.485   0.703   6.642 -0.3594  0.1708  1.0730
  701MOL0     C96630   7.603   0.659   6.550 -0.4845  0.3709 -0.2517
  701MOL0     O96631   7.582   0.587   6.438  0.1137  0.6644 -0.0197
  701MOL0     C96632   7.687   0.561   6.354 -0.0672  0.7262 -0.2630
  701MOL0     C96633   7.706   0.431   6.305  0.1091  0.1730 -0.3077
  701MOL0     C96634   7.818   0.399   6.232  0.2781  0.1548  0.1357
  701MOL0     C96635   7.911   0.500   6.191  0.0730 -0.1794 -0.4865
  701MOL0     O96636   8.025   0.462   6.135 -0.5495  0.2705 -0.8445
  701MOL0     C96637   8.145   0.520   6.195  0.5685 -0.2400  0.0140
  701MOL0     C96638   8.261   0.419   6.202 -0.0942 -0.7955 -0.9824
  701MOL0     C96639   8.219   0.291   6.271  0.1675  0.6713 -0.3569
  701MOL0     C96640   8.334   0.189   6.258 -0.3180  0.4681  0.5988
  701MOL0     C96641   8.293   0.059   6.328  0.0737 -0.0360  0.3594
  701MOL0     C96642   8.246   0.077   6.474 -0.7177  0.1922  0.4280
  701MOL0     C96643   8.229  -0.049   6.550 -0.7202 -0.2482  0.2684
  701MOL0     C96644   8.355  -0.128   6.584 -0.4416 -0.1974 -0.5293
  701MOL0    Cl96645   8.330  -0.221   6.739  0.0184 -0.6964 -0.0204
  701MOL0     C96646   7.889   0.629   6.234  0.0236  0.5141  0.6607
  701MOL0     C96647   7.778   0.663   6.314  0.4067 -0.2853 -0.2639
  701MOL0     O96648   7.722   0.702   6.586  0.1911  0.1922 -0.1561
  701MOL0     C96649   7.488   0.825   6.691  0.1324  0.1111  0.7104
  701MOL0     C96650   7.385   0.877   6.767 -0.0873 -0.1034 -0.8008
  701MOL0     N96651   6.796   1.295   6.760 -0.1608  0.5789 -0.4233
  701MOL0     N96652   6.697   1.359   6.700  0.2330 -0.0591 -0.2781
  701MOL0     C96653   5.739   1.974   6.911  0.0508  0.1689 -0.7071
  701MOL0     C96654   5.626   2.043   6.875 -0.7045 -0.4084  0.0259
  701MOL0     C96655   5.361   2.429   6.798  0.1070 -0.1233  0.4017
  701MOL0     C96656   5.349   2.548   6.728  0.0800 -0.3500 -0.5472
  701MOL0     C96657   5.235   2.629   6.735  0.6809  0.0229 -0.1309
  701MOL0     C96658   5.114   2.588   6.797 -0.0432  0.1888  0.5809
  701MOL0     O96659   4.999   2.665   6.808 -0.1050  0.5986  0.2875
  701MOL0     C96660   4.972   2.774   6.715  0.3776 -0.0587  0.2310
  701MOL0     C96661   4.834   2.847   6.749 -0.6576  0.4499 -0.1123
  701MOL0     C96662   4.838   2.885   6.896  0.1907 -0.8414  0.5805
  701MOL0     C96663   4.729   2.969   6.938  0.3845 -0.5343 -0.2060
  701MOL0     C96664   4.606   2.898   6.945 -0.0085 -0.2771  0.7173
  701MOL0     C96665   4.492   2.854   6.964  0.2822 -0.5612  0.2926
  701MOL0     C96666   5.130   2.478   6.880  0.1732 -0.0240 -0.0284
  701MOL0     C96667   5.251   2.399   6.879  0.1249  0.1933  0.2767
  701MOL0     C96668   5.237   2.274   6.960 -0.4846  0.0647  0.3082
  701MOL0     H96669   5.748   2.363   6.896  1.6243  0.0084  3.1835
  701MOL0     H96670   5.947   2.227   6.974  0.4826 -1.1244 -2.4762
  701MOL0     H96671   6.015   1.938   6.794  3.5586  1.2971 -0.1585
  701MOL0     H96672   5.964   1.808   6.906 -0.4907  0.9333  3.1512
  701MOL0     H96673   6.213   1.978   6.940 -1.7857  0.1198  2.6714
  701MOL0     H96674   6.169   1.838   7.037 -1.2223 -2.5843 -0.4366
  701MOL0     H96675   6.229   1.693   6.835  0.9038  0.1226 -3.4091
  701MOL0     H96676   6.298   1.827   6.754  2.4149 -3.6356  0.3189
  701MOL0     H96677   6.424   1.872   6.961  0.7461  0.6508  2.4153
  701MOL0     H96678   6.385   1.715   7.016 -0.1668  0.9165  0.4486
  701MOL0     H96679   6.569   1.660   6.906 -1.5175  1.0537  2.4131
  701MOL0     H96680   6.562   1.780   6.782  1.6159 -1.3522  0.4869
  701MOL0     H96681   6.385   1.631   6.651  0.6623  1.1609  1.6923
  701MOL0     H96682   6.546   1.581   6.668 -0.0922 -0.7401 -0.5788
  701MOL0     H96683   6.299   1.472   6.799  0.1709 -3.7195 -0.9733
  701MOL0     H96684   6.445   1.472   6.898  1.6971  1.2804  0.0379
  701MOL0     H96685   6.365   1.280   6.753  1.0851  0.2776  0.1855
  701MOL0     H96686   6.419   1.375   6.605 -2.5970  0.5433  0.1025
  701MOL0     H96687   6.538   1.122   6.862  1.2874 -0.9339 -0.3286
  701MOL0     H96688   6.757   1.033   6.978 -0.5494 -0.2277 -0.3513
  701MOL0     H96689   6.822   1.179   7.026  1.4988  0.2497  0.0075
  701MOL0     H96690   6.928   1.011   6.792 -0.5496  0.3856 -0.4404
  701MOL0     H96691   7.011   1.154   6.853 -0.3918 -0.7285 -0.9439
  701MOL0     H96692   7.024   1.031   7.089 -0.2137  1.8139 -0.7994
  701MOL0     H96693   6.968   0.887   6.996 -0.8011  0.6687  1.0221
  701MOL0     H96694   7.222   1.031   6.901  2.3938 -0.4118  0.8712
  701MOL0     H96695   7.217   0.911   7.031 -0.0063 -2.4589 -0.7305
  701MOL0     H96696   7.185   0.613   6.781 -1.1354  2.6189  0.8161
  701MOL0     H96697   7.425   0.419   6.629  0.1412  0.4070 -1.5255
  701MOL0     H96698   7.349   0.493   6.493  2.3947  1.5801  0.3633
  701MOL0     H96699   7.245   0.438   6.616  0.3912 -1.7757  0.6669
  701MOL0     H96700   7.635   0.355   6.335  0.3181  1.6445  5.0216
  701MOL0     H96701   7.833   0.292   6.222 -0.4839 -0.1359  1.7218
  701MOL0     H96702   8.173   0.607   6.135 -0.0419 -0.6919 -0.9574
  701MOL0     H96703   8.120   0.546   6.298 -0.9343 -0.9591 -0.1431
  701MOL0     H96704   8.294   0.403   6.099  0.0843  1.4765 -1.3259
  701MOL0     H96705   8.343   0.461   6.260 -1.6009 -1.1053  1.4741
  701MOL0     H96706   8.133   0.250   6.217  2.3841 -1.3134 -2.6480
  701MOL0     H96707   8.191   0.313   6.374  1.6585 -1.5600  0.6006
  701MOL0     H96708   8.423   0.229   6.307  0.1608 -1.0524  1.0273
  701MOL0     H96709   8.357   0.183   6.151 -3.4312  0.8120 -0.1860
  701MOL0     H96710   8.212   0.011   6.273 -0.9644  2.7624 -0.7699
  701MOL0     H96711   8.372  -0.016   6.333  0.3410  0.0699 -1.5336
  701MOL0     H96712   8.144   0.113   6.458 -0.2918 -0.0485 -4.0901
  701MOL0     H96713   8.310   0.147   6.529  2.9074 -2.3728 -0.1366
  701MOL0     H96714   8.158  -0.110   6.494  1.7293 -2.6607 -0.4712
  701MOL0     H96715   8.189  -0.031   6.650 -0.1062  1.7206  0.1940
  701MOL0     H96716   8.446  -0.074   6.610 -0.4158 -1.8592  3.6084
  701MOL0     H96717   8.394  -0.197   6.508  0.1371 -2.1235  1.3992
  701MOL0     H96718   7.960   0.709   6.219  0.2763  0.7451  2.8552
  701MOL0     H96719   7.778   0.766   6.348  3.0750 -0.4208  0.3314
  701MOL0     H96720   7.558   0.897   6.650  1.4947 -3.0904 -3.2041
  701MOL0     H96721   7.406   0.979   6.798  3.6131 -0.8464 -0.4761
  701MOL0     H96722   5.754   1.867   6.916 -1.8416 -0.0734  2.3422
  701MOL0     H96723   5.533   1.990   6.859 -0.0779 -1.3457 -0.6169
  701MOL0     H96724   5.428   2.582   6.661 -1.9572  1.2672 -2.2832
  701MOL0     H96725   5.216   2.704   6.659 -1.1450 -0.0650  0.1898
  701MOL0     H96726   5.053   2.847   6.725 -0.5346  1.6206 -3.0713
  701MOL0     H96727   4.973   2.728   6.616 -2.1262  0.8415 -0.2928
  701MOL0     H96728   4.754   2.775   6.731 -0.3428  0.1715 -0.4221
  701MOL0     H96729   4.822   2.941   6.695  2.5762  2.7573  2.7253
  701MOL0     H96730   4.845   2.799   6.963 -0.8507 -0.0622  1.7344
  701MOL0     H96731   4.931   2.940   6.915  0.4274  0.2581 -3.0254
  701MOL0     H96732   4.725   3.057   6.873 -2.3311  0.0500  0.6229
  701MOL0     H96733   4.757   3.015   7.033 -3.7786 -0.0837  0.9891
  701MOL0     H96734   4.399   2.805   6.984 -1.8845  4.1210  3.9320
  701MOL0     H96735   5.047   2.467   6.949 -0.2629  1.7603 -0.2311
  701MOL0     H96736   5.317   2.277   7.035 -1.9244  2.6622  1.8599
  701MOL0     H96737   5.137   2.257   6.999 -1.1546 -0.3365 -1.4567
  701MOL0     H96738   5.251   2.192   6.889  0.3135  1.7172 -1.5461
  702MOL0     O96739   3.620   9.081   6.090  0.1237 -0.5451 -0.3157
  702MOL0     C96740   3.621   8.960   6.110 -0.0338 -0.5790 -0.8370
  702MOL0     O96741   3.723   8.876   6.076 -0.0898  0.4148 -0.2102
  702MOL0     C96742   3.843   8.931   6.034 -0.2194  0.3490  0.2743
  702MOL0     C96743   3.955   8.891   6.103 -0.4886 -0.5324 -0.1937
  702MOL0     C96744   4.083   8.939   6.078  0.0485 -0.4691 -0.1270
  702MOL0     C96745   4.108   9.035   5.980 -0.6296  0.4356  0.0517
  702MOL0     O96746   4.239   9.081   5.949  0.3563  0.1935 -0.0876
  702MOL0     C96747   4.271   9.168   5.840 -0.4891  0.7249 -0.0672
  702MOL0     C96748   4.432   9.192   5.820  0.2322 -0.3335 -0.1403
  702MOL0     C96749   4.495   9.226   5.951 -0.2547  0.2473  0.1598
  702MOL0     C96750   4.648   9.230   5.933 -0.5063 -0.3489  0.8156
  702MOL0     C96751   4.694   9.368   5.886  0.1652  0.4590  0.5351
  702MOL0     C96752   4.839   9.408   5.851 -0.8964  0.2388  0.6321
  702MOL0     C96753   4.939   9.382   5.957 -0.3318 -0.0602 -0.2901
  702MOL0     C96754   4.920   9.482   6.073 -0.2034 -0.3202  1.0026
  702MOL0     N96755   5.013   9.442   6.179 -0.1902 -0.3107  1.0889
  702MOL0     C96756   5.145   9.402   6.162  0.1297  1.0478 -0.1819
  702MOL0     C96757   5.167   9.331   6.276  0.2044  0.3260 -0.8084
  702MOL0     C96758   5.294   9.255   6.300  0.1309 -0.1066  0.5257
  702MOL0     C96759   5.425   9.332   6.275  0.4317 -0.4271  0.3115
  702MOL0     C96760   5.453   9.441   6.379  0.2549  0.8624 -1.1287
  702MOL0     C96761   5.573   9.524   6.339  0.2728  0.0099  0.0818
  702MOL0     O96762   5.693   9.445   6.316  0.4037 -0.2536  0.2121
  702MOL0     C96763   5.813   9.508   6.268 -0.0254 -0.1727 -0.2402
  702MOL0     C96764   5.830   9.648   6.263 -0.6485  0.0208  0.2669
  702MOL0     C96765   5.954   9.699   6.214  0.0433  0.4033 -0.3476
  702MOL0     C96766   5.957   9.845   6.191  0.5495  0.3125 -0.4626
  702MOL0     C96767   6.070   9.613   6.188 -0.7848  0.5264 -0.6660
  702MOL0     C96768   6.192   9.666   6.127  0.9169  0.5100 -0.4930
  702MOL0     O96769   6.266   9.580   6.055  0.4415 -0.1099  0.0967
  702MOL0     C96770   6.392   9.612   6.020  0.4962 -0.2626 -0.0437
  702MOL0     C96771   6.493   9.611   6.119  0.2060 -0.5506 -0.7539
  702MOL0     C96772   6.628   9.620   6.081  0.6261  0.2223  0.1582
  702MOL0     C96773   6.662   9.650   5.947  0.2533  0.4485 -0.4902
  702MOL0     O96774   6.791   9.655   5.897  0.8651 -0.8683  0.7204
  702MOL0     C96775   6.913   9.644   5.969 -0.6263 -0.9378 -0.7300
  702MOL0     C96776   7.042   9.662   5.880  0.0941  0.0468 -0.7214
  702MOL0     C96777   7.088   9.540   5.798  0.7202  0.0749  0.2019
  702MOL0     C96778   7.179   9.586   5.679 -0.1257  0.8653 -0.8493
  702MOL0     C96779   7.319   9.645   5.716  0.2970 -0.3642 -0.4990
  702MOL0     C96780   7.424   9.536   5.758  0.1008 -0.0800  0.9065
  702MOL0     C96781   7.567   9.595   5.734 -0.0210 -0.8137 -1.0940
  702MOL0     C96782   7.596   9.689   5.841 -0.0410  0.0983  0.0641
  702MOL0    Cl96783   7.773   9.743   5.832  0.1970 -0.1037 -0.1255
  702MOL0     C96784   6.561   9.663   5.849 -0.5041  0.0355  0.0972
  702MOL0     C96785   6.425   9.649   5.893 -0.6263  0.1893  0.6206
  702MOL0     O96786   6.226   9.780   6.157 -0.3448  0.4889  0.0788
  702MOL0     C96787   6.043   9.481   6.199 -0.3174  0.0195 -0.0983
  702MOL0     C96788   5.918   9.425   6.233 -0.6277  0.7001 -0.2994
  702MOL0     N96789   5.054   9.332   6.363  0.0330  0.0660  0.4186
  702MOL0     N96790   4.963   9.401   6.299  0.5076 -0.2422 -0.1592
  702MOL0     C96791   3.999   9.087   5.911  0.4543  0.3899  0.2874
  702MOL0     C96792   3.865   9.032   5.938 -0.5856 -0.5202 -0.0370
  702MOL0     C96793   3.513   8.911   6.197  0.4091  0.5676  0.8774
  702MOL0     C96794   3.449   9.002   6.289 -0.8094  0.1373  0.4134
  702MOL0     C96795   3.333   8.964   6.356 -0.2394 -0.1696  0.1834
  702MOL0     C96796   3.273   8.841   6.328  0.6723  0.2969  0.3657
  702MOL0     O96797   3.159   8.816   6.397 -0.3250 -0.6028 -0.3350
  702MOL0     C96798   3.079   8.698   6.391  0.1677 -0.1276 -0.1761
  702MOL0     C96799   2.971   8.736   6.294  0.0327  0.8302  0.4626
  702MOL0     C96800   2.893   8.607   6.248 -0.3898  1.1448 -0.1303
  702MOL0     C96801   2.795   8.571   6.351 -0.3322  0.4470 -0.1369
  702MOL0     C96802   2.678   8.491   6.305 -0.6583 -0.6975 -0.0795
  702MOL0     C96803   2.585   8.437   6.253 -0.6783  0.4323 -0.0780
  702MOL0     C96804   3.330   8.754   6.238  0.3823  0.3825 -0.3942
  702MOL0     C96805   3.449   8.786   6.174 -0.2128  1.0968  0.0100
  702MOL0     C96806   3.502   8.685   6.071  0.1508 -0.1261 -0.2457
  702MOL0     H96807   3.946   8.818   6.183  0.4636 -0.7900 -0.3077
  702MOL0     H96808   4.167   8.916   6.144  0.6695  0.4216 -0.5983
  702MOL0     H96809   4.233   9.269   5.857  0.9447  1.3721 -0.5356
  702MOL0     H96810   4.226   9.140   5.744  0.2454  0.8360 -0.4490
  702MOL0     H96811   4.484   9.104   5.781 -0.2089 -0.3873 -0.6221
  702MOL0     H96812   4.438   9.265   5.739  2.0685 -0.8216 -0.4929
  702MOL0     H96813   4.453   9.312   6.003  0.5348  1.4535 -1.1422
  702MOL0     H96814   4.477   9.142   6.020 -1.1649 -1.2933 -1.8540
  702MOL0     H96815   4.701   9.223   6.029 -0.3169  0.6337  0.7934
  702MOL0     H96816   4.692   9.151   5.872  3.4433 -1.9630  5.0986
  702MOL0     H96817   4.645   9.439   5.954 -0.3801  1.6557 -1.0443
  702MOL0     H96818   4.649   9.384   5.787  0.6815 -1.3138 -0.0180
  702MOL0     H96819   4.879   9.354   5.765  0.0948 -2.3042  2.5566
  702MOL0     H96820   4.837   9.514   5.824 -0.6053 -0.0420 -0.5271
  702MOL0     H96821   5.033   9.416   5.914 -2.0825  2.2896 -2.5550
  702MOL0     H96822   4.937   9.280   5.995  0.7546 -0.0420 -0.1616
  702MOL0     H96823   4.940   9.582   6.033 -1.8359 -0.6292 -0.7319
  702MOL0     H96824   4.818   9.482   6.111 -1.0837  1.5446 -1.1409
  702MOL0     H96825   5.195   9.387   6.067 -0.1715 -3.0058  0.1262
  702MOL0     H96826   5.290   9.176   6.224 -3.1554  0.8087 -0.3961
  702MOL0     H96827   5.288   9.217   6.402 -3.1871 -0.8653  0.1544
  702MOL0     H96828   5.506   9.259   6.285  0.9452  0.0327 -0.3957
  702MOL0     H96829   5.435   9.366   6.172  2.0280 -0.1123  0.5467
  702MOL0     H96830   5.367   9.507   6.392  1.0371  1.7971 -0.5803
  702MOL0     H96831   5.469   9.402   6.480  3.6483  0.4973 -1.6662
  702MOL0     H96832   5.562   9.571   6.241 -0.4061  0.2206  0.2464
  702MOL0     H96833   5.581   9.591   6.425  3.0353 -1.9166  1.4543
  702MOL0     H96834   5.750   9.712   6.298  0.0214 -0.4677  2.8642
  702MOL0     H96835   6.022   9.894   6.265  0.5345  1.5379 -1.2244
  702MOL0     H96836   5.864   9.903   6.185  2.9801  4.5222 -2.3219
  702MOL0     H96837   6.012   9.860   6.097  0.3878 -1.4471 -0.8698
  702MOL0     H96838   6.465   9.594   6.223 -0.6743 -2.0538 -1.2017
  702MOL0     H96839   6.712   9.583   6.138  1.7675 -0.6790 -1.9632
  702MOL0     H96840   6.916   9.713   6.054  0.3221 -1.6745 -0.1418
  702MOL0     H96841   6.916   9.538   5.998 -2.4836 -1.0048 -0.6681
  702MOL0     H96842   7.006   9.735   5.808 -2.8778 -0.3316  0.2457
  702MOL0     H96843   7.127   9.687   5.944 -1.1991 -0.9120  1.5168
  702MOL0     H96844   7.000   9.489   5.758  0.2798  0.7497  0.2830
  702MOL0     H96845   7.137   9.475   5.871  0.1465 -0.9301 -0.2783
  702MOL0     H96846   7.121   9.660   5.625  0.8963  4.0087  1.9806
  702MOL0     H96847   7.211   9.501   5.617  0.5652 -0.1071  0.7479
  702MOL0     H96848   7.353   9.700   5.628  1.2310  1.5221  0.9593
  702MOL0     H96849   7.306   9.720   5.795 -0.6372  0.1561 -1.1242
  702MOL0     H96850   7.415   9.456   5.684 -1.6493  0.6865  0.2246
  702MOL0     H96851   7.392   9.512   5.860  0.4400  2.3800  1.6657
  702MOL0     H96852   7.575   9.652   5.641  0.3111 -0.3852 -0.8034
  702MOL0     H96853   7.644   9.518   5.729  0.4360 -0.3971 -0.4139
  702MOL0     H96854   7.577   9.642   5.938  2.1075  2.2955  1.6744
  702MOL0     H96855   7.534   9.780   5.839  0.8581  1.0532  4.3812
  702MOL0     H96856   6.576   9.684   5.744 -0.2056  0.2094  0.1745
  702MOL0     H96857   6.344   9.647   5.821 -0.8678  0.0018  0.8927
  702MOL0     H96858   6.119   9.406   6.177 -0.8814 -0.1760 -1.4648
  702MOL0     H96859   5.916   9.317   6.229 -0.7979  0.6389  0.9508
  702MOL0     H96860   4.013   9.148   5.822  5.3015 -2.8774 -1.6274
  702MOL0     H96861   3.778   9.061   5.880 -0.2449 -0.2907 -0.4360
  702MOL0     H96862   3.487   9.103   6.300  1.9622 -0.6688 -0.6967
  702MOL0     H96863   3.293   9.037   6.425  0.5543 -0.0399  0.5269
  702MOL0     H96864   3.138   8.610   6.363 -0.5880 -0.3535 -1.1511
  702MOL0     H96865   3.039   8.674   6.489  2.0507  0.6760  0.8373
  702MOL0     H96866   3.005   8.786   6.203 -0.8713 -1.2731 -1.1100
  702MOL0     H96867   2.906   8.803   6.350 -1.5483 -1.3385  1.3792
  702MOL0     H96868   2.825   8.621   6.164 -3.7600 -3.9434  1.2806
  702MOL0     H96869   2.959   8.522   6.231 -1.5072 -0.3047  2.2467
  702MOL0     H96870   2.768   8.665   6.400  0.5198  0.7300 -0.1989
  702MOL0     H96871   2.845   8.514   6.430  0.7545 -1.3745 -2.0255
  702MOL0     H96872   2.508   8.381   6.205 -0.8024  0.8746 -0.3954
  702MOL0     H96873   3.277   8.662   6.216 -1.0588  0.8238  1.0423
  702MOL0     H96874   3.571   8.617   6.122 -0.2162 -1.0101 -0.9064
  702MOL0     H96875   3.418   8.632   6.026 -1.6572  0.6880  1.9866
  702MOL0     H96876   3.550   8.726   5.982 -0.5054  0.0505 -0.5269
  703MOL0     O96877   6.229   3.310   4.507  0.5018 -0.1418 -0.9375
  703MOL0     C96878   6.173   3.346   4.403 -0.2991 -0.9682 -0.2606
  703MOL0     O96879   6.235   3.418   4.305 -0.6478  0.3287 -0.5646
  703MOL0     C96880   6.352   3.476   4.341 -0.4502 -0.1000  0.6263
  703MOL0     C96881   6.467   3.399   4.352 -0.8980 -0.1251  0.1633
  703MOL0     C96882   6.582   3.453   4.407 -0.7092 -0.0831 -0.0934
  703MOL0     C96883   6.592   3.591   4.441  0.4727  0.5867  0.2137
  703MOL0     O96884   6.699   3.649   4.512 -0.3270  1.0890 -0.4347
  703MOL0     C96885   6.823   3.576   4.522  0.4088  0.7274 -0.5165
  703MOL0     C96886   6.913   3.669   4.609  0.4208  0.9348  0.7790
  703MOL0     C96887   6.862   3.716   4.747 -0.1067  0.1696  0.6743
  703MOL0     C96888   6.982   3.784   4.801  0.1405  0.3463 -0.8002
  703MOL0     C96889   6.961   3.814   4.947 -0.5178 -0.8265 -0.1274
  703MOL0     C96890   6.894   3.947   4.961  0.0552  0.1475 -0.3967
  703MOL0     C96891   6.847   3.971   5.103 -0.0708 -0.1082  0.2470
  703MOL0     C96892   6.944   3.951   5.220  0.5228 -0.2002  0.4101
  703MOL0     N96893   7.079   4.004   5.202  0.1416  0.0504  0.3573
  703MOL0     C96894   7.116   4.136   5.227  0.1254 -0.0647 -0.2164
  703MOL0     C96895   7.251   4.146   5.225  0.6524  0.4866  0.0511
  703MOL0     C96896   7.318   4.276   5.198 -0.7480 -0.6515  0.1647
  703MOL0     C96897   7.355   4.345   5.328  0.0285  0.8645 -0.1965
  703MOL0     C96898   7.479   4.442   5.315 -0.1131  0.8473  0.7979
  703MOL0     C96899   7.509   4.489   5.455 -0.6356  0.1005 -0.1284
  703MOL0     O96900   7.601   4.598   5.457 -0.3573  0.7552 -0.3680
  703MOL0     C96901   7.738   4.576   5.442 -0.2075 -0.2532  0.5470
  703MOL0     C96902   7.817   4.694   5.432 -0.2672  0.4463  0.6164
  703MOL0     C96903   7.957   4.690   5.405  0.3979 -0.1593  0.2189
  703MOL0     C96904   8.027   4.823   5.426 -1.2671 -0.5593 -0.5705
  703MOL0     C96905   8.019   4.561   5.390  0.8196 -0.3787 -0.9792
  703MOL0     C96906   8.166   4.537   5.370  0.4978  0.0549  0.7188
  703MOL0     O96907   8.242   4.644   5.383 -0.2689 -0.2510  0.5940
  703MOL0     C96908   8.370   4.642   5.342 -0.3462  0.3052 -0.4056
  703MOL0     C96909   8.461   4.725   5.412 -0.7521 -0.5025  0.1300
  703MOL0     C96910   8.584   4.759   5.354 -0.4194 -0.8979  0.7696
  703MOL0     C96911   8.629   4.691   5.237 -0.0441  0.0549 -0.1248
  703MOL0     O96912   8.756   4.718   5.194  0.3223 -0.1019 -0.4949
  703MOL0     C96913   8.837   4.606   5.180 -0.1258  0.6371 -0.0378
  703MOL0     C96914   8.903   4.579   5.314 -0.0816 -0.0137 -0.1918
  703MOL0     C96915   9.020   4.681   5.339 -0.6777 -0.1978 -0.1408
  703MOL0     C96916   9.156   4.614   5.331 -0.5773  0.6179 -0.2016
  703MOL0     C96917   9.282   4.704   5.361 -0.5966  0.3608  0.3894
  703MOL0     C96918   9.407   4.623   5.393  0.0815  0.4599 -0.6915
  703MOL0     C96919   9.434   4.505   5.297 -0.9196  0.6780  0.7671
  703MOL0     C96920   9.590   4.501   5.264 -0.5190  0.0492  0.5265
  703MOL0    Cl96921   9.625   4.388   5.135 -0.1906  0.1385  0.2424
  703MOL0     C96922   8.539   4.605   5.173 -0.1549 -0.6072  0.7964
  703MOL0     C96923   8.410   4.581   5.224  1.3506 -0.2612  1.1802
  703MOL0     O96924   8.199   4.416   5.350 -0.1762 -0.0135 -0.0083
  703MOL0     C96925   7.937   4.447   5.405  0.5663  0.1632 -0.2727
  703MOL0     C96926   7.804   4.450   5.434  0.1610 -0.3223 -0.5416
  703MOL0     N96927   7.290   4.016   5.210 -0.5020 -0.2420  0.3260
  703MOL0     N96928   7.195   3.934   5.191 -0.3297 -0.2215  0.3420
  703MOL0     C96929   6.481   3.661   4.418  0.6738 -0.4464  0.1511
  703MOL0     C96930   6.360   3.609   4.370  0.6494  0.7114 -0.4082
  703MOL0     C96931   6.039   3.307   4.386  0.2597  0.1207  0.3450
  703MOL0     C96932   5.970   3.259   4.507 -0.1103 -0.4088 -0.2695
  703MOL0     C96933   5.835   3.228   4.503 -0.4194  0.2878 -0.7462
  703MOL0     C96934   5.758   3.223   4.388  0.0973 -0.3407 -0.5460
  703MOL0     O96935   5.621   3.190   4.372 -0.2366 -0.3815 -0.0768
  703MOL0     C96936   5.560   3.127   4.488  0.0294  0.2952  0.4118
  703MOL0     C96937   5.420   3.085   4.445  0.2990 -0.6798  0.5756
  703MOL0     C96938   5.330   3.198   4.394  0.1176  0.2693  0.7679
  703MOL0     C96939   5.187   3.204   4.455 -0.7098  0.6720  0.2353
  703MOL0     C96940   5.096   3.109   4.392  1.2255  0.7827  0.2989
  703MOL0     C96941   5.010   3.042   4.334 -0.0005  0.2984  1.2357
  703MOL0     C96942   5.818   3.274   4.272 -0.7815 -0.0212 -0.1084
  703MOL0     C96943   5.957   3.312   4.269 -0.6476  0.1125  0.2400
  703MOL0     C96944   6.020   3.340   4.138  0.6835  0.8107  0.8005
  703MOL0     H96945   6.464   3.295   4.324  3.5034 -0.2175 -0.6955
  703MOL0     H96946   6.666   3.389   4.429  0.6682  0.8521 -2.2685
  703MOL0     H96947   6.867   3.550   4.426  4.8868 -3.0418  2.1332
  703MOL0     H96948   6.806   3.478   4.567 -0.6160  1.3299  0.5031
  703MOL0     H96949   7.006   3.612   4.607  0.3185  0.7676 -1.3259
  703MOL0     H96950   6.937   3.759   4.552 -0.8101  0.9412  0.2372
  703MOL0     H96951   6.779   3.787   4.740 -0.5726 -0.5082 -3.3092
  703MOL0     H96952   6.831   3.635   4.813 -2.3084 -1.3342 -2.0035
  703MOL0     H96953   7.075   3.730   4.783 -0.3887 -0.3703 -1.5181
  703MOL0     H96954   7.001   3.879   4.750 -1.9405  0.6374 -1.1217
  703MOL0     H96955   7.057   3.819   4.999 -0.8692  3.2199  0.4415
  703MOL0     H96956   6.900   3.734   4.990  1.2090 -2.0535  0.1388
  703MOL0     H96957   6.965   4.024   4.930  0.6273 -0.9402 -1.9117
  703MOL0     H96958   6.810   3.961   4.893  0.0823  2.7892  0.0098
  703MOL0     H96959   6.755   3.915   5.126  0.4529 -0.5534  1.3193
  703MOL0     H96960   6.816   4.076   5.102 -1.8421 -0.5982 -0.6806
  703MOL0     H96961   6.899   4.001   5.306 -1.5658 -1.1982 -0.0607
  703MOL0     H96962   6.947   3.846   5.249  3.4575  0.0643  1.3737
  703MOL0     H96963   7.056   4.226   5.228  2.5264  1.8858 -4.4288
  703MOL0     H96964   7.258   4.342   5.134 -0.5185 -0.7873 -0.1887
  703MOL0     H96965   7.410   4.251   5.145 -0.5163 -1.0801  0.7573
  703MOL0     H96966   7.265   4.386   5.374 -1.3616  0.3304 -2.2912
  703MOL0     H96967   7.377   4.262   5.395  0.4416  1.7263  0.7518
  703MOL0     H96968   7.562   4.393   5.265 -0.2568  0.3692  1.0274
  703MOL0     H96969   7.451   4.523   5.246 -3.1355  2.5615  3.7277
  703MOL0     H96970   7.420   4.527   5.506  0.0408  0.9189  0.4679
  703MOL0     H96971   7.549   4.413   5.523  4.5541  0.7273 -2.0307
  703MOL0     H96972   7.757   4.784   5.437 -1.1762 -0.1663  1.0701
  703MOL0     H96973   8.087   4.823   5.517 -2.2183  1.5240  0.1256
  703MOL0     H96974   7.949   4.898   5.444  0.8929  1.7980 -0.5100
  703MOL0     H96975   8.070   4.856   5.331 -1.4594  2.0887  0.1868
  703MOL0     H96976   8.420   4.783   5.494 -1.6702 -2.9651  1.5409
  703MOL0     H96977   8.635   4.840   5.406  1.0798 -0.4238 -1.3329
  703MOL0     H96978   8.790   4.519   5.136 -2.2489  1.6218  0.1599
  703MOL0     H96979   8.899   4.632   5.094 -0.6762  0.8193 -0.3799
  703MOL0     H96980   8.824   4.585   5.389 -0.6966 -1.6930 -0.6874
  703MOL0     H96981   8.950   4.480   5.317 -0.8660 -0.3672  0.9655
  703MOL0     H96982   9.016   4.721   5.440  2.2425  2.1055 -0.7975
  703MOL0     H96983   9.004   4.770   5.276 -0.5811 -0.7725 -0.9931
  703MOL0     H96984   9.171   4.584   5.226  0.9208  0.3955  0.0498
  703MOL0     H96985   9.158   4.528   5.399  1.5601  1.4936  0.9496
  703MOL0     H96986   9.293   4.768   5.272 -2.2570  1.5248  0.9597
  703MOL0     H96987   9.267   4.769   5.448  0.4521 -1.1064  1.7065
  703MOL0     H96988   9.400   4.587   5.496 -0.7151 -1.2991 -1.3325
  703MOL0     H96989   9.494   4.689   5.387  0.4005  0.3826  1.8440
  703MOL0     H96990   9.379   4.511   5.202  1.0150  3.1984 -0.3207
  703MOL0     H96991   9.411   4.408   5.342 -4.0009 -0.0145 -1.9359
  703MOL0     H96992   9.632   4.470   5.361 -0.5644  0.7826  0.7844
  703MOL0     H96993   9.624   4.601   5.236  2.1553 -1.3792 -1.7682
  703MOL0     H96994   8.570   4.562   5.078 -0.5060  0.6319  0.1075
  703MOL0     H96995   8.333   4.526   5.172 -0.1015  2.9404 -0.3502
  703MOL0     H96996   7.978   4.348   5.391 -1.4119 -1.2341  2.9029
  703MOL0     H96997   7.758   4.357   5.465 -1.8904  0.9884  0.5979
  703MOL0     H96998   6.484   3.764   4.453  3.6871 -0.2081 -0.4908
  703MOL0     H96999   6.271   3.672   4.362  0.7054  0.8423 -0.0429
  703MOL0     H97000   6.021   3.257   4.603  2.5958 -1.7950 -1.6444
  703MOL0     H97001   5.794   3.189   4.596 -3.0646 -0.4605 -2.1090
  703MOL0     H97002   5.615   3.035   4.513  1.1127  0.6974 -0.4236
  703MOL0     H97003   5.553   3.193   4.575 -0.4872  0.1049  0.5178
  703MOL0     H97004   5.363   3.038   4.526 -1.7781  1.8691  0.7295
  703MOL0     H97005   5.430   3.020   4.358 -1.8392 -0.0454 -0.1998
  703MOL0     H97006   5.389   3.290   4.402  2.3798 -0.7857 -2.0395
  703MOL0     H97007   5.310   3.196   4.286  0.9468  2.3997  0.5319
  703MOL0     H97008   5.152   3.305   4.432  1.7013  1.2149 -1.4396
  703MOL0     H97009   5.190   3.191   4.563 -2.3233 -0.4203  0.1728
  703MOL0     H97010   4.937   2.993   4.273  0.7043  0.5809  0.1372
  703MOL0     H97011   5.746   3.276   4.190 -3.6740 -3.8147  1.9874
  703MOL0     H97012   5.982   3.260   4.074  1.7326  0.6124  0.3923
  703MOL0     H97013   5.987   3.439   4.105  2.9922  1.5335  0.4319
  703MOL0     H97014   6.129   3.334   4.130  0.6700  1.5917 -0.2806
  704MOL0     O97015   9.848   3.213   8.426  0.3993  0.5731  0.3572
  704MOL0     C97016   9.842   3.287   8.329 -0.9484 -0.2175  0.4151
  704MOL0     O97017   9.954   3.337   8.269 -0.0985 -0.3201  0.1122
  704MOL0     C97018  10.077   3.343   8.332  0.6598 -0.3918 -0.2059
  704MOL0     C97019  10.101   3.421   8.445  0.3629  0.4785  0.2323
  704MOL0     C97020  10.226   3.417   8.506 -0.0447  1.5160 -0.2329
  704MOL0     C97021  10.334   3.356   8.447  0.0011  1.0370 -0.4791
  704MOL0     O97022  10.453   3.371   8.521 -0.1763 -0.6543  0.1371
  704MOL0     C97023  10.565   3.341   8.435 -0.1478 -0.5249 -0.1435
  704MOL0     C97024  10.690   3.418   8.488  0.1038 -0.3467 -0.4375
  704MOL0     C97025  10.712   3.398   8.637  0.4343  0.3402 -0.8710
  704MOL0     C97026  10.856   3.424   8.690 -0.0544  0.4813 -0.2734
  704MOL0     C97027  10.967   3.325   8.674  0.5619  0.2737 -0.2608
  704MOL0     C97028  10.960   3.179   8.720  0.0316 -0.4757  1.2636
  704MOL0     C97029  10.920   3.156   8.864  0.2649 -0.4159 -0.4963
  704MOL0     C97030  11.009   3.212   8.975  0.2580 -0.5382  0.1582
  704MOL0     N97031  11.152   3.177   8.967 -0.1062  0.5288 -0.5603
  704MOL0     C97032  11.244   3.246   8.903  0.4844 -0.2078  0.8234
  704MOL0     C97033  11.365   3.189   8.928  0.6961  0.5064  0.1917
  704MOL0     C97034  11.500   3.235   8.882  0.7829 -0.5216  0.1622
  704MOL0     C97035  11.617   3.167   8.948 -0.4821  0.4604 -0.1847
  704MOL0     C97036  11.749   3.224   8.896  0.0751 -0.2445  0.2251
  704MOL0     C97037  11.875   3.177   8.974 -0.2198 -0.3800 -0.1187
  704MOL0     O97038  11.887   3.245   9.107  0.5660 -0.6308  0.5700
  704MOL0     C97039  11.974   3.198   9.203  0.6108 -0.5192 -0.6983
  704MOL0     C97040  11.976   3.267   9.320  0.1250  0.3177  0.0651
  704MOL0     C97041  12.058   3.228   9.426 -0.0672 -0.3084  0.1805
  704MOL0     C97042  12.048   3.324   9.544 -0.2493 -0.6203 -0.4523
  704MOL0     C97043  12.122   3.103   9.428  0.1885 -0.2207  0.6618
  704MOL0     C97044  12.196   3.051   9.545 -0.2048  0.0616 -0.2482
  704MOL0     O97045  12.224   2.918   9.537 -0.8902  0.4542 -0.0446
  704MOL0     C97046  12.333   2.877   9.611 -0.0760 -0.6204 -0.5352
  704MOL0     C97047  12.461   2.912   9.569  0.1363  0.6700 -0.8438
  704MOL0     C97048  12.581   2.887   9.641  0.2009 -0.0941 -0.2537
  704MOL0     C97049  12.569   2.811   9.767  0.3350 -0.2147 -1.4077
  704MOL0     O97050  12.682   2.760   9.833  0.1347  0.0067 -0.1288
  704MOL0     C97051  12.677   2.669   9.941 -0.4230 -0.2543 -0.4483
  704MOL0     C97052  12.811   2.655  10.027  0.3849 -0.6884 -0.0744
  704MOL0     C97053  12.928   2.648   9.927 -0.2249 -0.4146  0.0413
  704MOL0     C97054  13.057   2.638  10.003  0.6968  0.1063 -0.8965
  704MOL0     C97055  13.173   2.594   9.912  0.6205  0.0012 -0.0533
  704MOL0     C97056  13.272   2.704   9.861 -0.5978  0.3334 -0.2044
  704MOL0     C97057  13.399   2.651   9.795  0.1247  0.4254  0.6974
  704MOL0     C97058  13.511   2.609   9.889  0.5054  0.2730  0.4763
  704MOL0    Cl97059  13.655   2.539   9.791  0.0326  0.0997  0.1076
  704MOL0     C97060  12.429   2.779   9.810 -0.5018 -0.8985  0.8508
  704MOL0     C97061  12.316   2.817   9.733  0.3341 -0.0746 -0.2313
  704MOL0     O97062  12.234   3.132   9.631 -0.0654  0.1631  0.3985
  704MOL0     C97063  12.106   3.024   9.316 -0.0017  0.0356 -0.3578
  704MOL0     C97064  12.044   3.072   9.200  0.2949  0.1380 -0.9372
  704MOL0     N97065  11.345   3.081   9.012 -0.1651 -0.1273  0.4128
  704MOL0     N97066  11.216   3.071   9.030  0.0015  0.0868 -0.4362
  704MOL0     C97067  10.311   3.273   8.336 -0.1636  0.0040  0.1007
  704MOL0     C97068  10.182   3.269   8.282 -1.3429 -1.0096  0.1804
  704MOL0     C97069   9.715   3.309   8.262 -0.0991 -0.4871 -0.7693
  704MOL0     C97070   9.708   3.407   8.162  0.6980 -0.2087 -0.5190
  704MOL0     C97071   9.594   3.456   8.099  0.0361  0.6387 -0.0864
  704MOL0     C97072   9.469   3.396   8.122 -0.5202  0.1362 -0.0004
  704MOL0     O97073   9.354   3.434   8.058 -0.3783 -0.0253 -0.1548
  704MOL0     C97074   9.301   3.336   7.963 -0.3750 -1.0198  0.4337
  704MOL0     C97075   9.239   3.403   7.840  0.1282  0.3283 -0.8771
  704MOL0     C97076   9.190   3.301   7.733  0.3645 -0.3431  0.6590
  704MOL0     C97077   9.064   3.220   7.772  0.0732  0.7215  0.8836
  704MOL0     C97078   9.000   3.175   7.647 -0.3942  0.7831 -0.9224
  704MOL0     C97079   8.930   3.133   7.554  0.3493 -0.2641  0.0146
  704MOL0     C97080   9.469   3.294   8.220 -0.2969 -0.1811  0.3018
  704MOL0     C97081   9.591   3.251   8.294  1.4523  0.4732  0.9616
  704MOL0     C97082   9.570   3.152   8.405  0.4941  0.0701 -0.4466
  704MOL0     H97083  10.025   3.479   8.496 -1.2911 -1.4612  0.1411
  704MOL0     H97084  10.245   3.465   8.602  2.0657 -1.4134  0.9712
  704MOL0     H97085  10.558   3.373   8.331  3.3677  0.5062 -0.2068
  704MOL0     H97086  10.602   3.238   8.442  0.4202 -0.6462 -3.3498
  704MOL0     H97087  10.780   3.370   8.449  1.6261 -0.4862  2.9190
  704MOL0     H97088  10.690   3.522   8.453  1.2292  0.3738  1.5517
  704MOL0     H97089  10.645   3.468   8.687  1.9436  1.9806 -1.0244
  704MOL0     H97090  10.689   3.299   8.678  1.0604  0.2012 -0.8377
  704MOL0     H97091  10.887   3.520   8.647 -1.3326  0.1833 -1.9956
  704MOL0     H97092  10.849   3.447   8.797  0.4774 -1.7688  0.2820
  704MOL0     H97093  11.054   3.378   8.713 -0.3986 -0.3913  3.0586
  704MOL0     H97094  10.986   3.331   8.566  1.0723  1.7779 -0.1112
  704MOL0     H97095  10.894   3.119   8.657 -1.7633  1.0859  1.5487
  704MOL0     H97096  11.063   3.148   8.697  1.2907  2.9815  1.6244
  704MOL0     H97097  10.937   3.048   8.873  1.4268 -0.0724  4.4668
  704MOL0     H97098  10.816   3.185   8.880 -0.0238 -0.9753 -1.3145
  704MOL0     H97099  11.003   3.321   8.971 -0.7541 -0.6121 -1.0092
  704MOL0     H97100  10.964   3.165   9.063 -1.1444 -2.1919 -1.3701
  704MOL0     H97101  11.237   3.328   8.832  3.4135 -0.3201  0.2874
  704MOL0     H97102  11.525   3.341   8.887 -0.3617 -0.1910 -0.6685
  704MOL0     H97103  11.504   3.205   8.777  1.6432  2.7182 -0.8360
  704MOL0     H97104  11.610   3.197   9.053  0.7920  1.8357 -0.4654
  704MOL0     H97105  11.612   3.058   8.942  0.5880  0.3917 -0.0066
  704MOL0     H97106  11.762   3.204   8.789  4.0552  0.8557  0.3293
  704MOL0     H97107  11.748   3.333   8.906 -3.4963 -0.2008  0.7317
  704MOL0     H97108  11.870   3.070   8.994  0.5822 -0.5391 -0.6880
  704MOL0     H97109  11.966   3.180   8.913  0.4934  1.4035  0.9386
  704MOL0     H97110  11.920   3.360   9.321  0.9702  0.8418 -0.2814
  704MOL0     H97111  11.993   3.413   9.514  0.4041  0.1624  0.5931
  704MOL0     H97112  12.145   3.349   9.589  0.4578 -0.5329 -1.9658
  704MOL0     H97113  11.985   3.280   9.622  2.2995 -1.2750  1.3713
  704MOL0     H97114  12.470   2.977   9.483  0.6807  1.4160 -0.2311
  704MOL0     H97115  12.672   2.930   9.599 -0.4679  1.1936 -0.4629
  704MOL0     H97116  12.602   2.708  10.011 -0.4892 -2.0578  0.5520
  704MOL0     H97117  12.654   2.567   9.909  3.5169 -0.7431 -2.2039
  704MOL0     H97118  12.824   2.740  10.095 -4.1573 -0.6228  1.0209
  704MOL0     H97119  12.807   2.569  10.094 -0.7318 -0.2066  0.5005
  704MOL0     H97120  12.938   2.733   9.859 -0.5687 -0.8022 -0.5052
  704MOL0     H97121  12.908   2.568   9.854 -0.6899 -0.1105 -0.1667
  704MOL0     H97122  13.048   2.562  10.081 -0.2233 -2.0013 -2.9383
  704MOL0     H97123  13.071   2.735  10.053 -1.0214  0.7080 -1.5028
  704MOL0     H97124  13.235   2.528   9.973 -0.8617  1.0832  2.7875
  704MOL0     H97125  13.130   2.536   9.830 -2.5875 -1.8692  2.7062
  704MOL0     H97126  13.292   2.763   9.951 -4.1512 -1.2435  1.8474
  704MOL0     H97127  13.206   2.751   9.787 -0.5807 -2.5677 -2.2138
  704MOL0     H97128  13.446   2.716   9.720 -2.0318  2.1480  0.7394
  704MOL0     H97129  13.367   2.562   9.740  2.1631 -0.5078  0.9412
  704MOL0     H97130  13.460   2.544   9.961 -1.5587  0.6886 -0.5409
  704MOL0     H97131  13.540   2.691   9.955  0.7829 -1.0296  2.0143
  704MOL0     H97132  12.406   2.733   9.905 -2.7844 -0.4296  0.5809
  704MOL0     H97133  12.216   2.814   9.775 -0.7010  3.2792 -2.0776
  704MOL0     H97134  12.150   2.926   9.297  0.3365 -0.2238  1.5358
  704MOL0     H97135  12.058   3.001   9.118  0.0887  0.0267 -0.8785
  704MOL0     H97136  10.391   3.216   8.290 -0.0487 -0.1758  0.5159
  704MOL0     H97137  10.164   3.208   8.194 -0.3116 -1.4610  0.2539
  704MOL0     H97138   9.796   3.468   8.144  0.7378  0.4323  1.6099
  704MOL0     H97139   9.602   3.542   8.035  2.0427 -1.4313 -2.8728
  704MOL0     H97140   9.383   3.272   7.929  0.8059 -0.3523  1.9040
  704MOL0     H97141   9.229   3.269   8.010  0.7306 -0.9067  2.4177
  704MOL0     H97142   9.310   3.475   7.800  0.7648  1.8602  2.6340
  704MOL0     H97143   9.166   3.477   7.874  1.3224  1.0812  0.0896
  704MOL0     H97144   9.170   3.354   7.639  0.8777 -1.5236 -0.1508
  704MOL0     H97145   9.267   3.231   7.698 -1.1596 -0.1907 -3.7399
  704MOL0     H97146   8.986   3.272   7.828 -1.1859 -1.7725  1.6149
  704MOL0     H97147   9.088   3.133   7.833  0.1127 -1.7467 -2.4013
  704MOL0     H97148   8.871   3.086   7.478 -0.2619 -0.2666  0.4804
  704MOL0     H97149   9.371   3.250   8.239 -0.2661 -1.6042 -2.3051
  704MOL0     H97150   9.473   3.107   8.385  0.2627  1.5862 -3.1901
  704MOL0     H97151   9.638   3.066   8.397  0.5775  0.1104 -0.1859
  704MOL0     H97152   9.573   3.200   8.503 -3.1695  2.7001 -1.4262
  705MOL0     O97153  10.708   1.919   5.128 -0.2181 -0.2058 -1.0481
  705MOL0     C97154  10.636   2.019   5.138  0.1472 -0.0711 -0.4648
  705MOL0     O97155  10.601   2.085   5.251 -0.1374  0.4689  0.1313
  705MOL0     C97156  10.684   2.071   5.360  0.5073  0.6312  0.0486
  705MOL0     C97157  10.804   2.143   5.362  0.5370  0.1989 -0.9231
  705MOL0     C97158  10.892   2.129   5.473 -0.4549 -0.4367 -0.2174
  705MOL0     C97159  10.848   2.066   5.594 -0.3569  0.3355  0.5144
  705MOL0     O97160  10.913   2.054   5.714  0.2252 -0.0968 -0.1626
  705MOL0     C97161  11.060   2.063   5.708  0.4398  0.2183 -0.0992
  705MOL0     C97162  11.104   2.031   5.848  0.1466  0.0796  0.0103
  705MOL0     C97163  11.249   2.007   5.859  0.0286 -0.4176 -0.5922
  705MOL0     C97164  11.276   1.974   6.002 -0.6062  0.1356 -0.6900
  705MOL0     C97165  11.437   1.977   6.030  0.0335 -0.2938 -0.2608
  705MOL0     C97166  11.472   1.926   6.170 -0.2503  0.5633  0.1563
  705MOL0     C97167  11.614   1.902   6.199  0.1603 -0.1861  0.4203
  705MOL0     C97168  11.645   1.896   6.352 -0.5278  0.1829  0.5563
  705MOL0     N97169  11.787   1.876   6.368 -0.8220 -0.4406  0.3808
  705MOL0     C97170  11.874   1.972   6.346 -0.4263 -0.3753  1.5686
  705MOL0     C97171  11.990   1.919   6.386  0.5915 -1.3659 -0.1553
  705MOL0     C97172  12.122   1.982   6.372  0.2643  0.3555  0.1391
  705MOL0     C97173  12.121   2.108   6.464  0.0755  1.4405  0.0765
  705MOL0     C97174  12.243   2.202   6.435  0.8227  0.8433  1.0279
  705MOL0     C97175  12.381   2.131   6.459 -0.3904  1.4509 -0.7252
  705MOL0     O97176  12.402   2.044   6.343  0.4090  0.0509  0.0596
  705MOL0     C97177  12.521   1.978   6.338  0.0600  0.7436  0.1504
  705MOL0     C97178  12.617   1.953   6.438  0.5366  0.2091  0.0231
  705MOL0     C97179  12.734   1.879   6.416  0.7202 -0.5019 -0.4149
  705MOL0     C97180  12.840   1.881   6.523  0.3926  0.0923  0.4781
  705MOL0     C97181  12.751   1.809   6.295  0.3029  0.6212  0.2398
  705MOL0     C97182  12.879   1.736   6.249  0.6778  0.1689  0.3740
  705MOL0     O97183  12.866   1.631   6.155  0.0291  0.4089  0.0243
  705MOL0     C97184  12.977   1.556   6.124  0.7102  0.5639 -0.2987
  705MOL0     C97185  13.004   1.537   5.988  0.0661 -0.0009  0.4301
  705MOL0     C97186  13.103   1.458   5.935  0.1697 -0.4225 -0.6917
  705MOL0     C97187  13.180   1.388   6.026  0.1013  0.0907 -0.6494
  705MOL0     O97188  13.291   1.322   5.974 -0.0369 -0.6450  0.0917
  705MOL0     C97189  13.383   1.273   6.069 -0.2348  0.2351 -0.3017
  705MOL0     C97190  13.524   1.240   6.019 -0.1266 -0.1090  0.4848
  705MOL0     C97191  13.536   1.155   5.893  0.2233 -0.6678  0.8012
  705MOL0     C97192  13.681   1.150   5.860  0.2687 -0.4908  0.9249
  705MOL0     C97193  13.707   1.053   5.748  0.2150 -0.3377  0.6876
  705MOL0     C97194  13.841   0.985   5.770 -0.4862  0.0536  0.9454
  705MOL0     C97195  13.875   0.876   5.659 -0.7217 -0.0975 -0.0250
  705MOL0     C97196  14.009   0.820   5.687 -0.4337 -0.3650  0.0882
  705MOL0    Cl97197  14.005   0.695   5.828  0.5977 -0.1721  0.1241
  705MOL0     C97198  13.156   1.408   6.166  0.6385  1.0581  0.6550
  705MOL0     C97199  13.051   1.492   6.212 -0.7360 -0.3581 -0.5114
  705MOL0     O97200  12.982   1.783   6.280  0.2285  0.3249 -0.8190
  705MOL0     C97201  12.650   1.809   6.197  0.5858  0.2673  0.1064
  705MOL0     C97202  12.540   1.898   6.213  0.7650 -0.3197 -0.9063
  705MOL0     N97203  11.974   1.791   6.428  0.3658 -0.0480  0.6527
  705MOL0     N97204  11.847   1.763   6.413  0.9504 -0.7838  0.0620
  705MOL0     C97205  10.725   1.992   5.596  0.6274  0.1459 -0.4523
  705MOL0     C97206  10.652   1.984   5.470 -0.6625 -1.0747 -0.2357
  705MOL0     C97207  10.605   2.091   5.011  0.5198 -0.5969  0.2230
  705MOL0     C97208  10.574   2.229   5.018  1.0695 -0.0009  0.3373
  705MOL0     C97209  10.553   2.294   4.897 -0.1676  0.5633  1.1093
  705MOL0     C97210  10.573   2.233   4.772  0.9918  0.2497 -0.3141
  705MOL0     O97211  10.568   2.314   4.666 -0.1860 -0.7721  0.1808
  705MOL0     C97212  10.579   2.261   4.536  0.1356  0.3560 -0.1301
  705MOL0     C97213  10.597   2.365   4.422  0.7955 -0.2923 -0.7917
  705MOL0     C97214  10.461   2.411   4.354 -0.1932 -0.4375 -0.0776
  705MOL0     C97215  10.393   2.526   4.431 -0.4640  0.2665 -0.5502
  705MOL0     C97216  10.459   2.659   4.413  0.4783 -0.3547  0.5030
  705MOL0     C97217  10.554   2.742   4.409  0.2242  0.0759 -0.1493
  705MOL0     C97218  10.598   2.100   4.767  0.4246 -0.2069 -0.3155
  705MOL0     C97219  10.612   2.027   4.883 -0.3016  0.3259 -0.5044
  705MOL0     C97220  10.633   1.874   4.863  0.9842  0.4329  0.6482
  705MOL0     H97221  10.820   2.209   5.277  0.9589  1.7102  0.2865
  705MOL0     H97222  10.984   2.184   5.484 -0.9527  0.5258 -0.7607
  705MOL0     H97223  11.098   2.161   5.679  1.7424 -0.4149 -0.6557
  705MOL0     H97224  11.105   1.987   5.642  0.4239  1.2393 -1.3356
  705MOL0     H97225  11.074   2.107   5.921  0.1931 -1.5708  1.8185
  705MOL0     H97226  11.054   1.941   5.883 -0.4602  0.9883  1.6025
  705MOL0     H97227  11.287   1.927   5.796  0.6329  0.5358 -1.4690
  705MOL0     H97228  11.301   2.097   5.825 -1.1841  0.3665 -0.4440
  705MOL0     H97229  11.227   2.038   6.075 -0.4932 -1.0779  0.4960
  705MOL0     H97230  11.251   1.869   6.022 -0.9893  0.1708 -0.9827
  705MOL0     H97231  11.476   2.080   6.034 -2.1593  0.5602  2.0738
  705MOL0     H97232  11.494   1.914   5.961  2.2857  0.3700  0.8854
  705MOL0     H97233  11.415   1.989   6.238 -1.6485  1.2434 -1.5574
  705MOL0     H97234  11.411   1.835   6.181 -2.0374  1.9383  2.5564
  705MOL0     H97235  11.670   1.989   6.162  0.3053  0.2174  1.5447
  705MOL0     H97236  11.655   1.818   6.143  1.6598  0.7908 -0.0271
  705MOL0     H97237  11.622   1.991   6.402  0.1161  1.0221 -0.7142
  705MOL0     H97238  11.586   1.814   6.395  1.9337 -2.1481 -0.2405
  705MOL0     H97239  11.857   2.073   6.309 -0.3619 -2.2452 -4.8952
  705MOL0     H97240  12.138   2.011   6.267 -1.5213  1.3652  0.1059
  705MOL0     H97241  12.186   1.908   6.421 -3.6979 -1.1553  3.6061
  705MOL0     H97242  12.031   2.169   6.456 -0.7591  0.1975 -0.2103
  705MOL0     H97243  12.120   2.073   6.568  1.6210  2.8497  0.6207
  705MOL0     H97244  12.236   2.245   6.335  4.0397 -1.0550 -0.1546
  705MOL0     H97245  12.238   2.297   6.491  0.3305  2.8814 -2.2101
  705MOL0     H97246  12.460   2.206   6.468 -1.4659  2.9073 -2.7042
  705MOL0     H97247  12.379   2.071   6.551  1.2271  0.9422 -0.9924
  705MOL0     H97248  12.601   2.006   6.531 -1.3144  0.6891 -0.5333
  705MOL0     H97249  12.934   1.924   6.487  0.1435 -0.2832 -0.6390
  705MOL0     H97250  12.860   1.775   6.543  0.5674 -0.1138 -0.7348
  705MOL0     H97251  12.807   1.938   6.611  0.8461 -1.3390  1.6312
  705MOL0     H97252  12.934   1.590   5.924 -0.9305 -0.9097  0.7298
  705MOL0     H97253  13.120   1.460   5.828  0.7936  0.6525 -0.5868
  705MOL0     H97254  13.405   1.343   6.151  2.6333  0.9459 -1.5443
  705MOL0     H97255  13.341   1.181   6.112  2.2022  0.8599  4.1041
  705MOL0     H97256  13.573   1.337   6.007  0.4963 -0.5311 -0.6303
  705MOL0     H97257  13.580   1.186   6.096 -1.0994 -1.5553  0.2360
  705MOL0     H97258  13.478   1.202   5.813 -3.2354 -0.9214  2.9864
  705MOL0     H97259  13.491   1.059   5.916  0.3923 -1.1435 -0.7313
  705MOL0     H97260  13.733   1.127   5.953  3.8501  1.3454 -0.4456
  705MOL0     H97261  13.714   1.248   5.823 -1.2591 -0.2697  0.0144
  705MOL0     H97262  13.628   0.978   5.758  0.0180 -0.4432 -1.1480
  705MOL0     H97263  13.690   1.101   5.650  2.5679 -0.2044  0.2870
  705MOL0     H97264  13.835   0.941   5.869 -1.9338  0.1354  0.9155
  705MOL0     H97265  13.928   1.052   5.766  0.2993 -0.9841 -1.5685
  705MOL0     H97266  13.883   0.934   5.567  0.2231  1.4566  0.9877
  705MOL0     H97267  13.801   0.797   5.642  0.2075 -1.3008  1.2523
  705MOL0     H97268  14.087   0.892   5.713 -0.8155  1.3118 -3.0056
  705MOL0     H97269  14.041   0.770   5.595  1.2884 -2.0495  1.5189
  705MOL0     H97270  13.219   1.361   6.241  0.4926  1.6815  1.1838
  705MOL0     H97271  13.030   1.490   6.318 -1.0545 -1.5029 -0.5734
  705MOL0     H97272  12.651   1.741   6.112  0.5136 -1.3475  1.3428
  705MOL0     H97273  12.450   1.887   6.152 -0.0743  3.5395 -0.6374
  705MOL0     H97274  10.684   1.942   5.683  1.4341 -2.0699 -1.2829
  705MOL0     H97275  10.562   1.923   5.465 -1.4122  0.1138 -3.5856
  705MOL0     H97276  10.567   2.288   5.108  1.9216  0.7444 -0.0660
  705MOL0     H97277  10.538   2.402   4.896 -1.5011  0.3909  0.3842
  705MOL0     H97278  10.666   2.197   4.522  1.3885  1.8151  0.6831
  705MOL0     H97279  10.497   2.191   4.516  1.1412 -1.0132  0.4080
  705MOL0     H97280  10.655   2.321   4.341 -0.7731  0.3944 -2.3581
  705MOL0     H97281  10.645   2.453   4.465 -1.9935  0.8659  0.1701
  705MOL0     H97282  10.495   2.450   4.257  0.8467  1.2743  0.9323
  705MOL0     H97283  10.392   2.326   4.343  1.4940 -2.1229  1.5724
  705MOL0     H97284  10.393   2.504   4.539  0.9250  2.1795 -0.1147
  705MOL0     H97285  10.292   2.546   4.395 -0.3479 -0.2917 -1.2061
  705MOL0     H97286  10.638   2.809   4.406  2.5664 -2.6378  0.3860
  705MOL0     H97287  10.624   2.048   4.676  2.7890 -4.0556  2.2650
  705MOL0     H97288  10.621   1.847   4.757  1.1852 -0.9300  0.9525
  705MOL0     H97289  10.731   1.834   4.893  0.9498 -1.0145 -0.9909
  705MOL0     H97290  10.564   1.807   4.914  0.9001 -1.0693 -1.3385
  706MOL0     O97291   4.139   3.468  10.859 -0.1260 -0.2761 -0.7421
  706MOL0     C97292   4.055   3.541  10.911 -0.8081  0.4661 -1.0012
  706MOL0     O97293   4.084   3.656  10.974  0.7559 -0.4330 -0.4730
  706MOL0     C97294   4.211   3.701  10.967 -0.3372 -0.0966  0.3966
  706MOL0     C97295   4.237   3.816  10.903 -0.2303 -0.1608 -0.0087
  706MOL0     C97296   4.358   3.878  10.910 -0.6069 -0.0220 -0.0889
  706MOL0     C97297   4.459   3.821  10.983  0.6905 -0.0098 -0.2564
  706MOL0     O97298   4.582   3.884  10.998 -0.6590 -0.2495 -0.8836
  706MOL0     C97299   4.618   4.012  10.957 -0.1803  0.0016  1.0555
  706MOL0     C97300   4.761   4.044  10.971 -0.1001 -0.4462 -0.9454
  706MOL0     C97301   4.830   3.994  11.102  0.5089 -0.1863  0.7089
  706MOL0     C97302   4.974   4.034  11.097  0.1570  0.4513 -0.6237
  706MOL0     C97303   5.037   3.999  11.235  0.8143 -0.2035 -0.0634
  706MOL0     C97304   5.190   4.019  11.226 -0.6433  0.2186  0.0435
  706MOL0     C97305   5.251   3.982  11.361 -0.4131  0.0226  0.3305
  706MOL0     C97306   5.398   3.992  11.360  0.1454 -0.0392 -0.8363
  706MOL0     N97307   5.468   3.878  11.313 -0.0414  0.1518  0.4085
  706MOL0     C97308   5.568   3.812  11.378 -0.1042 -0.3970 -0.7955
  706MOL0     C97309   5.590   3.702  11.307  0.9828  0.1382 -0.3629
  706MOL0     C97310   5.695   3.599  11.345 -0.0356 -0.2361  0.8756
  706MOL0     C97311   5.754   3.515  11.229 -0.6274 -0.0945  0.2615
  706MOL0     C97312   5.789   3.375  11.272  0.3068  0.3585 -0.0689
  706MOL0     C97313   5.922   3.366  11.352 -0.4454  0.1552  0.7543
  706MOL0     O97314   5.939   3.232  11.401 -0.0183  0.1302  0.1843
  706MOL0     C97315   6.045   3.208  11.482 -0.7513 -0.4635 -0.8886
  706MOL0     C97316   6.133   3.308  11.539 -0.1301 -0.0301 -0.3746
  706MOL0     C97317   6.243   3.272  11.622 -0.1423 -0.0078  0.0566
  706MOL0     C97318   6.328   3.381  11.689  0.2763  0.3650 -1.0289
  706MOL0     C97319   6.269   3.135  11.657  0.3207 -0.0031  0.5205
  706MOL0     C97320   6.400   3.078  11.713  0.3326 -0.4373  0.0551
  706MOL0     O97321   6.401   2.954  11.769  0.4354 -0.6918  0.6164
  706MOL0     C97322   6.516   2.884  11.782 -0.3874  0.2833  0.5330
  706MOL0     C97323   6.598   2.854  11.671  0.2386  0.0154 -0.4334
  706MOL0     C97324   6.703   2.762  11.684 -0.1676  0.0275 -0.2406
  706MOL0     C97325   6.745   2.731  11.816  0.1304 -0.0180  0.3456
  706MOL0     O97326   6.852   2.645  11.833 -0.1067  0.3695  0.1497
  706MOL0     C97327   6.933   2.651  11.955 -0.4400  0.2383 -0.1579
  706MOL0     C97328   7.076   2.618  11.923  0.4306  0.1591 -0.2178
  706MOL0     C97329   7.143   2.723  11.828  0.0153 -0.7236 -0.1322
  706MOL0     C97330   7.261   2.668  11.753  0.5574 -1.0152 -0.0506
  706MOL0     C97331   7.351   2.774  11.691  0.2602 -0.6391  0.4525
  706MOL0     C97332   7.486   2.724  11.639 -0.4856  0.4032 -0.1889
  706MOL0     C97333   7.607   2.752  11.737  0.5170 -0.5239  0.8649
  706MOL0     C97334   7.747   2.706  11.689 -0.1367  0.8245  0.4217
  706MOL0    Cl97335   7.826   2.805  11.559 -0.1842  0.2044 -0.2733
  706MOL0     C97336   6.666   2.765  11.924 -0.4691  0.6755  0.1921
  706MOL0     C97337   6.553   2.837  11.909 -1.1176  0.7622  0.0404
  706MOL0     O97338   6.500   3.149  11.710  0.0229  0.1882  0.2564
  706MOL0     C97339   6.176   3.042  11.605  0.7518  0.4260  0.0297
  706MOL0     C97340   6.075   3.077  11.512 -0.9749 -0.2522  0.2437
  706MOL0     N97341   5.521   3.704  11.193  0.1743 -0.2973 -0.1230
  706MOL0     N97342   5.466   3.823  11.187 -0.4247  0.5957  0.5721
  706MOL0     C97343   4.436   3.702  11.049  0.5798  0.5666 -0.9196
  706MOL0     C97344   4.309   3.642  11.044  0.1684  0.0830 -0.2144
  706MOL0     C97345   3.915   3.498  10.899 -0.1293  0.3828  0.6530
  706MOL0     C97346   3.824   3.575  10.977  0.1715  1.1428 -0.7887
  706MOL0     C97347   3.691   3.539  10.985  0.0872  0.2896 -0.2758
  706MOL0     C97348   3.634   3.440  10.916  0.5467  0.2790 -0.2761
  706MOL0     O97349   3.496   3.435  10.930  0.2114  0.5372  0.5274
  706MOL0     C97350   3.421   3.356  10.834 -0.1901  1.0128 -0.7582
  706MOL0     C97351   3.276   3.404  10.801  0.0813  0.5100  0.3016
  706MOL0     C97352   3.275   3.557  10.804 -0.5134 -0.0867 -0.2273
  706MOL0     C97353   3.129   3.618  10.779  0.3409 -1.1493 -0.8277
  706MOL0     C97354   3.024   3.588  10.878  1.2024  0.8488 -0.4793
  706MOL0     C97355   2.930   3.547  10.948  0.2815  0.2940  0.6735
  706MOL0     C97356   3.716   3.349  10.852 -0.6679  0.1433 -0.4098
  706MOL0     C97357   3.854   3.376  10.837  0.6464 -0.6417 -1.0355
  706MOL0     C97358   3.933   3.275  10.747 -0.1851  0.9409 -0.7572
  706MOL0     H97359   4.167   3.870  10.840  2.1407  3.2344 -0.0163
  706MOL0     H97360   4.378   3.964  10.847 -2.2123  2.5859  2.6689
  706MOL0     H97361   4.565   4.086  11.018 -1.2175 -0.3437  0.5896
  706MOL0     H97362   4.597   4.016  10.850 -1.4485 -2.6897  1.1174
  706MOL0     H97363   4.814   4.004  10.884  1.5756 -0.9130  0.2459
  706MOL0     H97364   4.779   4.151  10.964  1.2807 -0.3858  2.0399
  706MOL0     H97365   4.782   4.044  11.187 -1.1132  1.2860 -0.9860
  706MOL0     H97366   4.816   3.887  11.120 -1.1330 -0.0987  0.0797
  706MOL0     H97367   5.032   3.982  11.020  3.4751 -0.3604  2.1621
  706MOL0     H97368   4.981   4.143  11.089  1.2233  0.2539 -4.0399
  706MOL0     H97369   5.017   3.894  11.256  0.7164 -0.0372  0.6943
  706MOL0     H97370   5.001   4.065  11.314  0.8644  2.4893 -2.1342
  706MOL0     H97371   5.233   3.968  11.139  0.1539  1.5730 -0.3929
  706MOL0     H97372   5.205   4.127  11.221  0.2997  0.1370  0.7515
  706MOL0     H97373   5.232   3.874  11.362 -3.3209  0.4561  0.7244
  706MOL0     H97374   5.197   4.020  11.448 -3.2153 -0.4834 -1.0491
  706MOL0     H97375   5.425   4.078  11.299  1.2703  3.0514  3.5206
  706MOL0     H97376   5.433   4.002  11.463 -0.1406  0.9508 -0.8240
  706MOL0     H97377   5.605   3.834  11.478 -0.7465 -2.2794 -0.0970
  706MOL0     H97378   5.644   3.541  11.422 -3.0673  0.4162 -0.4946
  706MOL0     H97379   5.774   3.657  11.393  1.3303  0.0403 -1.5221
  706MOL0     H97380   5.696   3.505  11.137 -3.5988  0.7261  1.8876
  706MOL0     H97381   5.851   3.560  11.207  1.0629 -2.6193  1.9890
  706MOL0     H97382   5.714   3.316  11.325 -1.4031  1.1481 -1.4944
  706MOL0     H97383   5.811   3.318  11.181  0.3369  3.1899 -1.9459
  706MOL0     H97384   6.008   3.379  11.287 -1.5071  0.4826 -0.6290
  706MOL0     H97385   5.922   3.441  11.433  1.2996  0.7449  0.2572
  706MOL0     H97386   6.126   3.415  11.523  3.2359  0.3844  0.2775
  706MOL0     H97387   6.266   3.469  11.708 -1.5297 -0.8763 -0.8822
  706MOL0     H97388   6.419   3.392  11.629  1.6742  0.1127  0.9560
  706MOL0     H97389   6.362   3.341  11.785 -0.4909  0.8794 -0.5283
  706MOL0     H97390   6.589   2.898  11.572 -1.1256 -1.4140 -0.9991
  706MOL0     H97391   6.781   2.733  11.615  2.7287 -1.7858  3.4338
  706MOL0     H97392   6.945   2.754  11.990  1.3013  0.3455 -0.9308
  706MOL0     H97393   6.894   2.595  12.040 -0.9631 -0.7483 -1.0312
  706MOL0     H97394   7.139   2.611  12.013 -0.0557 -0.0601  0.1085
  706MOL0     H97395   7.076   2.517  11.882  3.2788 -0.6070  1.3504
  706MOL0     H97396   7.181   2.807  11.886  0.3084 -0.7100 -0.3426
  706MOL0     H97397   7.067   2.765  11.761 -1.1209  0.6278  1.8813
  706MOL0     H97398   7.221   2.600  11.677 -0.8147  0.2042 -0.4799
  706MOL0     H97399   7.333   2.613  11.814  0.4461 -2.7517 -1.4263
  706MOL0     H97400   7.294   2.821  11.611  2.4033 -0.9576 -1.3822
  706MOL0     H97401   7.360   2.854  11.765  0.3325 -0.8972  0.7279
  706MOL0     H97402   7.512   2.781  11.550 -1.7679 -0.9244 -1.4705
  706MOL0     H97403   7.483   2.621  11.604 -4.0913  0.4126 -0.3050
  706MOL0     H97404   7.586   2.706  11.834 -1.7936 -1.2809  0.0773
  706MOL0     H97405   7.617   2.860  11.749  1.9094 -0.5541  0.1263
  706MOL0     H97406   7.742   2.601  11.658 -0.6968  0.9386  0.1147
  706MOL0     H97407   7.820   2.711  11.770  0.5243 -3.1272  0.3064
  706MOL0     H97408   6.699   2.733  12.022  0.0942  1.3178  0.2167
  706MOL0     H97409   6.485   2.867  11.988 -0.4614 -1.9512  1.7517
  706MOL0     H97410   6.189   2.936  11.627  3.4954  0.2333 -1.9604
  706MOL0     H97411   6.029   2.995  11.457  0.3351 -1.4544  0.8881
  706MOL0     H97412   4.502   3.654  11.121 -1.9280 -0.0403  1.1558
  706MOL0     H97413   4.295   3.557  11.111  0.8329 -1.2775 -1.7237
  706MOL0     H97414   3.854   3.660  11.038 -1.3378 -0.3156  2.1684
  706MOL0     H97415   3.632   3.607  11.046 -2.2946 -0.4803 -1.5712
  706MOL0     H97416   3.475   3.367  10.740 -0.2189 -1.2041 -1.0842
  706MOL0     H97417   3.426   3.250  10.861  1.1826  0.0686 -4.2278
  706MOL0     H97418   3.207   3.377  10.881 -1.7835 -1.1076 -1.7438
  706MOL0     H97419   3.255   3.370  10.699  0.1190  1.9344 -0.2080
  706MOL0     H97420   3.299   3.596  10.904  2.2913 -0.0602 -0.8296
  706MOL0     H97421   3.332   3.596  10.719 -3.9715  1.3715 -2.0956
  706MOL0     H97422   3.087   3.586  10.683 -1.7914  2.3530 -1.2284
  706MOL0     H97423   3.140   3.725  10.762  0.8217 -1.0256  0.2290
  706MOL0     H97424   2.851   3.503  11.006  0.5971  0.3822  1.1714
  706MOL0     H97425   3.670   3.260  10.809 -0.4533  0.2545 -0.8704
  706MOL0     H97426   3.943   3.320  10.648  0.4698  2.7710  0.1022
  706MOL0     H97427   4.035   3.258  10.783 -0.5440 -0.0595 -0.1414
  706MOL0     H97428   3.883   3.178  10.741 -0.5608  0.8039  2.6084
  707MOL0     O97429   1.988   9.389   5.703 -0.4397 -0.1345  0.7667
  707MOL0     C97430   2.070   9.359   5.614  0.6615 -0.7920  0.3220
  707MOL0     O97431   2.048   9.266   5.516  0.1347  0.6440  0.2095
  707MOL0     C97432   1.919   9.213   5.504  0.4191 -0.4082 -0.6667
  707MOL0     C97433   1.814   9.280   5.444 -0.2583 -0.5884 -0.2145
  707MOL0     C97434   1.684   9.225   5.444  0.6124 -0.4864 -0.3707
  707MOL0     C97435   1.653   9.100   5.493  0.0716  0.4040  0.9366
  707MOL0     O97436   1.526   9.063   5.468 -0.3535  0.0289 -0.2548
  707MOL0     C97437   1.503   8.923   5.502  0.0526  0.0636 -0.4500
  707MOL0     C97438   1.355   8.887   5.474 -0.2516  0.6079 -0.0962
  707MOL0     C97439   1.249   8.941   5.575  0.6730 -0.4558 -0.4138
  707MOL0     C97440   1.120   8.870   5.551  0.3101 -0.2836  0.0575
  707MOL0     C97441   1.014   8.938   5.640 -0.5024  0.0692  0.0580
  707MOL0     C97442   0.873   8.881   5.626  1.0410  0.4678 -0.6131
  707MOL0     C97443   0.813   8.857   5.483  0.1892 -0.1071 -0.1634
  707MOL0     C97444   0.819   8.979   5.398 -0.7794 -0.5530  0.6060
  707MOL0     N97445   0.863   8.943   5.263  0.3984  0.4198  0.3030
  707MOL0     C97446   0.975   8.985   5.202 -0.9010 -0.5418  0.7567
  707MOL0     C97447   0.971   8.918   5.087  0.1267  0.2087 -0.2474
  707MOL0     C97448   1.078   8.939   4.979 -0.6475  1.4063  0.4035
  707MOL0     C97449   1.185   8.824   4.998 -0.2308  0.2698  0.1532
  707MOL0     C97450   1.257   8.785   4.873 -0.3340  0.2857  0.6290
  707MOL0     C97451   1.386   8.702   4.896 -0.8223 -0.3257 -0.0638
  707MOL0     O97452   1.455   8.690   4.767  0.2435 -0.1960  0.3339
  707MOL0     C97453   1.570   8.618   4.759 -1.0050  0.4750  0.0776
  707MOL0     C97454   1.612   8.522   4.855  0.2937  0.0066  0.5414
  707MOL0     C97455   1.716   8.434   4.848  1.8541  0.3282 -0.2771
  707MOL0     C97456   1.731   8.343   4.972 -0.4299 -0.4096  0.2571
  707MOL0     C97457   1.808   8.454   4.745  0.5544 -0.0177 -0.5026
  707MOL0     C97458   1.939   8.371   4.744  0.0321 -0.6655 -0.4637
  707MOL0     O97459   2.022   8.394   4.637  0.2792  0.2634  0.1154
  707MOL0     C97460   2.135   8.312   4.629  1.2472  1.1130 -1.2569
  707MOL0     C97461   2.251   8.332   4.696  0.2820 -0.8491 -0.4562
  707MOL0     C97462   2.363   8.247   4.682  0.2735  0.3428 -0.0168
  707MOL0     C97463   2.363   8.140   4.589 -0.0230  0.1583  0.8270
  707MOL0     O97464   2.474   8.065   4.571 -0.5963  0.4217  0.5655
  707MOL0     C97465   2.482   7.931   4.512  0.1224  0.3129  0.1148
  707MOL0     C97466   2.626   7.880   4.486  0.0537  0.0804  0.1143
  707MOL0     C97467   2.698   7.893   4.617 -0.2017 -0.2702 -0.5018
  707MOL0     C97468   2.851   7.853   4.609  0.9507  0.1129  0.3968
  707MOL0     C97469   2.886   7.706   4.584 -0.3857  0.6082  0.0744
  707MOL0     C97470   3.038   7.686   4.554  0.1502  0.7125  0.1851
  707MOL0     C97471   3.075   7.544   4.506 -0.3354  0.2598 -0.2656
  707MOL0     C97472   3.040   7.433   4.608 -0.8568  0.2904  0.6162
  707MOL0    Cl97473   3.098   7.457   4.772 -0.7929  0.2044  0.3247
  707MOL0     C97474   2.245   8.118   4.523  0.1945  0.8301 -0.3805
  707MOL0     C97475   2.140   8.201   4.543 -0.3440 -0.3141 -0.2762
  707MOL0     O97476   1.972   8.289   4.834  0.0937 -0.0894  0.6515
  707MOL0     C97477   1.774   8.561   4.648 -0.1780  0.3217  0.3009
  707MOL0     C97478   1.658   8.644   4.647  0.3135  0.6344 -0.2443
  707MOL0     N97479   0.854   8.839   5.072  0.6697 -0.1410  0.2098
  707MOL0     N97480   0.801   8.850   5.187 -0.0955  0.6523 -0.4378
  707MOL0     C97481   1.762   9.030   5.550  0.4231  0.2723 -0.5160
  707MOL0     C97482   1.891   9.083   5.549 -0.8739 -0.1218  0.4941
  707MOL0     C97483   2.198   9.429   5.615 -0.1719  0.0103  0.2536
  707MOL0     C97484   2.307   9.341   5.609 -0.0272 -0.2216 -0.5752
  707MOL0     C97485   2.432   9.396   5.617 -0.2529 -0.8885  0.0123
  707MOL0     C97486   2.460   9.532   5.621  0.7657 -0.4731 -0.0056
  707MOL0     O97487   2.590   9.575   5.620 -0.2196 -0.5172  0.6226
  707MOL0     C97488   2.647   9.616   5.745 -0.3099  0.3292 -0.2897
  707MOL0     C97489   2.794   9.598   5.749 -0.2852 -0.3916  0.2378
  707MOL0     C97490   2.845   9.462   5.762 -0.4457 -0.4191 -0.6961
  707MOL0     C97491   2.996   9.440   5.717  0.3674 -0.2080 -0.6611
  707MOL0     C97492   3.010   9.451   5.571  0.2542  0.3552  0.3349
  707MOL0     C97493   3.045   9.462   5.454 -0.6154 -0.0713  1.1875
  707MOL0     C97494   2.343   9.618   5.616  0.6670 -0.5651  0.2233
  707MOL0     C97495   2.211   9.565   5.624  0.7062  0.3279  0.0182
  707MOL0     C97496   2.099   9.669   5.623 -0.6249  0.4600  0.1548
  707MOL0     H97497   1.840   9.381   5.414 -1.4115 -0.0821  0.4248
  707MOL0     H97498   1.602   9.282   5.403  2.6459  4.2663  1.4959
  707MOL0     H97499   1.519   8.899   5.607  0.5685  1.3037 -0.2265
  707MOL0     H97500   1.573   8.866   5.441 -0.1885 -1.6276  0.7969
  707MOL0     H97501   1.332   8.922   5.373  0.7046  0.5048 -0.3563
  707MOL0     H97502   1.333   8.780   5.473  1.2066  0.2719 -2.0337
  707MOL0     H97503   1.284   8.933   5.678  0.8682  3.1373 -0.0697
  707MOL0     H97504   1.228   9.047   5.555  1.9379 -0.2862 -0.9222
  707MOL0     H97505   1.082   8.882   5.449 -2.4569 -0.6196  0.9547
  707MOL0     H97506   1.125   8.765   5.581 -0.7137 -0.7751 -1.3785
  707MOL0     H97507   1.019   9.044   5.611  1.8099  0.2262  0.8404
  707MOL0     H97508   1.045   8.938   5.745  0.2927  2.3975 -0.1022
  707MOL0     H97509   0.867   8.787   5.680  0.8388  0.9775  0.2692
  707MOL0     H97510   0.798   8.945   5.673  1.8283 -0.0988  1.5074
  707MOL0     H97511   0.707   8.832   5.493  0.3634 -0.6297  0.4420
  707MOL0     H97512   0.866   8.773   5.438  1.9282  1.3664 -1.0498
  707MOL0     H97513   0.720   9.026   5.391 -0.3513  0.3889  0.7126
  707MOL0     H97514   0.885   9.056   5.439  3.7060 -2.2904 -2.5545
  707MOL0     H97515   1.039   9.070   5.222 -2.2691  0.4141  1.2715
  707MOL0     H97516   1.120   9.039   4.995  0.8198  0.7863  0.6517
  707MOL0     H97517   1.035   8.931   4.879 -2.4034 -0.3492  1.2405
  707MOL0     H97518   1.257   8.851   5.077  3.4345  1.0100 -3.1133
  707MOL0     H97519   1.123   8.743   5.035 -0.1374 -0.3359 -0.9779
  707MOL0     H97520   1.189   8.729   4.809  0.5439  0.6188 -0.6382
  707MOL0     H97521   1.275   8.883   4.829 -1.7894 -0.1499 -1.0757
  707MOL0     H97522   1.454   8.738   4.973  0.7584  0.5160 -1.7560
  707MOL0     H97523   1.363   8.600   4.927  2.9361 -1.1852  0.3804
  707MOL0     H97524   1.555   8.510   4.946 -0.0562  0.7456  0.4240
  707MOL0     H97525   1.628   8.327   5.004 -1.0767 -1.0738 -1.9517
  707MOL0     H97526   1.810   8.382   5.037 -1.2892  2.9666 -0.5255
  707MOL0     H97527   1.759   8.240   4.947 -1.6554 -0.6822 -0.0831
  707MOL0     H97528   2.254   8.417   4.764 -1.6543  0.9768 -2.4664
  707MOL0     H97529   2.458   8.270   4.730  0.7258 -1.1260 -0.1558
  707MOL0     H97530   2.436   7.857   4.578  1.0997  0.4835  1.0110
  707MOL0     H97531   2.430   7.934   4.416  0.7779 -1.4984 -0.3513
  707MOL0     H97532   2.624   7.777   4.451  0.0378  0.6794 -1.7308
  707MOL0     H97533   2.670   7.953   4.418 -1.4530  2.1959  1.2855
  707MOL0     H97534   2.652   7.835   4.697  5.2186 -0.3261  3.0676
  707MOL0     H97535   2.697   7.995   4.656 -0.7005 -0.2587 -0.5328
  707MOL0     H97536   2.901   7.872   4.705  2.3065 -2.0252  0.1771
  707MOL0     H97537   2.912   7.907   4.536 -0.9466  0.1740 -1.2143
  707MOL0     H97538   2.851   7.639   4.664 -1.5462  2.4192  1.1587
  707MOL0     H97539   2.838   7.673   4.492 -1.1152 -0.9368  0.9599
  707MOL0     H97540   3.091   7.730   4.639  0.5587  0.0409  0.2890
  707MOL0     H97541   3.064   7.748   4.468 -1.3317 -0.0206 -0.8382
  707MOL0     H97542   3.183   7.549   4.486  0.5285  4.4573  3.6670
  707MOL0     H97543   3.023   7.522   4.413 -0.9737 -1.7851  0.5183
  707MOL0     H97544   3.083   7.339   4.569 -2.7676  0.4679 -2.1996
  707MOL0     H97545   2.931   7.429   4.607 -0.8935  1.0309 -1.3214
  707MOL0     H97546   2.223   8.037   4.455  0.5211  0.0839  0.3798
  707MOL0     H97547   2.045   8.191   4.492 -1.3990  0.6291  1.4267
  707MOL0     H97548   1.846   8.578   4.568 -0.3443 -0.1654  0.0434
  707MOL0     H97549   1.639   8.714   4.566 -4.1310  2.0469  1.6847
  707MOL0     H97550   1.749   8.928   5.585  0.6744 -1.0649 -3.8794
  707MOL0     H97551   1.962   9.013   5.592 -1.0396 -0.4629  0.2198
  707MOL0     H97552   2.300   9.235   5.585  2.4052  0.0476 -2.9373
  707MOL0     H97553   2.518   9.331   5.604  1.3092  1.0129  0.4263
  707MOL0     H97554   2.615   9.720   5.760 -1.8482 -0.1093 -0.2791
  707MOL0     H97555   2.597   9.547   5.814 -0.3506  0.0667 -0.5800
  707MOL0     H97556   2.842   9.651   5.832 -0.3105 -1.1540  0.7494
  707MOL0     H97557   2.829   9.638   5.654  0.8068 -3.3961 -0.7266
  707MOL0     H97558   2.827   9.424   5.863  3.8741  2.0667  1.3021
  707MOL0     H97559   2.797   9.397   5.689  0.4534  0.6061 -2.2488
  707MOL0     H97560   3.031   9.342   5.750  1.4066  0.3839  0.0580
  707MOL0     H97561   3.054   9.520   5.764  1.1241  0.7309 -3.0022
  707MOL0     H97562   3.076   9.475   5.352  1.3411 -2.6555  1.3487
  707MOL0     H97563   2.359   9.724   5.629  2.0835 -0.9364  1.8831
  707MOL0     H97564   2.044   9.678   5.529  0.4558  1.9847 -0.3609
  707MOL0     H97565   2.036   9.661   5.712 -1.3278  2.0593 -0.1582
  707MOL0     H97566   2.153   9.764   5.625 -0.3944  0.4519 -2.2355
  708MOL0     O97567   2.233   0.859  10.092 -0.1946  0.4031  0.0527
  708MOL0     C97568   2.224   0.826  10.211  0.7656 -0.3164  0.6196
  708MOL0     O97569   2.327   0.771  10.288  0.2831  0.4513  0.6905
  708MOL0     C97570   2.446   0.728  10.234  0.2501  0.1633  0.1103
  708MOL0     C97571   2.509   0.780  10.119 -0.0720 -0.4381 -0.3697
  708MOL0     C97572   2.630   0.719  10.075  0.2147 -0.0127  0.2448
  708MOL0     C97573   2.697   0.611  10.141 -0.3648 -0.1265 -0.0725
  708MOL0     O97574   2.817   0.559  10.106 -0.0514 -1.0244  1.0094
  708MOL0     C97575   2.866   0.574   9.965 -0.6365 -0.5350 -0.0230
  708MOL0     C97576   2.974   0.677   9.971 -0.4018 -1.3412 -0.7025
  708MOL0     C97577   3.045   0.703   9.837  0.3340 -1.0336  0.8377
  708MOL0     C97578   3.112   0.843   9.816  0.0708  0.0908  0.1659
  708MOL0     C97579   3.240   0.864   9.899  0.7311 -0.3239 -1.0055
  708MOL0     C97580   3.360   0.781   9.838  0.7368  0.3966 -0.1836
  708MOL0     C97581   3.488   0.862   9.881  0.6923  0.9850 -0.1287
  708MOL0     C97582   3.619   0.828   9.803  0.7839  0.2754  0.4438
  708MOL0     N97583   3.719   0.929   9.795 -0.0455 -0.0626 -0.3380
  708MOL0     C97584   3.815   0.947   9.892  0.7350 -0.4280 -0.3170
  708MOL0     C97585   3.891   1.052   9.851 -0.2595 -0.1900  0.1725
  708MOL0     C97586   3.994   1.127   9.933 -0.1433 -0.3110 -0.5600
  708MOL0     C97587   4.140   1.076   9.936  0.3029  0.1971  0.1825
  708MOL0     C97588   4.217   1.143  10.050 -0.1853  0.3415  0.6343
  708MOL0     C97589   4.369   1.158  10.021 -1.0219  0.2936 -0.5299
  708MOL0     O97590   4.441   1.222  10.128 -0.0484  0.0153  0.3505
  708MOL0     C97591   4.581   1.226  10.121 -1.0288  0.5228  0.0658
  708MOL0     C97592   4.664   1.275  10.227 -0.1914 -0.6556 -0.3416
  708MOL0     C97593   4.804   1.251  10.229 -0.9569  0.1105 -0.4993
  708MOL0     C97594   4.873   1.302  10.359  0.0470 -0.0077  0.1078
  708MOL0     C97595   4.873   1.181  10.131 -0.2168 -0.4756  0.9240
  708MOL0     C97596   5.014   1.136  10.137 -0.2941  0.5129 -0.9500
  708MOL0     O97597   5.082   1.149  10.014  1.0154  0.4407 -0.2036
  708MOL0     C97598   5.220   1.160  10.017  0.1730  0.0429 -0.8813
  708MOL0     C97599   5.292   1.111   9.905 -0.3222 -0.1076  0.4868
  708MOL0     C97600   5.429   1.129   9.906 -0.7064  0.5356 -0.6418
  708MOL0     C97601   5.501   1.199  10.007 -0.2393  0.3565 -0.1154
  708MOL0     O97602   5.638   1.220  10.016 -0.4144 -0.2268  0.4843
  708MOL0     C97603   5.720   1.140   9.928  0.0945 -0.3378 -0.1591
  708MOL0     C97604   5.867   1.155   9.961  0.3229 -0.0975  0.9500
  708MOL0     C97605   5.914   1.303   9.934 -1.1428  0.2911  0.8028
  708MOL0     C97606   6.058   1.314   9.978 -0.0445 -0.4899 -0.4372
  708MOL0     C97607   6.117   1.428   9.891  0.4914  0.3767  0.6931
  708MOL0     C97608   6.269   1.446   9.923  0.6873  0.2324 -0.0588
  708MOL0     C97609   6.284   1.517  10.058 -0.0940  0.1404 -0.1426
  708MOL0     C97610   6.429   1.564  10.073 -0.0690 -0.2092 -0.2096
  708MOL0    Cl97611   6.447   1.675  10.210  0.5113 -0.3593 -0.2632
  708MOL0     C97612   5.421   1.248  10.110 -0.2264 -0.1048 -0.6640
  708MOL0     C97613   5.287   1.239  10.108  0.1972  0.0715  0.4603
  708MOL0     O97614   5.068   1.119  10.246 -0.0302  0.3275 -0.9444
  708MOL0     C97615   4.798   1.153  10.017 -0.6761 -0.4166 -0.0385
  708MOL0     C97616   4.655   1.170  10.014  0.2313  0.8225 -0.4166
  708MOL0     N97617   3.836   1.096   9.731 -0.8406 -0.5079  0.1967
  708MOL0     N97618   3.734   1.022   9.695 -0.4300 -0.1688 -0.0314
  708MOL0     C97619   2.638   0.568  10.259  0.5278  0.0564  0.8335
  708MOL0     C97620   2.515   0.621  10.303 -0.3881  0.5867 -0.0980
  708MOL0     C97621   2.095   0.835  10.282  0.7931  0.1826  0.1107
  708MOL0     C97622   2.082   0.900  10.402  0.8213  1.0926  1.1940
  708MOL0     C97623   1.961   0.902  10.469  0.7693 -0.1911  0.2403
  708MOL0     C97624   1.849   0.845  10.409  0.0160  0.1473 -0.1104
  708MOL0     O97625   1.728   0.853  10.476 -0.2269  0.3270  0.3125
  708MOL0     C97626   1.599   0.856  10.406 -0.0214  0.5778 -0.9938
  708MOL0     C97627   1.497   0.921  10.495  0.4258 -0.9638  0.0792
  708MOL0     C97628   1.441   0.822  10.594  0.9439 -0.7672 -0.4155
  708MOL0     C97629   1.366   0.889  10.713 -0.2882  0.3385 -0.5276
  708MOL0     C97630   1.235   0.925  10.676  1.2748  0.1416  0.0702
  708MOL0     C97631   1.119   0.946  10.635 -0.3757 -0.7146 -0.9220
  708MOL0     C97632   1.864   0.769  10.291 -0.3405  0.7916  0.3260
  708MOL0     C97633   1.982   0.772  10.219  0.1959 -0.1500  0.1794
  708MOL0     C97634   1.976   0.688  10.090  0.0116 -0.2886  0.5364
  708MOL0     H97635   2.467   0.861  10.061 -0.8718 -1.0780 -0.7109
  708MOL0     H97636   2.688   0.763   9.994 -0.8250  3.9187  1.4477
  708MOL0     H97637   2.789   0.601   9.892 -0.4324 -1.2868 -0.5273
  708MOL0     H97638   2.904   0.478   9.931 -0.3319 -1.2790  2.3256
  708MOL0     H97639   2.927   0.771  10.003 -0.7881 -0.4890 -3.5275
  708MOL0     H97640   3.037   0.647  10.056 -0.2261  0.1781 -0.2585
  708MOL0     H97641   3.118   0.623   9.820 -0.8005 -2.4016  2.2200
  708MOL0     H97642   2.979   0.708   9.750  1.9164  0.6409 -0.3667
  708MOL0     H97643   3.125   0.842   9.707 -1.1463 -0.5302  0.0107
  708MOL0     H97644   3.043   0.924   9.837  0.7304  0.5661  0.5319
  708MOL0     H97645   3.228   0.824  10.001  5.2033  0.9363  0.2479
  708MOL0     H97646   3.264   0.970   9.896  0.7680 -0.2788  0.2574
  708MOL0     H97647   3.363   0.676   9.867  0.9054  0.3305 -0.4365
  708MOL0     H97648   3.341   0.780   9.730 -1.8453 -2.0247  0.2034
  708MOL0     H97649   3.508   0.840   9.987 -2.1463 -0.7157  0.1783
  708MOL0     H97650   3.475   0.967   9.857 -1.5821  0.4406 -1.6044
  708MOL0     H97651   3.662   0.733   9.835  1.1113 -0.0621 -0.9594
  708MOL0     H97652   3.585   0.803   9.703 -0.9691 -0.9997  1.2981
  708MOL0     H97653   3.829   0.893   9.986  2.0400  1.2061  0.4916
  708MOL0     H97654   3.955   1.130  10.035  0.4596 -0.2831 -0.3229
  708MOL0     H97655   3.989   1.231   9.900  2.5052  0.7597  1.9563
  708MOL0     H97656   4.147   0.966   9.941 -1.6007  0.1040  2.4448
  708MOL0     H97657   4.182   1.099   9.838  0.6333  1.1679  0.5414
  708MOL0     H97658   4.183   1.242  10.081 -0.3182  0.2315  0.8484
  708MOL0     H97659   4.203   1.084  10.142 -1.3169 -0.6066 -0.1092
  708MOL0     H97660   4.404   1.055  10.020 -1.8718 -0.0034 -0.4045
  708MOL0     H97661   4.391   1.209   9.927  1.3409  0.5954  0.1252
  708MOL0     H97662   4.614   1.325  10.309  0.9566  1.5568 -0.8995
  708MOL0     H97663   4.954   1.368  10.327 -1.5763  0.9806 -2.1892
  708MOL0     H97664   4.907   1.226  10.431 -2.7057 -1.5727 -0.1266
  708MOL0     H97665   4.799   1.364  10.409 -2.1218 -0.5572 -2.1961
  708MOL0     H97666   5.241   1.057   9.826 -0.9601 -0.4714  1.1378
  708MOL0     H97667   5.476   1.089   9.817  1.5028  2.6948 -0.5464
  708MOL0     H97668   5.707   1.034   9.952  2.3433 -0.5621  0.2136
  708MOL0     H97669   5.705   1.160   9.821 -3.7218  0.4430  0.3843
  708MOL0     H97670   5.881   1.140  10.069  1.4471 -0.1554  0.8099
  708MOL0     H97671   5.926   1.074   9.918  1.4736  1.7486 -1.1571
  708MOL0     H97672   5.853   1.375   9.988  0.4240  1.5660  0.9330
  708MOL0     H97673   5.904   1.331   9.829  1.0374  0.6238  0.6476
  708MOL0     H97674   6.113   1.221   9.961 -2.8491 -2.9151  2.5392
  708MOL0     H97675   6.061   1.338  10.084 -0.0808 -1.9575 -0.0824
  708MOL0     H97676   6.091   1.397   9.790 -0.9553  0.8981  0.8957
  708MOL0     H97677   6.075   1.528   9.903 -0.0237  0.2021  0.3888
  708MOL0     H97678   6.306   1.513   9.845  3.1756 -1.4183 -0.3821
  708MOL0     H97679   6.329   1.355   9.929 -1.9429 -1.5556  3.2434
  708MOL0     H97680   6.249   1.453  10.140 -0.9099  1.8749  0.9349
  708MOL0     H97681   6.219   1.604  10.070 -0.2259 -0.2048  2.2663
  708MOL0     H97682   6.452   1.613   9.978 -0.1609 -1.2579 -0.7792
  708MOL0     H97683   6.488   1.473  10.087 -1.8549 -1.3306  0.3847
  708MOL0     H97684   5.472   1.302  10.190  0.6830  0.5487 -1.6540
  708MOL0     H97685   5.232   1.290  10.186 -0.9487 -1.2567  0.5436
  708MOL0     H97686   4.847   1.110   9.931 -0.2175 -0.0482  0.0347
  708MOL0     H97687   4.610   1.134   9.922  0.9108 -0.2109 -0.3659
  708MOL0     H97688   2.668   0.486  10.325 -2.3150  0.1432  2.3794
  708MOL0     H97689   2.470   0.591  10.397  0.2212 -0.1321 -0.0264
  708MOL0     H97690   2.164   0.964  10.433  0.2229  2.7382 -0.4352
  708MOL0     H97691   1.950   0.946  10.567  0.6273 -0.8514  0.5203
  708MOL0     H97692   1.604   0.905  10.308  0.7207  2.3043 -0.1471
  708MOL0     H97693   1.574   0.752  10.383  0.4669 -0.1604  1.5346
  708MOL0     H97694   1.423   0.962  10.426  0.6409  0.1713  0.4866
  708MOL0     H97695   1.547   1.007  10.541  0.7366  0.4697 -2.7090
  708MOL0     H97696   1.374   0.752  10.543  2.2210 -1.2152 -1.5533
  708MOL0     H97697   1.524   0.776  10.649  0.8448  0.6696  0.9957
  708MOL0     H97698   1.420   0.979  10.745 -0.6603  0.2999  0.2430
  708MOL0     H97699   1.360   0.820  10.798 -0.5231  3.8778  2.6026
  708MOL0     H97700   1.017   0.965  10.612 -1.0214  0.6594  2.4607
  708MOL0     H97701   1.780   0.706  10.263  1.1847 -1.1950  0.0476
  708MOL0     H97702   2.050   0.608  10.097 -0.9921 -1.3445 -0.5278
  708MOL0     H97703   1.879   0.640  10.071  0.8572 -2.2358  0.9078
  708MOL0     H97704   1.996   0.754  10.005 -1.4053  4.1880  3.3389
  709MOL0     O97705   8.100   8.333   8.425 -0.2331  0.2335 -0.1391
  709MOL0     C97706   8.063   8.422   8.347 -0.2119 -0.3986  0.2736
  709MOL0     O97707   8.128   8.539   8.328  0.0367 -0.0097  0.0304
  709MOL0     C97708   8.264   8.547   8.351  0.4212  0.4569  0.8352
  709MOL0     C97709   8.355   8.479   8.272  0.2552 -0.2856  0.1064
  709MOL0     C97710   8.487   8.521   8.270 -1.0904  0.7791  0.2706
  709MOL0     C97711   8.535   8.627   8.350 -0.7040 -0.0032  0.3540
  709MOL0     O97712   8.664   8.661   8.330 -0.6846 -0.3464 -0.3766
  709MOL0     C97713   8.711   8.790   8.379 -0.3642  0.6250  0.1120
  709MOL0     C97714   8.861   8.799   8.328  0.3166 -0.4042  0.2359
  709MOL0     C97715   8.922   8.932   8.312 -0.0280  0.1871  0.0554
  709MOL0     C97716   8.911   9.034   8.430  0.4179  0.6817  0.2048
  709MOL0     C97717   9.018   9.009   8.537  0.5714  0.3949  0.2541
  709MOL0     C97718   9.020   9.108   8.653  0.1841 -0.2213  0.0231
  709MOL0     C97719   9.021   9.259   8.620  0.6453  0.2965  0.0753
  709MOL0     C97720   9.037   9.348   8.753  0.2940 -0.3629 -0.1697
  709MOL0     N97721   9.178   9.385   8.770 -0.3061 -0.2607 -0.2431
  709MOL0     C97722   9.224   9.520   8.778  0.4380  0.8600  0.3703
  709MOL0     C97723   9.359   9.506   8.802 -0.6210  0.2070  0.3404
  709MOL0     C97724   9.450   9.630   8.810 -0.8013 -0.8404 -0.4753
  709MOL0     C97725   9.578   9.585   8.878 -0.9714 -0.3204  0.6676
  709MOL0     C97726   9.678   9.700   8.866 -0.1325 -0.6653 -0.0146
  709MOL0     C97727   9.828   9.654   8.887 -0.0787  0.1718  0.2508
  709MOL0     O97728   9.848   9.614   9.019  0.6542 -0.0188 -0.1825
  709MOL0     C97729   9.974   9.624   9.069  0.8223 -0.0487  0.6595
  709MOL0     C97730  10.092   9.631   8.982  0.5090  0.2210 -0.5499
  709MOL0     C97731  10.220   9.646   9.030  0.1669 -0.2955  0.2500
  709MOL0     C97732  10.347   9.631   8.946 -0.6746  0.0317 -0.3585
  709MOL0     C97733  10.229   9.659   9.171  0.2848 -0.8847  0.5273
  709MOL0     C97734  10.355   9.693   9.240  0.0627 -0.1224  0.3708
  709MOL0     O97735  10.383   9.648   9.363 -0.2376  0.2408  0.0640
  709MOL0     C97736  10.489   9.706   9.426  0.5409  0.1265  0.0413
  709MOL0     C97737  10.469   9.801   9.530 -0.0124  0.2799 -0.7502
  709MOL0     C97738  10.579   9.858   9.599  0.9032 -0.5054  0.0646
  709MOL0     C97739  10.709   9.837   9.544 -0.0366 -0.7320  0.0902
  709MOL0     O97740  10.819   9.905   9.585  0.4938  0.0800  0.3057
  709MOL0     C97741  10.811   9.990   9.703 -0.2995  0.1883  0.2278
  709MOL0     C97742  10.753  10.129   9.673 -0.8627 -0.0272  0.8854
  709MOL0     C97743  10.835  10.192   9.555 -0.6622 -0.4089 -0.5685
  709MOL0     C97744  10.755  10.196   9.418 -0.2860  0.5793  0.3147
  709MOL0     C97745  10.846  10.248   9.293 -0.2197  0.5975 -1.1836
  709MOL0     C97746  10.770  10.235   9.171  0.8227 -0.8425  0.4255
  709MOL0     C97747  10.837  10.296   9.046 -0.3230 -0.0425  0.0714
  709MOL0     C97748  10.773  10.275   8.912 -0.3848  0.0381 -0.2505
  709MOL0    Cl97749  10.612  10.353   8.932 -0.5369  0.1073 -0.4427
  709MOL0     C97750  10.715   9.752   9.434 -0.0134  0.4214  0.6812
  709MOL0     C97751  10.613   9.683   9.376  0.2364 -0.0999  0.7117
  709MOL0     O97752  10.424   9.774   9.174 -0.0424  0.8277 -0.3602
  709MOL0     C97753  10.117   9.645   9.254 -0.7385  0.1312  0.0460
  709MOL0     C97754   9.991   9.631   9.207 -0.8877  0.2084  0.1851
  709MOL0     N97755   9.379   9.369   8.839  0.1621  0.9199  0.5125
  709MOL0     N97756   9.276   9.303   8.814  0.1962 -1.1815 -0.2576
  709MOL0     C97757   8.443   8.705   8.423  0.0616 -1.1272  0.6069
  709MOL0     C97758   8.311   8.664   8.424 -0.1349 -0.8247  0.5227
  709MOL0     C97759   7.951   8.400   8.260 -0.9186 -0.2924  0.2486
  709MOL0     C97760   7.928   8.492   8.155  0.1394  0.2635 -0.1188
  709MOL0     C97761   7.815   8.484   8.076  1.0196  0.3235 -0.2271
  709MOL0     C97762   7.712   8.391   8.106  0.3640 -0.5830  0.3440
  709MOL0     O97763   7.595   8.391   8.037 -0.9921  0.1701  0.3410
  709MOL0     C97764   7.615   8.408   7.891  0.7558  0.1543  0.0674
  709MOL0     C97765   7.498   8.355   7.813  0.0270 -0.3780 -0.5237
  709MOL0     C97766   7.383   8.463   7.810 -0.8740 -0.2428 -0.2122
  709MOL0     C97767   7.276   8.401   7.730  0.4223  0.1700  0.6360
  709MOL0     C97768   7.152   8.478   7.737  0.6521 -0.3180  0.8504
  709MOL0     C97769   7.035   8.535   7.735 -0.2290 -0.0001 -0.8968
  709MOL0     C97770   7.732   8.308   8.213 -0.4745 -0.3185 -0.5733
  709MOL0     C97771   7.851   8.308   8.291  0.0559  0.2216  0.8000
  709MOL0     C97772   7.851   8.192   8.392  0.0533 -0.1446  0.1509
  709MOL0     H97773   8.331   8.404   8.197  0.6711  2.1423 -2.6272
  709MOL0     H97774   8.563   8.479   8.204 -1.5034  1.2403 -0.5069
  709MOL0     H97775   8.704   8.794   8.488  1.5821 -1.0341  0.3529
  709MOL0     H97776   8.642   8.866   8.340 -1.6754  0.1661  1.4252
  709MOL0     H97777   8.919   8.736   8.396  0.2828  0.1217  0.7589
  709MOL0     H97778   8.876   8.739   8.237  0.0704 -1.5468  0.9357
  709MOL0     H97779   9.024   8.901   8.286 -0.7632 -0.8643 -1.7813
  709MOL0     H97780   8.888   8.963   8.213  2.1330 -0.0473 -0.8205
  709MOL0     H97781   8.932   9.131   8.383 -0.3849 -0.5125 -2.8708
  709MOL0     H97782   8.815   9.026   8.481  0.6491 -0.5713  0.4838
  709MOL0     H97783   9.118   9.009   8.493  1.3152  2.1860  1.7801
  709MOL0     H97784   9.003   8.908   8.576 -0.9022  0.5358  0.0980
  709MOL0     H97785   8.931   9.086   8.713 -1.4907  1.7083 -1.6127
  709MOL0     H97786   9.110   9.084   8.711  1.0571  2.6985  0.0011
  709MOL0     H97787   8.926   9.291   8.577  1.6445  0.9685 -1.7283
  709MOL0     H97788   9.091   9.283   8.540  0.0088  1.3304 -0.2030
  709MOL0     H97789   8.977   9.439   8.750  1.4683  0.4952  1.0573
  709MOL0     H97790   9.003   9.288   8.838 -1.6892 -1.0280 -1.3740
  709MOL0     H97791   9.169   9.611   8.755 -0.2159  1.1540  2.8428
  709MOL0     H97792   9.413   9.708   8.877  1.7444 -0.1476  0.2707
  709MOL0     H97793   9.469   9.662   8.707 -1.7009  0.5872 -0.2278
  709MOL0     H97794   9.556   9.556   8.980 -0.8619  1.0840  1.1169
  709MOL0     H97795   9.618   9.495   8.831 -0.3194 -0.6908  1.8966
  709MOL0     H97796   9.664   9.741   8.765 -2.4415  1.1798  0.9691
  709MOL0     H97797   9.640   9.782   8.927  1.2440  0.8863 -1.1456
  709MOL0     H97798   9.844   9.571   8.818 -1.7719 -0.6852  0.8510
  709MOL0     H97799   9.905   9.730   8.870  1.7815 -1.0526  2.5633
  709MOL0     H97800  10.073   9.612   8.877 -2.4248 -2.2617  0.2608
  709MOL0     H97801  10.319   9.605   8.843 -0.4277 -3.7869  0.3690
  709MOL0     H97802  10.412   9.550   8.980  0.2827 -0.6715 -3.4663
  709MOL0     H97803  10.404   9.724   8.945  1.2338 -1.0691  0.5910
  709MOL0     H97804  10.371   9.818   9.574 -0.4592  0.1294 -1.6493
  709MOL0     H97805  10.554   9.933   9.673  0.5929 -1.2982  0.7784
  709MOL0     H97806  10.762   9.939   9.786  0.8723 -5.4813 -2.0713
  709MOL0     H97807  10.916   9.999   9.735 -0.3515 -1.6398  1.0510
  709MOL0     H97808  10.647  10.126   9.648 -0.6220 -0.6167 -0.0747
  709MOL0     H97809  10.762  10.199   9.758 -0.0177 -1.0380  1.6598
  709MOL0     H97810  10.930  10.143   9.531  0.2198  1.1938 -0.4753
  709MOL0     H97811  10.879  10.287   9.586  0.9693 -1.9114  2.2053
  709MOL0     H97812  10.669  10.263   9.426 -0.2209  0.7659 -0.4748
  709MOL0     H97813  10.718  10.095   9.395  3.4958 -0.8203 -0.3931
  709MOL0     H97814  10.875  10.353   9.305  0.2725  0.5007 -1.4815
  709MOL0     H97815  10.941  10.193   9.290  0.6947  1.9222  1.0101
  709MOL0     H97816  10.677  10.293   9.171 -0.0755 -2.1971 -0.8918
  709MOL0     H97817  10.740  10.133   9.145  1.5002 -0.1398 -3.9810
  709MOL0     H97818  10.936  10.252   9.028 -0.8685 -0.6455 -1.6263
  709MOL0     H97819  10.853  10.403   9.064 -0.3316 -0.3710  2.3184
  709MOL0     H97820  10.769  10.167   8.894 -2.1701 -0.1580  1.0737
  709MOL0     H97821  10.826  10.327   8.832 -1.4700  1.4543 -0.0757
  709MOL0     H97822  10.816   9.740   9.395 -1.4809 -0.5320 -3.3450
  709MOL0     H97823  10.638   9.630   9.285  1.1512  1.1598  0.1907
  709MOL0     H97824  10.137   9.643   9.360 -0.5894  0.4812  0.0271
  709MOL0     H97825   9.908   9.625   9.276 -1.5384  2.3913 -0.3425
  709MOL0     H97826   8.477   8.795   8.472 -1.9410  1.9115 -3.0242
  709MOL0     H97827   8.236   8.733   8.462 -2.2853 -1.8292 -1.6197
  709MOL0     H97828   7.996   8.574   8.135  1.7254 -0.2937  2.4208
  709MOL0     H97829   7.809   8.561   8.000  3.1262  3.4113  2.4199
  709MOL0     H97830   7.638   8.512   7.866 -0.0938  0.5283  0.7810
  709MOL0     H97831   7.698   8.347   7.854  0.8530  0.7082 -0.6568
  709MOL0     H97832   7.463   8.260   7.854 -0.1783  0.5942  1.6747
  709MOL0     H97833   7.537   8.328   7.714  2.0508  0.6200 -0.0405
  709MOL0     H97834   7.338   8.463   7.910 -3.3013 -2.0742 -1.1868
  709MOL0     H97835   7.410   8.559   7.765 -1.7380  0.8475  1.4730
  709MOL0     H97836   7.247   8.300   7.762 -0.2668  0.3878  0.7044
  709MOL0     H97837   7.316   8.394   7.629 -1.3749 -0.8205 -0.0467
  709MOL0     H97838   6.933   8.568   7.741  0.6594  2.7114  1.2532
  709MOL0     H97839   7.648   8.243   8.238 -0.0083 -0.4061  0.8598
  709MOL0     H97840   7.826   8.238   8.488  0.8479  3.2237 -1.1143
  709MOL0     H97841   7.782   8.110   8.373 -0.3907  0.0453  0.8761
  709MOL0     H97842   7.951   8.149   8.401 -0.0192 -0.8555 -1.9045
  710MOL0     O97843   5.135   4.482   0.443 -0.2898 -0.5544 -0.0545
  710MOL0     C97844   5.078   4.377   0.416  0.0170 -0.0951 -0.3514
  710MOL0     O97845   5.133   4.251   0.394  0.2869 -0.6321  0.0935
  710MOL0     C97846   5.269   4.234   0.415 -0.4090  0.2007  0.9387
  710MOL0     C97847   5.369   4.258   0.321  0.7469 -0.1267  0.3389
  710MOL0     C97848   5.504   4.250   0.353 -0.4171  0.4025 -0.1133
  710MOL0     C97849   5.544   4.228   0.485  0.4784  0.3405  0.1379
  710MOL0     O97850   5.675   4.235   0.513  0.2324  0.8422 -0.3358
  710MOL0     C97851   5.714   4.321   0.616  0.0449  0.0466  0.0901
  710MOL0     C97852   5.803   4.230   0.700 -0.0783 -0.6305 -0.4796
  710MOL0     C97853   5.941   4.201   0.630  0.0248 -0.0003 -0.7488
  710MOL0     C97854   6.009   4.087   0.701 -0.3573  0.0058 -0.6989
  710MOL0     C97855   6.048   3.973   0.602 -0.1434 -0.8167 -0.4217
  710MOL0     C97856   6.123   3.859   0.671 -0.2023 -0.2745 -0.0941
  710MOL0     C97857   6.154   3.746   0.580 -0.0810 -0.2506  0.3728
  710MOL0     C97858   6.296   3.736   0.522 -0.3185  1.1287  0.9067
  710MOL0     N97859   6.334   3.850   0.456 -0.6281  0.1074  1.0149
  710MOL0     C97860   6.315   3.878   0.317 -0.5129  1.0569 -0.1854
  710MOL0     C97861   6.356   4.007   0.298 -1.2446 -0.0918 -0.6704
  710MOL0     C97862   6.375   4.065   0.167  0.8631 -0.7862 -0.1940
  710MOL0     C97863   6.514   4.043   0.113 -0.0635 -0.1313  0.8164
  710MOL0     C97864   6.534   3.908   0.052  0.7692 -0.4017 -0.9303
  710MOL0     C97865   6.674   3.889  -0.014 -0.8736  0.4742  0.0955
  710MOL0     O97866   6.781   3.930   0.080 -0.1076  0.0258 -1.3767
  710MOL0     C97867   6.907   3.885   0.057  0.0891  0.3099  0.9593
  710MOL0     C97868   7.002   3.927   0.136 -0.9280  0.2087 -0.5151
  710MOL0     C97869   7.141   3.917   0.114 -0.1636  0.5080  0.5641
  710MOL0     C97870   7.241   4.000   0.199  0.1622 -0.3520  0.1238
  710MOL0     C97871   7.180   3.826   0.013  0.1790  0.3783  0.0675
  710MOL0     C97872   7.318   3.804  -0.040 -0.1936 -0.3436  0.4063
  710MOL0     O97873   7.329   3.743  -0.164  0.5113 -0.3630  0.0069
  710MOL0     C97874   7.441   3.657  -0.185  0.5683  0.2527 -0.3114
  710MOL0     C97875   7.457   3.530  -0.131  0.4857 -0.6886 -0.6594
  710MOL0     C97876   7.565   3.449  -0.165 -0.0407  0.0855  0.1756
  710MOL0     C97877   7.663   3.485  -0.255  0.1749  0.3860  0.2528
  710MOL0     O97878   7.776   3.418  -0.294 -0.4204  1.1166 -0.4232
  710MOL0     C97879   7.756   3.279  -0.320  0.5066 -0.0854  0.3285
  710MOL0     C97880   7.885   3.220  -0.383 -0.8356 -0.0929  0.9295
  710MOL0     C97881   7.903   3.294  -0.523 -0.1035 -0.0415  0.0033
  710MOL0     C97882   8.051   3.271  -0.583  0.5306  0.0216  0.0950
  710MOL0     C97883   8.062   3.365  -0.700 -0.8066 -0.3782  0.7955
  710MOL0     C97884   8.196   3.372  -0.776  0.8683 -0.3282 -0.2232
  710MOL0     C97885   8.197   3.488  -0.880  0.6690 -0.0652 -0.5168
  710MOL0     C97886   8.310   3.473  -0.985 -0.2113 -0.0998  0.5317
  710MOL0    Cl97887   8.471   3.481  -0.920 -0.5444  0.0681  0.1772
  710MOL0     C97888   7.639   3.615  -0.314 -0.2828  0.1700 -1.2982
  710MOL0     C97889   7.533   3.702  -0.274 -1.3759 -0.3537  0.2872
  710MOL0     O97890   7.414   3.825   0.035  0.0321 -0.2689  0.3530
  710MOL0     C97891   7.074   3.769  -0.063 -0.8548  0.3184 -0.3203
  710MOL0     C97892   6.944   3.794  -0.041 -0.0701 -0.7578  0.2005
  710MOL0     N97893   6.404   4.058   0.415  0.9037  0.3024 -0.8280
  710MOL0     N97894   6.382   3.969   0.510 -0.4816 -0.2965  0.1545
  710MOL0     C97895   5.445   4.185   0.573 -0.6054 -0.1497 -0.1006
  710MOL0     C97896   5.309   4.185   0.539  0.5563  0.2038 -0.1296
  710MOL0     C97897   4.930   4.392   0.393  0.1389  0.9289  0.1216
  710MOL0     C97898   4.859   4.274   0.378 -0.5877 -0.2305 -0.0521
  710MOL0     C97899   4.722   4.273   0.350  0.1102  0.6792  0.9514
  710MOL0     C97900   4.643   4.386   0.340 -0.5655  0.2705  0.1429
  710MOL0     O97901   4.506   4.398   0.314  0.0634 -0.2331  1.2043
  710MOL0     C97902   4.416   4.291   0.329 -0.1080  0.6932  0.5371
  710MOL0     C97903   4.281   4.340   0.270  0.1531 -0.2753  0.4931
  710MOL0     C97904   4.178   4.226   0.279 -0.1412 -0.2745  0.8018
  710MOL0     C97905   4.043   4.257   0.230  0.1066  0.3958  0.5034
  710MOL0     C97906   3.963   4.353   0.313  0.4452  0.1375 -0.9305
  710MOL0     C97907   3.902   4.429   0.386  0.0153  0.1046 -0.3195
  710MOL0     C97908   4.711   4.504   0.360 -0.1179 -0.0071  0.0280
  710MOL0     C97909   4.853   4.511   0.375  0.5084  0.2548 -0.5842
  710MOL0     C97910   4.924   4.641   0.375 -0.6205  0.0346  0.3456
  710MOL0     H97911   5.349   4.288   0.219  1.8775 -1.4501 -0.3234
  710MOL0     H97912   5.585   4.263   0.282 -0.7252 -2.8155 -1.2413
  710MOL0     H97913   5.635   4.359   0.682  0.6841  2.0362 -0.2164
  710MOL0     H97914   5.766   4.408   0.574 -0.7432  1.3290  1.6626
  710MOL0     H97915   5.825   4.289   0.789 -0.6601  2.0697 -2.0301
  710MOL0     H97916   5.746   4.140   0.725 -0.9008  0.0624  0.1983
  710MOL0     H97917   5.928   4.179   0.523 -1.1298  3.2637 -1.3739
  710MOL0     H97918   6.009   4.286   0.632 -1.4959  1.2328  0.8509
  710MOL0     H97919   6.100   4.126   0.747 -2.2179  0.7324  2.6385
  710MOL0     H97920   5.943   4.044   0.776 -1.9188  2.3945 -0.6028
  710MOL0     H97921   6.106   4.014   0.518  1.2663 -0.8139  0.5365
  710MOL0     H97922   5.953   3.928   0.572 -1.4506 -1.0124  3.5394
  710MOL0     H97923   6.220   3.890   0.712 -0.5092 -0.6034  0.9247
  710MOL0     H97924   6.053   3.826   0.749  0.4026  0.4592  0.7857
  710MOL0     H97925   6.081   3.739   0.498 -2.7105  1.1844  2.4533
  710MOL0     H97926   6.131   3.654   0.635  0.3139 -0.6585 -0.1294
  710MOL0     H97927   6.364   3.712   0.605  0.4330 -1.5005 -0.3637
  710MOL0     H97928   6.291   3.649   0.456 -0.4331  0.4793  1.7568
  710MOL0     H97929   6.290   3.808   0.238  0.7041  0.6285 -0.2229
  710MOL0     H97930   6.358   4.173   0.177  0.9404 -0.4339 -3.0069
  710MOL0     H97931   6.305   4.025   0.093 -0.5535 -1.0670  1.2500
  710MOL0     H97932   6.530   4.125   0.042  3.0478 -0.7469  0.6577
  710MOL0     H97933   6.583   4.059   0.196  2.0020  2.0660 -1.1753
  710MOL0     H97934   6.534   3.841   0.138 -0.5379  0.3754 -0.3072
  710MOL0     H97935   6.448   3.879  -0.010  0.3513  1.1243 -1.1104
  710MOL0     H97936   6.685   3.786  -0.046  2.2048  0.5616  0.6158
  710MOL0     H97937   6.678   3.956  -0.101 -0.2243  1.3505  0.7853
  710MOL0     H97938   6.990   3.981   0.229 -0.4291 -0.0524 -0.2938
  710MOL0     H97939   7.332   3.943   0.222  0.9742  1.6325  2.3536
  710MOL0     H97940   7.199   4.028   0.296 -0.6193  0.9660 -0.5661
  710MOL0     H97941   7.251   4.094   0.144 -1.6943 -0.6311 -0.7488
  710MOL0     H97942   7.379   3.512  -0.058 -1.1339 -2.0974 -2.6193
  710MOL0     H97943   7.582   3.353  -0.118  0.1448 -0.2983 -0.6526
  710MOL0     H97944   7.722   3.221  -0.234  0.8322 -3.8614 -1.8338
  710MOL0     H97945   7.677   3.258  -0.393  0.8235 -0.7619  0.1710
  710MOL0     H97946   7.977   3.243  -0.327 -0.0820  0.4310 -0.4879
  710MOL0     H97947   7.869   3.112  -0.388  1.0901 -0.4624  1.7197
  710MOL0     H97948   7.876   3.400  -0.516  1.7225  0.4116  0.8816
  710MOL0     H97949   7.832   3.253  -0.595 -0.3081  0.0771  0.1352
  710MOL0     H97950   8.069   3.173  -0.630  3.8451  0.3627  0.4401
  710MOL0     H97951   8.124   3.280  -0.503 -1.4189 -1.9570  2.2552
  710MOL0     H97952   7.984   3.346  -0.774 -0.2025 -2.3307  0.6172
  710MOL0     H97953   8.044   3.464  -0.657 -0.1438 -0.8726  2.2897
  710MOL0     H97954   8.220   3.275  -0.821 -0.9379 -1.5201  1.2359
  710MOL0     H97955   8.270   3.393  -0.699 -1.2418  1.0004  1.5482
  710MOL0     H97956   8.196   3.587  -0.835  2.0621 -0.1699 -0.2345
  710MOL0     H97957   8.100   3.493  -0.930  0.0857  1.7367  0.6987
  710MOL0     H97958   8.292   3.554  -1.056 -2.4358 -3.2172 -2.8130
  710MOL0     H97959   8.300   3.378  -1.039  2.3897 -0.6375  0.8906
  710MOL0     H97960   7.708   3.645  -0.392  0.4665 -0.8581 -1.0524
  710MOL0     H97961   7.524   3.793  -0.332 -0.6920  0.8827  2.0408
  710MOL0     H97962   7.096   3.698  -0.142  1.3815 -1.5480  1.8045
  710MOL0     H97963   6.878   3.748  -0.113 -3.0109  0.0466  2.2119
  710MOL0     H97964   5.486   4.163   0.670 -0.8850  3.3346  0.9558
  710MOL0     H97965   5.243   4.145   0.616  0.7991  0.7399  0.3611
  710MOL0     H97966   4.916   4.182   0.376  0.5288  0.4497 -1.3337
  710MOL0     H97967   4.667   4.180   0.340 -0.3785  1.0992 -0.5661
  710MOL0     H97968   4.465   4.209   0.275  0.0187  0.1535  1.4576
  710MOL0     H97969   4.405   4.257   0.432 -1.4352  0.2050  0.2582
  710MOL0     H97970   4.297   4.353   0.162 -3.7070  0.0827 -0.2033
  710MOL0     H97971   4.255   4.433   0.321  1.5951 -1.6191  3.9242
  710MOL0     H97972   4.218   4.147   0.215  1.4592 -0.6288  2.1730
  710MOL0     H97973   4.185   4.196   0.384  0.5194 -0.0813  0.8180
  710MOL0     H97974   3.991   4.161   0.221 -0.4191  0.8716 -2.7370
  710MOL0     H97975   4.041   4.289   0.126 -0.1405  3.1190  1.2661
  710MOL0     H97976   3.840   4.499   0.438 -2.2492  1.7115 -4.6453
  710MOL0     H97977   4.647   4.589   0.339  0.7659  0.2661 -1.7376
  710MOL0     H97978   5.013   4.641   0.311 -0.6292  1.8723  0.2797
  710MOL0     H97979   4.856   4.715   0.331 -0.8040 -1.3059 -1.7672
  710MOL0     H97980   4.955   4.666   0.477 -0.5635  0.0614  0.3218
  711MOL0     O97981   0.029  11.123   3.725 -0.0467  0.2750 -0.4585
  711MOL0     C97982  -0.025  11.221   3.770 -0.7171 -0.5243 -1.3980
  711MOL0     O97983   0.043  11.336   3.806  0.1063 -0.3957 -0.0099
  711MOL0     C97984   0.180  11.339   3.796 -0.1470  0.0893 -0.5472
  711MOL0     C97985   0.240  11.412   3.692  0.5080 -0.1283 -0.6286
  711MOL0     C97986   0.375  11.425   3.688  0.1170 -0.2043  0.2254
  711MOL0     C97987   0.461  11.371   3.789  1.2471 -0.5708 -0.3020
  711MOL0     O97988   0.592  11.396   3.774  0.4884  0.3367  0.4138
  711MOL0     C97989   0.675  11.407   3.895  0.4422 -0.3325 -0.4241
  711MOL0     C97990   0.729  11.278   3.947 -0.6751  0.0772  0.9548
  711MOL0     C97991   0.799  11.269   4.086  0.1943  0.3287  0.3680
  711MOL0     C97992   0.902  11.163   4.093  0.8987 -0.4447 -0.6125
  711MOL0     C97993   0.972  11.173   4.225  0.8658 -0.0548 -0.3980
  711MOL0     C97994   1.089  11.074   4.238  0.0560  0.1402  0.6799
  711MOL0     C97995   1.177  11.136   4.341 -0.5856 -0.6979 -0.1340
  711MOL0     C97996   1.322  11.090   4.326 -1.1583  0.4862  1.4254
  711MOL0     N97997   1.385  11.112   4.192  0.1396  0.6477  0.0539
  711MOL0     C97998   1.371  11.230   4.124 -0.3943  0.0735 -0.2056
  711MOL0     C97999   1.421  11.203   4.001 -0.9424  0.4587 -0.2785
  711MOL0     C98000   1.433  11.301   3.890  0.2912  0.3217 -0.4090
  711MOL0     C98001   1.570  11.291   3.825  0.1554  0.1013 -0.7677
  711MOL0     C98002   1.683  11.349   3.906 -0.6006  0.2102  0.1060
  711MOL0     C98003   1.809  11.264   3.880  0.6765  0.3847 -0.3513
  711MOL0     O98004   1.915  11.300   3.970 -0.3382 -0.3813  0.2011
  711MOL0     C98005   1.995  11.410   3.944  0.2893  1.1384 -0.6200
  711MOL0     C98006   1.973  11.522   3.868 -0.0330  0.2312  0.4206
  711MOL0     C98007   2.061  11.632   3.862 -0.9403 -0.2366 -0.2580
  711MOL0     C98008   2.023  11.742   3.762  0.5035  0.7890 -0.1292
  711MOL0     C98009   2.166  11.644   3.958 -0.5080  0.3983  0.5076
  711MOL0     C98010   2.259  11.758   3.976 -0.9496 -0.1795  0.0144
  711MOL0     O98011   2.311  11.818   3.864 -0.7726 -0.1063 -0.2104
  711MOL0     C98012   2.387  11.937   3.870  0.2973 -0.2897  0.2096
  711MOL0     C98013   2.328  12.050   3.819 -0.3136 -0.1548 -0.3950
  711MOL0     C98014   2.381  12.175   3.840 -0.1864 -0.6315  0.1296
  711MOL0     C98015   2.507  12.191   3.898  1.0502 -0.3724  0.5484
  711MOL0     O98016   2.569  12.311   3.937 -0.5408  0.7850 -0.0567
  711MOL0     C98017   2.491  12.430   3.951  0.1309  0.0693  0.1872
  711MOL0     C98018   2.584  12.544   3.991 -0.7559 -0.0735 -0.0859
  711MOL0     C98019   2.659  12.513   4.131  0.5374  0.0434 -0.3352
  711MOL0     C98020   2.568  12.468   4.242 -0.3304 -0.4523  0.2740
  711MOL0     C98021   2.639  12.473   4.373  0.1626  0.8256 -1.0270
  711MOL0     C98022   2.560  12.408   4.484  0.1074 -0.0372  0.1119
  711MOL0     C98023   2.632  12.425   4.615 -0.2246  0.9069  0.5926
  711MOL0     C98024   2.575  12.537   4.697 -0.4466 -0.7889 -0.6550
  711MOL0    Cl98025   2.642  12.557   4.859 -0.0088  0.0380  0.0440
  711MOL0     C98026   2.579  12.073   3.932 -0.0104 -0.1875  0.3540
  711MOL0     C98027   2.520  11.944   3.925 -0.0986 -0.7946 -0.2094
  711MOL0     O98028   2.293  11.782   4.095 -0.5179  0.6444  0.9508
  711MOL0     C98029   2.198  11.532   4.047  0.8631  0.0365 -0.2478
  711MOL0     C98030   2.106  11.422   4.033  0.0006  0.2765  1.0143
  711MOL0     N98031   1.479  11.076   4.000 -0.6481 -0.4139 -0.8121
  711MOL0     N98032   1.446  11.014   4.106  0.2332  0.1580  0.0842
  711MOL0     C98033   0.396  11.305   3.891 -0.1924  1.1114 -0.7219
  711MOL0     C98034   0.261  11.286   3.895  1.2981 -0.0392  0.1178
  711MOL0     C98035  -0.162  11.243   3.791  0.1150 -0.8158 -0.4441
  711MOL0     C98036  -0.214  11.374   3.778  0.0804 -0.7767  0.9799
  711MOL0     C98037  -0.352  11.402   3.791  0.1159 -0.3219 -0.1052
  711MOL0     C98038  -0.439  11.300   3.831  0.3455 -0.6987 -0.4266
  711MOL0     O98039  -0.563  11.325   3.876  0.8969  0.1205 -0.5514
  711MOL0     C98040  -0.670  11.232   3.860 -0.5401 -0.6568  0.5464
  711MOL0     C98041  -0.699  11.160   3.988  0.3560 -0.4016 -0.3059
  711MOL0     C98042  -0.840  11.088   3.979 -0.3213  0.3729 -0.4740
  711MOL0     C98043  -0.844  10.948   3.919 -0.1967  0.5716 -0.5429
  711MOL0     C98044  -0.938  10.860   3.985 -0.2797  1.0832 -0.1672
  711MOL0     C98045  -1.030  10.802   4.045  0.8524 -0.0836 -0.0045
  711MOL0     C98046  -0.390  11.173   3.856  0.1419 -0.3005  0.2270
  711MOL0     C98047  -0.260  11.143   3.820  0.1361 -0.0736  0.8451
  711MOL0     C98048  -0.221  10.999   3.837 -0.8102 -1.0594 -0.2216
  711MOL0     H98049   0.181  11.467   3.619  1.7951 -0.0118 -1.6224
  711MOL0     H98050   0.420  11.481   3.607  0.2725  1.9854  1.7349
  711MOL0     H98051   0.614  11.457   3.970  1.0116 -0.1193 -0.0965
  711MOL0     H98052   0.759  11.473   3.873  1.2786 -1.2494 -0.0223
  711MOL0     H98053   0.649  11.206   3.963 -1.8027  0.6863 -1.5041
  711MOL0     H98054   0.804  11.241   3.876 -0.8156  0.8454  0.3922
  711MOL0     H98055   0.845  11.367   4.099  1.3380  0.1168 -1.5978
  711MOL0     H98056   0.731  11.247   4.169  0.0864  0.8711  0.4285
  711MOL0     H98057   0.847  11.068   4.093 -3.1417  1.6343  1.7833
  711MOL0     H98058   0.980  11.169   4.016  0.4798 -0.7776 -1.0701
  711MOL0     H98059   0.894  11.161   4.300  0.6563 -0.8260 -0.7334
  711MOL0     H98060   1.015  11.273   4.235  2.1042 -0.8297  3.7781
  711MOL0     H98061   1.057  10.979   4.283  0.1686  0.3619  1.2324
  711MOL0     H98062   1.135  11.057   4.140 -1.3488 -1.4067  0.2415
  711MOL0     H98063   1.134  11.124   4.440 -2.2691  0.8776 -0.6104
  711MOL0     H98064   1.184  11.241   4.311  0.3710 -1.7091 -4.0311
  711MOL0     H98065   1.381  11.142   4.402  0.9324  2.2817 -1.2495
  711MOL0     H98066   1.325  10.983   4.348 -0.6163  0.5200  1.5313
  711MOL0     H98067   1.338  11.326   4.161 -1.3116 -0.3072 -0.0002
  711MOL0     H98068   1.413  11.405   3.919  1.6561  0.9686 -1.6660
  711MOL0     H98069   1.357  11.283   3.813  0.3450  5.0161 -1.9274
  711MOL0     H98070   1.579  11.184   3.801 -2.3274 -0.6042  1.0606
  711MOL0     H98071   1.570  11.346   3.730  0.5779  0.1836 -0.7218
  711MOL0     H98072   1.709  11.450   3.872 -1.2969  0.7306  1.0566
  711MOL0     H98073   1.662  11.342   4.013 -2.6080 -1.0460 -0.3216
  711MOL0     H98074   1.789  11.162   3.913 -1.0369  0.5615 -0.7487
  711MOL0     H98075   1.830  11.256   3.773  1.4730 -3.6908 -0.0219
  711MOL0     H98076   1.888  11.527   3.801  0.1853  1.3128  0.2091
  711MOL0     H98077   1.960  11.811   3.817 -1.1151 -0.2562 -0.6084
  711MOL0     H98078   1.979  11.707   3.668  2.7538  0.3971 -1.1027
  711MOL0     H98079   2.113  11.798   3.735  0.2747  1.0817 -0.2905
  711MOL0     H98080   2.226  12.046   3.782 -0.2930 -2.0462 -0.3406
  711MOL0     H98081   2.325  12.264   3.811 -1.4773 -1.5873 -0.4150
  711MOL0     H98082   2.447  12.450   3.853  0.5587 -1.0602 -0.2498
  711MOL0     H98083   2.412  12.414   4.024  0.9349 -0.8757  0.8772
  711MOL0     H98084   2.655  12.555   3.909 -0.1681  0.3291  0.4618
  711MOL0     H98085   2.522  12.633   4.002 -1.8436 -0.9653  1.3928
  711MOL0     H98086   2.702  12.610   4.157  0.1782  0.0108  0.3770
  711MOL0     H98087   2.739  12.440   4.115  1.6327  1.1895 -0.2727
  711MOL0     H98088   2.535  12.365   4.224 -2.0498 -0.0881  1.1203
  711MOL0     H98089   2.478  12.531   4.243 -1.0992 -1.5247  0.4381
  711MOL0     H98090   2.733  12.417   4.366  0.7932  1.6256  0.6163
  711MOL0     H98091   2.675  12.570   4.406  1.3749 -0.7311  2.7505
  711MOL0     H98092   2.549  12.301   4.461  1.6536 -0.4579  1.1363
  711MOL0     H98093   2.460  12.452   4.488 -0.6417 -1.7079  1.9092
  711MOL0     H98094   2.737  12.442   4.591 -0.1923 -0.6903 -0.5942
  711MOL0     H98095   2.633  12.334   4.676  1.4544  0.4702 -0.0229
  711MOL0     H98096   2.469  12.514   4.712 -1.4031  2.0645 -2.2428
  711MOL0     H98097   2.586  12.631   4.642  1.0044  0.9765  2.4309
  711MOL0     H98098   2.674  12.073   3.984 -0.7758 -0.5106  1.8164
  711MOL0     H98099   2.575  11.855   3.955 -0.5096 -1.5297 -1.5362
  711MOL0     H98100   2.283  11.531   4.114  0.8860 -0.3803 -0.2795
  711MOL0     H98101   2.132  11.335   4.094  1.0530 -0.6360 -0.6684
  711MOL0     H98102   0.455  11.263   3.972 -2.1201  0.3191  0.3525
  711MOL0     H98103   0.220  11.232   3.980  1.5663 -2.5369 -1.2471
  711MOL0     H98104  -0.155  11.458   3.742  1.6840 -1.7292  1.3148
  711MOL0     H98105  -0.401  11.499   3.784  1.4064  0.2449 -2.3150
  711MOL0     H98106  -0.764  11.284   3.839 -0.4067  0.8514  3.2631
  711MOL0     H98107  -0.639  11.166   3.778 -0.8616  0.1326 -0.2228
  711MOL0     H98108  -0.704  11.234   4.068 -1.1183 -0.7519 -0.0332
  711MOL0     H98109  -0.625  11.081   3.998  1.5041  0.5863 -0.7655
  711MOL0     H98110  -0.877  11.069   4.080 -1.8805 -2.4120 -1.4775
  711MOL0     H98111  -0.912  11.154   3.929  0.5327  1.3651 -0.4396
  711MOL0     H98112  -0.744  10.905   3.930 -0.4123  0.6253  2.1412
  711MOL0     H98113  -0.853  10.944   3.810 -0.5054  4.6751 -0.8281
  711MOL0     H98114  -1.105  10.746   4.098 -1.7211  0.4603 -2.7860
  711MOL0     H98115  -0.447  11.087   3.890  2.2493 -0.4839  3.7211
  711MOL0     H98116  -0.298  10.954   3.901 -0.0265 -1.1652  0.6664
  711MOL0     H98117  -0.222  10.944   3.742  0.9873  0.0543 -0.9183
  711MOL0     H98118  -0.121  10.998   3.880 -1.2894  3.7023  1.5779
  712MOL0     O98119   6.938   5.841   1.058  0.4413 -1.0315 -0.2653
  712MOL0     C98120   6.882   5.942   1.103  0.4937  0.0247 -0.3837
  712MOL0     O98121   6.852   5.957   1.232 -0.1385 -0.4072 -0.0069
  712MOL0     C98122   6.901   5.875   1.332  0.8525 -0.4117 -0.5148
  712MOL0     C98123   7.020   5.799   1.334  0.6966  0.5926 -0.1110
  712MOL0     C98124   7.052   5.719   1.436  0.4038 -0.7089  0.0406
  712MOL0     C98125   6.968   5.705   1.548  0.7284 -0.1293  0.0826
  712MOL0     O98126   7.012   5.625   1.649  0.4570  0.5340 -0.7506
  712MOL0     C98127   6.923   5.519   1.689  0.5726 -0.1077 -0.5471
  712MOL0     C98128   6.991   5.428   1.798 -0.2581  0.5214 -0.3728
  712MOL0     C98129   7.061   5.314   1.736  0.1316 -0.8036  0.6250
  712MOL0     C98130   7.137   5.233   1.840 -0.0017  0.5595  0.1389
  712MOL0     C98131   7.231   5.125   1.785 -0.0435  0.0078 -0.3086
  712MOL0     C98132   7.275   5.028   1.895  0.1708  0.1882  0.1984
  712MOL0     C98133   7.369   4.918   1.839 -0.0665 -0.3487 -0.8981
  712MOL0     C98134   7.435   4.829   1.961  0.1893  0.1020  0.1222
  712MOL0     N98135   7.542   4.901   2.036  0.1120  0.2813 -0.4444
  712MOL0     C98136   7.669   4.855   2.037  0.2164 -0.1236 -0.4191
  712MOL0     C98137   7.724   4.906   2.142 -0.2150  0.0668 -0.7501
  712MOL0     C98138   7.866   4.866   2.186 -0.3077 -0.4305  0.6214
  712MOL0     C98139   7.968   4.951   2.101  0.5501  0.1476  0.4576
  712MOL0     C98140   8.111   4.951   2.162  0.5474 -0.1798 -0.4638
  712MOL0     C98141   8.206   5.007   2.063 -0.9940 -0.0784 -0.1374
  712MOL0     O98142   8.174   5.137   2.015  0.2666  0.0532 -0.6046
  712MOL0     C98143   8.285   5.219   2.018 -0.0345  0.2200 -0.8047
  712MOL0     C98144   8.281   5.332   2.101  0.2364 -0.1210 -0.6176
  712MOL0     C98145   8.378   5.430   2.110  0.4119  0.0408 -0.1200
  712MOL0     C98146   8.351   5.541   2.210  0.0900  0.3684  0.1211
  712MOL0     C98147   8.492   5.414   2.031 -0.5941  0.7855  0.3998
  712MOL0     C98148   8.607   5.507   2.037  0.4450 -0.2344  0.5210
  712MOL0     O98149   8.585   5.638   2.039 -0.3650  0.1170 -0.3165
  712MOL0     C98150   8.681   5.735   2.068  0.1365 -0.2644 -0.9060
  712MOL0     C98151   8.631   5.871   2.076 -0.5408 -0.6717  0.1317
  712MOL0     C98152   8.720   5.974   2.115 -0.2503 -0.8152  0.1018
  712MOL0     C98153   8.851   5.951   2.149 -0.2641 -0.4498 -0.1925
  712MOL0     O98154   8.934   6.051   2.193 -0.2376  0.0103  0.2850
  712MOL0     C98155   8.885   6.102   2.321  1.2176  0.0909 -1.1800
  712MOL0     C98156   8.994   6.159   2.407  0.0498 -0.4115 -0.7633
  712MOL0     C98157   9.093   6.053   2.461 -0.2970 -0.1857  0.6030
  712MOL0     C98158   9.182   6.107   2.575  0.5484  0.4636  0.1042
  712MOL0     C98159   9.230   6.000   2.684 -0.7680  0.1960 -0.2746
  712MOL0     C98160   9.320   6.046   2.798 -0.2567 -0.7375  0.4970
  712MOL0     C98161   9.335   5.925   2.885  0.4766  0.0678 -0.3532
  712MOL0     C98162   9.436   5.950   2.995 -0.3337 -0.4150 -0.2531
  712MOL0    Cl98163   9.609   5.949   2.932  0.5463  0.0060 -0.1441
  712MOL0     C98164   8.903   5.824   2.139 -0.4945  1.1133 -0.3356
  712MOL0     C98165   8.820   5.721   2.094 -0.7658 -0.3011 -0.3130
  712MOL0     O98166   8.713   5.449   2.034  0.3148  0.3171  0.5103
  712MOL0     C98167   8.502   5.305   1.940  0.3016 -0.2227  0.7072
  712MOL0     C98168   8.403   5.205   1.937  0.1863 -0.0181 -0.9017
  712MOL0     N98169   7.628   4.977   2.210 -0.2953  0.4790  0.7793
  712MOL0     N98170   7.524   4.983   2.141  0.0501 -0.1121 -0.3841
  712MOL0     C98171   6.843   5.764   1.549  0.2592  0.0026 -1.0319
  712MOL0     C98172   6.809   5.847   1.440 -0.3251  0.2888  0.3197
  712MOL0     C98173   6.873   6.055   1.014 -0.3250  0.7317  0.3690
  712MOL0     C98174   6.863   6.181   1.075 -0.3170  0.3074 -0.6672
  712MOL0     C98175   6.871   6.299   1.010  0.1120 -0.4898 -1.0585
  712MOL0     C98176   6.864   6.298   0.866  0.1361  0.0565 -0.7531
  712MOL0     O98177   6.861   6.402   0.777  0.3243  0.0498 -0.0355
  712MOL0     C98178   6.826   6.535   0.830  0.4434 -0.0945 -0.2462
  712MOL0     C98179   6.705   6.588   0.752  0.6394  0.0988 -0.2692
  712MOL0     C98180   6.579   6.495   0.761  1.0367 -0.0473 -0.6882
  712MOL0     C98181   6.472   6.533   0.870 -0.2907  0.1180  0.1007
  712MOL0     C98182   6.528   6.500   1.003 -0.1864  0.6963  0.0874
  712MOL0     C98183   6.558   6.447   1.106  0.4071 -0.1181 -0.5036
  712MOL0     C98184   6.881   6.169   0.805  0.2254 -0.8494 -0.9451
  712MOL0     C98185   6.889   6.048   0.866  0.3800  0.2344  0.5733
  712MOL0     C98186   6.903   5.913   0.791 -0.4158  0.9388  0.2799
  712MOL0     H98187   7.091   5.820   1.254 -0.0617 -0.9148 -1.2481
  712MOL0     H98188   7.151   5.675   1.434 -0.1711 -2.2321  1.9617
  712MOL0     H98189   6.902   5.458   1.601  0.6810  0.3943 -0.9218
  712MOL0     H98190   6.826   5.550   1.727 -0.2056 -1.6719 -1.1516
  712MOL0     H98191   7.064   5.485   1.855  0.1162  1.4762 -1.7630
  712MOL0     H98192   6.921   5.390   1.872 -0.0007 -0.8578 -0.7981
  712MOL0     H98193   6.993   5.254   1.675 -0.7831 -0.4717  1.2876
  712MOL0     H98194   7.145   5.350   1.676  1.1920 -1.0185  1.9089
  712MOL0     H98195   7.185   5.296   1.917 -0.1105  0.3337  0.3932
  712MOL0     H98196   7.054   5.182   1.888 -1.8885  2.4760 -0.9426
  712MOL0     H98197   7.315   5.176   1.735 -0.8402  0.3117 -1.3750
  712MOL0     H98198   7.178   5.057   1.718  0.9924 -0.5429 -0.5872
  712MOL0     H98199   7.325   5.084   1.975 -2.2625  1.0229  1.2513
  712MOL0     H98200   7.189   4.977   1.940 -0.8999  0.6028 -1.3144
  712MOL0     H98201   7.442   4.976   1.783  0.9409 -1.2908 -0.6023
  712MOL0     H98202   7.315   4.855   1.768 -1.9661  1.2569 -0.9403
  712MOL0     H98203   7.351   4.808   2.028  0.9666  1.6833  1.6616
  712MOL0     H98204   7.472   4.743   1.904 -1.1412  2.5521 -4.9987
  712MOL0     H98205   7.709   4.786   1.964 -0.8631  0.0846 -1.2295
  712MOL0     H98206   7.885   4.759   2.168  1.4874 -0.2460  1.2447
  712MOL0     H98207   7.883   4.883   2.293  2.5700 -0.9980  0.3221
  712MOL0     H98208   7.958   4.919   1.997 -0.9305  0.1724  0.5741
  712MOL0     H98209   7.937   5.056   2.106  3.7047  1.2421 -0.5952
  712MOL0     H98210   8.118   5.005   2.257 -2.9577 -0.8611  0.2968
  712MOL0     H98211   8.155   4.852   2.173 -0.8678 -0.7834 -0.0478
  712MOL0     H98212   8.309   4.998   2.100 -1.2075 -1.5867  0.1199
  712MOL0     H98213   8.193   4.942   1.976 -4.2144  2.4671 -1.7488
  712MOL0     H98214   8.188   5.337   2.156  1.4735  0.9033  1.5248
  712MOL0     H98215   8.280   5.618   2.180  1.7819  2.3377  0.9373
  712MOL0     H98216   8.448   5.589   2.224  1.1766 -2.2897  2.8579
  712MOL0     H98217   8.331   5.490   2.304  3.5809 -1.0149  0.2568
  712MOL0     H98218   8.525   5.884   2.053 -0.1429  1.5616 -0.6785
  712MOL0     H98219   8.684   6.077   2.121 -0.1870 -0.7721 -0.2568
  712MOL0     H98220   8.806   6.175   2.298  0.7281  0.4833  1.4087
  712MOL0     H98221   8.840   6.016   2.371 -1.9391  1.4712 -1.3401
  712MOL0     H98222   9.062   6.232   2.363  3.3425 -2.3112  0.7488
  712MOL0     H98223   8.940   6.214   2.485  1.4269 -0.8435  0.5399
  712MOL0     H98224   9.154   6.026   2.374 -0.3430  1.5573 -0.0131
  712MOL0     H98225   9.042   5.959   2.483  0.1585 -1.1493 -2.0363
  712MOL0     H98226   9.120   6.183   2.622 -0.3716  0.7211 -1.4440
  712MOL0     H98227   9.270   6.156   2.533  0.1444  1.6906  0.6374
  712MOL0     H98228   9.141   5.956   2.730  0.8481 -1.6694  1.2500
  712MOL0     H98229   9.286   5.922   2.632 -1.5970  0.8149 -2.1624
  712MOL0     H98230   9.277   6.136   2.843  0.1006 -0.8684  1.1116
  712MOL0     H98231   9.414   6.082   2.757 -1.7184  3.0104  0.0754
  712MOL0     H98232   9.371   5.852   2.812  1.9782  0.5974 -0.1841
  712MOL0     H98233   9.248   5.891   2.940  1.9250 -0.2814  1.8581
  712MOL0     H98234   9.433   5.871   3.071  2.0244 -2.0277 -1.6815
  712MOL0     H98235   9.412   6.047   3.039  1.0601  0.6915 -1.8284
  712MOL0     H98236   9.010   5.814   2.149 -0.6382 -1.0273 -0.5137
  712MOL0     H98237   8.857   5.618   2.094  1.6099  0.4943 -0.1367
  712MOL0     H98238   8.583   5.295   1.869 -2.1298 -2.2035 -2.0544
  712MOL0     H98239   8.401   5.127   1.861  0.7577 -2.1497  1.1618
  712MOL0     H98240   6.777   5.740   1.632 -1.4680 -3.0168 -3.0692
  712MOL0     H98241   6.716   5.902   1.443 -0.3644  0.1816  1.7290
  712MOL0     H98242   6.861   6.177   1.183 -1.0907 -0.4386 -0.6970
  712MOL0     H98243   6.867   6.387   1.073 -2.7008 -0.5163 -1.0928
  712MOL0     H98244   6.796   6.530   0.935 -2.5925 -1.1510 -1.0568
  712MOL0     H98245   6.906   6.610   0.821 -2.0668  2.6780 -1.2666
  712MOL0     H98246   6.742   6.598   0.650  1.5053 -1.7746 -0.1811
  712MOL0     H98247   6.682   6.688   0.791  0.5040 -0.0857  0.1325
  712MOL0     H98248   6.529   6.517   0.666  0.8234  1.1946 -0.3080
  712MOL0     H98249   6.600   6.388   0.763 -2.4914 -0.9840 -3.4315
  712MOL0     H98250   6.373   6.490   0.850 -0.0533  0.1276 -1.1829
  712MOL0     H98251   6.452   6.640   0.863 -0.3867  0.0856 -0.1204
  712MOL0     H98252   6.579   6.397   1.198  0.7952  0.3242 -0.3469
  712MOL0     H98253   6.896   6.168   0.697  0.6677 -1.1543 -0.8833
  712MOL0     H98254   7.006   5.877   0.800 -1.7655 -3.2510  1.2972
  712MOL0     H98255   6.836   5.836   0.831 -0.8172  0.4183 -1.3085
  712MOL0     H98256   6.872   5.917   0.686  3.2547 -0.3208 -1.0017
  713MOL0     O98257  10.946   4.531  10.303 -0.2828 -0.0627 -0.3116
  713MOL0     C98258  10.975   4.497  10.420 -0.2778  0.1391  0.1942
  713MOL0     O98259  11.076   4.418  10.452 -0.5023 -0.1100 -0.5202
  713MOL0     C98260  11.155   4.362  10.366 -0.3616 -0.1459  0.3884
  713MOL0     C98261  11.107   4.248  10.314  0.0623 -0.2093  0.1088
  713MOL0     C98262  11.167   4.195  10.200 -0.3126  0.3670 -0.4134
  713MOL0     C98263  11.278   4.261  10.140 -0.8808  0.7869 -0.7886
  713MOL0     O98264  11.320   4.206  10.021  0.2539 -0.8280  0.4596
  713MOL0     C98265  11.455   4.229   9.984  0.2008 -0.0490  0.3160
  713MOL0     C98266  11.476   4.155   9.857  0.6597 -0.7054  0.1064
  713MOL0     C98267  11.620   4.179   9.813  0.3290  0.1288 -1.1407
  713MOL0     C98268  11.718   4.114   9.905 -0.2159 -0.1808 -0.1334
  713MOL0     C98269  11.868   4.122   9.860 -0.1752  0.0194 -0.4978
  713MOL0     C98270  11.944   3.998   9.896 -0.7880 -0.1169 -0.4622
  713MOL0     C98271  12.097   4.040   9.883  0.4900 -0.0878  0.5643
  713MOL0     C98272  12.150   4.096   9.749  0.5765 -0.1214 -0.6067
  713MOL0     N98273  12.294   4.122   9.755  1.2891 -0.3649  0.2256
  713MOL0     C98274  12.392   4.064   9.674  0.1233  0.5467  0.2433
  713MOL0     C98275  12.510   4.120   9.719 -0.3156 -0.4005 -0.1257
  713MOL0     C98276  12.658   4.103   9.682  0.5177  0.1722 -0.4696
  713MOL0     C98277  12.737   4.079   9.817 -0.5192 -0.0669  0.5574
  713MOL0     C98278  12.879   4.030   9.783  0.6008  0.7945 -0.3980
  713MOL0     C98279  12.934   3.956   9.904  0.0529  0.0484 -0.1805
  713MOL0     O98280  12.934   4.034  10.030  0.0239  0.0877  0.2486
  713MOL0     C98281  13.054   4.103  10.064  0.8581  1.0089  0.8292
  713MOL0     C98282  13.043   4.152  10.191 -0.1485 -1.0537  0.9053
  713MOL0     C98283  13.146   4.227  10.249 -0.0311  0.5123  0.3903
  713MOL0     C98284  13.120   4.269  10.389 -0.2976 -0.1395  0.2874
  713MOL0     C98285  13.268   4.240  10.185  0.7330 -0.0547  0.2781
  713MOL0     C98286  13.389   4.302  10.247 -0.4149 -0.0764  0.3969
  713MOL0     O98287  13.389   4.351  10.376 -0.5710  0.3008 -0.6285
  713MOL0     C98288  13.498   4.395  10.448 -0.4002  0.2746  0.2255
  713MOL0     C98289  13.521   4.353  10.582 -0.0030 -0.3119  0.0928
  713MOL0     C98290  13.620   4.419  10.653 -0.5632  0.0968 -0.7675
  713MOL0     C98291  13.705   4.516  10.608  0.0360  0.3892  0.0421
  713MOL0     O98292  13.806   4.556  10.688 -1.3560 -0.1166 -0.4907
  713MOL0     C98293  13.873   4.682  10.669 -0.3331 -0.0007  0.4454
  713MOL0     C98294  13.896   4.765  10.798  0.3072  1.0304 -0.2496
  713MOL0     C98295  14.019   4.707  10.873  0.4123  1.0249 -0.5032
  713MOL0     C98296  14.044   4.782  11.008 -0.1383 -0.7094 -0.0322
  713MOL0     C98297  14.183   4.754  11.068 -0.5994 -0.7878  0.2436
  713MOL0     C98298  14.250   4.888  11.096  0.5055  0.3967  0.9548
  713MOL0     C98299  14.394   4.862  11.142 -0.2709  0.4298  0.5436
  713MOL0     C98300  14.500   4.969  11.132  0.2409  0.5283 -0.0066
  713MOL0    Cl98301  14.475   5.090  11.005 -0.2046  0.1863  0.6144
  713MOL0     C98302  13.677   4.560  10.476  0.1885  0.4104 -0.2465
  713MOL0     C98303  13.575   4.506  10.401 -0.0977 -0.1750  0.3412
  713MOL0     O98304  13.486   4.308  10.173  0.5964  0.5277 -0.2778
  713MOL0     C98305  13.278   4.190  10.049  0.1238 -0.4163 -0.1686
  713MOL0     C98306  13.172   4.125   9.986  0.2467 -0.2418 -0.1605
  713MOL0     N98307  12.472   4.207   9.823 -0.2846  0.2949  0.4713
  713MOL0     N98308  12.348   4.203   9.844 -0.1965 -0.2718 -0.0418
  713MOL0     C98309  11.332   4.374  10.202 -0.1632  0.4047 -0.7082
  713MOL0     C98310  11.271   4.424  10.319  0.3398 -0.0322 -0.2678
  713MOL0     C98311  10.888   4.560  10.528 -0.0565  0.3125  0.1410
  713MOL0     C98312  10.743   4.571  10.509 -0.1165 -0.6961  1.1070
  713MOL0     C98313  10.670   4.623  10.614  0.0586  0.1899  1.1633
  713MOL0     C98314  10.721   4.655  10.738 -0.1371 -0.1756  0.3639
  713MOL0     O98315  10.628   4.692  10.833  0.4837  0.3892  0.0744
  713MOL0     C98316  10.657   4.657  10.967 -0.4079 -0.5283 -0.2986
  713MOL0     C98317  10.530   4.681  11.045 -0.0621 -0.7986 -0.2060
  713MOL0     C98318  10.548   4.670  11.200 -0.2229  0.4174 -0.8991
  713MOL0     C98319  10.421   4.694  11.284  0.1872  0.3165  0.1033
  713MOL0     C98320  10.380   4.834  11.295 -0.1096 -0.3633  0.2813
  713MOL0     C98321  10.332   4.946  11.299  0.2025 -0.4441  0.1441
  713MOL0     C98322  10.863   4.663  10.753 -0.7851 -0.2770  0.2499
  713MOL0     C98323  10.950   4.613  10.645  0.0346 -0.4581 -0.3757
  713MOL0     C98324  11.103   4.618  10.655 -0.6600 -1.0985 -0.5764
  713MOL0     H98325  11.015   4.210  10.357 -0.7567  2.8276  1.2889
  713MOL0     H98326  11.126   4.107  10.152  0.5734  0.8555 -2.1633
  713MOL0     H98327  11.520   4.192  10.063 -2.2507 -0.9778  2.0286
  713MOL0     H98328  11.473   4.335   9.965  1.4119 -0.7074 -2.9267
  713MOL0     H98329  11.452   4.048   9.863 -2.4166 -0.0888  0.7257
  713MOL0     H98330  11.403   4.197   9.788  0.0017  0.3511  1.3896
  713MOL0     H98331  11.623   4.140   9.711 -2.4912 -0.7114 -0.9721
  713MOL0     H98332  11.633   4.287   9.811 -3.1833  0.6893  0.2099
  713MOL0     H98333  11.716   4.150  10.008  0.8922 -1.7480  0.4595
  713MOL0     H98334  11.684   4.011   9.916 -0.0309 -0.2145  0.1266
  713MOL0     H98335  11.908   4.213   9.906  1.7182  0.4074 -2.6802
  713MOL0     H98336  11.866   4.139   9.752 -0.7978  1.7583 -0.2515
  713MOL0     H98337  11.926   3.958   9.996  2.4689 -0.2281  0.1860
  713MOL0     H98338  11.910   3.921   9.825  0.1572 -1.6009  0.6370
  713MOL0     H98339  12.165   3.957   9.905  2.3439  1.2616  0.2528
  713MOL0     H98340  12.114   4.112   9.963 -0.3065 -1.6893  2.2422
  713MOL0     H98341  12.121   4.016   9.680  0.0152 -1.2151  0.8548
  713MOL0     H98342  12.096   4.187   9.720  0.6482 -0.1171 -0.7297
  713MOL0     H98343  12.388   3.994   9.592  4.7284  1.0691 -0.7061
  713MOL0     H98344  12.711   4.188   9.639  0.8066 -0.3915 -1.2373
  713MOL0     H98345  12.690   4.012   9.630  1.0280 -2.5184  3.9964
  713MOL0     H98346  12.734   4.166   9.884 -1.0818  0.0662  0.3683
  713MOL0     H98347  12.695   3.992   9.867  1.4383 -1.8440 -0.7449
  713MOL0     H98348  12.885   3.969   9.692  2.6366  0.3391 -0.0234
  713MOL0     H98349  12.943   4.118   9.771 -0.5564  1.6632 -0.3511
  713MOL0     H98350  12.872   3.865   9.904 -0.1882  0.1892 -1.3119
  713MOL0     H98351  13.030   3.915   9.872 -0.7259 -2.0850 -0.0117
  713MOL0     H98352  12.951   4.131  10.244 -1.1792  1.2964  0.1980
  713MOL0     H98353  13.158   4.205  10.469 -3.2954 -1.7321  0.5827
  713MOL0     H98354  13.015   4.271  10.419 -0.0270 -4.1956  2.1865
  713MOL0     H98355  13.150   4.372  10.410  0.9083 -0.7964  1.9945
  713MOL0     H98356  13.450   4.278  10.616 -1.8832  1.4793  0.3358
  713MOL0     H98357  13.637   4.380  10.753  0.0018  0.5492 -0.6795
  713MOL0     H98358  13.967   4.659  10.619  0.3418  3.9216 -0.4265
  713MOL0     H98359  13.802   4.732  10.602  0.5960 -0.0262 -0.5727
  713MOL0     H98360  13.910   4.871  10.773 -1.9646  1.7672  1.3103
  713MOL0     H98361  13.810   4.759  10.865  0.5996  2.7768  0.3578
  713MOL0     H98362  14.103   4.704  10.802  0.1879 -2.6167 -0.8231
  713MOL0     H98363  14.014   4.599  10.889 -0.2997  0.8071 -2.0113
  713MOL0     H98364  13.969   4.762  11.085 -0.4343 -1.2198 -0.4498
  713MOL0     H98365  14.026   4.886  10.977  1.0959 -0.1234  1.1210
  713MOL0     H98366  14.183   4.707  11.167  2.8959  1.0092  1.2565
  713MOL0     H98367  14.243   4.694  11.000  2.8166  1.9098  0.5757
  713MOL0     H98368  14.195   4.935  11.178  1.8190  2.5703  0.6779
  713MOL0     H98369  14.241   4.956  11.010  1.1206 -0.0162  0.5553
  713MOL0     H98370  14.415   4.765  11.096 -1.3392  1.4272 -2.3026
  713MOL0     H98371  14.385   4.853  11.250 -2.5992  1.8623  0.5381
  713MOL0     H98372  14.595   4.916  11.125 -1.5073 -3.1106  1.3105
  713MOL0     H98373  14.494   5.021  11.228 -0.8519  0.6761 -0.1422
  713MOL0     H98374  13.729   4.640  10.424 -2.4676  2.4501  0.0462
  713MOL0     H98375  13.550   4.548  10.304  0.5147 -0.5014  0.0366
  713MOL0     H98376  13.368   4.199   9.988  1.3474 -1.3319  1.4404
  713MOL0     H98377  13.190   4.087   9.886 -0.6530 -4.1912  1.0039
  713MOL0     H98378  11.412   4.427  10.151 -0.7699 -1.1292 -3.4409
  713MOL0     H98379  11.285   4.524  10.359 -2.2589  0.6737 -0.8820
  713MOL0     H98380  10.694   4.547  10.416 -0.9889  0.2981  1.2986
  713MOL0     H98381  10.561   4.618  10.610 -0.0531  2.0087  1.4253
  713MOL0     H98382  10.688   4.553  10.974 -1.2267 -0.6687  2.4751
  713MOL0     H98383  10.728   4.729  11.008 -0.2621 -0.3447 -0.8677
  713MOL0     H98384  10.447   4.620  11.009 -0.2340 -2.0892  2.1635
  713MOL0     H98385  10.494   4.782  11.023 -2.6483 -1.9008 -1.4210
  713MOL0     H98386  10.580   4.569  11.225  1.9110  1.5530  1.4279
  713MOL0     H98387  10.627   4.739  11.232 -2.3297  2.3101  0.5515
  713MOL0     H98388  10.433   4.635  11.375 -0.0458 -1.3527 -0.8931
  713MOL0     H98389  10.340   4.650  11.225 -0.2525 -0.3010  1.1458
  713MOL0     H98390  10.289   5.044  11.300  1.5284  0.1549 -0.1090
  713MOL0     H98391  10.894   4.694  10.852 -4.2292 -0.9865  1.6988
  713MOL0     H98392  11.156   4.626  10.560 -1.1775  1.2828 -0.7362
  713MOL0     H98393  11.114   4.711  10.713 -3.0632 -1.5367  0.7415
  713MOL0     H98394  11.141   4.537  10.718 -0.0233 -1.2184 -1.1041
  714MOL0     O98395   0.205  10.209   8.550 -0.6584  0.0473  1.0908
  714MOL0     C98396   0.153  10.106   8.597 -0.0836  0.3795 -0.4114
  714MOL0     O98397   0.209  10.013   8.682  0.6390 -0.1479  0.1193
  714MOL0     C98398   0.318  10.051   8.750  0.0146 -0.5220  0.4482
  714MOL0     C98399   0.437   9.973   8.761  0.4517 -0.5488  0.2015
  714MOL0     C98400   0.541  10.030   8.837 -0.0769 -0.5304 -0.4922
  714MOL0     C98401   0.542  10.147   8.908 -0.5223  0.2437  0.1057
  714MOL0     O98402   0.656  10.174   8.983  0.5159  0.5785  0.1550
  714MOL0     C98403   0.702  10.307   8.991 -0.3728 -0.1053  0.8712
  714MOL0     C98404   0.854  10.305   8.983  0.3514  0.3794 -0.0622
  714MOL0     C98405   0.910  10.220   8.868 -0.1601  1.3107 -0.0381
  714MOL0     C98406   1.061  10.228   8.882  0.7096  0.2605 -0.8233
  714MOL0     C98407   1.130  10.169   8.760 -0.3469 -0.9490  0.2310
  714MOL0     C98408   1.284  10.191   8.777  0.4701  0.5931  0.7288
  714MOL0     C98409   1.355  10.135   8.650  0.2637  0.0534 -0.0960
  714MOL0     C98410   1.513  10.146   8.653 -0.3348 -0.2050  0.8036
  714MOL0     N98411   1.565  10.080   8.775  0.9294  0.2560 -0.8578
  714MOL0     C98412   1.659  10.127   8.865 -0.8584 -0.3552  0.2540
  714MOL0     C98413   1.687  10.025   8.942 -0.2715  0.3448  0.6991
  714MOL0     C98414   1.790  10.015   9.060 -0.4955  0.6844  0.2025
  714MOL0     C98415   1.792  10.149   9.132  0.4936  0.5909  0.5295
  714MOL0     C98416   1.865  10.145   9.263 -0.5255 -0.4646  0.8663
  714MOL0     C98417   1.868  10.293   9.324  0.2186 -0.7103  0.4044
  714MOL0     O98418   1.956  10.387   9.263  0.2624  0.0938  0.2763
  714MOL0     C98419   2.085  10.369   9.298 -0.1746 -0.9012 -0.3710
  714MOL0     C98420   2.131  10.434   9.413 -0.4186 -0.1814  0.2558
  714MOL0     C98421   2.270  10.430   9.435  0.5430  0.7664  0.0012
  714MOL0     C98422   2.311  10.499   9.565  0.6291 -0.0784 -0.0026
  714MOL0     C98423   2.361  10.366   9.358 -0.6776 -0.2372 -0.5801
  714MOL0     C98424   2.500  10.360   9.395  0.5990  0.3861  0.0307
  714MOL0     O98425   2.587  10.449   9.359 -0.0673  0.1824  0.7838
  714MOL0     C98426   2.724  10.417   9.372 -0.6435  0.0349 -0.7326
  714MOL0     C98427   2.790  10.467   9.489  0.2459  1.0988  0.4225
  714MOL0     C98428   2.913  10.417   9.526  0.1969  0.0975 -0.0952
  714MOL0     C98429   2.977  10.318   9.451 -0.0439  0.1493  0.6337
  714MOL0     O98430   3.101  10.261   9.490  1.0276  0.7898  0.2659
  714MOL0     C98431   3.128  10.258   9.624 -0.0826  0.1455 -0.1869
  714MOL0     C98432   3.260  10.192   9.643 -0.5930  0.7379 -0.2003
  714MOL0     C98433   3.363  10.248   9.554  0.1615 -0.3455 -1.1983
  714MOL0     C98434   3.499  10.195   9.605 -0.4127  0.2530 -0.4655
  714MOL0     C98435   3.619  10.240   9.505  0.4676 -0.2828  0.3781
  714MOL0     C98436   3.746  10.170   9.539 -0.2426  0.3067  0.2578
  714MOL0     C98437   3.863  10.232   9.458 -0.9299 -0.1617 -1.2044
  714MOL0     C98438   3.891  10.178   9.321  1.0138  0.3317 -0.1063
  714MOL0    Cl98439   3.960  10.013   9.327 -0.3443  0.1503 -0.0005
  714MOL0     C98440   2.923  10.286   9.320 -0.0959  0.6562 -0.1940
  714MOL0     C98441   2.797  10.328   9.285  0.1926 -0.4449 -0.5671
  714MOL0     O98442   2.537  10.253   9.449  0.0597  0.1085  0.2864
  714MOL0     C98443   2.312  10.301   9.245 -0.0606 -0.2207  0.5864
  714MOL0     C98444   2.176  10.300   9.214  0.0724  0.2400 -0.2411
  714MOL0     N98445   1.609   9.921   8.904 -0.2243 -0.3962 -0.0884
  714MOL0     N98446   1.548   9.948   8.793 -0.3925  0.4541  0.3674
  714MOL0     C98447   0.427  10.228   8.890  0.2339  0.4723  0.1301
  714MOL0     C98448   0.322  10.183   8.807  0.2554  0.4514 -0.8203
  714MOL0     C98449   0.024  10.052   8.537 -0.0671 -0.4189  0.2025
  714MOL0     C98450  -0.011   9.920   8.570  0.9246 -0.5134  0.4377
  714MOL0     C98451  -0.130   9.873   8.521 -0.3638 -0.0160  0.5401
  714MOL0     C98452  -0.209   9.931   8.422  0.3376 -1.2629 -0.3346
  714MOL0     O98453  -0.321   9.868   8.378  0.3723  0.8093  0.7304
  714MOL0     C98454  -0.426   9.936   8.311 -0.7557 -0.1610 -0.3680
  714MOL0     C98455  -0.556   9.862   8.349  0.1515  0.1397  0.6922
  714MOL0     C98456  -0.688   9.946   8.327 -0.1096  0.1412  0.1258
  714MOL0     C98457  -0.688  10.016   8.188 -0.5746  0.0591 -0.3071
  714MOL0     C98458  -0.826  10.051   8.139  0.9298 -0.3935  0.1384
  714MOL0     C98459  -0.931  10.063   8.073 -0.1362  0.7230 -0.3155
  714MOL0     C98460  -0.164  10.057   8.377  0.2256  0.0445  0.6065
  714MOL0     C98461  -0.052  10.127   8.433  0.3772 -0.5834 -0.2020
  714MOL0     C98462  -0.022  10.260   8.378 -0.3981  0.1320  0.5849
  714MOL0     H98463   0.448   9.874   8.717 -1.3077 -0.5300 -0.3538
  714MOL0     H98464   0.630   9.973   8.862  0.2986  1.1086  2.3065
  714MOL0     H98465   0.665  10.352   9.083  1.7450  0.1158  1.6713
  714MOL0     H98466   0.664  10.367   8.907  1.8429  1.7439  1.1030
  714MOL0     H98467   0.891  10.408   8.983  1.0292  0.2218 -2.8874
  714MOL0     H98468   0.884  10.260   9.078 -2.0812 -3.3988 -0.9066
  714MOL0     H98469   0.876  10.117   8.885  1.7410  0.8789  1.5682
  714MOL0     H98470   0.879  10.257   8.770  1.0475  1.1355 -0.4890
  714MOL0     H98471   1.085  10.334   8.897 -1.2125  1.0547 -2.7173
  714MOL0     H98472   1.095  10.184   8.976  1.4425  0.6039 -0.9222
  714MOL0     H98473   1.087  10.220   8.672 -2.0854  0.1125  1.6209
  714MOL0     H98474   1.109  10.062   8.753 -1.7055 -0.6105 -1.7114
  714MOL0     H98475   1.299  10.299   8.778  0.5975  0.5783  1.7521
  714MOL0     H98476   1.320  10.141   8.867  2.4175  2.1464  0.8757
  714MOL0     H98477   1.324  10.196   8.565  0.1454  2.4147  1.5447
  714MOL0     H98478   1.329  10.032   8.625 -0.5492  0.5215 -1.2143
  714MOL0     H98479   1.546  10.092   8.564 -1.3380 -0.8387  0.8000
  714MOL0     H98480   1.536  10.253   8.643  0.5245 -0.5249 -0.9641
  714MOL0     H98481   1.708  10.224   8.869  1.0084 -1.2948  2.2691
  714MOL0     H98482   1.892   9.995   9.025 -1.0341 -2.2270  0.0796
  714MOL0     H98483   1.757   9.932   9.122 -0.8960  2.3543  2.3718
  714MOL0     H98484   1.838  10.223   9.066  1.4825  0.7698  1.3912
  714MOL0     H98485   1.691  10.188   9.150  0.2385  1.6261 -2.5101
  714MOL0     H98486   1.805  10.076   9.323 -3.0236  1.0357  0.2261
  714MOL0     H98487   1.963  10.101   9.243  0.3863  0.3134  3.2664
  714MOL0     H98488   1.766  10.332   9.321  0.4438 -0.1552 -0.0402
  714MOL0     H98489   1.903  10.290   9.428  1.0523 -0.1997  0.1376
  714MOL0     H98490   2.065  10.477   9.488 -3.6521 -0.1145 -2.4036
  714MOL0     H98491   2.370  10.588   9.544  0.5011  1.0994  3.8774
  714MOL0     H98492   2.369  10.438   9.636 -0.4719 -1.0541  0.0912
  714MOL0     H98493   2.226  10.538   9.622  1.5228  2.7438 -0.4678
  714MOL0     H98494   2.736  10.530   9.559  0.4359 -1.7557  3.3904
  714MOL0     H98495   2.966  10.447   9.616  1.6717 -2.1927 -0.1218
  714MOL0     H98496   3.144  10.358   9.667  1.6550 -0.1672 -0.0229
  714MOL0     H98497   3.046  10.207   9.676  1.7363 -4.3800 -1.3387
  714MOL0     H98498   3.288  10.197   9.749 -1.6045  3.7920  0.0311
  714MOL0     H98499   3.252  10.086   9.618 -0.6852  0.4999  0.8059
  714MOL0     H98500   3.365  10.356   9.569  0.6888 -0.3042 -1.5396
  714MOL0     H98501   3.356  10.220   9.449 -0.8043  0.4559 -1.3638
  714MOL0     H98502   3.497  10.086   9.604  0.2216  0.2190  0.8043
  714MOL0     H98503   3.529  10.233   9.703  1.3142  3.1946 -1.9693
  714MOL0     H98504   3.591  10.206   9.405  2.5477 -1.6893  0.1928
  714MOL0     H98505   3.627  10.349   9.504 -1.6273 -0.0833 -1.9418
  714MOL0     H98506   3.741  10.066   9.506  0.0353  0.0931  0.8669
  714MOL0     H98507   3.772  10.181   9.644  1.0779 -0.8498  0.0820
  714MOL0     H98508   3.953  10.222   9.520 -1.2880  0.2269 -0.6063
  714MOL0     H98509   3.860  10.341   9.444  0.1153  0.3906  1.9552
  714MOL0     H98510   3.958  10.241   9.263  0.2392 -0.2882 -1.7182
  714MOL0     H98511   3.798  10.174   9.263  1.7078 -0.3048 -1.1966
  714MOL0     H98512   2.969  10.213   9.254 -2.9853  0.6400 -2.3731
  714MOL0     H98513   2.752  10.288   9.194 -2.5334  0.7225  0.1571
  714MOL0     H98514   2.382  10.257   9.175 -1.2841 -0.9555 -0.2117
  714MOL0     H98515   2.132  10.258   9.124  0.9669  0.7514 -0.9409
  714MOL0     H98516   0.411  10.327   8.931 -3.8977 -0.2159  0.6105
  714MOL0     H98517   0.228  10.238   8.810 -0.2833 -0.4606  0.3770
  714MOL0     H98518   0.045   9.860   8.641  2.1915 -0.1524 -0.2402
  714MOL0     H98519  -0.161   9.774   8.554 -0.1430 -0.2914 -0.0693
  714MOL0     H98520  -0.438  10.038   8.349 -1.1246 -0.6497  0.8693
  714MOL0     H98521  -0.413   9.934   8.202 -1.0164  0.7748 -0.4262
  714MOL0     H98522  -0.556   9.837   8.456 -2.1679  2.0328  1.2235
  714MOL0     H98523  -0.565   9.780   8.278  2.2229 -0.7580  1.4075
  714MOL0     H98524  -0.777   9.888   8.353  0.3380 -0.4498  0.3667
  714MOL0     H98525  -0.689  10.024   8.404  1.2634  2.1978 -1.8073
  714MOL0     H98526  -0.635   9.955   8.114 -0.2167 -0.5255  0.4248
  714MOL0     H98527  -0.636  10.111   8.199 -1.3933  0.4032  0.7808
  714MOL0     H98528  -1.020  10.069   8.013 -0.0906  1.5462 -0.3135
  714MOL0     H98529  -0.218  10.113   8.302 -0.5336  1.3646  2.0710
  714MOL0     H98530   0.062  10.252   8.309 -2.0150 -0.9171 -1.3703
  714MOL0     H98531  -0.105  10.308   8.325  1.4119  3.5940  0.5765
  714MOL0     H98532  -0.007  10.333   8.458 -3.5472  3.1260 -1.2838
  715MOL0     O98533   5.731   3.971   1.412 -0.1468 -0.7321  0.0047
  715MOL0     C98534   5.749   4.088   1.379 -0.1466 -0.6257 -0.0838
  715MOL0     O98535   5.842   4.132   1.287 -0.5463 -0.2797 -0.6585
  715MOL0     C98536   5.943   4.058   1.255  1.0770  0.0774  0.5157
  715MOL0     C98537   6.013   3.979   1.347  0.0963 -0.4324 -0.2572
  715MOL0     C98538   6.115   3.898   1.303 -0.0675  0.2079 -0.5025
  715MOL0     C98539   6.144   3.890   1.162 -0.7595  0.8487  0.4175
  715MOL0     O98540   6.245   3.804   1.125 -0.2870 -0.3857 -0.3318
  715MOL0     C98541   6.327   3.855   1.020 -0.3878  0.2095 -0.5878
  715MOL0     C98542   6.464   3.794   1.059 -0.8157 -0.0439 -0.9210
  715MOL0     C98543   6.590   3.835   0.973  0.4932  0.3866 -0.5056
  715MOL0     C98544   6.654   3.974   1.005  1.3640  0.7624  0.4991
  715MOL0     C98545   6.772   4.010   0.923  0.3735 -0.4649  0.4122
  715MOL0     C98546   6.799   4.161   0.926 -0.3443  0.0720  0.2359
  715MOL0     C98547   6.719   4.242   0.819 -0.8193 -0.5345 -0.0531
  715MOL0     C98548   6.802   4.259   0.687 -0.0188  0.1470 -0.2227
  715MOL0     N98549   6.825   4.134   0.614  0.5170  0.9174 -0.5972
  715MOL0     C98550   6.730   4.053   0.556  0.5441  0.5433  0.3339
  715MOL0     C98551   6.811   3.952   0.497 -1.4711 -0.7176  0.1597
  715MOL0     C98552   6.757   3.831   0.430 -0.0421 -0.1362  0.1144
  715MOL0     C98553   6.712   3.732   0.534  0.2105  0.2543  0.6596
  715MOL0     C98554   6.619   3.611   0.473  0.0308  0.2521 -0.3831
  715MOL0     C98555   6.699   3.497   0.409 -1.0541 -0.4732 -1.4336
  715MOL0     O98556   6.788   3.541   0.312 -0.4470 -0.0299 -0.4777
  715MOL0     C98557   6.861   3.453   0.241  0.0581 -0.8566 -0.0252
  715MOL0     C98558   6.835   3.317   0.235  0.1911  0.2578 -0.3448
  715MOL0     C98559   6.932   3.229   0.172 -0.7878 -0.0558  0.6464
  715MOL0     C98560   6.895   3.084   0.180  0.0290  0.7006 -0.1934
  715MOL0     C98561   7.050   3.283   0.109 -0.3795  0.3449 -0.2503
  715MOL0     C98562   7.163   3.195   0.054  0.0060  0.7257  0.4464
  715MOL0     O98563   7.253   3.262  -0.026  0.2064  0.0391  0.0854
  715MOL0     C98564   7.342   3.168  -0.084  0.2887  0.0541  0.7770
  715MOL0     C98565   7.318   3.125  -0.207  0.2240 -0.1665 -0.6666
  715MOL0     C98566   7.396   3.032  -0.269  0.0517 -0.1204  0.5543
  715MOL0     C98567   7.511   2.983  -0.202  0.7230 -0.4300  0.2138
  715MOL0     O98568   7.585   2.906  -0.281 -0.0965 -0.3759 -0.1105
  715MOL0     C98569   7.717   2.865  -0.234  0.1692 -0.3147 -0.4791
  715MOL0     C98570   7.808   2.811  -0.343  0.2006  0.4852  0.5986
  715MOL0     C98571   7.951   2.783  -0.287 -0.1116  0.4210 -0.7434
  715MOL0     C98572   7.941   2.679  -0.176  0.7772  0.7020 -0.4040
  715MOL0     C98573   8.079   2.641  -0.123 -0.2864 -0.4479 -0.2856
  715MOL0     C98574   8.082   2.499  -0.088  0.1486  0.4608  0.5893
  715MOL0     C98575   8.210   2.454  -0.025  1.1146 -0.6743 -0.5992
  715MOL0     C98576   8.230   2.298  -0.014 -0.7331 -0.3547 -0.2589
  715MOL0    Cl98577   8.315   2.258   0.138  0.2576  0.0007 -0.1790
  715MOL0     C98578   7.526   3.019  -0.067 -0.0837 -0.4118 -0.4874
  715MOL0     C98579   7.442   3.114  -0.010  0.2266 -0.2919 -0.0337
  715MOL0     O98580   7.154   3.074   0.077  1.1644  0.7198 -0.2573
  715MOL0     C98581   7.065   3.416   0.111  0.1576 -0.9029  0.3335
  715MOL0     C98582   6.968   3.502   0.173 -0.8227  0.8239 -0.1049
  715MOL0     N98583   6.941   3.987   0.507 -0.0493  0.4119 -0.4570
  715MOL0     N98584   6.959   4.093   0.571 -0.8933 -0.3603  0.2100
  715MOL0     C98585   6.073   3.969   1.075  0.0068  0.5738  0.6796
  715MOL0     C98586   5.975   4.056   1.122  0.7394 -0.0091 -0.3539
  715MOL0     C98587   5.644   4.189   1.415  0.3273  0.1646 -0.3244
  715MOL0     C98588   5.667   4.327   1.390  0.2486  0.8256  0.2334
  715MOL0     C98589   5.579   4.425   1.435 -0.1553 -0.7077 -0.7115
  715MOL0     C98590   5.458   4.386   1.500 -0.5812 -0.3971  0.6718
  715MOL0     O98591   5.357   4.464   1.538 -0.1828 -0.2947  0.4087
  715MOL0     C98592   5.385   4.567   1.635 -0.3322 -0.3903 -0.1684
  715MOL0     C98593   5.271   4.663   1.637  0.6662 -0.3515 -0.5136
  715MOL0     C98594   5.140   4.618   1.700 -1.1325 -0.3021  0.5634
  715MOL0     C98595   5.072   4.508   1.615 -0.2617 -0.6589  0.2859
  715MOL0     C98596   4.940   4.488   1.674  0.1610 -0.3260  0.2583
  715MOL0     C98597   4.831   4.463   1.728 -0.3015  0.0919 -0.6630
  715MOL0     C98598   5.437   4.253   1.528  0.2804  0.2289  0.7075
  715MOL0     C98599   5.527   4.149   1.489  0.2847 -0.1010  0.3160
  715MOL0     C98600   5.474   4.008   1.520  0.0842  0.9060  0.1651
  715MOL0     H98601   6.007   3.991   1.455 -2.8345  0.9835 -0.4562
  715MOL0     H98602   6.176   3.845   1.375 -2.2022 -0.9036  0.5851
  715MOL0     H98603   6.331   3.965   1.015  2.7253  0.1392 -1.7059
  715MOL0     H98604   6.281   3.820   0.926  0.6129 -0.1955 -0.9341
  715MOL0     H98605   6.485   3.828   1.161  1.1799 -2.5518 -0.4126
  715MOL0     H98606   6.450   3.686   1.064  1.2988 -0.2946  0.8960
  715MOL0     H98607   6.662   3.757   0.999 -1.4791 -0.6974  2.2246
  715MOL0     H98608   6.559   3.834   0.868 -0.7153  1.1809 -0.1802
  715MOL0     H98609   6.579   4.049   0.982  1.2154 -0.1889 -2.6164
  715MOL0     H98610   6.668   3.980   1.113 -4.4818  2.6391  1.4807
  715MOL0     H98611   6.757   3.976   0.821  0.7982 -3.9691  1.3998
  715MOL0     H98612   6.850   3.955   0.978  1.7257  1.7126  0.8427
  715MOL0     H98613   6.775   4.204   1.023  1.3657  0.3518  0.5717
  715MOL0     H98614   6.907   4.181   0.922  0.4249 -3.0411  2.2518
  715MOL0     H98615   6.704   4.344   0.853  2.3469 -0.2942  0.8911
  715MOL0     H98616   6.626   4.184   0.809  0.1559 -2.5828  1.8698
  715MOL0     H98617   6.740   4.315   0.615  0.8028 -0.7086 -1.6465
  715MOL0     H98618   6.891   4.322   0.689 -1.5551  2.4652 -0.9264
  715MOL0     H98619   6.623   4.042   0.572  1.0719 -2.9881  2.5712
  715MOL0     H98620   6.831   3.785   0.363 -0.7186 -0.8573 -0.1578
  715MOL0     H98621   6.673   3.853   0.363  0.6298  0.8949 -0.4096
  715MOL0     H98622   6.795   3.694   0.595  0.4169 -0.6012 -0.1361
  715MOL0     H98623   6.660   3.791   0.610 -0.5409  3.4962 -2.1299
  715MOL0     H98624   6.558   3.571   0.555  0.6439  1.5054  0.7358
  715MOL0     H98625   6.556   3.652   0.393 -0.0460  2.8807  0.8862
  715MOL0     H98626   6.752   3.452   0.494 -3.0688 -0.3198 -0.0202
  715MOL0     H98627   6.635   3.420   0.366  0.0180 -1.5577 -1.1477
  715MOL0     H98628   6.749   3.274   0.284  0.2765 -1.7741 -1.8593
  715MOL0     H98629   6.815   3.069   0.253  0.8101  1.0630  0.7576
  715MOL0     H98630   6.970   3.017   0.222 -0.5122  0.9303  1.2088
  715MOL0     H98631   6.858   3.050   0.083  0.4029 -0.3214  0.0159
  715MOL0     H98632   7.235   3.170  -0.261  1.4302  0.7809 -1.7918
  715MOL0     H98633   7.396   2.994  -0.370  1.0855 -2.6209  1.4164
  715MOL0     H98634   7.773   2.943  -0.182  2.1811 -0.6821 -1.9487
  715MOL0     H98635   7.704   2.790  -0.155 -2.9736  0.1984 -0.3748
  715MOL0     H98636   7.768   2.713  -0.374  2.7186 -0.7567  1.0275
  715MOL0     H98637   7.813   2.877  -0.430 -2.9093  2.8883  2.0396
  715MOL0     H98638   7.986   2.876  -0.241  0.0156  1.1538 -2.2609
  715MOL0     H98639   8.014   2.752  -0.371 -0.8810  2.6594 -2.2495
  715MOL0     H98640   7.882   2.595  -0.213 -0.8569  1.2560  0.8262
  715MOL0     H98641   7.885   2.718  -0.091 -0.5816 -0.1455 -0.8885
  715MOL0     H98642   8.158   2.655  -0.196  0.3853  3.4464  0.9156
  715MOL0     H98643   8.108   2.703  -0.037 -1.9240 -0.7630  0.5489
  715MOL0     H98644   8.081   2.439  -0.180  2.3441  0.3391  0.5915
  715MOL0     H98645   7.995   2.483  -0.022 -0.1437  0.5911  0.2395
  715MOL0     H98646   8.208   2.496   0.076 -3.0864 -0.9065 -0.3956
  715MOL0     H98647   8.298   2.495  -0.074  1.0523 -0.6694 -0.7080
  715MOL0     H98648   8.301   2.267  -0.092 -2.0716  2.1341 -2.6493
  715MOL0     H98649   8.136   2.242  -0.023 -0.6537 -0.3932 -0.9087
  715MOL0     H98650   7.602   2.969  -0.009 -0.0998 -0.7369 -0.7462
  715MOL0     H98651   7.456   3.155   0.089  2.5255 -0.0232 -0.4178
  715MOL0     H98652   7.150   3.471   0.071 -0.7229 -1.1581 -2.0291
  715MOL0     H98653   6.979   3.609   0.179 -0.8546  0.8867 -1.0050
  715MOL0     H98654   6.092   3.974   0.968  0.6537  3.7200  0.8456
  715MOL0     H98655   5.930   4.137   1.065  0.3338  2.4022  3.0950
  715MOL0     H98656   5.751   4.360   1.330 -1.4984 -0.2879 -3.0819
  715MOL0     H98657   5.600   4.528   1.408 -2.4576 -0.1715 -0.6560
  715MOL0     H98658   5.408   4.518   1.731 -2.0457 -0.6601  0.1343
  715MOL0     H98659   5.471   4.625   1.602 -0.2520  0.3304  1.2175
  715MOL0     H98660   5.257   4.708   1.538 -0.9465 -0.8524 -0.5421
  715MOL0     H98661   5.303   4.748   1.697  3.8318 -0.9994 -1.1186
  715MOL0     H98662   5.158   4.567   1.796  1.1367 -1.9492 -0.6540
  715MOL0     H98663   5.071   4.702   1.709  0.6028  1.2924 -0.3717
  715MOL0     H98664   5.139   4.422   1.622  3.0172  1.6312 -0.2932
  715MOL0     H98665   5.061   4.541   1.511 -2.2185  1.4986  1.0975
  715MOL0     H98666   4.751   4.449   1.799 -0.8042  0.7521 -1.0807
  715MOL0     H98667   5.345   4.229   1.579 -0.1746  2.7796  1.2490
  715MOL0     H98668   5.544   3.956   1.586  0.2677 -0.4177 -1.0302
  715MOL0     H98669   5.370   4.008   1.553 -0.8965 -0.0277 -2.6394
  715MOL0     H98670   5.476   3.946   1.430 -0.8521 -1.3018  1.5761
  716MOL0     O98671   2.279   0.946   9.395 -0.5651  0.1759 -0.0919
  716MOL0     C98672   2.180   0.984   9.330  0.0262 -0.0820  0.3312
  716MOL0     O98673   2.158   0.974   9.192 -0.0155  0.2022 -0.0939
  716MOL0     C98674   2.249   0.886   9.137 -0.7780 -0.3727  0.7859
  716MOL0     C98675   2.373   0.936   9.084 -0.8011  0.5784 -0.8712
  716MOL0     C98676   2.462   0.850   9.014  0.0384 -0.3817 -0.5503
  716MOL0     C98677   2.431   0.719   9.001 -0.2793  0.1860 -0.5298
  716MOL0     O98678   2.505   0.638   8.920  0.0815 -0.5907  0.0289
  716MOL0     C98679   2.497   0.669   8.779  0.6461  0.2295 -0.1413
  716MOL0     C98680   2.630   0.726   8.735  0.8542 -0.0568  0.5810
  716MOL0     C98681   2.743   0.632   8.743  0.2052  0.4855 -0.0540
  716MOL0     C98682   2.881   0.702   8.720  0.2324  0.3584  0.0509
  716MOL0     C98683   2.995   0.619   8.777 -0.4263 -0.0201  0.7128
  716MOL0     C98684   3.140   0.670   8.768 -0.2426  0.0050 -0.1356
  716MOL0     C98685   3.162   0.769   8.648  0.1675 -0.6386 -0.1078
  716MOL0     C98686   3.301   0.827   8.641  0.2448 -0.0085 -0.5145
  716MOL0     N98687   3.308   0.892   8.516  0.3216 -0.7529  0.3672
  716MOL0     C98688   3.305   0.829   8.394 -0.0277 -0.3471  0.0260
  716MOL0     C98689   3.315   0.925   8.304 -0.1727 -0.0474  0.8158
  716MOL0     C98690   3.325   0.904   8.156 -0.4097  0.0976  0.8644
  716MOL0     C98691   3.431   0.999   8.101 -0.5858  0.2544  0.4398
  716MOL0     C98692   3.435   0.982   7.945  0.0790  0.0718 -0.3038
  716MOL0     C98693   3.564   1.024   7.882 -0.6326  0.7065 -0.5785
  716MOL0     O98694   3.666   0.921   7.909  0.0014  0.3164  0.1325
  716MOL0     C98695   3.786   0.935   7.851 -0.0775  0.2103 -0.1672
  716MOL0     C98696   3.804   1.013   7.740  0.0236  0.3252 -0.4900
  716MOL0     C98697   3.921   1.032   7.680 -0.6405  0.0796  0.2275
  716MOL0     C98698   3.909   1.114   7.552  0.3003 -0.9925 -0.2817
  716MOL0     C98699   4.038   0.957   7.714  0.2401  0.0222 -0.4731
  716MOL0     C98700   4.165   0.967   7.647  0.2826 -0.1112 -0.2328
  716MOL0     O98701   4.245   0.860   7.658  0.0121  0.7082 -0.1143
  716MOL0     C98702   4.357   0.851   7.581  0.0641 -0.0197 -0.2538
  716MOL0     C98703   4.361   0.821   7.444 -0.1820 -0.6930  1.7118
  716MOL0     C98704   4.488   0.797   7.384  0.9082 -0.1091 -0.1195
  716MOL0     C98705   4.604   0.803   7.449  0.2857  0.7866 -0.6436
  716MOL0     O98706   4.726   0.781   7.385  0.0799  0.6982  0.6339
  716MOL0     C98707   4.846   0.755   7.461  0.1852 -0.1207 -0.6711
  716MOL0     C98708   4.939   0.660   7.376 -0.0577  0.2614  0.0833
  716MOL0     C98709   5.003   0.724   7.246 -0.0118  0.9613  0.0866
  716MOL0     C98710   5.073   0.864   7.265  0.1776  0.4154  0.1694
  716MOL0     C98711   5.174   0.908   7.157  0.3465 -0.0249 -0.1041
  716MOL0     C98712   5.287   0.818   7.165  0.7489  0.7435  0.4004
  716MOL0     C98713   5.399   0.865   7.073 -0.2759  0.0839 -0.6623
  716MOL0     C98714   5.523   0.777   7.073 -0.8032  0.4042  0.0772
  716MOL0    Cl98715   5.645   0.853   6.972  0.1695 -0.1099  0.0299
  716MOL0     C98716   4.597   0.839   7.587 -0.2367  0.2123  0.5642
  716MOL0     C98717   4.479   0.868   7.652 -0.3215  1.2475 -0.6220
  716MOL0     O98718   4.199   1.079   7.607 -0.2605 -0.2978 -0.7728
  716MOL0     C98719   4.018   0.873   7.826 -0.5029  0.2852 -0.6932
  716MOL0     C98720   3.897   0.860   7.902 -0.3573 -0.3892  1.2326
  716MOL0     N98721   3.313   1.046   8.361  0.8857 -0.1017  0.0363
  716MOL0     N98722   3.317   1.027   8.488 -0.4071 -0.8533 -0.2005
  716MOL0     C98723   2.309   0.665   9.059 -0.9762  1.0630  0.6078
  716MOL0     C98724   2.220   0.753   9.122  0.3815 -0.0788 -0.9446
  716MOL0     C98725   2.070   1.053   9.405 -0.4725 -0.3597  0.0152
  716MOL0     C98726   1.940   1.068   9.346  0.5892 -0.2189 -0.5295
  716MOL0     C98727   1.840   1.133   9.416  0.1929  0.2422 -0.2175
  716MOL0     C98728   1.854   1.186   9.542  0.4575 -0.5992  0.3208
  716MOL0     O98729   1.762   1.272   9.604 -0.4097  0.1421  0.0255
  716MOL0     C98730   1.622   1.251   9.583  0.3556  0.9091  0.4590
  716MOL0     C98731   1.544   1.341   9.682  0.3697 -0.0137  1.0621
  716MOL0     C98732   1.596   1.324   9.825  0.1895 -0.0557 -0.5164
  716MOL0     C98733   1.579   1.186   9.879 -0.0239 -0.8240 -1.0611
  716MOL0     C98734   1.662   1.172  10.006  0.0916  0.1054 -0.1821
  716MOL0     C98735   1.731   1.161  10.107 -0.4595 -0.0330  0.1861
  716MOL0     C98736   1.984   1.177   9.597  0.1865  0.7761 -0.4373
  716MOL0     C98737   2.096   1.110   9.540  0.4672 -0.7371  0.8842
  716MOL0     C98738   2.226   1.111   9.621 -0.0267  0.1525  0.7742
  716MOL0     H98739   2.404   1.037   9.111  2.8316 -0.6005 -0.0067
  716MOL0     H98740   2.552   0.889   8.967  1.9046 -4.5358 -0.8362
  716MOL0     H98741   2.431   0.751   8.750  0.2523 -0.0545 -0.0475
  716MOL0     H98742   2.481   0.580   8.719  4.5064  0.1676 -1.3751
  716MOL0     H98743   2.625   0.759   8.631 -0.8046 -1.1788  0.2524
  716MOL0     H98744   2.648   0.819   8.789 -2.5627  2.3137 -1.8860
  716MOL0     H98745   2.744   0.589   8.844  2.6717 -1.0943 -0.6527
  716MOL0     H98746   2.738   0.556   8.665 -0.8759 -1.6396  1.9727
  716MOL0     H98747   2.893   0.715   8.612 -2.4569 -1.9150 -0.6226
  716MOL0     H98748   2.879   0.802   8.765  0.5568 -0.0284  0.9545
  716MOL0     H98749   2.988   0.526   8.719  0.5381  0.7568 -0.7017
  716MOL0     H98750   2.975   0.613   8.884  1.3673  0.1139  1.0700
  716MOL0     H98751   3.163   0.713   8.866  0.1472 -0.3957 -0.0484
  716MOL0     H98752   3.204   0.585   8.745 -2.6608 -1.3710 -2.2821
  716MOL0     H98753   3.096   0.856   8.657  1.6437  0.3731  1.5684
  716MOL0     H98754   3.146   0.712   8.556  1.1220 -0.6933 -0.2513
  716MOL0     H98755   3.331   0.905   8.711  1.2275  0.3955 -1.3704
  716MOL0     H98756   3.364   0.738   8.648  2.3147  1.3806 -0.5906
  716MOL0     H98757   3.288   0.724   8.375  1.8895 -0.6575 -0.1372
  716MOL0     H98758   3.226   0.909   8.109  0.1240 -2.7146 -0.7427
  716MOL0     H98759   3.357   0.801   8.143 -0.8890 -0.1885  1.8682
  716MOL0     H98760   3.404   1.101   8.131  1.0080  1.1942 -1.1464
  716MOL0     H98761   3.533   0.976   8.133 -0.6668  1.0706  1.3468
  716MOL0     H98762   3.424   0.877   7.917  2.2933 -0.7551  1.5385
  716MOL0     H98763   3.358   1.047   7.903 -0.3527 -0.9283 -1.0759
  716MOL0     H98764   3.543   1.036   7.775 -0.9599 -0.6863 -0.6908
  716MOL0     H98765   3.598   1.120   7.922  0.9291 -0.9284  2.3796
  716MOL0     H98766   3.714   1.054   7.695 -0.2843 -0.1429 -0.3083
  716MOL0     H98767   3.822   1.070   7.503  0.0112  0.8494 -1.5176
  716MOL0     H98768   3.996   1.106   7.486  0.2182  0.3895 -0.5832
  716MOL0     H98769   3.889   1.217   7.584 -0.3782 -1.1400 -0.2167
  716MOL0     H98770   4.263   0.815   7.398  1.1083  0.8658 -1.4865
  716MOL0     H98771   4.484   0.766   7.280 -1.6435 -2.6892  0.6171
  716MOL0     H98772   4.903   0.847   7.480  0.6212  0.5823 -4.5444
  716MOL0     H98773   4.820   0.703   7.554 -2.1693 -0.8135 -1.6376
  716MOL0     H98774   5.024   0.644   7.444 -0.8615 -0.2444  0.9959
  716MOL0     H98775   4.880   0.573   7.346 -0.9761  0.6214  0.8130
  716MOL0     H98776   4.914   0.732   7.184 -0.0792 -1.6654 -0.2756
  716MOL0     H98777   5.076   0.659   7.197 -2.2916 -0.9878 -0.9076
  716MOL0     H98778   5.126   0.861   7.361  1.0455 -0.4192 -0.3236
  716MOL0     H98779   4.995   0.940   7.262  1.6780  2.0151 -1.0571
  716MOL0     H98780   5.129   0.908   7.057 -2.8590 -0.7261  1.2102
  716MOL0     H98781   5.210   1.009   7.177  0.3274  0.1417 -0.8677
  716MOL0     H98782   5.256   0.717   7.136  0.5820  0.4670  1.4964
  716MOL0     H98783   5.319   0.797   7.267 -1.0316  1.4490  1.1372
  716MOL0     H98784   5.430   0.965   7.102  4.6295 -0.8799 -1.6404
  716MOL0     H98785   5.359   0.872   6.971 -0.5139  3.2976 -0.4438
  716MOL0     H98786   5.502   0.682   7.023 -1.4723  0.5449  0.0842
  716MOL0     H98787   5.554   0.748   7.173 -1.5510 -0.2392  0.1284
  716MOL0     H98788   4.683   0.852   7.651 -0.7351  2.5220  0.8738
  716MOL0     H98789   4.496   0.879   7.759  1.9753  2.3307 -1.0505
  716MOL0     H98790   4.103   0.818   7.865  1.5030  4.2691  1.1544
  716MOL0     H98791   3.898   0.792   7.986  1.5035 -1.0405  0.7367
  716MOL0     H98792   2.289   0.559   9.047 -0.7151  1.1610 -0.8680
  716MOL0     H98793   2.131   0.714   9.169  0.8262 -0.7714 -0.6568
  716MOL0     H98794   1.920   1.010   9.256 -0.7154  0.6100 -0.8021
  716MOL0     H98795   1.744   1.140   9.366  0.3427  1.6382 -0.3647
  716MOL0     H98796   1.600   1.286   9.482 -3.1212 -1.6677  0.1012
  716MOL0     H98797   1.581   1.150   9.593 -1.9702  1.6355 -0.8885
  716MOL0     H98798   1.437   1.326   9.668  0.5236  1.1802 -2.5536
  716MOL0     H98799   1.579   1.442   9.659  1.2280 -0.0011  2.3394
  716MOL0     H98800   1.705   1.338   9.825  0.3620 -1.2666  0.2697
  716MOL0     H98801   1.550   1.395   9.895 -1.3645  0.8654 -2.4064
  716MOL0     H98802   1.590   1.097   9.816  0.3806 -3.0641  1.9783
  716MOL0     H98803   1.476   1.170   9.914  0.2907  1.2741  1.0025
  716MOL0     H98804   1.812   1.156  10.177 -1.6111  3.7709  2.0481
  716MOL0     H98805   2.001   1.235   9.687 -0.5052  1.1267 -0.5259
  716MOL0     H98806   2.305   1.157   9.562 -2.5836 -1.3058 -4.3204
  716MOL0     H98807   2.221   1.171   9.713  1.9701  3.3697 -1.0584
  716MOL0     H98808   2.244   1.004   9.640 -1.8081 -0.3369 -0.0645
  717MOL0     O98809   4.265   4.774   9.263  0.1059 -0.1589  0.1687
  717MOL0     C98810   4.166   4.791   9.189  0.1813 -0.6870  0.1451
  717MOL0     O98811   4.153   4.900   9.092  0.4064  0.1998 -0.5049
  717MOL0     C98812   4.249   4.997   9.085 -0.1263  0.0389  0.4428
  717MOL0     C98813   4.260   5.098   9.191  0.3088 -0.4901 -0.6686
  717MOL0     C98814   4.353   5.200   9.183 -0.1874  0.2974  0.6765
  717MOL0     C98815   4.434   5.210   9.071  0.4413  0.0559 -0.5788
  717MOL0     O98816   4.511   5.322   9.045  0.3569  0.1281 -0.4523
  717MOL0     C98817   4.530   5.427   9.142  0.7250 -0.4586  0.0590
  717MOL0     C98818   4.634   5.520   9.075  0.6071  0.0765  0.3366
  717MOL0     C98819   4.773   5.458   9.101  0.1911 -0.3622  0.1359
  717MOL0     C98820   4.891   5.525   9.029  0.2701  0.3440 -0.2859
  717MOL0     C98821   4.951   5.642   9.096  0.0045  0.1706  0.4953
  717MOL0     C98822   5.036   5.711   8.988 -0.9553 -0.0064  0.2285
  717MOL0     C98823   5.124   5.810   9.066  0.5397  0.3191  0.6253
  717MOL0     C98824   5.205   5.889   8.961 -0.0084  0.5448 -0.0491
  717MOL0     N98825   5.300   5.978   9.025  0.3024 -0.4992 -0.2813
  717MOL0     C98826   5.417   6.016   8.968  0.4583  0.3345 -0.2502
  717MOL0     C98827   5.440   6.143   9.006  0.3406  0.5672 -0.1817
  717MOL0     C98828   5.553   6.234   8.962  0.0149 -0.2565 -0.0161
  717MOL0     C98829   5.699   6.181   8.991 -0.5265  0.3299  0.1156
  717MOL0     C98830   5.802   6.273   8.925 -0.5373 -0.1195 -0.4348
  717MOL0     C98831   5.952   6.231   8.953  0.4942 -0.7117  1.1593
  717MOL0     O98832   6.000   6.272   9.078  0.4745 -0.1729  0.7534
  717MOL0     C98833   6.129   6.301   9.098  0.0659 -0.3502  0.4657
  717MOL0     C98834   6.168   6.321   9.230  0.4549 -0.4146  0.6453
  717MOL0     C98835   6.303   6.353   9.268  0.0773 -0.4057 -0.5897
  717MOL0     C98836   6.337   6.405   9.411 -0.0194 -0.1985  0.3771
  717MOL0     C98837   6.408   6.358   9.167  0.4856 -0.8544  0.2544
  717MOL0     C98838   6.559   6.368   9.198  0.4182 -0.6900 -0.0578
  717MOL0     O98839   6.644   6.398   9.101 -0.3097  0.0199 -0.8998
  717MOL0     C98840   6.778   6.402   9.127 -1.1295  0.0219  0.7191
  717MOL0     C98841   6.873   6.476   9.043  0.0388  0.3254  0.1569
  717MOL0     C98842   7.010   6.474   9.061 -0.3061 -0.0424 -1.0330
  717MOL0     C98843   7.065   6.387   9.159  1.1817 -0.6874  0.3226
  717MOL0     O98844   7.196   6.370   9.171  0.8920 -0.5235  0.2460
  717MOL0     C98845   7.254   6.372   9.298 -0.0019 -0.5509 -0.3336
  717MOL0     C98846   7.406   6.359   9.284  0.1433 -0.0791  0.5869
  717MOL0     C98847   7.471   6.394   9.421  1.2120  0.9133  0.4517
  717MOL0     C98848   7.618   6.350   9.440 -0.5054 -0.9107  0.3711
  717MOL0     C98849   7.684   6.417   9.561  0.5165  0.1676  0.6799
  717MOL0     C98850   7.835   6.400   9.565  0.0702 -0.7052  0.4019
  717MOL0     C98851   7.886   6.446   9.699 -0.1569  0.1790  1.2561
  717MOL0     C98852   8.037   6.441   9.730 -0.2542 -0.0373  0.0378
  717MOL0    Cl98853   8.103   6.275   9.768 -0.0687 -0.1085 -0.0459
  717MOL0     C98854   6.977   6.304   9.240  0.7814 -0.0124  1.2731
  717MOL0     C98855   6.839   6.319   9.221  0.8057 -1.4546 -0.0787
  717MOL0     O98856   6.586   6.342   9.310 -0.4737  0.4095  0.1385
  717MOL0     C98857   6.366   6.339   9.035 -0.5846 -0.6913  0.3293
  717MOL0     C98858   6.227   6.334   8.999 -0.5291 -0.0591 -0.5772
  717MOL0     N98859   5.332   6.191   9.086  0.1851  0.7294  0.3634
  717MOL0     N98860   5.252   6.089   9.093  0.6404 -0.3100  0.5624
  717MOL0     C98861   4.438   5.105   8.979 -0.7755  0.0542 -0.9248
  717MOL0     C98862   4.350   4.998   8.989  0.8552 -0.7320 -0.1007
  717MOL0     C98863   4.053   4.699   9.186 -0.0193  0.7959 -0.1119
  717MOL0     C98864   3.935   4.734   9.120  0.2797  0.4195  0.0031
  717MOL0     C98865   3.811   4.664   9.118 -1.3597 -0.0024 -0.6030
  717MOL0     C98866   3.818   4.532   9.181  0.6169  0.2002  0.6466
  717MOL0     O98867   3.707   4.455   9.197  0.0947  0.0620 -0.2413
  717MOL0     C98868   3.587   4.482   9.126  0.2635  0.3642  0.1501
  717MOL0     C98869   3.502   4.354   9.125  0.6975 -0.1273 -0.1684
  717MOL0     C98870   3.471   4.313   9.268  0.1578  0.3679 -0.3728
  717MOL0     C98871   3.435   4.163   9.282  0.4337 -0.0906 -0.7300
  717MOL0     C98872   3.492   4.106   9.406 -0.1692 -0.0813 -0.7576
  717MOL0     C98873   3.554   4.078   9.506 -0.3038 -0.7313  0.5558
  717MOL0     C98874   3.935   4.490   9.260 -1.1680 -0.7733 -0.5787
  717MOL0     C98875   4.050   4.576   9.265  0.2610  0.1118 -0.1193
  717MOL0     C98876   4.151   4.524   9.362  0.3672 -0.0992 -0.1648
  717MOL0     H98877   4.201   5.088   9.281  0.0555  1.2059 -0.6019
  717MOL0     H98878   4.362   5.279   9.257  0.7565  0.0149  0.8678
  717MOL0     H98879   4.573   5.385   9.234  0.0780 -0.3227  0.4362
  717MOL0     H98880   4.433   5.474   9.163  0.1245 -0.9139 -1.5558
  717MOL0     H98881   4.616   5.523   8.967 -2.2016 -0.7108  0.7012
  717MOL0     H98882   4.631   5.621   9.117  2.3110 -0.2334  1.3092
  717MOL0     H98883   4.794   5.461   9.208  2.3777  0.0683 -0.2534
  717MOL0     H98884   4.760   5.354   9.072 -0.0747 -0.2301 -0.2375
  717MOL0     H98885   4.968   5.450   9.008 -0.1554  0.6399 -3.3974
  717MOL0     H98886   4.864   5.552   8.927  2.8189 -0.7959 -1.3389
  717MOL0     H98887   5.005   5.615   9.188 -1.8164  2.4549  2.3908
  717MOL0     H98888   4.873   5.717   9.115  0.8759  1.3449 -0.4413
  717MOL0     H98889   5.103   5.641   8.936  3.0963  0.8476  3.7537
  717MOL0     H98890   4.975   5.767   8.917  0.2098  0.6851 -0.2537
  717MOL0     H98891   5.186   5.756   9.138  1.9437 -1.5919 -1.8508
  717MOL0     H98892   5.064   5.875   9.130  2.8224  1.9228  1.2666
  717MOL0     H98893   5.266   5.815   8.908  0.4027  0.4034  0.6003
  717MOL0     H98894   5.138   5.935   8.889 -1.6575  0.4447  1.3422
  717MOL0     H98895   5.476   5.953   8.903  1.5857  1.3584 -0.2550
  717MOL0     H98896   5.526   6.326   9.016 -1.8153 -1.7836  1.8369
  717MOL0     H98897   5.542   6.261   8.857  0.6428 -0.0501 -0.0330
  717MOL0     H98898   5.716   6.171   9.098  1.4325 -1.2743 -0.2817
  717MOL0     H98899   5.714   6.079   8.954 -1.6738  0.9960 -2.3918
  717MOL0     H98900   5.787   6.277   8.816 -5.5733 -3.3977 -0.1968
  717MOL0     H98901   5.784   6.377   8.953  0.1344 -0.5629  1.8276
  717MOL0     H98902   5.949   6.123   8.940  1.9710 -0.6015 -0.5268
  717MOL0     H98903   6.005   6.273   8.867 -2.3882  1.4851  0.2869
  717MOL0     H98904   6.101   6.301   9.312  3.3540  0.4627  3.4526
  717MOL0     H98905   6.248   6.419   9.473  0.0199 -0.9851  0.6256
  717MOL0     H98906   6.389   6.501   9.403  2.3291 -1.5744 -3.4030
  717MOL0     H98907   6.402   6.343   9.474  1.0431  1.8703  1.4169
  717MOL0     H98908   6.825   6.533   8.964 -0.2530  0.9911  0.8054
  717MOL0     H98909   7.074   6.538   9.001  2.3981 -1.8762 -0.2886
  717MOL0     H98910   7.236   6.464   9.355  2.5871  0.2418 -0.6775
  717MOL0     H98911   7.223   6.285   9.358  0.6019 -0.8060 -0.3862
  717MOL0     H98912   7.439   6.258   9.261  4.0476  0.5435  2.5457
  717MOL0     H98913   7.442   6.426   9.205 -1.8064 -1.3687 -1.5124
  717MOL0     H98914   7.418   6.331   9.494  0.6829 -0.5894 -1.1665
  717MOL0     H98915   7.467   6.502   9.440 -0.2824  0.6932  1.5934
  717MOL0     H98916   7.664   6.391   9.349 -2.2723  2.9236  1.0374
  717MOL0     H98917   7.627   6.241   9.434  1.2183 -0.7433 -1.0172
  717MOL0     H98918   7.662   6.523   9.573  2.9509  0.6295  1.6142
  717MOL0     H98919   7.639   6.364   9.646 -1.9122  0.8895 -0.0786
  717MOL0     H98920   7.881   6.455   9.482  1.9317 -1.3063  0.9826
  717MOL0     H98921   7.863   6.295   9.551  2.0044  0.0359 -1.9250
  717MOL0     H98922   7.834   6.391   9.779 -0.6710  1.3883  1.7672
  717MOL0     H98923   7.860   6.552   9.702 -0.5052  0.2238 -1.1694
  717MOL0     H98924   8.053   6.509   9.815  2.0063 -1.5664  0.9285
  717MOL0     H98925   8.081   6.477   9.637  0.0940 -0.3111  0.0937
  717MOL0     H98926   7.030   6.244   9.313 -0.9017  0.4424  2.9561
  717MOL0     H98927   6.797   6.253   9.296 -0.8280 -0.4614 -0.0596
  717MOL0     H98928   6.433   6.352   8.951 -1.5954  2.5554 -0.1253
  717MOL0     H98929   6.186   6.348   8.900 -1.3050  0.4212 -0.1993
  717MOL0     H98930   4.516   5.114   8.903 -1.1313  2.2308 -1.0857
  717MOL0     H98931   4.350   4.915   8.919  4.7615 -1.1158  0.0955
  717MOL0     H98932   3.927   4.829   9.068 -1.1256 -0.0681 -0.7302
  717MOL0     H98933   3.721   4.703   9.071 -0.2589  1.3544 -1.6767
  717MOL0     H98934   3.533   4.553   9.190  0.4601  0.0303  0.6908
  717MOL0     H98935   3.599   4.519   9.024  0.5501 -0.5637 -0.1542
  717MOL0     H98936   3.553   4.267   9.082  2.0720  0.4679  0.2065
  717MOL0     H98937   3.422   4.380   9.055  2.0038  1.0957 -1.2747
  717MOL0     H98938   3.563   4.323   9.327  0.8342 -2.5411 -0.7606
  717MOL0     H98939   3.394   4.381   9.305 -0.2800 -0.5284  0.4085
  717MOL0     H98940   3.472   4.109   9.195  0.6569  0.0444 -0.7214
  717MOL0     H98941   3.330   4.135   9.268  0.3396  0.6625 -1.7257
  717MOL0     H98942   3.597   4.060   9.603 -3.0680 -0.8662  1.8424
  717MOL0     H98943   3.932   4.399   9.321 -0.3757 -1.5309 -1.6502
  717MOL0     H98944   4.244   4.500   9.310  1.7289  2.2512  1.0524
  717MOL0     H98945   4.169   4.605   9.433 -0.5112 -1.8155  2.1502
  717MOL0     H98946   4.104   4.439   9.412 -2.0480  1.3790  0.2545
  718MOL0     O98947   4.417   1.637   4.076  0.5098  0.5292 -0.2954
  718MOL0     C98948   4.413   1.597   4.194  0.2409  0.2832  0.0863
  718MOL0     O98949   4.514   1.608   4.277  0.6020  0.1883  0.0671
  718MOL0     C98950   4.609   1.699   4.247 -0.5318 -0.2641  1.3903
  718MOL0     C98951   4.688   1.707   4.129  0.1553  0.1465  0.3007
  718MOL0     C98952   4.804   1.788   4.123 -1.1702  0.7344 -0.0345
  718MOL0     C98953   4.823   1.884   4.217  0.1643 -0.4006  0.3077
  718MOL0     O98954   4.931   1.962   4.200  0.2995 -0.0244 -0.0977
  718MOL0     C98955   4.911   2.099   4.242  0.1998  0.7595 -0.5747
  718MOL0     C98956   5.032   2.173   4.175 -0.0329 -0.1351 -0.3213
  718MOL0     C98957   5.023   2.172   4.026  0.1691  0.2789 -0.0531
  718MOL0     C98958   5.155   2.208   3.957  0.6550 -0.0016 -0.3117
  718MOL0     C98959   5.258   2.097   3.967 -0.0704  0.9821 -0.3967
  718MOL0     C98960   5.319   2.095   3.822 -0.0674  0.8273  0.3692
  718MOL0     C98961   5.445   2.001   3.823  0.0502 -0.1547 -0.0211
  718MOL0     C98962   5.520   2.009   3.695  1.1126  0.2420  0.1575
  718MOL0     N98963   5.657   1.965   3.697  0.1173  0.4257 -0.1030
  718MOL0     C98964   5.699   1.833   3.709  0.5834 -0.2556 -0.4937
  718MOL0     C98965   5.832   1.843   3.686  0.2012 -0.8862 -0.1630
  718MOL0     C98966   5.926   1.730   3.668 -0.4276 -0.5289 -0.4340
  718MOL0     C98967   6.015   1.692   3.789  0.2610 -0.1706  0.7907
  718MOL0     C98968   5.940   1.607   3.890 -0.5524  0.5349  1.0193
  718MOL0     C98969   6.040   1.560   4.003  0.3352  0.8400  0.2568
  718MOL0     O98970   6.054   1.663   4.105 -0.5636  0.6913 -0.8322
  718MOL0     C98971   6.186   1.685   4.140  0.0124 -0.0046 -0.5699
  718MOL0     C98972   6.243   1.593   4.230  0.3466 -0.0774 -0.0781
  718MOL0     C98973   6.376   1.597   4.265  0.8287  0.2714 -0.7743
  718MOL0     C98974   6.415   1.494   4.376  0.1924 -0.0567 -0.5806
  718MOL0     C98975   6.458   1.699   4.208 -0.5527  0.0523 -0.5778
  718MOL0     C98976   6.600   1.723   4.249  0.1969 -0.4117 -0.3444
  718MOL0     O98977   6.671   1.611   4.278  0.1753  0.3296  0.9019
  718MOL0     C98978   6.791   1.598   4.337 -0.3308 -0.4525  0.7308
  718MOL0     C98979   6.836   1.467   4.358 -0.2890  0.4420  0.1102
  718MOL0     C98980   6.958   1.449   4.428  0.0676 -0.2115  0.8649
  718MOL0     C98981   7.050   1.561   4.456  1.0054 -0.0420  0.1909
  718MOL0     O98982   7.177   1.548   4.513 -0.0470  0.6364  0.4296
  718MOL0     C98983   7.226   1.412   4.527  0.9425 -0.3584  0.7119
  718MOL0     C98984   7.368   1.417   4.587 -0.2321 -0.5824 -0.0156
  718MOL0     C98985   7.459   1.504   4.508 -0.6214 -0.0624 -0.5685
  718MOL0     C98986   7.603   1.467   4.509 -0.1219 -0.0535 -0.7632
  718MOL0     C98987   7.701   1.561   4.442 -0.1474  0.3805 -0.3815
  718MOL0     C98988   7.840   1.497   4.448  0.3504  1.4044  1.2625
  718MOL0     C98989   7.944   1.608   4.473  0.0231  0.4476 -0.2025
  718MOL0     C98990   8.009   1.668   4.348  0.3633  0.3320  0.3784
  718MOL0    Cl98991   8.107   1.541   4.260  0.1505 -0.3332  0.2262
  718MOL0     C98992   6.996   1.689   4.433 -0.4539  0.3415  0.4845
  718MOL0     C98993   6.870   1.709   4.372 -0.4941  0.0314 -0.8713
  718MOL0     O98994   6.639   1.838   4.257 -0.4459  0.1323  0.2140
  718MOL0     C98995   6.402   1.788   4.114  0.5946 -0.6482  0.3217
  718MOL0     C98996   6.269   1.774   4.072  0.1974 -0.7842  0.2041
  718MOL0     N98997   5.862   1.980   3.664  0.0260  0.5204 -0.1141
  718MOL0     N98998   5.753   2.051   3.667 -0.5546  0.6189  0.4958
  718MOL0     C98999   4.749   1.888   4.335  0.5594  0.9232  0.6159
  718MOL0     C99000   4.640   1.800   4.348 -0.0925  0.2412 -0.4007
  718MOL0     C99001   4.276   1.524   4.230 -0.1247 -0.5296 -0.7826
  718MOL0     C99002   4.280   1.457   4.360  1.0144  0.2045  0.0065
  718MOL0     C99003   4.170   1.387   4.404  1.1672  0.0581 -0.3739
  718MOL0     C99004   4.045   1.415   4.341 -0.9219 -0.3152  0.3671
  718MOL0     O99005   3.938   1.375   4.414 -0.3775  0.2270  0.3875
  718MOL0     C99006   3.799   1.414   4.391  0.6728 -1.1629  0.5335
  718MOL0     C99007   3.789   1.570   4.411 -0.8261 -0.4508 -0.1248
  718MOL0     C99008   3.650   1.618   4.376  0.4637  0.3641  0.1765
  718MOL0     C99009   3.618   1.763   4.400 -0.6198 -0.1632 -0.2586
  718MOL0     C99010   3.484   1.793   4.343  0.0337  0.1640  0.0717
  718MOL0     C99011   3.373   1.797   4.298  0.5006 -1.1212  0.3681
  718MOL0     C99012   4.038   1.469   4.214  0.1558 -0.0348 -0.3977
  718MOL0     C99013   4.153   1.530   4.161  0.8747  0.4409  0.9485
  718MOL0     C99014   4.137   1.587   4.021 -0.5651  0.6302 -0.5772
  718MOL0     H99015   4.659   1.638   4.051 -0.1746  0.0871  0.4740
  718MOL0     H99016   4.880   1.769   4.048 -0.3776  0.1705  0.8819
  718MOL0     H99017   4.906   2.094   4.351 -0.3663 -2.2170 -0.6686
  718MOL0     H99018   4.821   2.148   4.204 -0.9961 -0.1528  1.0128
  718MOL0     H99019   5.038   2.279   4.204 -0.3947 -0.8356  2.6276
  718MOL0     H99020   5.126   2.138   4.219  0.5502  4.0094  2.3056
  718MOL0     H99021   4.989   2.073   3.995  1.0580  0.5485 -2.0426
  718MOL0     H99022   4.936   2.233   4.001 -0.6856 -0.7110  0.4263
  718MOL0     H99023   5.121   2.234   3.856 -2.0047 -0.1623  0.4791
  718MOL0     H99024   5.201   2.296   4.002  1.7148 -0.5241 -0.3388
  718MOL0     H99025   5.219   1.995   3.979  2.5787  0.0586  1.2590
  718MOL0     H99026   5.334   2.106   4.045  0.8527  0.7723 -1.2411
  718MOL0     H99027   5.246   2.048   3.755  2.5774 -1.5981 -1.0599
  718MOL0     H99028   5.341   2.195   3.785  3.6307  0.7975  2.0675
  718MOL0     H99029   5.408   1.899   3.837 -1.4020  0.1723 -1.1126
  718MOL0     H99030   5.509   2.037   3.904  1.0110 -1.4011 -0.1928
  718MOL0     H99031   5.465   1.950   3.621  2.7384 -0.0178 -0.9022
  718MOL0     H99032   5.516   2.113   3.663  0.4301  0.0948 -0.2775
  718MOL0     H99033   5.634   1.754   3.743 -0.8123  1.5124  1.1241
  718MOL0     H99034   5.992   1.767   3.589 -0.5532 -3.0384 -1.8172
  718MOL0     H99035   5.894   1.637   3.620 -1.2112  0.7785 -2.5757
  718MOL0     H99036   6.102   1.629   3.768 -0.6827 -3.2527  4.9594
  718MOL0     H99037   6.049   1.785   3.836 -1.2172 -0.2170  1.9926
  718MOL0     H99038   5.860   1.657   3.945 -1.5720  0.8303 -0.6895
  718MOL0     H99039   5.912   1.511   3.846  1.2873 -0.7555  2.4440
  718MOL0     H99040   6.001   1.470   4.052 -0.8061  0.2003 -1.7052
  718MOL0     H99041   6.138   1.536   3.963 -0.1526 -1.6968  0.4160
  718MOL0     H99042   6.177   1.527   4.284  0.0390  0.6710  0.4760
  718MOL0     H99043   6.364   1.398   4.372 -0.0760  0.1110 -2.0251
  718MOL0     H99044   6.384   1.539   4.471  0.7906  0.1997 -0.5035
  718MOL0     H99045   6.524   1.489   4.381  0.3303  2.1010 -0.1322
  718MOL0     H99046   6.781   1.381   4.321 -1.1690  1.5308 -1.2264
  718MOL0     H99047   6.996   1.347   4.427  2.2206  0.4974 -1.4359
  718MOL0     H99048   7.158   1.364   4.598  0.4721  0.8649  1.1158
  718MOL0     H99049   7.227   1.363   4.430 -1.4710  2.0799 -0.6779
  718MOL0     H99050   7.362   1.457   4.689 -0.7316 -0.9855  0.1177
  718MOL0     H99051   7.411   1.317   4.592 -0.4578 -0.6530  4.3779
  718MOL0     H99052   7.450   1.611   4.530  0.7903  0.1846 -1.0901
  718MOL0     H99053   7.427   1.499   4.404 -1.7145  1.2855 -0.3252
  718MOL0     H99054   7.604   1.366   4.466 -2.2078  0.4654 -2.1834
  718MOL0     H99055   7.639   1.468   4.613  0.4063 -1.9998 -0.8795
  718MOL0     H99056   7.675   1.572   4.336 -0.4167  2.6725 -0.1302
  718MOL0     H99057   7.698   1.656   4.497 -0.7543  0.0572  0.1482
  718MOL0     H99058   7.868   1.438   4.361 -0.9517 -0.1203  1.8102
  718MOL0     H99059   7.844   1.420   4.526 -0.0291 -2.0963 -1.9072
  718MOL0     H99060   8.025   1.562   4.531 -0.8412  0.6493  1.2224
  718MOL0     H99061   7.904   1.681   4.544 -0.5608  1.1404 -1.2122
  718MOL0     H99062   8.075   1.754   4.363  1.5898 -0.6375  0.7205
  718MOL0     H99063   7.930   1.686   4.275  0.9762  0.8955 -0.1616
  718MOL0     H99064   7.051   1.777   4.467  2.1577 -1.4580  1.2538
  718MOL0     H99065   6.841   1.814   4.373 -0.6665 -0.0099 -1.3855
  718MOL0     H99066   6.470   1.852   4.058  2.1250  1.4606  4.2267
  718MOL0     H99067   6.231   1.838   3.993  1.9270 -0.2335 -0.2146
  718MOL0     H99068   4.772   1.960   4.413  0.4220  2.4971 -0.7353
  718MOL0     H99069   4.578   1.797   4.437 -0.4522  0.2116 -0.6485
  718MOL0     H99070   4.370   1.461   4.420 -0.9568 -1.0295  3.3037
  718MOL0     H99071   4.185   1.317   4.485  1.4483 -0.7097 -1.0794
  718MOL0     H99072   3.760   1.379   4.295 -0.8476 -0.8011  0.9896
  718MOL0     H99073   3.746   1.364   4.473 -0.8879  0.2874  0.4764
  718MOL0     H99074   3.862   1.619   4.347 -2.1691 -0.5683 -1.8063
  718MOL0     H99075   3.817   1.602   4.512 -2.6990  1.2931 -0.1030
  718MOL0     H99076   3.621   1.607   4.272  2.3691 -0.0141 -0.3543
  718MOL0     H99077   3.581   1.553   4.430  0.1556  1.2222  0.8596
  718MOL0     H99078   3.692   1.818   4.341 -1.2732 -0.3305 -1.2573
  718MOL0     H99079   3.622   1.786   4.506 -2.2670 -3.0129  0.5245
  718MOL0     H99080   3.272   1.798   4.262  0.6524  0.8651 -0.1172
  718MOL0     H99081   3.937   1.481   4.178 -0.3890  1.2390  1.4016
  718MOL0     H99082   4.227   1.571   3.960  1.3540 -0.1179  2.2648
  718MOL0     H99083   4.047   1.546   3.974 -2.5018 -0.6353  3.7164
  718MOL0     H99084   4.119   1.695   4.024 -3.1294  0.3444 -2.3269
  719MOL0     O99085   7.375   4.188   6.008 -0.1936  0.4434  0.6612
  719MOL0     C99086   7.307   4.091   6.048  0.6290 -0.3564 -0.9030
  719MOL0     O99087   7.362   3.968   6.087 -0.8875  0.6475 -0.0257
  719MOL0     C99088   7.495   3.940   6.047  0.2936  0.4550 -0.4991
  719MOL0     C99089   7.517   3.857   5.933 -0.8137 -0.0985 -0.4200
  719MOL0     C99090   7.651   3.827   5.897 -0.3439 -0.2392 -0.5204
  719MOL0     C99091   7.757   3.887   5.963 -0.4311  0.2373 -1.0189
  719MOL0     O99092   7.890   3.866   5.924 -0.9225 -0.3385  0.7656
  719MOL0     C99093   7.999   3.915   6.008  0.0203  0.1679  0.5843
  719MOL0     C99094   8.121   3.854   5.938  0.7070 -0.0635 -0.1473
  719MOL0     C99095   8.248   3.857   6.023  0.2926  0.2627 -0.8150
  719MOL0     C99096   8.380   3.858   5.944  1.2582  0.7037  0.3731
  719MOL0     C99097   8.494   3.894   6.047  0.0135 -0.5735 -0.6824
  719MOL0     C99098   8.627   3.868   5.983 -0.3297  0.2798 -0.1330
  719MOL0     C99099   8.744   3.879   6.077 -0.0427  0.0381 -0.7983
  719MOL0     C99100   8.881   3.846   6.013  0.2939  0.1659 -0.6803
  719MOL0     N99101   8.994   3.833   6.102  0.3827 -0.8111 -0.5241
  719MOL0     C99102   8.998   3.786   6.235 -0.0734  0.0441 -0.0118
  719MOL0     C99103   9.131   3.782   6.261 -0.7134 -0.0251 -0.3020
  719MOL0     C99104   9.192   3.731   6.384 -0.1201  0.2913 -0.8611
  719MOL0     C99105   9.208   3.578   6.367  0.0952 -0.4340  0.8303
  719MOL0     C99106   9.235   3.517   6.498 -0.2892  0.3993 -1.1098
  719MOL0     C99107   9.314   3.386   6.493  0.7307  0.4550 -0.0323
  719MOL0     O99108   9.450   3.404   6.470 -0.5111  0.5324 -0.4556
  719MOL0     C99109   9.532   3.293   6.469 -0.0312  0.1595 -0.9458
  719MOL0     C99110   9.494   3.177   6.404 -0.6031  0.1987 -0.2159
  719MOL0     C99111   9.575   3.058   6.420 -0.0996 -0.2512  0.4270
  719MOL0     C99112   9.515   2.938   6.352  1.0172 -0.1184 -0.1345
  719MOL0     C99113   9.696   3.066   6.489  0.4670  0.3477  0.7551
  719MOL0     C99114   9.786   2.956   6.506 -0.8079 -0.7063  0.0537
  719MOL0     O99115   9.867   2.951   6.619 -0.2178  0.3379 -0.0340
  719MOL0     C99116   9.932   2.834   6.650  0.1143  0.3718  0.3131
  719MOL0     C99117  10.068   2.823   6.659  0.1426  0.2495  0.2712
  719MOL0     C99118  10.124   2.705   6.695  0.2702 -0.8866  0.5369
  719MOL0     C99119  10.054   2.593   6.730 -0.1681 -0.2792 -0.1120
  719MOL0     O99120  10.112   2.470   6.749 -0.3243 -0.5551  0.2813
  719MOL0     C99121  10.241   2.451   6.681  0.4166  0.0945  0.2671
  719MOL0     C99122  10.281   2.301   6.687 -0.8328  0.6674 -0.6434
  719MOL0     C99123  10.215   2.218   6.575  0.8117  0.1080 -1.0076
  719MOL0     C99124  10.068   2.203   6.610  0.3284  0.5240  0.6750
  719MOL0     C99125   9.996   2.116   6.506 -0.7959  0.4730 -0.5433
  719MOL0     C99126   9.842   2.139   6.503  0.2912  0.1124  0.6875
  719MOL0     C99127   9.755   2.023   6.432 -0.6488 -0.6060  0.1649
  719MOL0     C99128   9.772   2.028   6.286  0.2127  0.5703 -0.3031
  719MOL0    Cl99129   9.708   1.887   6.192  0.2975  0.1290 -0.1091
  719MOL0     C99130   9.918   2.605   6.733  0.3051  0.6131 -0.2927
  719MOL0     C99131   9.855   2.722   6.689  0.5532  0.2049 -0.4452
  719MOL0     O99132   9.771   2.866   6.428  0.1431 -0.3973 -0.4081
  719MOL0     C99133   9.731   3.186   6.552 -0.0564 -0.2513  0.6993
  719MOL0     C99134   9.652   3.302   6.532  0.6086  0.4921 -0.9654
  719MOL0     N99135   9.201   3.817   6.147  0.0613 -0.1292 -0.8015
  719MOL0     N99136   9.118   3.855   6.059 -0.5270 -0.3376  0.1992
  719MOL0     C99137   7.725   3.959   6.086 -0.0840 -0.1092 -0.1420
  719MOL0     C99138   7.597   3.982   6.129  0.4979 -0.8281  0.3649
  719MOL0     C99139   7.157   4.110   6.065  0.3948  0.5093  0.1095
  719MOL0     C99140   7.099   4.241   6.081  0.5123  0.0769 -1.3754
  719MOL0     C99141   6.958   4.252   6.089  0.4644 -1.4029  0.5475
  719MOL0     C99142   6.874   4.142   6.092  0.4934  0.2641  0.0199
  719MOL0     O99143   6.733   4.147   6.098 -0.5696  0.3180 -0.3122
  719MOL0     C99144   6.659   4.266   6.068  0.4957 -0.3160  0.0215
  719MOL0     C99145   6.630   4.354   6.197  0.3030 -0.4486 -1.0964
  719MOL0     C99146   6.514   4.293   6.284  0.5879 -0.0678 -0.0817
  719MOL0     C99147   6.580   4.188   6.380 -0.5367 -0.2509 -0.0293
  719MOL0     C99148   6.488   4.143   6.476  0.5423  0.4477  1.0061
  719MOL0     C99149   6.414   4.092   6.557  1.3398 -0.3589 -0.0189
  719MOL0     C99150   6.934   4.011   6.070  0.0882 -0.5474 -0.6928
  719MOL0     C99151   7.071   3.993   6.069  0.3231  0.0036  0.1748
  719MOL0     C99152   7.116   3.850   6.069 -0.4696 -0.0235  0.2372
  719MOL0     H99153   7.445   3.811   5.867  0.5901 -1.1924 -1.2400
  719MOL0     H99154   7.683   3.770   5.811  0.1960 -0.0853 -0.4264
  719MOL0     H99155   7.989   3.854   6.099  0.6416 -0.0597  0.5057
  719MOL0     H99156   7.987   4.019   6.040  2.3165  0.2173  1.5287
  719MOL0     H99157   8.103   3.748   5.921 -0.3978  0.1168 -0.1865
  719MOL0     H99158   8.127   3.904   5.841  2.1035 -1.0030 -0.5693
  719MOL0     H99159   8.250   3.944   6.089 -1.2308 -2.0745  2.6043
  719MOL0     H99160   8.259   3.766   6.083  1.5616 -0.9542 -2.7919
  719MOL0     H99161   8.398   3.759   5.901  0.6982 -0.2842  2.3055
  719MOL0     H99162   8.387   3.921   5.855  1.2413  1.4023  0.8592
  719MOL0     H99163   8.490   3.822   6.129  2.5585 -0.2003 -0.1358
  719MOL0     H99164   8.482   3.991   6.097 -0.6569 -1.2931  0.5953
  719MOL0     H99165   8.625   3.764   5.950  1.1172 -0.3030  1.4401
  719MOL0     H99166   8.639   3.928   5.892 -1.7027  0.6069 -0.1163
  719MOL0     H99167   8.714   3.832   6.171 -3.7056  1.5704 -1.0450
  719MOL0     H99168   8.753   3.987   6.095 -3.0890  0.5112 -1.6042
  719MOL0     H99169   8.874   3.757   5.949 -0.4693  0.4842 -1.0592
  719MOL0     H99170   8.900   3.924   5.938 -0.9236  1.4657  0.3335
  719MOL0     H99171   8.916   3.780   6.306 -0.0039 -1.3375 -0.0151
  719MOL0     H99172   9.123   3.743   6.468  1.1946 -3.1862  0.9162
  719MOL0     H99173   9.279   3.785   6.424 -1.1275  1.2813  0.0761
  719MOL0     H99174   9.119   3.543   6.314 -0.0314  1.2688 -0.1348
  719MOL0     H99175   9.288   3.566   6.294 -0.4367  1.8912 -0.2246
  719MOL0     H99176   9.293   3.591   6.555 -0.7874 -1.8795  2.6643
  719MOL0     H99177   9.139   3.498   6.547 -1.1184  3.0124 -1.5031
  719MOL0     H99178   9.301   3.342   6.592 -4.3342  4.3638  1.5084
  719MOL0     H99179   9.272   3.314   6.422 -1.7693  1.4770  0.2775
  719MOL0     H99180   9.403   3.173   6.344 -0.5525 -0.0505 -0.2815
  719MOL0     H99181   9.411   2.959   6.324  0.5903  1.1005  2.1299
  719MOL0     H99182   9.503   2.858   6.425  0.6688  0.3907  0.3721
  719MOL0     H99183   9.580   2.903   6.271  0.8356 -0.4104 -0.1527
  719MOL0     H99184  10.139   2.905   6.649  1.4456 -0.9299 -0.5235
  719MOL0     H99185  10.230   2.709   6.720 -0.0666 -2.1110  2.4248
  719MOL0     H99186  10.249   2.487   6.579  0.1451  2.1248  0.9210
  719MOL0     H99187  10.317   2.516   6.727 -2.7240  2.5880  2.4361
  719MOL0     H99188  10.387   2.287   6.663 -0.7085 -1.5350  0.8693
  719MOL0     H99189  10.263   2.264   6.788  0.7926 -0.2777 -0.6699
  719MOL0     H99190  10.272   2.125   6.577 -0.6499 -0.9046  3.3475
  719MOL0     H99191  10.230   2.262   6.475 -0.7310 -0.1758 -1.3929
  719MOL0     H99192  10.021   2.302   6.614  1.0257  0.8413  1.1389
  719MOL0     H99193  10.071   2.159   6.710  1.4267  0.1707  0.4948
  719MOL0     H99194  10.044   2.140   6.411  1.2828  0.5854  0.4784
  719MOL0     H99195  10.021   2.013   6.533 -2.9304  0.0226 -0.1209
  719MOL0     H99196   9.817   2.236   6.458 -1.2789 -1.1178 -1.2733
  719MOL0     H99197   9.801   2.147   6.604 -3.2849  2.2047 -0.7162
  719MOL0     H99198   9.651   2.040   6.460 -0.3543 -0.1336  0.9819
  719MOL0     H99199   9.790   1.927   6.469  1.8333  0.0044 -0.4186
  719MOL0     H99200   9.878   2.043   6.264  0.3912 -0.1130  0.0521
  719MOL0     H99201   9.715   2.114   6.250  0.3042  1.0939  0.7520
  719MOL0     H99202   9.868   2.511   6.757  3.8946 -1.5599 -0.5883
  719MOL0     H99203   9.747   2.720   6.698  0.5641  1.7959  0.3664
  719MOL0     H99204   9.836   3.207   6.573  1.0356 -2.1892 -2.1236
  719MOL0     H99205   9.684   3.398   6.572 -2.1113  0.3312  1.9624
  719MOL0     H99206   7.803   3.997   6.150  0.0726 -1.7632  0.7209
  719MOL0     H99207   7.581   4.036   6.222 -2.0888 -1.8606  0.6028
  719MOL0     H99208   7.171   4.321   6.074  2.1353 -0.8426  2.4260
  719MOL0     H99209   6.919   4.353   6.095 -1.8121 -2.2298  0.5720
  719MOL0     H99210   6.707   4.330   5.993  0.8400 -1.4781 -0.7679
  719MOL0     H99211   6.562   4.236   6.027  1.4621 -1.7795 -1.3071
  719MOL0     H99212   6.603   4.455   6.165  4.5344  0.4535 -2.4157
  719MOL0     H99213   6.717   4.374   6.260 -1.4980  1.3094  0.9771
  719MOL0     H99214   6.471   4.366   6.354  0.3183 -0.6799  0.4054
  719MOL0     H99215   6.434   4.250   6.222 -2.2615 -2.2338  4.5407
  719MOL0     H99216   6.655   4.244   6.437 -2.4666  3.0306 -0.4081
  719MOL0     H99217   6.631   4.106   6.330  0.8062  1.4985 -1.7014
  719MOL0     H99218   6.345   4.062   6.633 -1.8504 -0.5186 -2.7970
  719MOL0     H99219   6.858   3.935   6.060 -1.7628  1.1684 -0.2091
  719MOL0     H99220   7.035   3.777   6.064 -0.7959  0.3954 -0.9209
  719MOL0     H99221   7.177   3.828   5.981  2.1686 -1.1548  2.1851
  719MOL0     H99222   7.175   3.825   6.158  0.5643  1.6673  0.0676
  720MOL0     O99223   4.033   7.854   2.983  0.0722  0.2775  0.5072
  720MOL0     C99224   3.936   7.913   3.022  0.5674 -0.6428  0.1839
  720MOL0     O99225   3.933   8.019   3.103 -0.2288 -0.0185  0.1179
  720MOL0     C99226   4.052   8.046   3.175 -0.4558  0.4024 -0.6497
  720MOL0     C99227   4.148   8.139   3.127 -0.1547  0.1646 -0.3787
  720MOL0     C99228   4.262   8.185   3.201 -0.3092  0.6859  0.0500
  720MOL0     C99229   4.289   8.113   3.322 -0.2731  0.4781 -0.3601
  720MOL0     O99230   4.396   8.142   3.404  0.0361 -0.9986 -0.0538
  720MOL0     C99231   4.491   8.249   3.351  0.2410  1.3228  0.8132
  720MOL0     C99232   4.597   8.247   3.458 -0.0385  0.7474 -0.6039
  720MOL0     C99233   4.713   8.342   3.431  0.0653 -0.7441  0.4744
  720MOL0     C99234   4.822   8.311   3.533 -0.0055  0.4628 -0.3087
  720MOL0     C99235   4.942   8.402   3.528 -0.3187 -0.4015 -0.3435
  720MOL0     C99236   5.033   8.366   3.642 -0.1480 -0.4366 -0.5589
  720MOL0     C99237   5.114   8.494   3.667  0.1617  0.1932 -0.1689
  720MOL0     C99238   5.233   8.470   3.757 -0.1102 -0.1129  0.4287
  720MOL0     N99239   5.323   8.585   3.750 -0.0035  0.8075 -0.1511
  720MOL0     C99240   5.293   8.717   3.772  0.5161  0.3631 -0.9750
  720MOL0     C99241   5.391   8.793   3.719 -0.3313 -0.1343  0.6963
  720MOL0     C99242   5.398   8.946   3.734  0.9398  0.5003  1.0923
  720MOL0     C99243   5.538   8.988   3.779 -1.0343  0.6251 -0.2867
  720MOL0     C99244   5.545   9.140   3.780 -0.2583  0.2232 -0.3066
  720MOL0     C99245   5.633   9.194   3.893 -0.9455  0.0102  0.1021
  720MOL0     O99246   5.639   9.336   3.904 -0.7897 -0.7842  1.1176
  720MOL0     C99247   5.763   9.392   3.882 -0.1385  0.6288 -0.3680
  720MOL0     C99248   5.785   9.465   3.766 -0.4447 -0.5267 -0.2510
  720MOL0     C99249   5.912   9.522   3.745 -0.1490 -0.5038 -0.7798
  720MOL0     C99250   5.935   9.598   3.620 -0.1925  0.4582 -0.1040
  720MOL0     C99251   6.016   9.511   3.846  0.3558  0.8324 -0.4115
  720MOL0     C99252   6.151   9.570   3.830  0.2457 -0.6780 -0.2098
  720MOL0     O99253   6.195   9.635   3.939  0.2378  0.0385 -0.0963
  720MOL0     C99254   6.328   9.667   3.931 -0.6301  0.0071 -0.2705
  720MOL0     C99255   6.416   9.567   3.959  0.0452 -0.5196  0.4994
  720MOL0     C99256   6.555   9.597   3.962  0.0836  0.5401 -0.4357
  720MOL0     C99257   6.603   9.724   3.945 -0.1768 -0.5301 -0.4127
  720MOL0     O99258   6.735   9.763   3.952 -0.0072  0.0167 -0.1250
  720MOL0     C99259   6.843   9.686   3.903 -0.7666 -0.3072  0.9353
  720MOL0     C99260   6.856   9.708   3.753  0.4205 -0.5324 -0.4832
  720MOL0     C99261   6.981   9.629   3.688  0.4177 -0.2617  0.6760
  720MOL0     C99262   6.956   9.473   3.668 -0.3951  0.3605  0.5426
  720MOL0     C99263   7.044   9.408   3.561  0.2083 -0.7959 -0.2793
  720MOL0     C99264   7.191   9.442   3.570  0.3133  0.1999 -0.9619
  720MOL0     C99265   7.257   9.401   3.438 -0.6934 -0.3573  0.0540
  720MOL0     C99266   7.407   9.403   3.437 -1.0536  0.3214 -0.2060
  720MOL0    Cl99267   7.478   9.247   3.510  0.1742  0.1647  0.3325
  720MOL0     C99268   6.506   9.820   3.933  0.2133 -0.3785 -0.4305
  720MOL0     C99269   6.370   9.800   3.918 -0.1500  0.7654 -0.4778
  720MOL0     O99270   6.213   9.545   3.723 -0.1449 -0.4618  0.1556
  720MOL0     C99271   5.986   9.440   3.961 -0.4747 -0.4047 -0.2176
  720MOL0     C99272   5.868   9.370   3.970 -0.5605 -0.1413 -0.6807
  720MOL0     N99273   5.472   8.703   3.645 -0.9901  0.1842 -0.4022
  720MOL0     N99274   5.434   8.581   3.669  0.3733  0.4403 -0.3557
  720MOL0     C99275   4.199   8.016   3.369  0.6431 -0.3339  0.0099
  720MOL0     C99276   4.079   7.988   3.307  0.3532  0.8272 -0.0746
  720MOL0     C99277   3.802   7.856   2.988  0.1634  1.3921  0.9748
  720MOL0     C99278   3.711   7.870   3.089  0.2926  0.0336  0.1602
  720MOL0     C99279   3.581   7.821   3.080 -0.5588 -0.5776 -0.4810
  720MOL0     C99280   3.534   7.762   2.961  0.0503  0.3232 -1.4945
  720MOL0     O99281   3.396   7.734   2.952 -0.6993 -0.9396 -0.3827
  720MOL0     C99282   3.332   7.691   2.825 -0.0222  0.0453 -0.4551
  720MOL0     C99283   3.277   7.804   2.738 -0.5994  0.1593 -0.4983
  720MOL0     C99284   3.186   7.905   2.816  0.3176  1.0499  0.3894
  720MOL0     C99285   3.070   7.816   2.882 -0.4998 -0.9232 -0.5603
  720MOL0     C99286   2.965   7.915   2.930  0.0862  0.4065  0.3013
  720MOL0     C99287   2.905   8.015   2.963 -0.3519 -1.3554  0.7767
  720MOL0     C99288   3.630   7.735   2.864  0.0895 -0.8651 -0.2033
  720MOL0     C99289   3.769   7.773   2.876  0.1446  0.4028 -0.3897
  720MOL0     C99290   3.871   7.740   2.769 -0.1114  0.2508 -0.4209
  720MOL0     H99291   4.129   8.193   3.035 -1.2478  0.0187 -0.2605
  720MOL0     H99292   4.325   8.258   3.150 -1.0144  0.8736 -0.5759
  720MOL0     H99293   4.444   8.346   3.336 -3.6748 -0.6654 -1.6160
  720MOL0     H99294   4.534   8.226   3.252  1.5470 -0.7448  1.7836
  720MOL0     H99295   4.548   8.262   3.555 -0.3044  2.5886 -0.9721
  720MOL0     H99296   4.636   8.145   3.465 -1.4507  0.2844  1.3356
  720MOL0     H99297   4.746   8.341   3.326  0.0471 -0.5374  0.4672
  720MOL0     H99298   4.682   8.445   3.448 -0.0076 -0.7149  0.1752
  720MOL0     H99299   4.792   8.302   3.638  1.0525  0.3322 -0.0083
  720MOL0     H99300   4.860   8.213   3.504 -2.3999 -0.7502  0.3910
  720MOL0     H99301   4.916   8.508   3.535 -0.6030 -0.5530  1.5243
  720MOL0     H99302   5.001   8.402   3.437  0.6256  1.4675  0.2139
  720MOL0     H99303   4.980   8.323   3.727  1.0278 -1.3027 -0.2423
  720MOL0     H99304   5.106   8.290   3.613  0.3821  0.1197 -0.7019
  720MOL0     H99305   5.050   8.576   3.702  0.4555  0.3267  0.0667
  720MOL0     H99306   5.143   8.524   3.566 -1.4965 -0.8627 -1.0037
  720MOL0     H99307   5.200   8.439   3.856 -2.6194 -0.4856 -0.4664
  720MOL0     H99308   5.282   8.385   3.708  2.6268  1.2481  0.5656
  720MOL0     H99309   5.206   8.761   3.820  0.1060  0.6787 -1.9866
  720MOL0     H99310   5.311   8.968   3.798 -0.2429 -1.0337  0.0913
  720MOL0     H99311   5.373   8.995   3.639 -1.5958 -2.6825 -0.0694
  720MOL0     H99312   5.559   8.940   3.875 -1.1976  1.0612 -0.0299
  720MOL0     H99313   5.607   8.952   3.702 -1.3005  3.0247 -1.7813
  720MOL0     H99314   5.585   9.168   3.683 -1.1398  2.1847 -0.1611
  720MOL0     H99315   5.452   9.191   3.809  0.3160 -0.6882  3.6876
  720MOL0     H99316   5.615   9.144   3.989  1.6892  0.1524  0.7313
  720MOL0     H99317   5.734   9.156   3.878 -0.8657 -0.0355  0.7338
  720MOL0     H99318   5.698   9.473   3.701  0.4461 -0.8428 -1.5200
  720MOL0     H99319   5.974   9.536   3.538 -1.1225  4.8303 -4.3177
  720MOL0     H99320   6.000   9.685   3.632  1.0986 -0.2423 -1.5651
  720MOL0     H99321   5.838   9.636   3.585 -2.6347 -2.2540  3.0118
  720MOL0     H99322   6.384   9.468   3.990 -0.8494  0.1824  1.9317
  720MOL0     H99323   6.614   9.507   3.980  1.0553  1.0887 -0.8189
  720MOL0     H99324   6.928   9.717   3.964  0.9142 -0.4011 -1.2493
  720MOL0     H99325   6.825   9.579   3.910 -1.4396 -0.3566 -0.9730
  720MOL0     H99326   6.767   9.674   3.700 -0.3515 -4.4238  2.8244
  720MOL0     H99327   6.874   9.814   3.737  1.2173 -0.2194  2.0175
  720MOL0     H99328   7.068   9.641   3.753  0.8488 -0.6633  0.1715
  720MOL0     H99329   6.994   9.680   3.592 -0.9636  1.9859  1.5828
  720MOL0     H99330   6.853   9.462   3.635 -0.4861  0.8736  0.6528
  720MOL0     H99331   6.962   9.422   3.764 -0.1196  1.8834  1.3571
  720MOL0     H99332   7.034   9.300   3.571 -1.2287 -0.6174  0.4711
  720MOL0     H99333   7.001   9.455   3.472  0.3431 -0.6935 -0.2905
  720MOL0     H99334   7.230   9.384   3.654 -2.8199 -0.4525  0.1765
  720MOL0     H99335   7.204   9.549   3.589  2.0019 -0.4690  2.5463
  720MOL0     H99336   7.230   9.477   3.364 -0.1221  1.8135  1.9771
  720MOL0     H99337   7.220   9.302   3.408 -2.1866 -0.0827  0.9131
  720MOL0     H99338   7.443   9.484   3.501 -3.8968  0.4220  1.4234
  720MOL0     H99339   7.443   9.407   3.334 -0.5248  1.8007  0.0180
  720MOL0     H99340   6.537   9.924   3.925  0.4644 -0.5046 -1.2149
  720MOL0     H99341   6.299   9.882   3.906 -0.1670  0.5232 -2.2864
  720MOL0     H99342   6.052   9.444   4.047 -1.0299  1.8368  0.1682
  720MOL0     H99343   5.859   9.299   4.051  1.3926 -0.6654 -0.8781
  720MOL0     H99344   4.217   7.953   3.455 -1.6109  2.8599  3.1114
  720MOL0     H99345   4.012   7.910   3.343  2.5476 -1.2139 -0.1285
  720MOL0     H99346   3.745   7.905   3.186 -0.5510 -2.1539  1.2995
  720MOL0     H99347   3.511   7.842   3.160 -2.0574 -2.8408 -1.1089
  720MOL0     H99348   3.409   7.640   2.766  0.3149  0.2849 -0.2234
  720MOL0     H99349   3.254   7.615   2.837  0.0105  0.0105 -0.4631
  720MOL0     H99350   3.217   7.750   2.664 -1.8653 -1.7064  1.7638
  720MOL0     H99351   3.360   7.850   2.684 -1.5137  2.2094 -0.2457
  720MOL0     H99352   3.236   7.958   2.897 -1.3874  0.6692  1.7701
  720MOL0     H99353   3.153   7.979   2.742 -0.0619  0.3128 -0.1849
  720MOL0     H99354   3.103   7.769   2.975 -2.6513 -0.2545  0.6219
  720MOL0     H99355   3.035   7.743   2.808 -1.9468 -2.4101  1.4816
  720MOL0     H99356   2.853   8.103   2.996  2.8236  1.4584 -1.0006
  720MOL0     H99357   3.612   7.669   2.780  0.7976 -2.6937  1.0212
  720MOL0     H99358   3.895   7.828   2.709  2.7066 -1.7757 -2.5960
  720MOL0     H99359   3.964   7.694   2.805 -1.9314 -1.6197  2.2665
  720MOL0     H99360   3.819   7.670   2.702 -0.1805  0.2579 -0.3742
  721MOL0     O99361   1.593   4.134  10.634  0.9821 -0.1977 -0.4733
  721MOL0     C99362   1.563   4.195  10.734 -1.1441 -0.8244  0.1239
  721MOL0     O99363   1.655   4.220  10.846 -0.0460  0.4812  0.1132
  721MOL0     C99364   1.787   4.172  10.854  0.0753 -0.3700  0.4798
  721MOL0     C99365   1.880   4.242  10.930 -0.2545  0.9661  0.4618
  721MOL0     C99366   2.015   4.196  10.941  0.9559  0.2178 -0.2134
  721MOL0     C99367   2.056   4.083  10.869  0.3233 -0.7137  0.3045
  721MOL0     O99368   2.178   4.026  10.870  0.5255  0.4866  0.5769
  721MOL0     C99369   2.253   4.040  10.985  0.4114  0.4000 -0.0859
  721MOL0     C99370   2.377   3.952  10.984  0.0480 -0.3094 -0.2856
  721MOL0     C99371   2.460   3.966  10.851 -0.9916  1.2903 -0.0006
  721MOL0     C99372   2.517   4.099  10.808  0.3576 -0.2589 -0.5430
  721MOL0     C99373   2.593   4.101  10.673 -0.2268  0.7278  0.7351
  721MOL0     C99374   2.622   4.244  10.646  0.1099 -0.1257  0.2065
  721MOL0     C99375   2.619   4.268  10.495  0.9249  0.2572 -0.6664
  721MOL0     C99376   2.695   4.401  10.467 -1.3700  0.1838 -0.5391
  721MOL0     N99377   2.834   4.370  10.453 -0.6082 -0.3151  0.9942
  721MOL0     C99378   2.892   4.306  10.340  0.0864  1.2276 -0.0468
  721MOL0     C99379   3.017   4.268  10.380  0.8006  0.1972  0.1721
  721MOL0     C99380   3.131   4.188  10.305  0.1216 -0.2970 -0.2251
  721MOL0     C99381   3.237   4.286  10.248 -0.2386  0.0981  0.6086
  721MOL0     C99382   3.321   4.235  10.124 -0.3661 -0.2854  0.3372
  721MOL0     C99383   3.397   4.098  10.138 -0.5512 -1.3706 -0.8880
  721MOL0     O99384   3.488   4.088  10.023 -0.0202 -0.2395  0.4010
  721MOL0     C99385   3.619   4.114  10.043 -1.0334 -0.6488 -0.1437
  721MOL0     C99386   3.690   4.047  10.138  0.3271  0.4215 -0.3091
  721MOL0     C99387   3.815   4.074  10.165 -0.3585  0.0963  0.1540
  721MOL0     C99388   3.875   3.995  10.265  0.9590  0.3753  0.2147
  721MOL0     C99389   3.882   4.177  10.095 -0.2417 -0.2190  1.2014
  721MOL0     C99390   4.033   4.201  10.120  0.6865 -0.0425  0.2082
  721MOL0     O99391   4.062   4.339  10.139  0.4043 -0.3079  0.0659
  721MOL0     C99392   4.192   4.365  10.164 -0.3222 -0.1757  1.0274
  721MOL0     C99393   4.245   4.353  10.293  0.5209 -0.4392 -0.9768
  721MOL0     C99394   4.375   4.392  10.321  0.7361  0.4698  0.5166
  721MOL0     C99395   4.463   4.435  10.228 -0.2417  0.3730 -0.5098
  721MOL0     O99396   4.599   4.453  10.234  0.6964  0.4434 -0.2419
  721MOL0     C99397   4.668   4.359  10.320  0.0172  0.6802  0.0550
  721MOL0     C99398   4.684   4.228  10.253 -0.0516  0.7971  0.3572
  721MOL0     C99399   4.731   4.121  10.353 -0.5774 -0.0456  0.0829
  721MOL0     C99400   4.884   4.124  10.379 -0.3807  0.0620  0.1175
  721MOL0     C99401   4.917   4.000  10.474 -0.0545 -0.2508 -0.0623
  721MOL0     C99402   5.052   3.988  10.548 -0.1476 -0.2137  0.3397
  721MOL0     C99403   5.136   4.121  10.570  0.4108 -0.5639 -0.1359
  721MOL0     C99404   5.252   4.092  10.663 -0.3012 -0.2914 -0.4646
  721MOL0    Cl99405   5.358   3.963  10.591 -0.0893  0.0804 -0.1421
  721MOL0     C99406   4.418   4.446  10.100  0.2150  0.8527 -0.3388
  721MOL0     C99407   4.285   4.411  10.066  0.0817  0.0889  0.8625
  721MOL0     O99408   4.114   4.106  10.121  0.2407  0.2294 -0.1080
  721MOL0     C99409   3.816   4.241   9.998 -0.4364 -1.0142 -1.1896
  721MOL0     C99410   3.687   4.208   9.966 -0.1124 -0.4932 -0.4581
  721MOL0     N99411   3.034   4.309  10.512  0.5100  0.2728 -0.1791
  721MOL0     N99412   2.930   4.382  10.549  0.5454  0.1347  0.0484
  721MOL0     C99413   1.963   4.024  10.788  0.0557 -0.1873 -0.1326
  721MOL0     C99414   1.828   4.058  10.783  0.2755  0.1250  0.1119
  721MOL0     C99415   1.424   4.230  10.757  0.1717 -1.6013  0.4057
  721MOL0     C99416   1.356   4.167  10.862  0.2395 -0.6426  0.3550
  721MOL0     C99417   1.223   4.191  10.895  0.2955 -0.8814 -0.0396
  721MOL0     C99418   1.150   4.280  10.815 -0.4117 -0.3226 -0.6092
  721MOL0     O99419   1.021   4.307  10.856  0.2019 -0.3350  0.4283
  721MOL0     C99420   0.927   4.388  10.789  0.1955  0.8668 -0.1823
  721MOL0     C99421   0.850   4.302  10.699  0.0035  0.9163  0.6297
  721MOL0     C99422   0.760   4.204  10.782 -0.5666  0.4364  0.3410
  721MOL0     C99423   0.675   4.119  10.686 -0.6370  0.1922  0.4873
  721MOL0     C99424   0.752   4.035  10.603 -0.4542  0.9005  0.5643
  721MOL0     C99425   0.814   3.953  10.536 -0.7850  0.5530  0.8467
  721MOL0     C99426   1.225   4.352  10.718  0.1433 -0.0190 -0.0329
  721MOL0     C99427   1.354   4.331  10.684  0.4473  0.0033 -0.4943
  721MOL0     C99428   1.408   4.423  10.582 -1.0315 -0.8448 -0.1506
  721MOL0     H99429   1.852   4.332  10.985  0.7405  1.7012 -0.2027
  721MOL0     H99430   2.088   4.246  11.004  0.5291  0.1242  0.3689
  721MOL0     H99431   2.196   4.010  11.074  0.1253  0.7333 -0.1553
  721MOL0     H99432   2.291   4.141  11.000 -0.7199  1.3076 -2.7654
  721MOL0     H99433   2.441   3.968  11.071 -1.3678  2.9531  0.2857
  721MOL0     H99434   2.341   3.848  10.988 -0.1708 -0.2252 -0.0385
  721MOL0     H99435   2.547   3.899  10.857 -1.4649  0.6861  0.2807
  721MOL0     H99436   2.394   3.919  10.777 -0.2152 -0.7717  0.5178
  721MOL0     H99437   2.433   4.167  10.797 -0.0175 -0.8304 -1.3633
  721MOL0     H99438   2.588   4.137  10.883  1.4311 -2.8452 -0.1039
  721MOL0     H99439   2.526   4.059  10.598 -2.2071  0.5100  2.5374
  721MOL0     H99440   2.691   4.053  10.667 -0.3075  0.6962 -0.5287
  721MOL0     H99441   2.552   4.315  10.690  1.9530  2.3083 -0.5480
  721MOL0     H99442   2.718   4.278  10.686  0.2459  2.5825 -2.0789
  721MOL0     H99443   2.516   4.287  10.464  0.7973 -1.4021 -1.4223
  721MOL0     H99444   2.665   4.188  10.436 -1.6439  0.7433 -3.5647
  721MOL0     H99445   2.677   4.438  10.365 -1.7492  1.0150 -0.1830
  721MOL0     H99446   2.672   4.478  10.541 -0.8277 -0.2085  0.0374
  721MOL0     H99447   2.844   4.283  10.246 -1.5570  2.1324  0.5364
  721MOL0     H99448   3.090   4.124  10.226  3.5374 -0.1776 -2.2943
  721MOL0     H99449   3.180   4.115  10.369  0.2369 -0.6137 -0.6708
  721MOL0     H99450   3.184   4.379  10.223  1.1056  0.9317  0.7887
  721MOL0     H99451   3.303   4.312  10.331  2.3501 -0.5764 -1.1229
  721MOL0     H99452   3.262   4.229  10.032 -0.6525 -1.2633  0.5725
  721MOL0     H99453   3.401   4.309  10.117 -0.6761 -0.0347 -0.7052
  721MOL0     H99454   3.445   4.090  10.236  1.4627  0.3868 -1.6412
  721MOL0     H99455   3.326   4.015  10.140 -1.6782 -0.4283  1.4043
  721MOL0     H99456   3.644   3.973  10.203 -0.6384 -0.1737 -1.6297
  721MOL0     H99457   3.895   3.892  10.235  0.1048  0.3393 -0.2684
  721MOL0     H99458   3.812   3.984  10.354 -2.2745 -0.2302 -1.9841
  721MOL0     H99459   3.968   4.037  10.305  0.6357 -0.5270  1.9998
  721MOL0     H99460   4.189   4.322  10.380  1.3140 -0.1967 -0.3692
  721MOL0     H99461   4.399   4.402  10.426  3.5072 -2.1927  0.2718
  721MOL0     H99462   4.770   4.398  10.332 -0.3374  2.1601 -1.3350
  721MOL0     H99463   4.609   4.355  10.412 -0.0569  2.2208  0.1110
  721MOL0     H99464   4.589   4.203  10.205  0.1527 -1.7800  1.1353
  721MOL0     H99465   4.766   4.252  10.185 -1.3360  3.5180 -0.3712
  721MOL0     H99466   4.700   4.021  10.322  0.1793  0.7990 -4.0731
  721MOL0     H99467   4.684   4.133  10.451 -1.3282  0.3369 -0.3132
  721MOL0     H99468   4.927   4.217  10.418 -0.5467  1.3075 -2.5077
  721MOL0     H99469   4.938   4.116  10.285 -1.5348 -0.4102 -0.5226
  721MOL0     H99470   4.833   3.995  10.545  0.7115  0.5280  0.9263
  721MOL0     H99471   4.886   3.911  10.419 -1.2124 -2.1295  3.3206
  721MOL0     H99472   5.119   3.937  10.478  3.3129  1.4861  2.1486
  721MOL0     H99473   5.036   3.935  10.642  0.4926 -2.1681 -0.6013
  721MOL0     H99474   5.073   4.203  10.605 -0.7319 -0.3197 -2.5358
  721MOL0     H99475   5.169   4.146  10.469 -2.3418 -0.5915 -1.1438
  721MOL0     H99476   5.203   4.055  10.754 -1.4274 -0.1883 -1.0140
  721MOL0     H99477   5.318   4.176  10.686  0.5394 -1.3558  1.2568
  721MOL0     H99478   4.481   4.481  10.019 -0.6823 -1.1805 -1.9939
  721MOL0     H99479   4.249   4.401   9.964 -2.2240 -0.9065  1.7071
  721MOL0     H99480   3.869   4.321   9.946 -1.0132 -0.2664 -0.6336
  721MOL0     H99481   3.640   4.243   9.875  0.4399  2.6458  0.3282
  721MOL0     H99482   1.994   3.942  10.724 -1.1467 -1.5187  0.9295
  721MOL0     H99483   1.771   4.002  10.709  1.4254  1.5201 -1.9589
  721MOL0     H99484   1.411   4.109  10.936 -0.6503  1.5664  2.9034
  721MOL0     H99485   1.180   4.136  10.978  1.6328 -1.8858  0.0229
  721MOL0     H99486   0.858   4.436  10.858 -0.7045  2.6713 -2.2054
  721MOL0     H99487   0.983   4.463  10.732 -1.6354  2.8604  0.4924
  721MOL0     H99488   0.913   4.249  10.628 -1.7785  0.2165 -0.5172
  721MOL0     H99489   0.776   4.361  10.643 -0.9934 -1.3052 -0.5012
  721MOL0     H99490   0.829   4.138  10.836  0.1355  2.3914  1.9453
  721MOL0     H99491   0.691   4.260  10.846 -1.6163  1.3784 -1.5487
  721MOL0     H99492   0.614   4.187  10.625 -0.6164 -0.1270  0.1086
  721MOL0     H99493   0.615   4.050  10.745  1.2732 -0.8675  1.2896
  721MOL0     H99494   0.868   3.891  10.467 -0.8176  1.6863 -0.2235
  721MOL0     H99495   1.175   4.431  10.662  3.8184  3.8616  1.5952
  721MOL0     H99496   1.357   4.519  10.588 -0.1420 -0.0502 -3.3272
  721MOL0     H99497   1.514   4.449  10.591 -1.3306  0.1908  0.4857
  721MOL0     H99498   1.385   4.392  10.480 -0.8399 -0.1887 -0.3980
  722MOL0     O99499   7.803   9.119   1.069  1.1779 -0.2967 -0.1377
  722MOL0     C99500   7.698   9.161   1.015 -0.4261  0.1713  0.8455
  722MOL0     O99501   7.698   9.256   0.910  0.2862  0.1910 -0.5055
  722MOL0     C99502   7.818   9.281   0.842  0.0595 -0.4926  0.7639
  722MOL0     C99503   7.887   9.402   0.860 -0.2117  0.8128  0.6997
  722MOL0     C99504   8.005   9.430   0.805 -0.3585 -0.3983 -0.3349
  722MOL0     C99505   8.062   9.343   0.715 -0.2256  0.8842 -0.3487
  722MOL0     O99506   8.191   9.374   0.665  0.3714 -0.2689 -0.8442
  722MOL0     C99507   8.276   9.262   0.638  0.0457  0.1461 -0.0034
  722MOL0     C99508   8.421   9.315   0.623  0.3974  0.0432 -0.2483
  722MOL0     C99509   8.436   9.432   0.531 -0.3657  0.7816  0.1393
  722MOL0     C99510   8.576   9.501   0.544 -0.6874  0.8273  0.4196
  722MOL0     C99511   8.679   9.426   0.468 -0.0528  0.3187  0.7465
  722MOL0     C99512   8.812   9.488   0.493 -0.4850  0.3111  0.7924
  722MOL0     C99513   8.925   9.408   0.426 -0.1099  0.7168 -0.7230
  722MOL0     C99514   8.902   9.386   0.274 -0.7466  0.3239  0.1960
  722MOL0     N99515   9.013   9.320   0.205 -0.6690 -0.7696  0.2791
  722MOL0     C99516   9.139   9.368   0.211 -0.5226  0.1731  0.0541
  722MOL0     C99517   9.213   9.293   0.123  0.2645  0.9089 -0.0525
  722MOL0     C99518   9.354   9.301   0.079 -0.2540  0.1896 -1.0383
  722MOL0     C99519   9.432   9.386   0.181 -0.2159  0.2958 -0.8296
  722MOL0     C99520   9.576   9.427   0.137 -0.3372  0.0882  0.3115
  722MOL0     C99521   9.651   9.514   0.239  0.1524  1.5327 -0.2944
  722MOL0     O99522   9.769   9.560   0.178 -0.9250 -0.5735  0.6110
  722MOL0     C99523   9.862   9.618   0.263  0.2595  0.9242  0.2713
  722MOL0     C99524   9.843   9.646   0.394  0.4070 -0.3664 -0.9474
  722MOL0     C99525   9.937   9.732   0.466  0.2583  0.5924  0.8601
  722MOL0     C99526   9.872   9.788   0.584  0.3248 -0.2424 -0.9270
  722MOL0     C99527  10.060   9.766   0.395 -0.7241  0.3057 -1.0789
  722MOL0     C99528  10.153   9.864   0.464  0.1997  0.5225  0.2035
  722MOL0     O99529  10.134   9.902   0.589  0.4668 -0.1898 -0.2404
  722MOL0     C99530  10.240   9.957   0.646 -0.5645 -1.3715 -0.3708
  722MOL0     C99531  10.272  10.096   0.640 -0.1975  0.0284 -0.1317
  722MOL0     C99532  10.399  10.134   0.698 -0.1778 -0.3497  0.7873
  722MOL0     C99533  10.495  10.045   0.746  0.4911  0.2520 -0.5198
  722MOL0     O99534  10.621  10.064   0.792 -0.4678 -0.3687 -1.0477
  722MOL0     C99535  10.695  10.183   0.746  0.6087 -0.1826 -0.0861
  722MOL0     C99536  10.830  10.191   0.813 -0.9393  0.4422  0.4274
  722MOL0     C99537  10.940  10.270   0.749  0.3691 -0.2464  0.3967
  722MOL0     C99538  11.063  10.291   0.836 -0.1131  0.1486 -0.3343
  722MOL0     C99539  11.175  10.371   0.773 -0.3406  0.5805  0.8690
  722MOL0     C99540  11.267  10.304   0.664  0.4994  0.1983 -0.6961
  722MOL0     C99541  11.340  10.413   0.575  0.8496  0.6635 -0.4134
  722MOL0     C99542  11.428  10.521   0.654 -0.4185  0.7231  0.2166
  722MOL0    Cl99543  11.550  10.441   0.752 -0.0040  0.4809 -0.6034
  722MOL0     C99544  10.447   9.914   0.763 -0.4565 -0.5631  0.3041
  722MOL0     C99545  10.330   9.872   0.702 -0.2304 -0.0892  0.4335
  722MOL0     O99546  10.249   9.898   0.398  0.3252 -0.4495 -0.0131
  722MOL0     C99547  10.079   9.730   0.265  0.6702 -0.2481  0.2624
  722MOL0     C99548   9.984   9.649   0.199 -0.5133 -0.0207 -0.5723
  722MOL0     N99549   9.118   9.213   0.056  0.0802 -0.0071  0.2279
  722MOL0     N99550   9.006   9.217   0.122 -0.4090 -0.7173  0.7458
  722MOL0     C99551   7.995   9.224   0.685  0.5194  0.1381  0.4488
  722MOL0     C99552   7.877   9.193   0.751  0.2038  0.2441  0.3412
  722MOL0     C99553   7.571   9.106   1.059 -0.2703  0.8318  0.2193
  722MOL0     C99554   7.563   9.017   1.173  0.6830  0.1115  0.1251
  722MOL0     C99555   7.437   8.962   1.215  0.1932  0.7776 -0.1573
  722MOL0     C99556   7.323   8.988   1.149  0.5375  0.1932  0.9956
  722MOL0     O99557   7.198   8.922   1.167  0.8022 -0.3446 -0.2133
  722MOL0     C99558   7.193   8.803   1.243 -0.1363  0.5204  0.2126
  722MOL0     C99559   7.221   8.678   1.172  0.3827 -0.5686 -0.1588
  722MOL0     C99560   7.088   8.605   1.157 -0.6044 -0.1428  0.1472
  722MOL0     C99561   6.980   8.682   1.083 -0.1393  0.1219 -0.0151
  722MOL0     C99562   6.882   8.587   1.022  0.2620  0.8564 -0.5890
  722MOL0     C99563   6.792   8.514   0.971  0.1857 -0.2245  0.4836
  722MOL0     C99564   7.328   9.071   1.031 -0.4722 -0.6469 -0.5285
  722MOL0     C99565   7.448   9.124   0.982 -0.1375  0.3447 -0.3041
  722MOL0     C99566   7.437   9.203   0.850  0.2674  0.3614 -0.6717
  722MOL0     H99567   7.838   9.476   0.922 -1.1593  1.7046 -1.0660
  722MOL0     H99568   8.054   9.522   0.837  0.0173  0.5286 -3.2893
  722MOL0     H99569   8.246   9.204   0.551 -2.2046 -1.1669  1.5363
  722MOL0     H99570   8.274   9.196   0.726  0.5447  1.3218  0.9255
  722MOL0     H99571   8.445   9.349   0.724  1.9089  1.7477 -1.1284
  722MOL0     H99572   8.484   9.234   0.585  2.1982  1.8696 -1.3728
  722MOL0     H99573   8.426   9.396   0.429 -1.3406 -3.3191  1.4778
  722MOL0     H99574   8.363   9.512   0.547 -3.5184 -1.9981  0.5767
  722MOL0     H99575   8.573   9.607   0.519  2.7584  1.5169  2.2385
  722MOL0     H99576   8.610   9.516   0.647  1.3698  1.5497 -0.3056
  722MOL0     H99577   8.662   9.426   0.360  3.4343 -0.8000  0.0755
  722MOL0     H99578   8.665   9.321   0.493 -1.8143 -1.5579 -6.0579
  722MOL0     H99579   8.807   9.589   0.450 -2.6889 -0.2277 -0.3297
  722MOL0     H99580   8.845   9.508   0.595  0.7360  0.5901  0.3634
  722MOL0     H99581   8.958   9.321   0.482  2.1718  2.8050  1.4488
  722MOL0     H99582   9.012   9.473   0.443  0.4181 -0.0010 -0.6632
  722MOL0     H99583   8.811   9.328   0.256  0.0780 -1.1897  0.7178
  722MOL0     H99584   8.884   9.486   0.233  0.7927  0.0666 -1.2489
  722MOL0     H99585   9.188   9.434   0.281  0.1785  0.6960 -0.9040
  722MOL0     H99586   9.354   9.343  -0.022  0.3493  2.3398 -0.2002
  722MOL0     H99587   9.402   9.203   0.077  0.8600  0.7178 -0.9490
  722MOL0     H99588   9.377   9.478   0.204  0.0190  1.1980 -3.5864
  722MOL0     H99589   9.433   9.322   0.270  0.4498 -0.4974 -1.4017
  722MOL0     H99590   9.634   9.338   0.110 -1.9212 -0.6780 -0.7262
  722MOL0     H99591   9.562   9.490   0.049 -2.4171  2.0289  1.9268
  722MOL0     H99592   9.584   9.594   0.271 -2.2822  0.2309 -1.7828
  722MOL0     H99593   9.671   9.445   0.321 -0.3269 -0.0253 -1.4321
  722MOL0     H99594   9.749   9.628   0.446  1.1944  2.4953  1.7736
  722MOL0     H99595   9.772   9.750   0.609  0.5026  0.3289  0.7632
  722MOL0     H99596   9.868   9.897   0.586  0.0665 -0.2582 -0.4715
  722MOL0     H99597   9.931   9.755   0.670 -1.8226 -0.4638  0.5508
  722MOL0     H99598  10.204  10.176   0.614 -2.3409 -1.6291  0.0818
  722MOL0     H99599  10.418  10.241   0.704  2.3417 -0.7417  0.6498
  722MOL0     H99600  10.712  10.192   0.638 -2.7280 -1.3550 -0.8392
  722MOL0     H99601  10.636  10.270   0.776  0.4045 -1.0333  2.1435
  722MOL0     H99602  10.824  10.239   0.911 -1.6728  2.5267 -0.5688
  722MOL0     H99603  10.868  10.089   0.826  1.0819  0.8368 -1.7229
  722MOL0     H99604  10.898  10.371   0.737  1.5354  0.4361  1.7505
  722MOL0     H99605  10.966  10.236   0.649 -2.0980  2.6955 -1.4229
  722MOL0     H99606  11.103  10.192   0.862 -3.1457 -0.5584  2.2320
  722MOL0     H99607  11.038  10.346   0.926 -0.9974  2.1612 -1.7369
  722MOL0     H99608  11.132  10.457   0.720 -1.7759  1.1092  2.7865
  722MOL0     H99609  11.235  10.414   0.853  0.5460  1.3433 -0.1699
  722MOL0     H99610  11.212  10.236   0.598  3.3356 -1.1584 -1.8448
  722MOL0     H99611  11.340  10.251   0.725  1.9605  0.4334 -2.1663
  722MOL0     H99612  11.263  10.465   0.517 -0.5043 -0.9305 -0.1159
  722MOL0     H99613  11.402  10.348   0.513  3.5011  2.2102  0.4592
  722MOL0     H99614  11.355  10.571   0.718 -0.9285 -1.3541  1.3453
  722MOL0     H99615  11.482  10.587   0.586  0.2129 -1.4148 -1.4796
  722MOL0     H99616  10.511   9.843   0.816 -1.0078 -1.3870 -0.1138
  722MOL0     H99617  10.313   9.765   0.710 -0.3701 -0.1362 -0.3909
  722MOL0     H99618  10.173   9.752   0.216  1.4692  0.0505  1.8772
  722MOL0     H99619  10.007   9.599   0.106  2.4906 -1.2825  0.7304
  722MOL0     H99620   8.037   9.151   0.617  0.6374 -1.1572  1.8609
  722MOL0     H99621   7.822   9.104   0.723 -1.9421  1.6263 -0.0353
  722MOL0     H99622   7.660   9.006   1.220  1.3790  2.5991 -0.5430
  722MOL0     H99623   7.438   8.886   1.293  5.2350 -0.5272 -1.1550
  722MOL0     H99624   7.255   8.816   1.332 -0.9544 -0.1387  0.9053
  722MOL0     H99625   7.100   8.791   1.300  0.7038  1.4545  1.8653
  722MOL0     H99626   7.280   8.617   1.241  0.5900 -0.3693 -0.1597
  722MOL0     H99627   7.270   8.693   1.075  1.9967  0.5046  0.7766
  722MOL0     H99628   7.113   8.514   1.102 -0.5426 -1.1749  1.8069
  722MOL0     H99629   7.044   8.577   1.253 -2.8740  3.2221  0.2645
  722MOL0     H99630   7.026   8.753   1.013  1.2435  0.6382  1.3542
  722MOL0     H99631   6.929   8.729   1.168  1.5978 -2.5431  2.7197
  722MOL0     H99632   6.711   8.461   0.926  0.7910 -0.0878 -0.8283
  722MOL0     H99633   7.245   9.087   0.962 -0.9155 -1.0735 -0.1027
  722MOL0     H99634   7.338   9.193   0.806 -0.0541  0.9049 -0.0752
  722MOL0     H99635   7.462   9.309   0.859  1.0341  0.3143 -1.9472
  722MOL0     H99636   7.500   9.162   0.771  0.7851  2.4806 -1.4108
  723MOL0     O99637   1.673   2.374   0.689 -0.3805 -0.3566 -0.2790
  723MOL0     C99638   1.717   2.275   0.629 -0.2102 -0.5608 -0.7902
  723MOL0     O99639   1.851   2.258   0.582 -0.5304 -0.6506 -0.0377
  723MOL0     C99640   1.959   2.321   0.634  0.4162 -0.4347 -0.4769
  723MOL0     C99641   1.949   2.454   0.689 -0.0947  0.7404 -0.1194
  723MOL0     C99642   2.072   2.519   0.727  0.6799 -0.4443 -0.0968
  723MOL0     C99643   2.194   2.456   0.729  0.6830  0.2904  0.1355
  723MOL0     O99644   2.310   2.505   0.779  0.3095 -0.1573 -0.2998
  723MOL0     C99645   2.326   2.647   0.780 -0.3521  0.3066 -0.0598
  723MOL0     C99646   2.468   2.681   0.815 -0.1540 -0.4795 -0.0722
  723MOL0     C99647   2.516   2.817   0.769 -0.3603  0.2484  1.0548
  723MOL0     C99648   2.517   2.817   0.621 -0.1052 -0.6914 -0.0551
  723MOL0     C99649   2.645   2.880   0.566 -0.6540 -0.8783 -0.0441
  723MOL0     C99650   2.657   3.035   0.573 -0.8452  0.1704 -0.1805
  723MOL0     C99651   2.556   3.113   0.490  0.5799  0.9852 -0.0581
  723MOL0     C99652   2.550   3.086   0.342  0.1073  0.9678 -0.1570
  723MOL0     N99653   2.679   3.126   0.271  0.5093  0.1821 -0.6201
  723MOL0     C99654   2.735   3.245   0.274 -0.1106  0.4981  0.0996
  723MOL0     C99655   2.834   3.225   0.182  0.2412 -0.7940 -0.8044
  723MOL0     C99656   2.948   3.326   0.158  0.3270  0.7902 -0.1644
  723MOL0     C99657   3.063   3.273   0.257 -0.1013 -0.2383 -0.4199
  723MOL0     C99658   3.058   3.363   0.389  0.6937  0.2308  0.4172
  723MOL0     C99659   3.183   3.326   0.464 -0.1367 -0.3821 -0.7441
  723MOL0     O99660   3.305   3.387   0.407  1.0862 -0.2943  0.2182
  723MOL0     C99661   3.423   3.322   0.444  0.7469 -0.3274  0.4641
  723MOL0     C99662   3.452   3.225   0.545 -0.2525  0.7746  1.0418
  723MOL0     C99663   3.575   3.173   0.570 -0.0881  0.1484  0.3493
  723MOL0     C99664   3.573   3.066   0.671 -0.5564  0.5783  0.6558
  723MOL0     C99665   3.684   3.226   0.497 -0.3878  0.1613 -0.1731
  723MOL0     C99666   3.826   3.183   0.524  0.5699 -0.5852 -1.0192
  723MOL0     O99667   3.918   3.254   0.448  0.2124  0.7301  1.0243
  723MOL0     C99668   4.050   3.204   0.435  0.4983 -0.6169  0.4229
  723MOL0     C99669   4.095   3.074   0.463 -0.2839 -0.0941 -0.0890
  723MOL0     C99670   4.229   3.042   0.438  0.1491 -0.8721  0.9210
  723MOL0     C99671   4.318   3.137   0.381  0.4863  0.0270  0.1976
  723MOL0     O99672   4.444   3.107   0.340 -1.0158  0.2508 -0.3089
  723MOL0     C99673   4.489   2.972   0.344  0.0793 -0.2814  0.5029
  723MOL0     C99674   4.616   2.962   0.267  0.3090 -0.5806  0.7190
  723MOL0     C99675   4.736   3.007   0.340 -0.1724  0.1923 -0.8451
  723MOL0     C99676   4.873   3.006   0.265 -0.0144 -0.8029  0.3232
  723MOL0     C99677   4.932   2.867   0.278  0.2054  0.8344  0.1031
  723MOL0     C99678   5.066   2.848   0.207  0.6410 -0.3625  0.3946
  723MOL0     C99679   5.188   2.925   0.252 -0.0095 -0.5198  1.0258
  723MOL0     C99680   5.213   2.920   0.404 -0.0230  0.2940 -0.3891
  723MOL0    Cl99681   5.354   3.027   0.446 -0.1225  0.1790 -0.1713
  723MOL0     C99682   4.267   3.264   0.360 -0.8716 -0.2249 -0.0494
  723MOL0     C99683   4.135   3.300   0.377 -0.0601 -0.1655 -0.5466
  723MOL0     O99684   3.852   3.079   0.589 -0.7237  0.2505 -0.0292
  723MOL0     C99685   3.662   3.318   0.387 -0.3476  0.3631  0.1953
  723MOL0     C99686   3.525   3.368   0.374 -0.2290 -0.3347  0.2862
  723MOL0     N99687   2.841   3.092   0.139 -0.4030  0.1816  0.4766
  723MOL0     N99688   2.733   3.036   0.189  0.2437 -0.1402  0.1279
  723MOL0     C99689   2.198   2.326   0.683  0.1423  0.9529 -0.2447
  723MOL0     C99690   2.086   2.257   0.632 -1.1128 -0.5888  0.4285
  723MOL0     C99691   1.637   2.153   0.603  0.5732  0.0637 -0.0230
  723MOL0     C99692   1.518   2.163   0.531  0.1472 -0.1109 -0.4187
  723MOL0     C99693   1.453   2.046   0.484 -0.2260  0.8867  0.5785
  723MOL0     C99694   1.488   1.921   0.522 -1.0918  0.6021 -0.5073
  723MOL0     O99695   1.421   1.801   0.496  0.0753 -0.9177  0.1936
  723MOL0     C99696   1.294   1.804   0.418  0.0032 -0.2151  0.0689
  723MOL0     C99697   1.182   1.858   0.503 -0.4094 -0.0081  0.1326
  723MOL0     C99698   1.043   1.851   0.437 -0.5970  0.2834 -0.0749
  723MOL0     C99699   0.937   1.920   0.528 -0.1582 -0.7168 -0.4793
  723MOL0     C99700   0.903   1.846   0.653  0.5808  0.4962 -0.4808
  723MOL0     C99701   0.862   1.785   0.749 -0.4472  0.1591 -0.3263
  723MOL0     C99702   1.607   1.906   0.599 -0.0336 -0.3543 -0.0143
  723MOL0     C99703   1.675   2.025   0.647 -0.0576  0.1849  0.9917
  723MOL0     C99704   1.807   1.987   0.714 -0.9353 -0.1624 -0.7691
  723MOL0     H99705   1.861   2.516   0.672  1.9089  3.2984 -2.1976
  723MOL0     H99706   2.060   2.625   0.744  0.4989 -0.2470 -1.3498
  723MOL0     H99707   2.255   2.688   0.853  0.8195 -0.4998  1.5884
  723MOL0     H99708   2.298   2.680   0.679  0.5635  0.9728 -0.1064
  723MOL0     H99709   2.470   2.681   0.925 -3.0054 -0.5296  0.0454
  723MOL0     H99710   2.523   2.598   0.768  0.7625 -0.2114  0.4964
  723MOL0     H99711   2.465   2.897   0.825 -0.3796  0.8286  0.2268
  723MOL0     H99712   2.618   2.838   0.802 -0.9571  3.1610  1.3873
  723MOL0     H99713   2.507   2.717   0.579  0.2531  0.0614 -2.0248
  723MOL0     H99714   2.430   2.871   0.582  0.3728  0.3072  0.2154
  723MOL0     H99715   2.665   2.838   0.467 -0.1009 -3.2679  1.0319
  723MOL0     H99716   2.730   2.843   0.625  0.0681  4.2651  2.8251
  723MOL0     H99717   2.638   3.061   0.678 -2.7169  0.3144 -0.5117
  723MOL0     H99718   2.759   3.062   0.547 -0.3397 -0.2094  1.2808
  723MOL0     H99719   2.566   3.218   0.519 -0.4630  0.9409  0.4975
  723MOL0     H99720   2.460   3.075   0.524  1.4723 -2.6718 -1.1482
  723MOL0     H99721   2.523   2.982   0.322 -1.6141  1.3332  0.1404
  723MOL0     H99722   2.469   3.136   0.290 -2.4674 -0.6485  2.0182
  723MOL0     H99723   2.721   3.332   0.337  1.1114  1.7282 -1.2556
  723MOL0     H99724   2.907   3.423   0.187  0.6546  0.6175  0.9226
  723MOL0     H99725   2.993   3.334   0.058 -0.8432  0.6108 -0.7192
  723MOL0     H99726   3.048   3.169   0.285 -2.5197 -0.0075 -0.6206
  723MOL0     H99727   3.158   3.292   0.207 -0.1958  1.2973 -0.0639
  723MOL0     H99728   3.066   3.469   0.364  0.7757 -0.4709 -2.9843
  723MOL0     H99729   2.969   3.342   0.449  0.7250  0.3789  0.5161
  723MOL0     H99730   3.181   3.368   0.565  2.1373 -0.0972 -0.7509
  723MOL0     H99731   3.193   3.217   0.469 -1.6358 -0.4832  2.5681
  723MOL0     H99732   3.372   3.200   0.613  0.0720 -0.4326  0.9983
  723MOL0     H99733   3.614   2.970   0.637  0.3142  0.3791  2.1404
  723MOL0     H99734   3.471   3.042   0.701 -0.1920 -1.9390  0.1646
  723MOL0     H99735   3.634   3.098   0.757 -0.9964  2.3646  0.3421
  723MOL0     H99736   4.031   2.992   0.495 -1.3030 -0.4515 -2.7895
  723MOL0     H99737   4.264   2.941   0.455  0.4631 -0.8424  0.4849
  723MOL0     H99738   4.512   2.924   0.440  1.5686 -2.7730 -1.0119
  723MOL0     H99739   4.422   2.909   0.286 -0.6341  1.1790 -0.3212
  723MOL0     H99740   4.633   2.859   0.233  3.1228  0.4884 -1.6101
  723MOL0     H99741   4.615   3.009   0.168 -0.4649 -1.8715  0.0787
  723MOL0     H99742   4.750   2.946   0.429  3.1555  2.0105  0.0287
  723MOL0     H99743   4.712   3.111   0.365 -2.6767  0.3314 -3.2575
  723MOL0     H99744   4.946   3.080   0.299 -0.4353  1.8691 -3.8427
  723MOL0     H99745   4.861   3.021   0.157  1.3250 -1.5771  0.0365
  723MOL0     H99746   4.955   2.850   0.384  1.8932 -1.2517 -0.5261
  723MOL0     H99747   4.863   2.788   0.248 -0.5742  1.3736  0.4451
  723MOL0     H99748   5.039   2.872   0.104 -3.2995 -3.1984  0.5204
  723MOL0     H99749   5.090   2.741   0.212  1.1182 -0.1977  2.7358
  723MOL0     H99750   5.183   3.029   0.219 -2.5701 -0.8659  0.1129
  723MOL0     H99751   5.273   2.879   0.201 -0.1001 -1.0181  1.3144
  723MOL0     H99752   5.239   2.814   0.408 -1.1592  0.0344  0.5401
  723MOL0     H99753   5.124   2.942   0.462  0.1385 -3.4809  1.6143
  723MOL0     H99754   4.327   3.348   0.326 -3.7127  2.9697  2.0854
  723MOL0     H99755   4.104   3.402   0.354 -0.2379 -0.0454  0.2049
  723MOL0     H99756   3.738   3.365   0.325 -2.0770  1.4940 -1.1717
  723MOL0     H99757   3.506   3.451   0.306 -0.5390  0.1986  1.0137
  723MOL0     H99758   2.298   2.288   0.669 -1.3819 -3.2764 -1.0543
  723MOL0     H99759   2.097   2.165   0.575  0.2704  0.3196 -0.8490
  723MOL0     H99760   1.484   2.261   0.498 -0.4731 -0.6878 -1.5435
  723MOL0     H99761   1.364   2.059   0.423  1.0123 -1.7763 -1.9858
  723MOL0     H99762   1.303   1.868   0.329  2.6817  0.7130  0.9110
  723MOL0     H99763   1.272   1.699   0.396  3.6790 -1.6006  2.1384
  723MOL0     H99764   1.200   1.956   0.547 -0.2969 -1.2586  3.1081
  723MOL0     H99765   1.178   1.801   0.597 -2.1985 -0.4607 -0.1720
  723MOL0     H99766   1.051   1.908   0.344  1.4056  0.4904  0.1742
  723MOL0     H99767   1.027   1.745   0.415 -0.7962  0.1399  0.7336
  723MOL0     H99768   0.843   1.929   0.472 -1.4405 -0.7584  1.5664
  723MOL0     H99769   0.981   2.013   0.563  1.4792 -1.3181 -0.8567
  723MOL0     H99770   0.817   1.741   0.836 -0.1929  2.4990  1.0561
  723MOL0     H99771   1.649   1.810   0.625 -1.3230 -0.9846 -0.1995
  723MOL0     H99772   1.880   1.950   0.642  0.9800 -0.5426  1.2797
  723MOL0     H99773   1.859   2.067   0.768 -0.2751 -0.0042 -1.6165
  723MOL0     H99774   1.781   1.907   0.784 -3.6617  0.8077 -0.5617
  724MOL0     O99775   0.282   7.985  10.176 -0.1055 -0.2263 -0.7798
  724MOL0     C99776   0.162   7.986  10.153 -0.1199  0.1366  0.6042
  724MOL0     O99777   0.098   7.883  10.091 -0.5661  0.1551 -0.3292
  724MOL0     C99778   0.182   7.797  10.023  1.1565  0.2094 -0.0926
  724MOL0     C99779   0.211   7.671  10.084  0.5122  0.0996  1.3243
  724MOL0     C99780   0.288   7.579  10.014 -0.7000 -0.5284  0.3639
  724MOL0     C99781   0.339   7.609   9.882  0.9701 -0.1730 -0.3360
  724MOL0     O99782   0.418   7.527   9.803 -0.9077 -0.2959 -0.1555
  724MOL0     C99783   0.454   7.404   9.868  0.0600 -0.2823  0.1495
  724MOL0     C99784   0.559   7.420   9.978 -0.8119  0.0110 -0.8078
  724MOL0     C99785   0.661   7.315   9.989 -0.0056 -0.5158  0.1215
  724MOL0     C99786   0.762   7.350  10.105 -0.3501  0.2391  0.3298
  724MOL0     C99787   0.892   7.265  10.105 -0.5684  0.1824 -0.1272
  724MOL0     C99788   0.996   7.323  10.204  0.0602 -0.3456 -0.6648
  724MOL0     C99789   0.957   7.311  10.351  0.0447  0.0362 -0.2457
  724MOL0     C99790   1.070   7.336  10.444 -0.4739  0.5989 -0.6752
  724MOL0     N99791   1.183   7.245  10.436 -0.3789 -0.2975  0.4652
  724MOL0     C99792   1.196   7.133  10.511 -0.0521  0.6949 -0.0402
  724MOL0     C99793   1.326   7.098  10.484 -0.5783  0.3486  0.0288
  724MOL0     C99794   1.380   6.974  10.549 -0.1650 -1.0170  0.1546
  724MOL0     C99795   1.492   7.015  10.646 -0.0279 -0.2932  0.1283
  724MOL0     C99796   1.448   7.098  10.769  0.0393 -0.2304  0.2529
  724MOL0     C99797   1.569   7.143  10.840 -0.0032 -0.8781 -0.0323
  724MOL0     O99798   1.650   7.043  10.916  0.5276 -0.1414  0.7027
  724MOL0     C99799   1.767   6.982  10.887  0.4352  0.3512  0.2330
  724MOL0     C99800   1.832   6.997  10.765 -0.0615  0.2094  0.7676
  724MOL0     C99801   1.959   6.935  10.752  0.6196 -0.9049  0.3131
  724MOL0     C99802   2.032   6.939  10.619  0.6649  1.1011 -0.1936
  724MOL0     C99803   2.017   6.856  10.855  0.2306 -0.0748  0.0248
  724MOL0     C99804   2.152   6.788  10.843 -0.0645  0.2243 -0.2656
  724MOL0     O99805   2.176   6.691  10.939  0.0718 -0.2695  0.3501
  724MOL0     C99806   2.306   6.642  10.955 -0.6094  0.3669 -0.2749
  724MOL0     C99807   2.395   6.604  10.860  1.2020 -0.2578  0.2957
  724MOL0     C99808   2.512   6.526  10.884  0.1431 -0.7740  0.5350
  724MOL0     C99809   2.544   6.480  11.015  0.8251  0.3582 -0.5402
  724MOL0     O99810   2.654   6.404  11.034  0.4075 -0.0815 -0.2678
  724MOL0     C99811   2.707   6.383  11.166 -0.3329  0.3151 -0.0826
  724MOL0     C99812   2.847   6.326  11.149  0.1943 -1.3940 -1.2437
  724MOL0     C99813   2.927   6.292  11.276  0.1214  0.4020  0.2994
  724MOL0     C99814   2.847   6.216  11.391 -0.1501  0.2605  0.0423
  724MOL0     C99815   2.944   6.152  11.499  0.5526  0.6345 -0.0278
  724MOL0     C99816   3.053   6.243  11.560  0.4400  0.5220 -0.0145
  724MOL0     C99817   3.067   6.208  11.714  0.3546 -0.3293  0.1237
  724MOL0     C99818   3.202   6.246  11.772 -0.1417 -0.1654 -0.5986
  724MOL0    Cl99819   3.186   6.166  11.943 -0.2760 -0.1509 -0.1355
  724MOL0     C99820   2.461   6.548  11.123  0.2969  0.1866  0.8478
  724MOL0     C99821   2.346   6.627  11.088 -0.3725 -0.2492 -0.8942
  724MOL0     O99822   2.235   6.827  10.761  0.3388  0.4419 -0.5243
  724MOL0     C99823   1.947   6.853  10.980 -0.2219 -0.5426 -1.1675
  724MOL0     C99824   1.822   6.913  10.991  0.5022 -0.9713  0.6004
  724MOL0     N99825   1.385   7.181  10.392 -0.6772  0.6412 -0.1734
  724MOL0     N99826   1.306   7.283  10.375  0.6669  0.1911 -0.2750
  724MOL0     C99827   0.317   7.736   9.831  0.4105  0.2767 -0.0397
  724MOL0     C99828   0.236   7.828   9.898 -0.2278 -0.6201  0.2791
  724MOL0     C99829   0.088   8.102  10.204  0.0883 -0.1898 -0.0091
  724MOL0     C99830  -0.047   8.088  10.240 -0.0264 -0.0637 -0.3313
  724MOL0     C99831  -0.130   8.186  10.303 -0.1124 -0.9323  0.1653
  724MOL0     C99832  -0.072   8.313  10.328 -0.4866  0.1928 -0.0008
  724MOL0     O99833  -0.137   8.411  10.390 -0.5618 -0.3526 -0.1500
  724MOL0     C99834  -0.255   8.447  10.327 -0.0803  0.0595 -0.6703
  724MOL0     C99835  -0.349   8.528  10.420  0.1144 -0.1833 -0.6745
  724MOL0     C99836  -0.274   8.603  10.539 -0.3309 -0.3634  0.6665
  724MOL0     C99837  -0.192   8.715  10.476  0.9550 -0.4256 -0.5034
  724MOL0     C99838  -0.140   8.812  10.579 -1.0343 -0.3466 -0.1926
  724MOL0     C99839  -0.089   8.899  10.647 -0.5880  0.6036  0.7756
  724MOL0     C99840   0.063   8.333  10.291 -0.2123  0.1700  0.6967
  724MOL0     C99841   0.143   8.226  10.239 -0.4582  0.7075 -0.0573
  724MOL0     C99842   0.289   8.255  10.218 -0.1899  0.2738  0.0469
  724MOL0     H99843   0.188   7.650  10.188  0.0896  0.6953  1.3541
  724MOL0     H99844   0.297   7.481  10.059  0.2964 -0.7406 -0.2607
  724MOL0     H99845   0.489   7.336   9.789 -1.3349  0.2287 -0.9630
  724MOL0     H99846   0.374   7.337   9.902 -0.5717  0.6222  0.4668
  724MOL0     H99847   0.613   7.515   9.965  0.3590 -0.8460 -2.7634
  724MOL0     H99848   0.510   7.421  10.075 -3.1009  1.9454 -1.8715
  724MOL0     H99849   0.613   7.219  10.011 -1.2542 -0.0698 -0.5293
  724MOL0     H99850   0.705   7.303   9.890 -0.3089 -3.2338  0.2455
  724MOL0     H99851   0.784   7.457  10.106  2.5164 -0.2663  0.0571
  724MOL0     H99852   0.709   7.333  10.199  0.6272 -1.8864  0.5614
  724MOL0     H99853   0.942   7.272  10.007 -2.8769 -1.7313 -1.5505
  724MOL0     H99854   0.869   7.160  10.127  2.3817 -0.8724 -1.5402
  724MOL0     H99855   1.093   7.271  10.196  0.8090  0.7718  0.7086
  724MOL0     H99856   1.023   7.428  10.192 -1.8582  0.0797 -1.6372
  724MOL0     H99857   0.927   7.207  10.368  2.4572 -0.5978  0.5355
  724MOL0     H99858   0.870   7.368  10.383 -0.8376 -1.7878  0.7830
  724MOL0     H99859   1.116   7.433  10.423  1.5513  0.7088  3.3550
  724MOL0     H99860   1.031   7.353  10.545 -1.6277  1.3444 -1.2214
  724MOL0     H99861   1.129   7.088  10.585  3.0414 -4.1205  0.3090
  724MOL0     H99862   1.412   6.902  10.474 -1.6975 -0.2972 -1.2568
  724MOL0     H99863   1.304   6.923  10.609 -0.7781 -0.3026  0.0061
  724MOL0     H99864   1.550   6.923  10.659  1.1922  0.0311 -2.4193
  724MOL0     H99865   1.554   7.079  10.582 -1.2230  1.4264  0.6141
  724MOL0     H99866   1.378   7.174  10.733 -0.8329 -2.5379 -3.3907
  724MOL0     H99867   1.397   7.029  10.836 -4.1059  0.4433 -1.8799
  724MOL0     H99868   1.628   7.198  10.766  0.2449 -1.0881  0.0099
  724MOL0     H99869   1.541   7.222  10.910  1.4937 -0.1924 -0.1630
  724MOL0     H99870   1.794   7.060  10.685  2.0184  2.0687  1.1368
  724MOL0     H99871   2.114   7.011  10.618  2.7197 -1.0944  0.9247
  724MOL0     H99872   1.962   6.965  10.539 -0.1100 -1.9021 -0.6335
  724MOL0     H99873   2.052   6.842  10.573 -0.3927  1.3636 -1.2785
  724MOL0     H99874   2.361   6.619  10.758  2.1400 -0.9220 -0.1290
  724MOL0     H99875   2.574   6.494  10.800 -0.5234  0.0921 -0.3037
  724MOL0     H99876   2.725   6.483  11.206 -0.3986  0.0400  0.6503
  724MOL0     H99877   2.642   6.319  11.227 -1.3328 -0.1580 -1.5718
  724MOL0     H99878   2.827   6.229  11.102 -0.0753 -1.1336 -1.6794
  724MOL0     H99879   2.912   6.388  11.086 -0.6376 -0.2655 -1.0186
  724MOL0     H99880   2.979   6.380  11.316  2.4149  0.0351 -1.6837
  724MOL0     H99881   3.003   6.219  11.245 -0.1964 -0.3917  1.3395
  724MOL0     H99882   2.790   6.136  11.343  1.5554 -1.2707  0.4263
  724MOL0     H99883   2.781   6.285  11.446  0.3134  0.2006  0.6914
  724MOL0     H99884   2.879   6.116  11.580  1.3551 -2.9596 -0.7778
  724MOL0     H99885   2.993   6.063  11.458 -1.2921 -0.0510 -0.8163
  724MOL0     H99886   3.014   6.343  11.540 -3.0572 -0.7231 -0.1774
  724MOL0     H99887   3.146   6.220  11.507  1.1731  0.0133  1.4187
  724MOL0     H99888   3.040   6.103  11.726  1.3439 -0.4347  1.7084
  724MOL0     H99889   2.992   6.265  11.770  0.4824  0.5283 -0.5502
  724MOL0     H99890   3.230   6.351  11.787 -0.4713 -0.3408  1.4761
  724MOL0     H99891   3.279   6.196  11.713  0.9301 -2.3252  2.3825
  724MOL0     H99892   2.482   6.535  11.229 -1.9252  2.1074  1.6015
  724MOL0     H99893   2.280   6.663  11.167  3.6955 -0.0813  2.8107
  724MOL0     H99894   1.976   6.801  11.071  0.0279 -0.4301 -1.1799
  724MOL0     H99895   1.778   6.900  11.089  1.8157 -2.0923  1.0763
  724MOL0     H99896   0.360   7.760   9.734  2.1732 -0.0544  0.6281
  724MOL0     H99897   0.219   7.925   9.853 -2.3975 -2.3633 -3.0874
  724MOL0     H99898  -0.095   7.993  10.218 -0.5648  0.4974 -1.7051
  724MOL0     H99899  -0.231   8.166  10.338  0.1415 -1.0512  0.8235
  724MOL0     H99900  -0.229   8.505  10.238  0.0093  2.6064  0.9355
  724MOL0     H99901  -0.322   8.366  10.297 -0.6725  0.1335  0.4038
  724MOL0     H99902  -0.427   8.468  10.469 -0.7163  0.9385 -0.5979
  724MOL0     H99903  -0.409   8.599  10.363  0.0752  1.8099  1.7046
  724MOL0     H99904  -0.356   8.646  10.598 -1.5688 -2.2490  0.4304
  724MOL0     H99905  -0.224   8.528  10.601  2.4203  0.6351 -0.2063
  724MOL0     H99906  -0.240   8.781  10.404  1.0342  1.2764  0.9249
  724MOL0     H99907  -0.105   8.672  10.425  1.4865  1.2183 -1.0435
  724MOL0     H99908  -0.051   8.969  10.719  0.9801  0.7832 -0.1838
  724MOL0     H99909   0.102   8.430  10.324  1.7291 -0.7725  1.3476
  724MOL0     H99910   0.303   8.363  10.228 -1.8945  0.3527  2.7359
  724MOL0     H99911   0.357   8.212  10.293  3.6390  2.0533 -2.1001
  724MOL0     H99912   0.320   8.223  10.118 -0.2322 -0.9946  0.4236
  725MOL0     O99913   0.988   7.025   9.748 -0.4723 -0.3744 -0.4860
  725MOL0     C99914   0.937   7.047   9.637  0.1294 -0.7985 -0.3181
  725MOL0     O99915   1.012   7.062   9.519  0.4338  0.4116  0.3509
  725MOL0     C99916   1.138   7.020   9.506  0.3170  0.2670 -0.3250
  725MOL0     C99917   1.198   6.914   9.583  0.0806 -0.5946  0.8957
  725MOL0     C99918   1.338   6.878   9.575  0.5476  0.9967 -0.4205
  725MOL0     C99919   1.411   6.935   9.468  0.0965 -0.6708  0.5795
  725MOL0     O99920   1.537   6.894   9.440  0.2281 -0.6974 -0.3783
  725MOL0     C99921   1.555   6.750   9.441 -0.3943  0.6120  1.4190
  725MOL0     C99922   1.686   6.718   9.360  0.3367 -1.0683 -0.8094
  725MOL0     C99923   1.808   6.771   9.418 -0.0527 -0.7339 -0.1921
  725MOL0     C99924   1.929   6.763   9.334 -0.0452  0.4484  0.0675
  725MOL0     C99925   2.056   6.810   9.404 -0.3516 -0.3843 -0.9551
  725MOL0     C99926   2.183   6.775   9.329 -0.0406  0.6436 -0.1401
  725MOL0     C99927   2.317   6.822   9.395 -0.5965 -1.0496  0.0527
  725MOL0     C99928   2.441   6.789   9.307  0.0541  0.2022  0.2474
  725MOL0     N99929   2.551   6.837   9.390 -0.0006 -0.2870  0.1839
  725MOL0     C99930   2.579   6.789   9.515 -0.3204 -0.0025  0.3926
  725MOL0     C99931   2.688   6.855   9.565 -0.2928 -0.4013  0.0412
  725MOL0     C99932   2.744   6.857   9.703 -0.6868 -0.2100  0.9594
  725MOL0     C99933   2.802   6.723   9.741 -1.2117 -0.3806  0.1771
  725MOL0     C99934   2.887   6.727   9.860  0.3674  0.0090  0.0723
  725MOL0     C99935   3.031   6.763   9.831 -0.0172 -0.1805 -1.1076
  725MOL0     O99936   3.094   6.735   9.951 -0.1805  0.0628 -0.2428
  725MOL0     C99937   3.226   6.766   9.964 -0.2439 -0.3835 -0.3151
  725MOL0     C99938   3.310   6.829   9.874 -0.4085  0.1120 -0.1648
  725MOL0     C99939   3.453   6.827   9.896  0.2286  0.1940  0.2384
  725MOL0     C99940   3.548   6.888   9.790  0.6798  0.7925  0.7313
  725MOL0     C99941   3.499   6.778  10.020  0.1823 -0.4417 -0.7923
  725MOL0     C99942   3.641   6.789  10.058 -0.5350 -0.3551 -0.7241
  725MOL0     O99943   3.738   6.786   9.961  0.5486  0.1289  0.3504
  725MOL0     C99944   3.869   6.794   9.988 -1.1478 -0.0492  0.8598
  725MOL0     C99945   3.931   6.880  10.080  0.2308 -0.0573 -0.1372
  725MOL0     C99946   4.069   6.875  10.105  0.8031  0.1451 -0.6477
  725MOL0     C99947   4.155   6.791  10.032  0.3109  0.4079  0.3929
  725MOL0     O99948   4.288   6.791  10.050  0.1348 -0.2192 -0.4851
  725MOL0     C99949   4.329   6.762  10.178 -0.4211 -0.9091 -0.6100
  725MOL0     C99950   4.472   6.829  10.211 -0.6180 -0.8016 -0.3118
  725MOL0     C99951   4.588   6.774  10.134 -0.2660 -1.0018 -0.2120
  725MOL0     C99952   4.582   6.620  10.110  0.0427  0.1369  0.0529
  725MOL0     C99953   4.714   6.559  10.072  0.3515  0.8276  0.6426
  725MOL0     C99954   4.706   6.408  10.044  0.3770  0.3787 -0.6447
  725MOL0     C99955   4.649   6.372   9.906  0.2102  0.2179 -0.5721
  725MOL0     C99956   4.664   6.216   9.888  0.2954 -0.7966  0.8890
  725MOL0    Cl99957   4.596   6.155   9.734 -0.1085 -0.4884  0.0091
  725MOL0     C99958   4.103   6.700   9.934  0.2875 -0.0094 -0.4081
  725MOL0     C99959   3.961   6.696   9.925  0.0419  0.0349  0.3895
  725MOL0     O99960   3.663   6.792  10.182  0.3242  0.2410  0.2573
  725MOL0     C99961   3.408   6.735  10.119 -0.1697  0.5017 -0.4052
  725MOL0     C99962   3.276   6.719  10.092  0.4169 -0.3340  0.6432
  725MOL0     N99963   2.723   6.953   9.468  0.1200  0.2566  0.1111
  725MOL0     N99964   2.641   6.940   9.366  0.4247 -0.3212  0.1411
  725MOL0     C99965   1.344   7.028   9.380 -1.1883 -0.0816  0.8017
  725MOL0     C99966   1.214   7.071   9.402  0.0878 -0.1156  0.0466
  725MOL0     C99967   0.787   7.063   9.622  1.1789 -0.2738  0.2351
  725MOL0     C99968   0.745   7.118   9.502  1.0709  0.0065  0.5702
  725MOL0     C99969   0.615   7.152   9.481  0.7619 -0.2088 -0.0532
  725MOL0     C99970   0.523   7.134   9.589 -0.1978  0.2175 -0.1548
  725MOL0     O99971   0.392   7.170   9.561 -0.3179 -0.4027 -0.4711
  725MOL0     C99972   0.313   7.050   9.540  0.7531 -0.6535 -0.0789
  725MOL0     C99973   0.260   7.035   9.398  0.6078 -0.3590 -0.0080
  725MOL0     C99974   0.372   7.025   9.295 -0.2113  0.1566  0.2508
  725MOL0     C99975   0.325   6.970   9.162 -0.3520  0.2584  0.3389
  725MOL0     C99976   0.446   6.960   9.084 -0.1939  0.6020  0.4457
  725MOL0     C99977   0.532   6.939   8.999 -0.3871 -0.8679  0.0367
  725MOL0     C99978   0.564   7.077   9.714 -0.3008  0.0301 -0.1577
  725MOL0     C99979   0.694   7.035   9.728  0.4190 -0.8913 -0.4016
  725MOL0     C99980   0.737   6.954   9.843  0.4592 -0.3760 -0.4355
  725MOL0     H99981   1.147   6.865   9.666  1.0752 -0.5521  1.5450
  725MOL0     H99982   1.371   6.806   9.649 -3.5618 -0.3240  0.3754
  725MOL0     H99983   1.472   6.694   9.397 -0.0386 -0.0951  1.6458
  725MOL0     H99984   1.557   6.711   9.543 -0.3550 -0.9392  0.8430
  725MOL0     H99985   1.694   6.610   9.351 -1.4435 -1.4109  1.0011
  725MOL0     H99986   1.675   6.767   9.263  0.5471 -0.2555 -0.4325
  725MOL0     H99987   1.785   6.877   9.432 -0.3980 -0.9744  1.3258
  725MOL0     H99988   1.828   6.729   9.518  0.1294  0.1616  0.1569
  725MOL0     H99989   1.934   6.661   9.297 -2.0036 -0.2291  1.4822
  725MOL0     H99990   1.915   6.825   9.245 -1.0531  0.4130  0.1897
  725MOL0     H99991   2.071   6.764   9.503 -0.4209 -0.2454 -0.8793
  725MOL0     H99992   2.049   6.917   9.426 -0.0250 -0.8870  2.1981
  725MOL0     H99993   2.187   6.668   9.311  1.1217  0.5304  0.6652
  725MOL0     H99994   2.175   6.819   9.229  1.3460 -2.2711 -1.6374
  725MOL0     H99995   2.316   6.772   9.492 -0.8186 -3.7827 -1.2352
  725MOL0     H99996   2.307   6.930   9.410 -0.5507 -1.4890  4.3874
  725MOL0     H99997   2.450   6.685   9.277 -0.9957  0.4187 -0.8986
  725MOL0     H99998   2.451   6.843   9.212  0.0965 -0.7530 -0.2984
  725MOL0     H99999   2.523   6.709   9.563 -1.8737  1.3531  0.9201
  725MOL0     H    0   2.666   6.887   9.774 -2.3259 -0.3250 -0.6962
  725MOL0     H    1   2.822   6.932   9.717 -1.9739  1.0700  1.6062
  725MOL0     H    2   2.723   6.652   9.768  1.2908 -3.0265  1.0570
  725MOL0     H    3   2.864   6.670   9.668  0.0306 -0.1687  1.0486
  725MOL0     H    4   2.831   6.793   9.928  0.2671  0.7386 -0.7021
  725MOL0     H    5   2.885   6.625   9.898  2.4331 -1.1183 -2.5045
  725MOL0     H    6   3.066   6.701   9.748  2.3772 -0.5330  0.0744
  725MOL0     H    7   3.033   6.870   9.805  1.1166  0.3498  0.9846
  725MOL0     H    8   3.271   6.860   9.778  0.0247 -2.1536 -1.1251
  725MOL0     H    9   3.600   6.805   9.742 -2.4084  0.6339 -2.8616
  725MOL0     H   10   3.610   6.962   9.840 -0.8438  0.7130  2.8806
  725MOL0     H   11   3.485   6.944   9.720  2.1169  0.6333 -0.7443
  725MOL0     H   12   3.858   6.947  10.125 -1.1999  0.3576 -2.8722
  725MOL0     H   13   4.121   6.935  10.179 -0.5137 -2.8201  2.9802
  725MOL0     H   14   4.267   6.806  10.257  0.6140  0.7473 -0.6540
  725MOL0     H   15   4.338   6.654  10.191 -0.4430 -0.8535 -0.0846
  725MOL0     H   16   4.460   6.935  10.189 -0.8922 -1.1574 -2.0666
  725MOL0     H   17   4.491   6.815  10.318 -1.7328  0.2132  0.0355
  725MOL0     H   18   4.674   6.803  10.193 -0.8885 -2.2934  1.4122
  725MOL0     H   19   4.592   6.829  10.039  2.0557 -0.3839  0.1876
  725MOL0     H   20   4.515   6.585  10.031  0.5399 -1.3169  0.2445
  725MOL0     H   21   4.526   6.568  10.188 -2.0054  0.6176 -1.0073
  725MOL0     H   22   4.748   6.611   9.983 -1.6878 -0.8269 -1.2105
  725MOL0     H   23   4.784   6.575  10.155  0.9728  0.5532  0.1726
  725MOL0     H   24   4.646   6.363  10.123  0.7939  1.1917  0.1622
  725MOL0     H   25   4.808   6.372  10.060  0.6000  0.8473 -0.9618
  725MOL0     H   26   4.713   6.424   9.833  2.8551 -1.9307  0.0533
  725MOL0     H   27   4.545   6.405   9.899 -0.2501 -1.3523 -2.0430
  725MOL0     H   28   4.605   6.177   9.972  0.4339  0.7984  1.7505
  725MOL0     H   29   4.768   6.185   9.898  1.4157  2.5723  0.8647
  725MOL0     H   30   4.167   6.632   9.878 -0.0776 -1.5903  0.9884
  725MOL0     H   31   3.921   6.623   9.854 -0.6452 -1.3197  2.1031
  725MOL0     H   32   3.443   6.707  10.218  1.5976  0.5590 -0.9690
  725MOL0     H   33   3.212   6.669  10.164 -0.6154 -1.3575 -0.9348
  725MOL0     H   34   1.395   7.069   9.294 -2.4815  1.2920  0.6374
  725MOL0     H   35   1.171   7.144   9.334  1.2744  1.3744  0.8487
  725MOL0     H   36   0.806   7.136   9.414 -1.2025 -2.5655 -1.7096
  725MOL0     H   37   0.586   7.226   9.407  0.6280  1.5454  1.6589
  725MOL0     H   38   0.373   6.958   9.550  0.1360 -0.8881  1.8562
  725MOL0     H   39   0.228   7.054   9.608  0.1028 -1.1690 -0.8338
  725MOL0     H   40   0.205   7.127   9.378 -0.4159 -1.1989 -1.2285
  725MOL0     H   41   0.202   6.943   9.389  2.6817 -1.6417 -1.0845
  725MOL0     H   42   0.401   7.128   9.273 -0.0649  0.9078  3.5635
  725MOL0     H   43   0.457   6.967   9.332  1.0620  1.2854 -0.7762
  725MOL0     H   44   0.258   7.041   9.113  0.2454 -0.9064 -2.3878
  725MOL0     H   45   0.278   6.872   9.174  0.7959 -0.2609  0.7970
  725MOL0     H   46   0.590   6.931   8.910 -3.3232  3.4805 -2.6392
  725MOL0     H   47   0.493   7.073   9.796  2.2073 -0.9666  2.1198
  725MOL0     H   48   0.805   6.873   9.815  3.3410  1.2065  1.5075
  725MOL0     H   49   0.765   7.022   9.924 -0.0684 -0.2925 -0.3142
  725MOL0     H   50   0.656   6.893   9.885  0.1124  0.9208  0.8406
  726MOL0     O   51   9.051   0.645   6.693 -0.0553 -0.8045 -0.5342
  726MOL0     C   52   9.062   0.750   6.756  0.2857 -0.1684  0.5284
  726MOL0     O   53   9.172   0.789   6.830  0.3659 -1.0980 -0.4650
  726MOL0     C   54   9.260   0.693   6.868 -0.2435  1.1194 -0.4611
  726MOL0     C   55   9.228   0.558   6.913  0.3065 -0.0056  0.8337
  726MOL0     C   56   9.324   0.470   6.953 -0.5917  1.1575  0.2016
  726MOL0     C   57   9.459   0.507   6.937 -0.4794 -0.1079 -0.6107
  726MOL0     O   58   9.572   0.432   6.968 -0.2556  0.5640  0.8386
  726MOL0     C   59   9.574   0.308   6.903 -0.0946 -0.3425 -0.4651
  726MOL0     C   60   9.654   0.220   6.998  0.1191 -0.6184 -0.4689
  726MOL0     C   61   9.809   0.254   6.997  0.6070 -0.4915  0.8001
  726MOL0     C   62   9.879   0.179   7.105 -0.3248  0.5074 -0.4473
  726MOL0     C   63  10.032   0.194   7.107  0.1650 -0.0055  0.2820
  726MOL0     C   64  10.099   0.114   7.222  0.7152  1.1704 -0.7713
  726MOL0     C   65  10.099  -0.041   7.215  0.3525 -0.4245  0.6220
  726MOL0     C   66  10.171  -0.117   7.327 -0.3280 -0.3431 -0.5182
  726MOL0     N   67  10.316  -0.075   7.323  0.2201  0.6074 -0.8894
  726MOL0     C   68  10.412  -0.145   7.253 -0.0367 -0.6031  0.5069
  726MOL0     C   69  10.525  -0.099   7.310  0.6455  1.2303 -0.6887
  726MOL0     C   70  10.658  -0.158   7.284 -0.3432 -0.1402 -0.3779
  726MOL0     C   71  10.757  -0.071   7.205  0.5814 -0.0819  0.4033
  726MOL0     C   72  10.888  -0.136   7.170  0.6152 -0.1564  0.3316
  726MOL0     C   73  10.974  -0.029   7.104  0.3344  0.2725 -0.6701
  726MOL0     O   74  11.100  -0.091   7.076 -0.1005  0.1459  0.1450
  726MOL0     C   75  11.200  -0.006   7.041  1.0724 -0.5818 -0.3148
  726MOL0     C   76  11.309  -0.007   7.125  0.1478  0.2823 -0.3223
  726MOL0     C   77  11.426   0.070   7.097  0.1515 -0.6019  0.8940
  726MOL0     C   78  11.540   0.073   7.197 -0.5025 -0.0205  0.8486
  726MOL0     C   79  11.420   0.148   6.972 -0.3374 -0.0698  0.5154
  726MOL0     C   80  11.533   0.230   6.917  0.6256  0.1124  0.1359
  726MOL0     O   81  11.640   0.251   7.000 -0.7382 -0.1466  0.3585
  726MOL0     C   82  11.767   0.275   6.951  0.1764  0.0774 -0.1752
  726MOL0     C   83  11.805   0.242   6.817  0.2651 -0.2425  0.1076
  726MOL0     C   84  11.935   0.257   6.779  0.8505  0.6740 -0.5282
  726MOL0     C   85  12.035   0.285   6.876  0.3152  0.3515 -0.1427
  726MOL0     O   86  12.158   0.282   6.812 -0.4602  1.0565 -0.2391
  726MOL0     C   87  12.254   0.320   6.908 -0.9732  0.1625 -1.2290
  726MOL0     C   88  12.390   0.304   6.835 -0.2801  0.0891 -0.5926
  726MOL0     C   89  12.493   0.371   6.923 -0.2738  0.3195  0.2091
  726MOL0     C   90  12.545   0.498   6.858  0.0061 -0.2750  0.1094
  726MOL0     C   91  12.638   0.583   6.957 -0.5262  0.1737  0.8453
  726MOL0     C   92  12.649   0.727   6.904 -0.5998  0.1378  0.5844
  726MOL0     C   93  12.684   0.726   6.757  0.6683 -0.0553 -0.2986
  726MOL0     C   94  12.818   0.662   6.716 -0.0501 -1.6418 -0.0628
  726MOL0    Cl   95  12.796   0.624   6.546  0.1990  0.1437  0.2429
  726MOL0     C   96  11.997   0.307   7.009 -0.1037 -0.2047 -0.5418
  726MOL0     C   97  11.862   0.315   7.039 -0.0526  0.5454  0.2702
  726MOL0     O   98  11.513   0.274   6.807  0.5660  0.1992 -0.5040
  726MOL0     C   99  11.298   0.139   6.893 -0.4472 -0.3996  0.5508
  726MOL0     C  100  11.190   0.067   6.928  0.1157  0.4012  0.0361
  726MOL0     N  101  10.495  -0.006   7.402  0.1522  0.7506 -0.3203
  726MOL0     N  102  10.371   0.006   7.416  0.3267  0.1484  0.7223
  726MOL0     C  103   9.491   0.634   6.903  0.2575  0.3951 -0.2555
  726MOL0     C  104   9.397   0.732   6.870  0.8361 -0.6291 -0.9790
  726MOL0     C  105   8.942   0.841   6.759  0.1810  0.1530 -0.0609
  726MOL0     C  106   8.915   0.917   6.870 -0.4845  0.0965 -0.4683
  726MOL0     C  107   8.801   0.995   6.880  0.2132 -0.3186  0.4022
  726MOL0     C  108   8.717   1.009   6.767  0.9740  0.1482 -0.2654
  726MOL0     O  109   8.605   1.089   6.770  0.0156  0.3310 -0.2627
  726MOL0     C  110   8.518   1.062   6.877  0.7448 -0.6209  0.7373
  726MOL0     C  111   8.379   1.110   6.843  0.1884  0.0623  0.1530
  726MOL0     C  112   8.292   0.992   6.780  0.4959 -1.5714  0.6650
  726MOL0     C  113   8.143   1.035   6.800  0.0276 -0.5388 -0.0705
  726MOL0     C  114   8.062   0.940   6.726  0.2171 -1.1962  0.0056
  726MOL0     C  115   7.994   0.866   6.665  0.0969  0.9622  0.2331
  726MOL0     C  116   8.752   0.945   6.649  1.1575 -0.6695 -0.1876
  726MOL0     C  117   8.855   0.856   6.644  0.7575  0.8133 -0.6129
  726MOL0     C  118   8.886   0.802   6.503 -0.8377 -0.9126  0.2106
  726MOL0     H  119   9.125   0.523   6.918 -0.1390  1.3745  2.5367
  726MOL0     H  120   9.308   0.371   6.996  1.3716  1.4887  1.8457
  726MOL0     H  121   9.628   0.328   6.809  0.8685 -2.5221 -0.4335
  726MOL0     H  122   9.476   0.265   6.883  0.5632 -2.0683 -0.1606
  726MOL0     H  123   9.613   0.225   7.099 -0.3121 -1.2594 -0.6081
  726MOL0     H  124   9.654   0.122   6.950 -1.2451  0.9517 -3.9301
  726MOL0     H  125   9.841   0.235   6.894 -2.0544  1.7461 -0.5801
  726MOL0     H  126   9.828   0.360   7.017  2.2612 -1.2201  3.6915
  726MOL0     H  127   9.845   0.220   7.200  0.5016 -0.3887  0.2483
  726MOL0     H  128   9.855   0.072   7.101  0.3433  0.1758  2.3807
  726MOL0     H  129  10.055   0.300   7.119  0.9489 -0.1929  0.4790
  726MOL0     H  130  10.073   0.154   7.014 -2.8106 -0.2223 -1.0447
  726MOL0     H  131  10.205   0.141   7.223  1.2563 -0.8418 -0.8840
  726MOL0     H  132  10.051   0.139   7.318  0.7407 -0.2026 -0.3884
  726MOL0     H  133  10.125  -0.082   7.117 -1.8706 -0.4909 -0.0100
  726MOL0     H  134   9.994  -0.070   7.225  0.2704 -2.3400 -3.5211
  726MOL0     H  135  10.126  -0.082   7.420  1.0318  0.7814 -0.2509
  726MOL0     H  136  10.162  -0.225   7.314 -1.0748 -0.0450 -3.0112
  726MOL0     H  137  10.410  -0.211   7.167 -0.3691 -0.3218  0.2952
  726MOL0     H  138  10.648  -0.254   7.233  0.5203 -0.3144 -0.2354
  726MOL0     H  139  10.706  -0.179   7.380  1.6402 -1.7987 -1.6454
  726MOL0     H  140  10.708  -0.035   7.114  2.4614  1.5210 -0.0471
  726MOL0     H  141  10.776   0.022   7.259 -0.3465  1.7509 -2.1862
  726MOL0     H  142  10.947  -0.174   7.254 -0.1379  0.5607  1.2082
  726MOL0     H  143  10.865  -0.224   7.110 -0.6946  0.6015 -0.3224
  726MOL0     H  144  10.924   0.017   7.019 -2.4674 -2.6730 -0.8421
  726MOL0     H  145  10.987   0.054   7.174 -1.2189 -0.0802  0.0708
  726MOL0     H  146  11.314  -0.074   7.210  3.8396  0.2386 -0.3782
  726MOL0     H  147  11.636   0.060   7.146 -1.3576 -1.4790 -0.5026
  726MOL0     H  148  11.538  -0.024   7.247  1.8424  0.2473  1.5564
  726MOL0     H  149  11.538   0.165   7.256  0.4171 -0.4506  1.5785
  726MOL0     H  150  11.731   0.208   6.745 -0.1199 -1.3325  0.9948
  726MOL0     H  151  11.967   0.239   6.677  2.6659  0.6118  0.0195
  726MOL0     H  152  12.225   0.420   6.942 -2.1061 -0.6718  0.4311
  726MOL0     H  153  12.267   0.255   6.994 -1.0988  0.2794 -1.1204
  726MOL0     H  154  12.401   0.195   6.825  0.4486  0.1462 -0.4739
  726MOL0     H  155  12.390   0.354   6.738 -1.1286 -0.8402 -1.0930
  726MOL0     H  156  12.574   0.304   6.951 -0.7911  0.4402  2.1274
  726MOL0     H  157  12.451   0.411   7.016 -1.5178  3.5507 -1.5590
  726MOL0     H  158  12.461   0.562   6.831  1.2855  1.4503  0.0413
  726MOL0     H  159  12.612   0.470   6.776 -1.7512  0.2093 -1.5652
  726MOL0     H  160  12.585   0.597   7.052 -0.7598  1.2095  0.5747
  726MOL0     H  161  12.732   0.537   6.986  0.2528 -0.5712 -2.4423
  726MOL0     H  162  12.731   0.781   6.953  1.3440 -0.8714 -1.3755
  726MOL0     H  163  12.551   0.775   6.916 -0.4429  0.8132 -0.7073
  726MOL0     H  164  12.692   0.831   6.729  0.7717 -0.6228 -2.5571
  726MOL0     H  165  12.603   0.686   6.697  0.2539  0.6962 -0.2521
  726MOL0     H  166  12.838   0.572   6.775 -0.9278  0.6711  4.1769
  726MOL0     H  167  12.894   0.736   6.742 -0.8023 -1.5374  2.0208
  726MOL0     H  168  12.067   0.334   7.087 -1.1636 -0.1280  0.4004
  726MOL0     H  169  11.829   0.326   7.142  0.8061 -0.2490  0.6518
  726MOL0     H  170  11.289   0.198   6.803  1.7846  1.3154  1.3770
  726MOL0     H  171  11.105   0.059   6.860  0.8820 -0.0265 -0.9006
  726MOL0     H  172   9.598   0.652   6.894 -0.2316  3.3881 -1.2299
  726MOL0     H  173   9.415   0.837   6.848  1.1419 -0.8029 -1.5868
  726MOL0     H  174   8.981   0.917   6.956 -0.8301 -0.3640 -0.1982
  726MOL0     H  175   8.771   1.046   6.971 -0.7272 -0.4492  0.1714
  726MOL0     H  176   8.519   0.953   6.890 -0.1487 -0.8012 -0.4778
  726MOL0     H  177   8.546   1.108   6.972  0.3738  1.9739 -0.3220
  726MOL0     H  178   8.374   1.197   6.778  0.2171  0.3518  0.5319
  726MOL0     H  179   8.324   1.137   6.934 -3.8299  2.3957 -2.6893
  726MOL0     H  180   8.332   0.974   6.680  0.8151 -3.4079  1.0784
  726MOL0     H  181   8.306   0.902   6.841  0.3190 -1.2923  1.1220
  726MOL0     H  182   8.119   1.134   6.760 -1.4399 -0.6696  0.4545
  726MOL0     H  183   8.129   1.029   6.908  0.1271  0.6965  0.0329
  726MOL0     H  184   7.938   0.793   6.610 -0.3528  2.2595 -1.0985
  726MOL0     H  185   8.697   0.959   6.556  0.2330  0.1702  0.4528
  726MOL0     H  186   8.991   0.829   6.486 -0.2605 -3.4689 -0.7440
  726MOL0     H  187   8.886   0.693   6.493  0.6880 -0.7631 -2.1769
  726MOL0     H  188   8.829   0.848   6.423  1.6585 -0.6098 -1.5276
  727MOL0     O  189   9.366  10.819   9.796  0.5813  1.3803 -0.3008
  727MOL0     C  190   9.372  10.693   9.786 -0.4928  0.1658 -0.2117
  727MOL0     O  191   9.487  10.630   9.772 -0.1954 -0.3014  0.2458
  727MOL0     C  192   9.593  10.700   9.822 -0.1653  1.0789  0.0604
  727MOL0     C  193   9.670  10.784   9.744 -0.1961 -0.5611  0.1890
  727MOL0     C  194   9.773  10.862   9.797 -0.2218 -0.2776  0.4247
  727MOL0     C  195   9.823  10.839   9.921  0.2113  0.5383 -0.8294
  727MOL0     O  196   9.946  10.883   9.964 -0.1224  0.8740  0.4525
  727MOL0     C  197   9.959  10.920  10.100 -0.4601  0.0480  1.2938
  727MOL0     C  198  10.089  10.994  10.108  0.1087  0.3085 -0.8190
  727MOL0     C  199  10.098  11.087  10.240  0.7074 -0.4507  0.0085
  727MOL0     C  200  10.225  11.173  10.250 -0.0879  0.3497  0.8853
  727MOL0     C  201  10.191  11.315  10.317 -0.2276  0.1706 -0.2554
  727MOL0     C  202  10.151  11.295  10.464 -1.0134  0.2347 -0.7041
  727MOL0     C  203  10.136  11.429  10.540  0.5082  0.9252  0.3115
  727MOL0     C  204  10.161  11.420  10.695 -0.2597 -0.7014  0.3200
  727MOL0     N  205  10.130  11.549  10.766  0.5652  0.4885  0.6081
  727MOL0     C  206  10.216  11.645  10.812 -0.6329 -0.4568  0.5348
  727MOL0     C  207  10.141  11.745  10.866  0.5203  0.3466 -0.0734
  727MOL0     C  208  10.184  11.876  10.922 -0.5221 -0.0421  0.2935
  727MOL0     C  209  10.269  11.873  11.051  0.2397  0.0067 -1.1478
  727MOL0     C  210  10.179  11.808  11.159 -0.9756  0.1386 -1.2201
  727MOL0     C  211  10.232  11.829  11.301  0.5622  0.0222  0.2381
  727MOL0     O  212  10.356  11.757  11.324  0.2331 -0.4474 -0.0603
  727MOL0     C  213  10.431  11.791  11.437  0.1144  0.2837 -0.4741
  727MOL0     C  214  10.382  11.813  11.567 -1.3496 -0.2911  0.5859
  727MOL0     C  215  10.465  11.858  11.675 -0.0530 -0.0065 -0.0205
  727MOL0     C  216  10.402  11.863  11.812  0.2884 -0.1681  0.4060
  727MOL0     C  217  10.602  11.874  11.658 -0.0990  0.5599  1.2489
  727MOL0     C  218  10.701  11.920  11.764 -0.5452  0.8938 -0.7664
  727MOL0     O  219  10.831  11.918  11.736  0.0982 -0.4269  0.3616
  727MOL0     C  220  10.924  11.925  11.834  0.1393 -0.3377  0.1433
  727MOL0     C  221  10.923  11.857  11.958  0.7657 -0.4481 -0.0679
  727MOL0     C  222  11.025  11.864  12.051 -0.9274  0.1127  0.1495
  727MOL0     C  223  11.135  11.953  12.035  0.2014  0.0535 -0.0388
  727MOL0     O  224  11.224  11.982  12.137  0.0166 -0.6950  0.4179
  727MOL0     C  225  11.339  12.057  12.101 -0.4090  0.0755  0.2735
  727MOL0     C  226  11.447  12.033  12.207  0.1176  0.3344  0.0662
  727MOL0     C  227  11.428  12.095  12.347  1.5542 -0.2797  0.1564
  727MOL0     C  228  11.419  12.243  12.348 -0.1804 -0.5587 -0.1976
  727MOL0     C  229  11.456  12.304  12.488 -0.6621  1.3812  0.1725
  727MOL0     C  230  11.490  12.445  12.478  0.2552  0.2652 -0.1354
  727MOL0     C  231  11.456  12.515  12.608  0.3491 -0.3611 -0.1903
  727MOL0     C  232  11.465  12.669  12.599  0.9463  0.6321  0.4778
  727MOL0    Cl  233  11.328  12.720  12.500  0.2074 -0.2359  0.6912
  727MOL0     C  234  11.129  12.033  11.914  0.5321  0.3806 -0.0495
  727MOL0     C  235  11.033  12.013  11.814 -0.5862 -0.1867 -0.0477
  727MOL0     O  236  10.652  11.967  11.867  0.2521 -0.0638  0.4745
  727MOL0     C  237  10.650  11.845  11.528  0.8368  0.1269 -0.8195
  727MOL0     C  238  10.563  11.806  11.430 -0.4185 -0.0284  0.5916
  727MOL0     N  239  10.009  11.710  10.835 -0.5796 -0.2126 -0.0811
  727MOL0     N  240   9.999  11.592  10.778  0.2659  0.7579 -1.1383
  727MOL0     C  241   9.746  10.753   9.999 -0.5001  0.8864 -0.0517
  727MOL0     C  242   9.632  10.687   9.953 -0.0517  0.2621  0.7465
  727MOL0     C  243   9.241  10.617   9.791 -0.6789 -0.6105 -0.1505
  727MOL0     C  244   9.247  10.473   9.793  0.3543 -0.9921 -0.0342
  727MOL0     C  245   9.131  10.401   9.797  0.2951 -0.4693  0.5439
  727MOL0     C  246   9.000  10.444   9.812  0.0276  0.1784  1.3093
  727MOL0     O  247   8.887  10.364   9.829  0.1282 -0.0097  0.1476
  727MOL0     C  248   8.893  10.221   9.858 -0.5825 -0.4216 -1.1275
  727MOL0     C  249   8.952  10.192   9.994 -0.1629  0.5337 -0.3006
  727MOL0     C  250   8.887  10.276  10.105  0.5629 -0.4055 -0.3548
  727MOL0     C  251   8.944  10.215  10.235 -0.3510 -0.8584 -0.0351
  727MOL0     C  252   8.872  10.274  10.349 -0.1136 -0.8460  0.5623
  727MOL0     C  253   8.821  10.307  10.453 -0.3625  0.2277  0.0279
  727MOL0     C  254   8.990  10.585   9.815 -0.2854  0.1078  0.3043
  727MOL0     C  255   9.107  10.670   9.801  0.2271  0.4072  0.4795
  727MOL0     C  256   9.075  10.810   9.785  0.5344 -0.5905 -0.6071
  727MOL0     H  257   9.628  10.809   9.647 -1.2431 -0.8765  0.5488
  727MOL0     H  258   9.831  10.927   9.732 -0.2131  1.1377  1.8071
  727MOL0     H  259   9.967  10.846  10.179 -1.7936  0.8344  2.2119
  727MOL0     H  260   9.870  10.976  10.131 -0.9714 -0.4045  0.6886
  727MOL0     H  261  10.168  10.919  10.117  1.4648  1.8570  1.1279
  727MOL0     H  262  10.109  11.059  10.022  0.4068  0.8115 -0.3790
  727MOL0     H  263  10.013  11.153  10.225  2.7066  1.6186 -4.3313
  727MOL0     H  264  10.097  11.020  10.327  2.4265 -0.4811  0.0574
  727MOL0     H  265  10.309  11.127  10.305  2.5108 -0.5333 -3.3376
  727MOL0     H  266  10.268  11.191  10.151  1.6166 -2.2658  1.0436
  727MOL0     H  267  10.118  11.381  10.270 -1.2600 -0.6156  0.2109
  727MOL0     H  268  10.286  11.370  10.319 -0.0482 -0.0654  3.3164
  727MOL0     H  269  10.058  11.241  10.485 -0.1399  0.0365  3.6663
  727MOL0     H  270  10.225  11.233  10.516 -2.9116 -0.7658  0.9830
  727MOL0     H  271  10.031  11.457  10.532  0.2377  0.5899  2.2175
  727MOL0     H  272  10.205  11.503  10.498 -0.7862  1.1242 -1.5687
  727MOL0     H  273  10.088  11.347  10.730  0.7243 -1.4127  0.9704
  727MOL0     H  274  10.264  11.391  10.718 -0.7099 -1.2738  1.7449
  727MOL0     H  275  10.321  11.648  10.785 -1.0701 -2.2583 -1.6441
  727MOL0     H  276  10.094  11.937  10.934 -0.8097  0.2038 -2.5793
  727MOL0     H  277  10.239  11.929  10.844  1.6355  0.5161  2.0956
  727MOL0     H  278  10.366  11.826  11.036 -0.3147 -2.4855  2.0063
  727MOL0     H  279  10.291  11.969  11.099 -0.4423 -0.9043  1.1326
  727MOL0     H  280  10.076  11.844  11.159 -2.4471 -3.3015  1.9854
  727MOL0     H  281  10.157  11.702  11.142 -0.5695 -0.1714  0.0319
  727MOL0     H  282  10.247  11.938  11.305  0.0762  0.2067 -1.7345
  727MOL0     H  283  10.156  11.811  11.377  0.5315  0.1988  0.2505
  727MOL0     H  284  10.275  11.801  11.583 -1.7159  0.9323 -0.7078
  727MOL0     H  285  10.307  11.811  11.800 -0.3710  1.0358  0.3292
  727MOL0     H  286  10.387  11.964  11.849 -1.7511 -0.8458  1.5730
  727MOL0     H  287  10.455  11.801  11.887 -3.0829 -1.4691  1.9077
  727MOL0     H  288  10.845  11.785  11.979  0.7588 -1.2534 -2.5146
  727MOL0     H  289  11.004  11.803  12.138 -0.0486  1.9860  1.7521
  727MOL0     H  290  11.382  12.025  12.006  0.8131  0.5249  0.6635
  727MOL0     H  291  11.328  12.166  12.102  2.1926  0.4053 -0.4952
  727MOL0     H  292  11.459  11.925  12.222 -1.9351  0.2909  1.7297
  727MOL0     H  293  11.546  12.067  12.172  0.4172  0.1300  0.7019
  727MOL0     H  294  11.508  12.051  12.408  2.3951  0.4116 -0.4304
  727MOL0     H  295  11.336  12.056  12.391  2.2415 -1.7130  0.4229
  727MOL0     H  296  11.320  12.275  12.317  0.0183 -0.6302 -0.9225
  727MOL0     H  297  11.488  12.288  12.276  1.3802 -1.3797  0.7042
  727MOL0     H  298  11.373  12.276  12.555  0.3515 -1.0112  0.5107
  727MOL0     H  299  11.536  12.253  12.543 -1.7120  1.8712  2.2973
  727MOL0     H  300  11.441  12.493  12.393  3.1666 -1.0896 -2.8010
  727MOL0     H  301  11.597  12.464  12.464 -0.4724  4.1379 -1.6516
  727MOL0     H  302  11.527  12.487  12.686 -0.2910  0.8661  0.8800
  727MOL0     H  303  11.361  12.472  12.643  0.6186 -1.2855 -0.5479
  727MOL0     H  304  11.560  12.700  12.553  0.2254 -0.9343 -2.2419
  727MOL0     H  305  11.459  12.718  12.697  3.5080  1.3995  0.3385
  727MOL0     H  306  11.200  12.111  11.887 -0.0444  0.3431 -1.8030
  727MOL0     H  307  11.047  12.079  11.729 -0.2961  0.6193  0.6114
  727MOL0     H  308  10.754  11.833  11.502  1.2922 -0.1794  1.0252
  727MOL0     H  309  10.613  11.785  11.335  1.0020 -1.5794  1.6283
  727MOL0     H  310   9.784  10.740  10.100  2.0587 -0.1892 -1.0846
  727MOL0     H  311   9.586  10.613  10.017  1.0393  0.9575  2.4034
  727MOL0     H  312   9.338  10.414   9.782  1.0168 -0.1140  0.5923
  727MOL0     H  313   9.149  10.295   9.802 -1.6887 -0.9235 -0.5983
  727MOL0     H  314   8.790  10.185   9.854 -0.4849 -1.3083  2.0090
  727MOL0     H  315   8.955  10.166   9.786  1.2102  0.5693 -0.4066
  727MOL0     H  316   9.059  10.212   9.985  0.2468 -1.2532  0.2080
  727MOL0     H  317   8.927  10.087  10.011  1.3889  0.2250  0.2950
  727MOL0     H  318   8.900  10.384  10.091 -1.5210 -0.1218 -0.4362
  727MOL0     H  319   8.782  10.246  10.105  1.2575 -3.7984  4.3159
  727MOL0     H  320   9.051  10.229  10.252 -0.1603 -2.1965 -0.0403
  727MOL0     H  321   8.939  10.106  10.229 -0.0554 -0.7755 -3.5233
  727MOL0     H  322   8.774  10.338  10.544  1.1324 -0.2637  1.0023
  727MOL0     H  323   8.892  10.631   9.822 -0.0869  0.2906  2.5577
  727MOL0     H  324   9.091  10.861   9.881  4.0002 -1.5883 -0.5291
  727MOL0     H  325   9.153  10.855   9.723 -0.6326  2.6649  0.0610
  727MOL0     H  326   8.973  10.825   9.747 -0.1343 -0.6713  1.0752
  728MOL0     O  327   9.355   3.502   4.660 -0.6084  0.0120  0.7860
  728MOL0     C  328   9.357   3.403   4.585  0.2355 -0.4347  0.1704
  728MOL0     O  329   9.469   3.341   4.539 -0.2307  0.6956 -0.0714
  728MOL0     C  330   9.592   3.382   4.585  0.0296  0.4454 -0.1493
  728MOL0     C  331   9.702   3.414   4.502  0.0854 -0.1329  0.5921
  728MOL0     C  332   9.828   3.443   4.546 -0.1847 -1.0154 -0.3572
  728MOL0     C  333   9.853   3.449   4.692 -0.6766  0.4694  0.6272
  728MOL0     O  334   9.981   3.470   4.735 -0.3992 -0.2157  0.5976
  728MOL0     C  335   9.996   3.508   4.871  0.8622  0.9416 -0.6497
  728MOL0     C  336  10.143   3.491   4.904  0.8758 -0.0182  0.4457
  728MOL0     C  337  10.179   3.531   5.042 -0.6177  0.1322 -0.3888
  728MOL0     C  338  10.328   3.530   5.067  0.5716 -0.2992 -1.3484
  728MOL0     C  339  10.396   3.390   5.083  0.4491  0.0007  0.8114
  728MOL0     C  340  10.536   3.398   5.137 -0.5254  0.3049  0.7427
  728MOL0     C  341  10.622   3.277   5.108 -0.2847 -0.4045  0.2426
  728MOL0     C  342  10.767   3.296   5.173 -0.5014  0.5247 -0.2500
  728MOL0     N  343  10.843   3.170   5.142  0.4745 -0.1115  0.3317
  728MOL0     C  344  10.853   3.114   5.018 -0.0133 -0.3815 -0.3440
  728MOL0     C  345  10.929   3.009   5.044 -1.2316 -0.4123  0.2941
  728MOL0     C  346  10.962   2.908   4.927  0.4570  1.1463 -0.5948
  728MOL0     C  347  11.108   2.876   4.942 -0.3088 -0.7836 -0.7323
  728MOL0     C  348  11.152   2.761   4.856 -0.1839 -0.0090  0.2003
  728MOL0     C  349  11.131   2.776   4.706  0.1233  0.1202  0.1189
  728MOL0     O  350  11.169   2.656   4.645  0.5657 -0.5770 -0.1407
  728MOL0     C  351  11.103   2.615   4.530  0.7407  0.4784 -0.8768
  728MOL0     C  352  11.117   2.478   4.500  0.0125  0.4391 -0.0808
  728MOL0     C  353  11.056   2.428   4.389 -0.3840  0.4154  0.2329
  728MOL0     C  354  11.078   2.284   4.347 -0.2345  0.1443  0.4188
  728MOL0     C  355  10.977   2.515   4.299  0.1013 -0.5025 -1.1729
  728MOL0     C  356  10.894   2.473   4.183  0.0589  0.0612  0.3563
  728MOL0     O  357  10.911   2.553   4.072  0.7068 -0.6001  0.5395
  728MOL0     C  358  10.835   2.522   3.958  0.6146 -0.5849  0.1042
  728MOL0     C  359  10.889   2.452   3.845 -0.3190 -0.0374  0.0172
  728MOL0     C  360  10.792   2.416   3.741 -0.3064  0.0066 -0.6572
  728MOL0     C  361  10.660   2.465   3.734 -0.2305 -0.2435  0.4432
  728MOL0     O  362  10.587   2.453   3.619  0.3314  0.2587 -0.1404
  728MOL0     C  363  10.449   2.419   3.632  0.2503  0.3533 -0.1020
  728MOL0     C  364  10.390   2.393   3.493  0.5470  0.4067 -0.3869
  728MOL0     C  365  10.366   2.523   3.418 -0.1781  0.2797  0.5555
  728MOL0     C  366  10.272   2.522   3.291 -0.4669 -0.8994  0.1875
  728MOL0     C  367  10.127   2.478   3.309 -0.3537  0.1531 -0.0103
  728MOL0     C  368  10.055   2.460   3.168  0.2153  0.5087 -0.4330
  728MOL0     C  369   9.937   2.372   3.190  0.1737  0.0197 -0.6183
  728MOL0     C  370   9.928   2.266   3.086 -0.3813  0.1840  0.4852
  728MOL0    Cl  371   9.904   2.348   2.928  0.1442 -0.2870 -0.3827
  728MOL0     C  372  10.619   2.548   3.835  0.1531  0.1004  0.3459
  728MOL0     C  373  10.698   2.567   3.950 -0.5742  0.4914 -0.2148
  728MOL0     O  374  10.847   2.359   4.178 -0.0916 -0.0703  1.0541
  728MOL0     C  375  10.967   2.645   4.334  0.8625 -0.7505 -0.2446
  728MOL0     C  376  11.025   2.694   4.451  0.7260  0.0167 -0.0554
  728MOL0     N  377  10.964   3.006   5.180  0.0473 -0.8219  0.5878
  728MOL0     N  378  10.902   3.098   5.241  0.1083 -0.2890 -0.6900
  728MOL0     C  379   9.742   3.434   4.778  0.2025  0.2362 -0.1886
  728MOL0     C  380   9.616   3.406   4.719 -0.4311 -0.5405 -0.3872
  728MOL0     C  381   9.231   3.353   4.528 -0.2856  0.4138 -0.4305
  728MOL0     C  382   9.231   3.275   4.413 -0.6191  0.2344 -0.4402
  728MOL0     C  383   9.113   3.230   4.346 -0.5411 -0.3285  0.0082
  728MOL0     C  384   8.989   3.268   4.399  0.3533 -0.2886 -0.1045
  728MOL0     O  385   8.866   3.237   4.343 -0.0089 -0.0530  0.0891
  728MOL0     C  386   8.812   3.110   4.379 -0.6196 -0.4953 -0.0062
  728MOL0     C  387   8.842   2.999   4.285 -0.5102  0.0505  0.2613
  728MOL0     C  388   8.794   3.034   4.137 -1.0078  0.4916 -0.6858
  728MOL0     C  389   8.776   2.918   4.042  0.4632 -0.9151  1.2157
  728MOL0     C  390   8.878   2.812   4.051  0.0791 -0.7433  0.8427
  728MOL0     C  391   8.969   2.734   4.068 -0.3301  0.2256  0.6619
  728MOL0     C  392   8.991   3.337   4.526 -0.7916  0.3291  0.2652
  728MOL0     C  393   9.107   3.379   4.587 -0.0323  0.0622 -0.2134
  728MOL0     C  394   9.083   3.456   4.721 -0.6674  0.1684  0.3667
  728MOL0     H  395   9.697   3.403   4.395  3.9689  1.1298  0.1495
  728MOL0     H  396   9.906   3.478   4.478 -1.6594  1.2696 -0.9576
  728MOL0     H  397   9.943   3.449   4.947 -1.9297  2.5857 -1.1797
  728MOL0     H  398   9.957   3.609   4.884 -3.2242 -0.6234  0.9038
  728MOL0     H  399  10.166   3.385   4.889 -1.0288 -0.4562  0.3982
  728MOL0     H  400  10.196   3.558   4.836  0.6435 -0.5964 -0.3131
  728MOL0     H  401  10.144   3.632   5.068 -0.3519  0.6257 -1.8629
  728MOL0     H  402  10.132   3.463   5.113 -0.7172 -0.0225 -0.6044
  728MOL0     H  403  10.382   3.597   5.000  0.7782  1.6636  0.6344
  728MOL0     H  404  10.335   3.573   5.168 -1.6350  0.1299 -1.3382
  728MOL0     H  405  10.385   3.344   4.984  1.6482  1.0317  0.1679
  728MOL0     H  406  10.331   3.331   5.149  0.2770  0.6589  1.2322
  728MOL0     H  407  10.584   3.481   5.085 -1.6188  0.4006 -0.1687
  728MOL0     H  408  10.526   3.412   5.245  1.1488 -3.0375  1.4622
  728MOL0     H  409  10.625   3.267   4.999 -1.0396  1.8092 -0.0424
  728MOL0     H  410  10.577   3.184   5.144  0.6473 -1.6384 -1.6717
  728MOL0     H  411  10.824   3.380   5.133  2.8870 -1.1452  0.7214
  728MOL0     H  412  10.755   3.304   5.282  0.8646  1.9613 -0.1775
  728MOL0     H  413  10.820   3.150   4.922  0.1936  1.1185  0.1175
  728MOL0     H  414  10.946   2.951   4.828  0.4851 -4.3619 -3.3667
  728MOL0     H  415  10.899   2.818   4.931 -0.1294  1.5836  0.7650
  728MOL0     H  416  11.172   2.961   4.915  1.5235 -2.1969 -0.9921
  728MOL0     H  417  11.131   2.851   5.046  4.2081 -4.1738 -2.2454
  728MOL0     H  418  11.260   2.750   4.865 -0.3127  0.3421  3.7112
  728MOL0     H  419  11.105   2.664   4.877  1.9997 -1.4926 -1.3773
  728MOL0     H  420  11.027   2.802   4.681 -0.6673 -2.6786  0.1384
  728MOL0     H  421  11.191   2.859   4.668 -0.9265  1.6280  1.6230
  728MOL0     H  422  11.180   2.417   4.565  2.5122  1.2895 -1.5516
  728MOL0     H  423  11.086   2.289   4.238 -1.5119  1.2233  0.3369
  728MOL0     H  424  11.000   2.213   4.378 -1.6348  1.9626  1.3072
  728MOL0     H  425  11.178   2.256   4.380 -0.2965 -0.6032 -0.0021
  728MOL0     H  426  10.992   2.418   3.830 -0.9476 -1.1169 -2.4978
  728MOL0     H  427  10.825   2.344   3.667  1.8894 -0.7440  0.9321
  728MOL0     H  428  10.435   2.321   3.679  2.8350  0.3431  0.7631
  728MOL0     H  429  10.393   2.499   3.681  2.7782  0.1690  3.3969
  728MOL0     H  430  10.455   2.330   3.431 -1.6917  0.6813 -3.2380
  728MOL0     H  431  10.294   2.343   3.505  1.5764 -1.4193  0.8789
  728MOL0     H  432  10.467   2.564   3.406  0.5559 -1.3670  0.8536
  728MOL0     H  433  10.309   2.585   3.488  0.5092  0.4451  0.9745
  728MOL0     H  434  10.315   2.464   3.209  0.0012  0.3255 -0.4512
  728MOL0     H  435  10.278   2.623   3.251  0.7482 -0.3420  1.6622
  728MOL0     H  436  10.136   2.389   3.373 -1.2551  0.4245  0.5151
  728MOL0     H  437  10.073   2.557   3.361  0.6344  0.4470  0.6059
  728MOL0     H  438  10.128   2.423   3.096  2.0236  1.1291  1.0068
  728MOL0     H  439  10.023   2.558   3.131 -2.3726 -0.0073  0.2229
  728MOL0     H  440   9.850   2.437   3.203  3.0582  4.1370 -0.0282
  728MOL0     H  441   9.954   2.314   3.281  1.1909 -0.8797 -1.3546
  728MOL0     H  442   9.853   2.192   3.115 -0.0382 -0.7665 -0.9300
  728MOL0     H  443  10.023   2.215   3.066 -2.0885 -2.9725 -0.3098
  728MOL0     H  444  10.519   2.589   3.834 -0.1042 -0.3819  2.4277
  728MOL0     H  445  10.654   2.629   4.028 -1.8685 -1.6736  0.8738
  728MOL0     H  446  10.916   2.719   4.272  2.0680  0.8219  0.5571
  728MOL0     H  447  11.016   2.801   4.465 -0.5092 -0.2528  1.6691
  728MOL0     H  448   9.750   3.436   4.886 -1.1575 -1.6771  0.0072
  728MOL0     H  449   9.531   3.387   4.784 -0.7969 -3.6815 -1.6059
  728MOL0     H  450   9.320   3.241   4.362 -1.4011 -1.9801 -0.4357
  728MOL0     H  451   9.127   3.185   4.249  3.7019 -2.6127  1.4111
  728MOL0     H  452   8.842   3.087   4.482  0.7192 -0.8039 -0.4431
  728MOL0     H  453   8.705   3.130   4.378 -0.4298  1.4074 -4.2632
  728MOL0     H  454   8.809   2.905   4.330  0.0669  0.0686  0.7352
  728MOL0     H  455   8.951   3.001   4.274 -0.5405  1.8773  0.0539
  728MOL0     H  456   8.701   3.091   4.152 -0.7316  0.6264  0.5774
  728MOL0     H  457   8.877   3.091   4.096 -1.2012 -0.4164 -2.4283
  728MOL0     H  458   8.774   2.948   3.936  1.0791  0.0766  1.4750
  728MOL0     H  459   8.682   2.865   4.060 -0.6639  0.2814 -0.6970
  728MOL0     H  460   9.058   2.679   4.089 -1.1379 -1.4197 -0.0471
  728MOL0     H  461   8.889   3.336   4.565 -1.2015 -3.0289 -0.5560
  728MOL0     H  462   9.092   3.565   4.730 -0.6799  0.1393  0.7460
  728MOL0     H  463   8.989   3.419   4.764 -1.9114  1.8499 -0.7551
  728MOL0     H  464   9.156   3.426   4.796  0.2644  1.1651 -0.1231
  729MOL0     O  465   5.653   3.906   3.759  0.3136  0.2768 -0.3530
  729MOL0     C  466   5.566   3.854   3.828  0.1280  0.1584 -0.4880
  729MOL0     O  467   5.580   3.813   3.968  0.1251 -0.6295 -0.1750
  729MOL0     C  468   5.701   3.841   4.021 -0.2438 -0.2010 -0.6725
  729MOL0     C  469   5.715   3.949   4.097 -0.0697 -0.5324  0.0010
  729MOL0     C  470   5.828   3.967   4.173 -0.1702  0.0683  0.4672
  729MOL0     C  471   5.945   3.890   4.154 -0.1269 -0.1661  0.4552
  729MOL0     O  472   6.070   3.917   4.193 -0.7510 -0.2877  0.3248
  729MOL0     C  473   6.100   4.056   4.208  0.7685 -0.2845 -0.0385
  729MOL0     C  474   6.089   4.140   4.074 -0.7566 -0.1055 -1.0173
  729MOL0     C  475   6.189   4.132   3.966  0.9277 -0.6114 -0.0824
  729MOL0     C  476   6.160   4.023   3.859  1.0167 -0.3444  0.2773
  729MOL0     C  477   6.263   4.020   3.743 -0.0534 -0.5860 -0.4718
  729MOL0     C  478   6.380   3.932   3.772 -1.0493 -0.4158 -0.7209
  729MOL0     C  479   6.456   3.901   3.641 -0.3906  0.2664  0.3101
  729MOL0     C  480   6.574   3.795   3.660  0.2661  0.7614  0.7389
  729MOL0     N  481   6.681   3.780   3.556 -0.1229  0.8793 -0.1362
  729MOL0     C  482   6.818   3.794   3.567  0.3879  0.5293 -0.6283
  729MOL0     C  483   6.868   3.758   3.449 -0.9864 -0.2354 -0.2440
  729MOL0     C  484   7.019   3.755   3.422 -0.3868  0.0047 -0.0741
  729MOL0     C  485   7.047   3.635   3.335  0.8798 -0.5289 -0.3029
  729MOL0     C  486   7.198   3.608   3.303  0.4375 -0.0837  0.0435
  729MOL0     C  487   7.209   3.482   3.213 -0.1421  0.6835  0.1338
  729MOL0     O  488   7.143   3.493   3.089  1.0320 -0.6100  0.3451
  729MOL0     C  489   7.225   3.492   2.976  0.3067  0.0411 -0.3303
  729MOL0     C  490   7.205   3.393   2.890  1.4387 -0.7955 -0.1015
  729MOL0     C  491   7.260   3.380   2.773  0.6699 -0.2255 -0.5055
  729MOL0     C  492   7.200   3.277   2.683 -0.4825  0.4950  0.2201
  729MOL0     C  493   7.359   3.476   2.735 -0.4541  0.4626 -0.1822
  729MOL0     C  494   7.435   3.476   2.605 -0.9314  0.3651 -0.7363
  729MOL0     O  495   7.554   3.540   2.624 -0.3470 -0.4423  0.6281
  729MOL0     C  496   7.638   3.565   2.513  0.0904  0.9015 -0.9572
  729MOL0     C  497   7.779   3.565   2.530  0.2888  0.6259  0.5642
  729MOL0     C  498   7.868   3.591   2.426 -0.4100 -0.3407  1.4898
  729MOL0     C  499   7.806   3.624   2.300 -0.3401  0.4261 -0.2326
  729MOL0     O  500   7.874   3.649   2.181  0.0089 -0.4622 -0.2621
  729MOL0     C  501   7.983   3.571   2.138  0.2911  0.0918  0.4007
  729MOL0     C  502   7.926   3.460   2.050 -0.0551  0.6726  0.1904
  729MOL0     C  503   7.858   3.502   1.921 -0.1087 -0.9512  0.2336
  729MOL0     C  504   7.854   3.383   1.821  0.8452 -0.4597 -0.1388
  729MOL0     C  505   7.790   3.420   1.686  0.3642 -0.8034  0.3600
  729MOL0     C  506   7.637   3.448   1.689 -1.2785 -0.8006 -0.1589
  729MOL0     C  507   7.543   3.324   1.731 -0.4180 -0.3052 -0.5966
  729MOL0     C  508   7.401   3.380   1.760  0.7855 -0.5590 -0.0671
  729MOL0    Cl  509   7.318   3.443   1.621  0.1153  0.1746  0.1415
  729MOL0     C  510   7.670   3.634   2.285 -0.5257 -0.1214 -0.3194
  729MOL0     C  511   7.589   3.596   2.388  0.7460 -0.0213 -0.2684
  729MOL0     O  512   7.386   3.433   2.499 -0.0945 -0.0479 -0.1622
  729MOL0     C  513   7.387   3.576   2.830  0.7797  0.1899 -0.0934
  729MOL0     C  514   7.321   3.585   2.951 -0.7881 -0.1222 -0.9581
  729MOL0     N  515   6.760   3.727   3.362  0.6118  0.4110  0.1301
  729MOL0     N  516   6.644   3.746   3.425 -0.4178 -0.0581 -0.6748
  729MOL0     C  517   5.929   3.782   4.072  0.1241  0.7720 -0.3297
  729MOL0     C  518   5.805   3.749   4.009  0.0602 -0.3936  0.4722
  729MOL0     C  519   5.427   3.848   3.771 -0.4640 -0.1101  0.5602
  729MOL0     C  520   5.342   3.775   3.842  0.7102  0.0922  0.2750
  729MOL0     C  521   5.202   3.779   3.826  0.5641  1.2151 -0.1722
  729MOL0     C  522   5.156   3.844   3.709  0.1639 -0.1903 -0.6891
  729MOL0     O  523   5.023   3.860   3.669 -0.1677  0.3537 -0.4933
  729MOL0     C  524   4.940   3.882   3.780  0.6403 -0.7224 -0.7378
  729MOL0     C  525   4.802   3.929   3.735  0.1337 -0.7981  0.5842
  729MOL0     C  526   4.803   4.037   3.616 -0.2037  0.3890 -0.3527
  729MOL0     C  527   4.668   4.085   3.586  1.2017 -0.5993  0.4556
  729MOL0     C  528   4.575   3.974   3.558  0.1965  0.3481 -0.7942
  729MOL0     C  529   4.490   3.894   3.523  0.5461 -0.8389  0.7798
  729MOL0     C  530   5.246   3.910   3.627 -1.1155  0.4820  0.5128
  729MOL0     C  531   5.385   3.915   3.652  0.1400  0.0460 -0.0158
  729MOL0     C  532   5.469   3.989   3.543 -0.1535  0.3524  0.0041
  729MOL0     H  533   5.642   4.024   4.124 -2.2457 -2.5562  0.0360
  729MOL0     H  534   5.830   4.065   4.219  0.9924  3.8198 -6.2811
  729MOL0     H  535   6.201   4.068   4.249  0.6540  0.5545  0.0060
  729MOL0     H  536   6.030   4.104   4.277  0.4496 -1.4771  0.4937
  729MOL0     H  537   5.986   4.132   4.038 -2.1219  1.1787  2.1608
  729MOL0     H  538   6.093   4.241   4.117 -0.0766 -0.0577 -1.1899
  729MOL0     H  539   6.195   4.231   3.920 -2.1204  0.3683  1.3407
  729MOL0     H  540   6.290   4.110   4.002  0.5647 -1.9777  0.1441
  729MOL0     H  541   6.166   3.922   3.900 -0.8574 -0.7760 -0.4079
  729MOL0     H  542   6.062   4.032   3.810  0.4696  0.5914  1.4638
  729MOL0     H  543   6.287   4.125   3.722 -2.4302  0.3456  1.0296
  729MOL0     H  544   6.209   3.997   3.651  0.7726  2.8623 -1.9835
  729MOL0     H  545   6.451   3.969   3.847 -0.4777  0.7073 -1.7747
  729MOL0     H  546   6.354   3.836   3.816  2.5603 -0.0695  2.8291
  729MOL0     H  547   6.511   3.992   3.617  2.3531 -0.7422  2.1970
  729MOL0     H  548   6.396   3.873   3.554 -1.9774  0.4809  1.2836
  729MOL0     H  549   6.629   3.817   3.753  2.2335  2.5032 -0.7420
  729MOL0     H  550   6.529   3.696   3.676  1.2939  0.2602  0.6516
  729MOL0     H  551   6.867   3.832   3.656 -0.6543 -1.4928  0.9056
  729MOL0     H  552   7.071   3.749   3.518  0.5361  2.1070 -0.3769
  729MOL0     H  553   7.044   3.850   3.374 -1.4857  1.1559  1.5336
  729MOL0     H  554   7.009   3.541   3.377  0.5701 -0.8159 -1.2138
  729MOL0     H  555   6.998   3.643   3.238  0.5963  0.3074 -0.0903
  729MOL0     H  556   7.239   3.694   3.250 -0.5678 -0.0351 -0.6809
  729MOL0     H  557   7.249   3.593   3.399 -2.6768 -0.9844  1.7116
  729MOL0     H  558   7.315   3.478   3.185 -0.0557  3.3720 -0.1225
  729MOL0     H  559   7.178   3.394   3.271 -0.3157  1.2984  1.0043
  729MOL0     H  560   7.134   3.318   2.926 -1.0341  1.7368  0.6517
  729MOL0     H  561   7.267   3.197   2.649  0.0267  1.2589 -0.6066
  729MOL0     H  562   7.163   3.333   2.597 -0.6227  0.1424  0.0475
  729MOL0     H  563   7.116   3.230   2.735  1.0366 -1.3219  1.1663
  729MOL0     H  564   7.823   3.536   2.626  0.8837  0.8656  0.3719
  729MOL0     H  565   7.977   3.586   2.429 -0.4394 -0.6202  3.0397
  729MOL0     H  566   8.053   3.631   2.079 -1.3337  2.4999  0.7787
  729MOL0     H  567   8.040   3.534   2.223  1.3270  2.4609  0.8114
  729MOL0     H  568   8.003   3.386   2.028  2.2723  2.8140  0.6787
  729MOL0     H  569   7.845   3.409   2.103 -0.0596  1.7706  1.3055
  729MOL0     H  570   7.916   3.583   1.875 -0.6206 -0.5187  0.3430
  729MOL0     H  571   7.758   3.541   1.943  0.1624  0.1001 -0.2986
  729MOL0     H  572   7.801   3.299   1.867  0.7748 -0.6700 -0.6029
  729MOL0     H  573   7.951   3.339   1.796  0.4530 -0.4735 -1.7206
  729MOL0     H  574   7.843   3.508   1.649 -2.0556  0.9582  0.8247
  729MOL0     H  575   7.804   3.338   1.615  0.8749 -1.1525  0.8539
  729MOL0     H  576   7.612   3.477   1.586  0.0902 -0.5027 -0.4188
  729MOL0     H  577   7.614   3.538   1.746  2.3052  0.8887 -1.1243
  729MOL0     H  578   7.571   3.277   1.825  0.5553  1.0417 -0.1781
  729MOL0     H  579   7.554   3.254   1.647  2.0093  0.8318 -1.3325
  729MOL0     H  580   7.409   3.452   1.842 -0.7803 -2.2699  1.6931
  729MOL0     H  581   7.361   3.287   1.803  0.6232 -0.9838 -1.1196
  729MOL0     H  582   7.627   3.644   2.186 -2.3016 -0.4168  0.3841
  729MOL0     H  583   7.484   3.585   2.364  0.6965 -1.1435  0.3907
  729MOL0     H  584   7.472   3.641   2.812  0.1847  1.0212  0.0548
  729MOL0     H  585   7.338   3.670   3.016  0.3527 -0.2932 -1.0196
  729MOL0     H  586   6.014   3.716   4.053  0.1288  0.6657  0.0562
  729MOL0     H  587   5.803   3.654   3.955  1.1393  0.5038 -1.2338
  729MOL0     H  588   5.386   3.720   3.925  1.9814  0.3780 -0.2016
  729MOL0     H  589   5.140   3.730   3.900  0.8342 -0.0417 -0.7579
  729MOL0     H  590   4.927   3.797   3.847 -1.6665 -0.3787 -0.6567
  729MOL0     H  591   4.984   3.964   3.837 -3.4525  0.0428  1.7517
  729MOL0     H  592   4.749   3.978   3.817  0.4129  1.2713 -0.4063
  729MOL0     H  593   4.743   3.842   3.705 -2.2648  1.1429 -0.6017
  729MOL0     H  594   4.867   4.119   3.652  0.9939 -0.0995 -1.2944
  729MOL0     H  595   4.853   4.001   3.526  2.2391  1.8193  0.3152
  729MOL0     H  596   4.667   4.154   3.502 -1.2690 -1.1379 -0.0357
  729MOL0     H  597   4.631   4.137   3.676  2.7440 -0.2017  0.8848
  729MOL0     H  598   4.408   3.833   3.492  0.3297 -0.7271  1.1332
  729MOL0     H  599   5.205   3.978   3.553  1.7188 -0.1729 -1.8329
  729MOL0     H  600   5.411   3.996   3.450 -1.6733  0.4145  0.9312
  729MOL0     H  601   5.481   4.093   3.573 -1.4136  0.0623  1.6290
  729MOL0     H  602   5.561   3.932   3.531 -0.5705 -0.3191 -0.0810
  730MOL0     O  603   3.755   5.885   6.144  0.8412  0.1536  0.2210
  730MOL0     C  604   3.738   5.793   6.224 -0.8865  0.6011 -0.0045
  730MOL0     O  605   3.827   5.773   6.326 -0.9495 -0.2293 -0.5041
  730MOL0     C  606   3.912   5.872   6.351 -0.0479  0.0577  0.3067
  730MOL0     C  607   3.889   5.976   6.435 -0.1597  0.2129 -0.2404
  730MOL0     C  608   3.985   6.081   6.472 -0.3238  0.7501  0.2315
  730MOL0     C  609   4.110   6.076   6.404 -1.0795  0.1469 -0.1693
  730MOL0     O  610   4.196   6.183   6.429 -0.3621 -0.2581 -0.6201
  730MOL0     C  611   4.337   6.157   6.450  0.5282  0.2448  0.3646
  730MOL0     C  612   4.395   6.284   6.515  0.4004 -0.5898 -0.2086
  730MOL0     C  613   4.551   6.282   6.516  0.2906  0.3408  0.1594
  730MOL0     C  614   4.612   6.413   6.583 -0.3580  0.0161 -0.0373
  730MOL0     C  615   4.763   6.422   6.566  0.4059 -0.9489 -0.3559
  730MOL0     C  616   4.836   6.529   6.650 -0.3832  0.2415 -0.1177
  730MOL0     C  617   4.991   6.539   6.622  0.6566 -0.2295 -0.1945
  730MOL0     C  618   5.053   6.624   6.736  0.1098  0.1002  0.2817
  730MOL0     N  619   5.189   6.595   6.773  0.4849 -0.1640  0.1684
  730MOL0     C  620   5.293   6.618   6.687 -1.1420  0.0275 -0.1608
  730MOL0     C  621   5.400   6.608   6.772  0.4160  0.0935  0.5209
  730MOL0     C  622   5.549   6.612   6.741  0.2292 -0.1584 -0.7177
  730MOL0     C  623   5.585   6.660   6.599  0.9349  0.3827 -0.0042
  730MOL0     C  624   5.731   6.700   6.581 -0.0699  0.2583 -0.6745
  730MOL0     C  625   5.745   6.836   6.642 -0.9671 -0.3053  0.2532
  730MOL0     O  626   5.883   6.871   6.656 -0.0048  0.3593 -0.7565
  730MOL0     C  627   5.920   6.999   6.627  0.6218 -0.4819 -0.7687
  730MOL0     C  628   5.888   7.064   6.502  0.1519 -0.4273 -0.2480
  730MOL0     C  629   5.949   7.186   6.466 -0.3470  0.2884  1.1363
  730MOL0     C  630   5.912   7.244   6.330  0.4477  0.4278  0.1189
  730MOL0     C  631   6.048   7.235   6.559 -0.4803 -0.1020 -0.2410
  730MOL0     C  632   6.133   7.353   6.532  0.5433 -0.1527  0.4096
  730MOL0     O  633   6.233   7.381   6.621 -0.2665  0.2842  0.5208
  730MOL0     C  634   6.339   7.463   6.588 -0.2919 -0.2054 -0.3154
  730MOL0     C  635   6.320   7.599   6.554 -0.0426  0.1946 -0.1263
  730MOL0     C  636   6.436   7.682   6.532  0.0342 -0.8605  0.5523
  730MOL0     C  637   6.564   7.633   6.550  0.1671 -0.0869 -0.2583
  730MOL0     O  638   6.683   7.710   6.545 -0.5232 -0.3047 -0.2940
  730MOL0     C  639   6.668   7.845   6.497 -0.7074  0.5438  0.3368
  730MOL0     C  640   6.802   7.921   6.510  0.0572 -0.1078  1.0939
  730MOL0     C  641   6.925   7.855   6.446 -0.8407 -1.3608 -0.1953
  730MOL0     C  642   7.048   7.944   6.478 -1.1374 -0.9659  0.0646
  730MOL0     C  643   7.176   7.913   6.386 -0.1268 -0.2004  0.7453
  730MOL0     C  644   7.297   7.994   6.433  0.4396  1.4169 -0.2732
  730MOL0     C  645   7.411   8.001   6.330 -1.3559  0.3985  0.0461
  730MOL0     C  646   7.513   8.110   6.362  0.4137 -0.0830 -0.6897
  730MOL0    Cl  647   7.588   8.081   6.524 -0.5111 -0.0607  0.1142
  730MOL0     C  648   6.579   7.509   6.606  0.4353  0.1720 -0.7200
  730MOL0     C  649   6.466   7.426   6.629  0.6179  0.7888 -0.3477
  730MOL0     O  650   6.114   7.421   6.428  0.2592 -0.2010  0.8399
  730MOL0     C  651   6.069   7.167   6.679 -0.7745  0.0680  0.1895
  730MOL0     C  652   5.999   7.052   6.719 -0.2141 -0.6364  0.7832
  730MOL0     N  653   5.360   6.598   6.905  0.2007  0.2722  0.0978
  730MOL0     N  654   5.231   6.600   6.902 -0.7187  0.5776 -0.3139
  730MOL0     C  655   4.134   5.972   6.310 -0.2708  0.0612  0.1353
  730MOL0     C  656   4.044   5.871   6.286 -0.0115 -0.3718 -0.1413
  730MOL0     C  657   3.627   5.693   6.206  0.6377  0.6247 -0.2904
  730MOL0     C  658   3.636   5.571   6.280 -0.3848  1.3420 -0.5413
  730MOL0     C  659   3.534   5.473   6.270  1.2230 -0.1307  0.2608
  730MOL0     C  660   3.427   5.496   6.185 -0.3969  0.1386 -0.3282
  730MOL0     O  661   3.328   5.401   6.186 -0.0821  0.1536 -0.0027
  730MOL0     C  662   3.213   5.426   6.102  0.0000  1.0176 -0.9796
  730MOL0     C  663   3.114   5.312   6.128 -0.9655 -0.7572 -0.4762
  730MOL0     C  664   3.045   5.312   6.267 -0.2058  0.1533  0.4577
  730MOL0     C  665   2.952   5.187   6.258 -0.8938 -0.9182  0.9403
  730MOL0     C  666   3.023   5.059   6.272  0.8119 -0.1248  0.2725
  730MOL0     C  667   3.075   4.947   6.272  0.4620  0.1065 -1.5952
  730MOL0     C  668   3.411   5.626   6.124  0.4349  0.5994 -0.0616
  730MOL0     C  669   3.515   5.721   6.134 -0.4972  0.4056  0.2750
  730MOL0     C  670   3.493   5.852   6.058  0.4350 -0.0857  0.2511
  730MOL0     H  671   3.794   5.983   6.489  1.1808  1.5600  2.1408
  730MOL0     H  672   3.973   6.151   6.554  1.6563 -1.2029  2.3504
  730MOL0     H  673   4.386   6.137   6.355  0.8302 -1.2876  0.8264
  730MOL0     H  674   4.343   6.070   6.516 -0.3884 -0.3798 -0.3607
  730MOL0     H  675   4.359   6.368   6.454  0.9775  0.3535  0.7383
  730MOL0     H  676   4.349   6.303   6.612 -0.9933  2.7979 -1.4062
  730MOL0     H  677   4.581   6.193   6.572 -1.6175  0.0610  0.8261
  730MOL0     H  678   4.584   6.267   6.413  0.8446 -2.2601  0.6636
  730MOL0     H  679   4.565   6.507   6.551  3.1158  1.2321 -2.1105
  730MOL0     H  680   4.594   6.410   6.691 -1.0239 -1.3803 -0.1712
  730MOL0     H  681   4.780   6.429   6.458 -0.2724  0.8679 -0.3896
  730MOL0     H  682   4.806   6.325   6.590  1.1865 -0.0813  2.0107
  730MOL0     H  683   4.802   6.632   6.634 -1.2010 -0.5128 -4.4113
  730MOL0     H  684   4.818   6.507   6.756  1.3802 -1.4505 -0.1162
  730MOL0     H  685   5.005   6.585   6.523 -3.3078  0.2276 -0.6874
  730MOL0     H  686   5.015   6.432   6.618 -0.8461 -0.6984  1.9143
  730MOL0     H  687   5.042   6.729   6.710  0.8118 -0.4046 -2.3394
  730MOL0     H  688   4.996   6.612   6.829  0.0679 -0.3454  0.2036
  730MOL0     H  689   5.298   6.644   6.582  1.3862  2.2884  0.4078
  730MOL0     H  690   5.584   6.510   6.758 -0.4275 -0.3877 -0.7216
  730MOL0     H  691   5.595   6.677   6.817 -0.9937 -0.6943  0.5048
  730MOL0     H  692   5.552   6.579   6.534 -0.4241  0.1320  0.9560
  730MOL0     H  693   5.519   6.743   6.571 -0.4114 -0.2394  1.1663
  730MOL0     H  694   5.792   6.626   6.633 -3.2646 -0.7004  2.0584
  730MOL0     H  695   5.762   6.699   6.476 -0.0908 -1.9532 -0.7039
  730MOL0     H  696   5.688   6.899   6.572 -1.1018 -1.7102 -0.9530
  730MOL0     H  697   5.697   6.855   6.738 -0.4497  2.2878  0.0967
  730MOL0     H  698   5.809   7.017   6.443 -0.9848  0.7071  0.3266
  730MOL0     H  699   6.004   7.263   6.272 -0.5326  0.8449 -1.3543
  730MOL0     H  700   5.865   7.343   6.335 -0.8420 -0.1395 -0.5336
  730MOL0     H  701   5.854   7.178   6.266  3.0953 -0.4094 -1.6129
  730MOL0     H  702   6.222   7.641   6.536 -0.9381 -1.2740  1.1073
  730MOL0     H  703   6.427   7.789   6.515  2.5410  0.0175  3.6182
  730MOL0     H  704   6.620   7.847   6.399  0.0781 -3.5672 -0.3116
  730MOL0     H  705   6.594   7.892   6.562  0.1495  0.6525  1.2662
  730MOL0     H  706   6.801   8.014   6.453  0.2792 -1.1296 -0.6257
  730MOL0     H  707   6.817   7.940   6.617  2.1988 -1.4317  1.0936
  730MOL0     H  708   6.912   7.850   6.337  0.4555 -1.6452 -0.3543
  730MOL0     H  709   6.938   7.755   6.489  1.5910  0.8595  5.0270
  730MOL0     H  710   7.072   7.932   6.584 -3.6334 -0.5253  0.7477
  730MOL0     H  711   7.034   8.052   6.476  0.6575 -0.6704  1.4228
  730MOL0     H  712   7.184   7.804   6.378 -0.1428 -0.0354 -3.1229
  730MOL0     H  713   7.142   7.940   6.286 -5.0301  1.7738  2.6344
  730MOL0     H  714   7.332   7.957   6.529 -0.6435 -2.0699 -1.0566
  730MOL0     H  715   7.256   8.094   6.449 -1.2892  0.5474  1.1508
  730MOL0     H  716   7.379   8.027   6.229  0.3785 -1.7586 -1.1348
  730MOL0     H  717   7.468   7.908   6.330  0.6245  1.5548  1.1693
  730MOL0     H  718   7.471   8.210   6.350  0.3908 -0.0443 -0.2949
  730MOL0     H  719   7.605   8.106   6.302  0.5280  1.2523 -0.6448
  730MOL0     H  720   6.680   7.483   6.635 -0.4834 -0.7095  1.9310
  730MOL0     H  721   6.477   7.324   6.665  0.4340  1.3965  1.5257
  730MOL0     H  722   6.154   7.193   6.741  0.5034 -0.7872 -1.1452
  730MOL0     H  723   6.019   6.989   6.805  0.5220 -2.3587 -0.5879
  730MOL0     H  724   4.225   5.949   6.256 -1.9170 -3.7209 -1.3983
  730MOL0     H  725   4.059   5.793   6.213  0.1427  0.7420 -1.3235
  730MOL0     H  726   3.716   5.549   6.349 -0.7647  0.0085 -0.5087
  730MOL0     H  727   3.530   5.383   6.331 -1.6126  0.5200  1.1603
  730MOL0     H  728   3.161   5.519   6.126  2.1582  1.6853  1.4941
  730MOL0     H  729   3.239   5.425   5.996 -1.5312 -0.5430 -1.3902
  730MOL0     H  730   3.168   5.223   6.095  1.7175  1.2749 -1.9865
  730MOL0     H  731   3.036   5.331   6.054 -0.7272  2.5089 -0.0635
  730MOL0     H  732   3.108   5.305   6.356 -0.2974  2.5898  0.7865
  730MOL0     H  733   2.990   5.407   6.268  1.3092  1.0632  0.6046
  730MOL0     H  734   2.875   5.193   6.181 -0.2591 -3.2831  0.0539
  730MOL0     H  735   2.884   5.192   6.344 -3.0688 -5.5676 -0.2471
  730MOL0     H  736   3.133   4.859   6.291 -0.9560 -0.4289  0.6741
  730MOL0     H  737   3.326   5.652   6.062  1.7290  0.1394 -2.1536
  730MOL0     H  738   3.504   5.942   6.118  3.7783 -0.0958 -0.1283
  730MOL0     H  739   3.567   5.859   5.977  3.7607 -1.5851  2.8935
  730MOL0     H  740   3.393   5.847   6.015  0.1246 -4.3602  1.0300
  731MOL0     O  741   0.175   4.720   8.486  0.0678  0.0976 -0.1932
  731MOL0     C  742   0.137   4.673   8.373  0.9094 -1.1149 -0.7657
  731MOL0     O  743   0.186   4.721   8.251 -0.3382  0.7332  0.2672
  731MOL0     C  744   0.283   4.816   8.251 -0.6194  0.1038 -0.6109
  731MOL0     C  745   0.269   4.928   8.171 -0.2625  0.1985 -0.0760
  731MOL0     C  746   0.373   5.014   8.148  0.2300  0.2295  0.0555
  731MOL0     C  747   0.502   4.991   8.200 -0.3414  0.4541  0.2117
  731MOL0     O  748   0.616   5.066   8.180  0.1048  0.4096 -0.5805
  731MOL0     C  749   0.617   5.194   8.108  0.2470  0.1807 -0.3874
  731MOL0     C  750   0.757   5.246   8.096 -0.0919 -0.2187  0.2535
  731MOL0     C  751   0.840   5.233   8.221  0.5193  0.3061 -0.2239
  731MOL0     C  752   0.910   5.092   8.246 -0.1024  0.0414  0.9947
  731MOL0     C  753   1.050   5.083   8.179  0.5813 -0.5320 -0.8954
  731MOL0     C  754   1.112   4.950   8.220  0.5543 -0.5628 -0.0224
  731MOL0     C  755   1.267   4.960   8.189  0.2034 -0.0723 -0.0288
  731MOL0     C  756   1.295   4.982   8.034  0.0300  0.2255  0.2574
  731MOL0     N  757   1.435   5.003   8.006 -0.2810  0.5400 -0.6427
  731MOL0     C  758   1.548   4.929   8.045  0.4176 -0.2240  0.0057
  731MOL0     C  759   1.646   4.970   7.956  0.1986 -0.3880 -0.1478
  731MOL0     C  760   1.789   4.912   7.954 -0.9229 -0.0008  0.4673
  731MOL0     C  761   1.865   4.979   7.836 -0.2963  0.3100  0.3638
  731MOL0     C  762   2.017   4.949   7.850 -0.1225 -0.5682  0.1493
  731MOL0     C  763   2.113   4.994   7.735 -0.0248  1.0263  0.0795
  731MOL0     O  764   2.237   4.919   7.748  0.0238  0.1766 -0.2876
  731MOL0     C  765   2.355   4.983   7.760 -0.7715 -0.4373 -0.1649
  731MOL0     C  766   2.384   5.119   7.733 -0.3642 -0.0125  0.1855
  731MOL0     C  767   2.518   5.169   7.752  0.4824  0.2062 -0.7553
  731MOL0     C  768   2.531   5.313   7.728  0.0409 -0.2043  0.2212
  731MOL0     C  769   2.617   5.089   7.823  0.4445 -0.2553 -0.4788
  731MOL0     C  770   2.758   5.126   7.874 -0.1354 -0.3248 -0.3282
  731MOL0     O  771   2.843   5.027   7.928 -0.0623 -0.4327  0.3670
  731MOL0     C  772   2.969   5.064   7.962 -0.0730 -0.4692 -0.5443
  731MOL0     C  773   3.002   5.168   8.053  0.4477  0.0802 -0.4036
  731MOL0     C  774   3.136   5.197   8.086 -0.6009 -0.2739  1.1956
  731MOL0     C  775   3.243   5.130   8.032  0.4906 -0.4616  0.0506
  731MOL0     O  776   3.380   5.153   8.050  0.6315 -0.0610 -0.2287
  731MOL0     C  777   3.430   5.267   8.117 -0.9584 -0.5087  0.4489
  731MOL0     C  778   3.582   5.236   8.133  0.2537 -0.1503 -0.8157
  731MOL0     C  779   3.650   5.227   8.001 -0.2074 -0.3494 -0.3199
  731MOL0     C  780   3.799   5.202   8.017  0.1486 -0.0764 -0.5703
  731MOL0     C  781   3.877   5.222   7.886 -0.0711 -0.5572  0.6523
  731MOL0     C  782   3.820   5.132   7.780 -0.0982 -0.1360  0.5380
  731MOL0     C  783   3.705   5.188   7.696 -0.3350  1.1783  0.6457
  731MOL0     C  784   3.705   5.178   7.541  0.0251 -0.5513 -0.8961
  731MOL0    Cl  785   3.845   5.273   7.485 -0.0103  0.2399 -0.2724
  731MOL0     C  786   3.218   5.023   7.952 -0.1270  0.5086  0.0657
  731MOL0     C  787   3.079   4.987   7.920 -0.3333  0.0605 -0.4583
  731MOL0     O  788   2.783   5.249   7.873 -0.0511 -0.1409  0.2518
  731MOL0     C  789   2.582   4.956   7.833  0.6567 -0.6710  0.0975
  731MOL0     C  790   2.464   4.901   7.798 -0.3381 -0.9379  0.1103
  731MOL0     N  791   1.598   5.073   7.880 -0.3368  0.1562 -0.7349
  731MOL0     N  792   1.470   5.091   7.911 -0.0981 -0.3782 -0.6092
  731MOL0     C  793   0.516   4.883   8.288  0.0647  0.5309  1.0405
  731MOL0     C  794   0.408   4.791   8.323 -0.2613  0.2297 -0.1782
  731MOL0     C  795   0.037   4.569   8.376  0.0816  0.4469  0.2302
  731MOL0     C  796  -0.016   4.470   8.557  0.1844 -0.9632  0.1577
  731MOL0     C  797  -0.167   4.323   8.555 -0.6560 -0.2075 -0.3349
  731MOL0     C  798  -0.272   4.281   8.378 -0.2239 -0.1770 -0.4027
  731MOL0     O  799  -0.372   4.186   8.374  1.2056 -0.6882 -0.3020
  731MOL0     C  800  -0.443   4.166   8.503 -0.1339  0.2640  0.1581
  731MOL0     C  801  -0.587   4.234   8.495  0.1043 -0.8636  0.1840
  731MOL0     C  802  -0.569   4.382   8.519 -0.2376 -0.0064  0.7078
  731MOL0     C  803  -0.552   4.424   8.663 -0.7785 -0.3975  0.0844
  731MOL0     C  804  -0.656   4.374   8.749  0.1139  0.3742  0.7349
  731MOL0     C  805  -0.750   4.334   8.805 -0.0189  0.0638 -0.5788
  731MOL0     C  806  -0.217   4.376   8.202  0.7396  0.3889 -0.1227
  731MOL0     C  807  -0.066   4.514   8.192 -0.2534 -1.2201 -0.3786
  731MOL0     C  808  -0.025   4.583   8.066 -0.1129 -0.9083  0.0582
  731MOL0     H  809   0.176   4.947   8.118  1.1257  3.1393 -1.7387
  731MOL0     H  810   0.348   5.099   8.086  0.1941 -0.8186 -1.4165
  731MOL0     H  811   0.561   5.269   8.163  0.5502 -0.5093  0.9155
  731MOL0     H  812   0.574   5.188   8.007 -1.6611  0.0421  0.3980
  731MOL0     H  813   0.811   5.200   8.013  0.7283  1.6893 -0.3093
  731MOL0     H  814   0.758   5.351   8.067 -0.6325 -0.4147 -0.5178
  731MOL0     H  815   0.919   5.309   8.220  1.8324 -0.9876  0.1350
  731MOL0     H  816   0.781   5.251   8.311 -0.2954 -1.5934 -0.3371
  731MOL0     H  817   0.907   5.074   8.353 -2.7995 -0.2838  0.9191
  731MOL0     H  818   0.852   5.008   8.207 -2.0595  2.2737 -1.2134
  731MOL0     H  819   1.114   5.159   8.224  2.2609 -2.5204  0.2615
  731MOL0     H  820   1.040   5.094   8.071  2.8325 -0.8720 -1.1972
  731MOL0     H  821   1.089   4.928   8.325  1.2711  1.3740  0.5952
  731MOL0     H  822   1.069   4.869   8.161 -1.9747  0.0460  0.8573
  731MOL0     H  823   1.310   4.869   8.232 -0.1424 -0.0003  0.4821
  731MOL0     H  824   1.313   5.042   8.246  0.8073 -0.8600  0.6479
  731MOL0     H  825   1.265   4.888   7.986  2.0601 -0.1013 -0.4827
  731MOL0     H  826   1.236   5.063   7.990 -1.5615 -3.3501 -5.1457
  731MOL0     H  827   1.548   4.848   8.117  0.7149  0.1002  0.3744
  731MOL0     H  828   1.777   4.805   7.937  2.9918 -0.8203  1.7830
  731MOL0     H  829   1.840   4.927   8.050 -1.7714 -2.7335  1.4200
  731MOL0     H  830   1.824   4.953   7.738 -2.3614  1.9321  0.7228
  731MOL0     H  831   1.846   5.087   7.827 -4.3296 -0.3499 -1.5428
  731MOL0     H  832   2.051   4.984   7.948  0.3037 -0.0208 -0.1841
  731MOL0     H  833   2.032   4.841   7.853  1.9996 -0.2974  2.3190
  731MOL0     H  834   2.073   4.974   7.635  0.6438  0.0636 -0.0101
  731MOL0     H  835   2.126   5.102   7.746 -2.1885  1.4975 -1.5118
  731MOL0     H  836   2.314   5.186   7.684  0.0883  0.0106 -0.4534
  731MOL0     H  837   2.464   5.341   7.647 -0.9360  3.8891  2.1652
  731MOL0     H  838   2.635   5.336   7.699 -0.1424 -1.3018 -1.4585
  731MOL0     H  839   2.503   5.374   7.815  2.2508  1.1659  0.0762
  731MOL0     H  840   2.931   5.241   8.089 -1.4841 -1.3925 -0.9855
  731MOL0     H  841   3.164   5.286   8.142  0.1134  0.2732  0.0087
  731MOL0     H  842   3.414   5.358   8.057  1.5852  0.1996  0.7410
  731MOL0     H  843   3.386   5.279   8.217 -3.6043 -3.3909 -0.2044
  731MOL0     H  844   3.637   5.317   8.183 -1.9036  1.1787 -0.4961
  731MOL0     H  845   3.601   5.144   8.188  3.1922 -0.2208 -1.7479
  731MOL0     H  846   3.637   5.326   7.956 -1.2970  0.6961  2.1097
  731MOL0     H  847   3.617   5.145   7.935  3.9936 -2.0411 -0.6454
  731MOL0     H  848   3.816   5.106   8.066 -2.6053  0.3646  1.5026
  731MOL0     H  849   3.842   5.274   8.087  2.7353 -2.7348  0.7956
  731MOL0     H  850   3.881   5.326   7.852 -2.9843 -0.7324 -0.5939
  731MOL0     H  851   3.982   5.194   7.899  1.2854  3.3074 -0.6618
  731MOL0     H  852   3.789   5.042   7.835 -0.6516 -0.8029 -0.8315
  731MOL0     H  853   3.906   5.097   7.723  0.5913  2.8826 -0.4115
  731MOL0     H  854   3.698   5.296   7.713 -0.0426  1.2967  0.0537
  731MOL0     H  855   3.618   5.131   7.729 -0.6661  0.3672 -1.4428
  731MOL0     H  856   3.620   5.237   7.505 -0.1958 -1.1716 -1.4073
  731MOL0     H  857   3.697   5.080   7.492  2.8625 -1.7112  0.7175
  731MOL0     H  858   3.303   4.961   7.924  0.6974  2.0316 -0.9469
  731MOL0     H  859   3.067   4.895   7.865 -1.0551  0.7469 -1.4836
  731MOL0     H  860   2.651   4.883   7.872  1.9500 -0.0801 -1.0257
  731MOL0     H  861   2.439   4.797   7.819 -0.7851 -0.9962 -0.6530
  731MOL0     H  862   0.615   4.872   8.333  0.2776 -0.1398  0.4263
  731MOL0     H  863   0.425   4.709   8.393  0.6055  0.6681  0.1354
  731MOL0     H  864   0.024   4.505   8.651  0.8461 -2.2240  0.3640
  731MOL0     H  865  -0.201   4.276   8.647  0.0080 -0.0898 -0.0229
  731MOL0     H  866  -0.456   4.061   8.530 -1.3114  0.0828 -0.9887
  731MOL0     H  867  -0.394   4.209   8.591 -0.5123 -0.9930  1.0095
  731MOL0     H  868  -0.653   4.186   8.568 -0.9501 -2.7607 -1.8882
  731MOL0     H  869  -0.629   4.222   8.394 -0.1090 -0.5470  0.2332
  731MOL0     H  870  -0.479   4.412   8.463  0.8998  0.0165  2.4559
  731MOL0     H  871  -0.653   4.445   8.490 -1.3096 -1.5225  0.4079
  731MOL0     H  872  -0.560   4.533   8.661  0.0730 -0.3438 -0.6141
  731MOL0     H  873  -0.452   4.391   8.693 -1.5616 -1.5454  1.5899
  731MOL0     H  874  -0.837   4.281   8.839 -1.0523  2.7680  1.3109
  731MOL0     H  875  -0.275   4.363   8.111  0.0663 -2.5793  0.6170
  731MOL0     H  876  -0.056   4.537   7.972  2.8802  1.8292 -2.5348
  731MOL0     H  877  -0.061   4.686   8.057  0.1642 -0.9286 -1.5495
  731MOL0     H  878   0.083   4.603   8.058 -0.4143  0.4226 -1.1060
  732MOL0     O  879   2.032   1.425   6.584  0.2824 -0.1196  0.1327
  732MOL0     C  880   1.949   1.351   6.536  0.2439  0.6245  0.1310
  732MOL0     O  881   1.978   1.235   6.460  0.3529 -0.0433 -0.2481
  732MOL0     C  882   2.111   1.199   6.456  0.7727  0.5028 -1.2574
  732MOL0     C  883   2.199   1.262   6.370  0.2218  0.2147  0.5251
  732MOL0     C  884   2.321   1.193   6.348  0.4712  0.2774 -0.6035
  732MOL0     C  885   2.364   1.090   6.437  0.1457 -0.2004  0.7443
  732MOL0     O  886   2.469   1.011   6.408  1.0078 -0.4143 -0.5601
  732MOL0     C  887   2.470   0.947   6.284 -0.0805 -0.7404  1.0570
  732MOL0     C  888   2.614   0.881   6.264  0.8299 -0.7404 -0.5598
  732MOL0     C  889   2.712   0.993   6.238  0.0759 -0.3076 -0.2305
  732MOL0     C  890   2.847   0.930   6.221  0.7201 -0.4536  0.2862
  732MOL0     C  891   2.973   1.016   6.238 -0.6480 -0.6969 -1.2971
  732MOL0     C  892   2.973   1.150   6.164  0.1239  0.4782 -0.7128
  732MOL0     C  893   3.019   1.138   6.021 -0.2585  0.3953 -0.0386
  732MOL0     C  894   3.024   1.271   5.943  0.6653  0.6800  0.1829
  732MOL0     N  895   3.149   1.341   5.980 -0.5443  0.1610  0.1002
  732MOL0     C  896   3.164   1.441   6.073 -0.3298  0.3393 -0.7744
  732MOL0     C  897   3.284   1.498   6.052  0.1044  0.4875 -0.2597
  732MOL0     C  898   3.376   1.598   6.135  0.0951 -0.0936  0.4212
  732MOL0     C  899   3.361   1.740   6.078  0.9173 -0.5838 -0.6055
  732MOL0     C  900   3.213   1.794   6.105 -0.7311  0.3841 -0.4434
  732MOL0     C  901   3.203   1.929   6.048  0.1117 -1.1779 -0.6158
  732MOL0     O  902   3.293   2.018   6.122  0.2023  0.3579  0.8429
  732MOL0     C  903   3.237   2.133   6.180 -0.3768 -0.5568 -0.1530
  732MOL0     C  904   3.329   2.234   6.214 -0.7920 -0.0567  0.4425
  732MOL0     C  905   3.302   2.359   6.276  0.6040 -0.0418  0.2997
  732MOL0     C  906   3.417   2.448   6.300 -0.0394 -0.2257 -0.2356
  732MOL0     C  907   3.169   2.382   6.318  0.4817 -0.6623 -0.0140
  732MOL0     C  908   3.120   2.516   6.373  1.2323  0.3509  0.3436
  732MOL0     O  909   2.997   2.521   6.426 -0.2935  0.4235 -0.3320
  732MOL0     C  910   2.970   2.620   6.515  0.8613 -0.0583 -0.2915
  732MOL0     C  911   2.850   2.692   6.492  0.3427  0.7226 -0.4080
  732MOL0     C  912   2.824   2.798   6.576  0.4618  0.4141  0.1188
  732MOL0     C  913   2.904   2.821   6.688  0.2526  1.1077 -0.0222
  732MOL0     O  914   2.872   2.925   6.775 -0.6560 -0.1698  0.3679
  732MOL0     C  915   2.894   3.056   6.724  0.0476  0.3399 -1.1422
  732MOL0     C  916   2.822   3.162   6.812  1.1274 -0.0967 -0.0041
  732MOL0     C  917   2.679   3.171   6.770  0.6455 -0.6046  0.6329
  732MOL0     C  918   2.585   3.246   6.867 -0.4228  0.9105  0.1246
  732MOL0     C  919   2.438   3.248   6.816 -0.8479 -0.5639 -0.1468
  732MOL0     C  920   2.342   3.333   6.905  0.5164  0.2581 -0.5265
  732MOL0     C  921   2.197   3.365   6.846  0.2523  0.2756 -0.0155
  732MOL0     C  922   2.089   3.404   6.957  0.2447  0.0720  0.7006
  732MOL0    Cl  923   1.930   3.411   6.878  0.0376 -0.2614  0.7849
  732MOL0     C  924   3.002   2.731   6.725  0.7007 -0.0970 -0.2357
  732MOL0     C  925   3.037   2.630   6.636 -0.2524 -0.0136  0.8971
  732MOL0     O  926   3.202   2.608   6.375  0.7859  0.0952 -0.1861
  732MOL0     C  927   3.077   2.279   6.286 -0.2969 -0.1865 -0.3595
  732MOL0     C  928   3.102   2.160   6.216 -0.2010 -0.2464 -0.4814
  732MOL0     N  929   3.339   1.429   5.943  0.3666 -0.8839 -0.4552
  732MOL0     N  930   3.256   1.344   5.894  0.2400  0.7577  0.5006
  732MOL0     C  931   2.279   1.053   6.544 -0.1812 -0.1275  0.5193
  732MOL0     C  932   2.155   1.109   6.559 -0.2990  0.6330 -0.0476
  732MOL0     C  933   1.798   1.386   6.565  0.3494  0.3512 -1.0012
  732MOL0     C  934   1.710   1.273   6.569 -1.0780 -0.3466  0.7598
  732MOL0     C  935   1.577   1.291   6.605  1.0177 -0.4191 -0.0793
  732MOL0     C  936   1.528   1.426   6.632  0.0814 -0.2213  1.0829
  732MOL0     O  937   1.401   1.450   6.679 -0.0823 -0.0129 -0.1871
  732MOL0     C  938   1.345   1.346   6.757 -0.1595  0.1212 -0.0293
  732MOL0     C  939   1.222   1.394   6.829  0.6403 -0.6606  0.2725
  732MOL0     C  940   1.088   1.319   6.775 -0.1859  0.4547  0.9134
  732MOL0     C  941   0.954   1.397   6.801  0.1653 -1.1502 -0.3139
  732MOL0     C  942   0.839   1.359   6.729 -0.3277  0.5619 -0.1649
  732MOL0     C  943   0.750   1.311   6.666 -0.0937 -0.9460 -0.5314
  732MOL0     C  944   1.612   1.531   6.629 -0.4054  0.0774 -0.2475
  732MOL0     C  945   1.751   1.515   6.598 -0.2307  0.2020 -0.2130
  732MOL0     C  946   1.843   1.640   6.597  0.4055  1.3509 -0.4496
  732MOL0     H  947   2.166   1.336   6.298 -0.5233 -1.0303 -0.4509
  732MOL0     H  948   2.387   1.210   6.263  0.7750 -0.5436 -0.5334
  732MOL0     H  949   2.453   1.015   6.200 -0.8439 -0.2664  1.5734
  732MOL0     H  950   2.387   0.876   6.291 -0.8704 -0.1026 -0.9671
  732MOL0     H  951   2.616   0.830   6.360  0.5255 -0.0360 -0.1697
  732MOL0     H  952   2.608   0.814   6.178 -0.4691  0.1136 -1.1686
  732MOL0     H  953   2.690   1.044   6.144 -1.1936 -1.3690 -0.5401
  732MOL0     H  954   2.705   1.067   6.318 -0.9720  0.4994 -1.0379
  732MOL0     H  955   2.856   0.841   6.284  1.2757 -1.2985 -0.9580
  732MOL0     H  956   2.853   0.892   6.119  3.5712 -1.1176  0.6055
  732MOL0     H  957   3.067   0.968   6.208 -0.2050  0.3533 -1.6413
  732MOL0     H  958   2.975   1.038   6.345 -0.3190 -2.5092 -0.8953
  732MOL0     H  959   2.878   1.203   6.170  0.6070  1.3769 -0.8594
  732MOL0     H  960   3.050   1.212   6.211  0.3182  1.2143 -1.9493
  732MOL0     H  961   2.957   1.063   5.970 -0.3509  1.3088 -1.3253
  732MOL0     H  962   3.122   1.102   6.020 -0.3500  0.1354 -0.5492
  732MOL0     H  963   3.017   1.238   5.839  1.3910  0.6816  0.1315
  732MOL0     H  964   2.939   1.338   5.958  1.2134  1.7942 -1.5048
  732MOL0     H  965   3.096   1.470   6.152  0.7773 -0.3971  0.4946
  732MOL0     H  966   3.483   1.577   6.124  0.3245 -0.0782  2.2377
  732MOL0     H  967   3.348   1.582   6.240 -1.6040  0.5787  0.0932
  732MOL0     H  968   3.425   1.810   6.131 -0.5724  0.9302 -0.7437
  732MOL0     H  969   3.389   1.731   5.972  2.3675  1.0083 -0.3995
  732MOL0     H  970   3.144   1.733   6.045  0.5400 -1.5659  0.0108
  732MOL0     H  971   3.182   1.792   6.210 -3.5085  0.5667 -1.1712
  732MOL0     H  972   3.241   1.927   5.945  0.4177 -0.2598 -0.5337
  732MOL0     H  973   3.101   1.966   6.040  1.5575  3.2380 -1.4062
  732MOL0     H  974   3.434   2.212   6.199 -0.4132  2.2948 -0.8402
  732MOL0     H  975   3.444   2.435   6.406  0.6410 -1.2156 -0.5208
  732MOL0     H  976   3.402   2.555   6.286  0.2250 -0.2328 -0.5830
  732MOL0     H  977   3.505   2.432   6.238  1.7102  2.2942  1.3823
  732MOL0     H  978   2.794   2.683   6.400 -1.3562  0.9956  0.5504
  732MOL0     H  979   2.752   2.870   6.538 -1.7464 -1.1873  1.0495
  732MOL0     H  980   2.999   3.087   6.727  0.0120  0.4810  2.0676
  732MOL0     H  981   2.856   3.062   6.622 -1.5905  0.5448 -0.5372
  732MOL0     H  982   2.832   3.124   6.914  1.0435  0.0370  0.0542
  732MOL0     H  983   2.877   3.256   6.802 -0.0018  0.8650  2.2400
  732MOL0     H  984   2.643   3.068   6.772 -1.4520  0.0661 -0.0122
  732MOL0     H  985   2.664   3.207   6.668  1.3819  0.9355  1.0347
  732MOL0     H  986   2.626   3.346   6.883 -0.1320  0.5618  1.6873
  732MOL0     H  987   2.592   3.194   6.963  0.8641 -1.0430 -0.9639
  732MOL0     H  988   2.436   3.295   6.717 -0.8046 -1.1586 -0.4367
  732MOL0     H  989   2.402   3.145   6.809  0.5234 -1.1661  1.1038
  732MOL0     H  990   2.399   3.421   6.936  0.9943  0.0979 -0.9428
  732MOL0     H  991   2.330   3.271   6.995  0.5074 -0.4958 -1.0373
  732MOL0     H  992   2.159   3.275   6.797  0.2898 -0.3839  1.1335
  732MOL0     H  993   2.189   3.449   6.777  0.3379 -0.3388 -0.7776
  732MOL0     H  994   2.106   3.507   6.989  1.3265 -0.2698  1.2787
  732MOL0     H  995   2.077   3.329   7.036 -1.1829 -2.8684 -2.0777
  732MOL0     H  996   3.053   2.747   6.819 -2.2294  1.5510  1.1936
  732MOL0     H  997   3.117   2.560   6.656 -0.3408 -0.9260 -1.5794
  732MOL0     H  998   2.973   2.298   6.310  0.3640  0.9660  1.9361
  732MOL0     H  999   3.017   2.096   6.197 -1.7293  1.7540 -0.6883
  732MOL0     H 1000   2.307   0.966   6.601 -1.1752 -1.8541 -1.4776
  732MOL0     H 1001   2.082   1.068   6.628  1.6497 -1.1462  1.0841
  732MOL0     H 1002   1.756   1.177   6.547  2.4053  1.4586 -0.4474
  732MOL0     H 1003   1.504   1.211   6.599 -1.6182  1.7039  1.2529
  732MOL0     H 1004   1.318   1.265   6.689  1.3415 -0.3513 -0.0986
  732MOL0     H 1005   1.407   1.316   6.842 -1.4529 -1.0557  0.5454
  732MOL0     H 1006   1.211   1.502   6.817  0.7263 -0.8869 -2.4169
  732MOL0     H 1007   1.230   1.394   6.939  0.3265  0.4657  0.3129
  732MOL0     H 1008   1.104   1.315   6.667 -0.9303 -2.6341  0.8470
  732MOL0     H 1009   1.081   1.215   6.806 -0.5968 -0.3218 -1.5829
  732MOL0     H 1010   0.972   1.502   6.776 -0.3151 -1.5930 -2.8571
  732MOL0     H 1011   0.926   1.397   6.906 -0.5868  1.8421 -0.4293
  732MOL0     H 1012   0.686   1.261   6.595 -1.1275 -0.4735  0.0497
  732MOL0     H 1013   1.566   1.625   6.657 -2.7883 -0.5844 -1.7184
  732MOL0     H 1014   1.918   1.635   6.676  0.3887  0.1548 -0.4853
  732MOL0     H 1015   1.899   1.660   6.505  0.0449  0.7357 -0.8158
  732MOL0     H 1016   1.777   1.723   6.623  0.0178  0.1604  2.8023
  733MOL0     O 1017   8.569   4.736   6.491  1.0066  0.4256 -0.3334
  733MOL0     C 1018   8.499   4.743   6.393 -0.5747 -0.2794 -0.0104
  733MOL0     O 1019   8.544   4.771   6.266  0.1519  0.1098  0.0170
  733MOL0     C 1020   8.675   4.809   6.263 -0.3176  0.9236  0.1859
  733MOL0     C 1021   8.704   4.929   6.205  0.0863 -0.1883 -0.1882
  733MOL0     C 1022   8.835   4.973   6.183  0.3457 -0.2626 -0.3903
  733MOL0     C 1023   8.942   4.887   6.217 -0.0120  0.1466  0.0785
  733MOL0     O 1024   9.071   4.938   6.206 -0.5676  0.0798  0.5090
  733MOL0     C 1025   9.193   4.865   6.206  1.3415 -0.4391 -0.5600
  733MOL0     C 1026   9.285   4.962   6.275  0.4805 -0.0471 -0.0447
  733MOL0     C 1027   9.430   4.929   6.239 -0.0193 -0.0992 -0.1596
  733MOL0     C 1028   9.531   5.034   6.291 -0.3380 -0.1909  0.2066
  733MOL0     C 1029   9.679   4.992   6.265  0.5825  0.0013 -0.0858
  733MOL0     C 1030   9.785   5.106   6.300  0.8674  1.2611  0.3078
  733MOL0     C 1031   9.917   5.065   6.357  0.2285 -0.5856 -0.0101
  733MOL0     C 1032  10.022   5.169   6.313 -0.7838 -0.1627  0.4876
  733MOL0     N 1033  10.139   5.164   6.397  0.4408 -0.4833  0.6218
  733MOL0     C 1034  10.214   5.049   6.432  0.2958  1.0358 -0.2569
  733MOL0     C 1035  10.308   5.097   6.512 -0.6295  0.3515  0.8066
  733MOL0     C 1036  10.417   5.021   6.584 -0.2052 -0.4897 -0.4860
  733MOL0     C 1037  10.528   5.006   6.484 -0.1802  0.3138  0.2414
  733MOL0     C 1038  10.614   5.129   6.467 -0.3835 -0.7693  0.0518
  733MOL0     C 1039  10.741   5.088   6.391 -0.0077 -0.0188 -0.0207
  733MOL0     O 1040  10.823   5.201   6.367 -0.0746 -0.5393  0.0496
  733MOL0     C 1041  10.920   5.232   6.465 -0.5494  0.0201  0.6292
  733MOL0     C 1042  11.020   5.329   6.447  0.7556  0.1332  0.7728
  733MOL0     C 1043  11.122   5.349   6.534  0.1254 -0.6260  0.2119
  733MOL0     C 1044  11.217   5.458   6.501 -0.0579  0.6310  0.8170
  733MOL0     C 1045  11.128   5.281   6.657 -0.4010 -0.1455  0.6752
  733MOL0     C 1046  11.231   5.304   6.761 -0.1224  0.0645 -0.1860
  733MOL0     O 1047  11.205   5.244   6.885 -0.1336  0.5826 -0.7780
  733MOL0     C 1048  11.310   5.252   6.979  0.5475  0.3835 -0.1374
  733MOL0     C 1049  11.351   5.126   7.021  0.2607  1.1810 -0.7138
  733MOL0     C 1050  11.460   5.119   7.103 -0.0479  0.0618 -0.5173
  733MOL0     C 1051  11.512   5.242   7.154 -0.4511 -0.2593 -0.0931
  733MOL0     O 1052  11.623   5.243   7.232 -0.1191  0.3555 -0.4689
  733MOL0     C 1053  11.597   5.274   7.374 -0.0759 -0.1478  0.2572
  733MOL0     C 1054  11.566   5.148   7.453 -0.0981  0.1619 -0.4428
  733MOL0     C 1055  11.442   5.175   7.540 -0.2540 -0.0338  0.2346
  733MOL0     C 1056  11.408   5.061   7.629 -0.0829 -0.2040  0.1960
  733MOL0     C 1057  11.273   5.083   7.705  0.5121  0.1366  0.5524
  733MOL0     C 1058  11.240   4.976   7.812  0.7115 -0.2418 -0.1630
  733MOL0     C 1059  11.106   4.989   7.878  0.4317  0.2679  0.4422
  733MOL0     C 1060  11.081   4.892   7.997 -0.0144  0.4453  0.6664
  733MOL0    Cl 1061  10.897   4.884   8.005 -0.3864 -0.1165  0.1972
  733MOL0     C 1062  11.454   5.364   7.131 -0.1600 -0.0484 -0.0010
  733MOL0     C 1063  11.357   5.367   7.034  0.5672 -0.9453  0.4295
  733MOL0     O 1064  11.337   5.361   6.736 -0.3400 -0.4532  0.6785
  733MOL0     C 1065  11.030   5.189   6.685 -0.0719 -0.0228 -0.4745
  733MOL0     C 1066  10.931   5.169   6.589  0.9217 -0.9009  0.1631
  733MOL0     N 1067  10.296   5.231   6.526  0.7430  0.5527 -0.3252
  733MOL0     N 1068  10.200   5.273   6.440  0.1293  0.7575  0.1751
  733MOL0     C 1069   8.912   4.756   6.270  0.5251  0.0058  0.3867
  733MOL0     C 1070   8.780   4.719   6.290 -0.1132  0.4232  0.5953
  733MOL0     C 1071   8.361   4.700   6.399  0.6278  0.1176  0.4733
  733MOL0     C 1072   8.289   4.702   6.276  0.7949 -0.0204  0.4337
  733MOL0     C 1073   8.153   4.674   6.271 -0.5738  1.2244  0.0932
  733MOL0     C 1074   8.081   4.635   6.383 -0.2836  0.0246 -0.7560
  733MOL0     O 1075   7.954   4.595   6.385  0.1279 -0.3589 -0.4574
  733MOL0     C 1076   7.866   4.650   6.281  0.0823 -0.6360  0.2315
  733MOL0     C 1077   7.723   4.689   6.320  0.7844 -0.4541  0.0390
  733MOL0     C 1078   7.706   4.744   6.466  0.1376 -0.3800 -0.2770
  733MOL0     C 1079   7.564   4.791   6.482  0.1228  0.6447 -0.8308
  733MOL0     C 1080   7.528   4.868   6.606 -0.4080 -0.4383  0.3620
  733MOL0     C 1081   7.497   4.944   6.697  0.0719 -0.3513 -0.5917
  733MOL0     C 1082   8.150   4.632   6.502 -0.4963  0.2317  0.0744
  733MOL0     C 1083   8.278   4.689   6.515  0.9126 -0.4692  0.2964
  733MOL0     C 1084   8.333   4.708   6.656 -0.8183  0.5156 -0.2814
  733MOL0     H 1085   8.616   4.988   6.181 -0.6672 -0.3511  1.8906
  733MOL0     H 1086   8.863   5.074   6.154 -0.0423  0.3726  1.3108
  733MOL0     H 1087   9.214   4.845   6.100  1.0828  0.2023 -0.7399
  733MOL0     H 1088   9.190   4.770   6.259  2.0851  1.2027  2.6547
  733MOL0     H 1089   9.266   5.064   6.241 -0.1729 -0.0176  0.3740
  733MOL0     H 1090   9.269   4.963   6.384 -2.3092 -0.6076 -0.3637
  733MOL0     H 1091   9.452   4.827   6.273  2.4450  0.0407 -1.0695
  733MOL0     H 1092   9.449   4.923   6.131 -0.1028  0.1329 -0.1879
  733MOL0     H 1093   9.511   5.132   6.247  1.7592  0.0284 -0.3596
  733MOL0     H 1094   9.517   5.046   6.399  2.6741 -1.9252  0.9329
  733MOL0     H 1095   9.696   4.959   6.162  0.0104 -1.1599  0.1872
  733MOL0     H 1096   9.693   4.897   6.317 -0.9955  1.8399  4.1246
  733MOL0     H 1097   9.796   5.167   6.210 -1.7607  1.5278  0.0813
  733MOL0     H 1098   9.749   5.181   6.372 -1.0486  2.1958 -1.5236
  733MOL0     H 1099   9.958   4.965   6.343  0.8424 -0.3779  0.2756
  733MOL0     H 1100   9.900   5.084   6.464 -1.9496 -0.5514 -0.3230
  733MOL0     H 1101  10.056   5.142   6.213 -1.2350  1.0020 -0.0016
  733MOL0     H 1102   9.986   5.272   6.305 -1.1057 -0.3082  0.0865
  733MOL0     H 1103  10.201   4.945   6.404 -1.7339  0.8260  1.2751
  733MOL0     H 1104  10.369   4.928   6.618 -0.0283 -0.2975  0.2963
  733MOL0     H 1105  10.464   5.076   6.666  0.5353  0.7694 -1.7285
  733MOL0     H 1106  10.584   4.918   6.516  0.8531 -0.1837 -2.6257
  733MOL0     H 1107  10.485   4.973   6.389  0.7824 -1.3168  0.3458
  733MOL0     H 1108  10.556   5.202   6.411  1.8633  1.4673  0.4225
  733MOL0     H 1109  10.636   5.177   6.564  2.7190 -1.5079 -0.1847
  733MOL0     H 1110  10.793   5.007   6.442  0.2075 -0.0193 -0.2384
  733MOL0     H 1111  10.715   5.043   6.295  0.5477 -2.5311  0.9305
  733MOL0     H 1112  11.016   5.392   6.359  3.0253 -2.0372 -1.0468
  733MOL0     H 1113  11.210   5.544   6.569  3.7407  1.4365  0.4475
  733MOL0     H 1114  11.204   5.490   6.397 -1.0958 -0.1280  0.7005
  733MOL0     H 1115  11.324   5.435   6.494  0.2766  2.3852 -0.5511
  733MOL0     H 1116  11.305   5.037   6.980  2.6670 -1.2188  1.3739
  733MOL0     H 1117  11.504   5.024   7.129  0.5101  0.1608 -1.0897
  733MOL0     H 1118  11.680   5.326   7.422 -1.6991  1.1693  1.7550
  733MOL0     H 1119  11.504   5.331   7.382 -1.1885 -2.0828  2.1548
  733MOL0     H 1120  11.553   5.060   7.388  1.7975 -1.3748  1.1050
  733MOL0     H 1121  11.648   5.125   7.522 -0.8875 -0.4977  0.3062
  733MOL0     H 1122  11.353   5.199   7.481  1.1865  0.3275 -1.8903
  733MOL0     H 1123  11.472   5.261   7.600  0.0604  0.5345 -0.7113
  733MOL0     H 1124  11.491   5.048   7.699 -1.5491 -0.2878  1.9827
  733MOL0     H 1125  11.394   4.968   7.573  4.9654 -1.5072  0.6260
  733MOL0     H 1126  11.299   5.169   7.768  2.9044 -1.4866  1.9493
  733MOL0     H 1127  11.199   5.100   7.627  1.7015  1.6185 -0.3018
  733MOL0     H 1128  11.324   4.987   7.882  0.7642 -0.9017 -0.1189
  733MOL0     H 1129  11.246   4.880   7.761 -2.4385  0.7115 -2.6244
  733MOL0     H 1130  11.036   4.967   7.798  0.3667  0.4947  0.4384
  733MOL0     H 1131  11.087   5.087   7.922 -0.1734 -0.1841  1.2104
  733MOL0     H 1132  11.123   4.922   8.093 -1.0599  0.0668  1.2635
  733MOL0     H 1133  11.117   4.789   7.987  0.4430  0.5269  1.3980
  733MOL0     H 1134  11.495   5.459   7.162 -1.5268  0.4538  0.3405
  733MOL0     H 1135  11.313   5.462   7.006  0.8460 -0.6565  0.9668
  733MOL0     H 1136  11.020   5.130   6.776 -0.1739 -2.2754 -1.8770
  733MOL0     H 1137  10.856   5.096   6.617  0.1886  0.3408  1.5797
  733MOL0     H 1138   8.988   4.680   6.286  0.5152  0.0858  0.8223
  733MOL0     H 1139   8.743   4.628   6.335 -4.5084  2.8052  2.4037
  733MOL0     H 1140   8.326   4.721   6.176 -0.9577 -2.6117 -0.8198
  733MOL0     H 1141   8.112   4.688   6.171  0.3132 -2.2944 -0.8935
  733MOL0     H 1142   7.912   4.740   6.238 -2.5238 -0.1402 -1.7310
  733MOL0     H 1143   7.873   4.576   6.200 -2.6919 -0.6922 -0.0382
  733MOL0     H 1144   7.659   4.600   6.314 -1.9028  1.3909 -0.4038
  733MOL0     H 1145   7.692   4.754   6.238 -0.4795 -1.2551 -0.1433
  733MOL0     H 1146   7.726   4.664   6.538 -0.9258 -1.3936 -1.0859
  733MOL0     H 1147   7.776   4.828   6.479  0.0114 -0.0115 -1.8583
  733MOL0     H 1148   7.492   4.708   6.479 -0.6700  1.2783 -0.0852
  733MOL0     H 1149   7.544   4.852   6.393 -0.4109 -1.4098 -2.1977
  733MOL0     H 1150   7.453   5.004   6.774  0.5327  0.5305 -0.9972
  733MOL0     H 1151   8.099   4.611   6.596  1.5598 -0.8560  1.0187
  733MOL0     H 1152   8.255   4.702   6.732 -0.9428  0.5395 -0.4061
  733MOL0     H 1153   8.408   4.632   6.680  1.9665  3.0825 -0.2353
  733MOL0     H 1154   8.378   4.808   6.659  0.0758  0.3722 -3.8674
  734MOL0     O 1155   1.661   5.058   8.764 -0.0811  0.6127  0.3841
  734MOL0     C 1156   1.585   4.957   8.786 -0.2576  0.0553 -0.6016
  734MOL0     O 1157   1.617   4.839   8.838 -0.7246  0.8550  0.3636
  734MOL0     C 1158   1.754   4.808   8.841  0.7211  0.7766 -0.1931
  734MOL0     C 1159   1.806   4.730   8.738  0.0648  0.2097 -0.9146
  734MOL0     C 1160   1.942   4.693   8.737  0.1941  0.5861  0.1262
  734MOL0     C 1161   2.028   4.731   8.845  0.5579  0.8356  0.4011
  734MOL0     O 1162   2.157   4.683   8.856  0.7043  0.6732  0.2095
  734MOL0     C 1163   2.248   4.708   8.969 -0.1667  1.2864 -0.7552
  734MOL0     C 1164   2.328   4.840   8.965 -0.1145 -0.0711 -0.0635
  734MOL0     C 1165   2.425   4.852   9.077 -0.0738  0.3756 -0.3517
  734MOL0     C 1166   2.488   4.990   9.068 -0.9585  0.2539  0.4523
  734MOL0     C 1167   2.586   5.000   9.187  0.4268  0.6013  0.4024
  734MOL0     C 1168   2.675   5.122   9.188  0.5970  0.2216  0.0579
  734MOL0     C 1169   2.764   5.130   9.307  0.2285 -0.4641 -0.0298
  734MOL0     C 1170   2.688   5.172   9.435 -0.3842  0.0347 -0.1328
  734MOL0     N 1171   2.790   5.186   9.538  0.4501 -0.2650  0.2661
  734MOL0     C 1172   2.836   5.307   9.588  0.4690 -0.0894  0.4773
  734MOL0     C 1173   2.918   5.268   9.687  0.2526 -0.7561  0.4587
  734MOL0     C 1174   2.991   5.368   9.783  0.4439  0.2261 -0.7485
  734MOL0     C 1175   3.126   5.404   9.740 -0.2586 -0.8494 -0.4218
  734MOL0     C 1176   3.197   5.504   9.835  0.7358  0.0328 -0.4805
  734MOL0     C 1177   3.190   5.440   9.980 -0.2026 -0.1718  0.0265
  734MOL0     O 1178   3.259   5.515  10.083  0.4408 -0.5227  0.2033
  734MOL0     C 1179   3.393   5.500  10.118 -0.1561  0.3329  0.4592
  734MOL0     C 1180   3.431   5.557  10.233 -0.6539 -0.3447  0.2056
  734MOL0     C 1181   3.561   5.544  10.282 -0.7135 -0.7561 -0.0998
  734MOL0     C 1182   3.589   5.621  10.415  0.6868  0.9486 -0.5549
  734MOL0     C 1183   3.656   5.471  10.202  0.4015 -0.5906  0.5230
  734MOL0     C 1184   3.790   5.444  10.250 -0.4435 -0.1915  0.2656
  734MOL0     O 1185   3.852   5.539  10.325  1.1632 -0.3738  0.3651
  734MOL0     C 1186   3.935   5.509  10.425  0.0616  0.5691 -0.5118
  734MOL0     C 1187   3.904   5.420  10.528  0.1984 -0.6819 -0.2677
  734MOL0     C 1188   3.999   5.406  10.634  0.3253  0.0882  0.1974
  734MOL0     C 1189   4.124   5.460  10.622 -0.0081 -0.2573 -0.2741
  734MOL0     O 1190   4.196   5.426  10.725  0.3827  0.2154 -0.5496
  734MOL0     C 1191   4.323   5.363  10.697  0.1081  0.1267  0.7124
  734MOL0     C 1192   4.425   5.413  10.791 -0.7017  0.5228  0.4308
  734MOL0     C 1193   4.562   5.355  10.755  0.6030 -0.7150 -0.6057
  734MOL0     C 1194   4.665   5.386  10.863  0.3119  0.4871 -0.4620
  734MOL0     C 1195   4.804   5.334  10.833  0.0834  0.5142 -0.2954
  734MOL0     C 1196   4.905   5.382  10.942  0.2578 -0.4243  0.2230
  734MOL0     C 1197   5.044   5.339  10.915  0.1025 -0.3066 -0.0058
  734MOL0     C 1198   5.134   5.379  11.035  0.0957  0.6353  0.8418
  734MOL0    Cl 1199   5.295   5.316  10.999  0.3393 -0.5275 -0.1133
  734MOL0     C 1200   4.154   5.556  10.519  0.2760  0.7460  0.1116
  734MOL0     C 1201   4.061   5.576  10.420 -0.6553 -0.2776 -0.0328
  734MOL0     O 1202   3.844   5.333  10.215  0.9450 -0.1926  0.3549
  734MOL0     C 1203   3.606   5.397  10.092 -0.9113  0.3566  0.3470
  734MOL0     C 1204   3.481   5.429  10.040  0.1468 -0.4534  0.0233
  734MOL0     N 1205   2.930   5.130   9.696 -0.2908  0.8822  0.3151
  734MOL0     N 1206   2.841   5.083   9.608  0.2523  0.4684 -0.3333
  734MOL0     C 1207   1.974   4.821   8.935  0.5739  0.2748 -0.3685
  734MOL0     C 1208   1.839   4.850   8.941 -0.0113  0.2640  0.4862
  734MOL0     C 1209   1.444   4.980   8.789 -0.4084  1.4782 -0.1208
  734MOL0     C 1210   1.395   5.033   8.905 -0.1503  0.1670 -0.6643
  734MOL0     C 1211   1.261   5.071   8.910 -0.6775 -0.1635  0.3911
  734MOL0     C 1212   1.179   5.038   8.802  1.3256  1.1857  0.2916
  734MOL0     O 1213   1.040   5.057   8.784  0.0289 -0.0478  0.1888
  734MOL0     C 1214   0.958   5.093   8.902 -0.7040  0.2240 -0.1229
  734MOL0     C 1215   0.826   5.138   8.846 -0.0963 -0.0442 -0.2064
  734MOL0     C 1216   0.736   5.014   8.827  0.3600  0.5249  0.1757
  734MOL0     C 1217   0.608   5.051   8.754  0.9068 -0.3320  0.4918
  734MOL0     C 1218   0.619   5.113   8.629 -0.1782 -0.5159 -1.0512
  734MOL0     C 1219   0.626   5.177   8.524 -0.6797  0.0735  0.2646
  734MOL0     C 1220   1.237   4.981   8.690  0.0883  1.1034  0.2665
  734MOL0     C 1221   1.368   4.952   8.673  0.4611 -0.1287 -0.2404
  734MOL0     C 1222   1.431   4.899   8.545 -0.2371 -0.3872  0.7152
  734MOL0     H 1223   1.744   4.688   8.660  1.2331  0.6110 -2.0919
  734MOL0     H 1224   1.986   4.620   8.670  0.5210  1.0324 -0.1524
  734MOL0     H 1225   2.321   4.627   8.981 -1.8013 -0.0087  1.0327
  734MOL0     H 1226   2.199   4.699   9.066 -0.8824  0.3016 -1.1917
  734MOL0     H 1227   2.385   4.847   8.871  0.2232 -2.1404 -0.0504
  734MOL0     H 1228   2.253   4.919   8.971 -1.4643 -1.4388  1.5900
  734MOL0     H 1229   2.374   4.848   9.174  1.3237 -0.0406  0.3858
  734MOL0     H 1230   2.511   4.784   9.072  1.5504  2.3444 -0.5511
  734MOL0     H 1231   2.551   4.977   8.980  1.1529 -2.7713  2.2273
  734MOL0     H 1232   2.424   5.079   9.065 -2.4115 -0.7639  0.6087
  734MOL0     H 1233   2.651   4.912   9.196 -0.5885 -0.0813  1.2056
  734MOL0     H 1234   2.528   5.010   9.280 -1.4118 -1.6722 -0.4222
  734MOL0     H 1235   2.728   5.134   9.093  0.2565  1.1549 -0.0202
  734MOL0     H 1236   2.604   5.204   9.202  0.3464 -0.0222  0.2323
  734MOL0     H 1237   2.847   5.196   9.281  1.2688 -0.5650  2.6606
  734MOL0     H 1238   2.806   5.032   9.330  0.5730 -0.5440 -0.9776
  734MOL0     H 1239   2.649   5.274   9.421  2.7936  1.1900 -1.5173
  734MOL0     H 1240   2.609   5.111   9.480  0.5572  0.8381  2.8834
  734MOL0     H 1241   2.810   5.407   9.556  1.1168  0.5493  1.8637
  734MOL0     H 1242   2.998   5.309   9.874 -0.8952 -2.1871 -2.1242
  734MOL0     H 1243   2.928   5.456   9.799 -0.0344 -0.4235  1.2362
  734MOL0     H 1244   3.189   5.315   9.739  1.7418  0.4906 -0.8906
  734MOL0     H 1245   3.130   5.444   9.638  2.3849 -1.4162 -0.6177
  734MOL0     H 1246   3.300   5.511   9.801  0.5177  1.7004 -0.8521
  734MOL0     H 1247   3.151   5.602   9.821 -1.5321 -0.8618  0.2312
  734MOL0     H 1248   3.085   5.442  10.012  0.6504 -0.0214  3.1258
  734MOL0     H 1249   3.217   5.335   9.974  0.6946 -0.3785  4.1694
  734MOL0     H 1250   3.352   5.609  10.286  0.6151  1.1851  0.6869
  734MOL0     H 1251   3.619   5.556  10.497  0.8950  1.3625 -0.3014
  734MOL0     H 1252   3.500   5.677  10.447 -0.8445 -1.9065  0.5635
  734MOL0     H 1253   3.653   5.705  10.388 -0.9608  1.4062 -3.5428
  734MOL0     H 1254   3.806   5.373  10.524  0.0106 -0.2177 -2.3952
  734MOL0     H 1255   3.979   5.358  10.729 -1.1038  3.5950  1.8172
  734MOL0     H 1256   4.312   5.254  10.705 -0.1538  0.2402  2.2755
  734MOL0     H 1257   4.361   5.377  10.595 -1.3905  0.1701  0.1333
  734MOL0     H 1258   4.433   5.522  10.795  1.3802  0.4151  0.6098
  734MOL0     H 1259   4.395   5.380  10.891 -1.9743 -2.3362 -0.7816
  734MOL0     H 1260   4.595   5.405  10.664  0.1083 -1.1596 -1.0357
  734MOL0     H 1261   4.546   5.249  10.734  2.3277 -1.1050 -0.1140
  734MOL0     H 1262   4.630   5.338  10.955  2.0262  0.2826  0.1202
  734MOL0     H 1263   4.679   5.493  10.882 -0.0025  0.2626  1.2690
  734MOL0     H 1264   4.800   5.225  10.827  0.1449  0.4200  0.9571
  734MOL0     H 1265   4.856   5.375  10.746  1.5346  2.1529  1.2360
  734MOL0     H 1266   4.881   5.329  11.034  2.8407 -1.2592  0.4691
  734MOL0     H 1267   4.902   5.491  10.957  0.2038 -0.4349  0.2899
  734MOL0     H 1268   5.081   5.382  10.821 -0.5119  0.3267  0.0257
  734MOL0     H 1269   5.054   5.232  10.897  1.4961 -0.1048 -0.5518
  734MOL0     H 1270   5.086   5.351  11.129 -1.6284  1.8754  0.3770
  734MOL0     H 1271   5.152   5.486  11.054 -2.3757  1.5101 -1.1984
  734MOL0     H 1272   4.255   5.592  10.504  0.7953 -1.2470 -1.7374
  734MOL0     H 1273   4.081   5.644  10.337 -0.7495 -0.4783 -0.2190
  734MOL0     H 1274   3.671   5.324  10.045 -0.2151 -0.1315  1.9898
  734MOL0     H 1275   3.450   5.388   9.944 -0.9076 -2.8841  1.3062
  734MOL0     H 1276   2.032   4.865   9.016  1.7830  2.4200 -2.2953
  734MOL0     H 1277   1.797   4.915   9.018 -1.2597  0.0746 -0.0067
  734MOL0     H 1278   1.462   5.068   8.983  1.8497 -0.5394 -1.9902
  734MOL0     H 1279   1.224   5.117   9.001 -0.3859  0.5365  0.1645
  734MOL0     H 1280   0.947   5.013   8.976  0.9026  0.6906  0.6889
  734MOL0     H 1281   1.011   5.177   8.948  5.3982 -2.0886 -1.9326
  734MOL0     H 1282   0.847   5.197   8.756 -1.4868  2.1255  0.8130
  734MOL0     H 1283   0.783   5.210   8.916  5.0701 -0.5180  4.1119
  734MOL0     H 1284   0.775   4.930   8.770 -0.8166  0.8311 -1.1275
  734MOL0     H 1285   0.709   4.984   8.929  0.5303  1.0594  0.3812
  734MOL0     H 1286   0.547   5.113   8.820  1.8391  1.7295 -0.5174
  734MOL0     H 1287   0.548   4.962   8.733  2.0230 -1.0107  0.0390
  734MOL0     H 1288   0.621   5.232   8.433 -0.2344 -0.0304  0.1788
  734MOL0     H 1289   1.168   4.959   8.610 -1.8726  0.5113  2.0236
  734MOL0     H 1290   1.358   4.894   8.463  1.8430 -2.6260 -1.1552
  734MOL0     H 1291   1.501   4.972   8.503  0.8015 -1.9002 -0.2741
  734MOL0     H 1292   1.491   4.808   8.552  1.8616  1.0697  4.7294
  735MOL0     O 1293   0.081   9.207   7.727 -0.1112  0.1906  0.0795
  735MOL0     C 1294   0.176   9.130   7.734  0.4425  0.2697  0.4024
  735MOL0     O 1295   0.161   8.996   7.733 -0.3939  0.5006  0.1135
  735MOL0     C 1296   0.042   8.938   7.704  0.5988 -0.9128  0.3765
  735MOL0     C 1297  -0.050   8.916   7.805  0.7055  1.1988 -0.7523
  735MOL0     C 1298  -0.171   8.850   7.778 -0.4142 -0.0943  0.2033
  735MOL0     C 1299  -0.200   8.798   7.654  0.5058 -0.6258  0.1649
  735MOL0     O 1300  -0.323   8.750   7.638 -0.2975 -0.0575 -0.4077
  735MOL0     C 1301  -0.413   8.818   7.553  0.3004  0.7553  0.1912
  735MOL0     C 1302  -0.555   8.794   7.608 -0.2716  0.8494 -0.2260
  735MOL0     C 1303  -0.573   8.655   7.676  0.0820 -0.2499  0.0869
  735MOL0     C 1304  -0.710   8.637   7.720 -0.7514  0.4379  0.1048
  735MOL0     C 1305  -0.732   8.515   7.806 -0.4148 -0.3041 -0.5186
  735MOL0     C 1306  -0.870   8.517   7.856  0.7407  0.5895  0.1512
  735MOL0     C 1307  -0.934   8.374   7.901  0.2161 -1.2759 -0.5900
  735MOL0     C 1308  -0.984   8.382   8.047  0.6024  1.6894  0.3153
  735MOL0     N 1309  -1.096   8.288   8.073 -0.0664 -0.0894 -0.3500
  735MOL0     C 1310  -1.223   8.302   8.030  0.8746  0.4120  0.2709
  735MOL0     C 1311  -1.299   8.232   8.116  0.0431  0.4145  0.3354
  735MOL0     C 1312  -1.442   8.217   8.102  0.5173 -0.9419 -0.2553
  735MOL0     C 1313  -1.477   8.071   8.055 -0.4558 -0.3729 -0.2706
  735MOL0     C 1314  -1.629   8.055   8.033  0.3469  0.8492 -0.7908
  735MOL0     C 1315  -1.643   7.915   7.980  0.4722  0.1119 -0.2604
  735MOL0     O 1316  -1.767   7.865   8.017 -0.9842  0.5163  0.0324
  735MOL0     C 1317  -1.796   7.747   7.949  0.8182 -0.4900  1.2516
  735MOL0     C 1318  -1.928   7.713   7.963 -0.0785  0.0009 -0.4788
  735MOL0     C 1319  -1.978   7.593   7.912 -0.2780  0.3447 -0.0904
  735MOL0     C 1320  -2.113   7.550   7.950 -1.3251  0.0141  0.0484
  735MOL0     C 1321  -1.893   7.513   7.837  0.8084 -0.6802 -0.2638
  735MOL0     C 1322  -1.935   7.394   7.756 -0.2215 -0.4091 -0.3140
  735MOL0     O 1323  -1.875   7.374   7.629 -0.5257  0.0329 -0.2177
  735MOL0     C 1324  -1.918   7.266   7.552  0.5009 -0.1500  0.8602
  735MOL0     C 1325  -1.826   7.200   7.466 -0.3115 -0.1855 -0.2481
  735MOL0     C 1326  -1.874   7.097   7.386 -0.2910 -0.0417 -0.5175
  735MOL0     C 1327  -2.004   7.067   7.368 -0.7750  0.3254 -0.7280
  735MOL0     O 1328  -2.038   6.965   7.287  0.8642  0.4288 -0.1470
  735MOL0     C 1329  -2.160   6.887   7.300  0.2540 -0.3031  0.6221
  735MOL0     C 1330  -2.180   6.769   7.197 -0.3863 -0.7330  0.2491
  735MOL0     C 1331  -2.292   6.677   7.242  0.8251 -0.3783  0.5763
  735MOL0     C 1332  -2.367   6.620   7.117 -1.0296  0.3098  0.1902
  735MOL0     C 1333  -2.453   6.496   7.153  0.6236 -0.1942 -0.0740
  735MOL0     C 1334  -2.561   6.473   7.042 -0.3243  0.4213 -0.2279
  735MOL0     C 1335  -2.700   6.533   7.069 -0.4738 -0.5181 -0.2453
  735MOL0     C 1336  -2.793   6.549   6.949 -0.0034 -0.2325  0.4634
  735MOL0    Cl 1337  -2.845   6.401   6.865 -0.1446 -0.4044 -0.2770
  735MOL0     C 1338  -2.101   7.145   7.431  0.1636  0.1828 -0.6036
  735MOL0     C 1339  -2.053   7.241   7.534  0.9556 -0.2063  0.0183
  735MOL0     O 1340  -2.010   7.316   7.810  0.2566  0.1326  0.5979
  735MOL0     C 1341  -1.763   7.550   7.817  0.1284  0.0039  0.3343
  735MOL0     C 1342  -1.712   7.670   7.872 -0.7833  0.3765  0.3186
  735MOL0     N 1343  -1.209   8.170   8.207  0.0243  0.2263 -0.3213
  735MOL0     N 1344  -1.089   8.196   8.173 -0.0169 -0.0564 -0.4024
  735MOL0     C 1345  -0.106   8.811   7.550  0.1551  0.0361  0.3014
  735MOL0     C 1346   0.013   8.884   7.579  0.3011  0.5740 -0.3060
  735MOL0     C 1347   0.312   9.183   7.758  0.6841  0.4283 -0.1762
  735MOL0     C 1348   0.411   9.090   7.789  0.8451  0.3865 -0.8315
  735MOL0     C 1349   0.544   9.131   7.814 -0.1743 -0.7975  0.1255
  735MOL0     C 1350   0.578   9.267   7.810  0.3783  0.9604  0.2611
  735MOL0     O 1351   0.707   9.320   7.824  0.7173  0.0207 -0.0859
  735MOL0     C 1352   0.814   9.225   7.816 -0.6843 -0.4879 -0.3703
  735MOL0     C 1353   0.944   9.302   7.780 -0.8263 -0.3274 -0.2730
  735MOL0     C 1354   1.061   9.216   7.755 -0.1667 -0.6637  0.8196
  735MOL0     C 1355   1.192   9.298   7.733 -0.2282 -0.0835 -0.3878
  735MOL0     C 1356   1.299   9.233   7.658 -0.8954 -0.1449  0.2293
  735MOL0     C 1357   1.367   9.168   7.579 -0.4373 -1.2202  0.1833
  735MOL0     C 1358   0.483   9.359   7.768  0.3756 -1.0737 -0.5778
  735MOL0     C 1359   0.347   9.324   7.749 -0.4676 -0.3358 -0.1675
  735MOL0     C 1360   0.251   9.435   7.703 -1.0707  0.2313 -0.4021
  735MOL0     H 1361  -0.018   8.937   7.907  0.4945 -2.3435  0.1927
  735MOL0     H 1362  -0.237   8.833   7.862  0.0169 -2.3059  0.1640
  735MOL0     H 1363  -0.398   8.770   7.456 -0.2673  0.2973  0.3234
  735MOL0     H 1364  -0.402   8.927   7.554  3.1647  0.5720  2.2900
  735MOL0     H 1365  -0.587   8.875   7.674  0.0088 -0.1023  1.1364
  735MOL0     H 1366  -0.625   8.802   7.525  1.6930  2.4819 -1.8422
  735MOL0     H 1367  -0.555   8.569   7.611 -1.0362 -0.5852  0.1839
  735MOL0     H 1368  -0.508   8.647   7.764 -0.2805 -3.4238  0.2069
  735MOL0     H 1369  -0.735   8.724   7.780 -3.9946  0.8000 -1.5135
  735MOL0     H 1370  -0.777   8.641   7.633 -0.1898  0.8413 -0.3162
  735MOL0     H 1371  -0.674   8.525   7.898 -1.7571 -2.2415  0.6063
  735MOL0     H 1372  -0.715   8.422   7.750  0.3896 -0.0874 -0.6513
  735MOL0     H 1373  -0.889   8.587   7.937 -0.6137  0.0168  0.3471
  735MOL0     H 1374  -0.929   8.541   7.768  1.8489 -1.6884 -1.3132
  735MOL0     H 1375  -0.860   8.294   7.892  1.7014 -0.3042  1.7766
  735MOL0     H 1376  -1.022   8.352   7.840 -0.9066 -0.7192  0.7759
  735MOL0     H 1377  -0.907   8.358   8.121  1.2101 -3.6062 -1.5855
  735MOL0     H 1378  -1.023   8.482   8.070 -0.3964  1.1670  0.9583
  735MOL0     H 1379  -1.257   8.371   7.954 -0.4277  2.0789  2.2554
  735MOL0     H 1380  -1.483   8.297   8.039  0.1074  0.8302  2.1247
  735MOL0     H 1381  -1.497   8.229   8.195 -1.6622  2.2846 -1.7656
  735MOL0     H 1382  -1.431   8.045   7.959 -0.4924  1.1036 -0.7006
  735MOL0     H 1383  -1.448   7.992   8.125  0.0126 -1.5574 -1.7441
  735MOL0     H 1384  -1.688   8.076   8.123  0.1158  3.6074 -1.4992
  735MOL0     H 1385  -1.658   8.130   7.959  1.6656  2.6423  0.4030
  735MOL0     H 1386  -1.622   7.924   7.873 -1.3201  2.9973 -0.4901
  735MOL0     H 1387  -1.557   7.862   8.022  1.0469  1.7507  0.7402
  735MOL0     H 1388  -1.991   7.770   8.030 -1.3632 -1.6549 -0.2142
  735MOL0     H 1389  -2.094   7.448   7.987  1.1333  1.2227  2.5475
  735MOL0     H 1390  -2.177   7.566   7.863 -1.7661 -1.5326  0.0606
  735MOL0     H 1391  -2.151   7.604   8.037 -1.5749 -1.0213  0.6104
  735MOL0     H 1392  -1.720   7.220   7.457  0.1190 -2.7635 -2.0856
  735MOL0     H 1393  -1.799   7.044   7.329 -2.1808 -3.3083 -0.2000
  735MOL0     H 1394  -2.161   6.843   7.400  0.9736  0.6571  1.0723
  735MOL0     H 1395  -2.249   6.949   7.288 -1.0966 -1.8751  2.0236
  735MOL0     H 1396  -2.196   6.812   7.098 -4.2597  0.9333  1.4424
  735MOL0     H 1397  -2.091   6.706   7.201 -0.3663 -0.6712  0.9117
  735MOL0     H 1398  -2.363   6.731   7.306  1.7859 -1.1268  2.3313
  735MOL0     H 1399  -2.250   6.596   7.302 -0.6668 -2.3490 -0.9113
  735MOL0     H 1400  -2.287   6.590   7.049 -1.7610  0.8520 -0.9281
  735MOL0     H 1401  -2.418   6.698   7.060 -2.7547  0.2594  1.5558
  735MOL0     H 1402  -2.385   6.410   7.153  1.1035  0.1707  0.9113
  735MOL0     H 1403  -2.512   6.506   7.245 -0.3936  0.0704 -0.7348
  735MOL0     H 1404  -2.577   6.365   7.026 -1.7265  0.5380  0.2350
  735MOL0     H 1405  -2.524   6.514   6.948  1.0451  1.1345  0.5980
  735MOL0     H 1406  -2.681   6.631   7.114  1.9704 -0.9122 -0.2820
  735MOL0     H 1407  -2.752   6.472   7.143  0.1657  0.3160  0.9202
  735MOL0     H 1408  -2.753   6.627   6.884 -1.4593  0.4639  0.3695
  735MOL0     H 1409  -2.882   6.609   6.973 -0.7217 -1.0233 -0.1644
  735MOL0     H 1410  -2.204   7.133   7.401 -0.1499 -0.4129  0.6263
  735MOL0     H 1411  -2.116   7.323   7.567  2.5744  0.0776  2.7615
  735MOL0     H 1412  -1.694   7.498   7.752  1.6987  1.5516  0.6974
  735MOL0     H 1413  -1.610   7.701   7.851 -0.9912  1.3408  0.7168
  735MOL0     H 1414  -0.120   8.759   7.456  0.6454  0.2118  0.1247
  735MOL0     H 1415   0.092   8.890   7.504  0.7210 -0.9942 -0.0278
  735MOL0     H 1416   0.388   8.984   7.791 -0.1152  0.6013  0.5318
  735MOL0     H 1417   0.624   9.063   7.841 -0.3451  0.1266  3.2907
  735MOL0     H 1418   0.837   9.175   7.911 -0.5334  1.3716  0.6255
  735MOL0     H 1419   0.802   9.147   7.741  2.7409 -2.1940  0.6454
  735MOL0     H 1420   0.971   9.375   7.857 -1.1597 -1.6640  1.1677
  735MOL0     H 1421   0.945   9.356   7.685 -0.4624 -0.8948 -0.5964
  735MOL0     H 1422   1.071   9.140   7.833  0.8797 -0.7987  0.5670
  735MOL0     H 1423   1.029   9.169   7.661 -2.0703  2.4292 -0.2336
  735MOL0     H 1424   1.235   9.332   7.827 -0.3733  0.4140 -0.5005
  735MOL0     H 1425   1.170   9.394   7.686  2.4872  2.2113  2.5395
  735MOL0     H 1426   1.421   9.095   7.523 -1.3173 -2.0577  0.3913
  735MOL0     H 1427   0.498   9.466   7.755 -0.1538 -0.7110  1.4297
  735MOL0     H 1428   0.172   9.453   7.777  0.3337  1.6875  0.8390
  735MOL0     H 1429   0.303   9.527   7.676 -0.6149 -0.1449 -0.8015
  735MOL0     H 1430   0.194   9.394   7.620 -3.5731  1.8643  0.3782
  736MOL0     O 1431   5.357   9.754   6.366 -0.1804 -0.5342  0.4211
  736MOL0     C 1432   5.254   9.758   6.306  1.0110 -0.9618  0.0983
  736MOL0     O 1433   5.241   9.769   6.167  0.2485 -0.2119  0.0030
  736MOL0     C 1434   5.356   9.771   6.093  0.6379 -0.3742  0.2086
  736MOL0     C 1435   5.381   9.665   6.004 -0.0903  0.4815 -0.3107
  736MOL0     C 1436   5.494   9.674   5.921  0.0054  0.2871 -0.9100
  736MOL0     C 1437   5.586   9.773   5.933 -0.8101 -0.5722 -0.4778
  736MOL0     O 1438   5.705   9.775   5.853 -0.2342 -0.1200 -0.9636
  736MOL0     C 1439   5.793   9.887   5.853 -0.2047  0.2741 -1.0658
  736MOL0     C 1440   5.937   9.848   5.816 -0.8061 -0.1195 -0.4804
  736MOL0     C 1441   6.033   9.969   5.794  0.2732  0.3606 -0.2292
  736MOL0     C 1442   6.175   9.940   5.780 -0.1596 -0.9397  0.1424
  736MOL0     C 1443   6.260  10.066   5.742 -0.3243  0.6134 -0.5355
  736MOL0     C 1444   6.401  10.044   5.780 -0.7076 -0.0868  0.6540
  736MOL0     C 1445   6.506  10.101   5.681  0.4365 -0.3909 -0.0917
  736MOL0     C 1446   6.507  10.250   5.660 -0.6696  0.7001  0.4208
  736MOL0     N 1447   6.519  10.339   5.772 -0.3381  0.2890 -0.2052
  736MOL0     C 1448   6.596  10.317   5.882 -0.3329  0.1149  0.0254
  736MOL0     C 1449   6.575  10.433   5.954 -0.8586  0.6139 -1.3982
  736MOL0     C 1450   6.630  10.456   6.096  0.0663  0.2731 -0.3463
  736MOL0     C 1451   6.768  10.391   6.114  0.6293  0.4565  0.4700
  736MOL0     C 1452   6.873  10.435   6.010  0.7790 -0.7875 -0.4321
  736MOL0     C 1453   7.014  10.410   6.068 -0.2627  0.1601 -0.3142
  736MOL0     O 1454   7.113  10.404   5.962 -0.3199  0.1245  0.1570
  736MOL0     C 1455   7.244  10.423   5.999  0.5037  0.0567 -0.1018
  736MOL0     C 1456   7.288  10.451   6.131 -0.0179 -0.4702 -0.3334
  736MOL0     C 1457   7.425  10.483   6.159  0.0609  0.6216  0.4519
  736MOL0     C 1458   7.455  10.509   6.304 -0.2219 -0.2867 -0.4553
  736MOL0     C 1459   7.519  10.494   6.049  0.4635 -0.2141 -0.4402
  736MOL0     C 1460   7.669  10.509   6.065 -0.2967 -0.9921 -0.3053
  736MOL0     O 1461   7.741  10.522   5.947  0.6304 -0.0414 -0.1018
  736MOL0     C 1462   7.876  10.503   5.947 -0.0527 -0.0064  0.1340
  736MOL0     C 1463   7.938  10.427   5.849 -0.2092  0.4552 -0.3353
  736MOL0     C 1464   8.077  10.407   5.844 -0.6761  0.3333 -0.5590
  736MOL0     C 1465   8.165  10.480   5.937 -0.2348 -0.6903 -0.2427
  736MOL0     O 1466   8.300  10.471   5.938  0.2240 -0.6268  0.4258
  736MOL0     C 1467   8.356  10.345   5.896  0.0122  0.0673  0.4798
  736MOL0     C 1468   8.484  10.313   5.968 -0.3394  0.5232 -1.1749
  736MOL0     C 1469   8.596  10.410   5.949  0.3651  1.1652  0.3269
  736MOL0     C 1470   8.669  10.425   6.082  0.4943  0.7623 -0.5597
  736MOL0     C 1471   8.779  10.519   6.057 -0.7244 -0.2436  0.0481
  736MOL0     C 1472   8.881  10.541   6.165  0.2086  0.2981 -0.6899
  736MOL0     C 1473   9.014  10.604   6.126 -0.2863 -0.2686  0.3119
  736MOL0     C 1474   9.118  10.606   6.240  0.2758 -0.1711  0.0216
  736MOL0    Cl 1475   9.201  10.442   6.250  0.2800 -0.1812  0.3482
  736MOL0     C 1476   8.101  10.579   6.011  0.6801 -0.4867 -0.2793
  736MOL0     C 1477   7.958  10.586   6.025 -0.0228  0.0097  0.0101
  736MOL0     O 1478   7.716  10.495   6.170 -0.6913 -0.1600 -0.9391
  736MOL0     C 1479   7.470  10.465   5.921  0.0552 -0.6225 -0.3285
  736MOL0     C 1480   7.338  10.426   5.905  0.1387  0.2915 -0.1675
  736MOL0     N 1481   6.501  10.525   5.878  0.4140  0.1868 -0.1332
  736MOL0     N 1482   6.460  10.467   5.774  0.3446  0.2250  0.3097
  736MOL0     C 1483   5.571   9.870   6.040  0.5708  0.6740  0.2979
  736MOL0     C 1484   5.454   9.866   6.118 -0.7185 -0.5459 -0.6008
  736MOL0     C 1485   5.126   9.753   6.383 -0.3377  0.1271 -0.5112
  736MOL0     C 1486   5.124   9.672   6.502 -0.2983  0.6106  0.4096
  736MOL0     C 1487   5.002   9.646   6.567 -0.2377 -0.2023 -0.5692
  736MOL0     C 1488   4.880   9.705   6.531 -0.3945 -0.4711 -0.8449
  736MOL0     O 1489   4.778   9.687   6.617  0.2860  0.2055 -0.1662
  736MOL0     C 1490   4.650   9.746   6.591  0.3255  0.4391  0.4752
  736MOL0     C 1491   4.549   9.701   6.702  0.2834 -0.6524 -0.1303
  736MOL0     C 1492   4.411   9.786   6.703  0.1595  0.5907  0.2954
  736MOL0     C 1493   4.310   9.727   6.610  0.2171  0.0893 -0.2683
  736MOL0     C 1494   4.283   9.585   6.613  0.0726 -0.4004  0.2461
  736MOL0     C 1495   4.258   9.466   6.598 -0.6734 -0.4522 -0.4638
  736MOL0     C 1496   4.887   9.785   6.415 -0.9498  0.3252  0.0238
  736MOL0     C 1497   5.007   9.809   6.341  0.6428  0.1563 -0.0565
  736MOL0     C 1498   4.999   9.910   6.229 -0.6210 -0.6169  0.1550
  736MOL0     H 1499   5.319   9.576   6.000 -3.2515  2.5440 -2.1876
  736MOL0     H 1500   5.519   9.586   5.862  1.5248 -1.1077  1.6162
  736MOL0     H 1501   5.798   9.934   5.952  1.0325  0.3177 -1.1283
  736MOL0     H 1502   5.762   9.961   5.778 -2.4463 -0.7623 -1.2511
  736MOL0     H 1503   5.972   9.773   5.888  0.2689  0.7463 -0.0670
  736MOL0     H 1504   5.925   9.788   5.725 -0.8714 -1.3379  0.3040
  736MOL0     H 1505   6.002  10.024   5.704  1.3142 -0.7613 -1.3092
  736MOL0     H 1506   6.032  10.019   5.891 -2.6660 -2.2241  1.2443
  736MOL0     H 1507   6.210   9.908   5.879  0.1917 -1.9211 -0.2822
  736MOL0     H 1508   6.196   9.859   5.709  1.6786 -1.6731  1.4252
  736MOL0     H 1509   6.213  10.150   5.794 -0.7670  0.1304 -0.1487
  736MOL0     H 1510   6.255  10.082   5.634 -0.7817 -0.7738 -0.7394
  736MOL0     H 1511   6.426  10.085   5.878 -1.7966 -2.2840  1.9420
  736MOL0     H 1512   6.423   9.938   5.793  0.9505  0.1990  0.4611
  736MOL0     H 1513   6.491  10.047   5.587  1.4812 -1.6136  0.4124
  736MOL0     H 1514   6.604  10.069   5.717 -0.2921 -1.9413  0.6091
  736MOL0     H 1515   6.592  10.287   5.600 -0.9290 -0.1702 -0.5094
  736MOL0     H 1516   6.419  10.270   5.599 -1.4156 -2.2640  0.3765
  736MOL0     H 1517   6.661  10.241   5.925 -1.2656 -0.7909 -0.1482
  736MOL0     H 1518   6.560  10.409   6.166  0.8552 -2.2005 -1.1075
  736MOL0     H 1519   6.633  10.562   6.123 -0.8085 -0.3931  2.7566
  736MOL0     H 1520   6.815  10.403   6.212  2.6702 -0.4958 -0.3296
  736MOL0     H 1521   6.765  10.283   6.097  2.1142  0.6831 -1.5731
  736MOL0     H 1522   6.850  10.384   5.916 -1.7849  1.5556 -1.2231
  736MOL0     H 1523   6.858  10.539   5.980 -1.1977 -1.0464 -0.4946
  736MOL0     H 1524   7.029  10.494   6.137  1.6042  0.4386 -1.0128
  736MOL0     H 1525   7.017  10.318   6.127  1.7703 -0.9685 -2.0713
  736MOL0     H 1526   7.211  10.450   6.207  0.1806 -3.5508 -0.0316
  736MOL0     H 1527   7.369  10.543   6.363  0.4834  0.4237  0.1767
  736MOL0     H 1528   7.532  10.586   6.312  1.7401 -2.2619  0.8327
  736MOL0     H 1529   7.501  10.420   6.348 -0.5830 -0.2683 -0.0282
  736MOL0     H 1530   7.884  10.380   5.766 -0.1093 -0.6314  0.1919
  736MOL0     H 1531   8.104  10.346   5.759 -3.5846 -3.5573  1.0150
  736MOL0     H 1532   8.290  10.261   5.919 -0.7548  0.6737  0.5400
  736MOL0     H 1533   8.354  10.337   5.787 -0.6806 -1.7670  0.5923
  736MOL0     H 1534   8.472  10.308   6.077  2.7717  0.2864 -0.7432
  736MOL0     H 1535   8.500  10.209   5.939 -3.1200 -0.1747 -0.4489
  736MOL0     H 1536   8.550  10.505   5.920 -1.4489  0.2704  0.0788
  736MOL0     H 1537   8.656  10.375   5.864 -0.4818 -0.9570  0.5298
  736MOL0     H 1538   8.704  10.327   6.112 -0.9247 -0.0454 -1.4354
  736MOL0     H 1539   8.608  10.470   6.161 -1.8029  0.2608 -1.9478
  736MOL0     H 1540   8.834  10.479   5.971 -0.8722  0.9045 -0.6027
  736MOL0     H 1541   8.735  10.614   6.027  1.8212  1.8541  2.4754
  736MOL0     H 1542   8.912  10.441   6.198 -0.3127  0.1624 -0.6021
  736MOL0     H 1543   8.835  10.595   6.248 -0.8227 -1.1212 -0.2953
  736MOL0     H 1544   8.990  10.706   6.094  0.5395 -0.3166 -0.5242
  736MOL0     H 1545   9.058  10.549   6.042  2.2463  1.7407  0.2028
  736MOL0     H 1546   9.063  10.649   6.324 -0.0620  3.4495 -1.8371
  736MOL0     H 1547   9.198  10.678   6.218  0.7805  0.1192  2.5141
  736MOL0     H 1548   8.163  10.645   6.072  2.3948 -0.0213 -2.4048
  736MOL0     H 1549   7.903  10.655   6.087 -2.5824 -1.1647 -0.8432
  736MOL0     H 1550   7.536  10.459   5.835  0.6343 -0.2817  0.0847
  736MOL0     H 1551   7.303  10.401   5.806 -0.6715  1.7953 -0.2906
  736MOL0     H 1552   5.634   9.952   6.070  1.3869 -0.6929  2.5854
  736MOL0     H 1553   5.423   9.940   6.191 -0.5600  1.3353 -2.3673
  736MOL0     H 1554   5.212   9.615   6.531  0.2346  0.5652 -1.2128
  736MOL0     H 1555   4.994   9.588   6.657 -2.3775 -2.5696 -2.1399
  736MOL0     H 1556   4.669   9.854   6.594  1.4367  0.2486  0.5616
  736MOL0     H 1557   4.606   9.717   6.495  0.5203  0.4516  0.3808
  736MOL0     H 1558   4.606   9.720   6.793  1.2371 -0.0825 -0.8324
  736MOL0     H 1559   4.532   9.593   6.694  3.3007 -1.1161 -1.2776
  736MOL0     H 1560   4.373   9.784   6.805  1.1969  0.1386  0.6851
  736MOL0     H 1561   4.440   9.889   6.683 -1.1119  1.4080  2.3498
  736MOL0     H 1562   4.352   9.756   6.513  3.2635  3.6166  1.8391
  736MOL0     H 1563   4.216   9.782   6.620 -0.6808 -1.7774  4.7622
  736MOL0     H 1564   4.260   9.361   6.578 -1.9151 -0.3597 -1.1710
  736MOL0     H 1565   4.800   9.844   6.387 -1.2880 -0.2775 -0.2154
  736MOL0     H 1566   5.002   9.870   6.127 -1.0235 -0.3911  0.0521
  736MOL0     H 1567   4.911   9.975   6.237 -0.4015 -0.1424 -1.0928
  736MOL0     H 1568   5.085   9.977   6.242 -1.3697 -0.0315  2.5383
  737MOL0     O 1569   3.866   9.971   1.452  0.0941  0.2098 -0.5861
  737MOL0     C 1570   3.810   9.895   1.371 -0.0832  0.5998 -0.7186
  737MOL0     O 1571   3.867   9.781   1.316 -0.3969  0.0250  0.4289
  737MOL0     C 1572   3.977   9.725   1.366 -0.2186  0.4703 -0.6937
  737MOL0     C 1573   4.050   9.654   1.276  0.1485  0.5676  0.0049
  737MOL0     C 1574   4.165   9.585   1.321 -0.4731 -0.0992  0.2065
  737MOL0     C 1575   4.202   9.587   1.457 -0.8049  0.1873  0.2116
  737MOL0     O 1576   4.311   9.518   1.494 -0.3321  0.2816  0.1311
  737MOL0     C 1577   4.324   9.463   1.629  0.1768  0.6238  0.2699
  737MOL0     C 1578   4.471   9.431   1.658 -0.7359  0.0762 -1.1913
  737MOL0     C 1579   4.553   9.561   1.656  0.0607  0.1855  0.4091
  737MOL0     C 1580   4.661   9.560   1.767  0.0638 -1.0418  0.5415
  737MOL0     C 1581   4.765   9.453   1.737  0.0047  0.5610  0.6271
  737MOL0     C 1582   4.868   9.477   1.851  0.3543  0.1442 -0.2055
  737MOL0     C 1583   4.998   9.396   1.827  1.3671  0.1961 -0.7312
  737MOL0     C 1584   5.085   9.451   1.709  0.0093  0.8407 -0.5044
  737MOL0     N 1585   5.230   9.425   1.731  0.3408 -0.1300 -0.5437
  737MOL0     C 1586   5.291   9.306   1.712 -0.5778 -0.9016 -0.9105
  737MOL0     C 1587   5.424   9.340   1.678 -0.0579  0.0323 -0.1952
  737MOL0     C 1588   5.533   9.247   1.643 -0.0977 -0.8945  0.5044
  737MOL0     C 1589   5.613   9.222   1.774  0.7524  0.1207  0.4236
  737MOL0     C 1590   5.744   9.150   1.744 -0.6185 -0.0227  0.2496
  737MOL0     C 1591   5.831   9.146   1.868 -0.5581  0.4401  0.3436
  737MOL0     O 1592   5.871   9.013   1.903  0.2298 -0.6228 -0.2495
  737MOL0     C 1593   5.995   8.968   1.862  0.4365  0.2835  0.8310
  737MOL0     C 1594   6.063   9.023   1.752 -0.0086  0.5445 -0.1249
  737MOL0     C 1595   6.187   8.972   1.708 -0.5799 -0.2847 -0.1154
  737MOL0     C 1596   6.235   9.026   1.577 -0.3972  0.4111  0.1200
  737MOL0     C 1597   6.240   8.862   1.771  0.0147  0.8595 -0.8143
  737MOL0     C 1598   6.371   8.793   1.734 -0.6926  0.6727 -0.7216
  737MOL0     O 1599   6.457   8.842   1.637  0.2753  0.1901  0.3247
  737MOL0     C 1600   6.584   8.814   1.629 -0.5882  0.0675  0.3013
  737MOL0     C 1601   6.663   8.748   1.727  0.0578  0.4161 -1.0882
  737MOL0     C 1602   6.801   8.748   1.716  0.4847  0.7508  0.2358
  737MOL0     C 1603   6.860   8.811   1.609  0.2015  0.4044 -0.3897
  737MOL0     O 1604   6.998   8.803   1.595 -0.5086 -0.2247 -0.3874
  737MOL0     C 1605   7.073   8.686   1.630  0.5170 -0.1173 -0.5903
  737MOL0     C 1606   7.140   8.699   1.767 -0.1011  0.9140 -0.7264
  737MOL0     C 1607   7.284   8.648   1.772  0.0977 -0.3146 -0.7454
  737MOL0     C 1608   7.381   8.739   1.696 -0.1195 -0.9922  0.5646
  737MOL0     C 1609   7.515   8.672   1.645  0.5730 -0.4006  0.4237
  737MOL0     C 1610   7.610   8.669   1.757 -0.1709 -0.1382 -1.0526
  737MOL0     C 1611   7.730   8.578   1.725  0.3125  0.3531 -0.3038
  737MOL0     C 1612   7.837   8.586   1.831 -0.1607  0.4591 -0.2275
  737MOL0    Cl 1613   7.968   8.468   1.778 -0.4913 -0.0066  0.0930
  737MOL0     C 1614   6.788   8.880   1.511 -0.8954 -0.0699  0.5945
  737MOL0     C 1615   6.651   8.876   1.524 -0.0318 -1.1494 -0.9466
  737MOL0     O 1616   6.390   8.684   1.799  0.6219 -0.0714  0.4259
  737MOL0     C 1617   6.171   8.811   1.882 -0.6956  0.1554 -0.0838
  737MOL0     C 1618   6.052   8.862   1.926  0.6020 -0.0121  0.2319
  737MOL0     N 1619   5.439   9.479   1.681 -0.2583 -0.0519 -0.2526
  737MOL0     N 1620   5.324   9.527   1.711 -0.1384 -1.1768  0.6798
  737MOL0     C 1621   4.136   9.657   1.550  0.8248 -0.3370  0.5520
  737MOL0     C 1622   4.013   9.724   1.501 -0.5026 -0.8596  0.7637
  737MOL0     C 1623   3.669   9.916   1.329 -0.1336 -0.7781  0.2107
  737MOL0     C 1624   3.631   9.850   1.208 -0.4601  0.2689 -1.0347
  737MOL0     C 1625   3.504   9.857   1.155  0.7305  0.3342  0.2385
  737MOL0     C 1626   3.409   9.930   1.226  0.1527 -0.6852 -0.4410
  737MOL0     O 1627   3.277   9.925   1.172  0.1985 -0.4482 -0.6621
  737MOL0     C 1628   3.170   9.998   1.235  0.7402  0.5518 -0.0468
  737MOL0     C 1629   3.162  10.142   1.192  0.1753  0.1414  0.4565
  737MOL0     C 1630   3.070  10.220   1.290  0.2967 -0.6098  0.9804
  737MOL0     C 1631   3.142  10.255   1.423 -0.3353  0.2816 -0.2982
  737MOL0     C 1632   3.062  10.335   1.519 -1.0323  0.0878 -0.2100
  737MOL0     C 1633   3.006  10.406   1.593 -0.6322  0.0985 -0.1623
  737MOL0     C 1634   3.444  10.002   1.341 -0.1366  0.3091  1.1358
  737MOL0     C 1635   3.572  10.003   1.387  0.1019  0.3157 -0.0878
  737MOL0     C 1636   3.610  10.100   1.500 -0.5252  0.6726  1.1034
  737MOL0     H 1637   4.017   9.652   1.173 -0.1411 -0.4653  0.1015
  737MOL0     H 1638   4.230   9.528   1.256  0.5846  1.9285 -0.5815
  737MOL0     H 1639   4.256   9.378   1.634 -2.3144  2.5532  1.7092
  737MOL0     H 1640   4.290   9.528   1.710  1.2279 -2.5087  3.4646
  737MOL0     H 1641   4.471   9.385   1.758  1.5061 -3.6148 -2.6698
  737MOL0     H 1642   4.511   9.368   1.578 -0.3567 -0.0473 -0.9037
  737MOL0     H 1643   4.597   9.561   1.555 -0.8975 -2.6106 -0.0996
  737MOL0     H 1644   4.483   9.643   1.672 -2.1313 -1.3948 -0.6781
  737MOL0     H 1645   4.711   9.657   1.775  0.6521 -1.4189  1.6096
  737MOL0     H 1646   4.618   9.543   1.866 -0.5995 -1.1727  0.2341
  737MOL0     H 1647   4.814   9.458   1.639 -2.9591  0.1824 -0.9843
  737MOL0     H 1648   4.726   9.351   1.744  0.6052  0.2118 -0.7621
  737MOL0     H 1649   4.904   9.580   1.855 -0.5980  0.4729  0.1828
  737MOL0     H 1650   4.826   9.437   1.943  2.0791  0.5257  0.7845
  737MOL0     H 1651   4.977   9.292   1.799 -0.3673  0.2018  0.4057
  737MOL0     H 1652   5.044   9.389   1.926 -4.5959  0.9759  2.5625
  737MOL0     H 1653   5.054   9.389   1.625  1.4064  0.4734 -0.7809
  737MOL0     H 1654   5.063   9.554   1.681 -0.0399  0.8834 -0.3111
  737MOL0     H 1655   5.245   9.208   1.714  0.7634 -1.5603 -0.8103
  737MOL0     H 1656   5.577   9.302   1.559 -2.8533 -1.7274 -1.6464
  737MOL0     H 1657   5.487   9.152   1.614 -1.1373 -0.1504 -0.3474
  737MOL0     H 1658   5.625   9.322   1.815 -0.9340  0.5045  0.0594
  737MOL0     H 1659   5.556   9.154   1.838  2.7509 -1.4541  0.6248
  737MOL0     H 1660   5.723   9.053   1.697 -2.2538  1.0907 -1.5012
  737MOL0     H 1661   5.800   9.211   1.673 -0.8751 -0.2043 -0.1136
  737MOL0     H 1662   5.909   9.222   1.854 -2.1886  2.2180  0.4515
  737MOL0     H 1663   5.791   9.193   1.958  1.1784  1.1549  0.7794
  737MOL0     H 1664   6.013   9.102   1.697 -2.0089 -0.1174  0.6627
  737MOL0     H 1665   6.340   9.051   1.593  0.0078 -1.9056  1.4719
  737MOL0     H 1666   6.185   9.123   1.564 -2.8782 -1.0456 -2.2441
  737MOL0     H 1667   6.224   8.968   1.486  1.2778  0.4764 -0.1589
  737MOL0     H 1668   6.626   8.713   1.823  2.1151 -0.5536 -0.6068
  737MOL0     H 1669   6.861   8.701   1.793  0.0641 -2.1723 -1.0699
  737MOL0     H 1670   7.005   8.600   1.633 -1.5533  1.4898  1.4587
  737MOL0     H 1671   7.141   8.670   1.545 -1.3608 -2.0307 -1.8368
  737MOL0     H 1672   7.133   8.806   1.789 -0.7628  0.5866  0.7850
  737MOL0     H 1673   7.075   8.645   1.836 -2.1573  1.3466 -2.2444
  737MOL0     H 1674   7.275   8.548   1.729 -2.8549 -1.1580  1.5110
  737MOL0     H 1675   7.309   8.635   1.878 -3.5096  0.7724  0.3851
  737MOL0     H 1676   7.400   8.834   1.748 -2.7929  0.3323 -0.7191
  737MOL0     H 1677   7.341   8.768   1.599 -1.2876  0.9361  1.5588
  737MOL0     H 1678   7.500   8.570   1.610  3.5269 -0.8291  0.1984
  737MOL0     H 1679   7.568   8.724   1.565 -1.3053 -2.1853 -2.1334
  737MOL0     H 1680   7.562   8.631   1.847  0.9380 -3.0120 -1.5613
  737MOL0     H 1681   7.646   8.772   1.767  0.6263 -0.5376  0.4692
  737MOL0     H 1682   7.761   8.599   1.622 -4.5674 -0.5388 -2.2361
  737MOL0     H 1683   7.695   8.475   1.717  1.4005 -0.0698  0.2617
  737MOL0     H 1684   7.805   8.567   1.933 -1.0959  2.2613 -0.1409
  737MOL0     H 1685   7.873   8.689   1.826  0.2079  0.4547  1.6169
  737MOL0     H 1686   6.835   8.927   1.426 -1.8345  0.9207  0.6056
  737MOL0     H 1687   6.600   8.933   1.447  3.7239  0.8533 -2.2417
  737MOL0     H 1688   6.207   8.731   1.946 -0.4672 -0.1213 -0.5497
  737MOL0     H 1689   5.993   8.824   2.009 -1.4065  1.2647 -0.5671
  737MOL0     H 1690   4.172   9.674   1.651  5.7541  1.1591 -1.1944
  737MOL0     H 1691   3.957   9.778   1.576  0.2920 -0.8209  1.3332
  737MOL0     H 1692   3.701   9.796   1.144  0.3765  4.1880 -3.7614
  737MOL0     H 1693   3.468   9.812   1.064  1.8954 -1.1794  0.4839
  737MOL0     H 1694   3.072   9.954   1.210 -0.2132  2.4354  0.2228
  737MOL0     H 1695   3.177   9.996   1.344  0.9315 -0.8793 -0.0537
  737MOL0     H 1696   3.112  10.150   1.095  0.7720 -0.6408  0.0738
  737MOL0     H 1697   3.263  10.184   1.188 -0.4340  1.6357 -0.2345
  737MOL0     H 1698   3.017  10.302   1.240  0.6636 -2.0537 -1.9918
  737MOL0     H 1699   2.987  10.150   1.306 -0.2643 -0.0728  0.4948
  737MOL0     H 1700   3.240  10.297   1.400 -0.1477  1.1558  1.7740
  737MOL0     H 1701   3.156  10.162   1.478 -1.8787  1.3485  2.1052
  737MOL0     H 1702   2.958  10.474   1.659  2.2465  2.4728 -0.2702
  737MOL0     H 1703   3.371  10.061   1.396 -1.1638  0.8113 -0.6651
  737MOL0     H 1704   3.689  10.160   1.454 -1.5510 -0.4140 -2.4184
  737MOL0     H 1705   3.522  10.162   1.520 -1.8889 -0.6490 -0.4726
  737MOL0     H 1706   3.645  10.041   1.584  1.4952 -3.3899 -2.2173
  738MOL0     O 1707   0.076   0.187   8.501  0.3853 -0.3553  0.2542
  738MOL0     C 1708  -0.038   0.208   8.455  1.2520 -0.1535 -0.4370
  738MOL0     O 1709  -0.078   0.332   8.409 -0.3606 -0.9363 -0.4653
  738MOL0     C 1710  -0.021   0.441   8.479 -0.1256 -0.0014  0.2064
  738MOL0     C 1711   0.099   0.491   8.440 -0.6983 -0.3207  0.0193
  738MOL0     C 1712   0.175   0.583   8.514 -0.6229 -0.4761 -0.4393
  738MOL0     C 1713   0.111   0.649   8.620  0.5924 -0.4454 -0.5912
  738MOL0     O 1714   0.179   0.744   8.675 -0.2909 -0.2405  0.1086
  738MOL0     C 1715   0.116   0.872   8.672 -0.1165  0.1554  0.4576
  738MOL0     C 1716   0.227   0.974   8.672  0.8566 -0.4433 -0.0937
  738MOL0     C 1717   0.179   1.112   8.728  0.4280 -0.0148 -0.4372
  738MOL0     C 1718   0.083   1.171   8.620  0.2190 -1.6730 -0.1577
  738MOL0     C 1719   0.170   1.230   8.508 -0.4011 -0.3509  0.2412
  738MOL0     C 1720   0.096   1.221   8.374  0.0565  0.1866 -0.7075
  738MOL0     C 1721  -0.028   1.317   8.372 -0.0066 -0.7111  0.0230
  738MOL0     C 1722  -0.070   1.374   8.238  1.0198 -0.3504  0.3110
  738MOL0     N 1723   0.045   1.419   8.167  0.2874  0.1704  0.0257
  738MOL0     C 1724   0.096   1.362   8.053  0.6642 -1.0107 -0.8931
  738MOL0     C 1725   0.156   1.462   7.991 -0.7151 -0.3388  0.0891
  738MOL0     C 1726   0.223   1.453   7.852  0.2118 -0.0131  0.2408
  738MOL0     C 1727   0.376   1.466   7.877 -0.6283 -0.2814 -0.4633
  738MOL0     C 1728   0.434   1.329   7.933 -0.1791  0.1060  0.0449
  738MOL0     C 1729   0.588   1.345   7.929 -0.2287  0.3263 -0.0756
  738MOL0     O 1730   0.651   1.223   7.978  0.1903 -0.0730 -0.5577
  738MOL0     C 1731   0.789   1.216   7.980 -0.5141  0.2284  0.2580
  738MOL0     C 1732   0.837   1.091   8.011  1.1823 -0.5963  0.6895
  738MOL0     C 1733   0.978   1.071   8.037  0.3776  1.0250 -0.2894
  738MOL0     C 1734   1.005   0.929   8.076  0.0769  1.1644  0.2972
  738MOL0     C 1735   1.067   1.181   8.021  0.2968  0.4051  0.6688
  738MOL0     C 1736   1.210   1.174   8.049  0.0860 -0.8376  0.2764
  738MOL0     O 1737   1.284   1.258   7.973  0.5757 -0.7739  0.4913
  738MOL0     C 1738   1.421   1.265   7.998  0.7316 -0.3898 -0.3777
  738MOL0     C 1739   1.501   1.148   8.024  0.0680 -0.6449 -0.0418
  738MOL0     C 1740   1.642   1.167   8.046 -0.0456 -0.2328  0.1505
  738MOL0     C 1741   1.699   1.292   8.057  0.5726 -0.3081  0.7793
  738MOL0     O 1742   1.836   1.291   8.045  0.3669  0.1268  0.2049
  738MOL0     C 1743   1.900   1.381   7.957 -0.2353 -0.3860  0.8379
  738MOL0     C 1744   2.049   1.347   7.967  0.5884 -0.0790 -0.5944
  738MOL0     C 1745   2.094   1.210   7.911  0.4498  0.0529  0.4115
  738MOL0     C 1746   2.241   1.193   7.937  0.3242  0.9287 -0.7163
  738MOL0     C 1747   2.298   1.068   7.870  0.8709  0.2719  0.9941
  738MOL0     C 1748   2.445   1.047   7.892 -0.1615 -0.6248  0.0522
  738MOL0     C 1749   2.493   0.908   7.841 -0.0208  0.3106  0.0605
  738MOL0     C 1750   2.447   0.803   7.939  0.1984  0.3806  0.5089
  738MOL0    Cl 1751   2.562   0.659   7.914  0.0455 -0.1669  0.1866
  738MOL0     C 1752   1.618   1.406   8.035 -0.5881  0.2640 -1.3495
  738MOL0     C 1753   1.483   1.390   8.004 -0.4412  0.5070  0.8468
  738MOL0     O 1754   1.249   1.097   8.136 -0.6842 -0.2879 -0.2986
  738MOL0     C 1755   1.017   1.301   7.976  0.0759 -0.5279 -0.1089
  738MOL0     C 1756   0.881   1.318   7.951  0.6847 -0.9473 -0.5562
  738MOL0     N 1757   0.156   1.577   8.073 -0.4213 -0.5124 -0.0178
  738MOL0     N 1758   0.089   1.546   8.175 -0.8894 -0.3262 -0.6559
  738MOL0     C 1759  -0.022   0.609   8.651 -0.2956  0.2602 -1.4171
  738MOL0     C 1760  -0.083   0.506   8.587  0.2130 -0.1038 -0.6945
  738MOL0     C 1761  -0.137   0.090   8.424 -0.3776  0.6452  0.4694
  738MOL0     C 1762  -0.264   0.116   8.366 -0.4562 -0.0912  0.2581
  738MOL0     C 1763  -0.357   0.013   8.348 -0.1833 -0.0813 -0.0493
  738MOL0     C 1764  -0.330  -0.117   8.377  0.1026  0.4736  0.7379
  738MOL0     O 1765  -0.404  -0.227   8.343 -0.1224  0.3101 -0.5544
  738MOL0     C 1766  -0.550  -0.222   8.313 -0.9107 -0.2482  0.4782
  738MOL0     C 1767  -0.594  -0.329   8.208 -0.3360  0.1167  0.4810
  738MOL0     C 1768  -0.507  -0.324   8.077  0.0695 -0.1689  0.1768
  738MOL0     C 1769  -0.498  -0.188   8.009 -0.2113  0.1009 -0.0101
  738MOL0     C 1770  -0.627  -0.123   8.007  0.0141 -0.8694  0.3860
  738MOL0     C 1771  -0.730  -0.059   7.998  0.5232 -0.6525 -0.3342
  738MOL0     C 1772  -0.196  -0.147   8.412  0.2637 -0.1278 -0.3407
  738MOL0     C 1773  -0.107  -0.047   8.450 -0.7285  0.0152  0.1992
  738MOL0     C 1774   0.037  -0.088   8.506 -0.4693  0.1910 -0.3353
  738MOL0     H 1775   0.132   0.455   8.343  1.2302  0.5050  0.3262
  738MOL0     H 1776   0.272   0.615   8.476 -0.0072 -1.2857  0.4203
  738MOL0     H 1777   0.043   0.877   8.753 -1.2574  0.0459 -0.5187
  738MOL0     H 1778   0.068   0.878   8.573  1.1709  1.4730 -0.1299
  738MOL0     H 1779   0.304   0.939   8.742  0.2983  0.9294  1.2739
  738MOL0     H 1780   0.267   0.982   8.571  2.3722 -1.1254  0.4194
  738MOL0     H 1781   0.123   1.100   8.821  1.2096  2.3323  0.3872
  738MOL0     H 1782   0.270   1.169   8.749 -0.9239  2.1285 -0.1267
  738MOL0     H 1783  -0.000   1.102   8.600 -2.7512  0.5050  3.4677
  738MOL0     H 1784   0.031   1.255   8.667  0.7146 -1.2514 -0.3540
  738MOL0     H 1785   0.262   1.174   8.486  0.2657  0.4380  0.9347
  738MOL0     H 1786   0.204   1.331   8.534  1.5957 -0.6380 -0.9977
  738MOL0     H 1787   0.165   1.243   8.293 -2.5640  0.2949 -3.0656
  738MOL0     H 1788   0.059   1.119   8.363  0.4097 -0.0312  0.0826
  738MOL0     H 1789   0.008   1.405   8.427  2.3859 -2.8351  2.1211
  738MOL0     H 1790  -0.115   1.271   8.420 -0.7390  1.0096  0.4369
  738MOL0     H 1791  -0.129   1.295   8.191 -2.8191  3.3497 -1.8142
  738MOL0     H 1792  -0.136   1.459   8.258  0.7206 -0.7434  1.0594
  738MOL0     H 1793   0.068   1.263   8.017 -2.4009 -1.0360  1.2075
  738MOL0     H 1794   0.184   1.529   7.784 -1.7371  0.2953  1.6176
  738MOL0     H 1795   0.196   1.353   7.817  0.7801 -1.4771  3.5504
  738MOL0     H 1796   0.405   1.482   7.773  1.8572  1.4761  0.4161
  738MOL0     H 1797   0.410   1.556   7.928  0.2941 -0.8931  0.0222
  738MOL0     H 1798   0.400   1.320   8.036  1.7829 -3.0047  0.5665
  738MOL0     H 1799   0.391   1.252   7.869  0.8058  0.5757 -1.2262
  738MOL0     H 1800   0.627   1.368   7.829 -2.3468  0.1692 -0.9817
  738MOL0     H 1801   0.624   1.428   7.990  0.9057 -0.2287  0.0462
  738MOL0     H 1802   0.765   1.014   8.035  1.0716 -0.5961  0.3553
  738MOL0     H 1803   1.025   0.936   8.183  0.3748  0.7573  0.2715
  738MOL0     H 1804   1.095   0.900   8.021 -0.4752 -2.0760  0.8653
  738MOL0     H 1805   0.920   0.864   8.049  1.9169 -1.5283  0.5542
  738MOL0     H 1806   1.463   1.048   8.007 -1.6291  0.0916 -0.8308
  738MOL0     H 1807   1.703   1.077   8.052 -1.5842 -1.3624 -0.4764
  738MOL0     H 1808   1.866   1.381   7.853  0.0763  1.1683  0.7219
  738MOL0     H 1809   1.880   1.476   8.007  1.1324 -0.2305  1.1249
  738MOL0     H 1810   2.112   1.425   7.924 -0.1022 -0.3178 -2.0954
  738MOL0     H 1811   2.055   1.338   8.076 -2.0455  0.2009 -0.3594
  738MOL0     H 1812   2.069   1.203   7.804  2.5161  1.6933 -0.2398
  738MOL0     H 1813   2.037   1.126   7.954 -0.5566  0.8340  0.6475
  738MOL0     H 1814   2.266   1.176   8.042 -1.2212 -3.2249 -0.8273
  738MOL0     H 1815   2.293   1.282   7.902  0.9505  2.5396  3.6740
  738MOL0     H 1816   2.244   0.980   7.908  0.4143  0.7376  1.4344
  738MOL0     H 1817   2.280   1.080   7.763 -0.8693  0.2716  1.2610
  738MOL0     H 1818   2.465   1.049   8.000 -1.0850 -0.7652  0.2287
  738MOL0     H 1819   2.500   1.131   7.849 -0.3996 -0.6327 -0.2634
  738MOL0     H 1820   2.602   0.911   7.840 -0.0225  1.5291  0.8244
  738MOL0     H 1821   2.458   0.888   7.739  0.7297 -0.0107 -0.1363
  738MOL0     H 1822   2.352   0.774   7.894 -2.7692  4.0655  3.7392
  738MOL0     H 1823   2.438   0.843   8.040  3.0663 -1.0638  1.4550
  738MOL0     H 1824   1.668   1.502   8.043  1.2564 -0.6067 -1.8129
  738MOL0     H 1825   1.414   1.469   7.976  1.0810  1.0768 -1.7084
  738MOL0     H 1826   1.088   1.380   7.957  0.4673 -0.5245  1.2989
  738MOL0     H 1827   0.840   1.411   7.912  0.7581 -0.3109  0.8016
  738MOL0     H 1828  -0.081   0.675   8.713  1.0135 -1.1679  1.5409
  738MOL0     H 1829  -0.182   0.479   8.624  1.4569 -2.7362  1.0888
  738MOL0     H 1830  -0.295   0.215   8.333  1.5581  0.1536 -1.1136
  738MOL0     H 1831  -0.452   0.050   8.309 -0.2893  1.8566  1.8513
  738MOL0     H 1832  -0.604  -0.227   8.408 -1.3047 -0.1553  0.2594
  738MOL0     H 1833  -0.589  -0.135   8.260 -0.1454 -0.1464  0.0727
  738MOL0     H 1834  -0.700  -0.310   8.189 -0.4417  1.5200  2.2214
  738MOL0     H 1835  -0.600  -0.423   8.264  1.9122 -0.9910 -0.9848
  738MOL0     H 1836  -0.405  -0.344   8.113  0.4638  2.5344  0.7251
  738MOL0     H 1837  -0.522  -0.404   8.004  2.2350 -0.4673 -0.0124
  738MOL0     H 1838  -0.455  -0.193   7.908  0.7086 -1.7696  0.4270
  738MOL0     H 1839  -0.432  -0.133   8.077  3.2407 -2.0032 -1.3564
  738MOL0     H 1840  -0.823  -0.006   7.987 -0.6324 -2.6345 -0.5114
  738MOL0     H 1841  -0.161  -0.249   8.425 -0.1097 -0.1976  0.1693
  738MOL0     H 1842   0.113  -0.069   8.429 -1.4439  1.3027 -1.0462
  738MOL0     H 1843   0.063  -0.045   8.603  2.1945  0.6887 -1.1700
  738MOL0     H 1844   0.036  -0.196   8.524 -3.1828  0.4396  1.4619
  739MOL0     O 1845   1.965   2.645   3.966  0.4661  0.2682  0.0481
  739MOL0     C 1846   2.024   2.547   3.920  0.4235 -0.1799  0.6032
  739MOL0     O 1847   2.145   2.489   3.972  0.0349  0.7289 -0.3937
  739MOL0     C 1848   2.207   2.570   4.060 -0.2982  0.0839  0.3062
  739MOL0     C 1849   2.218   2.517   4.191  0.5873  0.8526 -0.9272
  739MOL0     C 1850   2.285   2.585   4.293  0.2594  0.5757 -0.9857
  739MOL0     C 1851   2.342   2.716   4.266 -0.7513  0.2129  0.2720
  739MOL0     O 1852   2.419   2.788   4.355  0.4915  0.1426  0.7132
  739MOL0     C 1853   2.444   2.741   4.486 -0.5021  0.7279  0.7968
  739MOL0     C 1854   2.532   2.837   4.552  0.1708  0.3525  0.0579
  739MOL0     C 1855   2.667   2.833   4.481  0.1421 -0.2805 -0.2492
  739MOL0     C 1856   2.776   2.868   4.591  0.2575  1.6861 -0.9944
  739MOL0     C 1857   2.906   2.898   4.516 -0.2321 -0.4150  0.8867
  739MOL0     C 1858   3.013   2.912   4.625  0.3736 -0.9906 -0.0450
  739MOL0     C 1859   3.150   2.957   4.575  0.0116 -0.0500  0.0376
  739MOL0     C 1860   3.222   2.835   4.510  0.4976 -0.1866  0.7734
  739MOL0     N 1861   3.363   2.856   4.485 -0.0919  0.0859  0.3084
  739MOL0     C 1862   3.444   2.747   4.452  0.9382 -0.7171  0.2224
  739MOL0     C 1863   3.565   2.800   4.444 -0.9127  0.6963 -0.9030
  739MOL0     C 1864   3.690   2.722   4.437 -0.1310 -0.0335  0.5939
  739MOL0     C 1865   3.714   2.648   4.306  0.0679  0.3552  0.0867
  739MOL0     C 1866   3.861   2.611   4.281  0.2257 -0.0547 -0.1246
  739MOL0     C 1867   3.874   2.525   4.153 -0.5518 -0.6686 -0.5358
  739MOL0     O 1868   4.007   2.482   4.126 -0.2767 -0.3178 -0.0739
  739MOL0     C 1869   4.102   2.573   4.084  0.3864  0.9297  0.2661
  739MOL0     C 1870   4.232   2.544   4.117  0.5566  0.4636 -0.8034
  739MOL0     C 1871   4.342   2.627   4.089  0.5232 -0.0092  0.1169
  739MOL0     C 1872   4.474   2.558   4.103  0.2600 -0.2639 -0.5457
  739MOL0     C 1873   4.317   2.748   4.018 -0.8905  0.6263 -1.0236
  739MOL0     C 1874   4.429   2.838   3.975 -1.1832 -0.0517 -0.2895
  739MOL0     O 1875   4.388   2.940   3.883  0.2301  0.2452  0.6299
  739MOL0     C 1876   4.475   3.039   3.841 -0.2818  0.7678  0.7825
  739MOL0     C 1877   4.561   3.113   3.922 -0.3359 -0.3484 -1.2355
  739MOL0     C 1878   4.636   3.222   3.882  0.0298  0.0026 -0.2737
  739MOL0     C 1879   4.637   3.249   3.744  0.3369 -0.3392  0.6240
  739MOL0     O 1880   4.700   3.368   3.708  0.5122  0.1613  0.5692
  739MOL0     C 1881   4.724   3.395   3.567 -0.1482 -0.7156 -0.3118
  739MOL0     C 1882   4.802   3.525   3.538  0.4944  0.3637 -0.5154
  739MOL0     C 1883   4.751   3.609   3.418 -0.2221 -0.0793 -0.0594
  739MOL0     C 1884   4.851   3.702   3.352 -0.5863  0.2188 -0.3217
  739MOL0     C 1885   4.783   3.806   3.250 -0.3245  0.2405  0.4579
  739MOL0     C 1886   4.900   3.903   3.196 -0.7081  0.2395  0.0500
  739MOL0     C 1887   4.846   3.977   3.069 -0.5303  0.7229 -0.2622
  739MOL0     C 1888   4.736   4.072   3.110 -0.9567 -0.3910  0.2431
  739MOL0    Cl 1889   4.795   4.206   3.185  0.2250  0.1714 -0.1012
  739MOL0     C 1890   4.562   3.174   3.655 -0.1932 -0.2656 -1.1171
  739MOL0     C 1891   4.474   3.069   3.700  0.0829  1.0883 -0.2260
  739MOL0     O 1892   4.543   2.825   4.022 -0.3919  0.3025 -0.2293
  739MOL0     C 1893   4.187   2.775   3.971 -0.2707  0.6613 -0.3191
  739MOL0     C 1894   4.082   2.695   4.007  0.1686 -0.3182 -0.8862
  739MOL0     N 1895   3.560   2.934   4.463 -0.0934 -0.5650 -0.1122
  739MOL0     N 1896   3.436   2.968   4.486 -0.4701  0.0349  0.1808
  739MOL0     C 1897   2.324   2.769   4.131 -0.8075  0.4505  0.1685
  739MOL0     C 1898   2.260   2.695   4.033  1.2608 -0.1004  0.4284
  739MOL0     C 1899   1.964   2.470   3.814 -0.0320  0.4048  0.1774
  739MOL0     C 1900   1.998   2.334   3.799  1.4993  0.2196  0.9165
  739MOL0     C 1901   1.947   2.260   3.690 -0.5822 -0.2891 -0.0019
  739MOL0     C 1902   1.871   2.307   3.592  0.0118 -0.5331  0.4138
  739MOL0     O 1903   1.828   2.242   3.482 -0.2251  0.3227  0.0800
  739MOL0     C 1904   1.892   2.124   3.428  0.3605 -0.1362  0.1178
  739MOL0     C 1905   1.809   2.006   3.471  0.7535 -0.1034  0.9589
  739MOL0     C 1906   1.664   2.001   3.406 -0.1567  0.2195  0.0999
  739MOL0     C 1907   1.578   1.898   3.489 -0.2962 -0.5648 -0.0289
  739MOL0     C 1908   1.452   1.870   3.420  0.2285  0.1932  0.6674
  739MOL0     C 1909   1.354   1.856   3.354  0.5975  1.0698  0.0494
  739MOL0     C 1910   1.851   2.443   3.603 -0.2974 -1.3844  0.6477
  739MOL0     C 1911   1.891   2.528   3.711  0.6472  0.3368  1.1037
  739MOL0     C 1912   1.874   2.677   3.686  0.0513  0.5110 -0.0334
  739MOL0     H 1913   2.173   2.419   4.201  4.3496 -0.7727  3.0473
  739MOL0     H 1914   2.294   2.534   4.389 -2.0808 -0.3625 -1.2119
  739MOL0     H 1915   2.497   2.646   4.475  0.0222  1.1850 -0.8407
  739MOL0     H 1916   2.355   2.724   4.548 -0.2964 -1.3393  0.5935
  739MOL0     H 1917   2.487   2.936   4.547 -2.5822 -0.8582 -2.1944
  739MOL0     H 1918   2.541   2.810   4.657 -0.2127 -1.4693 -0.3292
  739MOL0     H 1919   2.702   2.737   4.442 -0.7100 -0.2961 -1.0012
  739MOL0     H 1920   2.667   2.902   4.396 -0.8991 -1.2456 -1.0512
  739MOL0     H 1921   2.742   2.952   4.651 -0.0726  0.8965 -0.0496
  739MOL0     H 1922   2.773   2.777   4.652 -2.0728 -1.3994 -5.1344
  739MOL0     H 1923   2.904   2.987   4.453  1.5630  0.3645  1.8459
  739MOL0     H 1924   2.936   2.810   4.457  5.5144  0.6410  1.6124
  739MOL0     H 1925   2.985   2.991   4.696  0.1724 -1.0903 -0.0124
  739MOL0     H 1926   3.018   2.816   4.678 -2.7624 -0.0616  2.2406
  739MOL0     H 1927   3.212   3.002   4.654 -1.7192  0.4687  1.1735
  739MOL0     H 1928   3.127   3.030   4.497 -1.5153  0.0048  0.4975
  739MOL0     H 1929   3.206   2.746   4.572  0.0791  1.4191  3.1323
  739MOL0     H 1930   3.177   2.809   4.414  0.1762 -0.2770  0.9457
  739MOL0     H 1931   3.418   2.643   4.436  0.1018 -0.3684 -0.8375
  739MOL0     H 1932   3.678   2.652   4.521  0.8812 -0.0529  0.7277
  739MOL0     H 1933   3.772   2.793   4.447  0.5142  0.1984 -4.0393
  739MOL0     H 1934   3.641   2.567   4.299  0.5197 -0.0084 -0.5704
  739MOL0     H 1935   3.687   2.718   4.226  1.4186 -1.8766 -2.4901
  739MOL0     H 1936   3.914   2.705   4.265  0.4381 -0.4014 -1.6128
  739MOL0     H 1937   3.897   2.539   4.355 -1.2967 -1.7310 -0.9319
  739MOL0     H 1938   3.810   2.439   4.172 -1.7015 -0.0264 -1.4080
  739MOL0     H 1939   3.835   2.573   4.063 -0.1308  1.2519  0.2542
  739MOL0     H 1940   4.249   2.451   4.169  0.8482  1.8113  1.6855
  739MOL0     H 1941   4.529   2.560   4.008  0.5005  2.7020 -0.4368
  739MOL0     H 1942   4.471   2.450   4.123  1.2365 -0.4259 -1.1897
  739MOL0     H 1943   4.535   2.609   4.178  0.6731 -1.9811  0.3505
  739MOL0     H 1944   4.551   3.087   4.027  1.0550  1.4960 -0.5872
  739MOL0     H 1945   4.679   3.290   3.954  2.5331  0.6583 -2.2634
  739MOL0     H 1946   4.764   3.305   3.521  0.9260 -0.3351 -0.1601
  739MOL0     H 1947   4.629   3.411   3.516 -0.2544  2.0123  0.5882
  739MOL0     H 1948   4.778   3.599   3.616 -0.9256  1.2601 -1.7524
  739MOL0     H 1949   4.907   3.498   3.551  0.3117 -0.3415 -0.4523
  739MOL0     H 1950   4.656   3.659   3.439 -0.0073  0.1703  0.3257
  739MOL0     H 1951   4.723   3.538   3.339  1.1162 -0.7474  0.0408
  739MOL0     H 1952   4.933   3.649   3.303  0.5774  2.9119 -1.5110
  739MOL0     H 1953   4.908   3.761   3.424 -0.5443  0.8703 -0.8789
  739MOL0     H 1954   4.744   3.751   3.164  0.4734 -2.6709  1.8489
  739MOL0     H 1955   4.697   3.862   3.289 -0.8159  0.9414 -1.5047
  739MOL0     H 1956   4.984   3.843   3.161 -1.4993  0.2652 -2.0256
  739MOL0     H 1957   4.931   3.981   3.266  3.1810  1.3019 -2.5722
  739MOL0     H 1958   4.809   3.894   3.008  0.1831 -0.8233  1.3237
  739MOL0     H 1959   4.927   4.026   3.014  0.3453  1.0391  1.2317
  739MOL0     H 1960   4.663   4.027   3.178  0.5590 -0.0891  2.1552
  739MOL0     H 1961   4.684   4.114   3.024  0.7074  1.5301  0.0897
  739MOL0     H 1962   4.569   3.178   3.547 -2.9813 -1.8561 -1.4561
  739MOL0     H 1963   4.407   3.021   3.630  0.3046  1.1223 -0.4632
  739MOL0     H 1964   4.170   2.862   3.908 -1.1695  2.6796  2.5336
  739MOL0     H 1965   3.983   2.713   3.966 -0.5925  0.4673  1.1626
  739MOL0     H 1966   2.361   2.869   4.110 -0.2904  0.0118 -1.1165
  739MOL0     H 1967   2.236   2.737   3.935  2.7836  2.1323  0.9273
  739MOL0     H 1968   2.067   2.277   3.861  1.9051  0.6852  0.8927
  739MOL0     H 1969   1.968   2.154   3.681  0.3493 -0.4347  2.8489
  739MOL0     H 1970   1.894   2.115   3.319 -0.6599 -1.4904  0.1793
  739MOL0     H 1971   1.995   2.115   3.464  0.1831  1.5375  1.1527
  739MOL0     H 1972   1.806   2.007   3.580 -2.0139  1.8000  0.9730
  739MOL0     H 1973   1.881   1.931   3.436  0.1273 -0.4074  0.2984
  739MOL0     H 1974   1.611   2.096   3.396 -1.1738 -0.2786  0.6236
  739MOL0     H 1975   1.673   1.971   3.301 -0.7120 -0.1468  0.1517
  739MOL0     H 1976   1.568   1.944   3.588  1.9748 -0.8966  0.4109
  739MOL0     H 1977   1.639   1.807   3.492  1.5036  0.6209  1.3665
  739MOL0     H 1978   1.274   1.840   3.285  1.4826  0.3021 -0.8219
  739MOL0     H 1979   1.802   2.481   3.513  3.1535 -0.6187 -1.0894
  739MOL0     H 1980   1.806   2.677   3.600 -0.7638  0.2248  0.6059
  739MOL0     H 1981   1.840   2.737   3.771  0.2833  1.9194 -0.8907
  739MOL0     H 1982   1.969   2.710   3.644 -0.0092  1.5435  0.6137
  740MOL0     O 1983   3.027   7.329   7.519 -0.3890 -0.2351  0.1499
  740MOL0     C 1984   3.074   7.220   7.482 -0.0590  0.0208  0.5576
  740MOL0     O 1985   3.203   7.194   7.477 -0.2121  0.0502  0.6726
  740MOL0     C 1986   3.295   7.254   7.552 -0.4450 -0.2804 -0.4419
  740MOL0     C 1987   3.408   7.297   7.483 -0.6726 -0.1934  0.6001
  740MOL0     C 1988   3.517   7.363   7.560  0.1265  0.3649  0.0081
  740MOL0     C 1989   3.511   7.354   7.702  0.5973 -0.0178 -0.3955
  740MOL0     O 1990   3.622   7.397   7.776  0.2659  0.2596 -0.6945
  740MOL0     C 1991   3.641   7.370   7.916  0.4296 -0.3672  0.1672
  740MOL0     C 1992   3.771   7.431   7.975 -0.0505  0.1253  0.3527
  740MOL0     C 1993   3.895   7.386   7.886  1.4981  0.9464  0.5159
  740MOL0     C 1994   4.016   7.448   7.934  0.3327  0.0119 -0.4445
  740MOL0     C 1995   4.135   7.410   7.861 -0.2812  0.0953  0.2193
  740MOL0     C 1996   4.248   7.506   7.906  0.4361 -0.2198  0.2638
  740MOL0     C 1997   4.372   7.461   7.836  0.1137  0.2645 -0.0156
  740MOL0     C 1998   4.495   7.536   7.888  0.0967  0.1632  0.3635
  740MOL0     N 1999   4.617   7.486   7.835 -0.3411  0.6397  0.2666
  740MOL0     C 2000   4.731   7.452   7.908  0.4921  0.2883  0.4120
  740MOL0     C 2001   4.827   7.439   7.809  0.5770 -0.0408 -0.3071
  740MOL0     C 2002   4.971   7.408   7.831  0.3159 -0.1600 -0.9615
  740MOL0     C 2003   5.006   7.264   7.843  0.3131  0.6666 -0.1492
  740MOL0     C 2004   5.155   7.265   7.891  0.3659 -0.0205 -0.5638
  740MOL0     C 2005   5.238   7.349   7.797 -1.3273  0.2489  0.4043
  740MOL0     O 2006   5.380   7.310   7.806 -0.6152 -0.2365  0.0501
  740MOL0     C 2007   5.476   7.392   7.758 -0.7401  0.4733 -0.6344
  740MOL0     C 2008   5.446   7.504   7.675 -0.3068 -0.7684 -0.3849
  740MOL0     C 2009   5.552   7.578   7.619 -0.0694 -0.1467 -0.5816
  740MOL0     C 2010   5.521   7.682   7.525 -0.1163 -0.9250 -0.2892
  740MOL0     C 2011   5.686   7.552   7.651  0.8710  0.4022 -0.1927
  740MOL0     C 2012   5.808   7.632   7.618 -0.5696  0.6180  0.0219
  740MOL0     O 2013   5.927   7.573   7.670  0.1086 -0.9270  0.7382
  740MOL0     C 2014   6.041   7.635   7.622 -0.4661 -0.3624  0.4610
  740MOL0     C 2015   6.069   7.621   7.482  0.5504  0.1547 -0.0210
  740MOL0     C 2016   6.177   7.669   7.422  0.2551  0.1434  0.9965
  740MOL0     C 2017   6.266   7.745   7.499  0.4011 -0.2135 -0.3336
  740MOL0     O 2018   6.389   7.793   7.453 -0.5772  0.3856 -0.0820
  740MOL0     C 2019   6.394   7.825   7.309 -0.7453  0.1356 -0.9940
  740MOL0     C 2020   6.484   7.951   7.294 -0.1100 -0.3037 -0.1471
  740MOL0     C 2021   6.633   7.948   7.339  0.0892  0.3659  0.1272
  740MOL0     C 2022   6.706   7.828   7.282 -0.5776  0.0215 -0.1791
  740MOL0     C 2023   6.864   7.838   7.292 -0.4112 -0.1376 -0.1850
  740MOL0     C 2024   6.936   7.705   7.284  0.5454 -0.0605 -0.3532
  740MOL0     C 2025   6.953   7.648   7.428 -0.2269  0.8334  0.2867
  740MOL0     C 2026   7.050   7.530   7.432 -0.3088 -0.1046 -0.5439
  740MOL0    Cl 2027   7.215   7.568   7.391 -0.3983 -0.4321  0.1361
  740MOL0     C 2028   6.240   7.759   7.633  0.5542 -0.0187 -0.0219
  740MOL0     C 2029   6.130   7.695   7.698  0.6053  0.5568  0.3873
  740MOL0     O 2030   5.804   7.741   7.577 -0.0976 -0.6398  0.2329
  740MOL0     C 2031   5.719   7.426   7.721  0.6442 -0.5207 -0.5466
  740MOL0     C 2032   5.615   7.359   7.786  0.3875  0.1484 -0.3062
  740MOL0     N 2033   4.773   7.476   7.691  0.2004 -1.4388 -0.2272
  740MOL0     N 2034   4.650   7.489   7.704 -0.5185 -0.7790 -0.0886
  740MOL0     C 2035   3.390   7.309   7.762 -0.4031  0.1065  0.2612
  740MOL0     C 2036   3.275   7.272   7.684 -0.1566 -0.3784 -0.0155
  740MOL0     C 2037   2.981   7.110   7.425  0.2518  0.4067 -0.4345
  740MOL0     C 2038   3.029   6.973   7.417 -0.9130  0.2886 -1.1143
  740MOL0     C 2039   2.956   6.877   7.333 -0.6425  0.2988 -0.2228
  740MOL0     C 2040   2.831   6.899   7.281  0.2014 -0.0921  0.3396
  740MOL0     O 2041   2.754   6.815   7.207  0.2075 -0.2016 -0.6057
  740MOL0     C 2042   2.797   6.677   7.195 -0.0518 -0.3322 -0.4115
  740MOL0     C 2043   2.679   6.592   7.141  0.3947 -0.6970 -0.2689
  740MOL0     C 2044   2.544   6.598   7.224  0.0545 -0.3973 -0.3460
  740MOL0     C 2045   2.562   6.620   7.369  0.3142  0.2819 -0.6712
  740MOL0     C 2046   2.437   6.590   7.431  0.2232  0.1538 -0.5340
  740MOL0     C 2047   2.330   6.580   7.491 -0.3372  0.2105  0.3079
  740MOL0     C 2048   2.781   7.029   7.297 -0.2902  0.1188  0.5075
  740MOL0     C 2049   2.852   7.137   7.352  0.1894  0.8522 -0.1805
  740MOL0     C 2050   2.780   7.268   7.358  0.7587 -0.4325 -0.0155
  740MOL0     H 2051   3.425   7.285   7.377  0.0748  0.5124  0.6277
  740MOL0     H 2052   3.607   7.388   7.505 -0.8263 -1.4772 -2.5328
  740MOL0     H 2053   3.635   7.261   7.925  0.8787 -0.7397 -2.9059
  740MOL0     H 2054   3.554   7.414   7.967  0.4146  0.4826 -0.5702
  740MOL0     H 2055   3.771   7.540   7.976  0.0574  0.1492 -0.9943
  740MOL0     H 2056   3.783   7.399   8.079  1.2989  2.1548  0.8712
  740MOL0     H 2057   3.894   7.277   7.887 -0.7433  0.8832 -1.3015
  740MOL0     H 2058   3.885   7.423   7.784 -0.6270  0.5377  0.5462
  740MOL0     H 2059   4.001   7.557   7.933  0.0765 -0.0116 -2.0589
  740MOL0     H 2060   4.030   7.413   8.037 -3.4030 -0.9173 -0.0875
  740MOL0     H 2061   4.121   7.411   7.752 -0.2763  1.5121  0.2114
  740MOL0     H 2062   4.161   7.308   7.892 -3.5273 -1.6765 -2.1935
  740MOL0     H 2063   4.227   7.609   7.876 -3.2987 -1.2568 -1.2605
  740MOL0     H 2064   4.272   7.497   8.012  0.9575  1.2006  0.2882
  740MOL0     H 2065   4.368   7.476   7.728  0.9458 -2.3145 -0.4751
  740MOL0     H 2066   4.387   7.353   7.845  0.5585  0.3719  0.6400
  740MOL0     H 2067   4.495   7.638   7.847 -0.2341  0.0661  0.1167
  740MOL0     H 2068   4.499   7.527   7.997 -0.0366  2.0658  0.5735
  740MOL0     H 2069   4.735   7.426   8.014 -2.2048  0.8190  0.7173
  740MOL0     H 2070   5.002   7.466   7.919 -0.8802 -2.2794  0.9770
  740MOL0     H 2071   5.027   7.450   7.747  2.8176  2.4002  1.7299
  740MOL0     H 2072   4.943   7.207   7.911  0.9329 -1.2923 -1.1381
  740MOL0     H 2073   4.994   7.214   7.746  0.4164  1.0948 -0.3869
  740MOL0     H 2074   5.173   7.298   7.994 -1.4808 -0.5592 -0.0372
  740MOL0     H 2075   5.199   7.165   7.892  1.4567  0.4360 -1.3061
  740MOL0     H 2076   5.209   7.330   7.693 -3.0167  2.3810  0.3942
  740MOL0     H 2077   5.232   7.456   7.820  0.4567  0.8767 -1.6690
  740MOL0     H 2078   5.344   7.536   7.655  0.0290  1.3854  1.0051
  740MOL0     H 2079   5.419   7.704   7.493  0.4243  2.1109 -0.2256
  740MOL0     H 2080   5.584   7.659   7.438  1.4350 -1.2335  0.8622
  740MOL0     H 2081   5.553   7.780   7.563 -3.0204 -0.9550  2.7793
  740MOL0     H 2082   5.991   7.570   7.426  2.1441  0.9434 -3.1492
  740MOL0     H 2083   6.197   7.650   7.317 -0.3507 -1.5332  1.1514
  740MOL0     H 2084   6.439   7.742   7.254  0.7670 -0.1544  0.6001
  740MOL0     H 2085   6.290   7.839   7.276 -1.4026 -1.6215  0.1711
  740MOL0     H 2086   6.480   7.987   7.191  2.7166 -1.4519 -0.7549
  740MOL0     H 2087   6.444   8.033   7.354  0.4452  0.2471 -0.5112
  740MOL0     H 2088   6.624   7.942   7.448 -1.4020  0.8803  0.0578
  740MOL0     H 2089   6.691   8.038   7.316  0.9331 -0.4681 -1.0986
  740MOL0     H 2090   6.680   7.820   7.176  1.2373  1.8489 -0.8229
  740MOL0     H 2091   6.660   7.738   7.324 -3.8143 -0.1250 -3.5727
  740MOL0     H 2092   6.882   7.905   7.208  1.6821  1.9427  1.7964
  740MOL0     H 2093   6.891   7.888   7.385 -2.2560 -0.4135  0.5509
  740MOL0     H 2094   7.037   7.715   7.244  0.1746  1.6965 -0.9430
  740MOL0     H 2095   6.868   7.636   7.233 -1.0099  2.0486 -1.2682
  740MOL0     H 2096   6.857   7.609   7.462  0.0014 -3.3445 -2.9907
  740MOL0     H 2097   6.985   7.724   7.501 -0.6719  1.1759  0.1267
  740MOL0     H 2098   7.011   7.463   7.354  1.9852  0.3872 -2.2120
  740MOL0     H 2099   7.039   7.474   7.525 -2.0738 -1.1843 -1.3334
  740MOL0     H 2100   6.302   7.823   7.695  3.3892  0.8516 -3.4342
  740MOL0     H 2101   6.118   7.688   7.805 -1.5903 -2.4007  0.0849
  740MOL0     H 2102   5.816   7.385   7.746  0.8392  0.0692 -0.3074
  740MOL0     H 2103   5.640   7.273   7.847  1.4621  1.0524  0.5710
  740MOL0     H 2104   3.373   7.310   7.870 -2.1154  1.2770  0.0217
  740MOL0     H 2105   3.187   7.262   7.746 -1.7740  2.3700 -1.6317
  740MOL0     H 2106   3.133   6.946   7.434 -0.7446  1.0706 -0.8561
  740MOL0     H 2107   3.015   6.789   7.307  2.1092  1.1722  2.4638
  740MOL0     H 2108   2.887   6.660   7.135  0.2184 -0.5563  0.0488
  740MOL0     H 2109   2.836   6.642   7.291  0.2716 -0.3303 -0.5395
  740MOL0     H 2110   2.718   6.490   7.144  0.9933 -0.4808  2.6925
  740MOL0     H 2111   2.657   6.613   7.036  1.9348 -0.9750 -0.6659
  740MOL0     H 2112   2.477   6.676   7.187 -3.5250 -3.5676 -1.0900
  740MOL0     H 2113   2.485   6.507   7.218 -2.1663  0.5276  3.6738
  740MOL0     H 2114   2.589   6.726   7.376  0.9719  0.1182 -0.7256
  740MOL0     H 2115   2.635   6.549   7.408 -0.5284  0.1445  0.7612
  740MOL0     H 2116   2.233   6.564   7.533 -0.4509  1.8018  0.7097
  740MOL0     H 2117   2.681   7.034   7.255  0.0007 -0.1113 -0.2355
  740MOL0     H 2118   2.724   7.279   7.452  0.7993  0.0793 -0.0487
  740MOL0     H 2119   2.848   7.352   7.341 -0.5286  0.2697 -2.0691
  740MOL0     H 2120   2.705   7.291   7.282  0.6571  0.5898  0.3845
  741MOL0     O 2121  10.885   8.027   7.579 -0.1312  0.3208 -0.9455
  741MOL0     C 2122  10.936   7.913   7.582  0.2499 -0.5571 -0.2033
  741MOL0     O 2123  11.058   7.884   7.555 -0.2712 -0.2869 -0.0774
  741MOL0     C 2124  11.150   7.979   7.513  0.0762  0.7940  0.4746
  741MOL0     C 2125  11.115   8.091   7.422 -0.6433  0.7287 -0.8077
  741MOL0     C 2126  11.220   8.162   7.369 -0.1402 -0.4063 -0.0914
  741MOL0     C 2127  11.355   8.141   7.401 -0.5900 -0.2788 -0.7016
  741MOL0     O 2128  11.449   8.216   7.335 -0.6684 -0.2211 -0.3720
  741MOL0     C 2129  11.573   8.150   7.307  0.2504  0.5787  0.5057
  741MOL0     C 2130  11.670   8.237   7.247 -0.2596  0.8074 -0.1081
  741MOL0     C 2131  11.797   8.175   7.185 -0.1655  0.4435  1.0573
  741MOL0     C 2132  11.862   8.268   7.089 -0.4168 -0.0328 -0.6882
  741MOL0     C 2133  11.975   8.196   7.019  0.0031  1.0159 -0.3929
  741MOL0     C 2134  12.056   8.296   6.945  0.2713 -0.8885 -0.5122
  741MOL0     C 2135  12.187   8.230   6.892  0.1958 -0.9311 -0.3082
  741MOL0     C 2136  12.280   8.317   6.801  0.6668 -0.2243  0.6699
  741MOL0     N 2137  12.205   8.333   6.675  0.9007 -0.1082 -0.2434
  741MOL0     C 2138  12.227   8.255   6.563 -0.1728  0.8006  0.3055
  741MOL0     C 2139  12.156   8.305   6.461 -0.9009  0.4217  0.3918
  741MOL0     C 2140  12.140   8.248   6.316  0.9072 -0.3251  0.0747
  741MOL0     C 2141  12.067   8.113   6.315  0.4882  0.0606 -0.6403
  741MOL0     C 2142  11.929   8.109   6.392 -1.0881  0.8554  0.2862
  741MOL0     C 2143  11.851   7.981   6.362 -0.5948 -0.2150 -0.6749
  741MOL0     O 2144  11.929   7.869   6.395 -0.1811 -0.1141  0.3652
  741MOL0     C 2145  11.891   7.740   6.373 -0.7010  0.3741  0.7605
  741MOL0     C 2146  11.793   7.705   6.278 -0.6189  0.4854  0.3478
  741MOL0     C 2147  11.768   7.567   6.245 -0.1901 -0.1588  1.0477
  741MOL0     C 2148  11.643   7.546   6.161  0.0265 -0.7673  0.1292
  741MOL0     C 2149  11.853   7.469   6.294  0.1689 -0.0233 -0.7828
  741MOL0     C 2150  11.834   7.330   6.258  0.6211 -0.1166 -0.0320
  741MOL0     O 2151  11.940   7.246   6.272  0.7685 -0.0864  0.1762
  741MOL0     C 2152  11.915   7.120   6.236  0.2924 -0.2419 -0.0003
  741MOL0     C 2153  11.935   7.073   6.112 -0.4135 -0.6783  0.1074
  741MOL0     C 2154  11.932   6.931   6.089  0.2535  0.0364  0.9157
  741MOL0     C 2155  11.897   6.850   6.201  0.6115 -0.1364 -0.3655
  741MOL0     O 2156  11.890   6.714   6.210  0.3469  0.0581 -0.0702
  741MOL0     C 2157  11.898   6.636   6.091 -0.6560 -0.2127 -0.2005
  741MOL0     C 2158  11.886   6.491   6.125 -0.1587  0.7548 -0.1125
  741MOL0     C 2159  11.756   6.466   6.201 -0.2350  0.2658 -0.3544
  741MOL0     C 2160  11.693   6.324   6.187  0.7383  0.6588 -0.1525
  741MOL0     C 2161  11.630   6.305   6.051  0.0665  0.9580  0.8542
  741MOL0     C 2162  11.578   6.167   6.032  0.0696 -0.3129  0.5022
  741MOL0     C 2163  11.483   6.162   5.910 -1.1025  0.6006 -0.7315
  741MOL0     C 2164  11.425   6.018   5.912  0.5489  0.0184 -0.7350
  741MOL0    Cl 2165  11.548   5.891   5.881  0.5533 -0.0425 -0.1062
  741MOL0     C 2166  11.863   6.912   6.323  0.0498 -0.7938 -0.0052
  741MOL0     C 2167  11.888   7.043   6.347  0.0092 -1.3864  0.3356
  741MOL0     O 2168  11.722   7.292   6.215  0.0791  0.3508  0.4454
  741MOL0     C 2169  11.955   7.510   6.380  0.1511  0.5415  0.3902
  741MOL0     C 2170  11.967   7.633   6.419 -0.1990 -0.6276 -0.5734
  741MOL0     N 2171  12.086   8.411   6.510 -0.4928 -0.2411 -0.5021
  741MOL0     N 2172  12.112   8.431   6.637  0.1291  1.2142 -0.0982
  741MOL0     C 2173  11.389   8.034   7.489  0.3421  0.5452  0.2349
  741MOL0     C 2174  11.287   7.960   7.546 -0.3052 -0.2186  0.5015
  741MOL0     C 2175  10.850   7.796   7.628 -0.2991  0.5265 -0.4902
  741MOL0     C 2176  10.909   7.671   7.649 -0.0822 -1.0529 -0.4483
  741MOL0     C 2177  10.841   7.556   7.681  0.0980 -0.1008  0.4681
  741MOL0     C 2178  10.704   7.556   7.679  0.9389 -0.2803  0.6478
  741MOL0     O 2179  10.638   7.445   7.713 -1.1392  0.2976  0.0577
  741MOL0     C 2180  10.520   7.406   7.650  0.2279  0.3082  0.5879
  741MOL0     C 2181  10.496   7.269   7.711 -0.1110 -0.0018 -0.2013
  741MOL0     C 2182  10.346   7.228   7.696  0.6913  1.0573  0.3397
  741MOL0     C 2183  10.342   7.081   7.718 -0.0645 -0.4620 -0.1868
  741MOL0     C 2184  10.220   7.021   7.654 -0.8080  0.5001 -0.0259
  741MOL0     C 2185  10.117   6.993   7.592 -0.8343 -0.1179 -0.4959
  741MOL0     C 2186  10.628   7.681   7.659  0.4758 -0.0908 -0.3868
  741MOL0     C 2187  10.707   7.799   7.644 -0.2518  0.0056  1.0739
  741MOL0     C 2188  10.624   7.918   7.625 -0.8004  0.4895  0.0678
  741MOL0     H 2189  11.011   8.109   7.397 -1.0013 -0.7520 -0.5067
  741MOL0     H 2190  11.205   8.243   7.298  5.5187 -0.0412 -1.3868
  741MOL0     H 2191  11.540   8.077   7.232  0.4782 -1.1072  1.9794
  741MOL0     H 2192  11.628   8.095   7.384  1.3217 -1.0658 -1.3170
  741MOL0     H 2193  11.622   8.297   7.168  0.3118  3.0715  1.1702
  741MOL0     H 2194  11.704   8.311   7.320  0.8709  1.3464 -1.1228
  741MOL0     H 2195  11.862   8.153   7.270  0.2179 -2.4564  0.1251
  741MOL0     H 2196  11.767   8.079   7.143 -1.1034 -0.0990  2.8862
  741MOL0     H 2197  11.792   8.306   7.014  1.2710  4.0000 -0.4633
  741MOL0     H 2198  11.894   8.355   7.147 -1.5509  0.0757 -0.1984
  741MOL0     H 2199  11.946   8.119   6.947  0.7769 -3.3230  3.4704
  741MOL0     H 2200  12.037   8.146   7.094 -0.5090  2.4026  1.0144
  741MOL0     H 2201  11.991   8.334   6.866 -0.4226 -0.3640  0.2949
  741MOL0     H 2202  12.079   8.382   7.009  2.3419 -1.9000  0.2070
  741MOL0     H 2203  12.161   8.138   6.838 -1.1768  1.6002 -4.4303
  741MOL0     H 2204  12.249   8.213   6.980 -1.0170  1.7146  1.1699
  741MOL0     H 2205  12.303   8.415   6.843 -0.0817  0.5329 -0.6179
  741MOL0     H 2206  12.363   8.250   6.776  1.5668  1.4597 -1.1222
  741MOL0     H 2207  12.290   8.167   6.552  0.6677  1.1813  1.8061
  741MOL0     H 2208  12.237   8.238   6.266 -0.7411 -2.8276 -2.9907
  741MOL0     H 2209  12.081   8.318   6.257  0.0093 -1.2682 -0.1886
  741MOL0     H 2210  12.040   8.083   6.213 -1.4981 -0.0225 -0.1447
  741MOL0     H 2211  12.134   8.034   6.352  0.9367  0.8243  0.2148
  741MOL0     H 2212  11.938   8.113   6.501 -2.8671  2.7119  0.4232
  741MOL0     H 2213  11.865   8.192   6.362 -1.3125  1.5628  2.5635
  741MOL0     H 2214  11.754   7.979   6.413  1.0087  1.4730  2.7605
  741MOL0     H 2215  11.845   7.978   6.253  1.0822 -1.1960 -0.7756
  741MOL0     H 2216  11.737   7.790   6.241 -1.9454 -0.5788 -0.1337
  741MOL0     H 2217  11.615   7.642   6.117  2.8894 -0.3370 -0.9509
  741MOL0     H 2218  11.568   7.512   6.233  1.2758 -0.7613  1.4951
  741MOL0     H 2219  11.642   7.470   6.083  2.3625 -2.2455  1.4103
  741MOL0     H 2220  11.975   7.136   6.032  2.8497  0.3530  2.3202
  741MOL0     H 2221  11.956   6.890   5.991 -0.6672 -0.7558  1.0083
  741MOL0     H 2222  11.813   6.655   6.025  1.3649 -1.9519 -3.5424
  741MOL0     H 2223  11.988   6.656   6.033 -1.9370 -1.2785 -2.6917
  741MOL0     H 2224  11.897   6.432   6.034  1.9186 -0.9129  1.1133
  741MOL0     H 2225  11.968   6.457   6.190 -0.7620 -0.7727 -0.1183
  741MOL0     H 2226  11.677   6.535   6.169 -0.7212 -1.6859 -3.9367
  741MOL0     H 2227  11.779   6.488   6.306  0.5139 -3.1345  0.3182
  741MOL0     H 2228  11.620   6.304   6.266  0.3201  0.0893 -0.6734
  741MOL0     H 2229  11.766   6.247   6.214 -0.0334 -0.6486 -1.6360
  741MOL0     H 2230  11.547   6.376   6.050 -0.0842  0.7914  1.3903
  741MOL0     H 2231  11.704   6.324   5.972  0.0962  0.5274  0.7751
  741MOL0     H 2232  11.519   6.144   6.121 -0.1229 -1.5020  0.0894
  741MOL0     H 2233  11.656   6.092   6.016 -0.5788 -0.9017  0.0429
  741MOL0     H 2234  11.553   6.174   5.827  1.7975 -3.0054  0.9190
  741MOL0     H 2235  11.414   6.247   5.921 -0.8563  0.8390 -0.9938
  741MOL0     H 2236  11.339   6.008   5.844 -1.9200  1.1671  1.9723
  741MOL0     H 2237  11.375   6.001   6.008 -1.0762 -1.8595 -1.8249
  741MOL0     H 2238  11.834   6.848   6.405  1.2202 -2.0666 -0.5400
  741MOL0     H 2239  11.871   7.076   6.449 -3.1177 -4.3243  0.9339
  741MOL0     H 2240  12.028   7.441   6.418 -0.7049 -1.2941 -1.1160
  741MOL0     H 2241  12.050   7.665   6.481 -1.2554  1.8058 -0.2995
  741MOL0     H 2242  11.493   8.023   7.518  1.1486  3.1211 -1.2826
  741MOL0     H 2243  11.302   7.880   7.618 -0.3364 -1.7341 -1.0919
  741MOL0     H 2244  11.017   7.663   7.640  0.4420  3.7035 -0.6698
  741MOL0     H 2245  10.907   7.470   7.679  1.1466  0.6183 -2.7840
  741MOL0     H 2246  10.433   7.466   7.677  0.6727  0.8101  0.9159
  741MOL0     H 2247  10.542   7.404   7.543  1.2456  0.9752  0.7737
  741MOL0     H 2248  10.512   7.277   7.819 -3.4347 -0.6981  0.4454
  741MOL0     H 2249  10.565   7.197   7.667 -0.4921 -1.1840  1.0548
  741MOL0     H 2250  10.286   7.271   7.776 -0.8221 -0.5786  0.1546
  741MOL0     H 2251  10.299   7.250   7.599  0.6050  2.0459  0.6037
  741MOL0     H 2252  10.351   7.060   7.825 -0.2701 -0.8823 -0.2469
  741MOL0     H 2253  10.423   7.045   7.654  0.4881  2.8887 -1.5507
  741MOL0     H 2254  10.033   6.963   7.533 -1.2109 -1.6451  0.7242
  741MOL0     H 2255  10.520   7.684   7.651  0.3668  3.7743  0.3987
  741MOL0     H 2256  10.640   7.968   7.529 -0.3031 -0.8920 -0.6026
  741MOL0     H 2257  10.518   7.911   7.650 -1.0193  2.1268 -0.3154
  741MOL0     H 2258  10.666   7.983   7.702  2.6787 -0.3495 -0.9625
  742MOL0     O 2259   3.794  11.309   8.932 -0.5360 -0.0080  0.5011
  742MOL0     C 2260   3.759  11.215   9.006 -0.1278 -0.1382 -0.1769
  742MOL0     O 2261   3.834  11.111   9.048  0.3124  0.3492  0.4603
  742MOL0     C 2262   3.971  11.107   9.023 -0.3644  0.0796 -0.0233
  742MOL0     C 2263   4.047  11.140   8.908  0.6152 -0.2726 -0.2091
  742MOL0     C 2264   4.178  11.110   8.900 -0.5753  0.2679 -0.0896
  742MOL0     C 2265   4.249  11.048   8.997 -0.2485  0.3206 -0.0090
  742MOL0     O 2266   4.383  11.014   8.991 -0.1755  0.3427 -0.2837
  742MOL0     C 2267   4.417  10.882   9.049  0.0289 -0.4903 -0.6185
  742MOL0     C 2268   4.567  10.840   9.004 -0.4527 -0.0474 -0.2898
  742MOL0     C 2269   4.646  10.756   9.103 -0.1250  0.0286  0.6922
  742MOL0     C 2270   4.694  10.839   9.218  0.1069 -0.2732 -0.3068
  742MOL0     C 2271   4.799  10.773   9.304 -0.4218  0.2270  0.6373
  742MOL0     C 2272   4.934  10.738   9.246  0.3201  0.7358 -0.3296
  742MOL0     C 2273   5.014  10.843   9.151  0.6462  0.0845  0.3730
  742MOL0     C 2274   5.065  10.968   9.233  0.0659 -0.5835  1.1835
  742MOL0     N 2275   5.172  10.934   9.325 -0.6561  1.1871 -0.2914
  742MOL0     C 2276   5.175  10.955   9.457  0.3137  1.2379 -0.3820
  742MOL0     C 2277   5.288  10.886   9.491 -0.3154 -0.0428 -0.0503
  742MOL0     C 2278   5.361  10.884   9.624  0.8699  0.3510  0.3957
  742MOL0     C 2279   5.348  11.018   9.690  0.7953 -0.4253  0.3852
  742MOL0     C 2280   5.412  11.046   9.824  0.2097  0.1254  0.3425
  742MOL0     C 2281   5.565  11.046   9.828 -0.4288  0.6566  0.1968
  742MOL0     O 2282   5.615  11.131   9.934  0.3273 -0.1615  0.5025
  742MOL0     C 2283   5.749  11.103   9.968  0.5508 -0.0286  0.8449
  742MOL0     C 2284   5.823  10.995   9.920 -0.4467 -0.6411 -1.0156
  742MOL0     C 2285   5.961  10.986   9.953 -0.8461  0.4085  0.7992
  742MOL0     C 2286   6.032  10.869   9.892 -0.1621 -0.4988 -0.2729
  742MOL0     C 2287   6.021  11.074  10.044  0.5095 -0.1417 -0.4831
  742MOL0     C 2288   6.168  11.060  10.094 -0.0449 -0.3636 -0.6618
  742MOL0     O 2289   6.235  10.944  10.056  0.3526 -0.6011 -0.6127
  742MOL0     C 2290   6.372  10.932  10.078  0.4207 -0.5602 -0.4088
  742MOL0     C 2291   6.455  10.925   9.963  0.5230  0.1425 -0.2383
  742MOL0     C 2292   6.596  10.918   9.972 -0.1818  1.2644  0.4457
  742MOL0     C 2293   6.658  10.935  10.095  0.5023 -0.0356 -0.1847
  742MOL0     O 2294   6.791  10.924  10.101 -0.3901  1.1165  0.2958
  742MOL0     C 2295   6.872  10.994  10.199  0.8753 -0.2090  0.5339
  742MOL0     C 2296   7.006  10.934  10.163 -0.7602  0.4872  0.0977
  742MOL0     C 2297   7.128  11.039  10.174  1.1713 -0.1477 -0.0923
  742MOL0     C 2298   7.121  11.149  10.067 -0.2619 -0.3093 -0.5206
  742MOL0     C 2299   7.254  11.217  10.036 -0.1143 -0.7293 -0.0836
  742MOL0     C 2300   7.254  11.326   9.934  0.1638  0.0619 -0.7056
  742MOL0     C 2301   7.394  11.391   9.923  0.9161 -0.5976  0.3177
  742MOL0     C 2302   7.379  11.533   9.864  0.8010 -0.2613  0.9333
  742MOL0    Cl 2303   7.258  11.525   9.732 -0.1064 -0.3732 -0.1624
  742MOL0     C 2304   6.574  10.951  10.209  0.2476 -0.2748 -0.1094
  742MOL0     C 2305   6.432  10.940  10.200  0.2149  0.7967 -0.9006
  742MOL0     O 2306   6.214  11.154  10.156  0.1215 -0.1310  0.4576
  742MOL0     C 2307   5.938  11.184  10.087 -1.1109  0.9175  0.0883
  742MOL0     C 2308   5.805  11.197  10.060 -0.1966 -0.2665 -0.2512
  742MOL0     N 2309   5.360  10.848   9.380  0.4901  0.0733 -0.0463
  742MOL0     N 2310   5.290  10.882   9.273  0.6322 -0.3773  0.0678
  742MOL0     C 2311   4.180  11.011   9.109  0.1346 -0.6808  0.3833
  742MOL0     C 2312   4.040  11.047   9.121 -0.4915 -0.8044 -0.6703
  742MOL0     C 2313   3.602  11.201   9.009 -0.2157  0.2142 -0.0364
  742MOL0     C 2314   3.525  11.314   8.970  0.0282 -1.1373 -0.9590
  742MOL0     C 2315   3.389  11.314   8.978  0.0588 -0.2735  0.0735
  742MOL0     C 2316   3.323  11.203   9.030  0.1119  0.0633 -0.1402
  742MOL0     O 2317   3.189  11.206   9.068  0.5710 -0.4127 -0.0289
  742MOL0     C 2318   3.115  11.329   9.064 -0.7183 -0.1746  0.4929
  742MOL0     C 2319   2.965  11.297   9.064 -0.6285 -0.3851  0.7853
  742MOL0     C 2320   2.887  11.434   9.085 -0.0029 -0.7701 -0.1820
  742MOL0     C 2321   2.745  11.401   9.122 -0.7163 -0.1439  0.2264
  742MOL0     C 2322   2.674  11.338   9.007  0.5573  0.3797  0.3599
  742MOL0     C 2323   2.612  11.288   8.915 -0.2252 -0.6220  0.0120
  742MOL0     C 2324   3.398  11.096   9.072  0.1144 -0.3227 -0.7922
  742MOL0     C 2325   3.535  11.083   9.063  0.4379  0.1528  1.1954
  742MOL0     C 2326   3.594  10.956   9.111  0.6454  1.2375  0.5020
  742MOL0     H 2327   3.992  11.174   8.821 -0.6074  0.9331  0.9951
  742MOL0     H 2328   4.236  11.128   8.810  1.5446 -1.0245  0.9388
  742MOL0     H 2329   4.347  10.805   9.014 -0.2297 -1.3270  1.6005
  742MOL0     H 2330   4.400  10.879   9.157  1.3869  0.5544 -0.3577
  742MOL0     H 2331   4.548  10.789   8.909  1.5088  0.9878 -1.2997
  742MOL0     H 2332   4.632  10.927   8.988 -0.8591  0.5878  1.4056
  742MOL0     H 2333   4.595  10.670   9.149 -4.7236  2.6978  1.1910
  742MOL0     H 2334   4.732  10.722   9.045 -1.0851 -0.5745 -0.4175
  742MOL0     H 2335   4.736  10.933   9.180  0.6466 -0.4123 -0.0559
  742MOL0     H 2336   4.609  10.868   9.281  0.3391 -3.5827  1.7196
  742MOL0     H 2337   4.765  10.675   9.339  2.3301 -1.0923 -0.1184
  742MOL0     H 2338   4.828  10.835   9.389  0.3264 -0.5420  0.9546
  742MOL0     H 2339   4.994  10.720   9.335 -0.0159 -0.6138 -0.3489
  742MOL0     H 2340   4.927  10.641   9.194 -1.3419  1.2247 -1.0739
  742MOL0     H 2341   4.964  10.871   9.058  3.3602  3.5660 -0.2334
  742MOL0     H 2342   5.098  10.786   9.111 -0.6730 -0.4167 -1.8064
  742MOL0     H 2343   5.104  11.033   9.154  0.5238  1.5659  3.0813
  742MOL0     H 2344   4.979  11.013   9.283 -2.1395 -2.3551 -0.7723
  742MOL0     H 2345   5.108  10.997   9.531 -2.8243 -3.2745 -0.2870
  742MOL0     H 2346   5.466  10.855   9.612  0.8913  0.4217  0.4135
  742MOL0     H 2347   5.310  10.805   9.680  0.2015  0.9461  0.6442
  742MOL0     H 2348   5.375  11.098   9.620 -0.2757 -1.0657 -0.8208
  742MOL0     H 2349   5.240  11.029   9.695  0.4773 -2.8143 -0.1169
  742MOL0     H 2350   5.386  11.146   9.861 -1.0139  0.0246 -0.1845
  742MOL0     H 2351   5.370  10.975   9.896  1.1002 -1.5960 -0.8000
  742MOL0     H 2352   5.589  10.940   9.840  1.7208  1.0394 -0.1539
  742MOL0     H 2353   5.598  11.081   9.729  0.4348 -2.4269 -0.7009
  742MOL0     H 2354   5.778  10.920   9.856  1.6983 -3.0432  0.0810
  742MOL0     H 2355   6.134  10.899   9.867 -0.4961  0.0143 -1.0652
  742MOL0     H 2356   5.978  10.834   9.803  0.3111 -0.5144 -0.5597
  742MOL0     H 2357   6.034  10.781   9.958  3.1268 -0.7790 -0.5804
  742MOL0     H 2358   6.401  10.928   9.869 -3.3377 -0.3934  1.7928
  742MOL0     H 2359   6.662  10.899   9.888  0.5626  3.1979  0.5300
  742MOL0     H 2360   6.864  11.099  10.172  2.9451 -0.4006 -1.0147
  742MOL0     H 2361   6.848  10.970  10.303 -0.3455  0.7129  0.4903
  742MOL0     H 2362   7.018  10.846  10.226  0.6374  0.6167  0.0467
  742MOL0     H 2363   7.005  10.896  10.061 -0.4095 -2.7645  1.2062
  742MOL0     H 2364   7.223  10.989  10.152  0.0739 -1.2078 -2.8850
  742MOL0     H 2365   7.126  11.079  10.276 -0.4292 -4.2748  1.7164
  742MOL0     H 2366   7.047  11.224  10.097  0.0601 -0.3209  0.3200
  742MOL0     H 2367   7.076  11.109   9.975 -1.9158 -0.5016  0.3223
  742MOL0     H 2368   7.307  11.248  10.127 -0.6380  0.9911 -0.3177
  742MOL0     H 2369   7.310  11.128  10.007  1.9834  0.1980  0.9159
  742MOL0     H 2370   7.178  11.398   9.967 -1.7416 -2.7247  1.4733
  742MOL0     H 2371   7.215  11.292   9.838 -2.2157 -2.9668  1.1562
  742MOL0     H 2372   7.454  11.324   9.860  2.8076  1.0486  0.2687
  742MOL0     H 2373   7.449  11.392  10.017  0.3301 -2.3882  0.7117
  742MOL0     H 2374   7.473  11.559   9.813  0.0438 -1.3331 -1.1286
  742MOL0     H 2375   7.355  11.610   9.938  0.8483 -0.3784  1.0724
  742MOL0     H 2376   6.617  10.944  10.308 -1.9026  1.1850  1.0030
  742MOL0     H 2377   6.361  10.946  10.282  1.2314  2.7062 -0.1169
  742MOL0     H 2378   5.993  11.256  10.147 -0.1246 -0.6765  1.1728
  742MOL0     H 2379   5.749  11.272  10.116  0.5429 -0.3092  0.5733
  742MOL0     H 2380   4.223  10.956   9.192 -0.2328 -2.5493 -0.6064
  742MOL0     H 2381   3.980  11.014   9.206 -0.0417 -0.6365 -0.2810
  742MOL0     H 2382   3.576  11.405   8.940  0.1909 -0.4605  1.1803
  742MOL0     H 2383   3.341  11.408   8.951  0.2234  0.1451  1.2102
  742MOL0     H 2384   3.145  11.392   9.149  1.9826  0.6877 -0.9850
  742MOL0     H 2385   3.126  11.395   8.978 -0.9050  0.5928  1.0377
  742MOL0     H 2386   2.950  11.240   9.156 -0.2509 -0.6296  0.6982
  742MOL0     H 2387   2.923  11.249   8.975 -0.5531 -0.8077  0.9776
  742MOL0     H 2388   2.923  11.489   9.172 -1.7565  0.2185 -0.0447
  742MOL0     H 2389   2.891  11.498   8.996  0.6313 -1.2572 -0.5160
  742MOL0     H 2390   2.703  11.502   9.131 -0.0487  0.0535  1.3765
  742MOL0     H 2391   2.736  11.338   9.210 -1.6350  0.5618  0.6541
  742MOL0     H 2392   2.565  11.253   8.826 -0.6466  1.5908 -0.6864
  742MOL0     H 2393   3.329  11.027   9.119 -0.8531 -0.2781 -2.0766
  742MOL0     H 2394   3.671  10.983   9.183  1.4646 -4.1113  2.0619
  742MOL0     H 2395   3.513  10.906   9.165  1.4254 -2.3773 -1.3753
  742MOL0     H 2396   3.635  10.892   9.033  1.6447 -1.5578  3.1149
  743MOL0     O 2397   7.923   4.154   5.260  0.3292  0.6475 -0.2496
  743MOL0     C 2398   7.931   4.066   5.172  0.4457 -0.0600  0.4829
  743MOL0     O 2399   8.038   3.971   5.151  0.5605  0.5792  0.2334
  743MOL0     C 2400   8.158   4.015   5.204  0.3250 -0.4364  0.5470
  743MOL0     C 2401   8.178   4.032   5.346 -0.4998  0.2469  0.1918
  743MOL0     C 2402   8.300   4.093   5.394 -0.1103  0.6376  0.2442
  743MOL0     C 2403   8.396   4.134   5.309  0.3008 -0.0957  0.1059
  743MOL0     O 2404   8.514   4.192   5.333  0.6324 -0.3930 -0.5229
  743MOL0     C 2405   8.508   4.297   5.436 -0.7952 -0.2600 -0.7839
  743MOL0     C 2406   8.651   4.350   5.462  0.5757  0.5226  0.8763
  743MOL0     C 2407   8.738   4.233   5.535  0.2931 -0.1343  1.1906
  743MOL0     C 2408   8.875   4.270   5.576 -0.2638 -0.2763 -0.3651
  743MOL0     C 2409   8.954   4.177   5.665  0.0789  0.2394 -0.7667
  743MOL0     C 2410   9.087   4.238   5.711  0.0243  0.2589  0.3671
  743MOL0     C 2411   9.163   4.181   5.828  0.6817 -0.0503  0.3486
  743MOL0     C 2412   9.298   4.246   5.849 -0.8443  0.1471 -0.3192
  743MOL0     N 2413   9.369   4.185   5.960 -0.0017 -0.3227  0.6233
  743MOL0     C 2414   9.381   4.051   5.994 -0.3469 -0.3923 -0.2771
  743MOL0     C 2415   9.485   4.056   6.092  0.4529  0.3432 -0.2782
  743MOL0     C 2416   9.582   3.948   6.129 -0.0537  1.0710  0.6370
  743MOL0     C 2417   9.534   3.892   6.262 -0.5405  0.8597 -0.5398
  743MOL0     C 2418   9.632   3.783   6.314 -0.0260  0.2714 -0.1944
  743MOL0     C 2419   9.586   3.728   6.446  0.0715  0.2455 -0.4937
  743MOL0     O 2420   9.598   3.819   6.558  0.0688 -0.1661 -0.1156
  743MOL0     C 2421   9.721   3.860   6.610  0.4807 -0.5532  0.7292
  743MOL0     C 2422   9.728   3.961   6.701  0.3526 -0.2550 -0.7054
  743MOL0     C 2423   9.842   4.022   6.745  0.0167  0.1570 -0.5833
  743MOL0     C 2424   9.826   4.134   6.851 -0.4411  0.8636 -0.5721
  743MOL0     C 2425   9.965   3.975   6.694 -0.5011 -0.1994 -0.3065
  743MOL0     C 2426  10.101   4.045   6.716  0.1892  0.2274 -0.2499
  743MOL0     O 2427  10.110   4.180   6.751  0.0375  0.4972  0.5574
  743MOL0     C 2428  10.223   4.259   6.765  0.1148 -0.0841 -1.0438
  743MOL0     C 2429  10.208   4.397   6.781  0.3488  0.0444 -0.4501
  743MOL0     C 2430  10.317   4.471   6.819 -1.3974 -0.8051 -0.9056
  743MOL0     C 2431  10.439   4.421   6.845 -0.3072  0.0942 -0.2950
  743MOL0     O 2432  10.547   4.491   6.885 -0.6396 -0.1828  0.7694
  743MOL0     C 2433  10.538   4.529   7.023 -0.4429 -1.2490 -0.3365
  743MOL0     C 2434  10.674   4.601   7.058 -0.5315 -0.0803 -0.4965
  743MOL0     C 2435  10.682   4.648   7.205  0.4504 -0.3756 -0.6968
  743MOL0     C 2436  10.816   4.738   7.230  0.1946 -0.1848  0.0343
  743MOL0     C 2437  10.806   4.814   7.364  0.4144  0.0128  0.4480
  743MOL0     C 2438  10.943   4.891   7.387 -0.2188  0.1498  0.0648
  743MOL0     C 2439  10.984   4.978   7.271  0.6829  0.3252  0.2650
  743MOL0     C 2440  11.105   5.068   7.314 -0.1567  0.2797  0.2495
  743MOL0    Cl 2441  11.254   4.980   7.328 -0.3363 -0.2094 -0.1478
  743MOL0     C 2442  10.457   4.283   6.826 -0.2138  0.1760  0.7310
  743MOL0     C 2443  10.349   4.200   6.793 -0.1825  0.1576 -0.7039
  743MOL0     O 2444  10.193   3.965   6.692 -0.3770  0.0206  0.6959
  743MOL0     C 2445   9.961   3.855   6.618 -0.1301 -0.2933 -0.3795
  743MOL0     C 2446   9.844   3.808   6.565  0.8973  0.2948  0.3590
  743MOL0     N 2447   9.526   4.188   6.110  0.2657 -0.3797 -0.0548
  743MOL0     N 2448   9.469   4.261   6.022 -0.2374  0.4302  0.1389
  743MOL0     C 2449   8.379   4.120   5.172  0.9378  0.1145  0.5400
  743MOL0     C 2450   8.262   4.057   5.123  0.0539  0.1098  0.4008
  743MOL0     C 2451   7.827   4.063   5.076  0.0424 -0.8607  0.6133
  743MOL0     C 2452   7.859   4.055   4.939 -1.2754 -0.5651 -0.4021
  743MOL0     C 2453   7.768   4.057   4.833 -0.6247  0.8774  0.5369
  743MOL0     C 2454   7.635   4.056   4.861  0.7075 -0.0065 -0.5194
  743MOL0     O 2455   7.542   4.038   4.758  0.6418 -0.9198 -0.0093
  743MOL0     C 2456   7.402   4.051   4.772 -0.0419  0.3749 -0.5275
  743MOL0     C 2457   7.350   4.193   4.772  0.7878  0.9029 -0.4940
  743MOL0     C 2458   7.205   4.193   4.827 -0.4565 -0.1452  0.1152
  743MOL0     C 2459   7.144   4.331   4.814  0.3128  0.7743 -0.1117
  743MOL0     C 2460   7.019   4.334   4.887  0.0357 -0.0036 -0.9453
  743MOL0     C 2461   6.914   4.350   4.948 -0.3174  0.8713  0.2324
  743MOL0     C 2462   7.595   4.063   4.995 -0.0896  0.4408  0.1903
  743MOL0     C 2463   7.688   4.067   5.102  0.4467  0.9302  0.1998
  743MOL0     C 2464   7.639   4.048   5.254  0.1348  0.5362 -0.0337
  743MOL0     H 2465   8.105   4.010   5.423  0.2178 -0.7030  0.6155
  743MOL0     H 2466   8.297   4.107   5.502  0.3365 -0.2542  0.3812
  743MOL0     H 2467   8.471   4.256   5.530  0.6196 -0.2540 -0.1950
  743MOL0     H 2468   8.450   4.380   5.396  1.3657  0.0276 -3.6157
  743MOL0     H 2469   8.695   4.370   5.364 -2.0446 -2.6490 -1.1959
  743MOL0     H 2470   8.641   4.442   5.520  1.0962  0.9569  0.2877
  743MOL0     H 2471   8.686   4.190   5.622 -2.1487  0.2070 -0.0281
  743MOL0     H 2472   8.759   4.153   5.464 -1.1130  0.5275 -0.0109
  743MOL0     H 2473   8.929   4.285   5.483 -2.5817  1.9518 -1.4821
  743MOL0     H 2474   8.870   4.367   5.625  3.0980 -0.0348 -0.3070
  743MOL0     H 2475   8.969   4.086   5.607 -1.5950  0.7703 -2.1499
  743MOL0     H 2476   8.895   4.158   5.755 -0.2580  1.7614 -0.6305
  743MOL0     H 2477   9.144   4.232   5.618 -0.2524  0.6191  0.1695
  743MOL0     H 2478   9.059   4.342   5.732 -0.9570 -0.2945  2.0189
  743MOL0     H 2479   9.176   4.073   5.814 -1.7915 -0.4587  0.7759
  743MOL0     H 2480   9.105   4.213   5.915  2.1921  2.9934  0.3517
  743MOL0     H 2481   9.358   4.236   5.758 -1.6506 -0.8930 -0.7527
  743MOL0     H 2482   9.293   4.352   5.874 -0.9195  0.2515 -0.7664
  743MOL0     H 2483   9.328   3.971   5.944 -1.6910  1.1949 -1.5425
  743MOL0     H 2484   9.683   3.992   6.134 -0.4036  2.3374 -1.8080
  743MOL0     H 2485   9.582   3.871   6.052 -2.5567  1.5965  0.0388
  743MOL0     H 2486   9.532   3.975   6.333  1.7194  0.8651 -0.4007
  743MOL0     H 2487   9.432   3.854   6.259 -0.2061 -0.4041  1.6658
  743MOL0     H 2488   9.640   3.699   6.244 -2.8788 -1.2056  1.0788
  743MOL0     H 2489   9.733   3.822   6.325  1.3700 -3.3889  1.9303
  743MOL0     H 2490   9.483   3.695   6.437 -0.1827  0.1165  2.0659
  743MOL0     H 2491   9.656   3.645   6.460 -0.6259 -0.2189  0.2543
  743MOL0     H 2492   9.635   3.993   6.745 -0.9560 -2.2807 -1.7964
  743MOL0     H 2493   9.727   4.127   6.899 -2.0449 -1.7733 -3.8394
  743MOL0     H 2494   9.831   4.231   6.801  2.5551  0.7094 -0.7195
  743MOL0     H 2495   9.907   4.125   6.924 -0.1137 -1.7479 -1.1546
  743MOL0     H 2496  10.119   4.459   6.783  2.2134  2.9477 -0.1037
  743MOL0     H 2497  10.305   4.577   6.841 -1.8184 -0.2565 -3.4416
  743MOL0     H 2498  10.456   4.601   7.030 -0.5284 -1.4885  3.2200
  743MOL0     H 2499  10.515   4.450   7.095  0.3712 -1.5847 -0.4340
  743MOL0     H 2500  10.762   4.542   7.029  0.7033  1.3597  0.2322
  743MOL0     H 2501  10.667   4.697   7.007 -0.2691 -0.0272 -0.4332
  743MOL0     H 2502  10.687   4.562   7.272  1.8404  0.4966  0.3911
  743MOL0     H 2503  10.595   4.710   7.230  0.2883 -1.3878  1.5026
  743MOL0     H 2504  10.822   4.808   7.146  2.8031 -1.5135 -0.9886
  743MOL0     H 2505  10.904   4.674   7.226 -1.3730 -2.3597 -1.7225
  743MOL0     H 2506  10.715   4.874   7.358 -1.1839 -1.3093  5.7593
  743MOL0     H 2507  10.787   4.754   7.454 -4.1469  1.5477  0.7551
  743MOL0     H 2508  11.028   4.825   7.406 -1.4630 -1.6351 -0.3304
  743MOL0     H 2509  10.930   4.952   7.477 -1.1672  0.9168 -0.5734
  743MOL0     H 2510  10.905   5.050   7.249  1.1168  0.7275 -0.0041
  743MOL0     H 2511  11.008   4.927   7.177 -0.7005  0.6902 -0.3024
  743MOL0     H 2512  11.075   5.104   7.413  0.0648  2.1085 -0.3113
  743MOL0     H 2513  11.124   5.151   7.246  0.9036 -0.5196 -0.4593
  743MOL0     H 2514  10.555   4.244   6.852  0.4807  0.4002 -1.3747
  743MOL0     H 2515  10.356   4.093   6.809  0.5331  0.2574 -0.2636
  743MOL0     H 2516  10.050   3.821   6.566 -0.7154 -0.8628 -1.0323
  743MOL0     H 2517   9.860   3.738   6.483 -0.0349 -0.2485  0.6248
  743MOL0     H 2518   8.455   4.153   5.103 -0.9803  1.5027 -1.0350
  743MOL0     H 2519   8.244   4.034   5.018  1.7336 -1.2653  0.3814
  743MOL0     H 2520   7.961   4.051   4.901 -1.2911  1.9498 -0.9194
  743MOL0     H 2521   7.786   4.043   4.727 -2.3389 -1.6182  0.4844
  743MOL0     H 2522   7.355   3.987   4.697 -0.3420 -1.5884  1.2362
  743MOL0     H 2523   7.378   3.991   4.860  0.0448 -0.4782 -1.0718
  743MOL0     H 2524   7.339   4.238   4.673 -1.3455 -0.0278 -0.7215
  743MOL0     H 2525   7.400   4.256   4.847 -1.0106  1.8401 -0.0213
  743MOL0     H 2526   7.142   4.124   4.771  2.1901 -1.3029 -1.6791
  743MOL0     H 2527   7.202   4.160   4.931 -2.5189 -0.3260  0.0312
  743MOL0     H 2528   7.132   4.338   4.705 -2.2358  1.1401  0.1376
  743MOL0     H 2529   7.202   4.417   4.848  0.5047  0.4442  0.4104
  743MOL0     H 2530   6.831   4.380   5.009 -1.5221 -0.9127 -0.4439
  743MOL0     H 2531   7.490   4.063   5.020 -0.1239 -0.1389  0.0746
  743MOL0     H 2532   7.671   4.130   5.318  2.3755 -3.6845  5.0118
  743MOL0     H 2533   7.530   4.040   5.248 -0.1866  1.2904  3.0932
  743MOL0     H 2534   7.686   3.958   5.294  1.3148  0.1544 -2.1741
  744MOL0     O 2535   6.996   5.308  10.416  0.6828  0.2810 -0.0008
  744MOL0     C 2536   6.988   5.311  10.287  1.2921  0.4761 -0.2687
  744MOL0     O 2537   7.098   5.335  10.208  0.7884  0.2549  0.1529
  744MOL0     C 2538   7.218   5.366  10.267 -0.5134  0.7553 -0.3500
  744MOL0     C 2539   7.331   5.300  10.210 -0.1323  1.0377 -0.2456
  744MOL0     C 2540   7.458   5.328  10.253  0.2467 -0.0446  0.3094
  744MOL0     C 2541   7.481   5.413  10.359  0.6198 -0.4901  0.6351
  744MOL0     O 2542   7.605   5.417  10.411 -0.1466 -0.2794 -0.3375
  744MOL0     C 2543   7.649   5.517  10.510 -0.2790 -0.8532 -0.0763
  744MOL0     C 2544   7.630   5.464  10.660  0.1098 -0.2641  0.4724
  744MOL0     C 2545   7.713   5.345  10.691  0.8771 -0.3108 -0.1446
  744MOL0     C 2546   7.769   5.351  10.829  0.3519  0.5063 -0.4751
  744MOL0     C 2547   7.851   5.220  10.872  0.3115  0.1977  0.4057
  744MOL0     C 2548   7.875   5.243  11.016  0.6641 -0.4209 -0.9787
  744MOL0     C 2549   7.914   5.120  11.091  0.1078 -0.5178 -0.6250
  744MOL0     C 2550   8.039   5.127  11.186 -0.5669 -0.0433  0.6945
  744MOL0     N 2551   8.179   5.145  11.120  0.0021 -0.3765  0.4279
  744MOL0     C 2552   8.239   5.046  11.048 -0.4730  0.4004 -0.7908
  744MOL0     C 2553   8.370   5.092  11.049  0.6225 -0.8912  0.2830
  744MOL0     C 2554   8.478   5.014  10.976  0.1083 -0.3397  0.3684
  744MOL0     C 2555   8.609   5.020  11.055 -0.0592  0.0658  0.8143
  744MOL0     C 2556   8.720   4.953  10.977 -0.1307  0.4539  0.2824
  744MOL0     C 2557   8.843   4.999  11.051  0.0229  0.7424  0.1200
  744MOL0     O 2558   8.956   4.925  11.009 -0.1888 -0.0528 -0.1671
  744MOL0     C 2559   9.074   4.962  11.056 -0.3015 -0.2673 -0.7472
  744MOL0     C 2560   9.144   5.058  10.991 -0.4629 -0.6180 -0.0287
  744MOL0     C 2561   9.251   5.117  11.062  0.4927 -0.3790  0.1519
  744MOL0     C 2562   9.322   5.227  10.985  0.3154 -0.1833 -1.1119
  744MOL0     C 2563   9.293   5.075  11.186  0.1389  0.1765  0.2109
  744MOL0     C 2564   9.410   5.134  11.265 -0.9032  0.3700  0.5680
  744MOL0     O 2565   9.480   5.229  11.201  0.0591 -0.3915  0.7574
  744MOL0     C 2566   9.593   5.288  11.261  0.1289 -0.0358 -0.4069
  744MOL0     C 2567   9.632   5.418  11.224  0.5978 -0.4124  0.2186
  744MOL0     C 2568   9.751   5.477  11.261 -0.2544 -0.2207  0.5810
  744MOL0     C 2569   9.836   5.414  11.340 -1.0755  0.1065  0.0391
  744MOL0     O 2570   9.953   5.468  11.389 -0.1863  0.1263  0.2556
  744MOL0     C 2571   9.965   5.611  11.383 -0.0330  0.4800  0.0388
  744MOL0     C 2572  10.107   5.658  11.420 -0.3632 -0.0377  0.4287
  744MOL0     C 2573  10.158   5.615  11.559  0.4511  0.0867  0.3999
  744MOL0     C 2574  10.301   5.650  11.598 -1.0572 -0.2576 -0.2418
  744MOL0     C 2575  10.334   5.612  11.745  0.2889 -0.5932  0.2057
  744MOL0     C 2576  10.224   5.671  11.838 -0.0535 -0.0239 -0.1693
  744MOL0     C 2577  10.283   5.695  11.980 -0.0807  0.0741 -0.4362
  744MOL0     C 2578  10.203   5.778  12.078  0.3790  0.1496  0.4514
  744MOL0    Cl 2579  10.309   5.830  12.223  0.1795  0.3017 -0.0562
  744MOL0     C 2580   9.813   5.279  11.374  0.4932  0.0165 -0.3754
  744MOL0     C 2581   9.685   5.226  11.350  0.4299 -0.2644  0.2747
  744MOL0     O 2582   9.446   5.075  11.368  0.0936 -0.0319  0.3658
  744MOL0     C 2583   9.225   4.960  11.237  1.0432  0.0693 -0.2438
  744MOL0     C 2584   9.113   4.911  11.172 -0.2859  0.4787  0.3762
  744MOL0     N 2585   8.390   5.216  11.112  0.0917  0.6360  0.8760
  744MOL0     N 2586   8.269   5.246  11.160  0.3636  0.7891  0.0986
  744MOL0     C 2587   7.377   5.491  10.402 -0.2294 -0.0110  1.5317
  744MOL0     C 2588   7.243   5.462  10.358 -0.5859  0.6377  0.3337
  744MOL0     C 2589   6.853   5.287  10.224 -0.0898  0.2398 -0.6993
  744MOL0     C 2590   6.855   5.303  10.082  0.3239 -1.5804  0.1831
  744MOL0     C 2591   6.739   5.300  10.010  0.0870  0.1985 -0.4109
  744MOL0     C 2592   6.616   5.272  10.064 -0.1291  0.4672  0.4800
  744MOL0     O 2593   6.496   5.280   9.992  0.2545 -0.1626 -0.5568
  744MOL0     C 2594   6.491   5.192   9.883  0.0701  0.3472  0.3695
  744MOL0     C 2595   6.351   5.192   9.826  0.1589 -0.4585 -0.3969
  744MOL0     C 2596   6.332   5.082   9.713  0.0771  0.4056  0.0322
  744MOL0     C 2597   6.190   5.055   9.676  0.1608 -0.1280 -0.4185
  744MOL0     C 2598   6.169   5.018   9.535  0.2359  0.0237  0.0900
  744MOL0     C 2599   6.145   4.972   9.424  0.6387 -0.1911  0.3445
  744MOL0     C 2600   6.611   5.250  10.199 -0.0843 -0.2048  0.3250
  744MOL0     C 2601   6.724   5.272  10.284 -0.9948 -0.7294  0.3779
  744MOL0     C 2602   6.714   5.266  10.424 -1.7280 -0.1105  0.1323
  744MOL0     H 2603   7.314   5.226  10.132  2.1307 -0.4871  0.6152
  744MOL0     H 2604   7.548   5.290  10.206  0.4350  2.1040 -1.2093
  744MOL0     H 2605   7.603   5.615  10.491  4.0304  0.9044 -2.9049
  744MOL0     H 2606   7.756   5.535  10.492 -0.3818 -0.8727 -0.7140
  744MOL0     H 2607   7.649   5.547  10.730 -0.1947  1.6979 -1.6623
  744MOL0     H 2608   7.523   5.442  10.673 -0.9284  3.6193 -0.3084
  744MOL0     H 2609   7.651   5.254  10.687  1.6732 -0.8422 -0.7941
  744MOL0     H 2610   7.800   5.335  10.625  0.4494 -1.3340 -0.5817
  744MOL0     H 2611   7.835   5.438  10.837 -0.7687  1.2707  0.9171
  744MOL0     H 2612   7.689   5.357  10.903  2.5232  0.8673  1.9866
  744MOL0     H 2613   7.948   5.208  10.824  0.6750 -2.0194  1.5607
  744MOL0     H 2614   7.791   5.130  10.855  0.5286  0.0322  0.5039
  744MOL0     H 2615   7.951   5.320  11.030 -1.2788  1.4640 -0.3962
  744MOL0     H 2616   7.783   5.267  11.070  0.6398 -2.4361 -0.0156
  744MOL0     H 2617   7.927   5.047  11.011 -1.0070  0.7025 -1.9721
  744MOL0     H 2618   7.829   5.085  11.150  1.0918  2.3782  2.8331
  744MOL0     H 2619   8.016   5.211  11.252  0.2250  1.3482 -0.7170
  744MOL0     H 2620   8.043   5.035  11.245 -3.4774  1.2792  3.2443
  744MOL0     H 2621   8.207   4.950  11.007 -0.3994 -0.4709  1.0965
  744MOL0     H 2622   8.489   5.067  10.880 -0.8822  2.2748  1.6050
  744MOL0     H 2623   8.443   4.912  10.958  0.5688 -0.7964  1.9107
  744MOL0     H 2624   8.636   5.125  11.067 -0.2922  0.6277 -2.5150
  744MOL0     H 2625   8.598   4.975  11.154  2.3142 -0.1139  1.0437
  744MOL0     H 2626   8.694   4.847  10.972  0.7231  0.2261  0.4905
  744MOL0     H 2627   8.723   4.991  10.874 -2.6021  2.1535  0.7391
  744MOL0     H 2628   8.866   5.106  11.049 -0.6811  0.8925 -1.4003
  744MOL0     H 2629   8.822   4.976  11.156 -2.6028  1.6305 -0.1325
  744MOL0     H 2630   9.113   5.087  10.891  2.4158 -2.2547 -1.5586
  744MOL0     H 2631   9.427   5.201  10.968  0.9366  0.8248  0.7885
  744MOL0     H 2632   9.307   5.324  11.033 -1.9100 -1.3037  0.6133
  744MOL0     H 2633   9.273   5.234  10.888  0.7460 -0.3126 -1.3397
  744MOL0     H 2634   9.569   5.478  11.159 -1.8832 -1.1583  1.8215
  744MOL0     H 2635   9.765   5.582  11.240 -1.1306  0.2835  2.2751
  744MOL0     H 2636   9.960   5.647  11.280  1.2616  0.4228 -0.0588
  744MOL0     H 2637   9.889   5.653  11.449 -2.1199 -2.4055 -0.3217
  744MOL0     H 2638  10.173   5.622  11.340 -3.1064 -0.6844 -1.6958
  744MOL0     H 2639  10.110   5.767  11.415  3.2471 -0.0660 -0.9861
  744MOL0     H 2640  10.143   5.507  11.552 -0.9586  0.3233 -1.0315
  744MOL0     H 2641  10.085   5.651  11.632  1.6382  2.2202  0.6292
  744MOL0     H 2642  10.303   5.759  11.607 -2.0148 -0.4204  4.1919
  744MOL0     H 2643  10.376   5.622  11.523 -0.2675  0.6645  0.1883
  744MOL0     H 2644  10.359   5.506  11.753  0.5993 -0.5263  0.1428
  744MOL0     H 2645  10.425   5.667  11.771 -0.5867  0.1599  1.7868
  744MOL0     H 2646  10.141   5.600  11.837  0.6425 -0.8725  0.7896
  744MOL0     H 2647  10.200   5.770  11.797 -0.3935  0.7031  1.6653
  744MOL0     H 2648  10.382   5.740  11.973  0.3145 -0.7420 -0.3037
  744MOL0     H 2649  10.297   5.600  12.033  0.6605  0.6119  0.3642
  744MOL0     H 2650  10.121   5.716  12.116 -0.1221 -0.1820 -1.0943
  744MOL0     H 2651  10.163   5.862  12.021  0.0753  0.3408  0.9429
  744MOL0     H 2652   9.888   5.224  11.430  0.4019 -1.4651 -1.6381
  744MOL0     H 2653   9.670   5.124  11.386 -1.7155  0.2676  1.0072
  744MOL0     H 2654   9.258   4.915  11.330 -1.1696 -1.5469 -0.1625
  744MOL0     H 2655   9.058   4.832  11.222  1.0048  2.1420  4.9603
  744MOL0     H 2656   7.387   5.557  10.487 -2.8202  0.2646  1.7128
  744MOL0     H 2657   7.157   5.512  10.400  0.2458  0.9318  1.7583
  744MOL0     H 2658   6.949   5.313  10.029  0.3568  2.4715  0.6729
  744MOL0     H 2659   6.747   5.314   9.902  2.8119 -0.8730 -0.4511
  744MOL0     H 2660   6.562   5.224   9.805  2.0374  1.1256  2.3693
  744MOL0     H 2661   6.505   5.088   9.912  0.6791  0.7655  1.6647
  744MOL0     H 2662   6.331   5.293   9.787  1.8762 -0.4379 -1.3433
  744MOL0     H 2663   6.282   5.165   9.906  1.5641  1.4702  1.5841
  744MOL0     H 2664   6.402   5.110   9.633  4.3596 -0.3395  3.1593
  744MOL0     H 2665   6.366   4.980   9.733  1.3124 -0.0779 -3.7483
  744MOL0     H 2666   6.129   5.143   9.695  0.7172  0.6084 -1.8959
  744MOL0     H 2667   6.156   4.968   9.733  2.3542 -2.5653 -2.5545
  744MOL0     H 2668   6.120   4.927   9.330  0.4598 -1.8829  1.1636
  744MOL0     H 2669   6.511   5.239  10.241 -0.2623  1.0198  0.2389
  744MOL0     H 2670   6.764   5.352  10.470 -0.1868 -1.1379  0.4761
  744MOL0     H 2671   6.612   5.267  10.463 -2.2086 -1.2058 -1.0349
  744MOL0     H 2672   6.754   5.172  10.464 -1.9094 -0.1102  0.3120
  745MOL0     O 2673   9.088   4.265   2.678  0.0786 -0.1727  0.3024
  745MOL0     C 2674   9.004   4.173   2.664 -0.2267 -0.2599 -0.3194
  745MOL0     O 2675   9.032   4.040   2.653  0.1123 -0.6166 -0.5760
  745MOL0     C 2676   9.161   4.003   2.613  0.0035 -0.3377 -0.6608
  745MOL0     C 2677   9.259   3.971   2.710  0.4252  0.1687  0.4736
  745MOL0     C 2678   9.387   3.922   2.683 -0.2833  0.5238  0.4721
  745MOL0     C 2679   9.423   3.902   2.555 -1.0464  0.2186  0.0822
  745MOL0     O 2680   9.547   3.853   2.514  0.5294  0.1655 -0.7511
  745MOL0     C 2681   9.664   3.898   2.585  0.1146 -0.5796  0.4322
  745MOL0     C 2682   9.785   3.835   2.525  0.4385  1.2586  0.1457
  745MOL0     C 2683   9.810   3.692   2.586 -0.0928 -0.1183  0.6797
  745MOL0     C 2684   9.930   3.636   2.509  0.3851 -0.8766 -0.7807
  745MOL0     C 2685  10.060   3.717   2.523 -0.0786 -0.7513 -0.3662
  745MOL0     C 2686  10.175   3.647   2.443  0.5155  0.2352 -0.1673
  745MOL0     C 2687  10.294   3.742   2.461 -0.2433 -0.3793  0.4073
  745MOL0     C 2688  10.410   3.713   2.372  0.1555  0.2397  0.3213
  745MOL0     N 2689  10.532   3.787   2.382  0.1761 -0.5632 -0.1586
  745MOL0     C 2690  10.549   3.918   2.341 -0.6300 -1.1331  1.0412
  745MOL0     C 2691  10.681   3.946   2.378  0.3936  0.2397  0.5865
  745MOL0     C 2692  10.747   4.085   2.361 -0.4857  0.1319  0.5796
  745MOL0     C 2693  10.791   4.112   2.223 -0.3657 -0.4998 -0.6718
  745MOL0     C 2694  10.875   4.236   2.232  0.5143 -0.4940  0.1506
  745MOL0     C 2695  10.890   4.307   2.100 -0.2874 -0.4136  0.5960
  745MOL0     O 2696  10.969   4.223   2.014  0.3378 -0.1076  0.4647
  745MOL0     C 2697  11.101   4.188   2.037 -0.1667 -0.0037  0.5083
  745MOL0     C 2698  11.193   4.284   2.036  0.0605  0.2899 -1.1478
  745MOL0     C 2699  11.329   4.257   2.044 -0.1543  0.4368  0.5009
  745MOL0     C 2700  11.423   4.370   2.017 -0.5158 -0.1648  0.0142
  745MOL0     C 2701  11.369   4.125   2.063 -0.4165  0.3957 -0.0353
  745MOL0     C 2702  11.513   4.075   2.087  0.7791  0.0013 -0.0239
  745MOL0     O 2703  11.527   3.943   2.111 -0.2316  0.4928  0.3827
  745MOL0     C 2704  11.658   3.901   2.127  0.2680 -0.5178 -0.5163
  745MOL0     C 2705  11.709   3.798   2.042 -0.3321 -0.4616 -0.0021
  745MOL0     C 2706  11.838   3.755   2.066 -0.3722 -0.2847  0.2360
  745MOL0     C 2707  11.916   3.816   2.174 -0.4999  0.3307 -0.2511
  745MOL0     O 2708  12.042   3.769   2.203 -0.0872  0.2695  0.4219
  745MOL0     C 2709  12.150   3.869   2.214 -0.6623 -0.6227 -0.3442
  745MOL0     C 2710  12.280   3.799   2.261  0.7286  0.1604  0.0063
  745MOL0     C 2711  12.400   3.903   2.279  0.0144 -0.1182 -0.1825
  745MOL0     C 2712  12.529   3.840   2.323 -0.0138  0.0310  0.1741
  745MOL0     C 2713  12.636   3.942   2.350  0.1555 -0.1633 -0.6023
  745MOL0     C 2714  12.621   4.008   2.490 -0.7430  0.2774 -0.0445
  745MOL0     C 2715  12.703   4.134   2.503 -0.1307 -0.4419  0.7165
  745MOL0     C 2716  12.853   4.119   2.462 -0.1866  0.7876  0.3119
  745MOL0    Cl 2717  12.919   4.277   2.484 -0.5318  0.1672  0.2152
  745MOL0     C 2718  11.858   3.907   2.259 -0.1447  0.3956  0.1827
  745MOL0     C 2719  11.725   3.945   2.237  0.4144  0.0094  0.9635
  745MOL0     O 2720  11.602   4.159   2.071 -0.3243  1.0069  0.5620
  745MOL0     C 2721  11.269   4.020   2.078 -0.4394 -0.1318 -0.1889
  745MOL0     C 2722  11.140   4.048   2.055  0.5601  0.1927  0.5091
  745MOL0     N 2723  10.737   3.827   2.432  0.0119  0.3610 -0.4942
  745MOL0     N 2724  10.652   3.737   2.431 -0.0281  1.4675  0.5027
  745MOL0     C 2725   9.335   3.940   2.459  0.4218 -0.5601 -0.0085
  745MOL0     C 2726   9.201   3.992   2.483  0.0442  0.0678  0.4630
  745MOL0     C 2727   8.856   4.201   2.681 -0.1618  0.0786  0.8272
  745MOL0     C 2728   8.765   4.089   2.666 -0.2498 -0.3030 -1.0007
  745MOL0     C 2729   8.626   4.100   2.674 -0.0013 -0.3915 -0.0141
  745MOL0     C 2730   8.573   4.227   2.672  0.6692  0.5815  0.0914
  745MOL0     O 2731   8.436   4.258   2.651  0.3205 -0.1759 -0.4819
  745MOL0     C 2732   8.347   4.192   2.746  0.0883 -0.7260  0.5252
  745MOL0     C 2733   8.241   4.299   2.789 -0.7239 -1.0811  0.2673
  745MOL0     C 2734   8.317   4.425   2.860 -0.9317 -0.6192  0.4755
  745MOL0     C 2735   8.223   4.489   2.960  0.0999  0.5465 -0.6204
  745MOL0     C 2736   8.204   4.411   3.082 -0.7603 -0.2285 -0.0082
  745MOL0     C 2737   8.193   4.351   3.185 -0.1715 -0.5382 -0.0563
  745MOL0     C 2738   8.655   4.331   2.693  0.7334 -0.0237  1.3565
  745MOL0     C 2739   8.797   4.325   2.700  0.4784 -0.8844 -0.1923
  745MOL0     C 2740   8.878   4.456   2.726 -0.4382  0.0423  0.4544
  745MOL0     H 2741   9.236   3.988   2.814  1.1344  2.8792  0.2603
  745MOL0     H 2742   9.450   3.910   2.771  1.8411 -0.1615 -1.0704
  745MOL0     H 2743   9.664   3.883   2.693  1.3110  0.4741  0.5925
  745MOL0     H 2744   9.669   4.006   2.575 -4.3875 -0.1886  0.4046
  745MOL0     H 2745   9.770   3.820   2.418  1.5784  0.1606  0.1244
  745MOL0     H 2746   9.864   3.910   2.527  0.0090  1.7931 -1.5048
  745MOL0     H 2747   9.826   3.685   2.694  0.8072  0.4135  0.5951
  745MOL0     H 2748   9.730   3.620   2.568  0.6907 -0.8260 -0.0506
  745MOL0     H 2749   9.952   3.544   2.565  0.9391 -0.4840 -0.3352
  745MOL0     H 2750   9.903   3.613   2.406 -2.6360 -2.7090  0.3003
  745MOL0     H 2751  10.082   3.700   2.629 -1.5046 -1.9284 -0.2211
  745MOL0     H 2752  10.047   3.821   2.493  0.9997 -1.0514 -2.0325
  745MOL0     H 2753  10.192   3.544   2.474 -1.3889  0.3233  1.3154
  745MOL0     H 2754  10.142   3.653   2.339 -1.2034 -0.0387  0.3377
  745MOL0     H 2755  10.344   3.731   2.558  0.5325 -0.7746 -0.0298
  745MOL0     H 2756  10.264   3.846   2.444 -1.1642 -0.7707 -0.4718
  745MOL0     H 2757  10.429   3.605   2.371  0.9457  0.3527  1.7520
  745MOL0     H 2758  10.365   3.747   2.278  0.4303 -0.0573  0.0792
  745MOL0     H 2759  10.481   3.991   2.300 -3.2701 -4.0388 -0.1595
  745MOL0     H 2760  10.831   4.085   2.432 -0.5032  3.3703  0.7246
  745MOL0     H 2761  10.675   4.159   2.395 -0.5945 -0.5559  1.9323
  745MOL0     H 2762  10.849   4.024   2.191 -0.2969 -0.1902 -1.4028
  745MOL0     H 2763  10.704   4.127   2.159  0.2996  1.5043 -1.1626
  745MOL0     H 2764  10.836   4.305   2.307 -2.1428 -1.2218 -0.4791
  745MOL0     H 2765  10.976   4.212   2.266 -0.0892  1.0140  3.3743
  745MOL0     H 2766  10.792   4.311   2.053  0.1534 -0.1082 -0.3341
  745MOL0     H 2767  10.938   4.405   2.107 -0.1921 -0.3980 -0.1245
  745MOL0     H 2768  11.162   4.388   2.027 -1.8309  0.3128  3.0576
  745MOL0     H 2769  11.372   4.467   2.014 -0.5898 -0.1825  0.5957
  745MOL0     H 2770  11.486   4.359   1.928  0.2394  2.4142  0.1497
  745MOL0     H 2771  11.499   4.386   2.094 -0.1027  0.2775 -0.4821
  745MOL0     H 2772  11.637   3.769   1.967 -0.8241  0.3252  0.1452
  745MOL0     H 2773  11.892   3.687   2.000 -0.4828 -0.3075  0.1699
  745MOL0     H 2774  12.178   3.920   2.121  2.8096 -2.0336 -0.2445
  745MOL0     H 2775  12.119   3.927   2.301  0.9727  0.2817 -0.3217
  745MOL0     H 2776  12.269   3.737   2.350  1.8356 -1.2754 -0.8141
  745MOL0     H 2777  12.297   3.715   2.194 -3.7613 -1.9384  1.1126
  745MOL0     H 2778  12.370   3.971   2.359  0.6953 -1.6198  1.4055
  745MOL0     H 2779  12.428   3.959   2.189  0.1533 -3.2268 -2.2268
  745MOL0     H 2780  12.551   3.764   2.247 -1.8021 -0.9343  0.5773
  745MOL0     H 2781  12.505   3.777   2.409  0.7956 -1.9363 -0.9715
  745MOL0     H 2782  12.733   3.894   2.336  0.1287 -1.2402  2.2835
  745MOL0     H 2783  12.631   4.021   2.275  0.9790  0.4887  0.0123
  745MOL0     H 2784  12.644   3.930   2.563 -1.4967 -0.7833 -0.9062
  745MOL0     H 2785  12.518   4.033   2.517 -1.6757 -1.5291 -1.6951
  745MOL0     H 2786  12.695   4.157   2.610  1.4285  2.7622  0.2929
  745MOL0     H 2787  12.658   4.207   2.434  0.9812  0.6133  1.0728
  745MOL0     H 2788  12.860   4.085   2.358  0.2632 -2.1327  1.2013
  745MOL0     H 2789  12.902   4.044   2.525  0.3914  0.5137 -0.4441
  745MOL0     H 2790  11.914   3.947   2.342 -0.7480 -1.1371  1.3579
  745MOL0     H 2791  11.682   4.022   2.300 -1.4563  2.4905 -2.9071
  745MOL0     H 2792  11.294   3.915   2.090 -0.7739 -0.1325  0.4915
  745MOL0     H 2793  11.064   3.971   2.064  0.0710  0.6511  0.3558
  745MOL0     H 2794   9.371   3.937   2.356  0.5738  1.7839 -0.0915
  745MOL0     H 2795   9.127   4.005   2.404  2.2016  2.2583 -1.3712
  745MOL0     H 2796   8.796   3.985   2.673  0.6267  0.0430  0.7900
  745MOL0     H 2797   8.559   4.016   2.660 -0.7483  0.0470  0.8699
  745MOL0     H 2798   8.297   4.108   2.697 -0.1230 -1.6036  2.1794
  745MOL0     H 2799   8.395   4.147   2.833 -2.2267 -1.4808  1.5066
  745MOL0     H 2800   8.161   4.255   2.849  0.5918 -0.9069  2.2607
  745MOL0     H 2801   8.205   4.332   2.691  1.1633 -0.1070 -0.1549
  745MOL0     H 2802   8.413   4.398   2.905  0.9882  1.6955 -1.9100
  745MOL0     H 2803   8.344   4.501   2.787 -0.6902  0.4652  1.6544
  745MOL0     H 2804   8.124   4.507   2.919 -0.0900  0.2302 -0.3022
  745MOL0     H 2805   8.267   4.581   3.000  1.3245 -1.0709  2.0511
  745MOL0     H 2806   8.185   4.321   3.287  2.3808 -0.5966  0.1753
  745MOL0     H 2807   8.596   4.422   2.693 -1.6499 -1.4901  0.7161
  745MOL0     H 2808   8.815   4.545   2.739 -1.1023 -0.2162 -0.7557
  745MOL0     H 2809   8.932   4.431   2.817 -1.7130 -0.1934  1.1748
  745MOL0     H 2810   8.955   4.477   2.651 -0.8006 -1.5857 -0.4267
  746MOL0     O 2811   0.207   9.769   9.091 -0.7512 -1.2875  0.2012
  746MOL0     C 2812   0.189   9.665   9.027 -0.0333  0.5534 -0.5244
  746MOL0     O 2813   0.265   9.555   9.040 -0.2432  0.0735  0.6085
  746MOL0     C 2814   0.368   9.565   9.136  0.5406  0.1301 -0.1856
  746MOL0     C 2815   0.349   9.539   9.266  0.3985  0.2987  0.1053
  746MOL0     C 2816   0.450   9.540   9.352 -0.0769  0.0117  0.3587
  746MOL0     C 2817   0.586   9.571   9.321 -0.0274 -0.0150 -0.6035
  746MOL0     O 2818   0.677   9.574   9.421  0.1040  0.0347  0.1252
  746MOL0     C 2819   0.815   9.567   9.373  0.4747  0.2300 -0.0601
  746MOL0     C 2820   0.906   9.539   9.496 -0.5936 -0.7475  0.6653
  746MOL0     C 2821   1.056   9.517   9.469  0.4910  0.7839 -0.3812
  746MOL0     C 2822   1.130   9.648   9.440  0.0293  0.1475 -0.2583
  746MOL0     C 2823   1.280   9.630   9.466 -0.3205  0.9417 -0.1133
  746MOL0     C 2824   1.355   9.758   9.440 -0.2375  0.4111 -0.1086
  746MOL0     C 2825   1.503   9.745   9.481  0.4924  0.7114 -0.4923
  746MOL0     C 2826   1.588   9.867   9.451  0.1162 -0.2146  0.5422
  746MOL0     N 2827   1.724   9.841   9.506  0.5522 -0.2813  0.6047
  746MOL0     C 2828   1.835   9.780   9.451  0.0498 -0.0849 -0.2295
  746MOL0     C 2829   1.930   9.786   9.544 -0.8759  0.4070  0.1698
  746MOL0     C 2830   2.073   9.736   9.535  0.0206  0.1684 -0.4107
  746MOL0     C 2831   2.143   9.852   9.462 -0.1373 -0.1960  0.1124
  746MOL0     C 2832   2.177   9.966   9.555 -0.3874  0.1359 -0.4016
  746MOL0     C 2833   2.335   9.981   9.566 -0.9878 -0.2196 -0.6936
  746MOL0     O 2834   2.401   9.867   9.640  0.0516  0.0236 -0.1223
  746MOL0     C 2835   2.535   9.862   9.648 -0.0152 -0.7190 -0.2036
  746MOL0     C 2836   2.616   9.968   9.627 -0.1079 -0.1044  0.1087
  746MOL0     C 2837   2.757   9.962   9.656  0.2935  0.3626  0.2087
  746MOL0     C 2838   2.824  10.097   9.646  0.8067 -0.2686 -0.4324
  746MOL0     C 2839   2.819   9.842   9.688  0.6560  0.3256  0.5745
  746MOL0     C 2840   2.965   9.812   9.699 -0.7588 -0.9154  0.3954
  746MOL0     O 2841   2.997   9.681   9.726 -0.0618 -0.7316 -0.5672
  746MOL0     C 2842   3.131   9.645   9.745 -0.6611 -0.0330  0.0540
  746MOL0     C 2843   3.233   9.662   9.645 -0.4095 -0.1885  0.6641
  746MOL0     C 2844   3.363   9.618   9.659  0.2150  0.0882  0.1501
  746MOL0     C 2845   3.399   9.546   9.764 -1.3065 -0.1884 -0.7297
  746MOL0     O 2846   3.533   9.526   9.786 -0.1225  0.0712  0.5778
  746MOL0     C 2847   3.555   9.387   9.807  0.1558 -0.3755 -1.0599
  746MOL0     C 2848   3.693   9.367   9.760  0.4287 -0.1863 -0.0818
  746MOL0     C 2849   3.801   9.381   9.863 -0.3213  0.4276  0.4063
  746MOL0     C 2850   3.932   9.372   9.793 -0.4796 -0.2341  0.0650
  746MOL0     C 2851   4.041   9.323   9.899 -0.4346  0.2150 -0.9519
  746MOL0     C 2852   4.181   9.344   9.844 -1.0054 -0.3867 -0.3133
  746MOL0     C 2853   4.275   9.283   9.935  0.1208  0.3992 -0.1447
  746MOL0     C 2854   4.419   9.320   9.892 -0.3473 -0.0586  0.1715
  746MOL0    Cl 2855   4.530   9.240  10.008  0.0319  0.1845  0.1395
  746MOL0     C 2856   3.309   9.523   9.872  0.5905  0.1558 -0.3344
  746MOL0     C 2857   3.172   9.569   9.862 -0.8260 -0.1507  0.5299
  746MOL0     O 2858   3.040   9.910   9.685 -0.2652  0.2164 -0.1365
  746MOL0     C 2859   2.727   9.731   9.703  0.0263  0.0318  0.6086
  746MOL0     C 2860   2.593   9.740   9.684 -0.5740 -0.4576  1.0716
  746MOL0     N 2861   1.875   9.853   9.654  0.1909  0.3825  0.4950
  746MOL0     N 2862   1.750   9.867   9.637 -0.5791 -1.1669 -0.3446
  746MOL0     C 2863   0.609   9.601   9.190  0.1289 -0.5290 -0.2602
  746MOL0     C 2864   0.500   9.595   9.098  0.5111 -0.1468 -0.9132
  746MOL0     C 2865   0.060   9.643   8.944 -1.2142 -0.2438  0.4044
  746MOL0     C 2866   0.032   9.512   8.897  0.3286  0.8022  0.0287
  746MOL0     C 2867  -0.077   9.490   8.815 -0.0304  0.3121 -0.0685
  746MOL0     C 2868  -0.172   9.590   8.797 -0.0603 -0.1102  0.0300
  746MOL0     O 2869  -0.284   9.571   8.718 -0.0182  0.2118  0.2140
  746MOL0     C 2870  -0.323   9.434   8.690 -0.0560  0.9860 -0.3697
  746MOL0     C 2871  -0.455   9.431   8.630 -0.3716 -0.0639  0.0625
  746MOL0     C 2872  -0.570   9.477   8.726  1.0883 -1.2054 -0.1703
  746MOL0     C 2873  -0.705   9.473   8.660  0.4386  0.7278  0.6069
  746MOL0     C 2874  -0.793   9.355   8.684  0.2532  0.5274  0.4298
  746MOL0     C 2875  -0.870   9.265   8.716  0.6932  0.4240  0.1053
  746MOL0     C 2876  -0.150   9.720   8.848  0.2717  0.5532 -1.2552
  746MOL0     C 2877  -0.029   9.751   8.919  0.4153  0.1445  0.6433
  746MOL0     C 2878  -0.020   9.886   8.957  0.0399 -0.0501 -0.7939
  746MOL0     H 2879   0.247   9.515   9.296 -0.0795  1.8429 -0.1937
  746MOL0     H 2880   0.438   9.516   9.457 -1.4844  0.7628  0.3972
  746MOL0     H 2881   0.852   9.666   9.343  0.3127 -0.0507 -1.2151
  746MOL0     H 2882   0.833   9.494   9.294  0.5918  1.7334 -1.4830
  746MOL0     H 2883   0.901   9.622   9.567  2.8807 -1.2472  1.6430
  746MOL0     H 2884   0.859   9.452   9.543  1.3008 -1.0465  2.1162
  746MOL0     H 2885   1.085   9.467   9.562  0.7375 -1.5864 -1.6525
  746MOL0     H 2886   1.063   9.450   9.383  0.2695  0.3219 -0.0388
  746MOL0     H 2887   1.114   9.685   9.338 -0.8023 -1.1959 -0.6381
  746MOL0     H 2888   1.098   9.731   9.504 -0.3350 -1.5328  1.8392
  746MOL0     H 2889   1.324   9.559   9.395 -1.1101  0.4292 -0.0978
  746MOL0     H 2890   1.292   9.582   9.564 -1.8077  1.0300  0.1424
  746MOL0     H 2891   1.339   9.781   9.334 -0.2413  0.0238 -0.1936
  746MOL0     H 2892   1.315   9.840   9.501 -1.5242 -1.2566  1.3941
  746MOL0     H 2893   1.545   9.664   9.421 -0.6942 -2.6710  2.8030
  746MOL0     H 2894   1.513   9.708   9.584 -0.3194  0.0447 -0.6440
  746MOL0     H 2895   1.611   9.866   9.344  1.7302  1.4255  0.8297
  746MOL0     H 2896   1.529   9.953   9.481  0.5179 -0.0452  0.8561
  746MOL0     H 2897   1.852   9.726   9.359  0.1633 -2.0063  0.8642
  746MOL0     H 2898   2.073   9.643   9.477 -2.2022  1.0213 -1.9269
  746MOL0     H 2899   2.116   9.720   9.634 -3.2821 -1.6853  0.8958
  746MOL0     H 2900   2.239   9.813   9.428  0.7579 -1.3484  3.5587
  746MOL0     H 2901   2.079   9.893   9.384  0.0670  0.9634  0.5386
  746MOL0     H 2902   2.136  10.056   9.507  0.7510 -0.8421 -3.4468
  746MOL0     H 2903   2.122   9.967   9.649  0.1950  1.6074 -0.0358
  746MOL0     H 2904   2.384  10.004   9.471 -2.3589  0.7554 -1.2004
  746MOL0     H 2905   2.342  10.070   9.628 -2.6380 -0.3904 -0.2019
  746MOL0     H 2906   2.577  10.068   9.613 -0.7590 -0.5391 -1.3244
  746MOL0     H 2907   2.854  10.134   9.744 -1.4078 -1.4643  0.7829
  746MOL0     H 2908   2.752  10.169   9.605 -0.3039  0.9456  3.2753
  746MOL0     H 2909   2.906  10.089   9.574  1.9138 -2.5625  0.9708
  746MOL0     H 2910   3.207   9.726   9.562  1.5385  3.0667  2.3626
  746MOL0     H 2911   3.443   9.637   9.588 -0.3892  1.0678 -0.2919
  746MOL0     H 2912   3.549   9.366   9.914  2.2431 -3.9677 -1.4936
  746MOL0     H 2913   3.482   9.322   9.758 -0.0804  0.9511 -2.5632
  746MOL0     H 2914   3.702   9.269   9.713 -0.2380  0.5493 -1.8636
  746MOL0     H 2915   3.713   9.441   9.681 -0.9308 -0.5026 -0.7633
  746MOL0     H 2916   3.791   9.294   9.927  1.2816  0.5559  0.8927
  746MOL0     H 2917   3.788   9.469   9.926 -3.1775 -0.3950  1.1124
  746MOL0     H 2918   3.965   9.470   9.757  0.0147 -0.6570 -0.6464
  746MOL0     H 2919   3.930   9.304   9.708 -2.8295  1.1400 -1.0961
  746MOL0     H 2920   4.053   9.376   9.994 -2.5706 -0.2148 -0.3696
  746MOL0     H 2921   4.021   9.218   9.923  0.7408  0.3659  0.8505
  746MOL0     H 2922   4.207   9.450   9.846 -0.7241 -0.3849 -2.2568
  746MOL0     H 2923   4.186   9.294   9.746  1.7118 -2.8491  0.9195
  746MOL0     H 2924   4.261   9.175   9.928  0.7320  0.2958  0.1277
  746MOL0     H 2925   4.262   9.313  10.040 -1.6676 -0.0255 -0.2229
  746MOL0     H 2926   4.437   9.428   9.882 -1.5333  0.2980  1.5077
  746MOL0     H 2927   4.445   9.268   9.799  3.9284  1.2286  0.4293
  746MOL0     H 2928   3.329   9.473   9.966 -4.8322  0.0795  1.1469
  746MOL0     H 2929   3.103   9.544   9.941  0.5643 -2.4136  1.1198
  746MOL0     H 2930   2.762   9.632   9.734 -2.6635 -0.8208  1.1704
  746MOL0     H 2931   2.522   9.660   9.701 -0.0332 -1.0556  0.5970
  746MOL0     H 2932   0.707   9.619   9.146 -0.6876  2.7804 -0.9850
  746MOL0     H 2933   0.525   9.613   8.994  1.0786 -0.9585 -0.9204
  746MOL0     H 2934   0.103   9.431   8.904  0.3963  0.8164 -0.5150
  746MOL0     H 2935  -0.081   9.394   8.765  0.9206  0.1056  0.2235
  746MOL0     H 2936  -0.254   9.389   8.618 -1.0194 -0.3646 -0.4993
  746MOL0     H 2937  -0.320   9.359   8.770  1.4779 -1.5174 -2.5901
  746MOL0     H 2938  -0.476   9.329   8.597 -2.8099  0.1021  0.9011
  746MOL0     H 2939  -0.450   9.495   8.541  1.1427 -2.3629 -1.6116
  746MOL0     H 2940  -0.585   9.416   8.816 -0.1568  1.2735  1.4193
  746MOL0     H 2941  -0.550   9.578   8.761 -2.9002 -0.5544  0.7880
  746MOL0     H 2942  -0.689   9.479   8.552 -0.7695 -1.8247  0.2064
  746MOL0     H 2943  -0.758   9.560   8.698  1.0058  1.1137  0.5350
  746MOL0     H 2944  -0.927   9.177   8.741  2.2582 -1.1834 -1.6336
  746MOL0     H 2945  -0.227   9.792   8.823 -2.6432 -1.8816  0.0665
  746MOL0     H 2946  -0.099   9.953   8.923 -0.6653 -2.2685 -3.9021
  746MOL0     H 2947  -0.016   9.889   9.067 -0.3846 -0.1414 -0.7765
  746MOL0     H 2948   0.075   9.933   8.928 -0.1619  1.2679  0.5495
  747MOL0     O 2949   3.634  10.289  11.291  0.2864  0.9621 -0.0019
  747MOL0     C 2950   3.698  10.210  11.359  0.1944  0.7562 -0.0140
  747MOL0     O 2951   3.658  10.083  11.388 -0.3665  0.3126 -0.4812
  747MOL0     C 2952   3.532  10.026  11.358 -0.3263 -0.3421  0.3132
  747MOL0     C 2953   3.434  10.004  11.457  0.7271  0.4838  0.2022
  747MOL0     C 2954   3.310   9.947  11.428 -0.2644 -0.1162  0.0653
  747MOL0     C 2955   3.289   9.889  11.300 -0.0281  0.1921 -0.8624
  747MOL0     O 2956   3.179   9.819  11.264 -0.1109 -1.1949  0.2467
  747MOL0     C 2957   3.080   9.815  11.351  0.2763 -0.2203  0.3720
  747MOL0     C 2958   2.957   9.776  11.269 -0.1918 -0.5422  0.8232
  747MOL0     C 2959   2.823   9.762  11.348  0.0368 -0.3471  0.2139
  747MOL0     C 2960   2.699   9.772  11.261 -0.0458  0.5349  0.4683
  747MOL0     C 2961   2.570   9.790  11.341 -1.1129 -0.2068  0.1099
  747MOL0     C 2962   2.459   9.816  11.244 -0.1235  0.3398  0.5623
  747MOL0     C 2963   2.318   9.824  11.302 -0.8818  0.6560  0.1164
  747MOL0     C 2964   2.245   9.687  11.302  1.2323  0.3848 -0.5411
  747MOL0     N 2965   2.305   9.594  11.400 -0.6326 -0.6857  0.3273
  747MOL0     C 2966   2.383   9.484  11.368  0.1689  0.2571 -0.2434
  747MOL0     C 2967   2.377   9.413  11.486 -0.3100 -0.5351  0.5976
  747MOL0     C 2968   2.420   9.259  11.492  0.5476 -0.0072  0.0726
  747MOL0     C 2969   2.572   9.236  11.507  0.6354  0.0349  0.5150
  747MOL0     C 2970   2.629   9.293  11.634  0.1682  0.4080 -0.2028
  747MOL0     C 2971   2.774   9.327  11.622 -0.9692  0.5408  0.3942
  747MOL0     O 2972   2.841   9.194  11.619  0.6546 -0.3799  0.6934
  747MOL0     C 2973   2.964   9.188  11.552 -0.8364 -0.2023  0.6787
  747MOL0     C 2974   3.019   9.058  11.523  0.1829  0.0840 -0.3272
  747MOL0     C 2975   3.137   9.041  11.455  0.4051 -0.3351  0.8277
  747MOL0     C 2976   3.173   8.896  11.408  0.0876 -0.6997  0.2093
  747MOL0     C 2977   3.213   9.153  11.415 -0.4712 -0.2417 -0.7677
  747MOL0     C 2978   3.349   9.146  11.345  0.0382 -0.1556 -0.2883
  747MOL0     O 2979   3.343   9.059  11.244 -0.2415 -0.0489 -0.0121
  747MOL0     C 2980   3.452   9.054  11.160 -0.0815  0.9124  0.8128
  747MOL0     C 2981   3.424   9.056  11.022 -0.2007 -0.4447  0.1117
  747MOL0     C 2982   3.525   9.024  10.933 -0.1905  0.5667  0.4359
  747MOL0     C 2983   3.648   8.966  10.967 -1.3186  0.4119 -0.3889
  747MOL0     O 2984   3.742   8.923  10.879 -0.5753  0.0353  0.1433
  747MOL0     C 2985   3.785   9.009  10.773 -0.0539  0.2516 -0.4961
  747MOL0     C 2986   3.929   9.026  10.800  0.3213  0.1653 -1.1034
  747MOL0     C 2987   4.010   8.914  10.740 -0.3404  0.3755  0.0018
  747MOL0     C 2988   4.154   8.954  10.705 -0.0981 -0.1232  0.5017
  747MOL0     C 2989   4.253   9.000  10.817  0.4398 -1.0159 -0.0685
  747MOL0     C 2990   4.285   9.155  10.815  0.4947 -0.2952 -0.9965
  747MOL0     C 2991   4.374   9.191  10.935  0.5335 -0.2720 -0.2473
  747MOL0     C 2992   4.453   9.319  10.925  0.5241  0.1389  0.0519
  747MOL0    Cl 2993   4.558   9.324  11.068 -0.8132 -0.1203 -0.2302
  747MOL0     C 2994   3.680   8.969  11.106 -0.3264 -1.1312  0.1105
  747MOL0     C 2995   3.579   9.009  11.201  0.3573  0.2400  0.5220
  747MOL0     O 2996   3.443   9.212  11.380 -0.0116  0.4719  0.4065
  747MOL0     C 2997   3.173   9.279  11.467  0.3505  0.8645  0.6944
  747MOL0     C 2998   3.041   9.297  11.519  0.7855 -0.1222  0.3226
  747MOL0     N 2999   2.324   9.496  11.592  0.5612  0.1875 -0.2106
  747MOL0     N 3000   2.278   9.597  11.532  0.5590  1.0652  0.1058
  747MOL0     C 3001   3.388   9.904  11.204 -0.1201  0.5791 -0.0362
  747MOL0     C 3002   3.502   9.976  11.228  0.2641  0.0217  0.4090
  747MOL0     C 3003   3.808  10.261  11.438 -0.4305  0.3403 -0.4308
  747MOL0     C 3004   3.813  10.219  11.574 -0.0832 -1.1459  0.2760
  747MOL0     C 3005   3.908  10.269  11.663 -0.1198  0.1873  0.1230
  747MOL0     C 3006   4.012  10.353  11.616  0.2928 -0.1215 -0.0512
  747MOL0     O 3007   4.125  10.404  11.675  1.0891  0.2353 -0.1582
  747MOL0     C 3008   4.171  10.346  11.798  0.0100  0.0619  0.4812
  747MOL0     C 3009   4.279  10.433  11.868  0.5619 -0.1741 -0.0763
  747MOL0     C 3010   4.395  10.479  11.772  0.1925  0.6539  0.7193
  747MOL0     C 3011   4.474  10.593  11.839  0.1682 -0.2826 -1.2691
  747MOL0     C 3012   4.557  10.540  11.953 -0.5350 -0.7628 -0.4495
  747MOL0     C 3013   4.648  10.497  12.024  0.7053 -0.9567  0.4961
  747MOL0     C 3014   4.008  10.395  11.487 -0.1835  0.1170  0.3903
  747MOL0     C 3015   3.908  10.345  11.394  0.0578  0.2354  0.6255
  747MOL0     C 3016   3.912  10.401  11.252 -0.0873  0.4896 -0.1852
  747MOL0     H 3017   3.442  10.055  11.552 -2.5065  2.0966 -0.2566
  747MOL0     H 3018   3.233   9.940  11.504 -1.0399 -2.2929 -0.8284
  747MOL0     H 3019   3.057   9.914  11.392 -1.6853 -1.1600  1.6959
  747MOL0     H 3020   3.092   9.748  11.437  2.8779  2.9389  2.7661
  747MOL0     H 3021   2.943   9.846  11.186  0.2600 -1.3370  0.0624
  747MOL0     H 3022   2.980   9.678  11.227  2.2790 -0.7402  2.4102
  747MOL0     H 3023   2.826   9.669  11.405 -0.9906 -0.5231  0.0105
  747MOL0     H 3024   2.809   9.840  11.423 -1.9444  2.0277 -2.3971
  747MOL0     H 3025   2.713   9.858  11.195 -0.9152  0.3010 -0.0307
  747MOL0     H 3026   2.692   9.681  11.200  3.8117 -0.5143  1.2869
  747MOL0     H 3027   2.582   9.870  11.414 -1.4451 -0.5357  0.5289
  747MOL0     H 3028   2.546   9.702  11.402 -0.7310  0.4191  1.1842
  747MOL0     H 3029   2.484   9.910  11.192 -1.1123  1.4872  2.0699
  747MOL0     H 3030   2.449   9.731  11.176 -0.1036  2.1149 -1.7894
  747MOL0     H 3031   2.267   9.896  11.236  1.3738  0.3386 -2.1002
  747MOL0     H 3032   2.312   9.864  11.404  1.7782  0.6456  0.3286
  747MOL0     H 3033   2.138   9.708  11.317  1.4198  1.9612 -1.2015
  747MOL0     H 3034   2.238   9.639  11.204 -0.8201 -0.1443 -0.1770
  747MOL0     H 3035   2.436   9.475  11.274  1.3896  0.2951  0.4210
  747MOL0     H 3036   2.386   9.218  11.397 -0.2455  2.3099 -0.7121
  747MOL0     H 3037   2.371   9.211  11.577  0.6332 -0.8321 -0.3416
  747MOL0     H 3038   2.584   9.128  11.500  0.2918  0.1168 -2.8889
  747MOL0     H 3039   2.620   9.280  11.419  1.4278 -0.5715  0.6312
  747MOL0     H 3040   2.573   9.382  11.665  1.4050  0.3168  2.6590
  747MOL0     H 3041   2.612   9.232  11.723 -1.9934  3.3133  1.5472
  747MOL0     H 3042   2.785   9.383  11.528 -2.3245 -1.2824 -0.9134
  747MOL0     H 3043   2.805   9.392  11.704  1.6025 -1.2537  0.9915
  747MOL0     H 3044   2.971   8.965  11.552  0.9457 -0.2881 -0.2147
  747MOL0     H 3045   3.281   8.885  11.420  1.1019  3.3479 -2.9889
  747MOL0     H 3046   3.147   8.895  11.302 -1.7024  1.7506  0.5293
  747MOL0     H 3047   3.123   8.813  11.460  0.1035 -0.6656  0.2802
  747MOL0     H 3048   3.331   9.094  10.982 -0.1537 -2.7618 -2.4866
  747MOL0     H 3049   3.502   9.039  10.828  0.7749 -1.5243 -0.1265
  747MOL0     H 3050   3.773   8.965  10.673  3.6110 -1.2772 -0.4261
  747MOL0     H 3051   3.739   9.108  10.769 -1.1487 -0.1886  0.5118
  747MOL0     H 3052   3.967   9.111  10.742  2.1145 -1.1492 -1.9631
  747MOL0     H 3053   3.947   9.050  10.905 -3.2898  1.5770 -0.6824
  747MOL0     H 3054   3.964   8.876  10.649 -0.4927 -0.1451  0.2922
  747MOL0     H 3055   4.002   8.836  10.817  0.0085 -0.7706 -1.0978
  747MOL0     H 3056   4.144   9.033  10.629  0.3507 -0.4848  0.0540
  747MOL0     H 3057   4.202   8.872  10.650  0.5617  0.7976 -0.3407
  747MOL0     H 3058   4.219   8.977  10.919 -0.2397  1.5089  0.3677
  747MOL0     H 3059   4.350   8.954  10.797  1.2925  0.2553  0.9559
  747MOL0     H 3060   4.196   9.217  10.832  0.7324 -0.6003  1.8072
  747MOL0     H 3061   4.330   9.169  10.716 -2.1210 -1.5375 -2.4740
  747MOL0     H 3062   4.436   9.103  10.956  0.1001  0.0321  2.7302
  747MOL0     H 3063   4.321   9.196  11.031  3.4213  1.6879  1.4121
  747MOL0     H 3064   4.386   9.405  10.925 -1.8538 -1.6191 -0.3186
  747MOL0     H 3065   4.520   9.326  10.839  1.5755 -0.1177  0.8139
  747MOL0     H 3066   3.780   8.952  11.147 -0.5289 -2.0095  0.2688
  747MOL0     H 3067   3.608   9.012  11.306  0.0660  1.0731  0.5895
  747MOL0     H 3068   3.229   9.372  11.473  0.6171  0.7456  0.0615
  747MOL0     H 3069   3.014   9.396  11.556  0.7913 -0.7302  2.0283
  747MOL0     H 3070   3.388   9.846  11.112  1.5777  0.8277 -0.2194
  747MOL0     H 3071   3.579   9.996  11.154  1.4339  0.1494  1.6128
  747MOL0     H 3072   3.742  10.156  11.627  1.4225 -1.9545  1.4258
  747MOL0     H 3073   3.903  10.229  11.764  3.5692  1.7008  1.0658
  747MOL0     H 3074   4.084  10.324  11.861 -0.3676  0.7579  0.2067
  747MOL0     H 3075   4.216  10.250  11.770  0.4393  0.4104 -0.0399
  747MOL0     H 3076   4.312  10.379  11.957  2.1224  1.2722  0.2732
  747MOL0     H 3077   4.234  10.528  11.899 -0.4893  0.1720 -2.4193
  747MOL0     H 3078   4.459  10.397  11.740  0.5601  1.6112 -1.1074
  747MOL0     H 3079   4.353  10.522  11.681 -1.7888  1.5612  1.9683
  747MOL0     H 3080   4.410  10.670  11.883 -1.4985 -2.3799  0.1947
  747MOL0     H 3081   4.528  10.649  11.762  1.6770  2.4019  1.5375
  747MOL0     H 3082   4.718  10.445  12.086  0.3165 -0.1072  1.6729
  747MOL0     H 3083   4.086  10.459  11.447  0.7994 -0.1715  1.7564
  747MOL0     H 3084   4.002  10.452  11.218  0.4339 -0.8320 -0.8713
  747MOL0     H 3085   3.900  10.320  11.179 -1.0862  0.3116  0.1575
  747MOL0     H 3086   3.824  10.466  11.243  1.0462  1.8939 -1.5624
  748MOL0     O 3087   8.558   4.680   8.788 -0.2656  0.4171 -0.1921
  748MOL0     C 3088   8.600   4.585   8.853  0.0537  0.1246  0.7203
  748MOL0     O 3089   8.669   4.474   8.802  0.1316 -0.4332 -0.1149
  748MOL0     C 3090   8.750   4.508   8.695  0.1004 -0.4385 -0.3461
  748MOL0     C 3091   8.682   4.520   8.567  0.1642  0.8933 -0.0286
  748MOL0     C 3092   8.757   4.526   8.449  0.2748 -0.3134 -0.6336
  748MOL0     C 3093   8.899   4.550   8.451  0.7115  0.1924 -0.2925
  748MOL0     O 3094   8.977   4.574   8.346  0.5408 -0.8801  0.1604
  748MOL0     C 3095   8.909   4.586   8.218  0.7719  0.0614 -0.4418
  748MOL0     C 3096   9.013   4.581   8.108  0.4766 -0.5825 -0.2399
  748MOL0     C 3097   9.071   4.726   8.082  0.0304 -0.0369 -0.1118
  748MOL0     C 3098   9.217   4.716   8.039 -0.0232  0.2510 -0.2062
  748MOL0     C 3099   9.268   4.862   8.004  0.5147 -0.2660  1.1343
  748MOL0     C 3100   9.399   4.852   7.929  0.9391 -0.3239 -0.0842
  748MOL0     C 3101   9.445   4.995   7.922 -0.0978  0.4465 -1.0305
  748MOL0     C 3102   9.546   5.020   7.816 -0.7448  0.5541  0.6752
  748MOL0     N 3103   9.661   4.940   7.846 -1.2711  0.4095 -0.1756
  748MOL0     C 3104   9.772   4.993   7.907  0.9748  1.1555 -0.5305
  748MOL0     C 3105   9.875   4.903   7.887  0.6802 -0.5481  0.3890
  748MOL0     C 3106  10.022   4.919   7.916 -0.7449  0.3930 -0.5377
  748MOL0     C 3107  10.129   4.935   7.801  0.1992  0.4969 -0.3920
  748MOL0     C 3108  10.121   4.840   7.691 -0.5161 -0.0637  0.6460
  748MOL0     C 3109  10.228   4.871   7.593  0.0775 -0.5592  0.3891
  748MOL0     O 3110  10.358   4.893   7.655 -0.4535 -0.5713 -0.0893
  748MOL0     C 3111  10.444   4.980   7.591  0.1186 -0.1391  0.8170
  748MOL0     C 3112  10.544   5.030   7.675  0.0245  0.7738 -0.1152
  748MOL0     C 3113  10.646   5.122   7.627  0.2668  0.1751  0.4347
  748MOL0     C 3114  10.744   5.166   7.734  0.6044  0.1987  0.4142
  748MOL0     C 3115  10.643   5.166   7.493 -0.0673  0.2451  0.1211
  748MOL0     C 3116  10.744   5.249   7.429 -0.0610 -0.0591 -0.5727
  748MOL0     O 3117  10.701   5.331   7.327 -0.0386  0.0726 -0.5398
  748MOL0     C 3118  10.791   5.392   7.232  0.0090 -0.2436 -0.1309
  748MOL0     C 3119  10.928   5.372   7.223  0.2447 -0.5128  0.1475
  748MOL0     C 3120  11.003   5.432   7.127 -0.2670 -0.8997 -0.5800
  748MOL0     C 3121  10.951   5.525   7.037  0.2145  0.8027  0.8668
  748MOL0     O 3122  11.034   5.575   6.943 -0.0895 -0.3235 -0.4177
  748MOL0     C 3123  10.986   5.683   6.853  0.1051  0.4581 -0.2960
  748MOL0     C 3124  11.114   5.741   6.806  0.0757  0.3405 -0.1681
  748MOL0     C 3125  11.198   5.806   6.915 -0.4326 -0.6794  0.3358
  748MOL0     C 3126  11.323   5.881   6.854  0.1645 -0.6859  0.5175
  748MOL0     C 3127  11.422   5.939   6.962  0.0653 -0.1984  0.1881
  748MOL0     C 3128  11.555   5.970   6.889 -0.5864  0.0879 -0.1185
  748MOL0     C 3129  11.668   6.002   7.000  0.9793  0.5211  0.5441
  748MOL0     C 3130  11.789   6.083   6.941  0.1407  0.4930 -0.2530
  748MOL0    Cl 3131  11.766   6.264   6.924  0.5037 -0.2479  0.2205
  748MOL0     C 3132  10.811   5.558   7.049  0.6880  1.0311  0.2065
  748MOL0     C 3133  10.734   5.496   7.152 -0.4427 -0.3975 -0.2475
  748MOL0     O 3134  10.854   5.254   7.475 -0.2473 -0.3884 -0.2264
  748MOL0     C 3135  10.530   5.124   7.413  0.0301 -0.1065  0.3945
  748MOL0     C 3136  10.432   5.037   7.461  0.0613  0.3769  0.3394
  748MOL0     N 3137   9.817   4.802   7.814 -0.4568  0.6774 -0.6222
  748MOL0     N 3138   9.691   4.824   7.782  0.6443 -0.4628 -0.3215
  748MOL0     C 3139   8.959   4.557   8.578 -0.6428 -0.3853 -0.8287
  748MOL0     C 3140   8.886   4.525   8.699  0.6720  0.5190 -0.2722
  748MOL0     C 3141   8.579   4.598   8.996 -0.2397  0.4307  0.3325
  748MOL0     C 3142   8.671   4.540   9.084 -0.2956  0.3869 -0.0992
  748MOL0     C 3143   8.649   4.518   9.217  0.2486  1.1161 -0.3232
  748MOL0     C 3144   8.545   4.593   9.283 -0.0793 -0.5550  0.6449
  748MOL0     O 3145   8.500   4.589   9.408  0.3044  0.3427 -0.2152
  748MOL0     C 3146   8.606   4.565   9.504 -0.0802 -0.3389 -0.4652
  748MOL0     C 3147   8.555   4.566   9.648  0.6911  1.2440  0.1135
  748MOL0     C 3148   8.667   4.557   9.754  0.5340 -0.4130 -0.6600
  748MOL0     C 3149   8.763   4.672   9.747 -0.1599 -1.6260  0.4627
  748MOL0     C 3150   8.701   4.807   9.761 -0.3846  0.0522  0.1113
  748MOL0     C 3151   8.645   4.914   9.777 -0.1174 -0.5010 -0.6711
  748MOL0     C 3152   8.453   4.654   9.201  0.9203  0.7919 -0.6666
  748MOL0     C 3153   8.468   4.661   9.059 -0.3111  0.0364 -0.9527
  748MOL0     C 3154   8.361   4.722   8.983  0.0314  0.0459  0.0588
  748MOL0     H 3155   8.575   4.518   8.551  0.3506  0.3860 -1.3432
  748MOL0     H 3156   8.705   4.527   8.354  0.4741  0.0363 -0.7387
  748MOL0     H 3157   8.839   4.669   8.217 -2.8042 -2.6854 -1.6609
  748MOL0     H 3158   8.841   4.508   8.181  1.2190  0.7074 -2.7899
  748MOL0     H 3159   9.094   4.513   8.135 -1.1143 -2.6704 -0.4225
  748MOL0     H 3160   8.960   4.540   8.021  0.0104  2.3829 -1.4520
  748MOL0     H 3161   9.017   4.764   7.996  3.2378 -0.5115 -2.5202
  748MOL0     H 3162   9.060   4.791   8.169  2.1777 -0.7724  0.7884
  748MOL0     H 3163   9.277   4.662   8.113 -0.6215 -0.8103 -0.4841
  748MOL0     H 3164   9.223   4.649   7.953  0.7660 -2.0525  1.5420
  748MOL0     H 3165   9.284   4.924   8.093  0.2784 -1.1642  1.8159
  748MOL0     H 3166   9.202   4.917   7.936  1.5983  0.7982  0.9191
  748MOL0     H 3167   9.478   4.789   7.971 -1.0956 -2.7008  0.3981
  748MOL0     H 3168   9.371   4.817   7.829  0.0569  1.6771 -0.5868
  748MOL0     H 3169   9.485   5.032   8.017 -0.6075 -0.4532 -0.4427
  748MOL0     H 3170   9.358   5.053   7.891 -0.4810 -1.2111 -3.3741
  748MOL0     H 3171   9.508   4.999   7.716 -2.4971 -0.7456  1.5657
  748MOL0     H 3172   9.572   5.127   7.822  4.1243 -0.3910  0.8055
  748MOL0     H 3173   9.779   5.086   7.962  1.8291  0.7565  0.0625
  748MOL0     H 3174  10.052   4.824   7.962  0.2407 -1.7932 -5.0990
  748MOL0     H 3175  10.038   4.993   7.995  0.8049  0.4771 -0.8948
  748MOL0     H 3176  10.096   5.033   7.764 -3.6103 -0.3090  0.4555
  748MOL0     H 3177  10.225   4.947   7.852  0.6736  1.8266 -1.5448
  748MOL0     H 3178  10.134   4.743   7.740 -0.8494 -0.5617 -0.2238
  748MOL0     H 3179  10.023   4.839   7.642  0.6048 -1.9958 -1.7447
  748MOL0     H 3180  10.233   4.785   7.525  1.0861  1.2188 -1.9204
  748MOL0     H 3181  10.197   4.963   7.543  3.6954  1.6596  1.8585
  748MOL0     H 3182  10.543   5.006   7.780  1.6677  1.1731  0.0131
  748MOL0     H 3183  10.724   5.273   7.745 -4.0866 -0.4951  0.5603
  748MOL0     H 3184  10.848   5.143   7.709  0.9934  0.9532  1.2909
  748MOL0     H 3185  10.709   5.122   7.828 -1.1952  2.3161  0.8295
  748MOL0     H 3186  10.990   5.303   7.280 -1.7957 -1.7185  0.9860
  748MOL0     H 3187  11.112   5.423   7.129 -0.2551 -0.8317  1.3115
  748MOL0     H 3188  10.929   5.642   6.770 -2.4577  2.5570  0.2796
  748MOL0     H 3189  10.939   5.770   6.899  1.5525  1.3472 -0.4294
  748MOL0     H 3190  11.168   5.664   6.749  1.1181 -0.1386  1.3844
  748MOL0     H 3191  11.092   5.817   6.731 -0.6408  0.3807  0.0820
  748MOL0     H 3192  11.219   5.734   6.994 -1.4611  1.7665  3.0066
  748MOL0     H 3193  11.139   5.882   6.967  1.2922  0.6533  0.4403
  748MOL0     H 3194  11.293   5.963   6.787 -0.5730  0.0039  1.6491
  748MOL0     H 3195  11.370   5.807   6.789  1.5703  0.4519  0.2027
  748MOL0     H 3196  11.379   6.026   7.013 -1.0378 -0.8085  0.3331
  748MOL0     H 3197  11.420   5.863   7.040 -1.2321 -0.7410 -0.3376
  748MOL0     H 3198  11.547   6.067   6.838  0.0793  0.5608  0.6317
  748MOL0     H 3199  11.586   5.883   6.831  1.0947  0.3112  0.3870
  748MOL0     H 3200  11.699   5.901   7.029  1.2594 -0.4031 -2.6843
  748MOL0     H 3201  11.621   6.058   7.082 -0.4121 -1.0299  0.8761
  748MOL0     H 3202  11.817   6.036   6.846  1.3327 -2.3516  1.3628
  748MOL0     H 3203  11.862   6.061   7.020  0.4702 -0.3176 -0.7618
  748MOL0     H 3204  10.749   5.634   7.002 -2.1422 -1.9701 -1.3881
  748MOL0     H 3205  10.633   5.528   7.174 -0.8098 -3.5987  4.1037
  748MOL0     H 3206  10.527   5.144   7.306  0.1460 -1.0269  0.2071
  748MOL0     H 3207  10.348   5.007   7.399 -0.6338  0.0158  1.4338
  748MOL0     H 3208   9.065   4.573   8.559 -0.2945 -1.8398 -0.3126
  748MOL0     H 3209   8.937   4.516   8.794  0.8302  2.1531 -0.1793
  748MOL0     H 3210   8.763   4.492   9.051 -1.4111 -1.2515 -0.9414
  748MOL0     H 3211   8.719   4.466   9.281 -1.3574  3.4308  3.6344
  748MOL0     H 3212   8.671   4.478   9.488  3.0905  1.0740  3.1710
  748MOL0     H 3213   8.669   4.653   9.490 -4.9020  3.3012 -1.9121
  748MOL0     H 3214   8.470   4.497   9.655 -0.2678  2.2044 -1.4779
  748MOL0     H 3215   8.513   4.666   9.665 -0.9645  0.3301  1.8629
  748MOL0     H 3216   8.614   4.562   9.849  0.8616 -0.6711 -0.4601
  748MOL0     H 3217   8.721   4.464   9.735 -1.7202 -1.4274 -2.5883
  748MOL0     H 3218   8.825   4.685   9.658 -2.3661  0.1986 -0.9022
  748MOL0     H 3219   8.830   4.658   9.832  1.3938  1.1604 -0.1803
  748MOL0     H 3220   8.587   5.002   9.795  2.7748  1.0409  2.3692
  748MOL0     H 3221   8.363   4.698   9.243 -1.3337 -0.6530 -3.5907
  748MOL0     H 3222   8.273   4.734   9.047 -0.2014 -0.3003 -0.1909
  748MOL0     H 3223   8.389   4.822   8.948 -1.4434  0.4260 -0.1414
  748MOL0     H 3224   8.340   4.670   8.890  2.4051  0.1533 -0.5995
  749MOL0     O 3225   1.930   1.561   3.705 -0.0966 -0.2160  0.4723
  749MOL0     C 3226   1.814   1.586   3.739  0.2179 -0.1460  0.9891
  749MOL0     O 3227   1.782   1.659   3.851 -0.2388  0.1587 -0.6899
  749MOL0     C 3228   1.890   1.716   3.911 -0.2001 -0.5557  0.6405
  749MOL0     C 3229   1.934   1.838   3.862  0.2118  0.3387  0.1188
  749MOL0     C 3230   2.033   1.910   3.927 -0.3193 -0.1435 -0.2655
  749MOL0     C 3231   2.111   1.836   4.033 -0.1883 -1.2017  0.2411
  749MOL0     O 3232   2.222   1.888   4.094 -0.1171  0.3184  0.4375
  749MOL0     C 3233   2.238   2.031   4.079 -0.3623  1.1553  0.2422
  749MOL0     C 3234   2.351   2.060   4.177  0.4141 -0.0942 -0.0662
  749MOL0     C 3235   2.409   2.201   4.170  0.2965  0.5518  0.1262
  749MOL0     C 3236   2.530   2.221   4.075  0.0716 -0.0715 -0.0509
  749MOL0     C 3237   2.579   2.364   4.092  0.6573 -0.9011 -0.2787
  749MOL0     C 3238   2.709   2.383   4.015  0.4390  0.4000  0.0833
  749MOL0     C 3239   2.737   2.525   3.997  0.1456  0.3511 -0.4509
  749MOL0     C 3240   2.800   2.601   4.117 -0.5289  0.0409  0.1110
  749MOL0     N 3241   2.915   2.684   4.066 -0.1332  0.2888  0.4636
  749MOL0     C 3242   2.952   2.717   3.934  0.1329  0.7147 -0.1818
  749MOL0     C 3243   3.084   2.768   3.935  0.2259 -0.7459 -0.5984
  749MOL0     C 3244   3.166   2.814   3.815  0.2231  0.2351 -0.9870
  749MOL0     C 3245   3.259   2.704   3.762 -1.2005  0.4894 -0.1910
  749MOL0     C 3246   3.317   2.733   3.622  0.1231 -0.1870 -0.4397
  749MOL0     C 3247   3.219   2.749   3.511 -0.2118 -0.1376  0.9091
  749MOL0     O 3248   3.101   2.664   3.526 -0.1835  0.2965  0.5637
  749MOL0     C 3249   2.998   2.676   3.430 -0.4667 -0.0123 -0.4192
  749MOL0     C 3250   2.902   2.578   3.435 -0.0988 -0.2956 -0.7430
  749MOL0     C 3251   2.796   2.575   3.338 -0.4891  0.0585 -0.2229
  749MOL0     C 3252   2.684   2.474   3.363  0.3830 -0.6402 -0.3743
  749MOL0     C 3253   2.790   2.672   3.234 -0.4255 -0.4609  0.1886
  749MOL0     C 3254   2.705   2.666   3.105 -0.2965  0.1156 -0.1904
  749MOL0     O 3255   2.733   2.757   3.004 -0.4096  0.5301 -0.2730
  749MOL0     C 3256   2.668   2.752   2.888  0.4506 -0.1113  0.5455
  749MOL0     C 3257   2.524   2.743   2.875  0.5329 -0.2635  0.2985
  749MOL0     C 3258   2.466   2.772   2.747 -0.1978  0.0227 -0.5830
  749MOL0     C 3259   2.543   2.802   2.639 -0.2075 -0.9616 -0.5862
  749MOL0     O 3260   2.496   2.819   2.508  0.4070  0.4895  0.0114
  749MOL0     C 3261   2.353   2.822   2.476 -0.3454  0.0327 -0.8678
  749MOL0     C 3262   2.332   2.894   2.334 -0.2624  0.6460 -0.2227
  749MOL0     C 3263   2.365   3.043   2.337 -0.2689 -0.2438  0.7970
  749MOL0     C 3264   2.245   3.111   2.403  0.4021 -0.6738 -0.5674
  749MOL0     C 3265   2.209   3.238   2.320 -0.0449  0.2919  0.6087
  749MOL0     C 3266   2.051   3.262   2.324 -0.3470 -1.2469  0.8447
  749MOL0     C 3267   1.985   3.358   2.217 -0.1848 -0.2680 -0.5836
  749MOL0     C 3268   2.061   3.489   2.190 -0.5889  0.7545 -0.9236
  749MOL0    Cl 3269   2.079   3.580   2.346 -0.1306 -0.1142  0.2579
  749MOL0     C 3270   2.680   2.807   2.658 -0.5960 -1.2469  0.1864
  749MOL0     C 3271   2.742   2.792   2.781 -0.1265  1.5164  1.0852
  749MOL0     O 3272   2.616   2.585   3.104  0.6069 -0.4139  0.6268
  749MOL0     C 3273   2.901   2.756   3.231  0.1339  0.1696  0.7324
  749MOL0     C 3274   3.001   2.761   3.327  0.4371 -0.3230 -0.1430
  749MOL0     N 3275   3.118   2.771   4.073 -0.1974  0.9462  0.4770
  749MOL0     N 3276   3.020   2.722   4.143  0.2710 -0.0919  0.7368
  749MOL0     C 3277   2.074   1.711   4.073 -0.3909 -0.2986  0.4791
  749MOL0     C 3278   1.965   1.653   4.006  0.2871  0.1409 -0.7319
  749MOL0     C 3279   1.701   1.523   3.660  0.0052  0.4330  0.1544
  749MOL0     C 3280   1.587   1.598   3.640 -0.4984 -0.2105  0.1102
  749MOL0     C 3281   1.474   1.548   3.572 -0.9188  0.2486 -0.4746
  749MOL0     C 3282   1.482   1.421   3.523  0.3779 -0.1576 -0.3764
  749MOL0     O 3283   1.369   1.367   3.459  0.3219 -0.2763 -0.0265
  749MOL0     C 3284   1.336   1.224   3.490 -0.2089  0.5961 -0.5241
  749MOL0     C 3285   1.184   1.196   3.474 -0.2340  0.0715 -0.1739
  749MOL0     C 3286   1.144   1.201   3.326 -0.0099 -0.3905  0.1219
  749MOL0     C 3287   1.003   1.177   3.287 -0.2014 -0.3430 -0.0607
  749MOL0     C 3288   0.961   1.034   3.282 -0.7147  0.3640  0.3578
  749MOL0     C 3289   0.923   0.919   3.283 -0.1486  0.6405  0.0107
  749MOL0     C 3290   1.594   1.344   3.551  0.6433  0.0369 -0.3778
  749MOL0     C 3291   1.708   1.389   3.616  0.8357 -0.1067  0.1238
  749MOL0     C 3292   1.816   1.292   3.634 -0.8651 -0.0135 -0.5000
  749MOL0     H 3293   1.878   1.881   3.779 -0.2442  1.3583  0.9450
  749MOL0     H 3294   2.040   2.015   3.900 -2.1066  0.3856  1.1245
  749MOL0     H 3295   2.151   2.090   4.106 -0.2179  1.0903  0.8570
  749MOL0     H 3296   2.260   2.060   3.975 -2.8143  0.0448 -0.6526
  749MOL0     H 3297   2.311   2.054   4.279  0.9358  1.1159  0.2258
  749MOL0     H 3298   2.421   1.977   4.159  2.3651  1.3089  0.7595
  749MOL0     H 3299   2.336   2.269   4.124 -0.1100  0.2433  0.3178
  749MOL0     H 3300   2.438   2.232   4.271 -1.8387  0.0059  0.9542
  749MOL0     H 3301   2.607   2.153   4.111 -1.3976 -1.2334  1.0225
  749MOL0     H 3302   2.510   2.196   3.971  0.4215  1.6830 -0.5836
  749MOL0     H 3303   2.595   2.396   4.195 -0.1138  2.4825 -1.1073
  749MOL0     H 3304   2.502   2.427   4.047  1.9533  1.1505  0.2315
  749MOL0     H 3305   2.795   2.325   4.050 -2.5514 -3.1039  2.3878
  749MOL0     H 3306   2.692   2.346   3.914 -0.7138  0.5438  0.2127
  749MOL0     H 3307   2.646   2.581   3.974  0.4424  2.5919  3.1291
  749MOL0     H 3308   2.806   2.528   3.912  0.2383 -1.1270 -0.4551
  749MOL0     H 3309   2.719   2.658   4.163 -1.4574 -0.2818 -1.0740
  749MOL0     H 3310   2.835   2.524   4.186 -1.2534 -3.6928 -3.2846
  749MOL0     H 3311   2.885   2.695   3.852 -3.1206  0.6061  2.2843
  749MOL0     H 3312   3.215   2.905   3.850 -1.1265  0.7215 -0.3241
  749MOL0     H 3313   3.091   2.838   3.740  0.5237  1.1318 -1.0039
  749MOL0     H 3314   3.340   2.679   3.830 -1.1361 -2.1800 -1.1343
  749MOL0     H 3315   3.212   2.607   3.745  0.8161 -0.5943  0.1015
  749MOL0     H 3316   3.380   2.822   3.626  0.9758 -0.7988  0.0216
  749MOL0     H 3317   3.395   2.662   3.592  0.2347  0.9853 -3.2939
  749MOL0     H 3318   3.207   2.858   3.506  0.6409 -0.0797 -0.1151
  749MOL0     H 3319   3.274   2.719   3.421 -0.3896  0.2583  0.6652
  749MOL0     H 3320   2.911   2.505   3.515  1.2135 -1.3293 -1.8020
  749MOL0     H 3321   2.714   2.411   3.448 -0.9152 -2.3825 -1.1614
  749MOL0     H 3322   2.670   2.416   3.272  1.0080  2.0749 -2.3441
  749MOL0     H 3323   2.591   2.523   3.393  0.7517 -0.1763  0.0552
  749MOL0     H 3324   2.455   2.732   2.957 -1.1823 -4.0137 -1.4173
  749MOL0     H 3325   2.362   2.744   2.738  0.2050 -1.4539 -0.8422
  749MOL0     H 3326   2.318   2.719   2.470 -0.5622  0.1070 -0.8987
  749MOL0     H 3327   2.298   2.872   2.556  0.7394 -0.1639  0.0172
  749MOL0     H 3328   2.406   2.844   2.271  0.5790  0.5766  0.7899
  749MOL0     H 3329   2.233   2.880   2.290 -0.2120  3.0781 -1.2866
  749MOL0     H 3330   2.370   3.082   2.235 -0.3983  1.1064  1.2944
  749MOL0     H 3331   2.460   3.061   2.388 -1.0239  2.2742  1.4310
  749MOL0     H 3332   2.267   3.134   2.508  0.4799 -2.8584 -0.0700
  749MOL0     H 3333   2.159   3.044   2.414 -0.3856  0.4189  0.2226
  749MOL0     H 3334   2.266   3.325   2.353 -0.2550  0.5612  0.2671
  749MOL0     H 3335   2.234   3.220   2.216  1.3633 -1.9354  1.2774
  749MOL0     H 3336   2.049   3.322   2.415  0.7860 -1.5678  1.1024
  749MOL0     H 3337   1.998   3.167   2.331  2.8289 -3.2623 -0.1230
  749MOL0     H 3338   1.881   3.375   2.244 -0.8453  0.9349 -3.4516
  749MOL0     H 3339   1.996   3.310   2.119  2.4602  1.3522 -1.2073
  749MOL0     H 3340   2.016   3.551   2.112  1.3331  2.0553 -1.0874
  749MOL0     H 3341   2.165   3.478   2.159 -0.8385 -2.1028 -0.9437
  749MOL0     H 3342   2.743   2.839   2.576  0.0437  2.5038  1.9288
  749MOL0     H 3343   2.850   2.805   2.777 -0.1282  1.5151  1.0407
  749MOL0     H 3344   2.907   2.837   3.158  1.5780 -2.1933 -1.9920
  749MOL0     H 3345   3.075   2.837   3.304 -1.0788  0.5564 -2.4952
  749MOL0     H 3346   2.117   1.654   4.155 -1.9437 -1.8835  0.2526
  749MOL0     H 3347   1.937   1.555   4.042  0.5913  0.3788  0.1778
  749MOL0     H 3348   1.596   1.701   3.674 -2.2110  0.4231 -1.2068
  749MOL0     H 3349   1.379   1.598   3.554 -0.9905  0.1199 -0.4539
  749MOL0     H 3350   1.394   1.165   3.418  1.0017  0.8637  0.2177
  749MOL0     H 3351   1.367   1.188   3.588  0.4214 -2.5402 -1.7346
  749MOL0     H 3352   1.124   1.266   3.533 -1.0047 -2.6461  2.5948
  749MOL0     H 3353   1.161   1.099   3.521 -0.7279 -0.6718 -1.8966
  749MOL0     H 3354   1.175   1.301   3.294  0.6749 -0.0730  1.7010
  749MOL0     H 3355   1.205   1.123   3.279  1.2031  0.1274  0.7846
  749MOL0     H 3356   0.979   1.214   3.187 -2.5435  0.6795  0.8105
  749MOL0     H 3357   0.935   1.221   3.361  0.6818 -1.2036  1.3118
  749MOL0     H 3358   0.881   0.820   3.281  0.7034  0.2286  1.1593
  749MOL0     H 3359   1.591   1.252   3.494  1.0962  0.4023 -1.0059
  749MOL0     H 3360   1.784   1.187   3.638  0.9252 -0.5816  3.0927
  749MOL0     H 3361   1.892   1.316   3.559  0.6420 -3.7490 -0.4108
  749MOL0     H 3362   1.854   1.308   3.735 -1.4412 -3.0573  0.3206
  750MOL0     O 3363  10.309   3.083   6.433  1.0220 -0.0561  0.9006
  750MOL0     C 3364  10.316   3.106   6.307 -0.6714 -0.3227  0.5964
  750MOL0     O 3365  10.432   3.116   6.236 -0.2579 -0.0188 -0.2843
  750MOL0     C 3366  10.541   3.081   6.313 -1.1719 -0.2236  0.4592
  750MOL0     C 3367  10.584   2.958   6.359  0.4890  0.7536 -0.3607
  750MOL0     C 3368  10.710   2.934   6.416 -0.1657  0.9152 -0.0527
  750MOL0     C 3369  10.803   3.033   6.417  0.5044 -0.5195 -0.7601
  750MOL0     O 3370  10.931   2.997   6.453 -0.2316 -0.2213 -0.1928
  750MOL0     C 3371  10.979   3.049   6.587 -0.1628 -0.3300  0.4559
  750MOL0     C 3372  11.081   2.950   6.646 -0.3518 -0.0761 -0.1761
  750MOL0     C 3373  11.121   3.016   6.777 -0.5997  0.2750 -0.8537
  750MOL0     C 3374  11.212   2.913   6.851 -0.0740 -0.2038  0.5873
  750MOL0     C 3375  11.306   2.973   6.956 -0.8351  0.0959  1.1707
  750MOL0     C 3376  11.409   3.066   6.884  0.4768  0.6280  0.4549
  750MOL0     C 3377  11.529   3.107   6.980 -0.8045  0.1462  0.0866
  750MOL0     C 3378  11.492   3.217   7.086 -0.0739  1.4084  0.1254
  750MOL0     N 3379  11.606   3.255   7.166  0.3210 -0.2291 -0.2849
  750MOL0     C 3380  11.645   3.189   7.279 -0.3352 -0.3219 -0.6828
  750MOL0     C 3381  11.727   3.274   7.346  0.2256  0.6047 -0.8941
  750MOL0     C 3382  11.785   3.254   7.488  0.0684 -0.2374  0.0866
  750MOL0     C 3383  11.872   3.373   7.536 -0.5759 -0.5253  0.4917
  750MOL0     C 3384  11.925   3.349   7.679  0.2548 -0.2865  0.0016
  750MOL0     C 3385  12.032   3.446   7.712 -0.2233 -0.7258  0.6673
  750MOL0     O 3386  12.133   3.454   7.608  0.2090 -0.1875  0.5601
  750MOL0     C 3387  12.248   3.489   7.670 -0.7146 -0.9145  0.4420
  750MOL0     C 3388  12.271   3.589   7.762 -0.2706 -0.2753  0.9787
  750MOL0     C 3389  12.403   3.624   7.800  0.1351 -0.2079 -0.1033
  750MOL0     C 3390  12.412   3.747   7.897  0.0451  0.2068 -0.1885
  750MOL0     C 3391  12.511   3.575   7.729  0.5479 -0.1260 -0.1042
  750MOL0     C 3392  12.650   3.603   7.754  0.4647  1.1335 -0.1485
  750MOL0     O 3393  12.736   3.534   7.685 -0.1403  0.9417  0.5165
  750MOL0     C 3394  12.869   3.552   7.703 -0.3048 -0.3374  0.2744
  750MOL0     C 3395  12.951   3.641   7.638  0.7584 -1.0586  0.5881
  750MOL0     C 3396  13.087   3.660   7.674  0.4265 -0.0820  0.1182
  750MOL0     C 3397  13.144   3.583   7.772 -0.4387  1.0567  0.0106
  750MOL0     O 3398  13.273   3.609   7.809 -0.1517 -0.2319  0.5615
  750MOL0     C 3399  13.324   3.564   7.941 -0.0721 -0.1354  0.5277
  750MOL0     C 3400  13.441   3.652   8.000  0.0923  0.3846 -0.3270
  750MOL0     C 3401  13.405   3.802   8.006  0.9456  0.3261 -0.0723
  750MOL0     C 3402  13.524   3.897   8.052  0.6374  0.6218  0.5478
  750MOL0     C 3403  13.464   4.044   8.080 -0.5939 -0.4127  0.7398
  750MOL0     C 3404  13.572   4.146   8.129 -0.9579 -0.2061  0.1889
  750MOL0     C 3405  13.629   4.231   8.012  0.6800  0.4628  0.8784
  750MOL0     C 3406  13.717   4.170   7.899 -0.7637 -0.7424  0.5723
  750MOL0    Cl 3407  13.868   4.092   7.945  0.1766  0.4708  0.3353
  750MOL0     C 3408  13.069   3.477   7.837 -0.2637 -0.5785  0.2055
  750MOL0     C 3409  12.931   3.470   7.803 -0.0469 -0.4373  0.4024
  750MOL0     O 3410  12.667   3.694   7.829 -0.4174 -0.9742 -0.1778
  750MOL0     C 3411  12.481   3.474   7.632 -0.3545 -0.9964 -0.3072
  750MOL0     C 3412  12.359   3.427   7.613  0.3731 -0.3900 -0.3873
  750MOL0     N 3413  11.738   3.392   7.276  0.0727 -0.1608  0.4077
  750MOL0     N 3414  11.658   3.384   7.167 -0.7598 -0.2773 -0.4103
  750MOL0     C 3415  10.763   3.154   6.366 -0.3465 -0.1311 -0.3512
  750MOL0     C 3416  10.638   3.179   6.317  0.3615 -0.3911  0.1232
  750MOL0     C 3417  10.191   3.126   6.227  0.1834  0.1782  0.2374
  750MOL0     C 3418  10.066   3.055   6.259  0.0144 -0.5127  0.5103
  750MOL0     C 3419   9.955   3.067   6.180 -0.1579  0.4581 -0.1613
  750MOL0     C 3420   9.954   3.160   6.068  0.4140 -0.1809  0.1789
  750MOL0     O 3421   9.851   3.186   5.978  0.8835 -0.3075 -0.3417
  750MOL0     C 3422   9.734   3.101   5.983  0.1735  0.3617 -0.0825
  750MOL0     C 3423   9.645   3.172   6.080  0.1726  0.6851  0.2410
  750MOL0     C 3424   9.614   3.311   6.028 -0.4968 -0.3353 -0.1402
  750MOL0     C 3425   9.556   3.403   6.133 -0.0451 -0.2994 -0.3982
  750MOL0     C 3426   9.515   3.524   6.068  0.4455 -1.9914 -0.2779
  750MOL0     C 3427   9.476   3.629   6.015 -0.2262  0.7453 -0.4185
  750MOL0     C 3428  10.071   3.229   6.045  0.7759  0.1193  0.6055
  750MOL0     C 3429  10.184   3.228   6.121  0.2283  0.1944  0.2519
  750MOL0     C 3430  10.302   3.314   6.073 -0.2353  0.3524  0.0852
  750MOL0     H 3431  10.511   2.878   6.354  0.0024  1.2266 -0.9543
  750MOL0     H 3432  10.729   2.837   6.460  1.6723  1.0063 -0.5483
  750MOL0     H 3433  10.893   3.076   6.649 -1.6190 -0.5216 -1.3700
  750MOL0     H 3434  11.032   3.141   6.563 -1.5548  0.4602  0.3002
  750MOL0     H 3435  11.029   2.857   6.667  2.2107 -1.3747  0.8145
  750MOL0     H 3436  11.166   2.942   6.577 -3.1247  0.3662 -3.9647
  750MOL0     H 3437  11.181   3.106   6.758 -0.4435  0.3328 -0.1030
  750MOL0     H 3438  11.036   3.039   6.842  0.7446 -0.7092  1.3464
  750MOL0     H 3439  11.150   2.846   6.911  1.5665 -0.5249  2.0186
  750MOL0     H 3440  11.269   2.855   6.778 -0.0175  0.2421  0.2732
  750MOL0     H 3441  11.364   2.894   7.005  0.2816  1.4133  2.0704
  750MOL0     H 3442  11.251   3.026   7.034  2.0149  2.2038  1.9314
  750MOL0     H 3443  11.457   3.013   6.801  2.6932  1.5151  1.0976
  750MOL0     H 3444  11.363   3.159   6.848  1.9893  0.5502 -1.8566
  750MOL0     H 3445  11.606   3.154   6.919 -0.4043 -0.2391  0.2956
  750MOL0     H 3446  11.570   3.020   7.032 -0.3539  0.4229  0.1965
  750MOL0     H 3447  11.458   3.305   7.030  0.1050  0.7014 -1.1384
  750MOL0     H 3448  11.411   3.180   7.149 -0.9919  0.5518 -1.4896
  750MOL0     H 3449  11.609   3.090   7.306  2.0483 -1.1150 -0.2365
  750MOL0     H 3450  11.850   3.166   7.494  1.7013  0.7385 -1.8422
  750MOL0     H 3451  11.708   3.244   7.565 -0.0192  3.0052  0.5514
  750MOL0     H 3452  11.947   3.395   7.459 -0.1421 -0.7472  0.8508
  750MOL0     H 3453  11.807   3.460   7.543  1.2321  1.1333 -1.7196
  750MOL0     H 3454  11.836   3.370   7.739 -2.2124 -1.6198 -2.8893
  750MOL0     H 3455  11.970   3.250   7.688  3.4611  0.8698 -1.6967
  750MOL0     H 3456  12.001   3.550   7.717 -1.1337 -0.9075 -0.7585
  750MOL0     H 3457  12.065   3.420   7.813 -0.7647 -1.1784  0.7339
  750MOL0     H 3458  12.184   3.633   7.811 -0.6173 -0.0971  0.2104
  750MOL0     H 3459  12.314   3.775   7.935 -0.0181 -0.4084  0.1205
  750MOL0     H 3460  12.453   3.835   7.846 -1.2384  2.3294  2.1879
  750MOL0     H 3461  12.477   3.722   7.981 -2.4185 -0.9977  1.4696
  750MOL0     H 3462  12.907   3.707   7.564  1.1189  0.8823  2.0143
  750MOL0     H 3463  13.155   3.724   7.618  1.6575 -1.9256 -0.5748
  750MOL0     H 3464  13.237   3.568   8.006  0.2473 -2.4285  1.1683
  750MOL0     H 3465  13.345   3.459   7.918 -0.2033  0.4345 -2.7621
  750MOL0     H 3466  13.470   3.621   8.100  0.5708  2.3832  0.2092
  750MOL0     H 3467  13.526   3.632   7.933 -0.0517  1.6761 -0.9389
  750MOL0     H 3468  13.321   3.812   8.075  0.2304 -0.0431 -0.8645
  750MOL0     H 3469  13.382   3.832   7.903  0.5823  1.4688  0.3198
  750MOL0     H 3470  13.599   3.910   7.973  0.4808 -0.4026  0.2205
  750MOL0     H 3471  13.571   3.841   8.133 -0.5603 -1.6238 -0.2405
  750MOL0     H 3472  13.421   4.083   7.988 -0.5012 -0.4496  0.6802
  750MOL0     H 3473  13.385   4.025   8.153  0.9321 -2.9177  1.8994
  750MOL0     H 3474  13.650   4.101   8.192 -0.5442 -1.2814 -1.0510
  750MOL0     H 3475  13.520   4.222   8.190  2.9085  2.0252  1.0591
  750MOL0     H 3476  13.696   4.299   8.066 -0.0826  1.5172  0.5308
  750MOL0     H 3477  13.551   4.287   7.960  1.3331  1.2994  0.7632
  750MOL0     H 3478  13.739   4.256   7.834 -2.3364 -2.0239 -1.8199
  750MOL0     H 3479  13.660   4.102   7.834  3.4346 -0.6658 -3.8047
  750MOL0     H 3480  13.117   3.404   7.902  1.9099  0.0370 -0.6061
  750MOL0     H 3481  12.879   3.391   7.856  2.1956  0.2142  3.9286
  750MOL0     H 3482  12.564   3.424   7.584  1.1474 -0.4608  1.5729
  750MOL0     H 3483  12.335   3.346   7.545 -0.1637  0.0202 -0.6953
  750MOL0     H 3484  10.838   3.233   6.367 -0.5426  0.1029  2.0244
  750MOL0     H 3485  10.633   3.278   6.271  0.4639 -1.1595 -1.6025
  750MOL0     H 3486  10.064   2.990   6.346  1.4700 -2.8227 -1.0822
  750MOL0     H 3487   9.864   3.020   6.213  0.3337  0.1231  0.7447
  750MOL0     H 3488   9.685   3.110   5.886 -1.5227  0.6278  0.7670
  750MOL0     H 3489   9.761   2.997   6.002  1.3386  0.0737 -2.7568
  750MOL0     H 3490   9.692   3.187   6.177  2.4217 -0.4794 -0.6100
  750MOL0     H 3491   9.553   3.112   6.080 -0.3416  0.9249 -5.1274
  750MOL0     H 3492   9.704   3.358   5.987  0.7646 -1.1231  1.6173
  750MOL0     H 3493   9.541   3.303   5.947 -0.4900  1.0269 -0.3152
  750MOL0     H 3494   9.633   3.434   6.205 -0.9742 -0.8581  0.8632
  750MOL0     H 3495   9.474   3.357   6.187  0.1476 -0.5120 -0.2875
  750MOL0     H 3496   9.425   3.717   5.979 -0.2381  1.5632  1.4510
  750MOL0     H 3497  10.069   3.295   5.959  1.5189 -2.6940 -1.7231
  750MOL0     H 3498  10.357   3.261   5.994 -0.7555  1.2004 -0.8592
  750MOL0     H 3499  10.270   3.409   6.031  0.9235  0.6325 -0.2183
  750MOL0     H 3500  10.381   3.329   6.147  0.7241 -0.3347 -0.7537
  751MOL0     O 3501   7.679   9.975   0.091  0.5379  0.6446  0.3936
  751MOL0     C 3502   7.725  10.043   0.005 -0.1533  0.1283 -0.0062
  751MOL0     O 3503   7.655  10.104  -0.095  0.0122 -0.9468  0.3001
  751MOL0     C 3504   7.523  10.080  -0.101 -0.5827 -0.2986 -0.8474
  751MOL0     C 3505   7.476   9.966  -0.162  0.0762  0.2493 -0.0725
  751MOL0     C 3506   7.342   9.949  -0.169  1.6948 -0.0300  1.1114
  751MOL0     C 3507   7.249  10.040  -0.115  0.4346 -0.3319  0.0068
  751MOL0     O 3508   7.111  10.011  -0.136  0.2680  0.5788 -1.0448
  751MOL0     C 3509   7.026  10.122  -0.119  0.2730 -0.4044 -1.0666
  751MOL0     C 3510   6.891  10.071  -0.174  0.5340  0.6281 -0.1244
  751MOL0     C 3511   6.782  10.182  -0.164 -1.2680 -0.8676 -0.5356
  751MOL0     C 3512   6.649  10.122  -0.205  0.1371 -0.8060 -1.1726
  751MOL0     C 3513   6.529  10.204  -0.145  0.3268  0.0549 -0.6513
  751MOL0     C 3514   6.394  10.154  -0.182 -0.4205 -0.2276  0.5347
  751MOL0     C 3515   6.338  10.040  -0.090  0.4249  0.1388  0.0035
  751MOL0     C 3516   6.185  10.031  -0.095 -0.5591  0.1164  0.4006
  751MOL0     N 3517   6.143   9.987  -0.232  0.5014  0.4737  0.3515
  751MOL0     C 3518   6.126  10.065  -0.345  0.7851  0.2946 -0.1738
  751MOL0     C 3519   6.098   9.969  -0.432 -0.6494 -0.1944  0.7677
  751MOL0     C 3520   6.089   9.974  -0.576 -0.0013 -0.5991 -0.4916
  751MOL0     C 3521   6.235   9.969  -0.638 -0.4588 -0.2282 -0.7638
  751MOL0     C 3522   6.304  10.103  -0.634 -0.2404 -0.2704  0.3072
  751MOL0     C 3523   6.456  10.105  -0.604  0.2346 -0.7337 -0.0733
  751MOL0     O 3524   6.512  10.240  -0.609 -0.2519 -0.8353  0.1125
  751MOL0     C 3525   6.642  10.257  -0.571  0.0667  0.0373 -0.7477
  751MOL0     C 3526   6.691  10.367  -0.506 -0.8766 -0.1116  0.0181
  751MOL0     C 3527   6.829  10.396  -0.476  0.4168  0.1023 -0.0062
  751MOL0     C 3528   6.852  10.531  -0.402 -0.0873  0.3487  0.5268
  751MOL0     C 3529   6.921  10.292  -0.508  0.0378 -0.0752  0.4125
  751MOL0     C 3530   7.068  10.310  -0.491  0.5199 -0.4235  0.1061
  751MOL0     O 3531   7.144  10.209  -0.546 -0.8115  0.4117 -0.3728
  751MOL0     C 3532   7.281  10.224  -0.537 -0.8265  0.3038  0.2157
  751MOL0     C 3533   7.343  10.239  -0.660  0.6093 -0.4493  0.4872
  751MOL0     C 3534   7.477  10.235  -0.674  0.0555  0.4068 -0.2721
  751MOL0     C 3535   7.555  10.212  -0.554  0.0437 -0.0465  0.6935
  751MOL0     O 3536   7.692  10.204  -0.567  0.0465  0.8509 -0.7247
  751MOL0     C 3537   7.783  10.178  -0.458 -0.1810  0.4351 -0.5039
  751MOL0     C 3538   7.918  10.164  -0.527 -0.0109  0.2970 -0.0424
  751MOL0     C 3539   8.032  10.156  -0.425 -0.5887  0.0140 -0.0197
  751MOL0     C 3540   8.166  10.150  -0.499 -0.7312  0.2697  0.4059
  751MOL0     C 3541   8.280  10.197  -0.407 -0.4733 -1.3248  0.1124
  751MOL0     C 3542   8.419  10.207  -0.477 -0.0558 -0.2563  0.4143
  751MOL0     C 3543   8.418  10.333  -0.579  0.0389  0.1930  0.6675
  751MOL0     C 3544   8.569  10.361  -0.613  0.2394 -0.1365 -0.2657
  751MOL0    Cl 3545   8.624  10.215  -0.701 -0.5531 -0.0958 -0.1319
  751MOL0     C 3546   7.494  10.205  -0.429 -0.3262  0.1270  0.6064
  751MOL0     C 3547   7.356  10.214  -0.419 -0.3194  0.1350 -0.1669
  751MOL0     O 3548   7.113  10.415  -0.439  0.0918 -0.6029  0.1924
  751MOL0     C 3549   6.868  10.164  -0.557  0.2004  0.4190 -0.6688
  751MOL0     C 3550   6.734  10.154  -0.582  1.3636  0.0173 -0.4517
  751MOL0     N 3551   6.086   9.847  -0.371 -0.4779 -0.3287 -0.3261
  751MOL0     N 3552   6.105   9.857  -0.251 -0.1853  0.2127 -0.0364
  751MOL0     C 3553   7.303  10.155  -0.057 -0.2613 -0.4230 -0.5018
  751MOL0     C 3554   7.437  10.169  -0.054  0.1947 -0.1172 -0.1494
  751MOL0     C 3555   7.871  10.069   0.014 -0.7033  0.9446 -0.4287
  751MOL0     C 3556   7.931  10.144  -0.089  0.2373 -0.3696 -0.2086
  751MOL0     C 3557   8.060  10.175  -0.098  0.4179 -0.0240 -0.3018
  751MOL0     C 3558   8.147  10.127   0.002 -0.6915  0.5696 -0.1616
  751MOL0     O 3559   8.281  10.157  -0.021  0.0451  0.2034  0.7622
  751MOL0     C 3560   8.393  10.077   0.020 -0.3209  0.0045 -0.6955
  751MOL0     C 3561   8.509  10.133  -0.043 -0.7736  0.4401  0.2907
  751MOL0     C 3562   8.518  10.285  -0.035 -0.1145 -0.7143 -0.1193
  751MOL0     C 3563   8.665  10.334  -0.028 -0.5838 -0.3862 -0.6678
  751MOL0     C 3564   8.716  10.305   0.111  0.7682 -0.4965  0.6929
  751MOL0     C 3565   8.739  10.285   0.225 -0.9116  0.1761 -0.3046
  751MOL0     C 3566   8.101  10.046   0.103 -0.5232  0.9495  0.1382
  751MOL0     C 3567   7.963  10.011   0.110  0.4246 -0.5393 -0.0939
  751MOL0     C 3568   7.922   9.923   0.228  0.6109 -0.1472 -0.5167
  751MOL0     H 3569   7.552   9.904  -0.209  1.5788  1.8995  0.0532
  751MOL0     H 3570   7.296   9.866  -0.221  0.5775  1.1978  0.0516
  751MOL0     H 3571   7.066  10.210  -0.170  4.3474 -1.2272  0.3562
  751MOL0     H 3572   7.025  10.148  -0.013 -2.8281 -0.2242 -1.0572
  751MOL0     H 3573   6.898  10.028  -0.274  1.3785 -1.2431  0.6881
  751MOL0     H 3574   6.863   9.990  -0.105  0.5621  2.1719  1.7978
  751MOL0     H 3575   6.791  10.235  -0.068  1.2215 -2.4027  0.1853
  751MOL0     H 3576   6.808  10.264  -0.231 -1.1840 -0.1803  0.3101
  751MOL0     H 3577   6.641  10.115  -0.314  1.1957 -0.7914 -1.2609
  751MOL0     H 3578   6.637  10.018  -0.171  0.3210 -0.5017 -0.1540
  751MOL0     H 3579   6.535  10.306  -0.184 -2.4311  1.7302  2.7856
  751MOL0     H 3580   6.531  10.207  -0.036  0.3167 -1.4036 -0.5858
  751MOL0     H 3581   6.325  10.238  -0.178 -1.1312 -0.4408 -3.5790
  751MOL0     H 3582   6.400  10.124  -0.287 -0.1032  0.2216  0.4233
  751MOL0     H 3583   6.365  10.073   0.011  1.9369  0.7291 -0.5593
  751MOL0     H 3584   6.396   9.949  -0.109  1.2639  0.5334  0.5866
  751MOL0     H 3585   6.162   9.961  -0.015 -2.0811  0.9922  0.7578
  751MOL0     H 3586   6.149  10.133  -0.080  3.1373  1.3296  2.6753
  751MOL0     H 3587   6.141  10.169  -0.374 -2.7773  0.8298 -0.5708
  751MOL0     H 3588   6.030  10.061  -0.605 -0.7904 -1.1087 -0.4553
  751MOL0     H 3589   6.040   9.881  -0.605  0.7347 -0.8930 -0.8249
  751MOL0     H 3590   6.291   9.893  -0.584 -0.5409 -1.4015 -2.2500
  751MOL0     H 3591   6.225   9.927  -0.739 -1.1120 -0.5368 -0.5808
  751MOL0     H 3592   6.299  10.154  -0.730  1.7341  2.7276  1.6463
  751MOL0     H 3593   6.256  10.174  -0.566  1.1221  3.0478 -1.9803
  751MOL0     H 3594   6.473  10.058  -0.507  0.6240 -2.0982 -0.7780
  751MOL0     H 3595   6.505  10.045  -0.681  3.5015  1.1836  0.3187
  751MOL0     H 3596   6.618  10.439  -0.469  1.8460  1.9142  1.8142
  751MOL0     H 3597   6.906  10.518  -0.308 -0.5754  0.2855  0.7964
  751MOL0     H 3598   6.763  10.580  -0.363  1.4952  2.6104  1.5501
  751MOL0     H 3599   6.890  10.610  -0.467 -1.9004  1.4043  0.6914
  751MOL0     H 3600   7.291  10.245  -0.756 -1.6154 -0.3344  1.6185
  751MOL0     H 3601   7.524  10.243  -0.772  0.7852  1.9933  0.1772
  751MOL0     H 3602   7.777  10.261  -0.386 -0.9673 -0.2431  0.2289
  751MOL0     H 3603   7.756  10.085  -0.408 -3.2606  0.6230 -1.6169
  751MOL0     H 3604   7.917  10.072  -0.586 -1.6171 -0.0431  0.4659
  751MOL0     H 3605   7.921  10.255  -0.589 -1.3092  0.2769 -0.1747
  751MOL0     H 3606   8.029  10.085  -0.342  0.7390  0.8075  0.7458
  751MOL0     H 3607   8.028  10.256  -0.380  1.7715 -0.0863  0.5686
  751MOL0     H 3608   8.168  10.231  -0.573 -0.8925 -0.0652  0.0293
  751MOL0     H 3609   8.181  10.050  -0.542 -0.7962  1.0137 -1.4754
  751MOL0     H 3610   8.258  10.299  -0.374  1.2072 -0.7093 -0.5779
  751MOL0     H 3611   8.293  10.132  -0.320  0.9144  3.3046  3.7908
  751MOL0     H 3612   8.448  10.110  -0.520  4.6684 -0.0557  2.5176
  751MOL0     H 3613   8.498  10.228  -0.404 -1.2751  1.5535  1.2904
  751MOL0     H 3614   8.379  10.420  -0.525  0.1752 -0.5382  2.0124
  751MOL0     H 3615   8.362  10.305  -0.668  0.6173  0.2377  0.2871
  751MOL0     H 3616   8.619  10.378  -0.517 -2.3231 -0.6279  1.2270
  751MOL0     H 3617   8.589  10.442  -0.684 -1.8201  0.2710 -0.4301
  751MOL0     H 3618   7.548  10.201  -0.335  1.1506 -2.1429 -0.2457
  751MOL0     H 3619   7.311  10.223  -0.320  0.6696 -0.8887  0.4005
  751MOL0     H 3620   6.937  10.085  -0.585  0.0437  0.1734 -0.3606
  751MOL0     H 3621   6.699  10.058  -0.617 -0.3215  0.8023 -0.9991
  751MOL0     H 3622   7.237  10.217   0.001 -1.1377 -1.5255 -0.2749
  751MOL0     H 3623   7.479  10.256  -0.004 -0.8906 -0.5597  1.6636
  751MOL0     H 3624   7.866  10.184  -0.167 -0.4965 -2.9248 -0.9950
  751MOL0     H 3625   8.098  10.244  -0.172  0.1759 -1.4994 -1.8586
  751MOL0     H 3626   8.407  10.079   0.128 -1.6258  0.3467 -0.5165
  751MOL0     H 3627   8.378   9.972  -0.007 -1.2334 -0.0806  0.0897
  751MOL0     H 3628   8.516  10.119  -0.152  1.3394  0.7549  0.3523
  751MOL0     H 3629   8.593  10.076  -0.002 -2.3038 -1.8767  0.4197
  751MOL0     H 3630   8.476  10.338  -0.120  1.2288  0.5443 -0.0449
  751MOL0     H 3631   8.467  10.324   0.054  0.4421 -0.6722  0.1912
  751MOL0     H 3632   8.681  10.439  -0.052  0.5035 -0.4878 -0.4499
  751MOL0     H 3633   8.726  10.276  -0.097  4.1024 -0.7458  3.2266
  751MOL0     H 3634   8.773  10.281   0.326 -1.1481  1.2292 -0.1669
  751MOL0     H 3635   8.167   9.988   0.166 -0.0292  0.1447 -1.0913
  751MOL0     H 3636   8.011   9.876   0.271  0.2068  1.5111  2.3894
  751MOL0     H 3637   7.867   9.971   0.309  0.4841 -0.2091 -0.5643
  751MOL0     H 3638   7.854   9.842   0.197  1.7259 -0.3287 -2.7067
  752MOL0     O 3639   5.134  10.365   8.817  0.0648 -0.3977 -0.0479
  752MOL0     C 3640   5.101  10.371   8.696 -0.1056 -0.1496 -0.7222
  752MOL0     O 3641   5.182  10.336   8.588 -0.4794 -0.1439  0.0996
  752MOL0     C 3642   5.292  10.265   8.622  0.5217 -0.5560  0.6020
  752MOL0     C 3643   5.284  10.131   8.614  0.5303 -0.6855 -0.5762
  752MOL0     C 3644   5.395  10.043   8.610 -0.2859 -0.4182 -0.6524
  752MOL0     C 3645   5.526  10.099   8.626  0.3143 -1.0795  0.2174
  752MOL0     O 3646   5.639  10.017   8.634 -0.1240  0.2640  0.3618
  752MOL0     C 3647   5.617   9.881   8.664  0.4567  0.3648 -0.8431
  752MOL0     C 3648   5.747   9.807   8.648 -0.9055 -0.1897 -0.6282
  752MOL0     C 3649   5.843   9.837   8.767 -0.5775  0.2757  0.7582
  752MOL0     C 3650   5.992   9.798   8.733 -0.2273 -0.8534 -0.0393
  752MOL0     C 3651   6.081   9.852   8.843 -0.7485  0.6755  0.3136
  752MOL0     C 3652   6.230   9.815   8.815 -0.1180  0.5475  0.1163
  752MOL0     C 3653   6.296   9.896   8.703 -0.0014  0.0648 -0.3774
  752MOL0     C 3654   6.447   9.868   8.694 -0.6372  0.9592  0.1081
  752MOL0     N 3655   6.462   9.731   8.628 -0.1846  0.6078 -0.5274
  752MOL0     C 3656   6.429   9.691   8.502 -0.5999 -0.2115  0.3297
  752MOL0     C 3657   6.469   9.558   8.484 -0.7935  0.2297 -0.3918
  752MOL0     C 3658   6.470   9.492   8.348  0.3696  0.8207  0.0770
  752MOL0     C 3659   6.443   9.345   8.378 -0.2560 -0.4584  0.2901
  752MOL0     C 3660   6.563   9.255   8.403  0.0023  0.0047 -0.6608
  752MOL0     C 3661   6.675   9.269   8.309 -0.6207 -0.2225  0.5619
  752MOL0     O 3662   6.767   9.157   8.328 -0.0617 -1.1533  0.0260
  752MOL0     C 3663   6.898   9.166   8.268  0.1181 -0.4504 -0.7410
  752MOL0     C 3664   6.909   9.226   8.145 -0.6598 -0.3709 -0.3670
  752MOL0     C 3665   7.034   9.260   8.083 -0.3716  0.2605  0.0490
  752MOL0     C 3666   7.041   9.336   7.951 -0.2392 -0.0374  0.7233
  752MOL0     C 3667   7.150   9.204   8.133  0.4199  0.6230  0.0151
  752MOL0     C 3668   7.289   9.228   8.086  0.5218  0.6863  0.0713
  752MOL0     O 3669   7.318   9.335   8.009  0.1830 -0.0358 -0.0341
  752MOL0     C 3670   7.441   9.354   7.962 -0.1658 -1.1443 -0.7644
  752MOL0     C 3671   7.537   9.392   8.059  0.2915  0.6361  0.3316
  752MOL0     C 3672   7.667   9.433   8.023  0.1881 -0.5552  0.1684
  752MOL0     C 3673   7.707   9.416   7.886  0.9168  0.6248 -1.1988
  752MOL0     O 3674   7.833   9.448   7.849 -0.3303  1.0489 -0.1581
  752MOL0     C 3675   7.903   9.371   7.748 -0.2593  0.0216  0.5044
  752MOL0     C 3676   8.032   9.306   7.805  0.0563 -0.0303 -0.3201
  752MOL0     C 3677   8.065   9.208   7.700  0.4668  0.0278  0.4831
  752MOL0     C 3678   8.185   9.123   7.735 -0.3529 -0.4847 -0.0182
  752MOL0     C 3679   8.220   9.019   7.627 -0.5391 -0.2285 -0.0662
  752MOL0     C 3680   8.342   8.935   7.665 -0.3826  0.2251  0.5611
  752MOL0     C 3681   8.373   8.824   7.569 -0.4027  0.1107  0.7872
  752MOL0     C 3682   8.280   8.703   7.577  0.0590  0.5287  0.2016
  752MOL0    Cl 3683   8.286   8.611   7.424 -0.3584  0.0076 -0.3005
  752MOL0     C 3684   7.607   9.377   7.791 -0.0790  0.2206 -0.3122
  752MOL0     C 3685   7.479   9.338   7.826 -0.5440  0.0529  0.0233
  752MOL0     O 3686   7.375   9.139   8.115  1.1283 -0.0782 -0.4676
  752MOL0     C 3687   7.132   9.128   8.256 -0.3338 -0.4814  0.4195
  752MOL0     C 3688   7.009   9.117   8.317 -0.8201 -0.3091 -0.5640
  752MOL0     N 3689   6.511   9.523   8.619 -0.1441 -0.8221  0.3521
  752MOL0     N 3690   6.507   9.624   8.696  0.8736  0.9840  1.3366
  752MOL0     C 3691   5.535  10.235   8.641 -0.1173 -0.4361  0.7521
  752MOL0     C 3692   5.415  10.319   8.646  1.0826 -0.1676  0.0608
  752MOL0     C 3693   4.971  10.443   8.672  0.9376 -0.3769  0.1626
  752MOL0     C 3694   4.932  10.458   8.540 -0.4282 -0.0687  0.3008
  752MOL0     C 3695   4.798  10.491   8.510  0.7255  0.0283  0.1598
  752MOL0     C 3696   4.700  10.521   8.606  0.0966  0.3237 -0.8104
  752MOL0     O 3697   4.568  10.526   8.582  0.0919 -0.5785 -0.1936
  752MOL0     C 3698   4.515  10.492   8.449  0.2613  0.2148 -0.6130
  752MOL0     C 3699   4.366  10.460   8.459 -0.3923  0.0106  0.6116
  752MOL0     C 3700   4.278  10.585   8.488 -1.0509  0.2147 -0.3519
  752MOL0     C 3701   4.122  10.571   8.456  0.0365  0.9784  0.5120
  752MOL0     C 3702   4.063  10.443   8.510  0.2060 -0.0814 -0.8779
  752MOL0     C 3703   4.011  10.336   8.547  0.3833  0.4155  0.2322
  752MOL0     C 3704   4.739  10.514   8.742 -0.0855  0.0003  0.4239
  752MOL0     C 3705   4.873  10.482   8.771  0.5354  0.0785  0.1609
  752MOL0     C 3706   4.891  10.484   8.920  0.3364  0.2588  0.5273
  752MOL0     H 3707   5.194  10.081   8.577  0.0935 -1.3006  1.2124
  752MOL0     H 3708   5.380   9.938   8.591 -0.0815 -0.1674 -2.3756
  752MOL0     H 3709   5.548   9.834   8.593  2.4377 -1.2091 -1.8370
  752MOL0     H 3710   5.572   9.878   8.764 -1.2615  2.0078 -1.4956
  752MOL0     H 3711   5.729   9.700   8.634  1.0655 -0.4510 -1.5493
  752MOL0     H 3712   5.799   9.838   8.557  1.9923  2.3312  1.6990
  752MOL0     H 3713   5.855   9.944   8.787 -0.7328  0.4930 -0.2495
  752MOL0     H 3714   5.799   9.786   8.853  2.4740 -5.0984 -0.4463
  752MOL0     H 3715   6.008   9.694   8.703 -1.1620 -0.9072 -0.4001
  752MOL0     H 3716   6.016   9.860   8.647 -6.0924  2.7326  0.3409
  752MOL0     H 3717   6.046   9.810   8.937 -1.9691  0.1668 -0.3468
  752MOL0     H 3718   6.081   9.961   8.846 -0.4552  0.6887  0.0336
  752MOL0     H 3719   6.284   9.838   8.908  1.3713 -0.2711 -0.4970
  752MOL0     H 3720   6.244   9.709   8.792  1.4832  0.7172  0.1892
  752MOL0     H 3721   6.285  10.000   8.735 -0.0458 -0.0533  0.0016
  752MOL0     H 3722   6.233   9.878   8.615 -0.8000  0.9120  0.0020
  752MOL0     H 3723   6.498   9.942   8.632 -1.0819  0.0253 -1.4356
  752MOL0     H 3724   6.485   9.871   8.797 -0.5018 -0.2461  0.1075
  752MOL0     H 3725   6.397   9.761   8.426  1.5109 -2.2595 -2.6571
  752MOL0     H 3726   6.563   9.520   8.298 -0.4948  1.8934 -0.9915
  752MOL0     H 3727   6.391   9.523   8.278 -0.7335 -2.5906 -0.3720
  752MOL0     H 3728   6.370   9.336   8.459 -2.2116  3.3359 -0.8057
  752MOL0     H 3729   6.396   9.299   8.290  0.9477 -0.9058 -0.1364
  752MOL0     H 3730   6.598   9.276   8.505 -1.1857 -0.0868 -0.2228
  752MOL0     H 3731   6.522   9.154   8.398 -0.5918  0.2508 -0.8230
  752MOL0     H 3732   6.636   9.270   8.206 -0.7606 -2.1551  0.5599
  752MOL0     H 3733   6.733   9.359   8.332 -2.5585  1.0753  0.5690
  752MOL0     H 3734   6.814   9.251   8.100 -0.3753 -1.1270 -1.4182
  752MOL0     H 3735   7.111   9.292   7.880  1.8064  2.1579  1.2723
  752MOL0     H 3736   7.070   9.438   7.975  3.7927 -1.0708  0.9213
  752MOL0     H 3737   6.945   9.337   7.898 -0.4951 -1.2994  1.1295
  752MOL0     H 3738   7.504   9.414   8.160 -0.6467 -4.4641  1.4072
  752MOL0     H 3739   7.731   9.477   8.098 -0.5321  0.2899  0.3092
  752MOL0     H 3740   7.839   9.290   7.711  0.4534 -1.8121  3.0079
  752MOL0     H 3741   7.934   9.435   7.665 -0.7033  1.4871  1.4262
  752MOL0     H 3742   8.109   9.382   7.819  1.0746 -0.8179 -1.4286
  752MOL0     H 3743   8.009   9.253   7.898 -0.7867 -0.1401 -0.5793
  752MOL0     H 3744   8.071   9.251   7.600 -3.1659 -1.3321 -0.5040
  752MOL0     H 3745   7.989   9.129   7.694  0.1962  0.2782  0.5784
  752MOL0     H 3746   8.168   9.082   7.835  0.3020  2.8213  1.5902
  752MOL0     H 3747   8.270   9.191   7.728 -0.9849  0.2662 -0.5000
  752MOL0     H 3748   8.132   8.957   7.609 -1.6042  0.6830  1.7553
  752MOL0     H 3749   8.250   9.065   7.532 -0.6096  0.8196  0.4094
  752MOL0     H 3750   8.332   8.894   7.766 -2.7310  2.1362  1.2097
  752MOL0     H 3751   8.425   9.005   7.672 -0.5630  0.5706 -0.4970
  752MOL0     H 3752   8.472   8.785   7.594 -0.7506 -5.5302 -4.2465
  752MOL0     H 3753   8.383   8.864   7.468  1.7110  1.6068  1.5236
  752MOL0     H 3754   8.176   8.737   7.588 -1.1180 -1.2485 -3.6761
  752MOL0     H 3755   8.311   8.646   7.665 -1.9020  0.9474  1.2282
  752MOL0     H 3756   7.643   9.371   7.689 -0.1218 -1.6214 -0.2418
  752MOL0     H 3757   7.391   9.322   7.764 -3.3886  1.8309  3.2039
  752MOL0     H 3758   7.218   9.086   8.307 -1.9547 -1.7197  2.3207
  752MOL0     H 3759   7.024   9.064   8.411  1.0606  0.9124 -0.1188
  752MOL0     H 3760   5.635  10.273   8.661 -0.4393  0.9314 -0.1243
  752MOL0     H 3761   5.416  10.426   8.666  0.6813 -0.4310  1.6603
  752MOL0     H 3762   5.006  10.437   8.464  0.5669 -2.4261  1.8037
  752MOL0     H 3763   4.782  10.488   8.403  2.4572 -0.4626 -0.1149
  752MOL0     H 3764   4.538  10.563   8.369 -4.3748  0.7974 -1.7165
  752MOL0     H 3765   4.564  10.395   8.437  1.3228  0.4545  1.2823
  752MOL0     H 3766   4.338  10.383   8.531 -1.6793  0.0677  0.1973
  752MOL0     H 3767   4.338  10.424   8.360 -2.4655 -0.1672  1.2057
  752MOL0     H 3768   4.288  10.614   8.593 -3.9146 -0.1929  0.1215
  752MOL0     H 3769   4.322  10.668   8.432 -1.1319 -0.5641 -1.6128
  752MOL0     H 3770   4.120  10.561   8.347 -1.8638 -3.9842  0.7161
  752MOL0     H 3771   4.069  10.655   8.499 -2.2391 -0.9172  1.6379
  752MOL0     H 3772   3.954  10.251   8.579 -1.3820  1.3049 -0.4306
  752MOL0     H 3773   4.674  10.538   8.825  1.6875 -0.3534  1.9652
  752MOL0     H 3774   4.994  10.494   8.957  1.4326 -1.1353 -1.9311
  752MOL0     H 3775   4.835  10.571   8.955 -0.7306 -0.1541 -0.1255
  752MOL0     H 3776   4.854  10.395   8.971 -1.8058  0.4559 -0.5822
  753MOL0     O 3777   4.803   9.444   7.170  0.8892  0.4797  0.4139
  753MOL0     C 3778   4.725   9.471   7.078 -0.8410  0.0620  0.3772
  753MOL0     O 3779   4.769   9.535   6.960  0.7851 -0.0624  0.2944
  753MOL0     C 3780   4.901   9.580   6.950  0.0139  0.2725 -0.2705
  753MOL0     C 3781   5.004   9.492   6.942 -0.1410  0.2413  0.0309
  753MOL0     C 3782   5.135   9.527   6.962 -0.0266 -0.3633  0.1815
  753MOL0     C 3783   5.172   9.662   6.983  0.5618 -1.2857 -0.4418
  753MOL0     O 3784   5.301   9.705   6.976 -0.0166 -0.0763 -0.4808
  753MOL0     C 3785   5.334   9.731   6.842  0.0389  0.6891  0.5148
  753MOL0     C 3786   5.483   9.752   6.841  0.2940 -0.4974  0.2635
  753MOL0     C 3787   5.527   9.806   6.701 -0.3251  0.2217  0.0559
  753MOL0     C 3788   5.674   9.776   6.675 -0.4076 -0.8123  0.3550
  753MOL0     C 3789   5.768   9.852   6.777  0.2803  0.2731 -0.3371
  753MOL0     C 3790   5.918   9.830   6.752 -0.2840  0.7229 -0.2419
  753MOL0     C 3791   6.005   9.895   6.864  0.8279 -0.5556  0.5986
  753MOL0     C 3792   6.134   9.818   6.870 -0.6564 -0.0524 -0.4301
  753MOL0     N 3793   6.238   9.889   6.948  0.1553  0.6292  0.0787
  753MOL0     C 3794   6.298  10.003   6.909  0.2041  0.7829  0.2591
  753MOL0     C 3795   6.391  10.037   7.000 -0.9057  0.4393 -0.6402
  753MOL0     C 3796   6.476  10.158   7.000  0.2840 -0.9019 -0.0490
  753MOL0     C 3797   6.413  10.276   7.078 -0.3845 -0.0861 -0.0638
  753MOL0     C 3798   6.350  10.241   7.209  0.4845  0.1246  0.3696
  753MOL0     C 3799   6.431  10.163   7.309  0.9642  0.3408 -0.2510
  753MOL0     O 3800   6.542  10.249   7.351  0.7565 -0.1007 -0.8100
  753MOL0     C 3801   6.672  10.221   7.314  0.0219 -0.9006 -0.1835
  753MOL0     C 3802   6.711  10.101   7.245  0.3681 -1.0421  0.0171
  753MOL0     C 3803   6.842  10.082   7.205 -0.0551  0.6989 -0.2113
  753MOL0     C 3804   6.853   9.987   7.082 -0.6640 -0.3254 -0.1005
  753MOL0     C 3805   6.934  10.170   7.258 -0.2719  0.7387  0.9231
  753MOL0     C 3806   7.078  10.163   7.222  0.3616  0.0807 -0.5879
  753MOL0     O 3807   7.151  10.276   7.241  0.4969 -0.6964 -0.2095
  753MOL0     C 3808   7.266  10.299   7.177  0.3602  0.4595 -0.4627
  753MOL0     C 3809   7.376  10.211   7.194 -0.0182  0.7748 -0.1721
  753MOL0     C 3810   7.489  10.224   7.109 -0.6000 -0.5207 -0.6201
  753MOL0     C 3811   7.506  10.331   7.026  1.2172 -0.3840 -0.1109
  753MOL0     O 3812   7.626  10.337   6.954 -0.5266 -0.1343  0.7124
  753MOL0     C 3813   7.638  10.424   6.838  0.2862 -0.5564  0.6021
  753MOL0     C 3814   7.775  10.409   6.781 -0.4482 -0.2118 -0.3090
  753MOL0     C 3815   7.825  10.271   6.768 -0.0153  0.4945 -0.4592
  753MOL0     C 3816   7.951  10.258   6.678  0.2346 -0.6856  1.1613
  753MOL0     C 3817   7.929  10.238   6.525  0.5517 -0.1358 -0.6243
  753MOL0     C 3818   8.070  10.223   6.466  1.1733  0.3954  0.4875
  753MOL0     C 3819   8.059  10.194   6.313 -0.2080  0.4766 -0.0846
  753MOL0     C 3820   8.171  10.258   6.237 -0.2991 -0.1488 -0.2342
  753MOL0    Cl 3821   8.324  10.179   6.278  0.2788 -0.0053 -0.5900
  753MOL0     C 3822   7.403  10.427   7.022 -0.1068  1.2325  0.1802
  753MOL0     C 3823   7.280  10.405   7.095 -0.0931 -0.4663 -0.7432
  753MOL0     O 3824   7.123  10.056   7.180  0.4066 -0.1053  0.1908
  753MOL0     C 3825   6.903  10.273   7.349 -0.1253 -0.2990  0.5209
  753MOL0     C 3826   6.773  10.297   7.374  0.2311  0.1628 -0.5575
  753MOL0     N 3827   6.396   9.922   7.079  0.8075  0.1368 -0.0864
  753MOL0     N 3828   6.301   9.838   7.053  0.3708 -1.0568 -0.0621
  753MOL0     C 3829   5.064   9.754   6.996 -0.4917 -0.3715  0.2785
  753MOL0     C 3830   4.929   9.718   6.976  0.6011  0.0494 -0.7792
  753MOL0     C 3831   4.583   9.427   7.093 -1.4428 -0.3697  0.6435
  753MOL0     C 3832   4.514   9.403   6.975  0.5459  0.5238  0.4816
  753MOL0     C 3833   4.379   9.350   6.974 -0.8949  0.6797 -0.2322
  753MOL0     C 3834   4.315   9.322   7.096  0.8625 -0.0361  0.2266
  753MOL0     O 3835   4.186   9.267   7.100  0.2738  0.1766  0.0179
  753MOL0     C 3836   4.131   9.207   7.220  0.1074 -0.0041 -0.6836
  753MOL0     C 3837   4.024   9.101   7.195  0.3617  0.4489  0.7353
  753MOL0     C 3838   3.896   9.148   7.133  0.7588  0.5494  0.2131
  753MOL0     C 3839   3.789   9.036   7.133 -0.4018 -0.8004  0.2838
  753MOL0     C 3840   3.816   8.939   7.025  0.4905 -0.1725  0.1237
  753MOL0     C 3841   3.831   8.851   6.945 -0.1030  0.4609  1.2608
  753MOL0     C 3842   4.392   9.340   7.214  0.8300  0.4649 -0.3894
  753MOL0     C 3843   4.525   9.384   7.215  0.3191 -0.1555  0.0098
  753MOL0     C 3844   4.597   9.394   7.348  0.6723  0.7294 -0.1194
  753MOL0     H 3845   4.993   9.384   6.934  3.0062 -0.1931  0.4528
  753MOL0     H 3846   5.212   9.454   6.940 -0.1764 -0.1238 -1.2933
  753MOL0     H 3847   5.289   9.823   6.805  2.0667  1.7266  0.4880
  753MOL0     H 3848   5.316   9.643   6.779  0.6473 -0.4706  1.8869
  753MOL0     H 3849   5.513   9.816   6.924 -1.4590 -2.0243  2.2024
  753MOL0     H 3850   5.540   9.661   6.860  3.6634  1.2607 -0.6677
  753MOL0     H 3851   5.475   9.756   6.619  0.0883 -2.2209  1.2124
  753MOL0     H 3852   5.517   9.915   6.703  3.0015  0.6325 -0.4983
  753MOL0     H 3853   5.705   9.672   6.680  4.3331  0.3540  0.5204
  753MOL0     H 3854   5.696   9.812   6.574 -3.3472  0.9725  0.2453
  753MOL0     H 3855   5.750   9.806   6.874 -4.3341  1.1798 -0.5594
  753MOL0     H 3856   5.739   9.957   6.781 -0.0765  0.3185  6.2033
  753MOL0     H 3857   5.922   9.722   6.766 -0.4553  0.6310 -0.8806
  753MOL0     H 3858   5.964   9.852   6.656  1.5022 -2.5912 -0.2887
  753MOL0     H 3859   5.954   9.874   6.958  0.0665  1.3459  0.6551
  753MOL0     H 3860   6.011  10.004   6.854  3.5387 -0.7515 -0.8266
  753MOL0     H 3861   6.116   9.715   6.904  2.4474 -0.8988 -1.0887
  753MOL0     H 3862   6.182   9.802   6.774 -1.4084 -2.5709 -0.4761
  753MOL0     H 3863   6.274  10.059   6.820 -1.0028 -0.6217 -0.3291
  753MOL0     H 3864   6.494  10.186   6.896  0.8640  2.4280  0.8330
  753MOL0     H 3865   6.575  10.139   7.041  1.8474  2.0091 -2.1148
  753MOL0     H 3866   6.492  10.350   7.096 -0.6752 -0.1324  1.5600
  753MOL0     H 3867   6.336  10.324   7.018 -1.9887 -1.5493  0.7518
  753MOL0     H 3868   6.321  10.337   7.255  1.8702  0.5515  0.3925
  753MOL0     H 3869   6.262  10.178   7.195  1.0046 -0.5767  0.2520
  753MOL0     H 3870   6.370  10.133   7.395  2.3679 -3.8391 -0.4911
  753MOL0     H 3871   6.465  10.074   7.255  2.5682  1.4337 -1.1257
  753MOL0     H 3872   6.640  10.031   7.201  0.1704 -0.2898 -0.8943
  753MOL0     H 3873   6.941  10.016   7.024 -0.5573 -0.9851 -0.2699
  753MOL0     H 3874   6.759   9.984   7.025  0.6126  0.7867 -2.4286
  753MOL0     H 3875   6.876   9.885   7.112  0.6670 -0.7162 -2.2299
  753MOL0     H 3876   7.361  10.134   7.269  0.2256  1.7614  0.9370
  753MOL0     H 3877   7.567  10.148   7.100  1.2638  1.3758 -1.1875
  753MOL0     H 3878   7.576  10.381   6.760  1.4502 -1.3736  0.0971
  753MOL0     H 3879   7.612  10.531   6.841 -3.4443 -0.9010 -5.0413
  753MOL0     H 3880   7.781  10.463   6.686  1.1396 -1.6657 -1.0951
  753MOL0     H 3881   7.850  10.452   6.848  3.1059 -2.4655 -2.4896
  753MOL0     H 3882   7.754  10.204   6.718  0.6732 -0.7539  0.1853
  753MOL0     H 3883   7.854  10.231   6.866  1.8721  0.0004 -1.1854
  753MOL0     H 3884   8.001  10.167   6.710  0.2615 -1.0641  0.0979
  753MOL0     H 3885   8.018  10.342   6.696  0.0459  0.1929 -1.7286
  753MOL0     H 3886   7.847  10.170   6.500  0.4331  0.2742 -1.3692
  753MOL0     H 3887   7.881  10.324   6.478 -0.8080 -0.4596  0.0926
  753MOL0     H 3888   8.117  10.134   6.509  3.9327  0.7656 -1.5108
  753MOL0     H 3889   8.131  10.311   6.490 -2.4815  3.3721 -0.1139
  753MOL0     H 3890   7.962  10.231   6.278 -1.4806 -0.0332  2.6568
  753MOL0     H 3891   8.082  10.091   6.284  0.8297  0.6258  0.1732
  753MOL0     H 3892   8.174  10.366   6.257 -2.3250 -0.2922  1.0906
  753MOL0     H 3893   8.149  10.248   6.130  2.3657  2.0797 -1.1277
  753MOL0     H 3894   7.410  10.513   6.956 -1.3905 -0.5574 -2.4589
  753MOL0     H 3895   7.198  10.475   7.098 -1.6602 -2.2389  0.1375
  753MOL0     H 3896   6.983  10.324   7.402  1.3460  0.8974 -2.6127
  753MOL0     H 3897   6.739  10.386   7.427  0.3789  0.7619 -1.4518
  753MOL0     H 3898   5.082   9.858   7.018 -1.2477 -0.6113  2.2461
  753MOL0     H 3899   4.845   9.785   6.994 -2.3352 -3.8962  1.5927
  753MOL0     H 3900   4.560   9.416   6.877 -0.6741 -1.0310 -0.3411
  753MOL0     H 3901   4.325   9.327   6.883 -0.4436 -2.5463  0.1761
  753MOL0     H 3902   4.212   9.151   7.267  1.8384  1.0507 -2.2638
  753MOL0     H 3903   4.100   9.281   7.294  3.5122  0.7459  0.1570
  753MOL0     H 3904   3.994   9.042   7.282  0.8654 -0.1377  0.5225
  753MOL0     H 3905   4.076   9.028   7.131 -0.3706  0.2469  0.3553
  753MOL0     H 3906   3.853   9.238   7.178  0.3699  0.4172  0.1171
  753MOL0     H 3907   3.920   9.165   7.028  0.6419  1.3589  0.3110
  753MOL0     H 3908   3.693   9.075   7.099  0.4473 -1.3572 -3.1287
  753MOL0     H 3909   3.773   8.994   7.232 -2.7175 -0.2235  0.2076
  753MOL0     H 3910   3.863   8.775   6.877  1.4283  0.3229  2.0967
  753MOL0     H 3911   4.349   9.318   7.311  1.1806  1.7131  0.0663
  753MOL0     H 3912   4.691   9.337   7.344  0.1413 -0.2624  1.0365
  753MOL0     H 3913   4.618   9.495   7.383  3.1735  0.3007 -0.1506
  753MOL0     H 3914   4.549   9.350   7.436  0.3589  3.2085  1.0342
  754MOL0     O 3915   7.641   6.620   9.846  0.2698  0.4634  0.1896
  754MOL0     C 3916   7.587   6.663   9.947  0.0195 -0.3004  0.0093
  754MOL0     O 3917   7.652   6.722  10.052 -0.3034 -0.9486 -0.0811
  754MOL0     C 3918   7.788   6.695  10.053  0.0357  0.3197  0.0400
  754MOL0     C 3919   7.844   6.604  10.142 -0.3023 -0.6309 -0.4954
  754MOL0     C 3920   7.981   6.592  10.165  0.1123  0.2015 -1.0046
  754MOL0     C 3921   8.075   6.676  10.097 -0.2345  0.5690 -0.2881
  754MOL0     O 3922   8.210   6.662  10.129  0.5793 -0.7418  0.3515
  754MOL0     C 3923   8.309   6.745  10.066  0.7723  0.0100 -0.5177
  754MOL0     C 3924   8.446   6.693  10.119 -0.0272 -0.3992 -0.4077
  754MOL0     C 3925   8.569   6.774  10.058 -0.8620  0.0028 -0.6291
  754MOL0     C 3926   8.706   6.703  10.090  1.1689  0.2597  0.4122
  754MOL0     C 3927   8.817   6.799  10.058 -0.3056 -0.1573  0.2372
  754MOL0     C 3928   8.847   6.803   9.906 -0.3067  0.1700  0.0961
  754MOL0     C 3929   8.980   6.877   9.875  0.5686 -0.5673  0.4564
  754MOL0     C 3930   9.002   6.901   9.723 -0.3715 -0.3402  0.2721
  754MOL0     N 3931   9.115   6.987   9.695  1.0094 -0.2913 -0.1357
  754MOL0     C 3932   9.103   7.129   9.699 -0.5282  1.1632  0.8800
  754MOL0     C 3933   9.224   7.170   9.695 -0.2831  0.0975 -0.4714
  754MOL0     C 3934   9.270   7.314   9.687  0.2527  0.2368 -0.2200
  754MOL0     C 3935   9.415   7.336   9.667 -0.0172 -0.2590 -0.0764
  754MOL0     C 3936   9.442   7.492   9.689  0.4322 -0.4152  0.0470
  754MOL0     C 3937   9.590   7.509   9.681 -0.2960  0.4844 -0.2279
  754MOL0     O 3938   9.630   7.617   9.762 -0.4488 -0.3052 -0.1573
  754MOL0     C 3939   9.755   7.676   9.758 -0.4989  0.7068  0.5205
  754MOL0     C 3940   9.861   7.651   9.672 -0.2676  0.4819 -0.1171
  754MOL0     C 3941   9.983   7.704   9.690 -0.1433  0.0631  0.2130
  754MOL0     C 3942  10.088   7.676   9.597 -0.1857 -0.1495  1.1715
  754MOL0     C 3943  10.005   7.802   9.796 -0.2494  0.2461  0.8910
  754MOL0     C 3944  10.133   7.878   9.805  0.5946 -0.7029 -0.0263
  754MOL0     O 3945  10.240   7.807   9.838 -0.1385 -0.6483 -0.3175
  754MOL0     C 3946  10.367   7.866   9.845  0.3347 -0.8391 -0.0128
  754MOL0     C 3947  10.466   7.821   9.930  1.3838  0.9198 -0.3779
  754MOL0     C 3948  10.592   7.876   9.927  0.0772 -0.2191  0.2419
  754MOL0     C 3949  10.626   7.978   9.844 -0.2078 -0.2996  0.1453
  754MOL0     O 3950  10.759   8.014   9.850 -0.7155  0.5339  0.2673
  754MOL0     C 3951  10.787   8.138   9.788  0.0643  0.4166  0.4986
  754MOL0     C 3952  10.898   8.208   9.871 -0.5207 -0.5461  0.4736
  754MOL0     C 3953  10.957   8.327   9.791 -0.9205  0.6606  0.2739
  754MOL0     C 3954  11.058   8.271   9.683 -0.2275  0.1093 -0.4504
  754MOL0     C 3955  11.149   8.389   9.640 -0.0044  0.1342 -0.1156
  754MOL0     C 3956  11.077   8.469   9.525  0.3003  0.2922 -0.2448
  754MOL0     C 3957  11.159   8.567   9.451  0.3052  0.3080 -0.6083
  754MOL0     C 3958  11.222   8.679   9.547  0.5936 -0.7173  0.8087
  754MOL0    Cl 3959  11.365   8.737   9.467 -0.5164 -0.1214 -0.1801
  754MOL0     C 3960  10.532   8.031   9.756  0.6046 -0.6110  0.2367
  754MOL0     C 3961  10.401   7.979   9.764  0.2948  0.1962  0.3813
  754MOL0     O 3962  10.121   8.000   9.792  0.0589 -0.3752  0.0658
  754MOL0     C 3963   9.895   7.840   9.871 -1.2172  0.3718  0.4075
  754MOL0     C 3964   9.776   7.766   9.858 -0.5785 -0.0368 -0.2109
  754MOL0     N 3965   9.313   7.066   9.697  0.0033 -0.1728  0.2070
  754MOL0     N 3966   9.248   6.955   9.701  0.6193 -0.6601 -0.1002
  754MOL0     C 3967   8.017   6.760   9.994 -0.6332  0.0255  0.3894
  754MOL0     C 3968   7.876   6.776   9.977  0.7323 -0.0737 -0.3042
  754MOL0     C 3969   7.441   6.652   9.952  0.6249  0.6021 -0.9873
  754MOL0     C 3970   7.386   6.698  10.071 -0.1918 -0.6980  0.1045
  754MOL0     C 3971   7.246   6.708  10.090  0.1375 -0.2080 -0.4962
  754MOL0     C 3972   7.163   6.682   9.992  0.5154  0.7805 -0.4774
  754MOL0     O 3973   7.031   6.704  10.029  1.5976  0.5778  0.4428
  754MOL0     C 3974   6.938   6.740   9.914  0.3402  0.2071  0.0436
  754MOL0     C 3975   6.829   6.825   9.975  0.0655  0.7369 -0.8807
  754MOL0     C 3976   6.705   6.823   9.875 -0.8353  0.2378 -0.8367
  754MOL0     C 3977   6.590   6.912   9.922 -0.7062 -0.0292  1.0986
  754MOL0     C 3978   6.539   6.876  10.055 -0.5774  0.1933  0.1430
  754MOL0     C 3979   6.481   6.848  10.154  0.3801 -0.0319 -0.4780
  754MOL0     C 3980   7.212   6.635   9.873 -0.0281  0.3796  0.1229
  754MOL0     C 3981   7.355   6.609   9.847  0.7596 -0.1871  0.5183
  754MOL0     C 3982   7.391   6.558   9.713  0.1346  0.6680  0.0997
  754MOL0     H 3983   7.768   6.546  10.193  0.3840 -1.6040 -0.5383
  754MOL0     H 3984   8.009   6.518  10.239 -2.8481  0.5717  0.6658
  754MOL0     H 3985   8.293   6.849  10.098  0.4852 -0.6846  1.7600
  754MOL0     H 3986   8.293   6.735   9.959 -0.7141  0.6635 -0.3775
  754MOL0     H 3987   8.450   6.709  10.227  0.8927  1.0924 -0.6254
  754MOL0     H 3988   8.452   6.588  10.088 -0.1478 -0.6058  0.2601
  754MOL0     H 3989   8.549   6.770   9.950 -2.0946 -0.3607 -0.4062
  754MOL0     H 3990   8.572   6.878  10.092  0.9450 -0.5826  1.1667
  754MOL0     H 3991   8.711   6.673  10.194  3.6694 -1.4351 -0.1114
  754MOL0     H 3992   8.703   6.609  10.033 -2.9767  0.7976 -0.5794
  754MOL0     H 3993   8.905   6.752  10.104  1.7551  1.7655 -1.5140
  754MOL0     H 3994   8.804   6.896  10.108  0.4827  1.1368 -1.9294
  754MOL0     H 3995   8.863   6.704   9.864  3.6487  0.4619  0.5162
  754MOL0     H 3996   8.766   6.857   9.857  1.3679  2.0849 -0.6858
  754MOL0     H 3997   9.061   6.814   9.913 -0.3648 -1.7969  0.4557
  754MOL0     H 3998   8.966   6.975   9.920  0.3216  0.9443 -2.6407
  754MOL0     H 3999   9.038   6.806   9.682  0.1080 -0.1217  0.1802
  754MOL0     H 4000   8.915   6.948   9.677 -1.6349  0.3223  3.1470
  754MOL0     H 4001   9.013   7.191   9.699 -1.6913 -0.3997 -1.2774
  754MOL0     H 4002   9.255   7.352   9.788  1.3239 -0.6951  0.3093
  754MOL0     H 4003   9.213   7.364   9.608  1.5513  1.3652 -0.4933
  754MOL0     H 4004   9.478   7.284   9.741  0.7736  0.3806 -0.2859
  754MOL0     H 4005   9.440   7.304   9.566 -1.5398 -2.7655  0.2547
  754MOL0     H 4006   9.393   7.547   9.609 -1.9252 -0.8224  1.1461
  754MOL0     H 4007   9.394   7.523   9.782  0.5447  2.5237 -0.8006
  754MOL0     H 4008   9.636   7.418   9.722 -3.1539 -0.2650  1.7070
  754MOL0     H 4009   9.632   7.522   9.581  1.5409 -1.0471  0.2845
  754MOL0     H 4010   9.846   7.592   9.582  1.7560  2.8893 -2.1785
  754MOL0     H 4011  10.167   7.752   9.596  0.8505 -1.0941 -2.2588
  754MOL0     H 4012  10.077   7.674   9.489  1.4032  0.7551  0.9666
  754MOL0     H 4013  10.132   7.580   9.627 -1.4608 -0.6349  1.5310
  754MOL0     H 4014  10.447   7.746  10.005  1.6264 -2.2740 -3.2639
  754MOL0     H 4015  10.656   7.817   9.991  0.2770 -0.4980 -0.2134
  754MOL0     H 4016  10.808   8.130   9.681 -4.4640 -0.0300 -0.5633
  754MOL0     H 4017  10.709   8.214   9.797 -0.0079  0.2088  1.9028
  754MOL0     H 4018  10.847   8.260   9.953  0.6354  0.8042  0.3619
  754MOL0     H 4019  10.975   8.143   9.915 -1.3007 -1.1811  0.9261
  754MOL0     H 4020  11.008   8.386   9.867 -1.4519  1.9850 -0.3618
  754MOL0     H 4021  10.881   8.389   9.742 -0.6599  1.1561  0.4872
  754MOL0     H 4022  11.010   8.224   9.597 -1.2166 -1.1935  0.7712
  754MOL0     H 4023  11.124   8.198   9.730 -3.5617 -1.3698  2.3308
  754MOL0     H 4024  11.193   8.450   9.719  0.9927 -0.7881  0.0717
  754MOL0     H 4025  11.237   8.345   9.591 -1.9074 -1.8959 -1.9410
  754MOL0     H 4026  10.992   8.527   9.561 -0.4168 -0.0571 -1.3213
  754MOL0     H 4027  11.048   8.398   9.446  3.1544 -1.1231 -0.1750
  754MOL0     H 4028  11.101   8.624   9.378 -0.3996 -0.2191 -0.4668
  754MOL0     H 4029  11.234   8.517   9.389  0.1030  0.4681 -0.9868
  754MOL0     H 4030  11.244   8.640   9.647  1.1536 -1.7013  0.3135
  754MOL0     H 4031  11.140   8.751   9.555 -2.4965 -3.6919 -1.1184
  754MOL0     H 4032  10.560   8.109   9.686  0.0333  2.1266  2.8690
  754MOL0     H 4033  10.337   8.022   9.688 -0.4807 -3.0410 -0.9648
  754MOL0     H 4034   9.913   7.920   9.942  5.1780 -0.9080  0.7860
  754MOL0     H 4035   9.701   7.788   9.932  0.1128  3.6166 -0.4486
  754MOL0     H 4036   8.084   6.818   9.931  2.4946 -2.4841  1.0956
  754MOL0     H 4037   7.826   6.850   9.916  3.6661  1.3649 -1.1434
  754MOL0     H 4038   7.446   6.743  10.150 -1.1464 -1.6017  1.4023
  754MOL0     H 4039   7.209   6.754  10.182  0.1680  1.2478 -1.1781
  754MOL0     H 4040   6.993   6.791   9.834 -1.0579  0.6825 -0.6506
  754MOL0     H 4041   6.894   6.652   9.866 -1.3572  1.3734 -0.6630
  754MOL0     H 4042   6.862   6.927   9.996  0.4175  0.5239 -0.3758
  754MOL0     H 4043   6.805   6.785  10.074 -0.7349  2.3398 -0.3925
  754MOL0     H 4044   6.741   6.854   9.776 -0.1441 -3.0006 -1.7013
  754MOL0     H 4045   6.672   6.719   9.864  0.6332 -0.2078 -1.3766
  754MOL0     H 4046   6.508   6.910   9.850 -0.2302  0.5185  0.5281
  754MOL0     H 4047   6.629   7.014   9.929 -1.2672  0.0763  4.5608
  754MOL0     H 4048   6.424   6.842  10.244 -0.4898 -0.6379 -1.0557
  754MOL0     H 4049   7.143   6.606   9.794  0.9143 -1.2308 -0.1389
  754MOL0     H 4050   7.474   6.487   9.714  1.5048  2.1927  1.3316
  754MOL0     H 4051   7.307   6.500   9.675  1.7146 -1.6534 -0.0002
  754MOL0     H 4052   7.404   6.643   9.646 -0.7605  0.7314 -0.0041
  755MOL0     O 4053  10.951   9.104   8.167  0.3145  0.6289 -0.1176
  755MOL0     C 4054  10.964   8.988   8.195 -0.4044  0.7993 -0.0571
  755MOL0     O 4055  11.084   8.930   8.193 -0.1347 -0.1375  0.1260
  755MOL0     C 4056  11.195   9.010   8.197 -0.8270 -0.1082 -1.2916
  755MOL0     C 4057  11.269   9.025   8.318 -0.7044  0.3713 -0.8306
  755MOL0     C 4058  11.384   9.099   8.321 -0.2105  1.2469 -0.3988
  755MOL0     C 4059  11.424   9.180   8.212  0.2794 -0.3008  0.2166
  755MOL0     O 4060  11.549   9.238   8.218  0.3603  0.2244  0.5734
  755MOL0     C 4061  11.569   9.345   8.124  0.0612 -0.7123  0.0837
  755MOL0     C 4062  11.700   9.418   8.156 -0.1375 -0.2303 -0.6110
  755MOL0     C 4063  11.820   9.324   8.167 -0.1566  0.7296 -0.7960
  755MOL0     C 4064  11.948   9.396   8.146 -0.2566  0.5801 -0.5145
  755MOL0     C 4065  12.067   9.299   8.188 -0.4272 -0.6933 -0.4452
  755MOL0     C 4066  12.196   9.372   8.243  0.4209 -0.6565 -0.7043
  755MOL0     C 4067  12.287   9.435   8.133  0.1773 -0.1032  0.3774
  755MOL0     C 4068  12.414   9.503   8.186 -0.9521  0.6538 -0.7649
  755MOL0     N 4069  12.505   9.548   8.081 -0.3431 -0.5525  0.2401
  755MOL0     C 4070  12.645   9.530   8.073 -0.6387 -1.0732  0.7969
  755MOL0     C 4071  12.679   9.609   7.971  0.5183  0.5462 -0.2814
  755MOL0     C 4072  12.822   9.644   7.912 -0.1622  0.2289  0.2351
  755MOL0     C 4073  12.815   9.719   7.777  0.6471 -0.2493  0.4238
  755MOL0     C 4074  12.947   9.719   7.704 -0.2657 -1.1173 -0.1117
  755MOL0     C 4075  13.051   9.805   7.772 -0.5988  0.3831  0.3229
  755MOL0     O 4076  13.177   9.808   7.702  0.1135 -0.3129  0.2231
  755MOL0     C 4077  13.279   9.831   7.787 -0.0313 -0.5736 -0.3071
  755MOL0     C 4078  13.393   9.756   7.785  0.0848  0.9934  0.9175
  755MOL0     C 4079  13.497   9.778   7.876 -0.2011 -0.5318  0.2962
  755MOL0     C 4080  13.605   9.670   7.868 -0.0393 -0.3457  0.5236
  755MOL0     C 4081  13.491   9.880   7.982  0.0206 -0.0882 -0.0681
  755MOL0     C 4082  13.592   9.910   8.090  0.5517 -0.2795  0.8581
  755MOL0     O 4083  13.574  10.015   8.175 -0.1225 -0.7585 -0.6323
  755MOL0     C 4084  13.669  10.031   8.277 -0.0108  0.7437 -0.1694
  755MOL0     C 4085  13.623  10.000   8.404 -0.1536  0.0444 -0.3051
  755MOL0     C 4086  13.707  10.017   8.517  0.1170  0.1795  0.0244
  755MOL0     C 4087  13.833  10.063   8.502  0.3575 -0.5622  0.1425
  755MOL0     O 4088  13.912  10.086   8.609 -0.7906 -0.1238  0.4767
  755MOL0     C 4089  13.867  10.124   8.734 -0.3483 -0.5468 -0.3910
  755MOL0     C 4090  13.820  10.272   8.732  0.2998  0.0335 -0.1781
  755MOL0     C 4091  13.936  10.372   8.691  0.2899  0.5626 -0.2648
  755MOL0     C 4092  13.933  10.515   8.743  0.3487 -0.6475  0.4918
  755MOL0     C 4093  14.023  10.614   8.660 -0.2292  0.6625  0.8117
  755MOL0     C 4094  14.163  10.614   8.709 -0.1106  0.9722  0.5201
  755MOL0     C 4095  14.255  10.721   8.649  0.0663 -0.7375 -0.2295
  755MOL0     C 4096  14.197  10.856   8.614  0.6046 -0.2126  0.1323
  755MOL0    Cl 4097  14.156  10.958   8.753  0.0772 -0.0732  0.1593
  755MOL0     C 4098  13.883  10.074   8.368 -0.0613 -0.3577 -0.0554
  755MOL0     C 4099  13.799  10.062   8.259 -0.6262 -1.1218 -0.3740
  755MOL0     O 4100  13.673   9.828   8.101 -0.3596  0.6414 -0.4599
  755MOL0     C 4101  13.375   9.961   7.974 -0.5837  0.4731 -0.3327
  755MOL0     C 4102  13.276   9.937   7.879  0.9163  0.4285  0.1917
  755MOL0     N 4103  12.560   9.677   7.929  0.1044  0.2419  0.4261
  755MOL0     N 4104  12.463   9.641   7.995 -0.1320 -0.1051  0.1235
  755MOL0     C 4105  11.349   9.168   8.091  0.8401 -0.3765 -0.4108
  755MOL0     C 4106  11.237   9.082   8.090  0.0943 -0.0972 -0.7489
  755MOL0     C 4107  10.837   8.910   8.200 -0.3700  0.3412  0.7647
  755MOL0     C 4108  10.753   8.923   8.087  0.0573  0.6792  0.9187
  755MOL0     C 4109  10.631   8.862   8.078 -0.3501  0.5667  0.1087
  755MOL0     C 4110  10.605   8.758   8.167 -0.9861  0.1488 -0.4936
  755MOL0     O 4111  10.500   8.672   8.164  0.1659 -0.2062  0.0215
  755MOL0     C 4112  10.418   8.711   8.281  0.6068 -0.1268  0.2250
  755MOL0     C 4113  10.391   8.578   8.349  0.7871 -0.2701  0.7103
  755MOL0     C 4114  10.326   8.598   8.490  0.0762  0.5495  1.2059
  755MOL0     C 4115  10.268   8.475   8.569 -0.4782 -0.1163  0.0541
  755MOL0     C 4116  10.120   8.462   8.559 -0.1290  0.5999 -0.4338
  755MOL0     C 4117  10.006   8.431   8.532 -0.5082  0.6051 -0.8421
  755MOL0     C 4118  10.700   8.730   8.275  0.2349  0.0446  0.0951
  755MOL0     C 4119  10.813   8.810   8.294  0.2496  0.8369  0.6334
  755MOL0     C 4120  10.905   8.792   8.408  0.0644 -0.1223 -0.0537
  755MOL0     H 4121  11.239   8.961   8.400 -1.5965 -0.5425 -1.8322
  755MOL0     H 4122  11.453   9.093   8.405  0.0708  3.2549 -0.4347
  755MOL0     H 4123  11.490   9.421   8.130 -0.3160 -1.0370 -0.6044
  755MOL0     H 4124  11.571   9.313   8.019  2.2410 -0.3456 -0.0376
  755MOL0     H 4125  11.704   9.478   8.064 -2.0264 -0.3654 -0.8224
  755MOL0     H 4126  11.701   9.479   8.247  2.4585 -3.1449  1.5182
  755MOL0     H 4127  11.808   9.284   8.268  0.4570 -2.0556 -1.7347
  755MOL0     H 4128  11.819   9.243   8.093  2.2816  1.1312 -1.3423
  755MOL0     H 4129  11.967   9.441   8.048 -2.7078 -2.0400 -2.3635
  755MOL0     H 4130  11.936   9.478   8.218 -0.0928 -1.7944  2.3956
  755MOL0     H 4131  12.099   9.244   8.100  0.5534  0.6762 -0.9832
  755MOL0     H 4132  12.026   9.231   8.263 -1.8887  1.2763  0.6516
  755MOL0     H 4133  12.160   9.429   8.329 -3.9508 -1.2583 -1.9246
  755MOL0     H 4134  12.269   9.297   8.275  0.2921 -1.0970 -1.4358
  755MOL0     H 4135  12.232   9.504   8.068  0.2387 -0.6185 -0.2317
  755MOL0     H 4136  12.314   9.354   8.065 -0.0709  1.8486 -2.1896
  755MOL0     H 4137  12.370   9.589   8.239  0.4778  0.1347  1.3850
  755MOL0     H 4138  12.469   9.441   8.256 -1.1292  2.5750  1.1932
  755MOL0     H 4139  12.718   9.475   8.132  2.6825  0.6060 -1.4087
  755MOL0     H 4140  12.877   9.551   7.898 -2.1239 -0.7150 -1.9768
  755MOL0     H 4141  12.882   9.706   7.979  1.9536 -2.2485  0.7691
  755MOL0     H 4142  12.755   9.666   7.702  2.8913  1.3431 -2.7480
  755MOL0     H 4143  12.778   9.821   7.788 -0.6043 -0.6672  0.2802
  755MOL0     H 4144  12.994   9.620   7.699  0.5787 -0.6567 -2.0214
  755MOL0     H 4145  12.921   9.760   7.607 -0.4382 -0.3213  0.2665
  755MOL0     H 4146  13.004   9.903   7.782 -0.8298  0.2536  0.5097
  755MOL0     H 4147  13.066   9.757   7.869  1.0484  0.6834  0.2462
  755MOL0     H 4148  13.385   9.668   7.722  0.7842 -0.1241  2.3314
  755MOL0     H 4149  13.701   9.699   7.913  1.2183 -0.7733 -1.7521
  755MOL0     H 4150  13.621   9.645   7.763 -0.4343 -0.8289  0.5744
  755MOL0     H 4151  13.574   9.575   7.914 -1.1961 -0.9050 -1.3249
  755MOL0     H 4152  13.520   9.969   8.416 -0.2918  0.3686 -0.6222
  755MOL0     H 4153  13.673  10.011   8.620  1.9444  3.0360  0.9099
  755MOL0     H 4154  13.795  10.056   8.781  1.3588 -0.9569  1.8229
  755MOL0     H 4155  13.950  10.121   8.806  1.0313 -0.2399 -1.9246
  755MOL0     H 4156  13.735  10.274   8.663  1.4571 -1.4195 -1.7087
  755MOL0     H 4157  13.767  10.303   8.823 -1.1067  1.6453 -1.4828
  755MOL0     H 4158  13.935  10.385   8.582  3.7922  2.1504 -0.2452
  755MOL0     H 4159  14.036  10.331   8.700 -1.2638 -3.8211 -0.6691
  755MOL0     H 4160  13.966  10.519   8.847  0.7213  0.7999  0.3455
  755MOL0     H 4161  13.835  10.563   8.744  0.6017 -0.1158  1.7335
  755MOL0     H 4162  14.027  10.592   8.553 -0.3050  0.6229  0.8173
  755MOL0     H 4163  13.981  10.716   8.659  0.6617  1.0491  1.6865
  755MOL0     H 4164  14.201  10.516   8.679 -0.1061  1.0125  0.3928
  755MOL0     H 4165  14.160  10.618   8.818 -1.7630  2.8514  0.4656
  755MOL0     H 4166  14.300  10.682   8.557  0.7267  0.1550 -0.2937
  755MOL0     H 4167  14.336  10.743   8.719  1.4305  0.6586 -2.1672
  755MOL0     H 4168  14.110  10.848   8.548 -1.1415  1.6696  2.0250
  755MOL0     H 4169  14.272  10.915   8.561  0.0535  0.5153  0.1377
  755MOL0     H 4170  13.989  10.096   8.356  0.1884 -1.9993 -1.1437
  755MOL0     H 4171  13.835  10.075   8.157  1.4201 -1.4710  0.2426
  755MOL0     H 4172  13.360  10.054   8.029 -0.6675  1.0087 -1.2322
  755MOL0     H 4173  13.193  10.007   7.885 -0.4004 -0.8413 -1.9500
  755MOL0     H 4174  11.390   9.202   7.996  2.6882  2.0317  1.1251
  755MOL0     H 4175  11.174   9.074   8.002 -0.4093 -0.5810 -0.3503
  755MOL0     H 4176  10.775   8.994   8.008  1.8833 -0.7143  0.1004
  755MOL0     H 4177  10.568   8.876   7.990  0.0834 -0.1077 -0.3212
  755MOL0     H 4178  10.462   8.777   8.357 -0.2510  0.3556  0.3118
  755MOL0     H 4179  10.329   8.762   8.246  0.1489  0.2880  1.8877
  755MOL0     H 4180  10.489   8.533   8.369  0.0069 -1.2963  2.3825
  755MOL0     H 4181  10.343   8.518   8.272  2.1525 -1.7016  0.9331
  755MOL0     H 4182  10.396   8.648   8.558  0.9053  0.4205  0.4796
  755MOL0     H 4183  10.257   8.682   8.476  1.9766  1.9742 -0.2586
  755MOL0     H 4184  10.305   8.484   8.672  1.9435 -2.6543 -0.4772
  755MOL0     H 4185  10.321   8.392   8.522 -1.1378  0.4738 -1.8368
  755MOL0     H 4186   9.911   8.389   8.504 -0.0617 -1.4896  0.6029
  755MOL0     H 4187  10.668   8.649   8.341 -0.3191  1.7427  2.0157
  755MOL0     H 4188  10.901   8.883   8.469  1.1369 -0.0386 -0.0794
  755MOL0     H 4189  10.870   8.719   8.482 -0.7347  0.5116  0.2067
  755MOL0     H 4190  11.013   8.777   8.396  0.9090  3.5343  1.6545
  756MOL0     O 4191   3.568   6.364   2.930 -0.0758 -0.1640 -0.3617
  756MOL0     C 4192   3.559   6.353   3.052 -0.3864  0.4276  1.2186
  756MOL0     O 4193   3.664   6.302   3.129 -0.1490 -0.1305 -0.3271
  756MOL0     C 4194   3.796   6.310   3.103 -0.1601 -0.4530  0.3452
  756MOL0     C 4195   3.877   6.264   3.206  0.0100 -1.1752 -0.0539
  756MOL0     C 4196   4.016   6.277   3.191  1.2028 -0.3277 -0.2708
  756MOL0     C 4197   4.068   6.314   3.069 -0.2012  0.6236  0.1419
  756MOL0     O 4198   4.200   6.308   3.035  0.7773 -0.3879  0.0392
  756MOL0     C 4199   4.302   6.238   3.110  1.0097 -0.7818 -0.3219
  756MOL0     C 4200   4.436   6.250   3.038  0.3208  0.0057  0.1407
  756MOL0     C 4201   4.466   6.399   3.013  0.9210  0.0315  0.2650
  756MOL0     C 4202   4.609   6.417   2.970 -0.9683  0.1002 -0.3243
  756MOL0     C 4203   4.676   6.551   2.957  0.2366  0.5509 -0.1474
  756MOL0     C 4204   4.591   6.652   2.888  0.7657  0.0046 -0.1480
  756MOL0     C 4205   4.584   6.610   2.743 -0.0675 -0.2002  0.3228
  756MOL0     C 4206   4.496   6.708   2.654  0.1606 -0.2937  0.1716
  756MOL0     N 4207   4.497   6.647   2.522  0.4768  0.6164  0.0452
  756MOL0     C 4208   4.562   6.689   2.410 -0.4766  0.6842 -0.2623
  756MOL0     C 4209   4.528   6.594   2.318  0.0621  1.1838  0.3947
  756MOL0     C 4210   4.579   6.579   2.176 -0.1368  0.5537  0.0957
  756MOL0     C 4211   4.729   6.609   2.159 -0.0050  0.0364  0.1259
  756MOL0     C 4212   4.821   6.501   2.215  0.5812  0.3309  0.7416
  756MOL0     C 4213   4.957   6.544   2.235 -0.5180 -1.1326 -0.0775
  756MOL0     O 4214   5.058   6.442   2.267 -0.0132 -0.7452  0.4605
  756MOL0     C 4215   5.192   6.467   2.246  0.2212 -0.2557 -0.7329
  756MOL0     C 4216   5.245   6.586   2.187 -0.5777  0.0852  0.7471
  756MOL0     C 4217   5.385   6.601   2.158  1.1030  0.6411 -0.1102
  756MOL0     C 4218   5.421   6.727   2.101  0.1938 -0.3051  0.0405
  756MOL0     C 4219   5.476   6.496   2.190 -0.3521  0.3518  0.8152
  756MOL0     C 4220   5.617   6.501   2.174  0.1623  0.1805 -0.1629
  756MOL0     O 4221   5.696   6.400   2.216 -0.2862  0.4544  0.2550
  756MOL0     C 4222   5.825   6.433   2.241 -0.5872 -0.1403  0.3863
  756MOL0     C 4223   5.925   6.374   2.170  0.1282  0.1140 -0.5293
  756MOL0     C 4224   6.060   6.398   2.197 -1.2818 -0.1238  0.5319
  756MOL0     C 4225   6.096   6.479   2.306 -0.6344 -0.1677 -0.2250
  756MOL0     O 4226   6.226   6.514   2.340  0.5121 -0.5846 -0.5782
  756MOL0     C 4227   6.341   6.437   2.304 -0.0720  0.4444 -0.5677
  756MOL0     C 4228   6.447   6.427   2.409 -0.8567 -0.3581 -0.6730
  756MOL0     C 4229   6.477   6.562   2.476  0.6289 -0.0907 -0.5636
  756MOL0     C 4230   6.594   6.558   2.569  0.3069  0.3335 -0.0328
  756MOL0     C 4231   6.625   6.693   2.627  0.4882 -0.1064  0.0441
  756MOL0     C 4232   6.508   6.739   2.719 -0.4052 -0.2163  0.0602
  756MOL0     C 4233   6.558   6.868   2.800  0.2867  0.4564  0.9435
  756MOL0     C 4234   6.457   6.930   2.893 -0.1251 -0.1164 -0.7112
  756MOL0    Cl 4235   6.307   6.964   2.793 -0.2313  0.2337  0.1353
  756MOL0     C 4236   6.000   6.533   2.387 -0.9879  0.5833 -0.0409
  756MOL0     C 4237   5.860   6.506   2.362  0.4169 -0.0162 -0.4958
  756MOL0     O 4238   5.659   6.603   2.117 -0.4458 -0.5461 -0.3078
  756MOL0     C 4239   5.416   6.379   2.246  0.7085 -0.2321  0.3339
  756MOL0     C 4240   5.281   6.364   2.269  0.3482  0.7720  0.2498
  756MOL0     N 4241   4.437   6.506   2.368  0.1413  0.0094 -0.0598
  756MOL0     N 4242   4.408   6.549   2.488 -0.3713 -0.0003 -0.5414
  756MOL0     C 4243   3.988   6.370   2.974 -0.1489  0.0606  0.5689
  756MOL0     C 4244   3.850   6.370   2.987  0.3050 -1.8536  0.3776
  756MOL0     C 4245   3.428   6.391   3.118 -0.7791  0.2183  0.6232
  756MOL0     C 4246   3.306   6.381   3.043 -0.0029  0.7712  0.8281
  756MOL0     C 4247   3.185   6.408   3.097  0.8437 -0.8931  0.0723
  756MOL0     C 4248   3.180   6.445   3.232  0.1546 -0.8720  0.0571
  756MOL0     O 4249   3.069   6.483   3.296 -0.1348  0.8177  0.3101
  756MOL0     C 4250   2.935   6.479   3.242 -0.1173  0.5618 -0.4283
  756MOL0     C 4251   2.876   6.335   3.260 -0.4923 -0.1027 -0.4148
  756MOL0     C 4252   2.887   6.297   3.412 -0.4166 -0.9575  0.7743
  756MOL0     C 4253   2.792   6.193   3.460 -0.5739  0.3545  0.5390
  756MOL0     C 4254   2.652   6.219   3.428  0.3269 -0.5613 -0.4547
  756MOL0     C 4255   2.537   6.250   3.409  0.4811 -0.7041  0.1218
  756MOL0     C 4256   3.297   6.460   3.303  0.8130 -0.6670 -0.5975
  756MOL0     C 4257   3.418   6.443   3.247 -0.1109 -0.5389 -0.3664
  756MOL0     C 4258   3.534   6.479   3.340  0.0734 -0.5961  0.0629
  756MOL0     H 4259   3.836   6.212   3.291  2.2658  0.3610  2.1021
  756MOL0     H 4260   4.080   6.262   3.277 -1.4475  0.6931  2.0129
  756MOL0     H 4261   4.271   6.134   3.123 -1.1462 -0.1672 -0.1442
  756MOL0     H 4262   4.305   6.300   3.200 -0.2352  1.1062 -1.4932
  756MOL0     H 4263   4.508   6.191   3.095 -0.7642 -4.0658 -2.2958
  756MOL0     H 4264   4.445   6.194   2.945 -2.0938 -2.4261  1.2308
  756MOL0     H 4265   4.411   6.439   2.927 -0.0465  0.5615  1.1150
  756MOL0     H 4266   4.443   6.461   3.100 -2.7111 -1.4897  0.5897
  756MOL0     H 4267   4.662   6.364   3.050  1.1570  2.0549 -0.3333
  756MOL0     H 4268   4.631   6.358   2.880  0.3916 -0.2199  0.1954
  756MOL0     H 4269   4.772   6.537   2.907  0.4222 -0.1630  0.4043
  756MOL0     H 4270   4.675   6.577   3.063 -2.6539 -0.4377  0.1552
  756MOL0     H 4271   4.487   6.653   2.921  0.9520 -0.4576  0.4752
  756MOL0     H 4272   4.651   6.741   2.910  0.2725  0.3893 -0.3622
  756MOL0     H 4273   4.533   6.513   2.741 -0.5555  0.0627 -0.2526
  756MOL0     H 4274   4.684   6.598   2.701 -0.4523  0.3843 -0.8051
  756MOL0     H 4275   4.390   6.717   2.677 -0.1378 -0.0718 -1.2342
  756MOL0     H 4276   4.541   6.808   2.655  0.8487 -0.6001  0.8494
  756MOL0     H 4277   4.640   6.764   2.402  2.4322 -2.2764 -3.0408
  756MOL0     H 4278   4.526   6.647   2.108  1.0184  1.7089  0.3035
  756MOL0     H 4279   4.568   6.477   2.138  0.2762 -0.7822  3.2562
  756MOL0     H 4280   4.759   6.610   2.054 -2.7773  2.7351 -0.7840
  756MOL0     H 4281   4.743   6.711   2.196 -3.4405  1.7634 -2.7830
  756MOL0     H 4282   4.783   6.458   2.308 -1.1979 -2.4415 -1.1135
  756MOL0     H 4283   4.814   6.424   2.137  0.3509  0.2340  0.8585
  756MOL0     H 4284   4.985   6.567   2.132  2.0917  0.4034  0.8644
  756MOL0     H 4285   4.968   6.635   2.295  0.6330 -1.8364  0.8271
  756MOL0     H 4286   5.173   6.661   2.156 -0.0830  0.3418  0.2067
  756MOL0     H 4287   5.488   6.787   2.164  0.0504  1.8540 -1.7362
  756MOL0     H 4288   5.338   6.793   2.075  1.5006  0.5047 -2.4089
  756MOL0     H 4289   5.474   6.722   2.005 -2.1382  1.2194 -1.4131
  756MOL0     H 4290   5.889   6.311   2.090  2.4288  1.8209 -3.1321
  756MOL0     H 4291   6.136   6.351   2.136  0.1593  0.7350  1.5999
  756MOL0     H 4292   6.314   6.338   2.265 -2.2969  0.7821 -0.0048
  756MOL0     H 4293   6.387   6.493   2.222 -4.4153 -1.2809 -4.6546
  756MOL0     H 4294   6.421   6.353   2.485 -3.7092 -0.9197 -2.0425
  756MOL0     H 4295   6.542   6.394   2.366  0.7729  1.2940  1.4586
  756MOL0     H 4296   6.391   6.586   2.539 -1.6099 -2.0238 -2.6689
  756MOL0     H 4297   6.480   6.647   2.407 -0.5132 -2.4047 -3.6857
  756MOL0     H 4298   6.686   6.521   2.522 -0.2927 -1.7340  0.3568
  756MOL0     H 4299   6.568   6.496   2.655  1.3811 -1.4614 -0.9319
  756MOL0     H 4300   6.704   6.679   2.701 -1.9064 -0.1535  2.7644
  756MOL0     H 4301   6.651   6.765   2.549  1.1448 -1.0714 -0.6545
  756MOL0     H 4302   6.474   6.658   2.784  0.9384 -2.8158 -2.2696
  756MOL0     H 4303   6.422   6.768   2.658  0.8251 -1.7027 -2.5307
  756MOL0     H 4304   6.578   6.947   2.727 -1.8642  0.3414  0.1535
  756MOL0     H 4305   6.641   6.850   2.869 -1.1350 -0.5172  2.4742
  756MOL0     H 4306   6.496   7.019   2.944 -0.6995  0.6045 -1.5161
  756MOL0     H 4307   6.429   6.862   2.974 -0.9434  1.6036  0.5156
  756MOL0     H 4308   6.036   6.597   2.465 -0.2711  1.8687 -1.3838
  756MOL0     H 4309   5.786   6.541   2.433  0.2467 -0.3491 -0.5085
  756MOL0     H 4310   5.476   6.291   2.268 -0.4806 -0.3022  3.8522
  756MOL0     H 4311   5.246   6.270   2.310 -1.0952  1.6634  1.1397
  756MOL0     H 4312   4.029   6.404   2.879 -0.9954 -1.6890 -0.4682
  756MOL0     H 4313   3.801   6.430   2.911  1.1353 -0.0065  1.2081
  756MOL0     H 4314   3.301   6.346   2.941 -1.0862  1.8812  0.4846
  756MOL0     H 4315   3.096   6.405   3.035  2.1592  0.4980 -2.0325
  756MOL0     H 4316   2.865   6.543   3.296  0.0562  1.7404 -1.5559
  756MOL0     H 4317   2.925   6.515   3.139 -1.9038  1.9451  0.1751
  756MOL0     H 4318   2.925   6.266   3.191  3.2712  2.0754 -0.1357
  756MOL0     H 4319   2.770   6.340   3.233 -0.4426 -2.5769 -1.3457
  756MOL0     H 4320   2.985   6.260   3.443 -1.0826 -2.2536  1.4354
  756MOL0     H 4321   2.864   6.383   3.475  2.7589  1.1566 -0.7098
  756MOL0     H 4322   2.806   6.170   3.566  1.3046  0.9418  0.4629
  756MOL0     H 4323   2.814   6.102   3.404 -1.8136  0.6084 -0.4101
  756MOL0     H 4324   2.437   6.272   3.377  0.7945  0.2932 -0.2195
  756MOL0     H 4325   3.300   6.493   3.407  2.8163 -1.1942 -0.4459
  756MOL0     H 4326   3.560   6.385   3.390  0.4898 -0.2449  0.5207
  756MOL0     H 4327   3.624   6.512   3.286 -0.2469 -0.6391 -0.5062
  756MOL0     H 4328   3.509   6.555   3.414  0.7668  0.6667 -0.9550
  757MOL0     O 4329   4.773  10.040   2.003 -0.4532  0.5097 -0.5275
  757MOL0     C 4330   4.717  10.007   1.902  0.1025 -0.0813  1.0280
  757MOL0     O 4331   4.785   9.945   1.788 -0.8568 -0.4940  0.1594
  757MOL0     C 4332   4.925   9.946   1.798  0.0763  0.0989  0.1307
  757MOL0     C 4333   5.005  10.047   1.839  0.5681 -0.2477  0.1154
  757MOL0     C 4334   5.142  10.032   1.823 -0.4242 -0.1649  0.0777
  757MOL0     C 4335   5.196   9.917   1.761  0.1604  0.0813 -0.2314
  757MOL0     O 4336   5.328   9.890   1.744 -0.3491 -0.5176 -0.1837
  757MOL0     C 4337   5.423   9.981   1.791  0.6256  0.8210  0.0110
  757MOL0     C 4338   5.488   9.943   1.935  0.5558 -1.1135 -0.0272
  757MOL0     C 4339   5.563   9.810   1.919 -0.3651 -0.0071 -0.1364
  757MOL0     C 4340   5.691   9.796   2.001  0.2078  0.5323  1.3269
  757MOL0     C 4341   5.698   9.650   2.053 -0.9686 -0.7659 -0.3919
  757MOL0     C 4342   5.822   9.630   2.137 -0.6123 -0.0685  0.6067
  757MOL0     C 4343   5.838   9.481   2.183  0.2627  0.6524 -0.2718
  757MOL0     C 4344   5.988   9.447   2.226  0.2056  0.3148 -0.1481
  757MOL0     N 4345   6.060   9.381   2.105  0.4754 -0.0431 -0.2730
  757MOL0     C 4346   6.144   9.452   2.031  0.9700 -0.5433  0.6416
  757MOL0     C 4347   6.199   9.360   1.954 -0.5752  0.0203 -0.2670
  757MOL0     C 4348   6.283   9.380   1.836 -0.2601  1.1386 -0.1295
  757MOL0     C 4349   6.432   9.337   1.859 -0.4388  0.0303 -1.0418
  757MOL0     C 4350   6.451   9.194   1.920 -0.3631 -0.1982  0.0825
  757MOL0     C 4351   6.591   9.142   1.895 -0.2255  0.3959 -0.5494
  757MOL0     O 4352   6.645   9.063   2.009  0.3331  0.0947 -0.1202
  757MOL0     C 4353   6.785   9.053   2.013 -0.8721 -0.4497 -0.0841
  757MOL0     C 4354   6.842   9.004   2.129 -0.1660  0.4404  0.0305
  757MOL0     C 4355   6.978   8.983   2.146 -0.6107 -0.1335 -0.1197
  757MOL0     C 4356   7.028   8.917   2.270  0.2779 -0.0140  0.1836
  757MOL0     C 4357   7.070   9.023   2.044 -0.0217 -0.9304 -0.5255
  757MOL0     C 4358   7.224   9.023   2.051  0.4133 -0.0087 -0.4706
  757MOL0     O 4359   7.294   9.022   1.940 -0.0837 -0.6987  0.1608
  757MOL0     C 4360   7.429   9.023   1.949 -0.0766 -0.2926 -0.4196
  757MOL0     C 4361   7.497   9.130   1.896 -0.6436  0.2186 -0.8228
  757MOL0     C 4362   7.640   9.146   1.899 -0.3084  0.4302 -0.0958
  757MOL0     C 4363   7.711   9.046   1.969  0.9303 -0.0573 -0.0076
  757MOL0     O 4364   7.847   9.056   2.001  0.0110  0.1923  0.2675
  757MOL0     C 4365   7.933   8.935   1.997  0.3119 -0.7501 -0.0300
  757MOL0     C 4366   8.085   8.967   1.997  0.7873 -0.4376  0.1468
  757MOL0     C 4367   8.175   8.849   2.032  0.2310  0.3328  0.6293
  757MOL0     C 4368   8.228   8.869   2.174  0.0876 -0.0359  0.5457
  757MOL0     C 4369   8.331   8.769   2.223 -1.0108  0.6170 -0.4173
  757MOL0     C 4370   8.463   8.772   2.145 -0.4559  0.0444  0.6721
  757MOL0     C 4371   8.543   8.901   2.165  0.0815  0.6412 -0.1544
  757MOL0     C 4372   8.672   8.900   2.083 -0.2354 -0.3302  0.8752
  757MOL0    Cl 4373   8.771   9.049   2.113  0.2208 -0.1762  0.0351
  757MOL0     C 4374   7.636   8.935   2.014 -0.4026  0.1442 -0.0367
  757MOL0     C 4375   7.499   8.929   2.010  0.4635  0.0942 -0.5672
  757MOL0     O 4376   7.273   9.041   2.163  0.7407 -0.0788 -0.2087
  757MOL0     C 4377   7.015   9.062   1.921 -0.1888  0.4462 -0.4363
  757MOL0     C 4378   6.879   9.094   1.911  0.1530 -0.3742 -0.5771
  757MOL0     N 4379   6.157   9.228   1.988 -0.4851  0.0602 -0.0334
  757MOL0     N 4380   6.067   9.250   2.079  0.0255 -1.3024 -0.1013
  757MOL0     C 4381   5.115   9.813   1.727  0.1482  0.1531 -0.0866
  757MOL0     C 4382   4.981   9.833   1.735  0.2919  0.4387 -1.0927
  757MOL0     C 4383   4.568  10.023   1.894  0.6390  0.1751  0.6174
  757MOL0     C 4384   4.515  10.046   1.767 -0.0236 -0.6002  1.1363
  757MOL0     C 4385   4.383  10.058   1.741  1.2497 -0.4527 -0.7566
  757MOL0     C 4386   4.286  10.051   1.846 -0.0481 -0.4691  0.0476
  757MOL0     O 4387   4.153  10.042   1.830  0.0849 -0.0755 -0.0992
  757MOL0     C 4388   4.093  10.075   1.706  0.5362 -0.2637 -0.1283
  757MOL0     C 4389   3.957  10.130   1.743 -0.2590 -0.3518 -0.4707
  757MOL0     C 4390   3.873  10.016   1.807  0.0892  0.0416 -0.1106
  757MOL0     C 4391   3.740  10.066   1.856 -0.5200 -0.4697 -0.3188
  757MOL0     C 4392   3.667   9.950   1.909 -0.7931  0.1797 -0.4055
  757MOL0     C 4393   3.605   9.852   1.948  0.7160  0.8921 -0.0903
  757MOL0     C 4394   4.339  10.030   1.976  0.3123 -0.7420 -0.1343
  757MOL0     C 4395   4.479  10.013   2.000 -0.1885  0.3261 -0.2770
  757MOL0     C 4396   4.518   9.971   2.139 -0.4932  0.3176  0.1192
  757MOL0     H 4397   4.963  10.135   1.887 -1.7217 -0.7265 -0.9130
  757MOL0     H 4398   5.199  10.119   1.853 -0.8740  0.3110 -0.4180
  757MOL0     H 4399   5.381  10.082   1.788  1.8480  1.3349 -0.2917
  757MOL0     H 4400   5.500   9.988   1.714  0.5636  1.3178 -0.0088
  757MOL0     H 4401   5.548  10.032   1.955 -0.8194 -0.1787  0.1076
  757MOL0     H 4402   5.416   9.933   2.017  1.7335 -0.7202  1.0835
  757MOL0     H 4403   5.505   9.718   1.921  0.4542 -0.5235  0.2622
  757MOL0     H 4404   5.599   9.820   1.816 -1.5039 -0.3320 -0.5785
  757MOL0     H 4405   5.785   9.828   1.954 -0.8724  1.2000 -0.4728
  757MOL0     H 4406   5.683   9.863   2.088  1.9394  0.8499  1.2873
  757MOL0     H 4407   5.717   9.583   1.969 -0.4701  1.3996 -2.1022
  757MOL0     H 4408   5.615   9.629   2.122 -1.6944  1.6892 -0.4112
  757MOL0     H 4409   5.905   9.660   2.073 -0.0291  0.3846  1.5470
  757MOL0     H 4410   5.822   9.704   2.218 -0.0075  0.1419  0.4200
  757MOL0     H 4411   5.811   9.403   2.112 -2.6464  0.3173  1.0642
  757MOL0     H 4412   5.773   9.458   2.268  1.2008 -0.1832  0.2340
  757MOL0     H 4413   6.041   9.530   2.273 -2.1126  1.3116  0.8867
  757MOL0     H 4414   5.973   9.364   2.295 -3.0749  0.2086 -0.8333
  757MOL0     H 4415   6.154   9.558   2.008 -1.2680 -0.6444 -1.0697
  757MOL0     H 4416   6.271   9.482   1.797 -0.0019  2.3124  2.6538
  757MOL0     H 4417   6.240   9.312   1.761  2.4476 -0.1640 -0.6132
  757MOL0     H 4418   6.472   9.360   1.760  0.1998  0.7482 -0.6219
  757MOL0     H 4419   6.475   9.397   1.939 -0.3052  0.1012 -1.1656
  757MOL0     H 4420   6.431   9.195   2.027  2.2160 -2.2351  0.6640
  757MOL0     H 4421   6.377   9.135   1.865 -1.0112  2.6538 -2.4429
  757MOL0     H 4422   6.605   9.110   1.791 -0.3111  0.7141 -0.6614
  757MOL0     H 4423   6.651   9.233   1.909  1.8570 -1.2502  2.2291
  757MOL0     H 4424   6.771   8.970   2.204 -0.1109 -1.6407 -0.7982
  757MOL0     H 4425   7.103   8.840   2.251 -0.2884 -0.1887 -1.5127
  757MOL0     H 4426   6.942   8.862   2.311 -0.6369 -0.0673 -1.7054
  757MOL0     H 4427   7.066   8.997   2.334 -1.5310  0.9503  0.1185
  757MOL0     H 4428   7.433   9.208   1.857  0.6573  0.8500 -1.7914
  757MOL0     H 4429   7.692   9.232   1.859 -2.0545  2.6915  2.1810
  757MOL0     H 4430   7.913   8.875   2.086  2.6832 -0.6694  0.6167
  757MOL0     H 4431   7.895   8.870   1.917 -0.7904  0.6485 -0.6927
  757MOL0     H 4432   8.113   9.003   1.897  1.3354 -0.5074  0.2721
  757MOL0     H 4433   8.096   9.053   2.065 -1.9009  0.4038 -0.3242
  757MOL0     H 4434   8.265   8.856   1.970 -1.0675 -2.3410 -1.8206
  757MOL0     H 4435   8.131   8.751   2.012 -3.8875  2.0909 -0.1146
  757MOL0     H 4436   8.144   8.874   2.245 -1.3214 -2.5631 -0.8145
  757MOL0     H 4437   8.264   8.973   2.171 -0.5117  0.1549 -0.4990
  757MOL0     H 4438   8.361   8.798   2.325 -0.8642  1.8870 -0.8114
  757MOL0     H 4439   8.292   8.667   2.215  1.5937 -0.3372 -2.1672
  757MOL0     H 4440   8.448   8.734   2.044  1.2811 -3.9163  1.6922
  757MOL0     H 4441   8.526   8.693   2.189 -2.4263 -0.1385  3.4453
  757MOL0     H 4442   8.573   8.917   2.269  0.4213  2.9620 -0.5727
  757MOL0     H 4443   8.483   8.980   2.120 -0.5140 -0.5617 -1.5490
  757MOL0     H 4444   8.644   8.896   1.978  0.7527 -0.8010  0.6135
  757MOL0     H 4445   8.741   8.817   2.100  1.5753  0.7508 -0.6857
  757MOL0     H 4446   7.682   8.845   2.053 -1.0827 -1.2747 -2.3347
  757MOL0     H 4447   7.451   8.847   2.062 -0.5059  0.6480 -0.5683
  757MOL0     H 4448   7.075   9.085   1.833 -1.8625  1.4196 -1.3948
  757MOL0     H 4449   6.853   9.134   1.813  2.2441  1.5428 -0.4171
  757MOL0     H 4450   5.154   9.719   1.689  0.3001 -0.3396  1.2328
  757MOL0     H 4451   4.904   9.767   1.696 -1.1542  0.4306  1.5244
  757MOL0     H 4452   4.583  10.051   1.682 -0.0638 -1.3611  1.0578
  757MOL0     H 4453   4.346  10.062   1.639 -1.2134 -3.6914 -0.1248
  757MOL0     H 4454   4.133  10.162   1.653 -0.3630  2.3569  3.0974
  757MOL0     H 4455   4.084   9.983   1.648 -0.5455 -0.2030 -0.0736
  757MOL0     H 4456   3.917  10.161   1.646  1.3948 -0.6833 -1.2940
  757MOL0     H 4457   3.954  10.216   1.811 -3.4037  1.2083 -2.3559
  757MOL0     H 4458   3.861   9.942   1.727 -0.5210 -1.1035  1.0167
  757MOL0     H 4459   3.927   9.975   1.892  1.4387  2.3100  0.2119
  757MOL0     H 4460   3.684  10.095   1.767  0.0827 -2.2348 -1.3301
  757MOL0     H 4461   3.750  10.142   1.933 -0.4677  0.9185 -1.6544
  757MOL0     H 4462   3.549   9.772   1.992  0.2130  1.7280  0.8386
  757MOL0     H 4463   4.276  10.015   2.063  1.0475 -3.5228  0.0147
  757MOL0     H 4464   4.549  10.051   2.207 -0.2656 -0.2279  0.6667
  757MOL0     H 4465   4.435   9.920   2.189  0.1998  1.3655  2.4870
  757MOL0     H 4466   4.602   9.902   2.132 -0.2650  0.5636  0.4276
  758MOL0     O 4467  10.198  10.640   1.395 -0.1907  0.0191  0.1661
  758MOL0     C 4468  10.127  10.619   1.292 -0.6203 -0.2495 -0.3040
  758MOL0     O 4469  10.162  10.545   1.178 -0.1382  0.2437 -0.5322
  758MOL0     C 4470  10.294  10.506   1.161 -0.1605  0.2883  0.7665
  758MOL0     C 4471  10.316  10.385   1.095  0.4641  0.2410  0.0839
  758MOL0     C 4472  10.436  10.318   1.088 -0.5633 -0.7568 -0.3184
  758MOL0     C 4473  10.553  10.385   1.123 -0.4787  0.0114  0.4131
  758MOL0     O 4474  10.668  10.314   1.102  0.2288  0.2042 -0.7670
  758MOL0     C 4475  10.772  10.330   1.199  0.1870  1.0546 -0.9850
  758MOL0     C 4476  10.726  10.299   1.348  0.4828  0.9197  1.0171
  758MOL0     C 4477  10.844  10.322   1.439 -0.0353 -0.2225 -0.0558
  758MOL0     C 4478  10.822  10.286   1.595  0.5068  0.4063  0.7888
  758MOL0     C 4479  10.947  10.292   1.662  0.0968  0.1329 -0.2823
  758MOL0     C 4480  10.949  10.275   1.813  0.7172  0.6272 -0.1703
  758MOL0     C 4481  11.092  10.261   1.868 -0.0424  0.0986 -0.6194
  758MOL0     C 4482  11.090  10.313   2.008  0.6049  0.0872 -0.9404
  758MOL0     N 4483  11.219  10.306   2.082  0.0185  0.1921 -0.2000
  758MOL0     C 4484  11.286  10.190   2.113 -0.4410  0.1635 -0.4818
  758MOL0     C 4485  11.406  10.223   2.159 -0.1835  0.5769 -1.0329
  758MOL0     C 4486  11.509  10.119   2.199 -0.3513  0.3340  0.6348
  758MOL0     C 4487  11.582  10.078   2.071 -0.3274 -0.2658  0.5908
  758MOL0     C 4488  11.734  10.045   2.073 -0.3152 -0.6598  0.0174
  758MOL0     C 4489  11.785   9.935   2.175 -0.4194 -0.5666 -0.2345
  758MOL0     O 4490  11.739   9.960   2.311 -0.2864  0.7245  0.5011
  758MOL0     C 4491  11.824   9.960   2.417 -0.3975 -0.9636  0.5806
  758MOL0     C 4492  11.928   9.867   2.433 -0.0032 -1.2465  1.2422
  758MOL0     C 4493  12.006   9.853   2.546  1.1773  0.2575 -0.1489
  758MOL0     C 4494  12.111   9.741   2.553  0.2191 -0.3700 -0.2535
  758MOL0     C 4495  11.981   9.952   2.651 -0.6288 -0.7314 -0.1864
  758MOL0     C 4496  12.049   9.949   2.781  0.0149 -0.0749 -0.1018
  758MOL0     O 4497  11.961   9.989   2.885 -0.7235  0.4668 -0.2035
  758MOL0     C 4498  11.983   9.920   3.003  0.1887 -0.1838 -0.2568
  758MOL0     C 4499  11.984   9.998   3.126 -0.2653 -0.4430  0.9398
  758MOL0     C 4500  12.001   9.933   3.254  0.2099  0.4178 -0.0035
  758MOL0     C 4501  12.035   9.793   3.249 -0.1243  1.0427 -0.3252
  758MOL0     O 4502  12.065   9.721   3.363  0.1963 -0.1091  0.2435
  758MOL0     C 4503  11.998   9.765   3.482 -1.0973  0.5720  1.1701
  758MOL0     C 4504  12.060   9.678   3.591 -0.4104 -0.2359 -0.3561
  758MOL0     C 4505  12.194   9.744   3.639 -0.3549  0.2126 -0.0344
  758MOL0     C 4506  12.268   9.646   3.730 -0.7409 -0.0929 -0.0733
  758MOL0     C 4507  12.412   9.690   3.764  0.4191 -0.2114 -0.6438
  758MOL0     C 4508  12.501   9.576   3.823 -0.6570 -0.1434  0.3139
  758MOL0     C 4509  12.641   9.643   3.853  0.3505  0.4796 -0.0933
  758MOL0     C 4510  12.756   9.547   3.873 -0.2365 -0.0975 -0.3596
  758MOL0    Cl 4511  12.913   9.638   3.901  0.3459  0.1314 -0.0887
  758MOL0     C 4512  12.033   9.722   3.127  0.5927 -0.6630  0.2333
  758MOL0     C 4513  12.008   9.783   3.005  0.1409  0.6371  0.0082
  758MOL0     O 4514  12.173   9.927   2.793  0.1719 -0.1117  0.2292
  758MOL0     C 4515  11.877  10.046   2.636 -0.0603 -0.4079  0.4397
  758MOL0     C 4516  11.794  10.041   2.525 -0.4724 -0.6463  0.2199
  758MOL0     N 4517  11.415  10.360   2.158 -0.1102 -0.6165  0.7542
  758MOL0     N 4518  11.304  10.409   2.108 -0.2616 -0.2461 -0.3278
  758MOL0     C 4519  10.542  10.524   1.162  0.1132  0.2473 -0.1879
  758MOL0     C 4520  10.415  10.578   1.187  0.4341  0.4854 -0.8132
  758MOL0     C 4521   9.985  10.660   1.292  0.6967  0.9139  0.8993
  758MOL0     C 4522   9.899  10.594   1.203 -0.2857  0.4245  0.6344
  758MOL0     C 4523   9.767  10.626   1.187 -0.1101 -0.1754 -0.9795
  758MOL0     C 4524   9.715  10.740   1.252 -0.8486  0.2238  0.7056
  758MOL0     O 4525   9.593  10.788   1.228 -0.4802  0.2207  0.2072
  758MOL0     C 4526   9.592  10.880   1.118  0.3523 -0.0486 -0.7390
  758MOL0     C 4527   9.462  10.945   1.070  0.3644  0.3828 -0.8656
  758MOL0     C 4528   9.458  10.990   0.924 -0.2227 -0.5186 -0.1328
  758MOL0     C 4529   9.319  11.022   0.863  0.0133 -0.7684  0.0591
  758MOL0     C 4530   9.204  10.940   0.909 -0.2406 -0.6769  0.5771
  758MOL0     C 4531   9.102  10.879   0.944 -0.1218  0.3702  0.4469
  758MOL0     C 4532   9.799  10.813   1.337 -0.2597  0.4535  0.2324
  758MOL0     C 4533   9.929  10.764   1.370 -0.5033 -0.9585  0.8702
  758MOL0     C 4534  10.015  10.852   1.455  0.3742  0.4738  0.1882
  758MOL0     H 4535  10.232  10.320   1.071  3.2643 -3.1809 -1.2797
  758MOL0     H 4536  10.444  10.215   1.056 -1.1781 -0.3484 -1.9112
  758MOL0     H 4537  10.804  10.435   1.197 -0.5580  1.2825 -1.9811
  758MOL0     H 4538  10.853  10.263   1.169 -0.5999 -1.4955  2.0457
  758MOL0     H 4539  10.643  10.365   1.375 -1.7665 -1.1737 -0.4243
  758MOL0     H 4540  10.691  10.196   1.359 -1.0713  1.5256  2.1811
  758MOL0     H 4541  10.935  10.282   1.394  0.4899  0.6657  0.1963
  758MOL0     H 4542  10.851  10.431   1.445 -1.8266 -0.0564 -0.4308
  758MOL0     H 4543  10.755  10.356   1.647 -3.4673 -2.6213  0.2372
  758MOL0     H 4544  10.782  10.185   1.584  1.3019 -0.0506  1.9442
  758MOL0     H 4545  10.991  10.391   1.649  1.3944 -0.3127  0.4766
  758MOL0     H 4546  11.020  10.228   1.612  0.1553  1.9216 -2.6436
  758MOL0     H 4547  10.889  10.348   1.867 -1.2787 -2.0846  1.5893
  758MOL0     H 4548  10.905  10.176   1.829 -3.3286  2.2123 -0.3615
  758MOL0     H 4549  11.177  10.310   1.821  0.1659 -0.6823 -1.0775
  758MOL0     H 4550  11.110  10.153   1.876  1.7177  0.4190 -0.0242
  758MOL0     H 4551  11.061  10.418   2.002 -1.2310 -0.0195  3.0119
  758MOL0     H 4552  11.021  10.268   2.080  1.2025 -0.2863 -0.5911
  758MOL0     H 4553  11.246  10.091   2.096  0.2631 -0.4930  1.3472
  758MOL0     H 4554  11.463  10.036   2.255  2.8855 -1.8573  0.2792
  758MOL0     H 4555  11.584  10.168   2.262  1.0649  2.3021 -2.3774
  758MOL0     H 4556  11.534   9.986   2.035 -0.2930 -0.8310  1.9502
  758MOL0     H 4557  11.573  10.156   1.995 -0.9757 -0.4596  0.4630
  758MOL0     H 4558  11.749  10.005   1.972  1.0472 -1.4038  0.4946
  758MOL0     H 4559  11.789  10.140   2.076 -0.4272 -0.5958  3.2085
  758MOL0     H 4560  11.738   9.846   2.132  0.9752 -1.0996 -0.7092
  758MOL0     H 4561  11.893   9.916   2.170 -0.4391 -0.9652  0.5306
  758MOL0     H 4562  11.947   9.804   2.346  0.8173  2.0384 -1.1716
  758MOL0     H 4563  12.210   9.787   2.555 -0.3927  1.1470 -2.1019
  758MOL0     H 4564  12.110   9.675   2.466  3.1608 -1.2757  0.2770
  758MOL0     H 4565  12.099   9.681   2.644  0.2023  2.9902  2.1364
  758MOL0     H 4566  11.964  10.105   3.116  1.8232 -0.0405  0.7100
  758MOL0     H 4567  11.975   9.996   3.337 -4.7316  0.5299 -1.3296
  758MOL0     H 4568  12.025   9.868   3.503  2.6206  0.6513 -2.7092
  758MOL0     H 4569  11.896   9.731   3.461 -0.6542 -0.6574  0.9000
  758MOL0     H 4570  11.998   9.678   3.681 -0.3126  0.0216 -0.2899
  758MOL0     H 4571  12.066   9.572   3.564 -2.3431 -1.0115  1.9226
  758MOL0     H 4572  12.176   9.832   3.701  1.8330  2.2575 -2.1154
  758MOL0     H 4573  12.253   9.773   3.551  3.4527 -1.9114  1.5855
  758MOL0     H 4574  12.274   9.552   3.674 -0.3554 -0.6062  0.8133
  758MOL0     H 4575  12.203   9.633   3.817  0.7551  1.6274  1.3733
  758MOL0     H 4576  12.453   9.733   3.672  1.1322  2.2282  0.7445
  758MOL0     H 4577  12.411   9.770   3.839 -1.5456 -1.4349  0.7358
  758MOL0     H 4578  12.515   9.501   3.746 -1.8939 -0.4393  0.3696
  758MOL0     H 4579  12.463   9.539   3.919  1.9389 -1.7122  0.8474
  758MOL0     H 4580  12.632   9.707   3.942 -0.8260 -2.5616  2.1591
  758MOL0     H 4581  12.660   9.711   3.770  0.5291 -0.1165 -0.5386
  758MOL0     H 4582  12.765   9.477   3.789  1.9438 -0.1285 -0.1712
  758MOL0     H 4583  12.741   9.494   3.967 -0.4245  1.4817  0.5365
  758MOL0     H 4584  12.043   9.615   3.143 -1.1679 -0.6292  1.9148
  758MOL0     H 4585  12.001   9.721   2.915 -1.8666  1.2807 -0.3268
  758MOL0     H 4586  11.855  10.118   2.714  1.0073 -1.6025  1.9078
  758MOL0     H 4587  11.702  10.099   2.531 -0.4875 -0.8187  2.0220
  758MOL0     H 4588  10.627  10.590   1.176  0.2336  0.5698 -2.1587
  758MOL0     H 4589  10.407  10.679   1.226  0.6179  1.2325 -2.6403
  758MOL0     H 4590   9.934  10.510   1.145 -0.5446  1.6494 -1.3806
  758MOL0     H 4591   9.713  10.561   1.119  2.2788 -3.3672 -0.0990
  758MOL0     H 4592   9.653  10.964   1.152  0.7530 -0.6095 -0.0609
  758MOL0     H 4593   9.640  10.837   1.030 -0.9501  2.6219 -2.9485
  758MOL0     H 4594   9.445  11.033   1.132 -1.2409 -0.8124  0.4785
  758MOL0     H 4595   9.381  10.872   1.084  0.5319  0.2443 -0.5853
  758MOL0     H 4596   9.528  11.074   0.924 -0.3025 -0.2968  3.5023
  758MOL0     H 4597   9.496  10.905   0.867  0.7291  0.6376 -1.2781
  758MOL0     H 4598   9.327  10.989   0.759 -3.5287 -0.7362 -0.3324
  758MOL0     H 4599   9.294  11.128   0.863 -1.1522 -1.0035  1.9305
  758MOL0     H 4600   9.007  10.842   0.976 -1.3765  2.7716 -0.2321
  758MOL0     H 4601   9.756  10.899   1.386 -2.5647 -0.9700  0.8460
  758MOL0     H 4602   9.963  10.920   1.523 -0.2764  0.6651 -0.4864
  758MOL0     H 4603  10.070  10.785   1.521  0.6203  1.2089  0.7381
  758MOL0     H 4604  10.085  10.899   1.385  0.6650 -2.3742 -1.5980
  759MOL0     O 4605   9.942   6.435   3.336  0.3196 -0.0257 -0.4189
  759MOL0     C 4606   9.908   6.550   3.329  1.1089  0.4569 -0.4905
  759MOL0     O 4607   9.975   6.657   3.283 -0.1787  0.2893 -0.8235
  759MOL0     C 4608  10.114   6.656   3.248 -0.3081 -0.0643  0.2838
  759MOL0     C 4609  10.201   6.542   3.227  0.0706 -0.8348  0.0732
  759MOL0     C 4610  10.334   6.550   3.179 -0.1874  0.8056  0.0043
  759MOL0     C 4611  10.397   6.676   3.164  0.1118 -0.2995  0.0129
  759MOL0     O 4612  10.525   6.699   3.137  0.2390  0.8108 -0.4335
  759MOL0     C 4613  10.603   6.603   3.053 -0.1868  0.2918 -0.6240
  759MOL0     C 4614  10.751   6.618   3.031 -0.3677 -0.1624  0.7238
  759MOL0     C 4615  10.834   6.584   3.150 -0.2033  0.0515  0.4032
  759MOL0     C 4616  10.982   6.601   3.104  0.0405  0.5051  0.2528
  759MOL0     C 4617  11.081   6.573   3.210  0.6421  0.6001  0.3358
  759MOL0     C 4618  11.209   6.654   3.187 -0.3422  0.6114 -0.3547
  759MOL0     C 4619  11.322   6.605   3.279  0.4162  0.0237  0.1688
  759MOL0     C 4620  11.465   6.653   3.246  0.2074 -0.1971 -0.2132
  759MOL0     N 4621  11.556   6.621   3.359 -0.4311 -0.0502  0.5316
  759MOL0     C 4622  11.578   6.493   3.402  0.9199  0.3001  0.3723
  759MOL0     C 4623  11.641   6.502   3.522  0.3571 -0.0091 -0.1705
  759MOL0     C 4624  11.704   6.398   3.619  0.6934 -0.8141  1.2411
  759MOL0     C 4625  11.728   6.445   3.757 -0.1936  0.3610  0.2982
  759MOL0     C 4626  11.594   6.463   3.833 -0.4772 -0.3410 -0.0320
  759MOL0     C 4627  11.613   6.437   3.983  0.0878  0.3059 -1.2322
  759MOL0     O 4628  11.510   6.490   4.053  0.5144  0.0463 -0.1062
  759MOL0     C 4629  11.384   6.440   4.045 -0.0155  0.4855  0.2463
  759MOL0     C 4630  11.353   6.306   4.081 -0.2615  0.4707 -0.2859
  759MOL0     C 4631  11.218   6.262   4.075 -0.3843 -0.2258  0.6614
  759MOL0     C 4632  11.189   6.116   4.105 -0.0169 -0.0183  0.1205
  759MOL0     C 4633  11.117   6.353   4.042  0.2480 -0.0405 -1.1846
  759MOL0     C 4634  10.977   6.315   4.044 -0.0015 -0.1775 -0.1142
  759MOL0     O 4635  10.889   6.405   4.088 -0.5831  0.1283 -0.4362
  759MOL0     C 4636  10.755   6.372   4.109  0.1741  0.1739  0.4301
  759MOL0     C 4637  10.721   6.264   4.192 -0.2112  0.4885 -0.2143
  759MOL0     C 4638  10.591   6.223   4.199  0.0896  0.2135 -0.5178
  759MOL0     C 4639  10.490   6.282   4.121  0.2708 -0.3469  0.1074
  759MOL0     O 4640  10.360   6.232   4.106  0.0678 -0.1939  0.2489
  759MOL0     C 4641  10.310   6.121   4.182 -0.2758  0.1498  0.0214
  759MOL0     C 4642  10.170   6.084   4.144 -0.7037 -0.0855 -0.2148
  759MOL0     C 4643  10.072   6.206   4.144  0.5310  0.3494 -0.5831
  759MOL0     C 4644  10.007   6.215   4.275  0.2449 -0.6435 -0.1600
  759MOL0     C 4645   9.918   6.338   4.301 -0.5712 -0.4531 -0.9029
  759MOL0     C 4646   9.878   6.339   4.444 -1.0563  0.4704 -0.1461
  759MOL0     C 4647   9.820   6.467   4.500  0.0858  0.0217  0.1245
  759MOL0     C 4648   9.786   6.457   4.643  0.5251  0.6864  0.2595
  759MOL0    Cl 4649   9.931   6.451   4.745 -0.2952  0.2514 -0.0679
  759MOL0     C 4650  10.524   6.387   4.044  0.1199 -0.5415 -0.6590
  759MOL0     C 4651  10.657   6.434   4.036 -0.0281  0.1491  0.2926
  759MOL0     O 4652  10.945   6.203   3.997  0.4426 -0.0922 -0.4998
  759MOL0     C 4653  11.152   6.485   4.012  0.1597 -0.1051 -0.0869
  759MOL0     C 4654  11.282   6.532   4.001  0.6364 -0.2862 -0.3182
  759MOL0     N 4655  11.630   6.632   3.559  0.1755  0.1822  0.4775
  759MOL0     N 4656  11.589   6.700   3.463 -0.4694  0.2625  0.3939
  759MOL0     C 4657  10.315   6.787   3.201  0.0095  0.7080 -0.0606
  759MOL0     C 4658  10.176   6.786   3.237  0.0793  0.5240 -0.0283
  759MOL0     C 4659   9.768   6.590   3.383 -0.1242  0.5060 -0.5393
  759MOL0     C 4660   9.707   6.714   3.344  0.4763  0.3521  0.5217
  759MOL0     C 4661   9.571   6.748   3.377  0.1384 -0.2301  0.8559
  759MOL0     C 4662   9.501   6.659   3.449 -0.7369 -0.2293 -0.1398
  759MOL0     O 4663   9.370   6.686   3.483 -0.0384  0.1855  0.4358
  759MOL0     C 4664   9.283   6.619   3.398 -0.2326  0.4703 -0.1453
  759MOL0     C 4665   9.144   6.645   3.443 -0.5721  0.7020  0.8927
  759MOL0     C 4666   9.047   6.573   3.338 -0.0413  0.2160  0.2898
  759MOL0     C 4667   8.906   6.565   3.384  0.5164  0.2819  1.4749
  759MOL0     C 4668   8.893   6.496   3.513 -0.5792  0.0378 -0.1637
  759MOL0     C 4669   8.896   6.445   3.629 -0.2256 -0.5252 -0.1939
  759MOL0     C 4670   9.563   6.547   3.495  0.3261  0.1684 -0.2045
  759MOL0     C 4671   9.691   6.511   3.469  0.1611  0.6188 -1.0211
  759MOL0     C 4672   9.741   6.384   3.537 -1.4195 -0.4835  0.1381
  759MOL0     H 4673  10.156   6.443   3.234 -1.5428 -0.2559 -1.3607
  759MOL0     H 4674  10.402   6.468   3.158  0.9907  2.0333 -1.1530
  759MOL0     H 4675  10.550   6.610   2.957 -1.7422  1.9562  0.3142
  759MOL0     H 4676  10.583   6.503   3.092 -0.3431  0.7239  0.4107
  759MOL0     H 4677  10.756   6.548   2.947 -2.3904 -1.5107  1.6464
  759MOL0     H 4678  10.772   6.718   2.992  0.9845 -0.3312  1.0013
  759MOL0     H 4679  10.813   6.642   3.241  3.0225  1.3857  0.4395
  759MOL0     H 4680  10.815   6.478   3.171  0.5643 -0.3728 -0.9031
  759MOL0     H 4681  10.993   6.529   3.023 -1.0289 -1.2573  1.5861
  759MOL0     H 4682  11.004   6.704   3.072  1.1625  0.6485  1.4173
  759MOL0     H 4683  11.092   6.464   3.203 -1.3166  0.3992 -0.4934
  759MOL0     H 4684  11.028   6.600   3.302 -1.2073  0.2335 -0.5616
  759MOL0     H 4685  11.245   6.636   3.085  0.5594  0.1710  0.0300
  759MOL0     H 4686  11.192   6.762   3.195  1.8554  0.9256  0.8841
  759MOL0     H 4687  11.320   6.499   3.304  1.8868 -0.2013 -0.5460
  759MOL0     H 4688  11.297   6.657   3.372 -5.3202  0.2637 -1.1760
  759MOL0     H 4689  11.503   6.610   3.153  1.4941 -0.7279  0.5341
  759MOL0     H 4690  11.477   6.760   3.225  1.6701 -0.6800 -2.1829
  759MOL0     H 4691  11.562   6.395   3.358 -0.7442 -0.4587  2.4956
  759MOL0     H 4692  11.793   6.345   3.582 -0.2429 -1.1305 -0.6681
  759MOL0     H 4693  11.629   6.318   3.622 -0.9372  0.6694  1.0415
  759MOL0     H 4694  11.789   6.376   3.815 -0.5333  1.9791  2.7764
  759MOL0     H 4695  11.770   6.546   3.758  1.5294 -0.3208  1.9859
  759MOL0     H 4696  11.566   6.567   3.814  1.0898 -0.2407 -2.2334
  759MOL0     H 4697  11.517   6.400   3.788 -0.2741 -1.3900  1.0276
  759MOL0     H 4698  11.622   6.330   4.005  2.3342  0.3207 -1.7441
  759MOL0     H 4699  11.704   6.482   4.023  1.8692 -2.2556 -2.1035
  759MOL0     H 4700  11.437   6.246   4.115 -1.9597 -1.9144 -0.1355
  759MOL0     H 4701  11.279   6.056   4.125  0.1091  0.3532  0.6834
  759MOL0     H 4702  11.140   6.063   4.023 -0.8656 -1.7947  1.6932
  759MOL0     H 4703  11.130   6.109   4.197  0.3946 -2.4434  0.2824
  759MOL0     H 4704  10.803   6.214   4.243  1.6358  0.5897 -2.8915
  759MOL0     H 4705  10.557   6.133   4.250  3.6660  0.3041  2.5189
  759MOL0     H 4706  10.370   6.030   4.166 -1.3219 -0.4611 -0.5815
  759MOL0     H 4707  10.306   6.151   4.287 -4.8829  3.5904 -0.8527
  759MOL0     H 4708  10.167   6.040   4.044 -2.4936  1.4249 -0.8806
  759MOL0     H 4709  10.145   6.013   4.224  0.3249 -0.9108 -0.6027
  759MOL0     H 4710  10.002   6.195   4.060  1.0139  0.9443 -1.0663
  759MOL0     H 4711  10.119   6.302   4.122  0.7412  0.2068 -0.7515
  759MOL0     H 4712  10.078   6.212   4.358 -2.2455  2.6065  2.3601
  759MOL0     H 4713   9.938   6.130   4.287 -3.2541  2.1066  1.2984
  759MOL0     H 4714   9.962   6.432   4.266 -0.9406  0.0503 -0.0470
  759MOL0     H 4715   9.828   6.327   4.241 -0.4559 -1.3177 -0.9246
  759MOL0     H 4716   9.965   6.328   4.509 -2.4794  0.6570  1.9218
  759MOL0     H 4717   9.813   6.251   4.453 -1.1245  0.6258  1.2055
  759MOL0     H 4718   9.735   6.500   4.438  0.0669  0.4818  0.3929
  759MOL0     H 4719   9.899   6.542   4.504 -0.8597  0.9923  1.7978
  759MOL0     H 4720   9.720   6.372   4.664 -0.2699  1.7070  2.0587
  759MOL0     H 4721   9.722   6.540   4.673 -2.5843 -1.0800 -1.0376
  759MOL0     H 4722  10.442   6.440   3.997  2.4523  3.9423 -0.2239
  759MOL0     H 4723  10.680   6.525   3.982  0.7142  0.9132  1.8375
  759MOL0     H 4724  11.081   6.567   4.002  0.6844  0.2547 -0.8961
  759MOL0     H 4725  11.309   6.635   3.980  0.3736 -0.5744 -2.2247
  759MOL0     H 4726  10.365   6.883   3.208 -0.5179  0.8790  1.9937
  759MOL0     H 4727  10.129   6.883   3.245  0.1915  0.5233  0.7321
  759MOL0     H 4728   9.746   6.803   3.295  2.0757  0.1242  1.3298
  759MOL0     H 4729   9.535   6.846   3.346  0.9704  0.5553  2.2626
  759MOL0     H 4730   9.289   6.664   3.299  0.7060  0.5206 -0.0710
  759MOL0     H 4731   9.309   6.513   3.400  2.7061  1.0663  3.1081
  759MOL0     H 4732   9.127   6.753   3.442 -2.1718  0.4930 -0.9100
  759MOL0     H 4733   9.124   6.604   3.542 -2.3384  1.3319  0.8366
  759MOL0     H 4734   9.047   6.621   3.239 -0.9895 -1.1544 -0.4110
  759MOL0     H 4735   9.087   6.471   3.339  0.1536  0.2978  1.0376
  759MOL0     H 4736   8.848   6.507   3.312  0.2221  0.1144  1.8411
  759MOL0     H 4737   8.850   6.659   3.389  1.4906  0.8978  0.9960
  759MOL0     H 4738   8.891   6.395   3.723  0.2465  0.1645  0.2020
  759MOL0     H 4739   9.499   6.498   3.569 -0.5169  0.6367 -0.6075
  759MOL0     H 4740   9.832   6.414   3.589 -0.9350 -0.6602 -0.5823
  759MOL0     H 4741   9.666   6.334   3.598 -2.8351  0.1922 -0.9817
  759MOL0     H 4742   9.777   6.313   3.462 -0.8541  0.1157 -0.1769
  760MOL0     O 4743   2.160   4.642   0.963  0.1598  0.2702  0.2912
  760MOL0     C 4744   2.192   4.723   0.880 -0.7464  0.5357 -0.3856
  760MOL0     O 4745   2.115   4.760   0.775 -0.2746  0.0133  0.3511
  760MOL0     C 4746   1.995   4.699   0.759 -0.4980 -0.7647  0.2486
  760MOL0     C 4747   1.899   4.692   0.863 -0.5268 -1.1918  0.4789
  760MOL0     C 4748   1.772   4.634   0.840  0.1375 -0.1360  1.0368
  760MOL0     C 4749   1.737   4.588   0.709 -0.9286 -0.1681 -0.4697
  760MOL0     O 4750   1.617   4.528   0.680 -0.4023  0.2376 -0.3226
  760MOL0     C 4751   1.617   4.408   0.615  0.4842  0.2912  0.1298
  760MOL0     C 4752   1.505   4.323   0.664  0.0348  0.3802  0.0276
  760MOL0     C 4753   1.552   4.251   0.794  0.0469  0.2107 -0.0363
  760MOL0     C 4754   1.429   4.181   0.851 -0.8884 -0.4598 -0.2013
  760MOL0     C 4755   1.341   4.282   0.930  0.5688 -0.0829 -0.4670
  760MOL0     C 4756   1.221   4.208   0.982 -0.0233  0.3607 -0.2751
  760MOL0     C 4757   1.120   4.307   1.031 -0.8762  0.7869  0.2016
  760MOL0     C 4758   1.033   4.253   1.150  0.5937  1.0109 -0.2268
  760MOL0     N 4759   0.899   4.188   1.119  0.7446 -0.9271  0.7812
  760MOL0     C 4760   0.791   4.238   1.048  0.4259 -1.4066 -0.1959
  760MOL0     C 4761   0.692   4.142   1.049  0.2937 -0.5732 -0.5603
  760MOL0     C 4762   0.555   4.149   0.980  0.0724 -0.1140  0.3578
  760MOL0     C 4763   0.559   4.068   0.850 -0.4895  0.4367  0.8452
  760MOL0     C 4764   0.631   4.147   0.740 -0.1434  0.8137  0.5089
  760MOL0     C 4765   0.661   4.054   0.618 -0.2845  0.7656  0.0945
  760MOL0     O 4766   0.687   4.122   0.493  0.0000 -0.1734 -0.0625
  760MOL0     C 4767   0.799   4.192   0.468  0.6848 -0.5780  0.0909
  760MOL0     C 4768   0.905   4.212   0.566  1.2751  0.3426  0.4506
  760MOL0     C 4769   1.000   4.303   0.528  0.6209 -0.8457 -0.0742
  760MOL0     C 4770   1.110   4.321   0.635 -0.2994  0.3480  0.0784
  760MOL0     C 4771   1.010   4.362   0.399 -0.5333  0.2466 -0.3332
  760MOL0     C 4772   1.129   4.437   0.345 -0.7281 -0.7018 -0.0946
  760MOL0     O 4773   1.201   4.507   0.438 -0.3822 -0.1352  0.0187
  760MOL0     C 4774   1.319   4.572   0.416  0.7530  0.2961 -0.2289
  760MOL0     C 4775   1.395   4.567   0.294  0.6462  0.3099 -0.9949
  760MOL0     C 4776   1.510   4.635   0.287 -0.0148 -0.0325  0.1250
  760MOL0     C 4777   1.537   4.733   0.377 -0.8117 -0.0763  0.8790
  760MOL0     O 4778   1.643   4.817   0.349  0.0511  0.0857  0.5537
  760MOL0     C 4779   1.640   4.957   0.374  0.1200  0.4171 -0.7881
  760MOL0     C 4780   1.719   5.000   0.495 -0.9017 -0.4774 -0.1660
  760MOL0     C 4781   1.838   5.098   0.457  0.3577 -0.4194  0.0733
  760MOL0     C 4782   1.952   5.013   0.418 -0.7505  0.7409  0.5869
  760MOL0     C 4783   2.076   5.097   0.385  0.7921  0.9012  0.5974
  760MOL0     C 4784   2.204   5.017   0.392  0.4304 -0.4062  0.0697
  760MOL0     C 4785   2.332   5.096   0.352  0.2116 -0.1336 -0.3843
  760MOL0     C 4786   2.455   5.002   0.370  0.0726 -1.0172 -0.2010
  760MOL0    Cl 4787   2.443   4.856   0.266  0.0456  0.4840 -0.2576
  760MOL0     C 4788   1.457   4.757   0.486 -0.0409  0.4618  0.6851
  760MOL0     C 4789   1.357   4.668   0.511 -0.3594  0.1397 -0.1875
  760MOL0     O 4790   1.146   4.425   0.222 -0.3059 -0.0997  0.0208
  760MOL0     C 4791   0.906   4.338   0.311  0.2666 -0.1213  0.2446
  760MOL0     C 4792   0.799   4.257   0.341 -0.2587 -0.1254 -0.7099
  760MOL0     N 4793   0.737   4.037   1.125 -0.4432 -0.6262 -0.2153
  760MOL0     N 4794   0.859   4.066   1.162  0.5020  0.4060 -0.8436
  760MOL0     C 4795   1.829   4.620   0.605  0.5843 -0.4150  0.4308
  760MOL0     C 4796   1.954   4.672   0.636 -1.3965  0.7617  0.9148
  760MOL0     C 4797   2.327   4.775   0.895  0.0996  0.7889 -0.0501
  760MOL0     C 4798   2.376   4.860   0.792  0.9021  0.4289 -0.1922
  760MOL0     C 4799   2.497   4.924   0.803 -0.7630  0.3223  0.2166
  760MOL0     C 4800   2.587   4.904   0.909  0.9139 -0.3755 -0.6728
  760MOL0     O 4801   2.711   4.963   0.897 -0.0377 -0.2076 -0.9653
  760MOL0     C 4802   2.803   4.955   1.007 -0.0749  0.8344  0.4074
  760MOL0     C 4803   2.888   5.081   1.009 -0.4663  0.0002 -0.2053
  760MOL0     C 4804   2.977   5.088   1.143  0.1504  1.3989 -0.0020
  760MOL0     C 4805   3.061   4.967   1.167  0.2151  0.3854 -0.7744
  760MOL0     C 4806   3.151   4.935   1.054 -0.4499  0.0463  0.4957
  760MOL0     C 4807   3.214   4.907   0.956  0.1859 -0.7833 -0.8598
  760MOL0     C 4808   2.541   4.810   1.005  0.3366 -0.0702  0.1181
  760MOL0     C 4809   2.420   4.741   0.997  0.2831  1.2945  0.4636
  760MOL0     C 4810   2.402   4.635   1.104  0.3231  0.2538 -0.8667
  760MOL0     H 4811   1.927   4.713   0.966  0.5555 -0.7513  0.1092
  760MOL0     H 4812   1.704   4.610   0.921  1.4327 -2.0210  1.6283
  760MOL0     H 4813   1.718   4.366   0.622  0.4449 -0.0978 -1.3074
  760MOL0     H 4814   1.595   4.429   0.509  1.2634  0.5693  0.0149
  760MOL0     H 4815   1.421   4.392   0.678 -0.0657  1.0641 -3.1039
  760MOL0     H 4816   1.479   4.258   0.580 -1.0460  0.3448  0.3708
  760MOL0     H 4817   1.611   4.166   0.759 -1.8811 -0.8456 -0.8690
  760MOL0     H 4818   1.606   4.315   0.864  2.2402 -1.4295 -0.1297
  760MOL0     H 4819   1.385   4.122   0.770 -1.5503  2.0985 -1.8329
  760MOL0     H 4820   1.468   4.113   0.926 -0.8006  0.3037  0.4606
  760MOL0     H 4821   1.296   4.354   0.861  3.4448  0.5166 -1.8891
  760MOL0     H 4822   1.391   4.329   1.016 -0.1634 -1.2548  0.6335
  760MOL0     H 4823   1.181   4.150   0.899  0.8012  0.4292 -0.7340
  760MOL0     H 4824   1.245   4.144   1.068  0.4459  1.9378  0.8260
  760MOL0     H 4825   1.058   4.345   0.949 -2.5522 -0.6102  0.7549
  760MOL0     H 4826   1.168   4.395   1.074  0.4984  0.5951 -0.8527
  760MOL0     H 4827   1.077   4.172   1.210  0.5274  0.8211 -0.4347
  760MOL0     H 4828   1.012   4.342   1.210  1.1927  1.1016 -0.1387
  760MOL0     H 4829   0.791   4.332   0.994  1.3301  0.7786  3.2792
  760MOL0     H 4830   0.525   4.252   0.960 -2.2108 -0.4846  1.5956
  760MOL0     H 4831   0.491   4.115   1.062  0.9549 -1.3349  0.5890
  760MOL0     H 4832   0.616   3.976   0.862 -2.2376 -0.6171  1.5111
  760MOL0     H 4833   0.454   4.045   0.826 -0.1340 -1.3743  0.8725
  760MOL0     H 4834   0.553   4.213   0.701 -0.9451 -1.2657 -1.6479
  760MOL0     H 4835   0.720   4.201   0.772 -1.1274  2.8880 -0.1012
  760MOL0     H 4836   0.748   3.995   0.646 -0.4936 -0.0153 -0.8465
  760MOL0     H 4837   0.577   3.984   0.610  0.2126 -0.0001  1.3160
  760MOL0     H 4838   0.916   4.153   0.657 -0.2431 -2.0965 -0.8417
  760MOL0     H 4839   1.197   4.258   0.612 -1.5115 -1.5525  0.4576
  760MOL0     H 4840   1.072   4.290   0.733  2.7909 -2.1852  0.6420
  760MOL0     H 4841   1.147   4.423   0.647  3.5092 -0.8539 -0.0426
  760MOL0     H 4842   1.383   4.489   0.219  0.6145 -2.5715  1.7592
  760MOL0     H 4843   1.581   4.618   0.206  1.7248 -0.1725  1.6152
  760MOL0     H 4844   1.693   4.990   0.284  0.7818 -0.1358 -0.6083
  760MOL0     H 4845   1.540   5.001   0.372 -0.3806 -0.7000 -1.5550
  760MOL0     H 4846   1.659   5.050   0.571  0.3378 -1.6788  1.6811
  760MOL0     H 4847   1.753   4.908   0.542 -0.7272 -0.5501 -0.4316
  760MOL0     H 4848   1.866   5.162   0.541 -0.3137 -0.1594  0.1084
  760MOL0     H 4849   1.816   5.163   0.372 -0.1530  0.2030  0.6724
  760MOL0     H 4850   1.936   4.943   0.335  1.5904  1.1861 -0.3231
  760MOL0     H 4851   1.983   4.943   0.496  1.9484 -0.4922 -1.3956
  760MOL0     H 4852   2.076   5.144   0.286  0.9599 -0.1430  0.0846
  760MOL0     H 4853   2.082   5.181   0.455 -1.9609  1.0770  0.7074
  760MOL0     H 4854   2.198   4.926   0.331 -2.8207  0.3478 -0.9439
  760MOL0     H 4855   2.210   4.989   0.497 -1.2567 -2.5779 -0.3548
  760MOL0     H 4856   2.337   5.175   0.428 -2.1293 -1.4731  1.2882
  760MOL0     H 4857   2.319   5.145   0.255 -1.7876  0.7166  0.2593
  760MOL0     H 4858   2.452   4.963   0.472  1.4050 -2.1407 -0.5598
  760MOL0     H 4859   2.550   5.049   0.341 -0.3971 -1.7364 -3.3181
  760MOL0     H 4860   1.478   4.831   0.562 -0.7039  0.0153  1.3192
  760MOL0     H 4861   1.298   4.688   0.600  0.5557  1.1066  0.2190
  760MOL0     H 4862   0.895   4.387   0.214 -3.8247 -0.1630  0.5033
  760MOL0     H 4863   0.714   4.247   0.274 -0.3255 -1.3169 -0.4628
  760MOL0     H 4864   1.798   4.600   0.502  3.1801  0.8119 -0.6716
  760MOL0     H 4865   2.030   4.677   0.559 -2.2359  1.8064  0.1065
  760MOL0     H 4866   2.309   4.888   0.711  0.1365 -0.7776  0.0069
  760MOL0     H 4867   2.517   4.994   0.723 -3.6830  2.1439  0.9350
  760MOL0     H 4868   2.747   4.948   1.100 -1.9405 -2.3034 -0.7798
  760MOL0     H 4869   2.865   4.866   0.991  1.9686  2.0717  1.0114
  760MOL0     H 4870   2.817   5.165   1.013  0.5804  0.9512 -0.9587
  760MOL0     H 4871   2.942   5.094   0.915 -0.5171  0.7978 -0.1374
  760MOL0     H 4872   3.036   5.180   1.151  2.2653 -0.0078  2.0193
  760MOL0     H 4873   2.904   5.095   1.224 -2.0850 -3.6165 -1.2470
  760MOL0     H 4874   3.003   4.883   1.206 -0.2729  1.0285 -0.0831
  760MOL0     H 4875   3.129   5.000   1.247 -0.6063  2.4992 -0.8995
  760MOL0     H 4876   3.267   4.889   0.865  1.2492 -0.3605 -0.3390
  760MOL0     H 4877   2.616   4.779   1.078 -1.0992 -1.8237  0.9297
  760MOL0     H 4878   2.332   4.657   1.185  1.8815 -0.6033  0.8022
  760MOL0     H 4879   2.381   4.536   1.064  2.2091 -1.7077  2.5085
  760MOL0     H 4880   2.495   4.599   1.149  0.2747 -3.4677 -3.3219
  761MOL0     O 4881   1.622   6.505   4.038 -1.1108 -0.9738  0.8658
  761MOL0     C 4882   1.503   6.530   4.052 -0.0804  1.1622  0.5908
  761MOL0     O 4883   1.455   6.636   4.129  0.1106 -0.0581  0.3369
  761MOL0     C 4884   1.551   6.678   4.221  0.8150  0.2457  0.0125
  761MOL0     C 4885   1.584   6.814   4.206  0.1307  0.4166 -0.4213
  761MOL0     C 4886   1.664   6.868   4.311  0.1968 -0.5312  0.5128
  761MOL0     C 4887   1.722   6.790   4.416 -0.3111 -0.0486 -0.4165
  761MOL0     O 4888   1.824   6.847   4.491  0.5418 -0.3212 -0.7181
  761MOL0     C 4889   1.911   6.761   4.574  1.6801 -0.0513 -0.3653
  761MOL0     C 4890   1.850   6.739   4.719  0.0742 -0.4352 -0.6515
  761MOL0     C 4891   1.951   6.679   4.824 -0.2451 -0.6647  0.0851
  761MOL0     C 4892   2.030   6.789   4.896  0.6197 -0.3471  0.5780
  761MOL0     C 4893   2.109   6.729   5.002 -0.5649 -0.9728  0.0373
  761MOL0     C 4894   2.188   6.835   5.078 -0.3336  0.3814 -0.4777
  761MOL0     C 4895   2.301   6.773   5.166 -0.4358 -0.8947  0.4033
  761MOL0     C 4896   2.403   6.870   5.223  0.4317 -0.7280 -0.2437
  761MOL0     N 4897   2.444   6.976   5.133  0.8973 -0.3564  0.3675
  761MOL0     C 4898   2.526   6.961   5.025 -0.9489 -0.4871 -0.8957
  761MOL0     C 4899   2.541   7.079   4.977  0.1891 -0.2591  0.1942
  761MOL0     C 4900   2.629   7.116   4.865  0.0025  1.1187 -0.3607
  761MOL0     C 4901   2.773   7.161   4.911 -0.4716  0.4994  0.6854
  761MOL0     C 4902   2.782   7.313   4.939 -0.3118  0.0528 -0.0469
  761MOL0     C 4903   2.925   7.327   5.013 -0.2947  1.4866  0.9255
  761MOL0     O 4904   2.893   7.273   5.142 -0.7068 -0.3135 -0.1931
  761MOL0     C 4905   3.008   7.226   5.215 -0.2295  0.1580  0.8167
  761MOL0     C 4906   2.982   7.131   5.312 -0.6553 -0.0216  0.4357
  761MOL0     C 4907   3.082   7.080   5.396 -0.9405 -0.7958  0.3604
  761MOL0     C 4908   3.043   7.001   5.521  0.4711 -0.3877 -0.4040
  761MOL0     C 4909   3.218   7.120   5.378  1.0722 -0.5341  0.0596
  761MOL0     C 4910   3.334   7.068   5.452  0.7133  0.9585 -1.0164
  761MOL0     O 4911   3.441   7.045   5.379 -1.1139  0.1761  0.3390
  761MOL0     C 4912   3.559   7.008   5.438 -0.1258 -0.1207 -0.1969
  761MOL0     C 4913   3.611   6.879   5.413 -0.7617 -0.2112 -0.1217
  761MOL0     C 4914   3.728   6.822   5.467  0.5409  0.2696  0.8062
  761MOL0     C 4915   3.803   6.902   5.552  0.5513  0.2170 -0.9351
  761MOL0     O 4916   3.930   6.864   5.601  0.2756  0.4760  0.3449
  761MOL0     C 4917   3.952   6.717   5.629 -0.7528 -0.4824 -0.0843
  761MOL0     C 4918   4.067   6.694   5.719 -0.2033 -0.1986 -0.5227
  761MOL0     C 4919   4.200   6.727   5.652 -0.4497  0.0892  0.1930
  761MOL0     C 4920   4.268   6.594   5.621  0.0336  0.3069 -0.3024
  761MOL0     C 4921   4.387   6.595   5.518  0.1985 -0.8465 -0.0263
  761MOL0     C 4922   4.491   6.710   5.544 -0.2622 -0.1454 -0.0116
  761MOL0     C 4923   4.602   6.702   5.438 -0.2155 -0.1167 -0.5429
  761MOL0     C 4924   4.727   6.785   5.470  0.5718 -0.1106  0.0307
  761MOL0    Cl 4925   4.817   6.740   5.616  0.0678  0.3620 -0.8185
  761MOL0     C 4926   3.746   7.030   5.583 -0.4887  0.0181 -0.7092
  761MOL0     C 4927   3.628   7.080   5.534 -0.9388 -0.5586 -0.6477
  761MOL0     O 4928   3.325   7.039   5.572  0.0395  0.6381  0.1551
  761MOL0     C 4929   3.236   7.216   5.282  0.1559 -0.3151  0.4866
  761MOL0     C 4930   3.137   7.271   5.207 -0.0060 -1.3025  1.0345
  761MOL0     N 4931   2.458   7.164   5.043  0.0138 -1.0060 -0.1136
  761MOL0     N 4932   2.401   7.103   5.141  0.3389 -0.2526 -0.0066
  761MOL0     C 4933   1.683   6.657   4.427  0.1394  0.9788 -0.1820
  761MOL0     C 4934   1.598   6.603   4.333  0.2578  0.1606 -0.2602
  761MOL0     C 4935   1.412   6.441   3.975 -0.2885  0.1896  0.4401
  761MOL0     C 4936   1.443   6.395   3.845 -0.4250 -0.2076  0.6892
  761MOL0     C 4937   1.367   6.306   3.772 -0.2366 -0.0183  0.0596
  761MOL0     C 4938   1.250   6.255   3.827  0.3128  0.4943  0.2108
  761MOL0     O 4939   1.165   6.200   3.730  0.0272 -0.5059 -0.0939
  761MOL0     C 4940   1.030   6.154   3.769 -1.0185 -0.0877 -0.3297
  761MOL0     C 4941   0.943   6.163   3.639  0.3088  0.1904 -0.7252
  761MOL0     C 4942   0.796   6.123   3.663  0.0586 -0.2729  0.6626
  761MOL0     C 4943   0.709   6.137   3.538 -0.5956  0.5524  0.6456
  761MOL0     C 4944   0.577   6.067   3.555 -0.0589 -0.4744 -0.5783
  761MOL0     C 4945   0.466   6.026   3.585 -0.9503 -0.1470 -1.1681
  761MOL0     C 4946   1.215   6.290   3.958  0.1860  0.7641  0.5697
  761MOL0     C 4947   1.293   6.388   4.027  0.3120  0.5443 -0.3154
  761MOL0     C 4948   1.240   6.431   4.156  0.6588 -0.3175 -0.0325
  761MOL0     H 4949   1.538   6.866   4.123  0.8709  0.1131 -1.0334
  761MOL0     H 4950   1.692   6.972   4.300 -3.1894  0.4551 -0.0978
  761MOL0     H 4951   1.998   6.822   4.603 -1.0135  2.4375  3.6477
  761MOL0     H 4952   1.933   6.667   4.524 -2.0377 -1.4440  0.3328
  761MOL0     H 4953   1.827   6.842   4.750  1.6729 -0.4373  0.6655
  761MOL0     H 4954   1.754   6.686   4.720 -0.9704  1.3539 -0.5346
  761MOL0     H 4955   1.896   6.617   4.895  0.0786  0.9059  1.7859
  761MOL0     H 4956   2.016   6.611   4.769 -0.7734  0.3356 -1.8387
  761MOL0     H 4957   2.079   6.862   4.831 -1.9548  0.3918 -0.6975
  761MOL0     H 4958   1.955   6.850   4.947  2.8793  2.1611  1.1529
  761MOL0     H 4959   2.179   6.653   4.965  1.5960 -0.4800  2.7708
  761MOL0     H 4960   2.036   6.680   5.067 -0.2944 -0.9718  0.3415
  761MOL0     H 4961   2.236   6.897   5.001  2.5416 -0.6729  0.3231
  761MOL0     H 4962   2.112   6.893   5.130  1.4617  3.3895 -0.9696
  761MOL0     H 4963   2.359   6.700   5.109 -0.9197  1.1961 -3.0301
  761MOL0     H 4964   2.258   6.711   5.245 -0.0115 -2.1919 -0.3555
  761MOL0     H 4965   2.349   6.907   5.310 -0.3918 -0.5145 -0.8353
  761MOL0     H 4966   2.489   6.813   5.260 -0.7373 -0.5470  3.0378
  761MOL0     H 4967   2.579   6.873   4.989 -3.0626 -2.8172  1.3165
  761MOL0     H 4968   2.591   7.199   4.804  2.3022  2.2608 -0.3434
  761MOL0     H 4969   2.644   7.036   4.791  1.5271  0.9390  0.1112
  761MOL0     H 4970   2.801   7.099   4.997 -1.5839 -0.1464  0.6034
  761MOL0     H 4971   2.833   7.140   4.822 -1.7372  0.0892 -0.1074
  761MOL0     H 4972   2.781   7.347   4.835 -1.6118 -1.5170 -0.5926
  761MOL0     H 4973   2.702   7.363   4.994  0.1613  0.9342 -0.1408
  761MOL0     H 4974   3.007   7.271   4.967 -0.1946  1.5788  0.9922
  761MOL0     H 4975   2.949   7.433   5.027 -2.4795  2.3405 -1.1273
  761MOL0     H 4976   2.877   7.106   5.319 -0.4725 -0.7333  0.7083
  761MOL0     H 4977   2.946   6.954   5.503  1.1082 -1.9061 -0.0145
  761MOL0     H 4978   3.038   7.075   5.601  3.0644 -3.7748  3.2702
  761MOL0     H 4979   3.110   6.920   5.551  2.4163  1.2997  0.0627
  761MOL0     H 4980   3.572   6.808   5.342  0.7440  0.7010 -1.9609
  761MOL0     H 4981   3.761   6.729   5.421 -2.6258 -1.5531  1.9450
  761MOL0     H 4982   3.863   6.678   5.680 -1.0674  1.2386  0.7849
  761MOL0     H 4983   3.957   6.659   5.537  0.1009 -1.4502  0.5533
  761MOL0     H 4984   4.054   6.762   5.803 -0.7880 -2.1921  1.0698
  761MOL0     H 4985   4.054   6.592   5.754  0.3467 -0.2319 -0.4165
  761MOL0     H 4986   4.266   6.787   5.715  2.0049 -1.0759 -1.1425
  761MOL0     H 4987   4.182   6.784   5.560  0.4186  2.5098  1.4357
  761MOL0     H 4988   4.200   6.525   5.570  2.0516 -4.1033  2.3907
  761MOL0     H 4989   4.308   6.545   5.710  0.0237  0.6900 -0.0840
  761MOL0     H 4990   4.439   6.499   5.520 -3.2442 -2.9154 -0.1401
  761MOL0     H 4991   4.343   6.608   5.419 -0.1252  0.0929  0.2318
  761MOL0     H 4992   4.532   6.702   5.645 -0.9347  1.8425  0.4600
  761MOL0     H 4993   4.441   6.806   5.533  0.3674 -0.1169 -4.8068
  761MOL0     H 4994   4.547   6.732   5.348 -0.9267  0.0667 -0.0561
  761MOL0     H 4995   4.632   6.600   5.413  1.2335  0.0332  0.4383
  761MOL0     H 4996   4.702   6.891   5.465 -1.6393 -0.6152 -1.1070
  761MOL0     H 4997   4.794   6.767   5.385  1.7990  3.5555  0.0836
  761MOL0     H 4998   3.804   7.093   5.649 -0.5376  2.6258 -2.9776
  761MOL0     H 4999   3.585   7.171   5.575 -0.7618 -0.3578 -0.9054
  761MOL0     H 5000   3.328   7.268   5.257 -0.4604  0.8525  0.5790
  761MOL0     H 5001   3.164   7.350   5.139  2.4080 -1.6493  1.4678
  761MOL0     H 5002   1.721   6.593   4.506  1.4989  3.2814  1.1528
  761MOL0     H 5003   1.560   6.502   4.342  0.7024  0.0254  0.0961
  761MOL0     H 5004   1.530   6.429   3.791 -2.0861 -0.0449 -2.0788
  761MOL0     H 5005   1.401   6.293   3.670  0.6573 -2.5402  0.6022
  761MOL0     H 5006   1.030   6.047   3.790  0.6294 -0.5576 -2.4003
  761MOL0     H 5007   0.996   6.215   3.853  0.5814  1.9911 -1.1110
  761MOL0     H 5008   0.980   6.086   3.571  3.7400  0.2510  0.8439
  761MOL0     H 5009   0.955   6.260   3.589 -0.4905  0.6625 -0.0337
  761MOL0     H 5010   0.789   6.019   3.698  0.3805 -0.2323  0.8477
  761MOL0     H 5011   0.751   6.182   3.743 -2.1446  0.8237 -1.2797
  761MOL0     H 5012   0.768   6.100   3.453  1.8766  0.8400  2.1291
  761MOL0     H 5013   0.701   6.243   3.515 -0.7151  0.6986  1.3449
  761MOL0     H 5014   0.364   6.014   3.616 -1.3128 -1.3648 -2.7154
  761MOL0     H 5015   1.132   6.247   4.013 -0.4382 -0.5136 -1.2747
  761MOL0     H 5016   1.325   6.455   4.221  1.0066  0.4330 -0.7503
  761MOL0     H 5017   1.174   6.519   4.152 -1.0418 -1.4721  1.2830
  761MOL0     H 5018   1.180   6.351   4.200  1.8650  0.2101  2.7686
  762MOL0     O 5019   4.408   6.535   7.099  0.3186 -0.4427 -0.4995
  762MOL0     C 5020   4.358   6.592   7.003 -0.3637 -0.0835 -0.3558
  762MOL0     O 5021   4.402   6.698   6.932 -0.1290 -0.4300  0.4932
  762MOL0     C 5022   4.531   6.738   6.937 -0.4220 -0.7455 -0.5395
  762MOL0     C 5023   4.566   6.876   6.890  0.0926  1.2486 -0.4469
  762MOL0     C 5024   4.692   6.921   6.892 -0.3463  0.0395 -0.0917
  762MOL0     C 5025   4.803   6.832   6.934  0.5219  0.2563  0.4482
  762MOL0     O 5026   4.936   6.867   6.926 -0.0616 -0.2846 -0.1191
  762MOL0     C 5027   4.970   6.993   6.870 -0.0042 -0.4287  0.7516
  762MOL0     C 5028   5.113   7.022   6.827 -0.1431 -0.6169  0.6035
  762MOL0     C 5029   5.219   7.029   6.932  0.0214  0.4542 -0.0142
  762MOL0     C 5030   5.350   7.077   6.874 -0.2038  0.4048  0.4310
  762MOL0     C 5031   5.481   7.060   6.966  0.5229 -1.0949  0.1722
  762MOL0     C 5032   5.512   6.920   7.023 -0.1445  0.5112 -0.1612
  762MOL0     C 5033   5.658   6.909   7.078  0.3683  0.0935  0.1959
  762MOL0     C 5034   5.687   6.773   7.134 -0.5829  0.3323  0.2695
  762MOL0     N 5035   5.824   6.764   7.194 -0.3732  0.0612  0.4711
  762MOL0     C 5036   5.941   6.796   7.135  0.3674 -0.5011  0.3122
  762MOL0     C 5037   6.026   6.831   7.225  0.6735 -0.5007 -0.1721
  762MOL0     C 5038   6.172   6.873   7.214  0.5365  0.2550  0.6143
  762MOL0     C 5039   6.184   6.967   7.098 -0.9455 -0.6752  0.4491
  762MOL0     C 5040   6.312   7.056   7.089 -0.2893 -0.0671  0.6939
  762MOL0     C 5041   6.442   6.969   7.084 -0.3747  0.3582 -0.1126
  762MOL0     O 5042   6.435   6.873   6.976 -0.1732 -0.4111  0.5056
  762MOL0     C 5043   6.551   6.815   6.935 -0.3140 -0.9095  0.3595
  762MOL0     C 5044   6.551   6.741   6.815  0.3580 -1.0318 -0.6017
  762MOL0     C 5045   6.663   6.703   6.741 -0.8594  0.4212 -0.2158
  762MOL0     C 5046   6.636   6.638   6.604 -0.7010 -0.0363  0.5545
  762MOL0     C 5047   6.789   6.711   6.808 -0.3093  0.5265  1.1349
  762MOL0     C 5048   6.919   6.689   6.740 -0.1705  1.2925 -0.1125
  762MOL0     O 5049   7.030   6.702   6.818  0.1080 -0.2041  0.1938
  762MOL0     C 5050   7.156   6.718   6.774 -0.2250 -0.2717 -0.2407
  762MOL0     C 5051   7.205   6.746   6.647 -0.7925 -0.0889  0.4165
  762MOL0     C 5052   7.331   6.797   6.627  0.5762 -0.2943  0.2398
  762MOL0     C 5053   7.421   6.815   6.733  0.3317 -0.3628  0.5016
  762MOL0     O 5054   7.544   6.872   6.700 -0.4772  0.0625  0.4095
  762MOL0     C 5055   7.640   6.899   6.806 -0.5549 -0.4029  0.0724
  762MOL0     C 5056   7.775   6.952   6.756  0.5358  0.4198  0.3434
  762MOL0     C 5057   7.908   6.894   6.827 -0.5547  0.0149 -0.3536
  762MOL0     C 5058   7.915   6.919   6.973  0.2117  0.4486 -0.6162
  762MOL0     C 5059   8.048   6.881   7.038  0.2489 -0.8938 -0.2646
  762MOL0     C 5060   8.077   6.725   7.051 -0.2840  0.5115  0.0541
  762MOL0     C 5061   8.020   6.689   7.187 -0.2583  1.0847  0.6511
  762MOL0     C 5062   8.117   6.687   7.299 -0.3301 -0.1018  0.1486
  762MOL0    Cl 5063   8.253   6.577   7.265 -0.0493  0.3189 -0.0217
  762MOL0     C 5064   7.377   6.787   6.862  0.5365  0.6803  0.4063
  762MOL0     C 5065   7.250   6.726   6.882  0.6454 -0.3229 -0.4721
  762MOL0     O 5066   6.922   6.644   6.626 -0.4870  1.0064 -0.0043
  762MOL0     C 5067   6.796   6.768   6.942 -0.2675  0.4410 -0.1550
  762MOL0     C 5068   6.678   6.825   6.995 -0.2815  0.8598 -0.1844
  762MOL0     N 5069   5.962   6.824   7.344  0.3494 -0.4944 -0.2994
  762MOL0     N 5070   5.840   6.773   7.331 -0.4927 -0.7469 -0.9947
  762MOL0     C 5071   4.765   6.705   6.979 -0.4658 -0.3268  0.6625
  762MOL0     C 5072   4.639   6.660   6.981  0.0356 -0.5655  0.0649
  762MOL0     C 5073   4.229   6.548   6.977  0.6893  0.2606  0.5884
  762MOL0     C 5074   4.130   6.644   6.955 -0.1741 -0.6627  0.5347
  762MOL0     C 5075   4.001   6.613   6.919  0.5018  0.6069 -0.4310
  762MOL0     C 5076   3.961   6.474   6.898  0.5065 -0.5892  0.5924
  762MOL0     O 5077   3.828   6.458   6.869 -0.2380  0.1169  0.3703
  762MOL0     C 5078   3.787   6.325   6.835 -0.0030  0.1788  0.1329
  762MOL0     C 5079   3.676   6.331   6.733  0.2265  0.4748  0.2581
  762MOL0     C 5080   3.643   6.189   6.680  0.2768  0.1220 -0.3000
  762MOL0     C 5081   3.548   6.197   6.561 -0.0925  0.5381  0.7205
  762MOL0     C 5082   3.626   6.210   6.437  0.5221 -0.6329 -0.0432
  762MOL0     C 5083   3.685   6.238   6.340 -0.2586  0.3733 -0.1630
  762MOL0     C 5084   4.065   6.376   6.920  0.6098  0.4763  0.6164
  762MOL0     C 5085   4.196   6.411   6.955  0.0884 -0.1273 -0.7453
  762MOL0     C 5086   4.295   6.291   6.962  0.0052 -0.2187 -0.6645
  762MOL0     H 5087   4.479   6.933   6.859 -0.5042  0.2442 -0.6776
  762MOL0     H 5088   4.719   7.022   6.860  1.7466  0.0122  1.3632
  762MOL0     H 5089   4.952   7.068   6.948 -0.7068  0.7075 -0.4844
  762MOL0     H 5090   4.908   7.020   6.785  1.9631 -0.1979 -0.6853
  762MOL0     H 5091   5.146   6.941   6.761  1.5839  0.0738  0.5781
  762MOL0     H 5092   5.117   7.122   6.781  1.9261  0.1504  2.3148
  762MOL0     H 5093   5.178   7.097   7.007 -1.2476 -0.5361  0.2426
  762MOL0     H 5094   5.236   6.931   6.978  1.1451  0.6894  0.0918
  762MOL0     H 5095   5.355   7.035   6.773 -2.2522  0.9125  0.0662
  762MOL0     H 5096   5.345   7.185   6.858  0.3895  0.3701 -0.0420
  762MOL0     H 5097   5.464   7.131   7.047 -0.4498  1.5553 -2.1939
  762MOL0     H 5098   5.566   7.101   6.909 -0.8919 -1.5730 -2.4311
  762MOL0     H 5099   5.437   6.888   7.095  0.1817 -0.5025 -0.2577
  762MOL0     H 5100   5.511   6.853   6.937  1.0609  2.2014 -1.5901
  762MOL0     H 5101   5.678   6.983   7.156  0.6033  0.2028  0.0337
  762MOL0     H 5102   5.731   6.915   6.997 -1.2255  2.6341 -1.1912
  762MOL0     H 5103   5.620   6.739   7.213  1.5806  2.6365  3.3354
  762MOL0     H 5104   5.678   6.707   7.047  0.9485  1.3816 -0.7367
  762MOL0     H 5105   5.946   6.790   7.026  1.1116  0.6898  0.2589
  762MOL0     H 5106   6.225   6.785   7.177  0.5479  0.9923 -1.2282
  762MOL0     H 5107   6.224   6.918   7.300  1.8868  1.1109 -0.5890
  762MOL0     H 5108   6.171   6.909   7.006 -0.0725  1.1269 -0.8826
  762MOL0     H 5109   6.102   7.039   7.100  0.3319  0.8243  2.3298
  762MOL0     H 5110   6.307   7.110   6.994  0.5322 -2.2235 -0.6484
  762MOL0     H 5111   6.311   7.125   7.173  1.4293 -0.7451  1.3071
  762MOL0     H 5112   6.525   7.038   7.066  0.4937 -0.5524  0.2545
  762MOL0     H 5113   6.444   6.912   7.178  0.9360  3.0890  1.6416
  762MOL0     H 5114   6.450   6.741   6.774 -0.3345 -2.7324  0.9769
  762MOL0     H 5115   6.531   6.616   6.583  0.4845 -2.6306 -4.0305
  762MOL0     H 5116   6.700   6.550   6.594  0.3376  0.6842  0.7676
  762MOL0     H 5117   6.668   6.713   6.531 -2.7979 -0.2594 -0.6810
  762MOL0     H 5118   7.139   6.746   6.561 -0.6916  3.0062  0.2233
  762MOL0     H 5119   7.368   6.820   6.527 -0.5015  1.4716  0.2100
  762MOL0     H 5120   7.608   6.968   6.885 -0.1086  1.2774 -1.1548
  762MOL0     H 5121   7.658   6.805   6.858  0.0069 -0.9898 -1.1424
  762MOL0     H 5122   7.787   6.924   6.651 -0.5352 -0.1998  0.3696
  762MOL0     H 5123   7.768   7.061   6.766  2.2533  0.3578  3.5440
  762MOL0     H 5124   7.994   6.935   6.774 -1.5444 -2.0529 -3.8854
  762MOL0     H 5125   7.913   6.785   6.814 -0.1328 -0.4695  2.8627
  762MOL0     H 5126   7.828   6.864   7.010  0.2452 -0.0086 -1.1947
  762MOL0     H 5127   7.885   7.023   6.989  3.1130  1.4270 -0.9494
  762MOL0     H 5128   8.131   6.929   6.985  1.8611  1.2971  3.8226
  762MOL0     H 5129   8.060   6.928   7.136  1.6035 -2.4487  0.3622
  762MOL0     H 5130   8.181   6.695   7.037 -1.1865 -2.3684 -1.1971
  762MOL0     H 5131   8.018   6.675   6.974 -0.2434 -0.6617  0.7659
  762MOL0     H 5132   7.984   6.587   7.174  1.4392  0.6478 -1.1266
  762MOL0     H 5133   7.935   6.753   7.212 -2.3257 -0.7415 -1.3151
  762MOL0     H 5134   8.069   6.655   7.391 -1.6111 -1.7620 -1.0258
  762MOL0     H 5135   8.155   6.788   7.319  1.2100 -0.0429 -2.4933
  762MOL0     H 5136   7.434   6.783   6.954 -1.5389 -0.0119  1.7289
  762MOL0     H 5137   7.216   6.693   6.980  0.3852 -0.6226 -0.6574
  762MOL0     H 5138   6.890   6.768   6.995  0.7494 -0.5504 -1.8847
  762MOL0     H 5139   6.697   6.890   7.079  0.2011  1.1879 -0.5385
  762MOL0     H 5140   4.841   6.645   7.028  0.5764 -0.4562 -1.0360
  762MOL0     H 5141   4.636   6.556   7.013  1.6251 -1.6141 -2.8535
  762MOL0     H 5142   4.159   6.747   6.934  1.5790 -1.1985  0.1487
  762MOL0     H 5143   3.918   6.682   6.911  0.7071  0.8870 -0.1513
  762MOL0     H 5144   3.864   6.266   6.784  0.2507  0.6425 -0.0289
  762MOL0     H 5145   3.758   6.275   6.927  1.5935 -0.4679  0.3137
  762MOL0     H 5146   3.719   6.399   6.659  2.0647  1.5299  2.1858
  762MOL0     H 5147   3.590   6.378   6.781 -1.0562 -3.4878  2.3031
  762MOL0     H 5148   3.732   6.132   6.654  1.0328  0.2290  1.8469
  762MOL0     H 5149   3.600   6.134   6.764  3.6493  0.8612  2.1087
  762MOL0     H 5150   3.487   6.287   6.568  0.0155  1.0215 -2.6990
  762MOL0     H 5151   3.476   6.116   6.550  0.8522 -0.1224 -0.8888
  762MOL0     H 5152   3.762   6.252   6.266  2.4351  0.2621  2.4510
  762MOL0     H 5153   4.034   6.274   6.901 -3.7011  1.7953 -0.5757
  762MOL0     H 5154   4.400   6.323   6.959 -0.5178  2.0043  1.5942
  762MOL0     H 5155   4.279   6.235   7.054 -0.9076  2.8068  1.1647
  762MOL0     H 5156   4.268   6.226   6.878 -1.3569  0.3874 -0.7265
  763MOL0     O 5157   2.004   5.490   4.060 -0.1957  0.4976  0.4275
  763MOL0     C 5158   1.898   5.497   4.125  0.2921  0.6484  1.2710
  763MOL0     O 5159   1.868   5.575   4.240 -0.4255 -0.7692  0.1005
  763MOL0     C 5160   1.959   5.672   4.282  0.1967 -0.5143 -0.0727
  763MOL0     C 5161   1.914   5.800   4.311  0.3040  0.6464 -0.0781
  763MOL0     C 5162   1.996   5.891   4.375 -0.0280  0.4496 -0.3828
  763MOL0     C 5163   2.135   5.864   4.397  0.1036  0.2512  0.0217
  763MOL0     O 5164   2.227   5.956   4.442  0.9356  0.0121 -0.4897
  763MOL0     C 5165   2.177   6.081   4.480 -0.0868  0.0349 -0.5484
  763MOL0     C 5166   2.302   6.154   4.539  0.5329 -0.2284  0.7117
  763MOL0     C 5167   2.396   6.200   4.427  0.4936 -0.5861 -0.6830
  763MOL0     C 5168   2.540   6.237   4.474  0.3317  0.1065 -0.0248
  763MOL0     C 5169   2.622   6.276   4.346 -0.9852 -0.4549  0.0528
  763MOL0     C 5170   2.758   6.309   4.404 -0.0746  0.4615 -0.9490
  763MOL0     C 5171   2.875   6.348   4.301  0.2443 -0.4196 -0.6313
  763MOL0     C 5172   2.831   6.478   4.222 -0.4619  0.6324 -0.0790
  763MOL0     N 5173   2.936   6.511   4.125 -0.2631  0.2695 -0.1036
  763MOL0     C 5174   2.928   6.615   4.035  0.3377  0.0084  0.2960
  763MOL0     C 5175   3.016   6.583   3.943  0.6251 -0.2979  0.6156
  763MOL0     C 5176   3.054   6.672   3.830  1.1693  0.2606 -0.4017
  763MOL0     C 5177   2.964   6.659   3.707  0.5670  0.3853 -1.0335
  763MOL0     C 5178   2.867   6.778   3.687 -0.2520  0.6026 -0.8984
  763MOL0     C 5179   2.770   6.780   3.576  1.5141  0.2505  0.4763
  763MOL0     O 5180   2.665   6.675   3.584  0.1445 -0.4631  0.0420
  763MOL0     C 5181   2.565   6.673   3.495  0.5480  0.4176  0.5177
  763MOL0     C 5182   2.588   6.623   3.368  0.0671  0.2036  0.9903
  763MOL0     C 5183   2.483   6.580   3.282 -0.5585  0.2398 -0.2698
  763MOL0     C 5184   2.528   6.537   3.149 -0.3362  0.7772  0.2024
  763MOL0     C 5185   2.344   6.611   3.317 -0.0089  0.4262 -0.5065
  763MOL0     C 5186   2.228   6.601   3.215 -0.0724  0.1805 -0.2521
  763MOL0     O 5187   2.103   6.648   3.260 -0.7011 -0.3041 -0.5943
  763MOL0     C 5188   1.992   6.609   3.196 -0.7062 -0.5345  0.4895
  763MOL0     C 5189   1.965   6.474   3.156  0.2591 -0.3053  0.1246
  763MOL0     C 5190   1.832   6.443   3.123  0.4366 -0.1891  0.5550
  763MOL0     C 5191   1.725   6.541   3.126 -0.5095 -0.0997 -0.0971
  763MOL0     O 5192   1.591   6.514   3.123  0.3826  0.3973 -0.5265
  763MOL0     C 5193   1.551   6.393   3.189 -0.0921  0.3612 -0.0981
  763MOL0     C 5194   1.399   6.351   3.207  0.1353 -0.8545  0.7645
  763MOL0     C 5195   1.338   6.439   3.313 -0.2328  0.5016  0.1000
  763MOL0     C 5196   1.182   6.426   3.337 -0.3621 -0.3928 -0.3721
  763MOL0     C 5197   1.137   6.525   3.437  0.7880 -0.5102 -0.4733
  763MOL0     C 5198   1.140   6.671   3.407 -1.0495 -0.0053  0.1591
  763MOL0     C 5199   1.066   6.701   3.271  0.0016  0.1694  0.6075
  763MOL0     C 5200   1.066   6.848   3.240 -0.0697 -1.3140  0.3542
  763MOL0    Cl 5201   0.943   6.940   3.318 -0.3756 -0.1510  0.1286
  763MOL0     C 5202   1.763   6.677   3.148  0.1465 -0.4839 -0.3008
  763MOL0     C 5203   1.900   6.710   3.188  0.2743 -0.2610  0.0060
  763MOL0     O 5204   2.250   6.571   3.098 -0.1399 -0.2126  0.5418
  763MOL0     C 5205   2.322   6.659   3.448 -0.2577  0.0384 -0.0429
  763MOL0     C 5206   2.430   6.684   3.539  0.1886  0.1744  0.5896
  763MOL0     N 5207   3.079   6.467   3.975 -0.1915  0.0698  0.0409
  763MOL0     N 5208   3.025   6.416   4.076  0.8415 -0.2660 -0.5684
  763MOL0     C 5209   2.180   5.740   4.362  0.1427 -0.8746  0.7435
  763MOL0     C 5210   2.096   5.641   4.313  0.7257  0.3395 -0.1053
  763MOL0     C 5211   1.805   5.380   4.104  0.6038 -0.1338  0.0157
  763MOL0     C 5212   1.669   5.385   4.144  0.8777  0.2369 -0.3284
  763MOL0     C 5213   1.573   5.280   4.129  0.0394  0.5291  0.7455
  763MOL0     C 5214   1.613   5.159   4.089 -0.3019  1.3101 -0.0083
  763MOL0     O 5215   1.525   5.058   4.077 -1.1053  0.5991 -0.2259
  763MOL0     C 5216   1.560   4.936   3.999 -0.1473 -0.5678 -0.3516
  763MOL0     C 5217   1.439   4.846   3.990  0.2044  0.9077 -0.4980
  763MOL0     C 5218   1.394   4.797   4.133 -0.2451 -0.7058  0.5684
  763MOL0     C 5219   1.264   4.716   4.108  0.3229 -0.2661  0.6903
  763MOL0     C 5220   1.193   4.667   4.228  0.4968 -0.2963  0.0004
  763MOL0     C 5221   1.157   4.605   4.326 -0.1155  0.1938  0.5688
  763MOL0     C 5222   1.745   5.151   4.048  0.4828  0.0493 -0.3219
  763MOL0     C 5223   1.842   5.251   4.057  0.2896  0.0286 -0.6929
  763MOL0     C 5224   1.983   5.216   4.012 -0.1507  0.2532  0.2496
  763MOL0     H 5225   1.821   5.832   4.266  1.0118  0.7563 -1.5409
  763MOL0     H 5226   1.963   5.992   4.398 -0.1107 -0.1490  2.4498
  763MOL0     H 5227   2.093   6.074   4.550 -1.3360 -0.4325 -2.0116
  763MOL0     H 5228   2.132   6.126   4.391  1.3024  0.6013 -0.9868
  763MOL0     H 5229   2.268   6.246   4.586 -1.3752 -0.1522 -0.7195
  763MOL0     H 5230   2.346   6.099   4.623 -1.4123 -2.7611  0.2217
  763MOL0     H 5231   2.407   6.111   4.364  2.9735 -1.7913  1.2936
  763MOL0     H 5232   2.349   6.278   4.366 -1.1887 -2.1186 -1.4571
  763MOL0     H 5233   2.542   6.329   4.532  2.2630  1.0729 -1.4966
  763MOL0     H 5234   2.588   6.148   4.516  0.0735 -1.0535 -2.0462
  763MOL0     H 5235   2.572   6.364   4.304 -0.7394 -0.5187 -0.3815
  763MOL0     H 5236   2.633   6.198   4.269 -2.3518 -0.0639 -0.5783
  763MOL0     H 5237   2.741   6.391   4.474  1.8859  1.0464 -1.0899
  763MOL0     H 5238   2.792   6.215   4.448 -0.4134  0.1172 -1.4291
  763MOL0     H 5239   2.899   6.260   4.240  2.2106 -1.6883  1.8001
  763MOL0     H 5240   2.969   6.371   4.350  0.5566 -3.0682  0.1912
  763MOL0     H 5241   2.732   6.466   4.178 -1.0859 -1.6821  1.7333
  763MOL0     H 5242   2.829   6.557   4.298 -1.5919 -0.0198  0.5891
  763MOL0     H 5243   2.856   6.696   4.036 -0.4358 -0.6536 -0.4163
  763MOL0     H 5244   3.158   6.657   3.799  0.5944  0.3188 -2.5731
  763MOL0     H 5245   3.055   6.777   3.862 -2.4751  0.2189  0.2806
  763MOL0     H 5246   3.015   6.646   3.611 -0.5231 -2.1232 -1.3629
  763MOL0     H 5247   2.913   6.562   3.715  0.1732  0.5109 -1.8889
  763MOL0     H 5248   2.805   6.785   3.776  1.2853  2.1518  0.1121
  763MOL0     H 5249   2.925   6.871   3.676 -0.7055  1.0122  0.0720
  763MOL0     H 5250   2.727   6.881   3.569  2.4494  0.6522  0.3607
  763MOL0     H 5251   2.820   6.746   3.485 -1.8313 -1.3178 -0.9434
  763MOL0     H 5252   2.691   6.611   3.336 -0.2666  0.0385 -0.0512
  763MOL0     H 5253   2.489   6.438   3.121 -1.1429  1.5888 -1.7165
  763MOL0     H 5254   2.636   6.528   3.135 -0.3163  1.3549 -0.0433
  763MOL0     H 5255   2.493   6.607   3.073 -2.8506 -0.4252  0.1429
  763MOL0     H 5256   2.042   6.398   3.168  1.7305  1.3785  2.2714
  763MOL0     H 5257   1.816   6.340   3.094 -0.7657 -0.3410  1.6694
  763MOL0     H 5258   1.586   6.310   3.127  2.9131 -0.2052  2.1334
  763MOL0     H 5259   1.599   6.381   3.287 -0.5464 -0.9663 -0.0184
  763MOL0     H 5260   1.351   6.349   3.109  0.4292 -0.7733  0.6182
  763MOL0     H 5261   1.401   6.246   3.239 -1.9239 -1.0820  0.3109
  763MOL0     H 5262   1.360   6.542   3.281 -0.4338  0.3472 -0.5392
  763MOL0     H 5263   1.398   6.414   3.401 -0.4594  2.0389  0.7360
  763MOL0     H 5264   1.159   6.335   3.392 -1.0873  0.7031  1.1832
  763MOL0     H 5265   1.128   6.431   3.242 -4.7232 -0.7322  1.8370
  763MOL0     H 5266   1.033   6.500   3.458  0.9679 -1.5000 -0.7060
  763MOL0     H 5267   1.192   6.520   3.532  0.0439 -0.4252 -0.0324
  763MOL0     H 5268   1.243   6.705   3.396 -0.2760 -2.4930 -0.8898
  763MOL0     H 5269   1.093   6.722   3.492  0.8518  0.7980  0.7797
  763MOL0     H 5270   0.962   6.672   3.286 -0.3900  0.5234 -1.2139
  763MOL0     H 5271   1.110   6.650   3.185  0.8929 -1.4636  1.9652
  763MOL0     H 5272   1.050   6.861   3.132  1.2427 -1.9180  0.0597
  763MOL0     H 5273   1.162   6.898   3.261 -0.0471 -1.1773 -0.0571
  763MOL0     H 5274   1.672   6.735   3.154 -2.6822 -4.3602 -1.5656
  763MOL0     H 5275   1.927   6.812   3.211  0.0280 -0.0746 -0.5144
  763MOL0     H 5276   2.220   6.679   3.478 -0.7941  2.5442 -3.0537
  763MOL0     H 5277   2.393   6.721   3.634 -1.9542 -1.5272  0.4851
  763MOL0     H 5278   2.285   5.718   4.380  0.4330 -0.2443 -0.1644
  763MOL0     H 5279   2.128   5.539   4.294 -0.1243  0.2640 -1.1988
  763MOL0     H 5280   1.635   5.474   4.196  0.9955  0.6704 -0.9856
  763MOL0     H 5281   1.470   5.297   4.159  0.1509  0.0331  1.4136
  763MOL0     H 5282   1.601   4.970   3.903  1.9557 -0.3036  0.5771
  763MOL0     H 5283   1.634   4.887   4.063  1.4328  2.2690  0.1699
  763MOL0     H 5284   1.471   4.754   3.939  1.0905  1.6876 -1.4007
  763MOL0     H 5285   1.357   4.898   3.940 -1.8503  0.5472  2.2761
  763MOL0     H 5286   1.469   4.729   4.176  1.4264  0.4867 -0.3778
  763MOL0     H 5287   1.385   4.878   4.206  3.0597 -0.5820  1.0068
  763MOL0     H 5288   1.282   4.630   4.043 -0.2996  0.6806 -0.8061
  763MOL0     H 5289   1.195   4.783   4.055  2.6422  1.3601 -0.4651
  763MOL0     H 5290   1.124   4.552   4.413 -1.5366 -0.5630 -0.3895
  763MOL0     H 5291   1.798   5.060   4.020  3.4418  1.7676 -0.6587
  763MOL0     H 5292   2.021   5.256   3.918 -2.3050 -0.7373 -1.1092
  763MOL0     H 5293   2.050   5.241   4.095 -0.0122  0.2344  0.1435
  763MOL0     H 5294   1.982   5.108   3.994  0.4060  0.2577  0.1805
  764MOL0     O 5295   9.016   6.897   0.564 -0.1406  0.1349  0.0294
  764MOL0     C 5296   9.011   6.819   0.467 -0.2507 -0.0330  0.9353
  764MOL0     O 5297   9.120   6.787   0.386  0.0101 -0.6777 -0.2880
  764MOL0     C 5298   9.247   6.785   0.426  0.0915  0.1813 -0.3047
  764MOL0     C 5299   9.282   6.754   0.551 -0.1479  1.3586  0.5781
  764MOL0     C 5300   9.417   6.745   0.584  0.3114  0.6578 -0.2849
  764MOL0     C 5301   9.518   6.768   0.490  0.8667  0.6172  0.8904
  764MOL0     O 5302   9.652   6.765   0.542  0.6288 -0.3623 -0.1409
  764MOL0     C 5303   9.746   6.862   0.502 -0.0141 -0.0472  0.4996
  764MOL0     C 5304   9.847   6.779   0.421  1.5370 -0.1671  0.3855
  764MOL0     C 5305   9.973   6.870   0.396  0.5349  0.5568 -0.1903
  764MOL0     C 5306  10.084   6.787   0.337  0.1705 -0.0009  0.7574
  764MOL0     C 5307  10.211   6.866   0.326 -0.0005  0.4652  0.1362
  764MOL0     C 5308  10.342   6.792   0.314  0.3544 -0.0155 -0.5566
  764MOL0     C 5309  10.470   6.887   0.302  0.0521 -0.3324 -1.2129
  764MOL0     C 5310  10.585   6.797   0.258 -0.0825  0.4714  0.4216
  764MOL0     N 5311  10.719   6.844   0.301  0.3002  0.8490  0.4974
  764MOL0     C 5312  10.768   6.828   0.425  0.4459  0.8608 -0.3063
  764MOL0     C 5313  10.897   6.887   0.427 -0.2463  0.3341 -0.2149
  764MOL0     C 5314  10.982   6.912   0.546 -0.8095 -0.1335 -0.3262
  764MOL0     C 5315  11.073   6.796   0.538 -0.0452 -0.4071  0.1323
  764MOL0     C 5316  11.171   6.788   0.663 -0.4820  0.0117 -0.0201
  764MOL0     C 5317  11.305   6.719   0.621  0.1214  0.2078  0.1449
  764MOL0     O 5318  11.382   6.691   0.741 -0.0896  0.4788 -0.1320
  764MOL0     C 5319  11.517   6.685   0.723 -0.0282 -0.5376 -0.4006
  764MOL0     C 5320  11.582   6.672   0.847 -0.6206  0.6924  0.6230
  764MOL0     C 5321  11.726   6.676   0.857  0.0727  0.0738 -0.6678
  764MOL0     C 5322  11.778   6.666   0.997  1.3917 -0.1255  0.4085
  764MOL0     C 5323  11.810   6.668   0.738 -0.5831 -0.6144  0.4769
  764MOL0     C 5324  11.960   6.648   0.738 -0.4295  0.5177 -0.1983
  764MOL0     O 5325  12.017   6.624   0.862  0.1919 -0.1135 -0.9299
  764MOL0     C 5326  12.142   6.582   0.883 -0.2166 -0.3833  0.1113
  764MOL0     C 5327  12.251   6.663   0.860 -0.4643 -0.5581 -0.2288
  764MOL0     C 5328  12.384   6.621   0.892 -0.1049  0.3845  0.0548
  764MOL0     C 5329  12.410   6.503   0.968 -0.1884  0.0140  0.6010
  764MOL0     O 5330  12.530   6.459   1.012 -0.6986 -0.0117 -0.2648
  764MOL0     C 5331  12.642   6.546   0.980  0.2382  0.6632  0.0440
  764MOL0     C 5332  12.769   6.474   1.043  0.0705 -0.4521  1.0260
  764MOL0     C 5333  12.890   6.562   1.004  0.0288 -0.1571 -0.1465
  764MOL0     C 5334  12.947   6.644   1.125 -0.3143  0.8635 -0.1311
  764MOL0     C 5335  12.859   6.761   1.165 -0.2087  0.6837  0.2494
  764MOL0     C 5336  12.926   6.840   1.276 -0.1961  0.2968  0.2883
  764MOL0     C 5337  12.814   6.937   1.324 -0.4037 -0.3835 -0.0258
  764MOL0     C 5338  12.786   6.922   1.473 -0.4747  0.5515 -0.0010
  764MOL0    Cl 5339  12.929   6.974   1.567  0.3926  0.3458 -0.1394
  764MOL0     C 5340  12.300   6.421   0.997  0.7090 -0.0146 -0.2866
  764MOL0     C 5341  12.170   6.456   0.944  0.5979  0.0694  0.2982
  764MOL0     O 5342  12.021   6.647   0.630  0.5132  0.1034 -0.5020
  764MOL0     C 5343  11.739   6.670   0.613 -0.2947  0.6340 -0.5386
  764MOL0     C 5344  11.599   6.678   0.607 -0.1678 -0.7000  0.0087
  764MOL0     N 5345  10.923   6.922   0.292  0.8841  0.2968  0.6876
  764MOL0     N 5346  10.812   6.904   0.227 -0.4747 -0.0734  0.5272
  764MOL0     C 5347   9.476   6.792   0.355  0.4877  0.1235  0.1431
  764MOL0     C 5348   9.339   6.794   0.322 -0.0623 -0.1345 -0.0694
  764MOL0     C 5349   8.880   6.760   0.425  0.0739  0.3212 -0.5615
  764MOL0     C 5350   8.836   6.781   0.288  0.0096  0.5595 -0.3668
  764MOL0     C 5351   8.699   6.741   0.258  0.5423  0.2811 -0.2592
  764MOL0     C 5352   8.616   6.678   0.354  0.1355  0.2691 -0.6286
  764MOL0     O 5353   8.496   6.612   0.331 -0.2749 -0.4435  0.2640
  764MOL0     C 5354   8.404   6.659   0.229  0.4105 -0.0536  0.8235
  764MOL0     C 5355   8.260   6.644   0.280 -0.3382 -0.3508  0.2646
  764MOL0     C 5356   8.242   6.500   0.345 -0.0250 -0.3219 -0.3069
  764MOL0     C 5357   8.092   6.474   0.378 -0.0093  0.0094  0.6533
  764MOL0     C 5358   7.995   6.483   0.268 -0.3304 -0.6385 -0.8232
  764MOL0     C 5359   7.905   6.505   0.194  0.0727  0.1932 -0.2500
  764MOL0     C 5360   8.668   6.654   0.480  0.4394  0.3609  0.0028
  764MOL0     C 5361   8.794   6.693   0.523 -0.5321 -0.9913  0.0534
  764MOL0     C 5362   8.831   6.675   0.673  0.6134 -0.0648  0.1574
  764MOL0     H 5363   9.211   6.741   0.632  0.5302  0.2523  1.0061
  764MOL0     H 5364   9.451   6.730   0.686  0.7941 -1.5944 -0.7149
  764MOL0     H 5365   9.788   6.895   0.597 -0.4740 -1.5675  1.2596
  764MOL0     H 5366   9.706   6.933   0.429 -1.6400 -1.2864  0.1190
  764MOL0     H 5367   9.879   6.693   0.480  1.3506  0.4483  1.4215
  764MOL0     H 5368   9.794   6.743   0.332  2.9730 -1.0190 -0.1630
  764MOL0     H 5369   9.950   6.943   0.318  1.1303 -0.6058 -1.5109
  764MOL0     H 5370  10.001   6.922   0.487 -0.7689 -0.5848  0.9113
  764MOL0     H 5371  10.102   6.717   0.419  2.3144 -0.0880  0.2540
  764MOL0     H 5372  10.057   6.729   0.248  2.6661 -0.1144  0.0125
  764MOL0     H 5373  10.222   6.926   0.417 -0.7798  1.8129 -0.6218
  764MOL0     H 5374  10.204   6.932   0.239 -0.7596 -0.4484 -0.5163
  764MOL0     H 5375  10.359   6.734   0.405  2.2222  0.7109 -0.3884
  764MOL0     H 5376  10.342   6.722   0.230 -0.3393 -0.9408  0.1927
  764MOL0     H 5377  10.498   6.925   0.401  0.7000 -0.0342 -1.5060
  764MOL0     H 5378  10.454   6.972   0.236 -1.3194  2.2463  2.1599
  764MOL0     H 5379  10.579   6.694   0.295  2.8305  0.2599  0.5554
  764MOL0     H 5380  10.580   6.793   0.149 -1.1040 -0.8501  0.4912
  764MOL0     H 5381  10.719   6.788   0.513  1.2151 -3.3353 -1.5519
  764MOL0     H 5382  10.931   6.903   0.642  0.3714 -1.2189  0.2250
  764MOL0     H 5383  11.026   7.013   0.548 -3.0304  0.9247 -1.3636
  764MOL0     H 5384  11.009   6.707   0.546 -0.8096 -0.1489 -2.2828
  764MOL0     H 5385  11.124   6.800   0.441 -1.2432 -0.2126 -0.5133
  764MOL0     H 5386  11.194   6.889   0.697 -2.9972  1.3973 -2.0171
  764MOL0     H 5387  11.122   6.738   0.747  0.8610  1.5150  1.7410
  764MOL0     H 5388  11.300   6.638   0.548 -0.3786  1.0554 -0.7881
  764MOL0     H 5389  11.344   6.801   0.561  1.5854 -0.9810 -0.5763
  764MOL0     H 5390  11.515   6.655   0.931 -2.5055 -1.4502 -1.1727
  764MOL0     H 5391  11.854   6.744   1.002  0.7254  0.7947 -2.2949
  764MOL0     H 5392  11.818   6.566   1.017 -2.6921 -1.5684  2.6189
  764MOL0     H 5393  11.699   6.678   1.072  1.2240  0.4486  0.1455
  764MOL0     H 5394  12.241   6.758   0.808 -0.6591 -2.1797 -3.3961
  764MOL0     H 5395  12.460   6.694   0.866 -0.3185  0.3310 -0.7306
  764MOL0     H 5396  12.667   6.550   0.874 -1.2215  1.0325 -0.3017
  764MOL0     H 5397  12.633   6.647   1.023  2.9485  1.3753 -0.8115
  764MOL0     H 5398  12.759   6.459   1.151  1.6806 -1.4674  1.0698
  764MOL0     H 5399  12.789   6.379   0.993  1.3257 -0.2725  1.1546
  764MOL0     H 5400  12.874   6.629   0.920 -1.4508 -2.0616 -1.4813
  764MOL0     H 5401  12.964   6.487   0.973 -1.6956 -1.6219 -0.9258
  764MOL0     H 5402  13.044   6.681   1.090 -1.4762 -0.1654 -5.2488
  764MOL0     H 5403  12.969   6.576   1.207 -2.9955 -1.2622 -1.0339
  764MOL0     H 5404  12.837   6.834   1.087 -0.8307  0.9800  0.6980
  764MOL0     H 5405  12.766   6.715   1.198 -1.2712  2.7201  0.2367
  764MOL0     H 5406  13.015   6.889   1.236  0.4867  0.0177  1.4129
  764MOL0     H 5407  12.962   6.773   1.355 -0.0786 -0.5981 -0.5146
  764MOL0     H 5408  12.716   6.929   1.276 -0.1152  0.0175 -0.6902
  764MOL0     H 5409  12.850   7.038   1.301 -1.7668 -0.5646 -3.6698
  764MOL0     H 5410  12.770   6.817   1.500  0.2409  0.7219  1.1231
  764MOL0     H 5411  12.699   6.980   1.506 -0.7023 -0.2504  0.8490
  764MOL0     H 5412  12.311   6.340   1.069 -0.3800 -0.4592 -0.5979
  764MOL0     H 5413  12.075   6.405   0.961 -0.4491  1.3404 -1.4290
  764MOL0     H 5414  11.789   6.652   0.518  0.1012 -0.1433 -0.1911
  764MOL0     H 5415  11.555   6.675   0.508  0.5810 -0.7458 -0.3331
  764MOL0     H 5416   9.555   6.800   0.281 -0.1078  0.3385 -0.4697
  764MOL0     H 5417   9.312   6.798   0.217  2.3814 -1.6394 -0.8423
  764MOL0     H 5418   8.888   6.826   0.204 -1.0284 -0.1701 -1.4270
  764MOL0     H 5419   8.657   6.745   0.158  1.2848  0.2506 -0.5783
  764MOL0     H 5420   8.420   6.762   0.198 -2.4137 -0.4341 -2.4340
  764MOL0     H 5421   8.422   6.596   0.142  0.7800 -1.1773  1.6818
  764MOL0     H 5422   8.196   6.651   0.192  0.2214  1.2933 -0.0365
  764MOL0     H 5423   8.232   6.726   0.347  0.5191  1.7516 -1.8048
  764MOL0     H 5424   8.269   6.419   0.277 -1.0342 -1.3361  0.4516
  764MOL0     H 5425   8.299   6.489   0.437  2.2418 -2.5856 -1.8341
  764MOL0     H 5426   8.067   6.551   0.452  1.1902 -1.4456  2.6581
  764MOL0     H 5427   8.089   6.377   0.428  2.7493 -0.1938  0.6160
  764MOL0     H 5428   7.838   6.536   0.116  2.5788  1.7162 -1.9566
  764MOL0     H 5429   8.602   6.608   0.553 -3.5836  1.9528 -2.2999
  764MOL0     H 5430   8.736   6.690   0.725  1.2609  0.2887  1.2748
  764MOL0     H 5431   8.862   6.573   0.700 -1.7867 -0.5281  1.5348
  764MOL0     H 5432   8.899   6.750   0.715  1.0292 -1.0635  1.3519
  765MOL0     O 5433   0.252   7.200   1.564 -0.1092  0.0107  0.4142
  765MOL0     C 5434   0.167   7.147   1.632 -0.4671 -0.3003 -0.5826
  765MOL0     O 5435   0.191   7.079   1.745  0.0337 -0.5618  0.4146
  765MOL0     C 5436   0.310   7.085   1.810  0.9106  0.4332 -0.1294
  765MOL0     C 5437   0.412   7.174   1.804 -0.3613 -0.2698 -0.3614
  765MOL0     C 5438   0.532   7.154   1.875 -0.2928 -0.1650 -0.1349
  765MOL0     C 5439   0.546   7.057   1.968 -0.0485  0.3032  0.1488
  765MOL0     O 5440   0.673   7.041   2.019 -0.2168 -0.2349  0.0534
  765MOL0     C 5441   0.714   6.924   2.095  0.5154  0.4344 -0.2242
  765MOL0     C 5442   0.856   6.934   2.144  0.5210 -0.0050  0.1663
  765MOL0     C 5443   0.961   6.974   2.038  0.9946 -0.5060  0.0636
  765MOL0     C 5444   1.106   6.998   2.089  0.0705 -0.3541  0.5016
  765MOL0     C 5445   1.160   6.871   2.165 -0.3385 -0.1500  0.3632
  765MOL0     C 5446   1.308   6.872   2.187 -0.6497 -0.6857  0.0216
  765MOL0     C 5447   1.355   6.752   2.269  0.0664 -0.2427  0.5204
  765MOL0     C 5448   1.508   6.718   2.265  0.5517 -1.0791 -0.1206
  765MOL0     N 5449   1.537   6.623   2.363  0.0860 -0.2657 -0.6466
  765MOL0     C 5450   1.553   6.647   2.502 -0.0467 -0.4751 -1.0259
  765MOL0     C 5451   1.573   6.524   2.555  0.9222 -0.6578  0.6258
  765MOL0     C 5452   1.611   6.493   2.694  0.0000  0.1625  0.6777
  765MOL0     C 5453   1.740   6.555   2.741  0.2049 -0.1766 -0.3957
  765MOL0     C 5454   1.867   6.516   2.660 -1.3726  0.6895  0.3282
  765MOL0     C 5455   1.907   6.369   2.634  0.1989 -1.4771  0.0431
  765MOL0     O 5456   1.949   6.317   2.761  0.2137  0.2242  0.9163
  765MOL0     C 5457   2.065   6.233   2.751  0.4749 -0.4763  0.0360
  765MOL0     C 5458   2.175   6.236   2.656  0.1742 -0.1846  0.7836
  765MOL0     C 5459   2.276   6.143   2.642  0.1550 -0.6711 -0.0240
  765MOL0     C 5460   2.364   6.157   2.527 -0.0471  0.0719 -0.2766
  765MOL0     C 5461   2.277   6.038   2.737 -0.5250 -0.2594  0.2096
  765MOL0     C 5462   2.389   5.936   2.734 -0.6209 -0.6102 -0.3611
  765MOL0     O 5463   2.413   5.874   2.856 -1.2848  0.0008  0.1708
  765MOL0     C 5464   2.521   5.787   2.865  0.0335 -0.3090  0.3538
  765MOL0     C 5465   2.495   5.661   2.906 -0.5568  0.4148 -0.9203
  765MOL0     C 5466   2.597   5.564   2.902  0.4335 -0.4289  0.2087
  765MOL0     C 5467   2.730   5.594   2.869  0.1486  0.7338  0.2457
  765MOL0     O 5468   2.822   5.493   2.862 -0.6431 -0.2969  0.0315
  765MOL0     C 5469   2.959   5.520   2.839  0.2431 -0.4029 -0.9451
  765MOL0     C 5470   3.019   5.389   2.791  0.2911  0.2857  0.8970
  765MOL0     C 5471   2.972   5.356   2.649 -0.1058  0.2467  0.8066
  765MOL0     C 5472   2.993   5.209   2.602  0.0703 -0.2460 -0.2486
  765MOL0     C 5473   3.032   5.198   2.453 -0.1610  0.6412  0.5894
  765MOL0     C 5474   3.177   5.160   2.422  0.0283 -0.0106  0.3527
  765MOL0     C 5475   3.288   5.259   2.471  0.2082  0.7252 -0.5902
  765MOL0     C 5476   3.423   5.268   2.410  0.3635  0.1199 -0.3393
  765MOL0    Cl 5477   3.483   5.102   2.367  0.2329  0.1428  0.4018
  765MOL0     C 5478   2.759   5.730   2.827  0.9129 -0.1402 -0.3051
  765MOL0     C 5479   2.652   5.816   2.831 -0.1326  0.2307  0.1413
  765MOL0     O 5480   2.433   5.900   2.620  0.4595 -0.4134 -0.1534
  765MOL0     C 5481   2.165   6.028   2.830  0.3665  0.5112 -0.1766
  765MOL0     C 5482   2.067   6.122   2.838  0.3276 -0.2380 -0.4592
  765MOL0     N 5483   1.582   6.436   2.451  0.6327 -0.0183  0.3000
  765MOL0     N 5484   1.569   6.492   2.338  0.5043  0.2546  0.2491
  765MOL0     C 5485   0.441   6.966   1.984  0.3227  0.6226  0.3673
  765MOL0     C 5486   0.319   6.984   1.907 -0.4712  0.2023  0.9126
  765MOL0     C 5487   0.029   7.142   1.573  0.0960  0.4018  0.0715
  765MOL0     C 5488  -0.068   7.048   1.618  0.4812 -0.4570 -0.5265
  765MOL0     C 5489  -0.202   7.040   1.574 -0.3707  0.0370  0.0283
  765MOL0     C 5490  -0.238   7.134   1.480  0.0356  0.6702  0.2848
  765MOL0     O 5491  -0.356   7.121   1.425  0.2906  0.6426 -0.1525
  765MOL0     C 5492  -0.462   7.205   1.480  0.0059  0.1308 -0.3663
  765MOL0     C 5493  -0.590   7.131   1.482 -0.2827 -0.2794 -0.1440
  765MOL0     C 5494  -0.632   7.093   1.340 -0.3678 -0.4335 -0.9501
  765MOL0     C 5495  -0.666   7.212   1.245  0.0506  0.3582  0.3134
  765MOL0     C 5496  -0.755   7.304   1.311 -0.4528  0.3684  0.7399
  765MOL0     C 5497  -0.828   7.373   1.372 -0.1681  0.2756  0.0243
  765MOL0     C 5498  -0.147   7.221   1.421  0.3991 -0.0035  0.3066
  765MOL0     C 5499  -0.015   7.229   1.467 -0.1503 -0.2090 -0.1375
  765MOL0     C 5500   0.065   7.347   1.417 -0.1187  0.6876  0.0346
  765MOL0     H 5501   0.397   7.263   1.744  0.1170 -2.4027 -3.9122
  765MOL0     H 5502   0.617   7.217   1.851  1.2849 -1.6717  1.3245
  765MOL0     H 5503   0.709   6.838   2.028 -2.8188 -0.6943  1.2730
  765MOL0     H 5504   0.657   6.897   2.184 -1.0103 -1.6125 -1.7243
  765MOL0     H 5505   0.848   7.010   2.222 -1.6430  0.0780 -0.0682
  765MOL0     H 5506   0.878   6.840   2.195  1.9719  1.2734  2.0153
  765MOL0     H 5507   0.957   6.896   1.962 -0.3876  1.2481 -1.7663
  765MOL0     H 5508   0.927   7.064   1.986 -2.3647 -0.3710  2.2262
  765MOL0     H 5509   1.167   7.025   2.002 -0.1285 -2.6154 -0.3954
  765MOL0     H 5510   1.117   7.083   2.157  1.2736 -0.3596  0.3418
  765MOL0     H 5511   1.125   6.783   2.110 -1.7772 -0.3205  1.4861
  765MOL0     H 5512   1.102   6.864   2.257 -2.9887 -1.3870 -1.2683
  765MOL0     H 5513   1.361   6.870   2.091  0.1005  1.7974  0.2974
  765MOL0     H 5514   1.341   6.966   2.233  0.0314  0.0916 -1.9444
  765MOL0     H 5515   1.309   6.662   2.229 -0.9033  0.6917 -0.5208
  765MOL0     H 5516   1.316   6.771   2.370  0.9479  2.6813  0.4160
  765MOL0     H 5517   1.526   6.687   2.162 -2.8553  0.5428 -1.3662
  765MOL0     H 5518   1.570   6.808   2.276  1.3589 -1.4395 -1.4718
  765MOL0     H 5519   1.546   6.748   2.542  1.5051  0.6912 -3.4110
  765MOL0     H 5520   1.626   6.385   2.706 -0.1472  0.0888  0.2143
  765MOL0     H 5521   1.529   6.521   2.761  0.0168  0.3334  0.6285
  765MOL0     H 5522   1.727   6.662   2.724 -2.8815  0.0500  2.2971
  765MOL0     H 5523   1.752   6.560   2.850 -0.4439 -0.3725 -0.3078
  765MOL0     H 5524   1.844   6.551   2.559 -0.8429  1.4206  0.4529
  765MOL0     H 5525   1.950   6.571   2.705  0.9708 -3.2956  1.3510
  765MOL0     H 5526   1.818   6.316   2.598 -0.8994  0.2798  0.0571
  765MOL0     H 5527   1.983   6.367   2.556  1.4399 -1.1029  1.1994
  765MOL0     H 5528   2.175   6.315   2.582 -0.1481  0.7500  1.7443
  765MOL0     H 5529   2.471   6.148   2.545 -0.4512 -0.9541  1.9074
  765MOL0     H 5530   2.343   6.252   2.477 -1.4545  1.2499  2.3471
  765MOL0     H 5531   2.344   6.070   2.463 -0.3596  0.3050 -0.5028
  765MOL0     H 5532   2.390   5.646   2.928 -0.2641  2.2243  2.3705
  765MOL0     H 5533   2.576   5.463   2.937  0.7100 -0.8973 -0.9399
  765MOL0     H 5534   2.982   5.607   2.777  1.7605  3.2543  4.0956
  765MOL0     H 5535   3.006   5.544   2.934  0.9101 -1.5224 -0.9739
  765MOL0     H 5536   3.128   5.383   2.799  0.2246 -0.9421  1.0041
  765MOL0     H 5537   2.977   5.318   2.863 -3.8625  3.0410  1.5955
  765MOL0     H 5538   3.021   5.422   2.576 -3.3052  1.2550 -0.6038
  765MOL0     H 5539   2.867   5.387   2.640  0.7973  3.5058  0.0626
  765MOL0     H 5540   2.896   5.162   2.619  0.1567 -1.2021 -2.1496
  765MOL0     H 5541   3.064   5.151   2.661 -1.0527 -0.9349  0.4476
  765MOL0     H 5542   2.973   5.116   2.410  0.2900  1.5328 -1.8942
  765MOL0     H 5543   2.996   5.288   2.402 -1.1499 -0.4837 -0.8095
  765MOL0     H 5544   3.182   5.148   2.314 -4.1755 -1.7342  0.1794
  765MOL0     H 5545   3.203   5.065   2.469  1.2523 -1.1058 -2.3690
  765MOL0     H 5546   3.290   5.241   2.579 -1.6563  0.8522 -0.5003
  765MOL0     H 5547   3.251   5.362   2.464  0.9810  1.0189 -0.4366
  765MOL0     H 5548   3.506   5.307   2.470  2.1491 -3.8076  0.1264
  765MOL0     H 5549   3.415   5.317   2.313 -0.0340 -0.0178 -0.3766
  765MOL0     H 5550   2.856   5.768   2.798 -0.1573  1.2549 -2.2943
  765MOL0     H 5551   2.669   5.909   2.777  0.6948 -0.6902 -1.2631
  765MOL0     H 5552   2.170   5.950   2.905 -0.0685  1.5712  0.9880
  765MOL0     H 5553   1.990   6.112   2.914 -1.7938  3.1020 -1.8946
  765MOL0     H 5554   0.444   6.896   2.067 -0.8961  1.3288  1.0238
  765MOL0     H 5555   0.239   6.912   1.913 -0.0607 -0.4990 -1.2026
  765MOL0     H 5556  -0.055   6.971   1.693 -0.5445 -0.0297  0.1051
  765MOL0     H 5557  -0.262   6.963   1.624  1.0367  0.0336  1.8183
  765MOL0     H 5558  -0.441   7.226   1.585 -1.4618 -0.1685  0.0019
  765MOL0     H 5559  -0.478   7.289   1.412 -0.2361 -1.5032 -2.4456
  765MOL0     H 5560  -0.660   7.197   1.533 -0.2345 -0.9091  0.7503
  765MOL0     H 5561  -0.581   7.039   1.540 -1.9268 -0.1299  0.4027
  765MOL0     H 5562  -0.554   7.032   1.293 -0.8071 -0.2221 -1.9946
  765MOL0     H 5563  -0.725   7.036   1.351 -1.0735  0.6086 -1.4182
  765MOL0     H 5564  -0.726   7.172   1.163 -0.3235  0.9147  0.3122
  765MOL0     H 5565  -0.573   7.254   1.206 -0.9897  0.9089 -1.6971
  765MOL0     H 5566  -0.879   7.456   1.416  1.5690  1.2458  0.2856
  765MOL0     H 5567  -0.167   7.273   1.328 -0.2053  0.9187  0.9284
  765MOL0     H 5568   0.146   7.316   1.350 -0.4446  0.3577 -0.2059
  765MOL0     H 5569   0.001   7.415   1.361 -0.8722 -0.9819 -1.2166
  765MOL0     H 5570   0.095   7.416   1.497  1.5263  2.8751 -2.2844
  766MOL0     O 5571   4.978   2.962   8.429  0.1737  0.3639 -0.4828
  766MOL0     C 5572   4.963   2.993   8.548 -1.0079 -0.7228 -0.2691
  766MOL0     O 5573   5.057   2.971   8.650 -0.1799 -0.9001  0.5189
  766MOL0     C 5574   5.178   2.928   8.594 -0.4514 -0.9179 -0.0642
  766MOL0     C 5575   5.251   3.014   8.512 -0.0339 -0.1993  0.4604
  766MOL0     C 5576   5.382   2.972   8.483  0.3375  0.0962 -0.0317
  766MOL0     C 5577   5.437   2.847   8.516  0.4046  0.2647 -0.7752
  766MOL0     O 5578   5.573   2.810   8.495  0.1009  0.0555 -0.2067
  766MOL0     C 5579   5.646   2.896   8.400  0.1928  0.6143  0.2015
  766MOL0     C 5580   5.783   2.824   8.378  0.3866 -0.9064  0.2165
  766MOL0     C 5581   5.857   2.907   8.273 -0.2737 -0.2397  0.1486
  766MOL0     C 5582   5.978   2.824   8.247 -0.3890 -0.5950  0.4154
  766MOL0     C 5583   6.097   2.903   8.196  0.1422 -0.3041  0.2224
  766MOL0     C 5584   6.216   2.816   8.187  0.7611 -0.3515 -0.5268
  766MOL0     C 5585   6.350   2.889   8.159 -0.1076 -0.1317 -0.7993
  766MOL0     C 5586   6.463   2.787   8.149 -0.7086 -0.2545  0.7975
  766MOL0     N 5587   6.594   2.854   8.099 -0.5634  0.3642 -0.2230
  766MOL0     C 5588   6.679   2.933   8.171 -0.0039 -0.3009 -0.2098
  766MOL0     C 5589   6.785   2.949   8.094  0.2510  0.0285  1.6935
  766MOL0     C 5590   6.919   3.008   8.113  0.5102 -0.1800 -0.1719
  766MOL0     C 5591   7.019   2.902   8.166 -0.6566 -0.6878  0.6017
  766MOL0     C 5592   7.156   2.957   8.222  0.5634 -0.5920 -0.0825
  766MOL0     C 5593   7.226   2.865   8.315  0.4606 -0.6544 -0.3330
  766MOL0     O 5594   7.239   2.730   8.264 -0.1053 -0.0805 -0.2678
  766MOL0     C 5595   7.355   2.662   8.293 -0.0823 -0.1355  0.0911
  766MOL0     C 5596   7.397   2.639   8.427  0.0733  1.0436 -0.6103
  766MOL0     C 5597   7.516   2.570   8.453 -0.1030  0.1111 -0.3649
  766MOL0     C 5598   7.545   2.561   8.604  0.0529 -0.4497 -0.8783
  766MOL0     C 5599   7.600   2.522   8.350  0.2534  0.4622 -0.8476
  766MOL0     C 5600   7.724   2.453   8.373 -0.1229  0.1871  0.2529
  766MOL0     O 5601   7.773   2.388   8.261  0.5451 -0.1138 -0.3727
  766MOL0     C 5602   7.886   2.305   8.264  0.2044 -0.3016  0.5631
  766MOL0     C 5603   7.870   2.177   8.221  1.6637  0.0176 -0.9699
  766MOL0     C 5604   7.979   2.098   8.196 -0.8150  0.5796 -0.3855
  766MOL0     C 5605   8.110   2.145   8.205 -0.0582  0.5936  0.1917
  766MOL0     O 5606   8.230   2.086   8.175  0.0081 -0.3394 -0.6509
  766MOL0     C 5607   8.231   1.960   8.113 -0.5101  0.0653  0.0755
  766MOL0     C 5608   8.355   1.974   8.017 -0.5934  0.4956 -0.7248
  766MOL0     C 5609   8.491   1.959   8.102 -0.4620 -0.9198  0.1304
  766MOL0     C 5610   8.621   1.971   8.011  0.2866  0.6807  0.0206
  766MOL0     C 5611   8.729   1.985   8.114 -0.0766  0.5975 -0.6362
  766MOL0     C 5612   8.862   1.975   8.032 -0.3256 -0.4289  0.2020
  766MOL0     C 5613   8.984   2.025   8.113  0.1387  0.2405 -0.7522
  766MOL0     C 5614   9.106   2.050   8.026  0.1104  0.6724 -0.1668
  766MOL0    Cl 5615   9.162   1.893   7.965 -0.2186  0.0170  0.3319
  766MOL0     C 5616   8.127   2.283   8.237 -0.3979  1.2679  0.3063
  766MOL0     C 5617   8.018   2.361   8.276  0.1778  0.3307 -0.3091
  766MOL0     O 5618   7.780   2.466   8.483 -0.0126  0.0405 -0.7647
  766MOL0     C 5619   7.558   2.544   8.217 -1.0095 -0.1553 -0.8677
  766MOL0     C 5620   7.433   2.609   8.189  1.3668 -0.5555  0.0827
  766MOL0     N 5621   6.758   2.895   7.970 -0.3921  0.9855 -0.3117
  766MOL0     N 5622   6.655   2.828   7.976 -0.3407 -0.6659 -0.0801
  766MOL0     C 5623   5.356   2.763   8.593 -0.9915  0.6391  0.3076
  766MOL0     C 5624   5.230   2.802   8.638 -0.6287 -0.3697 -0.2728
  766MOL0     C 5625   4.828   3.019   8.599  0.7705 -0.1237 -0.6149
  766MOL0     C 5626   4.792   2.967   8.731  0.4112 -0.6674  0.0696
  766MOL0     C 5627   4.659   2.980   8.782  0.3943 -0.6385  0.1146
  766MOL0     C 5628   4.555   3.021   8.690  0.2141  0.3996 -0.3920
  766MOL0     O 5629   4.430   3.028   8.734  0.2145  0.0523  0.5749
  766MOL0     C 5630   4.368   2.904   8.701  0.6831  0.3149 -0.0107
  766MOL0     C 5631   4.224   2.884   8.764  0.0304 -0.1160  0.1337
  766MOL0     C 5632   4.132   2.993   8.697  1.0724  0.5164 -0.0814
  766MOL0     C 5633   4.171   3.137   8.710  0.2356 -0.8088  0.1792
  766MOL0     C 5634   4.070   3.227   8.657  0.2360  0.9160  0.5828
  766MOL0     C 5635   3.972   3.287   8.615  0.1279  0.6115  0.7354
  766MOL0     C 5636   4.595   3.066   8.567 -0.7789 -0.3809  0.6218
  766MOL0     C 5637   4.724   3.072   8.517 -0.9898  0.0864 -0.6267
  766MOL0     C 5638   4.750   3.132   8.381  1.2215 -0.2975  0.6642
  766MOL0     H 5639   5.222   3.117   8.498  1.4188  0.3871  1.5109
  766MOL0     H 5640   5.427   3.058   8.435 -2.4707  0.4656 -2.1795
  766MOL0     H 5641   5.669   2.993   8.446 -1.3335  0.7479  0.7276
  766MOL0     H 5642   5.587   2.913   8.310 -0.0415 -1.8553 -0.1808
  766MOL0     H 5643   5.835   2.833   8.474  2.1720 -1.8617 -0.6212
  766MOL0     H 5644   5.775   2.718   8.354  2.5635 -1.0145 -0.1699
  766MOL0     H 5645   5.809   2.916   8.176  2.6554  0.6158 -1.3242
  766MOL0     H 5646   5.887   3.006   8.308  0.9165  0.7072 -3.2019
  766MOL0     H 5647   6.011   2.781   8.342 -2.8250 -0.2811  1.4686
  766MOL0     H 5648   5.946   2.740   8.185  2.5987 -1.0616 -0.6394
  766MOL0     H 5649   6.111   2.968   8.283 -1.0452  2.5187 -1.5624
  766MOL0     H 5650   6.079   2.969   8.110  0.2189  0.6439  0.9090
  766MOL0     H 5651   6.226   2.750   8.274  0.2365 -1.8349 -1.5543
  766MOL0     H 5652   6.199   2.751   8.101  0.4035 -2.6818  1.2305
  766MOL0     H 5653   6.368   2.971   8.230  0.3647  0.4277 -1.5500
  766MOL0     H 5654   6.345   2.938   8.061 -0.4703  2.8065  0.5588
  766MOL0     H 5655   6.480   2.736   8.244 -1.5200 -0.9132  0.6009
  766MOL0     H 5656   6.423   2.712   8.080 -1.7811  1.0275 -0.0315
  766MOL0     H 5657   6.675   2.967   8.274 -2.2494 -0.6846 -0.1337
  766MOL0     H 5658   6.907   3.089   8.185 -1.2005 -0.0936 -0.5152
  766MOL0     H 5659   6.947   3.048   8.015 -1.5926  1.2513 -0.2300
  766MOL0     H 5660   6.967   2.860   8.252 -0.5668 -0.9926  0.5103
  766MOL0     H 5661   7.038   2.823   8.092  1.6164 -0.3653  0.7636
  766MOL0     H 5662   7.218   3.000   8.142 -0.0717 -1.0733 -0.8548
  766MOL0     H 5663   7.139   3.038   8.293 -2.5879 -1.3309  0.1512
  766MOL0     H 5664   7.327   2.905   8.330  0.0194  0.1571  0.5322
  766MOL0     H 5665   7.189   2.872   8.418  0.2085  1.2310 -0.5135
  766MOL0     H 5666   7.334   2.671   8.509  0.2526 -0.0416 -0.0353
  766MOL0     H 5667   7.583   2.461   8.629  0.2358  0.0551  1.0010
  766MOL0     H 5668   7.454   2.569   8.664  0.3698  0.5263 -0.5035
  766MOL0     H 5669   7.608   2.641   8.643 -0.3094 -1.1978  1.4089
  766MOL0     H 5670   7.768   2.142   8.208  1.9898 -2.3369  1.7701
  766MOL0     H 5671   7.964   1.992   8.181 -1.0003  0.5417  0.0505
  766MOL0     H 5672   8.237   1.877   8.183  1.7011 -0.2661 -0.4311
  766MOL0     H 5673   8.143   1.943   8.050 -0.8659 -1.5725  0.9571
  766MOL0     H 5674   8.362   1.891   7.946  3.0505 -0.7390  0.8687
  766MOL0     H 5675   8.363   2.071   7.966 -0.7359 -0.1506 -2.0327
  766MOL0     H 5676   8.501   1.864   8.155  4.0096 -2.1538 -2.3560
  766MOL0     H 5677   8.481   2.035   8.179 -1.0025  0.5531 -1.3406
  766MOL0     H 5678   8.607   2.058   7.946 -1.4591 -0.4147 -1.1673
  766MOL0     H 5679   8.630   1.876   7.957  0.6464 -1.5445  3.6410
  766MOL0     H 5680   8.727   2.086   8.155  2.7772  0.7678 -0.6888
  766MOL0     H 5681   8.726   1.913   8.197  2.4799  0.8483 -0.2260
  766MOL0     H 5682   8.864   2.033   7.940 -0.7207 -1.2101 -0.3028
  766MOL0     H 5683   8.874   1.869   8.010  1.9732 -0.4606  1.2999
  766MOL0     H 5684   9.015   1.959   8.195 -2.7819 -1.2367 -0.7023
  766MOL0     H 5685   8.947   2.112   8.168  0.5274  2.2562 -3.4724
  766MOL0     H 5686   9.187   2.104   8.075  0.9197  0.6662 -1.4646
  766MOL0     H 5687   9.073   2.115   7.944 -0.0748 -1.5671 -1.9959
  766MOL0     H 5688   8.230   2.319   8.241 -0.3625  1.2472 -0.2689
  766MOL0     H 5689   8.039   2.459   8.318  0.5169  1.5561 -3.1304
  766MOL0     H 5690   7.614   2.514   8.129 -2.1055 -3.4733 -0.5888
  766MOL0     H 5691   7.406   2.602   8.084 -2.6983  1.1372  0.8351
  766MOL0     H 5692   5.401   2.671   8.627 -2.6575 -0.7931 -1.1659
  766MOL0     H 5693   5.164   2.740   8.699 -2.1872  0.2053 -1.3002
  766MOL0     H 5694   4.867   2.926   8.798  0.2567 -0.8837  0.1083
  766MOL0     H 5695   4.634   2.957   8.885 -0.6169 -1.5539 -0.3187
  766MOL0     H 5696   4.362   2.889   8.593  1.3606 -0.3066  0.0321
  766MOL0     H 5697   4.430   2.831   8.753  1.8105  0.9456 -0.4297
  766MOL0     H 5698   4.222   2.892   8.873  0.8706  2.0830  0.0407
  766MOL0     H 5699   4.187   2.786   8.735 -1.1457 -0.0873  1.4434
  766MOL0     H 5700   4.124   2.968   8.591  1.1471 -1.1547  0.2726
  766MOL0     H 5701   4.036   2.971   8.746  1.6074 -2.3191 -0.1063
  766MOL0     H 5702   4.256   3.150   8.642 -1.2557  0.6626 -1.5159
  766MOL0     H 5703   4.205   3.162   8.811 -1.9156 -0.1743  0.8056
  766MOL0     H 5704   3.890   3.329   8.561 -1.0330 -1.6603  0.6148
  766MOL0     H 5705   4.519   3.116   8.508  1.3472  0.2041 -1.8058
  766MOL0     H 5706   4.665   3.198   8.361 -1.1668 -3.2319  0.4898
  766MOL0     H 5707   4.839   3.196   8.380  0.9740  0.0629 -0.5831
  766MOL0     H 5708   4.761   3.050   8.310 -2.6690 -1.6948  1.4315
  767MOL0     O 5709   1.705   1.091   9.047 -0.1032  0.4406 -0.3706
  767MOL0     C 5710   1.725   1.203   9.101  0.4165 -0.5397  0.0851
  767MOL0     O 5711   1.853   1.265   9.110 -0.5678  0.1484 -0.3433
  767MOL0     C 5712   1.971   1.233   9.045  1.0050  0.2767  0.4041
  767MOL0     C 5713   1.960   1.168   8.923 -0.1788 -0.4092 -0.2389
  767MOL0     C 5714   2.074   1.150   8.842 -0.2391  0.3892 -0.2284
  767MOL0     C 5715   2.203   1.184   8.896 -0.3844  0.3052 -0.3141
  767MOL0     O 5716   2.318   1.142   8.830 -0.1671 -0.2063 -0.1665
  767MOL0     C 5717   2.321   1.162   8.683 -0.2898  0.6595 -0.6603
  767MOL0     C 5718   2.463   1.191   8.637 -0.1586 -0.3622  0.1414
  767MOL0     C 5719   2.555   1.071   8.683 -0.1071 -0.9392  0.2030
  767MOL0     C 5720   2.685   1.053   8.607 -0.5611 -0.7814  0.2423
  767MOL0     C 5721   2.663   1.004   8.463 -0.2621  0.6753  0.2684
  767MOL0     C 5722   2.802   0.968   8.385 -0.6169 -0.0188 -1.2147
  767MOL0     C 5723   2.839   1.083   8.294  0.0494 -0.2675  0.2833
  767MOL0     C 5724   2.961   1.065   8.208 -0.1812  0.2744  0.0206
  767MOL0     N 5725   2.960   0.952   8.119 -0.7974 -0.2907  0.1721
  767MOL0     C 5726   2.933   0.947   7.985  0.3285 -0.3321 -0.2397
  767MOL0     C 5727   2.934   0.815   7.946  0.5225  0.0404 -0.4245
  767MOL0     C 5728   2.895   0.755   7.813 -0.0205  0.0843 -0.1000
  767MOL0     C 5729   3.016   0.737   7.719  0.6605  0.4670  0.0662
  767MOL0     C 5730   3.053   0.870   7.642 -0.0046  0.3621  0.5857
  767MOL0     C 5731   3.173   0.858   7.552 -0.1879  0.6936 -0.5215
  767MOL0     O 5732   3.283   0.799   7.621 -0.0546 -0.3988 -0.2160
  767MOL0     C 5733   3.401   0.797   7.559 -0.5222 -0.1336  0.2050
  767MOL0     C 5734   3.432   0.846   7.433  0.1061  0.1832 -0.3185
  767MOL0     C 5735   3.562   0.838   7.378  0.6040 -0.5633  0.6387
  767MOL0     C 5736   3.571   0.876   7.231 -0.3116  0.8822 -0.2640
  767MOL0     C 5737   3.671   0.792   7.454  0.4070  0.0947  0.3178
  767MOL0     C 5738   3.816   0.793   7.413  0.1957  0.4615  0.2767
  767MOL0     O 5739   3.846   0.834   7.291 -0.6974 -0.4021 -0.1171
  767MOL0     C 5740   3.969   0.816   7.225 -0.5777 -0.5954  0.5275
  767MOL0     C 5741   4.017   0.919   7.147 -0.4783 -0.6905  0.1500
  767MOL0     C 5742   4.146   0.904   7.092  0.7076 -0.1364  0.6150
  767MOL0     C 5743   4.225   0.788   7.104 -0.0521 -0.1656 -0.4218
  767MOL0     O 5744   4.341   0.779   7.040 -0.5150  0.0437 -0.1072
  767MOL0     C 5745   4.323   0.715   6.913 -1.0694  0.0197  0.1892
  767MOL0     C 5746   4.458   0.671   6.856  0.1048 -0.1831 -0.0440
  767MOL0     C 5747   4.541   0.584   6.946 -0.1029  0.3905 -0.5953
  767MOL0     C 5748   4.669   0.548   6.864  1.2001  0.2376  0.7067
  767MOL0     C 5749   4.784   0.497   6.960 -0.1680 -0.4835  0.0267
  767MOL0     C 5750   4.902   0.463   6.864 -0.4183  0.3117  0.0758
  767MOL0     C 5751   5.039   0.482   6.935 -0.6589  0.3651  0.2264
  767MOL0     C 5752   5.138   0.503   6.822 -0.0625 -0.4948 -0.6501
  767MOL0    Cl 5753   5.302   0.533   6.879  0.0194 -0.1798  0.1497
  767MOL0     C 5754   4.168   0.684   7.184 -0.3693 -0.6751  0.1472
  767MOL0     C 5755   4.042   0.697   7.243  0.3453 -0.2600 -0.0132
  767MOL0     O 5756   3.895   0.750   7.496  0.0369  0.0460  0.1701
  767MOL0     C 5757   3.644   0.752   7.586  0.6513  0.2522 -0.0196
  767MOL0     C 5758   3.507   0.739   7.633 -0.0674  0.7084  0.2411
  767MOL0     N 5759   2.982   0.738   8.054 -0.3829 -0.6600  1.1389
  767MOL0     N 5760   2.992   0.823   8.157 -0.0857 -0.1340 -0.0462
  767MOL0     C 5761   2.211   1.245   9.021 -0.0883  0.2116 -0.9030
  767MOL0     C 5762   2.091   1.272   9.090 -0.2094 -0.7142 -0.4098
  767MOL0     C 5763   1.604   1.285   9.137  0.0521 -0.1037 -0.9286
  767MOL0     C 5764   1.477   1.246   9.093 -0.7717  0.1860  0.5138
  767MOL0     C 5765   1.362   1.308   9.126 -1.1486  0.5291  0.4948
  767MOL0     C 5766   1.364   1.414   9.212 -1.0486 -0.6630 -0.1398
  767MOL0     O 5767   1.242   1.453   9.243  0.2894 -0.8819 -0.0804
  767MOL0     C 5768   1.224   1.551   9.346 -0.3612 -0.3441  0.6819
  767MOL0     C 5769   1.228   1.480   9.482 -0.1955 -0.2606 -0.8490
  767MOL0     C 5770   1.178   1.561   9.610 -0.1495  0.5680  0.5069
  767MOL0     C 5771   1.240   1.702   9.620 -0.8929  0.2548  0.6344
  767MOL0     C 5772   1.385   1.700   9.588  0.1838 -0.3114 -0.1876
  767MOL0     C 5773   1.505   1.693   9.577  0.3761  0.3600  1.0815
  767MOL0     C 5774   1.486   1.460   9.268 -0.7042  0.1212  0.3784
  767MOL0     C 5775   1.606   1.400   9.230 -0.5291 -0.2653  1.4963
  767MOL0     C 5776   1.737   1.458   9.272  0.2795  0.7936 -1.1601
  767MOL0     H 5777   1.864   1.133   8.886 -1.6209  1.9253  1.0333
  767MOL0     H 5778   2.058   1.110   8.743  2.5983  0.6710 -0.8828
  767MOL0     H 5779   2.255   1.246   8.659 -1.2587  0.2238  0.3927
  767MOL0     H 5780   2.287   1.066   8.643 -0.9558 -1.0408  3.4420
  767MOL0     H 5781   2.459   1.207   8.529  2.8914 -2.2814 -0.3792
  767MOL0     H 5782   2.493   1.277   8.697 -1.0294  0.1588 -0.1432
  767MOL0     H 5783   2.573   1.099   8.787 -0.0297  1.1883 -0.3389
  767MOL0     H 5784   2.500   0.979   8.660  1.7789 -1.7977 -1.1310
  767MOL0     H 5785   2.742   1.146   8.616  0.2182 -1.3407  1.3511
  767MOL0     H 5786   2.736   0.975   8.663  0.6994 -1.6993 -2.0382
  767MOL0     H 5787   2.594   1.065   8.404 -2.0111 -1.7741 -0.3483
  767MOL0     H 5788   2.616   0.906   8.477  0.2958  0.5950  1.8155
  767MOL0     H 5789   2.878   0.956   8.462 -0.5677 -0.2571 -1.3011
  767MOL0     H 5790   2.790   0.874   8.330  0.1229 -0.1112 -1.2181
  767MOL0     H 5791   2.856   1.171   8.357  0.3307 -0.3568  0.3323
  767MOL0     H 5792   2.753   1.110   8.232  1.3564  2.0653 -0.6516
  767MOL0     H 5793   2.974   1.149   8.140 -3.5396  1.2484  0.3982
  767MOL0     H 5794   3.051   1.051   8.269  0.4315 -0.2791 -0.9928
  767MOL0     H 5795   2.916   1.038   7.928  1.7737 -0.7178 -1.3288
  767MOL0     H 5796   2.819   0.826   7.779  1.1949  2.2471  1.4953
  767MOL0     H 5797   2.848   0.658   7.834  0.3012 -0.8038 -3.0125
  767MOL0     H 5798   3.100   0.690   7.771  0.5810 -1.8561 -1.7309
  767MOL0     H 5799   2.987   0.670   7.637  0.0241  2.4978 -1.4529
  767MOL0     H 5800   2.961   0.890   7.587 -2.3177 -3.1415  2.7693
  767MOL0     H 5801   3.084   0.943   7.718 -2.1867  1.1409  0.7812
  767MOL0     H 5802   3.151   0.803   7.461 -2.2602 -1.9383  1.4327
  767MOL0     H 5803   3.212   0.957   7.525  0.2042 -0.0204 -2.7831
  767MOL0     H 5804   3.355   0.897   7.376  1.6680  1.0816 -1.7265
  767MOL0     H 5805   3.473   0.892   7.186  0.4903  0.3646 -2.2799
  767MOL0     H 5806   3.615   0.792   7.177  3.1019  2.6449 -0.5521
  767MOL0     H 5807   3.627   0.969   7.217  0.9362  0.0509 -1.0103
  767MOL0     H 5808   3.969   1.014   7.125  2.5118  0.4345 -2.3361
  767MOL0     H 5809   4.188   0.989   7.039  1.2025 -0.0994  1.0548
  767MOL0     H 5810   4.253   0.631   6.921  1.1413 -1.9511 -0.1145
  767MOL0     H 5811   4.278   0.786   6.843  1.3382 -0.0210 -1.5414
  767MOL0     H 5812   4.438   0.630   6.757 -2.5752 -1.5689  0.9558
  767MOL0     H 5813   4.520   0.759   6.838 -1.3869  1.2130  1.3679
  767MOL0     H 5814   4.476   0.498   6.964 -1.0246  1.2552  0.3552
  767MOL0     H 5815   4.577   0.631   7.038  1.2927 -0.8931 -0.4392
  767MOL0     H 5816   4.700   0.625   6.793 -0.1464 -2.4289 -3.1410
  767MOL0     H 5817   4.648   0.459   6.804  1.4573 -0.9430  2.2949
  767MOL0     H 5818   4.812   0.573   7.033 -1.6968 -1.9027  2.2096
  767MOL0     H 5819   4.751   0.416   7.026  2.0542 -2.5835 -1.2565
  767MOL0     H 5820   4.900   0.540   6.786  0.9677 -1.6072 -1.9664
  767MOL0     H 5821   4.899   0.367   6.813 -1.3810  1.7545 -2.7783
  767MOL0     H 5822   5.054   0.394   6.998 -2.0177 -1.4077 -1.7822
  767MOL0     H 5823   5.041   0.575   6.994  3.9399 -0.8978  2.5765
  767MOL0     H 5824   5.102   0.586   6.760 -1.5146  0.2927  1.1446
  767MOL0     H 5825   5.145   0.414   6.759  0.8236 -0.5719 -0.4587
  767MOL0     H 5826   4.232   0.596   7.188 -1.0210 -1.1543  0.2691
  767MOL0     H 5827   3.998   0.617   7.301  0.2531  0.9940  1.7392
  767MOL0     H 5828   3.725   0.720   7.652 -0.3373  3.3727  2.9731
  767MOL0     H 5829   3.481   0.699   7.730 -0.6431 -2.3960 -1.0477
  767MOL0     H 5830   2.312   1.263   9.058  0.0289 -0.9620 -0.6297
  767MOL0     H 5831   2.072   1.315   9.187 -3.3447 -0.2511 -1.1326
  767MOL0     H 5832   1.482   1.147   9.050 -0.9164  0.7245 -0.7736
  767MOL0     H 5833   1.271   1.252   9.113 -0.5085 -1.0526  2.3364
  767MOL0     H 5834   1.295   1.634   9.337  1.1456 -1.7771 -2.1333
  767MOL0     H 5835   1.123   1.588   9.327 -0.6420 -1.3241  0.1780
  767MOL0     H 5836   1.327   1.450   9.517 -0.4139  1.2614  1.3111
  767MOL0     H 5837   1.165   1.391   9.481  0.1033 -0.6498  2.8152
  767MOL0     H 5838   1.070   1.577   9.606 -0.2365  0.0866  0.8698
  767MOL0     H 5839   1.197   1.506   9.702  0.3455  1.0729  0.7096
  767MOL0     H 5840   1.225   1.734   9.724 -3.8932 -1.2422  0.7735
  767MOL0     H 5841   1.188   1.777   9.558  0.0318 -0.1055 -0.6155
  767MOL0     H 5842   1.610   1.697   9.560  0.0433 -3.2787 -4.2289
  767MOL0     H 5843   1.496   1.549   9.330 -1.0478  0.4539 -0.0368
  767MOL0     H 5844   1.802   1.500   9.194  0.6218  1.0341 -0.7475
  767MOL0     H 5845   1.716   1.540   9.342  1.2230  1.5443 -1.7298
  767MOL0     H 5846   1.800   1.396   9.335 -0.1141  0.2113 -1.3291
  768MOL0     O 5847   2.291   4.581   0.471  0.1193  0.5108  0.6400
  768MOL0     C 5848   2.266   4.463   0.499  0.1618 -0.4219 -0.3850
  768MOL0     O 5849   2.346   4.386   0.566 -0.4396  0.4854 -0.0957
  768MOL0     C 5850   2.474   4.428   0.594  0.2930  0.0424  0.4160
  768MOL0     C 5851   2.578   4.385   0.516  0.1937  0.7507  0.1138
  768MOL0     C 5852   2.712   4.420   0.542  0.4850  0.2871 -0.0825
  768MOL0     C 5853   2.735   4.510   0.652  0.2115  0.0183  0.1574
  768MOL0     O 5854   2.863   4.546   0.675  0.3434  0.2162  0.1776
  768MOL0     C 5855   2.879   4.677   0.729  0.1194 -0.2516  0.0486
  768MOL0     C 5856   2.833   4.780   0.621 -0.3615  0.2988 -0.0140
  768MOL0     C 5857   2.922   4.910   0.625 -0.0827  0.2708  0.1434
  768MOL0     C 5858   2.870   5.007   0.515  0.1550 -0.4834 -0.3000
  768MOL0     C 5859   2.905   5.157   0.538 -0.0430  0.0472 -0.3789
  768MOL0     C 5860   3.052   5.182   0.569 -0.3046 -0.7060 -0.3843
  768MOL0     C 5861   3.155   5.101   0.481 -0.5203 -0.0904 -0.2507
  768MOL0     C 5862   3.298   5.101   0.555  0.1820  0.1798 -0.5588
  768MOL0     N 5863   3.366   4.985   0.503  0.3830  0.4381  0.4346
  768MOL0     C 5864   3.421   4.978   0.379 -0.6813 -0.0208 -0.5567
  768MOL0     C 5865   3.475   4.855   0.371  1.4698  0.5655  0.4716
  768MOL0     C 5866   3.527   4.785   0.246  0.5991  0.2292 -0.3053
  768MOL0     C 5867   3.679   4.740   0.254 -0.0511 -0.2821 -0.1046
  768MOL0     C 5868   3.737   4.721   0.109  0.1391  0.2861  0.3969
  768MOL0     C 5869   3.881   4.688   0.096 -0.9765 -0.2198 -0.1468
  768MOL0     O 5870   3.946   4.816   0.105  0.0330 -0.4091  0.4325
  768MOL0     C 5871   4.083   4.816   0.103  0.4370 -0.4405  1.0766
  768MOL0     C 5872   4.153   4.935   0.125 -0.2186  0.1095  0.5717
  768MOL0     C 5873   4.290   4.947   0.124 -0.5467 -0.2206  1.0533
  768MOL0     C 5874   4.348   5.083   0.154  0.4833 -0.4203  0.4092
  768MOL0     C 5875   4.368   4.833   0.100  0.2317  0.4871  0.1006
  768MOL0     C 5876   4.516   4.825   0.109 -0.2365  0.4642  0.2711
  768MOL0     O 5877   4.595   4.936   0.078  0.7763  0.4152 -0.2643
  768MOL0     C 5878   4.726   4.933   0.115  0.0236  0.6922  0.3493
  768MOL0     C 5879   4.815   4.861   0.038  0.5010 -0.2505 -0.0385
  768MOL0     C 5880   4.954   4.856   0.065 -0.7006 -0.6249 -0.3270
  768MOL0     C 5881   4.998   4.920   0.188  0.8067 -0.3551 -0.2032
  768MOL0     O 5882   5.127   4.917   0.222 -0.1393 -0.4233  0.1841
  768MOL0     C 5883   5.215   4.833   0.145 -0.1747 -0.1099  0.0540
  768MOL0     C 5884   5.350   4.833   0.216 -0.4615 -0.4587  0.4049
  768MOL0     C 5885   5.344   4.755   0.346 -0.0912 -0.2400  0.6597
  768MOL0     C 5886   5.484   4.706   0.406  0.3513 -0.1031  0.8136
  768MOL0     C 5887   5.467   4.628   0.539 -0.4320 -0.4575  0.8611
  768MOL0     C 5888   5.438   4.721   0.660 -0.2538 -0.3894  0.5225
  768MOL0     C 5889   5.390   4.643   0.788  0.4938  0.1070  0.4697
  768MOL0     C 5890   5.257   4.574   0.762 -0.1748  0.3309 -0.0013
  768MOL0    Cl 5891   5.219   4.457   0.894 -0.1514  0.6051  0.0818
  768MOL0     C 5892   4.902   4.995   0.264 -0.4997 -0.3825 -0.0769
  768MOL0     C 5893   4.765   5.004   0.228 -0.2722 -0.0484 -0.1676
  768MOL0     O 5894   4.559   4.719   0.149 -0.7251  0.1392 -0.4814
  768MOL0     C 5895   4.303   4.709   0.081 -0.5302  1.1910  0.3006
  768MOL0     C 5896   4.166   4.698   0.072 -0.1472 -1.1546 -0.4313
  768MOL0     N 5897   3.461   4.794   0.496  0.0792 -0.1782  0.0281
  768MOL0     N 5898   3.393   4.869   0.568 -0.5587  0.1830  0.2134
  768MOL0     C 5899   2.628   4.537   0.741 -0.0619  0.7678 -0.6483
  768MOL0     C 5900   2.494   4.495   0.714  0.2981  0.7909  0.3543
  768MOL0     C 5901   2.131   4.406   0.462 -0.0263  0.0324 -0.0197
  768MOL0     C 5902   2.058   4.322   0.546 -0.0903  0.7039 -0.0212
  768MOL0     C 5903   1.936   4.266   0.510  0.2479 -1.3009  0.8280
  768MOL0     C 5904   1.883   4.300   0.390  0.0004  0.2688  1.0720
  768MOL0     O 5905   1.764   4.241   0.354  0.3520  0.3725  0.0172
  768MOL0     C 5906   1.673   4.300   0.253  0.8047 -0.4471 -0.4729
  768MOL0     C 5907   1.553   4.208   0.211 -0.2792 -0.5913  0.7301
  768MOL0     C 5908   1.454   4.177   0.321 -0.2911  0.9547  0.4358
  768MOL0     C 5909   1.351   4.064   0.276 -0.3517 -0.4485 -0.0925
  768MOL0     C 5910   1.280   4.029   0.404 -0.1471  0.2363 -0.4090
  768MOL0     C 5911   1.224   4.003   0.507 -0.1050 -0.3545  1.1303
  768MOL0     C 5912   1.947   4.390   0.302  0.7816  0.1944 -0.5604
  768MOL0     C 5913   2.067   4.446   0.339  1.4922  0.2766 -0.3409
  768MOL0     C 5914   2.105   4.565   0.252  0.4523 -0.7082 -0.4126
  768MOL0     H 5915   2.562   4.333   0.422 -0.7201 -0.5570  0.9571
  768MOL0     H 5916   2.795   4.379   0.485  2.2395  1.8273  1.2617
  768MOL0     H 5917   2.981   4.687   0.768  0.4616  0.9410 -1.0657
  768MOL0     H 5918   2.829   4.708   0.821  2.5128  1.6379  0.8301
  768MOL0     H 5919   2.873   4.735   0.529 -2.5656 -1.2366 -0.3030
  768MOL0     H 5920   2.725   4.792   0.609 -0.3224  0.6659  0.0068
  768MOL0     H 5921   2.909   4.950   0.726 -0.4344  0.4437  0.0337
  768MOL0     H 5922   3.023   4.877   0.599 -0.8178 -3.1262  1.0124
  768MOL0     H 5923   2.913   4.985   0.416  3.0281 -0.9712  0.9593
  768MOL0     H 5924   2.761   4.996   0.508 -0.0202  0.0617  1.2381
  768MOL0     H 5925   2.838   5.196   0.616 -2.2058  0.1325 -2.1891
  768MOL0     H 5926   2.878   5.208   0.445  0.9286 -1.3839 -1.4887
  768MOL0     H 5927   3.072   5.289   0.560  0.4305 -0.4404  2.8834
  768MOL0     H 5928   3.057   5.143   0.671  1.7155 -1.8982 -0.8811
  768MOL0     H 5929   3.173   5.142   0.381  4.8175 -0.1112  0.4431
  768MOL0     H 5930   3.126   4.996   0.471  1.6952 -0.9103  1.3376
  768MOL0     H 5931   3.357   5.193   0.545 -1.1868  1.2057  0.4031
  768MOL0     H 5932   3.279   5.090   0.662  2.3027 -4.1736 -0.4155
  768MOL0     H 5933   3.413   5.063   0.312 -1.2657 -0.0240 -0.4914
  768MOL0     H 5934   3.507   4.836   0.151  1.3906 -0.8290 -1.0682
  768MOL0     H 5935   3.469   4.692   0.239 -1.1394  1.3978 -2.9800
  768MOL0     H 5936   3.728   4.825   0.301  0.3195 -1.4137  1.6165
  768MOL0     H 5937   3.696   4.657   0.323 -0.7489 -0.3098  0.0461
  768MOL0     H 5938   3.684   4.637   0.062  1.8189 -0.3335 -0.4556
  768MOL0     H 5939   3.718   4.811   0.049  0.0600  0.9896  1.4537
  768MOL0     H 5940   3.902   4.616   0.175  1.2997 -0.4954 -0.9530
  768MOL0     H 5941   3.905   4.635   0.003  0.4575 -2.2833  1.3183
  768MOL0     H 5942   4.085   5.014   0.155 -2.6286 -1.0847 -1.3135
  768MOL0     H 5943   4.410   5.126   0.075  0.5085 -1.5982 -0.2374
  768MOL0     H 5944   4.400   5.082   0.250 -2.4541  2.9599  2.2979
  768MOL0     H 5945   4.261   5.148   0.161 -1.0616 -2.4002  0.4071
  768MOL0     H 5946   4.775   4.811  -0.050  3.1055 -1.9685 -0.3664
  768MOL0     H 5947   5.011   4.804  -0.011  1.4962  0.5573  0.4145
  768MOL0     H 5948   5.174   4.732   0.131  0.5653 -0.3503 -0.4251
  768MOL0     H 5949   5.225   4.877   0.045  2.0019 -0.5679  0.0280
  768MOL0     H 5950   5.428   4.792   0.152 -0.7432 -0.4544  0.0561
  768MOL0     H 5951   5.377   4.936   0.240  0.6393 -0.4498 -0.7942
  768MOL0     H 5952   5.292   4.663   0.316 -0.1161 -0.0339  0.0584
  768MOL0     H 5953   5.301   4.822   0.421  3.3405  2.1878  0.7134
  768MOL0     H 5954   5.555   4.789   0.418 -2.6408  2.9589 -1.0858
  768MOL0     H 5955   5.534   4.638   0.336 -0.4004  0.2690 -0.0973
  768MOL0     H 5956   5.402   4.541   0.527 -0.7287 -0.4705  2.3373
  768MOL0     H 5957   5.567   4.588   0.559  0.6764  1.1538 -1.0698
  768MOL0     H 5958   5.370   4.802   0.634  0.3845  1.5501  4.2011
  768MOL0     H 5959   5.535   4.762   0.689  0.4792 -1.6598 -0.0508
  768MOL0     H 5960   5.368   4.710   0.871 -1.0248  0.9936 -0.5967
  768MOL0     H 5961   5.459   4.573   0.836  1.2394 -0.0058 -0.6962
  768MOL0     H 5962   5.270   4.512   0.673  0.7595  0.4798  0.0161
  768MOL0     H 5963   5.178   4.647   0.745 -0.4408  0.3480  1.1952
  768MOL0     H 5964   4.940   5.041   0.354 -2.2007  3.1044 -0.9933
  768MOL0     H 5965   4.689   5.060   0.282 -2.0954  0.5017 -3.0927
  768MOL0     H 5966   4.365   4.622   0.066  0.3036  1.7336  0.5297
  768MOL0     H 5967   4.141   4.594   0.054 -0.1177 -1.3023  0.3590
  768MOL0     H 5968   2.640   4.590   0.835  2.8946 -1.1918  0.2174
  768MOL0     H 5969   2.404   4.523   0.767 -1.3649 -0.7173 -1.5256
  768MOL0     H 5970   2.105   4.284   0.636  0.2618 -2.1297 -1.2952
  768MOL0     H 5971   1.901   4.191   0.580  2.6952 -2.8686  0.5019
  768MOL0     H 5972   1.630   4.394   0.288 -1.4939 -1.5511 -0.1163
  768MOL0     H 5973   1.731   4.324   0.164  1.4875  1.6799  0.4720
  768MOL0     H 5974   1.588   4.121   0.156  0.8076 -0.4577  1.1828
  768MOL0     H 5975   1.492   4.267   0.141  0.3860 -0.0951  0.5597
  768MOL0     H 5976   1.512   4.133   0.402  0.4129  1.2301  0.0916
  768MOL0     H 5977   1.400   4.269   0.347 -2.9009  0.6502 -3.1312
  768MOL0     H 5978   1.404   3.970   0.255 -1.2092 -1.0606  0.4331
  768MOL0     H 5979   1.283   4.081   0.193 -0.5797  2.0016  0.5216
  768MOL0     H 5980   1.177   3.979   0.600 -1.2685 -0.0258  0.6308
  768MOL0     H 5981   1.903   4.427   0.210  0.6102 -0.6174 -0.8076
  768MOL0     H 5982   2.120   4.653   0.315 -0.1578 -1.9696  1.5809
  768MOL0     H 5983   2.200   4.558   0.199 -1.0280 -2.2154 -3.0957
  768MOL0     H 5984   2.027   4.596   0.182  1.7461  0.6647 -1.3084
  769MOL0     O 5985   3.238   2.078   9.258 -0.2311  0.2729  0.3074
  769MOL0     C 5986   3.226   1.960   9.295  0.1733  0.5850  0.5704
  769MOL0     O 5987   3.304   1.859   9.244  0.7516  0.2778  0.1757
  769MOL0     C 5988   3.349   1.876   9.121  1.1817 -0.6392  0.0393
  769MOL0     C 5989   3.467   1.955   9.104  0.3561 -0.0328 -0.3900
  769MOL0     C 5990   3.527   1.964   8.976  0.1211 -0.6139 -0.2876
  769MOL0     C 5991   3.470   1.908   8.864  0.7150 -0.3095  0.1381
  769MOL0     O 5992   3.534   1.899   8.743  0.2893 -0.2634  0.5575
  769MOL0     C 5993   3.627   2.013   8.717  0.1636  0.7067 -0.1482
  769MOL0     C 5994   3.693   1.991   8.589 -0.0562 -0.3995  0.0908
  769MOL0     C 5995   3.797   1.873   8.598 -0.7830  0.1167  0.8038
  769MOL0     C 5996   3.820   1.811   8.468 -0.9844 -0.2290  0.6532
  769MOL0     C 5997   3.944   1.708   8.470  0.2861 -0.2892 -0.6171
  769MOL0     C 5998   4.081   1.780   8.455  0.4594 -1.2792  0.1796
  769MOL0     C 5999   4.196   1.691   8.398 -0.6932  0.3184  0.1372
  769MOL0     C 6000   4.323   1.775   8.370 -0.9983 -0.2425 -0.1179
  769MOL0     N 6001   4.397   1.813   8.488  0.6454 -0.1021  0.1737
  769MOL0     C 6002   4.419   1.749   8.602 -0.6482 -0.0933 -0.0317
  769MOL0     C 6003   4.524   1.819   8.662 -0.6693 -0.4653  0.8834
  769MOL0     C 6004   4.615   1.759   8.775  0.7102 -0.2016 -0.0325
  769MOL0     C 6005   4.749   1.834   8.780 -0.2130 -0.1556  0.8015
  769MOL0     C 6006   4.847   1.766   8.865 -0.3668  0.0456  0.1555
  769MOL0     C 6007   4.997   1.796   8.830 -0.1764  0.0379  0.4124
  769MOL0     O 6008   5.082   1.735   8.923 -0.2702  0.2173 -0.9317
  769MOL0     C 6009   5.190   1.667   8.867 -0.0393 -0.1603 -0.4970
  769MOL0     C 6010   5.213   1.531   8.886  0.3451 -0.2436 -1.1448
  769MOL0     C 6011   5.321   1.466   8.827  0.9109  0.4492 -0.2766
  769MOL0     C 6012   5.345   1.322   8.859  0.3895  0.2011 -0.4551
  769MOL0     C 6013   5.402   1.533   8.738  0.3331  0.5728 -0.0141
  769MOL0     C 6014   5.514   1.468   8.661  0.4513  0.0284 -0.0444
  769MOL0     O 6015   5.536   1.508   8.532 -0.4390  0.0004 -0.5059
  769MOL0     C 6016   5.607   1.426   8.451 -0.9940 -0.4447 -0.2146
  769MOL0     C 6017   5.751   1.433   8.454  0.0653  0.2253 -0.5180
  769MOL0     C 6018   5.824   1.359   8.366  0.8118 -0.2654 -0.1629
  769MOL0     C 6019   5.756   1.280   8.268  0.5424 -0.2434  0.4205
  769MOL0     O 6020   5.819   1.191   8.179  0.1757 -0.3912  0.2827
  769MOL0     C 6021   5.959   1.222   8.165  0.6999 -0.6748 -0.0956
  769MOL0     C 6022   6.008   1.145   8.044  0.4876 -0.3206 -0.4376
  769MOL0     C 6023   6.156   1.169   8.013 -0.0347  0.3741  0.4293
  769MOL0     C 6024   6.254   1.191   8.139  0.0430 -0.1164 -0.3009
  769MOL0     C 6025   6.396   1.193   8.091  0.2648  0.8240 -0.2975
  769MOL0     C 6026   6.425   1.311   8.000  0.0730 -0.2644  0.2255
  769MOL0     C 6027   6.572   1.350   7.996 -0.8365  0.0370  0.3533
  769MOL0     C 6028   6.604   1.438   7.865 -0.8037  0.3593 -0.0579
  769MOL0    Cl 6029   6.572   1.370   7.696 -0.3679  0.4197  0.1976
  769MOL0     C 6030   5.617   1.280   8.269  0.0757  0.5608 -0.9504
  769MOL0     C 6031   5.543   1.351   8.353  1.3122  0.3078 -0.2593
  769MOL0     O 6032   5.587   1.398   8.723  0.2289  0.1732  0.4767
  769MOL0     C 6033   5.381   1.671   8.710  0.6062 -0.3155 -1.2599
  769MOL0     C 6034   5.276   1.736   8.776 -0.4991 -0.3503 -1.3610
  769MOL0     N 6035   4.559   1.929   8.594  0.3119 -0.8428  0.5732
  769MOL0     N 6036   4.482   1.923   8.486  0.5908  0.8987 -0.0111
  769MOL0     C 6037   3.357   1.831   8.883  0.0833  0.4857  0.2773
  769MOL0     C 6038   3.300   1.810   9.010  0.0924 -0.7045 -0.2454
  769MOL0     C 6039   3.138   1.930   9.411 -0.2597  0.2301 -0.3079
  769MOL0     C 6040   3.177   1.814   9.488  0.7656 -0.3730 -0.3808
  769MOL0     C 6041   3.112   1.782   9.602  0.1751  0.0768  0.0833
  769MOL0     C 6042   3.001   1.853   9.643 -0.8417  0.3910 -0.1394
  769MOL0     O 6043   2.939   1.810   9.762  0.0484 -0.0594 -0.1073
  769MOL0     C 6044   2.808   1.859   9.799 -0.8424 -0.1214 -0.0972
  769MOL0     C 6045   2.808   1.935   9.925  0.1554 -0.4338 -0.6789
  769MOL0     C 6046   2.909   2.056   9.924  0.0490  0.0459 -0.2733
  769MOL0     C 6047   2.906   2.140  10.048 -0.5375 -0.3917 -0.6366
  769MOL0     C 6048   2.964   2.072  10.157 -0.3852 -0.5888 -0.5069
  769MOL0     C 6049   3.009   1.996  10.244 -0.0072 -0.6437  0.2677
  769MOL0     C 6050   2.955   1.968   9.576 -0.3774 -0.4035  0.2050
  769MOL0     C 6051   3.025   2.007   9.454 -0.2478  0.0472 -0.2939
  769MOL0     C 6052   2.978   2.139   9.387  0.1296 -0.4487  0.9484
  769MOL0     H 6053   3.512   1.991   9.196  1.0625  0.5478 -0.9499
  769MOL0     H 6054   3.623   2.013   8.974  1.0563 -2.3688 -1.7272
  769MOL0     H 6055   3.706   2.028   8.791 -0.9171 -0.7901  1.3943
  769MOL0     H 6056   3.560   2.099   8.712 -0.5624  0.2085  0.6604
  769MOL0     H 6057   3.614   1.975   8.515  0.6018 -1.7244 -0.3507
  769MOL0     H 6058   3.747   2.081   8.558 -1.2859  0.5802  0.6500
  769MOL0     H 6059   3.891   1.913   8.635 -2.8612  3.9641  2.5619
  769MOL0     H 6060   3.776   1.797   8.673 -1.6871  0.4721  0.9296
  769MOL0     H 6061   3.738   1.748   8.432  0.6304 -3.0330  1.5117
  769MOL0     H 6062   3.839   1.883   8.388  0.8487 -2.5443 -1.1689
  769MOL0     H 6063   3.928   1.648   8.380 -1.1754 -1.2360  0.2419
  769MOL0     H 6064   3.937   1.632   8.548  0.0053  0.3136 -0.0433
  769MOL0     H 6065   4.068   1.863   8.385 -0.7854 -1.8804 -0.3259
  769MOL0     H 6066   4.109   1.814   8.555  0.4458 -0.1787 -0.1843
  769MOL0     H 6067   4.165   1.642   8.305 -2.5035  0.6127  0.5450
  769MOL0     H 6068   4.222   1.616   8.473 -4.0129 -0.0060  1.1251
  769MOL0     H 6069   4.394   1.720   8.307  0.3118  0.7824  0.4140
  769MOL0     H 6070   4.288   1.866   8.321  0.5166  0.3196 -0.2226
  769MOL0     H 6071   4.370   1.655   8.625  0.0746 -1.0643 -2.1686
  769MOL0     H 6072   4.641   1.658   8.742 -2.6703 -1.0965 -0.3037
  769MOL0     H 6073   4.572   1.756   8.876  1.2175 -2.0308  0.1724
  769MOL0     H 6074   4.784   1.811   8.679 -2.6650  2.6997 -0.8542
  769MOL0     H 6075   4.747   1.942   8.794 -0.6480 -0.3013  1.9762
  769MOL0     H 6076   4.832   1.798   8.968  0.3669  1.3178 -0.1150
  769MOL0     H 6077   4.843   1.657   8.864 -0.4893  0.0340  1.2867
  769MOL0     H 6078   5.014   1.768   8.725 -0.7741  3.1860 -0.6407
  769MOL0     H 6079   5.021   1.903   8.832 -1.6987  0.4492 -0.9036
  769MOL0     H 6080   5.149   1.479   8.956  1.6753 -0.6593 -0.1980
  769MOL0     H 6081   5.366   1.273   8.763  0.9390  1.0370 -0.7779
  769MOL0     H 6082   5.248   1.287   8.894 -0.7855  0.9834 -2.6795
  769MOL0     H 6083   5.426   1.306   8.931 -1.2195 -0.4486  1.2686
  769MOL0     H 6084   5.809   1.493   8.523  0.4091  0.2220 -0.7985
  769MOL0     H 6085   5.932   1.355   8.369  0.7559 -1.3402  1.4412
  769MOL0     H 6086   5.978   1.329   8.159 -0.4980 -0.3761  1.0143
  769MOL0     H 6087   6.018   1.179   8.247  1.8567  1.1214  0.0746
  769MOL0     H 6088   5.999   1.037   8.059  1.1475 -0.6161 -1.9590
  769MOL0     H 6089   5.933   1.168   7.968 -1.9562  0.8165  2.1302
  769MOL0     H 6090   6.158   1.269   7.969 -1.2089  0.4659  0.5530
  769MOL0     H 6091   6.204   1.095   7.949 -0.7785  0.6425 -0.4570
  769MOL0     H 6092   6.251   1.109   8.211  1.8823 -2.0088 -2.2601
  769MOL0     H 6093   6.227   1.281   8.197 -0.7815  0.2399 -1.2093
  769MOL0     H 6094   6.452   1.210   8.183 -0.7108  1.7242  0.1469
  769MOL0     H 6095   6.431   1.097   8.051  1.7744  0.9714  0.6071
  769MOL0     H 6096   6.370   1.395   8.043 -0.0734 -0.5109  0.5261
  769MOL0     H 6097   6.388   1.305   7.897 -4.3621  0.0926  1.5934
  769MOL0     H 6098   6.633   1.258   7.994  0.2463  0.7310  0.7798
  769MOL0     H 6099   6.596   1.417   8.078 -0.5472 -0.3605  0.5988
  769MOL0     H 6100   6.710   1.465   7.869 -0.1975 -1.4289 -2.0414
  769MOL0     H 6101   6.538   1.524   7.853 -0.7749  0.2353 -1.2196
  769MOL0     H 6102   5.562   1.210   8.207  0.4431 -0.4469 -0.1851
  769MOL0     H 6103   5.435   1.349   8.343  1.2879  1.3116 -0.2279
  769MOL0     H 6104   5.442   1.727   8.640  2.9243 -1.1845 -0.0474
  769MOL0     H 6105   5.252   1.840   8.757 -2.2791 -0.2184  1.0234
  769MOL0     H 6106   3.314   1.779   8.798 -0.3716  0.3864  0.5660
  769MOL0     H 6107   3.217   1.747   9.040  1.0282 -1.0021  1.8670
  769MOL0     H 6108   3.264   1.757   9.458  2.2688  2.2269 -1.2835
  769MOL0     H 6109   3.139   1.696   9.662  3.8624 -1.4811 -3.3191
  769MOL0     H 6110   2.757   1.914   9.719  0.7447  2.3256  0.4778
  769MOL0     H 6111   2.745   1.774   9.829 -0.5933 -1.2480 -2.5301
  769MOL0     H 6112   2.827   1.874  10.014  0.3952  0.3171 -0.2052
  769MOL0     H 6113   2.708   1.978   9.927  0.7373  1.1152  2.5441
  769MOL0     H 6114   3.010   2.018   9.906  0.4697  1.4852 -1.1232
  769MOL0     H 6115   2.883   2.114   9.835  1.2604  0.2058 -0.5391
  769MOL0     H 6116   2.804   2.177  10.064 -0.5601  0.3786 -2.3743
  769MOL0     H 6117   2.965   2.231  10.033  2.6109 -2.2993 -0.5937
  769MOL0     H 6118   3.062   1.932  10.312 -0.3213 -1.1492  0.0405
  769MOL0     H 6119   2.868   2.031   9.591 -0.5436 -0.0679 -1.9339
  769MOL0     H 6120   3.070   2.198   9.382 -0.0869 -0.1583  0.2725
  769MOL0     H 6121   2.931   2.125   9.289 -1.2208  2.5042  1.0550
  769MOL0     H 6122   2.904   2.196   9.444 -1.8475 -3.0520  1.1804
  770MOL0     O 6123   8.706   0.147   1.863  0.2005 -0.6216 -0.4016
  770MOL0     C 6124   8.636   0.240   1.909  0.3207 -0.2899  0.7585
  770MOL0     O 6125   8.686   0.351   1.958 -0.5809 -0.5549 -0.3787
  770MOL0     C 6126   8.816   0.359   1.996  0.1873 -0.3440 -0.5149
  770MOL0     C 6127   8.924   0.338   1.907  0.5554  0.0157  0.2882
  770MOL0     C 6128   9.052   0.321   1.961 -0.1344 -0.1635 -1.3356
  770MOL0     C 6129   9.076   0.323   2.099 -0.3652 -0.0078 -0.1981
  770MOL0     O 6130   9.202   0.318   2.154  0.2027 -0.4000  0.2828
  770MOL0     C 6131   9.312   0.280   2.067 -0.0476 -0.9872 -0.1684
  770MOL0     C 6132   9.429   0.223   2.149  0.2128  0.8767  0.2166
  770MOL0     C 6133   9.547   0.191   2.064  0.1047  0.8772 -0.0970
  770MOL0     C 6134   9.669   0.137   2.142 -0.0299 -0.4971  0.8050
  770MOL0     C 6135   9.778   0.107   2.041 -0.1509 -0.1476  0.5213
  770MOL0     C 6136   9.901   0.032   2.105  0.1860 -0.3986 -0.6786
  770MOL0     C 6137   9.974   0.125   2.200 -0.0614  0.1991  0.2667
  770MOL0     C 6138  10.113   0.070   2.229 -0.0025  0.2358 -0.1658
  770MOL0     N 6139  10.219   0.113   2.137  0.6623 -0.1524 -0.1409
  770MOL0     C 6140  10.235   0.066   2.006 -0.0003  0.9602  0.3194
  770MOL0     C 6141  10.356   0.123   1.975  0.0558 -0.6502  0.2958
  770MOL0     C 6142  10.431   0.108   1.842  0.7215 -0.1153  0.8996
  770MOL0     C 6143  10.462  -0.039   1.809  0.0505  0.5179  0.5524
  770MOL0     C 6144  10.576  -0.083   1.905  0.2305 -0.0676  0.4616
  770MOL0     C 6145  10.530  -0.138   2.036 -0.7620 -0.3256 -0.0505
  770MOL0     O 6146  10.624  -0.246   2.081 -0.1248 -0.3371  0.6653
  770MOL0     C 6147  10.602  -0.312   2.195  0.2398  0.4016  0.0412
  770MOL0     C 6148  10.488  -0.296   2.278 -0.1582 -0.1015  0.1349
  770MOL0     C 6149  10.474  -0.366   2.396 -0.2680 -0.0594 -0.1188
  770MOL0     C 6150  10.355  -0.338   2.480  0.0747  0.3475 -0.1308
  770MOL0     C 6151  10.568  -0.471   2.428 -0.3744  0.2506 -0.0883
  770MOL0     C 6152  10.545  -0.580   2.538 -0.6934  0.0284 -0.3085
  770MOL0     O 6153  10.446  -0.567   2.635 -0.5287 -0.4705  0.2267
  770MOL0     C 6154  10.407  -0.674   2.701  0.8306  0.0660 -0.3057
  770MOL0     C 6155  10.457  -0.698   2.829  0.7679 -0.6532  0.2226
  770MOL0     C 6156  10.416  -0.818   2.893 -0.3024 -0.0688 -0.7206
  770MOL0     C 6157  10.323  -0.908   2.841  0.0609 -0.4301  0.7209
  770MOL0     O 6158  10.281  -1.016   2.922  0.3960 -0.1485  0.2196
  770MOL0     C 6159  10.187  -1.109   2.868 -0.4476 -0.0101  0.1021
  770MOL0     C 6160  10.167  -1.229   2.965  0.3237  0.2615  0.4801
  770MOL0     C 6161  10.287  -1.320   2.983  0.0632  0.1789  0.4883
  770MOL0     C 6162  10.261  -1.445   3.072  0.4959 -0.2119  0.2205
  770MOL0     C 6163  10.372  -1.543   3.039 -0.5437 -0.3026  0.2798
  770MOL0     C 6164  10.499  -1.513   3.115 -0.4538 -0.3331 -0.7472
  770MOL0     C 6165  10.579  -1.648   3.131  0.5849  0.6561 -0.4999
  770MOL0     C 6166  10.639  -1.701   2.994 -0.1973 -0.4034 -0.5335
  770MOL0    Cl 6167  10.562  -1.861   2.970 -0.2755 -0.5340 -0.3824
  770MOL0     C 6168  10.260  -0.873   2.719  0.7495 -0.5925  0.1111
  770MOL0     C 6169  10.309  -0.764   2.646 -1.4459  0.0257 -0.5917
  770MOL0     O 6170  10.614  -0.680   2.535 -0.4738  0.1636  0.4812
  770MOL0     C 6171  10.679  -0.483   2.345 -0.1948  0.9284 -0.4364
  770MOL0     C 6172  10.700  -0.402   2.233 -0.5550  0.4683 -0.3720
  770MOL0     N 6173  10.410   0.196   2.084 -0.8490  0.3510  0.3949
  770MOL0     N 6174  10.324   0.193   2.180 -0.5726 -0.3205  0.0126
  770MOL0     C 6175   8.968   0.355   2.184  0.7175 -0.2428  0.1951
  770MOL0     C 6176   8.843   0.376   2.130  0.3249 -0.0839 -0.2144
  770MOL0     C 6177   8.486   0.220   1.899  0.4294 -0.6417 -0.0486
  770MOL0     C 6178   8.407   0.315   1.973 -0.0524  0.6842  0.6813
  770MOL0     C 6179   8.265   0.313   1.973  0.1673  0.5382 -0.2919
  770MOL0     C 6180   8.202   0.220   1.891  0.8728  0.3460  0.3933
  770MOL0     O 6181   8.072   0.207   1.864 -0.0404 -0.1410 -0.2638
  770MOL0     C 6182   7.982   0.318   1.896  0.0452  0.1538  0.2324
  770MOL0     C 6183   7.845   0.287   1.837  0.9110 -0.7527  1.0191
  770MOL0     C 6184   7.776   0.165   1.909 -0.2221 -0.0168  0.4198
  770MOL0     C 6185   7.647   0.131   1.840 -0.2905  0.1816 -0.0871
  770MOL0     C 6186   7.558   0.242   1.809 -0.6881  0.1627  0.6658
  770MOL0     C 6187   7.486   0.330   1.765 -0.2918  0.3850 -0.2766
  770MOL0     C 6188   8.274   0.130   1.819 -0.5228 -0.0899  0.5640
  770MOL0     C 6189   8.413   0.131   1.813  0.3428  0.2414  0.3123
  770MOL0     C 6190   8.488   0.051   1.714 -0.4945  0.2629 -1.2902
  770MOL0     H 6191   8.903   0.316   1.803  1.7071  0.2220 -0.0020
  770MOL0     H 6192   9.129   0.327   1.885  0.0969  2.8127 -0.9797
  770MOL0     H 6193   9.344   0.369   2.012  4.3194 -1.6510  0.9469
  770MOL0     H 6194   9.279   0.196   2.004 -1.6692  0.1570 -0.9033
  770MOL0     H 6195   9.462   0.298   2.222 -0.5002  0.8721  0.5553
  770MOL0     H 6196   9.395   0.138   2.208  0.5279  0.8630  0.3775
  770MOL0     H 6197   9.523   0.127   1.979 -3.6946  2.6488 -0.5479
  770MOL0     H 6198   9.581   0.286   2.020  1.4880  0.1132 -0.7732
  770MOL0     H 6199   9.713   0.210   2.210  1.6256 -0.0801 -0.6475
  770MOL0     H 6200   9.638   0.041   2.184  1.2583 -0.5966  1.5744
  770MOL0     H 6201   9.805   0.196   1.983 -0.4841 -0.8591 -0.7881
  770MOL0     H 6202   9.736   0.036   1.968  1.6125 -1.9664  1.1984
  770MOL0     H 6203   9.858  -0.045   2.171  0.9977 -2.2759 -2.2283
  770MOL0     H 6204   9.968  -0.003   2.026  0.2286 -1.6950 -0.0995
  770MOL0     H 6205   9.913   0.142   2.289 -0.6991  3.6722 -0.6956
  770MOL0     H 6206   9.990   0.224   2.157  2.1352 -0.3215 -0.2368
  770MOL0     H 6207  10.137   0.109   2.328  1.4548  1.1352 -0.8532
  770MOL0     H 6208  10.114  -0.039   2.230 -1.7571  0.1768 -1.1778
  770MOL0     H 6209  10.175   0.005   1.939  2.6326 -1.4428 -0.0194
  770MOL0     H 6210  10.526   0.161   1.841 -0.1769  1.5940 -0.1206
  770MOL0     H 6211  10.376   0.148   1.756  1.5511 -3.7603 -1.5046
  770MOL0     H 6212  10.370  -0.098   1.819 -0.6230  1.8751  3.5824
  770MOL0     H 6213  10.478  -0.051   1.702 -0.8790  2.8574  0.0800
  770MOL0     H 6214  10.637  -0.158   1.852 -0.6182 -0.3891 -0.0815
  770MOL0     H 6215  10.641   0.001   1.932 -1.3134  1.5563 -0.6929
  770MOL0     H 6216  10.516  -0.058   2.110 -0.7476  0.3624 -0.7859
  770MOL0     H 6217  10.433  -0.182   2.013 -0.2234 -2.9940  2.1791
  770MOL0     H 6218  10.416  -0.218   2.258  0.6333  0.3273 -1.1787
  770MOL0     H 6219  10.379  -0.304   2.581 -1.3732 -2.2184  1.1635
  770MOL0     H 6220  10.290  -0.424   2.497 -1.3507  1.5368  0.6297
  770MOL0     H 6221  10.296  -0.256   2.439 -2.4268 -0.4727  1.5805
  770MOL0     H 6222  10.525  -0.638   2.889  0.8133 -3.0634  2.8003
  770MOL0     H 6223  10.453  -0.835   2.993  1.1104  0.9629 -1.0346
  770MOL0     H 6224  10.090  -1.059   2.868 -0.0916  0.7381 -1.2198
  770MOL0     H 6225  10.204  -1.144   2.766  1.2944  0.8703  0.0512
  770MOL0     H 6226  10.143  -1.182   3.061  2.1634 -0.2745  1.2490
  770MOL0     H 6227  10.082  -1.291   2.934 -0.5882  0.9713  1.4997
  770MOL0     H 6228  10.365  -1.264   3.035 -0.5549  0.4541  1.1353
  770MOL0     H 6229  10.307  -1.351   2.880  1.4007  1.9339  0.1822
  770MOL0     H 6230  10.166  -1.496   3.055  0.8614 -0.2027 -2.2648
  770MOL0     H 6231  10.264  -1.419   3.178  0.7400 -1.1407  0.4431
  770MOL0     H 6232  10.321  -1.636   3.065 -1.9354  0.5668  0.7664
  770MOL0     H 6233  10.375  -1.558   2.931 -1.0601 -1.4800  0.4145
  770MOL0     H 6234  10.471  -1.479   3.216  1.1904 -0.7681 -0.1125
  770MOL0     H 6235  10.545  -1.424   3.072 -1.3539  0.2661 -0.4815
  770MOL0     H 6236  10.507  -1.718   3.174  1.5887  0.0461  0.2347
  770MOL0     H 6237  10.664  -1.627   3.198  0.4648  2.8734 -0.9572
  770MOL0     H 6238  10.747  -1.712   3.010 -0.6739 -0.3475  4.1848
  770MOL0     H 6239  10.622  -1.630   2.912  1.0553  0.2776 -0.2345
  770MOL0     H 6240  10.176  -0.932   2.682 -0.9422  0.3606  2.2178
  770MOL0     H 6241  10.272  -0.746   2.546 -0.2647  2.4678 -0.6667
  770MOL0     H 6242  10.763  -0.550   2.362 -0.4896  0.4858 -0.7059
  770MOL0     H 6243  10.800  -0.391   2.195 -0.9890  3.9303 -0.8982
  770MOL0     H 6244   8.987   0.366   2.290 -1.8054  0.8239  0.6003
  770MOL0     H 6245   8.752   0.401   2.182 -0.8030 -0.0108 -2.1184
  770MOL0     H 6246   8.449   0.400   2.026  1.8904  0.7801 -0.8729
  770MOL0     H 6247   8.205   0.388   2.023 -0.3838  0.5639 -0.9728
  770MOL0     H 6248   7.972   0.345   2.001  0.4059  1.9657 -0.1720
  770MOL0     H 6249   8.022   0.409   1.851 -0.4423 -0.6506 -1.9695
  770MOL0     H 6250   7.858   0.281   1.729 -3.0634 -0.7291  0.3924
  770MOL0     H 6251   7.788   0.379   1.849  1.3351 -0.5235  1.3227
  770MOL0     H 6252   7.842   0.078   1.902  1.0410  0.5643  3.5567
  770MOL0     H 6253   7.757   0.176   2.016 -2.0329 -1.4829  0.3090
  770MOL0     H 6254   7.587   0.061   1.898  1.7408 -2.8077 -1.3430
  770MOL0     H 6255   7.678   0.075   1.751  1.2869 -1.5869  1.4699
  770MOL0     H 6256   7.426   0.402   1.714  0.0888  0.4308 -0.6714
  770MOL0     H 6257   8.220   0.061   1.755 -1.2087  1.2273 -0.3388
  770MOL0     H 6258   8.417  -0.013   1.661  0.0789 -0.6259 -1.0023
  770MOL0     H 6259   8.530   0.114   1.635  1.2972 -0.3929 -0.9162
  770MOL0     H 6260   8.559  -0.024   1.750 -1.5720 -0.4966 -0.6980
  771MOL0     O 6261   8.752   8.533   0.292  0.4461  0.1430 -0.1842
  771MOL0     C 6262   8.850   8.574   0.238 -1.3781  0.0387  0.3280
  771MOL0     O 6263   8.896   8.703   0.237 -1.5617 -0.3081  0.0964
  771MOL0     C 6264   8.865   8.795   0.335  0.1516  0.5665 -0.4114
  771MOL0     C 6265   8.825   8.770   0.463 -0.2332  0.6820  0.0070
  771MOL0     C 6266   8.780   8.870   0.549 -0.2815  0.2100 -0.5497
  771MOL0     C 6267   8.774   9.003   0.505 -0.9372 -0.5195  1.5155
  771MOL0     O 6268   8.725   9.107   0.577  0.1134 -0.6517 -1.0829
  771MOL0     C 6269   8.767   9.110   0.714 -0.3444 -0.4015  0.0963
  771MOL0     C 6270   8.744   9.249   0.768 -0.6152 -0.3112 -0.5095
  771MOL0     C 6271   8.786   9.256   0.914 -0.1801  0.5962  0.0443
  771MOL0     C 6272   8.941   9.242   0.941 -0.3900  0.3675 -0.1410
  771MOL0     C 6273   8.979   9.249   1.095  0.4563 -0.0735  0.0237
  771MOL0     C 6274   8.868   9.191   1.184 -0.4822 -0.0408 -0.0419
  771MOL0     C 6275   8.834   9.047   1.163  0.0851  0.4971  0.3149
  771MOL0     C 6276   8.770   8.979   1.287 -0.2443  0.1653  0.7237
  771MOL0     N 6277   8.753   8.832   1.275 -0.0137 -0.2327  0.2695
  771MOL0     C 6278   8.637   8.775   1.240  0.7478 -0.4151  0.0091
  771MOL0     C 6279   8.662   8.642   1.249  0.8663  0.4484  0.2993
  771MOL0     C 6280   8.567   8.540   1.183 -0.4263  0.5109 -0.8048
  771MOL0     C 6281   8.628   8.401   1.179 -1.3484 -0.0272  0.7198
  771MOL0     C 6282   8.738   8.380   1.075 -0.4196  0.3301 -0.0085
  771MOL0     C 6283   8.828   8.255   1.106 -0.4402 -0.5029  1.3396
  771MOL0     O 6284   8.909   8.218   0.989 -0.6210  0.0759 -0.0751
  771MOL0     C 6285   9.039   8.249   1.009 -0.4611  0.1056  0.1754
  771MOL0     C 6286   9.119   8.182   0.923 -0.7681  1.1405  0.4767
  771MOL0     C 6287   9.263   8.184   0.922  0.0365 -0.4176 -0.1942
  771MOL0     C 6288   9.340   8.108   0.811 -0.7643  0.2179  0.0664
  771MOL0     C 6289   9.321   8.248   1.034 -0.0157 -0.3807 -0.1219
  771MOL0     C 6290   9.470   8.258   1.059  0.6127 -0.4202  0.1865
  771MOL0     O 6291   9.521   8.314   1.175 -0.1010 -0.2053 -0.1933
  771MOL0     C 6292   9.659   8.327   1.196 -0.3048  0.8746  0.2906
  771MOL0     C 6293   9.704   8.318   1.327  0.2946  0.8205  0.0495
  771MOL0     C 6294   9.837   8.351   1.368  0.6103  0.2878  0.3100
  771MOL0     C 6295   9.930   8.390   1.266  0.1408  0.6630  0.4827
  771MOL0     O 6296  10.062   8.417   1.290 -0.4125  0.1075 -0.6442
  771MOL0     C 6297  10.118   8.334   1.397 -0.3796  0.0945 -0.0699
  771MOL0     C 6298  10.269   8.341   1.393  0.3730 -0.8263 -0.3786
  771MOL0     C 6299  10.342   8.208   1.441  0.5058 -0.0540 -0.0076
  771MOL0     C 6300  10.492   8.220   1.423  0.8705 -0.2369  0.0753
  771MOL0     C 6301  10.562   8.124   1.520  1.3620 -0.2534  0.1889
  771MOL0     C 6302  10.698   8.164   1.545  0.4603 -0.3413 -0.5850
  771MOL0     C 6303  10.769   8.070   1.644 -0.5445 -0.3175 -0.6062
  771MOL0     C 6304  10.817   7.929   1.593 -0.3859 -0.9157  0.1069
  771MOL0    Cl 6305  10.952   7.965   1.479 -0.0256 -0.3229  0.4423
  771MOL0     C 6306   9.882   8.394   1.130  0.6624 -0.5142  0.8189
  771MOL0     C 6307   9.745   8.369   1.100  0.2604 -0.1514 -0.8848
  771MOL0     O 6308   9.544   8.219   0.974  0.6814  0.5058 -0.2627
  771MOL0     C 6309   9.239   8.327   1.114  0.8110 -0.0224 -0.6040
  771MOL0     C 6310   9.103   8.331   1.100  0.4022  0.5563  0.5772
  771MOL0     N 6311   8.785   8.614   1.299  0.7817 -0.0076 -0.5237
  771MOL0     N 6312   8.835   8.732   1.325 -0.1772  0.2543  0.2431
  771MOL0     C 6313   8.818   9.034   0.369  1.0103 -0.3519  0.0295
  771MOL0     C 6314   8.870   8.927   0.297 -0.3964 -0.3267 -0.7983
  771MOL0     C 6315   8.943   8.474   0.183 -1.0132  0.0441 -0.3665
  771MOL0     C 6316   9.079   8.513   0.167  0.1311  0.5441 -0.0815
  771MOL0     C 6317   9.168   8.437   0.093 -0.2662  0.3290 -0.9586
  771MOL0     C 6318   9.139   8.300   0.058 -0.4174 -0.3479  1.0331
  771MOL0     O 6319   9.227   8.237  -0.026 -0.1541 -0.3695 -0.0311
  771MOL0     C 6320   9.233   8.090  -0.027  0.3074 -0.5531  0.0937
  771MOL0     C 6321   9.385   8.059  -0.023 -0.0540 -0.1384  0.7279
  771MOL0     C 6322   9.457   8.157  -0.116 -0.2904 -0.0830  0.9209
  771MOL0     C 6323   9.583   8.090  -0.175 -0.0474 -0.3835  0.1087
  771MOL0     C 6324   9.664   8.007  -0.083 -0.3281 -0.1089 -0.1284
  771MOL0     C 6325   9.726   7.937  -0.003 -0.0762  0.1329  0.5651
  771MOL0     C 6326   9.007   8.252   0.078  0.1614 -0.1807  0.8319
  771MOL0     C 6327   8.911   8.342   0.137  0.3586 -0.2586 -0.6260
  771MOL0     C 6328   8.773   8.282   0.147  0.0889 -0.5232 -0.2008
  771MOL0     H 6329   8.830   8.669   0.501  1.7828  0.6010 -0.3767
  771MOL0     H 6330   8.746   8.847   0.650  0.2374  1.2544 -0.1172
  771MOL0     H 6331   8.872   9.081   0.725 -0.5539 -0.3982  2.7724
  771MOL0     H 6332   8.698   9.048   0.773 -1.0657  0.5416  0.2683
  771MOL0     H 6333   8.801   9.323   0.711  1.5658 -0.4604  1.3262
  771MOL0     H 6334   8.639   9.279   0.761 -1.0336 -1.2304  1.1781
  771MOL0     H 6335   8.765   9.353   0.960 -0.5170 -0.6556  2.7587
  771MOL0     H 6336   8.720   9.186   0.965  1.1671 -0.9317 -0.2102
  771MOL0     H 6337   8.974   9.140   0.918 -0.3141  0.2598  0.4284
  771MOL0     H 6338   8.995   9.323   0.890  0.3961 -1.0262 -1.5928
  771MOL0     H 6339   8.989   9.352   1.130 -1.2516 -0.5616  2.1804
  771MOL0     H 6340   9.074   9.202   1.121 -0.9696 -1.4217  3.4605
  771MOL0     H 6341   8.908   9.191   1.286  1.4610 -3.0425 -0.6931
  771MOL0     H 6342   8.778   9.254   1.182  1.4032  3.0181  2.0944
  771MOL0     H 6343   8.934   9.004   1.149  0.1139  0.4152  0.7569
  771MOL0     H 6344   8.781   9.028   1.069  4.4809  0.9701 -2.5581
  771MOL0     H 6345   8.831   8.994   1.376 -1.5125  0.9530  1.4959
  771MOL0     H 6346   8.678   9.034   1.308  2.0613  4.0730  1.5440
  771MOL0     H 6347   8.546   8.829   1.213  0.4061 -1.4741 -1.0321
  771MOL0     H 6348   8.542   8.571   1.081  0.8710  1.2780 -0.9083
  771MOL0     H 6349   8.480   8.533   1.249  1.1452 -1.3066  1.2157
  771MOL0     H 6350   8.664   8.370   1.277  2.0015  2.9863  0.6383
  771MOL0     H 6351   8.559   8.322   1.148  1.7694 -2.6547 -0.1170
  771MOL0     H 6352   8.686   8.390   0.979 -1.1171  0.1954  0.3502
  771MOL0     H 6353   8.798   8.471   1.073 -2.6952  1.9864  1.3888
  771MOL0     H 6354   8.885   8.270   1.197  2.0394  0.1056 -0.2144
  771MOL0     H 6355   8.767   8.166   1.125  0.2701 -0.9996  1.3197
  771MOL0     H 6356   9.068   8.129   0.843 -0.4551 -1.2379  1.7657
  771MOL0     H 6357   9.278   8.048   0.745  1.1165  1.6274 -3.2035
  771MOL0     H 6358   9.404   8.035   0.860 -0.6860  0.3102  0.1024
  771MOL0     H 6359   9.404   8.175   0.753  1.0246 -2.5761 -1.4028
  771MOL0     H 6360   9.637   8.285   1.406  1.3326 -1.0534  0.2091
  771MOL0     H 6361   9.866   8.343   1.472  1.5295 -3.5880 -0.1051
  771MOL0     H 6362  10.087   8.360   1.498  1.2712 -1.0526  0.7857
  771MOL0     H 6363  10.079   8.235   1.372 -0.9524  0.7167 -1.8257
  771MOL0     H 6364  10.297   8.360   1.289  2.4544 -1.3651  0.0450
  771MOL0     H 6365  10.300   8.426   1.456 -3.4370  0.6612 -0.2636
  771MOL0     H 6366  10.294   8.127   1.386 -1.8474  2.4999 -1.9394
  771MOL0     H 6367  10.311   8.184   1.543 -1.0501 -1.6760 -0.8134
  771MOL0     H 6368  10.528   8.321   1.444  0.0505 -0.5911  3.8978
  771MOL0     H 6369  10.518   8.187   1.322  0.5092  2.1153 -0.8379
  771MOL0     H 6370  10.512   8.114   1.616  0.9943  0.9962  0.1410
  771MOL0     H 6371  10.559   8.022   1.480  1.2026 -1.4334  2.9889
  771MOL0     H 6372  10.695   8.258   1.601 -1.0690 -1.1334  0.7500
  771MOL0     H 6373  10.759   8.175   1.455  0.1466 -1.1112 -0.8954
  771MOL0     H 6374  10.702   8.049   1.728  0.1455  0.2213  0.0883
  771MOL0     H 6375  10.861   8.118   1.678  1.1309 -3.0488 -0.9624
  771MOL0     H 6376  10.745   7.874   1.532 -1.4474 -1.2306  1.5871
  771MOL0     H 6377  10.847   7.858   1.671  0.3379  0.1535  0.8394
  771MOL0     H 6378   9.940   8.435   1.048 -1.9786  2.8982  0.3949
  771MOL0     H 6379   9.712   8.392   0.999 -0.5165  1.3213 -0.3307
  771MOL0     H 6380   9.287   8.376   1.197 -2.0932  1.6842  0.1907
  771MOL0     H 6381   9.039   8.387   1.168 -1.8283 -3.2022  1.8893
  771MOL0     H 6382   8.810   9.131   0.321  0.4922 -1.1455 -1.5473
  771MOL0     H 6383   8.902   8.948   0.195  0.2509  1.5996 -0.2457
  771MOL0     H 6384   9.104   8.614   0.198  1.2513  0.0638  0.6242
  771MOL0     H 6385   9.271   8.467   0.075  0.2042 -1.4771 -1.4408
  771MOL0     H 6386   9.183   8.039   0.056 -0.8324 -0.8671 -0.7756
  771MOL0     H 6387   9.182   8.056  -0.117 -2.0321  0.3221  1.0262
  771MOL0     H 6388   9.396   7.967  -0.081 -1.4657 -0.4293  0.8892
  771MOL0     H 6389   9.429   8.066   0.076 -0.2227  0.0634  0.7870
  771MOL0     H 6390   9.400   8.199  -0.200  1.2676  1.1320  0.4371
  771MOL0     H 6391   9.493   8.237  -0.051  0.6554  0.3402 -0.1073
  771MOL0     H 6392   9.649   8.173  -0.203  0.0931 -0.7455 -0.6601
  771MOL0     H 6393   9.565   8.041  -0.271  1.9748 -0.8417 -0.0673
  771MOL0     H 6394   9.759   7.875   0.078 -0.5969  1.1212  1.5619
  771MOL0     H 6395   8.975   8.152   0.049 -0.2710 -0.7104  2.9945
  771MOL0     H 6396   8.755   8.190   0.091  0.8617 -0.5782 -0.3654
  771MOL0     H 6397   8.764   8.248   0.251 -0.0893 -1.7219 -0.5939
  771MOL0     H 6398   8.691   8.354   0.137 -0.8406 -1.0444  2.7408
  772MOL0     O 6399   8.758   8.648   1.923  0.7403  1.0322  0.2313
  772MOL0     C 6400   8.834   8.547   1.904  0.8099  0.4919  1.3194
  772MOL0     O 6401   8.952   8.552   1.843 -0.6545  0.7173  0.3057
  772MOL0     C 6402   8.990   8.661   1.767  0.0211  0.3654 -0.4166
  772MOL0     C 6403   8.897   8.737   1.697  0.1532 -0.2124  0.2380
  772MOL0     C 6404   8.941   8.848   1.631  0.2653  0.7607 -0.1486
  772MOL0     C 6405   9.077   8.890   1.631 -0.0134 -1.1497  0.3856
  772MOL0     O 6406   9.094   8.993   1.543 -0.6031 -0.0673 -0.2143
  772MOL0     C 6407   9.230   9.015   1.500  0.2282  0.0922 -0.0272
  772MOL0     C 6408   9.277   9.126   1.592 -0.1008  0.0554 -0.2455
  772MOL0     C 6409   9.416   9.082   1.642 -0.0103  0.2372  0.1209
  772MOL0     C 6410   9.523   9.105   1.530  0.2728 -0.1127  0.8285
  772MOL0     C 6411   9.653   9.162   1.587  0.2077 -0.0863  0.0364
  772MOL0     C 6412   9.766   9.204   1.491 -0.1275 -0.0413  0.1181
  772MOL0     C 6413   9.870   9.284   1.580  0.5778  0.3637 -0.3994
  772MOL0     C 6414   9.984   9.336   1.493 -0.6995 -0.3300 -0.3845
  772MOL0     N 6415  10.064   9.440   1.568 -0.3263  0.1165  0.1444
  772MOL0     C 6416  10.140   9.536   1.513  0.2763 -1.1264  0.2712
  772MOL0     C 6417  10.221   9.583   1.614  0.3492  0.1266  0.4870
  772MOL0     C 6418  10.316   9.693   1.591  0.5553 -0.3696 -0.2513
  772MOL0     C 6419  10.441   9.626   1.541 -1.1942  0.6494  0.6142
  772MOL0     C 6420  10.560   9.725   1.505  0.6413  1.1493  0.1585
  772MOL0     C 6421  10.652   9.765   1.618 -0.7401  0.1114 -0.8771
  772MOL0     O 6422  10.752   9.846   1.540  0.3058  0.2460 -0.0483
  772MOL0     C 6423  10.874   9.884   1.594 -0.9367 -0.6493  0.3010
  772MOL0     C 6424  10.897   9.871   1.733 -0.0266 -1.0646  0.2232
  772MOL0     C 6425  11.017   9.916   1.795 -0.5069 -0.0630 -0.5743
  772MOL0     C 6426  11.024   9.896   1.948 -0.1199  0.2069 -0.3745
  772MOL0     C 6427  11.123   9.962   1.703  0.2277  0.0322 -0.6282
  772MOL0     C 6428  11.263   9.990   1.749 -1.3692 -0.0437  0.2441
  772MOL0     O 6429  11.345  10.037   1.650 -0.3605  0.2317 -0.1012
  772MOL0     C 6430  11.483  10.058   1.666  0.3471 -0.0534 -0.5014
  772MOL0     C 6431  11.576   9.960   1.627 -0.2325  0.5614 -0.8213
  772MOL0     C 6432  11.710   9.982   1.655  0.1214  0.1594 -1.1663
  772MOL0     C 6433  11.756  10.095   1.718 -0.0608 -1.0707 -0.7134
  772MOL0     O 6434  11.884  10.121   1.764 -0.2093  0.5995  0.5344
  772MOL0     C 6435  11.984  10.014   1.742 -0.2463 -0.3399 -0.2775
  772MOL0     C 6436  12.096  10.051   1.829 -0.6422  0.8535  0.1441
  772MOL0     C 6437  12.232   9.966   1.802  1.2701 -0.2948 -0.4816
  772MOL0     C 6438  12.329   9.995   1.906 -0.4428  0.0576  0.7324
  772MOL0     C 6439  12.460   9.941   1.862  0.1548  0.3797  0.6384
  772MOL0     C 6440  12.568   9.989   1.961  0.0994  0.0040 -0.0040
  772MOL0     C 6441  12.682   9.894   1.971  0.2524  0.8999 -0.7146
  772MOL0     C 6442  12.809   9.968   2.007 -0.8466 -0.2405 -0.1747
  772MOL0    Cl 6443  12.935   9.844   2.045 -0.1397  0.0392  0.1832
  772MOL0     C 6444  11.665  10.203   1.733  1.2819  0.3920 -0.2700
  772MOL0     C 6445  11.525  10.181   1.718 -0.1825 -0.0041  0.7937
  772MOL0     O 6446  11.293   9.974   1.867  0.3245  0.2808 -0.1761
  772MOL0     C 6447  11.093   9.978   1.566 -1.0240  0.7047  1.0379
  772MOL0     C 6448  10.973   9.944   1.511  0.4046  1.2673  0.3479
  772MOL0     N 6449  10.197   9.505   1.724 -0.3973  0.8260  0.2820
  772MOL0     N 6450  10.106   9.424   1.688  0.5088  0.4300  0.0927
  772MOL0     C 6451   9.164   8.803   1.698 -0.3074  0.2185  0.3655
  772MOL0     C 6452   9.123   8.681   1.753 -0.1057  0.6381  0.3617
  772MOL0     C 6453   8.790   8.410   1.946 -0.0259 -0.6178  0.1775
  772MOL0     C 6454   8.893   8.311   1.961 -0.0590 -0.0357  1.1959
  772MOL0     C 6455   8.861   8.182   1.995  0.1242 -0.8561 -0.1675
  772MOL0     C 6456   8.732   8.141   2.028 -0.2183  0.5806 -0.6239
  772MOL0     O 6457   8.714   8.009   2.061 -0.9102 -0.3481 -0.1422
  772MOL0     C 6458   8.581   7.950   2.084 -0.2937 -0.8316 -0.6201
  772MOL0     C 6459   8.594   7.807   2.155  0.9532 -0.1959  0.1657
  772MOL0     C 6460   8.461   7.768   2.233 -0.0160 -1.0006  0.2535
  772MOL0     C 6461   8.474   7.635   2.303  0.2631  0.2132  0.0527
  772MOL0     C 6462   8.355   7.566   2.298 -0.6935  0.1875 -0.4709
  772MOL0     C 6463   8.253   7.502   2.284 -1.0508 -0.1918  0.3868
  772MOL0     C 6464   8.633   8.237   2.022  0.8032  0.5387  0.3099
  772MOL0     C 6465   8.656   8.369   1.980 -0.3201  0.1163 -0.0736
  772MOL0     C 6466   8.548   8.462   1.957  0.2027  0.4561 -0.6565
  772MOL0     H 6467   8.790   8.716   1.693 -0.3704  2.3553 -2.4695
  772MOL0     H 6468   8.864   8.910   1.588 -1.1891 -1.6423 -1.2413
  772MOL0     H 6469   9.236   9.050   1.397  1.5791 -0.4874 -0.1664
  772MOL0     H 6470   9.287   8.921   1.503  1.8170  1.0169 -0.2742
  772MOL0     H 6471   9.288   9.222   1.542 -0.8501  0.3230  0.0876
  772MOL0     H 6472   9.213   9.147   1.678  0.3308 -0.6438  0.2580
  772MOL0     H 6473   9.446   9.144   1.727  3.4459 -1.9082  0.6691
  772MOL0     H 6474   9.410   8.978   1.678  1.3837 -0.5669 -1.8259
  772MOL0     H 6475   9.534   9.011   1.475 -2.2661 -2.1495  3.4723
  772MOL0     H 6476   9.486   9.177   1.457 -1.1574 -2.3822 -0.8275
  772MOL0     H 6477   9.685   9.080   1.652 -1.3015 -1.2066 -0.5909
  772MOL0     H 6478   9.614   9.245   1.649 -0.4978  0.7875 -1.5211
  772MOL0     H 6479   9.813   9.120   1.439 -0.4541  0.8110 -1.6235
  772MOL0     H 6480   9.710   9.273   1.428 -0.1360  1.3321  1.5725
  772MOL0     H 6481   9.908   9.224   1.663  2.5894 -1.3689 -2.4400
  772MOL0     H 6482   9.820   9.376   1.612  0.9427  0.3528  0.2109
  772MOL0     H 6483  10.051   9.254   1.466  1.1410  1.2537 -0.8614
  772MOL0     H 6484   9.944   9.382   1.402  0.2679  1.2984 -0.0129
  772MOL0     H 6485  10.147   9.573   1.412 -0.6863  0.0622  0.6156
  772MOL0     H 6486  10.344   9.727   1.691  0.8910 -0.4567 -0.3152
  772MOL0     H 6487  10.287   9.774   1.523  1.7898  0.4199  0.1385
  772MOL0     H 6488  10.479   9.538   1.594  1.3013  0.9273 -0.5605
  772MOL0     H 6489  10.416   9.581   1.445  0.7256  1.8858 -0.5443
  772MOL0     H 6490  10.619   9.671   1.430 -2.9279 -1.4971 -1.0321
  772MOL0     H 6491  10.514   9.817   1.469  1.4876  1.3741 -0.3803
  772MOL0     H 6492  10.608   9.824   1.698  1.7865 -0.4496  1.0746
  772MOL0     H 6493  10.707   9.680   1.659  0.9676  2.5910  2.4609
  772MOL0     H 6494  10.816   9.836   1.797  0.1975  0.8664  1.6459
  772MOL0     H 6495  11.040   9.791   1.971 -0.3693  0.0835 -0.7477
  772MOL0     H 6496  10.923   9.925   1.981  0.0511  1.4092 -0.8670
  772MOL0     H 6497  11.090   9.963   2.005 -0.6621  1.1483 -0.8225
  772MOL0     H 6498  11.546   9.870   1.574  0.7118 -0.1277 -0.2143
  772MOL0     H 6499  11.774   9.898   1.630 -0.0746 -0.3082 -0.1673
  772MOL0     H 6500  11.953   9.911   1.762 -0.6514 -0.3581 -0.9501
  772MOL0     H 6501  12.020  10.019   1.639 -0.3099 -0.3735 -0.3012
  772MOL0     H 6502  12.106  10.157   1.803 -0.4831  0.3275 -2.2072
  772MOL0     H 6503  12.065  10.026   1.931 -0.1533 -1.7049 -0.2599
  772MOL0     H 6504  12.263   9.999   1.703  1.5908 -2.0209 -0.9820
  772MOL0     H 6505  12.220   9.857   1.806  0.8653 -0.2246  1.8360
  772MOL0     H 6506  12.294   9.948   1.998 -0.4451 -0.4349  0.4847
  772MOL0     H 6507  12.324  10.103   1.923 -1.0248  0.4699 -1.7336
  772MOL0     H 6508  12.454   9.832   1.854  0.9441  0.3144  0.8513
  772MOL0     H 6509  12.498   9.968   1.763  1.3899  2.5331  1.6313
  772MOL0     H 6510  12.529  10.019   2.059 -3.1464 -1.4733 -0.7181
  772MOL0     H 6511  12.613  10.079   1.919 -1.4826 -0.4454 -2.9042
  772MOL0     H 6512  12.695   9.843   1.875 -2.5973  0.5085 -0.9680
  772MOL0     H 6513  12.674   9.816   2.047 -0.2240  1.9959  0.4027
  772MOL0     H 6514  12.795  10.029   2.097  0.6238  0.3180 -0.2839
  772MOL0     H 6515  12.839  10.033   1.925 -1.1916 -0.8093 -0.7613
  772MOL0     H 6516  11.693  10.303   1.763 -0.6003  0.6790  0.7068
  772MOL0     H 6517  11.455  10.260   1.744 -2.8742 -2.1540  0.6191
  772MOL0     H 6518  11.175  10.012   1.504 -0.8944 -1.0261  0.1735
  772MOL0     H 6519  10.947   9.956   1.406 -1.0009  0.3129  0.5649
  772MOL0     H 6520   9.271   8.812   1.708 -0.2495  1.8019 -1.2657
  772MOL0     H 6521   9.188   8.604   1.792  0.0767  1.6848  2.2006
  772MOL0     H 6522   8.995   8.330   1.931 -0.1987 -1.9997 -0.8564
  772MOL0     H 6523   8.938   8.105   1.993  1.4860  0.3444  1.8235
  772MOL0     H 6524   8.513   8.006   2.149 -0.2282 -2.7093  1.1429
  772MOL0     H 6525   8.534   7.928   1.988  2.4870 -1.6584 -1.8866
  772MOL0     H 6526   8.675   7.818   2.227 -1.1430  1.1777  2.4542
  772MOL0     H 6527   8.617   7.725   2.086 -1.5152 -0.3870 -0.5403
  772MOL0     H 6528   8.429   7.840   2.309 -4.0020  1.0706 -2.9518
  772MOL0     H 6529   8.388   7.768   2.151  1.6591 -2.6297 -1.3116
  772MOL0     H 6530   8.515   7.652   2.403 -0.7863  2.3654  0.1936
  772MOL0     H 6531   8.544   7.573   2.247  1.2873 -0.1233  1.6339
  772MOL0     H 6532   8.166   7.446   2.257 -0.4392 -0.7251 -0.5316
  772MOL0     H 6533   8.530   8.204   2.034  0.5582  1.2377  0.1431
  772MOL0     H 6534   8.546   8.531   2.042 -2.9237  0.4656 -0.6286
  772MOL0     H 6535   8.568   8.513   1.862  0.2292 -0.8653 -1.3799
  772MOL0     H 6536   8.451   8.413   1.951 -1.6103  1.7709  7.1486
  773MOL0     O 6537   2.708   0.216   6.495 -0.5756  0.1016 -0.1675
  773MOL0     C 6538   2.720   0.103   6.546  0.3934 -0.1763  0.4325
  773MOL0     O 6539   2.836   0.020   6.549 -0.5448 -0.3751  0.5805
  773MOL0     C 6540   2.949   0.067   6.487  0.7634 -0.5759  0.1978
  773MOL0     C 6541   2.949   0.107   6.346  0.4495 -0.1267 -0.2951
  773MOL0     C 6542   3.067   0.154   6.289 -0.0989  0.5607 -0.6378
  773MOL0     C 6543   3.189   0.160   6.365 -0.9335  0.1150 -0.0383
  773MOL0     O 6544   3.297   0.208   6.291 -0.1670 -0.7903  0.1563
  773MOL0     C 6545   3.429   0.219   6.347 -0.0013  0.1436 -0.1291
  773MOL0     C 6546   3.498   0.082   6.351  0.3926  0.1344 -0.0738
  773MOL0     C 6547   3.635   0.103   6.407  0.7669 -0.3138 -0.1342
  773MOL0     C 6548   3.717  -0.025   6.391  0.0262 -0.2974  0.4807
  773MOL0     C 6549   3.816  -0.059   6.495  0.5745  0.0719 -0.0923
  773MOL0     C 6550   3.929  -0.141   6.433 -0.3170  0.0191 -0.2786
  773MOL0     C 6551   4.053  -0.057   6.417  0.0063 -0.0603 -0.5336
  773MOL0     C 6552   4.166  -0.129   6.339  0.3900  0.7685  0.0180
  773MOL0     N 6553   4.223  -0.248   6.408  0.3514 -0.5226 -0.2576
  773MOL0     C 6554   4.284  -0.237   6.534  0.7531 -0.1173  0.1878
  773MOL0     C 6555   4.317  -0.366   6.567 -0.5108 -0.4751  0.3566
  773MOL0     C 6556   4.406  -0.402   6.680  0.0038 -0.0104  0.0806
  773MOL0     C 6557   4.550  -0.423   6.645  0.2603  0.5542 -0.1966
  773MOL0     C 6558   4.634  -0.296   6.612 -0.6005 -0.3246  0.1225
  773MOL0     C 6559   4.780  -0.336   6.596 -0.2872  0.5355 -0.4448
  773MOL0     O 6560   4.836  -0.373   6.725  0.4830  0.5565 -0.3132
  773MOL0     C 6561   4.970  -0.380   6.726 -1.0156  0.0545  0.8039
  773MOL0     C 6562   5.058  -0.346   6.618 -0.5348  0.2046  0.0117
  773MOL0     C 6563   5.199  -0.343   6.644 -0.5330 -0.0780 -0.2033
  773MOL0     C 6564   5.296  -0.307   6.530 -0.3579  0.6954  0.6973
  773MOL0     C 6565   5.258  -0.383   6.770 -0.4895  0.2686 -0.2348
  773MOL0     C 6566   5.408  -0.397   6.806  0.9886  0.1328 -0.1443
  773MOL0     O 6567   5.499  -0.370   6.711 -0.1218  0.0765 -0.3009
  773MOL0     C 6568   5.636  -0.385   6.728 -0.2316  1.0901 -0.5472
  773MOL0     C 6569   5.715  -0.339   6.628  0.1410  0.6516 -0.9922
  773MOL0     C 6570   5.852  -0.361   6.632 -0.9183  0.5201  0.1745
  773MOL0     C 6571   5.907  -0.420   6.749  0.6312 -0.9037 -0.2067
  773MOL0     O 6572   6.045  -0.428   6.757 -0.0839  0.0514 -0.2187
  773MOL0     C 6573   6.101  -0.507   6.868  0.0013 -0.1601 -0.0386
  773MOL0     C 6574   6.253  -0.522   6.842 -0.6810  0.0723  0.5370
  773MOL0     C 6575   6.317  -0.617   6.952 -0.1346  0.1040 -0.6328
  773MOL0     C 6576   6.470  -0.628   6.947 -0.5013 -0.0472 -0.6055
  773MOL0     C 6577   6.538  -0.731   7.040 -0.3675  0.6376 -0.0750
  773MOL0     C 6578   6.649  -0.801   6.978  0.1940 -0.4656 -0.7221
  773MOL0     C 6579   6.767  -0.710   6.945 -0.1335  0.2362 -0.5177
  773MOL0     C 6580   6.891  -0.783   6.899 -0.9881 -0.1216  0.7727
  773MOL0    Cl 6581   6.931  -0.920   7.001 -0.3144  0.1153  0.2244
  773MOL0     C 6582   5.826  -0.474   6.848  0.0295  1.0087  0.1031
  773MOL0     C 6583   5.688  -0.461   6.839  0.4511 -0.1090  0.4571
  773MOL0     O 6584   5.423  -0.405   6.930  0.2848 -0.7558 -0.1555
  773MOL0     C 6585   5.165  -0.424   6.865 -0.0000 -1.1811 -0.6501
  773MOL0     C 6586   5.023  -0.428   6.845 -0.1039 -0.7777  0.2911
  773MOL0     N 6587   4.295  -0.441   6.455 -0.3957 -0.5402 -0.3893
  773MOL0     N 6588   4.245  -0.374   6.360 -0.0001 -0.3612 -0.0548
  773MOL0     C 6589   3.189   0.113   6.504  0.0075  0.2749  0.5395
  773MOL0     C 6590   3.072   0.073   6.559  0.5488  0.7769 -0.0295
  773MOL0     C 6591   2.600   0.053   6.616 -0.3206  0.4699 -0.3486
  773MOL0     C 6592   2.553  -0.078   6.587  0.2474  0.0842  0.2442
  773MOL0     C 6593   2.435  -0.126   6.651  0.0322  0.5734 -0.4739
  773MOL0     C 6594   2.374  -0.042   6.748 -0.0236  0.4518  0.3200
  773MOL0     O 6595   2.261  -0.074   6.815  0.0772  0.8595 -0.0762
  773MOL0     C 6596   2.168  -0.165   6.747 -1.1677 -0.6660 -0.1940
  773MOL0     C 6597   2.030  -0.159   6.811 -0.1827 -0.1285  0.1323
  773MOL0     C 6598   1.985  -0.018   6.833  1.2925  0.6561  0.0591
  773MOL0     C 6599   1.843  -0.002   6.887  0.5056  0.3409 -0.4071
  773MOL0     C 6600   1.829  -0.057   7.021  0.3945 -0.7093  1.3730
  773MOL0     C 6601   1.813  -0.122   7.123 -0.2523  0.0183 -0.3271
  773MOL0     C 6602   2.418   0.082   6.772  0.1398 -0.3298  0.4064
  773MOL0     C 6603   2.525   0.138   6.698 -0.5542  0.0122  1.1552
  773MOL0     C 6604   2.578   0.273   6.740 -0.5283  0.3028 -0.9396
  773MOL0     H 6605   2.864   0.088   6.281 -1.7077  1.8393  1.7659
  773MOL0     H 6606   3.067   0.185   6.185 -1.3975  0.8228 -0.5719
  773MOL0     H 6607   3.421   0.260   6.448  0.5496 -1.0559  0.4271
  773MOL0     H 6608   3.495   0.286   6.291 -0.0570 -1.5272 -2.3345
  773MOL0     H 6609   3.439   0.011   6.409 -1.8071  0.7036 -1.4874
  773MOL0     H 6610   3.500   0.054   6.246  0.3642 -0.0548 -0.0234
  773MOL0     H 6611   3.683   0.185   6.352 -0.4799  1.9008  1.9289
  773MOL0     H 6612   3.623   0.126   6.513 -0.0153  0.7766 -0.4412
  773MOL0     H 6613   3.653  -0.113   6.384  0.4473 -0.4817 -2.8465
  773MOL0     H 6614   3.764  -0.024   6.293 -2.3601  1.9370 -0.7806
  773MOL0     H 6615   3.770  -0.106   6.582 -2.5663  1.4922 -0.8527
  773MOL0     H 6616   3.859   0.029   6.544 -0.6222  0.7897 -0.3007
  773MOL0     H 6617   3.952  -0.217   6.509  0.6414 -1.0713 -1.6108
  773MOL0     H 6618   3.922  -0.196   6.339  0.7178 -2.2296  0.8694
  773MOL0     H 6619   4.094  -0.029   6.515 -0.4371  0.2334 -0.4297
  773MOL0     H 6620   4.020   0.037   6.371 -2.1618 -0.1742  0.6504
  773MOL0     H 6621   4.144  -0.157   6.236  1.1505 -0.3065  0.1333
  773MOL0     H 6622   4.243  -0.053   6.327 -1.4472  2.7849  0.3583
  773MOL0     H 6623   4.312  -0.152   6.595  2.5257  0.4740 -1.3596
  773MOL0     H 6624   4.372  -0.498   6.720  0.2684 -0.4597 -0.7653
  773MOL0     H 6625   4.397  -0.332   6.764 -1.4761 -1.2558  1.0229
  773MOL0     H 6626   4.592  -0.452   6.742 -2.5320  1.9402  1.5495
  773MOL0     H 6627   4.557  -0.503   6.572 -1.2440 -2.5304  2.7615
  773MOL0     H 6628   4.596  -0.245   6.523  1.3609  0.4653 -0.3221
  773MOL0     H 6629   4.640  -0.227   6.696  2.6345 -0.8593  0.4494
  773MOL0     H 6630   4.800  -0.406   6.514  1.8078 -0.0850  0.5191
  773MOL0     H 6631   4.828  -0.243   6.565 -1.0111  0.3364 -2.2963
  773MOL0     H 6632   5.020  -0.312   6.523 -0.3872  0.5049  0.0595
  773MOL0     H 6633   5.365  -0.386   6.499 -1.5166  0.4948 -1.5674
  773MOL0     H 6634   5.355  -0.220   6.561 -1.8720  2.1534 -0.3419
  773MOL0     H 6635   5.228  -0.279   6.449  1.1691  0.8506 -0.5980
  773MOL0     H 6636   5.672  -0.286   6.544  1.2785 -0.4427 -2.2918
  773MOL0     H 6637   5.920  -0.324   6.556 -2.0088  0.9600 -0.6124
  773MOL0     H 6638   6.081  -0.461   6.965  1.5304 -0.3175  0.3755
  773MOL0     H 6639   6.051  -0.605   6.875 -1.6553  0.7656  2.5105
  773MOL0     H 6640   6.261  -0.571   6.744 -4.1458  0.8582 -0.2651
  773MOL0     H 6641   6.317  -0.435   6.830 -0.0939 -0.6089 -1.8491
  773MOL0     H 6642   6.282  -0.720   6.939 -0.0463 -0.4158  2.4633
  773MOL0     H 6643   6.294  -0.588   7.055 -0.2870 -1.5661 -0.1652
  773MOL0     H 6644   6.512  -0.534   6.983  1.6167 -0.6798 -1.2586
  773MOL0     H 6645   6.507  -0.642   6.845  0.9933 -0.8751  0.0140
  773MOL0     H 6646   6.578  -0.690   7.133 -3.4133  0.1871  1.5522
  773MOL0     H 6647   6.457  -0.797   7.071 -2.0745  3.3453  1.6157
  773MOL0     H 6648   6.613  -0.846   6.886 -2.7666  0.4411 -0.1175
  773MOL0     H 6649   6.673  -0.879   7.051 -0.6590 -1.8256 -1.8634
  773MOL0     H 6650   6.798  -0.671   7.042 -1.4873  0.9411 -0.3499
  773MOL0     H 6651   6.738  -0.626   6.881 -2.1214 -0.7583 -1.0180
  773MOL0     H 6652   6.978  -0.717   6.890 -1.7375  1.0907  2.0632
  773MOL0     H 6653   6.864  -0.836   6.807 -3.3177 -0.8408  1.7857
  773MOL0     H 6654   5.862  -0.527   6.935 -1.5253  0.0535  0.1936
  773MOL0     H 6655   5.629  -0.520   6.910  1.2199 -3.3206 -1.3728
  773MOL0     H 6656   5.207  -0.470   6.955  2.3015 -1.0451 -1.5852
  773MOL0     H 6657   4.964  -0.444   6.935 -0.3959  3.2264  1.0021
  773MOL0     H 6658   3.279   0.110   6.565 -0.0992  1.4606  0.7810
  773MOL0     H 6659   3.060   0.046   6.663 -1.2660 -1.2570 -0.6857
  773MOL0     H 6660   2.618  -0.131   6.519 -0.5962 -0.5321 -0.1052
  773MOL0     H 6661   2.396  -0.225   6.630  0.8230  0.2276 -0.3602
  773MOL0     H 6662   2.151  -0.137   6.643 -1.8854 -1.9069 -0.4364
  773MOL0     H 6663   2.209  -0.265   6.769  2.5028  0.8519  0.5676
  773MOL0     H 6664   2.037  -0.206   6.910  2.8387 -0.0050  0.0729
  773MOL0     H 6665   1.962  -0.206   6.740 -0.7800  2.2997 -0.9825
  773MOL0     H 6666   2.050   0.024   6.910  2.0003 -0.8064  0.2854
  773MOL0     H 6667   2.012   0.044   6.747  5.2275 -1.2048 -0.2276
  773MOL0     H 6668   1.772  -0.042   6.814 -1.6945  3.4985 -0.2321
  773MOL0     H 6669   1.834   0.107   6.893  0.8691  0.3326  0.5726
  773MOL0     H 6670   1.812  -0.193   7.204 -1.2097  0.1727 -0.1986
  773MOL0     H 6671   2.363   0.147   6.840 -0.4806 -1.2950  0.8535
  773MOL0     H 6672   2.563   0.274   6.848  2.2153 -3.3742 -0.3527
  773MOL0     H 6673   2.687   0.282   6.733 -0.0904 -2.4810  0.7266
  773MOL0     H 6674   2.522   0.359   6.702 -1.3026  0.1718 -0.1326
  774MOL0     O 6675   7.584   6.252   1.696 -0.2510 -0.0522  0.3007
  774MOL0     C 6676   7.636   6.268   1.805  0.3204  0.6468  0.2903
  774MOL0     O 6677   7.764   6.303   1.823  0.2193  0.0538  0.3354
  774MOL0     C 6678   7.854   6.250   1.733 -0.5758  0.1084  0.5584
  774MOL0     C 6679   7.844   6.114   1.678 -0.6201 -0.4624 -0.5093
  774MOL0     C 6680   7.942   6.058   1.587 -0.6438  0.3468 -0.1972
  774MOL0     C 6681   8.043   6.137   1.548  0.0701 -0.4776  1.2706
  774MOL0     O 6682   8.145   6.094   1.468  0.0969  0.4717  0.2364
  774MOL0     C 6683   8.149   5.953   1.430 -0.7336 -0.2950  0.0712
  774MOL0     C 6684   8.274   5.938   1.346  0.6391  0.2955 -0.0395
  774MOL0     C 6685   8.278   5.797   1.272  0.4617 -0.0248  0.3721
  774MOL0     C 6686   8.403   5.785   1.189  0.3885  0.6348  0.5791
  774MOL0     C 6687   8.388   5.661   1.094  0.1289  0.7460  0.3275
  774MOL0     C 6688   8.518   5.628   1.020 -0.8813 -0.1346  0.4319
  774MOL0     C 6689   8.631   5.566   1.100  0.2865 -0.1186  0.1249
  774MOL0     C 6690   8.752   5.558   1.011  0.7669  0.0928 -0.0838
  774MOL0     N 6691   8.870   5.518   1.093 -0.1141  0.4073 -0.2201
  774MOL0     C 6692   8.946   5.409   1.085 -0.2730  0.2452  1.0249
  774MOL0     C 6693   9.036   5.403   1.184  0.4336 -0.1019 -0.2443
  774MOL0     C 6694   9.130   5.288   1.232 -0.2201 -0.1751 -0.4621
  774MOL0     C 6695   9.208   5.331   1.361 -0.0644 -0.2038  0.3024
  774MOL0     C 6696   9.286   5.217   1.416 -1.1619  0.0696 -0.5247
  774MOL0     C 6697   9.423   5.188   1.362  0.1389  1.1944  0.0929
  774MOL0     O 6698   9.524   5.201   1.464  0.6642  0.5732 -0.3975
  774MOL0     C 6699   9.640   5.119   1.471 -0.0911 -0.1619  0.4323
  774MOL0     C 6700   9.685   5.038   1.365  0.2680 -0.4882  0.4453
  774MOL0     C 6701   9.809   4.967   1.381 -0.2450 -0.2114  0.6096
  774MOL0     C 6702   9.860   4.901   1.252 -0.4377  0.4959 -0.4825
  774MOL0     C 6703   9.873   4.959   1.502 -0.2998  0.6481 -0.1034
  774MOL0     C 6704   9.992   4.878   1.534  0.2673 -0.1020 -0.0667
  774MOL0     O 6705  10.085   4.938   1.616 -0.2075 -0.2889 -0.3431
  774MOL0     C 6706  10.196   4.871   1.658 -0.0508 -0.4400  0.7091
  774MOL0     C 6707  10.223   4.831   1.794  0.1277 -0.2081 -0.4990
  774MOL0     C 6708  10.348   4.784   1.838  1.1412  0.8484  0.1481
  774MOL0     C 6709  10.447   4.768   1.739  0.5587  0.2254 -0.1109
  774MOL0     O 6710  10.573   4.724   1.764  0.1821  0.1067 -0.0215
  774MOL0     C 6711  10.589   4.642   1.877  0.3259 -0.6311 -0.9319
  774MOL0     C 6712  10.718   4.560   1.869 -0.0410  0.4715  0.6222
  774MOL0     C 6713  10.731   4.475   1.744 -0.3023 -0.0893  1.4226
  774MOL0     C 6714  10.876   4.415   1.744 -0.4289 -0.1840 -0.0322
  774MOL0     C 6715  10.898   4.319   1.627  0.7169 -0.5962  0.1989
  774MOL0     C 6716  11.043   4.259   1.632  0.5759 -0.3459  0.0276
  774MOL0     C 6717  11.056   4.149   1.527 -1.3671 -0.0886  0.2065
  774MOL0     C 6718  11.163   4.053   1.562  0.4696  0.0821  0.1059
  774MOL0    Cl 6719  11.324   4.129   1.542  0.2335 -0.0867  0.0905
  774MOL0     C 6720  10.418   4.799   1.606  1.5619  0.5266 -0.2928
  774MOL0     C 6721  10.291   4.849   1.561  0.5922 -0.0076  0.1792
  774MOL0     O 6722   9.988   4.765   1.495  0.0841  0.4527 -0.9705
  774MOL0     C 6723   9.826   5.044   1.601 -0.0691  0.5611  0.6808
  774MOL0     C 6724   9.712   5.121   1.589 -0.5490  0.0003 -0.4124
  774MOL0     N 6725   9.018   5.523   1.251 -0.1819 -0.6245  0.2501
  774MOL0     N 6726   8.921   5.587   1.191 -0.5718  0.2530 -0.2202
  774MOL0     C 6727   8.058   6.266   1.606 -0.5262  0.3502  0.7212
  774MOL0     C 6728   7.970   6.315   1.703 -0.4582 -0.5805  0.0946
  774MOL0     C 6729   7.548   6.273   1.927  0.8717  0.0174 -0.3872
  774MOL0     C 6730   7.598   6.315   2.052  0.1529 -0.2290  0.2641
  774MOL0     C 6731   7.520   6.314   2.166 -0.2691  0.1905  0.1723
  774MOL0     C 6732   7.386   6.294   2.166  0.4360  0.3818  0.0548
  774MOL0     O 6733   7.312   6.300   2.276  0.4021  0.0446 -0.8138
  774MOL0     C 6734   7.358   6.340   2.401  0.1331 -0.1399 -0.7300
  774MOL0     C 6735   7.255   6.342   2.510 -0.6972  0.5634  0.3480
  774MOL0     C 6736   7.297   6.432   2.630  0.5483 -1.1056 -0.5981
  774MOL0     C 6737   7.187   6.447   2.735  0.6005 -0.0605  0.1586
  774MOL0     C 6738   7.088   6.525   2.679  0.4595 -0.4259 -0.4443
  774MOL0     C 6739   7.000   6.599   2.634 -0.9982  0.0822 -0.1499
  774MOL0     C 6740   7.332   6.247   2.043  0.5138 -0.3746  0.1130
  774MOL0     C 6741   7.412   6.231   1.923 -0.4239 -1.0935 -0.6123
  774MOL0     C 6742   7.354   6.161   1.806  0.7337  0.2507  0.0346
  774MOL0     H 6743   7.762   6.052   1.713 -2.7051  1.0256 -2.4068
  774MOL0     H 6744   7.942   5.951   1.569  2.0582 -0.4232  3.3425
  774MOL0     H 6745   8.071   5.930   1.357  0.6493  0.2463 -1.6525
  774MOL0     H 6746   8.154   5.888   1.518 -2.1240 -0.7335 -0.1567
  774MOL0     H 6747   8.280   6.014   1.267  0.9029  2.1755  1.7173
  774MOL0     H 6748   8.361   5.951   1.411  0.3739 -2.8850  1.1188
  774MOL0     H 6749   8.274   5.713   1.342 -0.7688 -2.6040 -2.5361
  774MOL0     H 6750   8.195   5.791   1.201  2.0961 -0.2514 -1.6093
  774MOL0     H 6751   8.413   5.877   1.132 -1.6777  0.3521 -0.2982
  774MOL0     H 6752   8.476   5.787   1.271  0.6179  3.0607  0.3852
  774MOL0     H 6753   8.311   5.675   1.018 -0.0066  2.7604  0.7752
  774MOL0     H 6754   8.362   5.580   1.163  1.6969 -0.0433  0.0555
  774MOL0     H 6755   8.501   5.560   0.936  0.4820  0.4020 -0.3221
  774MOL0     H 6756   8.549   5.723   0.975 -2.6289  0.2214 -0.0647
  774MOL0     H 6757   8.608   5.463   1.130  1.0467 -0.6364 -0.9810
  774MOL0     H 6758   8.647   5.629   1.188 -1.7328  0.4632  0.1273
  774MOL0     H 6759   8.730   5.482   0.935  1.2017 -1.0016  0.8541
  774MOL0     H 6760   8.767   5.655   0.963 -2.8325  0.1540 -1.4169
  774MOL0     H 6761   8.938   5.329   1.012 -0.3883 -0.2162  1.5426
  774MOL0     H 6762   9.199   5.258   1.152 -1.5672 -1.4490 -1.2109
  774MOL0     H 6763   9.062   5.206   1.258  0.4324  0.1528  2.5928
  774MOL0     H 6764   9.283   5.411   1.358  1.2871 -1.3377  1.6914
  774MOL0     H 6765   9.137   5.364   1.438 -1.5896 -1.6981 -0.3984
  774MOL0     H 6766   9.302   5.247   1.520 -0.4656 -0.1175 -0.5739
  774MOL0     H 6767   9.225   5.126   1.424 -1.0158 -0.4016 -3.5300
  774MOL0     H 6768   9.418   5.095   1.306 -0.0812  0.2331  1.6452
  774MOL0     H 6769   9.449   5.257   1.281  1.6828 -0.7052 -1.1013
  774MOL0     H 6770   9.624   5.041   1.276 -1.1364  1.2951  1.4009
  774MOL0     H 6771   9.829   4.953   1.161 -2.4557 -3.6816 -2.4322
  774MOL0     H 6772   9.812   4.803   1.243  0.4928 -0.5135  3.5049
  774MOL0     H 6773   9.969   4.889   1.247 -0.5181  0.0647 -1.3574
  774MOL0     H 6774  10.145   4.854   1.866  2.0759  1.8495  1.1170
  774MOL0     H 6775  10.358   4.758   1.943 -3.3327  1.5740  0.9603
  774MOL0     H 6776  10.598   4.705   1.966 -0.9076 -3.8625  1.7006
  774MOL0     H 6777  10.509   4.567   1.880 -1.9688  1.7301  1.1511
  774MOL0     H 6778  10.807   4.623   1.867 -0.0522  0.6436 -3.2901
  774MOL0     H 6779  10.720   4.495   1.957  2.6755 -2.1890 -1.2223
  774MOL0     H 6780  10.726   4.544   1.660  5.1515  0.3068  1.0572
  774MOL0     H 6781  10.657   4.395   1.733 -2.6949  2.1611  0.1953
  774MOL0     H 6782  10.900   4.358   1.834  2.0916  0.7859 -0.0293
  774MOL0     H 6783  10.952   4.493   1.740  3.2575 -3.4977 -1.0783
  774MOL0     H 6784  10.829   4.234   1.636  0.1465 -0.1295  0.3071
  774MOL0     H 6785  10.880   4.363   1.528  0.3693  0.1246  0.5772
  774MOL0     H 6786  11.055   4.213   1.731  0.1863 -3.3945 -1.2421
  774MOL0     H 6787  11.125   4.329   1.614 -0.4138  1.6010  2.4867
  774MOL0     H 6788  11.081   4.188   1.428 -1.1230 -0.8033 -0.0116
  774MOL0     H 6789  10.962   4.095   1.510 -1.4609  0.1265  0.0333
  774MOL0     H 6790  11.159   3.962   1.502 -1.3617  0.5988 -0.6369
  774MOL0     H 6791  11.149   4.034   1.669 -1.2042  1.6407  0.2242
  774MOL0     H 6792  10.495   4.788   1.530  1.4991  2.0683 -0.6018
  774MOL0     H 6793  10.270   4.862   1.455 -5.3306  2.7044  1.2851
  774MOL0     H 6794   9.873   5.045   1.699  1.1840 -1.1302  0.1435
  774MOL0     H 6795   9.681   5.190   1.667 -0.0164  1.0362 -1.0946
  774MOL0     H 6796   8.144   6.325   1.579  2.3672 -2.7174  2.4449
  774MOL0     H 6797   7.991   6.410   1.750 -1.3735 -0.7262  0.8314
  774MOL0     H 6798   7.702   6.342   2.068 -0.2584 -0.3335  3.9536
  774MOL0     H 6799   7.567   6.347   2.258 -0.4171 -0.4894  0.4926
  774MOL0     H 6800   7.440   6.272   2.426  1.8644  1.6790 -1.1817
  774MOL0     H 6801   7.400   6.441   2.399 -1.0840  0.4617  1.3529
  774MOL0     H 6802   7.256   6.239   2.545  1.2928 -0.1246 -1.5188
  774MOL0     H 6803   7.162   6.379   2.467 -1.2709  1.3246  2.1512
  774MOL0     H 6804   7.387   6.392   2.678  2.1831  4.1113  1.3993
  774MOL0     H 6805   7.324   6.532   2.594 -0.2273  0.0624  1.8351
  774MOL0     H 6806   7.222   6.492   2.828 -0.6353 -0.6905  0.9536
  774MOL0     H 6807   7.151   6.346   2.755 -0.9329  0.3645 -0.3445
  774MOL0     H 6808   6.916   6.657   2.600 -1.1171 -0.9975 -1.7930
  774MOL0     H 6809   7.225   6.232   2.038  0.0522  2.3644  0.1750
  774MOL0     H 6810   7.351   6.221   1.714 -1.9825 -0.9749 -0.7958
  774MOL0     H 6811   7.410   6.072   1.779 -0.1737 -0.4552  0.4198
  774MOL0     H 6812   7.248   6.133   1.813  0.2802  1.0993 -2.3025
  775MOL0     O 6813   7.885   9.522   0.043  0.3030  0.2777  0.1601
  775MOL0     C 6814   7.898   9.594  -0.055 -0.3878 -0.9052  0.1266
  775MOL0     O 6815   7.791   9.649  -0.123 -0.8894  0.2179 -0.4962
  775MOL0     C 6816   7.663   9.638  -0.065 -0.5521 -0.8243  0.4683
  775MOL0     C 6817   7.631   9.639   0.079  0.0624 -1.0718  0.3493
  775MOL0     C 6818   7.497   9.637   0.112 -0.3642  1.1061  0.1347
  775MOL0     C 6819   7.390   9.633   0.026  0.1817  0.5846  0.4369
  775MOL0     O 6820   7.264   9.646   0.085 -0.1943 -0.0654 -0.0719
  775MOL0     C 6821   7.158   9.662  -0.008  0.3428 -0.4380 -0.0226
  775MOL0     C 6822   7.024   9.709   0.063  0.5528 -0.4779  0.2645
  775MOL0     C 6823   6.974   9.591   0.151  0.4421  0.3242  0.2807
  775MOL0     C 6824   6.887   9.496   0.075  0.3630  0.9078 -0.8296
  775MOL0     C 6825   6.855   9.379   0.164 -0.0584 -0.2697  0.5609
  775MOL0     C 6826   6.769   9.272   0.090 -0.3704 -0.1073 -0.4198
  775MOL0     C 6827   6.632   9.323   0.050 -0.6161 -0.5622  0.2454
  775MOL0     C 6828   6.551   9.222  -0.031  0.2223  0.1114 -0.4064
  775MOL0     N 6829   6.562   9.238  -0.176  0.0222 -0.4941  0.5841
  775MOL0     C 6830   6.615   9.150  -0.271  0.0293  0.2497  0.7880
  775MOL0     C 6831   6.589   9.210  -0.389 -0.5314 -0.6731  0.1342
  775MOL0     C 6832   6.605   9.147  -0.524  0.6032  0.9613  0.3958
  775MOL0     C 6833   6.753   9.112  -0.553  0.3228  0.0693 -0.4614
  775MOL0     C 6834   6.845   9.229  -0.525 -0.0406 -0.5079 -0.4252
  775MOL0     C 6835   6.953   9.237  -0.634  0.1287 -0.4494 -0.1887
  775MOL0     O 6836   7.053   9.130  -0.609  0.3136  0.9894 -0.4601
  775MOL0     C 6837   7.164   9.118  -0.684 -0.1675  0.7132 -0.0931
  775MOL0     C 6838   7.255   9.024  -0.639  0.6013 -0.1954 -0.3111
  775MOL0     C 6839   7.378   9.004  -0.697 -0.1663 -0.4414  1.0801
  775MOL0     C 6840   7.472   8.909  -0.618  0.3479  0.1600  0.5133
  775MOL0     C 6841   7.410   9.083  -0.809 -0.0146 -0.1347 -0.5398
  775MOL0     C 6842   7.541   9.065  -0.878  0.5379 -0.0341  0.3899
  775MOL0     O 6843   7.602   8.943  -0.867  0.6053  0.0028  0.8110
  775MOL0     C 6844   7.714   8.903  -0.940 -0.2137  0.0245 -0.2413
  775MOL0     C 6845   7.778   8.789  -0.884 -0.4610  0.3324  0.0924
  775MOL0     C 6846   7.884   8.731  -0.950 -0.0907 -0.4438 -0.0755
  775MOL0     C 6847   7.939   8.795  -1.059 -0.0383 -0.2125  0.1968
  775MOL0     O 6848   8.060   8.742  -1.106  0.3647  0.2819  0.5233
  775MOL0     C 6849   8.139   8.848  -1.164  0.9472  0.3607 -0.2055
  775MOL0     C 6850   8.293   8.808  -1.166  0.7047  1.0459 -0.7342
  775MOL0     C 6851   8.329   8.671  -1.218 -1.1516  0.1630  0.3745
  775MOL0     C 6852   8.479   8.661  -1.277  1.2463  0.9790  0.3105
  775MOL0     C 6853   8.570   8.643  -1.158 -0.4493  0.5474  0.1520
  775MOL0     C 6854   8.719   8.640  -1.204 -0.6002  0.0104  0.4425
  775MOL0     C 6855   8.796   8.590  -1.084 -0.6290 -0.4693 -0.2880
  775MOL0     C 6856   8.942   8.583  -1.095  0.1099 -1.0077 -0.4104
  775MOL0    Cl 6857   9.026   8.733  -1.162  0.3312  0.0168  0.6950
  775MOL0     C 6858   7.874   8.908  -1.115  1.2447 -0.5634 -0.1219
  775MOL0     C 6859   7.761   8.963  -1.054 -0.0574  0.0648  0.7027
  775MOL0     O 6860   7.590   9.163  -0.935 -0.4348  0.4941 -0.6111
  775MOL0     C 6861   7.322   9.173  -0.861  0.1479 -0.4397  0.5491
  775MOL0     C 6862   7.196   9.187  -0.803  0.7756 -0.3720 -0.1286
  775MOL0     N 6863   6.533   9.335  -0.367  0.2811  0.8260 -0.4542
  775MOL0     N 6864   6.517   9.351  -0.236 -0.2942 -0.4913 -0.5492
  775MOL0     C 6865   7.420   9.615  -0.108  0.4774 -0.3806  1.5015
  775MOL0     C 6866   7.558   9.627  -0.155  0.4212 -0.2835 -0.7012
  775MOL0     C 6867   8.030   9.636  -0.100 -0.0580 -0.3464  0.1854
  775MOL0     C 6868   8.035   9.767  -0.139 -0.4461  0.2973 -0.7289
  775MOL0     C 6869   8.166   9.814  -0.184  0.2238  0.7857  0.2657
  775MOL0     C 6870   8.285   9.737  -0.183 -0.6817 -1.0556 -0.1386
  775MOL0     O 6871   8.407   9.776  -0.225 -0.8159  0.4017  0.0449
  775MOL0     C 6872   8.442   9.758  -0.367  0.0092  0.0007  0.5384
  775MOL0     C 6873   8.594   9.776  -0.390 -0.5134 -0.1630  0.3351
  775MOL0     C 6874   8.635   9.925  -0.381 -0.6291  0.4604  0.3347
  775MOL0     C 6875   8.781   9.957  -0.392 -0.6656 -0.1754  0.1647
  775MOL0     C 6876   8.814  10.104  -0.384  0.3558  0.4738  0.2957
  775MOL0     C 6877   8.849  10.218  -0.363 -0.3105 -0.0593  0.0461
  775MOL0     C 6878   8.271   9.609  -0.149 -0.6975  0.8143 -0.7747
  775MOL0     C 6879   8.144   9.550  -0.102 -0.4347  0.3333  0.3514
  775MOL0     C 6880   8.143   9.407  -0.063  0.3286 -1.1696 -0.9843
  775MOL0     H 6881   7.701   9.662   0.159  0.0353  0.7287 -0.1174
  775MOL0     H 6882   7.475   9.634   0.219  0.3029 -4.0015  0.3832
  775MOL0     H 6883   7.142   9.564  -0.054 -1.0207 -1.6232  2.7566
  775MOL0     H 6884   7.186   9.738  -0.082 -1.6840 -1.2069 -1.7040
  775MOL0     H 6885   7.043   9.801   0.119 -0.7162  0.8342 -1.3463
  775MOL0     H 6886   6.953   9.733  -0.017 -0.4643 -1.7368  0.7613
  775MOL0     H 6887   7.053   9.533   0.199  0.1966  1.1089  1.6883
  775MOL0     H 6888   6.910   9.634   0.229 -0.8585 -1.6218  0.3404
  775MOL0     H 6889   6.789   9.543   0.058 -0.8639 -0.8877  0.9351
  775MOL0     H 6890   6.940   9.463  -0.015 -1.2167 -0.4338 -1.3085
  775MOL0     H 6891   6.823   9.419   0.260  1.6299  1.8167  0.3442
  775MOL0     H 6892   6.950   9.329   0.187 -0.1138 -1.2764 -1.2233
  775MOL0     H 6893   6.830   9.230   0.009 -0.3459  0.5243 -0.7357
  775MOL0     H 6894   6.755   9.197   0.168 -0.3500  2.4162  2.1645
  775MOL0     H 6895   6.636   9.413  -0.013 -0.0616  0.1710  1.2977
  775MOL0     H 6896   6.586   9.337   0.148  0.9749  0.4121  0.9020
  775MOL0     H 6897   6.585   9.121  -0.006  0.2915  0.1810 -0.2171
  775MOL0     H 6898   6.448   9.234   0.006 -0.2398 -3.6985 -0.1027
  775MOL0     H 6899   6.651   9.049  -0.255 -1.9864 -0.7161 -0.3791
  775MOL0     H 6900   6.570   9.214  -0.603 -1.0111 -1.7384 -1.3793
  775MOL0     H 6901   6.543   9.057  -0.527  1.2823  0.4954 -0.2083
  775MOL0     H 6902   6.774   9.028  -0.486  0.2161  1.1509  0.9495
  775MOL0     H 6903   6.758   9.074  -0.656 -3.8086 -1.3176 -0.3240
  775MOL0     H 6904   6.790   9.323  -0.530 -1.6200 -1.4402 -1.7618
  775MOL0     H 6905   6.898   9.227  -0.429 -0.8972 -0.8450  0.0550
  775MOL0     H 6906   6.903   9.231  -0.730  1.2675  0.7194 -0.8939
  775MOL0     H 6907   7.002   9.335  -0.633 -1.3507  0.3652  2.3164
  775MOL0     H 6908   7.215   8.964  -0.558  0.6009 -2.0697 -1.6221
  775MOL0     H 6909   7.571   8.955  -0.610  0.3985 -0.1140  1.5349
  775MOL0     H 6910   7.474   8.807  -0.658 -1.6344 -0.1852  1.1841
  775MOL0     H 6911   7.440   8.878  -0.518  0.0634 -1.0624  0.0662
  775MOL0     H 6912   7.728   8.739  -0.801 -1.7106 -0.5455 -1.1437
  775MOL0     H 6913   7.941   8.659  -0.894  2.7305  2.4961  1.1193
  775MOL0     H 6914   8.113   8.860  -1.270 -0.6472 -2.5780 -0.2288
  775MOL0     H 6915   8.136   8.944  -1.112  0.2373 -0.9408  2.3050
  775MOL0     H 6916   8.349   8.890  -1.213 -0.3149  2.6572  0.7684
  775MOL0     H 6917   8.332   8.802  -1.064  1.4644 -0.2103 -1.0771
  775MOL0     H 6918   8.262   8.636  -1.297  0.0391  1.9141 -1.5355
  775MOL0     H 6919   8.323   8.603  -1.133 -0.8600  0.1359  0.3764
  775MOL0     H 6920   8.495   8.758  -1.325  2.7032  1.1208  1.0410
  775MOL0     H 6921   8.495   8.578  -1.346  4.6933  0.0719  2.0177
  775MOL0     H 6922   8.570   8.725  -1.086 -0.7216  1.2640 -0.6485
  775MOL0     H 6923   8.548   8.541  -1.123 -2.6360  1.1521  0.7124
  775MOL0     H 6924   8.749   8.739  -1.239 -0.6201 -0.3792 -0.7321
  775MOL0     H 6925   8.733   8.571  -1.288 -0.7174  0.8396 -0.2748
  775MOL0     H 6926   8.767   8.486  -1.075  3.3071 -1.6506  0.9657
  775MOL0     H 6927   8.768   8.644  -0.993 -2.1162 -0.4511 -0.7329
  775MOL0     H 6928   8.970   8.501  -1.163  2.9926 -0.2228 -0.3047
  775MOL0     H 6929   8.983   8.564  -0.996  3.4244  0.3521 -1.3825
  775MOL0     H 6930   7.918   8.971  -1.192  0.0657  1.7556  0.9893
  775MOL0     H 6931   7.717   9.058  -1.084  0.4878 -0.7881 -3.3238
  775MOL0     H 6932   7.344   9.236  -0.947 -3.8637  0.1795 -0.2577
  775MOL0     H 6933   7.136   9.267  -0.846  2.0524  0.4770 -0.3965
  775MOL0     H 6934   7.345   9.588  -0.182  0.4334  1.9384  0.6406
  775MOL0     H 6935   7.576   9.623  -0.262 -2.6970 -0.7932 -1.3022
  775MOL0     H 6936   7.952   9.835  -0.129  0.2357  0.9998  0.3018
  775MOL0     H 6937   8.168   9.917  -0.217  1.8322  1.0256  1.0244
  775MOL0     H 6938   8.405   9.664  -0.408 -0.2880 -0.1921  1.2321
  775MOL0     H 6939   8.390   9.839  -0.419 -2.0578 -1.6257 -0.0848
  775MOL0     H 6940   8.631   9.734  -0.485 -0.2966 -1.9858  1.1901
  775MOL0     H 6941   8.648   9.728  -0.308 -3.4177 -0.7480  2.0272
  775MOL0     H 6942   8.573   9.978  -0.454 -1.8429 -0.2062  0.8405
  775MOL0     H 6943   8.620   9.956  -0.277 -0.6623  1.9949 -0.1106
  775MOL0     H 6944   8.810   9.933  -0.494  0.1866 -1.1086  0.6094
  775MOL0     H 6945   8.828   9.900  -0.311 -2.5283 -2.2533 -0.1103
  775MOL0     H 6946   8.897  10.312  -0.346 -0.6959  0.2775 -0.7135
  775MOL0     H 6947   8.361   9.548  -0.150 -0.0986  1.3726  3.3867
  775MOL0     H 6948   8.236   9.354  -0.085 -0.4911 -2.2086 -2.0151
  775MOL0     H 6949   8.130   9.412   0.046 -0.9823  2.0090 -1.1784
  775MOL0     H 6950   8.058   9.355  -0.106 -1.0476 -1.0846  1.4670
  776MOL0     O 6951   8.372   0.443   2.294 -0.1253 -0.8108  0.2058
  776MOL0     C 6952   8.393   0.569   2.288  0.1163 -0.1971  0.4011
  776MOL0     O 6953   8.302   0.669   2.259  0.0734  0.0276  0.4291
  776MOL0     C 6954   8.175   0.633   2.224 -0.0984  0.0390  0.1698
  776MOL0     C 6955   8.101   0.552   2.308  1.4562 -0.0212  0.5413
  776MOL0     C 6956   7.977   0.515   2.261 -0.0231  0.6479  0.7900
  776MOL0     C 6957   7.922   0.556   2.139 -0.0808 -0.6659 -0.0217
  776MOL0     O 6958   7.792   0.531   2.095 -0.7642 -0.3534 -0.1173
  776MOL0     C 6959   7.695   0.488   2.188  0.8243 -0.2443  1.1157
  776MOL0     C 6960   7.563   0.453   2.110 -0.1963 -1.3299 -0.0326
  776MOL0     C 6961   7.433   0.509   2.174 -0.3955 -0.6556 -0.2742
  776MOL0     C 6962   7.372   0.408   2.289 -0.2032  0.1805  0.1083
  776MOL0     C 6963   7.243   0.472   2.350  1.1629 -0.0231 -0.1653
  776MOL0     C 6964   7.123   0.472   2.258  0.1505  0.1409  0.3780
  776MOL0     C 6965   7.008   0.553   2.313  0.1454 -0.0235 -0.1897
  776MOL0     C 6966   6.956   0.492   2.446  0.2702  0.5950  0.5792
  776MOL0     N 6967   6.828   0.562   2.489  1.1361 -0.2593  0.2570
  776MOL0     C 6968   6.818   0.697   2.515  0.0823  0.8648 -0.1327
  776MOL0     C 6969   6.682   0.713   2.534 -0.2161 -0.3603 -0.7636
  776MOL0     C 6970   6.621   0.837   2.578  0.0991 -0.1383 -0.1823
  776MOL0     C 6971   6.583   0.930   2.464 -0.1320  0.3773  0.2364
  776MOL0     C 6972   6.555   1.074   2.498 -0.7171  0.2626 -0.0012
  776MOL0     C 6973   6.666   1.170   2.521 -1.0979  0.7782 -0.6309
  776MOL0     O 6974   6.754   1.183   2.405 -0.1652 -0.1545  0.8100
  776MOL0     C 6975   6.849   1.279   2.390  0.1704 -0.1594  0.0516
  776MOL0     C 6976   6.894   1.347   2.495  0.1835  0.1440 -0.4491
  776MOL0     C 6977   7.015   1.425   2.489  0.0514 -0.4666  0.9945
  776MOL0     C 6978   7.075   1.494   2.608 -0.0289 -0.4965  0.0286
  776MOL0     C 6979   7.076   1.443   2.369 -0.2986  0.4725  0.1890
  776MOL0     C 6980   7.202   1.517   2.341 -0.2595  0.3169  0.5855
  776MOL0     O 6981   7.318   1.478   2.401  0.5050 -0.2943  0.3158
  776MOL0     C 6982   7.437   1.533   2.339  0.3570  1.1777 -0.1489
  776MOL0     C 6983   7.469   1.485   2.205  0.0285 -0.2123 -0.3013
  776MOL0     C 6984   7.592   1.529   2.147 -0.4174 -0.0441  0.1365
  776MOL0     C 6985   7.689   1.593   2.218 -0.7578 -0.1762  0.0949
  776MOL0     O 6986   7.814   1.633   2.165  0.0034  0.2535 -0.1689
  776MOL0     C 6987   7.828   1.639   2.024 -1.4212  0.3388  0.0905
  776MOL0     C 6988   7.983   1.653   2.009  0.6569 -0.1090  0.0372
  776MOL0     C 6989   8.018   1.800   2.027 -0.0311  0.0286  0.7081
  776MOL0     C 6990   8.163   1.825   1.982  1.2840  0.3493  0.6208
  776MOL0     C 6991   8.209   1.965   2.014  0.4655  0.4402 -0.3342
  776MOL0     C 6992   8.352   1.977   1.992 -0.2785 -0.6730  0.4258
  776MOL0     C 6993   8.403   2.118   2.023 -0.5096  0.3078  0.3981
  776MOL0     C 6994   8.552   2.145   1.988  0.7074 -0.5415  0.0593
  776MOL0    Cl 6995   8.583   2.326   2.007  0.1554 -0.0053 -0.1322
  776MOL0     C 6996   7.663   1.616   2.354  0.6358 -1.1031 -0.3969
  776MOL0     C 6997   7.536   1.602   2.410  0.1470 -0.6910 -0.0918
  776MOL0     O 6998   7.186   1.601   2.253  0.2472  0.1786  0.1565
  776MOL0     C 6999   7.034   1.367   2.249 -0.0322  0.2549  0.4064
  776MOL0     C 7000   6.915   1.294   2.265  0.4044  0.1581  0.4592
  776MOL0     N 7001   6.612   0.597   2.517 -0.3769 -0.6662 -0.8412
  776MOL0     N 7002   6.703   0.506   2.494  0.6413 -0.4983 -0.0757
  776MOL0     C 7003   7.995   0.644   2.057 -0.0314 -0.3509  0.6947
  776MOL0     C 7004   8.127   0.683   2.100  0.2887  0.8882  0.1685
  776MOL0     C 7005   8.530   0.609   2.299 -1.0866  0.6976 -0.6252
  776MOL0     C 7006   8.599   0.676   2.194  0.5730 -0.9138  0.2996
  776MOL0     C 7007   8.738   0.699   2.199  0.1949 -0.3358 -0.4223
  776MOL0     C 7008   8.815   0.659   2.308  0.0093  0.5914  0.5153
  776MOL0     O 7009   8.944   0.684   2.331 -0.0618  0.0355  0.2040
  776MOL0     C 7010   9.023   0.753   2.228  0.1428  0.1212 -0.5575
  776MOL0     C 7011   9.164   0.792   2.273  0.2915  0.6508  0.1246
  776MOL0     C 7012   9.248   0.662   2.290 -0.3069 -0.2701 -0.4036
  776MOL0     C 7013   9.390   0.704   2.350 -0.5673  0.6277  0.5786
  776MOL0     C 7014   9.467   0.586   2.403  0.0355 -0.2165 -0.7931
  776MOL0     C 7015   9.517   0.481   2.451  0.3273  0.1098  0.6864
  776MOL0     C 7016   8.748   0.576   2.406 -0.6305  0.7029 -0.3672
  776MOL0     C 7017   8.614   0.554   2.401 -0.1402 -0.0728 -0.6593
  776MOL0     C 7018   8.545   0.473   2.516  0.6176  0.6056  0.1383
  776MOL0     H 7019   8.145   0.525   2.403  1.3943  1.8609  1.1332
  776MOL0     H 7020   7.913   0.437   2.300 -0.1513  0.1380 -0.3728
  776MOL0     H 7021   7.671   0.568   2.259 -0.4610  0.7580 -0.3826
  776MOL0     H 7022   7.727   0.410   2.258  3.8148  0.7168  0.9565
  776MOL0     H 7023   7.577   0.498   2.011 -3.6972  4.2737  1.5307
  776MOL0     H 7024   7.558   0.345   2.095 -0.7623 -1.2061 -0.8396
  776MOL0     H 7025   7.459   0.608   2.211 -0.5731 -1.3253  1.8038
  776MOL0     H 7026   7.352   0.520   2.101  0.3349  0.8066 -0.8978
  776MOL0     H 7027   7.344   0.312   2.245 -0.5157  1.5463 -2.9511
  776MOL0     H 7028   7.437   0.404   2.376 -3.6266 -0.4971  2.8571
  776MOL0     H 7029   7.263   0.575   2.381 -0.0971 -0.5883  2.9098
  776MOL0     H 7030   7.214   0.418   2.441 -2.0415  0.9674 -0.4850
  776MOL0     H 7031   7.154   0.509   2.160  1.1119 -3.0537 -0.6258
  776MOL0     H 7032   7.088   0.372   2.233 -1.3884  1.0474 -1.3277
  776MOL0     H 7033   6.926   0.552   2.241 -0.3738  0.2103  0.3865
  776MOL0     H 7034   7.044   0.655   2.330 -1.1361  0.5716 -0.9346
  776MOL0     H 7035   6.935   0.385   2.441  0.6432  0.4887  1.1128
  776MOL0     H 7036   7.027   0.506   2.528  1.8161  0.0702 -0.6268
  776MOL0     H 7037   6.900   0.767   2.509  1.4053 -0.6619 -0.4199
  776MOL0     H 7038   6.705   0.882   2.632  0.6654  0.2103 -1.3129
  776MOL0     H 7039   6.536   0.814   2.643  0.5554 -2.5418 -0.3453
  776MOL0     H 7040   6.665   0.921   2.392  0.1319  1.3641  0.3996
  776MOL0     H 7041   6.490   0.897   2.418  0.0003  1.9885 -1.2902
  776MOL0     H 7042   6.494   1.120   2.421 -1.3067 -1.7485 -0.8038
  776MOL0     H 7043   6.499   1.072   2.592 -1.0159 -0.5842 -0.1901
  776MOL0     H 7044   6.629   1.271   2.544 -0.7836  0.6973  0.2552
  776MOL0     H 7045   6.722   1.129   2.605 -3.7862 -4.1628 -0.8477
  776MOL0     H 7046   6.848   1.329   2.592 -0.5860  3.0460 -0.1831
  776MOL0     H 7047   7.079   1.603   2.614  0.3649 -0.5861  2.1936
  776MOL0     H 7048   7.178   1.462   2.625 -0.8586 -1.9988  3.0164
  776MOL0     H 7049   7.014   1.457   2.692  0.2254 -1.1035 -0.0438
  776MOL0     H 7050   7.399   1.438   2.137 -0.1721  2.9525 -2.5364
  776MOL0     H 7051   7.615   1.484   2.052  0.3236 -1.5809  1.0028
  776MOL0     H 7052   7.796   1.547   1.975 -3.2299 -0.0002  1.7769
  776MOL0     H 7053   7.769   1.715   1.973 -2.1650 -1.5665 -2.0320
  776MOL0     H 7054   8.042   1.587   2.073  0.4333  0.4624  0.8499
  776MOL0     H 7055   7.997   1.629   1.903 -1.3488  2.2323 -0.8584
  776MOL0     H 7056   8.011   1.829   2.133 -3.1003 -1.2348  0.9486
  776MOL0     H 7057   7.967   1.872   1.962  1.7952 -0.0531 -0.8956
  776MOL0     H 7058   8.167   1.806   1.874  1.7776  0.3309  0.6417
  776MOL0     H 7059   8.218   1.747   2.036  1.0906 -0.1277  0.1409
  776MOL0     H 7060   8.155   2.031   1.945  0.5014  1.6531  0.7602
  776MOL0     H 7061   8.192   1.986   2.120 -1.2269 -1.9134 -0.0623
  776MOL0     H 7062   8.382   1.948   1.891 -1.5813 -0.6784  0.0243
  776MOL0     H 7063   8.395   1.897   2.054  0.3590 -0.3215  0.4513
  776MOL0     H 7064   8.399   2.151   2.127 -0.3909  1.5528  0.0256
  776MOL0     H 7065   8.338   2.190   1.972 -0.1546  0.2843 -0.0943
  776MOL0     H 7066   8.555   2.117   1.882 -0.7150  2.3418 -0.8730
  776MOL0     H 7067   8.624   2.090   2.049 -0.8815 -1.2834  1.3608
  776MOL0     H 7068   7.747   1.665   2.402  0.9751  0.3884 -2.3828
  776MOL0     H 7069   7.507   1.634   2.509 -0.1714  1.8821 -0.9416
  776MOL0     H 7070   7.089   1.370   2.155  0.6940  0.4522  0.8229
  776MOL0     H 7071   6.885   1.251   2.170 -1.5480  1.3081  0.4938
  776MOL0     H 7072   7.944   0.669   1.964 -0.5143  0.9660  1.2838
  776MOL0     H 7073   8.192   0.745   2.039 -1.3806 -0.3626 -3.0889
  776MOL0     H 7074   8.537   0.712   2.112  0.2212  0.1941  1.0360
  776MOL0     H 7075   8.786   0.752   2.116 -0.3885  2.6738  1.0158
  776MOL0     H 7076   9.035   0.684   2.145 -1.2174 -0.8524 -0.0027
  776MOL0     H 7077   8.972   0.842   2.190  0.3252  0.1627 -0.7012
  776MOL0     H 7078   9.150   0.852   2.363 -0.0146  0.8430 -0.0479
  776MOL0     H 7079   9.210   0.850   2.193 -1.4271 -1.6081 -2.7080
  776MOL0     H 7080   9.190   0.587   2.345 -0.5457 -1.1673 -1.8119
  776MOL0     H 7081   9.272   0.612   2.195 -0.5173  0.2115 -0.7110
  776MOL0     H 7082   9.381   0.779   2.430  1.1713  0.9581  0.4959
  776MOL0     H 7083   9.453   0.745   2.271 -1.6676 -0.0005 -0.6717
  776MOL0     H 7084   9.554   0.389   2.490  1.6110  1.0015  1.6604
  776MOL0     H 7085   8.805   0.522   2.480 -2.1867 -1.0801 -0.4052
  776MOL0     H 7086   8.605   0.476   2.608 -1.2970 -0.5363  1.4876
  776MOL0     H 7087   8.451   0.516   2.552  2.3603  2.7144  2.5753
  776MOL0     H 7088   8.535   0.368   2.488  0.6622  0.2777  1.3124
  777MOL0     O 7089  10.294   7.899   1.481 -0.4226  0.5290 -0.2486
  777MOL0     C 7090  10.305   7.795   1.417  0.1325 -0.1916 -0.5061
  777MOL0     O 7091  10.303   7.786   1.278  0.2748 -0.1711  0.6800
  777MOL0     C 7092  10.318   7.903   1.205  0.1516 -0.2557  0.3149
  777MOL0     C 7093  10.196   7.963   1.178 -0.0134 -0.6254 -0.0504
  777MOL0     C 7094  10.195   8.074   1.101  0.2016  0.1110 -0.2577
  777MOL0     C 7095  10.316   8.134   1.053 -0.3130  0.2866 -0.5939
  777MOL0     O 7096  10.293   8.258   1.001 -0.0073  0.0712 -0.0513
  777MOL0     C 7097  10.408   8.327   0.955 -0.2812  0.0900 -0.0507
  777MOL0     C 7098  10.365   8.464   0.890 -0.0064  0.2934 -1.0111
  777MOL0     C 7099  10.471   8.580   0.884  0.1264  0.1457  0.2402
  777MOL0     C 7100  10.602   8.525   0.816  0.5067  0.2697  0.1533
  777MOL0     C 7101  10.683   8.642   0.770  0.0276 -0.2829  0.1476
  777MOL0     C 7102  10.738   8.724   0.893 -0.1347  0.5156  0.2483
  777MOL0     C 7103  10.822   8.838   0.852 -0.2813 -0.3853 -0.2762
  777MOL0     C 7104  10.897   8.911   0.969 -0.0540  0.1299 -0.6467
  777MOL0     N 7105  10.996   8.821   1.033  1.3908 -0.2010 -0.1143
  777MOL0     C 7106  11.115   8.777   0.975 -0.4634 -0.1790 -0.1410
  777MOL0     C 7107  11.165   8.687   1.072  0.4511  0.5573  0.0681
  777MOL0     C 7108  11.286   8.609   1.068 -0.0346 -0.3639 -0.7422
  777MOL0     C 7109  11.408   8.699   1.102 -0.4765  0.6357 -0.6501
  777MOL0     C 7110  11.507   8.614   1.182  0.5009  0.0046  0.5781
  777MOL0     C 7111  11.584   8.522   1.088 -0.0213 -0.2393  0.1599
  777MOL0     O 7112  11.684   8.443   1.148 -0.6145  0.3127 -0.5347
  777MOL0     C 7113  11.801   8.493   1.195 -0.4193 -0.4595  0.6384
  777MOL0     C 7114  11.880   8.401   1.259  0.2128  0.6843  0.6046
  777MOL0     C 7115  12.002   8.443   1.316  0.6338 -0.1148  0.2375
  777MOL0     C 7116  12.068   8.343   1.410 -0.2332 -0.6932  0.8566
  777MOL0     C 7117  12.068   8.561   1.274  0.1132 -0.7177  0.7531
  777MOL0     C 7118  12.211   8.587   1.308 -0.2387 -0.0745  0.4720
  777MOL0     O 7119  12.244   8.717   1.347 -0.3046  0.0092  0.1118
  777MOL0     C 7120  12.372   8.744   1.396  0.1771  0.0184  0.7083
  777MOL0     C 7121  12.381   8.812   1.516 -0.2882 -0.7247  0.5221
  777MOL0     C 7122  12.505   8.849   1.571 -0.9386  1.2600 -0.0223
  777MOL0     C 7123  12.623   8.818   1.506  0.1760  0.1868  0.7865
  777MOL0     O 7124  12.733   8.853   1.582 -0.6272  0.9982  0.0781
  777MOL0     C 7125  12.861   8.788   1.544 -1.1072 -0.8286 -0.2685
  777MOL0     C 7126  12.962   8.821   1.655 -0.4001 -0.3489 -0.2272
  777MOL0     C 7127  12.991   8.963   1.663 -0.0830 -0.6234 -0.3946
  777MOL0     C 7128  13.099   8.986   1.775 -0.2920  0.0019  0.4357
  777MOL0     C 7129  13.211   9.068   1.715 -0.5831 -1.0651  1.1598
  777MOL0     C 7130  13.306   9.105   1.834 -0.1268  0.1060 -0.3875
  777MOL0     C 7131  13.413   9.206   1.788  0.7649 -0.0521 -0.4718
  777MOL0     C 7132  13.489   9.266   1.909 -0.1618  0.0780  0.4718
  777MOL0    Cl 7133  13.391   9.422   1.950 -0.3086 -0.6288 -0.3885
  777MOL0     C 7134  12.614   8.754   1.377 -1.1036  1.2271  0.2194
  777MOL0     C 7135  12.490   8.724   1.320 -0.4329  0.9179  0.1924
  777MOL0     O 7136  12.287   8.500   1.273 -0.0543  0.5216 -0.0882
  777MOL0     C 7137  11.988   8.643   1.196 -0.9040  0.1824 -0.2590
  777MOL0     C 7138  11.860   8.613   1.160  0.8567  0.9019  0.5425
  777MOL0     N 7139  11.081   8.684   1.183  0.1988  0.2763  0.4224
  777MOL0     N 7140  10.981   8.761   1.155 -0.4471 -1.3443 -0.3827
  777MOL0     C 7141  10.441   8.069   1.073 -0.2380  0.1272 -0.1554
  777MOL0     C 7142  10.437   7.953   1.152 -1.0180 -0.3847 -0.8907
  777MOL0     C 7143  10.295   7.675   1.491  0.4526 -0.5667 -0.4789
  777MOL0     C 7144  10.193   7.584   1.458  0.6109  0.3164 -0.6130
  777MOL0     C 7145  10.190   7.459   1.520 -0.0569 -0.2065  0.5450
  777MOL0     C 7146  10.286   7.432   1.614 -0.1445 -0.6444 -0.1368
  777MOL0     O 7147  10.277   7.305   1.670  0.2847  0.4027 -0.5489
  777MOL0     C 7148  10.384   7.217   1.636  0.4553  0.4816  0.3387
  777MOL0     C 7149  10.357   7.143   1.503 -0.4831  0.3836 -0.5308
  777MOL0     C 7150  10.238   7.054   1.497 -0.1630 -0.7635  0.6695
  777MOL0     C 7151  10.183   7.048   1.356 -0.0251 -0.3663 -0.1131
  777MOL0     C 7152  10.060   6.974   1.350 -0.7485 -0.2217 -0.0573
  777MOL0     C 7153   9.974   6.897   1.313  0.1125 -0.7055  0.3811
  777MOL0     C 7154  10.389   7.521   1.647  0.1352 -0.4782 -0.8491
  777MOL0     C 7155  10.388   7.649   1.592  0.4322  0.2221 -0.1098
  777MOL0     C 7156  10.497   7.743   1.635  0.9157 -0.6646 -0.0312
  777MOL0     H 7157  10.108   7.921   1.225 -0.3953 -1.6646 -1.6329
  777MOL0     H 7158  10.105   8.134   1.095  0.8425  1.5274  2.4424
  777MOL0     H 7159  10.466   8.274   0.880  0.3572 -1.2564  1.3230
  777MOL0     H 7160  10.482   8.352   1.031  3.2198 -1.0719 -2.8364
  777MOL0     H 7161  10.329   8.453   0.787  0.3766  3.2269 -1.5320
  777MOL0     H 7162  10.282   8.505   0.949 -0.2629  0.7854 -1.7018
  777MOL0     H 7163  10.435   8.648   0.805  2.2344 -0.3538 -1.2418
  777MOL0     H 7164  10.485   8.614   0.987  3.4320  1.3302 -0.4557
  777MOL0     H 7165  10.660   8.458   0.880  2.1732  0.3403 -1.1939
  777MOL0     H 7166  10.572   8.466   0.728  0.5336 -1.9075  1.5401
  777MOL0     H 7167  10.627   8.706   0.702 -2.0466 -1.4621  0.6399
  777MOL0     H 7168  10.768   8.601   0.716  0.6795  2.1083 -0.7655
  777MOL0     H 7169  10.655   8.760   0.955  1.2200  1.5107  1.5468
  777MOL0     H 7170  10.796   8.656   0.956 -2.4895 -2.5575 -0.6257
  777MOL0     H 7171  10.755   8.911   0.805  1.1987  0.4923 -1.0978
  777MOL0     H 7172  10.892   8.814   0.772  2.0350  2.3918  0.7455
  777MOL0     H 7173  10.945   9.003   0.933 -2.2858  0.8063 -2.0793
  777MOL0     H 7174  10.821   8.931   1.045  0.2679 -3.1720  0.6834
  777MOL0     H 7175  11.163   8.801   0.880 -0.7559 -0.7916 -0.4473
  777MOL0     H 7176  11.294   8.565   0.968  0.4631  1.1246 -1.3743
  777MOL0     H 7177  11.256   8.533   1.141 -4.1587  0.3314 -1.4390
  777MOL0     H 7178  11.462   8.739   1.015 -1.0432 -1.7425 -2.2136
  777MOL0     H 7179  11.377   8.789   1.155 -1.4871  0.0687 -0.2445
  777MOL0     H 7180  11.578   8.681   1.232  0.5445  0.8400 -0.5585
  777MOL0     H 7181  11.452   8.563   1.261  0.3886  1.2279  1.3138
  777MOL0     H 7182  11.504   8.462   1.042 -1.5373  2.1431 -0.4759
  777MOL0     H 7183  11.626   8.587   1.012 -2.6954  0.4208 -0.8792
  777MOL0     H 7184  11.843   8.301   1.279  1.3069  0.1867  0.1785
  777MOL0     H 7185  12.137   8.277   1.357  1.9743  2.2816 -0.2423
  777MOL0     H 7186  11.990   8.281   1.457 -0.0993 -1.1280  0.5097
  777MOL0     H 7187  12.121   8.401   1.486 -0.0599  2.5457 -1.5523
  777MOL0     H 7188  12.286   8.831   1.565  0.1100 -0.2840  1.1540
  777MOL0     H 7189  12.517   8.902   1.665 -1.9227 -0.5627  1.1886
  777MOL0     H 7190  12.842   8.680   1.543 -1.1475 -0.8211 -0.7869
  777MOL0     H 7191  12.899   8.822   1.447 -0.3543  0.7950  0.5563
  777MOL0     H 7192  12.914   8.798   1.751 -2.7078  1.9853 -0.7100
  777MOL0     H 7193  13.055   8.766   1.637  1.5420  1.8625  2.1889
  777MOL0     H 7194  12.893   9.010   1.677  0.0762  0.4609 -2.5447
  777MOL0     H 7195  13.030   8.983   1.563 -0.5031 -1.1442 -0.6729
  777MOL0     H 7196  13.147   8.894   1.810  1.5921  0.8206  0.0907
  777MOL0     H 7197  13.052   9.028   1.865 -1.8525 -1.6910  0.4873
  777MOL0     H 7198  13.268   9.012   1.641 -1.2165 -2.1005  1.4386
  777MOL0     H 7199  13.164   9.159   1.676  0.2934 -0.9536  0.3365
  777MOL0     H 7200  13.345   9.006   1.859  0.4215  0.3770 -0.1487
  777MOL0     H 7201  13.241   9.134   1.918  0.8805 -1.0980  0.8626
  777MOL0     H 7202  13.386   9.291   1.724  2.2786  2.3024  1.8087
  777MOL0     H 7203  13.486   9.156   1.724 -0.1076 -1.6836 -0.2325
  777MOL0     H 7204  13.589   9.291   1.874  0.2638 -2.7082 -0.5762
  777MOL0     H 7205  13.489   9.197   1.994  0.0655 -0.5805 -0.0584
  777MOL0     H 7206  12.702   8.716   1.328 -1.2851 -2.9522  2.7106
  777MOL0     H 7207  12.488   8.679   1.222  1.1020 -2.3107  1.4922
  777MOL0     H 7208  12.032   8.733   1.155 -2.9626  0.8941 -0.9944
  777MOL0     H 7209  11.800   8.683   1.102 -1.4002 -0.1161  1.5056
  777MOL0     H 7210  10.538   8.105   1.039 -0.3883 -0.3173 -1.0584
  777MOL0     H 7211  10.533   7.910   1.177 -0.0156  2.9161  1.6663
  777MOL0     H 7212  10.107   7.622   1.404 -0.3448  2.5938  2.2155
  777MOL0     H 7213  10.113   7.386   1.495 -0.7649 -0.1550  2.4091
  777MOL0     H 7214  10.474   7.278   1.633 -0.5631  2.0458 -2.7241
  777MOL0     H 7215  10.397   7.142   1.715 -1.9489 -1.0109 -0.5786
  777MOL0     H 7216  10.450   7.088   1.486 -0.2922  1.1074 -1.9770
  777MOL0     H 7217  10.358   7.224   1.429 -1.1063 -0.4721 -1.5076
  777MOL0     H 7218  10.264   6.952   1.528  1.5187 -1.2021 -1.8432
  777MOL0     H 7219  10.166   7.085   1.573  2.2978  1.5653  2.2273
  777MOL0     H 7220  10.256   7.010   1.285 -1.4982  1.1857 -2.6073
  777MOL0     H 7221  10.142   7.147   1.333 -1.4300 -1.0344 -0.6645
  777MOL0     H 7222   9.910   6.824   1.268  1.7709 -2.3208  0.5211
  777MOL0     H 7223  10.474   7.496   1.709 -0.9123 -1.2350  0.3293
  777MOL0     H 7224  10.575   7.703   1.701 -0.4536  0.7175  2.6211
  777MOL0     H 7225  10.545   7.780   1.544  3.3701  0.3457  1.5589
  777MOL0     H 7226  10.451   7.825   1.691  3.8929  1.3732 -0.3339
  778MOL0     O 7227   3.993   5.269   8.499 -0.4475  0.0102  0.1244
  778MOL0     C 7228   4.049   5.197   8.578  0.4199 -0.2719  0.7795
  778MOL0     O 7229   4.166   5.232   8.645 -0.0582  0.4834  0.2108
  778MOL0     C 7230   4.247   5.348   8.630  0.0490  1.2618 -0.0534
  778MOL0     C 7231   4.321   5.369   8.746  0.7372 -0.8038 -0.5257
  778MOL0     C 7232   4.385   5.489   8.768  0.1268  0.1726 -0.8806
  778MOL0     C 7233   4.378   5.588   8.667  0.0860  0.1902  0.8611
  778MOL0     O 7234   4.445   5.704   8.697  0.2799  0.0661 -0.1660
  778MOL0     C 7235   4.513   5.782   8.595 -0.1012 -0.0843  0.1518
  778MOL0     C 7236   4.634   5.858   8.642 -0.4316 -0.4633 -0.5297
  778MOL0     C 7237   4.607   5.988   8.722  0.3363 -0.1370  0.1687
  778MOL0     C 7238   4.722   6.060   8.799 -0.3064 -0.7307  0.0728
  778MOL0     C 7239   4.843   6.104   8.711  0.5347  0.1841 -0.2049
  778MOL0     C 7240   4.960   6.165   8.796 -0.6868  0.5637  0.0454
  778MOL0     C 7241   5.096   6.202   8.727 -0.1191 -0.7721  0.9814
  778MOL0     C 7242   5.063   6.298   8.606  0.3734 -0.5567 -0.2119
  778MOL0     N 7243   5.185   6.361   8.558 -0.4892  0.4169 -0.5558
  778MOL0     C 7244   5.264   6.454   8.628  0.2758  0.1192  0.0987
  778MOL0     C 7245   5.350   6.497   8.533 -0.0277  1.0304  0.1042
  778MOL0     C 7246   5.453   6.606   8.545  1.4151 -0.1045  0.0585
  778MOL0     C 7247   5.593   6.572   8.498  1.2496  0.5598 -0.0779
  778MOL0     C 7248   5.641   6.442   8.562  0.2341 -0.2694 -0.2766
  778MOL0     C 7249   5.786   6.403   8.541 -0.3301  0.8734 -0.3904
  778MOL0     O 7250   5.859   6.509   8.586  0.5470 -0.1677 -0.4167
  778MOL0     C 7251   5.997   6.510   8.599  0.8790  0.7910  0.8235
  778MOL0     C 7252   6.056   6.608   8.671  0.0804 -1.0079 -0.2184
  778MOL0     C 7253   6.195   6.600   8.703  1.4184  0.0883 -0.6402
  778MOL0     C 7254   6.258   6.705   8.794  0.0063 -0.1464  0.4327
  778MOL0     C 7255   6.278   6.508   8.635  0.6316 -0.6321  0.4190
  778MOL0     C 7256   6.430   6.502   8.643  0.0606 -0.3140 -0.6006
  778MOL0     O 7257   6.495   6.553   8.747 -0.6894  0.0540 -0.2386
  778MOL0     C 7258   6.634   6.559   8.732 -0.3770  1.3512  0.1058
  778MOL0     C 7259   6.693   6.679   8.752 -0.4379  0.6126 -0.0334
  778MOL0     C 7260   6.830   6.692   8.730 -0.8182  0.2356  0.5550
  778MOL0     C 7261   6.916   6.587   8.705 -0.1305  0.2784 -0.7142
  778MOL0     O 7262   7.048   6.621   8.673  0.0372  0.0183 -0.4746
  778MOL0     C 7263   7.138   6.512   8.645 -0.5291  0.3490  0.6513
  778MOL0     C 7264   7.281   6.562   8.620 -0.6935 -0.5060 -0.6728
  778MOL0     C 7265   7.335   6.622   8.748 -0.4002 -0.1641  0.2747
  778MOL0     C 7266   7.484   6.664   8.749  0.5470  0.6728 -0.1239
  778MOL0     C 7267   7.523   6.727   8.885 -0.3315  0.5727 -0.1687
  778MOL0     C 7268   7.653   6.812   8.870  0.1325  0.1443 -0.2315
  778MOL0     C 7269   7.725   6.845   9.008  0.0744  0.0126 -0.3441
  778MOL0     C 7270   7.869   6.891   8.978  0.4758 -0.0624  0.4824
  778MOL0    Cl 7271   7.900   7.057   8.906  0.6591  0.0903  0.7373
  778MOL0     C 7272   6.856   6.467   8.695  0.7732  1.0137 -0.7062
  778MOL0     C 7273   6.717   6.451   8.701  0.1566  0.0387  0.0980
  778MOL0     O 7274   6.487   6.451   8.546  0.5460 -0.0607  0.1457
  778MOL0     C 7275   6.214   6.411   8.551  0.0067  0.0840  1.0440
  778MOL0     C 7276   6.078   6.412   8.539  0.6370  0.4333 -0.6267
  778MOL0     N 7277   5.342   6.410   8.415  0.6314  0.6507 -0.2431
  778MOL0     N 7278   5.239   6.343   8.433 -0.5138  0.1364 -0.1397
  778MOL0     C 7279   4.303   5.562   8.552 -0.2572  0.5481  0.0933
  778MOL0     C 7280   4.235   5.440   8.530 -0.0356 -0.2670  0.4106
  778MOL0     C 7281   3.994   5.079   8.631  0.1452 -0.4238 -0.2740
  778MOL0     C 7282   4.050   5.008   8.738 -0.5759 -0.0171 -0.2888
  778MOL0     C 7283   4.002   4.887   8.789 -0.5012 -0.3267  0.0847
  778MOL0     C 7284   3.897   4.829   8.725 -0.0924  0.1343  0.1105
  778MOL0     O 7285   3.845   4.706   8.771  0.6250 -0.7060 -0.1104
  778MOL0     C 7286   3.787   4.612   8.677  0.4294  0.4411  0.0152
  778MOL0     C 7287   3.695   4.522   8.754 -1.3537 -0.9347 -0.2671
  778MOL0     C 7288   3.648   4.412   8.661 -0.2003 -0.0841 -1.0775
  778MOL0     C 7289   3.548   4.326   8.732 -0.6347  0.1495  0.0389
  778MOL0     C 7290   3.463   4.275   8.633  0.1761 -0.8409  0.8849
  778MOL0     C 7291   3.396   4.216   8.548 -0.2436  0.5804  0.5233
  778MOL0     C 7292   3.825   4.901   8.621 -1.0670  0.5100  0.2184
  778MOL0     C 7293   3.869   5.031   8.576 -0.5231  0.4038 -0.1065
  778MOL0     C 7294   3.775   5.107   8.476 -0.1579  0.9012 -0.0660
  778MOL0     H 7295   4.306   5.296   8.825  1.6748 -1.9058 -1.3284
  778MOL0     H 7296   4.425   5.510   8.867 -0.6571 -0.6344 -0.3776
  778MOL0     H 7297   4.447   5.856   8.548  1.0714  1.1680  0.4342
  778MOL0     H 7298   4.548   5.724   8.509  0.4158  2.2263 -1.2712
  778MOL0     H 7299   4.700   5.797   8.704 -1.9244  0.2322  1.8469
  778MOL0     H 7300   4.691   5.882   8.551  0.8688 -3.2147 -0.5307
  778MOL0     H 7301   4.558   6.057   8.652 -1.3887 -0.3153  1.1454
  778MOL0     H 7302   4.530   5.956   8.793  1.0432 -1.4288  0.3708
  778MOL0     H 7303   4.689   6.144   8.861  2.4483  0.1999  0.3854
  778MOL0     H 7304   4.757   5.994   8.879  0.9357 -1.5990 -1.1370
  778MOL0     H 7305   4.816   6.179   8.636  1.8914  0.6275 -0.2762
  778MOL0     H 7306   4.886   6.020   8.657 -0.1349 -0.6220  0.4791
  778MOL0     H 7307   4.919   6.257   8.839  0.5333  1.9926 -1.6741
  778MOL0     H 7308   4.976   6.092   8.875 -2.1430 -0.9915 -1.0434
  778MOL0     H 7309   5.135   6.114   8.676 -1.0147 -0.5796 -0.0728
  778MOL0     H 7310   5.166   6.250   8.796 -0.7507  0.1859  0.9792
  778MOL0     H 7311   5.020   6.240   8.524  1.7894 -1.2022 -0.5255
  778MOL0     H 7312   4.984   6.368   8.635 -0.3289 -2.0443  1.6912
  778MOL0     H 7313   5.254   6.502   8.724  1.2049  1.1439 -0.2925
  778MOL0     H 7314   5.468   6.632   8.650 -1.3506  1.1974  0.2148
  778MOL0     H 7315   5.430   6.704   8.503 -0.8858 -0.1578  1.0842
  778MOL0     H 7316   5.587   6.550   8.391  1.5600  0.4952 -0.0817
  778MOL0     H 7317   5.658   6.657   8.518 -1.3063  2.0888  2.4471
  778MOL0     H 7318   5.638   6.447   8.671  1.1254 -2.9566 -0.0575
  778MOL0     H 7319   5.585   6.358   8.518  0.1400  0.2426 -1.1737
  778MOL0     H 7320   5.799   6.313   8.601 -1.5894  1.7235  1.2485
  778MOL0     H 7321   5.814   6.377   8.439 -0.3382 -1.0725  0.0636
  778MOL0     H 7322   5.984   6.676   8.716 -1.0008 -2.6286  0.6131
  778MOL0     H 7323   6.303   6.661   8.884 -0.1017 -0.0772  0.5201
  778MOL0     H 7324   6.172   6.766   8.823  0.5494  0.5776  0.5619
  778MOL0     H 7325   6.327   6.772   8.741 -0.4165  0.5394  0.7458
  778MOL0     H 7326   6.632   6.764   8.782  1.1766  0.8002  3.0844
  778MOL0     H 7327   6.872   6.792   8.722  0.4682 -0.3652 -0.3859
  778MOL0     H 7328   7.143   6.465   8.743  0.3729  1.6469  1.2588
  778MOL0     H 7329   7.099   6.440   8.573  0.2219 -1.3576  1.8970
  778MOL0     H 7330   7.353   6.486   8.590  0.0074 -0.2406  0.2900
  778MOL0     H 7331   7.273   6.632   8.537 -2.8768 -2.1326 -1.9602
  778MOL0     H 7332   7.316   6.548   8.827  2.4514 -0.5846  0.6808
  778MOL0     H 7333   7.278   6.713   8.766 -1.1605 -0.7160  0.6896
  778MOL0     H 7334   7.507   6.731   8.666 -0.2381  0.8299 -0.2184
  778MOL0     H 7335   7.539   6.571   8.731 -0.5098  0.2549 -1.2787
  778MOL0     H 7336   7.450   6.803   8.914  0.4218  0.9451  0.8046
  778MOL0     H 7337   7.523   6.650   8.962 -2.8098 -0.5623 -1.1849
  778MOL0     H 7338   7.618   6.900   8.814 -1.9340  0.6275  1.6649
  778MOL0     H 7339   7.719   6.752   8.807 -0.9691  0.4379 -1.7405
  778MOL0     H 7340   7.727   6.754   9.069  3.0741  0.2277  0.0290
  778MOL0     H 7341   7.671   6.922   9.063  0.6966  0.6421 -0.6079
  778MOL0     H 7342   7.916   6.821   8.909  1.7537 -0.0084  1.2682
  778MOL0     H 7343   7.915   6.895   9.077  1.1239 -1.7407  0.2850
  778MOL0     H 7344   6.913   6.383   8.656 -0.5404  0.7323 -2.1321
  778MOL0     H 7345   6.663   6.357   8.693 -0.0998 -0.0907  2.6296
  778MOL0     H 7346   6.269   6.338   8.493  0.6621  0.2252  1.4760
  778MOL0     H 7347   6.033   6.336   8.475 -0.9801  0.1872  0.7361
  778MOL0     H 7348   4.286   5.639   8.477  0.7759 -0.1735 -0.9175
  778MOL0     H 7349   4.166   5.423   8.448 -3.0039  1.1274  2.4579
  778MOL0     H 7350   4.129   5.050   8.799 -0.2065 -2.4600  1.0137
  778MOL0     H 7351   4.049   4.847   8.878  2.8721 -0.4622 -1.6114
  778MOL0     H 7352   3.729   4.663   8.600 -0.0667  1.3774  0.9757
  778MOL0     H 7353   3.863   4.556   8.623  1.7233  0.0816  2.0876
  778MOL0     H 7354   3.612   4.589   8.779 -1.9915 -1.8219  0.0662
  778MOL0     H 7355   3.752   4.491   8.843 -0.8855  4.0561  1.5069
  778MOL0     H 7356   3.600   4.462   8.576  1.1132  0.3122 -1.6194
  778MOL0     H 7357   3.739   4.358   8.633  2.1061  2.2970  1.2478
  778MOL0     H 7358   3.486   4.384   8.801  0.9181  2.8757 -0.7354
  778MOL0     H 7359   3.614   4.262   8.792 -0.3425  0.5088  0.1022
  778MOL0     H 7360   3.334   4.163   8.479 -0.7737  0.8960  0.7481
  778MOL0     H 7361   3.742   4.849   8.573 -0.8334  0.0901  0.2637
  778MOL0     H 7362   3.723   5.189   8.526 -0.0924  0.6556  0.4152
  778MOL0     H 7363   3.829   5.140   8.387  1.7075  0.5899  0.9008
  778MOL0     H 7364   3.698   5.035   8.446  1.2264 -1.2073  1.1449
  779MOL0     O 7365  11.266  10.875   3.341 -0.0972 -0.0388  0.7545
  779MOL0     C 7366  11.289  10.756   3.313  0.1943  0.0575  0.3430
  779MOL0     O 7367  11.386  10.668   3.368  0.3822 -0.3371 -0.3171
  779MOL0     C 7368  11.504  10.721   3.417 -0.8650 -0.4942 -0.2258
  779MOL0     C 7369  11.507  10.815   3.519  0.2408 -0.0693  0.0606
  779MOL0     C 7370  11.622  10.849   3.593  0.2972 -0.1977  0.0036
  779MOL0     C 7371  11.742  10.790   3.544 -0.5184 -0.0074  0.2331
  779MOL0     O 7372  11.862  10.798   3.607 -0.9324  0.0025 -1.0103
  779MOL0     C 7373  11.903  10.917   3.678  0.2587 -0.0963 -0.6103
  779MOL0     C 7374  12.046  10.960   3.673  0.1428 -0.1286  0.6478
  779MOL0     C 7375  12.141  10.866   3.733 -0.2329 -0.0843  0.9533
  779MOL0     C 7376  12.285  10.920   3.747 -0.1865  0.5234 -0.4127
  779MOL0     C 7377  12.379  10.806   3.749 -0.1438  0.3801 -0.4650
  779MOL0     C 7378  12.518  10.849   3.799  0.2247  0.1995  0.2796
  779MOL0     C 7379  12.631  10.734   3.775 -0.5622 -0.1789  0.2765
  779MOL0     C 7380  12.771  10.793   3.798  0.3457 -0.4141 -0.6658
  779MOL0     N 7381  12.863  10.688   3.767  0.1784  0.1422 -0.6374
  779MOL0     C 7382  12.951  10.634   3.859 -1.0419  0.2981 -0.0916
  779MOL0     C 7383  12.990  10.514   3.802 -0.1349 -1.1308  0.0359
  779MOL0     C 7384  13.057  10.400   3.874  0.4495 -0.0443 -0.8480
  779MOL0     C 7385  13.193  10.439   3.936 -0.1800 -0.5987 -0.6961
  779MOL0     C 7386  13.231  10.340   4.048 -0.5698 -0.1286  0.3973
  779MOL0     C 7387  13.371  10.368   4.106  1.0970 -0.1351  0.2386
  779MOL0     O 7388  13.463  10.394   3.998  0.5885  0.2071 -0.4874
  779MOL0     C 7389  13.594  10.396   4.030 -0.6273 -0.0124  0.9344
  779MOL0     C 7390  13.639  10.508   4.094 -0.3993 -0.0773  0.6883
  779MOL0     C 7391  13.774  10.525   4.131 -0.1991 -0.7565  0.2010
  779MOL0     C 7392  13.818  10.670   4.166  0.2775 -0.5834  0.0473
  779MOL0     C 7393  13.864  10.419   4.112  0.9679  0.9419  0.5250
  779MOL0     C 7394  14.014  10.421   4.139 -0.7767  0.2156 -0.2062
  779MOL0     O 7395  14.073  10.305   4.179  0.0107 -0.2704 -0.9930
  779MOL0     C 7396  14.213  10.328   4.214 -0.3743 -0.3875  0.6961
  779MOL0     C 7397  14.303  10.270   4.124 -0.2742  0.4682 -0.2087
  779MOL0     C 7398  14.436  10.298   4.142  0.9518  0.5983  0.5023
  779MOL0     C 7399  14.486  10.375   4.249 -0.6252 -0.4505 -0.1132
  779MOL0     O 7400  14.619  10.405   4.270 -0.7562 -0.3761 -0.5604
  779MOL0     C 7401  14.689  10.472   4.166  0.7934  0.2234  0.6215
  779MOL0     C 7402  14.837  10.452   4.180 -0.8981 -0.1714  0.5331
  779MOL0     C 7403  14.878  10.519   4.303 -0.7320 -0.9969 -0.6929
  779MOL0     C 7404  15.014  10.458   4.352  0.1113 -0.0481  1.2551
  779MOL0     C 7405  15.123  10.517   4.260  0.3942  0.6429  0.4691
  779MOL0     C 7406  15.260  10.465   4.287  0.7492 -0.6989 -0.3157
  779MOL0     C 7407  15.370  10.532   4.206 -0.5304 -0.2211 -0.5010
  779MOL0     C 7408  15.500  10.458   4.251  0.4896  0.3240 -0.5010
  779MOL0    Cl 7409  15.630  10.488   4.137 -0.1102 -0.2216  0.2204
  779MOL0     C 7410  14.392  10.421   4.348 -0.6244  0.3742 -0.9233
  779MOL0     C 7411  14.259  10.392   4.328  0.0387 -0.1831 -0.2769
  779MOL0     O 7412  14.070  10.524   4.098  0.8098  0.1907  0.1749
  779MOL0     C 7413  13.816  10.294   4.061  0.2538 -0.4783 -0.2277
  779MOL0     C 7414  13.682  10.287   4.018 -0.0953  0.8563  0.2170
  779MOL0     N 7415  12.938  10.505   3.672  0.4378 -0.1741  0.3861
  779MOL0     N 7416  12.859  10.607   3.657  0.2187 -0.5104  0.5187
  779MOL0     C 7417  11.739  10.717   3.426  0.3175  0.8302  0.0666
  779MOL0     C 7418  11.624  10.672   3.365  0.6075 -0.9078  0.6840
  779MOL0     C 7419  11.189  10.695   3.229 -0.0177  0.3702 -0.3031
  779MOL0     C 7420  11.124  10.585   3.272  1.3502  0.1967 -0.6161
  779MOL0     C 7421  11.017  10.523   3.200  0.4204 -0.1733  0.6906
  779MOL0     C 7422  10.988  10.568   3.069 -0.8109 -0.2929 -0.1064
  779MOL0     O 7423  10.890  10.504   3.000 -0.6084  0.5290 -0.5788
  779MOL0     C 7424  10.867  10.523   2.856  0.1997  0.3223  0.3426
  779MOL0     C 7425  10.774  10.408   2.800  0.2415  0.6145  0.2814
  779MOL0     C 7426  10.849  10.279   2.763  0.3858 -0.3399 -0.0218
  779MOL0     C 7427  10.901  10.203   2.888  0.1104 -0.3095 -0.4453
  779MOL0     C 7428  10.880  10.057   2.862  0.7580 -0.2262 -0.4436
  779MOL0     C 7429  10.869   9.940   2.848  0.0212  0.2137  0.3640
  779MOL0     C 7430  11.063  10.684   3.018  0.2217  0.1086  0.1318
  779MOL0     C 7431  11.151  10.755   3.104  0.2613  0.0757 -0.2834
  779MOL0     C 7432  11.200  10.890   3.050  0.0981  0.0251  0.0513
  779MOL0     H 7433  11.407  10.842   3.552 -0.4469 -1.1005 -1.0828
  779MOL0     H 7434  11.620  10.906   3.684  1.6755  0.0197 -0.0876
  779MOL0     H 7435  11.882  10.889   3.781  2.9944 -0.7695 -0.1541
  779MOL0     H 7436  11.844  11.004   3.647 -1.5400 -1.0831 -0.1177
  779MOL0     H 7437  12.066  10.972   3.566 -1.9237  0.5164  0.2896
  779MOL0     H 7438  12.056  11.057   3.723 -0.4836  0.4964 -0.3957
  779MOL0     H 7439  12.100  10.835   3.830 -0.3572  1.1114  1.3031
  779MOL0     H 7440  12.146  10.776   3.672  0.6719  1.1003 -0.7712
  779MOL0     H 7441  12.322  10.998   3.679  1.8074  2.1330  2.3112
  779MOL0     H 7442  12.288  10.955   3.851 -0.8100 -0.8649  0.0968
  779MOL0     H 7443  12.398  10.779   3.645  1.7874  3.7021 -1.1197
  779MOL0     H 7444  12.345  10.723   3.812 -1.2956 -0.1881 -1.7614
  779MOL0     H 7445  12.543  10.943   3.748 -2.3725  0.7783 -0.0905
  779MOL0     H 7446  12.527  10.866   3.906  7.0935 -0.8314  0.2920
  779MOL0     H 7447  12.616  10.686   3.678 -3.7795 -0.0113  0.6070
  779MOL0     H 7448  12.619  10.655   3.850  0.2194  1.0839  1.7815
  779MOL0     H 7449  12.783  10.881   3.734 -0.5156 -0.4482 -0.8977
  779MOL0     H 7450  12.780  10.831   3.900 -1.0152  2.4214 -1.4867
  779MOL0     H 7451  12.963  10.669   3.962  2.7517 -0.4272 -0.1463
  779MOL0     H 7452  13.063  10.308   3.814 -3.6729 -0.4117 -1.0060
  779MOL0     H 7453  12.985  10.372   3.951 -0.3312 -0.5380 -1.7241
  779MOL0     H 7454  13.260  10.446   3.850 -0.8394  0.3564 -1.1482
  779MOL0     H 7455  13.182  10.533   3.990 -4.4959  0.2880 -2.7171
  779MOL0     H 7456  13.153  10.345   4.123 -1.4715  3.3873 -0.6078
  779MOL0     H 7457  13.234  10.239   4.004  3.6029  0.1865 -0.4568
  779MOL0     H 7458  13.365  10.465   4.156  2.2955  1.6135 -2.7338
  779MOL0     H 7459  13.394  10.282   4.170 -0.2611 -0.1188  0.7814
  779MOL0     H 7460  13.565  10.586   4.109  0.7193  0.9844  0.8295
  779MOL0     H 7461  13.729  10.732   4.184 -0.4978 -1.8206  0.6437
  779MOL0     H 7462  13.868  10.712   4.079 -0.8792 -0.5659 -0.6276
  779MOL0     H 7463  13.881  10.662   4.255  0.4921 -3.1452 -0.2518
  779MOL0     H 7464  14.258  10.212   4.044 -0.8203  2.3711 -1.3299
  779MOL0     H 7465  14.502  10.269   4.061  0.7150  0.6946  0.2760
  779MOL0     H 7466  14.662  10.436   4.067 -1.1492 -1.6902  1.7538
  779MOL0     H 7467  14.680  10.581   4.163  0.7878  0.2108  0.1992
  779MOL0     H 7468  14.863  10.347   4.198  0.4979 -0.0252 -0.5348
  779MOL0     H 7469  14.892  10.485   4.092 -1.0895 -1.2138  0.0013
  779MOL0     H 7470  14.804  10.516   4.383  0.5296  1.8772  0.7342
  779MOL0     H 7471  14.900  10.626   4.293 -0.4724 -0.9740  0.1017
  779MOL0     H 7472  15.017  10.349   4.347  1.8373 -0.0315  1.6071
  779MOL0     H 7473  15.033  10.477   4.458  3.6012 -1.5053  0.9877
  779MOL0     H 7474  15.101  10.499   4.154  2.4530 -0.5073  0.1726
  779MOL0     H 7475  15.125  10.625   4.273  1.0751  0.3241  3.7951
  779MOL0     H 7476  15.261  10.356   4.293  1.0117 -0.8905 -2.9352
  779MOL0     H 7477  15.275  10.501   4.389  0.1750 -0.0959 -0.4422
  779MOL0     H 7478  15.367  10.641   4.215 -1.4537 -0.3419  0.8043
  779MOL0     H 7479  15.351  10.492   4.106 -3.3416  0.3841 -0.2682
  779MOL0     H 7480  15.480  10.351   4.259 -2.0499  0.7561 -0.3365
  779MOL0     H 7481  15.519  10.482   4.356 -0.7345  2.0430 -0.6317
  779MOL0     H 7482  14.435  10.471   4.433 -4.1889  1.0126  0.6836
  779MOL0     H 7483  14.193  10.447   4.394 -0.7080  0.9487 -1.8986
  779MOL0     H 7484  13.884  10.210   4.063 -0.2317 -0.9430 -1.7865
  779MOL0     H 7485  13.636  10.193   3.987  0.5717  0.5287  0.2092
  779MOL0     H 7486  11.828  10.677   3.379  0.4400  1.7127 -0.4599
  779MOL0     H 7487  11.630  10.632   3.265  1.0190  3.6958 -1.4150
  779MOL0     H 7488  11.153  10.538   3.366 -0.9944 -1.0375 -0.4593
  779MOL0     H 7489  10.962  10.436   3.235 -0.6746  1.3765  3.0425
  779MOL0     H 7490  10.826  10.624   2.843 -0.2007  0.1542  0.2655
  779MOL0     H 7491  10.967  10.532   2.812 -0.1483 -0.0713 -0.5535
  779MOL0     H 7492  10.712  10.456   2.723 -1.2173 -0.5201  0.6942
  779MOL0     H 7493  10.696  10.375   2.870  0.0216  1.2510  0.3371
  779MOL0     H 7494  10.781  10.217   2.704  0.1604 -1.7493  1.6455
  779MOL0     H 7495  10.931  10.307   2.696  0.3971 -1.3025 -0.4200
  779MOL0     H 7496  10.853  10.242   2.978  2.3178 -0.8039  1.0153
  779MOL0     H 7497  11.009  10.212   2.904 -0.0096  2.4711 -0.6141
  779MOL0     H 7498  10.849   9.836   2.839  0.7488 -0.0200  1.2967
  779MOL0     H 7499  11.035  10.724   2.921  0.9877  0.6310  0.1249
  779MOL0     H 7500  11.201  10.966   3.129  0.2881  0.3898 -0.2974
  779MOL0     H 7501  11.304  10.874   3.019  0.3835  0.1544  0.9046
  779MOL0     H 7502  11.148  10.918   2.959  0.9352  1.6894  0.0306
  780MOL0     O 7503   5.645   2.006   8.518  0.1214 -0.5959 -0.8388
  780MOL0     C 7504   5.602   1.908   8.472 -0.3404 -0.0700  0.7857
  780MOL0     O 7505   5.677   1.803   8.437  1.2623  0.6837 -0.0016
  780MOL0     C 7506   5.801   1.793   8.490  0.6114  0.7842 -0.0881
  780MOL0     C 7507   5.915   1.805   8.418 -0.1316 -0.1148 -0.2807
  780MOL0     C 7508   6.043   1.785   8.477 -0.3095  0.4189 -0.1786
  780MOL0     C 7509   6.066   1.756   8.616  0.5220 -0.6486 -0.8145
  780MOL0     O 7510   6.192   1.729   8.665 -0.5805  0.4592  0.3004
  780MOL0     C 7511   6.223   1.735   8.802 -0.0324  0.0437 -0.5275
  780MOL0     C 7512   6.261   1.885   8.830  0.3085  0.6383  0.0315
  780MOL0     C 7513   6.326   1.898   8.968 -0.7645  1.2146  0.3414
  780MOL0     C 7514   6.476   1.854   8.972  0.6689  0.2538  0.3751
  780MOL0     C 7515   6.523   1.839   9.115  0.1506  0.3264  0.3207
  780MOL0     C 7516   6.656   1.770   9.133 -0.4177  0.2655 -0.0654
  780MOL0     C 7517   6.766   1.860   9.082 -0.0898 -0.3785  0.0112
  780MOL0     C 7518   6.897   1.775   9.085 -0.4595 -0.0655 -0.4361
  780MOL0     N 7519   7.014   1.842   9.038  0.0416 -0.1395 -0.4486
  780MOL0     C 7520   7.113   1.884   9.121  0.0551  0.2169  0.1747
  780MOL0     C 7521   7.211   1.946   9.053 -0.4811  0.0252  0.6060
  780MOL0     C 7522   7.335   2.010   9.094 -0.2087 -0.0786 -0.2874
  780MOL0     C 7523   7.456   1.913   9.066 -0.3378  0.1155  0.0278
  780MOL0     C 7524   7.465   1.801   9.167 -0.0868  0.8237  0.9681
  780MOL0     C 7525   7.597   1.728   9.166  0.6103 -0.0588 -0.0507
  780MOL0     O 7526   7.616   1.665   9.037  0.3952 -0.0594  0.2690
  780MOL0     C 7527   7.749   1.629   9.015  0.1224 -0.5943  0.4650
  780MOL0     C 7528   7.799   1.635   8.877 -0.2597 -0.7650  0.2691
  780MOL0     C 7529   7.928   1.589   8.854 -0.3392 -0.6646  0.2029
  780MOL0     C 7530   7.965   1.556   8.709 -0.4179  0.3637 -0.9702
  780MOL0     C 7531   8.018   1.555   8.959 -0.3435  0.1511 -0.5894
  780MOL0     C 7532   8.158   1.505   8.939  0.2165  0.1857 -0.1179
  780MOL0     O 7533   8.216   1.444   9.048  0.1952  0.6336 -0.5340
  780MOL0     C 7534   8.343   1.396   9.063  0.5281  0.1524  0.6336
  780MOL0     C 7535   8.467   1.441   9.009  0.2337 -0.7968 -0.5971
  780MOL0     C 7536   8.587   1.374   9.040 -0.0333  1.2262 -0.7878
  780MOL0     C 7537   8.596   1.272   9.136 -0.7813  0.2970  0.0962
  780MOL0     O 7538   8.715   1.202   9.184  0.2395  0.1126  0.1391
  780MOL0     C 7539   8.823   1.292   9.217  0.8951  0.3599 -0.6156
  780MOL0     C 7540   8.919   1.207   9.293  0.2758  0.5580  0.1924
  780MOL0     C 7541   8.861   1.170   9.428  0.6857 -0.6251 -0.1665
  780MOL0     C 7542   8.965   1.085   9.500 -0.5794  0.0314  0.1473
  780MOL0     C 7543   8.914   1.045   9.631  0.1981 -0.2247 -0.6368
  780MOL0     C 7544   9.005   0.945   9.697 -0.2744 -0.0054  0.2309
  780MOL0     C 7545   9.145   1.005   9.718  0.2709 -0.3666  0.5198
  780MOL0     C 7546   9.213   0.923   9.823 -0.1590  0.7169 -0.4470
  780MOL0    Cl 7547   9.372   0.993   9.864  0.1752  0.1228  0.1585
  780MOL0     C 7548   8.473   1.220   9.178  0.4710  0.0637 -0.6772
  780MOL0     C 7549   8.350   1.285   9.144 -0.6701 -0.4734 -0.4402
  780MOL0     O 7550   8.222   1.542   8.840 -0.0370 -0.1152  0.5207
  780MOL0     C 7551   7.972   1.562   9.093 -0.6090 -0.0481  0.5339
  780MOL0     C 7552   7.838   1.581   9.122  0.5242  0.5506  0.6491
  780MOL0     N 7553   7.168   1.939   8.921 -0.1809 -0.1006  1.1864
  780MOL0     N 7554   7.052   1.878   8.914 -0.5669  0.2108 -0.7669
  780MOL0     C 7555   5.943   1.765   8.692  0.4005 -0.0954  0.1153
  780MOL0     C 7556   5.818   1.778   8.630 -0.2679 -0.2414  1.0821
  780MOL0     C 7557   5.456   1.897   8.450 -0.2405 -0.3516  0.3804
  780MOL0     C 7558   5.366   1.982   8.526  0.2545  0.0961  0.4467
  780MOL0     C 7559   5.230   1.974   8.512 -0.6349 -0.0958 -0.0542
  780MOL0     C 7560   5.174   1.874   8.431 -0.6337 -0.0385  0.4930
  780MOL0     O 7561   5.039   1.854   8.427 -0.7105  0.3158 -0.5595
  780MOL0     C 7562   4.984   1.891   8.304  0.4182 -0.4151  0.5112
  780MOL0     C 7563   4.859   1.974   8.309 -0.9164  0.5295  0.1908
  780MOL0     C 7564   4.872   2.099   8.407 -0.9517 -0.3008 -0.4064
  780MOL0     C 7565   4.743   2.191   8.411 -0.0900  0.1356  1.0263
  780MOL0     C 7566   4.735   2.269   8.289 -1.0395  0.3511  0.7293
  780MOL0     C 7567   4.721   2.338   8.189 -0.1962  0.5844  0.0255
  780MOL0     C 7568   5.258   1.791   8.363 -0.3723 -0.0860  0.4597
  780MOL0     C 7569   5.398   1.808   8.364 -0.1317  0.2412 -0.0275
  780MOL0     C 7570   5.477   1.729   8.266  0.0739 -0.5662 -0.1672
  780MOL0     H 7571   5.902   1.840   8.316 -2.4499  3.5099  1.0761
  780MOL0     H 7572   6.134   1.797   8.418 -0.5971 -2.8461 -1.5012
  780MOL0     H 7573   6.315   1.678   8.813  0.9202  1.7057  0.6397
  780MOL0     H 7574   6.152   1.701   8.878  2.0448 -0.3655  1.3182
  780MOL0     H 7575   6.319   1.934   8.752 -1.7466 -0.1996 -2.1405
  780MOL0     H 7576   6.166   1.939   8.833  0.7184  1.3431  1.5373
  780MOL0     H 7577   6.330   2.001   9.004  4.1337  1.3298  0.0573
  780MOL0     H 7578   6.260   1.834   9.028 -0.6578 -0.7155 -1.4931
  780MOL0     H 7579   6.496   1.767   8.910  1.4353  2.3466 -2.5140
  780MOL0     H 7580   6.539   1.930   8.925  0.2939  0.6124  0.4392
  780MOL0     H 7581   6.449   1.770   9.156  0.2236  0.1402  0.1394
  780MOL0     H 7582   6.520   1.935   9.168  0.3738  2.4890 -3.2274
  780MOL0     H 7583   6.669   1.749   9.240 -1.0490 -0.1976 -0.0702
  780MOL0     H 7584   6.652   1.673   9.082  1.8561  1.4672 -2.7687
  780MOL0     H 7585   6.770   1.944   9.152  1.2442  0.5018 -1.0614
  780MOL0     H 7586   6.749   1.884   8.976 -1.3889  0.2504  0.3398
  780MOL0     H 7587   6.909   1.731   9.184 -0.6392 -0.4645 -0.5911
  780MOL0     H 7588   6.878   1.689   9.020 -1.4804 -0.0510 -0.1756
  780MOL0     H 7589   7.121   1.867   9.228  2.2191 -1.3521 -0.1584
  780MOL0     H 7590   7.330   2.042   9.198  1.6953 -0.5561 -0.0259
  780MOL0     H 7591   7.366   2.099   9.039  1.7135  0.2405  1.2244
  780MOL0     H 7592   7.460   1.875   8.963  0.2564  1.4790 -0.4774
  780MOL0     H 7593   7.543   1.977   9.079  0.0315 -0.5599  0.9663
  780MOL0     H 7594   7.449   1.841   9.268 -1.0438  1.6538  0.4950
  780MOL0     H 7595   7.388   1.725   9.152  0.9931 -0.0058 -0.6971
  780MOL0     H 7596   7.678   1.798   9.188  1.0017  0.2012 -2.1199
  780MOL0     H 7597   7.603   1.654   9.245  0.6436 -0.0151 -0.0120
  780MOL0     H 7598   7.726   1.654   8.799 -0.3684 -0.4057  0.4581
  780MOL0     H 7599   7.973   1.447   8.705 -1.7058  0.1062  1.4374
  780MOL0     H 7600   8.057   1.610   8.681 -0.3078  0.9817  0.4759
  780MOL0     H 7601   7.882   1.591   8.647 -1.3961  0.4950  0.3529
  780MOL0     H 7602   8.479   1.527   8.944 -1.0190 -0.1801 -0.0333
  780MOL0     H 7603   8.674   1.420   8.994 -0.2828  0.8549 -1.6561
  780MOL0     H 7604   8.885   1.329   9.135  0.4252 -2.0247 -2.1015
  780MOL0     H 7605   8.787   1.377   9.276  0.9761 -0.0399  0.0192
  780MOL0     H 7606   8.944   1.112   9.244  1.1061  0.0956  1.4750
  780MOL0     H 7607   9.014   1.262   9.294 -0.0709  1.4803 -3.2867
  780MOL0     H 7608   8.779   1.098   9.415 -0.9582  0.1963  3.9659
  780MOL0     H 7609   8.828   1.260   9.480  0.7618  0.5630 -2.0838
  780MOL0     H 7610   9.065   1.128   9.499  0.1976 -1.6860 -0.3089
  780MOL0     H 7611   8.985   0.995   9.440  0.7773  0.2469  0.2535
  780MOL0     H 7612   8.902   1.135   9.692  1.1713 -0.1877 -0.4759
  780MOL0     H 7613   8.816   0.997   9.621  0.0739 -0.2137  0.3991
  780MOL0     H 7614   9.026   0.856   9.637  0.6922 -1.0669  2.0365
  780MOL0     H 7615   8.954   0.916   9.789  1.6810 -1.1741  1.0183
  780MOL0     H 7616   9.135   1.105   9.761 -0.8086  0.0491 -0.6455
  780MOL0     H 7617   9.203   1.007   9.625  2.2561 -2.5933  1.5983
  780MOL0     H 7618   9.216   0.818   9.792  0.7895  0.3298  0.8424
  780MOL0     H 7619   9.144   0.922   9.908  0.4341 -2.3898  0.1225
  780MOL0     H 7620   8.492   1.137   9.245  1.1569 -0.1400 -1.1174
  780MOL0     H 7621   8.261   1.242   9.189 -1.0394  2.3167  1.7559
  780MOL0     H 7622   8.023   1.541   9.186 -0.4055  3.0852  1.2093
  780MOL0     H 7623   7.812   1.580   9.227 -0.8594  2.0625  0.3558
  780MOL0     H 7624   5.948   1.748   8.799  2.6419  0.2760  0.1302
  780MOL0     H 7625   5.737   1.753   8.697  2.2780 -3.0237  3.4445
  780MOL0     H 7626   5.391   2.056   8.601 -0.6257 -1.4598  2.3639
  780MOL0     H 7627   5.168   2.038   8.573 -0.1501  1.8178 -1.4696
  780MOL0     H 7628   5.054   1.944   8.238  0.4294 -2.9640 -1.7031
  780MOL0     H 7629   4.956   1.799   8.251  0.8086 -0.9675  1.2460
  780MOL0     H 7630   4.766   1.921   8.334 -1.7649  2.3666  1.2655
  780MOL0     H 7631   4.847   2.011   8.207  0.7562  2.1865  0.5503
  780MOL0     H 7632   4.888   2.058   8.507 -1.8433  0.1964 -0.0520
  780MOL0     H 7633   4.960   2.161   8.386 -0.4130  0.1848  2.8158
  780MOL0     H 7634   4.739   2.264   8.492 -0.2280  0.0561  1.0917
  780MOL0     H 7635   4.652   2.131   8.398  2.2693 -3.6110  0.1229
  780MOL0     H 7636   4.697   2.399   8.104 -2.2008 -1.4997 -1.0268
  780MOL0     H 7637   5.215   1.715   8.299 -0.4298  0.9973 -0.8384
  780MOL0     H 7638   5.418   1.710   8.175 -0.3787  3.6022 -0.9214
  780MOL0     H 7639   5.557   1.795   8.231 -0.4501 -0.3460 -0.9806
  780MOL0     H 7640   5.517   1.637   8.310 -0.9530 -1.2441 -0.6113
  781MOL0     O 7641   7.005   2.670   8.965  0.2086  0.5489  0.5906
  781MOL0     C 7642   7.003   2.727   9.079 -0.5385  0.5215  0.4192
  781MOL0     O 7643   7.101   2.820   9.124 -0.2642  0.0206  0.1273
  781MOL0     C 7644   7.231   2.818   9.064  0.3246  0.3133 -0.2963
  781MOL0     C 7645   7.304   2.933   9.070 -0.0278  0.2154 -0.5597
  781MOL0     C 7646   7.438   2.948   9.020 -0.0591  0.1315 -0.8623
  781MOL0     C 7647   7.502   2.833   8.983 -0.2300 -0.0250 -0.0048
  781MOL0     O 7648   7.630   2.835   8.964  0.0678 -0.0906 -0.1764
  781MOL0     C 7649   7.713   2.732   9.023 -0.4572 -0.0576  0.4008
  781MOL0     C 7650   7.851   2.759   8.966 -0.7735  0.1572 -0.3893
  781MOL0     C 7651   7.964   2.684   9.035  0.0797  0.2372 -0.0709
  781MOL0     C 7652   8.114   2.705   8.982  0.0380 -0.1118 -0.2983
  781MOL0     C 7653   8.207   2.609   9.051  1.0141 -0.7054 -0.1121
  781MOL0     C 7654   8.351   2.644   9.023 -0.1686 -0.0248  0.9591
  781MOL0     C 7655   8.458   2.552   9.093  0.6913 -0.1953  0.4325
  781MOL0     C 7656   8.601   2.603   9.049  0.8407  0.7959  0.8459
  781MOL0     N 7657   8.697   2.502   9.090  0.5600 -0.2543 -0.1515
  781MOL0     C 7658   8.740   2.472   9.219 -0.7008  0.6637 -0.0892
  781MOL0     C 7659   8.852   2.384   9.199  0.2318 -0.5707  0.0898
  781MOL0     C 7660   8.925   2.306   9.309 -0.5956 -0.0269 -0.0213
  781MOL0     C 7661   9.055   2.229   9.259 -0.2689 -0.5911  0.2366
  781MOL0     C 7662   9.155   2.208   9.375 -0.5503 -0.1684  0.7607
  781MOL0     C 7663   9.279   2.123   9.339  0.5299  0.2028 -0.6193
  781MOL0     O 7664   9.343   2.196   9.239  0.2747 -0.2241  0.3184
  781MOL0     C 7665   9.467   2.165   9.204  0.6178 -1.1877 -0.8108
  781MOL0     C 7666   9.566   2.084   9.268 -0.0130 -0.5851 -0.4447
  781MOL0     C 7667   9.701   2.065   9.215  0.1833 -0.2439  0.7929
  781MOL0     C 7668   9.807   2.001   9.307 -0.9149  0.1760  0.4825
  781MOL0     C 7669   9.735   2.127   9.093 -0.0217 -0.0233  0.7376
  781MOL0     C 7670   9.873   2.129   9.040  0.1299 -0.1747  0.5797
  781MOL0     O 7671   9.981   2.115   9.118  0.4464  0.3166  0.0822
  781MOL0     C 7672  10.109   2.091   9.072  0.7502 -0.5236 -0.4346
  781MOL0     C 7673  10.146   1.961   9.046  0.0476  0.2812  0.1332
  781MOL0     C 7674  10.271   1.935   8.988  0.3850 -0.5972  0.2604
  781MOL0     C 7675  10.360   2.036   8.952 -0.3206 -0.2336  0.4654
  781MOL0     O 7676  10.480   1.996   8.894 -0.1846 -0.1986 -0.5071
  781MOL0     C 7677  10.591   2.086   8.894  0.3249  0.1312 -0.9985
  781MOL0     C 7678  10.715   1.997   8.898  0.1590 -1.3008  0.2597
  781MOL0     C 7679  10.711   1.884   8.801  0.2442 -0.2489  0.2981
  781MOL0     C 7680  10.840   1.806   8.799  0.2437  0.6060 -0.2378
  781MOL0     C 7681  10.852   1.708   8.682 -0.1817  1.3139 -0.1687
  781MOL0     C 7682  10.981   1.622   8.702  0.7110  0.4955 -0.1138
  781MOL0     C 7683  11.010   1.561   8.566  0.1293  0.4186 -0.4315
  781MOL0     C 7684  11.138   1.486   8.571 -0.6409  0.3642 -0.4472
  781MOL0    Cl 7685  11.125   1.338   8.672 -0.0210  0.5666 -0.5145
  781MOL0     C 7686  10.328   2.168   8.984  0.4099  0.2863  0.3623
  781MOL0     C 7687  10.203   2.199   9.044  0.7463  0.0418  0.5378
  781MOL0     O 7688   9.882   2.126   8.918  0.1333 -0.3989  0.1356
  781MOL0     C 7689   9.634   2.190   9.022 -0.1526 -0.2541 -0.1606
  781MOL0     C 7690   9.512   2.210   9.080  0.3420  0.7501  0.1669
  781MOL0     N 7691   8.877   2.396   9.066  0.0303  1.1848 -0.0354
  781MOL0     N 7692   8.789   2.458   9.000 -0.2651 -0.0326 -0.1616
  781MOL0     C 7693   7.439   2.715   8.966  0.2384 -0.5749  0.5670
  781MOL0     C 7694   7.306   2.701   9.006  0.1504 -0.7209 -0.4009
  781MOL0     C 7695   6.883   2.724   9.167 -0.2572 -0.7175  0.8828
  781MOL0     C 7696   6.902   2.744   9.307  0.1951  0.2957  0.7220
  781MOL0     C 7697   6.797   2.726   9.397  0.3958 -0.8443 -0.1301
  781MOL0     C 7698   6.668   2.710   9.358 -0.0447 -0.0144 -0.5395
  781MOL0     O 7699   6.564   2.707   9.455  0.3242  0.1138 -0.2213
  781MOL0     C 7700   6.432   2.665   9.418  0.3592 -0.0731 -0.1639
  781MOL0     C 7701   6.356   2.621   9.550 -0.1721 -0.1531  0.0536
  781MOL0     C 7702   6.214   2.579   9.524  0.3590 -0.1759  0.1040
  781MOL0     C 7703   6.146   2.519   9.650 -1.3997  0.0894 -1.0631
  781MOL0     C 7704   6.007   2.496   9.627 -0.4142 -0.3375 -0.2132
  781MOL0     C 7705   5.888   2.487   9.604 -0.6574 -0.1993  1.8910
  781MOL0     C 7706   6.650   2.698   9.224 -0.6255 -0.6167 -0.1339
  781MOL0     C 7707   6.751   2.698   9.122  0.7125 -0.4198 -0.0364
  781MOL0     C 7708   6.711   2.661   8.977 -0.0813 -0.1451 -0.3547
  781MOL0     H 7709   7.263   3.023   9.115  1.4764  1.2967 -1.2333
  781MOL0     H 7710   7.489   3.042   9.039 -1.4105  0.4088  1.8912
  781MOL0     H 7711   7.690   2.629   8.993 -2.4719  0.1178  1.1624
  781MOL0     H 7712   7.725   2.740   9.131 -1.0035  1.5532  0.3602
  781MOL0     H 7713   7.851   2.740   8.858 -2.5468  0.6291 -0.4896
  781MOL0     H 7714   7.876   2.865   8.970 -0.0158 -0.0303  0.2159
  781MOL0     H 7715   7.962   2.709   9.141  1.9429 -0.1960  0.0989
  781MOL0     H 7716   7.957   2.575   9.020  0.4864  0.0842  0.8247
  781MOL0     H 7717   8.114   2.681   8.876 -2.2856 -1.2983 -0.0914
  781MOL0     H 7718   8.160   2.803   8.998  1.7585 -1.0591  1.0233
  781MOL0     H 7719   8.174   2.509   9.020  0.1094 -0.7401  0.8714
  781MOL0     H 7720   8.181   2.609   9.158 -0.1627 -1.4946 -0.3733
  781MOL0     H 7721   8.372   2.640   8.916 -0.9578 -2.1267  0.8402
  781MOL0     H 7722   8.365   2.748   9.054 -1.3486 -0.3456  2.7212
  781MOL0     H 7723   8.427   2.447   9.084 -3.6035  0.6368  2.4612
  781MOL0     H 7724   8.445   2.566   9.201  0.9522 -1.9714  0.7294
  781MOL0     H 7725   8.601   2.604   8.940  0.1951 -1.4030  0.7735
  781MOL0     H 7726   8.629   2.700   9.091 -0.0747  1.7578 -0.6584
  781MOL0     H 7727   8.697   2.506   9.312 -1.3946  0.8850 -0.4789
  781MOL0     H 7728   8.856   2.229   9.345 -0.0307 -2.1516 -3.1453
  781MOL0     H 7729   8.953   2.368   9.395 -0.3151  1.4957 -1.1631
  781MOL0     H 7730   9.018   2.133   9.221 -3.2010  0.5861 -0.1159
  781MOL0     H 7731   9.094   2.286   9.175 -1.0758 -2.2435 -1.3402
  781MOL0     H 7732   9.195   2.305   9.404 -0.2336 -0.5066  1.4927
  781MOL0     H 7733   9.106   2.152   9.455  1.4945 -1.2382  1.3457
  781MOL0     H 7734   9.340   2.124   9.430  2.3561 -3.1163 -1.6277
  781MOL0     H 7735   9.259   2.024   9.298  2.7571  0.3774 -2.3052
  781MOL0     H 7736   9.560   2.032   9.363 -0.4458 -1.9464 -1.1827
  781MOL0     H 7737   9.874   2.076   9.350 -0.5320 -1.2655  2.5889
  781MOL0     H 7738   9.869   1.935   9.247 -1.6257 -0.5063  0.4753
  781MOL0     H 7739   9.755   1.948   9.388  0.4631 -0.1900  1.1499
  781MOL0     H 7740  10.079   1.881   9.076 -1.2814  1.3441  0.0971
  781MOL0     H 7741  10.294   1.830   8.974  3.0209  0.1568 -2.0929
  781MOL0     H 7742  10.576   2.161   8.816 -2.7748 -0.6830 -1.3304
  781MOL0     H 7743  10.599   2.153   8.980 -0.3580 -0.5991 -0.3427
  781MOL0     H 7744  10.805   2.056   8.883  0.3804 -1.4298  1.0258
  781MOL0     H 7745  10.719   1.954   8.999 -1.5596 -1.4874  0.2887
  781MOL0     H 7746  10.691   1.923   8.700 -1.1756  1.8036  1.2860
  781MOL0     H 7747  10.628   1.814   8.810  1.1517 -1.0996  3.3173
  781MOL0     H 7748  10.859   1.753   8.893 -1.1823  0.0319 -0.2454
  781MOL0     H 7749  10.924   1.874   8.785  1.0631 -0.2297  0.4736
  781MOL0     H 7750  10.765   1.643   8.671 -0.2906  0.9047  2.4750
  781MOL0     H 7751  10.847   1.760   8.586 -5.2811  1.1049 -0.2709
  781MOL0     H 7752  10.954   1.544   8.774 -1.7727  1.3550 -0.0264
  781MOL0     H 7753  11.064   1.682   8.741  0.6449  0.5930 -0.1221
  781MOL0     H 7754  11.019   1.644   8.495 -1.0321  0.5601 -0.4360
  781MOL0     H 7755  10.940   1.486   8.527  0.7395 -0.2250 -0.3081
  781MOL0     H 7756  11.224   1.538   8.614  2.1416 -3.1493 -1.2194
  781MOL0     H 7757  11.161   1.448   8.471 -1.9778 -1.7225 -0.0341
  781MOL0     H 7758  10.387   2.256   8.963  1.6122 -0.7402 -0.8015
  781MOL0     H 7759  10.172   2.300   9.068 -0.4470 -0.2460  0.2997
  781MOL0     H 7760   9.660   2.227   8.923 -2.2784  1.2628 -0.2057
  781MOL0     H 7761   9.437   2.258   9.018  1.3959  0.6487 -1.2357
  781MOL0     H 7762   7.498   2.637   8.918  0.7864 -0.8177  1.6119
  781MOL0     H 7763   7.254   2.606   9.008  0.0773 -0.6757  0.0914
  781MOL0     H 7764   7.000   2.757   9.352  0.7901 -2.0088  0.2293
  781MOL0     H 7765   6.818   2.723   9.503 -0.1554 -2.1637 -0.0394
  781MOL0     H 7766   6.376   2.748   9.372  1.8260  0.6982 -0.6224
  781MOL0     H 7767   6.427   2.576   9.354  2.8187  0.3439 -1.0564
  781MOL0     H 7768   6.341   2.702   9.622 -2.7773 -0.6554  0.1814
  781MOL0     H 7769   6.410   2.539   9.599 -0.0602  0.5510  1.1494
  781MOL0     H 7770   6.161   2.662   9.477 -1.6364 -2.5756 -2.2198
  781MOL0     H 7771   6.212   2.507   9.441 -0.8759 -0.3324  0.2545
  781MOL0     H 7772   6.153   2.581   9.740  1.7500 -2.2986  0.5566
  781MOL0     H 7773   6.198   2.425   9.674  2.1032  2.1184 -0.0022
  781MOL0     H 7774   5.786   2.479   9.573 -0.3290  2.6099 -0.3867
  781MOL0     H 7775   6.548   2.685   9.189 -1.4017 -0.3444  1.9196
  781MOL0     H 7776   6.759   2.731   8.908  1.3936 -0.3408  0.4155
  781MOL0     H 7777   6.750   2.563   8.947 -3.5002 -2.2491  1.4766
  781MOL0     H 7778   6.603   2.667   8.961  0.3223  4.5516 -3.0836
  782MOL0     O 7779   9.505   0.106   8.949  0.1547  0.1935  0.5733
  782MOL0     C 7780   9.568   0.174   9.026  0.0994 -0.1978 -0.7709
  782MOL0     O 7781   9.639   0.282   8.992  0.5515  0.0323 -0.6320
  782MOL0     C 7782   9.670   0.285   8.860 -0.1026 -0.5891  0.5026
  782MOL0     C 7783   9.588   0.349   8.758  0.0139 -0.6372  0.0376
  782MOL0     C 7784   9.625   0.370   8.621 -0.1805  0.7763 -0.7090
  782MOL0     C 7785   9.750   0.313   8.589 -0.8520  1.1249  0.7523
  782MOL0     O 7786   9.807   0.327   8.468  0.3188  0.5190 -0.0018
  782MOL0     C 7787   9.747   0.415   8.375  0.2948 -0.5094 -0.4651
  782MOL0     C 7788   9.861   0.478   8.294  0.3834 -0.5676 -0.0045
  782MOL0     C 7789   9.921   0.381   8.193  0.0169 -0.1346 -0.2574
  782MOL0     C 7790  10.056   0.424   8.123  0.2746  0.4914 -0.2605
  782MOL0     C 7791  10.126   0.302   8.052 -0.0823 -0.1747 -0.4893
  782MOL0     C 7792  10.245   0.348   7.965 -0.0294  0.1528 -0.7629
  782MOL0     C 7793  10.351   0.242   7.941 -0.4543 -0.3404 -0.6590
  782MOL0     C 7794  10.445   0.302   7.830 -0.2270  0.4144  0.8780
  782MOL0     N 7795  10.559   0.208   7.810  0.0168 -0.1467 -0.3524
  782MOL0     C 7796  10.587   0.138   7.698  0.5091  0.5316  1.0120
  782MOL0     C 7797  10.715   0.111   7.707 -0.3852 -0.5787 -0.0846
  782MOL0     C 7798  10.785   0.014   7.612  0.0433  0.5776  0.4967
  782MOL0     C 7799  10.944   0.012   7.611  0.0082 -0.5072  0.2216
  782MOL0     C 7800  10.994  -0.079   7.499 -0.3878  0.6724 -0.2595
  782MOL0     C 7801  11.142  -0.109   7.514 -0.0037  0.3355 -0.1452
  782MOL0     O 7802  11.211   0.008   7.476 -0.5929  0.0446  0.2652
  782MOL0     C 7803  11.336   0.033   7.522  0.6960 -0.1661  0.2903
  782MOL0     C 7804  11.372   0.171   7.531 -0.7583  0.0311  0.2289
  782MOL0     C 7805  11.503   0.215   7.562 -0.5808  0.0993  0.1712
  782MOL0     C 7806  11.525   0.364   7.548  0.0128 -0.1741 -0.5395
  782MOL0     C 7807  11.599   0.116   7.594  0.1515 -0.1931  0.3609
  782MOL0     C 7808  11.736   0.149   7.645 -0.3281  0.4302  0.2641
  782MOL0     O 7809  11.795   0.058   7.728 -0.2003 -0.2163 -0.7955
  782MOL0     C 7810  11.922   0.083   7.767 -0.3139  0.0477 -0.4959
  782MOL0     C 7811  12.029   0.080   7.679 -0.2855  0.1171  0.4012
  782MOL0     C 7812  12.161   0.104   7.722  0.1728 -0.6925 -0.1561
  782MOL0     C 7813  12.191   0.132   7.855  0.3507  0.1087 -0.3230
  782MOL0     O 7814  12.327   0.144   7.884 -0.1769 -0.2438  0.0624
  782MOL0     C 7815  12.373   0.138   8.020 -0.0284  0.4987  0.4382
  782MOL0     C 7816  12.504   0.218   8.028 -0.0041 -0.4244 -0.9145
  782MOL0     C 7817  12.614   0.127   7.980  0.4059 -0.2768  0.1489
  782MOL0     C 7818  12.750   0.195   8.001 -0.2160  0.1522  0.5314
  782MOL0     C 7819  12.869   0.106   8.015 -0.0185 -0.6803  0.4302
  782MOL0     C 7820  12.992   0.192   8.020  0.3560  0.4352 -0.7688
  782MOL0     C 7821  13.115   0.111   8.053 -0.2401  0.6192  0.2245
  782MOL0     C 7822  13.250   0.193   8.028 -0.0986  0.4425 -0.1194
  782MOL0    Cl 7823  13.410   0.115   8.074 -0.3552  0.1191  0.4947
  782MOL0     C 7824  12.085   0.120   7.948  0.1245 -0.1591 -0.0194
  782MOL0     C 7825  11.951   0.093   7.899  0.9097 -0.3153 -0.4349
  782MOL0     O 7826  11.789   0.243   7.589  0.3999  0.2404  0.9610
  782MOL0     C 7827  11.562  -0.020   7.595 -0.1060 -0.2976 -1.1015
  782MOL0     C 7828  11.433  -0.066   7.557  0.6740 -0.9039  0.4928
  782MOL0     N 7829  10.766   0.166   7.821  0.2689  0.1720  0.0439
  782MOL0     N 7830  10.677   0.228   7.883  0.4422 -0.3187  0.2278
  782MOL0     C 7831   9.840   0.258   8.688 -0.5554  0.0264  0.2267
  782MOL0     C 7832   9.795   0.240   8.820  0.6418 -1.3803  0.0227
  782MOL0     C 7833   9.552   0.158   9.176 -0.5590  0.3806 -0.0884
  782MOL0     C 7834   9.583   0.278   9.255  0.2451 -0.0034 -0.0816
  782MOL0     C 7835   9.561   0.274   9.391 -0.0814 -0.0113  0.5229
  782MOL0     C 7836   9.513   0.160   9.454 -0.3306 -0.0452  0.3160
  782MOL0     O 7837   9.499   0.157   9.590  0.0443 -0.6984  0.2379
  782MOL0     C 7838   9.457   0.272   9.661  0.1606 -0.6663 -0.9195
  782MOL0     C 7839   9.376   0.228   9.787 -0.1619  0.0040 -0.8658
  782MOL0     C 7840   9.335   0.345   9.879 -0.3717 -0.0528 -0.6944
  782MOL0     C 7841   9.230   0.311   9.978 -0.5823 -0.2142  0.0201
  782MOL0     C 7842   9.108   0.386   9.953  0.5825 -0.5296 -0.0116
  782MOL0     C 7843   9.006   0.459   9.943  0.0871 -0.6270 -0.6703
  782MOL0     C 7844   9.498   0.036   9.379 -0.4490 -0.7981 -0.1790
  782MOL0     C 7845   9.520   0.037   9.243 -0.6545  0.6253 -0.7573
  782MOL0     C 7846   9.509  -0.092   9.166 -0.0092 -0.0809 -1.0483
  782MOL0     H 7847   9.487   0.384   8.778 -0.6774 -1.3157 -1.9615
  782MOL0     H 7848   9.552   0.407   8.550  0.8900  1.0763 -1.6898
  782MOL0     H 7849   9.710   0.501   8.432 -1.3783  0.4041 -2.7977
  782MOL0     H 7850   9.667   0.372   8.314 -0.6818  1.6665 -0.8493
  782MOL0     H 7851   9.829   0.570   8.244  0.0106  0.5881  2.2374
  782MOL0     H 7852   9.928   0.516   8.372 -1.5824 -0.7839  1.8959
  782MOL0     H 7853   9.920   0.281   8.237 -2.2898 -0.0245  0.0397
  782MOL0     H 7854   9.842   0.369   8.118  0.9924 -1.3513 -1.1433
  782MOL0     H 7855  10.038   0.500   8.047  1.4056  1.9542  0.8865
  782MOL0     H 7856  10.127   0.467   8.194 -0.6817  1.1591  0.3009
  782MOL0     H 7857  10.056   0.245   7.989 -1.7153 -0.9818  1.9172
  782MOL0     H 7858  10.165   0.227   8.121 -1.6232 -3.0412 -2.4670
  782MOL0     H 7859  10.203   0.400   7.878  2.0513  0.5249 -1.6163
  782MOL0     H 7860  10.300   0.418   8.029  2.0238 -2.4956  0.6046
  782MOL0     H 7861  10.302   0.152   7.903 -2.4952 -1.0128  3.0831
  782MOL0     H 7862  10.397   0.201   8.032 -0.1061  2.0917  0.3449
  782MOL0     H 7863  10.388   0.300   7.736  0.9085  0.4473  0.1781
  782MOL0     H 7864  10.473   0.407   7.825  0.3545  0.2314 -4.1249
  782MOL0     H 7865  10.515   0.094   7.630  0.8815  0.0906  0.8996
  782MOL0     H 7866  10.746   0.037   7.513  0.0107  0.6817  0.5329
  782MOL0     H 7867  10.752  -0.085   7.646  0.7720  0.5315  1.1006
  782MOL0     H 7868  10.987   0.112   7.595  2.3863 -1.7941 -2.4652
  782MOL0     H 7869  10.978  -0.032   7.705 -0.1219 -1.6578 -0.2646
  782MOL0     H 7870  10.948  -0.177   7.514 -1.2183  1.1492  0.4072
  782MOL0     H 7871  10.989  -0.026   7.403 -0.3435  2.0033  0.4397
  782MOL0     H 7872  11.158  -0.150   7.614 -2.6530  1.2441  0.7347
  782MOL0     H 7873  11.164  -0.189   7.443  1.4818 -1.4508  2.1862
  782MOL0     H 7874  11.306   0.249   7.494 -0.6883 -0.2525 -0.4961
  782MOL0     H 7875  11.595   0.387   7.467 -1.5712 -1.3515 -2.3178
  782MOL0     H 7876  11.558   0.407   7.643 -1.2214 -2.0021  0.7730
  782MOL0     H 7877  11.430   0.412   7.524  0.6269  0.1303 -2.5100
  782MOL0     H 7878  12.015   0.058   7.574  0.3756  1.9289 -0.0990
  782MOL0     H 7879  12.241   0.108   7.650 -2.3148  1.9915 -3.0655
  782MOL0     H 7880  12.307   0.191   8.088 -0.4643  1.3055 -0.5758
  782MOL0     H 7881  12.390   0.034   8.047 -3.0167 -0.0273  0.6628
  782MOL0     H 7882  12.503   0.309   7.967 -0.9124  0.4282  0.3456
  782MOL0     H 7883  12.515   0.252   8.131 -3.3153 -0.2254 -0.5205
  782MOL0     H 7884  12.590   0.084   7.882 -1.4325 -1.5976  1.1141
  782MOL0     H 7885  12.616   0.044   8.052 -1.2560  0.4307  1.0561
  782MOL0     H 7886  12.748   0.251   8.094 -1.2692  0.8554  0.1095
  782MOL0     H 7887  12.768   0.264   7.917 -0.0977  0.3231  0.6976
  782MOL0     H 7888  12.864   0.031   8.094 -1.2830  1.1982  2.2393
  782MOL0     H 7889  12.884   0.052   7.921 -0.5303 -1.6739  0.9106
  782MOL0     H 7890  12.983   0.262   8.103  1.7844  1.2187 -1.2423
  782MOL0     H 7891  13.019   0.239   7.924  1.0990 -1.9904 -1.8440
  782MOL0     H 7892  13.108   0.022   7.990 -1.2430  1.4112 -0.8251
  782MOL0     H 7893  13.124   0.076   8.156  1.3229  1.0121  0.2562
  782MOL0     H 7894  13.241   0.290   8.078 -2.6303 -0.3216  1.0494
  782MOL0     H 7895  13.257   0.209   7.920 -0.1356 -1.9009 -0.5086
  782MOL0     H 7896  12.097   0.131   8.055 -0.2853 -1.3554  0.1624
  782MOL0     H 7897  11.867   0.080   7.967  0.3032  2.2092 -0.5867
  782MOL0     H 7898  11.635  -0.092   7.632  0.7582  1.4185  0.7015
  782MOL0     H 7899  11.403  -0.170   7.562  0.4805 -0.8093  1.3277
  782MOL0     H 7900   9.945   0.240   8.669 -0.4295  1.4419 -0.6045
  782MOL0     H 7901   9.862   0.203   8.897 -3.2996  2.2338  6.0419
  782MOL0     H 7902   9.624   0.366   9.206  2.4403 -1.6698 -1.4713
  782MOL0     H 7903   9.579   0.360   9.456  2.9090  0.8009 -1.2407
  782MOL0     H 7904   9.535   0.343   9.688 -0.0043 -1.0052  0.5193
  782MOL0     H 7905   9.393   0.328   9.592  1.5276  0.9509 -0.9197
  782MOL0     H 7906   9.448   0.164   9.839 -0.4064  1.3993  1.3092
  782MOL0     H 7907   9.287   0.177   9.748  0.4774  0.6626 -3.3142
  782MOL0     H 7908   9.409   0.405   9.933 -0.6209 -2.2218  2.3404
  782MOL0     H 7909   9.296   0.426   9.817 -0.8487 -0.2626 -0.6750
  782MOL0     H 7910   9.255   0.334  10.082 -2.0980 -3.1722  1.1661
  782MOL0     H 7911   9.202   0.205   9.981 -5.5867  0.8837  1.1633
  782MOL0     H 7912   8.922   0.522   9.919  0.3614  0.2077  0.4718
  782MOL0     H 7913   9.480  -0.055   9.434  4.6842 -1.8659  0.2134
  782MOL0     H 7914   9.589  -0.113   9.095 -0.3566 -1.7715 -0.9953
  782MOL0     H 7915   9.518  -0.175   9.237  0.1581  1.2827  0.6042
  782MOL0     H 7916   9.409  -0.105   9.123 -0.8457 -1.1867  1.0781
  783MOL0     O 7917   6.364   0.289   7.842  0.3797  0.0691 -0.1384
  783MOL0     C 7918   6.468   0.351   7.838  0.0645 -0.0472 -0.2196
  783MOL0     O 7919   6.498   0.467   7.901  0.4318  0.1025 -0.2757
  783MOL0     C 7920   6.397   0.543   7.958 -0.4645 -0.1838 -0.5743
  783MOL0     C 7921   6.304   0.486   8.049  0.2636  0.1731 -0.6035
  783MOL0     C 7922   6.201   0.563   8.114  0.0448 -0.2570  0.3103
  783MOL0     C 7923   6.185   0.699   8.073  0.4230 -0.2726  0.5473
  783MOL0     O 7924   6.087   0.789   8.120  0.9673  0.8039 -0.7051
  783MOL0     C 7925   5.982   0.752   8.208  1.4209  0.3575 -0.8545
  783MOL0     C 7926   5.892   0.866   8.267  0.8880  0.8165  0.4786
  783MOL0     C 7927   5.783   0.813   8.352 -0.4301 -0.1151  0.3414
  783MOL0     C 7928   5.679   0.918   8.399  0.2351 -0.2664 -0.1563
  783MOL0     C 7929   5.726   1.025   8.490 -0.0350 -1.2775  0.0127
  783MOL0     C 7930   5.778   0.968   8.621 -0.0322  0.6520  0.5174
  783MOL0     C 7931   5.828   1.076   8.715  0.4224  0.6301  0.4629
  783MOL0     C 7932   5.977   1.056   8.743  0.4243 -0.1836  0.4688
  783MOL0     N 7933   6.060   1.061   8.625 -0.2298  0.3877  0.1966
  783MOL0     C 7934   6.130   0.954   8.581 -0.3020 -0.5125 -0.9166
  783MOL0     C 7935   6.213   1.000   8.491 -0.0069  0.2925 -0.0758
  783MOL0     C 7936   6.306   0.902   8.411  0.0868  0.4102 -0.0087
  783MOL0     C 7937   6.345   0.783   8.502 -0.4174  0.2812 -0.3831
  783MOL0     C 7938   6.441   0.683   8.432 -0.5467  0.6874 -0.4772
  783MOL0     C 7939   6.557   0.740   8.360 -0.0303  0.0481  0.1370
  783MOL0     O 7940   6.645   0.639   8.299  0.0633 -0.4337 -0.5306
  783MOL0     C 7941   6.771   0.668   8.254 -0.4202 -0.3648  0.3179
  783MOL0     C 7942   6.831   0.567   8.195  0.4238  0.0328  0.3394
  783MOL0     C 7943   6.958   0.569   8.154 -0.0325  0.3567  0.2925
  783MOL0     C 7944   6.998   0.439   8.087  0.4902 -0.9023  0.1934
  783MOL0     C 7945   7.040   0.684   8.174  0.1759  0.0138 -0.5178
  783MOL0     C 7946   7.186   0.683   8.140 -1.1277  0.7080  0.1915
  783MOL0     O 7947   7.256   0.803   8.153 -0.0858  0.1215 -0.2523
  783MOL0     C 7948   7.386   0.800   8.097  0.6400 -0.7615  0.6603
  783MOL0     C 7949   7.426   0.876   7.989  0.0363 -0.1723  1.1582
  783MOL0     C 7950   7.564   0.879   7.942  0.4361  0.6253 -1.0631
  783MOL0     C 7951   7.659   0.800   8.001 -0.3244  0.7762 -0.0539
  783MOL0     O 7952   7.781   0.788   7.931  1.0036  0.7473 -0.1649
  783MOL0     C 7953   7.896   0.714   7.981 -0.5295  0.6558 -0.4538
  783MOL0     C 7954   8.001   0.703   7.860 -0.1595 -0.2938 -0.1801
  783MOL0     C 7955   8.122   0.627   7.921  0.3494 -0.4644  0.0528
  783MOL0     C 7956   8.242   0.673   7.832  0.9001 -0.5972 -0.0132
  783MOL0     C 7957   8.371   0.618   7.884  0.1230 -0.3815  0.4955
  783MOL0     C 7958   8.380   0.468   7.895 -0.1763  0.3714  0.2745
  783MOL0     C 7959   8.524   0.429   7.940 -0.6102 -0.1068  0.9411
  783MOL0     C 7960   8.548   0.441   8.092 -0.4960  0.0860  0.5973
  783MOL0    Cl 7961   8.715   0.393   8.136 -0.5704 -0.1103  0.4751
  783MOL0     C 7962   7.615   0.712   8.110 -0.2964 -0.4336  1.0969
  783MOL0     C 7963   7.480   0.714   8.156 -0.7973 -0.4934 -0.8815
  783MOL0     O 7964   7.238   0.578   8.104 -0.3655 -0.0927  0.0521
  783MOL0     C 7965   6.977   0.793   8.237 -0.5195 -0.7204  0.3026
  783MOL0     C 7966   6.840   0.783   8.281 -0.2077 -0.5544 -0.8583
  783MOL0     N 7967   6.186   1.139   8.478 -0.9067 -0.0590  0.0412
  783MOL0     N 7968   6.098   1.169   8.561 -0.2220  0.4624 -0.5202
  783MOL0     C 7969   6.276   0.760   7.977 -0.7031  0.1501  0.4715
  783MOL0     C 7970   6.374   0.677   7.915 -0.2324 -0.2436 -0.3824
  783MOL0     C 7971   6.572   0.306   7.739 -0.1458 -0.9487 -0.2812
  783MOL0     C 7972   6.644   0.408   7.674 -0.1564 -0.5227 -0.0722
  783MOL0     C 7973   6.726   0.385   7.570  0.6060  0.0266  0.3129
  783MOL0     C 7974   6.756   0.259   7.534  0.2047 -0.3427  0.6874
  783MOL0     O 7975   6.844   0.234   7.435  0.3100 -0.0863  0.0758
  783MOL0     C 7976   6.930   0.121   7.442  0.1554 -0.5768 -0.3126
  783MOL0     C 7977   7.065   0.179   7.481  0.5500 -0.0876 -0.4038
  783MOL0     C 7978   7.163   0.065   7.520 -0.6542 -0.7312 -0.1138
  783MOL0     C 7979   7.201  -0.009   7.388 -0.2294  0.1100 -0.1798
  783MOL0     C 7980   7.331  -0.071   7.413 -0.4018  0.0746 -0.6393
  783MOL0     C 7981   7.445  -0.110   7.422 -0.0682 -0.4564 -0.1176
  783MOL0     C 7982   6.687   0.154   7.597 -0.5047  0.0559 -0.3541
  783MOL0     C 7983   6.597   0.172   7.706  0.2203 -1.0784  0.3299
  783MOL0     C 7984   6.527   0.049   7.769  0.5170 -0.7518  0.2755
  783MOL0     H 7985   6.315   0.383   8.082 -0.2060 -0.1705 -1.4717
  783MOL0     H 7986   6.141   0.511   8.188  1.0946 -0.6154  0.9329
  783MOL0     H 7987   6.018   0.675   8.277  1.2672 -1.4766 -2.6924
  783MOL0     H 7988   5.923   0.688   8.142  0.2662 -0.2292  0.6910
  783MOL0     H 7989   5.951   0.945   8.314 -0.1485  1.2626  1.0736
  783MOL0     H 7990   5.844   0.914   8.181  1.1519  1.1666  0.5262
  783MOL0     H 7991   5.725   0.742   8.293 -0.7741  0.8629 -0.5309
  783MOL0     H 7992   5.820   0.746   8.430 -1.9266 -5.8903 -3.2341
  783MOL0     H 7993   5.645   0.960   8.304 -0.8419  1.2787  0.8742
  783MOL0     H 7994   5.592   0.868   8.443  0.7339 -1.0743 -0.0696
  783MOL0     H 7995   5.644   1.092   8.519  0.7704  1.3288 -3.1718
  783MOL0     H 7996   5.806   1.075   8.436  1.7014 -2.5873  1.2426
  783MOL0     H 7997   5.701   0.911   8.674 -0.4924  0.2866 -0.5236
  783MOL0     H 7998   5.849   0.887   8.603 -0.7514  0.3011 -0.8637
  783MOL0     H 7999   5.782   1.068   8.814  2.6801  1.3449  1.6526
  783MOL0     H 8000   5.805   1.178   8.683 -0.3347  0.3252  0.0247
  783MOL0     H 8001   6.004   1.140   8.808 -0.6360  0.4651  0.1124
  783MOL0     H 8002   5.993   0.962   8.795  0.3677  0.6560  2.0538
  783MOL0     H 8003   6.109   0.853   8.612  1.0876 -0.2639  1.0390
  783MOL0     H 8004   6.393   0.953   8.367 -0.4405  0.1252 -1.4255
  783MOL0     H 8005   6.254   0.868   8.321 -1.2743 -1.0512  1.2885
  783MOL0     H 8006   6.407   0.822   8.584 -0.6147  0.1833 -0.1895
  783MOL0     H 8007   6.265   0.724   8.546 -1.9019  1.1896 -1.7530
  783MOL0     H 8008   6.479   0.611   8.505 -1.0707  1.0856  0.2008
  783MOL0     H 8009   6.379   0.636   8.355  0.1799  1.0210 -1.2822
  783MOL0     H 8010   6.525   0.806   8.279  2.5291  1.9140  0.5196
  783MOL0     H 8011   6.609   0.813   8.423  1.1972  0.6938 -1.5460
  783MOL0     H 8012   6.771   0.477   8.201 -1.5038  0.8714 -3.4205
  783MOL0     H 8013   6.912   0.372   8.073  0.0746 -0.3080 -0.1268
  783MOL0     H 8014   7.074   0.387   8.147  2.3662 -0.7025 -1.9112
  783MOL0     H 8015   7.038   0.462   7.988  3.0421 -0.9361  1.1443
  783MOL0     H 8016   7.346   0.933   7.944 -1.2467 -1.7940  1.3094
  783MOL0     H 8017   7.586   0.940   7.855  1.7530 -0.1608 -1.3210
  783MOL0     H 8018   7.949   0.761   8.064  1.3211  0.1507 -1.2896
  783MOL0     H 8019   7.859   0.621   8.025 -2.2003  1.8293  0.7414
  783MOL0     H 8020   7.946   0.635   7.794 -1.9909  0.1579  0.8179
  783MOL0     H 8021   8.027   0.798   7.812 -0.9613  0.2400  0.4034
  783MOL0     H 8022   8.099   0.520   7.915 -1.1904 -0.2086  0.8795
  783MOL0     H 8023   8.150   0.650   8.025 -2.2000 -3.0343  1.4429
  783MOL0     H 8024   8.234   0.782   7.831 -1.0733 -0.6888  1.3957
  783MOL0     H 8025   8.230   0.640   7.728 -1.1122 -1.2785  0.3889
  783MOL0     H 8026   8.444   0.655   7.811 -0.1475 -2.6409 -1.0194
  783MOL0     H 8027   8.399   0.664   7.979  1.8304  0.0904 -0.1832
  783MOL0     H 8028   8.362   0.437   7.792 -0.5380  0.7513  0.2222
  783MOL0     H 8029   8.303   0.420   7.956  0.4797 -3.1421 -1.4138
  783MOL0     H 8030   8.599   0.485   7.885  1.1121  0.7622  3.9318
  783MOL0     H 8031   8.531   0.323   7.916 -1.7045 -0.9494  3.8301
  783MOL0     H 8032   8.475   0.374   8.137  0.0366 -1.1898 -0.3546
  783MOL0     H 8033   8.521   0.543   8.120 -2.0014  0.2198 -1.1538
  783MOL0     H 8034   7.681   0.637   8.151  1.1914  0.8368  1.1381
  783MOL0     H 8035   7.449   0.654   8.241  0.3887 -0.4452 -0.3897
  783MOL0     H 8036   7.036   0.880   8.263 -1.6649 -0.6461  3.1088
  783MOL0     H 8037   6.810   0.857   8.355 -0.0028 -0.5200 -0.8115
  783MOL0     H 8038   6.252   0.859   7.940 -1.3503 -0.7759 -1.7706
  783MOL0     H 8039   6.406   0.724   7.823 -2.4276  0.9026 -0.6280
  783MOL0     H 8040   6.635   0.511   7.705 -0.5559 -0.3091 -0.8815
  783MOL0     H 8041   6.772   0.470   7.521  1.0880 -0.0607  0.6112
  783MOL0     H 8042   6.910   0.046   7.519  4.0531 -1.1696  0.3450
  783MOL0     H 8043   6.928   0.071   7.345  0.3834  2.1476 -1.8216
  783MOL0     H 8044   7.043   0.232   7.575 -0.2876  0.7807 -1.0672
  783MOL0     H 8045   7.104   0.246   7.404 -2.2834 -0.4460 -2.3310
  783MOL0     H 8046   7.246   0.115   7.572 -2.3668  2.4487 -0.1932
  783MOL0     H 8047   7.124  -0.012   7.586 -0.2345 -0.9230 -0.0818
  783MOL0     H 8048   7.209   0.070   7.313  0.0980 -0.1752 -0.4477
  783MOL0     H 8049   7.121  -0.082   7.370  0.2258 -0.4706  0.1181
  783MOL0     H 8050   7.537  -0.165   7.421  0.7334  0.6518 -3.7708
  783MOL0     H 8051   6.690   0.056   7.549 -3.1747 -0.3365  0.1154
  783MOL0     H 8052   6.515   0.051   7.878 -1.4372 -1.3597  0.1062
  783MOL0     H 8053   6.425   0.051   7.730  0.3442  3.0431  0.4908
  783MOL0     H 8054   6.582  -0.041   7.742 -1.9859 -2.4787  0.6063
  784MOL0     O 8055   1.087   6.139   1.783 -0.0241 -0.4087 -0.8345
  784MOL0     C 8056   0.976   6.096   1.819 -0.3950 -0.2563  0.5262
  784MOL0     O 8057   0.955   6.002   1.919 -0.7139  0.5481  0.0400
  784MOL0     C 8058   1.047   5.913   1.932 -0.4335  0.2809  0.6077
  784MOL0     C 8059   1.052   5.810   1.838 -0.1377  0.4391 -0.0453
  784MOL0     C 8060   1.140   5.711   1.864 -0.1437  0.1908 -0.0943
  784MOL0     C 8061   1.234   5.711   1.973  0.3279 -0.6485 -0.3832
  784MOL0     O 8062   1.318   5.602   1.986  0.3380 -0.4838 -0.5459
  784MOL0     C 8063   1.394   5.564   1.868  0.1186  0.7079 -0.3955
  784MOL0     C 8064   1.546   5.564   1.893  0.4062 -0.2287  0.0640
  784MOL0     C 8065   1.631   5.483   1.786 -0.1772  0.3981  0.4586
  784MOL0     C 8066   1.778   5.502   1.810  0.5158  1.2102 -0.0701
  784MOL0     C 8067   1.862   5.390   1.743 -0.6056  0.4120 -1.3715
  784MOL0     C 8068   1.994   5.444   1.682 -0.1879 -0.0471 -0.9629
  784MOL0     C 8069   2.086   5.333   1.647  0.3474 -0.7196 -0.7581
  784MOL0     C 8070   2.218   5.380   1.583  0.4312 -0.8162  0.1785
  784MOL0     N 8071   2.193   5.445   1.454  0.8187 -1.6734 -0.1236
  784MOL0     C 8072   2.104   5.404   1.352 -0.0182  0.7410 -0.6583
  784MOL0     C 8073   2.118   5.497   1.257  0.2049  0.1028  0.1423
  784MOL0     C 8074   2.035   5.494   1.129 -0.5545  0.6340  0.0093
  784MOL0     C 8075   1.922   5.600   1.123  0.2313  0.1328  0.4052
  784MOL0     C 8076   1.791   5.558   1.196  1.7106 -0.2097 -0.8691
  784MOL0     C 8077   1.674   5.653   1.157  0.8108  0.0322 -0.4762
  784MOL0     O 8078   1.616   5.616   1.035 -0.7175  0.5123 -0.8163
  784MOL0     C 8079   1.511   5.681   0.980 -0.5992 -0.3585 -0.2185
  784MOL0     C 8080   1.449   5.799   1.024  0.3956  0.1406 -0.3287
  784MOL0     C 8081   1.330   5.849   0.969  0.0921 -0.7092 -0.3066
  784MOL0     C 8082   1.277   5.977   1.034  0.4025 -0.2168  0.0918
  784MOL0     C 8083   1.272   5.784   0.857  0.2479  0.3426  0.0603
  784MOL0     C 8084   1.141   5.811   0.797  0.6814  0.0366  1.3045
  784MOL0     O 8085   1.098   5.713   0.709 -0.5555  0.2488 -0.3638
  784MOL0     C 8086   0.972   5.730   0.663  0.8137 -0.7759 -0.2514
  784MOL0     C 8087   0.863   5.722   0.746  0.5591  0.3094  0.6366
  784MOL0     C 8088   0.727   5.734   0.701 -0.0769 -0.5711  0.1570
  784MOL0     C 8089   0.705   5.769   0.570 -0.3189 -0.2211  0.4457
  784MOL0     O 8090   0.576   5.786   0.532 -0.6921  0.8168 -0.0065
  784MOL0     C 8091   0.492   5.875   0.607  0.8167  0.0724  0.3357
  784MOL0     C 8092   0.356   5.896   0.540 -0.4660  0.5673  0.8179
  784MOL0     C 8093   0.263   5.781   0.575 -0.9589  0.0402  0.1023
  784MOL0     C 8094   0.127   5.801   0.505  0.4695 -0.4189 -0.3705
  784MOL0     C 8095   0.029   5.685   0.522 -0.1570 -0.1268 -0.2464
  784MOL0     C 8096   0.004   5.644   0.673  1.3375 -0.4865  0.1661
  784MOL0     C 8097  -0.050   5.756   0.758  0.5421  0.0016 -0.1821
  784MOL0     C 8098  -0.066   5.727   0.910  0.0823 -0.0265  0.6670
  784MOL0    Cl 8099   0.099   5.674   0.977  0.4670 -0.6394  0.0617
  784MOL0     C 8100   0.812   5.778   0.481 -0.2115 -0.5491  0.6561
  784MOL0     C 8101   0.940   5.760   0.530 -0.1839  0.5467  0.1221
  784MOL0     O 8102   1.069   5.909   0.837  0.3906  0.2689  0.3059
  784MOL0     C 8103   1.346   5.675   0.799 -0.0296  0.5244 -0.2213
  784MOL0     C 8104   1.466   5.627   0.861  0.1092 -0.4941  0.0727
  784MOL0     N 8105   2.217   5.588   1.294  0.5331 -0.0008 -0.4269
  784MOL0     N 8106   2.257   5.555   1.411 -0.1030 -0.3145 -0.2588
  784MOL0     C 8107   1.221   5.812   2.069 -0.0730  0.2575 -0.0730
  784MOL0     C 8108   1.128   5.915   2.049  0.8427  0.6003 -0.6700
  784MOL0     C 8109   0.848   6.164   1.777  0.5494 -0.0206 -0.3222
  784MOL0     C 8110   0.870   6.291   1.726 -0.2694 -1.7159  0.4200
  784MOL0     C 8111   0.771   6.380   1.677  0.3096 -0.3575  0.2325
  784MOL0     C 8112   0.639   6.333   1.670  0.1557  1.0312 -0.4802
  784MOL0     O 8113   0.551   6.428   1.622 -0.6030  0.5085 -0.3811
  784MOL0     C 8114   0.407   6.394   1.618  0.9146 -0.7448 -0.1089
  784MOL0     C 8115   0.298   6.498   1.589 -0.8707  0.3417 -0.3904
  784MOL0     C 8116   0.274   6.605   1.697  1.1464  0.0508 -0.0934
  784MOL0     C 8117   0.176   6.717   1.657 -0.2534  0.8916 -0.4982
  784MOL0     C 8118   0.063   6.667   1.578  0.5350 -0.2286 -0.2353
  784MOL0     C 8119  -0.026   6.623   1.504 -0.5294 -0.6030 -0.1140
  784MOL0     C 8120   0.609   6.197   1.713 -0.0018 -0.2761 -0.5440
  784MOL0     C 8121   0.715   6.112   1.774  0.4841 -0.1193  1.0684
  784MOL0     C 8122   0.678   5.971   1.825 -0.4340 -0.4397 -0.0294
  784MOL0     H 8123   0.981   5.802   1.756  0.8590 -2.2381 -0.7779
  784MOL0     H 8124   1.141   5.629   1.794  1.4627  1.3480 -1.5054
  784MOL0     H 8125   1.373   5.640   1.793 -3.6090 -0.1895 -0.4724
  784MOL0     H 8126   1.372   5.462   1.835  0.0806  0.3217  0.7538
  784MOL0     H 8127   1.576   5.668   1.907  1.0892 -0.0205 -2.3911
  784MOL0     H 8128   1.567   5.521   1.991  2.3145  1.0548  0.2688
  784MOL0     H 8129   1.596   5.380   1.773  1.3394  0.0099 -0.8480
  784MOL0     H 8130   1.621   5.532   1.688 -0.8356 -2.6879 -1.1528
  784MOL0     H 8131   1.816   5.600   1.779  0.5971  1.0514 -0.4835
  784MOL0     H 8132   1.795   5.479   1.915 -0.8799 -1.2550 -0.3077
  784MOL0     H 8133   1.812   5.338   1.661 -1.3126 -2.1735  0.5712
  784MOL0     H 8134   1.893   5.306   1.805  2.3955  0.3886 -2.7009
  784MOL0     H 8135   1.991   5.508   1.593  3.9073  3.9544  1.3603
  784MOL0     H 8136   2.035   5.511   1.757 -1.3748 -1.1225  0.7180
  784MOL0     H 8137   2.034   5.248   1.600 -2.3352 -0.5901  1.7343
  784MOL0     H 8138   2.119   5.293   1.743 -0.7930  1.2521  0.5140
  784MOL0     H 8139   2.271   5.447   1.652 -2.4277  0.7439  0.9984
  784MOL0     H 8140   2.294   5.302   1.567  1.1268 -0.2952  0.8302
  784MOL0     H 8141   2.027   5.327   1.348  0.2098  0.5238 -0.9738
  784MOL0     H 8142   1.993   5.397   1.102  0.0646  0.7422 -1.4917
  784MOL0     H 8143   2.113   5.510   1.053  0.1388 -2.4734 -0.0788
  784MOL0     H 8144   1.970   5.694   1.150  0.6487 -0.0845  0.4347
  784MOL0     H 8145   1.895   5.600   1.017  1.1851 -0.4944  0.1370
  784MOL0     H 8146   1.762   5.458   1.162  1.5306  0.0390 -1.4484
  784MOL0     H 8147   1.805   5.566   1.304  4.0952  3.7289 -1.2855
  784MOL0     H 8148   1.589   5.648   1.225  1.2692  1.5595  0.2546
  784MOL0     H 8149   1.713   5.755   1.157  1.8964 -0.3168  1.9210
  784MOL0     H 8150   1.488   5.846   1.114 -2.9645  1.4127  0.6239
  784MOL0     H 8151   1.346   6.059   1.013  0.4166 -0.8420 -2.6370
  784MOL0     H 8152   1.288   5.974   1.143  1.5927  0.4872 -0.0020
  784MOL0     H 8153   1.172   6.004   1.019 -0.0698 -1.6826  0.5676
  784MOL0     H 8154   0.878   5.697   0.850 -1.9030 -0.1174  0.9276
  784MOL0     H 8155   0.652   5.717   0.777  1.2380 -0.4072  1.5386
  784MOL0     H 8156   0.473   5.836   0.708 -2.4473  0.2112 -0.1199
  784MOL0     H 8157   0.529   5.976   0.625  0.8454  0.1785 -0.2928
  784MOL0     H 8158   0.316   5.989   0.580 -0.1229  1.0481  0.0562
  784MOL0     H 8159   0.371   5.900   0.432  0.8546 -2.1530  0.7975
  784MOL0     H 8160   0.246   5.769   0.683 -1.2397 -0.7434 -0.0267
  784MOL0     H 8161   0.310   5.691   0.535  2.8020  1.1516  1.5194
  784MOL0     H 8162   0.154   5.808   0.399 -3.0001 -2.1699 -1.5320
  784MOL0     H 8163   0.088   5.897   0.541  2.0136 -0.8593  2.8073
  784MOL0     H 8164  -0.069   5.714   0.483 -0.6717  0.0236  1.1014
  784MOL0     H 8165   0.062   5.606   0.454 -0.6586  0.2099 -0.9032
  784MOL0     H 8166   0.089   5.609   0.732  1.6254  3.7103  2.6500
  784MOL0     H 8167  -0.060   5.555   0.673 -1.0487  1.1353 -0.5076
  784MOL0     H 8168  -0.143   5.782   0.707  1.3772  0.7003 -1.4179
  784MOL0     H 8169   0.011   5.846   0.750  1.2885 -0.5716 -1.4416
  784MOL0     H 8170  -0.129   5.637   0.916 -0.7711  0.3652 -1.5627
  784MOL0     H 8171  -0.117   5.813   0.953 -2.1079  0.3973 -2.5040
  784MOL0     H 8172   0.818   5.805   0.376 -1.6747  0.4430  0.8062
  784MOL0     H 8173   1.021   5.769   0.458  0.1423 -0.2939  0.3772
  784MOL0     H 8174   1.316   5.622   0.709 -0.6558  0.8444 -0.2082
  784MOL0     H 8175   1.513   5.538   0.821 -2.5354 -1.4999 -0.9696
  784MOL0     H 8176   1.280   5.796   2.159 -0.9450  0.4534  0.5379
  784MOL0     H 8177   1.096   5.982   2.128  1.6918 -0.3355  0.4923
  784MOL0     H 8178   0.972   6.326   1.730 -1.3323  1.6067  1.0575
  784MOL0     H 8179   0.800   6.479   1.643  2.2467 -0.8525  0.3752
  784MOL0     H 8180   0.393   6.316   1.542 -0.4431  1.1016 -1.8566
  784MOL0     H 8181   0.387   6.351   1.717  1.2867 -0.0810  0.2627
  784MOL0     H 8182   0.213   6.430   1.595 -0.5575  0.0712  1.4739
  784MOL0     H 8183   0.306   6.543   1.490 -0.4275 -2.0785 -1.5268
  784MOL0     H 8184   0.235   6.559   1.789 -3.2256  0.4857 -1.4921
  784MOL0     H 8185   0.373   6.649   1.709  1.1612  0.1574 -0.5966
  784MOL0     H 8186   0.221   6.801   1.603  1.5635  1.0214  1.1092
  784MOL0     H 8187   0.131   6.754   1.750  0.9599 -1.9260  1.3329
  784MOL0     H 8188  -0.111   6.595   1.446  0.0577 -0.8222 -0.8821
  784MOL0     H 8189   0.508   6.158   1.710  0.3100 -1.2885  0.9651
  784MOL0     H 8190   0.750   5.911   1.768  1.0899  1.3037 -0.0324
  784MOL0     H 8191   0.694   5.966   1.933  1.0897 -0.0530 -0.2178
  784MOL0     H 8192   0.578   5.937   1.797  0.1506 -0.6453 -1.9957
  785MOL0     O 8193   7.917  11.268   5.692 -0.0350  0.9433 -0.3187
  785MOL0     C 8194   7.836  11.213   5.760 -0.2226  1.2279  0.0635
  785MOL0     O 8195   7.868  11.137   5.865 -0.1611  0.0239 -0.2135
  785MOL0     C 8196   8.006  11.130   5.892 -0.2161 -0.0126  0.1992
  785MOL0     C 8197   8.066  11.003   5.909  0.1025  0.4845  0.3173
  785MOL0     C 8198   8.206  10.994   5.935 -0.4664 -0.4501 -0.8595
  785MOL0     C 8199   8.283  11.109   5.962  0.4979 -0.1706  0.3039
  785MOL0     O 8200   8.406  11.085   6.013 -0.9324 -0.3210 -0.5121
  785MOL0     C 8201   8.479  11.189   6.080  0.0885  0.2723 -0.1264
  785MOL0     C 8202   8.583  11.129   6.178 -0.6763 -0.9096  0.3105
  785MOL0     C 8203   8.661  11.025   6.108 -0.0678 -0.1092 -0.1066
  785MOL0     C 8204   8.754  11.084   5.994  0.2233 -0.0839  0.7285
  785MOL0     C 8205   8.862  10.991   5.953 -0.1035  0.7223 -0.1074
  785MOL0     C 8206   8.996  11.064   5.938  0.3537  0.3219  0.7186
  785MOL0     C 8207   9.114  10.978   5.917  0.6204  0.4836 -0.5605
  785MOL0     C 8208   9.233  11.071   5.886 -0.8534  0.2236 -0.5130
  785MOL0     N 8209   9.364  11.004   5.889  1.5353 -0.2903 -0.3177
  785MOL0     C 8210   9.406  10.925   5.785 -0.7102 -0.5243 -0.4556
  785MOL0     C 8211   9.538  10.907   5.822  1.3181 -0.1296 -0.5642
  785MOL0     C 8212   9.617  10.809   5.743 -0.3209 -0.1170  0.6550
  785MOL0     C 8213   9.721  10.747   5.846  0.0158 -1.1622  0.3453
  785MOL0     C 8214   9.649  10.645   5.926  0.6663  0.0290 -0.6267
  785MOL0     C 8215   9.707  10.630   6.069  0.5901 -0.0622  0.0684
  785MOL0     O 8216   9.839  10.592   6.045 -0.2425 -0.4615  0.4913
  785MOL0     C 8217   9.942  10.618   6.135  0.0839  0.6367  0.2713
  785MOL0     C 8218  10.065  10.626   6.089  1.0897 -0.7722  0.0764
  785MOL0     C 8219  10.177  10.641   6.176  0.3142 -0.0141 -0.0054
  785MOL0     C 8220  10.319  10.642   6.109  0.6482 -0.0202  0.8641
  785MOL0     C 8221  10.158  10.655   6.314  0.2448 -0.3399  0.5501
  785MOL0     C 8222  10.264  10.673   6.409  0.0122 -0.4592 -0.3019
  785MOL0     O 8223  10.392  10.699   6.365 -0.5460 -0.0193  0.0179
  785MOL0     C 8224  10.495  10.699   6.453  0.3389  0.3768  0.3826
  785MOL0     C 8225  10.503  10.767   6.576 -0.4737  0.5159 -0.0795
  785MOL0     C 8226  10.624  10.743   6.647  1.0020 -1.0833  0.2005
  785MOL0     C 8227  10.728  10.670   6.595  0.7173 -0.1065 -0.1036
  785MOL0     O 8228  10.835  10.672   6.674  0.4968 -1.0613 -0.0582
  785MOL0     C 8229  10.947  10.575   6.650  0.4984  0.0705 -0.5489
  785MOL0     C 8230  11.012  10.569   6.794 -0.1843 -0.5041 -0.0680
  785MOL0     C 8231  11.119  10.466   6.800  0.6562 -0.9400 -0.0960
  785MOL0     C 8232  11.248  10.502   6.720 -0.0316 -0.0410 -0.3348
  785MOL0     C 8233  11.367  10.427   6.761  0.2823  0.4997 -0.4084
  785MOL0     C 8234  11.483  10.473   6.658 -0.1691 -0.1370  0.2652
  785MOL0     C 8235  11.626  10.440   6.714  0.0515  0.1219 -0.5277
  785MOL0     C 8236  11.744  10.489   6.628  0.1576  0.0102  0.0022
  785MOL0    Cl 8237  11.741  10.438   6.459  0.0852  0.4688 -0.3799
  785MOL0     C 8238  10.725  10.618   6.467 -0.0606  0.2818 -0.0108
  785MOL0     C 8239  10.606  10.630   6.394 -0.2290  0.1180 -0.1541
  785MOL0     O 8240  10.237  10.652   6.527  0.1660 -0.3878 -0.3944
  785MOL0     C 8241  10.025  10.643   6.356 -0.7269  0.8933 -0.2728
  785MOL0     C 8242   9.920  10.622   6.267 -0.1503 -0.1735 -0.2717
  785MOL0     N 8243   9.560  10.977   5.944 -0.4468  0.1262  0.2240
  785MOL0     N 8244   9.449  11.036   5.983 -0.0487 -0.6338  0.6954
  785MOL0     C 8245   8.217  11.235   5.952 -0.3576 -0.4753  0.5639
  785MOL0     C 8246   8.083  11.242   5.921 -0.5886  0.4715 -0.1457
  785MOL0     C 8247   7.689  11.212   5.718  0.1167  0.8600 -0.4962
  785MOL0     C 8248   7.588  11.165   5.814 -0.1899 -1.2575  0.7171
  785MOL0     C 8249   7.455  11.180   5.780  0.1377 -0.5364 -0.3585
  785MOL0     C 8250   7.413  11.222   5.657  0.1316  0.1574  0.0259
  785MOL0     O 8251   7.273  11.230   5.632  0.3128  0.5951 -0.4299
  785MOL0     C 8252   7.237  11.193   5.496 -0.4672 -0.3204 -0.7003
  785MOL0     C 8253   7.088  11.224   5.471  0.1836 -0.1022 -0.1247
  785MOL0     C 8254   7.001  11.184   5.589 -0.0229 -0.8064  0.8162
  785MOL0     C 8255   6.850  11.214   5.557  1.0738  0.1396 -0.1967
  785MOL0     C 8256   6.770  11.190   5.672  0.8075  0.5000  0.1458
  785MOL0     C 8257   6.696  11.165   5.767  0.3885  0.2304 -0.5925
  785MOL0     C 8258   7.512  11.268   5.563 -0.3187 -0.4456  0.3492
  785MOL0     C 8259   7.649  11.266   5.595 -0.1276 -0.4494 -0.2690
  785MOL0     C 8260   7.738  11.319   5.486 -0.1474  0.4469  0.3345
  785MOL0     H 8261   8.014  10.910   5.886  2.0030 -0.4072 -0.6885
  785MOL0     H 8262   8.251  10.896   5.933 -2.3137 -1.4717  1.7959
  785MOL0     H 8263   8.414  11.259   6.133 -1.7839 -0.6728 -1.0452
  785MOL0     H 8264   8.537  11.247   6.008  0.8007 -1.2601 -0.8428
  785MOL0     H 8265   8.641  11.206   6.229 -2.4669  2.5136 -2.3805
  785MOL0     H 8266   8.528  11.080   6.259 -2.5409  1.3976  0.5658
  785MOL0     H 8267   8.723  10.972   6.180 -1.4059  1.6140  2.4466
  785MOL0     H 8268   8.599  10.943   6.069 -0.6415 -0.0486  0.6519
  785MOL0     H 8269   8.703  11.111   5.901  4.3333  0.2560 -1.6382
  785MOL0     H 8270   8.798  11.177   6.030 -0.0998  0.0022  0.9089
  785MOL0     H 8271   8.841  10.955   5.852 -0.5435 -0.2569  0.3166
  785MOL0     H 8272   8.875  10.908   6.023 -0.3296  2.4260  2.0473
  785MOL0     H 8273   9.000  11.129   5.850  2.7416 -0.3615  0.2224
  785MOL0     H 8274   9.018  11.135   6.018  1.8008 -0.0422  0.6800
  785MOL0     H 8275   9.097  10.903   5.840  1.4919 -1.0290  0.6446
  785MOL0     H 8276   9.140  10.924   6.009  2.5622  2.4354  0.1378
  785MOL0     H 8277   9.224  11.114   5.786  1.7101  0.1566 -0.8237
  785MOL0     H 8278   9.246  11.156   5.953 -0.6444 -0.3721  0.2199
  785MOL0     H 8279   9.349  10.880   5.705  0.6666 -1.1147 -1.1460
  785MOL0     H 8280   9.686  10.847   5.667 -1.7237 -1.4654 -1.3744
  785MOL0     H 8281   9.559  10.735   5.687  0.2635 -0.2594  0.2235
  785MOL0     H 8282   9.796  10.700   5.783  3.0761  2.5571  0.8114
  785MOL0     H 8283   9.771  10.827   5.902  0.1535  1.8865 -3.7327
  785MOL0     H 8284   9.542  10.664   5.936  0.3875 -0.2017 -2.7157
  785MOL0     H 8285   9.652  10.546   5.880 -1.5401 -0.1578 -0.4748
  785MOL0     H 8286   9.700  10.729   6.116  1.9908 -0.8209  1.9673
  785MOL0     H 8287   9.650  10.568   6.138  0.7035  0.5729  0.7340
  785MOL0     H 8288  10.083  10.623   5.982 -0.8617  3.2806 -0.5419
  785MOL0     H 8289  10.320  10.616   6.003 -1.0540  0.7876  0.6056
  785MOL0     H 8290  10.387  10.575   6.162  1.2000 -0.1390  0.0150
  785MOL0     H 8291  10.340  10.749   6.105  0.3042  0.0070 -0.8361
  785MOL0     H 8292  10.417  10.826   6.604 -2.4243 -2.6016  1.0443
  785MOL0     H 8293  10.624  10.802   6.738 -3.1693 -2.5143  1.3687
  785MOL0     H 8294  10.914  10.475   6.618  0.9824 -0.4497  0.5208
  785MOL0     H 8295  11.030  10.605   6.587  1.8651 -0.2907  1.0048
  785MOL0     H 8296  11.044  10.669   6.823 -4.9017  1.4714 -0.7843
  785MOL0     H 8297  10.932  10.538   6.862 -0.8712 -1.5005 -1.2713
  785MOL0     H 8298  11.071  10.372   6.773 -1.1225 -0.2294  0.4607
  785MOL0     H 8299  11.144  10.461   6.907 -0.7106  1.7774  0.4454
  785MOL0     H 8300  11.268  10.609   6.733  1.1463 -0.4720  1.7762
  785MOL0     H 8301  11.222  10.476   6.617  0.4174  1.4465 -0.8522
  785MOL0     H 8302  11.393  10.458   6.863 -2.3437  1.2090  0.1111
  785MOL0     H 8303  11.350  10.319   6.764  0.6612  0.4160  3.1396
  785MOL0     H 8304  11.490  10.577   6.625  2.8274 -0.7813 -1.4926
  785MOL0     H 8305  11.469  10.417   6.566  0.4196  0.0134  0.0836
  785MOL0     H 8306  11.626  10.331   6.719  2.5090  0.0200 -1.3360
  785MOL0     H 8307  11.640  10.479   6.816 -0.5596 -0.4869 -0.2001
  785MOL0     H 8308  11.842  10.471   6.673  0.9696  1.9582 -0.8673
  785MOL0     H 8309  11.741  10.599   6.629  2.6549  0.1759  2.2349
  785MOL0     H 8310  10.813  10.565   6.433  1.1685  0.5526  2.5317
  785MOL0     H 8311  10.596  10.599   6.290 -2.6379 -1.6167  0.5148
  785MOL0     H 8312   9.998  10.660   6.460  0.2959  1.2221 -0.0453
  785MOL0     H 8313   9.818  10.621   6.306 -1.0256 -1.5187 -2.4353
  785MOL0     H 8314   8.271  11.328   5.967 -0.3315 -0.6180  1.4194
  785MOL0     H 8315   8.038  11.340   5.930  0.0103  0.5451  3.4655
  785MOL0     H 8316   7.622  11.150   5.915 -3.1465  2.0892  2.4240
  785MOL0     H 8317   7.378  11.156   5.853  1.5511  0.8595  1.7291
  785MOL0     H 8318   7.297  11.244   5.421 -1.3833  0.7810 -0.7068
  785MOL0     H 8319   7.246  11.085   5.479 -0.3604 -0.1674 -1.6457
  785MOL0     H 8320   7.059  11.179   5.375  0.8955 -1.4869  0.2804
  785MOL0     H 8321   7.080  11.333   5.464 -0.1594 -0.1321 -0.1931
  785MOL0     H 8322   7.014  11.077   5.605 -0.5290 -0.5904  2.9316
  785MOL0     H 8323   7.029  11.244   5.676  2.9301  2.6763 -2.1670
  785MOL0     H 8324   6.821  11.139   5.483 -0.5969  0.0157  0.5163
  785MOL0     H 8325   6.838  11.315   5.516 -3.0327  0.8193  2.0932
  785MOL0     H 8326   6.633  11.154   5.853 -2.0126  1.7963 -2.0208
  785MOL0     H 8327   7.484  11.311   5.467 -0.4834  1.5915  1.2672
  785MOL0     H 8328   7.681  11.359   5.402  0.1694 -1.8412 -1.0544
  785MOL0     H 8329   7.798  11.399   5.529  0.2964 -0.5352  1.6120
  785MOL0     H 8330   7.801  11.234   5.458 -0.9937  0.4596 -1.8051
  786MOL0     O 8331   7.565  10.425   3.108 -0.0253  0.5696  0.3406
  786MOL0     C 8332   7.483  10.339   3.117  0.0422  0.4417 -0.2633
  786MOL0     O 8333   7.508  10.207   3.115  0.6924  0.3401  0.3338
  786MOL0     C 8334   7.635  10.159   3.107 -0.2705 -0.6755  0.8699
  786MOL0     C 8335   7.718  10.172   3.212  0.2708  0.2702 -0.4605
  786MOL0     C 8336   7.848  10.116   3.197  0.5564  0.1498  0.4683
  786MOL0     C 8337   7.895  10.067   3.075  0.9080 -0.8548 -0.2517
  786MOL0     O 8338   8.030  10.034   3.060 -0.2597  0.6533  0.1869
  786MOL0     C 8339   8.089   9.944   3.148 -0.6640 -0.6052 -0.3814
  786MOL0     C 8340   8.223   9.926   3.084 -0.3560  0.4217  0.8904
  786MOL0     C 8341   8.324   9.833   3.167  0.0900  0.5535  0.5880
  786MOL0     C 8342   8.432   9.770   3.075  0.5927 -0.9282 -0.9735
  786MOL0     C 8343   8.526   9.691   3.170  0.1194 -0.2436  0.1212
  786MOL0     C 8344   8.630   9.598   3.106 -0.0660  0.3514  0.3858
  786MOL0     C 8345   8.710   9.529   3.218  0.0154  0.1992 -0.1437
  786MOL0     C 8346   8.843   9.487   3.173  0.4648 -1.7485 -1.0050
  786MOL0     N 8347   8.853   9.362   3.104  0.6755 -0.5487  0.9253
  786MOL0     C 8348   8.898   9.240   3.149 -0.5106 -1.1810  0.2728
  786MOL0     C 8349   8.901   9.170   3.039  1.0861 -1.0207  0.1657
  786MOL0     C 8350   8.919   9.015   3.023  0.0760 -1.0090 -0.6701
  786MOL0     C 8351   9.060   8.978   3.051  0.3847  0.3940  0.3568
  786MOL0     C 8352   9.086   8.959   3.201  0.0973 -0.3515 -0.0583
  786MOL0     C 8353   9.234   8.953   3.247  0.5214 -0.7779 -1.0889
  786MOL0     O 8354   9.234   8.887   3.369 -0.0856  0.4306 -0.6326
  786MOL0     C 8355   9.351   8.878   3.440 -0.0072  0.1050 -0.1079
  786MOL0     C 8356   9.358   8.781   3.539 -0.2988 -0.6422 -0.4600
  786MOL0     C 8357   9.476   8.773   3.622 -0.5834  0.6282  0.0098
  786MOL0     C 8358   9.465   8.684   3.737  0.8139  0.6397 -1.1926
  786MOL0     C 8359   9.589   8.860   3.598 -0.5514 -0.3808  0.0722
  786MOL0     C 8360   9.711   8.854   3.684 -0.4599 -0.3008  0.6688
  786MOL0     O 8361   9.801   8.960   3.678  0.5341 -0.4212 -0.2524
  786MOL0     C 8362   9.901   8.981   3.763  0.0567  0.5121  0.8543
  786MOL0     C 8363   9.969   9.102   3.738 -0.1282 -0.0537 -0.3596
  786MOL0     C 8364  10.087   9.135   3.814 -0.4576 -0.4250 -0.2352
  786MOL0     C 8365  10.128   9.061   3.922 -0.3267  0.1059 -0.1138
  786MOL0     O 8366  10.245   9.115   3.981  0.1113  0.1746 -0.2102
  786MOL0     C 8367  10.267   9.073   4.118 -0.5111  0.3599 -1.2636
  786MOL0     C 8368  10.378   9.161   4.174 -0.6830 -0.0040  0.5215
  786MOL0     C 8369  10.394   9.126   4.323  0.0599 -0.4588 -0.1705
  786MOL0     C 8370  10.520   9.176   4.387 -0.2328  0.7329 -0.0837
  786MOL0     C 8371  10.529   9.149   4.537  0.6428 -0.6961 -0.2609
  786MOL0     C 8372  10.580   9.016   4.580 -0.1145  0.3229  0.2335
  786MOL0     C 8373  10.730   8.986   4.534  0.7004  0.7755 -0.0849
  786MOL0     C 8374  10.782   8.861   4.599  0.2939  0.1634  0.5294
  786MOL0    Cl 8375  10.695   8.719   4.552  0.1580  0.0379 -0.1973
  786MOL0     C 8376  10.049   8.955   3.967  0.1522 -0.3188  0.3132
  786MOL0     C 8377   9.945   8.914   3.882 -0.5069  0.2277 -0.7430
  786MOL0     O 8378   9.733   8.755   3.758 -0.3071  0.0581  0.3833
  786MOL0     C 8379   9.585   8.959   3.497 -0.0098 -1.1918  1.0616
  786MOL0     C 8380   9.463   8.968   3.424  0.8134 -0.1825 -0.2140
  786MOL0     N 8381   8.878   9.256   2.932  0.2330 -0.0451  0.3519
  786MOL0     N 8382   8.844   9.369   2.972 -0.7148  0.5356 -0.7852
  786MOL0     C 8383   7.808  10.071   2.961  0.5376 -0.0174  1.0325
  786MOL0     C 8384   7.680  10.115   2.978  1.8830 -0.0037 -0.5194
  786MOL0     C 8385   7.335  10.387   3.122  0.5166  0.1281  0.6490
  786MOL0     C 8386   7.240  10.287   3.126 -0.4016  0.4560  0.6806
  786MOL0     C 8387   7.102  10.312   3.108 -0.4614  0.3051 -1.2337
  786MOL0     C 8388   7.058  10.438   3.081 -1.0937 -0.8098  0.2681
  786MOL0     O 8389   6.927  10.459   3.063  0.5765  0.8060 -0.6107
  786MOL0     C 8390   6.856  10.454   3.193 -0.9412 -0.5573  0.6346
  786MOL0     C 8391   6.707  10.450   3.172 -0.9257 -0.0554  0.4055
  786MOL0     C 8392   6.667  10.299   3.176  0.3387 -0.3857  0.1725
  786MOL0     C 8393   6.512  10.288   3.172 -0.0230 -0.2939  0.1440
  786MOL0     C 8394   6.485  10.145   3.168 -0.0470  0.5208 -0.1293
  786MOL0     C 8395   6.444  10.028   3.164 -0.5266 -0.3585  0.1838
  786MOL0     C 8396   7.150  10.537   3.079  0.1400 -0.4491 -0.2007
  786MOL0     C 8397   7.289  10.521   3.107  0.4917  0.0515 -0.7458
  786MOL0     C 8398   7.382  10.638   3.098 -0.0194  0.4249 -0.0003
  786MOL0     H 8399   7.690  10.211   3.309 -2.1555 -2.9124  0.2570
  786MOL0     H 8400   7.918  10.108   3.279  0.3869  3.4164  1.0247
  786MOL0     H 8401   8.036   9.849   3.157 -1.9630  0.1083 -0.1130
  786MOL0     H 8402   8.092   9.981   3.251 -1.3705 -2.4344  0.3370
  786MOL0     H 8403   8.204   9.871   2.992  1.4200  1.1267  0.0562
  786MOL0     H 8404   8.262  10.025   3.058 -3.5848  1.6087  0.0819
  786MOL0     H 8405   8.375   9.903   3.234  0.3744  0.2210  0.7252
  786MOL0     H 8406   8.274   9.750   3.218 -2.4852  0.8906 -1.2081
  786MOL0     H 8407   8.386   9.699   3.006  0.0956 -2.3420  0.7287
  786MOL0     H 8408   8.479   9.851   3.019  0.3129 -0.1702 -0.1313
  786MOL0     H 8409   8.461   9.636   3.239 -1.7518  1.6614 -0.0070
  786MOL0     H 8410   8.588   9.767   3.219  3.9158 -2.1285 -1.3377
  786MOL0     H 8411   8.568   9.525   3.054  0.4131  1.1025 -1.3018
  786MOL0     H 8412   8.695   9.645   3.032  0.0596  0.1797  0.3866
  786MOL0     H 8413   8.666   9.441   3.266  1.6386 -0.5728 -0.0332
  786MOL0     H 8414   8.729   9.604   3.295 -1.7091  0.3218  0.1996
  786MOL0     H 8415   8.890   9.565   3.113 -1.2115 -0.0353 -0.2087
  786MOL0     H 8416   8.904   9.488   3.263  0.5457 -0.2418 -1.0467
  786MOL0     H 8417   8.894   9.208   3.253 -2.2343 -2.5276 -0.1695
  786MOL0     H 8418   8.896   8.983   2.921 -2.9392 -0.3823 -0.2872
  786MOL0     H 8419   8.850   8.967   3.093 -0.2516  2.1456  1.3931
  786MOL0     H 8420   9.083   8.885   2.998  0.5166  0.3233  0.5405
  786MOL0     H 8421   9.125   9.052   3.004 -1.3914 -0.3719 -3.8303
  786MOL0     H 8422   9.042   9.041   3.258 -0.7377  0.1968 -1.4241
  786MOL0     H 8423   9.028   8.870   3.228 -1.5771  0.1047 -1.8436
  786MOL0     H 8424   9.287   8.890   3.175  1.2470 -0.8997 -0.4597
  786MOL0     H 8425   9.271   9.056   3.242 -0.9560 -0.2238 -1.0043
  786MOL0     H 8426   9.280   8.707   3.544 -1.4001  0.3822 -1.7900
  786MOL0     H 8427   9.364   8.642   3.738 -0.3277  3.1514 -1.2471
  786MOL0     H 8428   9.486   8.736   3.830  0.1962  0.7609 -1.1138
  786MOL0     H 8429   9.522   8.592   3.722 -2.3307 -1.0861 -3.8955
  786MOL0     H 8430   9.935   9.173   3.664 -0.6971 -0.2647 -0.3049
  786MOL0     H 8431  10.148   9.222   3.793 -0.5062 -0.3455 -0.0472
  786MOL0     H 8432  10.173   9.089   4.171 -0.2615 -0.3795 -0.5678
  786MOL0     H 8433  10.289   8.966   4.129  1.8155  1.0020  1.5844
  786MOL0     H 8434  10.469   9.127   4.124 -1.4901  1.6618 -2.3163
  786MOL0     H 8435  10.360   9.267   4.155  2.8717  0.2060 -2.9168
  786MOL0     H 8436  10.399   9.018   4.338 -0.0877 -0.4537 -0.0811
  786MOL0     H 8437  10.317   9.170   4.388  1.4330 -0.3702  1.4874
  786MOL0     H 8438  10.521   9.285   4.384 -0.5559  0.7244 -2.4196
  786MOL0     H 8439  10.599   9.134   4.323 -1.2312 -1.0163 -0.2402
  786MOL0     H 8440  10.605   9.216   4.577  0.2724 -0.7333  0.5098
  786MOL0     H 8441  10.427   9.157   4.576  0.0450 -0.8400 -1.7036
  786MOL0     H 8442  10.508   8.936   4.559  0.0089  0.0281  0.9009
  786MOL0     H 8443  10.591   9.021   4.689  0.6674 -1.1247  0.2505
  786MOL0     H 8444  10.799   9.068   4.558  0.1818  0.5783  2.3928
  786MOL0     H 8445  10.739   8.966   4.427  3.4975 -0.0744  0.2406
  786MOL0     H 8446  10.763   8.875   4.706 -1.4571 -1.4386  0.4857
  786MOL0     H 8447  10.890   8.858   4.588 -0.0011 -1.9538 -4.1576
  786MOL0     H 8448  10.067   8.895   4.056 -2.1878 -0.9305  0.4347
  786MOL0     H 8449   9.895   8.823   3.913  3.3667 -1.5491  1.0163
  786MOL0     H 8450   9.656   9.039   3.484 -1.3256 -0.0163  0.8473
  786MOL0     H 8451   9.453   9.060   3.366  2.7693  1.1377  1.4130
  786MOL0     H 8452   7.839  10.028   2.866 -1.3191 -2.2519  1.3446
  786MOL0     H 8453   7.617  10.124   2.889  0.1050  3.0954  0.8804
  786MOL0     H 8454   7.276  10.187   3.147 -0.5512  0.1531 -0.4412
  786MOL0     H 8455   7.037  10.225   3.100 -0.5367  0.2439 -0.1460
  786MOL0     H 8456   6.884  10.376   3.263  2.4410 -0.4020 -0.3566
  786MOL0     H 8457   6.873  10.548   3.246  1.7076  0.8140 -2.2594
  786MOL0     H 8458   6.675  10.498   3.079 -1.8549  0.1156  0.8034
  786MOL0     H 8459   6.660  10.504   3.254  0.3664 -1.0591  1.8631
  786MOL0     H 8460   6.718  10.234   3.103  0.9047 -0.8801  0.9865
  786MOL0     H 8461   6.696  10.269   3.277  2.3121  0.2852 -0.1521
  786MOL0     H 8462   6.482  10.346   3.084 -1.3499 -0.0859  0.7096
  786MOL0     H 8463   6.474  10.338   3.261 -0.0096 -2.2983  1.3428
  786MOL0     H 8464   6.401   9.933   3.138 -1.5542  0.0181  0.4414
  786MOL0     H 8465   7.114  10.637   3.058 -2.6460 -1.3651 -0.1405
  786MOL0     H 8466   7.332  10.734   3.114 -0.6848  0.4883 -2.1391
  786MOL0     H 8467   7.462  10.638   3.173  0.3215  0.8439 -0.3585
  786MOL0     H 8468   7.426  10.636   2.997  1.2910 -0.3895  0.5573
  787MOL0     O 8469   6.914   3.325   2.397  0.4863  0.9125 -0.6414
  787MOL0     C 8470   6.866   3.274   2.291  0.9481  0.0261 -1.1851
  787MOL0     O 8471   6.927   3.234   2.172 -0.4670  0.4443 -0.2478
  787MOL0     C 8472   7.070   3.233   2.180  0.4022  0.3225  0.3147
  787MOL0     C 8473   7.140   3.337   2.126 -0.5474  0.6276 -1.3262
  787MOL0     C 8474   7.282   3.348   2.133 -0.5335  0.4046  0.0929
  787MOL0     C 8475   7.354   3.250   2.196 -0.4397 -0.2033  0.0320
  787MOL0     O 8476   7.491   3.266   2.195 -0.1425 -0.3671 -0.2917
  787MOL0     C 8477   7.563   3.172   2.273  0.1649 -0.2075 -0.5272
  787MOL0     C 8478   7.711   3.227   2.263  0.4323  0.8180 -0.2666
  787MOL0     C 8479   7.802   3.161   2.364  0.7691  0.0772  0.3895
  787MOL0     C 8480   7.794   3.222   2.503  0.6324 -0.6697  0.1570
  787MOL0     C 8481   7.884   3.151   2.605  0.1141 -0.5040 -0.0266
  787MOL0     C 8482   7.854   3.217   2.740  0.1776  0.5881  0.0918
  787MOL0     C 8483   7.938   3.163   2.858  0.1519 -0.2515  0.0444
  787MOL0     C 8484   8.086   3.193   2.847 -0.4077  0.2732 -0.1883
  787MOL0     N 8485   8.127   3.337   2.846  0.3828  0.7163  0.3183
  787MOL0     C 8486   8.090   3.428   2.942  0.1783  0.8483 -0.6227
  787MOL0     C 8487   8.072   3.549   2.880 -0.5847  0.1055  0.9370
  787MOL0     C 8488   8.021   3.673   2.954  0.0764 -0.9549 -0.5720
  787MOL0     C 8489   8.127   3.787   2.967  0.0927 -0.4741  0.1917
  787MOL0     C 8490   8.258   3.747   3.043  0.5339 -0.0181 -0.2787
  787MOL0     C 8491   8.356   3.863   3.037  0.2966  0.1503  0.9783
  787MOL0     O 8492   8.452   3.855   3.145  0.6804  0.5443  0.3691
  787MOL0     C 8493   8.568   3.918   3.124 -0.8445  0.4100 -0.0905
  787MOL0     C 8494   8.572   4.055   3.117  0.0791  0.2378  0.1756
  787MOL0     C 8495   8.678   4.131   3.095 -0.9261  0.0372 -0.0370
  787MOL0     C 8496   8.658   4.283   3.093 -0.6009 -0.3795 -0.5404
  787MOL0     C 8497   8.807   4.060   3.091  0.1113 -0.7721 -0.1303
  787MOL0     C 8498   8.941   4.127   3.081  0.0858  0.3112  1.1237
  787MOL0     O 8499   9.050   4.047   3.057  0.2040 -0.2207  0.1555
  787MOL0     C 8500   9.177   4.091   3.045 -0.6686 -0.2053 -0.3631
  787MOL0     C 8501   9.221   4.228   3.025 -0.7798 -0.1618 -0.3876
  787MOL0     C 8502   9.355   4.270   3.035  0.2958 -0.0136 -0.8080
  787MOL0     C 8503   9.454   4.171   3.053 -0.0012 -0.4108 -0.0867
  787MOL0     O 8504   9.589   4.195   3.066  0.0396 -0.4403 -0.7278
  787MOL0     C 8505   9.629   4.239   3.196 -0.5828 -0.4227 -0.5102
  787MOL0     C 8506   9.779   4.276   3.182 -0.1250  0.2871  0.3566
  787MOL0     C 8507   9.863   4.274   3.319  0.7193  0.6948 -0.0983
  787MOL0     C 8508   9.998   4.347   3.302 -0.1032 -0.4276 -0.5905
  787MOL0     C 8509  10.092   4.253   3.226  0.1666  0.4789  0.6284
  787MOL0     C 8510  10.238   4.303   3.249 -0.8662  0.0646 -0.1723
  787MOL0     C 8511  10.332   4.211   3.169  0.2757 -0.2757 -0.2423
  787MOL0     C 8512  10.473   4.272   3.153 -0.6619 -0.6065 -0.6885
  787MOL0    Cl 8513  10.578   4.248   3.300  0.0619  0.0976  0.1154
  787MOL0     C 8514   9.418   4.036   3.061  0.2575  0.3531  0.1257
  787MOL0     C 8515   9.282   4.001   3.070 -0.0252  0.0542  0.9119
  787MOL0     O 8516   8.941   4.251   3.103  0.1348  0.0963 -0.3901
  787MOL0     C 8517   8.806   3.926   3.100  0.6213 -0.1145  0.4219
  787MOL0     C 8518   8.688   3.851   3.117  0.2380  1.3068  0.5173
  787MOL0     N 8519   8.098   3.534   2.746  0.2772 -0.1190 -0.1098
  787MOL0     N 8520   8.127   3.408   2.724  0.2389 -0.3006 -0.3816
  787MOL0     C 8521   7.282   3.142   2.264 -0.3791 -0.3689  0.4301
  787MOL0     C 8522   7.139   3.140   2.248 -0.8572  0.3252 -0.1371
  787MOL0     C 8523   6.720   3.243   2.305  0.2882  0.1744 -0.4060
  787MOL0     C 8524   6.690   3.104   2.277 -0.2441  0.1905 -0.5169
  787MOL0     C 8525   6.567   3.054   2.331 -1.2130 -0.4907 -0.0283
  787MOL0     C 8526   6.471   3.134   2.401  0.0435 -0.0259  0.1218
  787MOL0     O 8527   6.351   3.082   2.442  0.1025  0.3136  0.0687
  787MOL0     C 8528   6.265   3.168   2.520  0.2705  0.0933 -0.3809
  787MOL0     C 8529   6.147   3.099   2.588  0.2242  1.1887  0.1646
  787MOL0     C 8530   6.052   3.048   2.476 -0.1822  1.0339 -0.5127
  787MOL0     C 8531   5.917   2.983   2.525 -0.5967 -0.8917  0.0609
  787MOL0     C 8532   5.945   2.850   2.583  0.0081  0.1865 -0.0302
  787MOL0     C 8533   5.974   2.746   2.647 -0.0845 -0.3434 -0.3246
  787MOL0     C 8534   6.502   3.274   2.402  0.8240  0.3518  0.1370
  787MOL0     C 8535   6.626   3.331   2.365  0.1364  0.0622 -0.6610
  787MOL0     C 8536   6.660   3.464   2.419  0.2452 -0.3936  0.5057
  787MOL0     H 8537   7.083   3.421   2.089 -1.0480  0.5294 -0.8094
  787MOL0     H 8538   7.336   3.421   2.074 -1.7068  0.7955 -0.5341
  787MOL0     H 8539   7.560   3.068   2.237 -1.7033  0.2154 -1.7392
  787MOL0     H 8540   7.523   3.181   2.375  2.9545 -0.3631  0.6654
  787MOL0     H 8541   7.746   3.191   2.166  1.9693  1.3485  0.0689
  787MOL0     H 8542   7.718   3.336   2.262 -0.7855  0.9392  0.8274
  787MOL0     H 8543   7.797   3.051   2.361 -1.5524  0.1470 -0.6934
  787MOL0     H 8544   7.903   3.180   2.326  1.4954 -2.3090  0.9355
  787MOL0     H 8545   7.821   3.328   2.501 -0.6392 -0.3182  0.6756
  787MOL0     H 8546   7.689   3.213   2.531  0.1545  0.2267 -1.2815
  787MOL0     H 8547   7.985   3.176   2.572  0.1363  1.0052  1.1303
  787MOL0     H 8548   7.860   3.045   2.617 -1.2602 -0.1317  0.7065
  787MOL0     H 8549   7.869   3.325   2.731  4.2143  0.1772  0.0209
  787MOL0     H 8550   7.751   3.189   2.765  0.3616  0.7874  1.1370
  787MOL0     H 8551   7.923   3.056   2.873 -2.1845  0.4135  3.3309
  787MOL0     H 8552   7.898   3.208   2.949  0.4358  0.8980 -0.3841
  787MOL0     H 8553   8.147   3.146   2.925  1.1267 -2.0485 -2.5881
  787MOL0     H 8554   8.119   3.141   2.757 -4.9335 -0.5618 -1.6084
  787MOL0     H 8555   8.070   3.417   3.048 -0.3045 -0.1279 -0.8060
  787MOL0     H 8556   7.976   3.651   3.051  0.0143  1.3287 -0.0182
  787MOL0     H 8557   7.942   3.714   2.891  1.2462 -0.3226 -1.6871
  787MOL0     H 8558   8.152   3.816   2.864 -1.6071  0.8193  0.0967
  787MOL0     H 8559   8.071   3.873   3.005 -1.3284 -0.6681 -1.3172
  787MOL0     H 8560   8.228   3.714   3.143 -1.1153 -0.4632 -0.8937
  787MOL0     H 8561   8.317   3.668   2.995  1.2452  0.1658  0.2686
  787MOL0     H 8562   8.411   3.870   2.943 -0.1783  0.6098  0.7307
  787MOL0     H 8563   8.296   3.954   3.040 -0.7614 -0.4452 -0.8187
  787MOL0     H 8564   8.471   4.092   3.109 -0.0241 -0.3823 -2.7387
  787MOL0     H 8565   8.706   4.332   3.007 -2.1044 -0.9914 -1.7804
  787MOL0     H 8566   8.703   4.330   3.181 -0.5211 -1.6693  0.1211
  787MOL0     H 8567   8.551   4.307   3.089 -1.0067 -1.5264  1.8214
  787MOL0     H 8568   9.149   4.301   2.989  1.2075  1.4446 -1.3492
  787MOL0     H 8569   9.383   4.375   3.038 -3.2239  1.0584  2.3472
  787MOL0     H 8570   9.569   4.324   3.229 -0.8688 -0.8320  0.0350
  787MOL0     H 8571   9.615   4.155   3.265  1.6085 -0.1080  0.4204
  787MOL0     H 8572   9.820   4.202   3.113 -0.1285  1.6283 -1.1182
  787MOL0     H 8573   9.791   4.370   3.128 -2.0156  0.6398  0.4867
  787MOL0     H 8574   9.880   4.176   3.363 -1.3045  0.9003  1.2304
  787MOL0     H 8575   9.799   4.324   3.392  1.2845 -0.3504  1.1410
  787MOL0     H 8576  10.031   4.365   3.405  0.1865  0.7772 -0.8805
  787MOL0     H 8577   9.993   4.441   3.246 -0.2951 -0.8043 -1.2184
  787MOL0     H 8578  10.085   4.147   3.251  1.4925  0.4359  0.8683
  787MOL0     H 8579  10.074   4.249   3.118  2.4583 -3.0765  0.1964
  787MOL0     H 8580  10.268   4.304   3.354 -0.4048  2.4012 -0.2756
  787MOL0     H 8581  10.242   4.405   3.209 -1.8011  0.0894 -0.2217
  787MOL0     H 8582  10.295   4.182   3.070 -2.0831 -2.8345  1.2683
  787MOL0     H 8583  10.352   4.117   3.220 -2.7014 -0.1546  1.3276
  787MOL0     H 8584  10.471   4.381   3.142 -4.3430 -0.3218  1.2326
  787MOL0     H 8585  10.522   4.230   3.065  0.3665 -0.3620 -0.2420
  787MOL0     H 8586   9.494   3.959   3.070 -0.2132 -0.0577  0.7042
  787MOL0     H 8587   9.254   3.897   3.078 -2.2959  0.6760  2.1797
  787MOL0     H 8588   8.901   3.874   3.093  0.1921 -0.7026 -2.0731
  787MOL0     H 8589   8.693   3.743   3.124  0.3235  1.3681  1.7250
  787MOL0     H 8590   7.337   3.077   2.331  0.5515  1.5674  1.6388
  787MOL0     H 8591   7.070   3.081   2.308 -1.3703  0.9972 -0.0517
  787MOL0     H 8592   6.763   3.034   2.238  0.8285  1.4849 -0.9456
  787MOL0     H 8593   6.557   2.947   2.324 -0.9998 -0.6358  1.5152
  787MOL0     H 8594   6.325   3.218   2.596  0.2974 -2.4792  1.4109
  787MOL0     H 8595   6.233   3.253   2.459  0.6464  1.6357  1.4804
  787MOL0     H 8596   6.097   3.161   2.663  0.7872  0.0211  1.5703
  787MOL0     H 8597   6.183   3.005   2.632 -0.5420  0.5896 -0.4641
  787MOL0     H 8598   6.031   3.126   2.403 -2.5086  1.9039  0.9956
  787MOL0     H 8599   6.107   2.968   2.424  0.0597 -0.4040  1.8164
  787MOL0     H 8600   5.851   2.967   2.440 -0.7053 -1.3777  0.2339
  787MOL0     H 8601   5.868   3.059   2.587  0.5561  1.0793 -1.3308
  787MOL0     H 8602   5.997   2.653   2.695 -0.3160 -0.5254 -0.5656
  787MOL0     H 8603   6.432   3.340   2.453  3.4039  1.5542  2.3950
  787MOL0     H 8604   6.690   3.453   2.524  3.5432 -1.0723 -0.3743
  787MOL0     H 8605   6.742   3.518   2.371  0.4908  1.8954  3.2407
  787MOL0     H 8606   6.576   3.533   2.418  1.1555  0.7811  1.6589
  788MOL0     O 8607   7.839   4.620   8.372 -0.4209  0.6015  0.3839
  788MOL0     C 8608   7.784   4.519   8.424 -0.4519 -0.4751 -0.2670
  788MOL0     O 8609   7.830   4.392   8.421 -0.3913  0.5651  0.0486
  788MOL0     C 8610   7.963   4.361   8.390  0.1179 -0.6833 -0.0096
  788MOL0     C 8611   7.996   4.250   8.315 -0.2598 -0.0848  0.2268
  788MOL0     C 8612   8.130   4.218   8.283  0.1729  0.1724  0.0635
  788MOL0     C 8613   8.238   4.304   8.319 -0.3788  0.3334  0.5349
  788MOL0     O 8614   8.370   4.290   8.293  0.2268  0.4293  0.2312
  788MOL0     C 8615   8.416   4.155   8.257 -0.3360  0.3671  0.8746
  788MOL0     C 8616   8.568   4.135   8.276  0.6020  0.1689 -0.0874
  788MOL0     C 8617   8.588   4.125   8.425  0.0321  0.3624  0.1454
  788MOL0     C 8618   8.730   4.087   8.465 -0.2016  0.5405  0.0605
  788MOL0     C 8619   8.753   4.094   8.623 -1.1523  0.9914 -0.6573
  788MOL0     C 8620   8.904   4.067   8.648  0.4915 -0.7629  0.4445
  788MOL0     C 8621   8.950   4.156   8.772 -0.5188 -0.5504  0.2733
  788MOL0     C 8622   9.102   4.138   8.799  0.3769 -0.3582 -0.3271
  788MOL0     N 8623   9.156   4.205   8.918 -0.1310  0.3981 -0.2934
  788MOL0     C 8624   9.207   4.330   8.914 -1.2243 -0.8500  0.4319
  788MOL0     C 8625   9.213   4.371   9.048 -0.9042  0.3675  0.2338
  788MOL0     C 8626   9.240   4.503   9.100  0.4611  0.2946 -0.6935
  788MOL0     C 8627   9.362   4.499   9.194  0.0661  0.1400  0.1894
  788MOL0     C 8628   9.385   4.633   9.269 -0.0709 -0.2512  0.6798
  788MOL0     C 8629   9.530   4.649   9.327  0.4350  0.0090  0.3309
  788MOL0     O 8630   9.618   4.700   9.225 -0.9954 -0.1634  0.5884
  788MOL0     C 8631   9.752   4.690   9.255 -0.6141 -0.5165 -0.0006
  788MOL0     C 8632   9.842   4.732   9.155 -0.9155 -0.1310 -0.5580
  788MOL0     C 8633   9.978   4.737   9.179  0.1962  0.5761  0.1078
  788MOL0     C 8634  10.068   4.791   9.068 -0.5444  0.4336  0.6279
  788MOL0     C 8635  10.033   4.685   9.303 -0.2381 -0.1150 -0.5910
  788MOL0     C 8636  10.176   4.675   9.323 -1.2818  0.7844  1.1367
  788MOL0     O 8637  10.224   4.671   9.447 -0.4136  0.2725  0.2582
  788MOL0     C 8638  10.351   4.621   9.465 -0.1242 -0.2351  0.1675
  788MOL0     C 8639  10.365   4.482   9.495 -1.0594 -0.3620 -0.0085
  788MOL0     C 8640  10.497   4.436   9.516 -0.2432  0.3832 -0.9558
  788MOL0     C 8641  10.609   4.523   9.533  0.0448 -0.5574  0.2283
  788MOL0     O 8642  10.725   4.465   9.579 -0.0109 -0.5400 -0.1113
  788MOL0     C 8643  10.857   4.510   9.530 -0.8396  0.6592  0.5400
  788MOL0     C 8644  10.963   4.429   9.606  0.2489  0.0870  0.8622
  788MOL0     C 8645  11.098   4.464   9.538  0.2274 -0.0269 -0.2779
  788MOL0     C 8646  11.214   4.373   9.575  0.1614  0.7257 -0.1386
  788MOL0     C 8647  11.322   4.402   9.472 -0.1223 -0.0128 -0.2324
  788MOL0     C 8648  11.463   4.356   9.515 -0.0265  0.4308  0.7346
  788MOL0     C 8649  11.558   4.400   9.405 -0.4753 -0.7119  0.9174
  788MOL0     C 8650  11.695   4.346   9.429 -0.1255 -0.8357  0.9477
  788MOL0    Cl 8651  11.808   4.390   9.297 -0.2327 -0.1995  0.2917
  788MOL0     C 8652  10.591   4.663   9.500  0.6224 -0.4753  0.0752
  788MOL0     C 8653  10.466   4.703   9.465  0.5217 -0.1013  0.4902
  788MOL0     O 8654  10.247   4.663   9.220  0.0144 -0.7417 -0.2215
  788MOL0     C 8655   9.942   4.656   9.401 -0.0316 -0.8528 -0.4921
  788MOL0     C 8656   9.806   4.661   9.378 -1.7044  0.1727 -0.0563
  788MOL0     N 8657   9.167   4.256   9.123 -0.6845 -0.2780  0.9267
  788MOL0     N 8658   9.153   4.156   9.042  0.3237  0.0123 -0.0433
  788MOL0     C 8659   8.199   4.421   8.395  0.1390 -0.1699  0.2877
  788MOL0     C 8660   8.065   4.452   8.426  0.6931  0.4160  0.7828
  788MOL0     C 8661   7.652   4.541   8.493  0.6173 -0.1908 -0.2636
  788MOL0     C 8662   7.612   4.450   8.604  1.0052 -0.2414  0.2169
  788MOL0     C 8663   7.509   4.480   8.691  0.1410 -0.4329  0.4109
  788MOL0     C 8664   7.417   4.583   8.662  1.0272 -0.2898 -0.5220
  788MOL0     O 8665   7.304   4.604   8.740  0.5061 -0.4463 -0.2727
  788MOL0     C 8666   7.227   4.722   8.712 -0.4919  0.2081  0.1278
  788MOL0     C 8667   7.111   4.682   8.621  0.9046  0.5695 -0.7335
  788MOL0     C 8668   7.015   4.595   8.697 -0.1872  0.2064  0.2102
  788MOL0     C 8669   6.875   4.594   8.635  0.7035 -0.1497 -0.0070
  788MOL0     C 8670   6.775   4.494   8.685 -0.2992 -0.6241  0.2435
  788MOL0     C 8671   6.678   4.430   8.718  0.4334  0.3525 -0.5189
  788MOL0     C 8672   7.440   4.651   8.541 -0.2601  0.5893  0.4271
  788MOL0     C 8673   7.558   4.643   8.467 -0.7715  0.2296 -0.4465
  788MOL0     C 8674   7.554   4.716   8.342  0.2439 -0.2589  0.0759
  788MOL0     H 8675   7.915   4.184   8.286  1.8095 -1.5488 -2.7513
  788MOL0     H 8676   8.158   4.124   8.236 -0.5802 -0.5004  0.9249
  788MOL0     H 8677   8.392   4.134   8.152  1.9580 -0.4609  0.4595
  788MOL0     H 8678   8.362   4.078   8.313  1.5536 -1.8922 -0.2523
  788MOL0     H 8679   8.599   4.044   8.223 -0.7767 -1.8891  2.4114
  788MOL0     H 8680   8.619   4.216   8.223 -0.2331 -0.3246 -1.7271
  788MOL0     H 8681   8.563   4.222   8.470  0.4820  0.4308  0.2493
  788MOL0     H 8682   8.529   4.044   8.470 -1.0219  0.9894 -0.0806
  788MOL0     H 8683   8.748   3.985   8.429 -0.2890 -0.3456  2.2978
  788MOL0     H 8684   8.798   4.154   8.413  0.8079  0.7231  1.5285
  788MOL0     H 8685   8.697   4.017   8.676 -0.1878  1.3801  0.9962
  788MOL0     H 8686   8.724   4.190   8.668  1.0258  2.6067 -2.4759
  788MOL0     H 8687   8.936   3.962   8.653  3.1909  0.0356  1.6313
  788MOL0     H 8688   8.962   4.107   8.564  1.4261 -0.9466  0.9828
  788MOL0     H 8689   8.883   4.136   8.857 -1.8936  4.0927  0.5292
  788MOL0     H 8690   8.945   4.263   8.753  0.9471 -0.5515 -0.2076
  788MOL0     H 8691   9.117   4.031   8.811  3.2516  0.1957  2.7777
  788MOL0     H 8692   9.137   4.187   8.708  1.5031 -5.0098 -2.6916
  788MOL0     H 8693   9.228   4.387   8.823  0.5782 -2.9965 -0.5944
  788MOL0     H 8694   9.166   4.539   9.172  0.0519 -2.7446  0.5695
  788MOL0     H 8695   9.259   4.570   9.015  0.1695 -1.4498 -2.2074
  788MOL0     H 8696   9.356   4.416   9.265 -0.3183  0.1295  0.1461
  788MOL0     H 8697   9.446   4.477   9.128  1.2660  1.5414  1.1811
  788MOL0     H 8698   9.379   4.713   9.195  1.8174  0.6744  1.4703
  788MOL0     H 8699   9.313   4.646   9.351 -1.5187 -2.5617 -0.1051
  788MOL0     H 8700   9.519   4.710   9.418  1.5563  1.0946 -0.2332
  788MOL0     H 8701   9.558   4.546   9.350 -1.8486 -1.1736 -1.7314
  788MOL0     H 8702   9.814   4.776   9.060  1.5062  2.2630 -0.2915
  788MOL0     H 8703  10.164   4.838   9.088 -0.6389  2.1383 -2.3929
  788MOL0     H 8704  10.021   4.875   9.016 -0.1326  0.7541  0.7627
  788MOL0     H 8705  10.083   4.705   9.002  0.6169 -0.7956  2.4155
  788MOL0     H 8706  10.280   4.415   9.500 -0.9514 -0.4884  0.1370
  788MOL0     H 8707  10.519   4.337   9.555 -2.3180  0.0302 -0.5675
  788MOL0     H 8708  10.854   4.495   9.422  2.7077  3.3057 -0.1058
  788MOL0     H 8709  10.864   4.617   9.553  2.7312  1.0497 -1.5171
  788MOL0     H 8710  10.948   4.451   9.712 -1.8457 -1.4851  0.9496
  788MOL0     H 8711  10.937   4.324   9.593  0.3341  0.0005  1.3781
  788MOL0     H 8712  11.121   4.562   9.580 -1.9175  0.5949 -0.4463
  788MOL0     H 8713  11.076   4.475   9.431  1.5619  0.4382 -0.5272
  788MOL0     H 8714  11.178   4.269   9.579  1.3419  0.2929 -0.5040
  788MOL0     H 8715  11.254   4.399   9.674  0.1628 -1.0353  0.3606
  788MOL0     H 8716  11.307   4.353   9.375  1.8640  2.4598 -1.9367
  788MOL0     H 8717  11.326   4.507   9.444  1.5203  0.1787  0.6372
  788MOL0     H 8718  11.470   4.250   9.538  1.4660  0.3767  0.1071
  788MOL0     H 8719  11.491   4.404   9.610  0.4316 -0.2613  0.9533
  788MOL0     H 8720  11.578   4.508   9.399  1.2168 -1.0246  0.2404
  788MOL0     H 8721  11.508   4.374   9.312 -0.3788  0.8251  0.4071
  788MOL0     H 8722  11.691   4.238   9.448 -0.0953 -1.2449 -1.2029
  788MOL0     H 8723  11.739   4.394   9.517 -1.7335  1.7996  0.4111
  788MOL0     H 8724  10.666   4.740   9.507 -1.8908  2.4183 -1.9866
  788MOL0     H 8725  10.445   4.808   9.448  0.3235 -0.2261 -0.0524
  788MOL0     H 8726   9.986   4.637   9.498 -0.9488 -1.2019 -0.1303
  788MOL0     H 8727   9.742   4.622   9.456 -0.9689  1.5849  1.3195
  788MOL0     H 8728   8.276   4.488   8.430  0.5587 -1.2280  1.4301
  788MOL0     H 8729   8.045   4.541   8.484  3.3046  1.3249  0.4326
  788MOL0     H 8730   7.678   4.368   8.629  1.5688 -0.0492 -0.5931
  788MOL0     H 8731   7.498   4.415   8.777  0.6329 -0.4943  0.4254
  788MOL0     H 8732   7.193   4.771   8.803  0.6555  2.2621 -0.4975
  788MOL0     H 8733   7.295   4.794   8.666 -0.4471 -0.5643 -1.0582
  788MOL0     H 8734   7.137   4.637   8.524  0.0156 -0.0697 -0.6830
  788MOL0     H 8735   7.048   4.768   8.595 -0.8160 -1.0299 -2.0676
  788MOL0     H 8736   7.062   4.497   8.705  2.2970  1.4716  3.6376
  788MOL0     H 8737   7.009   4.627   8.802  1.1618  0.9218  0.0945
  788MOL0     H 8738   6.898   4.579   8.529  2.1550 -1.7334  0.4984
  788MOL0     H 8739   6.833   4.696   8.635  1.3986  0.2636  3.2772
  788MOL0     H 8740   6.602   4.357   8.735  0.7854  0.5044  2.1902
  788MOL0     H 8741   7.362   4.711   8.495  1.1966  0.3020 -2.6967
  788MOL0     H 8742   7.561   4.823   8.366  3.8806 -0.0482 -1.3829
  788MOL0     H 8743   7.631   4.689   8.270 -0.5562 -0.7282 -0.6295
  788MOL0     H 8744   7.459   4.698   8.291 -1.1781  1.2445  2.0045
  789MOL0     O 8745   6.999   0.329  10.670 -0.0318 -0.3199  0.2865
  789MOL0     C 8746   6.902   0.347  10.744  0.3486  0.0087  0.0082
  789MOL0     O 8747   6.911   0.353  10.884 -1.5702 -0.1022  0.1547
  789MOL0     C 8748   7.036   0.327  10.939 -0.5935 -0.1016  0.9327
  789MOL0     C 8749   7.042   0.231  11.040 -0.3802 -0.3964 -1.2569
  789MOL0     C 8750   7.163   0.188  11.088  0.3208  0.5031 -1.2327
  789MOL0     C 8751   7.283   0.265  11.067  0.4599 -0.1964 -0.3865
  789MOL0     O 8752   7.393   0.220  11.133 -0.4387  0.1138 -0.4102
  789MOL0     C 8753   7.515   0.302  11.130  1.0913 -0.5896  0.7500
  789MOL0     C 8754   7.635   0.227  11.184  1.2597 -0.5525 -0.9248
  789MOL0     C 8755   7.606   0.158  11.312 -0.5970  0.0872  0.4994
  789MOL0     C 8756   7.728   0.078  11.354  0.4297  0.4127 -0.2672
  789MOL0     C 8757   7.841   0.163  11.413 -0.7210  0.3098 -0.1857
  789MOL0     C 8758   7.821   0.241  11.549  0.9363 -0.8530 -0.7239
  789MOL0     C 8759   7.951   0.289  11.623  0.0751  0.4107 -0.2633
  789MOL0     C 8760   8.002   0.429  11.570 -0.3959  0.4644  0.4211
  789MOL0     N 8761   8.122   0.475  11.636 -0.0185  0.0643  0.2969
  789MOL0     C 8762   8.229   0.533  11.580 -0.4691  0.2389  0.0950
  789MOL0     C 8763   8.322   0.515  11.676  0.8982  0.4786 -0.4057
  789MOL0     C 8764   8.458   0.563  11.629 -0.3001 -0.9304 -0.6226
  789MOL0     C 8765   8.567   0.538  11.733  0.6541 -0.1201 -0.4237
  789MOL0     C 8766   8.713   0.560  11.667 -0.6453 -0.0581 -0.5334
  789MOL0     C 8767   8.827   0.564  11.761 -0.3984  0.7211 -0.3469
  789MOL0     O 8768   8.812   0.671  11.855 -0.4904 -0.5388 -0.3716
  789MOL0     C 8769   8.862   0.790  11.816  0.9585 -0.2814 -0.0736
  789MOL0     C 8770   8.785   0.876  11.736 -0.7923  0.0128  0.3370
  789MOL0     C 8771   8.831   1.009  11.703 -0.7645 -1.0312 -0.3589
  789MOL0     C 8772   8.730   1.082  11.623 -1.0809 -0.4114 -0.0385
  789MOL0     C 8773   8.955   1.057  11.755 -0.1803  0.3651 -0.0057
  789MOL0     C 8774   9.008   1.186  11.712  0.8210  0.4068  0.2498
  789MOL0     O 8775   8.930   1.300  11.743  0.4125 -0.6921  0.6595
  789MOL0     C 8776   8.957   1.418  11.675 -0.5134 -0.2576 -0.9343
  789MOL0     C 8777   9.060   1.502  11.724  0.7976  0.0710 -0.1821
  789MOL0     C 8778   9.084   1.625  11.658  0.3370  0.0154  0.0597
  789MOL0     C 8779   9.034   1.652  11.530  0.5848 -0.2622  0.2915
  789MOL0     O 8780   9.058   1.766  11.462  0.0456 -0.3223  0.1301
  789MOL0     C 8781   9.190   1.764  11.408  0.4816  0.2786 -0.3573
  789MOL0     C 8782   9.233   1.898  11.375 -0.7838  0.1092  0.2421
  789MOL0     C 8783   9.135   1.978  11.283 -0.6958 -0.5286  0.6402
  789MOL0     C 8784   9.133   1.917  11.144  0.2576  0.6482  0.2830
  789MOL0     C 8785   9.052   1.988  11.034  0.3350 -1.2381  0.1881
  789MOL0     C 8786   9.025   1.896  10.916  0.7255  0.2770  0.1719
  789MOL0     C 8787   8.903   1.941  10.834 -1.4462  1.0859 -0.3319
  789MOL0     C 8788   8.919   1.889  10.694 -0.0658 -0.6625  1.2624
  789MOL0    Cl 8789   9.040   1.988  10.607  0.9077  0.4225 -0.1357
  789MOL0     C 8790   8.938   1.567  11.484 -0.3069 -0.1249 -0.2248
  789MOL0     C 8791   8.891   1.454  11.554  0.0315 -0.5950 -0.0905
  789MOL0     O 8792   9.122   1.192  11.662  0.2859 -0.3320 -0.6707
  789MOL0     C 8793   9.040   0.963  11.818  0.3200  0.4349 -0.1782
  789MOL0     C 8794   8.991   0.831  11.842  0.1986 -0.0927  0.9251
  789MOL0     N 8795   8.281   0.433  11.779  0.1000 -0.2329 -0.4518
  789MOL0     N 8796   8.156   0.425  11.759 -0.8580  0.3637 -0.5581
  789MOL0     C 8797   7.273   0.373  10.974 -0.3992  0.4855 -0.4061
  789MOL0     C 8798   7.152   0.394  10.905  0.2575 -0.8477 -0.3619
  789MOL0     C 8799   6.765   0.341  10.693  0.4438 -0.0453  0.9922
  789MOL0     C 8800   6.657   0.352  10.786  1.3045 -1.1904 -0.4715
  789MOL0     C 8801   6.526   0.388  10.742  0.0263  0.4404  0.4345
  789MOL0     C 8802   6.491   0.382  10.604 -1.1639 -0.0208  1.0291
  789MOL0     O 8803   6.363   0.405  10.565  0.2349  0.2717 -0.2440
  789MOL0     C 8804   6.318   0.499  10.468 -0.5176  0.2842 -0.5574
  789MOL0     C 8805   6.164   0.515  10.472 -1.2833  0.0750 -0.3090
  789MOL0     C 8806   6.129   0.600  10.594 -0.0198 -0.4976 -0.0438
  789MOL0     C 8807   5.977   0.602  10.614 -0.2340 -0.3754  0.3754
  789MOL0     C 8808   5.940   0.615  10.757  0.3452  0.4539 -0.3552
  789MOL0     C 8809   5.924   0.615  10.883  0.2629  0.7095  0.4760
  789MOL0     C 8810   6.592   0.357  10.511  0.5656  0.1918  0.5347
  789MOL0     C 8811   6.727   0.346  10.548  0.1133 -0.1571 -0.2420
  789MOL0     C 8812   6.824   0.318  10.434 -0.0419 -0.4841 -0.7960
  789MOL0     H 8813   6.948   0.188  11.072  0.5712 -1.4967  0.2235
  789MOL0     H 8814   7.159   0.107  11.160  0.1217  0.9443 -0.7465
  789MOL0     H 8815   7.481   0.388  11.188 -2.9842 -0.7650 -1.0717
  789MOL0     H 8816   7.532   0.324  11.024 -0.2494 -3.1881 -0.1127
  789MOL0     H 8817   7.675   0.154  11.114  1.3560 -0.2460 -1.1905
  789MOL0     H 8818   7.719   0.295  11.199 -0.1981  0.7162  3.0896
  789MOL0     H 8819   7.571   0.224  11.392 -2.9453 -1.4214  0.8286
  789MOL0     H 8820   7.523   0.092  11.287 -0.2752  0.5652 -2.1182
  789MOL0     H 8821   7.690   0.026  11.442  2.2101  0.1249  0.3704
  789MOL0     H 8822   7.749   0.001  11.280  0.0362 -0.0423  0.0971
  789MOL0     H 8823   7.869   0.237  11.338 -0.0877  1.3707  1.0489
  789MOL0     H 8824   7.931   0.103  11.433  0.2127  1.4543 -0.8725
  789MOL0     H 8825   7.756   0.326  11.532  1.2416 -0.3401  0.5368
  789MOL0     H 8826   7.768   0.176  11.620 -0.8013  0.4264 -0.7878
  789MOL0     H 8827   8.028   0.214  11.601  0.8732  1.3382 -0.6901
  789MOL0     H 8828   7.932   0.280  11.731  1.2824 -1.9214 -0.1755
  789MOL0     H 8829   8.012   0.435  11.462  1.8203  2.5102  0.6474
  789MOL0     H 8830   7.925   0.507  11.580 -1.9038 -0.8027 -0.7575
  789MOL0     H 8831   8.249   0.575  11.481 -1.2263  0.8552  0.1917
  789MOL0     H 8832   8.458   0.671  11.613 -0.1537 -0.7992  0.2134
  789MOL0     H 8833   8.493   0.519  11.535 -0.0321  1.0365 -1.4787
  789MOL0     H 8834   8.540   0.596  11.822  1.4585 -1.0320  0.4484
  789MOL0     H 8835   8.561   0.436  11.773 -2.5469 -0.8001 -2.2259
  789MOL0     H 8836   8.738   0.480  11.597 -0.1321 -0.0642 -0.3464
  789MOL0     H 8837   8.711   0.650  11.605 -0.1141  0.7635  0.6175
  789MOL0     H 8838   8.829   0.472  11.821  0.4338  1.8728  1.4696
  789MOL0     H 8839   8.920   0.565  11.703  1.7276 -1.0524  2.7491
  789MOL0     H 8840   8.693   0.843  11.690  0.3814 -0.7701 -1.5995
  789MOL0     H 8841   8.765   1.178  11.582 -0.6309  0.2986  1.9109
  789MOL0     H 8842   8.647   1.097  11.692 -1.0636  1.4860 -0.3758
  789MOL0     H 8843   8.690   1.017  11.544  1.5432 -0.5835 -1.3567
  789MOL0     H 8844   9.111   1.486  11.819  0.3491  0.7753  0.1889
  789MOL0     H 8845   9.144   1.705  11.700 -0.2212  0.5113 -0.0682
  789MOL0     H 8846   9.257   1.736  11.491 -2.2483  2.2129  2.7396
  789MOL0     H 8847   9.194   1.697  11.322  0.9184  1.3603 -1.2028
  789MOL0     H 8848   9.247   1.954  11.468 -3.1598  1.2318  0.0082
  789MOL0     H 8849   9.330   1.887  11.327 -0.4348 -0.1099  0.9856
  789MOL0     H 8850   9.170   2.081  11.281 -1.6653 -0.2011 -0.3569
  789MOL0     H 8851   9.032   1.988  11.321 -0.7596 -0.9620  0.5833
  789MOL0     H 8852   9.088   1.819  11.162  0.2608  0.8190  1.2879
  789MOL0     H 8853   9.233   1.900  11.104  0.2437  0.8098  0.1779
  789MOL0     H 8854   8.959   2.021  11.080  0.0542  0.6569 -1.5970
  789MOL0     H 8855   9.102   2.082  11.009  0.4355 -1.5086 -0.6845
  789MOL0     H 8856   9.003   1.793  10.947  0.2273 -0.1574 -1.4876
  789MOL0     H 8857   9.113   1.890  10.852  0.2897 -1.1932 -0.3389
  789MOL0     H 8858   8.904   2.050  10.838  2.6596  1.1498  1.0013
  789MOL0     H 8859   8.815   1.894  10.879 -1.2554 -1.1185 -2.0808
  789MOL0     H 8860   8.824   1.908  10.644  0.5351  2.2086  1.0161
  789MOL0     H 8861   8.954   1.786  10.694  2.1070 -0.0649 -1.6189
  789MOL0     H 8862   8.893   1.573  11.385  0.8330 -0.3977 -0.7689
  789MOL0     H 8863   8.813   1.385  11.526  1.0512 -2.2163  0.8922
  789MOL0     H 8864   9.142   0.993  11.840  0.3939  0.2112 -0.2147
  789MOL0     H 8865   9.055   0.758  11.891 -0.0552 -0.0901  1.2577
  789MOL0     H 8866   7.352   0.446  10.955  0.2259  0.7122  2.6653
  789MOL0     H 8867   7.143   0.471  10.829 -1.3723  0.7333  1.3364
  789MOL0     H 8868   6.669   0.349  10.894 -0.6685 -1.0089 -0.2115
  789MOL0     H 8869   6.454   0.424  10.814  0.2203  3.8268 -0.9084
  789MOL0     H 8870   6.364   0.599  10.476  1.3270 -0.4315 -1.4510
  789MOL0     H 8871   6.349   0.448  10.376 -1.5949 -2.1913  0.3739
  789MOL0     H 8872   6.122   0.414  10.481 -2.5494  0.5724 -0.4565
  789MOL0     H 8873   6.122   0.549  10.377 -1.1654 -1.6312 -1.0106
  789MOL0     H 8874   6.186   0.563  10.680  1.4766  0.9140 -0.3820
  789MOL0     H 8875   6.155   0.705  10.576  0.9319 -0.5202  1.1070
  789MOL0     H 8876   5.930   0.509  10.580 -0.7270 -0.1324  0.3822
  789MOL0     H 8877   5.929   0.677  10.552 -1.3726 -2.5274 -1.4994
  789MOL0     H 8878   5.911   0.596  10.988 -0.2754  0.3067  0.3444
  789MOL0     H 8879   6.566   0.346  10.406  2.2035 -4.9968  0.4360
  789MOL0     H 8880   6.765   0.333  10.343 -0.2817 -2.3312 -0.9825
  789MOL0     H 8881   6.913   0.381  10.444 -1.5753  1.3852  4.3562
  789MOL0     H 8882   6.854   0.214  10.445  0.3482 -0.5599 -2.3150
  790MOL0     O 8883  10.515   7.554   0.148  0.7284 -0.0608  0.1123
  790MOL0     C 8884  10.456   7.618   0.237  0.0602 -0.0808 -1.1903
  790MOL0     O 8885  10.491   7.742   0.280  0.9459  0.5993  1.0488
  790MOL0     C 8886  10.609   7.794   0.235  1.0962 -0.9965 -0.5610
  790MOL0     C 8887  10.711   7.769   0.320  0.0315  0.3026  0.5130
  790MOL0     C 8888  10.846   7.806   0.282  0.4484 -0.3564  0.1672
  790MOL0     C 8889  10.871   7.864   0.160  1.1220 -0.7861 -0.8691
  790MOL0     O 8890  11.005   7.881   0.140  0.9374 -0.3662 -0.1975
  790MOL0     C 8891  11.052   7.948   0.024 -0.5388 -0.0984 -0.2689
  790MOL0     C 8892  11.206   7.934   0.037 -0.5686  0.3572 -0.7906
  790MOL0     C 8893  11.241   7.786   0.004 -0.4296 -0.0510 -0.0167
  790MOL0     C 8894  11.398   7.769   0.037 -0.2208 -0.5782 -0.1144
  790MOL0     C 8895  11.440   7.622  -0.016  0.1180 -0.6533  0.4929
  790MOL0     C 8896  11.421   7.526   0.091  0.3421  0.3503 -0.0530
  790MOL0     C 8897  11.442   7.375   0.059  0.7265 -0.1273  0.9048
  790MOL0     C 8898  11.580   7.343  -0.003  0.3673  0.2178  0.0341
  790MOL0     N 8899  11.685   7.365   0.094  0.1198  0.2525 -0.1186
  790MOL0     C 8900  11.741   7.478   0.136  0.0583 -0.0914  0.5712
  790MOL0     C 8901  11.801   7.449   0.249  0.4243 -0.3923 -0.1761
  790MOL0     C 8902  11.895   7.545   0.309  0.5852  0.0747  0.2560
  790MOL0     C 8903  12.029   7.563   0.237 -0.0395  1.1256  0.8270
  790MOL0     C 8904  12.122   7.651   0.318  1.3655  0.2785 -0.0502
  790MOL0     C 8905  12.252   7.647   0.263 -0.7577 -0.6193  0.3882
  790MOL0     O 8906  12.341   7.752   0.304  0.1334  0.7138 -0.1955
  790MOL0     C 8907  12.473   7.728   0.312  0.2603 -0.8508 -0.1928
  790MOL0     C 8908  12.545   7.807   0.398  0.7785  0.8029 -0.3106
  790MOL0     C 8909  12.683   7.791   0.432 -0.6508 -0.2386  0.0496
  790MOL0     C 8910  12.755   7.891   0.530 -0.4273  0.1313 -0.8728
  790MOL0     C 8911  12.751   7.681   0.369  0.0627 -0.3078  0.2475
  790MOL0     C 8912  12.896   7.653   0.397 -0.3002  0.0092  0.6678
  790MOL0     O 8913  12.969   7.717   0.503 -0.6283  0.3927  0.1119
  790MOL0     C 8914  13.084   7.642   0.540 -1.0224  0.0349 -0.3578
  790MOL0     C 8915  13.215   7.684   0.511 -0.3100  0.4104 -0.2441
  790MOL0     C 8916  13.327   7.612   0.548  0.5179 -1.0356  0.0632
  790MOL0     C 8917  13.308   7.493   0.618  0.3230 -0.0603  0.1987
  790MOL0     O 8918  13.420   7.420   0.643 -0.1479  0.7408 -0.7419
  790MOL0     C 8919  13.419   7.353   0.777  0.0349 -0.8175 -0.2894
  790MOL0     C 8920  13.561   7.303   0.809  0.1675  0.2362  0.0630
  790MOL0     C 8921  13.590   7.169   0.894  0.3178  0.0575  0.7211
  790MOL0     C 8922  13.513   7.043   0.847  0.1253 -0.2597  0.2556
  790MOL0     C 8923  13.526   6.925   0.945 -0.4683  0.0350  0.0161
  790MOL0     C 8924  13.473   6.793   0.885 -0.5420 -0.0549 -0.2096
  790MOL0     C 8925  13.335   6.825   0.825 -0.2686  0.6327 -0.2571
  790MOL0     C 8926  13.255   6.696   0.790 -0.0527 -0.2186 -0.0297
  790MOL0    Cl 8927  13.084   6.752   0.770 -0.2678 -0.3271 -0.2444
  790MOL0     C 8928  13.182   7.448   0.657  0.5177 -1.3000 -0.3142
  790MOL0     C 8929  13.075   7.527   0.614 -0.1206 -0.4337 -0.4761
  790MOL0     O 8930  12.949   7.574   0.319  0.2423  0.4290  0.1020
  790MOL0     C 8931  12.682   7.592   0.283 -0.5971  0.4200 -0.2648
  790MOL0     C 8932  12.541   7.615   0.258  0.3371 -0.6196  0.7445
  790MOL0     N 8933  11.786   7.315   0.279  0.3957 -0.4396  0.4540
  790MOL0     N 8934  11.716   7.272   0.186  0.2601  0.3848  0.2842
  790MOL0     C 8935  10.764   7.892   0.081  0.0585 -0.3472  1.2477
  790MOL0     C 8936  10.632   7.855   0.114  0.2315  0.2336  0.9787
  790MOL0     C 8937  10.346   7.546   0.305  0.4874  0.3477  0.0914
  790MOL0     C 8938  10.239   7.622   0.360 -0.2874  0.1365 -0.4276
  790MOL0     C 8939  10.127   7.549   0.407  0.4603 -0.5009 -0.7876
  790MOL0     C 8940  10.128   7.409   0.417  0.4147 -0.7009  0.4078
  790MOL0     O 8941  10.016   7.353   0.471 -0.3888 -0.4543  0.0083
  790MOL0     C 8942   9.970   7.228   0.421  0.6187 -0.1763 -0.5348
  790MOL0     C 8943   9.812   7.209   0.436 -0.7692  0.2518 -0.3589
  790MOL0     C 8944   9.790   7.192   0.586 -1.3305 -1.1283 -0.3796
  790MOL0     C 8945   9.645   7.188   0.636 -0.1018 -0.2516 -0.8222
  790MOL0     C 8946   9.629   7.213   0.782  0.3034 -0.9635  0.2311
  790MOL0     C 8947   9.611   7.229   0.980  0.8881 -0.1671  0.3609
  790MOL0     C 8948  10.241   7.346   0.383  0.1818 -0.4725  0.1820
  790MOL0     C 8949  10.358   7.411   0.332  0.6356 -0.4818  0.4227
  790MOL0     C 8950  10.470   7.320   0.302 -0.3028 -0.0229 -0.4479
  790MOL0     H 8951  10.690   7.726   0.418  1.6080 -0.5036  0.5288
  790MOL0     H 8952  10.931   7.801   0.349  1.3170 -0.1942 -0.9096
  790MOL0     H 8953  11.020   8.053   0.024 -0.2415 -0.0088 -0.5198
  790MOL0     H 8954  11.013   7.901  -0.067 -1.1030  0.0215 -0.0953
  790MOL0     H 8955  11.260   7.994  -0.037  0.1441  0.5598 -0.1238
  790MOL0     H 8956  11.238   7.960   0.138 -1.6881 -0.0486 -0.3085
  790MOL0     H 8957  11.174   7.726   0.066 -1.0884  0.6026 -0.0913
  790MOL0     H 8958  11.215   7.768  -0.101 -0.2443 -0.2472 -0.0298
  790MOL0     H 8959  11.437   7.853  -0.021 -1.7832 -0.8646 -1.6797
  790MOL0     H 8960  11.431   7.783   0.140 -2.8007  1.4820  0.5367
  790MOL0     H 8961  11.544   7.627  -0.050  0.2300  0.9878  0.9613
  790MOL0     H 8962  11.391   7.590  -0.108  1.3784 -3.2237  0.6552
  790MOL0     H 8963  11.489   7.551   0.173  0.4361  2.1254 -0.6262
  790MOL0     H 8964  11.316   7.546   0.114  0.2644  0.4474 -0.4857
  790MOL0     H 8965  11.364   7.342  -0.010  2.0847 -0.7677 -0.3599
  790MOL0     H 8966  11.426   7.323   0.154 -1.6584 -1.6222 -0.2225
  790MOL0     H 8967  11.572   7.234  -0.015 -0.9457  0.0475  2.0452
  790MOL0     H 8968  11.592   7.398  -0.097  0.3660 -0.4947 -0.3892
  790MOL0     H 8969  11.737   7.574   0.084 -1.1486 -0.4877 -0.0958
  790MOL0     H 8970  11.902   7.521   0.415  1.8067  0.5012  0.2888
  790MOL0     H 8971  11.845   7.642   0.305 -0.6609 -0.4514  1.9584
  790MOL0     H 8972  12.072   7.463   0.226 -1.5516  0.5812 -0.5947
  790MOL0     H 8973  12.005   7.595   0.135  1.7992 -0.2196 -0.0909
  790MOL0     H 8974  12.084   7.754   0.317 -1.1022 -0.5535 -1.8807
  790MOL0     H 8975  12.114   7.618   0.422 -0.3517 -1.6749 -0.7247
  790MOL0     H 8976  12.296   7.548   0.280 -1.4513 -1.1403 -0.7749
  790MOL0     H 8977  12.239   7.662   0.155  0.4211  6.1599  0.7048
  790MOL0     H 8978  12.482   7.888   0.433  1.1336  1.5323 -1.3197
  790MOL0     H 8979  12.784   7.840   0.622  0.7091 -1.5379 -2.1063
  790MOL0     H 8980  12.688   7.977   0.546  0.1833  0.6180 -0.9212
  790MOL0     H 8981  12.848   7.928   0.485  1.1114 -0.9040  1.3037
  790MOL0     H 8982  13.230   7.782   0.467  2.8626  0.0830 -0.1266
  790MOL0     H 8983  13.428   7.635   0.516  0.3634 -0.4237  0.0080
  790MOL0     H 8984  13.396   7.429   0.852 -2.6917 -1.2327 -0.5895
  790MOL0     H 8985  13.347   7.271   0.778  1.3051 -1.9705  0.6493
  790MOL0     H 8986  13.603   7.285   0.709  1.8296 -0.7730  0.8924
  790MOL0     H 8987  13.614   7.390   0.849 -0.1097  0.7872 -0.7348
  790MOL0     H 8988  13.553   7.192   0.994 -3.2400  1.1195 -0.6544
  790MOL0     H 8989  13.697   7.149   0.891  0.0550 -1.4736 -1.4561
  790MOL0     H 8990  13.536   7.003   0.748  0.7880 -3.2704  1.5209
  790MOL0     H 8991  13.407   7.071   0.849  0.2984  0.3836  0.4690
  790MOL0     H 8992  13.623   6.921   0.995 -0.8642  2.5341  1.1117
  790MOL0     H 8993  13.462   6.953   1.029 -0.1970 -0.6674  0.4642
  790MOL0     H 8994  13.472   6.706   0.952  0.1624 -0.3890 -0.6096
  790MOL0     H 8995  13.533   6.752   0.803 -0.6585  0.2014 -0.4234
  790MOL0     H 8996  13.350   6.878   0.730  0.0412  0.7845 -0.1233
  790MOL0     H 8997  13.287   6.878   0.907  2.5177  0.9189  1.3042
  790MOL0     H 8998  13.264   6.620   0.868 -0.5046  0.1596  0.3992
  790MOL0     H 8999  13.298   6.655   0.699  0.8458 -0.6455  0.5773
  790MOL0     H 9000  13.154   7.353   0.702 -0.8314 -1.1243 -0.7336
  790MOL0     H 9001  12.973   7.512   0.646 -0.0518  1.2434  0.6859
  790MOL0     H 9002  12.722   7.502   0.239 -1.7659  0.1654 -0.8385
  790MOL0     H 9003  12.488   7.544   0.195 -1.8054  1.8711 -0.4435
  790MOL0     H 9004  10.788   7.930  -0.018  0.3552 -1.5480  0.8419
  790MOL0     H 9005  10.548   7.884   0.052  0.7373  1.2131  0.7217
  790MOL0     H 9006  10.228   7.729   0.350 -1.6427  0.2320  1.5587
  790MOL0     H 9007  10.050   7.613   0.449  0.5926  0.1525 -1.5180
  790MOL0     H 9008   9.998   7.215   0.316 -2.0210  0.6525 -1.4133
  790MOL0     H 9009  10.031   7.152   0.470  1.6150  0.1871 -1.1909
  790MOL0     H 9010   9.786   7.117   0.384  0.7413 -0.0230 -0.6896
  790MOL0     H 9011   9.753   7.292   0.397  0.2493  0.5435 -1.3219
  790MOL0     H 9012   9.851   7.107   0.617  1.1642  0.7829  0.2926
  790MOL0     H 9013   9.844   7.275   0.632 -0.6636 -1.7051 -0.1067
  790MOL0     H 9014   9.601   7.090   0.616  1.5494 -1.0556 -0.6492
  790MOL0     H 9015   9.578   7.260   0.587 -2.4210 -0.7261  1.4677
  790MOL0     H 9016   9.578   7.241   1.081 -1.2834 -2.6367  0.0443
  790MOL0     H 9017  10.249   7.238   0.391  1.4153 -0.3902  0.3091
  790MOL0     H 9018  10.470   7.219   0.344 -0.3184  0.0352 -0.3093
  790MOL0     H 9019  10.477   7.301   0.194 -1.8438 -0.6086 -0.4855
  790MOL0     H 9020  10.565   7.362   0.333 -1.0138  1.9739 -0.8404
  791MOL0     O 9021   1.620   0.966   6.458  0.1945 -0.5057 -0.7989
  791MOL0     C 9022   1.635   0.923   6.343 -0.1712  0.1278 -0.0833
  791MOL0     O 9023   1.566   0.960   6.239  0.3567 -0.2370  0.8385
  791MOL0     C 9024   1.467   1.050   6.273 -0.0918  0.4543  0.5220
  791MOL0     C 9025   1.493   1.181   6.254 -0.7133 -0.1871  0.5511
  791MOL0     C 9026   1.417   1.282   6.307  0.3629  0.2351  0.0314
  791MOL0     C 9027   1.299   1.248   6.380  0.1594  0.6545 -0.1979
  791MOL0     O 9028   1.200   1.339   6.416 -0.0077 -0.2244  0.3225
  791MOL0     C 9029   1.215   1.482   6.402 -0.3026  0.1612 -1.1539
  791MOL0     C 9030   1.114   1.558   6.484 -0.1288  0.3035  0.5432
  791MOL0     C 9031   0.968   1.535   6.428  0.6061  0.0577 -0.5184
  791MOL0     C 9032   0.948   1.604   6.292 -0.8854  0.1173 -1.5120
  791MOL0     C 9033   0.804   1.573   6.248 -0.7429 -0.2817  0.2297
  791MOL0     C 9034   0.779   1.637   6.111  0.2294 -1.1405 -0.3716
  791MOL0     C 9035   0.629   1.643   6.074 -0.3370 -0.4280  0.6539
  791MOL0     C 9036   0.564   1.517   6.028 -0.7554 -0.5618 -0.4137
  791MOL0     N 9037   0.612   1.475   5.896  0.2529 -0.4323 -0.0653
  791MOL0     C 9038   0.726   1.410   5.863  0.6943 -0.4114  0.6250
  791MOL0     C 9039   0.716   1.396   5.728 -0.2378 -0.1376 -0.5139
  791MOL0     C 9040   0.820   1.329   5.634 -0.1295 -0.2532 -0.1835
  791MOL0     C 9041   0.852   1.422   5.514 -0.2500 -0.3413  0.2056
  791MOL0     C 9042   0.996   1.420   5.456 -0.5482  0.7174  0.6168
  791MOL0     C 9043   1.074   1.289   5.460  1.1807 -0.6244 -0.3885
  791MOL0     O 9044   1.205   1.304   5.408 -0.1597 -0.2801 -0.6579
  791MOL0     C 9045   1.256   1.219   5.317  0.1659  0.6295  0.0472
  791MOL0     C 9046   1.181   1.176   5.205  0.2087 -0.5837  0.0449
  791MOL0     C 9047   1.238   1.078   5.113 -0.3115  0.5356  0.2904
  791MOL0     C 9048   1.150   1.029   4.994 -0.6502 -0.1588 -0.4117
  791MOL0     C 9049   1.375   1.028   5.124 -0.1567 -0.0520 -0.1259
  791MOL0     C 9050   1.454   0.960   5.016  0.2468  0.2497 -0.1385
  791MOL0     O 9051   1.572   0.902   5.054 -0.9346 -0.0319  0.2917
  791MOL0     C 9052   1.660   0.860   4.958 -0.7269  0.8469  0.6455
  791MOL0     C 9053   1.789   0.884   4.982  0.3656 -0.0349 -0.4987
  791MOL0     C 9054   1.882   0.832   4.889 -0.4444 -0.2628  0.5226
  791MOL0     C 9055   1.848   0.749   4.788 -0.1080  0.4539  1.8091
  791MOL0     O 9056   1.932   0.691   4.700  0.2912 -0.2081  0.0259
  791MOL0     C 9057   1.930   0.551   4.685  0.1652  1.0788  0.2644
  791MOL0     C 9058   2.010   0.511   4.568  0.2421  0.4122 -0.0610
  791MOL0     C 9059   2.079   0.378   4.572 -0.2674  0.2317 -0.4716
  791MOL0     C 9060   2.143   0.343   4.438 -0.0010 -1.0045 -0.3209
  791MOL0     C 9061   2.159   0.202   4.402  0.5140 -0.2047  0.4463
  791MOL0     C 9062   2.227   0.123   4.522 -0.5412 -0.9124 -0.3348
  791MOL0     C 9063   2.236  -0.017   4.478  1.5273 -0.5660  0.2834
  791MOL0     C 9064   2.097  -0.087   4.459 -0.0158  0.3911 -0.0723
  791MOL0    Cl 9065   2.122  -0.262   4.432 -0.4812  0.4018  0.5701
  791MOL0     C 9066   1.714   0.706   4.777 -0.1420 -0.9224  0.1745
  791MOL0     C 9067   1.624   0.759   4.863  0.2627  0.7607 -0.2897
  791MOL0     O 9068   1.412   0.969   4.900  1.3609 -0.4407  0.1905
  791MOL0     C 9069   1.443   1.073   5.236 -0.9103 -0.3348 -0.5282
  791MOL0     C 9070   1.380   1.166   5.333  0.0773 -0.2526  0.3907
  791MOL0     N 9071   0.593   1.446   5.682 -1.3759  0.1216  0.1264
  791MOL0     N 9072   0.532   1.486   5.781  0.3196 -0.3662 -0.5496
  791MOL0     C 9073   1.269   1.110   6.403  0.0952  0.5045  0.5070
  791MOL0     C 9074   1.355   1.010   6.352  0.0955 -0.6335  0.1762
  791MOL0     C 9075   1.714   0.800   6.323  0.6125  0.0529  0.0721
  791MOL0     C 9076   1.668   0.672   6.353  1.0151 -0.0742 -0.1855
  791MOL0     C 9077   1.754   0.560   6.342 -0.1663  0.1349 -0.4927
  791MOL0     C 9078   1.886   0.574   6.307  0.4067 -0.2577  0.2543
  791MOL0     O 9079   1.972   0.466   6.292 -0.1856 -0.5909 -0.4228
  791MOL0     C 9080   1.924   0.332   6.307  0.2712 -0.4573 -0.4167
  791MOL0     C 9081   2.024   0.226   6.343 -0.6422 -0.2281  0.4363
  791MOL0     C 9082   2.103   0.263   6.472 -0.9122 -0.1102  0.0056
  791MOL0     C 9083   2.215   0.166   6.517  0.2812  0.7430  0.5817
  791MOL0     C 9084   2.314   0.155   6.403 -0.0017  0.1474 -0.5676
  791MOL0     C 9085   2.394   0.154   6.309 -0.1887  0.7394  0.1329
  791MOL0     C 9086   1.929   0.705   6.276  0.0894 -0.0994 -0.3838
  791MOL0     C 9087   1.849   0.820   6.290  0.1363 -0.0399  0.6104
  791MOL0     C 9088   1.902   0.957   6.277 -0.3344 -0.0697  0.3908
  791MOL0     H 9089   1.577   1.212   6.192  0.8240 -0.2600  2.5138
  791MOL0     H 9090   1.433   1.387   6.286  0.3058 -0.0649 -1.6643
  791MOL0     H 9091   1.213   1.503   6.295  1.7352 -2.6480 -1.8694
  791MOL0     H 9092   1.317   1.512   6.428 -0.6966  1.2721 -0.8619
  791MOL0     H 9093   1.130   1.527   6.588  0.8770  0.6879  0.5111
  791MOL0     H 9094   1.140   1.664   6.485  0.6191  0.2083 -2.0517
  791MOL0     H 9095   0.936   1.430   6.431 -0.5376  0.3956  1.8809
  791MOL0     H 9096   0.896   1.587   6.493  0.0490  0.0723 -1.1381
  791MOL0     H 9097   0.978   1.709   6.300 -0.1301  0.0323 -2.9311
  791MOL0     H 9098   1.011   1.567   6.211  0.5671  1.8151 -1.2160
  791MOL0     H 9099   0.724   1.607   6.314  0.0049  0.6845  0.6689
  791MOL0     H 9100   0.799   1.466   6.228  0.1102 -0.4885  1.0443
  791MOL0     H 9101   0.812   1.741   6.115 -2.2233 -0.3272  0.3567
  791MOL0     H 9102   0.837   1.588   6.032  1.1761  0.4197 -0.6824
  791MOL0     H 9103   0.610   1.709   5.989 -1.2354 -0.4058  0.8519
  791MOL0     H 9104   0.578   1.688   6.160 -0.3843  1.0309 -0.1150
  791MOL0     H 9105   0.601   1.445   6.101 -1.0601 -0.8649 -0.5552
  791MOL0     H 9106   0.456   1.525   6.036 -0.6773  2.1947 -1.0594
  791MOL0     H 9107   0.805   1.376   5.929 -1.2526 -1.6203  2.4259
  791MOL0     H 9108   0.791   1.234   5.590  0.0059  0.1570 -1.1908
  791MOL0     H 9109   0.911   1.317   5.695  0.7278  2.0149 -0.8936
  791MOL0     H 9110   0.779   1.404   5.435 -1.9817  1.1081  1.3936
  791MOL0     H 9111   0.832   1.525   5.546 -1.2122  1.0028 -4.0550
  791MOL0     H 9112   0.997   1.468   5.357  0.6337  1.1801  0.8370
  791MOL0     H 9113   1.043   1.488   5.527 -0.8359 -0.5719  2.1071
  791MOL0     H 9114   1.076   1.260   5.565 -0.9576  1.0090  0.1551
  791MOL0     H 9115   1.019   1.218   5.397  0.5928  0.2115 -0.8429
  791MOL0     H 9116   1.085   1.220   5.182 -0.0323 -0.8981  0.4426
  791MOL0     H 9117   1.170   0.922   4.982  1.3095  0.0848  0.3011
  791MOL0     H 9118   1.180   1.088   4.907  3.0966 -0.4582  0.5338
  791MOL0     H 9119   1.042   1.036   5.010 -1.2449 -2.7919 -2.5065
  791MOL0     H 9120   1.819   0.947   5.065 -0.0382 -0.9084  0.3193
  791MOL0     H 9121   1.988   0.857   4.892 -0.2504 -1.0423  0.5066
  791MOL0     H 9122   1.963   0.491   4.770  0.3850 -0.9987 -1.2048
  791MOL0     H 9123   1.831   0.508   4.669  0.0794  1.5422 -0.4745
  791MOL0     H 9124   1.943   0.527   4.483  1.5483  0.6851 -1.0805
  791MOL0     H 9125   2.086   0.587   4.546 -1.2816  1.4999 -1.9294
  791MOL0     H 9126   2.007   0.301   4.600 -1.1211  1.0156 -0.4829
  791MOL0     H 9127   2.158   0.386   4.648 -2.9467 -1.8156  2.7856
  791MOL0     H 9128   2.244   0.385   4.437 -0.0016 -0.9992 -1.0700
  791MOL0     H 9129   2.086   0.392   4.358 -3.2212 -0.4259  2.1121
  791MOL0     H 9130   2.058   0.161   4.393  1.0164 -1.4348  0.1863
  791MOL0     H 9131   2.222   0.201   4.312  0.9779  0.6142  0.7543
  791MOL0     H 9132   2.163   0.131   4.610 -2.0988 -0.5714 -1.4528
  791MOL0     H 9133   2.327   0.162   4.542 -1.0228  1.8287 -2.6699
  791MOL0     H 9134   2.291  -0.075   4.553  0.4465 -2.8542 -0.5726
  791MOL0     H 9135   2.298  -0.017   4.388  0.4700 -1.7990 -0.4895
  791MOL0     H 9136   2.049  -0.050   4.367  3.8009  2.6189 -1.4000
  791MOL0     H 9137   2.024  -0.066   4.538 -1.7720 -0.7744 -1.3042
  791MOL0     H 9138   1.679   0.640   4.699 -1.0491  0.0012 -0.2325
  791MOL0     H 9139   1.520   0.727   4.856 -0.4392  2.5327  1.1445
  791MOL0     H 9140   1.543   1.046   5.267 -1.1035  0.9070  1.4145
  791MOL0     H 9141   1.446   1.203   5.410  2.0264 -0.6393 -1.0283
  791MOL0     H 9142   1.184   1.086   6.466  0.4399 -1.2002  0.3810
  791MOL0     H 9143   1.320   0.907   6.358 -0.7278 -0.3504  0.3917
  791MOL0     H 9144   1.561   0.665   6.368  0.9110  0.9416 -0.3857
  791MOL0     H 9145   1.720   0.460   6.366  1.4803 -0.0781  1.1263
  791MOL0     H 9146   1.855   0.320   6.391  0.2878 -1.0973 -0.4895
  791MOL0     H 9147   1.868   0.303   6.218  0.2248 -0.0262 -0.5275
  791MOL0     H 9148   2.083   0.221   6.252 -4.3835 -0.2746 -2.2095
  791MOL0     H 9149   1.985   0.125   6.361  1.5166 -1.3663 -0.8549
  791MOL0     H 9150   2.146   0.363   6.463 -1.9202  0.4065  0.6688
  791MOL0     H 9151   2.025   0.273   6.548 -2.5459 -1.2444 -1.4359
  791MOL0     H 9152   2.181   0.063   6.530 -1.4618  0.8729 -2.1343
  791MOL0     H 9153   2.258   0.214   6.605  0.3369  1.2603  0.2770
  791MOL0     H 9154   2.451   0.162   6.218  1.9343 -0.0312  1.3273
  791MOL0     H 9155   2.032   0.715   6.242 -0.2692 -1.3322 -1.9860
  791MOL0     H 9156   1.994   0.965   6.219  0.6491  0.1509  1.9236
  791MOL0     H 9157   1.826   1.014   6.223 -0.5259 -1.9493 -1.4392
  791MOL0     H 9158   1.917   1.004   6.375 -1.6074  0.0431  0.5445
  792MOL0     O 9159   4.809   7.247   0.874  0.1934 -0.3772 -0.3286
  792MOL0     C 9160   4.781   7.328   0.962 -0.4547  0.7544  0.0130
  792MOL0     O 9161   4.870   7.382   1.043  0.8285 -0.3021  0.2417
  792MOL0     C 9162   4.993   7.331   1.043  0.3603 -0.3543  0.6438
  792MOL0     C 9163   5.098   7.382   0.963 -0.5684  0.9571  0.1392
  792MOL0     C 9164   5.229   7.325   0.966  0.1125 -0.2293  0.3652
  792MOL0     C 9165   5.259   7.213   1.052 -0.1818 -0.1487  0.1964
  792MOL0     O 9166   5.385   7.158   1.059 -0.2996 -0.4225 -0.1352
  792MOL0     C 9167   5.490   7.223   0.992  0.2165  0.1505 -0.2560
  792MOL0     C 9168   5.628   7.151   1.014  0.1430 -0.2320 -0.1253
  792MOL0     C 9169   5.736   7.248   0.964  0.4149  0.1654  0.7154
  792MOL0     C 9170   5.871   7.204   1.004 -0.1983  0.4173 -0.0553
  792MOL0     C 9171   5.971   7.264   0.912 -0.8991 -0.2650 -0.4436
  792MOL0     C 9172   6.121   7.235   0.942  0.7293  0.9403  0.0005
  792MOL0     C 9173   6.212   7.324   0.871  0.4719  0.3734  0.0967
  792MOL0     C 9174   6.356   7.277   0.906 -0.3116  0.0774 -0.5149
  792MOL0     N 9175   6.459   7.352   0.832  0.1957  0.2322 -0.2018
  792MOL0     C 9176   6.485   7.486   0.829  0.1700  0.2596 -0.2050
  792MOL0     C 9177   6.597   7.504   0.758  0.0615  0.5397  0.0373
  792MOL0     C 9178   6.685   7.630   0.742 -0.3388  0.2484 -0.5750
  792MOL0     C 9179   6.708   7.684   0.880 -0.3283  0.2861 -0.6177
  792MOL0     C 9180   6.789   7.603   0.977 -1.0902 -0.6638  0.4678
  792MOL0     C 9181   6.938   7.591   0.947  0.2903  0.1187  0.5782
  792MOL0     O 9182   6.990   7.689   0.859 -0.0478 -0.0193 -0.1311
  792MOL0     C 9183   7.134   7.690   0.835  0.0786 -0.1628  0.0454
  792MOL0     C 9184   7.191   7.817   0.806  1.0617  0.2228 -0.8444
  792MOL0     C 9185   7.334   7.832   0.783  0.8978  0.4615 -0.1393
  792MOL0     C 9186   7.383   7.970   0.744 -0.1446  0.4637 -0.2564
  792MOL0     C 9187   7.416   7.722   0.801 -0.1113  1.0155 -0.5441
  792MOL0     C 9188   7.569   7.714   0.786  0.3910 -0.3101  0.0544
  792MOL0     O 9189   7.625   7.586   0.799 -0.4837  0.9544 -0.3026
  792MOL0     C 9190   7.765   7.576   0.796  0.7377  0.0386  0.2604
  792MOL0     C 9191   7.829   7.537   0.679 -1.2341 -0.7168  0.1678
  792MOL0     C 9192   7.971   7.522   0.678 -0.0806 -0.4427  1.2616
  792MOL0     C 9193   8.050   7.544   0.803  0.1907 -0.0062  0.9037
  792MOL0     O 9194   8.182   7.526   0.821 -0.0265  0.0550  0.8758
  792MOL0     C 9195   8.256   7.557   0.700  0.1593 -0.8161  0.6634
  792MOL0     C 9196   8.406   7.560   0.730  0.4642 -0.1158  0.2127
  792MOL0     C 9197   8.459   7.682   0.819 -0.0208  0.3955  0.5270
  792MOL0     C 9198   8.613   7.706   0.812 -0.8561  0.2424  1.0244
  792MOL0     C 9199   8.656   7.844   0.878  0.3414  0.4557  0.5990
  792MOL0     C 9200   8.794   7.885   0.829 -0.3699 -0.3721  0.2575
  792MOL0     C 9201   8.900   7.769   0.847 -0.1752  0.4579  0.2826
  792MOL0     C 9202   9.044   7.827   0.832 -0.4811 -0.7098 -0.0276
  792MOL0    Cl 9203   9.155   7.694   0.819 -0.0009  0.1553 -0.5335
  792MOL0     C 9204   7.976   7.565   0.915 -0.2440  0.2952 -0.1390
  792MOL0     C 9205   7.837   7.593   0.914  0.2648  0.6580 -0.1010
  792MOL0     O 9206   7.630   7.814   0.749  1.3713  0.3650 -0.2977
  792MOL0     C 9207   7.357   7.596   0.819  0.1385 -0.9320  0.4944
  792MOL0     C 9208   7.218   7.579   0.836  0.3238  0.8110  0.0773
  792MOL0     N 9209   6.641   7.378   0.706  0.2983 -0.4540 -0.1178
  792MOL0     N 9210   6.552   7.289   0.751  0.2097 -0.3579  0.1192
  792MOL0     C 9211   5.149   7.169   1.139  0.0548 -0.2230  0.2313
  792MOL0     C 9212   5.021   7.227   1.129 -0.0675 -0.3274  0.3171
  792MOL0     C 9213   4.637   7.357   0.993  0.3780  0.3573  0.3635
  792MOL0     C 9214   4.538   7.272   0.936 -0.4848 -0.7322  0.3618
  792MOL0     C 9215   4.400   7.296   0.957  0.3196 -0.0596 -0.1386
  792MOL0     C 9216   4.357   7.407   1.040  0.8819  0.3085  0.7173
  792MOL0     O 9217   4.225   7.440   1.046  0.3455  0.0731 -1.0055
  792MOL0     C 9218   4.120   7.354   0.986  0.7222 -0.2462  0.3651
  792MOL0     C 9219   3.987   7.391   1.057 -0.0253 -0.0016  0.2438
  792MOL0     C 9220   3.869   7.385   0.956  0.1056  0.1962  1.2269
  792MOL0     C 9221   3.810   7.248   0.930  0.2246  0.0951 -0.2471
  792MOL0     C 9222   3.691   7.268   0.844 -0.2931  0.0729  0.8471
  792MOL0     C 9223   3.596   7.266   0.768 -0.2266 -0.0631  0.4200
  792MOL0     C 9224   4.455   7.485   1.096  0.2811 -0.2262 -0.0045
  792MOL0     C 9225   4.591   7.462   1.078 -0.0212  0.7273 -0.1295
  792MOL0     C 9226   4.682   7.562   1.138  0.2691 -0.7699 -0.0654
  792MOL0     H 9227   5.076   7.466   0.897 -2.5970  2.6053  2.6969
  792MOL0     H 9228   5.312   7.363   0.909 -0.1164  0.2392  0.3444
  792MOL0     H 9229   5.496   7.327   1.026 -1.3132 -0.0106  0.6122
  792MOL0     H 9230   5.469   7.213   0.885 -1.4196 -0.9728  0.1392
  792MOL0     H 9231   5.634   7.139   1.123 -0.7676  0.4073  0.0133
  792MOL0     H 9232   5.643   7.059   0.958  0.5339  1.4721 -3.0204
  792MOL0     H 9233   5.736   7.255   0.855  1.2633  1.8516  0.7908
  792MOL0     H 9234   5.739   7.345   1.015  2.4638  0.4091  0.2124
  792MOL0     H 9235   5.896   7.233   1.107  2.8875 -1.9181 -0.0181
  792MOL0     H 9236   5.885   7.096   0.996 -1.6800  0.2543 -0.8746
  792MOL0     H 9237   5.959   7.372   0.912  1.5290  0.1418  2.4892
  792MOL0     H 9238   5.960   7.231   0.808 -0.4658  1.6128 -1.1145
  792MOL0     H 9239   6.123   7.231   1.052 -3.4720 -0.5627  0.1761
  792MOL0     H 9240   6.148   7.134   0.912  1.4499  0.2154  2.7528
  792MOL0     H 9241   6.197   7.429   0.897  1.0723  0.7331 -0.9526
  792MOL0     H 9242   6.197   7.312   0.763  2.9760 -3.9040 -0.0349
  792MOL0     H 9243   6.377   7.294   1.012 -0.1198  0.7853 -0.6587
  792MOL0     H 9244   6.358   7.169   0.889 -1.1960 -0.1369  0.6138
  792MOL0     H 9245   6.434   7.558   0.891  0.3700  0.3042 -0.0920
  792MOL0     H 9246   6.634   7.708   0.686 -0.3295 -0.1735 -1.1835
  792MOL0     H 9247   6.784   7.607   0.701 -1.1154  0.1395 -2.4484
  792MOL0     H 9248   6.745   7.787   0.876 -0.8969  0.5235 -0.0118
  792MOL0     H 9249   6.609   7.696   0.925 -0.5207 -0.9833 -0.6711
  792MOL0     H 9250   6.781   7.656   1.072  1.8589  0.5287  0.1632
  792MOL0     H 9251   6.737   7.508   0.989 -3.8180  0.6700 -0.0615
  792MOL0     H 9252   6.999   7.592   1.038 -0.5350  1.9723  1.1743
  792MOL0     H 9253   6.957   7.499   0.892  0.6982 -0.5978  1.8764
  792MOL0     H 9254   7.122   7.900   0.814  3.0538  1.7890  2.3846
  792MOL0     H 9255   7.431   7.972   0.646 -3.1456 -1.9705 -1.9776
  792MOL0     H 9256   7.441   8.018   0.824 -3.6315 -0.3970  3.0623
  792MOL0     H 9257   7.302   8.041   0.726  0.8706  1.5103 -0.8423
  792MOL0     H 9258   7.765   7.532   0.592  0.2040 -2.6407 -0.8590
  792MOL0     H 9259   8.020   7.495   0.585  1.5407 -1.2943  2.2999
  792MOL0     H 9260   8.226   7.485   0.623 -5.2418  2.2196 -0.6467
  792MOL0     H 9261   8.223   7.648   0.648  0.2387 -1.7391 -1.0914
  792MOL0     H 9262   8.446   7.473   0.781  0.4144 -0.1012  0.2764
  792MOL0     H 9263   8.445   7.561   0.627 -2.8332 -2.2198 -1.2253
  792MOL0     H 9264   8.434   7.657   0.923 -1.3648  0.9499  0.3655
  792MOL0     H 9265   8.392   7.764   0.790  0.6787  0.4562 -1.0355
  792MOL0     H 9266   8.630   7.717   0.705 -1.0628 -1.0816  0.8388
  792MOL0     H 9267   8.663   7.614   0.846 -0.8812  0.3614  1.3825
  792MOL0     H 9268   8.580   7.918   0.856  0.0673 -0.0005 -0.0340
  792MOL0     H 9269   8.655   7.816   0.984 -2.3864 -1.2791  0.2202
  792MOL0     H 9270   8.826   7.977   0.879 -0.0607 -1.4313  2.0769
  792MOL0     H 9271   8.782   7.896   0.720  0.5308  0.6210  0.2414
  792MOL0     H 9272   8.882   7.691   0.772  0.5045  0.1795  0.3970
  792MOL0     H 9273   8.893   7.734   0.950 -2.2585  1.7109  0.6228
  792MOL0     H 9274   9.073   7.887   0.919  0.0328 -2.8271  1.3429
  792MOL0     H 9275   9.053   7.891   0.744 -1.1312 -3.0113 -1.8834
  792MOL0     H 9276   8.031   7.563   1.008  1.3023 -0.1767 -1.0354
  792MOL0     H 9277   7.782   7.608   1.006 -0.7830  0.4203 -0.6698
  792MOL0     H 9278   7.424   7.510   0.819  2.0862  0.5291  0.5474
  792MOL0     H 9279   7.176   7.481   0.856 -0.7758  1.1471 -0.5368
  792MOL0     H 9280   5.173   7.082   1.199 -2.1350  0.5334  2.3630
  792MOL0     H 9281   4.944   7.175   1.186 -2.1574  0.7023 -1.4146
  792MOL0     H 9282   4.577   7.197   0.868  1.7202  0.8465 -0.2463
  792MOL0     H 9283   4.331   7.230   0.907 -2.0349  2.5716 -0.5733
  792MOL0     H 9284   4.115   7.381   0.880 -0.3111  0.3160  0.5381
  792MOL0     H 9285   4.135   7.248   1.009 -1.2935 -0.5799  0.3426
  792MOL0     H 9286   3.987   7.496   1.086 -3.1672  1.0435 -2.7628
  792MOL0     H 9287   3.963   7.335   1.148 -1.7624  0.8496  0.3565
  792MOL0     H 9288   3.786   7.444   0.997 -2.0930 -2.6230  1.1518
  792MOL0     H 9289   3.895   7.427   0.859 -2.6923 -2.8157 -1.0216
  792MOL0     H 9290   3.776   7.208   1.026 -0.5634  0.9566 -0.1480
  792MOL0     H 9291   3.879   7.175   0.888  1.1800 -0.7759  2.6095
  792MOL0     H 9292   3.496   7.263   0.729 -0.1706 -3.0350  0.2613
  792MOL0     H 9293   4.424   7.581   1.136 -0.2808  0.0676 -1.1254
  792MOL0     H 9294   4.748   7.502   1.202 -1.0979 -2.2172  0.0515
  792MOL0     H 9295   4.742   7.603   1.056 -0.9815 -1.2310 -1.2512
  792MOL0     H 9296   4.636   7.630   1.210  3.3191 -1.5987  2.9639
  793MOL0     O 9297   8.095   0.391   0.923 -0.7331  0.4168  0.1193
  793MOL0     C 9298   8.024   0.398   0.826  0.3107  0.2503 -0.2011
  793MOL0     O 9299   8.009   0.509   0.746  0.0058 -0.6490  0.5859
  793MOL0     C 9300   8.110   0.597   0.744  0.3703  0.1795 -0.1227
  793MOL0     C 9301   8.244   0.560   0.705 -0.1785  0.0383 -0.0106
  793MOL0     C 9302   8.358   0.646   0.710 -0.1676 -0.1019 -0.3414
  793MOL0     C 9303   8.333   0.788   0.747 -0.2193  1.6012  0.2475
  793MOL0     O 9304   8.435   0.879   0.731  0.1526 -0.1495 -0.2463
  793MOL0     C 9305   8.451   0.990   0.812 -0.1345 -0.5450  0.0365
  793MOL0     C 9306   8.590   1.046   0.785  0.9623 -0.5247 -0.1780
  793MOL0     C 9307   8.700   0.941   0.800 -0.5885  0.7475  0.1651
  793MOL0     C 9308   8.834   1.005   0.794 -0.3396 -0.0276  0.4882
  793MOL0     C 9309   8.863   1.100   0.917 -0.1049 -0.6818  0.6945
  793MOL0     C 9310   9.014   1.101   0.937 -0.0033  1.2567  0.3572
  793MOL0     C 9311   9.075   0.966   0.999 -0.0454  0.3023  0.2744
  793MOL0     C 9312   9.229   0.944   0.965 -0.5675 -0.3300  0.5441
  793MOL0     N 9313   9.312   1.057   1.003  0.7085 -0.1624 -0.6729
  793MOL0     C 9314   9.287   1.130   1.120  0.3460 -0.0486  0.7136
  793MOL0     C 9315   9.392   1.214   1.123  0.2926 -0.5265  0.8003
  793MOL0     C 9316   9.414   1.325   1.223 -1.5180 -0.1004  0.0171
  793MOL0     C 9317   9.570   1.361   1.241  0.1825  0.4098  1.6956
  793MOL0     C 9318   9.577   1.462   1.357 -0.1941  0.0947  0.5580
  793MOL0     C 9319   9.715   1.460   1.427  0.0308 -0.7012  0.2221
  793MOL0     O 9320   9.719   1.531   1.553  0.6420 -0.5168  0.5128
  793MOL0     C 9321   9.845   1.531   1.619  0.3690 -0.5459 -1.0699
  793MOL0     C 9322   9.837   1.611   1.735 -0.0275 -0.5847 -0.4184
  793MOL0     C 9323   9.952   1.644   1.820  0.7228 -0.8174 -0.8530
  793MOL0     C 9324   9.925   1.745   1.927 -0.2917  0.0012  0.1743
  793MOL0     C 9325  10.069   1.578   1.797 -0.0507  0.3794  0.4328
  793MOL0     C 9326  10.190   1.583   1.891 -0.2837 -0.0116 -0.6939
  793MOL0     O 9327  10.279   1.477   1.874  0.0003 -0.0758  0.0768
  793MOL0     C 9328  10.400   1.483   1.944  0.1169 -0.7403 -0.7187
  793MOL0     C 9329  10.489   1.585   1.938  0.4355 -0.2631 -0.0495
  793MOL0     C 9330  10.607   1.584   2.006  0.3794  0.8534 -1.4324
  793MOL0     C 9331  10.632   1.489   2.103 -0.6637 -0.3972  1.3750
  793MOL0     O 9332  10.746   1.492   2.179 -0.1260 -0.2131 -0.6297
  793MOL0     C 9333  10.863   1.564   2.124 -0.0222  0.3968 -0.2676
  793MOL0     C 9334  10.999   1.509   2.158 -0.1559  0.3707 -0.4497
  793MOL0     C 9335  11.117   1.586   2.101  0.3586  0.6052  0.3070
  793MOL0     C 9336  11.251   1.527   2.150  0.1175 -0.1319  0.2336
  793MOL0     C 9337  11.286   1.575   2.288 -0.0929  0.2273  0.2639
  793MOL0     C 9338  11.427   1.563   2.344  0.8245  0.1346  0.1441
  793MOL0     C 9339  11.448   1.417   2.364 -0.1521  0.7604  0.4432
  793MOL0     C 9340  11.578   1.382   2.436 -0.5678  0.4312 -1.1472
  793MOL0    Cl 9341  11.606   1.478   2.588  0.2556  0.1801  0.1594
  793MOL0     C 9342  10.544   1.385   2.113 -0.5508 -0.1789 -0.9153
  793MOL0     C 9343  10.425   1.382   2.039 -0.1890 -0.1691  1.2921
  793MOL0     O 9344  10.213   1.684   1.949  0.3771 -0.7337 -0.1895
  793MOL0     C 9345  10.077   1.492   1.683  1.2886  0.4558  0.2849
  793MOL0     C 9346   9.964   1.468   1.598 -0.5034  0.1767 -0.4026
  793MOL0     N 9347   9.476   1.185   1.015 -0.2056 -0.8633 -0.4826
  793MOL0     N 9348   9.424   1.087   0.953 -0.2421  0.7465  0.3091
  793MOL0     C 9349   8.205   0.822   0.779  0.2982 -0.1102 -0.0409
  793MOL0     C 9350   8.095   0.735   0.770 -0.1360  0.1470  0.4797
  793MOL0     C 9351   7.925   0.288   0.790 -0.6311 -0.3503 -0.8510
  793MOL0     C 9352   7.820   0.321   0.702 -0.7234 -0.5859 -0.8909
  793MOL0     C 9353   7.721   0.233   0.666  0.2911  0.4233 -0.4132
  793MOL0     C 9354   7.735   0.099   0.695 -0.1673  0.1566  0.4822
  793MOL0     O 9355   7.624   0.018   0.667 -0.0768 -0.2072  0.9368
  793MOL0     C 9356   7.642  -0.120   0.699  0.4082 -0.1800  0.4367
  793MOL0     C 9357   7.528  -0.208   0.636  0.5796 -0.3398  0.4939
  793MOL0     C 9358   7.473  -0.163   0.508  0.1964  0.5743  0.0276
  793MOL0     C 9359   7.370  -0.266   0.455  0.3626 -0.2406 -0.2951
  793MOL0     C 9360   7.296  -0.221   0.335  0.9222  0.2402 -0.5068
  793MOL0     C 9361   7.254  -0.186   0.225  0.8212 -0.0089  0.3997
  793MOL0     C 9362   7.845   0.057   0.763 -0.0033 -0.1902 -0.0754
  793MOL0     C 9363   7.941   0.149   0.814 -0.7796  0.0835  0.4873
  793MOL0     C 9364   8.052   0.089   0.897 -0.0035  0.0261  0.7546
  793MOL0     H 9365   8.273   0.460   0.677  2.3762  0.8510 -0.4945
  793MOL0     H 9366   8.460   0.624   0.681  1.2837  3.7159  1.2384
  793MOL0     H 9367   8.458   0.976   0.921  0.1149  3.8738  0.7977
  793MOL0     H 9368   8.386   1.075   0.792  1.9809  0.2344 -5.1988
  793MOL0     H 9369   8.599   1.081   0.681 -0.3486  2.5793  0.6615
  793MOL0     H 9370   8.610   1.139   0.837 -0.2744  0.9128 -2.1404
  793MOL0     H 9371   8.686   0.900   0.901 -2.7672  0.9329 -0.0266
  793MOL0     H 9372   8.691   0.863   0.724  1.7098 -1.0125  1.5434
  793MOL0     H 9373   8.908   0.925   0.781 -0.2392  0.2285 -0.5909
  793MOL0     H 9374   8.859   1.058   0.702  0.7825  2.1018  1.9189
  793MOL0     H 9375   8.824   1.053   1.008 -1.2093 -1.9636 -0.4012
  793MOL0     H 9376   8.826   1.202   0.909  1.4900 -0.0779  0.6398
  793MOL0     H 9377   9.069   1.120   0.844  2.6985 -3.7905  0.5930
  793MOL0     H 9378   9.043   1.181   1.007  2.1389  0.3218  0.6170
  793MOL0     H 9379   9.029   0.881   0.948  1.5403  0.2419 -1.1828
  793MOL0     H 9380   9.054   0.946   1.104 -0.3751 -1.2897 -0.0763
  793MOL0     H 9381   9.270   0.851   1.008 -1.4740  0.0033  2.2512
  793MOL0     H 9382   9.244   0.936   0.857  0.4671  1.4644  0.5213
  793MOL0     H 9383   9.202   1.133   1.187 -1.6512 -0.0090 -1.6864
  793MOL0     H 9384   9.364   1.300   1.318 -0.6598 -0.6441  0.3354
  793MOL0     H 9385   9.369   1.419   1.189 -1.7810  1.8272  4.8778
  793MOL0     H 9386   9.633   1.274   1.261 -0.4806  0.2389  3.0794
  793MOL0     H 9387   9.614   1.398   1.147  1.2246 -2.3947  0.9640
  793MOL0     H 9388   9.567   1.564   1.320  0.3826  0.3270  1.0381
  793MOL0     H 9389   9.502   1.435   1.433 -0.8963 -0.9306 -0.4571
  793MOL0     H 9390   9.748   1.356   1.434 -1.7675 -1.2341  1.5272
  793MOL0     H 9391   9.787   1.510   1.361  2.5601 -0.6029  2.8713
  793MOL0     H 9392   9.745   1.667   1.748  0.0737 -0.4322 -0.3505
  793MOL0     H 9393   9.954   1.845   1.895 -0.5950 -0.1196 -0.5049
  793MOL0     H 9394   9.982   1.716   2.016  1.4214  0.6673 -0.6504
  793MOL0     H 9395   9.818   1.745   1.949 -0.1083 -2.0614  1.4196
  793MOL0     H 9396  10.456   1.658   1.864 -2.8873 -0.8395  0.7085
  793MOL0     H 9397  10.674   1.667   1.983  0.0821  1.7926  0.7795
  793MOL0     H 9398  10.851   1.563   2.015 -0.9213 -0.7357 -0.1776
  793MOL0     H 9399  10.866   1.664   2.168 -0.0053 -0.0896  0.8682
  793MOL0     H 9400  11.002   1.512   2.268 -3.6459 -0.2596 -0.2398
  793MOL0     H 9401  11.008   1.405   2.128  0.3828 -0.2357  1.6261
  793MOL0     H 9402  11.111   1.690   2.132 -2.2752  0.2448  1.2519
  793MOL0     H 9403  11.119   1.594   1.992 -2.7218  1.6334  0.2267
  793MOL0     H 9404  11.335   1.557   2.087 -1.3810  0.9834 -1.3504
  793MOL0     H 9405  11.236   1.419   2.147  1.1020 -0.4007  2.7239
  793MOL0     H 9406  11.272   1.683   2.282 -2.4932 -0.0758 -0.4610
  793MOL0     H 9407  11.217   1.537   2.364 -1.9236  4.1262  0.8039
  793MOL0     H 9408  11.433   1.617   2.439 -2.1966  0.1714  0.4232
  793MOL0     H 9409  11.506   1.597   2.278  2.5574  1.0084  2.5113
  793MOL0     H 9410  11.442   1.355   2.274 -0.4138  3.1921 -1.3141
  793MOL0     H 9411  11.366   1.379   2.426  1.6711 -0.4509  2.2546
  793MOL0     H 9412  11.663   1.396   2.369 -1.2029  3.6974 -1.4626
  793MOL0     H 9413  11.578   1.277   2.467  1.4152  1.3852  2.7081
  793MOL0     H 9414  10.570   1.304   2.180 -2.1899  1.0633  1.3610
  793MOL0     H 9415  10.356   1.298   2.042 -1.6761  0.9569  0.5090
  793MOL0     H 9416  10.173   1.445   1.664  1.5084  1.0531 -0.0990
  793MOL0     H 9417   9.982   1.401   1.514  1.3604  0.0450  0.0589
  793MOL0     H 9418   8.192   0.928   0.797  1.7207  0.0189  0.3128
  793MOL0     H 9419   7.999   0.779   0.793 -0.3715  0.1619 -0.4894
  793MOL0     H 9420   7.798   0.425   0.678 -0.7421  0.7344  3.7951
  793MOL0     H 9421   7.632   0.267   0.616 -0.0921  1.6641  1.0338
  793MOL0     H 9422   7.741  -0.154   0.668  1.0244  0.2252  1.8951
  793MOL0     H 9423   7.629  -0.127   0.807  0.4794  2.2885  0.6610
  793MOL0     H 9424   7.438  -0.204   0.697 -0.9363  0.1293 -1.6356
  793MOL0     H 9425   7.567  -0.310   0.633  1.2580 -0.0710 -1.1620
  793MOL0     H 9426   7.421  -0.069   0.532  3.0283  1.9218  1.3540
  793MOL0     H 9427   7.551  -0.139   0.436  3.0543  1.5058  3.1621
  793MOL0     H 9428   7.305  -0.293   0.538 -1.2763 -1.1671 -1.8055
  793MOL0     H 9429   7.436  -0.351   0.433 -2.4114 -2.1822 -1.7456
  793MOL0     H 9430   7.232  -0.159   0.124  0.1734  0.4077  0.6379
  793MOL0     H 9431   7.868  -0.047   0.784 -0.9428 -0.6985 -1.4470
  793MOL0     H 9432   8.004   0.049   0.987 -2.2883 -1.8588 -1.1835
  793MOL0     H 9433   8.090   0.005   0.839  0.5585 -0.3019  1.5720
  793MOL0     H 9434   8.135   0.155   0.927  0.9054 -0.4044 -0.7001
  794MOL0     O 9435   4.877   2.972   7.927  0.4404 -0.1696 -0.5195
  794MOL0     C 9436   4.792   2.943   7.849  0.4034 -0.3405 -0.2536
  794MOL0     O 9437   4.773   2.819   7.799  0.7435 -0.4668 -0.1506
  794MOL0     C 9438   4.875   2.743   7.818 -1.2115  1.2990 -0.4960
  794MOL0     C 9439   4.885   2.663   7.941  0.7662 -0.1922  0.1047
  794MOL0     C 9440   4.999   2.584   7.966  0.1405  0.1067  0.2238
  794MOL0     C 9441   5.099   2.561   7.866 -0.4194 -0.5055 -1.1202
  794MOL0     O 9442   5.191   2.460   7.884 -0.7368 -0.1717  0.1030
  794MOL0     C 9443   5.311   2.455   7.800  0.1945  0.2911  0.3928
  794MOL0     C 9444   5.428   2.386   7.879 -0.2958  0.3377 -0.4628
  794MOL0     C 9445   5.542   2.342   7.785 -0.4777  0.1723 -0.8043
  794MOL0     C 9446   5.666   2.268   7.858 -0.0663  0.0174 -0.3995
  794MOL0     C 9447   5.761   2.205   7.757  0.0343 -0.4336 -0.4598
  794MOL0     C 9448   5.892   2.170   7.823  0.1287 -0.5177  0.2817
  794MOL0     C 9449   5.988   2.130   7.732  0.3737  0.4388  0.0048
  794MOL0     C 9450   6.123   2.140   7.789 -0.2700  0.1000  0.2798
  794MOL0     N 9451   6.227   2.074   7.712 -0.5212  0.3339 -0.0413
  794MOL0     C 9452   6.212   1.947   7.661 -0.4657 -0.4157  0.1090
  794MOL0     C 9453   6.317   1.931   7.578  0.5071 -0.1470  0.5179
  794MOL0     C 9454   6.350   1.814   7.503 -0.3987  0.2063  0.8457
  794MOL0     C 9455   6.452   1.843   7.392  0.1739 -0.0200  0.6052
  794MOL0     C 9456   6.497   1.713   7.326 -1.7228  0.5673 -0.1793
  794MOL0     C 9457   6.603   1.730   7.218 -1.1005  0.2323 -0.0848
  794MOL0     O 9458   6.624   1.606   7.157  0.3087  0.4271 -0.6386
  794MOL0     C 9459   6.758   1.566   7.154  1.0012 -0.4891  0.3423
  794MOL0     C 9460   6.829   1.550   7.265 -0.5180  0.3495  0.0282
  794MOL0     C 9461   6.964   1.499   7.253  0.2247  0.8950 -0.8339
  794MOL0     C 9462   7.046   1.491   7.386  0.0888  0.2611  0.2107
  794MOL0     C 9463   7.012   1.450   7.127  0.1957  0.8681  0.4881
  794MOL0     C 9464   7.148   1.393   7.098 -0.3023 -1.0637  0.5696
  794MOL0     O 9465   7.234   1.393   7.202 -0.1550 -0.2342  0.2677
  794MOL0     C 9466   7.357   1.330   7.197 -0.2870 -0.1430  0.1356
  794MOL0     C 9467   7.375   1.202   7.140  0.0547  0.4056  0.0681
  794MOL0     C 9468   7.494   1.141   7.133  0.0694 -0.9349  0.0792
  794MOL0     C 9469   7.606   1.200   7.182 -0.3498 -0.0755  0.6099
  794MOL0     O 9470   7.735   1.151   7.200  0.5256 -0.0592 -0.4408
  794MOL0     C 9471   7.766   1.018   7.172  0.5911 -0.2395  0.7332
  794MOL0     C 9472   7.775   0.986   7.018 -0.4008  0.1678 -0.4509
  794MOL0     C 9473   7.701   0.856   6.984  0.1079 -0.0389 -0.0946
  794MOL0     C 9474   7.767   0.732   7.050  0.1424  0.5775  0.6878
  794MOL0     C 9475   7.771   0.604   6.966 -0.0779 -0.1536  0.3345
  794MOL0     C 9476   7.843   0.495   7.041 -0.6578  0.4944 -0.8549
  794MOL0     C 9477   7.795   0.455   7.179  0.0759 -0.6028 -0.5843
  794MOL0     C 9478   7.882   0.358   7.241  0.5305  0.0518  0.1972
  794MOL0    Cl 9479   8.048   0.438   7.253  0.4930  0.0831 -0.0545
  794MOL0     C 9480   7.587   1.325   7.245 -0.0661 -0.7006  0.1273
  794MOL0     C 9481   7.466   1.391   7.251  0.1652 -1.1569  0.0259
  794MOL0     O 9482   7.163   1.332   6.988 -0.4537 -0.4756  0.3452
  794MOL0     C 9483   6.930   1.466   7.018  0.0486  0.4728 -0.1527
  794MOL0     C 9484   6.804   1.525   7.029  0.0202  0.7753 -0.0976
  794MOL0     N 9485   6.401   2.043   7.588 -0.3894  0.2780 -0.0617
  794MOL0     N 9486   6.345   2.130   7.667  0.4283  0.9310  0.0940
  794MOL0     C 9487   5.085   2.638   7.747 -0.7237 -0.5741  0.4279
  794MOL0     C 9488   4.982   2.724   7.727  0.3357  0.4950 -0.0348
  794MOL0     C 9489   4.700   3.052   7.812 -0.0729  0.9000 -0.1147
  794MOL0     C 9490   4.562   3.023   7.795 -0.1131 -0.4444 -0.0741
  794MOL0     C 9491   4.471   3.127   7.767  0.7005  0.0314 -0.3164
  794MOL0     C 9492   4.515   3.252   7.723 -0.5925  0.8450  0.0362
  794MOL0     O 9493   4.418   3.333   7.685  0.5272  0.3290 -0.1772
  794MOL0     C 9494   4.442   3.461   7.632 -0.1842 -0.6414  0.0425
  794MOL0     C 9495   4.466   3.436   7.483  0.3085 -0.0377 -0.7491
  794MOL0     C 9496   4.494   3.561   7.409  0.1765 -0.6485  0.2743
  794MOL0     C 9497   4.511   3.529   7.262  0.7234 -0.1068  0.6204
  794MOL0     C 9498   4.373   3.507   7.212 -0.1109 -0.5299  0.7716
  794MOL0     C 9499   4.263   3.489   7.172 -0.0853 -0.6681 -0.1594
  794MOL0     C 9500   4.650   3.278   7.726 -0.5095 -0.4888 -0.7327
  794MOL0     C 9501   4.745   3.183   7.776 -0.3158 -0.4027 -0.9631
  794MOL0     C 9502   4.891   3.228   7.779 -0.1844  1.1340  0.0529
  794MOL0     H 9503   4.801   2.669   8.009  1.0712 -0.5180  0.5119
  794MOL0     H 9504   5.011   2.547   8.067 -0.3967 -1.5261 -0.2773
  794MOL0     H 9505   5.345   2.557   7.781 -0.6171  0.2395 -1.5937
  794MOL0     H 9506   5.292   2.401   7.707  2.6073 -0.0814  0.0609
  794MOL0     H 9507   5.469   2.453   7.955 -2.5599  2.0664 -0.6829
  794MOL0     H 9508   5.388   2.298   7.931 -1.0170  0.5118 -0.7134
  794MOL0     H 9509   5.495   2.286   7.703 -1.2749  0.2527 -0.4195
  794MOL0     H 9510   5.586   2.430   7.738 -0.4466  0.2306 -0.6638
  794MOL0     H 9511   5.714   2.349   7.913 -3.3169  0.6201  1.8286
  794MOL0     H 9512   5.619   2.193   7.923 -2.7213  3.4497  2.0110
  794MOL0     H 9513   5.786   2.278   7.680  2.7769  1.9657  2.3948
  794MOL0     H 9514   5.714   2.114   7.720 -0.9921 -0.7477  1.4726
  794MOL0     H 9515   5.928   2.258   7.877 -0.2585 -0.6870  0.8234
  794MOL0     H 9516   5.871   2.090   7.894 -0.7089 -0.4425  0.1322
  794MOL0     H 9517   5.971   2.183   7.638 -2.6689 -0.1464  0.1063
  794MOL0     H 9518   5.966   2.028   7.698 -0.8521  1.1824 -1.5557
  794MOL0     H 9519   6.160   2.239   7.814  2.5736 -0.0485 -2.6583
  794MOL0     H 9520   6.110   2.099   7.890  0.9141  1.9508  1.2403
  794MOL0     H 9521   6.132   1.875   7.673  0.0895 -1.3269 -1.3465
  794MOL0     H 9522   6.259   1.759   7.479 -1.4074  2.3150 -0.5396
  794MOL0     H 9523   6.404   1.754   7.577  0.1793 -0.9535 -0.4771
  794MOL0     H 9524   6.407   1.903   7.312  3.0326 -0.0684 -1.1857
  794MOL0     H 9525   6.542   1.895   7.426  0.5440 -0.7570  0.7693
  794MOL0     H 9526   6.533   1.647   7.406  0.3475  3.2196  1.2600
  794MOL0     H 9527   6.404   1.668   7.292 -2.0744  1.6978 -0.7601
  794MOL0     H 9528   6.566   1.793   7.137  1.9900 -1.9997 -3.5599
  794MOL0     H 9529   6.695   1.775   7.257  0.6285 -3.3126  0.2981
  794MOL0     H 9530   6.778   1.564   7.360 -1.6656 -0.5370 -0.4387
  794MOL0     H 9531   6.992   1.529   7.473  0.9497  2.6247 -0.1896
  794MOL0     H 9532   7.135   1.554   7.379 -0.4595  1.5089  2.9542
  794MOL0     H 9533   7.069   1.388   7.414 -1.2533  0.3059  1.6169
  794MOL0     H 9534   7.298   1.137   7.100  0.4532  0.5043 -0.8812
  794MOL0     H 9535   7.486   1.042   7.091 -1.1317 -0.3031 -1.2700
  794MOL0     H 9536   7.867   1.010   7.212  0.8680  1.5185  0.4711
  794MOL0     H 9537   7.698   0.950   7.224 -1.3688 -0.2121 -1.5938
  794MOL0     H 9538   7.733   1.068   6.959 -0.1569  0.4335 -0.2569
  794MOL0     H 9539   7.879   0.970   6.987 -0.4984 -2.6646  0.3836
  794MOL0     H 9540   7.716   0.847   6.876  0.8066  0.9091 -0.0935
  794MOL0     H 9541   7.593   0.853   7.002 -0.1809 -0.1808 -1.7368
  794MOL0     H 9542   7.719   0.711   7.146 -0.4079  3.0016  1.0064
  794MOL0     H 9543   7.872   0.754   7.070  1.7431 -2.9116 -2.5228
  794MOL0     H 9544   7.673   0.566   6.934 -0.4140 -0.4824  1.6942
  794MOL0     H 9545   7.818   0.622   6.869 -3.2723  0.4901 -1.2381
  794MOL0     H 9546   7.949   0.520   7.050  0.0466 -2.6799  1.7445
  794MOL0     H 9547   7.840   0.399   6.988 -1.0084 -1.0615  1.8060
  794MOL0     H 9548   7.703   0.395   7.170  0.8480 -2.0525  0.7805
  794MOL0     H 9549   7.788   0.538   7.250  1.1392 -3.1454  2.7285
  794MOL0     H 9550   7.891   0.272   7.174 -0.6617 -1.1044  1.4392
  794MOL0     H 9551   7.857   0.332   7.345  1.9518  1.4701  0.9415
  794MOL0     H 9552   7.671   1.375   7.291  0.9888 -1.8510 -0.4798
  794MOL0     H 9553   7.452   1.484   7.304  1.4448  0.4878 -2.3484
  794MOL0     H 9554   6.967   1.449   6.917 -1.9317  3.7695 -1.6042
  794MOL0     H 9555   6.739   1.515   6.943  1.3117 -3.6055 -0.7752
  794MOL0     H 9556   5.147   2.626   7.658 -2.6367 -0.0689 -1.0480
  794MOL0     H 9557   4.979   2.789   7.641 -2.0627  0.9733  0.3502
  794MOL0     H 9558   4.525   2.925   7.824  0.2853 -0.5642  0.0326
  794MOL0     H 9559   4.366   3.103   7.766  0.8360 -0.5804 -0.1887
  794MOL0     H 9560   4.359   3.530   7.651 -0.1575 -0.7184  0.4575
  794MOL0     H 9561   4.531   3.514   7.669 -2.2835  3.2583  0.0255
  794MOL0     H 9562   4.375   3.385   7.450  0.7105 -1.6015  0.4625
  794MOL0     H 9563   4.554   3.372   7.487 -0.8294 -1.6312 -0.5399
  794MOL0     H 9564   4.411   3.631   7.420 -0.6247 -1.4855 -0.2491
  794MOL0     H 9565   4.588   3.607   7.439 -1.0022  2.6071 -0.5895
  794MOL0     H 9566   4.570   3.438   7.248  0.9617 -0.1020  1.5325
  794MOL0     H 9567   4.565   3.612   7.214  0.0064  1.1800  1.9789
  794MOL0     H 9568   4.163   3.485   7.134 -0.3008 -0.1307  0.3517
  794MOL0     H 9569   4.690   3.373   7.694  2.9948 -1.5695 -0.0654
  794MOL0     H 9570   4.961   3.179   7.847 -0.5918  1.3994  0.6669
  794MOL0     H 9571   4.926   3.214   7.676 -0.9173 -0.5716  0.0015
  794MOL0     H 9572   4.901   3.335   7.796  0.7430  0.6944  2.6270
  795MOL0     O 9573   4.223   1.860   0.985 -1.1847  0.6043 -0.2952
  795MOL0     C 9574   4.147   1.834   0.891  0.2959  0.1049  0.4552
  795MOL0     O 9575   4.191   1.775   0.770 -0.6773 -0.0991  0.2685
  795MOL0     C 9576   4.320   1.734   0.758 -0.0487  0.3077  0.7909
  795MOL0     C 9577   4.418   1.838   0.754 -0.2416 -0.6544  0.6309
  795MOL0     C 9578   4.559   1.801   0.758  0.9161 -0.6254  0.1462
  795MOL0     C 9579   4.592   1.670   0.769  0.5336  1.2452 -0.4073
  795MOL0     O 9580   4.720   1.626   0.779  0.3848  0.1494 -0.2528
  795MOL0     C 9581   4.809   1.721   0.842 -0.1774 -0.5559  0.0279
  795MOL0     C 9582   4.938   1.653   0.896  0.1315  0.8377  0.2483
  795MOL0     C 9583   5.034   1.622   0.782 -0.1706  0.2346  0.7239
  795MOL0     C 9584   5.156   1.559   0.841 -0.1293  0.4918  0.0465
  795MOL0     C 9585   5.266   1.528   0.735  0.6652 -0.5427 -0.3228
  795MOL0     C 9586   5.235   1.410   0.643 -0.0673 -0.8212  0.5670
  795MOL0     C 9587   5.323   1.419   0.514 -0.0040  0.5621 -0.2843
  795MOL0     C 9588   5.283   1.308   0.417  0.2114 -0.2555  0.3644
  795MOL0     N 9589   5.320   1.174   0.464  0.6875  0.0755 -0.6465
  795MOL0     C 9590   5.435   1.108   0.443  0.6577  0.4175 -0.4033
  795MOL0     C 9591   5.431   0.992   0.522  0.4235 -0.7305 -0.3208
  795MOL0     C 9592   5.538   0.889   0.547  0.1515 -0.5094  0.9690
  795MOL0     C 9593   5.564   0.861   0.699  0.0364  0.5392  0.5458
  795MOL0     C 9594   5.677   0.759   0.720  0.2225  0.7940  0.7764
  795MOL0     C 9595   5.749   0.784   0.859  0.1221 -0.0376 -0.0100
  795MOL0     O 9596   5.839   0.899   0.851 -0.1454 -0.1929 -0.1229
  795MOL0     C 9597   5.972   0.890   0.814 -0.0910 -0.4492 -0.4312
  795MOL0     C 9598   6.031   0.779   0.753 -0.4724  0.2668  0.3009
  795MOL0     C 9599   6.155   0.783   0.687 -0.4113  0.2642  0.2810
  795MOL0     C 9600   6.200   0.660   0.612  0.1409  0.0329  0.3902
  795MOL0     C 9601   6.240   0.898   0.715  0.4378 -0.6041 -0.1373
  795MOL0     C 9602   6.378   0.908   0.671  0.0912  1.1043  0.1846
  795MOL0     O 9603   6.445   1.016   0.720 -0.7117 -0.2711 -0.1577
  795MOL0     C 9604   6.576   1.035   0.689  0.2862 -0.1315  0.5582
  795MOL0     C 9605   6.678   0.955   0.737  0.1104  0.0732 -0.2703
  795MOL0     C 9606   6.812   1.000   0.721  0.0220  1.1159  0.7182
  795MOL0     C 9607   6.837   1.118   0.663  0.3522 -0.0944 -0.2685
  795MOL0     O 9608   6.969   1.150   0.659  0.1329 -0.3972 -0.2925
  795MOL0     C 9609   7.022   1.259   0.577 -0.5132  0.1499 -0.2033
  795MOL0     C 9610   7.179   1.265   0.603  0.0126 -0.2480  0.6357
  795MOL0     C 9611   7.228   1.368   0.703  0.1294  0.4016  0.4049
  795MOL0     C 9612   7.381   1.391   0.705  0.2935  0.2881 -0.5016
  795MOL0     C 9613   7.420   1.493   0.822  0.4547  0.9279  0.4216
  795MOL0     C 9614   7.571   1.529   0.808 -0.7752  0.4770  0.1825
  795MOL0     C 9615   7.626   1.628   0.906 -0.1172 -0.4270  0.5438
  795MOL0     C 9616   7.772   1.658   0.876 -1.0787  0.3697 -0.3628
  795MOL0    Cl 9617   7.801   1.737   0.714  0.0919 -0.2718 -0.0344
  795MOL0     C 9618   6.733   1.195   0.604 -0.1410  0.1791  0.6683
  795MOL0     C 9619   6.604   1.157   0.621 -0.0686  0.7633 -0.0893
  795MOL0     O 9620   6.426   0.830   0.590 -0.1905 -0.7319  0.1350
  795MOL0     C 9621   6.182   1.009   0.779  0.0181 -0.8821 -0.3002
  795MOL0     C 9622   6.047   1.004   0.829 -0.0577 -1.1021  0.0819
  795MOL0     N 9623   5.309   0.994   0.588  0.6135 -0.4976  0.9079
  795MOL0     N 9624   5.242   1.093   0.546  0.6016 -0.9533  0.6568
  795MOL0     C 9625   4.501   1.564   0.779 -0.4320  0.0816  0.0686
  795MOL0     C 9626   4.362   1.598   0.770  0.1362  0.4369  0.6549
  795MOL0     C 9627   4.000   1.857   0.921  0.4152  0.5055  0.1008
  795MOL0     C 9628   3.958   1.957   1.013 -0.1579  0.3077 -0.1545
  795MOL0     C 9629   3.822   1.980   1.052 -1.3430  0.3996  0.7704
  795MOL0     C 9630   3.728   1.901   0.986 -0.1602  0.0967  0.1992
  795MOL0     O 9631   3.587   1.915   0.990 -0.0859 -0.6519  0.4585
  795MOL0     C 9632   3.516   2.023   1.052 -0.8390  0.7887  0.0142
  795MOL0     C 9633   3.372   1.975   1.074  0.6923  0.5881 -0.1104
  795MOL0     C 9634   3.265   2.088   1.110  0.2148  0.0654 -0.2931
  795MOL0     C 9635   3.281   2.106   1.262  0.5321 -0.4608  0.0783
  795MOL0     C 9636   3.211   2.234   1.285 -0.4113 -0.8050 -0.1812
  795MOL0     C 9637   3.147   2.340   1.300 -0.4415  0.3484  0.0315
  795MOL0     C 9638   3.765   1.796   0.905  0.1214 -0.2917  1.0748
  795MOL0     C 9639   3.896   1.772   0.871  0.0385 -0.6762 -0.8390
  795MOL0     C 9640   3.917   1.659   0.776  0.3063 -0.3688  0.3888
  795MOL0     H 9641   4.388   1.942   0.740  0.6899 -0.6155 -1.2678
  795MOL0     H 9642   4.630   1.882   0.745 -0.1861  0.7335  2.1757
  795MOL0     H 9643   4.761   1.766   0.930  1.1676 -1.6978  1.3874
  795MOL0     H 9644   4.829   1.800   0.768 -1.0378  0.3965  0.7785
  795MOL0     H 9645   4.978   1.718   0.973 -1.4528  0.6753  1.2580
  795MOL0     H 9646   4.903   1.561   0.944 -0.6949  1.7973  1.5518
  795MOL0     H 9647   4.993   1.550   0.710 -0.3320 -0.6784  1.7103
  795MOL0     H 9648   5.066   1.714   0.733  1.9211  0.0895  1.7181
  795MOL0     H 9649   5.189   1.630   0.917 -3.1980  0.1028  1.8750
  795MOL0     H 9650   5.130   1.464   0.887  1.7541 -0.5404 -0.9018
  795MOL0     H 9651   5.364   1.509   0.780  0.7890 -1.1370 -0.8334
  795MOL0     H 9652   5.273   1.620   0.676 -2.3426  0.5797  0.8209
  795MOL0     H 9653   5.259   1.313   0.685 -1.6687 -1.9517 -0.9777
  795MOL0     H 9654   5.130   1.394   0.617  0.0060  0.9267 -1.0241
  795MOL0     H 9655   5.429   1.415   0.540 -0.0729 -2.4375 -0.0899
  795MOL0     H 9656   5.306   1.518   0.470 -0.0557  0.4509 -0.5163
  795MOL0     H 9657   5.174   1.313   0.406  0.3683  0.0033 -1.3642
  795MOL0     H 9658   5.316   1.326   0.314  0.3762 -1.0996  0.2669
  795MOL0     H 9659   5.517   1.151   0.386  0.7889 -1.5559 -1.8339
  795MOL0     H 9660   5.624   0.934   0.496 -0.3071  0.2243  0.8172
  795MOL0     H 9661   5.529   0.792   0.497  2.9227 -0.5919  0.4956
  795MOL0     H 9662   5.589   0.957   0.745  2.3662  1.2926 -2.0537
  795MOL0     H 9663   5.473   0.808   0.729  0.4377 -0.3024  0.2987
  795MOL0     H 9664   5.633   0.659   0.705  0.1618  1.0759 -1.1314
  795MOL0     H 9665   5.747   0.777   0.639 -1.1812  0.7471 -0.4977
  795MOL0     H 9666   5.672   0.804   0.934  0.3970 -1.8878  0.8088
  795MOL0     H 9667   5.792   0.692   0.898  1.7798  0.3546 -0.8026
  795MOL0     H 9668   5.979   0.688   0.725  0.2302  0.6686 -2.5845
  795MOL0     H 9669   6.257   0.595   0.679  3.2406  0.6368 -1.4507
  795MOL0     H 9670   6.262   0.679   0.524 -0.4513 -0.9328 -0.2566
  795MOL0     H 9671   6.111   0.614   0.568 -0.9972  1.8924  0.6187
  795MOL0     H 9672   6.640   0.864   0.783 -1.1810 -0.2403 -1.8522
  795MOL0     H 9673   6.890   0.948   0.774 -0.4692  1.8931  2.2570
  795MOL0     H 9674   7.004   1.240   0.471  2.9853  0.7413 -1.0010
  795MOL0     H 9675   6.982   1.357   0.608 -1.0907 -0.2111  0.2233
  795MOL0     H 9676   7.227   1.176   0.644  0.7838  0.1882  0.6884
  795MOL0     H 9677   7.227   1.284   0.507  1.0347 -3.1553  0.4821
  795MOL0     H 9678   7.191   1.338   0.802 -0.1666  0.2891  0.2608
  795MOL0     H 9679   7.173   1.458   0.674 -1.9017 -0.9478 -0.1728
  795MOL0     H 9680   7.414   1.442   0.614  1.0146 -0.2262 -0.5292
  795MOL0     H 9681   7.437   1.300   0.725  1.2640  0.6784 -1.3708
  795MOL0     H 9682   7.356   1.580   0.806  1.4397  1.5213 -0.4812
  795MOL0     H 9683   7.385   1.458   0.919 -2.3081  1.4666 -0.2985
  795MOL0     H 9684   7.583   1.558   0.704 -0.1682 -1.5862 -0.3605
  795MOL0     H 9685   7.627   1.436   0.818 -0.9949  0.0967 -1.7006
  795MOL0     H 9686   7.612   1.585   1.006 -0.9489  2.1039  1.6102
  795MOL0     H 9687   7.571   1.722   0.904  0.1142 -0.2774 -2.1640
  795MOL0     H 9688   7.829   1.564   0.871  2.2725  2.2984 -1.2861
  795MOL0     H 9689   7.820   1.717   0.954 -0.0049  0.5315 -1.1293
  795MOL0     H 9690   6.755   1.284   0.546  1.5495  0.0362  1.0240
  795MOL0     H 9691   6.520   1.213   0.579 -0.7052 -0.2864 -0.2515
  795MOL0     H 9692   6.222   1.109   0.792 -0.6294 -0.7143  0.5120
  795MOL0     H 9693   5.995   1.087   0.877  1.7565 -0.3024  0.7236
  795MOL0     H 9694   4.540   1.463   0.774  1.3975  0.5936  2.2971
  795MOL0     H 9695   4.287   1.525   0.798  1.2550 -1.0299 -0.0150
  795MOL0     H 9696   4.036   2.016   1.060 -0.0420 -1.4083  1.9684
  795MOL0     H 9697   3.786   2.050   1.126 -0.1651 -0.9473  2.7103
  795MOL0     H 9698   3.563   2.047   1.148  1.4143  1.5015 -1.1714
  795MOL0     H 9699   3.522   2.109   0.985  0.6559 -0.0456 -0.9898
  795MOL0     H 9700   3.388   1.904   1.155  0.3187  0.9767  0.3071
  795MOL0     H 9701   3.343   1.935   0.976  0.9018  0.8737 -0.2927
  795MOL0     H 9702   3.296   2.177   1.055  0.6560 -0.9950 -1.8040
  795MOL0     H 9703   3.163   2.056   1.083 -0.3331  1.1966  0.3469
  795MOL0     H 9704   3.387   2.115   1.289  0.6652  1.6758 -0.9739
  795MOL0     H 9705   3.227   2.024   1.311 -1.1338  0.1990 -0.5655
  795MOL0     H 9706   3.077   2.418   1.323  0.9155  1.2118  1.3988
  795MOL0     H 9707   3.697   1.718   0.871  2.0770  0.0767 -4.6207
  795MOL0     H 9708   3.925   1.714   0.682  2.4390  2.9311  2.2715
  795MOL0     H 9709   4.010   1.605   0.794  1.9875  1.1008 -2.9621
  795MOL0     H 9710   3.834   1.588   0.785 -0.1054  0.1566  0.8759
  796MOL0     O 9711   0.021   0.488   7.861  0.0280  0.4500  1.2074
  796MOL0     C 9712   0.001   0.466   7.980 -0.6079  0.3236  0.2111
  796MOL0     O 9713   0.107   0.478   8.078  0.3495 -0.1381  0.3413
  796MOL0     C 9714   0.238   0.481   8.035  0.4140  0.0964 -0.0394
  796MOL0     C 9715   0.289   0.433   7.909 -0.2836 -0.1460  0.0061
  796MOL0     C 9716   0.425   0.439   7.883 -0.0510 -0.2294  0.5841
  796MOL0     C 9717   0.513   0.493   7.971 -0.1690  0.3523  0.0681
  796MOL0     O 9718   0.646   0.524   7.946  0.4020  0.2756 -0.8023
  796MOL0     C 9719   0.703   0.464   7.828  0.1625  0.0194 -0.0392
  796MOL0     C 9720   0.857   0.481   7.845  0.3828  0.8951 -0.4655
  796MOL0     C 9721   0.905   0.618   7.801 -0.2361  0.4417 -0.1389
  796MOL0     C 9722   1.058   0.632   7.837  0.1137  0.3698 -0.7690
  796MOL0     C 9723   1.151   0.558   7.736 -0.0746 -1.3611 -0.1221
  796MOL0     C 9724   1.299   0.532   7.789  0.1375 -0.0896  0.6166
  796MOL0     C 9725   1.407   0.647   7.787  0.2538  0.2652  0.5152
  796MOL0     C 9726   1.532   0.600   7.858 -0.7129  0.1059 -0.4733
  796MOL0     N 9727   1.657   0.671   7.840  0.0020 -0.1902  0.1966
  796MOL0     C 9728   1.748   0.639   7.749 -0.1135 -0.3040  0.2565
  796MOL0     C 9729   1.864   0.707   7.775 -0.4135  0.2893 -0.2020
  796MOL0     C 9730   1.987   0.698   7.694  0.4709  0.3334 -0.8523
  796MOL0     C 9731   2.080   0.820   7.706  0.0719  0.5086 -0.4196
  796MOL0     C 9732   2.043   0.944   7.612  0.1337  0.5617 -1.4461
  796MOL0     C 9733   1.908   0.999   7.649  0.6363 -1.0547  0.4195
  796MOL0     O 9734   1.896   1.119   7.576 -0.3048 -0.2105  0.4283
  796MOL0     C 9735   1.778   1.188   7.576 -0.6096 -0.4598 -1.1270
  796MOL0     C 9736   1.771   1.286   7.491  0.2610  0.8941  0.4205
  796MOL0     C 9737   1.663   1.371   7.485 -0.1737 -0.9219 -0.2354
  796MOL0     C 9738   1.678   1.489   7.386  0.8480 -0.0220 -0.3500
  796MOL0     C 9739   1.548   1.349   7.567  0.0769 -0.6013 -0.6949
  796MOL0     C 9740   1.430   1.443   7.576  0.1482  0.0745 -0.4794
  796MOL0     O 9741   1.356   1.442   7.694 -0.2026 -0.1108  0.4553
  796MOL0     C 9742   1.240   1.508   7.695 -0.0984  0.0592 -0.6359
  796MOL0     C 9743   1.137   1.455   7.630  0.0947  0.5018 -0.6410
  796MOL0     C 9744   1.009   1.508   7.627 -0.0213  0.4085 -0.3857
  796MOL0     C 9745   0.981   1.612   7.714 -0.0089 -0.2282 -0.3159
  796MOL0     O 9746   0.856   1.663   7.725 -0.1322  0.4040  0.3290
  796MOL0     C 9747   0.768   1.661   7.603 -0.6240 -0.1648  0.0067
  796MOL0     C 9748   0.648   1.748   7.615 -0.5054  0.0471  0.3072
  796MOL0     C 9749   0.553   1.704   7.739 -0.0494 -0.2168  1.4585
  796MOL0     C 9750   0.575   1.779   7.873  0.6453  0.1173  0.4685
  796MOL0     C 9751   0.465   1.897   7.878  0.8027  0.0672 -1.1161
  796MOL0     C 9752   0.325   1.852   7.935 -0.4781  0.6422  0.6728
  796MOL0     C 9753   0.224   1.955   7.925  0.9435  0.4316  0.0977
  796MOL0     C 9754   0.150   1.962   8.055 -0.3331  0.2619 -0.5269
  796MOL0    Cl 9755   0.027   2.082   8.039  0.5742  0.3616 -0.4568
  796MOL0     C 9756   1.081   1.672   7.801  1.1171 -0.2377  0.7254
  796MOL0     C 9757   1.206   1.614   7.791 -0.0838 -0.3787 -0.3996
  796MOL0     O 9758   1.406   1.507   7.473 -0.7572 -0.2791 -0.5793
  796MOL0     C 9759   1.554   1.241   7.653  0.8130 -0.6164 -0.6942
  796MOL0     C 9760   1.666   1.153   7.652 -0.9295 -0.6662 -0.2978
  796MOL0     N 9761   1.837   0.781   7.888  0.6217 -0.5001  0.1498
  796MOL0     N 9762   1.708   0.772   7.917 -0.9152  0.2263  0.2344
  796MOL0     C 9763   0.464   0.540   8.094 -0.4499 -0.8507  0.5754
  796MOL0     C 9764   0.331   0.532   8.128 -0.1316  0.4463 -0.5837
  796MOL0     C 9765  -0.133   0.444   8.025 -0.3330  0.0086 -0.6035
  796MOL0     C 9766  -0.162   0.495   8.148  0.2535  0.3502  0.1137
  796MOL0     C 9767  -0.288   0.494   8.204 -0.6383  0.7758  0.2656
  796MOL0     C 9768  -0.401   0.451   8.133  0.0143 -0.6625 -0.0738
  796MOL0     O 9769  -0.528   0.440   8.196 -0.0483 -0.6818 -0.0189
  796MOL0     C 9770  -0.606   0.315   8.190 -0.5272 -0.0117 -0.1419
  796MOL0     C 9771  -0.659   0.284   8.326  0.6398 -0.3896 -0.2879
  796MOL0     C 9772  -0.710   0.401   8.416 -0.2624 -0.4191 -0.4056
  796MOL0     C 9773  -0.822   0.475   8.346 -0.1545 -0.1914  0.0116
  796MOL0     C 9774  -0.931   0.379   8.342  0.4081  0.3691 -0.6773
  796MOL0     C 9775  -1.030   0.310   8.329 -0.0260  0.2058  0.8368
  796MOL0     C 9776  -0.375   0.407   8.001 -0.2103 -0.5692 -0.6318
  796MOL0     C 9777  -0.244   0.403   7.948  0.6236 -0.1957  1.1530
  796MOL0     C 9778  -0.231   0.354   7.803 -0.2217  0.1620  0.8386
  796MOL0     H 9779   0.218   0.383   7.844 -3.7154  0.0537  3.2496
  796MOL0     H 9780   0.455   0.397   7.788 -2.1970 -1.6457  0.4477
  796MOL0     H 9781   0.654   0.512   7.742 -1.7640  0.4655  1.2205
  796MOL0     H 9782   0.687   0.356   7.829 -0.1786 -0.0793 -3.3040
  796MOL0     H 9783   0.890   0.460   7.947  2.4179  4.3033 -0.2428
  796MOL0     H 9784   0.907   0.403   7.786 -0.6506  1.1748 -1.7597
  796MOL0     H 9785   0.895   0.637   7.694  5.1919 -0.6354 -1.1227
  796MOL0     H 9786   0.852   0.697   7.855  1.5573  0.8613  1.1300
  796MOL0     H 9787   1.099   0.732   7.850  2.3151 -0.8021  2.5522
  796MOL0     H 9788   1.065   0.568   7.926 -3.0462  0.6898 -0.1646
  796MOL0     H 9789   1.158   0.619   7.645 -1.7125  0.6679  1.0231
  796MOL0     H 9790   1.106   0.462   7.707  1.8946 -2.2045 -0.5633
  796MOL0     H 9791   1.281   0.506   7.894 -1.0812  1.5228  0.8407
  796MOL0     H 9792   1.344   0.448   7.735 -0.1883  0.4102 -0.4557
  796MOL0     H 9793   1.357   0.734   7.831 -0.7730  0.3903 -0.8477
  796MOL0     H 9794   1.437   0.679   7.687  1.3006  1.2372  1.1141
  796MOL0     H 9795   1.508   0.602   7.965  1.9718 -3.7100  0.4176
  796MOL0     H 9796   1.549   0.498   7.824 -0.5713 -1.5922  4.0239
  796MOL0     H 9797   1.727   0.574   7.664 -3.6484  0.3929  0.4461
  796MOL0     H 9798   1.961   0.686   7.588 -2.3743  0.1410 -0.2117
  796MOL0     H 9799   2.046   0.610   7.722  2.5844  2.0663  0.4711
  796MOL0     H 9800   2.084   0.859   7.808  3.7682  2.4112 -1.1467
  796MOL0     H 9801   2.182   0.792   7.679  0.8472 -0.3604  2.9970
  796MOL0     H 9802   2.117   1.024   7.619 -2.0194  2.5898 -0.6015
  796MOL0     H 9803   2.048   0.917   7.506 -0.0042 -0.0307 -1.3019
  796MOL0     H 9804   1.832   0.931   7.609 -1.2324  1.2676 -0.2084
  796MOL0     H 9805   1.902   1.020   7.756 -0.5339  0.4044  0.1072
  796MOL0     H 9806   1.851   1.291   7.418 -0.1989 -1.3653 -0.3134
  796MOL0     H 9807   1.594   1.489   7.316  2.5234 -1.8950 -2.5341
  796MOL0     H 9808   1.767   1.484   7.323  1.2987  0.7468  0.2175
  796MOL0     H 9809   1.676   1.586   7.436 -0.5903 -0.3701  0.3133
  796MOL0     H 9810   1.151   1.365   7.572 -0.9373  0.4396 -0.8169
  796MOL0     H 9811   0.930   1.465   7.567  1.7050 -0.7491 -1.9122
  796MOL0     H 9812   0.827   1.687   7.515 -0.5181 -1.0422 -0.1899
  796MOL0     H 9813   0.738   1.559   7.579 -0.3367 -0.0533 -0.8515
  796MOL0     H 9814   0.668   1.855   7.612  0.7887 -0.2030 -0.8043
  796MOL0     H 9815   0.587   1.721   7.529  0.4376  0.8648 -0.6414
  796MOL0     H 9816   0.574   1.596   7.744  3.2436  0.1560 -1.0051
  796MOL0     H 9817   0.452   1.718   7.700  1.2041 -0.3580 -2.1409
  796MOL0     H 9818   0.675   1.823   7.872 -0.1320  2.0768 -2.0978
  796MOL0     H 9819   0.566   1.706   7.954  0.5319  0.1716  0.5061
  796MOL0     H 9820   0.501   1.973   7.949 -0.7985  1.8695 -2.1510
  796MOL0     H 9821   0.457   1.946   7.781  0.6934 -1.6756 -2.0372
  796MOL0     H 9822   0.324   1.814   8.037 -3.9592  1.7035  1.1476
  796MOL0     H 9823   0.287   1.772   7.871  0.2396  2.1079 -1.7096
  796MOL0     H 9824   0.154   1.936   7.843 -1.4057 -0.0493  2.1203
  796MOL0     H 9825   0.265   2.056   7.914  0.2595  0.8801  1.4653
  796MOL0     H 9826   0.216   1.984   8.139 -0.8370 -2.3174  0.6440
  796MOL0     H 9827   0.104   1.864   8.070 -1.9371  0.8165 -1.6595
  796MOL0     H 9828   1.054   1.747   7.875  1.8371  0.0565  0.6992
  796MOL0     H 9829   1.277   1.653   7.863 -1.9817 -0.0088  1.3539
  796MOL0     H 9830   1.481   1.240   7.733 -1.3999  1.6397 -2.5244
  796MOL0     H 9831   1.651   1.067   7.716 -3.0368 -1.4660 -1.7647
  796MOL0     H 9832   0.538   0.593   8.153 -0.6150  1.2368 -0.9809
  796MOL0     H 9833   0.301   0.560   8.228  1.4163 -0.6754  0.2368
  796MOL0     H 9834  -0.093   0.543   8.216  1.7333  0.0937 -1.1518
  796MOL0     H 9835  -0.300   0.548   8.298 -0.6135  1.3332 -0.0496
  796MOL0     H 9836  -0.693   0.329   8.125 -2.4811 -3.6798  1.4098
  796MOL0     H 9837  -0.552   0.233   8.141  0.9572  1.9308 -1.9959
  796MOL0     H 9838  -0.571   0.242   8.375  0.9925 -2.7170 -2.6951
  796MOL0     H 9839  -0.726   0.198   8.333 -0.6240  0.6176  0.5471
  796MOL0     H 9840  -0.746   0.371   8.515 -1.7836  0.2305 -0.7387
  796MOL0     H 9841  -0.629   0.472   8.437 -1.4490  1.0211 -0.5230
  796MOL0     H 9842  -0.802   0.515   8.247 -1.2141  0.6307  0.1170
  796MOL0     H 9843  -0.848   0.553   8.418  3.0352 -0.4555  1.6435
  796MOL0     H 9844  -1.104   0.233   8.317  1.7358 -1.5678  0.7720
  796MOL0     H 9845  -0.458   0.373   7.940 -0.8622 -0.5694  0.2229
  796MOL0     H 9846  -0.317   0.363   7.736  1.4679 -0.1707 -1.5034
  796MOL0     H 9847  -0.154   0.409   7.747 -0.9716  1.1147  0.7192
  796MOL0     H 9848  -0.210   0.247   7.809 -1.5187 -0.2922 -1.4931
  797MOL0     O 9849   1.710   5.275   1.352  0.1546 -0.5980 -0.0221
  797MOL0     C 9850   1.666   5.166   1.357  0.9128 -0.5319 -0.1199
  797MOL0     O 9851   1.748   5.055   1.373 -0.1728  0.0604 -0.5638
  797MOL0     C 9852   1.877   5.051   1.332 -0.6756 -0.5774 -1.1364
  797MOL0     C 9853   1.970   5.025   1.432  0.4564 -0.0284 -0.0281
  797MOL0     C 9854   2.110   5.018   1.396  0.5958  0.3849 -0.5287
  797MOL0     C 9855   2.145   5.039   1.260 -0.2280  0.1411 -0.6957
  797MOL0     O 9856   2.282   5.031   1.238 -0.0214 -0.6251 -0.0539
  797MOL0     C 9857   2.332   5.080   1.116 -0.2167 -0.2090  0.5996
  797MOL0     C 9858   2.342   5.226   1.106  0.0335  0.3467  0.8366
  797MOL0     C 9859   2.429   5.290   1.222  0.2542  0.0265  1.2930
  797MOL0     C 9860   2.575   5.262   1.207  0.0626 -0.1712  0.4106
  797MOL0     C 9861   2.667   5.367   1.281 -0.2947 -0.2045 -0.2680
  797MOL0     C 9862   2.708   5.466   1.173 -0.6724 -0.2039  0.6796
  797MOL0     C 9863   2.831   5.562   1.224  0.3122  0.6823 -0.2649
  797MOL0     C 9864   2.781   5.677   1.320 -0.2346  0.0443 -0.6618
  797MOL0     N 9865   2.677   5.756   1.247  0.1122  0.1146 -0.1000
  797MOL0     C 9866   2.536   5.760   1.256  0.4821  0.5174 -0.1726
  797MOL0     C 9867   2.495   5.848   1.160 -0.6507  0.5620  0.2879
  797MOL0     C 9868   2.360   5.899   1.163  0.6907  0.2266  0.5939
  797MOL0     C 9869   2.290   5.858   1.042 -0.3090  1.4025 -0.0664
  797MOL0     C 9870   2.351   5.875   0.902  0.1593  0.3537  0.3998
  797MOL0     C 9871   2.266   5.819   0.786 -0.5582  0.3020 -1.0256
  797MOL0     O 9872   2.332   5.841   0.661 -0.8214  0.2142 -0.4296
  797MOL0     C 9873   2.252   5.794   0.567 -0.2137 -0.2156  0.5249
  797MOL0     C 9874   2.270   5.668   0.509  0.5738  0.0966 -0.2147
  797MOL0     C 9875   2.190   5.612   0.416  0.0708  0.6190 -0.7225
  797MOL0     C 9876   2.221   5.473   0.377  0.2925  0.9872 -1.6105
  797MOL0     C 9877   2.078   5.686   0.370 -0.0559 -0.6329 -0.9748
  797MOL0     C 9878   1.989   5.637   0.259  0.8578  0.5438 -0.3772
  797MOL0     O 9879   1.863   5.697   0.250 -0.3148  0.5047 -0.2806
  797MOL0     C 9880   1.792   5.660   0.139 -0.4838  0.0788  0.0230
  797MOL0     C 9881   1.738   5.766   0.076 -0.1785  0.1669 -0.1221
  797MOL0     C 9882   1.652   5.754  -0.030  0.6007 -0.6837  0.4625
  797MOL0     C 9883   1.616   5.621  -0.077 -0.0737  0.1123  0.6877
  797MOL0     O 9884   1.527   5.612  -0.181  0.0429 -0.1643  0.2743
  797MOL0     C 9885   1.416   5.698  -0.198  0.4320 -0.4971 -0.4538
  797MOL0     C 9886   1.326   5.653  -0.312  0.1781  0.3435  0.4641
  797MOL0     C 9887   1.407   5.638  -0.443 -0.3610 -0.0358  0.6577
  797MOL0     C 9888   1.316   5.644  -0.565 -0.5135 -0.2058 -0.6593
  797MOL0     C 9889   1.393   5.674  -0.704 -0.1699  0.2353 -0.2976
  797MOL0     C 9890   1.305   5.662  -0.821 -0.1708 -0.4543  0.9619
  797MOL0     C 9891   1.248   5.525  -0.841  0.1017 -0.6453  0.0076
  797MOL0     C 9892   1.179   5.506  -0.974  0.0068 -0.8684  0.0216
  797MOL0    Cl 9893   1.296   5.528  -1.111 -0.0799 -0.1108 -0.7496
  797MOL0     C 9894   1.685   5.512  -0.023  0.4695  0.2751 -0.1816
  797MOL0     C 9895   1.760   5.530   0.089 -0.5372 -0.0586  0.7022
  797MOL0     O 9896   2.039   5.560   0.174 -0.0926 -0.3702  0.1152
  797MOL0     C 9897   2.064   5.817   0.418  0.8376 -0.5788 -0.4909
  797MOL0     C 9898   2.144   5.870   0.519  0.0635  0.1118  0.0475
  797MOL0     N 9899   2.612   5.897   1.093 -0.1643 -0.0804  0.3155
  797MOL0     N 9900   2.715   5.841   1.149 -0.5067  0.2890 -0.2400
  797MOL0     C 9901   2.049   5.076   1.166  0.0543  0.5438 -0.0875
  797MOL0     C 9902   1.912   5.077   1.200  0.1103  0.7967 -0.2039
  797MOL0     C 9903   1.515   5.148   1.360  0.6690 -0.4179 -0.5073
  797MOL0     C 9904   1.479   5.029   1.414  0.9429 -0.1787  0.0863
  797MOL0     C 9905   1.346   4.989   1.421 -0.3607  0.2602 -0.1263
  797MOL0     C 9906   1.256   5.059   1.349  0.1889  0.1140 -0.0207
  797MOL0     O 9907   1.120   5.025   1.350  0.1948  0.2174 -0.1654
  797MOL0     C 9908   1.070   4.991   1.483 -1.1675 -0.0428 -0.1759
  797MOL0     C 9909   0.922   5.023   1.507  0.4249  0.0591 -0.0517
  797MOL0     C 9910   0.826   4.972   1.400  0.3068 -0.0495  0.1397
  797MOL0     C 9911   0.691   5.041   1.416  0.6266 -0.4917 -0.2549
  797MOL0     C 9912   0.627   5.005   1.545 -0.4993 -0.5192  0.4376
  797MOL0     C 9913   0.557   4.979   1.638 -0.0859 -0.0385  0.7103
  797MOL0     C 9914   1.292   5.181   1.287 -0.3155 -0.6087 -0.1665
  797MOL0     C 9915   1.424   5.237   1.301 -0.6365 -0.7349  0.3122
  797MOL0     C 9916   1.466   5.352   1.225  0.7251 -0.7191  0.0949
  797MOL0     H 9917   1.950   5.010   1.537 -0.3917  0.8294 -0.0563
  797MOL0     H 9918   2.186   4.990   1.469  0.0942  3.2381  1.2410
  797MOL0     H 9919   2.276   5.037   1.032  2.0232 -1.6797 -0.2403
  797MOL0     H 9920   2.433   5.038   1.108  0.0817  0.6472 -0.4115
  797MOL0     H 9921   2.384   5.255   1.010 -1.0213  3.4078  1.1875
  797MOL0     H 9922   2.243   5.271   1.122 -0.2106  0.3724 -0.6516
  797MOL0     H 9923   2.418   5.398   1.212 -0.8838  0.0333  2.2929
  797MOL0     H 9924   2.389   5.260   1.320 -0.4353  0.3034  1.1076
  797MOL0     H 9925   2.579   5.165   1.257 -3.9931 -0.6399  0.1090
  797MOL0     H 9926   2.599   5.258   1.101 -1.9369 -3.3972 -0.0528
  797MOL0     H 9927   2.760   5.317   1.310 -1.3466 -2.9427 -1.2560
  797MOL0     H 9928   2.616   5.406   1.370 -2.9175  2.6103 -2.8008
  797MOL0     H 9929   2.761   5.403   1.100  0.0607  0.5403  0.5479
  797MOL0     H 9930   2.626   5.524   1.131 -1.7793 -1.7048  0.7121
  797MOL0     H 9931   2.857   5.611   1.130 -2.8500 -3.0597 -3.4671
  797MOL0     H 9932   2.916   5.503   1.260 -0.4372 -1.9511 -2.4713
  797MOL0     H 9933   2.731   5.637   1.408  0.8429  0.1373  0.0045
  797MOL0     H 9934   2.869   5.738   1.344 -1.0300  1.9714 -2.2986
  797MOL0     H 9935   2.468   5.723   1.332  1.1660  1.2281  0.8054
  797MOL0     H 9936   2.361   6.008   1.158 -1.4508  0.2485 -2.9856
  797MOL0     H 9937   2.305   5.868   1.251  2.2874 -0.3606  1.4360
  797MOL0     H 9938   2.270   5.753   1.061  2.9157  0.6810 -0.1247
  797MOL0     H 9939   2.196   5.915   1.049 -0.4511  0.9522  2.6282
  797MOL0     H 9940   2.379   5.980   0.887  2.5367 -0.6815 -4.1300
  797MOL0     H 9941   2.448   5.828   0.889 -0.6667 -1.1790 -0.4175
  797MOL0     H 9942   2.256   5.712   0.807  0.2214  0.4555  0.2620
  797MOL0     H 9943   2.163   5.854   0.795 -1.3710 -2.0286 -0.5001
  797MOL0     H 9944   2.353   5.613   0.552  1.3942 -0.0634 -1.9108
  797MOL0     H 9945   2.265   5.461   0.277 -0.5136  1.5130 -2.0403
  797MOL0     H 9946   2.122   5.427   0.387  0.8768 -0.3695 -1.8663
  797MOL0     H 9947   2.294   5.431   0.446 -0.8162  2.0010  0.2831
  797MOL0     H 9948   1.765   5.864   0.115  0.4924 -0.3647  0.7844
  797MOL0     H 9949   1.607   5.844  -0.071 -1.0601 -1.7217 -0.0636
  797MOL0     H 9950   1.359   5.684  -0.105 -1.9379 -0.2444 -1.7926
  797MOL0     H 9951   1.447   5.803  -0.208  0.6026 -0.3349  1.4334
  797MOL0     H 9952   1.279   5.557  -0.291  0.0925  0.0259 -1.0398
  797MOL0     H 9953   1.249   5.729  -0.329 -2.4924 -2.6372 -2.2802
  797MOL0     H 9954   1.467   5.547  -0.446 -1.4873 -0.8538 -2.8812
  797MOL0     H 9955   1.476   5.722  -0.444 -0.2350 -0.1399 -0.1092
  797MOL0     H 9956   1.256   5.734  -0.549  1.4126  1.0365 -0.0235
  797MOL0     H 9957   1.249   5.557  -0.567  0.4929 -1.0508  0.5170
  797MOL0     H 9958   1.442   5.772  -0.704 -0.2937  0.3423 -2.0858
  797MOL0     H 9959   1.468   5.594  -0.711 -1.5811 -1.5672  3.0291
  797MOL0     H 9960   1.375   5.693  -0.899 -0.1245  0.3891  1.3266
  797MOL0     H 9961   1.224   5.736  -0.820 -0.7543 -0.9730 -1.3032
  797MOL0     H 9962   1.177   5.490  -0.765  0.9085 -2.7781 -0.1296
  797MOL0     H 9963   1.325   5.447  -0.838  0.9417 -0.0497 -2.9052
  797MOL0     H 9964   1.092   5.569  -0.994 -1.1758 -1.9435  1.5209
  797MOL0     H 9965   1.156   5.399  -0.974  0.8300 -1.0524  0.5146
  797MOL0     H 9966   1.678   5.410  -0.058 -1.1464 -0.0004  0.8262
  797MOL0     H 9967   1.805   5.445   0.140 -2.0699 -0.6914  1.0399
  797MOL0     H 9968   1.985   5.879   0.377  0.0444 -1.8906 -0.9936
  797MOL0     H 9969   2.126   5.968   0.562 -0.7716  0.3132 -0.7465
  797MOL0     H 9970   2.072   5.099   1.062  0.0259 -3.4185 -1.1234
  797MOL0     H 9971   1.839   5.108   1.126 -0.7451 -1.3291 -0.3213
  797MOL0     H 9972   1.552   4.956   1.448  0.9424  0.2309  0.9884
  797MOL0     H 9973   1.323   4.891   1.461  0.2175 -0.7932 -2.2458
  797MOL0     H 9974   1.093   4.885   1.496 -0.2608  0.2248  0.5080
  797MOL0     H 9975   1.130   5.045   1.557 -0.6753 -2.7328  1.5173
  797MOL0     H 9976   0.910   5.131   1.504 -2.5741 -0.2121 -0.4002
  797MOL0     H 9977   0.899   4.982   1.606 -0.7022 -0.4968 -0.5306
  797MOL0     H 9978   0.873   4.981   1.302  1.3069  2.3189  0.7650
  797MOL0     H 9979   0.804   4.866   1.414  2.3274 -0.2513  2.7357
  797MOL0     H 9980   0.628   5.001   1.336  1.1280  0.3982 -1.1181
  797MOL0     H 9981   0.684   5.150   1.407  0.0193 -0.3332  1.6507
  797MOL0     H 9982   0.491   4.958   1.719 -0.7287 -1.5654 -0.1447
  797MOL0     H 9983   1.219   5.236   1.228 -0.2216 -0.9148 -0.5713
  797MOL0     H 9984   1.392   5.393   1.157  1.1470  0.2247  0.1924
  797MOL0     H 9985   1.505   5.437   1.281 -0.6777  0.5658 -0.8152
  797MOL0     H 9986   1.544   5.315   1.157 -2.4323 -0.0560 -4.2716
  798MOL0     O 9987   2.319   9.235   5.298 -0.3403  0.6051 -1.0610
  798MOL0     C 9988   2.304   9.353   5.276  0.3194 -0.3168  0.6087
  798MOL0     O 9989   2.397   9.446   5.270  0.4525  0.3759  0.6200
  798MOL0     C 9990   2.527   9.414   5.247  0.1126 -0.6429 -0.1647
  798MOL0     C 9991   2.625   9.504   5.291  0.9709 -0.8573  0.1051
  798MOL0     C 9992   2.759   9.484   5.264  0.3213  0.6176  0.4169
  798MOL0     C 9993   2.798   9.358   5.204 -0.1249  0.3781 -0.0137
  798MOL0     O 9994   2.933   9.337   5.191  0.2382 -0.6193  0.2569
  798MOL0     C 9995   2.975   9.202   5.192 -0.5528 -0.8673  0.3279
  798MOL0     C 9996   3.122   9.192   5.239  0.0362  0.4635 -0.0320
  798MOL0     C 9997   3.168   9.048   5.218 -0.4226  0.9342  0.0021
  798MOL0     C 9998   3.297   9.013   5.289 -0.7469 -0.8127  0.5728
  798MOL0     C 9999   3.324   8.860   5.298 -0.4021  1.6461  0.2690
  798MOL0     C10000   3.475   8.827   5.307  0.2528  0.8652  0.0409
  798MOL0     C10001   3.505   8.672   5.312  0.3645  0.2529  0.2497
  798MOL0     C10002   3.642   8.663   5.390  0.4343 -0.9367 -0.2219
  798MOL0     N10003   3.681   8.527   5.390 -0.7566  0.5008 -0.0692
  798MOL0     C10004   3.615   8.418   5.430 -0.4576  0.5877  0.6263
  798MOL0     C10005   3.706   8.316   5.415  0.2092 -0.9765  0.1873
  798MOL0     C10006   3.687   8.169   5.439 -0.4877 -0.3801  0.5182
  798MOL0     C10007   3.596   8.113   5.336  0.0512  0.5723 -0.4963
  798MOL0     C10008   3.570   7.959   5.364  0.1733  0.0347 -0.1402
  798MOL0     C10009   3.515   7.891   5.236  0.2640 -0.2504  0.4517
  798MOL0     O10010   3.445   7.778   5.283  0.2234 -0.9357  0.8467
  798MOL0     C10011   3.311   7.771   5.250 -0.2112 -0.1452  0.7155
  798MOL0     C10012   3.260   7.803   5.123 -0.2249 -1.4257  0.2185
  798MOL0     C10013   3.126   7.782   5.079 -1.6809 -0.0810 -0.0048
  798MOL0     C10014   3.106   7.806   4.933 -0.1230 -0.5409  0.0825
  798MOL0     C10015   3.027   7.732   5.173 -0.6539  0.0625 -0.0732
  798MOL0     C10016   2.879   7.724   5.150 -0.1906  1.2018  0.0399
  798MOL0     O10017   2.806   7.682   5.257  0.0621  0.9301 -0.2899
  798MOL0     C10018   2.672   7.656   5.240  0.0925  0.5263  0.2751
  798MOL0     C10019   2.576   7.756   5.226  0.7132  0.4487  0.2574
  798MOL0     C10020   2.445   7.717   5.184 -0.3258 -0.0066 -0.4515
  798MOL0     C10021   2.410   7.584   5.159  0.4142  0.6386  0.2822
  798MOL0     O10022   2.280   7.551   5.117  0.2570  0.1338 -0.4490
  798MOL0     C10023   2.255   7.419   5.066 -0.1613 -0.4829 -0.1719
  798MOL0     C10024   2.108   7.404   5.024  0.0601  0.5368  0.4481
  798MOL0     C10025   2.079   7.263   4.966  0.3545 -1.0344 -0.1019
  798MOL0     C10026   1.926   7.234   4.947 -0.4563  0.1811  0.4729
  798MOL0     C10027   1.879   7.318   4.824 -0.0256 -0.0314 -0.8444
  798MOL0     C10028   1.937   7.265   4.699 -0.3272  0.2468  0.2414
  798MOL0     C10029   1.850   7.271   4.574  0.7420  0.1981  0.3115
  798MOL0     C10030   1.929   7.204   4.461  0.4185 -0.4202  0.5822
  798MOL0    Cl10031   1.830   7.183   4.316  0.1750  0.2083 -0.3953
  798MOL0     C10032   2.501   7.486   5.176 -1.1809 -0.2876 -1.1916
  798MOL0     C10033   2.629   7.523   5.211  0.2746  0.1832 -0.4555
  798MOL0     O10034   2.824   7.746   5.039 -0.5595 -0.3418  0.6879
  798MOL0     C10035   3.078   7.703   5.302 -0.1165  0.3813 -0.0771
  798MOL0     C10036   3.218   7.715   5.338 -0.1270 -0.9874  1.1452
  798MOL0     N10037   3.827   8.366   5.374 -0.3690  0.0700  0.2194
  798MOL0     N10038   3.812   8.495   5.361  1.3414  0.1114  0.1162
  798MOL0     C10039   2.695   9.274   5.157  0.1823  0.7738 -0.1680
  798MOL0     C10040   2.564   9.311   5.163  0.1956 -0.4306  0.4260
  798MOL0     C10041   2.163   9.398   5.241 -0.5995  0.0891 -0.2885
  798MOL0     C10042   2.066   9.303   5.203 -0.0528  0.1312 -0.1904
  798MOL0     C10043   1.942   9.345   5.158 -0.3652  0.5431 -0.6431
  798MOL0     C10044   1.897   9.475   5.168  0.1970  0.7070 -0.5170
  798MOL0     O10045   1.765   9.493   5.139  0.6402 -0.4374 -0.2748
  798MOL0     C10046   1.694   9.614   5.176 -0.4361 -0.2304  0.7214
  798MOL0     C10047   1.681   9.604   5.332 -0.1136  0.4685 -0.8949
  798MOL0     C10048   1.557   9.694   5.374 -0.6333  0.0241  0.2886
  798MOL0     C10049   1.418   9.634   5.326  0.6990  0.0126  0.6110
  798MOL0     C10050   1.379   9.499   5.389  0.0488 -0.8074  0.9203
  798MOL0     C10051   1.362   9.391   5.443 -0.1452  0.0122 -0.9984
  798MOL0     C10052   1.988   9.571   5.209 -0.1521 -0.1959 -0.0339
  798MOL0     C10053   2.120   9.536   5.238 -0.0431  0.4357  0.1204
  798MOL0     C10054   2.208   9.652   5.260 -0.2786  0.3640 -0.7325
  798MOL0     H10055   2.606   9.594   5.349  0.5652 -1.6520  1.2298
  798MOL0     H10056   2.832   9.560   5.290  0.4357  0.5221  0.3761
  798MOL0     H10057   2.974   9.170   5.088  0.7346  0.4957 -0.1429
  798MOL0     H10058   2.909   9.142   5.255 -1.1333 -2.1000 -1.3864
  798MOL0     H10059   3.189   9.262   5.189  0.9167 -0.8150 -0.6783
  798MOL0     H10060   3.119   9.211   5.347 -1.1934  0.0916  0.0130
  798MOL0     H10061   3.093   8.977   5.254  0.1099 -0.4440 -1.5102
  798MOL0     H10062   3.170   9.017   5.113 -1.6629  0.0555  0.2272
  798MOL0     H10063   3.383   9.047   5.230  1.8588 -1.1894  3.8251
  798MOL0     H10064   3.296   9.059   5.389 -2.4083 -1.3581  0.8461
  798MOL0     H10065   3.275   8.814   5.211  0.7789  2.0407 -0.6296
  798MOL0     H10066   3.280   8.814   5.387  1.1739 -4.9399 -1.7708
  798MOL0     H10067   3.535   8.867   5.225  0.2221  3.3053  1.1086
  798MOL0     H10068   3.509   8.872   5.401 -2.4372 -0.1025  1.5929
  798MOL0     H10069   3.506   8.631   5.211 -2.9831 -0.4514  0.3856
  798MOL0     H10070   3.422   8.616   5.358  1.8536 -1.0580  1.4450
  798MOL0     H10071   3.720   8.718   5.336  2.2005 -1.1662  1.9792
  798MOL0     H10072   3.628   8.701   5.491  0.2487 -0.1060 -0.5439
  798MOL0     H10073   3.512   8.401   5.459 -0.5043 -1.1547 -0.4056
  798MOL0     H10074   3.643   8.175   5.539 -1.1084 -0.7081  0.2694
  798MOL0     H10075   3.786   8.124   5.451  0.1708  1.0122  0.4841
  798MOL0     H10076   3.498   8.162   5.333 -0.7296 -0.8354  0.5979
  798MOL0     H10077   3.645   8.114   5.238  1.4405 -1.7183  0.0978
  798MOL0     H10078   3.664   7.905   5.383  0.5281 -0.0973 -2.0344
  798MOL0     H10079   3.508   7.958   5.454 -1.0140  0.8473 -0.9217
  798MOL0     H10080   3.453   7.966   5.185 -1.1329 -0.4722  1.7420
  798MOL0     H10081   3.587   7.841   5.170 -0.3602 -0.3357 -0.1762
  798MOL0     H10082   3.325   7.838   5.044  0.3870 -2.5742  0.1828
  798MOL0     H10083   3.191   7.802   4.864  1.0836  0.0632  1.4747
  798MOL0     H10084   3.069   7.908   4.924  1.8266  0.4194  2.1094
  798MOL0     H10085   3.030   7.734   4.899  0.2318 -0.7702 -0.2365
  798MOL0     H10086   2.625   7.850   5.249  0.5202  0.2743  1.4594
  798MOL0     H10087   2.358   7.782   5.179  0.3727  0.9549 -0.4926
  798MOL0     H10088   2.320   7.409   4.978  1.1594  0.3312  0.6644
  798MOL0     H10089   2.263   7.340   5.141 -0.8497  0.0207  0.4444
  798MOL0     H10090   2.046   7.442   5.106 -0.9741 -1.2831  0.5475
  798MOL0     H10091   2.090   7.474   4.942 -1.6388 -2.6517 -2.1264
  798MOL0     H10092   2.121   7.189   5.035  0.3962  1.6719  3.0350
  798MOL0     H10093   2.128   7.251   4.869 -0.4411  0.7766 -0.7716
  798MOL0     H10094   1.871   7.257   5.039 -0.4186 -0.3080  0.6233
  798MOL0     H10095   1.920   7.127   4.922 -0.7975  0.5220 -0.9675
  798MOL0     H10096   1.771   7.304   4.829 -0.4180  2.4936  3.4475
  798MOL0     H10097   1.892   7.427   4.831  1.8311 -0.1566 -1.7905
  798MOL0     H10098   1.968   7.162   4.720  0.7694  0.8091  1.5220
  798MOL0     H10099   2.032   7.318   4.685  0.1056 -0.3917  0.6961
  798MOL0     H10100   1.831   7.373   4.541  0.3223  0.6914  1.9772
  798MOL0     H10101   1.752   7.229   4.596  0.0935  1.4218 -0.1527
  798MOL0     H10102   1.960   7.104   4.494 -2.2534 -0.4321  3.5178
  798MOL0     H10103   2.017   7.259   4.425 -1.1682  0.0074 -3.1429
  798MOL0     H10104   2.479   7.380   5.166  1.3884 -1.0580  0.5145
  798MOL0     H10105   2.699   7.441   5.225 -1.6879 -1.4563  0.3073
  798MOL0     H10106   3.017   7.665   5.383 -0.0971  1.3439  0.3986
  798MOL0     H10107   3.253   7.692   5.438  3.6761  0.4695  0.3272
  798MOL0     H10108   2.729   9.188   5.100 -1.4539 -0.1831  0.2389
  798MOL0     H10109   2.489   9.247   5.117  1.9111 -0.4639 -2.6152
  798MOL0     H10110   2.089   9.196   5.202 -1.6510 -0.2829  1.5586
  798MOL0     H10111   1.867   9.271   5.130 -1.3069  1.0911  0.3400
  798MOL0     H10112   1.743   9.705   5.139  1.5590 -0.4902  2.5578
  798MOL0     H10113   1.592   9.599   5.141 -0.6544  1.0453  0.7459
  798MOL0     H10114   1.772   9.642   5.380 -0.4239 -0.4227  0.4655
  798MOL0     H10115   1.670   9.501   5.367 -1.5232 -0.0731 -2.7751
  798MOL0     H10116   1.544   9.710   5.481 -1.1142  2.0773 -0.0298
  798MOL0     H10117   1.581   9.795   5.340 -0.3652  0.7041  2.3356
  798MOL0     H10118   1.408   9.635   5.217  0.3518 -1.4694  0.6116
  798MOL0     H10119   1.350   9.712   5.362  1.2614  1.0441 -0.4899
  798MOL0     H10120   1.346   9.298   5.494  2.8566 -0.7925 -1.3612
  798MOL0     H10121   1.956   9.674   5.211  1.8262  0.5891  4.4395
  798MOL0     H10122   2.266   9.622   5.348  0.3871  0.3541 -1.1684
  798MOL0     H10123   2.285   9.676   5.186  0.9939  1.7605  0.9361
  798MOL0     H10124   2.152   9.746   5.268  0.5705  0.7332  2.5888
  799MOL0     O10125   2.395  10.218   5.803 -0.5426 -0.4772  0.5491
  799MOL0     C10126   2.315  10.304   5.767 -0.1854  0.2630  0.7854
  799MOL0     O10127   2.355  10.423   5.702 -0.0836 -0.5174  0.3528
  799MOL0     C10128   2.481  10.431   5.645 -0.2580  0.7930 -0.3178
  799MOL0     C10129   2.566  10.526   5.692  0.4780 -0.1325  0.3282
  799MOL0     C10130   2.702  10.528   5.654 -0.8693  0.5326  0.8947
  799MOL0     C10131   2.743  10.432   5.558 -0.2097 -0.8610  0.3970
  799MOL0     O10132   2.875  10.412   5.539  0.4587 -0.2448  0.6482
  799MOL0     C10133   2.976  10.492   5.604  0.7970  0.0589  0.7202
  799MOL0     C10134   3.107  10.438   5.547 -0.0775 -0.4549  0.6772
  799MOL0     C10135   3.220  10.530   5.575 -0.4838 -0.3926 -0.8529
  799MOL0     C10136   3.354  10.476   5.533 -0.0052  0.4949  0.1512
  799MOL0     C10137   3.460  10.570   5.530  0.1244 -0.1966  0.3682
  799MOL0     C10138   3.583  10.527   5.449 -0.8904 -0.5100 -0.2377
  799MOL0     C10139   3.709  10.612   5.480 -1.2160  0.6826  0.3863
  799MOL0     C10140   3.825  10.595   5.377 -0.3026  0.2535 -0.2379
  799MOL0     N10141   3.882  10.456   5.381 -0.2253 -0.7356  0.8538
  799MOL0     C10142   3.964  10.406   5.479  0.4981 -0.0310 -0.3905
  799MOL0     C10143   4.006  10.286   5.440 -0.2181 -0.5183  0.3211
  799MOL0     C10144   4.115  10.213   5.517 -0.5253  0.0204  0.9760
  799MOL0     C10145   4.251  10.268   5.490 -0.9139 -0.4927  0.0955
  799MOL0     C10146   4.356  10.212   5.583 -1.1349  0.4444  0.9842
  799MOL0     C10147   4.501  10.278   5.558  0.1547  0.4958 -1.0432
  799MOL0     O10148   4.562  10.219   5.443  0.5260 -0.8096 -0.4295
  799MOL0     C10149   4.690  10.273   5.418 -0.5254  0.0845 -0.7560
  799MOL0     C10150   4.743  10.229   5.298  0.6136  0.2934  0.3468
  799MOL0     C10151   4.871  10.257   5.249  0.4462 -0.3787 -0.9643
  799MOL0     C10152   4.909  10.192   5.120  0.2634 -0.3465  1.2578
  799MOL0     C10153   4.950  10.355   5.327 -0.2276  0.7600  0.0606
  799MOL0     C10154   5.089  10.400   5.285  0.4354  0.3765  0.5025
  799MOL0     O10155   5.135  10.358   5.163  0.0279  0.7336  0.2049
  799MOL0     C10156   5.258  10.400   5.132 -0.7943 -0.2668  0.3681
  799MOL0     C10157   5.272  10.490   5.032  0.6264  0.3083  0.9508
  799MOL0     C10158   5.398  10.536   4.984  0.2330 -0.2579 -0.4111
  799MOL0     C10159   5.513  10.485   5.048 -0.9062  1.1326 -0.1757
  799MOL0     O10160   5.630  10.511   4.982  0.2435  0.6203  0.4208
  799MOL0     C10161   5.759  10.484   5.037 -0.2368 -0.2879 -0.0996
  799MOL0     C10162   5.861  10.563   4.959 -0.4739  1.0482  0.1315
  799MOL0     C10163   5.995  10.493   4.961  0.1995  0.3742  0.1147
  799MOL0     C10164   6.099  10.549   4.870  0.4974  0.0382 -0.2969
  799MOL0     C10165   6.217  10.455   4.880 -0.1090 -1.2051  0.4089
  799MOL0     C10166   6.344  10.524   4.809 -0.0191  0.2537  0.4546
  799MOL0     C10167   6.462  10.433   4.794 -0.4222  0.0125 -1.0600
  799MOL0     C10168   6.606  10.503   4.784  0.2658 -0.7470 -0.3001
  799MOL0    Cl10169   6.628  10.584   4.940 -0.4215 -0.2755 -0.3958
  799MOL0     C10170   5.499  10.399   5.155  0.1530 -0.1395  0.0877
  799MOL0     C10171   5.374  10.350   5.195  0.0894 -0.1434  0.1593
  799MOL0     O10172   5.154  10.469   5.368  0.4288  0.3830  0.0060
  799MOL0     C10173   4.894  10.406   5.443 -0.0321 -0.0284  0.3936
  799MOL0     C10174   4.766  10.367   5.493  0.4628  0.6273  0.2579
  799MOL0     N10175   3.947  10.259   5.315  0.3874  0.5866 -0.2805
  799MOL0     N10176   3.876  10.364   5.276  0.0379  0.3068 -1.2398
  799MOL0     C10177   2.652  10.344   5.494 -1.0554  0.1583 -0.3199
  799MOL0     C10178   2.525  10.345   5.545 -0.1948 -0.1097  0.1079
  799MOL0     C10179   2.162  10.285   5.805 -0.9091  0.1146  0.8260
  799MOL0     C10180   2.081  10.399   5.807  0.0301 -0.8508 -0.0992
  799MOL0     C10181   1.944  10.389   5.834  0.7559 -0.2367 -0.0217
  799MOL0     C10182   1.885  10.264   5.875 -0.1907 -0.1522  0.1207
  799MOL0     O10183   1.755  10.240   5.923 -0.1310 -0.3505  0.1161
  799MOL0     C10184   1.677  10.362   5.922 -0.9134  0.6037  0.1361
  799MOL0     C10185   1.550  10.336   5.994 -0.6332 -0.2893  0.4824
  799MOL0     C10186   1.469  10.234   5.905 -0.2921 -0.3498 -0.0229
  799MOL0     C10187   1.326  10.210   5.964  0.5485  0.4303  0.8623
  799MOL0     C10188   1.257  10.336   5.951  0.1396 -1.2593 -0.6290
  799MOL0     C10189   1.208  10.444   5.940 -0.6108 -0.2416  0.6966
  799MOL0     C10190   1.973  10.154   5.881  1.3058 -0.7540 -0.8450
  799MOL0     C10191   2.106  10.161   5.852 -0.5537  0.6504 -0.4722
  799MOL0     C10192   2.179  10.030   5.868 -1.1202  0.3252 -0.4369
  799MOL0     H10193   2.528  10.584   5.776  3.7679  1.0021  1.1658
  799MOL0     H10194   2.767  10.604   5.695  0.4808 -1.1525  2.0651
  799MOL0     H10195   2.963  10.466   5.710  0.4390 -0.9741  0.4395
  799MOL0     H10196   2.970  10.598   5.581  1.5485 -0.1230 -0.3851
  799MOL0     H10197   3.132  10.343   5.595  0.6499 -1.6141 -1.7974
  799MOL0     H10198   3.099  10.410   5.441  3.0653  3.5953 -0.9107
  799MOL0     H10199   3.207  10.620   5.515 -1.7960  3.0849  4.0038
  799MOL0     H10200   3.226  10.560   5.680  0.5003  2.7891 -1.7167
  799MOL0     H10201   3.377  10.394   5.601 -2.9307  0.6228  1.4558
  799MOL0     H10202   3.334  10.431   5.435 -0.7979  0.9754  0.0807
  799MOL0     H10203   3.479  10.593   5.635  0.9989  0.1789  0.1301
  799MOL0     H10204   3.420  10.666   5.497  2.1896  0.5895  0.0486
  799MOL0     H10205   3.601  10.425   5.483 -0.7436  1.1675  5.8636
  799MOL0     H10206   3.555  10.527   5.343  0.5884 -1.3598 -0.6558
  799MOL0     H10207   3.757  10.589   5.576 -0.8719 -2.8963 -0.5018
  799MOL0     H10208   3.683  10.718   5.472 -0.2389  0.8568 -0.7398
  799MOL0     H10209   3.786  10.613   5.276  2.8814 -1.1599 -1.8857
  799MOL0     H10210   3.902  10.672   5.394 -2.4178  2.2872  0.6593
  799MOL0     H10211   3.992  10.462   5.568  0.2708  3.2201 -2.1892
  799MOL0     H10212   4.118  10.114   5.470 -1.0875  0.9313 -1.1217
  799MOL0     H10213   4.085  10.193   5.620  0.7290  3.0635  2.0460
  799MOL0     H10214   4.274  10.239   5.387 -0.8231 -0.3944  0.0886
  799MOL0     H10215   4.249  10.375   5.510  1.6748 -0.9764  3.9369
  799MOL0     H10216   4.335  10.238   5.687  2.3387  2.0885  1.4296
  799MOL0     H10217   4.367  10.104   5.571  3.0644  0.8095  0.0020
  799MOL0     H10218   4.490  10.386   5.541  0.2641  0.5853 -0.5505
  799MOL0     H10219   4.560  10.267   5.649  0.0728  0.8443 -0.9482
  799MOL0     H10220   4.672  10.166   5.245 -0.3694  1.5326  0.1561
  799MOL0     H10221   4.924  10.268   5.042  1.6905 -2.6197 -0.8276
  799MOL0     H10222   4.832  10.117   5.097  0.4009  0.3636 -2.0001
  799MOL0     H10223   5.002  10.135   5.130 -0.1782 -0.9798  1.8498
  799MOL0     H10224   5.180  10.531   4.990 -0.5446  0.3908  3.4299
  799MOL0     H10225   5.406  10.593   4.892  2.5465 -1.0330 -0.7372
  799MOL0     H10226   5.774  10.511   5.142 -0.6576  1.2570 -0.4194
  799MOL0     H10227   5.778  10.376   5.027 -0.3428 -0.4889  1.6549
  799MOL0     H10228   5.833  10.569   4.853 -0.3406 -1.2541 -0.0966
  799MOL0     H10229   5.874  10.663   5.001  0.4366  0.6130  0.9240
  799MOL0     H10230   5.977  10.393   4.918  1.4971  0.2089 -0.0681
  799MOL0     H10231   6.034  10.486   5.063  0.0192 -0.7514  0.1224
  799MOL0     H10232   6.132  10.648   4.902  4.0221 -0.7890 -0.9315
  799MOL0     H10233   6.050  10.541   4.773 -2.4025  1.4931  0.9260
  799MOL0     H10234   6.240  10.426   4.982  1.2355  1.5965  0.9906
  799MOL0     H10235   6.183  10.370   4.819 -1.8879  0.9210 -1.8038
  799MOL0     H10236   6.381  10.613   4.862 -1.0500  0.9881 -0.0155
  799MOL0     H10237   6.316  10.564   4.711 -1.9301  1.4856  1.4335
  799MOL0     H10238   6.450  10.372   4.703 -1.4687 -0.0238 -0.9149
  799MOL0     H10239   6.449  10.360   4.875 -1.6187 -0.2599 -1.4712
  799MOL0     H10240   6.619  10.576   4.704  1.9430 -1.5256 -0.7841
  799MOL0     H10241   6.686  10.429   4.772  0.7658 -0.5557  1.5361
  799MOL0     H10242   5.589  10.370   5.208 -0.3911  0.9921  1.7285
  799MOL0     H10243   5.363  10.281   5.279  0.2750 -1.9634 -1.2562
  799MOL0     H10244   4.954  10.460   5.515  3.1763 -1.8186 -0.7390
  799MOL0     H10245   4.721  10.405   5.584 -2.2988  1.7117 -1.4344
  799MOL0     H10246   2.678  10.267   5.421 -0.5626  0.7905 -0.8301
  799MOL0     H10247   2.447  10.285   5.499  0.0883 -0.7673  0.4810
  799MOL0     H10248   2.120  10.497   5.781 -1.7170  0.9670  3.3866
  799MOL0     H10249   1.894  10.484   5.843  1.7504  0.1349  2.4129
  799MOL0     H10250   1.722  10.444   5.978  0.4212 -1.4545  2.2935
  799MOL0     H10251   1.649  10.396   5.822 -2.0423 -1.8218 -0.4618
  799MOL0     H10252   1.503  10.434   5.999 -0.4170 -0.1743  0.2758
  799MOL0     H10253   1.577  10.301   6.094 -0.1091 -2.2629 -0.2866
  799MOL0     H10254   1.450  10.272   5.804  0.4258 -0.9887 -0.4136
  799MOL0     H10255   1.515  10.134   5.900 -0.0067 -0.2518  0.5433
  799MOL0     H10256   1.337  10.180   6.068 -1.1705  2.0257  1.5519
  799MOL0     H10257   1.258  10.144   5.910 -3.8642  2.4054  3.5060
  799MOL0     H10258   1.161  10.539   5.922  2.7475  1.6331  1.1791
  799MOL0     H10259   1.948  10.059   5.926  1.2469 -0.1804  0.3642
  799MOL0     H10260   2.255  10.052   5.943 -1.9642 -0.0721  0.5642
  799MOL0     H10261   2.113   9.949   5.902 -1.8975  0.2186 -2.0785
  799MOL0     H10262   2.233   9.993   5.781  1.7980 -0.3102  1.5087
  800MOL0     O10263   8.584   7.846   9.038  0.7698 -0.3815  0.6929
  800MOL0     C10264   8.536   7.737   9.008  0.3503  0.0071  0.5513
  800MOL0     O10265   8.610   7.637   8.946  0.1160 -0.5306  0.1929
  800MOL0     C10266   8.734   7.686   8.892 -0.2207  0.3092 -0.3168
  800MOL0     C10267   8.850   7.614   8.920 -0.0183 -0.7509 -0.6381
  800MOL0     C10268   8.974   7.653   8.877 -0.0052  0.2935 -0.4778
  800MOL0     C10269   8.995   7.778   8.825  0.6008 -0.1177  0.0438
  800MOL0     O10270   9.113   7.834   8.808 -0.4056 -0.1644 -0.3812
  800MOL0     C10271   9.235   7.772   8.851  0.6291 -0.0885 -0.1952
  800MOL0     C10272   9.349   7.867   8.834  0.1208 -0.8379 -0.8170
  800MOL0     C10273   9.490   7.804   8.850  0.2036 -0.5626  0.8277
  800MOL0     C10274   9.526   7.709   8.734  0.4376  0.0823  0.1198
  800MOL0     C10275   9.670   7.654   8.753 -0.1649  0.1557  0.2988
  800MOL0     C10276   9.684   7.546   8.648  0.2274  0.6043  0.5421
  800MOL0     C10277   9.815   7.473   8.658  0.5999  0.1533  0.6439
  800MOL0     C10278   9.833   7.383   8.527 -0.0408 -0.5654  0.1228
  800MOL0     N10279   9.963   7.300   8.518 -0.2192 -0.5888  0.3360
  800MOL0     C10280  10.062   7.302   8.621  0.2948 -0.5723  0.2498
  800MOL0     C10281  10.158   7.224   8.560  0.1976  0.5519 -0.3956
  800MOL0     C10282  10.286   7.185   8.626 -0.1156 -0.6810 -0.2753
  800MOL0     C10283  10.410   7.201   8.546 -0.1084  0.0675 -0.1588
  800MOL0     C10284  10.477   7.341   8.575  0.0278 -0.2695  0.2127
  800MOL0     C10285  10.605   7.378   8.487  0.0640  0.2025 -0.0812
  800MOL0     O10286  10.672   7.492   8.544  0.4283 -0.9075  0.1385
  800MOL0     C10287  10.801   7.519   8.496 -0.2480 -0.5421  0.2070
  800MOL0     C10288  10.838   7.646   8.513 -0.2887 -0.8099  0.9182
  800MOL0     C10289  10.962   7.701   8.472  1.3452  0.5225 -0.3167
  800MOL0     C10290  10.992   7.840   8.497 -0.1170 -0.2254 -0.3098
  800MOL0     C10291  11.055   7.614   8.406  0.0207 -0.6205  0.7153
  800MOL0     C10292  11.197   7.652   8.363  0.2589 -0.6505  0.2574
  800MOL0     O10293  11.256   7.607   8.250  0.0655 -1.0511  0.4243
  800MOL0     C10294  11.379   7.642   8.219 -0.0998 -0.9143 -0.5969
  800MOL0     C10295  11.455   7.550   8.146 -0.1586 -0.7050  0.2069
  800MOL0     C10296  11.587   7.569   8.119 -0.1060  0.3881 -0.6703
  800MOL0     C10297  11.660   7.687   8.161  0.0460 -0.1549 -0.0248
  800MOL0     O10298  11.794   7.706   8.154 -0.4964  0.0139  0.3386
  800MOL0     C10299  11.864   7.613   8.065  0.8003 -0.0202  0.1483
  800MOL0     C10300  12.016   7.638   8.059  0.7639  0.0396  0.4934
  800MOL0     C10301  12.052   7.775   8.003 -0.2164 -0.6740 -0.3165
  800MOL0     C10302  12.200   7.797   7.999 -0.4884  0.0279  0.4593
  800MOL0     C10303  12.234   7.939   7.972  0.0768 -0.1020  0.3586
  800MOL0     C10304  12.374   7.943   7.943 -1.3059  0.4243  0.0238
  800MOL0     C10305  12.411   8.079   7.912  0.1307 -0.2003  0.7993
  800MOL0     C10306  12.556   8.083   7.881 -0.1018  0.2397  0.4127
  800MOL0    Cl10307  12.606   7.991   7.738  0.2849 -0.1974  0.0684
  800MOL0     C10308  11.584   7.787   8.218 -0.2470  0.0473  0.2958
  800MOL0     C10309  11.445   7.764   8.254  0.4140 -0.0105  0.0051
  800MOL0     O10310  11.259   7.716   8.450  0.1162  0.1269 -0.1704
  800MOL0     C10311  11.020   7.475   8.407  0.6055 -0.3255  0.3783
  800MOL0     C10312  10.894   7.429   8.444  0.2714 -0.5734  0.5896
  800MOL0     N10313  10.115   7.174   8.433 -0.4422 -0.1390 -0.1472
  800MOL0     N10314   9.994   7.220   8.414 -0.7590  0.0995  0.0576
  800MOL0     C10315   8.882   7.856   8.789  0.3769  0.8099 -0.0024
  800MOL0     C10316   8.754   7.803   8.812  0.7304 -0.7498  0.0145
  800MOL0     C10317   8.392   7.727   8.999  0.9091 -0.6486  0.3108
  800MOL0     C10318   8.343   7.666   8.882  0.1378  0.9205  0.5312
  800MOL0     C10319   8.203   7.639   8.858 -0.2491 -0.7796  0.4366
  800MOL0     C10320   8.111   7.695   8.944  0.4589 -0.0295  0.4858
  800MOL0     O10321   7.974   7.673   8.912 -0.3454 -0.1674  1.2458
  800MOL0     C10322   7.872   7.711   9.004 -0.5785 -0.0901 -0.0858
  800MOL0     C10323   7.741   7.659   8.950  0.4651 -0.1697 -0.2462
  800MOL0     C10324   7.626   7.712   9.046 -0.0038  1.3071 -0.3324
  800MOL0     C10325   7.497   7.721   8.961  0.3286  0.9151 -0.3854
  800MOL0     C10326   7.384   7.765   9.050  0.6178 -0.4525  0.8885
  800MOL0     C10327   7.288   7.804   9.117  1.1425  0.4198  1.4217
  800MOL0     C10328   8.157   7.758   9.059  0.6590  0.3380 -0.9182
  800MOL0     C10329   8.292   7.773   9.089  0.3797  0.9282  0.0310
  800MOL0     C10330   8.329   7.835   9.221  0.0390  0.2969  0.7785
  800MOL0     H10331   8.845   7.521   8.977 -2.0542  0.5451  1.4669
  800MOL0     H10332   9.056   7.582   8.885  0.6552  0.8503 -1.9757
  800MOL0     H10333   9.249   7.680   8.795  1.0835  1.3368 -2.5692
  800MOL0     H10334   9.229   7.738   8.955 -0.1682  0.0401 -0.1941
  800MOL0     H10335   9.349   7.928   8.743 -0.3136 -0.8354 -0.8154
  800MOL0     H10336   9.352   7.934   8.920  2.4743 -1.1041 -0.6121
  800MOL0     H10337   9.561   7.886   8.833 -0.3248 -0.6223 -2.0399
  800MOL0     H10338   9.513   7.770   8.952 -0.2063  0.2965  1.2203
  800MOL0     H10339   9.449   7.630   8.729  2.7136 -2.2592 -0.1621
  800MOL0     H10340   9.518   7.762   8.639  2.3747  3.6969  1.8018
  800MOL0     H10341   9.679   7.617   8.855  2.0531 -3.2046 -0.9368
  800MOL0     H10342   9.747   7.730   8.733  0.4983 -0.4610  0.4729
  800MOL0     H10343   9.604   7.471   8.653 -0.6907  1.4406 -0.8965
  800MOL0     H10344   9.680   7.588   8.547  2.7306 -0.1029  0.0836
  800MOL0     H10345   9.813   7.412   8.749 -1.2658  0.0925  0.6055
  800MOL0     H10346   9.898   7.544   8.653  0.1317  0.6169 -1.9516
  800MOL0     H10347   9.754   7.308   8.514 -1.3637  0.6311  1.0208
  800MOL0     H10348   9.837   7.446   8.438 -1.7681  0.3472  0.6523
  800MOL0     H10349  10.070   7.349   8.718  0.0900 -0.7642  0.3606
  800MOL0     H10350  10.278   7.078   8.647  1.6005 -1.4036 -2.8237
  800MOL0     H10351  10.300   7.240   8.719  0.5671  1.1148 -1.4022
  800MOL0     H10352  10.485   7.123   8.564  2.0273  1.4303 -2.4986
  800MOL0     H10353  10.381   7.178   8.443 -1.1797 -0.3778  0.2236
  800MOL0     H10354  10.401   7.417   8.554 -0.1610 -0.9757 -1.9350
  800MOL0     H10355  10.516   7.353   8.676  0.3439  2.8675 -0.1775
  800MOL0     H10356  10.657   7.283   8.472 -1.9756 -0.9148 -0.5519
  800MOL0     H10357  10.560   7.406   8.391 -0.8814 -1.6227 -0.2131
  800MOL0     H10358  10.768   7.711   8.565  1.5105  0.3058  2.0561
  800MOL0     H10359  11.068   7.848   8.576 -1.7907 -2.5547  1.6912
  800MOL0     H10360  10.905   7.896   8.533  1.3230  1.4865  0.6870
  800MOL0     H10361  11.025   7.897   8.410 -2.5732  0.0991 -1.1060
  800MOL0     H10362  11.397   7.461   8.121  0.4134 -1.2407  0.7489
  800MOL0     H10363  11.635   7.482   8.076  1.4810  0.9167 -0.0507
  800MOL0     H10364  11.860   7.511   8.105  1.4276 -0.7043 -1.4431
  800MOL0     H10365  11.809   7.608   7.971  0.1968 -0.3737  0.5081
  800MOL0     H10366  12.037   7.631   8.166  0.2610  0.1155  0.6019
  800MOL0     H10367  12.074   7.564   8.003  1.1859 -0.4000  1.4826
  800MOL0     H10368  12.013   7.847   8.075  1.2761 -1.0623  0.9484
  800MOL0     H10369  12.012   7.782   7.902  0.1389 -0.1741 -0.4239
  800MOL0     H10370  12.237   7.732   7.920  0.1349  1.9320 -0.8892
  800MOL0     H10371  12.249   7.763   8.091 -1.3982 -0.4123  0.7951
  800MOL0     H10372  12.184   7.978   7.883 -2.2874 -0.8042  1.3107
  800MOL0     H10373  12.212   7.999   8.060  4.0462 -0.2570  1.6505
  800MOL0     H10374  12.401   7.869   7.867 -2.9847 -0.4958  0.2596
  800MOL0     H10375  12.425   7.922   8.037 -0.7298  1.3132 -0.0832
  800MOL0     H10376  12.380   8.153   7.987  0.2314  5.1396 -3.7815
  800MOL0     H10377  12.355   8.110   7.823 -3.7515 -3.1555  1.9389
  800MOL0     H10378  12.610   8.041   7.966  1.6660  1.1217 -0.2175
  800MOL0     H10379  12.594   8.184   7.864  1.3311 -0.4606 -0.8302
  800MOL0     H10380  11.632   7.880   8.248 -0.7483  0.9798 -1.6394
  800MOL0     H10381  11.387   7.843   8.300 -0.9313  0.1084 -1.7937
  800MOL0     H10382  11.086   7.401   8.363 -0.4241 -0.2160 -1.4254
  800MOL0     H10383  10.866   7.324   8.435  0.2383 -0.4840 -0.4165
  800MOL0     H10384   8.897   7.954   8.743 -0.5087  0.6284 -0.6976
  800MOL0     H10385   8.665   7.854   8.778  0.3195 -0.6902  1.1516
  800MOL0     H10386   8.413   7.631   8.807 -0.9485 -2.3306  0.8497
  800MOL0     H10387   8.168   7.600   8.763  0.2327  2.7383 -1.3741
  800MOL0     H10388   7.886   7.682   9.109 -0.1107  1.9631  0.4818
  800MOL0     H10389   7.877   7.820   8.994 -0.8883 -0.0690 -0.0232
  800MOL0     H10390   7.740   7.552   8.929 -2.3363 -0.7481  2.1125
  800MOL0     H10391   7.728   7.713   8.856 -0.5862  0.1989  0.1017
  800MOL0     H10392   7.613   7.644   9.131  1.1251  0.1697 -1.0147
  800MOL0     H10393   7.650   7.813   9.079 -0.1947  1.5278 -0.8613
  800MOL0     H10394   7.473   7.628   8.908  0.5249  0.1456  0.8519
  800MOL0     H10395   7.514   7.789   8.877  0.2696 -2.3561 -3.2773
  800MOL0     H10396   7.201   7.829   9.175  1.0046 -1.0036  1.8610
  800MOL0     H10397   8.083   7.784   9.134  0.1713  1.6853 -1.8367
  800MOL0     H10398   8.246   7.848   9.292 -1.0634  1.7689 -0.7096
  800MOL0     H10399   8.409   7.776   9.267  1.1284 -0.1207 -1.5412
  800MOL0     H10400   8.362   7.939   9.214 -2.6721  1.4269  2.7522
  801MOL0     O10401   3.517  11.234  11.262 -0.2308  0.0834 -0.4870
  801MOL0     C10402   3.434  11.156  11.317 -0.7664  0.2426 -0.1598
  801MOL0     O10403   3.462  11.026  11.331 -0.4498 -0.9447 -0.3814
  801MOL0     C10404   3.593  10.982  11.332  0.3509 -0.0428 -0.3107
  801MOL0     C10405   3.681  11.041  11.419 -0.4633 -0.5072 -0.6717
  801MOL0     C10406   3.812  10.995  11.428  0.3504 -0.2567  0.1881
  801MOL0     C10407   3.858  10.895  11.346  0.2348 -0.6036 -0.3461
  801MOL0     O10408   3.987  10.847  11.371  0.0948 -0.3114  0.3015
  801MOL0     C10409   4.063  10.792  11.261  0.6931 -0.1019  0.0903
  801MOL0     C10410   4.188  10.752  11.327  0.5590  0.3286  0.4201
  801MOL0     C10411   4.277  10.875  11.365  0.6611  0.8353 -0.3921
  801MOL0     C10412   4.380  10.821  11.464 -0.1040  0.3081 -0.0462
  801MOL0     C10413   4.519  10.847  11.424 -0.2924  0.1956 -0.3936
  801MOL0     C10414   4.625  10.793  11.525 -0.3587  0.2891  0.2287
  801MOL0     C10415   4.768  10.833  11.474  0.5195 -0.7237  0.8499
  801MOL0     C10416   4.882  10.813  11.577  1.0210  0.2584  1.4214
  801MOL0     N10417   5.015  10.839  11.525 -0.7507  0.4306 -0.5455
  801MOL0     C10418   5.066  10.959  11.474  0.7422  0.4418 -0.2804
  801MOL0     C10419   5.192  10.956  11.442  0.8142  0.8597  0.7998
  801MOL0     C10420   5.253  11.064  11.362 -0.0175 -0.0394  0.7239
  801MOL0     C10421   5.377  11.116  11.444  1.1072  0.1892 -0.4946
  801MOL0     C10422   5.465  11.207  11.350 -0.1227 -0.0964  0.2856
  801MOL0     C10423   5.594  11.250  11.422 -0.1745  0.6424 -0.0072
  801MOL0     O10424   5.678  11.320  11.326 -0.4992 -0.4537  0.7351
  801MOL0     C10425   5.796  11.386  11.356  0.4141 -1.0695 -0.8377
  801MOL0     C10426   5.874  11.365  11.480  1.1017 -0.3694 -0.5199
  801MOL0     C10427   5.989  11.443  11.500 -0.0791  1.0160 -0.0597
  801MOL0     C10428   6.058  11.422  11.639 -0.8823 -0.3638  0.3034
  801MOL0     C10429   6.049  11.518  11.395 -0.5657  0.0846  0.2745
  801MOL0     C10430   6.165  11.594  11.421  0.4019 -0.2461 -0.4604
  801MOL0     O10431   6.242  11.629  11.309 -0.3570 -0.0059  0.5110
  801MOL0     C10432   6.366  11.694  11.315  0.1864 -0.1071 -0.5173
  801MOL0     C10433   6.402  11.799  11.397  0.8118 -0.2860 -0.3624
  801MOL0     C10434   6.526  11.869  11.379  0.4450  0.7469  0.2650
  801MOL0     C10435   6.618  11.821  11.280 -0.0417 -0.4618 -0.2712
  801MOL0     O10436   6.749  11.851  11.275 -0.4464 -0.3136  0.4276
  801MOL0     C10437   6.802  11.939  11.372 -0.0935 -0.9788  0.2488
  801MOL0     C10438   6.956  11.958  11.347  1.0692  0.4319  0.3448
  801MOL0     C10439   6.987  12.021  11.210  0.3191  0.1713 -0.6113
  801MOL0     C10440   7.120  12.091  11.218  0.6099 -0.0254  0.1447
  801MOL0     C10441   7.162  12.147  11.083  0.5134 -0.3352 -0.6533
  801MOL0     C10442   7.292  12.227  11.089 -0.5727 -0.2490 -0.3861
  801MOL0     C10443   7.418  12.140  11.062  0.1755 -0.7118  0.4175
  801MOL0     C10444   7.544  12.235  11.070  0.5215  0.0728 -0.0103
  801MOL0    Cl10445   7.694  12.153  11.013 -0.0049  0.4553  0.0754
  801MOL0     C10446   6.576  11.711  11.200  0.0566 -0.5536  0.5999
  801MOL0     C10447   6.452  11.648  11.211  0.0565 -0.4250 -1.4907
  801MOL0     O10448   6.188  11.641  11.531  0.0921  0.4202  0.1015
  801MOL0     C10449   5.981  11.526  11.270 -0.0168 -0.0570 -0.6868
  801MOL0     C10450   5.860  11.458  11.250  0.6604 -0.9279 -0.0336
  801MOL0     N10451   5.232  10.827  11.496 -0.3867 -0.6147 -0.2544
  801MOL0     N10452   5.128  10.770  11.547 -0.1522 -0.0026  0.0340
  801MOL0     C10453   3.759  10.824  11.265 -0.0796 -0.4272  0.9513
  801MOL0     C10454   3.621  10.872  11.260 -0.7871 -0.6199  0.0883
  801MOL0     C10455   3.310  11.207  11.383  0.2154  0.8666  0.3074
  801MOL0     C10456   3.277  11.148  11.508  0.3140  0.3915  0.6563
  801MOL0     C10457   3.163  11.208  11.577  0.4368  0.6238 -1.6072
  801MOL0     C10458   3.084  11.315  11.527  0.4730 -0.5777 -0.4782
  801MOL0     O10459   2.980  11.369  11.598  0.3163  0.0137  0.4385
  801MOL0     C10460   2.957  11.512  11.595  0.5612  0.1174  1.1458
  801MOL0     C10461   2.873  11.557  11.710 -0.7596 -0.5894  0.8339
  801MOL0     C10462   2.727  11.523  11.688 -0.5998  0.4501  0.3407
  801MOL0     C10463   2.660  11.544  11.824  0.6100 -0.4285  1.1427
  801MOL0     C10464   2.512  11.530  11.808 -0.7034  0.2806  0.4569
  801MOL0     C10465   2.404  11.485  11.792  0.9151 -1.3370 -0.3475
  801MOL0     C10466   3.111  11.354  11.392 -0.5904 -0.3901 -0.3539
  801MOL0     C10467   3.224  11.307  11.326 -0.5002  0.4325  0.4593
  801MOL0     C10468   3.249  11.355  11.176  0.3317  0.0158 -0.5540
  801MOL0     H10469   3.651  11.124  11.482  3.8043  1.8559 -1.3513
  801MOL0     H10470   3.876  11.036  11.506 -0.4448  2.1108 -0.3106
  801MOL0     H10471   4.079  10.866  11.182 -0.7711 -0.2307 -0.3740
  801MOL0     H10472   4.020  10.700  11.219 -0.8191  0.1177  1.0681
  801MOL0     H10473   4.177  10.695  11.419  4.4347  0.0853  0.8927
  801MOL0     H10474   4.256  10.691  11.267 -0.6731 -1.8895  1.1847
  801MOL0     H10475   4.320  10.914  11.272 -0.1532 -2.2230 -2.1663
  801MOL0     H10476   4.226  10.954  11.421  0.2982  2.0262 -2.3251
  801MOL0     H10477   4.364  10.884  11.552 -1.0151  2.8626 -1.9014
  801MOL0     H10478   4.370  10.718  11.498 -0.2801  0.4739  0.4098
  801MOL0     H10479   4.522  10.954  11.401  1.7305 -0.0895 -1.7352
  801MOL0     H10480   4.546  10.801  11.328 -0.4560 -2.6353  0.8175
  801MOL0     H10481   4.611  10.846  11.619 -2.0733  0.7819 -0.2718
  801MOL0     H10482   4.617  10.687  11.550 -2.1365 -0.1217 -1.7954
  801MOL0     H10483   4.759  10.934  11.435  3.5234 -0.8998 -0.5849
  801MOL0     H10484   4.795  10.770  11.389  1.0098 -2.8687  2.5127
  801MOL0     H10485   4.861  10.896  11.646  0.0819  3.2022 -2.0597
  801MOL0     H10486   4.873  10.715  11.624 -1.9285  0.7611  2.1384
  801MOL0     H10487   5.006  11.050  11.468  0.1627  0.0925  0.1169
  801MOL0     H10488   5.186  11.145  11.330  0.3136 -0.3169 -0.7561
  801MOL0     H10489   5.299  11.018  11.274  2.6661 -1.0852  2.5537
  801MOL0     H10490   5.344  11.168  11.534 -1.8325  0.2441 -1.4887
  801MOL0     H10491   5.441  11.036  11.483  2.8029  1.1794 -1.1223
  801MOL0     H10492   5.487  11.149  11.261 -1.5303 -1.5563  0.8232
  801MOL0     H10493   5.407  11.300  11.342 -0.5307 -0.3368  0.4053
  801MOL0     H10494   5.580  11.318  11.506 -4.4381  0.0348 -0.0229
  801MOL0     H10495   5.649  11.160  11.450 -1.7057 -0.5153 -0.5808
  801MOL0     H10496   5.827  11.305  11.557  0.9992  1.0350  0.5593
  801MOL0     H10497   6.043  11.517  11.690 -2.8937  0.4763 -1.6745
  801MOL0     H10498   6.163  11.396  11.629 -0.8979 -1.1641  1.8762
  801MOL0     H10499   6.009  11.347  11.703 -2.7548 -0.3864 -1.0716
  801MOL0     H10500   6.334  11.832  11.474 -0.7539 -2.7318 -0.5937
  801MOL0     H10501   6.552  11.954  11.442  0.7652  0.8582 -0.0173
  801MOL0     H10502   6.761  12.040  11.377  0.8376 -0.6132  1.0466
  801MOL0     H10503   6.793  11.890  11.470 -0.5777 -1.4018 -0.0047
  801MOL0     H10504   6.998  12.027  11.420 -0.8880  2.3237 -0.2147
  801MOL0     H10505   7.000  11.859  11.364 -1.3208 -0.6039  0.9166
  801MOL0     H10506   6.915  12.098  11.180  0.8092  2.3274  3.0910
  801MOL0     H10507   6.981  11.939  11.138 -1.6597  1.1245 -1.6224
  801MOL0     H10508   7.199  12.026  11.255  1.2496 -1.1866 -2.9189
  801MOL0     H10509   7.119  12.171  11.292  0.1941  2.2117 -2.1333
  801MOL0     H10510   7.173  12.064  11.013 -0.9476  0.7316 -2.2280
  801MOL0     H10511   7.083  12.210  11.043 -1.5372 -1.9640  0.6489
  801MOL0     H10512   7.305  12.250  11.195  0.2628 -2.8132  0.1356
  801MOL0     H10513   7.286  12.310  11.018 -2.6716 -0.1684 -0.1848
  801MOL0     H10514   7.414  12.103  10.959  3.1914 -1.5991  0.5204
  801MOL0     H10515   7.416  12.062  11.138  3.3146  0.4861  1.9148
  801MOL0     H10516   7.578  12.265  11.170  4.9278  1.2165 -1.6298
  801MOL0     H10517   7.525  12.323  11.009  1.7161 -1.5756 -2.9873
  801MOL0     H10518   6.654  11.687  11.129 -1.1820  0.6568 -1.2682
  801MOL0     H10519   6.430  11.570  11.139 -0.3428 -1.0093 -0.7508
  801MOL0     H10520   6.022  11.589  11.191 -2.1613 -0.3953 -2.1416
  801MOL0     H10521   5.804  11.460  11.156 -1.8748  2.0068  1.3746
  801MOL0     H10522   3.795  10.738  11.209 -0.1127 -0.1255  0.4577
  801MOL0     H10523   3.549  10.814  11.203  1.5077 -2.9455 -0.6212
  801MOL0     H10524   3.333  11.068  11.554  2.1730  2.5701  2.4123
  801MOL0     H10525   3.148  11.176  11.679  1.2216  0.0077 -1.6742
  801MOL0     H10526   3.054  11.561  11.580 -0.0248  0.3109 -3.3622
  801MOL0     H10527   2.912  11.531  11.497  0.6452 -3.0189  0.3877
  801MOL0     H10528   2.871  11.665  11.728  0.5453 -0.4570  0.2894
  801MOL0     H10529   2.915  11.511  11.800 -1.4036  0.9305  1.9536
  801MOL0     H10530   2.694  11.593  11.611  1.2577 -2.1578 -3.1227
  801MOL0     H10531   2.706  11.425  11.643  1.8892  0.7497 -1.7424
  801MOL0     H10532   2.678  11.647  11.856 -3.6791  1.5589 -1.8480
  801MOL0     H10533   2.705  11.484  11.904  1.5172  2.7214  3.1741
  801MOL0     H10534   2.314  11.426  11.792 -0.6837  0.9814  0.3576
  801MOL0     H10535   3.053  11.419  11.328  1.0438 -1.8961 -3.6275
  801MOL0     H10536   3.160  11.408  11.140 -0.1330 -1.6551 -1.9931
  801MOL0     H10537   3.330  11.428  11.166  0.0449  0.4083 -0.0483
  801MOL0     H10538   3.275  11.268  11.115  1.5249  0.7250 -1.0844
  802MOL0     O10539  10.516   2.883   3.428  0.5654 -0.1720 -0.3652
  802MOL0     C10540  10.509   2.984   3.494 -0.5037 -0.6257  0.4548
  802MOL0     O10541  10.603   3.044   3.572 -0.3960 -1.0723 -0.0755
  802MOL0     C10542  10.722   2.982   3.597  0.5162 -0.1063 -0.2083
  802MOL0     C10543  10.846   3.045   3.574 -0.1577  0.4011  0.4106
  802MOL0     C10544  10.963   2.978   3.597 -1.1825 -0.0221 -0.3256
  802MOL0     C10545  10.959   2.851   3.659 -0.0559 -0.4085 -0.6119
  802MOL0     O10546  11.075   2.776   3.681 -0.1200  0.4291  0.3756
  802MOL0     C10547  11.206   2.834   3.655  0.2788 -1.1487  1.0688
  802MOL0     C10548  11.311   2.724   3.641  0.8231 -0.2076  0.2548
  802MOL0     C10549  11.311   2.640   3.765  0.2838  0.1749  0.4660
  802MOL0     C10550  11.354   2.706   3.889  0.3125 -0.3499  0.7116
  802MOL0     C10551  11.346   2.610   4.002  0.2839 -0.1191 -0.5064
  802MOL0     C10552  11.359   2.668   4.140  0.1449  1.6094  0.1536
  802MOL0     C10553  11.375   2.550   4.238 -0.2761  0.1742  0.9130
  802MOL0     C10554  11.389   2.611   4.372 -0.1282  0.3984  0.4908
  802MOL0     N10555  11.518   2.668   4.401 -0.0804 -0.1260 -0.0044
  802MOL0     C10556  11.565   2.787   4.357 -0.3852  0.3979 -0.2320
  802MOL0     C10557  11.695   2.797   4.393  0.5523  0.3587 -0.0821
  802MOL0     C10558  11.783   2.911   4.364  0.6150 -0.3212 -0.0698
  802MOL0     C10559  11.872   2.897   4.233  0.9798  0.7555  0.3457
  802MOL0     C10560  11.892   3.030   4.162  0.0163  0.1558 -0.2639
  802MOL0     C10561  11.994   3.104   4.241 -0.4562 -0.0093 -0.2047
  802MOL0     O10562  12.122   3.044   4.219  0.0053  0.0611 -0.2139
  802MOL0     C10563  12.232   3.092   4.290  0.6478  0.2255  0.3812
  802MOL0     C10564  12.227   3.198   4.384 -0.6932 -0.9182 -0.0278
  802MOL0     C10565  12.345   3.250   4.440  0.8474  0.2393 -0.6151
  802MOL0     C10566  12.334   3.359   4.549  0.6713 -0.5543  0.2385
  802MOL0     C10567  12.464   3.179   4.418 -0.1299 -0.5820 -0.5919
  802MOL0     C10568  12.587   3.203   4.491 -1.1701  0.4997  0.3490
  802MOL0     O10569  12.698   3.201   4.408  0.1341 -0.1785 -0.5230
  802MOL0     C10570  12.821   3.238   4.452  0.1632 -0.3748 -0.4941
  802MOL0     C10571  12.906   3.332   4.376  1.1144  0.2584  1.2276
  802MOL0     C10572  13.036   3.355   4.435  0.1059 -0.1788 -0.2824
  802MOL0     C10573  13.080   3.297   4.548  0.7001 -0.1721 -0.2063
  802MOL0     O10574  13.209   3.321   4.582 -0.5699  0.8727  0.4834
  802MOL0     C10575  13.234   3.352   4.720 -0.1645  0.2257 -0.3583
  802MOL0     C10576  13.373   3.334   4.766 -0.0048  0.2612  0.6982
  802MOL0     C10577  13.480   3.420   4.698 -0.8831 -0.1498 -1.0616
  802MOL0     C10578  13.475   3.561   4.760  0.6796  0.6688  0.4566
  802MOL0     C10579  13.608   3.626   4.727 -0.4706  0.4938 -0.1768
  802MOL0     C10580  13.617   3.760   4.792 -0.5104  0.8914  1.1407
  802MOL0     C10581  13.728   3.853   4.736 -0.1872  0.3175  0.3842
  802MOL0     C10582  13.745   3.974   4.827 -0.2293  1.2526  0.6898
  802MOL0    Cl10583  13.910   4.010   4.796 -0.1911  0.1266 -0.2875
  802MOL0     C10584  13.003   3.207   4.617  0.1625  1.0864  0.1079
  802MOL0     C10585  12.873   3.176   4.567  0.4332 -1.4139 -0.0370
  802MOL0     O10586  12.582   3.233   4.609  0.3051  0.3478 -0.5579
  802MOL0     C10587  12.467   3.073   4.333 -0.5673 -0.4423  0.5659
  802MOL0     C10588  12.354   3.030   4.267 -0.2497 -0.2197  0.8360
  802MOL0     N10589  11.720   2.690   4.473 -0.3681  0.9446  0.3133
  802MOL0     N10590  11.617   2.609   4.473 -0.4116 -0.3754 -0.5663
  802MOL0     C10591  10.838   2.793   3.690  0.7014 -0.4126 -0.5213
  802MOL0     C10592  10.716   2.855   3.651  0.2775 -0.1937 -0.2069
  802MOL0     C10593  10.401   3.077   3.449 -1.4262  1.2030  0.6653
  802MOL0     C10594  10.434   3.212   3.440 -0.0077 -0.4642 -0.4290
  802MOL0     C10595  10.341   3.307   3.391 -0.1708 -0.1832 -0.6147
  802MOL0     C10596  10.207   3.258   3.377 -0.1061 -0.1539  0.4692
  802MOL0     O10597  10.102   3.343   3.372  0.4753 -0.0889 -1.2514
  802MOL0     C10598  10.113   3.474   3.322  0.8504 -0.9787  0.5910
  802MOL0     C10599  10.142   3.467   3.174  0.4231 -0.1733 -0.6027
  802MOL0     C10600  10.054   3.561   3.098  0.0820 -0.8968  0.3230
  802MOL0     C10601  10.095   3.572   2.953  0.5147 -0.2066  0.4213
  802MOL0     C10602  10.233   3.616   2.943  0.4378 -0.4811  1.7304
  802MOL0     C10603  10.355   3.628   2.956  0.5544 -0.0508  0.0271
  802MOL0     C10604  10.176   3.127   3.398 -0.4635 -0.5883  1.4246
  802MOL0     C10605  10.271   3.031   3.428 -0.4063  0.2077 -0.5822
  802MOL0     C10606  10.222   2.893   3.436 -0.2702  0.2048  0.2936
  802MOL0     H10607  10.849   3.142   3.527 -0.1766  0.7445  1.1057
  802MOL0     H10608  11.053   3.027   3.561 -0.1240  0.9844  3.3444
  802MOL0     H10609  11.235   2.906   3.732  1.1854 -0.5996  0.2412
  802MOL0     H10610  11.202   2.891   3.561  1.5042 -1.3672  0.8765
  802MOL0     H10611  11.282   2.673   3.548 -0.3486 -0.2560  0.6314
  802MOL0     H10612  11.411   2.767   3.636  0.1663  1.2745 -0.9180
  802MOL0     H10613  11.209   2.602   3.771 -0.3775  1.7064 -0.6374
  802MOL0     H10614  11.385   2.563   3.739 -0.6169 -0.5041 -0.1225
  802MOL0     H10615  11.450   2.756   3.873 -1.0130  1.8676 -0.9724
  802MOL0     H10616  11.276   2.779   3.915 -0.7030 -1.3575  0.5553
  802MOL0     H10617  11.416   2.527   3.987 -1.0274 -0.9655 -2.2631
  802MOL0     H10618  11.242   2.577   4.002  0.3095 -0.2058 -1.0899
  802MOL0     H10619  11.453   2.725   4.137  2.7464 -2.3118  0.0149
  802MOL0     H10620  11.273   2.730   4.165 -0.9439 -0.1259  0.8330
  802MOL0     H10621  11.459   2.487   4.210 -0.3202  0.9173 -1.0469
  802MOL0     H10622  11.278   2.498   4.232 -1.0672  1.4378  2.1360
  802MOL0     H10623  11.303   2.679   4.381 -1.1141  0.0683 -4.1990
  802MOL0     H10624  11.364   2.534   4.446 -2.5770 -1.3552 -1.9670
  802MOL0     H10625  11.520   2.861   4.291  0.3067 -0.6825 -1.9816
  802MOL0     H10626  11.847   2.934   4.450  0.0623 -0.7057  0.4552
  802MOL0     H10627  11.718   2.997   4.344 -1.0716 -1.4495  0.3498
  802MOL0     H10628  11.971   2.853   4.248 -0.0713 -1.4044  1.3784
  802MOL0     H10629  11.823   2.828   4.164  3.1660  1.1443 -1.7243
  802MOL0     H10630  11.941   3.010   4.066  0.6848  0.2056  0.0663
  802MOL0     H10631  11.800   3.090   4.159 -0.4782 -0.6276 -2.1737
  802MOL0     H10632  12.001   3.203   4.197 -0.3137 -0.3947 -1.0711
  802MOL0     H10633  11.973   3.099   4.349  2.1876  0.1872  0.3819
  802MOL0     H10634  12.136   3.251   4.411  0.5731  1.0797  0.5017
  802MOL0     H10635  12.417   3.427   4.528 -2.1623  1.7745 -5.6012
  802MOL0     H10636  12.336   3.320   4.652 -2.0724  0.7327  0.8653
  802MOL0     H10637  12.244   3.421   4.542  1.2447  0.3736  0.8139
  802MOL0     H10638  12.881   3.371   4.278  2.1538 -3.3382 -0.6604
  802MOL0     H10639  13.104   3.427   4.392 -1.0724  1.1615  0.0353
  802MOL0     H10640  13.198   3.451   4.750 -1.5846 -0.0793 -0.9307
  802MOL0     H10641  13.158   3.306   4.783 -1.0611  4.6390  2.2036
  802MOL0     H10642  13.379   3.351   4.873  0.4152  0.6590  0.6111
  802MOL0     H10643  13.404   3.231   4.743  1.6495  0.7296  0.6969
  802MOL0     H10644  13.474   3.419   4.589  1.4635 -1.2467 -1.2440
  802MOL0     H10645  13.571   3.368   4.731 -1.0233  1.0859  1.5107
  802MOL0     H10646  13.456   3.558   4.867 -2.3031 -0.4814  0.0072
  802MOL0     H10647  13.389   3.614   4.718  1.1828 -0.0634 -1.6265
  802MOL0     H10648  13.691   3.563   4.761 -0.4651  0.3197 -0.5046
  802MOL0     H10649  13.626   3.640   4.620 -0.4194  0.7655 -0.1339
  802MOL0     H10650  13.641   3.740   4.897  0.6106 -2.2072  0.4017
  802MOL0     H10651  13.521   3.811   4.786 -0.3929  0.9644 -0.6714
  802MOL0     H10652  13.695   3.887   4.637  0.7114  2.5105  0.7924
  802MOL0     H10653  13.818   3.793   4.721 -0.7408 -0.3544 -0.3368
  802MOL0     H10654  13.723   3.954   4.933 -0.7766 -0.5332  0.2676
  802MOL0     H10655  13.670   4.048   4.796 -3.1559 -2.1012 -1.0052
  802MOL0     H10656  13.035   3.154   4.706  1.2794 -1.1453 -1.4973
  802MOL0     H10657  12.813   3.106   4.624 -1.0000 -0.5198 -0.3872
  802MOL0     H10658  12.554   3.007   4.325  0.7042  1.3158 -0.9489
  802MOL0     H10659  12.367   2.958   4.187  0.5459  1.1608 -0.3264
  802MOL0     H10660  10.828   2.700   3.745  1.8427  2.2221  4.7530
  802MOL0     H10661  10.621   2.809   3.676 -0.0956  0.6772  0.0427
  802MOL0     H10662  10.535   3.242   3.465 -0.8420  1.5598  0.6513
  802MOL0     H10663  10.369   3.411   3.382  0.0713 -0.0056  1.6525
  802MOL0     H10664  10.015   3.521   3.335  1.2472 -0.4384  1.8347
  802MOL0     H10665  10.184   3.536   3.378 -1.2498  1.3514  0.8973
  802MOL0     H10666  10.105   3.369   3.143  0.7789 -0.0711 -1.3824
  802MOL0     H10667  10.249   3.487   3.161  0.9026  0.6813  3.3335
  802MOL0     H10668   9.953   3.521   3.098 -0.1733 -0.2665 -0.0219
  802MOL0     H10669  10.053   3.657   3.149 -2.4897 -0.0224 -1.1907
  802MOL0     H10670  10.030   3.645   2.904  2.1968  3.4770  3.1478
  802MOL0     H10671  10.083   3.473   2.907  0.5098 -0.4803  1.0062
  802MOL0     H10672  10.458   3.636   2.981  0.6141  1.3046 -0.5650
  802MOL0     H10673  10.075   3.089   3.382 -0.0485 -0.7987 -1.1807
  802MOL0     H10674  10.114   2.898   3.416  0.2084  1.8587 -2.1892
  802MOL0     H10675  10.246   2.816   3.363 -3.0906 -0.8052  0.3048
  802MOL0     H10676  10.223   2.846   3.535 -3.7952 -0.2598  0.2548
  803MOL0     O10677  10.965   9.150   6.340  0.1954 -0.2444 -0.1238
  803MOL0     C10678  10.995   9.117   6.452 -0.5950  0.6147 -0.2598
  803MOL0     O10679  11.091   9.022   6.486  0.2238  0.0697 -0.1676
  803MOL0     C10680  11.149   8.934   6.400  0.1080 -0.3543  0.4115
  803MOL0     C10681  11.271   8.879   6.447 -0.0763 -0.8518  0.3700
  803MOL0     C10682  11.338   8.790   6.365 -0.1542  0.5607 -0.1933
  803MOL0     C10683  11.289   8.750   6.243  0.2761 -0.3914  0.3825
  803MOL0     O10684  11.375   8.678   6.169 -0.3125  0.8994  0.3521
  803MOL0     C10685  11.367   8.693   6.021  0.0310  0.0634 -0.8722
  803MOL0     C10686  11.456   8.586   5.952  0.2440 -0.1604  0.8037
  803MOL0     C10687  11.465   8.585   5.793 -0.4089  0.1633 -0.5135
  803MOL0     C10688  11.324   8.580   5.729 -0.5509 -0.1291 -1.0907
  803MOL0     C10689  11.339   8.518   5.591  0.4838 -0.0409 -0.5262
  803MOL0     C10690  11.439   8.590   5.502  0.5567  0.2473 -0.4109
  803MOL0     C10691  11.461   8.526   5.366  0.4050 -0.3954  0.6313
  803MOL0     C10692  11.588   8.572   5.284  0.7320 -0.6731  0.7540
  803MOL0     N10693  11.709   8.525   5.347  0.1344  0.2016  0.1176
  803MOL0     C10694  11.733   8.399   5.395 -0.0050  0.2913  0.3432
  803MOL0     C10695  11.861   8.382   5.432 -0.0570 -0.3717 -0.2632
  803MOL0     C10696  11.924   8.260   5.481  0.7993 -0.4645  0.8130
  803MOL0     C10697  12.047   8.296   5.576 -0.4930 -0.7978 -0.2228
  803MOL0     C10698  12.181   8.320   5.497 -0.3370 -0.8322  0.8011
  803MOL0     C10699  12.280   8.390   5.589  0.1884 -0.6657 -0.3456
  803MOL0     O10700  12.411   8.409   5.533 -0.0302  0.3802  0.1590
  803MOL0     C10701  12.502   8.466   5.616  0.5391 -1.0152  0.7222
  803MOL0     C10702  12.481   8.543   5.736 -1.0307 -0.4297  0.6112
  803MOL0     C10703  12.591   8.611   5.796  0.0042 -0.3450  0.1381
  803MOL0     C10704  12.554   8.724   5.891  0.2311  0.4654 -0.4516
  803MOL0     C10705  12.726   8.598   5.757  0.6084  0.1678  0.1521
  803MOL0     C10706  12.841   8.649   5.832  0.4130  0.0486  0.5518
  803MOL0     O10707  12.952   8.677   5.754  0.6411 -0.4515 -0.0746
  803MOL0     C10708  13.064   8.727   5.808  0.2375 -0.4436 -0.3644
  803MOL0     C10709  13.085   8.873   5.832 -0.2570  0.5629 -0.6680
  803MOL0     C10710  13.208   8.924   5.890 -0.0022 -0.2265  0.3794
  803MOL0     C10711  13.310   8.831   5.919 -0.3380  1.1784  0.0257
  803MOL0     O10712  13.431   8.862   5.977 -0.3184  0.6272  0.1222
  803MOL0     C10713  13.466   8.992   5.978  0.1145  0.1431 -0.2565
  803MOL0     C10714  13.399   9.062   6.098 -0.5001 -0.6573 -0.3230
  803MOL0     C10715  13.427   9.216   6.089  0.1148 -0.2827 -1.4177
  803MOL0     C10716  13.527   9.254   6.191  0.2208  0.4485 -0.1892
  803MOL0     C10717  13.584   9.395   6.175 -0.2063 -0.4000  0.0073
  803MOL0     C10718  13.660   9.404   6.038  0.1330 -0.0186 -0.1655
  803MOL0     C10719  13.742   9.532   6.023  0.0814  0.1597 -0.2613
  803MOL0     C10720  13.664   9.666   6.025  0.4835 -0.2403 -0.5332
  803MOL0    Cl10721  13.779   9.795   6.013 -0.2279  0.0662 -0.0629
  803MOL0     C10722  13.292   8.692   5.891  1.5595 -0.4094 -0.1441
  803MOL0     C10723  13.176   8.644   5.832  0.1730 -0.8229 -0.1794
  803MOL0     O10724  12.834   8.669   5.953 -0.4326  0.0720  0.0747
  803MOL0     C10725  12.745   8.513   5.646 -0.2368  0.7460 -0.5253
  803MOL0     C10726  12.637   8.459   5.575 -0.6852  0.3513  0.6186
  803MOL0     N10727  11.915   8.510   5.413 -0.4197 -0.4060  0.2517
  803MOL0     N10728  11.829   8.591   5.359  1.1743  0.0661  0.1511
  803MOL0     C10729  11.163   8.792   6.199  0.7065 -0.8740 -0.4282
  803MOL0     C10730  11.091   8.883   6.279 -0.1154 -0.3022  0.3089
  803MOL0     C10731  10.904   9.180   6.556 -0.0105 -0.9856  0.0278
  803MOL0     C10732  10.920   9.122   6.683 -0.2880  0.2842  0.3954
  803MOL0     C10733  10.835   9.164   6.781  0.6939 -0.1245  0.2747
  803MOL0     C10734  10.754   9.278   6.768  0.5610 -0.0907  0.3080
  803MOL0     O10735  10.672   9.312   6.877 -0.2557  0.3061  0.4591
  803MOL0     C10736  10.585   9.427   6.873 -0.3724  0.0509  0.3283
  803MOL0     C10737  10.667   9.560   6.882 -0.6286  0.3339 -1.0032
  803MOL0     C10738  10.766   9.558   7.005  0.1315  0.0509 -0.1961
  803MOL0     C10739  10.830   9.695   7.041  0.0626  0.4995 -0.1656
  803MOL0     C10740  10.727   9.774   7.102  0.6032  0.0264  0.3855
  803MOL0     C10741  10.645   9.845   7.143 -0.5264  0.2006  0.1361
  803MOL0     C10742  10.753   9.345   6.647  0.5473  0.5679 -0.5307
  803MOL0     C10743  10.822   9.300   6.538 -0.6066  0.0904  0.2484
  803MOL0     C10744  10.810   9.378   6.414  0.2828 -0.5993  0.4350
  803MOL0     H10745  11.309   8.922   6.539 -1.0366  1.0422 -0.0768
  803MOL0     H10746  11.430   8.740   6.394 -0.2200 -0.9703 -2.4138
  803MOL0     H10747  11.415   8.786   5.990 -1.4248  0.8287 -0.8829
  803MOL0     H10748  11.263   8.686   5.990 -1.0283 -2.0634  2.6075
  803MOL0     H10749  11.561   8.603   5.976  0.0903  2.0420  0.1695
  803MOL0     H10750  11.421   8.487   5.983 -0.4294 -0.9383 -2.0632
  803MOL0     H10751  11.524   8.668   5.753  0.0987 -0.2034 -0.5370
  803MOL0     H10752  11.528   8.502   5.761  1.8705  1.0764  1.2872
  803MOL0     H10753  11.258   8.515   5.787  1.9368 -2.9381 -1.1409
  803MOL0     H10754  11.291   8.684   5.729  2.0057  0.7985  1.4593
  803MOL0     H10755  11.235   8.507   5.559 -1.2940  2.2168  3.6282
  803MOL0     H10756  11.385   8.419   5.603  0.2860 -0.4328 -2.5979
  803MOL0     H10757  11.396   8.691   5.502 -0.5190 -0.1654 -2.3861
  803MOL0     H10758  11.536   8.601   5.552  1.2767  1.0946 -1.9183
  803MOL0     H10759  11.384   8.557   5.295  1.6435  2.8165  0.5260
  803MOL0     H10760  11.455   8.417   5.364  0.0899 -0.3786  0.6094
  803MOL0     H10761  11.574   8.543   5.180  0.6002  1.7458  0.0372
  803MOL0     H10762  11.582   8.681   5.279  0.7599 -0.5625  2.3736
  803MOL0     H10763  11.661   8.318   5.393 -0.3004  0.5635 -0.0855
  803MOL0     H10764  11.958   8.207   5.392 -2.8949 -0.0235 -1.0370
  803MOL0     H10765  11.849   8.200   5.532 -0.2401  1.8147  2.1660
  803MOL0     H10766  12.026   8.380   5.642  0.8291 -1.6746  1.4040
  803MOL0     H10767  12.066   8.205   5.634 -0.9041 -0.6637  0.1189
  803MOL0     H10768  12.216   8.219   5.474  2.2503  0.4545 -1.3737
  803MOL0     H10769  12.166   8.382   5.409 -0.0656  0.6189  1.7465
  803MOL0     H10770  12.237   8.488   5.614 -1.3371 -1.1187 -1.0851
  803MOL0     H10771  12.298   8.328   5.677  2.0179  0.9272  0.4818
  803MOL0     H10772  12.382   8.554   5.779 -1.5749 -1.5452 -0.2993
  803MOL0     H10773  12.626   8.806   5.879  0.6383  0.3492  0.9871
  803MOL0     H10774  12.542   8.690   5.994  3.2804  0.8914  0.1437
  803MOL0     H10775  12.449   8.749   5.872 -0.8488 -2.2133  1.4772
  803MOL0     H10776  13.003   8.939   5.808 -2.0102 -1.2605 -0.0414
  803MOL0     H10777  13.223   9.030   5.904 -2.0746  0.1225  0.2394
  803MOL0     H10778  13.574   8.999   5.991  0.5204 -3.7427 -0.5987
  803MOL0     H10779  13.441   9.044   5.885 -1.0720  0.4870  0.2331
  803MOL0     H10780  13.290   9.054   6.103 -0.8182  2.5822  0.2217
  803MOL0     H10781  13.447   9.012   6.182 -0.0821  1.6800  0.9143
  803MOL0     H10782  13.341   9.274   6.123 -1.1173 -3.4096  1.3997
  803MOL0     H10783  13.448   9.255   5.989  0.3886 -0.2868 -1.3637
  803MOL0     H10784  13.611   9.185   6.197  0.4973  0.8121  0.2545
  803MOL0     H10785  13.481   9.248   6.290  2.2008  2.3208  0.9311
  803MOL0     H10786  13.495   9.458   6.165  0.9920  1.1942 -1.1392
  803MOL0     H10787  13.645   9.412   6.265  0.2526 -4.0339  0.5439
  803MOL0     H10788  13.600   9.394   5.947 -1.7940 -0.7794  1.1252
  803MOL0     H10789  13.726   9.317   6.037 -1.3584 -1.2043  0.1780
  803MOL0     H10790  13.802   9.521   5.932 -2.8214 -2.9213 -2.0301
  803MOL0     H10791  13.809   9.541   6.108  1.3710 -0.9654 -1.1094
  803MOL0     H10792  13.598   9.680   6.111  0.2047  0.2218 -0.8175
  803MOL0     H10793  13.593   9.686   5.945 -1.7180  0.8789  1.5650
  803MOL0     H10794  13.371   8.618   5.897 -0.3878 -2.9756 -2.8974
  803MOL0     H10795  13.166   8.539   5.810  1.6189 -1.0436  0.1056
  803MOL0     H10796  12.844   8.506   5.601 -0.4348 -0.1373 -0.8422
  803MOL0     H10797  12.653   8.405   5.483 -0.9364  2.7217 -0.9128
  803MOL0     H10798  11.110   8.772   6.107 -1.4638  0.5443  0.4352
  803MOL0     H10799  10.995   8.914   6.238  0.5984  1.7125  0.0677
  803MOL0     H10800  10.977   9.031   6.701  0.3242  0.7376  0.7525
  803MOL0     H10801  10.838   9.122   6.881  1.4439  1.0995  0.7898
  803MOL0     H10802  10.524   9.437   6.783  1.6984  0.0649 -1.1316
  803MOL0     H10803  10.518   9.407   6.958  1.3518 -4.3538  0.8990
  803MOL0     H10804  10.603   9.649   6.889  1.4977  2.0845 -2.4332
  803MOL0     H10805  10.719   9.572   6.787 -0.8512 -1.1547 -1.3269
  803MOL0     H10806  10.704   9.522   7.087 -4.9575  4.1623 -1.6673
  803MOL0     H10807  10.847   9.487   6.986  1.3117  1.5514 -1.1074
  803MOL0     H10808  10.870   9.731   6.946  2.0982  0.6714  0.7111
  803MOL0     H10809  10.916   9.689   7.109  1.9939  0.1791 -2.5130
  803MOL0     H10810  10.575   9.914   7.185  0.0515  0.2426  1.0602
  803MOL0     H10811  10.677   9.422   6.637  1.2351  1.7004  2.0829
  803MOL0     H10812  10.740   9.461   6.432  0.3268 -0.9947  2.8920
  803MOL0     H10813  10.904   9.418   6.376 -0.5454  0.5462 -0.4770
  803MOL0     H10814  10.767   9.309   6.341 -0.8394 -1.0565  1.4771
  804MOL0     O10815   9.452   8.854   1.311 -0.0683 -0.5003  0.8588
  804MOL0     C10816   9.454   8.741   1.267  0.4369 -0.0276  0.2396
  804MOL0     O10817   9.551   8.684   1.186 -0.4731 -0.3997 -0.0410
  804MOL0     C10818   9.655   8.767   1.148 -0.2055 -0.7461 -0.4848
  804MOL0     C10819   9.637   8.906   1.096  0.9200 -0.5505 -0.0587
  804MOL0     C10820   9.745   8.987   1.088  0.0590  0.0401 -0.2939
  804MOL0     C10821   9.869   8.952   1.130 -0.1347  0.1663 -0.0146
  804MOL0     O10822   9.968   9.047   1.120  0.3283 -0.4150  0.1061
  804MOL0     C10823  10.091   9.050   1.193  0.4559  0.2043  0.2291
  804MOL0     C10824  10.183   9.163   1.146 -0.7222 -0.2310  0.4128
  804MOL0     C10825  10.318   9.149   1.225 -0.2697  0.1331  0.7609
  804MOL0     C10826  10.382   9.287   1.203  0.1302  0.4955  0.0632
  804MOL0     C10827  10.513   9.292   1.284  0.2594 -0.0835  0.0926
  804MOL0     C10828  10.611   9.403   1.235 -0.7196  0.2882 -0.0757
  804MOL0     C10829  10.741   9.383   1.314 -0.1312 -0.4764 -0.0514
  804MOL0     C10830  10.842   9.494   1.270 -0.0972 -0.0066 -1.3572
  804MOL0     N10831  10.971   9.492   1.342  0.0969 -0.1232  0.0013
  804MOL0     C10832  10.989   9.550   1.464  0.1329 -0.2661 -0.6469
  804MOL0     C10833  11.121   9.530   1.486 -0.1697 -0.1081 -0.5127
  804MOL0     C10834  11.191   9.571   1.618  0.6187  0.3535  0.2293
  804MOL0     C10835  11.347   9.577   1.610 -0.6796  0.3555  0.1512
  804MOL0     C10836  11.424   9.438   1.578  0.7673 -0.1046 -0.0582
  804MOL0     C10837  11.576   9.438   1.580  0.2544  0.8365 -0.9641
  804MOL0     O10838  11.617   9.558   1.516  0.8009 -0.6482  0.2669
  804MOL0     C10839  11.749   9.592   1.502  0.0070 -0.1770 -0.1143
  804MOL0     C10840  11.780   9.713   1.443 -0.1137  0.1627  0.1591
  804MOL0     C10841  11.907   9.760   1.423  0.2328  0.6364  0.1184
  804MOL0     C10842  11.930   9.883   1.343  0.2360 -0.0360  0.2375
  804MOL0     C10843  12.016   9.687   1.477  0.0648 -0.3463 -1.2660
  804MOL0     C10844  12.166   9.720   1.452 -0.1709  0.2884 -0.6963
  804MOL0     O10845  12.260   9.640   1.515 -0.0985 -0.3109 -0.3703
  804MOL0     C10846  12.390   9.659   1.498 -0.3395 -0.5424  0.1389
  804MOL0     C10847  12.442   9.788   1.536  0.2644  0.3444  0.1503
  804MOL0     C10848  12.578   9.808   1.543  1.4175  0.3220  0.0744
  804MOL0     C10849  12.665   9.716   1.488 -0.2034  0.3153  0.3517
  804MOL0     O10850  12.802   9.745   1.462 -0.4320  0.2124 -0.3674
  804MOL0     C10851  12.855   9.851   1.537 -0.9281 -0.2420  0.4379
  804MOL0     C10852  13.005   9.827   1.560  0.6676  0.2744 -0.4529
  804MOL0     C10853  13.072   9.932   1.656  0.1278 -0.1728  0.6069
  804MOL0     C10854  13.220   9.902   1.685  0.3681  0.4736  0.4150
  804MOL0     C10855  13.248   9.765   1.755  0.2904 -0.6662  0.4828
  804MOL0     C10856  13.386   9.751   1.810 -0.4827 -1.0364 -0.2835
  804MOL0     C10857  13.375   9.815   1.946 -0.7689  0.0870 -0.1088
  804MOL0     C10858  13.517   9.865   1.998  0.6266  0.7030  0.3688
  804MOL0    Cl10859  13.622   9.741   1.995  0.0309  0.0288 -0.1125
  804MOL0     C10860  12.621   9.600   1.437  0.0123  0.2305  0.2316
  804MOL0     C10861  12.487   9.568   1.450  0.8287  0.1464  0.1594
  804MOL0     O10862  12.195   9.812   1.380 -0.4566  0.5989 -0.7780
  804MOL0     C10863  11.985   9.568   1.555 -0.0951 -0.4436 -0.1348
  804MOL0     C10864  11.852   9.525   1.569 -0.0608 -0.0677 -0.8137
  804MOL0     N10865  11.170   9.456   1.381 -0.4174  0.3660 -0.5638
  804MOL0     N10866  11.086   9.447   1.292  0.3845  0.2304 -0.5181
  804MOL0     C10867   9.888   8.828   1.187 -0.4426  0.1224 -0.6365
  804MOL0     C10868   9.786   8.734   1.199  0.1942 -0.1115  0.5533
  804MOL0     C10869   9.355   8.650   1.319  0.7067 -0.9115 -0.4928
  804MOL0     C10870   9.408   8.548   1.399  0.4427 -0.0724  0.6016
  804MOL0     C10871   9.320   8.465   1.467  0.5728  0.0236 -0.0375
  804MOL0     C10872   9.178   8.489   1.462  0.0472  0.3128 -0.2315
  804MOL0     O10873   9.108   8.389   1.531 -0.6576 -0.3862 -0.5762
  804MOL0     C10874   8.974   8.388   1.503  0.6190 -0.3062  0.4277
  804MOL0     C10875   8.901   8.284   1.590 -0.2525 -0.1709 -0.3260
  804MOL0     C10876   8.949   8.139   1.574  0.4151  0.2255 -0.4182
  804MOL0     C10877   8.878   8.039   1.663  0.8839  0.7990  0.1449
  804MOL0     C10878   8.763   7.995   1.601 -0.5127  0.0887  0.4494
  804MOL0     C10879   8.657   7.961   1.547  0.1989 -0.2162  0.0218
  804MOL0     C10880   9.126   8.591   1.382 -0.7010  0.9260  0.2499
  804MOL0     C10881   9.215   8.675   1.309 -0.7833 -0.7748  0.0483
  804MOL0     C10882   9.164   8.783   1.222  0.3118  0.5995  0.0307
  804MOL0     H10883   9.542   8.950   1.069  0.6044 -1.5098 -0.5630
  804MOL0     H10884   9.738   9.089   1.052 -1.1298  0.9764  2.3064
  804MOL0     H10885  10.143   8.954   1.189 -1.0282 -0.6639  1.0793
  804MOL0     H10886  10.067   9.070   1.298 -0.5587  0.0226  0.0394
  804MOL0     H10887  10.201   9.149   1.039 -0.3356  0.1211  0.4293
  804MOL0     H10888  10.138   9.262   1.156  0.0448  0.1384  0.3008
  804MOL0     H10889  10.305   9.138   1.333  0.5198 -0.2196  0.8262
  804MOL0     H10890  10.385   9.070   1.190  2.1464  0.5933  3.8606
  804MOL0     H10891  10.400   9.302   1.096  1.3127  1.0573  0.3256
  804MOL0     H10892  10.313   9.363   1.240  2.2095  0.5695  4.3842
  804MOL0     H10893  10.566   9.197   1.271  1.8839  0.9609 -1.4916
  804MOL0     H10894  10.494   9.306   1.391 -0.9399 -2.7143  0.3117
  804MOL0     H10895  10.616   9.419   1.126  0.9901 -0.9106 -0.2236
  804MOL0     H10896  10.576   9.501   1.267  0.4176  1.7347 -2.8746
  804MOL0     H10897  10.789   9.285   1.297  0.5577 -0.2949  0.7568
  804MOL0     H10898  10.714   9.398   1.419  1.1837 -2.4749  0.6570
  804MOL0     H10899  10.880   9.471   1.170  2.5127 -2.5125  0.0379
  804MOL0     H10900  10.808   9.597   1.278  0.2148 -0.0247  0.7638
  804MOL0     H10901  10.929   9.613   1.529  1.2629  1.4223 -1.1448
  804MOL0     H10902  11.164   9.484   1.678 -2.5619  0.0128 -1.4721
  804MOL0     H10903  11.143   9.660   1.660 -1.5693 -0.6342 -0.0249
  804MOL0     H10904  11.367   9.664   1.546 -0.6139  0.1189 -0.1469
  804MOL0     H10905  11.379   9.617   1.707 -2.2743 -4.0315  2.7423
  804MOL0     H10906  11.392   9.359   1.646  3.2125 -0.0633  1.2450
  804MOL0     H10907  11.409   9.414   1.472  2.8643 -2.3632  0.0591
  804MOL0     H10908  11.611   9.431   1.683 -0.9523 -0.4905 -0.6045
  804MOL0     H10909  11.623   9.348   1.539 -1.1957 -0.6157  0.3959
  804MOL0     H10910  11.694   9.773   1.416 -1.2878 -1.2859  0.5722
  804MOL0     H10911  11.986   9.958   1.399  0.2892  0.2028 -0.1289
  804MOL0     H10912  11.840   9.943   1.327 -0.2149 -1.1767 -1.8685
  804MOL0     H10913  11.981   9.869   1.247 -0.5703 -1.8027  0.0155
  804MOL0     H10914  12.380   9.875   1.556  2.2354  1.8387  0.0934
  804MOL0     H10915  12.613   9.906   1.575  2.0914 -0.1820  0.9368
  804MOL0     H10916  12.827   9.947   1.491  1.4582  0.1596 -0.3224
  804MOL0     H10917  12.813   9.856   1.638 -0.4132  1.7474  0.6044
  804MOL0     H10918  13.022   9.730   1.607 -0.8707  1.5607  3.2243
  804MOL0     H10919  13.054   9.827   1.462 -1.7935  1.0466 -1.7621
  804MOL0     H10920  13.020   9.929   1.752 -1.4580 -1.8237 -0.2565
  804MOL0     H10921  13.065  10.028   1.604 -1.1519  0.2231  1.4506
  804MOL0     H10922  13.258   9.988   1.740 -0.0592  0.5815  0.5486
  804MOL0     H10923  13.275   9.897   1.590 -0.1325 -0.6690  0.1721
  804MOL0     H10924  13.175   9.747   1.835  0.6362 -2.8139  0.3628
  804MOL0     H10925  13.240   9.683   1.683 -3.3449 -0.3903  0.3853
  804MOL0     H10926  13.452   9.807   1.743 -0.3624  1.2434  1.6256
  804MOL0     H10927  13.417   9.647   1.824 -1.5412 -1.4560 -0.9216
  804MOL0     H10928  13.333   9.756   2.028  0.2242 -1.5016 -0.6891
  804MOL0     H10929  13.312   9.904   1.944 -2.0200 -0.7792 -0.4421
  804MOL0     H10930  13.504   9.906   2.099  2.1166 -1.1735  1.3777
  804MOL0     H10931  13.553   9.945   1.933 -0.0533 -0.2493 -1.2434
  804MOL0     H10932  12.694   9.530   1.396 -0.9074 -1.1236  0.8232
  804MOL0     H10933  12.458   9.465   1.428 -0.1324  0.3349  0.4931
  804MOL0     H10934  12.058   9.504   1.604 -2.4353 -2.1420  1.3293
  804MOL0     H10935  11.839   9.429   1.619 -1.4556 -0.7354 -2.3592
  804MOL0     H10936   9.986   8.803   1.227  0.1185  1.2519 -1.2609
  804MOL0     H10937   9.824   8.645   1.248 -0.9165 -1.0336 -0.2058
  804MOL0     H10938   9.515   8.529   1.395  0.2145 -1.3679 -2.5342
  804MOL0     H10939   9.355   8.386   1.532  0.5277 -0.9304 -1.1430
  804MOL0     H10940   8.930   8.486   1.525 -0.7341 -0.8552  0.2686
  804MOL0     H10941   8.954   8.364   1.399 -2.7564 -0.1618  0.9372
  804MOL0     H10942   8.794   8.294   1.568 -0.8421 -0.6220  2.0842
  804MOL0     H10943   8.912   8.318   1.693  0.8652  2.5280 -1.2447
  804MOL0     H10944   8.936   8.095   1.475 -2.9135  1.0288 -0.4614
  804MOL0     H10945   9.052   8.129   1.609 -0.1595 -1.2383  0.9748
  804MOL0     H10946   8.858   8.078   1.763 -0.9952 -0.3108  0.2586
  804MOL0     H10947   8.940   7.951   1.681  0.3219  0.8689  2.8458
  804MOL0     H10948   8.573   7.933   1.487 -1.6458  0.9490  1.9116
  804MOL0     H10949   9.019   8.604   1.379 -0.7021  1.1823  1.1724
  804MOL0     H10950   9.142   8.878   1.272  0.6542  0.6903  0.0142
  804MOL0     H10951   9.228   8.800   1.134 -0.0727 -0.9635 -0.5783
  804MOL0     H10952   9.069   8.745   1.185 -0.3252 -0.6958  2.7811
  805MOL0     O10953   9.724   4.862   9.699 -0.1346 -0.5813 -0.0499
  805MOL0     C10954   9.732   4.973   9.648 -0.5495 -0.5330 -0.4325
  805MOL0     O10955   9.828   5.065   9.675  0.7780  0.4456 -0.8748
  805MOL0     C10956   9.959   5.037   9.713  0.1455 -0.3131 -0.4551
  805MOL0     C10957  10.026   5.146   9.776  0.0588 -0.7158 -0.0590
  805MOL0     C10958  10.165   5.135   9.802  0.5356 -0.2735  0.3362
  805MOL0     C10959  10.235   5.021   9.777  0.0126  0.4236 -0.5400
  805MOL0     O10960  10.370   4.996   9.790 -0.3343  0.2378 -0.2264
  805MOL0     C10961  10.449   5.096   9.853 -0.0402  0.2243 -0.1626
  805MOL0     C10962  10.588   5.058   9.900  0.4249  0.3713 -0.3455
  805MOL0     C10963  10.683   5.177   9.926 -0.2518 -0.5878  0.0811
  805MOL0     C10964  10.827   5.136   9.964 -0.0160 -0.1230 -0.3827
  805MOL0     C10965  10.915   5.051   9.867 -0.5388  0.1576  0.3379
  805MOL0     C10966  10.938   5.118   9.726 -0.7473  0.6297 -0.5154
  805MOL0     C10967  11.059   5.047   9.651 -0.0011 -0.3773 -0.5277
  805MOL0     C10968  11.049   4.896   9.632  0.5467  0.2215  0.7152
  805MOL0     N10969  11.138   4.846   9.521  0.0862 -0.4470  0.6361
  805MOL0     C10970  11.103   4.790   9.402 -0.0821 -0.5920  0.0791
  805MOL0     C10971  11.218   4.739   9.353 -0.1111  0.5594  0.4082
  805MOL0     C10972  11.225   4.673   9.210 -0.5334 -0.2580 -0.1615
  805MOL0     C10973  11.219   4.788   9.105 -0.5130  0.5733 -0.1713
  805MOL0     C10974  11.332   4.897   9.114  1.1880  1.1113 -0.2123
  805MOL0     C10975  11.471   4.843   9.142 -0.8510  0.2140 -0.1631
  805MOL0     O10976  11.500   4.767   9.030  0.0275  0.0029  0.8758
  805MOL0     C10977  11.629   4.729   9.002 -0.7892  0.6425 -0.2164
  805MOL0     C10978  11.669   4.722   8.874  0.3582 -0.3711  0.8691
  805MOL0     C10979  11.805   4.711   8.835  0.5230 -0.5053  0.5756
  805MOL0     C10980  11.838   4.730   8.687 -0.2005 -0.4319 -0.2291
  805MOL0     C10981  11.900   4.691   8.937  0.1161 -0.8882  0.7419
  805MOL0     C10982  12.037   4.645   8.907 -0.4972  0.5110  0.1892
  805MOL0     O10983  12.133   4.661   9.006  0.1718  0.4309  0.6206
  805MOL0     C10984  12.262   4.626   8.970  0.7839  0.5308 -0.1930
  805MOL0     C10985  12.361   4.718   8.978  0.2840 -0.2143 -0.4738
  805MOL0     C10986  12.491   4.697   8.936  0.5429  0.6558  0.1678
  805MOL0     C10987  12.527   4.562   8.904  0.0976 -0.0309  0.8557
  805MOL0     O10988  12.664   4.529   8.878  0.6225 -0.4341 -0.5844
  805MOL0     C10989  12.766   4.614   8.927 -0.2200 -0.0739  0.1064
  805MOL0     C10990  12.897   4.528   8.927  1.0639 -0.7565  0.8027
  805MOL0     C10991  12.982   4.550   9.044 -0.4405  0.1584 -0.1535
  805MOL0     C10992  13.115   4.460   9.039 -0.1670  0.8805 -0.4591
  805MOL0     C10993  13.177   4.467   9.182  0.5429 -0.3917 -0.6516
  805MOL0     C10994  13.283   4.364   9.204  0.4932 -0.5514 -0.4214
  805MOL0     C10995  13.333   4.377   9.348  0.0444  0.8248  0.0029
  805MOL0     C10996  13.440   4.272   9.365  0.1363 -0.1849 -0.6178
  805MOL0    Cl10997  13.587   4.318   9.276 -0.0344 -0.0455 -0.3977
  805MOL0     C10998  12.429   4.457   8.898  0.3534 -1.0604 -0.3233
  805MOL0     C10999  12.295   4.489   8.933 -0.4920 -0.7083  0.2462
  805MOL0     O11000  12.062   4.592   8.803  0.2458  0.4746  0.0844
  805MOL0     C11001  11.861   4.700   9.069 -0.1549 -0.0168 -0.2372
  805MOL0     C11002  11.726   4.721   9.105 -0.0333 -0.3222 -0.4643
  805MOL0     N11003  11.321   4.775   9.432 -0.1902 -0.4969  0.6501
  805MOL0     N11004  11.270   4.829   9.535 -0.5033 -0.6326 -0.4944
  805MOL0     C11005  10.164   4.911   9.727  0.2054 -0.6725 -0.9433
  805MOL0     C11006  10.028   4.921   9.692 -0.3001  1.0460  0.3619
  805MOL0     C11007   9.622   5.009   9.569 -0.5889 -0.3272  0.4001
  805MOL0     C11008   9.624   4.980   9.432 -0.0175 -0.4586 -0.0580
  805MOL0     C11009   9.510   5.011   9.355 -1.4987 -0.2186 -0.3838
  805MOL0     C11010   9.402   5.077   9.410  0.4968 -0.7347  0.1977
  805MOL0     O11011   9.290   5.090   9.326 -0.7478 -0.2603  0.3023
  805MOL0     C11012   9.191   5.180   9.366  0.3963  0.2816  0.0603
  805MOL0     C11013   9.093   5.203   9.240 -0.6848 -0.4302 -0.0558
  805MOL0     C11014   8.968   5.295   9.266 -0.3583 -0.6840  0.5308
  805MOL0     C11015   8.906   5.337   9.136  0.0888  0.2133 -0.3113
  805MOL0     C11016   8.797   5.437   9.132 -0.3769  1.0523  0.1078
  805MOL0     C11017   8.724   5.523   9.123 -0.0612 -0.3425 -0.0480
  805MOL0     C11018   9.406   5.116   9.549  0.0517  0.1194 -0.0264
  805MOL0     C11019   9.517   5.080   9.623 -0.0336 -0.7303 -0.0056
  805MOL0     C11020   9.516   5.122   9.772  0.9310 -0.1855 -0.9258
  805MOL0     H11021   9.972   5.232   9.814 -0.4715 -1.9988  2.2608
  805MOL0     H11022  10.203   5.215   9.864 -1.5995  0.2138  1.1359
  805MOL0     H11023  10.397   5.141   9.938  1.7337  1.3413  0.3888
  805MOL0     H11024  10.457   5.174   9.776 -1.3753  1.1684  0.6031
  805MOL0     H11025  10.571   5.007   9.996 -1.9751  0.8328 -0.4579
  805MOL0     H11026  10.632   4.991   9.826 -0.4500 -0.4295 -0.1683
  805MOL0     H11027  10.688   5.235   9.833 -3.8630 -0.1227  0.0344
  805MOL0     H11028  10.632   5.237  10.002 -0.1262 -1.0972  0.5718
  805MOL0     H11029  10.891   5.224   9.981 -2.3698  1.4312  0.9962
  805MOL0     H11030  10.829   5.091  10.064 -2.6506  0.4672 -0.0032
  805MOL0     H11031  10.869   4.953   9.853 -0.6604  0.5143 -2.4686
  805MOL0     H11032  11.008   5.027   9.919 -0.4597 -0.4840 -0.0862
  805MOL0     H11033  10.847   5.121   9.667 -1.6202 -1.4175  0.5849
  805MOL0     H11034  10.962   5.224   9.740 -0.5440  0.9660 -3.0493
  805MOL0     H11035  11.156   5.063   9.700 -0.4581 -2.0807  1.0639
  805MOL0     H11036  11.067   5.094   9.553 -0.7844  2.0184  0.4812
  805MOL0     H11037  11.078   4.852   9.728 -0.9746  0.7603  1.4636
  805MOL0     H11038  10.944   4.876   9.612  0.0523  1.5029  1.8700
  805MOL0     H11039  11.004   4.773   9.361  1.0136  1.5941 -3.9672
  805MOL0     H11040  11.135   4.612   9.199 -0.1921 -0.8220  0.1104
  805MOL0     H11041  11.314   4.610   9.201  0.2135  0.2751  2.6551
  805MOL0     H11042  11.228   4.745   9.004 -2.8283 -1.0266  0.2128
  805MOL0     H11043  11.117   4.826   9.105 -0.8538 -0.2968  0.2505
  805MOL0     H11044  11.333   4.955   9.021 -1.0444  2.6269  0.6434
  805MOL0     H11045  11.303   4.965   9.194 -1.1628 -2.4771  2.2862
  805MOL0     H11046  11.540   4.925   9.160  0.6274 -1.0981  0.3250
  805MOL0     H11047  11.470   4.785   9.235 -1.5195  0.0595 -0.2552
  805MOL0     H11048  11.589   4.731   8.802  0.7370  4.1636  0.7134
  805MOL0     H11049  11.805   4.638   8.638 -0.3611  0.1425 -1.2318
  805MOL0     H11050  11.945   4.744   8.670 -0.2855  1.0760  0.3792
  805MOL0     H11051  11.784   4.818   8.651  0.0003 -1.1486 -2.4515
  805MOL0     H11052  12.329   4.815   9.016 -0.9442 -1.3493  1.6339
  805MOL0     H11053  12.567   4.775   8.939  0.8169  0.3991 -0.0636
  805MOL0     H11054  12.802   4.700   8.870  1.8706 -0.2250  1.1191
  805MOL0     H11055  12.747   4.657   9.025 -2.1421 -0.6107  0.0167
  805MOL0     H11056  12.866   4.424   8.927 -3.1443  0.2906 -0.7891
  805MOL0     H11057  12.947   4.544   8.830  1.4024 -0.9083  0.9511
  805MOL0     H11058  12.928   4.533   9.137  0.0673 -0.7973 -0.0247
  805MOL0     H11059  13.011   4.655   9.031 -3.7526  1.0740 -0.9278
  805MOL0     H11060  13.180   4.489   8.956 -0.1428  0.3680 -0.6269
  805MOL0     H11061  13.079   4.358   9.018 -1.6940  1.2047  0.4122
  805MOL0     H11062  13.223   4.566   9.190 -0.5713  0.0170  1.4682
  805MOL0     H11063  13.104   4.454   9.263 -0.3001 -2.2800 -1.6643
  805MOL0     H11064  13.372   4.378   9.142  1.2091  2.7965  1.1518
  805MOL0     H11065  13.239   4.267   9.180 -2.0920 -0.0463  1.7452
  805MOL0     H11066  13.251   4.371   9.420 -0.6135 -0.8842 -0.8589
  805MOL0     H11067  13.382   4.475   9.360 -0.6776  1.0533  1.2267
  805MOL0     H11068  13.401   4.174   9.333 -0.9069  0.2255 -0.6419
  805MOL0     H11069  13.461   4.259   9.471 -1.3836 -1.3400 -0.4151
  805MOL0     H11070  12.450   4.355   8.869  0.6482 -1.0551 -0.1268
  805MOL0     H11071  12.204   4.429   8.936 -3.0661  2.9172  1.6513
  805MOL0     H11072  11.931   4.690   9.151 -2.8138 -2.7608  1.9339
  805MOL0     H11073  11.685   4.720   9.206  0.4274  1.1171 -0.2454
  805MOL0     H11074  10.209   4.813   9.724  4.1341  0.9785 -1.9162
  805MOL0     H11075   9.975   4.841   9.641  0.1833  1.0250 -0.1184
  805MOL0     H11076   9.707   4.923   9.393 -0.0066  1.1756 -2.6637
  805MOL0     H11077   9.530   4.972   9.256 -0.1941 -4.1936  1.2387
  805MOL0     H11078   9.133   5.146   9.453 -1.2014 -0.5760 -1.2698
  805MOL0     H11079   9.229   5.277   9.398 -1.2159  0.8905  0.1993
  805MOL0     H11080   9.056   5.111   9.194  0.6610 -0.9482 -0.1331
  805MOL0     H11081   9.157   5.260   9.171 -0.2857  0.9545  1.3946
  805MOL0     H11082   8.898   5.258   9.341 -2.1507  0.4375 -0.5222
  805MOL0     H11083   9.001   5.390   9.308  0.4497 -0.6608 -0.1292
  805MOL0     H11084   8.878   5.254   9.070 -0.2274 -1.4697  1.8376
  805MOL0     H11085   8.995   5.388   9.099  1.4047  0.0735  2.3910
  805MOL0     H11086   8.657   5.607   9.130 -0.0540 -0.2807 -0.7186
  805MOL0     H11087   9.318   5.160   9.593  0.7237 -0.7342  2.3169
  805MOL0     H11088   9.594   5.193   9.801  0.9961  0.2371 -2.0765
  805MOL0     H11089   9.420   5.167   9.801 -0.2460 -2.7732 -0.5306
  805MOL0     H11090   9.524   5.026   9.823  2.5060 -1.4347 -3.3253
  806MOL0     O11091  10.067   9.952   8.838 -0.3746  0.5865 -0.4894
  806MOL0     C11092  10.132   9.943   8.733 -0.0896 -0.3229  0.1284
  806MOL0     O11093  10.083   9.965   8.606 -0.5420  0.3697  0.0408
  806MOL0     C11094   9.951   9.947   8.590  0.5724  0.2313 -0.1033
  806MOL0     C11095   9.900   9.825   8.542  0.1302  0.4610 -0.8114
  806MOL0     C11096   9.764   9.806   8.526  0.0565  0.0646 -0.3863
  806MOL0     C11097   9.676   9.911   8.551  0.8156  0.2759  0.8399
  806MOL0     O11098   9.547   9.869   8.537 -0.1230 -0.5637  0.3531
  806MOL0     C11099   9.463   9.962   8.470  0.0588 -0.0630 -0.6660
  806MOL0     C11100   9.356   9.883   8.396  0.1612 -0.4218  0.0331
  806MOL0     C11101   9.238   9.829   8.485  0.1323 -1.0485  0.1557
  806MOL0     C11102   9.168   9.723   8.407  0.1574  0.2202 -0.3750
  806MOL0     C11103   9.082   9.762   8.287  0.8390 -0.2350 -0.2707
  806MOL0     C11104   9.031   9.634   8.227  0.0471 -0.4587  0.5996
  806MOL0     C11105   8.926   9.668   8.122 -0.2373  0.5115 -0.2402
  806MOL0     C11106   8.884   9.553   8.034  0.2603  0.1466 -0.2572
  806MOL0     N11107   8.782   9.475   8.106 -0.3936  0.1751  0.6560
  806MOL0     C11108   8.651   9.514   8.129  0.5573 -0.5086  0.2894
  806MOL0     C11109   8.607   9.406   8.204 -0.4139 -0.2300  0.0811
  806MOL0     C11110   8.461   9.394   8.253 -1.2480  0.0293 -0.0015
  806MOL0     C11111   8.364   9.417   8.141 -0.2018 -0.5419 -0.3497
  806MOL0     C11112   8.340   9.306   8.040 -0.7032 -0.5365 -0.6686
  806MOL0     C11113   8.442   9.307   7.924 -0.3926  0.2472  0.3064
  806MOL0     O11114   8.416   9.423   7.848  0.2045 -0.4139 -0.3437
  806MOL0     C11115   8.518   9.462   7.764  0.0497 -0.0691 -0.2326
  806MOL0     C11116   8.514   9.593   7.714  0.1267 -0.1207 -0.7236
  806MOL0     C11117   8.627   9.651   7.654 -0.5271  0.7907  0.7175
  806MOL0     C11118   8.622   9.792   7.613 -0.4285  0.0389  0.6245
  806MOL0     C11119   8.753   9.576   7.640 -0.1420  0.6592 -0.0670
  806MOL0     C11120   8.887   9.623   7.586 -0.1771 -0.1102 -0.4160
  806MOL0     O11121   9.001   9.552   7.618  0.4933 -0.2295  0.5638
  806MOL0     C11122   9.126   9.607   7.591 -0.3809 -0.8258  0.5664
  806MOL0     C11123   9.159   9.745   7.609  0.5790 -0.0289  0.0816
  806MOL0     C11124   9.291   9.784   7.574 -0.0710  0.0873  0.9269
  806MOL0     C11125   9.383   9.703   7.511 -0.5265  0.3867  0.2773
  806MOL0     O11126   9.516   9.744   7.477  0.2506 -0.0556 -0.5130
  806MOL0     C11127   9.628   9.659   7.518  0.1324 -0.3462 -0.4372
  806MOL0     C11128   9.749   9.740   7.545 -0.6606  0.0227  0.6225
  806MOL0     C11129   9.807   9.809   7.422 -0.8610 -0.0252  0.6432
  806MOL0     C11130   9.941   9.881   7.435 -0.3704 -0.1946  0.0113
  806MOL0     C11131  10.069   9.791   7.450 -0.3965 -0.5901  0.6446
  806MOL0     C11132  10.204   9.868   7.475  0.0229  0.1775 -0.5748
  806MOL0     C11133  10.323   9.778   7.465 -0.1254  0.0014  0.0628
  806MOL0     C11134  10.460   9.839   7.509 -0.0943  0.4049  0.2788
  806MOL0    Cl11135  10.476   9.987   7.411 -0.1555 -0.0506 -0.2771
  806MOL0     C11136   9.348   9.565   7.496 -0.1526 -0.2921 -0.4081
  806MOL0     C11137   9.231   9.516   7.548  0.2008 -0.1085 -0.6384
  806MOL0     O11138   8.888   9.723   7.510  0.4208  0.0241 -0.2888
  806MOL0     C11139   8.750   9.436   7.685 -0.1328  0.5203 -0.1410
  806MOL0     C11140   8.633   9.387   7.736 -0.1349  0.5683  0.4273
  806MOL0     N11141   8.715   9.328   8.242 -0.2093 -0.0050  0.6755
  806MOL0     N11142   8.824   9.365   8.184  0.4260  0.1308 -1.1550
  806MOL0     C11143   9.720  10.032   8.596 -0.1979 -0.0543 -1.1236
  806MOL0     C11144   9.860  10.050   8.611  0.4358  0.7888  0.5435
  806MOL0     C11145  10.276   9.941   8.752 -0.0463 -0.4581  0.8324
  806MOL0     C11146  10.329  10.008   8.860 -1.1260  0.2761  0.1381
  806MOL0     C11147  10.466  10.003   8.886  0.0204 -0.0604  0.3052
  806MOL0     C11148  10.548   9.928   8.811  0.8055 -0.3008 -0.1383
  806MOL0     O11149  10.685   9.930   8.840  0.3225 -0.5043  0.1834
  806MOL0     C11150  10.717   9.887   8.972 -1.0253  0.5569  0.1086
  806MOL0     C11151  10.872   9.866   8.988  0.2106 -0.7383 -0.1939
  806MOL0     C11152  10.891   9.822   9.139 -0.4101  0.0983 -0.4626
  806MOL0     C11153  11.038   9.819   9.185  0.0983  0.5811  0.0355
  806MOL0     C11154  11.095   9.957   9.188 -0.0407 -0.0995  0.2279
  806MOL0     C11155  11.142  10.065   9.205 -0.4840 -0.0732 -0.0314
  806MOL0     C11156  10.496   9.866   8.702  0.7126  0.2971  0.2195
  806MOL0     C11157  10.361   9.861   8.672 -0.4149 -0.0516 -0.4476
  806MOL0     C11158  10.304   9.785   8.548 -0.4211  0.3917  0.0835
  806MOL0     H11159   9.948   9.732   8.514  0.1164  0.6492 -1.4773
  806MOL0     H11160   9.727   9.710   8.490  1.5036  0.6313 -3.7343
  806MOL0     H11161   9.523  10.023   8.401 -0.6903  1.4523 -0.0370
  806MOL0     H11162   9.418  10.031   8.542  1.0363  0.5983 -0.6674
  806MOL0     H11163   9.311   9.950   8.323  1.9212 -0.0546 -0.7700
  806MOL0     H11164   9.413   9.806   8.343 -1.2602 -0.0642 -2.1666
  806MOL0     H11165   9.288   9.778   8.568  1.0319 -1.6626 -0.7338
  806MOL0     H11166   9.167   9.909   8.508 -2.5274 -3.7046  1.9683
  806MOL0     H11167   9.239   9.653   8.362 -1.2084 -1.0254 -0.6480
  806MOL0     H11168   9.111   9.669   8.484  0.0947  2.0348  0.9221
  806MOL0     H11169   9.144   9.801   8.206  3.7916 -2.0740  0.9388
  806MOL0     H11170   9.005   9.835   8.312  1.5657 -0.4320  3.1091
  806MOL0     H11171   9.120   9.586   8.186  0.1191 -0.9833  1.3658
  806MOL0     H11172   8.982   9.575   8.304 -2.3019  0.9555  0.3043
  806MOL0     H11173   8.967   9.745   8.055  0.0013  2.0421  1.5857
  806MOL0     H11174   8.843   9.710   8.179 -0.6690  2.9335 -2.4616
  806MOL0     H11175   8.842   9.580   7.937  1.4898 -1.8309 -1.4067
  806MOL0     H11176   8.970   9.493   8.004  1.6114  2.3419 -0.9944
  806MOL0     H11177   8.606   9.604   8.089  3.3262  0.9772  0.2719
  806MOL0     H11178   8.448   9.482   8.317 -0.0091  0.5863 -0.4830
  806MOL0     H11179   8.453   9.303   8.313  1.1770  0.1049  0.5388
  806MOL0     H11180   8.266   9.431   8.187  1.2684  0.5534  2.6976
  806MOL0     H11181   8.385   9.512   8.090 -3.5918  0.1358 -0.7542
  806MOL0     H11182   8.347   9.210   8.092  1.6510 -0.5523 -0.8951
  806MOL0     H11183   8.242   9.318   7.993  0.0473  2.0495 -1.7299
  806MOL0     H11184   8.542   9.305   7.968  0.8298 -1.5403 -2.3453
  806MOL0     H11185   8.433   9.223   7.854  1.7770 -0.2565  0.5676
  806MOL0     H11186   8.426   9.653   7.735  0.8115  0.6776 -0.0555
  806MOL0     H11187   8.705   9.853   7.650  0.0827 -0.8395  0.9507
  806MOL0     H11188   8.522   9.823   7.644 -1.8242 -1.7852 -1.6935
  806MOL0     H11189   8.627   9.797   7.504 -1.0442  1.1719  0.6247
  806MOL0     H11190   9.090   9.821   7.646  1.2138  0.6328 -0.0908
  806MOL0     H11191   9.312   9.889   7.562  0.5904 -0.3359 -2.8711
  806MOL0     H11192   9.599   9.605   7.609 -2.6417 -0.8544 -1.5393
  806MOL0     H11193   9.645   9.582   7.443  0.4903 -0.9618  0.2675
  806MOL0     H11194   9.721   9.826   7.606 -0.0791  1.5235 -1.1121
  806MOL0     H11195   9.831   9.684   7.592 -0.7987 -1.1017 -0.4070
  806MOL0     H11196   9.728   9.879   7.395 -1.4476 -0.1641  1.9546
  806MOL0     H11197   9.813   9.734   7.342  0.0789 -0.1074  0.7777
  806MOL0     H11198   9.954   9.948   7.521  1.5938 -0.6168  0.0953
  806MOL0     H11199   9.947   9.950   7.350  1.0418  0.6330  0.7431
  806MOL0     H11200  10.048   9.728   7.537 -0.6147  1.3498  2.0780
  806MOL0     H11201  10.078   9.735   7.357  0.0232 -0.8299  0.8243
  806MOL0     H11202  10.203   9.915   7.573  1.8256 -2.9344  1.0838
  806MOL0     H11203  10.213   9.947   7.399  1.2495 -1.1208 -1.8530
  806MOL0     H11204  10.330   9.731   7.366 -0.2372 -1.1440  0.5862
  806MOL0     H11205  10.303   9.693   7.530  0.3638  0.6937  1.1433
  806MOL0     H11206  10.543   9.775   7.479  2.2836  4.3082 -2.5478
  806MOL0     H11207  10.459   9.867   7.615 -2.8742  0.6932  0.2419
  806MOL0     H11208   9.420   9.498   7.449  2.8513  1.5675  1.1754
  806MOL0     H11209   9.208   9.410   7.542  2.1176 -0.8724  2.7332
  806MOL0     H11210   8.830   9.364   7.667 -1.5870 -1.9789  2.4822
  806MOL0     H11211   8.619   9.284   7.768 -1.2476  0.4880 -0.2329
  806MOL0     H11212   9.650  10.114   8.603 -0.2454 -0.1133 -0.8614
  806MOL0     H11213   9.904  10.148   8.627  1.4656  0.6750 -1.3541
  806MOL0     H11214  10.271  10.068   8.929 -3.4888  0.3537 -1.7801
  806MOL0     H11215  10.503  10.064   8.968  1.0973 -1.0263  0.5744
  806MOL0     H11216  10.669   9.952   9.046 -1.9704  3.0593 -2.5255
  806MOL0     H11217  10.671   9.789   8.987  0.0961 -0.0597 -0.3696
  806MOL0     H11218  10.918   9.959   8.954 -1.7467  0.2516 -0.3185
  806MOL0     H11219  10.908   9.781   8.930  2.2802  0.3295 -0.5659
  806MOL0     H11220  10.848   9.897   9.206 -1.1637 -1.2191  0.5975
  806MOL0     H11221  10.838   9.728   9.156 -1.1174  0.2331 -1.8455
  806MOL0     H11222  11.095   9.749   9.123 -0.8978 -0.4492  0.2388
  806MOL0     H11223  11.053   9.774   9.284  0.0531 -2.2495 -1.1254
  806MOL0     H11224  11.198  10.155   9.218  2.0064 -1.8118  2.5783
  806MOL0     H11225  10.565   9.816   8.634  0.9113 -0.4391  0.9546
  806MOL0     H11226  10.215   9.735   8.587 -0.6481 -0.3612 -1.3386
  806MOL0     H11227  10.277   9.855   8.468  0.0397  1.0068  0.4616
  806MOL0     H11228  10.381   9.718   8.508  0.7974  1.3879  0.7007
  807MOL0     O11229   2.539   3.490   0.287 -0.3537 -0.3554 -0.1023
  807MOL0     C11230   2.536   3.596   0.226  0.2117  0.2002  0.0944
  807MOL0     O11231   2.606   3.713   0.243  0.1938 -0.0278 -0.9164
  807MOL0     C11232   2.719   3.695   0.318  0.7676  0.0100 -0.0828
  807MOL0     C11233   2.843   3.731   0.257 -0.3739  0.4848 -0.0438
  807MOL0     C11234   2.957   3.740   0.338  0.1286 -0.6195 -0.1353
  807MOL0     C11235   2.955   3.702   0.476  0.3913  0.7747  0.8178
  807MOL0     O11236   3.062   3.703   0.556  0.2931 -0.0966  0.0449
  807MOL0     C11237   3.192   3.725   0.500 -0.3869 -0.1699 -0.9164
  807MOL0     C11238   3.305   3.693   0.607 -0.0057  0.4865 -0.2564
  807MOL0     C11239   3.437   3.688   0.536  0.5650 -0.3810 -0.7158
  807MOL0     C11240   3.547   3.625   0.623 -0.4416 -0.3001 -0.6056
  807MOL0     C11241   3.689   3.644   0.556  0.2033 -0.0235  0.6625
  807MOL0     C11242   3.812   3.601   0.645  0.6616  0.1537  0.9639
  807MOL0     C11243   3.945   3.642   0.576  0.1324 -0.3426 -0.1654
  807MOL0     C11244   4.059   3.550   0.621  0.5202 -0.7248 -0.4310
  807MOL0     N11245   4.190   3.587   0.568  0.1439  0.2070  0.1460
  807MOL0     C11246   4.302   3.564   0.637  0.3917 -0.1539  0.0710
  807MOL0     C11247   4.410   3.596   0.554  0.5863  0.7709  0.2336
  807MOL0     C11248   4.552   3.581   0.586 -0.0205  0.0562 -0.5240
  807MOL0     C11249   4.583   3.434   0.602 -0.3676 -0.5628 -0.6874
  807MOL0     C11250   4.726   3.404   0.576  0.1276  0.0300 -0.3703
  807MOL0     C11251   4.763   3.259   0.621  0.1338 -0.1343  0.4275
  807MOL0     O11252   4.738   3.252   0.765  0.3239 -1.2466 -0.3080
  807MOL0     C11253   4.829   3.200   0.848 -0.3155  0.5144  0.0444
  807MOL0     C11254   4.915   3.099   0.798 -0.0510 -0.4032 -0.3943
  807MOL0     C11255   5.020   3.063   0.872 -0.0449 -0.6677 -0.5277
  807MOL0     C11256   5.121   2.977   0.801  0.5431  0.4917 -0.4949
  807MOL0     C11257   5.039   3.110   1.004  0.1507 -0.0430 -0.3135
  807MOL0     C11258   5.158   3.067   1.079 -0.0747  0.0168 -0.4849
  807MOL0     O11259   5.280   3.076   1.018  0.5398 -0.0378 -0.4077
  807MOL0     C11260   5.381   3.001   1.073  0.0524  0.0085  0.1154
  807MOL0     C11261   5.366   2.862   1.077 -0.0785  0.5503  0.8860
  807MOL0     C11262   5.469   2.782   1.123  0.0692 -0.4156 -1.2219
  807MOL0     C11263   5.586   2.841   1.176 -0.0907 -0.5298 -0.6284
  807MOL0     O11264   5.690   2.763   1.224 -0.2669 -0.0709  0.0897
  807MOL0     C11265   5.693   2.621   1.200 -0.2455 -0.3832  0.0837
  807MOL0     C11266   5.828   2.566   1.234 -0.0654  0.3583  0.9909
  807MOL0     C11267   5.944   2.660   1.186 -0.1594  0.3133  0.0425
  807MOL0     C11268   6.081   2.628   1.260  0.2665 -0.0952  0.5738
  807MOL0     C11269   6.121   2.480   1.256 -0.2253  0.7491 -0.3084
  807MOL0     C11270   6.258   2.439   1.326  0.2972  0.4330  0.1222
  807MOL0     C11271   6.287   2.290   1.303  0.2578 -0.0418 -0.6130
  807MOL0     C11272   6.406   2.251   1.393 -0.6322 -0.0506  0.6580
  807MOL0    Cl11273   6.558   2.272   1.306 -0.1376 -0.1588  0.0486
  807MOL0     C11274   5.593   2.981   1.201  0.2513 -0.0155  0.3458
  807MOL0     C11275   5.495   3.060   1.135 -0.6191  0.0162 -0.2453
  807MOL0     O11276   5.139   3.036   1.195  0.3550 -0.0745  0.1928
  807MOL0     C11277   4.929   3.185   1.062 -0.5032  0.2422  0.0790
  807MOL0     C11278   4.833   3.237   0.984  0.0323 -0.5690 -0.1229
  807MOL0     N11279   4.352   3.637   0.428 -0.1188  0.5261 -0.2596
  807MOL0     N11280   4.224   3.628   0.446 -0.7436 -0.5906  0.1319
  807MOL0     C11281   2.832   3.669   0.533  0.0069 -0.6342 -0.6757
  807MOL0     C11282   2.714   3.669   0.453  0.2878 -0.3855  0.6387
  807MOL0     C11283   2.435   3.603   0.112 -0.3555  0.1382  0.3255
  807MOL0     C11284   2.306   3.542   0.124 -0.8404  0.6375  0.2885
  807MOL0     C11285   2.223   3.539   0.010 -0.1304 -0.4729  0.0223
  807MOL0     C11286   2.260   3.602  -0.114  0.3875  0.8519  0.6585
  807MOL0     O11287   2.173   3.627  -0.221  0.2732 -0.3013  0.2036
  807MOL0     C11288   2.034   3.584  -0.223 -0.2098  0.6646  0.0754
  807MOL0     C11289   1.943   3.664  -0.137 -0.7813  0.1873  0.2988
  807MOL0     C11290   1.961   3.816  -0.145  0.3725 -0.6184 -0.4725
  807MOL0     C11291   1.916   3.876  -0.284  0.1233  0.4778 -0.9269
  807MOL0     C11292   1.774   3.891  -0.286  0.1642  0.1285  0.5200
  807MOL0     C11293   1.653   3.913  -0.287 -0.5765 -0.5890  0.4488
  807MOL0     C11294   2.388   3.649  -0.120 -0.7623 -0.4877 -0.5776
  807MOL0     C11295   2.472   3.656  -0.010 -0.4084 -0.2181 -0.5741
  807MOL0     C11296   2.614   3.708  -0.041 -0.0537 -0.0210  0.6769
  807MOL0     H11297   2.838   3.760   0.153 -0.9147 -3.3278 -1.2649
  807MOL0     H11298   3.047   3.774   0.288  0.6623  0.5854  1.5832
  807MOL0     H11299   3.216   3.825   0.464  1.3081 -0.4343 -0.6445
  807MOL0     H11300   3.205   3.651   0.420  3.3767 -1.1085  0.3610
  807MOL0     H11301   3.311   3.771   0.684  0.9091  1.8323 -1.6378
  807MOL0     H11302   3.283   3.597   0.656  2.1908  0.7435  1.4175
  807MOL0     H11303   3.422   3.632   0.443 -0.4365  1.3865 -1.6690
  807MOL0     H11304   3.466   3.789   0.507  1.4017  0.1893  1.8485
  807MOL0     H11305   3.546   3.664   0.725 -0.6367  0.3417 -0.8452
  807MOL0     H11306   3.518   3.521   0.641 -2.2182  0.3620  0.6315
  807MOL0     H11307   3.711   3.747   0.529 -1.4935 -0.2554 -2.0225
  807MOL0     H11308   3.694   3.599   0.456 -2.0753  3.3279 -1.1428
  807MOL0     H11309   3.794   3.664   0.732 -0.9733  0.1394  0.6516
  807MOL0     H11310   3.801   3.495   0.669 -1.0112 -0.6002 -2.4692
  807MOL0     H11311   3.974   3.746   0.587  0.8540 -0.4421 -1.0422
  807MOL0     H11312   3.930   3.627   0.468  1.3413 -0.1554 -0.3671
  807MOL0     H11313   4.065   3.545   0.730 -1.5941 -3.7957 -0.3372
  807MOL0     H11314   4.037   3.450   0.583 -0.3013 -0.1522 -1.5229
  807MOL0     H11315   4.306   3.539   0.742  0.8064  0.7107  0.2686
  807MOL0     H11316   4.582   3.632   0.678 -0.6428 -0.5748  0.0414
  807MOL0     H11317   4.608   3.629   0.506 -1.5927  2.5398 -0.2516
  807MOL0     H11318   4.548   3.404   0.702  1.6128  0.6743  0.4463
  807MOL0     H11319   4.513   3.376   0.541 -2.4775 -0.4952  1.4687
  807MOL0     H11320   4.750   3.416   0.470  2.9122 -0.5551  0.1135
  807MOL0     H11321   4.796   3.476   0.620  0.1347  0.3700 -0.9242
  807MOL0     H11322   4.692   3.197   0.565 -1.6562  2.4782 -0.4060
  807MOL0     H11323   4.867   3.233   0.599  0.1903 -1.4739  2.0325
  807MOL0     H11324   4.894   3.057   0.700 -0.8028 -0.9600 -0.0019
  807MOL0     H11325   5.077   2.937   0.709  0.7244  0.8242 -0.7267
  807MOL0     H11326   5.160   2.892   0.859 -0.7802 -0.6808 -1.2519
  807MOL0     H11327   5.205   3.039   0.768  2.2375 -1.2389  0.2948
  807MOL0     H11328   5.276   2.818   1.035 -0.0873  0.5058  0.9514
  807MOL0     H11329   5.459   2.674   1.112  0.4050 -0.4124 -1.5548
  807MOL0     H11330   5.614   2.577   1.260 -1.6487  1.5635 -0.2462
  807MOL0     H11331   5.682   2.602   1.093  0.0621  3.5817 -0.8020
  807MOL0     H11332   5.829   2.543   1.341 -1.2953  0.0800  0.9511
  807MOL0     H11333   5.834   2.467   1.189 -2.9244 -1.0015  3.2614
  807MOL0     H11334   5.926   2.764   1.215  1.5863 -0.1358  3.2111
  807MOL0     H11335   5.942   2.655   1.077 -0.1303  2.1371 -0.0748
  807MOL0     H11336   6.085   2.660   1.364  1.1209  3.3805 -0.3735
  807MOL0     H11337   6.157   2.698   1.223  1.3915 -0.3789  2.2450
  807MOL0     H11338   6.039   2.418   1.291 -0.5402  0.4687 -1.4889
  807MOL0     H11339   6.138   2.466   1.149 -0.9961  1.5406 -0.5460
  807MOL0     H11340   6.234   2.451   1.432 -3.5761 -1.4017 -0.3699
  807MOL0     H11341   6.341   2.502   1.292  0.9513 -0.8119 -0.6631
  807MOL0     H11342   6.297   2.270   1.196 -0.0350 -0.9678 -0.4753
  807MOL0     H11343   6.197   2.240   1.337  0.0257 -0.0723 -1.2514
  807MOL0     H11344   6.390   2.145   1.417  1.0083  0.0990  2.6978
  807MOL0     H11345   6.415   2.310   1.484  2.8295  1.0052 -0.1902
  807MOL0     H11346   5.680   3.027   1.248  1.5348 -1.1282 -0.8547
  807MOL0     H11347   5.505   3.168   1.138 -1.0853  0.2228 -3.1261
  807MOL0     H11348   4.914   3.224   1.162 -0.2449 -0.1534  0.2742
  807MOL0     H11349   4.741   3.288   1.011 -1.0905 -0.8448 -2.9999
  807MOL0     H11350   2.831   3.640   0.638  1.7906 -0.3504 -0.5537
  807MOL0     H11351   2.619   3.649   0.502 -0.3652 -0.7889 -0.7502
  807MOL0     H11352   2.279   3.496   0.218 -2.2508 -0.1154 -0.4551
  807MOL0     H11353   2.127   3.488   0.014 -1.0082  1.1741  1.7405
  807MOL0     H11354   2.001   3.597  -0.327  2.7013 -0.4128 -1.0767
  807MOL0     H11355   2.032   3.479  -0.193  0.0629  0.7148  0.2651
  807MOL0     H11356   1.962   3.639  -0.033 -3.1093  2.1146  1.2997
  807MOL0     H11357   1.844   3.641  -0.178 -1.1037  2.7444 -0.5960
  807MOL0     H11358   1.888   3.849  -0.071 -3.3077 -4.4936 -1.9461
  807MOL0     H11359   2.065   3.838  -0.121  0.6490 -3.6587  1.6877
  807MOL0     H11360   1.951   3.803  -0.358  3.6013 -0.2245  1.1730
  807MOL0     H11361   1.962   3.975  -0.294 -0.3576  0.8913  0.7073
  807MOL0     H11362   1.548   3.931  -0.279 -0.7644 -1.8206  0.9052
  807MOL0     H11363   2.409   3.691  -0.217  1.0027  3.4018  1.2672
  807MOL0     H11364   2.646   3.793   0.020  1.0569 -0.3339  0.5618
  807MOL0     H11365   2.688   3.628  -0.046 -0.9827 -0.9167  0.9315
  807MOL0     H11366   2.604   3.744  -0.144  1.6457  0.3263  0.6004
  808MOL0     O11367   7.224   7.047   5.614  0.1159 -0.5987 -0.0819
  808MOL0     C11368   7.168   6.982   5.526 -0.4585  0.6559  0.5274
  808MOL0     O11369   7.228   6.933   5.411  0.7501 -0.2153  0.8539
  808MOL0     C11370   7.361   6.981   5.401  0.5437  0.4083 -0.1913
  808MOL0     C11371   7.383   7.106   5.343  0.0321  0.0822  0.4729
  808MOL0     C11372   7.512   7.146   5.301  0.4105 -0.2597 -0.3417
  808MOL0     C11373   7.629   7.075   5.339  0.5049 -1.2936  0.3778
  808MOL0     O11374   7.750   7.132   5.318 -0.5977 -0.3389 -0.0876
  808MOL0     C11375   7.857   7.055   5.279 -0.5497 -0.3997 -0.2666
  808MOL0     C11376   7.989   7.127   5.234 -0.3281  0.0170 -0.1952
  808MOL0     C11377   8.111   7.032   5.245  0.2577  0.2485 -0.1320
  808MOL0     C11378   8.107   6.927   5.141 -1.0377  0.4330 -0.1906
  808MOL0     C11379   8.249   6.859   5.131 -0.6866  0.2280 -0.7946
  808MOL0     C11380   8.249   6.763   5.009  0.2158 -1.1311 -0.1709
  808MOL0     C11381   8.374   6.672   5.010 -0.0962 -0.6102 -0.0110
  808MOL0     C11382   8.344   6.551   4.927 -1.0393  0.3916  0.1739
  808MOL0     N11383   8.459   6.461   4.898 -0.0271  0.2359  0.1728
  808MOL0     C11384   8.479   6.347   4.964  0.1605  0.0570  0.4825
  808MOL0     C11385   8.578   6.286   4.902 -1.3594 -0.8321  0.6715
  808MOL0     C11386   8.649   6.162   4.941 -0.5690 -0.8796 -0.4151
  808MOL0     C11387   8.774   6.185   5.031  0.4647 -0.9528  0.2388
  808MOL0     C11388   8.839   6.056   5.059 -0.0439  0.0926 -0.6463
  808MOL0     C11389   8.985   6.048   5.102  0.1235 -0.3588  0.6546
  808MOL0     O11390   9.006   6.125   5.228  0.1504  0.2129 -0.0042
  808MOL0     C11391   9.128   6.088   5.286 -0.0072  0.5389 -0.3883
  808MOL0     C11392   9.124   6.055   5.418 -0.1953 -0.1532  0.3828
  808MOL0     C11393   9.236   6.045   5.490 -0.1523  0.6276 -0.2019
  808MOL0     C11394   9.224   6.026   5.636  0.4190  0.3224 -0.8832
  808MOL0     C11395   9.365   6.055   5.435  0.1202 -0.0156 -0.2549
  808MOL0     C11396   9.507   6.033   5.501  0.1294 -0.3008  0.5694
  808MOL0     O11397   9.615   6.094   5.440  0.0279  0.0638 -0.7054
  808MOL0     C11398   9.734   6.098   5.505 -0.7276 -0.0223 -0.0058
  808MOL0     C11399   9.820   5.995   5.494 -0.3479  0.2635  0.1159
  808MOL0     C11400   9.952   6.019   5.538  0.0873  0.5171 -0.4741
  808MOL0     C11401   9.997   6.146   5.599 -0.5514  0.8964  0.6422
  808MOL0     O11402  10.125   6.163   5.654  0.0362  0.7203  0.3784
  808MOL0     C11403  10.212   6.042   5.661 -1.2163  0.0489 -0.3297
  808MOL0     C11404  10.352   6.103   5.710 -0.1133  1.0429  0.4422
  808MOL0     C11405  10.471   6.008   5.710  0.1730  0.1911 -0.0919
  808MOL0     C11406  10.594   6.098   5.719 -0.1622 -0.0156 -0.2919
  808MOL0     C11407  10.721   6.008   5.719 -0.1611  0.2162  0.3546
  808MOL0     C11408  10.854   6.091   5.749 -0.9504  0.6080 -0.6801
  808MOL0     C11409  10.975   5.995   5.749  0.0582 -0.6051 -0.4232
  808MOL0     C11410  11.039   5.999   5.608  0.2607  0.5079 -0.0341
  808MOL0    Cl11411  11.154   5.856   5.604  0.2184  0.3209  0.0207
  808MOL0     C11412   9.898   6.243   5.612  0.3350 -0.1535  0.9745
  808MOL0     C11413   9.773   6.222   5.554 -0.3677 -0.0366 -0.0407
  808MOL0     O11414   9.518   5.943   5.589  0.9175 -0.4456 -0.4042
  808MOL0     C11415   9.375   6.082   5.296  0.8432  0.5793 -1.2527
  808MOL0     C11416   9.253   6.106   5.231 -0.7915  0.7028  0.1219
  808MOL0     N11417   8.625   6.366   4.802 -0.3595 -0.2545 -0.2383
  808MOL0     N11418   8.551   6.476   4.794 -0.6619  0.2863  0.2592
  808MOL0     C11419   7.606   6.945   5.389 -0.3395  0.5460  0.6787
  808MOL0     C11420   7.477   6.902   5.423  0.4455  0.2478 -0.8667
  808MOL0     C11421   7.027   6.938   5.554 -1.0277 -0.1779  0.3884
  808MOL0     C11422   6.943   6.894   5.447  0.0180 -0.1078 -0.4946
  808MOL0     C11423   6.811   6.854   5.471  0.2588  0.2072 -0.1492
  808MOL0     C11424   6.767   6.833   5.605  0.0587 -0.5333  0.1289
  808MOL0     O11425   6.652   6.768   5.644  0.0774 -0.1355  0.8159
  808MOL0     C11426   6.551   6.739   5.539 -0.0602 -0.5620 -0.1256
  808MOL0     C11427   6.410   6.704   5.600 -0.4347  1.0841  0.6443
  808MOL0     C11428   6.300   6.705   5.498  0.7394  0.4813 -0.5815
  808MOL0     C11429   6.246   6.849   5.475  0.4601 -0.0093  0.0853
  808MOL0     C11430   6.166   6.891   5.593  0.2637 -0.4310 -0.2421
  808MOL0     C11431   6.089   6.921   5.681 -0.1897  0.9495 -0.8174
  808MOL0     C11432   6.850   6.864   5.707 -0.5323 -0.3889 -0.1511
  808MOL0     C11433   6.974   6.924   5.689 -0.4062  1.1414  0.7552
  808MOL0     C11434   7.048   6.947   5.809  0.5900 -1.0389  0.3873
  808MOL0     H11435   7.294   7.166   5.328  0.3897  0.3564 -0.6637
  808MOL0     H11436   7.522   7.246   5.260  2.6970 -0.7740 -1.1964
  808MOL0     H11437   7.823   6.993   5.197  0.6044  1.3867 -2.2008
  808MOL0     H11438   7.882   6.992   5.365  1.3947 -1.6334 -1.6537
  808MOL0     H11439   7.978   7.164   5.132 -0.3926  0.2604 -0.0992
  808MOL0     H11440   8.018   7.213   5.295  0.2444 -0.4058  0.1399
  808MOL0     H11441   8.193   7.103   5.227  1.5397 -1.1756 -0.1172
  808MOL0     H11442   8.125   6.987   5.343 -1.0064 -0.4580 -0.2616
  808MOL0     H11443   8.030   6.849   5.146  0.6036 -1.2097  0.6571
  808MOL0     H11444   8.084   6.971   5.043  0.7617  1.0341 -0.3756
  808MOL0     H11445   8.270   6.798   5.220  2.9605  2.7494  0.3247
  808MOL0     H11446   8.326   6.936   5.123 -0.7419  0.9571  3.1884
  808MOL0     H11447   8.159   6.702   5.018  0.3280 -1.3072 -0.2173
  808MOL0     H11448   8.247   6.816   4.914  0.1940  0.4972  0.7123
  808MOL0     H11449   8.388   6.651   5.116  0.4315  0.2952  0.1126
  808MOL0     H11450   8.454   6.737   4.974 -2.3740  1.1151 -2.3436
  808MOL0     H11451   8.264   6.502   4.983 -1.0745  1.3391  0.9833
  808MOL0     H11452   8.303   6.570   4.827  0.0534  0.1981 -0.3274
  808MOL0     H11453   8.443   6.309   5.059 -4.2117 -2.8794 -1.9961
  808MOL0     H11454   8.676   6.099   4.856  1.8893  0.9925 -1.1415
  808MOL0     H11455   8.561   6.113   4.983 -2.1567  0.6725 -1.7779
  808MOL0     H11456   8.843   6.248   4.974  0.5462 -2.6759 -1.6912
  808MOL0     H11457   8.738   6.236   5.121  0.7926 -2.3490  1.1920
  808MOL0     H11458   8.792   6.002   5.142  1.5802 -0.0398  0.2239
  808MOL0     H11459   8.826   5.983   4.978  0.0107 -0.6739  0.0249
  808MOL0     H11460   9.006   5.942   5.121  1.8891 -0.1912 -0.1911
  808MOL0     H11461   9.050   6.088   5.024 -1.0707  0.2650 -0.0353
  808MOL0     H11462   9.027   6.042   5.465 -0.2008 -1.7430 -0.0148
  808MOL0     H11463   9.298   5.956   5.675  1.9156  2.4795  0.3693
  808MOL0     H11464   9.131   6.002   5.689  1.0578  1.8070  1.0216
  808MOL0     H11465   9.251   6.125   5.673 -0.4006 -0.0933  0.9588
  808MOL0     H11466   9.795   5.908   5.434  0.0861  0.2617 -0.0624
  808MOL0     H11467  10.026   5.943   5.518  2.0100  2.2503 -0.2560
  808MOL0     H11468  10.173   5.968   5.731 -0.8025  0.2343  0.1020
  808MOL0     H11469  10.231   5.988   5.568  0.7504 -1.2010  0.7457
  808MOL0     H11470  10.375   6.188   5.644 -0.3067  0.3826 -0.5010
  808MOL0     H11471  10.333   6.150   5.807  1.6156 -0.6397  1.6762
  808MOL0     H11472  10.478   5.954   5.615  1.2001 -0.6093  0.4162
  808MOL0     H11473  10.482   5.941   5.796  2.3063  0.3555 -0.1628
  808MOL0     H11474  10.590   6.150   5.815 -1.7839 -1.3535  0.4287
  808MOL0     H11475  10.593   6.169   5.637  3.5245 -0.9773 -1.3642
  808MOL0     H11476  10.712   5.932   5.797  3.0587  0.7289  1.3569
  808MOL0     H11477  10.716   5.969   5.617  1.5711  1.7922 -0.3990
  808MOL0     H11478  10.845   6.135   5.848  2.2400 -0.7274  0.3092
  808MOL0     H11479  10.860   6.178   5.683 -2.9754  1.1003 -0.2893
  808MOL0     H11480  10.950   5.892   5.776 -1.0133 -0.1097  0.5592
  808MOL0     H11481  11.050   6.033   5.819  1.0149 -1.0829 -1.1808
  808MOL0     H11482  11.096   6.089   5.584 -1.4360  2.0624  1.5004
  808MOL0     H11483  10.962   5.968   5.537  0.4337 -1.0982  0.4269
  808MOL0     H11484   9.910   6.336   5.666 -1.4631  1.7711 -1.6378
  808MOL0     H11485   9.701   6.304   5.554  0.4580  0.7205  1.0322
  808MOL0     H11486   9.475   6.104   5.259  1.7006 -0.1346  0.5223
  808MOL0     H11487   9.249   6.155   5.134  1.3048  1.2015  0.2531
  808MOL0     H11488   7.693   6.887   5.419  0.9421  0.5091 -2.6172
  808MOL0     H11489   7.470   6.799   5.456 -4.3995 -0.4395 -3.1659
  808MOL0     H11490   6.972   6.896   5.342  2.1461  0.2232  0.0466
  808MOL0     H11491   6.758   6.844   5.377  1.1567  0.8903 -0.7506
  808MOL0     H11492   6.532   6.826   5.475 -0.5603 -0.0110  0.7537
  808MOL0     H11493   6.585   6.660   5.471 -1.7928 -0.7734 -0.8112
  808MOL0     H11494   6.399   6.785   5.673 -1.1756  1.6913 -0.1127
  808MOL0     H11495   6.420   6.610   5.655 -4.0171 -0.4949 -1.0547
  808MOL0     H11496   6.338   6.656   5.408  2.6503  1.7592 -0.5421
  808MOL0     H11497   6.218   6.642   5.531 -0.3678  1.9921 -0.3391
  808MOL0     H11498   6.182   6.839   5.387 -0.6282 -0.6391  0.9139
  808MOL0     H11499   6.322   6.926   5.459 -0.1870  0.7500  0.5885
  808MOL0     H11500   6.018   6.940   5.760  0.7756  0.2805  0.2394
  808MOL0     H11501   6.804   6.857   5.804 -1.6102 -0.9244 -0.6859
  808MOL0     H11502   7.148   6.906   5.792  0.0760 -2.2864  0.2624
  808MOL0     H11503   7.049   7.052   5.838  0.0176 -1.4908  2.2161
  808MOL0     H11504   7.004   6.886   5.889  5.2431 -1.5212  2.9195
  809MOL0     O11505   1.794  10.017   3.572 -0.0861  0.4083  0.1213
  809MOL0     C11506   1.738   9.924   3.623  0.9585  0.1011  0.4729
  809MOL0     O11507   1.787   9.838   3.720 -0.5554 -0.3863  0.0710
  809MOL0     C11508   1.906   9.879   3.774 -0.0625  0.2668  1.2866
  809MOL0     C11509   2.006   9.781   3.795  0.2172 -0.8146  0.3427
  809MOL0     C11510   2.115   9.806   3.877  0.0224  0.3292  0.2115
  809MOL0     C11511   2.141   9.928   3.929  0.5832 -0.2362  0.0513
  809MOL0     O11512   2.259   9.962   3.999 -0.7341 -0.3754 -0.1900
  809MOL0     C11513   2.284   9.877   4.112  0.2513 -0.6973  0.0158
  809MOL0     C11514   2.410   9.926   4.192 -0.6740 -0.2525  0.1682
  809MOL0     C11515   2.546   9.909   4.113  0.0142 -0.5097  0.5236
  809MOL0     C11516   2.661   9.953   4.199  0.0927 -0.0213 -0.3061
  809MOL0     C11517   2.792   9.929   4.131  0.1402 -0.3292  0.9196
  809MOL0     C11518   2.904   9.952   4.216 -0.9084 -0.2699 -0.5140
  809MOL0     C11519   3.044   9.906   4.161 -0.5080 -0.2884 -0.5836
  809MOL0     C11520   3.157   9.927   4.265 -1.0474 -0.1931 -0.6266
  809MOL0     N11521   3.293   9.927   4.194  0.6466 -1.0672 -0.7384
  809MOL0     C11522   3.322  10.032   4.100 -0.1824  0.7007  0.3224
  809MOL0     C11523   3.430   9.978   4.032  0.3606 -0.1533  0.3370
  809MOL0     C11524   3.506  10.050   3.925 -0.0220  0.3669  1.4167
  809MOL0     C11525   3.612   9.946   3.879 -0.3263  0.1089  0.7238
  809MOL0     C11526   3.700   9.996   3.768 -0.0083 -0.5267 -0.1928
  809MOL0     C11527   3.789   9.897   3.693  0.4060 -0.4267 -0.2425
  809MOL0     O11528   3.862   9.972   3.596 -0.2793 -0.2488  0.0850
  809MOL0     C11529   3.988   9.926   3.559 -0.1268 -0.7172  0.2632
  809MOL0     C11530   4.084   9.898   3.657 -0.1419 -0.0669  0.1735
  809MOL0     C11531   4.207   9.841   3.629 -0.5532  0.2064 -0.0873
  809MOL0     C11532   4.310   9.808   3.744  1.7625 -0.1489  0.0547
  809MOL0     C11533   4.240   9.822   3.491  0.6037  0.2295  0.2407
  809MOL0     C11534   4.372   9.784   3.439 -0.1155  0.4881  0.1745
  809MOL0     O11535   4.443   9.869   3.364  0.1747  0.9766  0.6893
  809MOL0     C11536   4.574   9.823   3.325  1.1775 -0.3639  0.1722
  809MOL0     C11537   4.682   9.914   3.341 -0.2644  0.5710  0.0790
  809MOL0     C11538   4.808   9.876   3.298  0.7281 -0.0189 -0.3592
  809MOL0     C11539   4.831   9.751   3.237  0.2235 -0.6206 -0.0967
  809MOL0     O11540   4.958   9.711   3.190 -0.3538 -0.1541  0.1410
  809MOL0     C11541   5.067   9.766   3.263 -0.0250  0.0392  0.0801
  809MOL0     C11542   5.149   9.868   3.177 -0.9665 -0.5240  0.5267
  809MOL0     C11543   5.273   9.905   3.260 -0.0032  0.6456  0.8858
  809MOL0     C11544   5.263   9.999   3.379  0.2347  0.6007 -0.3190
  809MOL0     C11545   5.396  10.050   3.416  0.3532  0.1189 -0.0845
  809MOL0     C11546   5.482   9.941   3.469 -0.2304 -0.4397  0.1747
  809MOL0     C11547   5.604   9.991   3.545  0.1278 -0.4860  0.0556
  809MOL0     C11548   5.715   9.886   3.559 -0.1221 -0.0471 -0.3994
  809MOL0    Cl11549   5.839   9.946   3.668 -0.4711  0.2199 -0.3575
  809MOL0     C11550   4.728   9.666   3.213  0.4774 -0.3535  0.2888
  809MOL0     C11551   4.604   9.702   3.263 -0.9654  0.6263  0.4261
  809MOL0     O11552   4.406   9.667   3.466 -0.0416  0.0668 -0.2456
  809MOL0     C11553   4.152   9.870   3.388 -0.3894 -1.5236  0.0119
  809MOL0     C11554   4.027   9.920   3.418  0.3312  0.2446 -0.5196
  809MOL0     N11555   3.451   9.847   4.077  0.6196 -0.1356  0.6211
  809MOL0     N11556   3.372   9.822   4.171 -0.2282  0.4066  0.6431
  809MOL0     C11557   2.050  10.029   3.902  0.5965 -0.1478  0.5070
  809MOL0     C11558   1.934  10.007   3.823 -0.2516 -0.5458 -0.2984
  809MOL0     C11559   1.614   9.887   3.549  0.2924  0.3830  0.1990
  809MOL0     C11560   1.597   9.754   3.502 -0.6744  0.0575 -0.0381
  809MOL0     C11561   1.488   9.712   3.434  0.4855  0.0478 -0.0617
  809MOL0     C11562   1.381   9.798   3.411  0.2401  0.2951 -0.5385
  809MOL0     O11563   1.277   9.748   3.333  0.2290  0.0211 -0.5066
  809MOL0     C11564   1.147   9.755   3.394 -0.4712  0.2057  0.1709
  809MOL0     C11565   1.054   9.801   3.290  0.8498 -0.9447  0.9509
  809MOL0     C11566   1.065   9.952   3.266  0.4329  0.1326 -0.0670
  809MOL0     C11567   0.980   9.987   3.143  0.4149  0.5414 -0.4586
  809MOL0     C11568   1.033   9.948   3.012  0.0244 -0.0386 -0.6328
  809MOL0     C11569   1.084   9.920   2.907 -0.1593  0.2878  0.5304
  809MOL0     C11570   1.389   9.925   3.458  1.2644 -0.7767  0.3130
  809MOL0     C11571   1.509   9.973   3.525 -0.0176 -0.5521 -0.3314
  809MOL0     C11572   1.524  10.125   3.558 -0.0529  0.2164  0.6080
  809MOL0     H11573   1.989   9.684   3.751  2.3589 -2.0240  2.0037
  809MOL0     H11574   2.187   9.724   3.870 -0.3647 -0.0361  0.4465
  809MOL0     H11575   2.293   9.776   4.072  0.6539 -0.6699  0.0322
  809MOL0     H11576   2.202   9.874   4.184  2.5976  0.7484  2.9708
  809MOL0     H11577   2.399  10.031   4.223  3.5046  0.2554  0.4747
  809MOL0     H11578   2.411   9.866   4.284  0.1659 -1.3771 -0.5509
  809MOL0     H11579   2.559   9.806   4.079  1.5657  0.7193 -2.9974
  809MOL0     H11580   2.534   9.971   4.024 -0.5434 -0.7084  0.4500
  809MOL0     H11581   2.645  10.055   4.236  2.5029  0.3246 -0.0664
  809MOL0     H11582   2.658   9.892   4.289  1.1119 -0.4653 -0.5590
  809MOL0     H11583   2.787   9.987   4.038 -2.5346 -2.5619 -0.4669
  809MOL0     H11584   2.795   9.825   4.096 -0.3566  0.4822 -1.7809
  809MOL0     H11585   2.905  10.056   4.251 -1.8491 -0.1825 -0.7321
  809MOL0     H11586   2.878   9.886   4.300  0.9698 -0.5436 -0.0871
  809MOL0     H11587   3.073   9.965   4.073  1.7962 -0.4838 -0.0156
  809MOL0     H11588   3.042   9.803   4.124 -1.1697  0.2342 -2.1215
  809MOL0     H11589   3.135  10.026   4.307 -2.5887 -0.8498  0.1973
  809MOL0     H11590   3.161   9.850   4.343 -0.0223  1.9638  1.5959
  809MOL0     H11591   3.290  10.135   4.094  1.4624  1.1365 -3.3592
  809MOL0     H11592   3.558  10.141   3.958 -0.4137  0.7812  0.9223
  809MOL0     H11593   3.440  10.078   3.842  1.1553  1.3386  0.7773
  809MOL0     H11594   3.665   9.920   3.971  0.2684  0.4106  0.4711
  809MOL0     H11595   3.565   9.853   3.846  0.1281 -1.1442  3.3699
  809MOL0     H11596   3.635  10.038   3.690  0.1966 -2.0884 -1.2303
  809MOL0     H11597   3.762  10.075   3.812  1.0699 -1.0950 -0.6656
  809MOL0     H11598   3.848   9.850   3.773 -2.1576 -1.7300  0.9988
  809MOL0     H11599   3.718   9.830   3.645 -1.5671  0.9702  0.5880
  809MOL0     H11600   4.063   9.916   3.762  3.6021  2.1287  0.7362
  809MOL0     H11601   4.318   9.699   3.753 -2.2776 -0.6364 -0.2455
  809MOL0     H11602   4.270   9.844   3.840 -0.4615 -2.2129  0.0046
  809MOL0     H11603   4.411   9.844   3.725  1.1422  1.4580 -0.3341
  809MOL0     H11604   4.665  10.008   3.391 -0.5095  0.8434 -0.5024
  809MOL0     H11605   4.891   9.938   3.330  0.5542 -0.1347  0.3283
  809MOL0     H11606   5.040   9.817   3.356  0.3851 -2.9361  1.9783
  809MOL0     H11607   5.138   9.687   3.291  1.3377  1.1550 -0.0850
  809MOL0     H11608   5.189   9.846   3.077  1.6502 -0.7078  1.5425
  809MOL0     H11609   5.082   9.952   3.155  0.9878  0.2728 -3.2426
  809MOL0     H11610   5.350   9.939   3.191 -0.7557 -0.1759 -0.3906
  809MOL0     H11611   5.317   9.811   3.294  0.5311 -0.8791 -3.4803
  809MOL0     H11612   5.205   9.958   3.462 -1.7760 -1.1757 -2.4716
  809MOL0     H11613   5.209  10.088   3.345  0.9253  0.9727 -0.4676
  809MOL0     H11614   5.434  10.105   3.329  0.0283  0.5905  0.0679
  809MOL0     H11615   5.387  10.128   3.492 -0.0782  1.2833 -1.2868
  809MOL0     H11616   5.514   9.887   3.380  0.4037  0.2082 -0.0042
  809MOL0     H11617   5.429   9.865   3.527 -0.6930 -0.6955 -0.5781
  809MOL0     H11618   5.565  10.029   3.639  2.2020 -0.3208  0.8954
  809MOL0     H11619   5.638  10.085   3.500 -0.1953  0.0796  0.9797
  809MOL0     H11620   5.757   9.885   3.458 -1.8139  1.1792 -1.1712
  809MOL0     H11621   5.683   9.787   3.594  0.8412 -0.6053 -1.0448
  809MOL0     H11622   4.734   9.577   3.151 -3.4273  1.6749 -3.5026
  809MOL0     H11623   4.525   9.630   3.245  0.5508 -0.5368 -2.0008
  809MOL0     H11624   4.178   9.864   3.283 -1.0584  1.3853 -0.4136
  809MOL0     H11625   3.964   9.965   3.342 -1.6382 -1.0784  0.2562
  809MOL0     H11626   2.058  10.125   3.952  2.3815  0.1577 -0.2950
  809MOL0     H11627   1.868  10.094   3.824  1.3546  0.8254 -2.9813
  809MOL0     H11628   1.665   9.676   3.534 -1.5179 -0.0910  1.4703
  809MOL0     H11629   1.491   9.611   3.395  2.5270  1.0967 -2.9148
  809MOL0     H11630   1.107   9.656   3.416  1.8526 -0.8904 -0.2880
  809MOL0     H11631   1.142   9.832   3.472 -0.3784  4.3666 -3.5334
  809MOL0     H11632   0.948   9.782   3.306  0.5395 -3.5987 -2.8848
  809MOL0     H11633   1.076   9.746   3.197  0.3712 -1.4063  1.1074
  809MOL0     H11634   1.026  10.004   3.353 -2.2029 -0.3573 -0.8731
  809MOL0     H11635   1.171   9.974   3.249  0.7412 -1.5650 -0.5754
  809MOL0     H11636   0.966  10.096   3.145  1.7804  0.7652 -1.6836
  809MOL0     H11637   0.877   9.953   3.152 -0.6425  3.3266 -0.9419
  809MOL0     H11638   1.138   9.913   2.815 -0.5586  0.8097  0.2476
  809MOL0     H11639   1.313   9.997   3.427  1.6303 -0.4851  0.0852
  809MOL0     H11640   1.420  10.160   3.555 -0.2190 -0.2521 -2.0989
  809MOL0     H11641   1.556  10.142   3.661  0.8484 -0.4120  0.4412
  809MOL0     H11642   1.593  10.172   3.488  0.0370  1.6982  1.6679
  810MOL0     O11643   0.935   6.825   6.091 -0.3234  0.9803  0.4921
  810MOL0     C11644   0.976   6.928   6.145 -0.2672  0.9277 -0.4054
  810MOL0     O11645   1.006   6.934   6.280  0.3090 -0.2586 -0.0568
  810MOL0     C11646   0.977   6.817   6.348 -0.6135  0.5819 -0.5767
  810MOL0     C11647   1.053   6.703   6.331 -0.3723  0.4360  1.0835
  810MOL0     C11648   1.029   6.598   6.409  0.0208 -0.7054 -0.3696
  810MOL0     C11649   0.924   6.602   6.505  1.0157 -0.3795 -1.2878
  810MOL0     O11650   0.909   6.493   6.590 -0.0537 -0.1520 -0.0315
  810MOL0     C11651   0.775   6.446   6.607 -0.6759  0.0562 -0.1072
  810MOL0     C11652   0.692   6.417   6.480  0.8815  0.2055 -0.4624
  810MOL0     C11653   0.558   6.360   6.523  0.1582 -0.7398 -0.3435
  810MOL0     C11654   0.534   6.214   6.480  0.5135  0.5246 -0.0922
  810MOL0     C11655   0.403   6.158   6.533  0.4386  0.8274  0.1097
  810MOL0     C11656   0.415   6.000   6.523  0.3982  0.3560  0.9587
  810MOL0     C11657   0.390   5.947   6.376 -1.1942  0.7435  0.1607
  810MOL0     C11658   0.400   5.795   6.373 -0.3359  0.2208  0.2044
  810MOL0     N11659   0.533   5.736   6.394 -0.6413 -0.1893  0.4527
  810MOL0     C11660   0.624   5.731   6.292  0.5931  0.1531 -0.3145
  810MOL0     C11661   0.710   5.637   6.332  0.1903 -0.1300  0.9134
  810MOL0     C11662   0.821   5.579   6.248 -0.3145 -0.3111 -0.0379
  810MOL0     C11663   0.941   5.672   6.272 -0.2503 -0.3571 -0.3089
  810MOL0     C11664   0.984   5.669   6.417  0.4516 -0.1911  0.5863
  810MOL0     C11665   1.136   5.719   6.431  0.0804 -0.6052  0.2382
  810MOL0     O11666   1.145   5.860   6.405  0.5140 -0.2904  0.1980
  810MOL0     C11667   1.254   5.928   6.450  0.0576 -0.0200  0.5682
  810MOL0     C11668   1.265   6.053   6.408  0.2311  0.4816  0.5296
  810MOL0     C11669   1.371   6.136   6.436 -1.0728 -0.0054 -0.2769
  810MOL0     C11670   1.373   6.277   6.371  0.3646 -0.4246  0.0423
  810MOL0     C11671   1.487   6.081   6.505 -0.6796 -0.6693  0.2693
  810MOL0     C11672   1.614   6.158   6.532  0.3933 -0.1553 -0.0467
  810MOL0     O11673   1.713   6.084   6.603 -0.1937  0.4785  0.1835
  810MOL0     C11674   1.844   6.105   6.567 -0.0904 -0.8272  0.4545
  810MOL0     C11675   1.937   6.150   6.659 -0.5010  0.6956  0.3961
  810MOL0     C11676   2.073   6.172   6.628  0.3881  0.5222 -0.1199
  810MOL0     C11677   2.126   6.161   6.496  0.7344  0.1184 -0.6171
  810MOL0     O11678   2.265   6.176   6.496  0.1627 -0.0507  0.8001
  810MOL0     C11679   2.330   6.156   6.368 -0.5254  0.2202  0.5943
  810MOL0     C11680   2.487   6.168   6.391 -0.3051 -0.7894 -0.1389
  810MOL0     C11681   2.547   6.089   6.499  0.3382  0.1372 -0.3304
  810MOL0     C11682   2.701   6.117   6.491  0.1723 -0.2513 -0.0916
  810MOL0     C11683   2.767   6.017   6.594  0.4453 -0.1301  0.0638
  810MOL0     C11684   2.920   6.022   6.570  0.3356  0.5014  0.2710
  810MOL0     C11685   2.988   6.138   6.651  0.3660  0.2812  0.8301
  810MOL0     C11686   3.128   6.155   6.611 -0.7153 -0.0733 -0.2883
  810MOL0    Cl11687   3.189   6.286   6.710 -0.4867 -0.8458 -0.5383
  810MOL0     C11688   2.028   6.128   6.393  0.6276 -0.1675 -0.4315
  810MOL0     C11689   1.892   6.102   6.434  0.4635 -0.1372 -0.4045
  810MOL0     O11690   1.634   6.271   6.485  0.0740  0.5532  0.0623
  810MOL0     C11691   1.482   5.946   6.543  0.2602  0.7976  0.5053
  810MOL0     C11692   1.364   5.866   6.512 -0.5695  0.0259  0.4386
  810MOL0     N11693   0.672   5.587   6.454  0.0074 -0.0765  0.0360
  810MOL0     N11694   0.567   5.647   6.486  0.3284  0.2164  0.1383
  810MOL0     C11695   0.843   6.712   6.520  1.0466  0.4659  0.3658
  810MOL0     C11696   0.866   6.823   6.436 -0.6130  1.0610  0.1757
  810MOL0     C11697   1.009   7.040   6.055 -0.6202 -0.2298  1.2690
  810MOL0     C11698   1.116   7.114   6.093 -0.6604 -0.1471  0.2388
  810MOL0     C11699   1.154   7.227   6.026  0.2007 -0.0712  0.4119
  810MOL0     C11700   1.087   7.261   5.911  0.3213 -0.4559  0.7066
  810MOL0     O11701   1.129   7.369   5.836  1.3718  0.1344  0.7247
  810MOL0     C11702   1.058   7.491   5.870 -1.2615  0.7824  1.1790
  810MOL0     C11703   1.058   7.580   5.743  0.0141 -0.9766 -0.1701
  810MOL0     C11704   1.008   7.724   5.767  0.3127 -0.5557  0.5799
  810MOL0     C11705   1.136   7.808   5.807  0.4600 -0.7389 -0.6906
  810MOL0     C11706   1.099   7.943   5.860 -0.2678 -0.3565  0.9311
  810MOL0     C11707   1.084   8.041   5.922  0.4369 -0.3044 -0.2131
  810MOL0     C11708   0.973   7.187   5.862  0.5209 -0.2964  0.1642
  810MOL0     C11709   0.931   7.083   5.940 -0.1150  0.6393 -0.1219
  810MOL0     C11710   0.810   7.019   5.884  0.5310 -0.1746 -0.2160
  810MOL0     H11711   1.137   6.703   6.262  1.3521 -0.8761  3.0601
  810MOL0     H11712   1.094   6.512   6.400  1.9301  0.6841 -0.4574
  810MOL0     H11713   0.729   6.518   6.675 -1.1178 -2.0413  1.9227
  810MOL0     H11714   0.784   6.361   6.675  0.2913  2.4444  2.9918
  810MOL0     H11715   0.666   6.503   6.418 -3.9485 -2.6239 -3.0449
  810MOL0     H11716   0.748   6.355   6.409  1.5563  0.8559 -0.4975
  810MOL0     H11717   0.531   6.376   6.628  2.3258 -1.5271  0.3944
  810MOL0     H11718   0.481   6.418   6.470 -1.2740  0.2033  2.5625
  810MOL0     H11719   0.511   6.220   6.374 -0.9198 -0.1244  0.1545
  810MOL0     H11720   0.620   6.148   6.491 -0.7693 -1.7702 -2.8491
  810MOL0     H11721   0.317   6.180   6.470 -0.6999  0.4362  1.4620
  810MOL0     H11722   0.385   6.183   6.638 -1.1060 -0.2528  0.1396
  810MOL0     H11723   0.513   5.970   6.564 -0.2179  0.6505  2.7281
  810MOL0     H11724   0.336   5.963   6.588  0.5522 -3.8846 -0.8761
  810MOL0     H11725   0.464   5.991   6.309  1.6681 -3.5692  0.0999
  810MOL0     H11726   0.287   5.975   6.351 -0.6721  2.0819 -0.6170
  810MOL0     H11727   0.331   5.757   6.449  1.6768  1.0069  2.5556
  810MOL0     H11728   0.381   5.768   6.269 -0.2376 -0.9276  0.4770
  810MOL0     H11729   0.621   5.778   6.195 -0.5886 -0.1800 -0.4588
  810MOL0     H11730   0.790   5.570   6.143 -0.2670 -1.1790  0.0201
  810MOL0     H11731   0.851   5.481   6.286 -1.5277  0.7260  4.0295
  810MOL0     H11732   1.023   5.640   6.208  1.2026 -2.0209  2.2130
  810MOL0     H11733   0.902   5.770   6.243 -0.8173 -0.5832 -0.3248
  810MOL0     H11734   0.931   5.738   6.482 -1.2505  0.2874 -1.2110
  810MOL0     H11735   0.960   5.570   6.458 -2.5923 -0.1376 -0.8129
  810MOL0     H11736   1.171   5.699   6.533  0.6360 -3.0762 -0.3792
  810MOL0     H11737   1.201   5.655   6.371  1.4859  0.3196  0.7217
  810MOL0     H11738   1.196   6.105   6.342  2.1299 -0.2036 -2.1749
  810MOL0     H11739   1.286   6.283   6.305 -0.1243 -0.8160  0.6438
  810MOL0     H11740   1.466   6.290   6.314 -0.2707 -1.3789 -1.2571
  810MOL0     H11741   1.374   6.358   6.445 -2.5352 -1.5593  1.4946
  810MOL0     H11742   1.892   6.170   6.756 -2.5308 -1.6405  0.0309
  810MOL0     H11743   2.132   6.184   6.718  1.4427 -1.7908 -0.4091
  810MOL0     H11744   2.333   6.056   6.325 -0.2004  0.2554  0.5288
  810MOL0     H11745   2.291   6.227   6.294  2.7175  0.0045 -1.5290
  810MOL0     H11746   2.538   6.135   6.300  1.2358 -1.5651  0.9653
  810MOL0     H11747   2.491   6.276   6.406 -3.6334 -0.7980  1.9093
  810MOL0     H11748   2.528   5.982   6.490  2.5145 -0.1525 -2.9530
  810MOL0     H11749   2.506   6.121   6.595  0.8665 -1.0371  0.3120
  810MOL0     H11750   2.731   6.220   6.514 -1.6960  0.1934  0.5504
  810MOL0     H11751   2.737   6.091   6.391  0.0003  0.5182 -0.3661
  810MOL0     H11752   2.744   6.044   6.697 -0.2032 -2.3181  0.5341
  810MOL0     H11753   2.728   5.916   6.579  1.1292 -0.1567 -1.8586
  810MOL0     H11754   2.949   6.016   6.464 -2.2634 -1.5128 -0.4500
  810MOL0     H11755   2.954   5.931   6.619  2.1263  0.3835 -1.1131
  810MOL0     H11756   2.970   6.123   6.758 -2.8432  0.6682  0.4571
  810MOL0     H11757   2.938   6.233   6.631 -0.7162 -0.5227 -0.5395
  810MOL0     H11758   3.142   6.173   6.504  1.6686 -0.3956 -0.0912
  810MOL0     H11759   3.193   6.070   6.635  0.3563  0.1839 -2.1552
  810MOL0     H11760   2.055   6.131   6.288 -3.0815  2.5607 -1.5354
  810MOL0     H11761   1.826   6.075   6.353 -1.5268  3.3934 -0.1794
  810MOL0     H11762   1.566   5.896   6.589  0.5195  2.1723  1.6313
  810MOL0     H11763   1.371   5.759   6.531  1.8586  0.1018  0.2835
  810MOL0     H11764   0.759   6.717   6.589  0.2851  4.0050 -0.6089
  810MOL0     H11765   0.795   6.905   6.443 -2.7657 -0.6467 -0.5093
  810MOL0     H11766   1.157   7.087   6.190  1.1827 -0.1306 -0.4927
  810MOL0     H11767   1.222   7.299   6.071 -0.2044  1.1155 -0.8189
  810MOL0     H11768   0.955   7.467   5.901 -1.1687  0.5538  1.3131
  810MOL0     H11769   1.112   7.543   5.949  2.1580 -0.4011 -0.2115
  810MOL0     H11770   1.007   7.527   5.662 -0.7318  0.8772 -0.9766
  810MOL0     H11771   1.160   7.589   5.706 -0.5178  2.9522 -1.1925
  810MOL0     H11772   0.976   7.767   5.672  3.5261 -1.1131 -0.8947
  810MOL0     H11773   0.933   7.729   5.847  0.5381  4.2794  0.8342
  810MOL0     H11774   1.210   7.820   5.727  0.0016 -1.0061 -1.1597
  810MOL0     H11775   1.196   7.753   5.880 -0.9017  0.6147  1.5677
  810MOL0     H11776   1.073   8.124   5.990 -2.3234  0.0860 -1.0137
  810MOL0     H11777   0.921   7.224   5.774  0.7340 -0.5317 -0.0644
  810MOL0     H11778   0.751   7.093   5.828 -1.0925 -0.1133  1.4763
  810MOL0     H11779   0.843   6.944   5.812  1.2887 -0.6435  0.6175
  810MOL0     H11780   0.749   6.962   5.954 -2.4963  1.9577 -0.8985
  811MOL0     O11781   1.272  10.097   4.761 -0.2680  0.6935  0.7835
  811MOL0     C11782   1.239  10.213   4.759  0.1605  0.5460 -1.0793
  811MOL0     O11783   1.311  10.311   4.706 -0.4558 -0.2562  0.2299
  811MOL0     C11784   1.433  10.296   4.639 -0.1846 -0.1961 -0.3755
  811MOL0     C11785   1.459  10.338   4.508 -0.2101  0.4587 -0.5848
  811MOL0     C11786   1.591  10.326   4.453  0.3308 -0.4721  0.0154
  811MOL0     C11787   1.694  10.283   4.534  0.1841  0.0196 -1.3370
  811MOL0     O11788   1.816  10.285   4.477  0.0924  0.2981 -0.0772
  811MOL0     C11789   1.929  10.257   4.560 -0.5328  0.0114  1.2944
  811MOL0     C11790   2.050  10.266   4.463  0.3985  0.1555 -0.9959
  811MOL0     C11791   2.182  10.267   4.535 -0.2629  0.3301  0.5371
  811MOL0     C11792   2.294  10.305   4.430 -0.4583 -0.1665 -0.0482
  811MOL0     C11793   2.437  10.307   4.493  0.2625  0.4710  0.2264
  811MOL0     C11794   2.483  10.168   4.546 -0.5181  0.0220 -0.5741
  811MOL0     C11795   2.639  10.160   4.542 -0.7219 -0.1290  0.1362
  811MOL0     C11796   2.682  10.026   4.604  0.8892  0.9025 -0.3630
  811MOL0     N11797   2.823  10.003   4.624  0.1937  0.4717 -0.2257
  811MOL0     C11798   2.889   9.889   4.648  0.2049 -0.0147  0.7862
  811MOL0     C11799   3.026   9.915   4.645 -0.3059 -0.5550  0.1201
  811MOL0     C11800   3.141   9.824   4.661 -0.2791 -0.2741  0.3883
  811MOL0     C11801   3.283   9.870   4.631  0.6540  0.5879  0.1842
  811MOL0     C11802   3.382   9.756   4.663  0.1753  0.2899 -0.0843
  811MOL0     C11803   3.525   9.801   4.681  0.1492 -0.1716  0.3706
  811MOL0     O11804   3.592   9.698   4.753  0.2577 -0.0691  0.8363
  811MOL0     C11805   3.657   9.600   4.684 -0.2268 -0.0818  0.1478
  811MOL0     C11806   3.653   9.567   4.549 -0.3324  0.2661  0.4755
  811MOL0     C11807   3.716   9.447   4.510  0.4450 -0.0312  0.0442
  811MOL0     C11808   3.689   9.409   4.362  0.4915 -0.2074 -0.2266
  811MOL0     C11809   3.804   9.370   4.589  0.0894 -0.5629  0.5455
  811MOL0     C11810   3.865   9.239   4.552 -0.2182  0.4989  0.4834
  811MOL0     O11811   3.903   9.216   4.423  0.1164 -0.6015  0.4413
  811MOL0     C11812   4.036   9.166   4.412  0.6870  0.7840  0.6548
  811MOL0     C11813   4.063   9.060   4.325 -0.0903  0.7471 -0.0964
  811MOL0     C11814   4.199   9.012   4.312 -0.0703  0.0358 -0.1669
  811MOL0     C11815   4.303   9.079   4.376  0.0921 -0.8390 -0.1431
  811MOL0     O11816   4.434   9.043   4.364  0.1622 -0.1147  0.2608
  811MOL0     C11817   4.475   8.992   4.235 -0.0117  0.5438  0.3490
  811MOL0     C11818   4.626   9.006   4.214  0.2377  0.4972 -0.4295
  811MOL0     C11819   4.714   8.915   4.313  0.4211 -0.1920  0.9813
  811MOL0     C11820   4.863   8.919   4.278 -0.3261  0.4874 -0.6931
  811MOL0     C11821   4.931   9.045   4.341  0.9326  0.4379 -0.1908
  811MOL0     C11822   5.080   9.062   4.313  0.0498 -0.1333  0.6966
  811MOL0     C11823   5.157   8.934   4.355 -0.2411 -0.5976  0.3919
  811MOL0     C11824   5.304   8.954   4.371  0.5315 -0.4627  0.1452
  811MOL0    Cl11825   5.360   9.070   4.245 -0.2702  0.5629 -0.2328
  811MOL0     C11826   4.274   9.180   4.473 -0.2977  0.8268  0.2475
  811MOL0     C11827   4.141   9.219   4.495 -0.0445  0.6343 -0.7987
  811MOL0     O11828   3.872   9.157   4.644  0.3699 -0.3042 -0.0735
  811MOL0     C11829   3.804   9.408   4.725  0.4554  0.0630 -0.5763
  811MOL0     C11830   3.729   9.522   4.772 -0.2398  0.2012 -0.2995
  811MOL0     N11831   3.033  10.053   4.636  0.5076 -1.0809  0.4344
  811MOL0     N11832   2.914  10.100   4.611  0.9422 -0.7094  0.5627
  811MOL0     C11833   1.668  10.249   4.669  0.8235  0.1492 -0.4657
  811MOL0     C11834   1.537  10.245   4.715 -0.4437 -0.8198 -0.4721
  811MOL0     C11835   1.106  10.247   4.812  0.5022 -0.9607  0.0032
  811MOL0     C11836   1.043  10.167   4.909 -0.5109  0.5253  0.0926
  811MOL0     C11837   0.913  10.191   4.955  0.1036 -0.7961 -0.4356
  811MOL0     C11838   0.846  10.309   4.920 -0.5006 -0.5628 -0.3470
  811MOL0     O11839   0.731  10.332   4.986  0.0267  0.2668  0.4184
  811MOL0     C11840   0.659  10.454   4.958 -0.5608 -0.7293 -0.0549
  811MOL0     C11841   0.556  10.461   4.846 -0.1863  0.0358 -0.3507
  811MOL0     C11842   0.474  10.327   4.822  0.0529 -0.4937  0.6081
  811MOL0     C11843   0.345  10.300   4.903  0.2851  0.2452  0.3679
  811MOL0     C11844   0.372  10.303   5.051 -0.8392 -0.3182  0.0694
  811MOL0     C11845   0.389  10.318   5.171  1.0169 -0.0267  0.2717
  811MOL0     C11846   0.912  10.388   4.823 -0.0333  0.3926 -0.5550
  811MOL0     C11847   1.030  10.360   4.757  0.3981  0.0782 -0.0322
  811MOL0     C11848   1.081  10.459   4.658 -0.0516  1.0831  0.2650
  811MOL0     H11849   1.372  10.371   4.453 -0.4846  1.1750  0.2597
  811MOL0     H11850   1.605  10.367   4.353 -0.5067  2.3845  0.9811
  811MOL0     H11851   1.913  10.160   4.608 -2.8455  1.3567  3.5280
  811MOL0     H11852   1.930  10.329   4.643  0.6902  2.4317 -0.6974
  811MOL0     H11853   2.047  10.192   4.383  1.7695 -0.2596 -0.6921
  811MOL0     H11854   2.034  10.357   4.404  0.5947 -0.5239 -2.1166
  811MOL0     H11855   2.175  10.343   4.614 -1.7286  0.1717  0.5889
  811MOL0     H11856   2.197  10.164   4.567 -0.3789  0.0742 -0.2223
  811MOL0     H11857   2.300  10.249   4.336 -2.5796  0.3681 -0.5617
  811MOL0     H11858   2.264  10.404   4.394  0.2473  0.4974  1.1386
  811MOL0     H11859   2.436  10.382   4.573  0.2511  1.6175 -0.8322
  811MOL0     H11860   2.501  10.342   4.412 -0.8487 -0.9002 -1.3023
  811MOL0     H11861   2.441  10.148   4.645 -0.4673 -0.1868 -0.5942
  811MOL0     H11862   2.444  10.098   4.472 -1.7676  1.6405 -1.5097
  811MOL0     H11863   2.694  10.237   4.597  3.7515 -1.6298 -1.7765
  811MOL0     H11864   2.676  10.169   4.440 -2.1793 -0.7383 -0.4806
  811MOL0     H11865   2.622  10.009   4.694 -0.7226  2.1117 -1.1578
  811MOL0     H11866   2.657   9.945   4.534 -2.5357  0.5727  1.0376
  811MOL0     H11867   2.855   9.787   4.661  0.9714 -0.5683 -1.2331
  811MOL0     H11868   3.121   9.736   4.599  0.5978  0.2120 -0.6161
  811MOL0     H11869   3.144   9.787   4.764 -0.4523 -1.0862  0.1122
  811MOL0     H11870   3.287   9.902   4.526 -1.3048 -4.1915 -1.6090
  811MOL0     H11871   3.299   9.961   4.691 -0.2707 -0.1932  1.6721
  811MOL0     H11872   3.359   9.707   4.758  1.5068 -3.4437 -1.4950
  811MOL0     H11873   3.388   9.679   4.586  1.5237 -0.1551  0.4209
  811MOL0     H11874   3.564   9.823   4.581 -2.3134  1.3396 -0.3335
  811MOL0     H11875   3.532   9.890   4.744 -0.1779 -0.0820  0.2779
  811MOL0     H11876   3.602   9.624   4.472  0.9796 -0.6135 -1.1084
  811MOL0     H11877   3.608   9.467   4.318  0.2149 -0.3819  0.0540
  811MOL0     H11878   3.654   9.306   4.358 -2.3006  0.7085 -3.1890
  811MOL0     H11879   3.782   9.424   4.306  0.5871 -2.5793 -0.8038
  811MOL0     H11880   3.989   9.008   4.264  1.8501  0.9895 -2.8375
  811MOL0     H11881   4.220   8.914   4.270 -0.6699 -0.2601  0.2158
  811MOL0     H11882   4.431   8.896   4.209 -1.6102  1.9871 -2.8249
  811MOL0     H11883   4.437   9.061   4.158  1.2051 -2.2471 -3.0236
  811MOL0     H11884   4.661   8.977   4.114 -0.0540 -0.2637 -0.3207
  811MOL0     H11885   4.661   9.109   4.217  0.1265  0.8434 -4.6078
  811MOL0     H11886   4.692   8.811   4.286 -0.1024  0.4218 -1.1546
  811MOL0     H11887   4.689   8.938   4.417  0.3352  3.0147  0.3532
  811MOL0     H11888   4.882   8.921   4.170  0.3181  0.3251 -0.5865
  811MOL0     H11889   4.899   8.821   4.311 -1.2775 -0.2955 -1.8732
  811MOL0     H11890   4.881   9.131   4.295  1.0710  1.2126  1.0730
  811MOL0     H11891   4.912   9.048   4.449 -2.0371  0.9393 -0.6383
  811MOL0     H11892   5.129   9.148   4.361  0.7919 -1.1841  1.8870
  811MOL0     H11893   5.092   9.071   4.205  1.8460  1.7157  0.9844
  811MOL0     H11894   5.146   8.864   4.272  0.2493  1.7039 -1.7671
  811MOL0     H11895   5.113   8.896   4.447  0.1494 -0.1113  0.7880
  811MOL0     H11896   5.360   8.860   4.377 -0.4491 -1.3367 -2.5808
  811MOL0     H11897   5.311   9.004   4.468 -0.4988 -1.6304  0.8567
  811MOL0     H11898   4.347   9.224   4.541  0.5043  3.8496 -2.3526
  811MOL0     H11899   4.121   9.314   4.543  3.8476  0.4715  1.5717
  811MOL0     H11900   3.856   9.345   4.796 -3.1916 -3.0196 -0.3029
  811MOL0     H11901   3.745   9.553   4.875 -0.4155  0.7565 -0.4387
  811MOL0     H11902   1.743  10.221   4.742  1.5826  0.8309 -0.9561
  811MOL0     H11903   1.528  10.213   4.818 -0.2409 -0.2069 -0.2602
  811MOL0     H11904   1.085  10.073   4.944  0.0784  1.2048  1.2776
  811MOL0     H11905   0.864  10.123   5.024 -1.7205 -0.9941 -1.8480
  811MOL0     H11906   0.603  10.466   5.051 -1.2252  0.0909 -0.5523
  811MOL0     H11907   0.729  10.537   4.945 -2.6708  1.1285 -0.1670
  811MOL0     H11908   0.624  10.478   4.762 -0.9423 -1.3084 -1.2729
  811MOL0     H11909   0.495  10.548   4.871  1.4032  1.2048 -0.3566
  811MOL0     H11910   0.439  10.330   4.718 -1.2590 -2.1038  0.9592
  811MOL0     H11911   0.550  10.248   4.820  0.8444  0.2574  0.2514
  811MOL0     H11912   0.300  10.202   4.880  0.8940  0.2846 -1.0734
  811MOL0     H11913   0.266  10.371   4.877  0.7525  1.0659  1.1413
  811MOL0     H11914   0.391  10.332   5.277  3.1306  1.1663  0.1339
  811MOL0     H11915   0.853  10.475   4.795 -0.0783  0.3015 -0.7459
  811MOL0     H11916   1.179  10.496   4.689  0.3551 -0.5670  1.0571
  811MOL0     H11917   1.081  10.423   4.555 -0.4206 -0.6858  0.8496
  811MOL0     H11918   1.007  10.540   4.654 -0.6060  0.5278 -1.6269
  812MOL0     O11919   5.828  11.298   9.317  1.4788  0.2682  0.1773
  812MOL0     C11920   5.797  11.208   9.396  0.3252 -0.4292  0.2083
  812MOL0     O11921   5.674  11.213   9.475  0.1784  0.4533  0.7222
  812MOL0     C11922   5.568  11.293   9.440  0.3800 -0.2906 -0.9045
  812MOL0     C11923   5.456  11.252   9.366 -0.6247  0.7814 -0.4396
  812MOL0     C11924   5.347  11.333   9.337  0.1270 -0.4101 -0.8149
  812MOL0     C11925   5.346  11.466   9.368 -0.4411 -1.0760 -0.2527
  812MOL0     O11926   5.234  11.542   9.326 -0.5110 -0.1257 -0.7656
  812MOL0     C11927   5.219  11.667   9.389 -0.8175 -0.0195  0.3217
  812MOL0     C11928   5.087  11.728   9.321 -0.0664  0.2195  0.3925
  812MOL0     C11929   5.050  11.858   9.400 -0.1208  0.8550  0.4753
  812MOL0     C11930   4.922  11.925   9.343 -0.1263  0.1101 -0.2010
  812MOL0     C11931   4.907  12.067   9.392  0.2403  0.2886  0.4140
  812MOL0     C11932   4.834  12.070   9.524  0.6246  0.0047 -0.6610
  812MOL0     C11933   4.810  12.214   9.578  0.1339 -0.2638  0.5078
  812MOL0     C11934   4.713  12.290   9.490  0.2892  0.7504 -0.0571
  812MOL0     N11935   4.670  12.396   9.579 -0.0898  0.5150 -0.0963
  812MOL0     C11936   4.709  12.525   9.567 -0.5024 -0.3949 -0.2258
  812MOL0     C11937   4.624  12.602   9.635  0.4120  0.4257  0.1203
  812MOL0     C11938   4.613  12.746   9.673 -0.6365 -0.0363  0.3409
  812MOL0     C11939   4.753  12.815   9.704  1.1933  0.5209  0.1861
  812MOL0     C11940   4.752  12.894   9.837 -0.2062  0.5819  1.0464
  812MOL0     C11941   4.885  12.960   9.843 -0.5489  0.4713 -0.3149
  812MOL0     O11942   5.007  12.882   9.856 -0.0342 -0.0426  0.2619
  812MOL0     C11943   5.122  12.951   9.849 -0.5986 -0.2348 -1.1591
  812MOL0     C11944   5.142  13.085   9.867  0.6145 -0.2366  0.0452
  812MOL0     C11945   5.269  13.146   9.861  0.8369  0.3087  0.1917
  812MOL0     C11946   5.283  13.292   9.895 -0.9416 -0.6053  0.5655
  812MOL0     C11947   5.373  13.054   9.841  0.5678 -0.4862 -0.3297
  812MOL0     C11948   5.506  13.099   9.860 -0.1771  0.7231  0.0476
  812MOL0     O11949   5.600  13.066   9.766 -0.1863  0.0092  0.2758
  812MOL0     C11950   5.724  13.124   9.774 -0.1297 -0.4933  0.4096
  812MOL0     C11951   5.754  13.262   9.764  0.6275 -0.1719  0.4452
  812MOL0     C11952   5.891  13.301   9.766 -0.3668 -0.3259 -0.5759
  812MOL0     C11953   5.995  13.213   9.755  0.5806 -0.5605 -0.6012
  812MOL0     O11954   6.125  13.251   9.720 -0.4388 -0.4327 -0.0271
  812MOL0     C11955   6.180  13.372   9.780  0.7395 -0.0287  0.5992
  812MOL0     C11956   6.323  13.398   9.735  0.5817 -0.4478  0.7341
  812MOL0     C11957   6.372  13.539   9.785 -0.6816 -0.9225 -1.2385
  812MOL0     C11958   6.521  13.564   9.773 -0.0576  0.9469 -0.1301
  812MOL0     C11959   6.615  13.487   9.868  0.2899  0.2003 -0.7232
  812MOL0     C11960   6.761  13.544   9.888  0.0669 -0.6979 -0.7428
  812MOL0     C11961   6.760  13.692   9.941 -0.6911 -0.6597  0.2857
  812MOL0     C11962   6.905  13.746   9.962  0.0682  1.0831 -0.9162
  812MOL0    Cl11963   7.010  13.732   9.816  0.3101 -0.3801 -0.4247
  812MOL0     C11964   5.962  13.080   9.743 -0.2900  0.9507 -0.5961
  812MOL0     C11965   5.830  13.035   9.762  0.2194 -0.8628  0.4424
  812MOL0     O11966   5.530  13.154   9.965  0.5290  0.0529  0.4907
  812MOL0     C11967   5.355  12.919   9.829 -0.1294  0.1806  0.3846
  812MOL0     C11968   5.228  12.863   9.826 -0.1752 -0.2583  0.9922
  812MOL0     N11969   4.526  12.517   9.687 -0.1849 -0.6129  0.5116
  812MOL0     N11970   4.558  12.397   9.649  0.6154  0.6584 -0.4379
  812MOL0     C11971   5.459  11.516   9.433 -0.1680  0.2029 -0.6822
  812MOL0     C11972   5.560  11.425   9.483  0.2676 -0.1187 -0.7891
  812MOL0     C11973   5.884  11.092   9.416 -0.2173  0.7848 -0.1152
  812MOL0     C11974   5.823  10.970   9.459 -0.4851  0.1180 -0.3278
  812MOL0     C11975   5.888  10.859   9.494 -0.6690 -0.3403  0.2580
  812MOL0     C11976   6.032  10.855   9.480  0.1038 -0.3561  0.8477
  812MOL0     O11977   6.099  10.745   9.523  0.5217  0.0382  0.3127
  812MOL0     C11978   6.227  10.721   9.467 -0.4786  0.1802 -0.0928
  812MOL0     C11979   6.332  10.767   9.559 -0.6261  0.6375 -0.1901
  812MOL0     C11980   6.463  10.766   9.485 -0.3548 -0.8960  0.8599
  812MOL0     C11981   6.585  10.788   9.582  0.1697  0.3262  0.6179
  812MOL0     C11982   6.600  10.929   9.610 -0.4590  0.0778  0.2294
  812MOL0     C11983   6.605  11.049   9.634  0.9845 -0.2743  0.3184
  812MOL0     C11984   6.100  10.971   9.435 -0.4032  0.3198 -0.2153
  812MOL0     C11985   6.025  11.088   9.405  0.5758  0.1377 -0.5828
  812MOL0     C11986   6.107  11.207   9.362  0.7736  0.5057 -0.3442
  812MOL0     H11987   5.443  11.149   9.333 -1.5590  0.2126  1.5430
  812MOL0     H11988   5.254  11.290   9.300  0.6486 -0.9792 -1.4864
  812MOL0     H11989   5.303  11.732   9.363 -1.6020 -0.3850 -3.9196
  812MOL0     H11990   5.204  11.656   9.496 -1.7506  3.3857  0.6560
  812MOL0     H11991   5.095  11.750   9.214  0.8164  2.7654  0.8992
  812MOL0     H11992   5.004  11.659   9.339 -0.3856  0.6873  0.7368
  812MOL0     H11993   5.037  11.844   9.508  0.1971  0.7312  0.5004
  812MOL0     H11994   5.129  11.932   9.381  0.2825 -0.3848 -3.7272
  812MOL0     H11995   4.925  11.927   9.234  1.1017 -0.7120 -0.2030
  812MOL0     H11996   4.833  11.864   9.359 -1.1759  1.3403 -1.1445
  812MOL0     H11997   4.856  12.135   9.323  0.1007 -0.6151 -0.3898
  812MOL0     H11998   5.008  12.108   9.403  0.3716  1.0961 -2.7689
  812MOL0     H11999   4.735  12.027   9.506 -0.8355  3.5353 -1.8959
  812MOL0     H12000   4.893  12.022   9.602 -0.8457  2.1114  1.9281
  812MOL0     H12001   4.903  12.271   9.588 -0.8193  1.9386 -1.9400
  812MOL0     H12002   4.774  12.203   9.681  2.3649  2.1700  1.6780
  812MOL0     H12003   4.760  12.332   9.400 -1.9522  0.9989 -1.1891
  812MOL0     H12004   4.620  12.242   9.459  0.7680 -0.0478 -0.2920
  812MOL0     H12005   4.789  12.571   9.509 -1.3588  0.0149 -1.1001
  812MOL0     H12006   4.546  12.773   9.755 -0.7042  2.6955 -0.5149
  812MOL0     H12007   4.564  12.804   9.594 -0.5682 -0.3772  0.0408
  812MOL0     H12008   4.834  12.742   9.696  2.9417  2.2095  1.4539
  812MOL0     H12009   4.774  12.886   9.624  3.3593 -0.4735 -0.2138
  812MOL0     H12010   4.688  12.981   9.819 -0.7645 -0.1142 -0.5683
  812MOL0     H12011   4.738  12.825   9.920  2.8653 -2.8123 -0.9586
  812MOL0     H12012   4.888  13.014   9.748 -3.1855 -1.3669 -1.5526
  812MOL0     H12013   4.874  13.020   9.933  0.0830 -2.5673  1.9757
  812MOL0     H12014   5.057  13.149   9.887 -0.0876 -1.3914  0.8484
  812MOL0     H12015   5.361  13.336   9.831 -2.6581 -0.0988 -1.2873
  812MOL0     H12016   5.322  13.315   9.994  0.4094  4.5077 -0.8381
  812MOL0     H12017   5.189  13.347   9.886 -0.4246  0.5896  2.0863
  812MOL0     H12018   5.671  13.330   9.750 -0.3864 -1.6484 -1.1229
  812MOL0     H12019   5.911  13.407   9.752 -2.5508 -0.1203 -2.7113
  812MOL0     H12020   6.120  13.460   9.755  0.1454 -1.0303 -1.8197
  812MOL0     H12021   6.179  13.364   9.889  0.1708  3.0207  0.9195
  812MOL0     H12022   6.396  13.331   9.782  0.4442 -0.0696  1.4958
  812MOL0     H12023   6.335  13.395   9.626 -0.4386  1.3226  0.5358
  812MOL0     H12024   6.352  13.544   9.893 -0.6130  1.1632 -1.2843
  812MOL0     H12025   6.316  13.624   9.746  1.0315  0.7978 -0.1201
  812MOL0     H12026   6.530  13.672   9.781  0.0109  1.1792 -2.5675
  812MOL0     H12027   6.554  13.535   9.673  1.1762 -1.3415  0.8479
  812MOL0     H12028   6.571  13.484   9.969 -0.3714  0.9373 -0.9797
  812MOL0     H12029   6.621  13.382   9.838 -3.1187 -0.9211  1.7633
  812MOL0     H12030   6.801  13.534   9.787  0.5336 -0.8123 -0.5460
  812MOL0     H12031   6.813  13.475   9.954  0.8162  1.2005  0.7463
  812MOL0     H12032   6.712  13.690  10.039  0.1088  0.1429  0.7024
  812MOL0     H12033   6.704  13.762   9.878 -0.3160  1.3383  2.0615
  812MOL0     H12034   6.948  13.697  10.050  1.5424  1.4019 -1.4209
  812MOL0     H12035   6.894  13.852   9.988 -2.1946  0.3629  1.4223
  812MOL0     H12036   6.032  13.000   9.720  0.8023  2.2179 -1.8954
  812MOL0     H12037   5.808  12.929   9.754 -0.2791 -0.6629 -1.4134
  812MOL0     H12038   5.448  12.863   9.825 -0.4520 -0.3244 -0.3247
  812MOL0     H12039   5.211  12.757   9.808  0.5886 -0.3892  1.0088
  812MOL0     H12040   5.450  11.615   9.477 -1.9031 -1.0664  2.1923
  812MOL0     H12041   5.640  11.460   9.548 -0.7608  1.2201 -0.1962
  812MOL0     H12042   5.715  10.962   9.462 -0.7656  2.1779 -2.4965
  812MOL0     H12043   5.847  10.766   9.531  2.0274 -0.9118  2.1237
  812MOL0     H12044   6.239  10.616   9.443 -0.2354  0.7637 -2.7734
  812MOL0     H12045   6.247  10.771   9.372 -0.7175  1.7464  0.6299
  812MOL0     H12046   6.345  10.703   9.647  0.4325 -0.6033 -1.2105
  812MOL0     H12047   6.314  10.868   9.597  2.5132  1.2626 -0.1199
  812MOL0     H12048   6.467  10.671   9.430  0.4055  0.3809 -1.3873
  812MOL0     H12049   6.469  10.842   9.407  1.5400 -1.6182  0.2466
  812MOL0     H12050   6.675  10.751   9.534  0.6302  4.9586 -2.7544
  812MOL0     H12051   6.575  10.733   9.676  0.1124 -1.6083 -0.4625
  812MOL0     H12052   6.629  11.150   9.661  2.8891 -0.2070 -1.4349
  812MOL0     H12053   6.208  10.971   9.428 -0.4427  0.7796 -0.8626
  812MOL0     H12054   6.095  11.231   9.256 -2.2106 -1.5404 -0.6126
  812MOL0     H12055   6.085  11.297   9.420 -0.0500  0.8392 -1.1398
  812MOL0     H12056   6.212  11.180   9.374  0.4184 -0.1672  1.6067
  813MOL0     O12057   8.480  10.163   0.562 -0.0865  0.2774 -0.2222
  813MOL0     C12058   8.384  10.235   0.524 -0.7097 -0.2202  0.5529
  813MOL0     O12059   8.398  10.365   0.486  0.6444  0.0550  0.1579
  813MOL0     C12060   8.512  10.435   0.490  0.0735 -0.3131  0.2027
  813MOL0     C12061   8.607  10.419   0.589  0.9360  0.7496 -0.0841
  813MOL0     C12062   8.714  10.504   0.589 -0.2823 -0.0682 -0.5775
  813MOL0     C12063   8.733  10.605   0.492 -0.4246  0.5025 -0.4745
  813MOL0     O12064   8.852  10.672   0.492  0.0167  0.2289  1.0216
  813MOL0     C12065   8.900  10.749   0.601  0.6336  0.6263  0.3042
  813MOL0     C12066   9.054  10.753   0.586  0.1153 -0.0715  0.0878
  813MOL0     C12067   9.138  10.633   0.636 -0.1526 -0.0680 -0.3159
  813MOL0     C12068   9.289  10.651   0.617 -0.4056  0.1597  0.0751
  813MOL0     C12069   9.372  10.522   0.651  1.1021  0.8656  1.1101
  813MOL0     C12070   9.513  10.544   0.696 -0.4199 -0.1187 -0.2450
  813MOL0     C12071   9.575  10.412   0.732 -0.1932  0.4113  0.2281
  813MOL0     C12072   9.723  10.443   0.776 -0.0309 -0.8141  0.3668
  813MOL0     N12073   9.786  10.325   0.834  0.0842 -0.0741  0.4598
  813MOL0     C12074   9.850  10.218   0.769  0.6899 -0.1541 -0.0509
  813MOL0     C12075   9.858  10.129   0.869 -0.2973  0.4509 -0.3176
  813MOL0     C12076   9.912   9.988   0.857 -0.4619 -1.0547  0.7130
  813MOL0     C12077   9.988   9.945   0.984  0.1072  0.2475  0.5138
  813MOL0     C12078  10.093  10.035   1.046 -0.0229 -0.7594 -0.3700
  813MOL0     C12079  10.103  10.003   1.195  0.0716 -0.0296  0.9234
  813MOL0     O12080  10.219  10.063   1.243  0.0936 -0.6398  0.2612
  813MOL0     C12081  10.240  10.065   1.381  0.1586  0.3173 -0.3581
  813MOL0     C12082  10.154  10.025   1.488 -0.0642 -0.1092 -0.7817
  813MOL0     C12083  10.196  10.035   1.624 -0.2897  0.1123 -1.3527
  813MOL0     C12084  10.098  10.011   1.735 -0.3849  0.1345 -0.5534
  813MOL0     C12085  10.334  10.070   1.648  0.0190 -0.5952 -0.4285
  813MOL0     C12086  10.395  10.068   1.791  0.8559  0.2565 -0.7774
  813MOL0     O12087  10.503  10.150   1.806  0.0632 -1.0937 -0.1742
  813MOL0     C12088  10.580  10.143   1.917  0.0495 -0.3747 -0.1860
  813MOL0     C12089  10.630  10.262   1.960 -0.1364  0.1938  0.0817
  813MOL0     C12090  10.725  10.262   2.064 -0.9090 -0.3498 -0.7470
  813MOL0     C12091  10.762  10.144   2.134  0.4072 -0.3268  0.2208
  813MOL0     O12092  10.842  10.154   2.246  1.1537 -0.0056  0.9423
  813MOL0     C12093  10.909  10.032   2.281 -0.3946 -0.9516  0.2437
  813MOL0     C12094  11.028  10.074   2.360 -0.1614 -0.2913  0.0016
  813MOL0     C12095  11.121   9.950   2.387 -0.0534  0.3401 -0.5955
  813MOL0     C12096  11.249  10.001   2.465  0.4833  0.5642  0.1431
  813MOL0     C12097  11.217  10.070   2.597 -0.3197  0.4664 -0.3587
  813MOL0     C12098  11.335  10.062   2.689 -0.3530  0.2139  0.2684
  813MOL0     C12099  11.313  10.127   2.826 -0.3273  0.0208  0.2532
  813MOL0     C12100  11.397  10.068   2.935 -0.4962 -0.2745 -0.6021
  813MOL0    Cl12101  11.313   9.937   3.020 -0.1410 -0.3075  0.0123
  813MOL0     C12102  10.707  10.031   2.087  0.5535 -0.1477  0.1406
  813MOL0     C12103  10.617  10.020   1.978 -0.8004  0.7917 -0.9904
  813MOL0     O12104  10.353   9.987   1.879 -0.3882 -0.6483  0.8055
  813MOL0     C12105  10.415  10.110   1.542  0.6547 -0.4214  0.5053
  813MOL0     C12106  10.376  10.105   1.410 -0.0249  0.0615 -0.2981
  813MOL0     N12107   9.814  10.184   0.996  0.8869 -0.0266  0.6345
  813MOL0     N12108   9.762  10.300   0.963  0.0669  0.1076  0.4243
  813MOL0     C12109   8.634  10.628   0.403  0.5320  0.0084 -0.1691
  813MOL0     C12110   8.526  10.543   0.399  0.5822  0.0044 -0.9112
  813MOL0     C12111   8.249  10.183   0.525  1.1261  0.1100 -0.3705
  813MOL0     C12112   8.138  10.279   0.516 -0.0077  0.4105  0.0363
  813MOL0     C12113   8.010  10.258   0.561 -0.2880  0.5895  0.0083
  813MOL0     C12114   7.972  10.125   0.587  0.9135  0.4587  0.1215
  813MOL0     O12115   7.849  10.077   0.628  0.0763 -0.2129 -0.1056
  813MOL0     C12116   7.731  10.147   0.579  0.5821  0.5502  0.2011
  813MOL0     C12117   7.659  10.217   0.691  0.3271  0.3435 -0.3392
  813MOL0     C12118   7.587  10.116   0.789  0.2901 -0.0829 -0.5138
  813MOL0     C12119   7.457  10.046   0.738  0.4422 -1.1077  0.6668
  813MOL0     C12120   7.352  10.148   0.719  0.3891  0.5639 -0.2118
  813MOL0     C12121   7.270  10.239   0.705  0.9706 -0.0949 -0.0447
  813MOL0     C12122   8.074  10.030   0.592 -0.5212 -0.2022  0.1706
  813MOL0     C12123   8.211  10.051   0.572  1.2930 -0.1747 -0.7688
  813MOL0     C12124   8.292   9.944   0.616 -0.7854  0.3998 -0.1337
  813MOL0     H12125   8.606  10.342   0.665  2.2447  0.5800 -0.2260
  813MOL0     H12126   8.796  10.484   0.656 -1.1205  2.4630  1.3566
  813MOL0     H12127   8.867  10.708   0.696 -3.6183 -1.9279 -1.9514
  813MOL0     H12128   8.860  10.850   0.586 -0.7836  0.4530  2.5309
  813MOL0     H12129   9.076  10.766   0.479 -2.6820  2.7766 -0.3069
  813MOL0     H12130   9.085  10.841   0.642  1.3956 -1.4437  1.6463
  813MOL0     H12131   9.123  10.627   0.744 -0.2562 -1.4506 -0.3888
  813MOL0     H12132   9.118  10.540   0.582 -2.9400  1.1704 -1.5973
  813MOL0     H12133   9.311  10.670   0.512 -4.0198 -0.7845 -0.9900
  813MOL0     H12134   9.325  10.724   0.691  1.2055 -0.1127 -0.3883
  813MOL0     H12135   9.366  10.451   0.567  1.1887  0.7413  1.2078
  813MOL0     H12136   9.313  10.466   0.725 -0.5563 -0.1359 -0.8368
  813MOL0     H12137   9.559  10.594   0.610 -0.1186  1.6779  0.8847
  813MOL0     H12138   9.513  10.601   0.790 -2.8832 -3.9062  2.3006
  813MOL0     H12139   9.577  10.348   0.644 -1.1682 -1.2843  1.3825
  813MOL0     H12140   9.520  10.366   0.815 -1.4319  0.2122 -0.6740
  813MOL0     H12141   9.786  10.469   0.691 -0.1290 -0.7759  0.3046
  813MOL0     H12142   9.734  10.535   0.834  0.5918 -0.8054  0.2437
  813MOL0     H12143   9.880  10.214   0.665  1.5367 -0.7984  0.2036
  813MOL0     H12144   9.982   9.994   0.774  0.7898  2.7779  1.8469
  813MOL0     H12145   9.831   9.917   0.838 -0.6074 -0.8376  0.5158
  813MOL0     H12146   9.922   9.911   1.064 -0.2952  1.0542  0.5363
  813MOL0     H12147  10.037   9.849   0.963 -0.1566  0.0817  0.6565
  813MOL0     H12148  10.188  10.030   0.992 -0.6838  1.4236 -1.8266
  813MOL0     H12149  10.069  10.141   1.040 -0.1987 -0.7748  0.0515
  813MOL0     H12150  10.015  10.043   1.246 -1.0226  2.8200 -2.7680
  813MOL0     H12151  10.102   9.895   1.215 -0.9109 -0.2194  0.0173
  813MOL0     H12152  10.051   9.993   1.476  1.0956 -4.0674 -1.4997
  813MOL0     H12153   9.995  10.035   1.706 -1.4301  0.3395  2.8117
  813MOL0     H12154  10.123  10.073   1.822 -0.9362 -0.2973 -0.0857
  813MOL0     H12155  10.112   9.904   1.750  0.3905  0.1286 -1.2829
  813MOL0     H12156  10.608  10.348   1.898  2.7366  0.2418 -1.0109
  813MOL0     H12157  10.769  10.355   2.100  1.3939 -1.5871 -0.1645
  813MOL0     H12158  10.845   9.970   2.344  0.4812 -0.1422  1.9864
  813MOL0     H12159  10.958   9.983   2.196  0.7612  2.3308 -1.1353
  813MOL0     H12160  11.083  10.147   2.301  0.5503  0.8428  1.9950
  813MOL0     H12161  10.985  10.117   2.451 -1.8428  0.2255 -0.9906
  813MOL0     H12162  11.141   9.886   2.301 -0.2684  1.9937 -1.9424
  813MOL0     H12163  11.083   9.885   2.466  2.3180  0.0575  0.4072
  813MOL0     H12164  11.321  10.050   2.399  0.1303 -0.2725 -0.8875
  813MOL0     H12165  11.297   9.907   2.492  0.2694  0.1769 -0.7826
  813MOL0     H12166  11.195  10.176   2.581  0.3293  0.9888  1.8308
  813MOL0     H12167  11.133  10.012   2.635  0.8818 -0.2091  1.4607
  813MOL0     H12168  11.424  10.104   2.641 -0.7209  2.5673  1.5143
  813MOL0     H12169  11.354   9.954   2.698  3.0340  0.4982 -1.9190
  813MOL0     H12170  11.207  10.136   2.853 -0.8965 -0.5077 -1.6037
  813MOL0     H12171  11.334  10.234   2.818 -1.7206  0.3174  0.3053
  813MOL0     H12172  11.427  10.141   3.011 -0.0916 -0.4079 -0.6339
  813MOL0     H12173  11.494  10.034   2.896  1.3209 -1.5319  4.3371
  813MOL0     H12174  10.731   9.934   2.131 -0.0533  0.1150  1.0721
  813MOL0     H12175  10.578   9.926   1.941 -0.5738  0.6480 -0.8699
  813MOL0     H12176  10.516  10.138   1.570 -0.2789  1.5025  2.2373
  813MOL0     H12177  10.448  10.130   1.332  0.8905 -0.6034  0.3037
  813MOL0     H12178   8.639  10.710   0.332 -2.5443  1.2818  0.9230
  813MOL0     H12179   8.440  10.566   0.337 -1.6792 -0.4272  1.8921
  813MOL0     H12180   8.158  10.378   0.478 -2.0787  0.5291 -0.9205
  813MOL0     H12181   7.935  10.336   0.549  0.0260  0.5525 -3.1086
  813MOL0     H12182   7.757  10.223   0.504 -0.5220 -0.0862 -0.8671
  813MOL0     H12183   7.657  10.087   0.525 -0.0033 -0.7980  2.4032
  813MOL0     H12184   7.594  10.297   0.654  3.0187  2.0958 -1.5194
  813MOL0     H12185   7.731  10.281   0.743 -1.1128  0.7870  1.1880
  813MOL0     H12186   7.657  10.037   0.819 -1.4057 -1.3482  0.2937
  813MOL0     H12187   7.569  10.176   0.878  1.6376 -1.3939  0.7174
  813MOL0     H12188   7.409   9.974   0.804  0.6096 -0.7559  1.1800
  813MOL0     H12189   7.480   9.984   0.651 -0.6397  0.7110 -0.9963
  813MOL0     H12190   7.188  10.308   0.696  2.0799  1.2154 -0.5273
  813MOL0     H12191   8.045   9.934   0.632 -2.6120 -0.1511 -1.0756
  813MOL0     H12192   8.358   9.919   0.533  0.2583 -0.9203  1.0455
  813MOL0     H12193   8.353   9.977   0.701 -0.9843 -1.6733  0.8839
  813MOL0     H12194   8.240   9.855   0.652 -0.0454  0.6505  1.6530
  814MOL0     O12195   5.688   6.018   5.872 -1.0232  0.6128  0.5955
  814MOL0     C12196   5.660   6.042   5.756 -0.3481  0.0727  1.2443
  814MOL0     O12197   5.737   6.009   5.649  0.0779  0.0699 -0.3313
  814MOL0     C12198   5.870   5.978   5.667  0.2926 -0.2991  0.1032
  814MOL0     C12199   5.967   6.053   5.730  0.2865 -0.3309  0.5216
  814MOL0     C12200   6.106   6.017   5.732  0.4066 -0.7799 -0.8007
  814MOL0     C12201   6.141   5.895   5.685  0.4357 -1.0684 -0.1454
  814MOL0     O12202   6.267   5.840   5.687 -0.2640  0.3405  0.0692
  814MOL0     C12203   6.370   5.896   5.763 -0.3985  0.8005  0.2353
  814MOL0     C12204   6.504   5.826   5.762  0.0159  0.2373 -0.2738
  814MOL0     C12205   6.558   5.794   5.628  0.3567  0.5637 -0.6297
  814MOL0     C12206   6.687   5.708   5.640 -0.2172 -0.4671  0.5276
  814MOL0     C12207   6.809   5.793   5.679 -0.7261 -0.1624 -0.8679
  814MOL0     C12208   6.942   5.713   5.683 -0.4890  0.0860  0.7375
  814MOL0     C12209   7.072   5.783   5.721  0.3610 -0.1603 -0.2455
  814MOL0     C12210   7.100   5.913   5.649  1.0917 -0.3758 -0.1581
  814MOL0     N12211   7.221   5.986   5.670  0.6076  0.1126 -0.2081
  814MOL0     C12212   7.337   5.979   5.590 -0.0351 -1.2045  0.5708
  814MOL0     C12213   7.408   6.085   5.634 -0.0333 -0.2695 -0.1875
  814MOL0     C12214   7.543   6.144   5.584 -0.5198  0.5106  0.3646
  814MOL0     C12215   7.603   6.232   5.697  0.3682  0.5118 -0.7298
  814MOL0     C12216   7.728   6.310   5.649  0.0807 -0.4509 -0.5005
  814MOL0     C12217   7.827   6.226   5.558  0.4445  0.8860 -1.0028
  814MOL0     O12218   7.900   6.132   5.636 -0.7768 -0.0477 -0.0642
  814MOL0     C12219   8.023   6.167   5.691 -0.0727  0.3978 -0.7537
  814MOL0     C12220   8.105   6.064   5.739  0.6911  0.1560  0.2366
  814MOL0     C12221   8.235   6.086   5.792  0.6699 -0.8990  0.5447
  814MOL0     C12222   8.299   5.964   5.846  0.0731  0.3201  0.6306
  814MOL0     C12223   8.289   6.212   5.806 -0.0016 -0.8767  0.1297
  814MOL0     C12224   8.425   6.252   5.859  1.2866  0.3460  0.0632
  814MOL0     O12225   8.441   6.381   5.889  0.1398  0.1041  0.5152
  814MOL0     C12226   8.557   6.425   5.946 -0.1597 -0.2570 -0.5540
  814MOL0     C12227   8.622   6.534   5.882 -0.3131  0.4135 -0.3359
  814MOL0     C12228   8.729   6.595   5.953 -0.6244  0.0783 -0.0235
  814MOL0     C12229   8.785   6.542   6.069  0.5112 -0.5438  0.3782
  814MOL0     O12230   8.906   6.601   6.104 -0.3183 -0.1111 -0.8178
  814MOL0     C12231   9.002   6.514   6.151 -0.4976  1.1997  0.6595
  814MOL0     C12232   9.130   6.602   6.203 -0.0766  0.3783  0.2137
  814MOL0     C12233   9.201   6.661   6.074  0.0375  0.4147 -0.1594
  814MOL0     C12234   9.352   6.695   6.106 -0.3988 -0.6010  0.7405
  814MOL0     C12235   9.435   6.754   5.983 -0.0166  0.3885 -1.0865
  814MOL0     C12236   9.394   6.900   5.971  0.3625 -0.2268  0.3303
  814MOL0     C12237   9.489   6.982   5.879  0.1655 -0.3968 -0.1830
  814MOL0     C12238   9.468   7.136   5.878  0.2817 -0.6764 -0.2669
  814MOL0    Cl12239   9.553   7.217   6.027 -0.2496  0.1444  0.4730
  814MOL0     C12240   8.722   6.435   6.128  0.2215 -0.6778 -0.4389
  814MOL0     C12241   8.603   6.384   6.071  0.1741  1.0038  0.2155
  814MOL0     O12242   8.504   6.162   5.891 -0.0308 -0.0356 -0.2741
  814MOL0     C12243   8.208   6.319   5.752  1.0427 -0.1273  0.4509
  814MOL0     C12244   8.078   6.294   5.696  0.2981  0.1809  0.5313
  814MOL0     N12245   7.349   6.129   5.757  0.4966  0.2823  1.0029
  814MOL0     N12246   7.228   6.078   5.768  0.1145  0.1898  0.2767
  814MOL0     C12247   6.048   5.809   5.626  0.2298  0.3361  0.7249
  814MOL0     C12248   5.907   5.851   5.615 -0.8773  0.2301  0.4135
  814MOL0     C12249   5.543   6.124   5.728  0.8987  0.8078  0.1526
  814MOL0     C12250   5.543   6.186   5.604 -0.2034 -0.3336  0.0308
  814MOL0     C12251   5.423   6.237   5.542  0.6122 -0.9180  0.0123
  814MOL0     C12252   5.302   6.237   5.612 -0.4358  0.8344  0.2997
  814MOL0     O12253   5.184   6.267   5.550 -0.3337 -0.5926  0.1118
  814MOL0     C12254   5.102   6.366   5.616 -0.2041  0.3424  0.5090
  814MOL0     C12255   4.952   6.360   5.573  0.1946  0.6550 -0.6747
  814MOL0     C12256   4.881   6.235   5.630 -0.9121  0.1346 -0.0090
  814MOL0     C12257   4.731   6.233   5.601 -0.5719  0.3007  0.0686
  814MOL0     C12258   4.658   6.338   5.682  0.1398  0.4462  0.6261
  814MOL0     C12259   4.599   6.421   5.747  0.1711  0.5646  0.7142
  814MOL0     C12260   5.302   6.179   5.738 -0.5302 -0.1959  0.5022
  814MOL0     C12261   5.416   6.127   5.796 -0.0215  0.2409 -0.3991
  814MOL0     C12262   5.393   6.065   5.931  0.1061  0.9886  0.3597
  814MOL0     H12263   5.924   6.146   5.768  0.5987  0.0968 -0.1502
  814MOL0     H12264   6.180   6.087   5.771 -0.6222  0.0772 -0.3179
  814MOL0     H12265   6.336   5.920   5.864 -0.5038  0.0924  0.3693
  814MOL0     H12266   6.394   5.997   5.728 -0.6741  1.1978  1.1605
  814MOL0     H12267   6.573   5.897   5.810 -2.0215  1.5236  0.9233
  814MOL0     H12268   6.500   5.741   5.831  1.4400  1.2921  1.1760
  814MOL0     H12269   6.482   5.748   5.565 -1.2944  2.4067 -0.0698
  814MOL0     H12270   6.582   5.886   5.574  0.1459  1.8832  1.4113
  814MOL0     H12271   6.678   5.638   5.724 -2.9840  1.8036  2.3419
  814MOL0     H12272   6.701   5.649   5.549  0.0967 -3.4810  2.3957
  814MOL0     H12273   6.797   5.840   5.778 -1.1008 -0.3577 -0.8180
  814MOL0     H12274   6.811   5.868   5.600  1.7746  0.4154 -0.3548
  814MOL0     H12275   6.932   5.645   5.769 -1.3328 -0.7040  0.0446
  814MOL0     H12276   6.950   5.649   5.595 -2.3101 -0.0512  0.6155
  814MOL0     H12277   7.154   5.711   5.711  0.3803  0.0530 -1.9231
  814MOL0     H12278   7.069   5.816   5.825 -0.6911 -0.0708 -0.2891
  814MOL0     H12279   7.096   5.908   5.540 -1.8197  0.2264 -0.1515
  814MOL0     H12280   7.022   5.983   5.679 -0.0487 -0.1565 -3.2681
  814MOL0     H12281   7.362   5.914   5.507 -1.0358 -0.6778 -0.1738
  814MOL0     H12282   7.542   6.192   5.485 -0.4598 -0.0694  0.0738
  814MOL0     H12283   7.618   6.064   5.581  1.3737  2.2198  0.0399
  814MOL0     H12284   7.529   6.304   5.734 -0.1734 -0.1710 -0.4635
  814MOL0     H12285   7.636   6.185   5.790  0.4575  2.9663  0.5652
  814MOL0     H12286   7.692   6.389   5.582 -3.1474 -2.5195 -1.4157
  814MOL0     H12287   7.784   6.351   5.734  0.9519  1.8032 -2.0528
  814MOL0     H12288   7.772   6.172   5.480 -0.5118  2.1000 -1.2012
  814MOL0     H12289   7.886   6.297   5.500 -0.1502  2.1310 -0.1405
  814MOL0     H12290   8.068   5.962   5.738 -2.4381  1.1912 -0.8057
  814MOL0     H12291   8.234   5.877   5.831 -1.2071  1.0300  1.8243
  814MOL0     H12292   8.310   5.969   5.954 -0.6717  0.3265  0.7172
  814MOL0     H12293   8.396   5.947   5.799 -0.2533 -2.7123  0.8838
  814MOL0     H12294   8.568   6.566   5.794  0.6819 -1.5970 -1.7466
  814MOL0     H12295   8.787   6.670   5.900 -1.6185 -0.8427 -2.5865
  814MOL0     H12296   8.955   6.460   6.235 -2.2379 -0.4882 -1.2767
  814MOL0     H12297   9.039   6.437   6.082 -3.1707 -1.9395  2.3992
  814MOL0     H12298   9.083   6.683   6.260 -1.9542  1.1498 -2.2252
  814MOL0     H12299   9.204   6.549   6.263 -1.3805 -1.8241  0.0155
  814MOL0     H12300   9.148   6.751   6.039  2.7872  1.9403 -0.7144
  814MOL0     H12301   9.198   6.591   5.989 -1.0672 -0.9986  1.0008
  814MOL0     H12302   9.405   6.602   6.128  0.7385 -0.6407 -1.7810
  814MOL0     H12303   9.358   6.757   6.196 -0.1806 -1.1544  1.1090
  814MOL0     H12304   9.543   6.766   5.995  0.4595 -1.4473 -3.0206
  814MOL0     H12305   9.406   6.701   5.892  0.6738  2.2568 -2.4679
  814MOL0     H12306   9.390   6.951   6.067 -0.2473 -0.4478  0.4258
  814MOL0     H12307   9.291   6.902   5.934  0.4573 -0.0711  0.0653
  814MOL0     H12308   9.458   6.951   5.778 -2.2544  0.6101  0.1681
  814MOL0     H12309   9.594   6.957   5.896  1.0844  0.6543 -3.4504
  814MOL0     H12310   9.362   7.163   5.879  0.1167 -1.2031  1.9439
  814MOL0     H12311   9.507   7.173   5.782  0.1389 -2.5865 -1.1142
  814MOL0     H12312   8.761   6.401   6.223 -0.0590  1.8591  0.6871
  814MOL0     H12313   8.557   6.306   6.131  1.5305 -0.7834 -0.9869
  814MOL0     H12314   8.244   6.422   5.745 -1.3114  0.6471 -2.2078
  814MOL0     H12315   8.033   6.383   5.653 -0.1310 -0.0484  0.4908
  814MOL0     H12316   6.086   5.714   5.588  0.2336 -0.3856  2.4592
  814MOL0     H12317   5.832   5.792   5.564 -2.5035  0.7500  2.0842
  814MOL0     H12318   5.638   6.192   5.552  0.3590 -1.7067  0.8326
  814MOL0     H12319   5.429   6.280   5.442 -2.2092 -1.5218 -0.4934
  814MOL0     H12320   5.103   6.341   5.722  2.8807  0.2273  0.5217
  814MOL0     H12321   5.141   6.466   5.598  2.5812 -0.1032  3.3003
  814MOL0     H12322   4.962   6.355   5.464  5.3814 -1.9310 -0.3737
  814MOL0     H12323   4.907   6.451   5.613 -1.0839  0.5139 -1.7302
  814MOL0     H12324   4.938   6.151   5.590 -0.1359  0.8703 -0.4948
  814MOL0     H12325   4.902   6.226   5.737 -0.4653 -1.0971 -0.1881
  814MOL0     H12326   4.697   6.131   5.619  0.2854  0.1635  1.0867
  814MOL0     H12327   4.719   6.246   5.494  0.4296 -3.3317 -0.6160
  814MOL0     H12328   4.538   6.490   5.801 -1.5103  1.6048 -2.2674
  814MOL0     H12329   5.209   6.148   5.784 -1.4905  2.4811  0.5372
  814MOL0     H12330   5.307   5.997   5.935  0.3312  0.6372 -0.4663
  814MOL0     H12331   5.476   6.002   5.964 -0.4102  1.2483  2.2681
  814MOL0     H12332   5.388   6.146   6.004  2.8773  0.0035  1.7929
  815MOL0     O12333   3.823   0.890   8.642  0.3684 -0.1714 -0.3065
  815MOL0     C12334   3.708   0.930   8.652  0.1576 -0.5461 -0.0584
  815MOL0     O12335   3.649   1.027   8.574 -0.1142  0.6681  0.3896
  815MOL0     C12336   3.730   1.091   8.476 -0.0178 -0.2220  0.5000
  815MOL0     C12337   3.861   1.141   8.493  0.7146 -0.4072 -0.4591
  815MOL0     C12338   3.929   1.204   8.388 -0.6298 -0.4465  0.3284
  815MOL0     C12339   3.877   1.210   8.258  0.2222 -0.4233 -0.6892
  815MOL0     O12340   3.948   1.261   8.163 -0.1957 -0.6547  0.3416
  815MOL0     C12341   3.895   1.261   8.031  0.8114 -0.0574  0.0146
  815MOL0     C12342   3.984   1.325   7.925 -0.6652  1.1681 -0.1022
  815MOL0     C12343   4.130   1.263   7.912 -0.7000  0.0395 -0.2135
  815MOL0     C12344   4.215   1.353   7.819 -0.3449 -0.5960  0.3182
  815MOL0     C12345   4.364   1.309   7.832  0.2921  0.1188 -0.7203
  815MOL0     C12346   4.459   1.408   7.759 -0.5340  0.2967 -0.2378
  815MOL0     C12347   4.611   1.375   7.785 -0.2823  0.0711 -0.6795
  815MOL0     C12348   4.702   1.482   7.718  0.3525  0.1545 -0.0408
  815MOL0     N12349   4.831   1.480   7.794 -0.1846  0.3343 -0.1291
  815MOL0     C12350   4.918   1.367   7.798 -0.1969 -0.4702 -0.2731
  815MOL0     C12351   4.987   1.385   7.912  0.4615 -0.5887 -0.5273
  815MOL0     C12352   5.075   1.283   7.975  0.5307  0.0913  0.2006
  815MOL0     C12353   5.170   1.337   8.086  0.8276  0.5514  0.1504
  815MOL0     C12354   5.286   1.414   8.027  0.3700 -0.9327 -0.3548
  815MOL0     C12355   5.383   1.333   7.945  0.5014  0.2685 -0.6252
  815MOL0     O12356   5.408   1.200   7.994 -0.1855 -0.4382 -0.8063
  815MOL0     C12357   5.507   1.133   7.936  0.4953 -0.0572  0.5827
  815MOL0     C12358   5.514   0.998   7.964  0.2729  0.1473  0.0250
  815MOL0     C12359   5.612   0.910   7.923 -0.9605  0.1046 -0.4197
  815MOL0     C12360   5.620   0.764   7.981 -0.6603 -0.1047 -0.8926
  815MOL0     C12361   5.699   0.958   7.816 -0.0913  0.4039  0.1545
  815MOL0     C12362   5.800   0.868   7.751  0.0144 -0.5578  0.0437
  815MOL0     O12363   5.778   0.735   7.751 -0.6101 -0.1145  0.1925
  815MOL0     C12364   5.873   0.650   7.696  0.1126 -0.6974 -0.1852
  815MOL0     C12365   5.991   0.613   7.763  0.2415 -0.0666  0.5611
  815MOL0     C12366   6.087   0.527   7.696 -0.4736  0.5854 -0.1482
  815MOL0     C12367   6.054   0.479   7.571 -0.0472 -0.2269  0.1344
  815MOL0     O12368   6.137   0.403   7.490 -0.1174  0.1331  0.6195
  815MOL0     C12369   6.269   0.365   7.546 -0.0580  0.4265 -0.1234
  815MOL0     C12370   6.338   0.291   7.424 -0.2709  0.0871  0.6295
  815MOL0     C12371   6.396   0.391   7.320  0.0428 -1.1450 -0.6277
  815MOL0     C12372   6.477   0.312   7.209 -0.3208 -0.5597  0.6241
  815MOL0     C12373   6.550   0.401   7.100 -0.2802 -0.1921  0.0774
  815MOL0     C12374   6.622   0.319   6.998  1.5112 -0.1912  0.3227
  815MOL0     C12375   6.716   0.218   7.052  0.0761  0.5950 -0.1373
  815MOL0     C12376   6.744   0.106   6.943  0.5039  0.5478  0.1472
  815MOL0    Cl12377   6.807   0.180   6.798  0.3691 -0.1198 -0.2318
  815MOL0     C12378   5.934   0.514   7.510 -0.5307 -0.5813 -0.3316
  815MOL0     C12379   5.845   0.599   7.567  0.3194 -0.6163  0.9817
  815MOL0     O12380   5.910   0.926   7.712  0.2402  0.6121 -0.1405
  815MOL0     C12381   5.692   1.091   7.777 -0.2814  0.3566 -0.2709
  815MOL0     C12382   5.587   1.171   7.828  0.0040 -0.7263 -0.9104
  815MOL0     N12383   4.956   1.511   7.965  0.5576  0.6397 -0.3605
  815MOL0     N12384   4.863   1.561   7.896  0.3699  0.3717  0.1858
  815MOL0     C12385   3.752   1.158   8.235 -0.2039  1.0733 -0.9470
  815MOL0     C12386   3.674   1.099   8.343 -0.8561  0.4017 -0.2183
  815MOL0     C12387   3.627   0.900   8.762 -0.1790 -0.4401 -0.8525
  815MOL0     C12388   3.568   1.008   8.831  0.7933  0.1262  0.4848
  815MOL0     C12389   3.482   0.986   8.935 -0.3897  0.7682  0.0144
  815MOL0     C12390   3.475   0.857   8.992 -0.4692 -0.4024 -0.3898
  815MOL0     O12391   3.382   0.834   9.091  0.2476  0.7667 -0.1014
  815MOL0     C12392   3.414   0.763   9.214 -0.1086 -0.2347 -0.6676
  815MOL0     C12393   3.492   0.866   9.312 -0.5620  0.0550  0.0873
  815MOL0     C12394   3.404   0.989   9.341  0.0093 -0.2202 -0.0132
  815MOL0     C12395   3.319   0.968   9.463  0.2078  0.7923  0.1512
  815MOL0     C12396   3.214   0.870   9.459  0.2047 -0.1414 -0.0125
  815MOL0     C12397   3.127   0.794   9.448  0.4140  0.5803 -0.4724
  815MOL0     C12398   3.547   0.755   8.933 -0.6830 -0.0613 -0.0953
  815MOL0     C12399   3.609   0.772   8.810  0.1501 -0.7278 -0.1709
  815MOL0     C12400   3.656   0.652   8.731  0.2730 -0.1962 -0.4957
  815MOL0     H12401   3.882   1.136   8.600  0.5255  2.3314 -0.2132
  815MOL0     H12402   4.025   1.252   8.407  1.5774 -3.1891 -2.7182
  815MOL0     H12403   3.799   1.314   8.026  0.2476 -1.1526 -1.5487
  815MOL0     H12404   3.875   1.155   8.009 -3.5856  0.3923  0.8275
  815MOL0     H12405   3.944   1.351   7.826  1.9462  1.4474 -1.1536
  815MOL0     H12406   4.011   1.420   7.972  2.8600  0.7511 -1.0100
  815MOL0     H12407   4.177   1.264   8.011  2.4381 -0.3380 -1.5887
  815MOL0     H12408   4.110   1.159   7.884 -2.4493  0.2279  0.2013
  815MOL0     H12409   4.181   1.334   7.716  2.9032 -3.1083 -0.4793
  815MOL0     H12410   4.209   1.456   7.854 -0.3436 -0.5590  0.2095
  815MOL0     H12411   4.381   1.207   7.794 -1.2225 -0.3577 -0.1676
  815MOL0     H12412   4.388   1.296   7.938  0.1106 -0.2237 -0.7193
  815MOL0     H12413   4.447   1.405   7.650  1.0314 -0.3023 -0.4160
  815MOL0     H12414   4.429   1.510   7.783  1.2998  1.3639 -2.1130
  815MOL0     H12415   4.644   1.274   7.756 -4.9473 -1.3874 -1.7452
  815MOL0     H12416   4.626   1.392   7.892  1.1958 -2.5661 -0.3577
  815MOL0     H12417   4.721   1.462   7.612 -1.8521 -0.4295 -0.3804
  815MOL0     H12418   4.654   1.580   7.730  2.8698  1.2215  2.3041
  815MOL0     H12419   4.914   1.280   7.734 -2.4467  0.4926 -1.5728
  815MOL0     H12420   5.134   1.242   7.893 -2.4698  1.8019 -3.1061
  815MOL0     H12421   5.016   1.201   8.016  1.9462 -0.7916  0.5219
  815MOL0     H12422   5.118   1.401   8.157 -0.4348 -3.3224  3.0630
  815MOL0     H12423   5.207   1.250   8.140 -1.8466 -1.0329 -0.3813
  815MOL0     H12424   5.261   1.507   7.975  1.1114 -1.2283 -1.2875
  815MOL0     H12425   5.346   1.445   8.113 -0.6432  0.0284  0.0272
  815MOL0     H12426   5.345   1.339   7.843 -1.4171  1.2077  0.0883
  815MOL0     H12427   5.475   1.390   7.958  0.3554  0.3382  0.1860
  815MOL0     H12428   5.430   0.967   8.026 -0.6104  0.9452 -0.7308
  815MOL0     H12429   5.723   0.735   8.002  0.5378  4.0416 -0.0452
  815MOL0     H12430   5.563   0.689   7.925 -1.3051 -2.6074  2.7899
  815MOL0     H12431   5.575   0.771   8.080 -0.0042  2.0873 -0.6888
  815MOL0     H12432   6.005   0.665   7.856  2.3713  2.2687 -0.9352
  815MOL0     H12433   6.177   0.490   7.743 -1.7921 -1.7848  0.6888
  815MOL0     H12434   6.328   0.450   7.581  0.2009  0.8567 -1.5468
  815MOL0     H12435   6.250   0.305   7.635  3.0643 -0.8824 -0.1937
  815MOL0     H12436   6.417   0.219   7.448 -0.4267 -1.8974 -3.8728
  815MOL0     H12437   6.260   0.233   7.373 -1.7585  0.2408  2.6198
  815MOL0     H12438   6.461   0.469   7.361 -2.1019  2.5365 -3.5014
  815MOL0     H12439   6.320   0.456   7.275  0.7426  0.1937  0.0680
  815MOL0     H12440   6.412   0.246   7.151  0.1636 -0.6843  0.2142
  815MOL0     H12441   6.561   0.265   7.262  1.4864  1.3234 -0.4430
  815MOL0     H12442   6.468   0.458   7.055  0.3661  0.7497  0.0505
  815MOL0     H12443   6.615   0.477   7.145  3.5134 -3.1799  0.1165
  815MOL0     H12444   6.685   0.374   6.928  2.7404 -2.1837 -0.2328
  815MOL0     H12445   6.539   0.271   6.945 -0.7080  1.1640  2.3757
  815MOL0     H12446   6.674   0.169   7.141 -0.8792  1.2404 -0.2138
  815MOL0     H12447   6.811   0.265   7.078  1.3143 -1.4881 -0.6365
  815MOL0     H12448   6.647   0.061   6.922  1.0462 -0.3497 -0.4817
  815MOL0     H12449   6.820   0.034   6.976  0.5223  1.9987  3.8273
  815MOL0     H12450   5.914   0.495   7.405 -3.0100 -1.2096  0.1913
  815MOL0     H12451   5.755   0.630   7.515  0.5118  0.6172  1.3474
  815MOL0     H12452   5.756   1.130   7.699  0.1398  2.7171  1.1602
  815MOL0     H12453   5.574   1.265   7.775 -0.2540 -1.3988 -2.0661
  815MOL0     H12454   3.702   1.153   8.139 -0.1036 -0.1778 -0.9622
  815MOL0     H12455   3.573   1.060   8.332 -1.1900  0.0740  2.9488
  815MOL0     H12456   3.570   1.110   8.793 -1.3880 -0.2965 -0.9539
  815MOL0     H12457   3.419   1.062   8.978  0.3220  1.1432  0.4045
  815MOL0     H12458   3.320   0.727   9.257 -0.6499  2.6482  0.8552
  815MOL0     H12459   3.470   0.676   9.179 -0.4321 -0.5760 -0.3502
  815MOL0     H12460   3.585   0.898   9.265 -0.8046 -0.6259 -0.8738
  815MOL0     H12461   3.533   0.819   9.402 -0.6307 -0.8032 -0.3189
  815MOL0     H12462   3.469   1.073   9.364  0.5583 -0.8484  0.7681
  815MOL0     H12463   3.336   1.005   9.257 -0.6424 -2.1841  0.0760
  815MOL0     H12464   3.282   1.061   9.507 -0.5416  0.5796 -0.0049
  815MOL0     H12465   3.389   0.918   9.530  1.3470  0.4063 -1.2694
  815MOL0     H12466   3.045   0.727   9.463  0.6763  0.4708  0.5121
  815MOL0     H12467   3.543   0.656   8.978 -0.4295  0.4963  1.1998
  815MOL0     H12468   3.758   0.620   8.755  0.2794 -0.6150 -1.0377
  815MOL0     H12469   3.588   0.568   8.753  0.3619  0.1119  1.0117
  815MOL0     H12470   3.648   0.679   8.625  2.5988  1.6408 -0.2734
  816MOL0     O12471   6.563  10.202   4.076  0.4655 -0.0805 -0.5549
  816MOL0     C12472   6.459  10.252   4.027 -0.5139  0.1855 -0.0042
  816MOL0     O12473   6.458  10.343   3.923 -0.3446  0.3452 -0.5386
  816MOL0     C12474   6.554  10.414   3.865 -0.5541 -0.2243 -0.2282
  816MOL0     C12475   6.679  10.428   3.912 -0.2416  0.1511 -1.1732
  816MOL0     C12476   6.769  10.506   3.845 -0.1626  0.3251 -0.9466
  816MOL0     C12477   6.735  10.568   3.728  0.0072 -0.0772 -0.0937
  816MOL0     O12478   6.832  10.650   3.680 -0.5147 -0.5768  0.3840
  816MOL0     C12479   6.840  10.677   3.535 -0.5149 -0.8326  0.1389
  816MOL0     C12480   6.984  10.724   3.502 -0.4499 -1.2512  0.0078
  816MOL0     C12481   7.069  10.603   3.494  0.4464 -0.1291 -0.5250
  816MOL0     C12482   7.212  10.640   3.475  0.5791 -0.7684  1.0155
  816MOL0     C12483   7.315  10.530   3.497 -0.2787  0.1056  0.4564
  816MOL0     C12484   7.456  10.595   3.496  0.1795 -0.3154  0.1854
  816MOL0     C12485   7.573  10.489   3.511  0.9471  0.6349  0.3734
  816MOL0     C12486   7.711  10.538   3.461 -0.4956 -0.3512 -0.2840
  816MOL0     N12487   7.814  10.428   3.469 -0.0152 -0.4361 -0.8731
  816MOL0     C12488   7.926  10.435   3.388 -1.0753  1.1548  0.7835
  816MOL0     C12489   7.997  10.327   3.424  0.2645 -0.4609 -1.0554
  816MOL0     C12490   8.131  10.293   3.366  0.5006  0.2009 -0.0974
  816MOL0     C12491   8.239  10.242   3.466 -0.9424 -0.5472  0.2909
  816MOL0     C12492   8.376  10.209   3.399  0.0905 -0.5481  0.1607
  816MOL0     C12493   8.455  10.321   3.323 -0.0977  0.1381 -0.2650
  816MOL0     O12494   8.559  10.265   3.246 -0.2596 -0.5097 -0.1626
  816MOL0     C12495   8.665  10.208   3.319  0.2486  0.7737 -0.1557
  816MOL0     C12496   8.724  10.263   3.432 -0.3282  0.6143  0.5029
  816MOL0     C12497   8.819  10.195   3.501 -0.2508 -0.1608  0.1247
  816MOL0     C12498   8.879  10.273   3.622 -0.1113  0.0363  0.2434
  816MOL0     C12499   8.866  10.063   3.460  0.0924  0.4019 -0.7461
  816MOL0     C12500   8.966   9.974   3.539  0.2233  0.5807  0.3295
  816MOL0     O12501   9.022   9.863   3.475 -0.5873  0.4513  0.0780
  816MOL0     C12502   9.114   9.770   3.529  0.9902  0.7442  0.0352
  816MOL0     C12503   9.231   9.821   3.598 -1.3998  0.2183  0.0892
  816MOL0     C12504   9.333   9.730   3.639 -0.4526 -0.0213 -0.0595
  816MOL0     C12505   9.312   9.591   3.624 -0.3354 -0.4698 -0.2202
  816MOL0     O12506   9.407   9.514   3.683  0.5461  0.4073  0.4638
  816MOL0     C12507   9.373   9.380   3.735 -0.0060 -0.7559  0.3661
  816MOL0     C12508   9.320   9.397   3.870  0.4361 -0.0471  0.1705
  816MOL0     C12509   9.181   9.452   3.890  0.7258 -0.1975  0.0593
  816MOL0     C12510   9.187   9.594   3.942 -0.1118  0.3599 -0.1667
  816MOL0     C12511   9.059   9.643   4.000  0.0917  0.5873  0.5516
  816MOL0     C12512   9.066   9.778   4.061 -0.0110  0.6368 -0.1158
  816MOL0     C12513   8.926   9.794   4.122  0.9492 -0.7349 -0.5274
  816MOL0     C12514   8.876   9.941   4.138 -0.7194  0.7673  0.4489
  816MOL0    Cl12515   8.928   9.997   4.301 -0.3693 -0.1484  0.3340
  816MOL0     C12516   9.197   9.553   3.549  0.3733  0.4029 -0.3778
  816MOL0     C12517   9.095   9.638   3.505 -0.1289  0.3843 -0.1800
  816MOL0     O12518   8.978   9.989   3.664 -0.7287 -0.2405  0.0742
  816MOL0     C12519   8.802  10.006   3.354 -0.0232 -0.5303  0.6490
  816MOL0     C12520   8.710  10.082   3.281 -0.0295 -0.2727 -0.6230
  816MOL0     N12521   7.932  10.254   3.524  0.4036 -0.4605 -0.0206
  816MOL0     N12522   7.818  10.314   3.552  0.5707 -0.2246  0.2388
  816MOL0     C12523   6.614  10.549   3.674  0.1379 -0.9924  0.9405
  816MOL0     C12524   6.519  10.481   3.745 -0.0178 -0.0097  0.4567
  816MOL0     C12525   6.329  10.190   4.066  0.5407  0.0991 -0.9917
  816MOL0     C12526   6.209  10.234   4.000 -0.9479  0.5403  0.2130
  816MOL0     C12527   6.082  10.172   4.019  0.0351 -0.4748  0.1631
  816MOL0     C12528   6.069  10.077   4.122  0.3762 -0.1086 -0.2865
  816MOL0     O12529   5.959  10.008   4.144 -0.4541 -0.2361  0.3067
  816MOL0     C12530   5.855  10.030   4.041 -0.3053 -0.1655 -0.1853
  816MOL0     C12531   5.734   9.939   4.061 -1.0349  0.2194  0.3309
  816MOL0     C12532   5.766   9.796   4.008 -0.1858 -0.0912 -0.1870
  816MOL0     C12533   5.633   9.714   3.996  0.2289  0.0269  0.8961
  816MOL0     C12534   5.540   9.755   3.892 -1.1036  0.7967  0.9533
  816MOL0     C12535   5.456   9.787   3.804  0.6174  1.2044 -0.7693
  816MOL0     C12536   6.184  10.040   4.192 -0.8599  0.3716 -1.0570
  816MOL0     C12537   6.317  10.085   4.165  0.7324 -0.2476  0.4792
  816MOL0     C12538   6.432  10.023   4.247  0.2908 -0.1164  0.4987
  816MOL0     H12539   6.715  10.380   4.003  0.8443  1.2001 -1.0263
  816MOL0     H12540   6.870  10.510   3.885 -1.3673 -3.0126  3.1729
  816MOL0     H12541   6.777  10.764   3.509  2.2895  0.7251 -2.0189
  816MOL0     H12542   6.810  10.593   3.473 -3.6871  0.3186 -0.1060
  816MOL0     H12543   6.999  10.790   3.416  2.8388 -2.1859 -0.2505
  816MOL0     H12544   7.017  10.783   3.588 -0.5007 -1.6825  0.3300
  816MOL0     H12545   7.060  10.562   3.596 -0.7848  2.7382  0.6251
  816MOL0     H12546   7.043  10.540   3.408  1.1768  0.0176 -0.8578
  816MOL0     H12547   7.225  10.681   3.374 -0.7583 -2.6518  0.0052
  816MOL0     H12548   7.248  10.710   3.551  1.5993  0.1820 -0.3085
  816MOL0     H12549   7.310  10.447   3.426 -5.2717  0.0457  0.5179
  816MOL0     H12550   7.304  10.490   3.598 -0.0272 -0.7008  0.1723
  816MOL0     H12551   7.473  10.656   3.407  2.1143  2.0289  2.0171
  816MOL0     H12552   7.463  10.665   3.579 -0.2241 -0.7288  0.5782
  816MOL0     H12553   7.530  10.416   3.442  0.4333  2.3736 -1.2334
  816MOL0     H12554   7.582  10.453   3.613  1.8887  1.9999  0.7997
  816MOL0     H12555   7.711  10.561   3.354 -0.5268  0.1868 -0.1718
  816MOL0     H12556   7.744  10.626   3.516 -0.0250 -0.4426 -0.4117
  816MOL0     H12557   7.957  10.514   3.320 -1.3170  2.5553  2.2413
  816MOL0     H12558   8.161  10.383   3.311 -0.2668  0.1402 -0.6183
  816MOL0     H12559   8.116  10.212   3.294 -0.1587 -0.7978  1.1077
  816MOL0     H12560   8.246  10.321   3.541 -1.8879 -1.7988  1.7583
  816MOL0     H12561   8.212  10.150   3.519  1.0516 -2.4848 -1.7919
  816MOL0     H12562   8.447  10.171   3.473  1.2635 -0.3706 -0.8480
  816MOL0     H12563   8.346  10.139   3.321 -2.7789  1.4054 -0.6852
  816MOL0     H12564   8.392  10.356   3.241 -1.7322 -0.1418  0.8159
  816MOL0     H12565   8.479  10.403   3.391  0.7771  0.7944 -1.3449
  816MOL0     H12566   8.696  10.365   3.456  2.0896  1.4534 -0.0220
  816MOL0     H12567   8.984  10.242   3.621 -0.6220 -1.8479  0.6666
  816MOL0     H12568   8.842  10.242   3.721  0.6955 -2.8888 -0.2602
  816MOL0     H12569   8.859  10.378   3.601 -0.0266  0.4986  2.2607
  816MOL0     H12570   9.239   9.922   3.636 -2.0517  0.0388  0.7425
  816MOL0     H12571   9.418   9.777   3.688  2.6701 -2.0744 -3.0346
  816MOL0     H12572   9.308   9.323   3.667  1.0756 -1.6909  0.0809
  816MOL0     H12573   9.467   9.325   3.733  0.2648 -0.2838 -1.4231
  816MOL0     H12574   9.330   9.304   3.926 -0.7770  0.2365  0.8780
  816MOL0     H12575   9.389   9.464   3.922  0.2679 -0.7526  1.3385
  816MOL0     H12576   9.135   9.394   3.970  0.7290  1.4642  1.3225
  816MOL0     H12577   9.123   9.459   3.797 -1.1635 -1.3065  1.1003
  816MOL0     H12578   9.232   9.657   3.866  2.3445 -1.2924 -0.1868
  816MOL0     H12579   9.253   9.595   4.029 -0.9789  0.9088  0.5134
  816MOL0     H12580   8.979   9.636   3.926  0.6167 -2.5222  0.1459
  816MOL0     H12581   9.033   9.576   4.082  1.2486  1.7003  1.8865
  816MOL0     H12582   9.091   9.846   3.979  0.2713  0.3567 -0.2618
  816MOL0     H12583   9.138   9.772   4.143  0.0648 -0.3303 -0.2402
  816MOL0     H12584   8.925   9.749   4.221  0.8250  1.9646  0.7836
  816MOL0     H12585   8.847   9.743   4.065 -2.5835  1.6807  1.7980
  816MOL0     H12586   8.768   9.929   4.134 -0.7405  0.7598  1.0137
  816MOL0     H12587   8.922   9.999   4.057  4.1145 -0.1207  2.1880
  816MOL0     H12588   9.182   9.450   3.521 -0.2294  0.4768 -0.3400
  816MOL0     H12589   9.003   9.607   3.456 -0.7146  1.4077  0.2636
  816MOL0     H12590   8.829   9.908   3.315 -0.2459 -0.7075  0.9296
  816MOL0     H12591   8.658  10.035   3.198 -1.1493  0.6797 -0.4792
  816MOL0     H12592   6.596  10.603   3.582  0.8379 -0.0573  1.3471
  816MOL0     H12593   6.414  10.464   3.719  0.0095 -1.2334  1.0813
  816MOL0     H12594   6.216  10.319   3.933 -0.4002  1.2682  1.1719
  816MOL0     H12595   6.002  10.195   3.950  2.1889 -1.4386 -2.8866
  816MOL0     H12596   5.820  10.133   4.051  1.0105  0.1939  1.0272
  816MOL0     H12597   5.889  10.019   3.937 -2.3056  3.1465 -1.3544
  816MOL0     H12598   5.647   9.977   4.008  0.0845  0.2081 -1.6059
  816MOL0     H12599   5.719   9.934   4.170 -0.6756 -0.4467  0.3567
  816MOL0     H12600   5.827   9.784   3.919  2.0332 -0.8218  1.3333
  816MOL0     H12601   5.818   9.740   4.087  2.2948 -0.2380 -1.8257
  816MOL0     H12602   5.574   9.725   4.088 -0.1789  1.1186  0.5180
  816MOL0     H12603   5.661   9.609   3.982 -0.5880 -0.0899  0.0824
  816MOL0     H12604   5.369   9.810   3.746  0.6193 -0.9322 -1.7130
  816MOL0     H12605   6.188   9.954   4.258  2.0959  1.2950  0.1410
  816MOL0     H12606   6.401   9.961   4.331  5.6289 -1.4953  1.7743
  816MOL0     H12607   6.480   9.961   4.171 -1.9103  0.1395 -1.2028
  816MOL0     H12608   6.512  10.084   4.289  2.4113 -4.4010  3.3591
  817MOL0     O12609  10.929   0.171   0.702  0.6296 -0.7211  0.2112
  817MOL0     C12610  10.938   0.049   0.687 -0.0368  1.0215  0.0381
  817MOL0     O12611  11.047  -0.017   0.649 -1.1120 -0.4183  0.0647
  817MOL0     C12612  11.164   0.062   0.631 -0.6368 -0.4479  0.4345
  817MOL0     C12613  11.214   0.167   0.717  0.3505  0.3387  1.2183
  817MOL0     C12614  11.337   0.232   0.697 -0.2412  0.8694 -0.0842
  817MOL0     C12615  11.417   0.179   0.595 -1.1089 -0.0822 -0.8329
  817MOL0     O12616  11.545   0.216   0.567 -0.5828 -0.0520 -0.2675
  817MOL0     C12617  11.594   0.320   0.643 -0.3009 -0.5347  0.3535
  817MOL0     C12618  11.742   0.340   0.595 -0.4098 -0.5736  0.4046
  817MOL0     C12619  11.812   0.466   0.650  0.0493 -0.0856 -0.6176
  817MOL0     C12620  11.833   0.474   0.800 -0.6162  0.2165  0.0278
  817MOL0     C12621  11.921   0.596   0.835  0.0264 -0.0784  0.5260
  817MOL0     C12622  11.844   0.728   0.832  0.4232 -0.0474 -0.6265
  817MOL0     C12623  11.917   0.857   0.887 -0.9435 -0.7638 -0.0735
  817MOL0     C12624  11.823   0.974   0.900  0.5052 -0.2503  0.0792
  817MOL0     N12625  11.892   1.097   0.934  0.0467  0.3451 -0.6667
  817MOL0     C12626  12.019   1.113   0.977  0.3934 -0.9015  0.3700
  817MOL0     C12627  12.033   1.243   0.958 -0.7177  0.1636 -0.2273
  817MOL0     C12628  12.169   1.305   0.964 -0.5907 -0.5271  0.9188
  817MOL0     C12629  12.193   1.391   1.085  0.8389 -0.1829 -0.4049
  817MOL0     C12630  12.337   1.432   1.108 -0.5015 -0.0029 -0.2523
  817MOL0     C12631  12.436   1.312   1.131 -0.5845 -0.0748  0.7502
  817MOL0     O12632  12.565   1.367   1.097 -0.0176  0.4836  0.1693
  817MOL0     C12633  12.666   1.289   1.139  0.1735  0.0033 -0.4728
  817MOL0     C12634  12.657   1.154   1.174 -0.5686 -0.9405 -0.6391
  817MOL0     C12635  12.767   1.080   1.209  0.5121  0.1547 -0.7656
  817MOL0     C12636  12.732   0.933   1.240 -1.1442 -0.1627  0.3407
  817MOL0     C12637  12.890   1.146   1.222 -0.7756 -0.4680  1.6673
  817MOL0     C12638  13.016   1.079   1.261 -0.0200 -0.0062 -1.1855
  817MOL0     O12639  13.119   1.161   1.289  0.8656 -0.3544  0.1828
  817MOL0     C12640  13.224   1.122   1.378  0.3495 -0.2274  0.2037
  817MOL0     C12641  13.203   1.060   1.502  0.3412  0.1071  0.4745
  817MOL0     C12642  13.315   1.020   1.576  0.6988  0.1966 -0.3771
  817MOL0     C12643  13.446   1.044   1.534  0.8542  0.5723 -0.7433
  817MOL0     O12644  13.555   1.009   1.606 -0.3199 -0.1881 -0.4464
  817MOL0     C12645  13.561   0.892   1.698  0.3064 -0.2229 -0.6412
  817MOL0     C12646  13.704   0.836   1.698  1.1140  0.3018 -0.0018
  817MOL0     C12647  13.821   0.934   1.727  0.8760  0.5105 -0.2463
  817MOL0     C12648  13.869   1.027   1.615 -0.1741 -0.4575  0.7104
  817MOL0     C12649  14.003   1.099   1.650  0.4305 -0.1498  0.2557
  817MOL0     C12650  13.993   1.164   1.789 -0.7711 -0.1975 -0.4776
  817MOL0     C12651  14.117   1.254   1.818  1.1205  0.0438  0.2201
  817MOL0     C12652  14.092   1.332   1.940  0.8406  0.1791 -0.0778
  817MOL0    Cl12653  14.224   1.442   1.962 -0.0396 -0.3719 -0.2926
  817MOL0     C12654  13.468   1.111   1.409  0.3009 -0.1946 -0.1299
  817MOL0     C12655  13.354   1.151   1.331 -0.4228  1.4140  0.0479
  817MOL0     O12656  13.012   0.958   1.290  0.7339 -0.1746  0.1622
  817MOL0     C12657  12.907   1.283   1.191  0.0578  0.2720 -0.0988
  817MOL0     C12658  12.794   1.351   1.145  0.0632  0.4990  0.7703
  817MOL0     N12659  11.923   1.306   0.895 -0.3804 -0.5839  0.0439
  817MOL0     N12660  11.832   1.215   0.898  0.6298 -0.2378 -0.1552
  817MOL0     C12661  11.363   0.084   0.506  0.1241 -0.5415 -0.7858
  817MOL0     C12662  11.239   0.026   0.527  0.3837 -0.0652 -0.1040
  817MOL0     C12663  10.816  -0.037   0.691 -0.1157  0.5865  0.1869
  817MOL0     C12664  10.704   0.023   0.755 -0.2382  1.1152  0.3255
  817MOL0     C12665  10.588  -0.043   0.768  0.5346  0.5586  0.1282
  817MOL0     C12666  10.573  -0.174   0.727 -0.2609 -0.4802 -0.1718
  817MOL0     O12667  10.456  -0.236   0.766 -0.1799 -0.0122 -0.2034
  817MOL0     C12668  10.394  -0.326   0.683  0.2425  0.1059  0.4409
  817MOL0     C12669  10.251  -0.300   0.665 -0.2872 -0.3329 -0.1592
  817MOL0     C12670  10.208  -0.317   0.517  0.3860  0.0386  0.6226
  817MOL0     C12671  10.059  -0.340   0.501 -0.6145  0.3123 -0.0397
  817MOL0     C12672  10.026  -0.363   0.359 -0.1758 -0.0791 -0.8094
  817MOL0     C12673   9.991  -0.366   0.247  0.5800  0.4239 -0.3428
  817MOL0     C12674  10.685  -0.237   0.667  0.7944 -0.0235 -0.9287
  817MOL0     C12675  10.809  -0.178   0.647 -0.7218 -0.5212 -0.9687
  817MOL0     C12676  10.921  -0.259   0.591 -0.4008  0.8902 -0.5397
  817MOL0     H12677  11.158   0.185   0.808 -0.9546 -1.3962  0.7973
  817MOL0     H12678  11.376   0.298   0.773  1.7426 -0.6923  0.3451
  817MOL0     H12679  11.602   0.295   0.749  1.9322 -0.3545  0.2794
  817MOL0     H12680  11.536   0.409   0.617  0.7431 -0.5241 -2.1623
  817MOL0     H12681  11.797   0.250   0.623 -0.3892 -1.6400 -2.6966
  817MOL0     H12682  11.755   0.354   0.488  3.3756  1.7497  0.9869
  817MOL0     H12683  11.916   0.471   0.618  0.2043  1.9568  0.0552
  817MOL0     H12684  11.766   0.558   0.614 -1.4823 -0.9581 -0.9782
  817MOL0     H12685  11.738   0.476   0.856 -0.8304 -0.0771 -0.3226
  817MOL0     H12686  11.883   0.383   0.835 -2.3159 -0.6717  0.2549
  817MOL0     H12687  12.010   0.598   0.772 -0.9641 -2.8830 -1.1373
  817MOL0     H12688  11.965   0.574   0.933 -2.8112 -0.6497  1.7736
  817MOL0     H12689  11.807   0.742   0.730 -4.0801  0.0103  0.7695
  817MOL0     H12690  11.752   0.720   0.891 -0.0645 -1.5074 -1.5154
  817MOL0     H12691  12.003   0.889   0.828  0.3358 -2.5539  0.7714
  817MOL0     H12692  11.953   0.837   0.988 -1.6905 -0.5585  0.2417
  817MOL0     H12693  11.766   0.984   0.808 -0.8489 -1.1792  0.7741
  817MOL0     H12694  11.745   0.958   0.974  1.9859 -2.9393  1.2137
  817MOL0     H12695  12.085   1.031   1.005 -1.8528 -2.9234  0.0554
  817MOL0     H12696  12.177   1.369   0.876 -1.0890  0.3459  1.4890
  817MOL0     H12697  12.251   1.233   0.956  3.6475  3.1615  4.7698
  817MOL0     H12698  12.133   1.478   1.057  1.9910  0.5894 -0.5254
  817MOL0     H12699  12.151   1.342   1.174  0.1994 -0.6607 -0.9542
  817MOL0     H12700  12.368   1.491   1.021 -1.3477 -0.0164 -0.5778
  817MOL0     H12701  12.343   1.506   1.188 -0.5424 -0.4598  0.1738
  817MOL0     H12702  12.436   1.266   1.230  0.2837  3.2302  2.4270
  817MOL0     H12703  12.420   1.231   1.060 -1.4627 -0.4814  1.3944
  817MOL0     H12704  12.563   1.100   1.173 -0.2080 -1.6195  0.7017
  817MOL0     H12705  12.776   0.904   1.336  2.0208  3.2331  0.1448
  817MOL0     H12706  12.783   0.874   1.163  1.1065  0.9690  0.8892
  817MOL0     H12707  12.627   0.904   1.250 -1.1087 -0.0015  1.2286
  817MOL0     H12708  13.101   1.046   1.536 -0.4655  3.8728  0.0036
  817MOL0     H12709  13.303   0.979   1.676  1.6684 -1.0820 -0.7469
  817MOL0     H12710  13.537   0.932   1.797 -1.9712 -0.7114 -0.9343
  817MOL0     H12711  13.481   0.818   1.693 -1.1560  1.2139  0.5914
  817MOL0     H12712  13.707   0.756   1.772  3.0287 -1.4271 -1.7907
  817MOL0     H12713  13.717   0.788   1.600 -0.6948  1.0809 -0.6480
  817MOL0     H12714  13.897   0.864   1.761 -1.7336 -3.2009 -1.4580
  817MOL0     H12715  13.786   1.003   1.805  5.3739  1.6580  1.0413
  817MOL0     H12716  13.793   1.098   1.583 -2.6938 -2.7211  1.3671
  817MOL0     H12717  13.887   0.981   1.517  0.3756 -0.9177  1.0158
  817MOL0     H12718  14.096   1.043   1.638  2.3254  2.9737 -1.0178
  817MOL0     H12719  14.023   1.173   1.572 -0.1848  0.5129  0.7099
  817MOL0     H12720  13.995   1.084   1.864 -2.2935 -0.4685 -0.7016
  817MOL0     H12721  13.900   1.221   1.798 -0.2341  0.4934  0.9785
  817MOL0     H12722  14.130   1.327   1.738 -1.7096 -0.2120 -0.5669
  817MOL0     H12723  14.211   1.197   1.816  0.6094 -0.9638  2.1373
  817MOL0     H12724  14.083   1.264   2.025 -2.5423 -0.1078 -0.5136
  817MOL0     H12725  13.999   1.389   1.929  0.3321 -0.5348  0.3979
  817MOL0     H12726  13.567   1.125   1.368  0.1956 -3.3934 -1.8111
  817MOL0     H12727  13.348   1.199   1.233  0.2621  0.1780 -0.6134
  817MOL0     H12728  12.993   1.345   1.210 -0.0070 -0.2491  2.1313
  817MOL0     H12729  12.805   1.457   1.126 -0.5510  1.6616  5.5562
  817MOL0     H12730  11.419   0.038   0.425 -3.1674 -2.8549 -1.9769
  817MOL0     H12731  11.204  -0.055   0.464 -0.8301 -0.7671  1.3980
  817MOL0     H12732  10.713   0.129   0.779  4.0282  1.2107 -0.7821
  817MOL0     H12733  10.507  -0.004   0.829 -1.3116 -0.9625 -1.2337
  817MOL0     H12734  10.452  -0.339   0.591 -0.4970  1.2384 -0.2135
  817MOL0     H12735  10.393  -0.425   0.730  3.1041 -1.2871 -2.0968
  817MOL0     H12736  10.237  -0.195   0.692  4.9182  1.1849 -2.1340
  817MOL0     H12737  10.192  -0.359   0.736 -0.2796  2.2838  2.2296
  817MOL0     H12738  10.226  -0.226   0.460 -0.9653  0.2003  0.4087
  817MOL0     H12739  10.262  -0.391   0.458 -0.0087  1.2812 -1.4075
  817MOL0     H12740  10.006  -0.257   0.549  0.2820  1.6059 -1.2115
  817MOL0     H12741  10.030  -0.433   0.551 -2.4445 -0.1830 -1.8697
  817MOL0     H12742   9.940  -0.364   0.152  1.8158 -0.9501 -1.0736
  817MOL0     H12743  10.668  -0.341   0.640  1.6023 -0.5889  0.6204
  817MOL0     H12744  10.969  -0.204   0.509  1.9186  2.1124  1.5015
  817MOL0     H12745  10.994  -0.275   0.670  0.3930 -0.2796 -1.4769
  817MOL0     H12746  10.886  -0.354   0.550  0.0849 -0.2375  1.5291
  818MOL0     O12747   0.546   2.590   8.387 -0.1201  0.5337 -0.3210
  818MOL0     C12748   0.593   2.472   8.414 -0.7483 -0.0310 -0.2407
  818MOL0     O12749   0.522   2.357   8.437 -0.0177  0.0871  0.1508
  818MOL0     C12750   0.387   2.371   8.441  0.5630 -0.0200  0.0727
  818MOL0     C12751   0.318   2.264   8.376 -0.1175 -0.5400  0.0768
  818MOL0     C12752   0.181   2.280   8.361  0.3238  0.4264  1.2127
  818MOL0     C12753   0.107   2.384   8.416 -1.1780 -0.7315  1.2137
  818MOL0     O12754  -0.027   2.390   8.408  0.2677 -0.2137  0.5624
  818MOL0     C12755  -0.092   2.313   8.300 -0.6866 -0.1234  0.8053
  818MOL0     C12756  -0.236   2.365   8.291  0.0365  0.0188 -0.2481
  818MOL0     C12757  -0.309   2.285   8.177 -0.5980 -0.6643 -0.9718
  818MOL0     C12758  -0.281   2.345   8.034  0.4232 -0.3388 -0.4848
  818MOL0     C12759  -0.380   2.281   7.932  1.0822  0.0632 -0.1757
  818MOL0     C12760  -0.356   2.339   7.786  0.6586  0.7911 -0.8977
  818MOL0     C12761  -0.219   2.298   7.727 -0.1352 -0.2934  0.4066
  818MOL0     C12762  -0.199   2.151   7.695 -0.3073  0.0358  0.2398
  818MOL0     N12763  -0.075   2.152   7.621  0.6264  0.8893 -0.8825
  818MOL0     C12764   0.041   2.182   7.675 -0.6822 -0.3822 -0.9017
  818MOL0     C12765   0.121   2.198   7.569  0.3553  0.1798  0.1114
  818MOL0     C12766   0.270   2.215   7.578  0.0130  0.0219  1.0647
  818MOL0     C12767   0.316   2.344   7.498  0.2342 -0.1418 -0.5306
  818MOL0     C12768   0.464   2.371   7.516 -1.2611  0.3617 -0.3093
  818MOL0     C12769   0.510   2.499   7.447 -0.0115  0.4407  0.2617
  818MOL0     O12770   0.658   2.509   7.440  0.1828  0.1394  0.5704
  818MOL0     C12771   0.724   2.565   7.545 -0.1440  0.0620 -0.1947
  818MOL0     C12772   0.682   2.692   7.590 -0.5480  0.4803 -0.1798
  818MOL0     C12773   0.756   2.753   7.695 -0.7516  0.1759  0.3582
  818MOL0     C12774   0.724   2.891   7.733  0.1718 -0.3038 -0.6143
  818MOL0     C12775   0.861   2.682   7.758 -0.0950 -0.0954 -0.2832
  818MOL0     C12776   0.916   2.736   7.889  1.0438  0.7111  0.8949
  818MOL0     O12777   0.821   2.771   7.981 -0.2941  0.3910 -0.8453
  818MOL0     C12778   0.845   2.828   8.109  0.7904 -0.0163  0.2426
  818MOL0     C12779   0.739   2.840   8.199  0.0474 -1.0132  0.3971
  818MOL0     C12780   0.763   2.906   8.319 -0.0760 -0.3969  0.2874
  818MOL0     C12781   0.882   2.964   8.353 -0.4893  0.7881 -0.9490
  818MOL0     O12782   0.903   3.038   8.465 -0.3496 -0.3909 -0.6976
  818MOL0     C12783   0.784   3.085   8.532  0.2886 -0.3953  0.3299
  818MOL0     C12784   0.806   3.202   8.630 -0.8283 -0.1284  0.4650
  818MOL0     C12785   0.930   3.201   8.726  0.8792 -0.5664 -0.1186
  818MOL0     C12786   0.924   3.098   8.847 -0.2757 -0.3786  0.4863
  818MOL0     C12787   1.047   3.110   8.939 -0.9627  0.7496 -0.5134
  818MOL0     C12788   1.024   2.994   9.042 -0.5082 -0.7079 -0.2350
  818MOL0     C12789   1.059   2.862   8.980  0.0155  0.4209 -0.0339
  818MOL0     C12790   1.206   2.826   9.014 -0.1500  0.0846 -0.1334
  818MOL0    Cl12791   1.241   2.660   8.947 -0.0133  0.1882  0.0344
  818MOL0     C12792   0.988   2.949   8.271 -0.1587 -0.5036 -0.2234
  818MOL0     C12793   0.970   2.876   8.149 -0.2222 -0.0540 -0.9756
  818MOL0     O12794   1.038   2.718   7.903  0.2859 -0.1397 -0.1797
  818MOL0     C12795   0.909   2.558   7.707  0.0870 -0.4204 -0.2785
  818MOL0     C12796   0.840   2.501   7.600 -0.4330 -0.0388 -0.2659
  818MOL0     N12797   0.042   2.189   7.449 -0.0217 -0.0167 -0.2404
  818MOL0     N12798  -0.076   2.154   7.481  0.1734  0.3437  0.1598
  818MOL0     C12799   0.172   2.485   8.494  0.3102  0.7272 -0.3890
  818MOL0     C12800   0.317   2.480   8.498 -0.4837 -0.0207 -0.0101
  818MOL0     C12801   0.738   2.446   8.426 -0.2695  0.2468 -0.1951
  818MOL0     C12802   0.793   2.318   8.371 -0.3383  0.3456  0.3680
  818MOL0     C12803   0.925   2.281   8.399 -0.1720 -0.1068  0.1159
  818MOL0     C12804   1.007   2.369   8.468  0.0829 -0.4959 -0.2364
  818MOL0     O12805   1.147   2.344   8.468 -0.1892  0.6384  0.1004
  818MOL0     C12806   1.233   2.417   8.563  0.6898 -0.2303 -0.0963
  818MOL0     C12807   1.369   2.356   8.570 -0.3939  0.0149  0.7369
  818MOL0     C12808   1.465   2.428   8.664 -0.0894  0.2472 -0.5086
  818MOL0     C12809   1.604   2.388   8.673  0.8169 -0.3649  0.0977
  818MOL0     C12810   1.665   2.351   8.545 -0.1295  1.3912  0.2324
  818MOL0     C12811   1.700   2.322   8.428  0.9400  0.6413  0.3477
  818MOL0     C12812   0.962   2.498   8.498 -0.1380 -0.8618  0.0082
  818MOL0     C12813   0.828   2.536   8.493  1.0717  0.4896  0.0358
  818MOL0     C12814   0.788   2.662   8.566  0.3692 -0.3964 -0.5588
  818MOL0     H12815   0.375   2.185   8.328  2.2380  1.3760 -0.4705
  818MOL0     H12816   0.144   2.209   8.288  3.7861 -0.2983 -0.0302
  818MOL0     H12817  -0.099   2.209   8.332 -1.0141 -0.6708 -0.9293
  818MOL0     H12818  -0.046   2.331   8.202 -0.6081  3.2096  1.3140
  818MOL0     H12819  -0.288   2.354   8.387 -1.6142  2.3257 -0.7726
  818MOL0     H12820  -0.238   2.474   8.280  1.9421  0.1901  0.6883
  818MOL0     H12821  -0.293   2.176   8.176 -0.2123 -0.6263 -2.7053
  818MOL0     H12822  -0.414   2.304   8.201 -0.4620 -1.7720  0.6935
  818MOL0     H12823  -0.291   2.454   8.040  0.7571 -0.3731  2.6476
  818MOL0     H12824  -0.177   2.329   8.007  1.6522  1.4844  2.6076
  818MOL0     H12825  -0.483   2.283   7.969  0.8965 -1.1161 -0.5575
  818MOL0     H12826  -0.359   2.176   7.908 -3.0646 -0.4344 -2.6857
  818MOL0     H12827  -0.428   2.318   7.707  1.0342  2.6542 -1.7897
  818MOL0     H12828  -0.349   2.447   7.803  1.6949  0.3524  2.3238
  818MOL0     H12829  -0.141   2.346   7.787 -2.2420  1.1172  2.1505
  818MOL0     H12830  -0.228   2.344   7.628 -0.1417 -0.3185  0.3956
  818MOL0     H12831  -0.192   2.088   7.784  1.7497 -1.3160 -0.8128
  818MOL0     H12832  -0.275   2.110   7.627 -2.3480 -0.4525  2.6607
  818MOL0     H12833   0.061   2.191   7.781 -2.4909 -1.9124 -0.3867
  818MOL0     H12834   0.330   2.132   7.540  2.2205  2.0773 -0.1618
  818MOL0     H12835   0.292   2.220   7.685 -0.6717 -0.8485  1.2587
  818MOL0     H12836   0.305   2.324   7.391  1.8249 -0.0556 -0.7358
  818MOL0     H12837   0.262   2.434   7.531 -0.3905 -1.2015  1.5277
  818MOL0     H12838   0.494   2.353   7.619  0.0144  0.6275 -0.6088
  818MOL0     H12839   0.510   2.296   7.450  0.7942  1.2360  0.0708
  818MOL0     H12840   0.476   2.501   7.343  2.2616  4.2629 -0.5853
  818MOL0     H12841   0.471   2.583   7.504  0.0848  1.2360 -0.8130
  818MOL0     H12842   0.597   2.732   7.535 -0.7102 -1.0979 -1.1711
  818MOL0     H12843   0.712   2.958   7.647  0.6932 -0.9093 -1.1688
  818MOL0     H12844   0.790   2.933   7.809 -2.0960  0.1640  1.1799
  818MOL0     H12845   0.637   2.882   7.797  1.9565 -1.1756  1.8285
  818MOL0     H12846   0.643   2.809   8.160 -0.0976  1.8156 -1.8676
  818MOL0     H12847   0.675   2.910   8.383 -0.5123  0.1002 -0.3401
  818MOL0     H12848   0.719   3.132   8.457  1.8323  1.2890 -0.0214
  818MOL0     H12849   0.731   2.997   8.570 -0.0260 -0.3390  0.0284
  818MOL0     H12850   0.832   3.279   8.557  1.9429 -2.5201 -1.2717
  818MOL0     H12851   0.712   3.228   8.681  0.3159  0.7335  2.2474
  818MOL0     H12852   0.931   3.303   8.764 -0.4556 -0.5186 -0.1722
  818MOL0     H12853   1.022   3.187   8.668  1.7382  2.7056  0.2551
  818MOL0     H12854   0.905   2.997   8.808 -2.2674  0.9527 -2.4022
  818MOL0     H12855   0.838   3.133   8.905 -1.1172 -1.9720  0.2577
  818MOL0     H12856   1.144   3.089   8.893 -1.5832 -3.0156 -0.4502
  818MOL0     H12857   1.044   3.213   8.975  0.0106  1.0958 -1.3825
  818MOL0     H12858   0.918   2.991   9.067 -0.7000  0.6285 -0.8022
  818MOL0     H12859   1.087   3.017   9.129  1.4324  0.1091 -1.7861
  818MOL0     H12860   1.044   2.850   8.872 -0.0688  0.3120 -0.0111
  818MOL0     H12861   0.998   2.785   9.029  1.3719 -1.1173 -0.6633
  818MOL0     H12862   1.237   2.842   9.118 -2.2702  0.5278  0.4876
  818MOL0     H12863   1.272   2.889   8.955  0.3958  2.2993  2.6079
  818MOL0     H12864   1.080   2.996   8.303 -0.2795  0.2731 -1.0101
  818MOL0     H12865   1.057   2.852   8.089  0.8929  2.3224 -0.4252
  818MOL0     H12866   0.993   2.514   7.759 -0.4088  0.1802  1.0943
  818MOL0     H12867   0.856   2.401   7.562 -1.3114 -0.5199  0.5804
  818MOL0     H12868   0.114   2.567   8.536  2.9008  1.9320  1.0735
  818MOL0     H12869   0.365   2.559   8.554  0.4401  0.8948 -1.9966
  818MOL0     H12870   0.726   2.252   8.318  1.7166 -0.8097 -0.9666
  818MOL0     H12871   0.972   2.193   8.356  1.5347  1.0986 -0.5968
  818MOL0     H12872   1.230   2.525   8.545  0.7283 -0.3085 -0.6106
  818MOL0     H12873   1.181   2.395   8.656 -4.8709  3.0394 -1.9929
  818MOL0     H12874   1.416   2.357   8.471  1.0096 -2.9892  1.2614
  818MOL0     H12875   1.365   2.256   8.613  1.6017 -0.6361 -0.4398
  818MOL0     H12876   1.458   2.531   8.628 -1.0264  0.1830 -0.5275
  818MOL0     H12877   1.429   2.417   8.767 -1.3384  2.0287 -0.7165
  818MOL0     H12878   1.620   2.310   8.749 -0.5710 -0.3385  0.4344
  818MOL0     H12879   1.654   2.482   8.700 -1.2196  1.4676 -2.1534
  818MOL0     H12880   1.732   2.309   8.327 -1.6398 -0.5501 -0.3693
  818MOL0     H12881   1.017   2.584   8.535 -2.8314  1.0324 -0.1291
  818MOL0     H12882   0.849   2.747   8.533 -0.4395  0.5171  0.2730
  818MOL0     H12883   0.687   2.694   8.540 -0.0964  0.7483  2.3049
  818MOL0     H12884   0.797   2.649   8.674  0.3667  2.5002 -0.1286
  819MOL0     O12885   8.870   3.180   8.999 -0.4070  0.4232  0.2192
  819MOL0     C12886   8.838   3.072   9.053  0.3670 -0.2930 -0.1892
  819MOL0     O12887   8.923   2.960   9.065  0.0039  0.2340 -0.2041
  819MOL0     C12888   9.048   2.968   9.008  0.2644 -0.2222 -0.2178
  819MOL0     C12889   9.156   2.897   9.064 -0.5947 -0.3016 -0.2988
  819MOL0     C12890   9.272   2.878   8.990 -0.6864 -0.0874  0.1014
  819MOL0     C12891   9.290   2.939   8.861 -0.2643 -0.0993  0.0290
  819MOL0     O12892   9.404   2.928   8.784 -0.1673  0.1105 -0.0020
  819MOL0     C12893   9.526   2.885   8.848 -0.0709 -0.0363  0.0751
  819MOL0     C12894   9.653   2.907   8.768  1.4534 -0.6870  0.2564
  819MOL0     C12895   9.775   2.863   8.848 -0.0003 -0.3838  0.3611
  819MOL0     C12896   9.814   2.954   8.960  0.3056 -0.3249 -0.7761
  819MOL0     C12897   9.937   2.926   9.036  0.9078 -0.5023 -1.3700
  819MOL0     C12898   9.948   3.014   9.162 -0.2455  0.4776 -0.2914
  819MOL0     C12899   9.855   2.968   9.281 -0.4603 -0.2453  1.4022
  819MOL0     C12900   9.876   3.055   9.401  0.3824 -0.0155 -0.5136
  819MOL0     N12901   9.820   3.184   9.394  0.0395  0.4299 -0.5653
  819MOL0     C12902   9.685   3.207   9.426 -0.8809  0.5077  0.7013
  819MOL0     C12903   9.683   3.347   9.412  0.0100  0.2788 -0.0473
  819MOL0     C12904   9.568   3.436   9.456  0.4934  0.4952  0.4330
  819MOL0     C12905   9.589   3.492   9.603 -0.2758 -0.0231  0.8934
  819MOL0     C12906   9.571   3.652   9.606 -0.7640  0.0448  1.2248
  819MOL0     C12907   9.590   3.722   9.741 -0.1882  0.3599  0.2913
  819MOL0     O12908   9.722   3.785   9.753 -0.1019 -0.2515 -0.6408
  819MOL0     C12909   9.742   3.874   9.855 -0.9384 -0.5402  0.9366
  819MOL0     C12910   9.653   3.910   9.952  0.2252 -0.0256 -0.2902
  819MOL0     C12911   9.686   3.994  10.057 -0.7484 -0.2852 -0.0512
  819MOL0     C12912   9.579   4.039  10.149 -0.7051  0.3688  0.4396
  819MOL0     C12913   9.821   4.043  10.068 -0.3408 -0.1001 -0.0567
  819MOL0     C12914   9.869   4.126  10.179  0.2746 -1.1205 -0.0206
  819MOL0     O12915   9.997   4.103  10.207 -0.0553  0.3698 -0.5679
  819MOL0     C12916  10.059   4.180  10.305 -0.3666 -0.1135  0.1355
  819MOL0     C12917  10.020   4.174  10.443 -0.4898 -0.1674  0.3675
  819MOL0     C12918  10.083   4.248  10.541 -0.6150  0.0184  0.7114
  819MOL0     C12919  10.203   4.319  10.505 -0.2679 -0.0308  0.3196
  819MOL0     O12920  10.265   4.380  10.607 -0.2720  0.5515  0.3790
  819MOL0     C12921  10.262   4.521  10.614  0.4149  0.4025  0.0603
  819MOL0     C12922  10.198   4.582  10.741 -0.2579 -0.1328 -0.4380
  819MOL0     C12923  10.199   4.737  10.749  0.0831 -0.4292  1.5307
  819MOL0     C12924  10.143   4.797  10.876 -0.4262  0.4219  0.8293
  819MOL0     C12925  10.164   4.951  10.887  0.7615  0.0229 -0.0256
  819MOL0     C12926  10.109   5.005  11.018  0.0574 -0.8419 -0.1452
  819MOL0     C12927  10.142   5.152  11.021 -0.5705 -0.5093  0.9040
  819MOL0     C12928  10.079   5.215  11.142  0.4478  0.4210  0.1333
  819MOL0    Cl12929  10.178   5.345  11.205  0.0117 -0.0325  0.0962
  819MOL0     C12930  10.242   4.322  10.370  0.0610  0.7421 -0.8887
  819MOL0     C12931  10.175   4.250  10.273 -0.1167  0.3826 -0.8432
  819MOL0     O12932   9.807   4.228  10.221 -0.2914  0.3994 -0.1486
  819MOL0     C12933   9.914   4.009   9.975  0.2342  0.4514 -0.0657
  819MOL0     C12934   9.872   3.926   9.863 -1.1095 -0.1257 -0.3979
  819MOL0     N12935   9.801   3.399   9.366 -0.0465  0.7275 -0.0863
  819MOL0     N12936   9.881   3.301   9.355 -0.0894  0.8457 -0.0493
  819MOL0     C12937   9.186   3.016   8.811 -0.5489  0.5967 -0.1865
  819MOL0     C12938   9.066   3.016   8.875  0.4770  0.2027 -1.2282
  819MOL0     C12939   8.693   3.070   9.088  0.4526 -0.1985 -0.5701
  819MOL0     C12940   8.601   3.158   9.024 -0.5645  0.2562 -0.1098
  819MOL0     C12941   8.466   3.161   9.061 -0.9152  0.8690  0.5544
  819MOL0     C12942   8.418   3.080   9.163 -0.6829  0.1238 -0.1449
  819MOL0     O12943   8.284   3.075   9.200  0.6189 -0.0787 -0.6224
  819MOL0     C12944   8.185   3.150   9.136 -0.1547 -0.6278  0.0606
  819MOL0     C12945   8.046   3.083   9.172 -0.0587 -0.1416  0.8490
  819MOL0     C12946   7.929   3.182   9.120  0.5079  0.1708 -0.6188
  819MOL0     C12947   7.784   3.120   9.153 -0.1360  0.7657 -0.3769
  819MOL0     C12948   7.669   3.211   9.116 -0.0826  0.4067  0.7765
  819MOL0     C12949   7.578   3.290   9.086 -1.0984  0.6011 -0.8138
  819MOL0     C12950   8.508   2.989   9.227  0.2870 -0.7341  0.2847
  819MOL0     C12951   8.644   2.995   9.196 -0.1489  0.3083 -1.2530
  819MOL0     C12952   8.739   2.921   9.282 -0.1749  0.0259 -0.3914
  819MOL0     H12953   9.141   2.867   9.167 -0.3497  0.9146  0.1098
  819MOL0     H12954   9.353   2.832   9.045  0.7098  3.2955  1.1579
  819MOL0     H12955   9.515   2.778   8.868 -2.0513 -0.3312 -2.0632
  819MOL0     H12956   9.527   2.937   8.944  0.1534 -0.1238  0.1201
  819MOL0     H12957   9.641   2.843   8.681  3.1455 -1.1194  0.2929
  819MOL0     H12958   9.649   3.013   8.739 -2.0640 -0.2469  1.8319
  819MOL0     H12959   9.778   2.755   8.868  2.1020 -0.3136  0.6481
  819MOL0     H12960   9.855   2.872   8.775 -0.1367 -1.0766  0.1138
  819MOL0     H12961   9.823   3.060   8.934 -1.3161  0.9393  3.2006
  819MOL0     H12962   9.730   2.950   9.030  1.2796 -0.3981  0.4158
  819MOL0     H12963  10.024   2.947   8.972 -0.4290  0.2968 -2.9997
  819MOL0     H12964   9.943   2.820   9.062  0.2017  0.0041  1.1322
  819MOL0     H12965  10.045   2.991   9.206 -1.0199  0.4488  1.5172
  819MOL0     H12966   9.929   3.120   9.144  0.2766  0.8204  1.0256
  819MOL0     H12967   9.878   2.866   9.313  0.6058 -0.1677  0.9544
  819MOL0     H12968   9.753   2.971   9.243  0.5464 -1.6054 -1.8163
  819MOL0     H12969   9.836   3.014   9.494  0.5228  1.7212  0.3514
  819MOL0     H12970   9.985   3.065   9.407  0.7526 -3.2948  0.0428
  819MOL0     H12971   9.604   3.145   9.464 -0.1999  1.2564  3.6722
  819MOL0     H12972   9.470   3.388   9.453  1.0339 -0.5824 -0.4295
  819MOL0     H12973   9.573   3.520   9.386  1.9255 -0.3324 -0.5116
  819MOL0     H12974   9.518   3.441   9.669  0.4349  0.2907  1.9141
  819MOL0     H12975   9.687   3.464   9.641 -0.8028  0.7323  2.9351
  819MOL0     H12976   9.652   3.692   9.546 -3.4146  1.0551 -1.9936
  819MOL0     H12977   9.476   3.684   9.563 -0.4191  1.6486  1.6153
  819MOL0     H12978   9.514   3.801   9.751 -0.1222  0.3106  1.3134
  819MOL0     H12979   9.581   3.654   9.826 -0.3641 -0.3417 -0.2813
  819MOL0     H12980   9.551   3.874   9.946 -0.1886  1.0331  0.0244
  819MOL0     H12981   9.545   4.137  10.115  1.7879  0.5350 -1.9160
  819MOL0     H12982   9.620   4.047  10.251  0.6362  0.6087 -0.0995
  819MOL0     H12983   9.489   3.976  10.148 -0.7432  0.4339 -0.1391
  819MOL0     H12984   9.937   4.108  10.466  1.5368 -2.7622  0.7526
  819MOL0     H12985  10.041   4.260  10.640 -1.6728  2.8340  0.0137
  819MOL0     H12986  10.364   4.560  10.605 -0.7554  3.7106 -0.5000
  819MOL0     H12987  10.210   4.558  10.525  1.3355 -1.5318 -1.3710
  819MOL0     H12988  10.095   4.547  10.752 -0.1801  0.2898  2.3232
  819MOL0     H12989  10.235   4.534  10.833 -1.3188 -2.7434 -1.2811
  819MOL0     H12990  10.146   4.782  10.665  0.8755  2.3891  2.4305
  819MOL0     H12991  10.299   4.777  10.730 -0.2257 -1.0652 -2.0959
  819MOL0     H12992  10.198   4.747  10.956  1.1064 -0.4024 -0.6775
  819MOL0     H12993  10.038   4.767  10.889 -0.5190 -0.3710 -1.3468
  819MOL0     H12994  10.271   4.976  10.894 -0.1456  4.5763  0.7358
  819MOL0     H12995  10.111   4.996  10.803 -1.0531 -0.7369  0.6680
  819MOL0     H12996  10.137   4.949  11.108  1.2390  0.9120  0.6153
  819MOL0     H12997  10.001   4.988  11.007  0.0049  0.3097 -1.5941
  819MOL0     H12998  10.103   5.192  10.926 -0.2618 -1.8504  0.1841
  819MOL0     H12999  10.251   5.156  11.025 -0.5371 -1.1509  0.8333
  819MOL0     H13000  10.067   5.147  11.227 -1.3765 -1.1499 -1.2908
  819MOL0     H13001   9.981   5.261  11.125  0.7852  0.5448 -1.7574
  819MOL0     H13002  10.338   4.371  10.358  0.4439 -0.3466 -2.6940
  819MOL0     H13003  10.227   4.236  10.179  0.1668  2.4892 -1.0498
  819MOL0     H13004  10.017   4.043   9.968 -0.1300  1.5062 -0.4908
  819MOL0     H13005   9.951   3.905   9.792 -2.2587  0.4388 -1.8975
  819MOL0     H13006   9.178   3.057   8.710 -4.2797  2.0561  0.5538
  819MOL0     H13007   8.977   3.062   8.834 -1.3217  0.6359  2.7173
  819MOL0     H13008   8.632   3.229   8.948 -2.3655  1.3536  0.1403
  819MOL0     H13009   8.400   3.234   9.015  1.2224  0.8457 -2.9073
  819MOL0     H13010   8.181   3.254   9.168 -2.3264 -0.4896 -0.5277
  819MOL0     H13011   8.204   3.147   9.028 -0.3391  1.6548 -0.0861
  819MOL0     H13012   8.028   3.077   9.280  2.8079 -0.0801  1.4095
  819MOL0     H13013   8.039   2.989   9.116 -0.2306  1.2946 -1.7285
  819MOL0     H13014   7.940   3.283   9.159  0.0166  0.5995 -1.5555
  819MOL0     H13015   7.928   3.201   9.012 -1.1448 -0.7169 -0.7931
  819MOL0     H13016   7.787   3.102   9.260  1.0085  1.3266 -0.2989
  819MOL0     H13017   7.773   3.033   9.088  1.3841  0.2890 -0.0483
  819MOL0     H13018   7.497   3.355   9.063  0.0546  2.8689  1.0446
  819MOL0     H13019   8.472   2.924   9.306 -0.3383 -0.2480  0.4110
  819MOL0     H13020   8.685   2.878   9.367 -1.2376 -2.0711 -2.0670
  819MOL0     H13021   8.792   2.844   9.225  1.5200  0.7903  0.0866
  819MOL0     H13022   8.825   2.985   9.305  1.5867 -1.3667 -2.6585
  820MOL0     O13023   2.886   2.008   5.348  0.0315 -0.6787 -0.3103
  820MOL0     C13024   2.805   2.085   5.299 -1.3204 -0.0926  0.2238
  820MOL0     O13025   2.833   2.210   5.249  0.1660 -0.2567 -0.0685
  820MOL0     C13026   2.958   2.236   5.206  0.1137 -0.5214  0.6676
  820MOL0     C13027   3.019   2.169   5.101  0.2764 -0.3676  0.0269
  820MOL0     C13028   3.152   2.198   5.069 -0.6845 -0.6448 -0.1408
  820MOL0     C13029   3.218   2.304   5.133  0.4247 -0.0826  0.5573
  820MOL0     O13030   3.344   2.325   5.077 -1.2419 -0.3068  0.7655
  820MOL0     C13031   3.414   2.450   5.095 -0.2953  1.2015 -0.4126
  820MOL0     C13032   3.365   2.566   5.007 -0.2024 -0.2158 -0.3317
  820MOL0     C13033   3.452   2.682   5.020 -0.1771 -0.9905 -0.4260
  820MOL0     C13034   3.383   2.810   4.966 -0.3468 -0.9351  0.2166
  820MOL0     C13035   3.472   2.936   4.970  0.2822 -0.6386 -0.0650
  820MOL0     C13036   3.605   2.922   4.887 -0.1452 -0.5055 -0.4608
  820MOL0     C13037   3.683   3.051   4.895  0.0499 -0.3377  0.1356
  820MOL0     C13038   3.628   3.168   4.812 -0.2243  0.0467  0.3755
  820MOL0     N13039   3.731   3.274   4.793 -0.1098 -0.2945 -0.4631
  820MOL0     C13040   3.825   3.276   4.694 -0.2949  0.1930  0.4562
  820MOL0     C13041   3.921   3.368   4.734 -0.0345  0.6470 -0.5499
  820MOL0     C13042   4.050   3.392   4.659 -0.3512  0.3026  0.8321
  820MOL0     C13043   4.169   3.295   4.684 -0.3152 -0.2841 -0.8848
  820MOL0     C13044   4.277   3.311   4.579 -0.5239 -0.7536 -0.5797
  820MOL0     C13045   4.416   3.257   4.619 -0.0516  1.0148  0.2923
  820MOL0     O13046   4.479   3.346   4.715 -0.1400  0.2869 -0.6174
  820MOL0     C13047   4.610   3.328   4.749  0.0246  0.4755  0.0800
  820MOL0     C13048   4.700   3.225   4.699 -0.2915  0.1655 -1.2735
  820MOL0     C13049   4.826   3.218   4.753 -0.6309  0.5268 -0.2637
  820MOL0     C13050   4.909   3.097   4.713 -0.4363 -0.5368  0.8067
  820MOL0     C13051   4.878   3.322   4.841 -0.0577  0.3328  0.2287
  820MOL0     C13052   5.027   3.324   4.884  0.3273 -0.2274  0.4152
  820MOL0     O13053   5.076   3.449   4.916 -0.6304  0.3855  0.0522
  820MOL0     C13054   5.187   3.478   4.995 -0.0980 -0.6022 -0.0544
  820MOL0     C13055   5.172   3.580   5.090  0.1693  0.3867  0.1008
  820MOL0     C13056   5.283   3.609   5.173  0.0999  0.1430  0.1507
  820MOL0     C13057   5.410   3.546   5.163  0.2750 -0.4407  0.8769
  820MOL0     O13058   5.513   3.582   5.244  0.5727  0.2384 -0.6755
  820MOL0     C13059   5.605   3.662   5.175 -0.2566 -0.6709  0.3033
  820MOL0     C13060   5.719   3.697   5.268 -0.1523  0.5539  0.2988
  820MOL0     C13061   5.675   3.788   5.390  0.6266 -0.5580  0.5538
  820MOL0     C13062   5.787   3.804   5.497  0.6537 -0.4999 -0.5252
  820MOL0     C13063   5.816   3.675   5.573  0.2544 -0.0188 -0.2467
  820MOL0     C13064   5.912   3.699   5.693 -0.1965 -0.1035  0.6151
  820MOL0     C13065   5.911   3.573   5.777  0.3913 -0.3088  0.4974
  820MOL0     C13066   6.017   3.582   5.877  0.2215 -0.0162 -0.4591
  820MOL0    Cl13067   6.177   3.587   5.802 -0.4296  0.1367  0.4310
  820MOL0     C13068   5.424   3.449   5.057 -0.2810 -0.0980 -0.1716
  820MOL0     C13069   5.314   3.418   4.976  0.7195 -0.6561  0.6137
  820MOL0     O13070   5.086   3.217   4.890  0.1195  0.5563  0.4732
  820MOL0     C13071   4.796   3.427   4.868  0.7599 -0.4165 -0.2353
  820MOL0     C13072   4.667   3.430   4.820 -0.4127  0.6187  0.0033
  820MOL0     N13073   3.867   3.424   4.852 -0.3371  0.7671  0.4491
  820MOL0     N13074   3.762   3.356   4.892 -0.0333 -0.0424 -0.0209
  820MOL0     C13075   3.151   2.383   5.229 -0.8087  0.8263  0.2640
  820MOL0     C13076   3.022   2.342   5.268 -0.2746 -0.8980 -1.2920
  820MOL0     C13077   2.666   2.042   5.289  0.0723 -0.7307  0.0999
  820MOL0     C13078   2.617   1.949   5.384 -0.1147 -0.0128 -0.1647
  820MOL0     C13079   2.493   1.883   5.369 -0.5975 -1.1904 -0.3413
  820MOL0     C13080   2.415   1.917   5.258  0.2851  0.9521 -0.0646
  820MOL0     O13081   2.290   1.859   5.226  0.1292 -0.2480 -0.2758
  820MOL0     C13082   2.210   1.786   5.322  1.3882 -0.1718  0.6859
  820MOL0     C13083   2.067   1.755   5.271 -0.1384 -0.4977  0.2304
  820MOL0     C13084   1.973   1.876   5.230 -0.2686 -0.4708 -0.1782
  820MOL0     C13085   1.840   1.818   5.192 -0.3136 -0.1876 -0.1735
  820MOL0     C13086   1.735   1.921   5.194  0.3502 -0.0088 -0.0039
  820MOL0     C13087   1.644   1.999   5.170 -0.3565  0.2582 -0.2282
  820MOL0     C13088   2.456   2.010   5.167 -0.2974  0.2994 -0.1450
  820MOL0     C13089   2.581   2.078   5.180  0.5819 -0.0357  0.3909
  820MOL0     C13090   2.619   2.168   5.064  0.4262 -0.3391  0.0972
  820MOL0     H13091   2.971   2.093   5.040  1.0149  0.6046 -1.8640
  820MOL0     H13092   3.201   2.145   4.988 -2.4136 -1.9078 -0.4172
  820MOL0     H13093   3.514   2.428   5.056 -1.1810 -0.3434 -1.9290
  820MOL0     H13094   3.418   2.460   5.204  0.7768 -1.1828 -0.1611
  820MOL0     H13095   3.358   2.529   4.904  1.4412 -2.3184  0.2245
  820MOL0     H13096   3.266   2.596   5.042 -0.6841  1.5295 -2.9661
  820MOL0     H13097   3.470   2.690   5.127  0.2620 -0.6913 -0.5192
  820MOL0     H13098   3.555   2.663   4.989 -0.1288 -0.8683 -0.3399
  820MOL0     H13099   3.349   2.783   4.866 -1.8299 -0.6158  0.6215
  820MOL0     H13100   3.285   2.824   5.012 -1.3278 -2.3799 -1.3161
  820MOL0     H13101   3.490   2.969   5.073 -0.5153 -1.5642  0.3911
  820MOL0     H13102   3.410   3.008   4.915 -2.3230 -2.7572 -0.0690
  820MOL0     H13103   3.659   2.841   4.938 -0.5422 -0.7709 -0.4648
  820MOL0     H13104   3.590   2.885   4.785 -1.2601 -1.1034 -0.0923
  820MOL0     H13105   3.788   3.034   4.871  0.4858  3.6647 -1.4532
  820MOL0     H13106   3.683   3.079   5.001 -0.2676 -1.7726  0.5406
  820MOL0     H13107   3.589   3.127   4.718 -1.1340  1.7449 -0.0452
  820MOL0     H13108   3.541   3.218   4.856 -1.6635  0.7479 -2.8782
  820MOL0     H13109   3.828   3.216   4.604 -2.1274  0.6372  0.0699
  820MOL0     H13110   4.088   3.493   4.679  1.0623 -0.3753  1.7888
  820MOL0     H13111   4.028   3.378   4.553 -0.3963 -1.8093  1.0889
  820MOL0     H13112   4.209   3.313   4.784 -2.6157 -1.8291  0.3891
  820MOL0     H13113   4.126   3.195   4.671  1.4527 -1.4116  1.3783
  820MOL0     H13114   4.240   3.260   4.490  2.1022  0.9880 -2.8450
  820MOL0     H13115   4.286   3.415   4.545 -0.3858 -0.3904  0.5119
  820MOL0     H13116   4.421   3.156   4.661  1.7365  0.9100 -0.0876
  820MOL0     H13117   4.486   3.252   4.535  1.1171 -2.0478  1.2672
  820MOL0     H13118   4.662   3.150   4.630 -1.3235 -1.0274  0.5206
  820MOL0     H13119   4.860   3.033   4.639  2.9033 -0.8611 -1.3193
  820MOL0     H13120   4.918   3.032   4.801  1.3500 -2.0811 -0.4512
  820MOL0     H13121   5.003   3.132   4.670 -1.0166  0.0352 -0.0230
  820MOL0     H13122   5.076   3.631   5.096  0.9633  1.8646  0.5176
  820MOL0     H13123   5.268   3.686   5.248 -1.6885  0.7849 -0.8144
  820MOL0     H13124   5.640   3.607   5.087  2.8663  0.8320  0.4818
  820MOL0     H13125   5.554   3.758   5.160  0.4265  0.5364  4.5111
  820MOL0     H13126   5.741   3.596   5.303 -1.5075  0.0884 -0.1004
  820MOL0     H13127   5.794   3.745   5.204 -1.5530  3.0932  0.4322
  820MOL0     H13128   5.586   3.743   5.433 -0.4734  0.2403 -0.8027
  820MOL0     H13129   5.645   3.889   5.360  1.2895 -0.3238  0.6600
  820MOL0     H13130   5.747   3.876   5.569 -0.5557 -1.6096 -0.0430
  820MOL0     H13131   5.877   3.844   5.450 -1.6072  2.5137 -2.6804
  820MOL0     H13132   5.723   3.639   5.617 -0.5396  3.3606  1.2146
  820MOL0     H13133   5.855   3.594   5.511  0.0834 -0.2894  0.0006
  820MOL0     H13134   5.874   3.784   5.751  0.5740  0.0643  0.8931
  820MOL0     H13135   6.014   3.716   5.656 -0.9263 -2.1358 -2.7620
  820MOL0     H13136   5.934   3.490   5.710  1.0269 -1.3768  1.9898
  820MOL0     H13137   5.812   3.566   5.822 -0.4645  0.5270 -1.1819
  820MOL0     H13138   6.006   3.489   5.934 -1.6062 -0.1317 -0.9334
  820MOL0     H13139   6.005   3.670   5.942  1.7795  1.0237 -1.5268
  820MOL0     H13140   5.510   3.388   5.034  1.3044  1.6494  0.8736
  820MOL0     H13141   5.317   3.349   4.893  1.8901  0.3992 -0.2630
  820MOL0     H13142   4.839   3.502   4.934 -1.7953  1.1448 -0.1782
  820MOL0     H13143   4.601   3.509   4.852 -1.8287 -0.7744  0.6656
  820MOL0     H13144   3.202   2.464   5.279  4.4392 -1.2099 -1.1696
  820MOL0     H13145   2.984   2.409   5.344  0.3193  2.2626 -3.5954
  820MOL0     H13146   2.679   1.931   5.472 -1.0603 -0.9466  0.3345
  820MOL0     H13147   2.455   1.812   5.442 -2.6213 -0.3131 -0.4616
  820MOL0     H13148   2.249   1.686   5.344 -3.1158 -2.7107 -1.4920
  820MOL0     H13149   2.199   1.850   5.410 -2.0898 -2.1375  1.8663
  820MOL0     H13150   2.016   1.698   5.350 -1.0783  0.9361  0.6959
  820MOL0     H13151   2.083   1.689   5.186  1.3036 -1.5303  1.2544
  820MOL0     H13152   1.960   1.944   5.316  1.9269  2.9438 -2.2881
  820MOL0     H13153   2.025   1.938   5.157  0.1302  1.1901  1.4164
  820MOL0     H13154   1.812   1.746   5.270  1.7889 -0.9055 -0.0165
  820MOL0     H13155   1.832   1.765   5.096  1.8114 -1.7382  0.4383
  820MOL0     H13156   1.570   2.069   5.134  1.4818  1.0418 -2.7572
  820MOL0     H13157   2.396   2.035   5.080  3.6900  0.6941 -3.0817
  820MOL0     H13158   2.678   2.106   4.996 -1.5383 -1.5531 -0.5942
  820MOL0     H13159   2.528   2.194   5.009  1.9632 -0.0417 -2.4483
  820MOL0     H13160   2.653   2.265   5.101 -1.9548 -0.5008  3.1535
  821MOL0     O13161   1.861   9.869   8.416  0.2825 -0.6770  0.5041
  821MOL0     C13162   1.792   9.973   8.433 -0.7983  0.8753  0.1715
  821MOL0     O13163   1.803  10.060   8.538  0.0964 -0.4866  0.2808
  821MOL0     C13164   1.900  10.051   8.635  0.2866  0.4911  0.9078
  821MOL0     C13165   1.947  10.173   8.680 -0.2275  0.6150  0.0838
  821MOL0     C13166   2.030  10.179   8.796  0.0416  0.4795 -0.2698
  821MOL0     C13167   2.084  10.054   8.839 -0.2520 -0.4519 -0.3935
  821MOL0     O13168   2.182  10.066   8.935  0.2439  0.3714 -0.6536
  821MOL0     C13169   2.210   9.947   9.016  0.1878 -0.0778 -0.3345
  821MOL0     C13170   2.329   9.994   9.096 -0.6698 -0.4931 -0.7248
  821MOL0     C13171   2.437   9.884   9.121  0.2147  0.0278  0.2312
  821MOL0     C13172   2.567   9.945   9.174 -0.8993  0.7745  0.0613
  821MOL0     C13173   2.648   9.827   9.227 -0.3702 -0.0131  0.2004
  821MOL0     C13174   2.783   9.857   9.287  0.3444 -0.4257  0.7930
  821MOL0     C13175   2.882   9.922   9.176 -0.3187 -0.4908  0.6814
  821MOL0     C13176   3.028   9.907   9.222  0.2127  0.1280 -0.3392
  821MOL0     N13177   3.116   9.979   9.129 -0.0920  0.1656 -0.0562
  821MOL0     C13178   3.225  10.053   9.182 -0.6197  0.1848 -0.6977
  821MOL0     C13179   3.303  10.057   9.070  0.1688 -0.6599  0.5657
  821MOL0     C13180   3.447  10.107   9.070  0.3918 -0.2703 -0.3731
  821MOL0     C13181   3.480  10.190   8.942  1.1232  0.0941 -0.1874
  821MOL0     C13182   3.612  10.151   8.884 -0.0424  0.2260  0.7135
  821MOL0     C13183   3.661  10.229   8.758 -1.0011  0.7654  1.0446
  821MOL0     O13184   3.662  10.367   8.787  0.6743 -0.1128  0.2013
  821MOL0     C13185   3.560  10.453   8.763  0.3542 -0.8624 -1.2122
  821MOL0     C13186   3.431  10.430   8.718  0.3901  0.0152 -0.0532
  821MOL0     C13187   3.337  10.528   8.699  0.5966  0.3710  0.7750
  821MOL0     C13188   3.211  10.485   8.632  0.6716  0.7879 -0.0074
  821MOL0     C13189   3.361  10.657   8.729  0.5268 -0.2719 -0.4284
  821MOL0     C13190   3.270  10.775   8.694 -0.3557  0.0564  0.4108
  821MOL0     O13191   3.307  10.883   8.765 -0.3002  0.0944  0.2907
  821MOL0     C13192   3.252  11.002   8.723  0.5664 -0.6613  1.1433
  821MOL0     C13193   3.113  11.024   8.738  0.0605  0.6827  0.3088
  821MOL0     C13194   3.056  11.148   8.690 -0.7952 -0.3660  0.1256
  821MOL0     C13195   3.141  11.253   8.653  0.7903 -0.8822  0.0387
  821MOL0     O13196   3.097  11.380   8.626  0.5052 -0.1420 -0.1455
  821MOL0     C13197   2.966  11.427   8.668  0.0621 -0.1621  1.1966
  821MOL0     C13198   2.946  11.564   8.615  0.2783  0.0586  0.5489
  821MOL0     C13199   2.856  11.665   8.698 -0.1737  0.3737  0.3487
  821MOL0     C13200   2.711  11.610   8.723  0.1442 -0.7909  0.2025
  821MOL0     C13201   2.619  11.703   8.796 -0.5428  0.3035 -0.0918
  821MOL0     C13202   2.502  11.621   8.843  0.6627 -0.6148  0.1558
  821MOL0     C13203   2.392  11.719   8.894  0.0219  1.2328 -0.0587
  821MOL0     C13204   2.279  11.619   8.938  0.7307  0.3091  0.0822
  821MOL0    Cl13205   2.133  11.707   9.006  0.3660  0.0108  0.1835
  821MOL0     C13206   3.278  11.232   8.655  0.0217  0.3042 -0.0048
  821MOL0     C13207   3.333  11.112   8.689  0.4965  0.0529 -0.2494
  821MOL0     O13208   3.181  10.768   8.608  0.5859  0.6635 -0.1577
  821MOL0     C13209   3.478  10.684   8.799 -0.4146 -0.0909 -0.9210
  821MOL0     C13210   3.584  10.584   8.810 -0.0262  0.5989  0.4366
  821MOL0     N13211   3.243  10.008   8.959  0.0137  0.0157  0.9167
  821MOL0     N13212   3.125   9.958   8.994 -0.2776  0.7921  0.0869
  821MOL0     C13213   2.032   9.934   8.799  0.2984  0.7072  0.3677
  821MOL0     C13214   1.930   9.935   8.705  0.6576  0.0483 -0.4206
  821MOL0     C13215   1.685   9.992   8.332  0.5952  0.0928  0.4462
  821MOL0     C13216   1.708  10.093   8.240  0.3311 -0.4046  0.3444
  821MOL0     C13217   1.619  10.116   8.132  0.7224  0.0277 -0.5480
  821MOL0     C13218   1.499  10.048   8.130 -0.5638  0.3994  1.1274
  821MOL0     O13219   1.407  10.078   8.029 -0.7844 -0.3085 -0.0016
  821MOL0     C13220   1.273  10.034   8.037  0.7456  0.3009  0.0033
  821MOL0     C13221   1.205  10.103   8.163  0.5278  0.4092  0.5791
  821MOL0     C13222   1.060  10.061   8.164  0.0411  0.0694 -0.2261
  821MOL0     C13223   0.981  10.092   8.297  0.5283 -0.0615  0.4392
  821MOL0     C13224   1.019  10.000   8.403  0.5116 -0.0871  0.3241
  821MOL0     C13225   1.047   9.914   8.481 -0.1266  0.5414 -0.0447
  821MOL0     C13226   1.478   9.934   8.213  0.0375 -0.0862 -0.2086
  821MOL0     C13227   1.566   9.914   8.320 -0.9781  0.4677  0.1352
  821MOL0     C13228   1.546   9.801   8.412 -0.6215 -0.3038 -0.2520
  821MOL0     H13229   1.915  10.262   8.627 -2.3001  0.2969  0.7325
  821MOL0     H13230   2.071  10.274   8.829  1.6802 -0.2084 -0.2114
  821MOL0     H13231   2.239   9.868   8.946 -1.0875 -0.5290 -0.3768
  821MOL0     H13232   2.123   9.912   9.073  0.5999  1.9312  1.6583
  821MOL0     H13233   2.376  10.080   9.046 -0.3403  0.1868  0.6953
  821MOL0     H13234   2.288  10.032   9.190  0.8827 -1.9680  0.6026
  821MOL0     H13235   2.392   9.811   9.189 -2.8501  1.1521 -0.4181
  821MOL0     H13236   2.461   9.836   9.026  1.1431  0.2443  0.3481
  821MOL0     H13237   2.619  10.000   9.095  1.8350  1.0436  1.9153
  821MOL0     H13238   2.555  10.015   9.257  0.7113  0.8555  0.2566
  821MOL0     H13239   2.654   9.749   9.151  0.1447 -0.9250  1.1411
  821MOL0     H13240   2.586   9.795   9.311 -0.0414  1.3541  1.0104
  821MOL0     H13241   2.778   9.929   9.369  0.4914 -1.3465  1.6240
  821MOL0     H13242   2.833   9.770   9.330  2.4628  1.7823  3.1628
  821MOL0     H13243   2.860  10.029   9.175 -1.0730 -0.5789  2.6148
  821MOL0     H13244   2.861   9.879   9.078  1.9076 -0.1743 -0.0113
  821MOL0     H13245   3.038   9.947   9.323 -0.8571 -1.4007  0.4139
  821MOL0     H13246   3.048   9.799   9.218 -1.5151 -0.2659  0.8196
  821MOL0     H13247   3.249  10.097   9.278  2.1096 -2.0929 -0.1854
  821MOL0     H13248   3.511  10.018   9.076 -1.2921 -1.4848  0.1741
  821MOL0     H13249   3.451  10.168   9.161 -4.3325  1.5591 -1.1105
  821MOL0     H13250   3.398  10.167   8.873 -2.5280  1.3777  3.3361
  821MOL0     H13251   3.463  10.295   8.965  1.3766  0.5714 -2.0757
  821MOL0     H13252   3.690  10.157   8.961 -0.4231 -1.9743  1.3331
  821MOL0     H13253   3.611  10.044   8.865 -2.2684  0.1495  1.0094
  821MOL0     H13254   3.761  10.192   8.736 -2.0081 -3.2131  2.3152
  821MOL0     H13255   3.586  10.202   8.683 -1.9454  1.0901  1.8547
  821MOL0     H13256   3.400  10.332   8.684  3.7659 -1.0515 -0.5258
  821MOL0     H13257   3.210  10.534   8.534  0.7487 -0.4481 -0.6466
  821MOL0     H13258   3.126  10.507   8.697  1.6925 -0.5180  1.8715
  821MOL0     H13259   3.213  10.377   8.615  2.5511  0.9451 -1.0588
  821MOL0     H13260   3.048  10.946   8.776 -0.3027  0.4755 -0.7021
  821MOL0     H13261   2.948  11.144   8.682 -0.8722 -1.9806  1.4910
  821MOL0     H13262   2.892  11.359   8.625  0.3724  0.7618 -0.9198
  821MOL0     H13263   2.963  11.432   8.777 -0.6054 -0.7408  1.2095
  821MOL0     H13264   3.044  11.609   8.595 -1.3598  3.7767 -0.1174
  821MOL0     H13265   2.900  11.559   8.515  0.9474  2.3406  0.0633
  821MOL0     H13266   2.845  11.762   8.648 -0.7760 -0.3029 -0.8877
  821MOL0     H13267   2.903  11.686   8.795 -1.8466 -1.2561  1.5752
  821MOL0     H13268   2.718  11.514   8.775 -0.5413 -1.2463 -0.5134
  821MOL0     H13269   2.663  11.598   8.625  2.9028  1.6448 -1.6091
  821MOL0     H13270   2.679  11.743   8.878  1.8550 -2.4889 -0.3461
  821MOL0     H13271   2.587  11.784   8.730  1.0180  0.1080 -1.1242
  821MOL0     H13272   2.538  11.553   8.921  2.4541  1.2015  1.0192
  821MOL0     H13273   2.462  11.564   8.759 -2.9312  0.6040  0.8701
  821MOL0     H13274   2.359  11.782   8.811  0.8742 -0.9441 -2.1950
  821MOL0     H13275   2.429  11.783   8.974 -1.7884  0.9404  1.0729
  821MOL0     H13276   2.314  11.559   9.022  0.2411 -0.1954 -0.0665
  821MOL0     H13277   2.242  11.547   8.864  2.4437 -1.7865  1.1638
  821MOL0     H13278   3.338  11.316   8.623 -1.5580  1.6810  0.5175
  821MOL0     H13279   3.439  11.092   8.677  0.6541  0.8078 -0.1441
  821MOL0     H13280   3.494  10.782   8.844  1.1853 -1.9664  3.1028
  821MOL0     H13281   3.678  10.614   8.856 -0.2922  1.9185  0.1633
  821MOL0     H13282   2.057   9.837   8.841 -2.2003 -1.5802 -2.9061
  821MOL0     H13283   1.893   9.840   8.669  1.6438 -0.7176  0.5316
  821MOL0     H13284   1.805  10.141   8.248 -0.8610  2.3457 -0.5002
  821MOL0     H13285   1.634  10.203   8.069 -1.6284  2.3707  1.8381
  821MOL0     H13286   1.219  10.056   7.944 -0.7257 -0.3931  0.6512
  821MOL0     H13287   1.268   9.925   8.050 -1.0181  0.5054  1.6652
  821MOL0     H13288   1.230  10.210   8.163  1.2003  0.3225 -2.1347
  821MOL0     H13289   1.246  10.063   8.256 -0.6061 -2.0980  0.0742
  821MOL0     H13290   1.008  10.109   8.081 -1.5068  0.6674  1.0513
  821MOL0     H13291   1.050   9.953   8.146 -2.9881  0.2669 -0.0882
  821MOL0     H13292   0.875  10.081   8.276  0.4345 -1.4968  1.5421
  821MOL0     H13293   1.008  10.190   8.339  1.0611 -0.3479  0.7733
  821MOL0     H13294   1.055   9.828   8.546 -2.5655 -1.1613 -1.8389
  821MOL0     H13295   1.397   9.864   8.194  0.2698  0.3262 -3.0855
  821MOL0     H13296   1.615   9.722   8.380  1.6978  1.7348 -0.5596
  821MOL0     H13297   1.573   9.832   8.514  0.3367  0.8437 -0.8230
  821MOL0     H13298   1.443   9.767   8.399 -0.2375 -1.2278 -1.0496
  822MOL0     O13299  10.884   8.902   8.696  0.3160  0.2296  0.5691
  822MOL0     C13300  10.845   8.955   8.796  0.7933  0.1517 -0.5052
  822MOL0     O13301  10.930   9.024   8.888  0.1799 -0.3315  0.6518
  822MOL0     C13302  11.062   9.052   8.860 -0.2435  0.4640  0.2410
  822MOL0     C13303  11.157   9.050   8.958  0.4057  0.3937 -0.3630
  822MOL0     C13304  11.289   9.080   8.937  0.2774 -0.1154 -0.2812
  822MOL0     C13305  11.336   9.105   8.812  0.2616 -0.2402  0.7274
  822MOL0     O13306  11.472   9.134   8.805 -0.4023  0.4414 -0.5450
  822MOL0     C13307  11.547   9.103   8.683  0.6793 -0.7876  0.3960
  822MOL0     C13308  11.692   9.088   8.728  0.7196  0.7528  0.9171
  822MOL0     C13309  11.778   9.068   8.607 -0.0578  0.5264  0.5910
  822MOL0     C13310  11.920   9.016   8.648  0.2642 -0.5792 -0.3571
  822MOL0     C13311  12.011   9.035   8.531  0.0240 -0.2348  0.6314
  822MOL0     C13312  12.156   8.997   8.567 -0.4550  0.3666  0.7197
  822MOL0     C13313  12.246   9.122   8.565 -0.6852 -0.7930  0.2072
  822MOL0     C13314  12.397   9.092   8.590  0.0939  0.2716  0.3060
  822MOL0     N13315  12.486   9.208   8.564  1.3151  0.5745  0.2751
  822MOL0     C13316  12.535   9.300   8.649  0.2900 -0.3885  0.5896
  822MOL0     C13317  12.614   9.380   8.575 -0.1887 -0.1317  0.8412
  822MOL0     C13318  12.680   9.505   8.630 -0.3788 -0.6439  1.1096
  822MOL0     C13319  12.810   9.471   8.690  0.4277  1.0706 -0.2005
  822MOL0     C13320  12.908   9.410   8.591  0.2166 -0.4711  0.5859
  822MOL0     C13321  13.042   9.400   8.644  0.4126  0.0277  0.0572
  822MOL0     O13322  13.094   9.528   8.673  0.2516 -0.6695  0.1329
  822MOL0     C13323  13.206   9.547   8.750  0.3261  0.8504 -0.1129
  822MOL0     C13324  13.321   9.471   8.744 -0.9779 -0.0265  0.4795
  822MOL0     C13325  13.427   9.483   8.833 -0.6544 -0.1208  0.1956
  822MOL0     C13326  13.535   9.381   8.811  0.3841 -0.5622  0.3124
  822MOL0     C13327  13.407   9.571   8.937 -0.1454  0.5175 -0.3500
  822MOL0     C13328  13.504   9.572   9.049  0.7152  0.1922 -0.2843
  822MOL0     O13329  13.618   9.495   9.052 -0.6669 -0.2023 -0.2266
  822MOL0     C13330  13.721   9.503   9.136  0.4273 -0.0607 -1.0282
  822MOL0     C13331  13.728   9.540   9.274  0.0600  0.4245  0.8838
  822MOL0     C13332  13.849   9.538   9.340  0.1416 -0.5506 -0.4540
  822MOL0     C13333  13.970   9.492   9.281  0.6754  0.5134 -0.4997
  822MOL0     O13334  14.081   9.489   9.358  0.3304  0.3770  0.1381
  822MOL0     C13335  14.197   9.442   9.290  0.7606 -0.6928 -0.8430
  822MOL0     C13336  14.299   9.445   9.399  0.3265 -0.6139  0.0452
  822MOL0     C13337  14.439   9.416   9.346  0.2335 -0.4867  0.5284
  822MOL0     C13338  14.505   9.530   9.266  0.0419 -0.2352  0.0949
  822MOL0     C13339  14.655   9.519   9.250  0.4589  0.1165  0.6853
  822MOL0     C13340  14.723   9.643   9.188  0.0968  0.0720 -0.6782
  822MOL0     C13341  14.866   9.609   9.178 -0.5814  0.4316  0.3721
  822MOL0     C13342  14.953   9.746   9.157 -0.5393  0.2842  0.3150
  822MOL0    Cl13343  14.969   9.831   9.313  0.6600 -0.3902 -0.6013
  822MOL0     C13344  13.956   9.454   9.149 -0.1657 -0.8336  0.3145
  822MOL0     C13345  13.837   9.448   9.079 -0.3672  0.0758 -0.0052
  822MOL0     O13346  13.480   9.663   9.137 -0.2151 -0.0012 -0.0717
  822MOL0     C13347  13.296   9.657   8.942 -0.3531 -0.3028  0.3351
  822MOL0     C13348  13.197   9.648   8.844  0.3065 -0.2090  0.0795
  822MOL0     N13349  12.619   9.338   8.447 -0.1672  1.0192 -0.0060
  822MOL0     N13350  12.534   9.242   8.449  0.4026 -0.7992  0.5371
  822MOL0     C13351  11.242   9.108   8.702 -0.4224 -0.0312 -0.0600
  822MOL0     C13352  11.107   9.083   8.734 -0.0800 -0.8216 -0.2311
  822MOL0     C13353  10.693   8.941   8.821 -0.2403  0.4549  0.6815
  822MOL0     C13354  10.651   8.945   8.954  0.0978  0.6004 -0.5767
  822MOL0     C13355  10.521   8.915   8.985  0.4255  0.1028  0.3417
  822MOL0     C13356  10.426   8.883   8.895 -0.0490 -0.7375  0.5629
  822MOL0     O13357  10.299   8.862   8.947  0.1915  0.4461  0.3962
  822MOL0     C13358  10.195   8.811   8.869 -0.1832 -0.2591  0.7755
  822MOL0     C13359  10.129   8.925   8.809 -0.0330  1.0296 -0.6374
  822MOL0     C13360   9.987   8.902   8.750  0.2860  0.4309 -0.4373
  822MOL0     C13361   9.976   8.843   8.604  0.4947  0.2002 -0.2052
  822MOL0     C13362  10.046   8.917   8.504 -0.7138 -0.5811 -0.4184
  822MOL0     C13363  10.091   8.975   8.410 -0.8492  0.5645  0.5728
  822MOL0     C13364  10.456   8.897   8.756  0.1534  0.2449  0.2566
  822MOL0     C13365  10.591   8.920   8.724 -0.2543  0.0457 -0.3758
  822MOL0     C13366  10.628   8.937   8.581  0.3104  0.6534  0.5431
  822MOL0     H13367  11.126   9.036   9.061  2.6804  0.6144  0.4148
  822MOL0     H13368  11.360   9.078   9.019 -2.6813  1.1969  2.5470
  822MOL0     H13369  11.549   9.193   8.620  3.5857  0.8321  2.5604
  822MOL0     H13370  11.499   9.027   8.622 -1.7368 -2.0253  3.5631
  822MOL0     H13371  11.727   9.167   8.794  0.2565 -1.0110  3.4339
  822MOL0     H13372  11.702   8.990   8.776  1.9470  0.8505  0.8859
  822MOL0     H13373  11.724   9.006   8.534  2.6129 -0.6468 -0.5222
  822MOL0     H13374  11.785   9.168   8.565 -0.5630  1.4390  2.5694
  822MOL0     H13375  11.959   9.072   8.733 -0.7218 -1.6661  0.8555
  822MOL0     H13376  11.915   8.909   8.670 -0.4948 -0.6077 -0.6141
  822MOL0     H13377  12.009   9.137   8.492  2.3813 -1.0242 -1.9056
  822MOL0     H13378  11.970   8.969   8.454 -4.1874  1.2421  1.3616
  822MOL0     H13379  12.159   8.947   8.664 -2.1247 -0.3507  0.4360
  822MOL0     H13380  12.185   8.933   8.483 -1.6450  1.3851 -0.5173
  822MOL0     H13381  12.214   9.193   8.642 -0.8545  0.8762 -1.3326
  822MOL0     H13382  12.229   9.159   8.463  0.8567 -0.5202  0.0342
  822MOL0     H13383  12.421   9.048   8.688  1.9988 -1.7085 -0.9508
  822MOL0     H13384  12.412   9.004   8.527 -1.1361 -2.5106  3.5562
  822MOL0     H13385  12.506   9.315   8.752 -1.6850  0.9072 -0.0799
  822MOL0     H13386  12.612   9.553   8.701  0.1542  2.4137 -0.2913
  822MOL0     H13387  12.692   9.577   8.549  0.5383 -1.6959  0.2874
  822MOL0     H13388  12.855   9.562   8.731 -0.6173  1.2132  0.6849
  822MOL0     H13389  12.786   9.395   8.764  0.8371  0.3239 -0.8207
  822MOL0     H13390  12.872   9.315   8.550  4.3696 -1.2110 -2.0604
  822MOL0     H13391  12.906   9.463   8.495 -1.9754  0.7509  1.2509
  822MOL0     H13392  13.047   9.338   8.734 -1.5921  1.5807  1.3230
  822MOL0     H13393  13.104   9.362   8.562  0.1008  0.4730 -0.3950
  822MOL0     H13394  13.316   9.399   8.663  0.6664  0.6029 -0.2216
  822MOL0     H13395  13.527   9.309   8.893  2.3497 -0.3727  0.7090
  822MOL0     H13396  13.634   9.424   8.792  0.1799 -1.3953 -3.5436
  822MOL0     H13397  13.522   9.335   8.712  0.3629 -0.7802  0.4157
  822MOL0     H13398  13.639   9.577   9.324  0.3952  2.4931  0.0613
  822MOL0     H13399  13.849   9.579   9.441  1.7540  0.7362 -0.9336
  822MOL0     H13400  14.198   9.348   9.235  2.1800  0.0308 -2.1153
  822MOL0     H13401  14.241   9.519   9.227  0.6009 -0.2365 -0.4046
  822MOL0     H13402  14.303   9.537   9.458 -0.2357 -1.0228  0.7337
  822MOL0     H13403  14.265   9.371   9.471 -3.0698  1.5670  0.8859
  822MOL0     H13404  14.443   9.327   9.284 -0.4113  0.0813 -0.3552
  822MOL0     H13405  14.503   9.397   9.433  0.6585  0.4509  0.4422
  822MOL0     H13406  14.485   9.625   9.316  1.1641 -0.2612  0.6114
  822MOL0     H13407  14.451   9.523   9.171  0.5883 -3.1579 -0.0956
  822MOL0     H13408  14.693   9.515   9.353  3.6170  1.9834 -0.2832
  822MOL0     H13409  14.668   9.432   9.185  0.0528  1.5025 -1.3477
  822MOL0     H13410  14.706   9.738   9.240  1.9846 -0.5760  1.2708
  822MOL0     H13411  14.672   9.657   9.092 -5.9559 -0.2591  1.9698
  822MOL0     H13412  14.882   9.542   9.094  0.4809 -0.0862  0.9573
  822MOL0     H13413  14.897   9.559   9.271 -1.0927  1.1850  0.9630
  822MOL0     H13414  14.904   9.810   9.083 -1.3691  0.2294  0.8110
  822MOL0     H13415  15.054   9.709   9.137 -0.4632 -0.3402  1.7554
  822MOL0     H13416  14.039   9.418   9.089 -0.5857 -0.8112 -0.2937
  822MOL0     H13417  13.843   9.410   8.978 -0.1740  1.0329 -0.3628
  822MOL0     H13418  13.292   9.729   9.023  0.8487 -0.6574  0.7440
  822MOL0     H13419  13.107   9.709   8.846  0.1292 -0.3823 -1.3293
  822MOL0     H13420  11.268   9.138   8.601  1.4429  1.9073  0.9197
  822MOL0     H13421  11.028   9.093   8.659  1.9489  0.7493 -2.3176
  822MOL0     H13422  10.713   8.992   9.030  1.6974 -0.2888 -1.2596
  822MOL0     H13423  10.472   8.921   9.082 -2.4623  3.4386 -1.1304
  822MOL0     H13424  10.215   8.740   8.788 -3.7544  0.4888 -0.9797
  822MOL0     H13425  10.117   8.773   8.936 -3.2474  2.6642 -0.8425
  822MOL0     H13426  10.188   8.982   8.736  0.5372  3.9581  1.9162
  822MOL0     H13427  10.103   8.993   8.890 -0.5955 -0.6960  0.6913
  822MOL0     H13428   9.936   8.834   8.820 -0.4653  0.7112 -0.7005
  822MOL0     H13429   9.933   8.995   8.729  1.2308  0.3438 -3.8165
  822MOL0     H13430   9.870   8.837   8.580  0.5518  0.3341 -0.5000
  822MOL0     H13431  10.008   8.738   8.602  1.3997  0.3871  1.7236
  822MOL0     H13432  10.137   9.020   8.325 -2.9979  3.8593  0.9694
  822MOL0     H13433  10.375   8.887   8.684 -0.7268  1.3215  1.0630
  822MOL0     H13434  10.542   8.965   8.520 -1.9675 -1.7186  2.4343
  822MOL0     H13435  10.701   9.017   8.564  1.2636 -0.5956 -1.7350
  822MOL0     H13436  10.669   8.847   8.535  2.4390  2.4837 -1.4296
  823MOL0     O13437   3.370   2.078   7.534  0.2687 -0.3059  1.1859
  823MOL0     C13438   3.410   2.040   7.644 -1.2962 -0.4329 -0.0846
  823MOL0     O13439   3.544   2.016   7.683  0.1764 -0.2701  0.0272
  823MOL0     C13440   3.650   2.039   7.593  0.4619  0.1040  0.0337
  823MOL0     C13441   3.647   2.143   7.503  0.3697  0.2504  0.4216
  823MOL0     C13442   3.756   2.163   7.413 -0.2371 -0.6787 -0.5432
  823MOL0     C13443   3.869   2.083   7.416 -0.4368 -0.1216 -0.3890
  823MOL0     O13444   3.978   2.096   7.332 -0.5852  0.9010 -0.2456
  823MOL0     C13445   3.986   2.217   7.268 -0.2180 -0.0716  0.4440
  823MOL0     C13446   4.123   2.216   7.194 -0.9523 -0.2373  0.7182
  823MOL0     C13447   4.135   2.324   7.088 -1.1796 -0.7821  0.0719
  823MOL0     C13448   4.116   2.465   7.138  0.3288 -0.6792 -0.2096
  823MOL0     C13449   4.130   2.562   7.021  0.1072  0.6565 -0.5422
  823MOL0     C13450   4.075   2.699   7.051  0.0708 -1.1127 -0.8738
  823MOL0     C13451   4.094   2.809   6.940  0.4219  0.5006 -0.4439
  823MOL0     C13452   4.021   2.749   6.824 -0.0149 -0.3185 -0.5303
  823MOL0     N13453   3.876   2.719   6.853  0.0214 -0.3529 -0.6910
  823MOL0     C13454   3.789   2.786   6.939 -0.1793  0.0386 -0.2436
  823MOL0     C13455   3.674   2.715   6.944  0.1517  1.2509 -0.2213
  823MOL0     C13456   3.544   2.744   7.022  0.2221  0.4825 -0.5048
  823MOL0     C13457   3.564   2.753   7.172  0.3052 -0.0996 -0.0410
  823MOL0     C13458   3.482   2.866   7.239  0.2466 -0.1276 -0.7512
  823MOL0     C13459   3.431   2.826   7.379 -1.0201 -0.2638  0.4974
  823MOL0     O13460   3.336   2.924   7.436  0.3046  0.9928  0.0900
  823MOL0     C13461   3.200   2.938   7.401 -0.0597 -0.3349 -0.2063
  823MOL0     C13462   3.132   2.898   7.286  0.1249 -0.1256  0.4979
  823MOL0     C13463   2.995   2.930   7.267  0.1061 -0.5355  0.1990
  823MOL0     C13464   2.925   2.880   7.144 -0.1543 -0.2114  0.3574
  823MOL0     C13465   2.922   2.991   7.369 -0.2282 -0.7692 -0.1253
  823MOL0     C13466   2.772   3.018   7.362 -0.2091  0.0390  0.2599
  823MOL0     O13467   2.711   3.050   7.242 -0.2422 -0.3353 -0.4064
  823MOL0     C13468   2.573   3.052   7.242  0.0401 -0.5192 -0.4968
  823MOL0     C13469   2.512   3.176   7.268  0.0249 -0.0151  0.0671
  823MOL0     C13470   2.379   3.189   7.262 -0.1322  0.1935 -0.1717
  823MOL0     C13471   2.293   3.078   7.234 -0.0307 -0.7572 -1.1826
  823MOL0     O13472   2.157   3.108   7.215  0.2903 -0.3293 -0.1533
  823MOL0     C13473   2.058   3.003   7.190 -0.2616  0.0909  0.0573
  823MOL0     C13474   1.920   3.040   7.239 -0.6134  0.3993  0.3478
  823MOL0     C13475   1.868   3.169   7.156  0.1168 -0.0281  0.4319
  823MOL0     C13476   1.718   3.165   7.151 -0.2692  0.0014  0.6407
  823MOL0     C13477   1.671   3.069   7.036 -0.3331 -0.2752  0.4102
  823MOL0     C13478   1.519   3.046   7.041  0.1227 -0.3240 -0.1565
  823MOL0     C13479   1.488   2.935   7.141  0.0303  0.2225 -0.4405
  823MOL0     C13480   1.334   2.930   7.141 -0.3573 -0.0465 -1.0721
  823MOL0    Cl13481   1.268   2.859   7.287 -0.3300  0.3733  0.4151
  823MOL0     C13482   2.357   2.961   7.200  0.4011 -0.2862 -0.8244
  823MOL0     C13483   2.495   2.947   7.199 -0.7898 -0.1891 -0.2491
  823MOL0     O13484   2.712   3.013   7.470  0.5193  0.2814 -0.1016
  823MOL0     C13485   2.990   3.041   7.479  0.0042  0.7034  0.1661
  823MOL0     C13486   3.126   3.014   7.494 -0.0066  0.3308 -0.0964
  823MOL0     N13487   3.687   2.603   6.864  0.0963 -0.0317 -0.3044
  823MOL0     N13488   3.806   2.608   6.809 -0.2963 -0.4464 -0.4608
  823MOL0     C13489   3.874   1.981   7.507  0.4850 -0.1178 -0.2287
  823MOL0     C13490   3.767   1.965   7.605 -0.4370 -0.0716 -0.8233
  823MOL0     C13491   3.312   2.036   7.749  0.1670  0.4626  0.3466
  823MOL0     C13492   3.347   1.958   7.856 -0.5047  0.6625  0.5418
  823MOL0     C13493   3.268   1.948   7.962  0.3575  0.1596 -0.1984
  823MOL0     C13494   3.139   2.005   7.965 -0.6713  0.6000 -0.5886
  823MOL0     O13495   3.056   1.990   8.075 -0.7681  0.2515  0.1177
  823MOL0     C13496   3.093   2.065   8.185  0.4261 -0.7548 -0.0979
  823MOL0     C13497   3.017   2.202   8.202  0.7324  0.0863  0.1316
  823MOL0     C13498   2.861   2.186   8.199  0.1725  0.2250 -0.7019
  823MOL0     C13499   2.794   2.076   8.279 -0.5105 -0.0239 -0.2310
  823MOL0     C13500   2.793   2.113   8.422  0.2722 -0.5112 -0.1128
  823MOL0     C13501   2.791   2.140   8.538 -0.0219  0.1491 -0.1904
  823MOL0     C13502   3.111   2.100   7.867  0.3662  0.3128 -1.2391
  823MOL0     C13503   3.204   2.117   7.761  0.4384 -0.1639  0.1099
  823MOL0     C13504   3.151   2.217   7.663 -0.5638  0.0606 -0.8546
  823MOL0     H13505   3.562   2.210   7.494  2.3417  2.9360  0.3995
  823MOL0     H13506   3.751   2.236   7.333  0.2903 -1.1761 -1.0485
  823MOL0     H13507   3.988   2.300   7.340  1.0735 -0.1193  0.4835
  823MOL0     H13508   3.905   2.237   7.197 -0.4863  0.8686  0.9984
  823MOL0     H13509   4.209   2.222   7.261  0.9243  0.5526 -1.6153
  823MOL0     H13510   4.143   2.121   7.144  2.1903 -0.7367  2.6863
  823MOL0     H13511   4.227   2.317   7.030 -1.5116 -2.7165 -0.2943
  823MOL0     H13512   4.055   2.307   7.014 -1.7040 -0.6435  0.5963
  823MOL0     H13513   4.014   2.473   7.178  0.5437 -2.5913  0.8157
  823MOL0     H13514   4.183   2.495   7.219 -1.7352 -0.5318  1.5454
  823MOL0     H13515   4.084   2.507   6.938  0.5454 -2.3972  1.0795
  823MOL0     H13516   4.238   2.552   7.007  0.6709  1.8932  2.1432
  823MOL0     H13517   3.975   2.696   7.096  0.5104 -1.6101  0.1142
  823MOL0     H13518   4.133   2.728   7.139  0.3063 -1.9322 -0.7523
  823MOL0     H13519   4.198   2.824   6.907  0.5995  2.0197  0.6922
  823MOL0     H13520   4.042   2.902   6.965 -3.2752 -1.5174 -0.0860
  823MOL0     H13521   4.024   2.826   6.747 -2.3380 -1.0208 -1.4297
  823MOL0     H13522   4.059   2.655   6.782 -1.8029 -0.8685 -1.0141
  823MOL0     H13523   3.805   2.883   6.984 -1.3958  1.2874 -2.3529
  823MOL0     H13524   3.476   2.659   7.008  0.3258  0.4320 -0.7099
  823MOL0     H13525   3.489   2.828   6.979 -0.9198 -0.6402 -1.3131
  823MOL0     H13526   3.523   2.664   7.221 -0.6652  0.1763 -0.3217
  823MOL0     H13527   3.669   2.766   7.199  0.9059 -0.5871 -2.0238
  823MOL0     H13528   3.539   2.959   7.247 -3.2220  2.0621  0.6681
  823MOL0     H13529   3.389   2.877   7.184 -0.0374 -0.4999 -0.3554
  823MOL0     H13530   3.383   2.728   7.373 -0.1440 -0.6196 -3.1584
  823MOL0     H13531   3.513   2.815   7.450 -0.8141 -1.1371  0.1343
  823MOL0     H13532   3.174   2.856   7.196  2.6386 -0.8689  1.9171
  823MOL0     H13533   2.829   2.835   7.169  0.0741 -1.1507 -0.3993
  823MOL0     H13534   2.992   2.810   7.093  0.2246  1.1845 -1.1994
  823MOL0     H13535   2.918   2.970   7.082  1.0539 -0.5118 -0.2501
  823MOL0     H13536   2.584   3.251   7.300  1.2157 -1.6668  1.4556
  823MOL0     H13537   2.335   3.285   7.288  1.4027  1.4969 -2.1059
  823MOL0     H13538   2.048   2.997   7.081 -0.7506  0.8678  0.0513
  823MOL0     H13539   2.088   2.905   7.228  3.1714  1.2368  0.6340
  823MOL0     H13540   1.851   2.957   7.221 -1.7945  1.9361 -2.9337
  823MOL0     H13541   1.926   3.059   7.346 -0.8299  1.3068  0.2077
  823MOL0     H13542   1.916   3.185   7.059 -1.6723  3.9662  0.0020
  823MOL0     H13543   1.891   3.266   7.201  0.0096  0.3107 -0.2169
  823MOL0     H13544   1.683   3.268   7.138 -1.6252 -0.4779  0.3651
  823MOL0     H13545   1.682   3.136   7.250  1.4187 -3.3140  0.4141
  823MOL0     H13546   1.698   3.108   6.938 -2.7507  1.2616  0.2725
  823MOL0     H13547   1.719   2.972   7.046  2.5589  1.1003  0.9016
  823MOL0     H13548   1.481   3.025   6.940  3.6242 -1.0295 -1.4455
  823MOL0     H13549   1.490   3.143   7.082  2.9282  0.2952  0.5586
  823MOL0     H13550   1.530   2.949   7.241  0.1653 -2.0496 -0.1292
  823MOL0     H13551   1.531   2.842   7.103  1.6781  1.1981 -1.0126
  823MOL0     H13552   1.305   2.880   7.049  1.0644 -1.4498 -0.8007
  823MOL0     H13553   1.296   3.033   7.138 -0.0018  0.2330  1.3968
  823MOL0     H13554   2.305   2.871   7.168 -0.0605  0.1118 -1.2129
  823MOL0     H13555   2.542   2.853   7.173 -2.9534 -0.8343 -2.2159
  823MOL0     H13556   2.947   3.101   7.559 -1.1218  3.6241 -2.4380
  823MOL0     H13557   3.188   3.056   7.572  0.8174 -0.7871 -0.1235
  823MOL0     H13558   3.970   1.932   7.510  1.7747  2.2628  3.0817
  823MOL0     H13559   3.778   1.894   7.686 -0.7308 -0.7926 -1.4088
  823MOL0     H13560   3.440   1.901   7.859 -0.7164  0.3342  0.8349
  823MOL0     H13561   3.298   1.901   8.055 -1.8430  1.0593  1.0566
  823MOL0     H13562   3.068   2.001   8.271 -0.2230 -2.9517 -1.8083
  823MOL0     H13563   3.202   2.074   8.191  0.2932  0.9031  0.1883
  823MOL0     H13564   3.039   2.273   8.121  1.5740 -0.0741  0.2050
  823MOL0     H13565   3.055   2.248   8.293  2.9616  0.3354 -0.8438
  823MOL0     H13566   2.818   2.281   8.230 -1.6145  0.0005 -2.3170
  823MOL0     H13567   2.845   2.160   8.094  0.8262  1.4630 -1.1250
  823MOL0     H13568   2.851   1.987   8.249  0.1909  0.3434 -0.0062
  823MOL0     H13569   2.692   2.062   8.242 -0.1738  0.3286 -1.3473
  823MOL0     H13570   2.787   2.164   8.642 -1.0758 -1.5930  0.2208
  823MOL0     H13571   3.015   2.151   7.879  0.1889 -0.1583 -0.5799
  823MOL0     H13572   3.228   2.272   7.609 -0.5433 -0.4609 -1.3664
  823MOL0     H13573   3.077   2.173   7.595  0.3508  0.5015 -2.1742
  823MOL0     H13574   3.097   2.296   7.717  0.0359 -0.2543  0.2356
  824MOL0     O13575   3.362   3.483   4.161  0.1123  0.1283  0.7767
  824MOL0     C13576   3.367   3.593   4.106  0.1920 -0.4711  0.6422
  824MOL0     O13577   3.270   3.663   4.044  0.9294 -0.5250 -0.6241
  824MOL0     C13578   3.152   3.597   4.050 -0.2465 -0.2712 -1.0441
  824MOL0     C13579   3.106   3.527   3.941  0.7530  0.0348  0.8432
  824MOL0     C13580   2.979   3.463   3.948 -0.2522 -0.5937 -0.0033
  824MOL0     C13581   2.905   3.447   4.064 -0.4909 -0.7053  0.3397
  824MOL0     O13582   2.788   3.371   4.052 -0.5092 -0.7257 -0.0835
  824MOL0     C13583   2.675   3.411   4.137 -0.3248 -0.0434  0.0451
  824MOL0     C13584   2.561   3.476   4.062 -0.5059 -0.5468 -0.4601
  824MOL0     C13585   2.599   3.601   3.987 -0.1503 -0.8387  0.0701
  824MOL0     C13586   2.611   3.712   4.088 -0.0247 -0.4289 -0.5563
  824MOL0     C13587   2.681   3.834   4.032 -0.6413 -0.6522 -0.3610
  824MOL0     C13588   2.835   3.831   4.043  0.6505  1.0662  0.0234
  824MOL0     C13589   2.886   3.966   4.003 -0.4472 -0.0837  0.0367
  824MOL0     C13590   3.040   3.949   3.987 -0.0333 -0.0930 -1.3216
  824MOL0     N13591   3.094   4.089   3.975 -0.3604 -0.1176  1.2782
  824MOL0     C13592   3.089   4.173   3.864 -0.1517  0.8491 -0.0373
  824MOL0     C13593   3.150   4.283   3.901 -0.0063  0.6589 -0.1926
  824MOL0     C13594   3.170   4.407   3.816  0.0866  0.6100 -0.3485
  824MOL0     C13595   3.286   4.495   3.887 -0.3823  0.1818 -0.2172
  824MOL0     C13596   3.430   4.452   3.886 -0.2150  0.3781  0.4382
  824MOL0     C13597   3.519   4.525   3.991  0.2312 -0.2765 -0.4492
  824MOL0     O13598   3.640   4.458   3.994 -0.4993 -0.1558  0.5194
  824MOL0     C13599   3.740   4.521   4.051 -0.2332  1.1426 -0.8416
  824MOL0     C13600   3.727   4.599   4.162 -0.3435 -0.4366 -0.6723
  824MOL0     C13601   3.835   4.653   4.238 -1.1232  0.2044 -0.2273
  824MOL0     C13602   3.815   4.739   4.364  0.3490  0.4605  0.0420
  824MOL0     C13603   3.965   4.628   4.190  0.0580 -0.0605  0.5891
  824MOL0     C13604   4.089   4.659   4.268  0.1019 -0.8553 -0.3913
  824MOL0     O13605   4.188   4.724   4.189  0.3737  0.0443 -0.1730
  824MOL0     C13606   4.308   4.764   4.235 -0.2000  0.5956 -0.0402
  824MOL0     C13607   4.385   4.690   4.332 -0.2910 -0.0473  0.2881
  824MOL0     C13608   4.513   4.741   4.369 -0.6314 -0.2957  0.4333
  824MOL0     C13609   4.576   4.839   4.297  0.3732 -0.0027 -0.4103
  824MOL0     O13610   4.707   4.867   4.339  0.4339  0.1158 -0.0545
  824MOL0     C13611   4.809   4.936   4.268 -0.4724 -0.2850  0.0641
  824MOL0     C13612   4.898   4.832   4.200 -0.4817  0.2414  0.0214
  824MOL0     C13613   5.012   4.903   4.135  0.3551 -0.4698  0.7710
  824MOL0     C13614   5.087   4.803   4.056  0.3097  1.1164 -0.7504
  824MOL0     C13615   5.228   4.852   4.026  0.8832 -0.4211 -0.1909
  824MOL0     C13616   5.282   4.812   3.892  0.9485 -0.0940  0.4845
  824MOL0     C13617   5.353   4.673   3.894 -0.3072 -0.0103  0.0184
  824MOL0     C13618   5.494   4.680   3.845 -0.4492  0.2139  0.4957
  824MOL0    Cl13619   5.573   4.788   3.967  0.3423 -0.5532 -0.2224
  824MOL0     C13620   4.500   4.908   4.204  0.5537 -0.9693  0.0094
  824MOL0     C13621   4.370   4.873   4.175 -0.1751  0.4802  0.0463
  824MOL0     O13622   4.096   4.634   4.387  0.6425 -0.1195 -0.5148
  824MOL0     C13623   3.980   4.539   4.079 -0.7988  0.1068  0.1885
  824MOL0     C13624   3.869   4.487   4.011  0.0779  0.2748 -0.2967
  824MOL0     N13625   3.209   4.262   4.035 -0.4071  0.2110  0.3864
  824MOL0     N13626   3.168   4.146   4.077 -0.2098  1.0272 -0.2519
  824MOL0     C13627   2.950   3.530   4.175 -0.0153  0.8615  0.2778
  824MOL0     C13628   3.068   3.598   4.171  0.1705 -0.1711  0.2561
  824MOL0     C13629   3.501   3.656   4.104  0.7494 -0.0129  0.5219
  824MOL0     C13630   3.608   3.567   4.076  0.1004 -0.7545  0.2202
  824MOL0     C13631   3.733   3.624   4.050  0.1008  0.4516  0.3406
  824MOL0     C13632   3.760   3.764   4.071 -0.4400  0.6382 -0.5978
  824MOL0     O13633   3.880   3.828   4.047 -0.2441  0.5294 -0.0952
  824MOL0     C13634   3.996   3.743   4.017  0.5252 -0.3359  0.2666
  824MOL0     C13635   4.107   3.846   3.983  0.3862 -0.6081  0.6752
  824MOL0     C13636   4.239   3.780   3.932 -1.1623 -0.1336 -0.9798
  824MOL0     C13637   4.229   3.739   3.779  0.0747 -0.7286 -0.7539
  824MOL0     C13638   4.329   3.643   3.733  0.2699  0.1266  1.0511
  824MOL0     C13639   4.404   3.556   3.693  0.0166 -0.1283 -0.0373
  824MOL0     C13640   3.651   3.846   4.092 -0.3144  0.6251 -0.1106
  824MOL0     C13641   3.519   3.800   4.112  0.4644  0.2276  0.4937
  824MOL0     C13642   3.413   3.899   4.138  0.0912  0.1661 -0.5164
  824MOL0     H13643   3.146   3.540   3.841 -1.6782 -1.4153 -0.4325
  824MOL0     H13644   2.946   3.418   3.855 -0.1000  3.0467 -2.0099
  824MOL0     H13645   2.702   3.493   4.204 -1.9752 -0.5250  1.3688
  824MOL0     H13646   2.629   3.329   4.193 -2.4828  1.0894  0.0256
  824MOL0     H13647   2.516   3.403   3.994 -1.1524  0.4203 -1.1055
  824MOL0     H13648   2.490   3.503   4.141  3.2742 -1.8943  3.7994
  824MOL0     H13649   2.698   3.574   3.948  1.3448 -1.0181  3.6578
  824MOL0     H13650   2.531   3.630   3.907 -0.2847 -0.4299  0.3335
  824MOL0     H13651   2.505   3.736   4.100 -0.7760 -1.4530 -4.0531
  824MOL0     H13652   2.670   3.691   4.177 -0.6449  0.8648  0.1938
  824MOL0     H13653   2.656   3.923   4.091 -2.1440 -0.0982 -1.7315
  824MOL0     H13654   2.663   3.846   3.924 -0.7281  1.4742 -0.1502
  824MOL0     H13655   2.870   3.812   4.144 -1.3206  0.2194  0.6010
  824MOL0     H13656   2.875   3.761   3.970  0.3865  2.2307 -1.3002
  824MOL0     H13657   2.872   4.034   4.088  1.2891 -0.1368  0.3917
  824MOL0     H13658   2.830   4.016   3.923  2.4173  1.2528 -1.2745
  824MOL0     H13659   3.093   3.898   4.068  0.4637  1.8175 -0.3754
  824MOL0     H13660   3.043   3.887   3.898 -2.5794 -2.0513 -0.1415
  824MOL0     H13661   3.032   4.154   3.773 -1.1331 -2.3613  1.1053
  824MOL0     H13662   3.083   4.474   3.821 -0.4355 -0.1089  0.8847
  824MOL0     H13663   3.190   4.382   3.712  0.0986 -1.0560  0.0222
  824MOL0     H13664   3.272   4.586   3.829  0.9247 -0.1709 -1.1315
  824MOL0     H13665   3.259   4.526   3.988 -1.1355 -0.5702 -0.1705
  824MOL0     H13666   3.432   4.346   3.913  1.2313  0.4143  0.5983
  824MOL0     H13667   3.472   4.458   3.785  0.9194 -0.4772  0.8271
  824MOL0     H13668   3.536   4.629   3.961 -0.6516 -0.7930 -2.9868
  824MOL0     H13669   3.468   4.528   4.087 -0.2601 -0.7471 -0.6888
  824MOL0     H13670   3.631   4.612   4.210  0.3652 -2.2152  1.4224
  824MOL0     H13671   3.880   4.715   4.449 -0.7317 -1.0419  0.4916
  824MOL0     H13672   3.713   4.733   4.403  0.1274  0.1099 -0.5817
  824MOL0     H13673   3.826   4.846   4.344 -0.9604  0.4444 -0.9371
  824MOL0     H13674   4.331   4.609   4.380 -1.6412  0.7892  0.2336
  824MOL0     H13675   4.559   4.689   4.453 -0.5108 -4.8402 -2.1397
  824MOL0     H13676   4.766   5.012   4.203 -2.1265 -0.9714  0.3254
  824MOL0     H13677   4.878   4.991   4.333 -1.2946  1.2346 -0.2855
  824MOL0     H13678   4.932   4.757   4.272  1.2508  0.8815 -0.0741
  824MOL0     H13679   4.835   4.783   4.126  0.3787 -3.5254  1.5812
  824MOL0     H13680   5.083   4.948   4.206 -0.6142  0.4401  1.1800
  824MOL0     H13681   4.966   4.968   4.061  3.8532  0.0375 -1.1366
  824MOL0     H13682   5.028   4.781   3.966 -0.8771 -0.4607  0.3682
  824MOL0     H13683   5.088   4.706   4.105 -0.6483  1.9586  1.0282
  824MOL0     H13684   5.228   4.961   4.019  0.7327 -0.4705 -1.0575
  824MOL0     H13685   5.296   4.828   4.108  1.1683 -1.3416 -0.6764
  824MOL0     H13686   5.353   4.886   3.855  2.5303 -1.2538  1.1187
  824MOL0     H13687   5.194   4.808   3.827 -0.0585  1.2048  1.7008
  824MOL0     H13688   5.293   4.604   3.833 -0.7453 -0.8020  1.3068
  824MOL0     H13689   5.362   4.637   3.997  1.7560  0.9584  0.2336
  824MOL0     H13690   5.496   4.737   3.751 -0.5210  0.8393  0.8663
  824MOL0     H13691   5.547   4.587   3.821 -0.4940  0.5370 -0.9764
  824MOL0     H13692   4.549   4.979   4.137  1.5614  0.5204  2.2163
  824MOL0     H13693   4.305   4.921   4.102 -2.3621  0.3395  1.7786
  824MOL0     H13694   4.082   4.515   4.050 -0.4588  1.5888  0.0653
  824MOL0     H13695   3.884   4.416   3.930  1.0324  0.5307 -0.3640
  824MOL0     H13696   2.890   3.543   4.265 -4.0029  0.8312 -2.1292
  824MOL0     H13697   3.109   3.641   4.262 -0.2832  2.7851 -0.8163
  824MOL0     H13698   3.588   3.462   4.057 -3.1570 -0.5948  2.2097
  824MOL0     H13699   3.810   3.553   4.022 -0.5160 -0.1004  0.0114
  824MOL0     H13700   4.019   3.682   4.105 -1.4488 -0.1639  0.9456
  824MOL0     H13701   3.982   3.681   3.928 -0.4614  0.9526 -0.5149
  824MOL0     H13702   4.122   3.901   4.077 -1.0057  1.1070 -0.0547
  824MOL0     H13703   4.084   3.919   3.905  1.0202 -0.4648  0.6120
  824MOL0     H13704   4.318   3.856   3.940 -2.5001  1.2103  0.2558
  824MOL0     H13705   4.262   3.701   4.004 -1.9601  0.3693 -0.1360
  824MOL0     H13706   4.229   3.833   3.724  0.5313 -0.8212 -0.9115
  824MOL0     H13707   4.131   3.690   3.775 -1.1107  1.5797 -2.3709
  824MOL0     H13708   4.474   3.488   3.650 -0.4282 -0.0668 -0.8780
  824MOL0     H13709   3.677   3.949   4.115 -0.0412  0.3375  0.9318
  824MOL0     H13710   3.461   3.992   4.171 -2.1477  1.3324 -0.3825
  824MOL0     H13711   3.351   3.921   4.050 -0.5589 -0.5475 -0.2369
  824MOL0     H13712   3.345   3.879   4.221 -0.0820  1.8548 -0.2136
  825MOL0     O13713   5.117   9.708   2.766  0.4435  0.1810  0.2405
  825MOL0     C13714   5.066   9.759   2.669 -0.8403  0.2375  0.1039
  825MOL0     O13715   5.131   9.830   2.573  0.2480  0.6377  0.2171
  825MOL0     C13716   5.268   9.826   2.570  0.6198 -0.0788 -0.1603
  825MOL0     C13717   5.338   9.802   2.455  0.3641 -0.0060  0.0125
  825MOL0     C13718   5.484   9.795   2.453 -0.7419 -0.1022 -0.2473
  825MOL0     C13719   5.560   9.816   2.561 -0.0995 -1.0353  0.8231
  825MOL0     O13720   5.692   9.814   2.552 -0.5777 -0.6134 -0.7219
  825MOL0     C13721   5.767   9.826   2.676  0.0277  0.7703  0.2874
  825MOL0     C13722   5.920   9.845   2.626  0.6579 -0.0873 -0.6219
  825MOL0     C13723   6.017   9.850   2.745 -0.1259  0.4978 -0.6615
  825MOL0     C13724   6.148   9.899   2.687  0.2019  0.5932 -0.0369
  825MOL0     C13725   6.260   9.864   2.779 -0.6346  0.3398 -0.1715
  825MOL0     C13726   6.401   9.927   2.750  0.6834 -0.3951 -0.1150
  825MOL0     C13727   6.484   9.849   2.647  0.5649 -0.3134 -0.2576
  825MOL0     C13728   6.601   9.941   2.611 -0.3495  0.1994 -0.2776
  825MOL0     N13729   6.714   9.863   2.546  0.6403 -0.0865 -0.8273
  825MOL0     C13730   6.794   9.788   2.632  0.6113  0.6348  0.2216
  825MOL0     C13731   6.861   9.697   2.549  0.6022  0.9939 -0.6497
  825MOL0     C13732   6.943   9.585   2.610  0.2126 -0.8707 -0.0407
  825MOL0     C13733   7.044   9.642   2.714 -0.2776  0.7183 -0.5678
  825MOL0     C13734   7.158   9.540   2.733  0.9528 -0.3266 -0.3030
  825MOL0     C13735   7.217   9.547   2.874 -0.6449 -0.0589  0.2536
  825MOL0     O13736   7.315   9.654   2.888 -1.0748  0.6759 -0.6148
  825MOL0     C13737   7.450   9.618   2.879 -0.1542  0.1757  0.1781
  825MOL0     C13738   7.539   9.681   2.957 -0.6369 -0.2531 -1.1443
  825MOL0     C13739   7.680   9.656   2.950 -0.4788  0.0280 -0.4800
  825MOL0     C13740   7.759   9.746   3.034 -0.4382 -0.0435 -0.5797
  825MOL0     C13741   7.729   9.554   2.874 -0.6070  0.1305  0.5673
  825MOL0     C13742   7.870   9.519   2.878  0.9693 -0.6091 -0.1726
  825MOL0     O13743   7.931   9.512   3.001  0.1033 -0.5824 -0.0232
  825MOL0     C13744   8.045   9.441   3.004  0.7603 -0.1625 -0.1937
  825MOL0     C13745   8.159   9.485   2.938 -0.2907  0.3453 -0.5720
  825MOL0     C13746   8.275   9.401   2.935  0.4805 -1.2266 -0.0940
  825MOL0     C13747   8.272   9.279   2.997  0.7702 -0.0672 -0.3164
  825MOL0     O13748   8.374   9.193   3.008 -0.4210 -0.0305 -0.3262
  825MOL0     C13749   8.477   9.205   2.909 -1.3176 -0.2409  0.2299
  825MOL0     C13750   8.575   9.085   2.926  0.3229 -0.8799  0.3638
  825MOL0     C13751   8.507   8.947   2.913  0.2487 -0.1224  0.3704
  825MOL0     C13752   8.608   8.834   2.942 -0.6193  0.5634 -0.5188
  825MOL0     C13753   8.535   8.701   2.949  0.1375 -0.5951  0.7105
  825MOL0     C13754   8.510   8.659   2.804 -0.2631  0.2405 -0.0647
  825MOL0     C13755   8.406   8.551   2.788 -0.2440 -0.4451 -1.2905
  825MOL0     C13756   8.365   8.545   2.642 -0.6897  0.9087 -0.7008
  825MOL0    Cl13757   8.254   8.668   2.592  0.0903 -0.1368  0.1654
  825MOL0     C13758   8.155   9.241   3.067 -0.7574  0.2994  0.7727
  825MOL0     C13759   8.040   9.322   3.069  0.1965  0.1454  0.3490
  825MOL0     O13760   7.916   9.485   2.767  0.3689 -0.1023  0.1044
  825MOL0     C13761   7.639   9.473   2.803 -0.7220  0.6918  0.2240
  825MOL0     C13762   7.499   9.508   2.808  1.0009  0.2304 -0.6209
  825MOL0     N13763   6.828   9.737   2.419 -0.3895 -0.6247  0.2760
  825MOL0     N13764   6.743   9.829   2.416  0.3329  0.3697 -0.2060
  825MOL0     C13765   5.484   9.843   2.673 -0.0716  0.6109 -0.6271
  825MOL0     C13766   5.345   9.851   2.682  0.6839 -0.1990 -0.1674
  825MOL0     C13767   4.923   9.736   2.648 -0.7432  0.8525 -0.3085
  825MOL0     C13768   4.866   9.770   2.521 -0.1156  0.4291 -0.5905
  825MOL0     C13769   4.726   9.763   2.496 -0.1915 -0.1985 -0.0201
  825MOL0     C13770   4.643   9.722   2.599  0.2727 -0.0136  0.2625
  825MOL0     O13771   4.505   9.707   2.573  0.6763  0.1252 -0.0607
  825MOL0     C13772   4.426   9.685   2.692 -0.2335 -0.4684  0.0379
  825MOL0     C13773   4.283   9.685   2.671  0.5734 -0.2607 -0.2693
  825MOL0     C13774   4.242   9.831   2.661  0.2342 -0.1685  0.1840
  825MOL0     C13775   4.090   9.833   2.652  1.0244 -1.0976 -0.6466
  825MOL0     C13776   4.049   9.975   2.669  0.3688  0.0399 -0.3154
  825MOL0     C13777   4.030  10.094   2.677  0.4937 -0.7371  0.6350
  825MOL0     C13778   4.691   9.692   2.722 -0.0189 -0.0469  0.2063
  825MOL0     C13779   4.827   9.704   2.751 -0.5727 -0.1002 -0.3551
  825MOL0     C13780   4.859   9.675   2.895  0.1872  0.3027 -0.2419
  825MOL0     H13781   5.300   9.764   2.361  1.9822  0.0894 -0.7199
  825MOL0     H13782   5.538   9.775   2.360 -2.1547 -0.0046 -1.1194
  825MOL0     H13783   5.764   9.732   2.731 -3.2406  0.9880  0.6669
  825MOL0     H13784   5.741   9.911   2.740 -0.7487 -0.0463  1.0973
  825MOL0     H13785   5.943   9.766   2.554  1.9388 -0.6956  0.4007
  825MOL0     H13786   5.926   9.943   2.578  0.6460  0.9204  1.3256
  825MOL0     H13787   5.986   9.906   2.834 -0.1544  0.1417 -0.4481
  825MOL0     H13788   6.033   9.754   2.794  3.0247  0.8686 -0.7703
  825MOL0     H13789   6.156   9.866   2.583 -0.9084 -2.8048  0.8205
  825MOL0     H13790   6.149  10.008   2.681 -0.0965  0.7327  1.8411
  825MOL0     H13791   6.270   9.756   2.794  0.7734  0.3668 -0.7335
  825MOL0     H13792   6.239   9.898   2.881  0.5286  0.0632  0.1750
  825MOL0     H13793   6.387  10.028   2.712  1.3306 -0.4367 -0.4852
  825MOL0     H13794   6.468   9.943   2.836 -0.9737  0.6363  1.0412
  825MOL0     H13795   6.415   9.834   2.563 -1.9112 -0.9812  1.7596
  825MOL0     H13796   6.535   9.765   2.695  0.6487  0.1757  0.5145
  825MOL0     H13797   6.566  10.019   2.543  1.1451  0.4513 -0.8019
  825MOL0     H13798   6.641   9.995   2.698  1.1748 -1.0568 -0.1458
  825MOL0     H13799   6.774   9.797   2.738 -1.8792 -1.0264 -0.0156
  825MOL0     H13800   6.991   9.531   2.528 -1.7812 -0.9306 -1.2391
  825MOL0     H13801   6.886   9.504   2.656  1.4120 -0.9280  1.4193
  825MOL0     H13802   7.078   9.744   2.694  1.4009  1.0252  2.9436
  825MOL0     H13803   6.984   9.658   2.805  3.8683  0.2110  2.5736
  825MOL0     H13804   7.112   9.444   2.709 -4.7606  1.9908 -0.1159
  825MOL0     H13805   7.237   9.552   2.658 -0.3246 -3.3148 -2.3319
  825MOL0     H13806   7.137   9.570   2.945 -3.1231  1.3679 -2.7552
  825MOL0     H13807   7.266   9.454   2.904  0.4015 -0.2927 -1.9858
  825MOL0     H13808   7.487   9.747   3.025  2.7054 -0.7004  2.2207
  825MOL0     H13809   7.851   9.782   2.987 -0.0051 -2.6270 -1.9148
  825MOL0     H13810   7.783   9.692   3.126 -1.5343  2.0798  1.0580
  825MOL0     H13811   7.698   9.832   3.064 -2.3757 -2.0019  1.4795
  825MOL0     H13812   8.171   9.579   2.885 -0.6974  0.1975 -0.9363
  825MOL0     H13813   8.363   9.448   2.894 -1.0533  1.9408  0.0081
  825MOL0     H13814   8.443   9.221   2.806  0.3535  0.8402 -0.2092
  825MOL0     H13815   8.530   9.294   2.944  0.2606 -0.9816 -0.1776
  825MOL0     H13816   8.653   9.084   2.849 -1.8856 -1.4964 -2.0371
  825MOL0     H13817   8.621   9.096   3.025  1.1313  1.9907 -0.2259
  825MOL0     H13818   8.461   8.946   2.814 -0.5028 -0.2227  0.7085
  825MOL0     H13819   8.423   8.946   2.983 -0.2121 -0.5091 -0.1710
  825MOL0     H13820   8.648   8.851   3.043 -1.1340 -0.6703 -0.0875
  825MOL0     H13821   8.692   8.834   2.872 -0.9471 -0.0464 -0.9197
  825MOL0     H13822   8.591   8.626   3.005 -1.5628 -2.4692 -0.0001
  825MOL0     H13823   8.441   8.702   3.005 -0.4145  1.3564 -0.1760
  825MOL0     H13824   8.608   8.620   2.774 -0.0696  0.3049  0.4781
  825MOL0     H13825   8.494   8.736   2.728  1.2936  1.1582  0.4818
  825MOL0     H13826   8.318   8.579   2.847  0.2557  0.6235 -1.0141
  825MOL0     H13827   8.438   8.453   2.822 -2.0470 -0.7538 -0.3588
  825MOL0     H13828   8.327   8.443   2.627  1.6908 -0.6342  2.4969
  825MOL0     H13829   8.453   8.550   2.576  1.0005 -4.2721  0.6787
  825MOL0     H13830   8.148   9.146   3.118 -1.0475 -0.9578 -1.4877
  825MOL0     H13831   7.952   9.284   3.121  0.1392 -0.2081 -0.0008
  825MOL0     H13832   7.668   9.387   2.743  0.2867  1.4164 -0.3515
  825MOL0     H13833   7.437   9.427   2.769  0.8798 -0.6194  1.2353
  825MOL0     H13834   5.530   9.837   2.771 -0.6030 -2.4858 -0.4541
  825MOL0     H13835   5.296   9.868   2.778 -3.1921 -2.0591 -1.6245
  825MOL0     H13836   4.925   9.804   2.437 -1.7746  1.7870 -1.2637
  825MOL0     H13837   4.688   9.781   2.396  0.5118 -3.9087 -1.0979
  825MOL0     H13838   4.450   9.582   2.721 -2.2589 -2.0916 -3.3332
  825MOL0     H13839   4.444   9.750   2.777 -0.5385 -0.6506  0.2460
  825MOL0     H13840   4.236   9.629   2.753  2.6544 -1.1352  0.4008
  825MOL0     H13841   4.258   9.631   2.579 -0.3996  0.0833 -0.2113
  825MOL0     H13842   4.282   9.900   2.737 -1.4619  0.8770  0.1804
  825MOL0     H13843   4.281   9.871   2.567 -0.5238  2.9176  1.0495
  825MOL0     H13844   4.056   9.771   2.734 -1.8308  1.9216  0.6611
  825MOL0     H13845   4.060   9.787   2.557  1.6915 -2.1526 -0.3608
  825MOL0     H13846   4.014  10.199   2.664  0.8188 -0.7212  0.3811
  825MOL0     H13847   4.634   9.667   2.811  3.9237  1.6989  3.5434
  825MOL0     H13848   4.770   9.690   2.958 -1.3814  3.5487 -2.9322
  825MOL0     H13849   4.906   9.576   2.907 -0.9146 -0.0195  2.1432
  825MOL0     H13850   4.927   9.751   2.934  2.1828 -0.8787 -1.2555
  826MOL0     O13851   5.891  10.074   8.304  0.4863  0.0595 -0.0995
  826MOL0     C13852   5.966  10.175   8.292  1.1071 -0.0041  0.6721
  826MOL0     O13853   5.971  10.252   8.186 -0.6196 -0.9333  0.5501
  826MOL0     C13854   5.886  10.236   8.076  0.7310  1.4425 -0.6347
  826MOL0     C13855   5.775  10.320   8.069  0.3353  0.0886  0.2424
  826MOL0     C13856   5.684  10.315   7.962  0.7624  0.4188  0.2824
  826MOL0     C13857   5.704  10.225   7.859  0.6351  1.2052  0.1790
  826MOL0     O13858   5.617  10.213   7.754 -0.3451  0.3071 -0.2370
  826MOL0     C13859   5.526  10.325   7.718 -0.5538 -0.4179  0.1214
  826MOL0     C13860   5.514  10.345   7.573 -0.0464  0.2023  1.0930
  826MOL0     C13861   5.435  10.224   7.509  0.1872 -0.6625  0.6991
  826MOL0     C13862   5.293  10.261   7.511  0.5979 -0.2096  0.6442
  826MOL0     C13863   5.195  10.151   7.462  0.3309  0.0471 -0.0061
  826MOL0     C13864   5.222  10.096   7.310 -0.7183 -0.0691 -0.1880
  826MOL0     C13865   5.183  10.195   7.204  0.5547  0.0699  0.1305
  826MOL0     C13866   5.218  10.139   7.058  0.1290  0.2511  0.2273
  826MOL0     N13867   5.361  10.161   7.018 -0.6472 -0.7303  0.2315
  826MOL0     C13868   5.425  10.282   7.025 -0.1100 -0.5016 -0.4273
  826MOL0     C13869   5.548  10.256   6.967  0.3246 -0.4814  0.5287
  826MOL0     C13870   5.655  10.348   6.943  0.0288  0.3125 -0.6964
  826MOL0     C13871   5.659  10.382   6.799 -0.5395 -0.5984 -0.1557
  826MOL0     C13872   5.765  10.490   6.769  0.7157 -0.8337 -0.0213
  826MOL0     C13873   5.911  10.463   6.807 -0.7259 -0.5308 -0.0409
  826MOL0     O13874   5.995  10.551   6.739 -0.2552 -0.1657 -0.2823
  826MOL0     C13875   6.120  10.515   6.706 -0.2102 -0.1386 -0.2586
  826MOL0     C13876   6.175  10.612   6.618 -0.0808  0.8623 -0.5635
  826MOL0     C13877   6.304  10.581   6.559  0.2500  0.2541 -1.4188
  826MOL0     C13878   6.365  10.681   6.457  0.2403  0.0577  0.2855
  826MOL0     C13879   6.377  10.464   6.605  0.7413  0.0434 -0.1497
  826MOL0     C13880   6.512  10.430   6.557 -0.8268 -0.0275  0.7703
  826MOL0     O13881   6.601  10.396   6.653  0.5961  0.5575 -0.4133
  826MOL0     C13882   6.722  10.339   6.633 -0.7234 -0.3675 -0.3460
  826MOL0     C13883   6.783  10.329   6.513  0.5960  0.3227  0.0194
  826MOL0     C13884   6.914  10.280   6.506 -0.6602  0.1333  0.1824
  826MOL0     C13885   6.993  10.238   6.622  0.6032  0.5401 -0.1407
  826MOL0     O13886   7.121  10.214   6.604 -0.3289 -0.3133  0.3709
  826MOL0     C13887   7.198  10.165   6.703  0.0147  0.4177 -0.6606
  826MOL0     C13888   7.329  10.099   6.642 -0.0610 -0.0801 -0.1889
  826MOL0     C13889   7.430  10.065   6.755  0.2522  0.5556  0.2004
  826MOL0     C13890   7.535   9.961   6.699 -0.2446 -0.0347  0.8934
  826MOL0     C13891   7.640   9.928   6.796  0.6659 -0.2526 -0.1189
  826MOL0     C13892   7.589   9.848   6.913 -0.8485  0.3799  0.4515
  826MOL0     C13893   7.705   9.829   7.018  0.2333 -0.2312 -0.5774
  826MOL0     C13894   7.826   9.745   6.973 -0.4780  1.0304  0.1451
  826MOL0    Cl13895   7.766   9.592   6.912  0.3722  0.2112 -0.2541
  826MOL0     C13896   6.920  10.238   6.745 -0.0113 -0.1491  0.4288
  826MOL0     C13897   6.785  10.289   6.745 -0.1324 -0.2283 -0.1814
  826MOL0     O13898   6.529  10.437   6.431 -0.0106 -0.7635  0.0130
  826MOL0     C13899   6.325  10.389   6.708 -0.4154  0.1797 -0.4574
  826MOL0     C13900   6.192  10.407   6.748 -0.2272  0.3275 -0.3520
  826MOL0     N13901   5.557  10.125   6.950 -0.0228  0.9460  0.0310
  826MOL0     N13902   5.448  10.067   6.988 -0.2511  0.3316  0.0125
  826MOL0     C13903   5.818  10.139   7.866 -0.2143  0.2773 -0.5301
  826MOL0     C13904   5.906  10.139   7.977 -0.2385 -0.0187 -0.5624
  826MOL0     C13905   6.062  10.202   8.396  0.4397 -0.5852 -0.5064
  826MOL0     C13906   6.193  10.237   8.359  0.0672  1.0463 -0.7675
  826MOL0     C13907   6.285  10.269   8.461 -0.0754 -0.1248 -0.9420
  826MOL0     C13908   6.253  10.278   8.594 -0.6326 -0.0491 -0.7482
  826MOL0     O13909   6.344  10.325   8.693  0.4172 -0.0457 -0.0338
  826MOL0     C13910   6.482  10.296   8.669 -1.0714 -0.3353 -0.7702
  826MOL0     C13911   6.540  10.276   8.810  0.7013  0.4276 -0.1081
  826MOL0     C13912   6.683  10.244   8.795 -0.2630  0.1908 -0.3070
  826MOL0     C13913   6.761  10.243   8.923 -0.4747  0.0479 -0.2364
  826MOL0     C13914   6.893  10.181   8.906 -0.4618  0.1252  0.3770
  826MOL0     C13915   7.006  10.137   8.904  0.9091 -1.1268 -0.2582
  826MOL0     C13916   6.128  10.242   8.635  0.2401  0.6257  0.2055
  826MOL0     C13917   6.033  10.206   8.537  0.3257  0.5614  0.0848
  826MOL0     C13918   5.904  10.151   8.583  0.3593  0.6510  0.6700
  826MOL0     H13919   5.761  10.385   8.155  2.0461  1.3279 -0.3512
  826MOL0     H13920   5.593  10.373   7.965  0.4001 -0.1071 -0.3090
  826MOL0     H13921   5.559  10.422   7.758  0.4143 -0.6492 -0.1058
  826MOL0     H13922   5.427  10.304   7.760 -1.3594  0.1918 -1.4072
  826MOL0     H13923   5.471  10.443   7.552  4.1918  1.7968 -1.3485
  826MOL0     H13924   5.614  10.354   7.528 -1.0081  2.7267 -0.7416
  826MOL0     H13925   5.467  10.227   7.405  1.1778 -1.1537  0.9777
  826MOL0     H13926   5.462  10.128   7.555  1.0874 -0.1837  1.1975
  826MOL0     H13927   5.260  10.293   7.610 -2.5801  0.8069 -0.6444
  826MOL0     H13928   5.279  10.350   7.449 -4.1335 -1.8462 -1.0736
  826MOL0     H13929   5.096  10.197   7.467 -0.7599 -2.2431  0.6808
  826MOL0     H13930   5.187  10.063   7.526 -0.3331 -1.0707 -1.5413
  826MOL0     H13931   5.325  10.061   7.298 -1.7263 -3.5371  0.2144
  826MOL0     H13932   5.166  10.003   7.301 -1.2363  0.3416 -1.4231
  826MOL0     H13933   5.224  10.295   7.220 -1.4142  0.7146  1.5178
  826MOL0     H13934   5.074  10.206   7.205  0.7285  2.5984  2.6190
  826MOL0     H13935   5.192  10.033   7.061 -1.4151  0.6051  0.5035
  826MOL0     H13936   5.153  10.195   6.991  2.2356  4.8196  1.5620
  826MOL0     H13937   5.384  10.376   7.061  2.9291  0.4197  0.9463
  826MOL0     H13938   5.747  10.297   6.973  0.1813  1.3393  0.7058
  826MOL0     H13939   5.653  10.436   7.008  0.4185  0.0047 -0.2623
  826MOL0     H13940   5.693  10.301   6.733  2.6223  0.8996 -0.5972
  826MOL0     H13941   5.566  10.433   6.773  0.9409  0.9342 -3.0198
  826MOL0     H13942   5.773  10.501   6.660 -1.9521  3.0956 -0.0386
  826MOL0     H13943   5.731  10.590   6.800 -0.0405 -0.5314 -1.6586
  826MOL0     H13944   5.935  10.452   6.914  2.8710 -0.1829 -0.6945
  826MOL0     H13945   5.932  10.366   6.762  0.1659 -0.3251 -0.0758
  826MOL0     H13946   6.117  10.700   6.589 -0.9612  1.5710  2.9480
  826MOL0     H13947   6.291  10.759   6.439  0.7883  0.1282 -2.0206
  826MOL0     H13948   6.383  10.625   6.365 -2.8808  0.9486 -1.0044
  826MOL0     H13949   6.460  10.717   6.497  0.0905  0.5699  0.1782
  826MOL0     H13950   6.741  10.355   6.417  0.3062 -1.8906 -0.5178
  826MOL0     H13951   6.957  10.276   6.406  1.3704 -0.6735  1.0233
  826MOL0     H13952   7.209  10.243   6.779  0.8413 -0.9843  0.6975
  826MOL0     H13953   7.150  10.083   6.757 -0.7188  1.6251  0.5780
  826MOL0     H13954   7.295  10.009   6.590  0.0639  1.1658 -2.5613
  826MOL0     H13955   7.378  10.156   6.563  1.7670 -2.5904 -0.9845
  826MOL0     H13956   7.386  10.023   6.846  2.9324  0.1321  1.3975
  826MOL0     H13957   7.483  10.156   6.784 -1.1528  0.6463  2.7490
  826MOL0     H13958   7.583  10.005   6.611  1.5649  2.3947  2.9708
  826MOL0     H13959   7.483   9.870   6.667  0.1385 -0.2606  0.9080
  826MOL0     H13960   7.716   9.882   6.732  0.0350 -0.1619 -0.9491
  826MOL0     H13961   7.682  10.018   6.842  0.3484 -1.0591  1.8538
  826MOL0     H13962   7.557   9.753   6.868 -0.4507  1.0104 -1.2045
  826MOL0     H13963   7.496   9.894   6.946 -1.1811  0.6457 -0.8184
  826MOL0     H13964   7.648   9.780   7.098 -1.1019  0.8468 -0.8344
  826MOL0     H13965   7.736   9.925   7.059 -1.0648  0.5496 -1.3521
  826MOL0     H13966   7.889   9.732   7.061 -1.6324 -1.5121  0.6870
  826MOL0     H13967   7.885   9.801   6.899  1.0701 -0.2882  0.3208
  826MOL0     H13968   6.974  10.208   6.834  1.1948  1.3020  0.2210
  826MOL0     H13969   6.727  10.293   6.836 -2.6261  3.4340 -1.6854
  826MOL0     H13970   6.384  10.311   6.755  0.9156  0.5324 -1.4768
  826MOL0     H13971   6.150  10.331   6.813  0.8949 -0.6150 -0.6823
  826MOL0     H13972   5.824  10.053   7.800 -1.5488 -2.4786  2.6365
  826MOL0     H13973   5.985  10.070   8.006 -0.8337 -0.1979  0.7207
  826MOL0     H13974   6.226  10.237   8.256 -1.4639  1.2457 -1.2963
  826MOL0     H13975   6.384  10.278   8.418  0.8300  0.2341  1.1375
  826MOL0     H13976   6.487  10.201   8.615  2.9563  0.2179 -1.6541
  826MOL0     H13977   6.529  10.372   8.607 -1.4437 -0.6898 -1.4978
  826MOL0     H13978   6.490  10.191   8.856  2.2062 -0.5089 -0.1246
  826MOL0     H13979   6.535  10.366   8.872 -0.0306  0.9921 -0.9617
  826MOL0     H13980   6.692  10.144   8.752 -0.1909 -0.6333  1.5375
  826MOL0     H13981   6.737  10.321   8.739  1.3289 -1.5202 -1.2248
  826MOL0     H13982   6.703  10.177   8.989 -3.9301 -0.5480 -3.4912
  826MOL0     H13983   6.777  10.341   8.967  4.2210 -0.0546 -1.2608
  826MOL0     H13984   7.102  10.091   8.896  2.2039  1.6829 -2.6890
  826MOL0     H13985   6.113  10.226   8.742  0.7913  1.0417  0.3462
  826MOL0     H13986   5.894  10.172   8.690  0.8749  0.1900  0.8083
  826MOL0     H13987   5.821  10.204   8.535  0.5899 -1.2027 -1.9520
  826MOL0     H13988   5.897  10.044   8.565  3.4305  0.1998  1.5437
  827MOL0     O13989   4.572   8.291  10.901  0.7156  0.2754 -0.5287
  827MOL0     C13990   4.566   8.182  10.838 -0.2485  0.2632 -0.5721
  827MOL0     O13991   4.669   8.097  10.813 -0.4019 -0.0247  0.0453
  827MOL0     C13992   4.801   8.131  10.822  0.2822  0.1815  0.0561
  827MOL0     C13993   4.896   8.028  10.843 -0.0925  0.5193 -0.3357
  827MOL0     C13994   5.031   8.051  10.855 -0.7575 -0.3904  0.0799
  827MOL0     C13995   5.093   8.179  10.840 -0.2713  0.5721 -0.2050
  827MOL0     O13996   5.225   8.179  10.831 -0.4721 -0.4048 -0.0533
  827MOL0     C13997   5.304   8.300  10.820 -0.7344 -0.3748  0.1455
  827MOL0     C13998   5.454   8.265  10.808  0.0345  0.2127  0.3640
  827MOL0     C13999   5.549   8.388  10.825 -0.2262  0.0440  0.2765
  827MOL0     C14000   5.699   8.338  10.827 -0.0273  0.4504 -0.1816
  827MOL0     C14001   5.787   8.465  10.831 -0.1444 -0.2022  0.0845
  827MOL0     C14002   5.939   8.434  10.815 -0.0676  0.7367 -0.5503
  827MOL0     C14003   6.020   8.560  10.840 -0.1772 -0.2024 -0.6509
  827MOL0     C14004   6.169   8.533  10.840 -0.5968 -0.7156  0.3222
  827MOL0     N14005   6.219   8.502  10.704 -0.2982  0.2374 -0.2925
  827MOL0     C14006   6.209   8.377  10.643  0.7395  0.0134 -0.4857
  827MOL0     C14007   6.240   8.408  10.516  0.5602 -0.7336 -0.0346
  827MOL0     C14008   6.227   8.320  10.398  0.4544 -0.1759 -0.1317
  827MOL0     C14009   6.331   8.332  10.287  0.2638 -0.2604 -0.2989
  827MOL0     C14010   6.465   8.272  10.333  0.5678  0.1787  0.1459
  827MOL0     C14011   6.573   8.268  10.224  0.2219 -0.2538  0.4077
  827MOL0     O14012   6.531   8.161  10.139  0.1569  0.7915 -0.1084
  827MOL0     C14013   6.595   8.142  10.022  0.2809 -0.1115  0.1816
  827MOL0     C14014   6.534   8.055   9.938  0.4889 -0.1026  0.1865
  827MOL0     C14015   6.587   8.031   9.816  0.6444 -0.2492  0.7564
  827MOL0     C14016   6.502   7.941   9.729 -0.1897 -0.6186 -0.4682
  827MOL0     C14017   6.707   8.092   9.775  0.9370  0.9996 -0.0043
  827MOL0     C14018   6.772   8.065   9.642  0.7103  0.5199  0.3800
  827MOL0     O14019   6.837   8.172   9.600 -1.1141 -0.0840  0.0199
  827MOL0     C14020   6.908   8.155   9.480  0.0023 -0.3517 -0.1399
  827MOL0     C14021   6.861   8.186   9.359  0.0751  0.9017  0.0062
  827MOL0     C14022   6.919   8.160   9.238 -0.3931  0.1696 -0.1390
  827MOL0     C14023   7.043   8.096   9.241  0.3219 -0.1173  1.0708
  827MOL0     O14024   7.093   8.054   9.120  0.2135  0.2587  0.1880
  827MOL0     C14025   7.170   8.165   9.065 -0.1870 -0.0001  0.8633
  827MOL0     C14026   7.231   8.142   8.929  0.4875 -0.4605  0.1137
  827MOL0     C14027   7.140   8.079   8.818  0.0072  0.2938 -0.4792
  827MOL0     C14028   7.041   8.179   8.767  1.4648  0.1218  0.6040
  827MOL0     C14029   6.909   8.116   8.714  0.0711  0.4094 -0.5426
  827MOL0     C14030   6.926   8.079   8.567  0.1965  0.6612 -0.0818
  827MOL0     C14031   6.800   8.003   8.523 -0.9885  0.3519 -0.0260
  827MOL0     C14032   6.799   7.985   8.372 -0.1307  0.0186 -0.0086
  827MOL0    Cl14033   6.911   7.850   8.344  0.0007  0.2296 -0.1946
  827MOL0     C14034   7.106   8.070   9.361 -0.5391 -0.9012  0.6217
  827MOL0     C14035   7.036   8.094   9.481 -0.0017 -0.7258 -0.3432
  827MOL0     O14036   6.757   7.959   9.574 -0.2409  0.0552 -0.6765
  827MOL0     C14037   6.772   8.181   9.860  0.1848 -0.2911 -0.0704
  827MOL0     C14038   6.716   8.196   9.989 -0.2306  0.6884 -0.6711
  827MOL0     N14039   6.254   8.547  10.493  0.1400 -0.2600  0.6182
  827MOL0     N14040   6.234   8.600  10.611  0.0223 -0.5091 -0.3523
  827MOL0     C14041   4.998   8.284  10.834 -0.2650  0.0027 -0.1652
  827MOL0     C14042   4.856   8.262  10.831  0.3549 -0.2150  0.3164
  827MOL0     C14043   4.429   8.147  10.798 -0.0938  0.4958  0.5989
  827MOL0     C14044   4.321   8.169  10.888 -0.5781  0.4806  0.1758
  827MOL0     C14045   4.191   8.132  10.846  0.7782  0.4687  0.5730
  827MOL0     C14046   4.170   8.075  10.717 -0.5325  0.2581 -0.1076
  827MOL0     O14047   4.045   8.026  10.687 -0.1381  0.8893 -0.8116
  827MOL0     C14048   3.928   8.040  10.775 -0.6938 -0.1292 -0.7364
  827MOL0     C14049   3.814   7.999  10.679 -1.0074  0.8441 -0.1939
  827MOL0     C14050   3.685   7.997  10.750  0.5607  0.8087 -0.3867
  827MOL0     C14051   3.616   8.132  10.777  0.2835 -0.0680  0.1244
  827MOL0     C14052   3.563   8.191  10.653  0.2510 -0.1038  0.4382
  827MOL0     C14053   3.528   8.229  10.542  0.0859 -0.5219  0.1124
  827MOL0     C14054   4.269   8.060  10.629  0.9248 -0.2132 -0.2006
  827MOL0     C14055   4.398   8.083  10.669 -0.3525  0.1897  0.4533
  827MOL0     C14056   4.504   8.035  10.562  0.1104 -1.0802  0.0888
  827MOL0     H14057   4.861   7.926  10.854 -1.9270  1.2820  1.6951
  827MOL0     H14058   5.094   7.963  10.856 -1.7570 -1.1765 -1.3994
  827MOL0     H14059   5.290   8.359  10.911  0.9133 -2.5394  1.9465
  827MOL0     H14060   5.270   8.345  10.727 -2.1108 -2.9536 -0.7221
  827MOL0     H14061   5.510   8.184  10.857  0.6890  0.7973  0.5892
  827MOL0     H14062   5.463   8.245  10.701 -1.3591  1.5962 -0.0482
  827MOL0     H14063   5.524   8.460  10.746 -1.7889  0.8586  1.4505
  827MOL0     H14064   5.520   8.450  10.910  1.1850 -1.0220  1.5876
  827MOL0     H14065   5.725   8.272  10.910  1.3001  1.7391  0.4777
  827MOL0     H14066   5.722   8.290  10.731 -2.9633 -1.0812 -0.2227
  827MOL0     H14067   5.774   8.503  10.932 -1.3916 -0.8043  0.1720
  827MOL0     H14068   5.752   8.537  10.756 -2.1481 -0.2209  0.9486
  827MOL0     H14069   5.957   8.352  10.885 -1.9263  0.9625  0.2335
  827MOL0     H14070   5.958   8.392  10.715 -2.1836  1.4463 -1.3136
  827MOL0     H14071   5.987   8.587  10.941 -0.5812 -0.6443 -0.6639
  827MOL0     H14072   6.009   8.646  10.773  3.7907  1.3932  0.4603
  827MOL0     H14073   6.218   8.628  10.861 -2.4403  0.6571 -1.2350
  827MOL0     H14074   6.191   8.454  10.913 -2.6990 -0.4403  1.3413
  827MOL0     H14075   6.182   8.281  10.687  0.3562  1.0768  1.7207
  827MOL0     H14076   6.132   8.348  10.352  0.2868  1.3337  1.0334
  827MOL0     H14077   6.219   8.218  10.435  0.3268  0.3406  1.3414
  827MOL0     H14078   6.292   8.292  10.193 -0.7474  0.5596 -0.2384
  827MOL0     H14079   6.347   8.437  10.261 -2.1976  0.3824  0.5149
  827MOL0     H14080   6.499   8.348  10.404  2.6999 -0.5012 -0.0465
  827MOL0     H14081   6.450   8.173  10.377  1.3568  0.1426  0.3498
  827MOL0     H14082   6.557   8.363  10.173 -0.7421 -0.3770  0.4479
  827MOL0     H14083   6.673   8.257  10.266  0.3188  0.1452  0.2824
  827MOL0     H14084   6.434   8.021   9.964  0.7912 -0.2282  1.2412
  827MOL0     H14085   6.425   7.884   9.782 -2.2139  2.3532  0.0291
  827MOL0     H14086   6.573   7.871   9.685  2.6373  2.0376 -0.4667
  827MOL0     H14087   6.447   8.008   9.662 -0.0968  1.9979  1.8798
  827MOL0     H14088   6.762   8.230   9.350  0.5231  1.4505 -4.4635
  827MOL0     H14089   6.873   8.192   9.145  0.4289 -0.7551 -0.8893
  827MOL0     H14090   7.111   8.257   9.063 -1.5476 -0.7591  2.7401
  827MOL0     H14091   7.250   8.190   9.135  1.1205 -0.1739 -0.5031
  827MOL0     H14092   7.254   8.238   8.882 -0.2602  0.7222  2.0604
  827MOL0     H14093   7.317   8.076   8.941 -0.0689 -1.1596  0.3449
  827MOL0     H14094   7.090   7.993   8.863  0.9261 -0.6392 -1.2042
  827MOL0     H14095   7.204   8.036   8.741  0.8283  0.9749 -0.1935
  827MOL0     H14096   7.091   8.244   8.695  0.0132  0.5057 -0.0809
  827MOL0     H14097   7.010   8.234   8.856 -0.8370  1.4179 -0.9002
  827MOL0     H14098   6.894   8.023   8.770  1.9570  0.3080 -0.1286
  827MOL0     H14099   6.827   8.186   8.728  0.2355  0.3784  0.6791
  827MOL0     H14100   7.012   8.013   8.550 -1.0095 -1.4389  1.4128
  827MOL0     H14101   6.934   8.160   8.494 -1.7290 -2.3366 -4.0212
  827MOL0     H14102   6.719   8.070   8.554  0.9940  2.7165  0.4255
  827MOL0     H14103   6.802   7.904   8.570  1.7879  0.8607  1.1549
  827MOL0     H14104   6.839   8.075   8.324 -3.6922  1.0543 -1.4282
  827MOL0     H14105   6.700   7.957   8.333  0.2041  0.7683 -1.4528
  827MOL0     H14106   7.205   8.027   9.368 -0.5036 -1.7040 -2.9862
  827MOL0     H14107   7.085   8.065   9.574 -1.8502  1.2511  1.3579
  827MOL0     H14108   6.870   8.224   9.843 -0.6951  1.0389 -2.1123
  827MOL0     H14109   6.769   8.252  10.066 -0.5989  0.0370  0.0661
  827MOL0     H14110   5.031   8.388  10.830 -0.2734  0.1119  1.8766
  827MOL0     H14111   4.791   8.349  10.830  1.5240  0.6853 -0.4700
  827MOL0     H14112   4.333   8.198  10.992 -3.4024 -0.7241  0.9246
  827MOL0     H14113   4.104   8.146  10.909 -0.0121  2.1492 -0.8174
  827MOL0     H14114   3.940   7.982  10.867 -1.1439 -1.5833 -1.5621
  827MOL0     H14115   3.922   8.147  10.797 -1.5377 -0.5306  1.2979
  827MOL0     H14116   3.832   7.905  10.625 -1.9169  0.7785 -0.3883
  827MOL0     H14117   3.809   8.073  10.599 -1.0933  0.5917 -0.4231
  827MOL0     H14118   3.613   7.940  10.690  0.1093 -0.8270  1.5930
  827MOL0     H14119   3.698   7.942  10.844 -0.1624 -0.2603 -0.8957
  827MOL0     H14120   3.694   8.189  10.829  0.3780 -0.4041  0.3614
  827MOL0     H14121   3.527   8.115  10.839  1.2847  2.2972  2.4280
  827MOL0     H14122   3.479   8.254  10.450 -1.1950  0.6666  1.0784
  827MOL0     H14123   4.238   8.030  10.529  0.7913 -2.1405  0.3851
  827MOL0     H14124   4.461   7.957  10.499 -0.6250 -0.8962  0.3538
  827MOL0     H14125   4.524   8.129  10.508  2.1566 -1.0769  0.7615
  827MOL0     H14126   4.593   8.001  10.616  0.5201  0.5872  0.5347
  828MOL0     O14127   2.304   6.671   8.929 -0.0476  0.4303 -0.2581
  828MOL0     C14128   2.182   6.644   8.912  0.2266 -0.1165  0.8444
  828MOL0     O14129   2.117   6.540   8.965  0.6019  0.3622 -0.5370
  828MOL0     C14130   2.193   6.456   9.044 -0.0955 -0.0245  0.6556
  828MOL0     C14131   2.130   6.414   9.166  0.2414  0.5331 -0.5588
  828MOL0     C14132   2.194   6.324   9.250 -0.5328 -0.0885  0.2810
  828MOL0     C14133   2.317   6.264   9.200  0.4083  0.7676 -1.0798
  828MOL0     O14134   2.363   6.178   9.297 -0.4368 -0.4781  0.5124
  828MOL0     C14135   2.436   6.064   9.247  0.0449 -0.5464 -0.0042
  828MOL0     C14136   2.359   5.984   9.139 -0.3963 -0.0014  1.0894
  828MOL0     C14137   2.264   5.887   9.214  0.3759 -0.3278 -0.3294
  828MOL0     C14138   2.174   5.807   9.122 -0.0549  0.3268  0.5542
  828MOL0     C14139   2.037   5.763   9.186 -0.6879  0.2407 -0.8713
  828MOL0     C14140   2.057   5.703   9.328 -0.6622 -0.1903  0.2418
  828MOL0     C14141   2.149   5.575   9.334  0.2009  0.1307 -0.3426
  828MOL0     C14142   2.170   5.538   9.479 -0.5102  0.6611  0.7352
  828MOL0     N14143   2.239   5.408   9.491  0.1171 -0.2729  0.5136
  828MOL0     C14144   2.176   5.286   9.516 -0.2923  0.0976 -0.1209
  828MOL0     C14145   2.274   5.190   9.492 -0.1148  0.7159  0.1930
  828MOL0     C14146   2.256   5.044   9.531  0.0669 -0.7727  0.4086
  828MOL0     C14147   2.241   5.025   9.688 -1.0902  0.3431  0.1893
  828MOL0     C14148   2.378   5.056   9.746 -0.2764  0.0637 -0.6052
  828MOL0     C14149   2.487   4.948   9.754 -0.3759  0.1427 -0.5623
  828MOL0     O14150   2.462   4.851   9.859 -0.2379  0.0445  0.4108
  828MOL0     C14151   2.552   4.747   9.875 -0.8823 -0.7750  0.4416
  828MOL0     C14152   2.689   4.762   9.860  0.3562  0.9533  0.5892
  828MOL0     C14153   2.783   4.659   9.888  0.4738 -0.9715  0.2728
  828MOL0     C14154   2.919   4.691   9.856  0.3655 -0.0938  0.0595
  828MOL0     C14155   2.744   4.531   9.933  0.8252 -0.8177 -0.3567
  828MOL0     C14156   2.836   4.432   9.996 -0.0280 -0.1016  0.2716
  828MOL0     O14157   2.784   4.309   9.980 -0.1509 -0.1970 -0.0837
  828MOL0     C14158   2.873   4.200   9.984  0.1489 -0.4515  0.5017
  828MOL0     C14159   2.818   4.084  10.038  0.0822  1.0157 -0.4007
  828MOL0     C14160   2.886   3.963  10.028  0.1200  0.6085  0.4401
  828MOL0     C14161   3.015   3.950   9.968  0.6135 -0.0221  0.3040
  828MOL0     O14162   3.073   3.820   9.960  0.3145 -1.3152 -0.3710
  828MOL0     C14163   3.218   3.826   9.928 -0.3217  0.0130 -0.7568
  828MOL0     C14164   3.255   3.677   9.901  0.8815 -0.7048  0.2885
  828MOL0     C14165   3.370   3.672   9.798 -0.0616 -0.2514  0.1820
  828MOL0     C14166   3.319   3.693   9.646  0.3044 -0.2237 -0.5300
  828MOL0     C14167   3.423   3.664   9.543 -0.1477 -0.3781 -0.1407
  828MOL0     C14168   3.373   3.720   9.412 -0.5822 -0.0231 -0.4922
  828MOL0     C14169   3.486   3.703   9.311 -0.2966 -0.1521  0.1123
  828MOL0     C14170   3.437   3.752   9.171  0.2439  1.0396 -0.4575
  828MOL0    Cl14171   3.582   3.732   9.059 -0.0642 -0.2014 -0.1419
  828MOL0     C14172   3.070   4.068   9.910 -0.1832  0.2262  0.2607
  828MOL0     C14173   2.996   4.188   9.918 -0.0198 -0.2838  0.2771
  828MOL0     O14174   2.944   4.457  10.043  0.2171  0.0811  0.0607
  828MOL0     C14175   2.597   4.521   9.941  0.0585  0.2983  0.2332
  828MOL0     C14176   2.505   4.616   9.907  0.4922 -0.0379  0.5085
  828MOL0     N14177   2.384   5.250   9.442 -0.2427 -0.2606 -0.5775
  828MOL0     N14178   2.360   5.375   9.434  0.9007 -0.4364  0.6198
  828MOL0     C14179   2.368   6.286   9.069  0.3817  0.0772 -0.5583
  828MOL0     C14180   2.301   6.379   8.995 -0.2394  0.3577  0.5006
  828MOL0     C14181   2.090   6.743   8.848 -0.0801  0.4447  0.5110
  828MOL0     C14182   2.081   6.870   8.901 -0.4415  0.5092 -0.0386
  828MOL0     C14183   1.995   6.961   8.843 -0.1844  0.2088  0.0829
  828MOL0     C14184   1.916   6.937   8.734  0.0943  0.0610 -0.1685
  828MOL0     O14185   1.831   7.037   8.689  0.0314  0.2048 -0.3079
  828MOL0     C14186   1.726   6.998   8.598 -0.0517  1.0801  0.5754
  828MOL0     C14187   1.646   7.123   8.565 -0.0725  0.3761  0.0724
  828MOL0     C14188   1.549   7.094   8.444 -0.1809  0.6132 -0.6045
  828MOL0     C14189   1.445   7.210   8.439  0.0727  0.3354  0.3525
  828MOL0     C14190   1.330   7.166   8.352  0.4519 -0.5304 -0.4265
  828MOL0     C14191   1.242   7.157   8.271 -1.0356  0.3572  0.1631
  828MOL0     C14192   1.923   6.803   8.687 -0.1105 -1.0206 -0.1135
  828MOL0     C14193   2.005   6.708   8.740 -0.4691 -0.5900  0.1866
  828MOL0     C14194   2.001   6.564   8.690 -0.3356 -0.0631 -0.3395
  828MOL0     H14195   2.043   6.456   9.216 -0.2099  1.1288 -1.8250
  828MOL0     H14196   2.165   6.315   9.354  2.1706  0.4566  1.1777
  828MOL0     H14197   2.469   6.009   9.335  0.9525  2.3582  1.6338
  828MOL0     H14198   2.528   6.095   9.197  0.5445 -0.6400  0.8461
  828MOL0     H14199   2.300   6.048   9.074 -1.1205  0.4818  2.1979
  828MOL0     H14200   2.433   5.946   9.068 -1.3347  0.2929 -0.0755
  828MOL0     H14201   2.326   5.809   9.258 -1.1786 -3.5754 -3.3926
  828MOL0     H14202   2.203   5.938   9.290  2.1633 -2.2416  2.6001
  828MOL0     H14203   2.150   5.865   9.032 -1.2363 -2.4421 -1.0440
  828MOL0     H14204   2.235   5.724   9.088  0.3689  0.6059  0.6270
  828MOL0     H14205   1.990   5.680   9.132 -2.1002  0.5220 -0.1084
  828MOL0     H14206   1.968   5.847   9.182 -1.4174 -0.3374 -0.7345
  828MOL0     H14207   2.098   5.778   9.396  2.7281 -2.3097  0.8017
  828MOL0     H14208   1.960   5.670   9.366 -0.4005  0.2186  1.2960
  828MOL0     H14209   2.246   5.590   9.286 -0.4368 -1.5374 -2.2745
  828MOL0     H14210   2.101   5.483   9.299 -1.8034 -0.4662  3.3959
  828MOL0     H14211   2.242   5.614   9.511 -0.8454  2.6643 -2.7712
  828MOL0     H14212   2.072   5.533   9.528 -2.0116  1.7365 -1.9565
  828MOL0     H14213   2.082   5.275   9.569 -1.0104  1.5356 -1.0253
  828MOL0     H14214   2.341   4.992   9.486 -0.7852 -0.0967 -2.1410
  828MOL0     H14215   2.171   5.005   9.474  0.4694 -1.5935  0.3659
  828MOL0     H14216   2.159   5.085   9.730 -1.6260  0.9905 -1.6486
  828MOL0     H14217   2.221   4.921   9.717  2.7687 -0.7637 -0.6000
  828MOL0     H14218   2.424   5.143   9.698  1.4789 -1.1622 -1.2662
  828MOL0     H14219   2.371   5.089   9.850  1.2503  1.7219 -0.9771
  828MOL0     H14220   2.494   4.885   9.665 -1.1054 -0.7194 -0.0218
  828MOL0     H14221   2.583   4.997   9.774 -0.1504 -0.7999  0.8372
  828MOL0     H14222   2.734   4.848   9.811  2.9789 -0.5592  0.1692
  828MOL0     H14223   2.921   4.744   9.760  1.5761 -1.2659 -0.5985
  828MOL0     H14224   2.998   4.616   9.848  1.2065  0.5076  2.0806
  828MOL0     H14225   2.958   4.766   9.925  2.1434 -1.4770  0.6391
  828MOL0     H14226   2.717   4.091  10.076 -0.3946  3.0559 -1.8913
  828MOL0     H14227   2.840   3.873  10.067  0.4283 -1.0883 -2.8233
  828MOL0     H14228   3.238   3.884   9.838  3.2449 -2.1032 -1.5242
  828MOL0     H14229   3.277   3.857  10.015 -0.4419  1.0854 -1.0492
  828MOL0     H14230   3.286   3.640  10.000  0.7435 -0.0150  0.5974
  828MOL0     H14231   3.172   3.610   9.875  1.9572 -2.0168  0.1611
  828MOL0     H14232   3.413   3.572   9.809  2.7717  0.9409  0.8077
  828MOL0     H14233   3.449   3.746   9.813 -1.1338  2.2364 -4.5667
  828MOL0     H14234   3.288   3.798   9.633  0.5097  0.1340  1.5205
  828MOL0     H14235   3.235   3.634   9.610  0.1102  1.0938 -2.3696
  828MOL0     H14236   3.514   3.713   9.578  1.5162 -3.6149  0.3801
  828MOL0     H14237   3.454   3.559   9.542 -0.2934 -0.5360 -4.2462
  828MOL0     H14238   3.345   3.826   9.414  1.1710  0.6277 -3.1913
  828MOL0     H14239   3.285   3.662   9.383  0.7036 -2.5478  0.3245
  828MOL0     H14240   3.506   3.596   9.315 -1.1192 -0.2763  2.4096
  828MOL0     H14241   3.577   3.756   9.339 -0.8271  0.2893  1.0381
  828MOL0     H14242   3.414   3.859   9.172  2.6680  1.6491  0.8531
  828MOL0     H14243   3.348   3.695   9.144 -0.7791  2.1125  0.5153
  828MOL0     H14244   3.157   4.070   9.846 -0.9145  0.9422 -0.7403
  828MOL0     H14245   3.026   4.277   9.863  1.4868 -0.4632  0.7633
  828MOL0     H14246   2.560   4.422   9.966 -0.2503  0.5082  0.6208
  828MOL0     H14247   2.402   4.607   9.939  0.1267 -0.7167 -0.7959
  828MOL0     H14248   2.449   6.224   9.031  1.6646  0.0257  2.0819
  828MOL0     H14249   2.333   6.400   8.893 -3.0825  3.1910  0.0113
  828MOL0     H14250   2.139   6.900   8.988 -0.3940  1.6754 -0.4563
  828MOL0     H14251   1.995   7.063   8.880 -0.9113  0.3335 -0.2445
  828MOL0     H14252   1.763   6.953   8.505 -1.0700  2.4533 -0.5329
  828MOL0     H14253   1.661   6.920   8.640  1.4289 -0.5000  0.0561
  828MOL0     H14254   1.715   7.207   8.556  1.4392 -0.4951  2.5810
  828MOL0     H14255   1.599   7.144   8.661  1.8540  3.2739  0.5112
  828MOL0     H14256   1.620   7.087   8.361  1.8797  0.5368  1.0545
  828MOL0     H14257   1.494   7.004   8.474 -1.3044  1.0749 -1.2498
  828MOL0     H14258   1.489   7.299   8.393  2.0334 -1.1915 -0.8965
  828MOL0     H14259   1.415   7.227   8.543 -0.8071 -2.4478  0.6320
  828MOL0     H14260   1.158   7.137   8.207 -0.5674 -1.5064  0.0742
  828MOL0     H14261   1.858   6.773   8.605 -0.2085 -0.1694 -0.3518
  828MOL0     H14262   1.939   6.550   8.600 -0.4220 -2.9733  0.0566
  828MOL0     H14263   2.095   6.520   8.655 -0.3655  0.0783 -0.6050
  828MOL0     H14264   1.962   6.506   8.775 -1.0724  1.8640  0.6981
  829MOL0     O14265   1.102   2.140  10.388 -0.0402  0.1962  0.5800
  829MOL0     C14266   1.079   2.248  10.442 -0.3037  0.3133 -0.5899
  829MOL0     O14267   1.160   2.340  10.447 -0.6527 -0.3841  0.0683
  829MOL0     C14268   1.283   2.331  10.389 -0.8846  0.7302  0.3093
  829MOL0     C14269   1.389   2.309  10.472 -0.0249 -0.5449  0.2328
  829MOL0     C14270   1.513   2.288  10.413 -0.0803  0.9154 -0.0138
  829MOL0     C14271   1.548   2.294  10.275 -1.1918 -0.2849 -0.0373
  829MOL0     O14272   1.672   2.248  10.231  0.0118 -0.1678  0.2086
  829MOL0     C14273   1.687   2.249  10.087 -0.5818  0.1382 -0.2625
  829MOL0     C14274   1.834   2.214  10.039  0.3631  0.0511 -0.3742
  829MOL0     C14275   1.854   2.227   9.891 -1.3796 -0.1672 -0.1928
  829MOL0     C14276   1.996   2.224   9.840  0.7521 -0.5974 -0.0430
  829MOL0     C14277   2.058   2.077   9.834  0.5912 -0.2145  0.1053
  829MOL0     C14278   2.184   2.090   9.752  0.2338  0.5025  0.4708
  829MOL0     C14279   2.141   2.084   9.602 -0.2558  0.7450  0.7024
  829MOL0     C14280   2.234   1.995   9.511 -0.5173  1.1984  0.2865
  829MOL0     N14281   2.380   2.025   9.534  0.1996 -0.4356  0.1302
  829MOL0     C14282   2.443   2.139   9.490 -0.2923 -0.7009 -0.7634
  829MOL0     C14283   2.557   2.146   9.562  0.3091 -0.1505  0.0273
  829MOL0     C14284   2.639   2.269   9.580  0.0776 -0.2748  0.1791
  829MOL0     C14285   2.567   2.361   9.680 -0.5512 -0.0816  0.1099
  829MOL0     C14286   2.666   2.479   9.722 -0.9225  0.4841  0.2108
  829MOL0     C14287   2.745   2.416   9.843 -0.6502 -0.8613  0.0630
  829MOL0     O14288   2.852   2.511   9.868  0.3806  0.1789 -0.1387
  829MOL0     C14289   2.976   2.485   9.813 -0.1259 -0.4854 -0.4029
  829MOL0     C14290   3.082   2.495   9.903 -0.1135  0.2135 -0.6972
  829MOL0     C14291   3.220   2.477   9.872 -0.4712  0.3653  0.2484
  829MOL0     C14292   3.325   2.495   9.986  0.6674  0.2977  0.0016
  829MOL0     C14293   3.243   2.458   9.730  0.4253 -0.1852 -0.3147
  829MOL0     C14294   3.375   2.463   9.666 -0.2271 -0.3770 -0.7596
  829MOL0     O14295   3.384   2.463   9.534  0.0745 -0.0881 -0.1389
  829MOL0     C14296   3.497   2.422   9.463  0.5532  0.3786  0.0976
  829MOL0     C14297   3.632   2.432   9.505 -0.0346 -0.8278 -0.9304
  829MOL0     C14298   3.735   2.369   9.443  0.4243 -0.4179  0.4897
  829MOL0     C14299   3.714   2.304   9.320 -0.0279  0.4385 -0.1841
  829MOL0     O14300   3.830   2.254   9.268 -0.8092 -0.1344 -0.4856
  829MOL0     C14301   3.833   2.135   9.204 -0.3320  0.7099  0.1102
  829MOL0     C14302   3.978   2.085   9.205 -0.3312 -0.7924  0.1832
  829MOL0     C14303   4.004   2.010   9.336 -0.1049 -0.3026  0.5706
  829MOL0     C14304   4.144   1.958   9.345 -0.5029 -0.3969 -0.7914
  829MOL0     C14305   4.167   1.865   9.466  0.3315 -0.1569 -0.6380
  829MOL0     C14306   4.304   1.799   9.480  0.3448 -0.2582  0.0483
  829MOL0     C14307   4.417   1.892   9.496 -0.1414 -1.2980 -0.1735
  829MOL0     C14308   4.555   1.832   9.498 -0.2536  0.0324  0.0347
  829MOL0    Cl14309   4.574   1.683   9.590  0.0749  0.0428 -0.0116
  829MOL0     C14310   3.583   2.290   9.273  0.7329  0.2259 -0.2101
  829MOL0     C14311   3.471   2.344   9.348  0.4433 -0.0916 -0.9243
  829MOL0     O14312   3.465   2.442   9.743 -0.6356 -0.2059  0.3118
  829MOL0     C14313   3.138   2.445   9.647 -0.5844  1.2267  0.5070
  829MOL0     C14314   3.004   2.454   9.683 -0.1681 -0.2065  0.2928
  829MOL0     N14315   2.562   2.026   9.637  0.1704  0.7775 -0.6879
  829MOL0     N14316   2.460   1.956   9.620  0.7686 -0.3025  0.9392
  829MOL0     C14317   1.438   2.317  10.186  0.4698 -0.6408 -0.9845
  829MOL0     C14318   1.309   2.334  10.247  0.6826  0.5895  0.1874
  829MOL0     C14319   0.941   2.260  10.503 -1.1277  0.8312  0.0329
  829MOL0     C14320   0.861   2.146  10.493  0.1151  0.2795  0.2185
  829MOL0     C14321   0.731   2.148  10.541  1.3369  0.3008  0.6653
  829MOL0     C14322   0.676   2.263  10.608  0.7248  0.2580  0.4874
  829MOL0     O14323   0.546   2.266  10.654  0.1399 -0.3960 -0.9903
  829MOL0     C14324   0.503   2.355  10.756 -0.3914 -0.0111 -1.0307
  829MOL0     C14325   0.425   2.472  10.696 -0.6935  1.0893  0.0635
  829MOL0     C14326   0.307   2.427  10.613  0.0392 -0.4411  0.6254
  829MOL0     C14327   0.230   2.543  10.554  0.4785 -0.2318  0.0352
  829MOL0     C14328   0.101   2.507  10.500 -1.4567  0.1792 -0.1889
  829MOL0     C14329  -0.009   2.461  10.481 -0.5777 -1.1738 -0.5795
  829MOL0     C14330   0.752   2.380  10.606 -0.3902  0.8047  0.4974
  829MOL0     C14331   0.884   2.378  10.564 -0.5660  0.0180 -0.1326
  829MOL0     C14332   0.970   2.507  10.591 -0.3871  0.3369  0.2545
  829MOL0     H14333   1.383   2.307  10.581  0.5483  0.0285  0.2817
  829MOL0     H14334   1.591   2.257  10.480 -0.1601  2.9086  1.0904
  829MOL0     H14335   1.670   2.354  10.061  0.9804  0.4893  0.0137
  829MOL0     H14336   1.619   2.181  10.036 -0.8626 -0.9285  1.4380
  829MOL0     H14337   1.897   2.284  10.096 -1.4898  1.7487 -0.3169
  829MOL0     H14338   1.850   2.110  10.070  1.9873 -0.0129 -1.3072
  829MOL0     H14339   1.792   2.153   9.841 -3.4924 -0.6127  2.7857
  829MOL0     H14340   1.812   2.325   9.865 -2.0359 -1.0071 -2.4670
  829MOL0     H14341   1.997   2.265   9.739  2.5042 -0.4401  0.0174
  829MOL0     H14342   2.061   2.292   9.896  0.0098  1.3895 -1.4875
  829MOL0     H14343   1.981   2.011   9.794 -0.8383  1.5170 -0.1563
  829MOL0     H14344   2.078   2.041   9.936 -0.4061  0.0467  0.4085
  829MOL0     H14345   2.237   2.184   9.762 -0.6426  1.4236 -2.4634
  829MOL0     H14346   2.252   2.008   9.778  1.2275  0.2067 -2.5759
  829MOL0     H14347   2.137   2.187   9.566 -0.8142  1.5571  2.9481
  829MOL0     H14348   2.041   2.042   9.595  0.2694 -0.6907  1.4017
  829MOL0     H14349   2.220   1.894   9.551  1.0232  1.2981  1.1355
  829MOL0     H14350   2.204   2.004   9.406 -3.5694 -0.2403  0.9298
  829MOL0     H14351   2.390   2.220   9.440 -2.5276 -1.4743  0.2178
  829MOL0     H14352   2.670   2.317   9.487  3.6426 -0.6088  1.0774
  829MOL0     H14353   2.735   2.242   9.624  0.6431  0.5599 -0.5162
  829MOL0     H14354   2.478   2.409   9.639  0.9485  1.8007 -1.1589
  829MOL0     H14355   2.540   2.297   9.765 -0.1656 -0.3774  0.0146
  829MOL0     H14356   2.731   2.508   9.639 -1.6946 -1.5835 -1.2293
  829MOL0     H14357   2.618   2.575   9.737  1.0861  1.8091 -1.2990
  829MOL0     H14358   2.674   2.390   9.923 -1.2096 -1.0053 -0.4661
  829MOL0     H14359   2.798   2.322   9.825  2.1118 -0.3909  4.4625
  829MOL0     H14360   3.067   2.528  10.006 -0.0040 -1.9072  0.0619
  829MOL0     H14361   3.356   2.393  10.010 -3.4331 -1.3265 -0.7652
  829MOL0     H14362   3.285   2.526  10.083  2.3153 -3.6865  2.2314
  829MOL0     H14363   3.408   2.560   9.955  1.5308 -0.5122  0.5480
  829MOL0     H14364   3.654   2.472   9.603  0.6021 -0.6965 -1.1249
  829MOL0     H14365   3.835   2.362   9.487  1.4936  0.5556 -1.6461
  829MOL0     H14366   3.768   2.063   9.254  0.9882 -0.9760 -0.5323
  829MOL0     H14367   3.805   2.158   9.101 -0.6278 -0.3491 -0.0564
  829MOL0     H14368   4.000   2.020   9.120  0.3699 -0.1401 -0.1484
  829MOL0     H14369   4.043   2.173   9.201 -0.3694 -0.8051 -2.9626
  829MOL0     H14370   3.938   1.928   9.367  0.6066  0.3923  4.4458
  829MOL0     H14371   3.997   2.084   9.416 -0.2618 -0.4923  0.7350
  829MOL0     H14372   4.207   2.046   9.364 -0.2732 -0.8869  0.8513
  829MOL0     H14373   4.178   1.920   9.248  1.6950 -0.1356 -0.1736
  829MOL0     H14374   4.155   1.926   9.556  0.6703  1.7996 -1.8496
  829MOL0     H14375   4.091   1.787   9.465 -1.2695  1.3457 -0.3370
  829MOL0     H14376   4.315   1.735   9.392  0.6295  1.9114 -1.5820
  829MOL0     H14377   4.294   1.732   9.567  1.2681 -2.2615 -1.3178
  829MOL0     H14378   4.413   1.950   9.589  0.8700 -1.9301  0.2828
  829MOL0     H14379   4.418   1.972   9.421  1.4985 -1.5542 -0.4609
  829MOL0     H14380   4.631   1.898   9.540  0.2494 -0.6225  0.1607
  829MOL0     H14381   4.583   1.819   9.393  4.3897  3.2980  0.5815
  829MOL0     H14382   3.574   2.237   9.178  2.6921  0.5546 -0.6144
  829MOL0     H14383   3.369   2.323   9.317  0.5851 -2.0543 -0.1999
  829MOL0     H14384   3.163   2.424   9.544 -0.2003  1.1704  0.6081
  829MOL0     H14385   2.943   2.442   9.593  1.7355  2.6310 -1.5150
  829MOL0     H14386   1.439   2.320  10.077 -0.4751 -1.8781 -1.0460
  829MOL0     H14387   1.221   2.348  10.185 -0.0537  0.9834  1.2984
  829MOL0     H14388   0.886   2.051  10.446 -2.9239  0.6694 -2.5492
  829MOL0     H14389   0.676   2.061  10.506  1.5426  2.0218 -4.7999
  829MOL0     H14390   0.430   2.308  10.822 -0.1018 -0.9585 -1.3749
  829MOL0     H14391   0.594   2.384  10.809 -1.5295  1.0728  0.4123
  829MOL0     H14392   0.494   2.529  10.633  1.8579 -0.7048  1.0316
  829MOL0     H14393   0.394   2.525  10.787 -1.6084 -1.6163  1.4656
  829MOL0     H14394   0.338   2.356  10.536 -0.6558 -1.8658  1.6297
  829MOL0     H14395   0.250   2.362  10.679  2.0621 -1.9139  1.0267
  829MOL0     H14396   0.285   2.578  10.466  1.2440 -1.0145  0.1868
  829MOL0     H14397   0.235   2.620  10.631 -0.1939 -1.8224  1.7389
  829MOL0     H14398  -0.112   2.431  10.479 -1.6967  2.2343 -0.6810
  829MOL0     H14399   0.711   2.475  10.637 -3.1479  1.0026 -3.1383
  829MOL0     H14400   1.064   2.518  10.536  0.3140  0.0203  1.3703
  829MOL0     H14401   0.907   2.592  10.564 -0.6966 -0.1761 -0.7136
  829MOL0     H14402   0.985   2.518  10.698  2.2406 -3.6386  0.5123
  830MOL0     O14403   8.444   4.035  11.262  0.1405 -0.1875 -0.4832
  830MOL0     C14404   8.531   4.084  11.187  0.3330  0.2868 -0.3906
  830MOL0     O14405   8.502   4.149  11.069 -0.0209 -0.1885 -0.1284
  830MOL0     C14406   8.375   4.139  11.026 -0.3992  0.0949 -0.6500
  830MOL0     C14407   8.308   4.261  11.021  0.1780 -0.4597  0.1691
  830MOL0     C14408   8.183   4.264  10.960  0.9802  0.4588  0.2114
  830MOL0     C14409   8.117   4.145  10.930  0.0427 -0.2071 -0.1463
  830MOL0     O14410   7.985   4.156  10.898  0.0597  0.1709  0.9454
  830MOL0     C14411   7.894   4.129  11.005  0.1518  0.0801  0.4945
  830MOL0     C14412   7.765   4.069  10.954  0.1497  0.3684 -1.3383
  830MOL0     C14413   7.664   4.031  11.066 -0.8699  1.2192 -0.0181
  830MOL0     C14414   7.626   4.152  11.148 -1.0616 -0.3557 -0.1858
  830MOL0     C14415   7.518   4.104  11.248  1.0555 -0.0020 -0.4447
  830MOL0     C14416   7.464   4.229  11.322 -0.3672 -0.4904 -0.5735
  830MOL0     C14417   7.557   4.265  11.440  0.0238 -0.7451 -0.0824
  830MOL0     C14418   7.498   4.398  11.496 -0.3123 -0.1382 -0.3511
  830MOL0     N14419   7.367   4.383  11.563 -0.6704  0.1702  1.1964
  830MOL0     C14420   7.244   4.407  11.503 -0.2876  0.2893 -0.7444
  830MOL0     C14421   7.154   4.373  11.597  0.2028  0.2667  0.1114
  830MOL0     C14422   7.008   4.380  11.568 -0.1410  0.8355 -0.1113
  830MOL0     C14423   6.923   4.307  11.669 -0.2305  0.4702  0.2746
  830MOL0     C14424   6.776   4.303  11.631  0.2689 -0.5486 -0.4624
  830MOL0     C14425   6.715   4.447  11.639 -0.1910 -0.1259 -0.0780
  830MOL0     O14426   6.734   4.513  11.765  0.8475  0.6494 -0.2103
  830MOL0     C14427   6.655   4.620  11.797 -0.3926 -0.8009  0.0164
  830MOL0     C14428   6.621   4.649  11.930  0.1696 -0.7041 -1.2065
  830MOL0     C14429   6.537   4.755  11.971  0.7233 -0.4934 -0.3463
  830MOL0     C14430   6.505   4.774  12.116  0.0554 -0.6712 -0.2064
  830MOL0     C14431   6.500   4.852  11.873 -0.2099  0.0892  0.0075
  830MOL0     C14432   6.440   4.986  11.896 -0.9006 -0.5670 -0.0228
  830MOL0     O14433   6.371   5.046  11.793 -0.4584  1.0047  0.1282
  830MOL0     C14434   6.331   5.174  11.786 -0.0125 -0.0555 -0.7252
  830MOL0     C14435   6.426   5.273  11.764 -0.6482 -0.5251  0.1431
  830MOL0     C14436   6.385   5.404  11.749  0.2297 -0.0128 -0.6473
  830MOL0     C14437   6.246   5.432  11.758  0.4957 -0.1859  0.0231
  830MOL0     O14438   6.189   5.555  11.737  0.4858 -0.6451  0.2202
  830MOL0     C14439   6.264   5.676  11.728 -0.5824 -0.1082  0.3283
  830MOL0     C14440   6.189   5.793  11.790  0.8127  0.2282 -0.1222
  830MOL0     C14441   6.074   5.829  11.694  1.0139 -0.0865  0.0957
  830MOL0     C14442   5.968   5.935  11.750 -0.8220 -0.3185 -0.0669
  830MOL0     C14443   5.856   5.964  11.645  0.0184  0.3004 -0.3887
  830MOL0     C14444   5.739   6.038  11.710  0.3561 -0.3192  0.2887
  830MOL0     C14445   5.600   5.994  11.648 -0.4595  0.5510  0.8314
  830MOL0     C14446   5.486   6.096  11.645 -0.3324 -0.4438  0.6144
  830MOL0    Cl14447   5.314   6.048  11.651 -0.3710  0.1372  0.0640
  830MOL0     C14448   6.154   5.332  11.782  0.0255  1.1116 -0.1980
  830MOL0     C14449   6.197   5.202  11.793 -0.2050  0.5773  0.1177
  830MOL0     O14450   6.475   5.042  12.001 -0.5996  0.0427  0.1720
  830MOL0     C14451   6.542   4.826  11.740 -0.3673  0.8847  0.9702
  830MOL0     C14452   6.603   4.702  11.708 -0.1366  0.6601 -0.0457
  830MOL0     N14453   7.224   4.332  11.706 -0.1881 -0.4462 -0.2524
  830MOL0     N14454   7.353   4.340  11.688  0.5540 -0.6254 -0.0409
  830MOL0     C14455   8.181   4.020  10.935 -0.0476  0.2766  0.2638
  830MOL0     C14456   8.309   4.015  10.986  0.2917 -0.0457 -0.4546
  830MOL0     C14457   8.676   4.073  11.226 -0.2416 -0.1923 -0.1054
  830MOL0     C14458   8.704   4.005  11.348  0.6946 -0.0450 -0.3503
  830MOL0     C14459   8.833   3.998  11.400  0.6851 -1.2917 -0.4174
  830MOL0     C14460   8.944   4.058  11.333  0.3479  0.5898  0.6604
  830MOL0     O14461   9.072   4.046  11.373  0.0801 -0.2619 -0.4115
  830MOL0     C14462   9.109   3.935  11.462 -0.2041 -0.8925 -0.1283
  830MOL0     C14463   9.259   3.963  11.488  0.4465  1.0580  0.1774
  830MOL0     C14464   9.316   3.900  11.605  0.0621 -0.3978  0.2616
  830MOL0     C14465   9.316   3.754  11.605 -0.4410  0.0184 -0.6999
  830MOL0     C14466   9.349   3.680  11.483  0.7883 -0.4529 -0.0158
  830MOL0     C14467   9.369   3.615  11.378  0.4113 -0.5900  0.3411
  830MOL0     C14468   8.915   4.124  11.211  0.0586 -0.6371 -0.4985
  830MOL0     C14469   8.784   4.128  11.153  0.0664  0.6947 -0.7653
  830MOL0     C14470   8.783   4.201  11.020 -0.0040  0.3989 -0.4854
  830MOL0     H14471   8.352   4.352  11.059 -0.5397  0.0466 -0.1820
  830MOL0     H14472   8.133   4.361  10.960  1.2924  0.6241  0.8750
  830MOL0     H14473   7.877   4.228  11.049  0.0559  0.8038 -1.0946
  830MOL0     H14474   7.931   4.063  11.084  0.1229 -0.3569  0.1486
  830MOL0     H14475   7.716   4.134  10.881 -1.0704  0.5437 -0.3961
  830MOL0     H14476   7.798   3.976  10.907  1.0621 -2.2626  3.7855
  830MOL0     H14477   7.575   3.992  11.016 -1.6522 -0.2458  2.3665
  830MOL0     H14478   7.706   3.956  11.134 -2.0453 -2.1352 -2.6840
  830MOL0     H14479   7.711   4.184  11.209 -1.9977 -0.6863  1.3559
  830MOL0     H14480   7.588   4.236  11.088  0.6049 -0.0905 -0.9326
  830MOL0     H14481   7.566   4.028  11.311 -0.5721  0.0865  0.9651
  830MOL0     H14482   7.432   4.058  11.198  1.6250 -1.2839 -0.2969
  830MOL0     H14483   7.448   4.308  11.248 -2.2937 -1.3946 -1.2118
  830MOL0     H14484   7.371   4.200  11.372  0.5284  0.8882  2.1119
  830MOL0     H14485   7.659   4.270  11.401 -0.0326 -2.1812 -0.4916
  830MOL0     H14486   7.555   4.184  11.513 -2.0357 -0.3343  0.3933
  830MOL0     H14487   7.570   4.433  11.571  0.4454  0.5882 -1.4006
  830MOL0     H14488   7.506   4.478  11.422 -0.1174  0.3685  0.2087
  830MOL0     H14489   7.236   4.453  11.405  0.1837  1.3523 -0.2938
  830MOL0     H14490   6.998   4.340  11.466  0.4837 -0.3418  0.2699
  830MOL0     H14491   6.989   4.488  11.561  4.1253  1.8054  0.2015
  830MOL0     H14492   6.959   4.204  11.675 -2.4625 -0.3532  0.5223
  830MOL0     H14493   6.937   4.341  11.773 -0.1221 -0.5193  0.5880
  830MOL0     H14494   6.766   4.267  11.529 -2.1881  3.3046 -1.8095
  830MOL0     H14495   6.717   4.232  11.689 -1.1542 -1.4014 -2.8206
  830MOL0     H14496   6.763   4.511  11.564 -1.8061  1.1374 -0.0840
  830MOL0     H14497   6.608   4.453  11.615 -0.0156 -1.6000 -1.4143
  830MOL0     H14498   6.655   4.581  12.007 -2.4358 -1.4652 -0.6524
  830MOL0     H14499   6.595   4.831  12.141  1.0266 -0.4737 -3.6412
  830MOL0     H14500   6.496   4.683  12.177 -1.0110  0.3642  1.2521
  830MOL0     H14501   6.416   4.836  12.126  0.5089 -0.0609  0.1188
  830MOL0     H14502   6.530   5.256  11.737 -0.1128  3.8242 -1.2057
  830MOL0     H14503   6.464   5.475  11.724  2.4877 -1.7714  1.0851
  830MOL0     H14504   6.353   5.658  11.790 -1.6623 -0.2195  1.8968
  830MOL0     H14505   6.299   5.713  11.631  1.5531 -1.4278  0.5142
  830MOL0     H14506   6.142   5.767  11.885  1.1077 -0.1277 -0.0736
  830MOL0     H14507   6.249   5.882  11.810  0.4089  0.7735 -1.2395
  830MOL0     H14508   6.027   5.733  11.670  2.5611 -1.4511  2.2026
  830MOL0     H14509   6.106   5.878  11.601 -0.5981 -1.1635 -1.0888
  830MOL0     H14510   6.011   6.029  11.784  0.0512 -0.3842 -0.9403
  830MOL0     H14511   5.927   5.889  11.841 -2.6337 -0.1053 -0.7273
  830MOL0     H14512   5.899   6.021  11.562 -0.2884  0.4474 -0.4481
  830MOL0     H14513   5.819   5.867  11.609 -0.3633  1.0849 -2.2552
  830MOL0     H14514   5.751   6.146  11.698  0.4302 -0.4462 -0.9234
  830MOL0     H14515   5.736   5.998  11.812 -0.1079  0.3315  0.5341
  830MOL0     H14516   5.567   5.913  11.713 -2.2955 -2.7292 -3.6654
  830MOL0     H14517   5.611   5.949  11.549  3.5092  0.1697  1.2874
  830MOL0     H14518   5.490   6.152  11.550  0.7641 -2.0530 -0.3498
  830MOL0     H14519   5.492   6.166  11.728 -1.9796  0.0812  0.3328
  830MOL0     H14520   6.046   5.339  11.796  0.4031  0.8272  4.4576
  830MOL0     H14521   6.122   5.124  11.797  1.0142 -0.6095  1.0131
  830MOL0     H14522   6.523   4.889  11.654 -0.7949  1.3764  1.4235
  830MOL0     H14523   6.618   4.679  11.603  0.1317 -1.1497  0.3635
  830MOL0     H14524   8.123   3.934  10.904 -0.4892 -0.2448  2.3898
  830MOL0     H14525   8.345   3.914  11.003 -2.5070 -1.1294 -0.2538
  830MOL0     H14526   8.619   3.961  11.399 -2.9409  2.9451 -3.2000
  830MOL0     H14527   8.852   3.943  11.492 -1.2550 -0.2593  0.6591
  830MOL0     H14528   9.059   3.945  11.559  1.0699  1.4699  0.3869
  830MOL0     H14529   9.073   3.842  11.418 -1.0609 -1.3798  1.5112
  830MOL0     H14530   9.264   4.072  11.491 -3.3818  1.3544  1.8083
  830MOL0     H14531   9.315   3.930  11.401  0.2372  2.0206 -0.3354
  830MOL0     H14532   9.419   3.934  11.618  1.2191 -3.2036 -0.8078
  830MOL0     H14533   9.257   3.937  11.689  0.7547 -0.6280  0.8556
  830MOL0     H14534   9.218   3.725  11.645  0.6387 -1.3764  1.1071
  830MOL0     H14535   9.385   3.739  11.688  0.0432  1.3436 -0.8434
  830MOL0     H14536   9.381   3.563  11.285  0.0040 -0.1843  0.0588
  830MOL0     H14537   9.001   4.175  11.168 -0.6691  1.2465  0.1486
  830MOL0     H14538   8.886   4.215  10.988  0.3547 -0.9885  0.0306
  830MOL0     H14539   8.721   4.148  10.947 -0.8491  1.3404 -0.4855
  830MOL0     H14540   8.737   4.301  11.020  1.4603  1.1057 -1.0117
  831MOL0     O14541   2.061   5.753  10.192 -0.0999  0.0831 -0.1540
  831MOL0     C14542   1.988   5.700  10.279  0.0634  0.4293  0.1621
  831MOL0     O14543   1.996   5.566  10.321  0.5479 -0.2684  0.4284
  831MOL0     C14544   2.120   5.514  10.339 -0.1393  0.1847 -0.2439
  831MOL0     C14545   2.136   5.382  10.319 -0.1283  0.2850 -0.0423
  831MOL0     C14546   2.250   5.312  10.350 -0.0384 -0.9637 -0.7084
  831MOL0     C14547   2.359   5.379  10.409 -0.2834  0.4151 -0.4565
  831MOL0     O14548   2.476   5.305  10.423  0.5315 -0.3676 -0.2614
  831MOL0     C14549   2.592   5.375  10.463 -0.9121  0.0627 -0.0511
  831MOL0     C14550   2.691   5.271  10.512  0.3574  0.9700  0.0841
  831MOL0     C14551   2.841   5.318  10.522  0.7553 -0.3480 -0.6906
  831MOL0     C14552   2.920   5.187  10.538 -1.2033 -0.0200 -1.0889
  831MOL0     C14553   3.048   5.223  10.608 -0.3892 -0.4085 -0.3084
  831MOL0     C14554   3.136   5.330  10.540  0.0838 -0.6107 -0.4131
  831MOL0     C14555   3.256   5.381  10.631  0.8734 -0.2056 -0.5080
  831MOL0     C14556   3.353   5.272  10.661 -0.5963 -0.0363 -0.3308
  831MOL0     N14557   3.472   5.324  10.737  1.0673  0.4787  0.3989
  831MOL0     C14558   3.470   5.381  10.858 -0.2435  0.2236  0.4834
  831MOL0     C14559   3.600   5.408  10.886  0.2101 -0.7358  0.4941
  831MOL0     C14560   3.655   5.479  11.008  0.2727 -1.3958 -0.4031
  831MOL0     C14561   3.623   5.408  11.141 -0.3502  0.6348  0.7397
  831MOL0     C14562   3.624   5.501  11.259  0.7986 -0.3914  0.5922
  831MOL0     C14563   3.756   5.564  11.284 -1.2667  0.9227  0.3580
  831MOL0     O14564   3.856   5.460  11.312  0.7760  0.4479 -0.2832
  831MOL0     C14565   3.990   5.471  11.295 -0.2221  0.8208  0.3569
  831MOL0     C14566   4.048   5.540  11.192 -0.4347 -0.1429 -1.0372
  831MOL0     C14567   4.190   5.534  11.175 -0.1976  0.4337  0.0889
  831MOL0     C14568   4.245   5.586  11.038 -0.4727 -0.4044 -0.5258
  831MOL0     C14569   4.276   5.467  11.270  0.2378 -0.2987  0.2429
  831MOL0     C14570   4.426   5.465  11.268  0.3257  0.3219  0.1686
  831MOL0     O14571   4.493   5.377  11.349 -0.9641 -0.6514 -0.3120
  831MOL0     C14572   4.633   5.386  11.356  0.1243  0.0298  0.4512
  831MOL0     C14573   4.714   5.498  11.331  0.2066  0.1078 -0.1205
  831MOL0     C14574   4.855   5.496  11.336  0.8723  0.0190 -0.8064
  831MOL0     C14575   4.928   5.385  11.369 -0.4230 -0.1151  0.1249
  831MOL0     O14576   5.058   5.395  11.379  0.1487  0.1984  0.5188
  831MOL0     C14577   5.131   5.283  11.429  0.1892 -0.5468 -0.8803
  831MOL0     C14578   5.275   5.333  11.441 -0.3753 -0.2774  0.0186
  831MOL0     C14579   5.311   5.451  11.532 -0.1262 -0.3755 -0.5822
  831MOL0     C14580   5.353   5.408  11.674 -0.3342 -0.1266  0.4125
  831MOL0     C14581   5.376   5.528  11.776 -0.1992 -0.1084  0.4612
  831MOL0     C14582   5.503   5.610  11.751  0.0726 -0.2947  0.5875
  831MOL0     C14583   5.630   5.541  11.788  0.0696  0.3245 -0.4359
  831MOL0     C14584   5.721   5.643  11.850  0.4568 -0.1429  0.1068
  831MOL0    Cl14585   5.878   5.566  11.888 -0.2684  0.0161 -0.0331
  831MOL0     C14586   4.851   5.273  11.398 -0.3264 -0.5101 -0.2938
  831MOL0     C14587   4.709   5.271  11.394  0.9109 -1.1947 -1.1171
  831MOL0     O14588   4.479   5.544  11.192  0.2485  0.6386  0.7633
  831MOL0     C14589   4.215   5.405  11.376 -0.5685  0.6109 -0.0504
  831MOL0     C14590   4.076   5.411  11.385  0.1248  0.8524  1.3318
  831MOL0     N14591   3.677   5.380  10.775  1.4376  0.1092  0.2118
  831MOL0     N14592   3.594   5.345  10.685  0.3523  0.4302 -0.1158
  831MOL0     C14593   2.344   5.516  10.435  0.1646  0.3085  0.3263
  831MOL0     C14594   2.227   5.587  10.394  0.0040  0.1538  0.3033
  831MOL0     C14595   1.879   5.783  10.326 -0.4289  0.3523 -0.3705
  831MOL0     C14596   1.769   5.718  10.384 -0.0762  0.7518 -0.7379
  831MOL0     C14597   1.670   5.785  10.460  0.2785 -0.4394 -0.2429
  831MOL0     C14598   1.661   5.923  10.447 -0.9643  0.3296  0.7480
  831MOL0     O14599   1.558   5.985  10.521 -0.1729 -0.3400 -0.5405
  831MOL0     C14600   1.549   6.131  10.528 -0.5373  0.8666  0.2463
  831MOL0     C14601   1.635   6.178  10.645 -0.6591  0.5099 -0.4751
  831MOL0     C14602   1.619   6.095  10.772 -1.0661 -0.1572  0.4435
  831MOL0     C14603   1.724   6.143  10.880 -0.5903  0.7666  0.6665
  831MOL0     C14604   1.697   6.109  11.024  0.3104 -0.2538 -0.0025
  831MOL0     C14605   1.662   6.082  11.139  0.2986  0.3389  0.5048
  831MOL0     C14606   1.762   5.999  10.384  0.1010 -0.2206 -0.1279
  831MOL0     C14607   1.875   5.928  10.338 -0.0406 -0.1547  0.4437
  831MOL0     C14608   1.996   6.004  10.307 -0.9089 -0.1612 -0.1466
  831MOL0     H14609   2.047   5.331  10.283 -0.6469  0.1508  1.3791
  831MOL0     H14610   2.258   5.205  10.337 -3.1141 -1.3583 -0.0422
  831MOL0     H14611   2.580   5.449  10.542  2.2525 -0.7829  1.3552
  831MOL0     H14612   2.624   5.433  10.376 -3.1073  0.7013 -0.5052
  831MOL0     H14613   2.654   5.227  10.605 -0.3700 -0.2429 -0.7497
  831MOL0     H14614   2.688   5.192  10.436 -0.6855  1.2290 -0.1574
  831MOL0     H14615   2.868   5.371  10.430  0.0016  1.2969 -0.0008
  831MOL0     H14616   2.867   5.379  10.609  0.7832 -1.7773  0.3377
  831MOL0     H14617   2.872   5.111  10.601  2.0322 -1.2165  0.1399
  831MOL0     H14618   2.940   5.142  10.440  0.7705 -4.0161  0.9140
  831MOL0     H14619   3.110   5.134  10.624  0.0039 -0.1960 -0.6407
  831MOL0     H14620   3.024   5.254  10.710 -0.0400  3.3915 -1.2299
  831MOL0     H14621   3.180   5.286  10.450  1.9727  1.8608 -0.8150
  831MOL0     H14622   3.072   5.415  10.518 -0.1670  0.3088  3.2413
  831MOL0     H14623   3.228   5.427  10.726 -0.4479  0.1256 -1.0297
  831MOL0     H14624   3.298   5.455  10.562  0.4842 -0.9958 -1.6283
  831MOL0     H14625   3.301   5.195  10.719  0.0869 -0.4151 -0.2059
  831MOL0     H14626   3.394   5.217  10.576 -1.8912 -0.7640 -0.5084
  831MOL0     H14627   3.378   5.397  10.914 -0.2514  2.8217 -0.1525
  831MOL0     H14628   3.606   5.577  11.005 -0.9022 -1.9943 -1.2188
  831MOL0     H14629   3.762   5.501  11.000 -0.0717  0.5456 -0.2327
  831MOL0     H14630   3.526   5.357  11.133 -1.1827  2.3472 -0.8984
  831MOL0     H14631   3.703   5.334  11.142 -1.4853 -0.8502 -2.6482
  831MOL0     H14632   3.543   5.572  11.238  0.6319 -0.5772  0.6044
  831MOL0     H14633   3.603   5.449  11.353  0.0214  1.5986  1.5736
  831MOL0     H14634   3.794   5.630  11.206 -2.5277 -0.2148 -1.3066
  831MOL0     H14635   3.741   5.624  11.374 -0.0626  1.4951  0.1980
  831MOL0     H14636   3.985   5.591  11.119 -1.3447 -0.9712 -0.8466
  831MOL0     H14637   4.182   5.573  10.949 -1.9280 -0.9068  0.5406
  831MOL0     H14638   4.333   5.526  11.013 -0.6659 -0.3003 -1.5045
  831MOL0     H14639   4.286   5.686  11.051  0.3552 -0.9981  2.0181
  831MOL0     H14640   4.671   5.592  11.298  0.3267 -0.4778 -2.0410
  831MOL0     H14641   4.891   5.594  11.303  1.7496  0.2207  0.6382
  831MOL0     H14642   5.104   5.271  11.535  0.9843  3.3305 -0.1137
  831MOL0     H14643   5.118   5.194  11.367 -2.0943 -1.1634  0.3555
  831MOL0     H14644   5.344   5.249  11.460 -0.3935 -0.0727  1.0211
  831MOL0     H14645   5.301   5.373  11.342 -3.0018  0.7092 -0.3358
  831MOL0     H14646   5.236   5.530  11.537  0.0181 -0.2382 -0.5752
  831MOL0     H14647   5.404   5.493  11.492 -0.4107 -0.3218 -1.1984
  831MOL0     H14648   5.439   5.341  11.662  0.4743  0.8062  0.8707
  831MOL0     H14649   5.275   5.347  11.720 -1.0850 -0.2973 -1.0316
  831MOL0     H14650   5.287   5.592  11.767  0.9904  1.6076  0.2855
  831MOL0     H14651   5.374   5.495  11.880 -0.2938  1.7332  1.0927
  831MOL0     H14652   5.499   5.702  11.811  1.8023 -0.4944  1.0531
  831MOL0     H14653   5.494   5.648  11.649 -0.6684 -0.6147  0.5276
  831MOL0     H14654   5.681   5.499  11.701 -1.7012  0.2502 -1.5089
  831MOL0     H14655   5.604   5.469  11.867 -2.0613  1.8789  0.3729
  831MOL0     H14656   5.682   5.682  11.945  0.2951 -0.3514  0.1246
  831MOL0     H14657   5.728   5.729  11.782  1.2917  0.1147  0.4971
  831MOL0     H14658   4.909   5.180  11.405  1.4511  0.6097  0.8471
  831MOL0     H14659   4.643   5.189  11.420 -0.9654  0.5946  0.0431
  831MOL0     H14660   4.284   5.364  11.450  1.5058  1.3485 -1.4855
  831MOL0     H14661   4.028   5.355  11.465 -0.8959  0.7401  0.6553
  831MOL0     H14662   2.430   5.572  10.471  1.4453 -0.8007 -0.8825
  831MOL0     H14663   2.226   5.695  10.396 -0.7030  0.1919 -1.0756
  831MOL0     H14664   1.762   5.610  10.393 -1.0368  1.0035  4.5126
  831MOL0     H14665   1.596   5.724  10.510 -1.5950  0.9781 -1.1249
  831MOL0     H14666   1.591   6.179  10.439  1.1512  2.2252  1.7133
  831MOL0     H14667   1.445   6.165  10.537 -0.5508  1.0682 -0.5749
  831MOL0     H14668   1.617   6.284  10.664  0.2662  0.2202  2.5676
  831MOL0     H14669   1.741   6.166  10.620 -0.5295 -1.8991  0.9371
  831MOL0     H14670   1.513   6.100  10.801 -1.1145  3.9847  0.1157
  831MOL0     H14671   1.644   5.992  10.745 -2.5330 -0.2722 -0.6403
  831MOL0     H14672   1.715   6.252  10.878  1.1016  0.9814 -2.5464
  831MOL0     H14673   1.827   6.117  10.852 -0.4828  0.6051  1.2009
  831MOL0     H14674   1.648   6.050  11.240 -0.5442 -0.5513  0.1290
  831MOL0     H14675   1.775   6.106  10.382 -4.1382  0.4885  0.9970
  831MOL0     H14676   1.975   6.111  10.304 -3.6237 -0.4794  2.5259
  831MOL0     H14677   2.072   5.989  10.385  0.0259  0.0725 -0.9945
  831MOL0     H14678   2.040   5.987  10.208  0.5219 -0.3781  0.4983
  832MOL0     O14679   6.771  10.463   5.265  0.0873 -0.0309  0.4203
  832MOL0     C14680   6.778  10.343   5.292 -0.8014 -0.3444 -0.2362
  832MOL0     O14681   6.897  10.284   5.338 -0.2360  0.6583 -0.1041
  832MOL0     C14682   6.994  10.355   5.407  0.0833  0.2159 -0.9783
  832MOL0     C14683   6.969  10.379   5.542  0.0553 -0.7522  0.1331
  832MOL0     C14684   7.062  10.465   5.612 -0.1268 -0.9767  0.7436
  832MOL0     C14685   7.171  10.520   5.542  0.2867 -0.7118 -0.7810
  832MOL0     O14686   7.249  10.609   5.619 -0.2809 -0.0367  0.1897
  832MOL0     C14687   7.373  10.669   5.561 -0.5674  0.0886 -0.2291
  832MOL0     C14688   7.430  10.778   5.654  0.3779  0.6545  0.5338
  832MOL0     C14689   7.571  10.828   5.600 -0.1746  0.4046 -0.1764
  832MOL0     C14690   7.674  10.735   5.656  0.5619  0.6000 -0.0679
  832MOL0     C14691   7.814  10.788   5.670 -0.2672 -0.5407  0.3657
  832MOL0     C14692   7.869  10.826   5.531 -0.0291 -0.3239  0.1404
  832MOL0     C14693   8.018  10.875   5.531 -0.2399 -0.6168  0.0643
  832MOL0     C14694   8.053  10.890   5.389 -0.3910  0.0349  0.2800
  832MOL0     N14695   8.192  10.936   5.362 -0.1507 -0.0328  0.3945
  832MOL0     C14696   8.231  11.067   5.376 -0.8742  0.1256 -0.6819
  832MOL0     C14697   8.356  11.063   5.320 -1.0487 -0.3030 -0.8047
  832MOL0     C14698   8.456  11.175   5.337  0.2643 -0.5259 -0.2275
  832MOL0     C14699   8.483  11.218   5.481 -0.4143 -0.4723 -0.2570
  832MOL0     C14700   8.537  11.109   5.582 -0.3459  0.1785  0.1022
  832MOL0     C14701   8.668  11.048   5.545 -0.4523 -0.0821 -0.4361
  832MOL0     O14702   8.765  11.143   5.556  0.2372 -0.5271  0.1469
  832MOL0     C14703   8.895  11.118   5.534 -0.2569 -0.3099 -0.9737
  832MOL0     C14704   8.952  11.007   5.473  0.3213  0.0436  0.7746
  832MOL0     C14705   9.083  11.007   5.436  0.0980 -0.2856  0.5328
  832MOL0     C14706   9.128  10.898   5.343 -0.9474  0.3762 -0.1114
  832MOL0     C14707   9.165  11.114   5.472  0.0835 -0.8505 -0.5744
  832MOL0     C14708   9.312  11.119   5.450 -0.7511  0.4448 -0.0870
  832MOL0     O14709   9.377  11.242   5.477  0.5923 -0.1190  0.3835
  832MOL0     C14710   9.503  11.229   5.527 -0.8575  0.5672 -0.0552
  832MOL0     C14711   9.615  11.200   5.442 -0.1177 -0.0234  0.1232
  832MOL0     C14712   9.745  11.190   5.496 -0.4933  0.3695  0.1264
  832MOL0     C14713   9.773  11.204   5.635 -0.2868  0.3097  0.3013
  832MOL0     O14714   9.910  11.189   5.670  0.4172  0.2049  0.5909
  832MOL0     C14715   9.942  11.183   5.810 -0.7733 -0.2153  0.4119
  832MOL0     C14716  10.099  11.158   5.813 -0.8465 -0.5521  0.6545
  832MOL0     C14717  10.155  11.043   5.730 -0.7646 -0.2218  0.1467
  832MOL0     C14718  10.112  10.915   5.792  0.6895  0.2328  0.2096
  832MOL0     C14719  10.164  10.798   5.715 -0.1061 -0.0367 -0.1311
  832MOL0     C14720  10.126  10.788   5.565 -0.4346 -0.0647 -0.1326
  832MOL0     C14721   9.976  10.751   5.548  0.9757  0.0752 -0.8624
  832MOL0     C14722   9.948  10.754   5.401 -0.7417 -1.0872 -0.0016
  832MOL0    Cl14723   9.772  10.758   5.364 -0.0967  0.2128  0.1002
  832MOL0     C14724   9.660  11.230   5.714 -0.1662 -0.3768 -0.9115
  832MOL0     C14725   9.526  11.240   5.664  0.3654  0.3154 -0.1242
  832MOL0     O14726   9.375  11.012   5.437 -0.2576  0.0723 -0.2154
  832MOL0     C14727   9.107  11.224   5.550  0.0568 -0.0311  0.8600
  832MOL0     C14728   8.976  11.223   5.583 -0.8540  0.1052  0.5461
  832MOL0     N14729   8.387  10.942   5.268  0.2651 -0.1428  0.3064
  832MOL0     N14730   8.280  10.869   5.281  0.1620 -0.4190  0.1505
  832MOL0     C14731   7.202  10.481   5.410  0.3657  0.5069 -0.3017
  832MOL0     C14732   7.105  10.398   5.346  0.4607 -0.8252  0.0123
  832MOL0     C14733   6.664  10.253   5.261 -0.3196  0.2346  1.0253
  832MOL0     C14734   6.567  10.311   5.182 -0.2102  0.0035 -0.4700
  832MOL0     C14735   6.457  10.235   5.146  0.5534 -0.1652  0.2865
  832MOL0     C14736   6.436  10.102   5.186  0.1681 -0.7617 -0.1098
  832MOL0     O14737   6.318  10.029   5.184 -0.3806  0.0080  0.3681
  832MOL0     C14738   6.200  10.108   5.198  0.3286 -0.1668  0.6446
  832MOL0     C14739   6.083  10.013   5.212 -0.7084 -1.1223  0.1929
  832MOL0     C14740   6.047   9.979   5.359  0.0536 -0.4880  0.0482
  832MOL0     C14741   6.080   9.846   5.420 -0.3189  0.8475 -0.5700
  832MOL0     C14742   6.224   9.831   5.438 -0.8713  0.8365 -0.2715
  832MOL0     C14743   6.345   9.839   5.444  0.0492 -0.0054  0.2524
  832MOL0     C14744   6.546  10.046   5.258  0.0664 -0.1948  0.7563
  832MOL0     C14745   6.666  10.115   5.286  0.7054 -0.4625  0.2610
  832MOL0     C14746   6.768  10.040   5.358  0.4872  0.3345 -0.2206
  832MOL0     H14747   6.876  10.357   5.593 -0.0598 -0.4519  0.0545
  832MOL0     H14748   7.051  10.481   5.719 -3.6901 -0.2565  0.3955
  832MOL0     H14749   7.352  10.705   5.460 -0.1890 -0.0217 -0.3498
  832MOL0     H14750   7.450  10.592   5.552  0.5162  1.3015 -1.9419
  832MOL0     H14751   7.354  10.857   5.655 -1.4534 -1.0310  1.5902
  832MOL0     H14752   7.428  10.738   5.756  2.1511  1.0927  0.7648
  832MOL0     H14753   7.587  10.823   5.492  2.6167  0.5381  0.1746
  832MOL0     H14754   7.585  10.930   5.637  2.0387  0.2753 -0.5774
  832MOL0     H14755   7.655  10.693   5.756  0.5945 -3.7746 -1.6816
  832MOL0     H14756   7.675  10.649   5.588  0.1276 -1.2898  2.1551
  832MOL0     H14757   7.872  10.708   5.717 -0.5108 -1.5374 -0.9523
  832MOL0     H14758   7.812  10.875   5.736  5.0143  0.3014 -0.1696
  832MOL0     H14759   7.864  10.732   5.474  2.2226 -0.8938  0.7905
  832MOL0     H14760   7.809  10.905   5.485  0.5095 -0.4238 -0.7709
  832MOL0     H14761   8.083  10.810   5.590 -0.2537 -0.7995 -0.1204
  832MOL0     H14762   8.016  10.974   5.577  0.8116 -0.4133 -0.3083
  832MOL0     H14763   8.052  10.794   5.338  1.1050  0.1568 -0.0115
  832MOL0     H14764   7.982  10.955   5.338  0.8034 -0.0186 -1.5397
  832MOL0     H14765   8.192  11.158   5.420  1.0441  1.5329 -1.7617
  832MOL0     H14766   8.434  11.258   5.268 -2.2205 -2.1591 -1.5675
  832MOL0     H14767   8.550  11.135   5.297 -0.0801  0.3135 -1.9835
  832MOL0     H14768   8.556  11.298   5.464 -0.8613  0.0908  0.4337
  832MOL0     H14769   8.388  11.262   5.513  0.0281 -0.6653  1.3748
  832MOL0     H14770   8.552  11.155   5.680  2.1108  1.7675 -0.9137
  832MOL0     H14771   8.462  11.030   5.589  0.8718 -0.9970  0.2318
  832MOL0     H14772   8.692  10.968   5.616  2.9207 -0.1707 -1.4998
  832MOL0     H14773   8.672  11.010   5.443  0.9666  1.4815 -1.0165
  832MOL0     H14774   8.883  10.931   5.436 -1.5915  0.9846  2.1895
  832MOL0     H14775   9.176  10.933   5.251 -1.9248 -0.5768 -1.0115
  832MOL0     H14776   9.043  10.837   5.312 -0.3370 -1.3391  1.3916
  832MOL0     H14777   9.198  10.837   5.401  1.7437  2.0160 -1.4049
  832MOL0     H14778   9.588  11.180   5.339 -1.1837  0.3053  0.3193
  832MOL0     H14779   9.829  11.172   5.429 -1.0070  2.2627 -1.1139
  832MOL0     H14780   9.917  11.282   5.849 -0.3264  0.2144 -0.3734
  832MOL0     H14781   9.891  11.104   5.866  2.8980 -2.4728  0.8934
  832MOL0     H14782  10.147  11.244   5.767  0.2554 -0.9818  0.9717
  832MOL0     H14783  10.129  11.168   5.918  0.8455  1.9108  0.0091
  832MOL0     H14784  10.264  11.049   5.723 -0.7940  0.4858  0.1813
  832MOL0     H14785  10.113  11.045   5.629  0.5668  2.6863 -0.4750
  832MOL0     H14786  10.003  10.922   5.793  0.2839 -3.8358 -0.0493
  832MOL0     H14787  10.154  10.903   5.892  1.7414 -1.7739 -0.4190
  832MOL0     H14788  10.271  10.821   5.716 -0.3163  1.1725 -1.4192
  832MOL0     H14789  10.140  10.703   5.764 -0.3302  0.3471  0.5111
  832MOL0     H14790  10.189  10.719   5.508 -2.5853 -3.5158  1.3675
  832MOL0     H14791  10.129  10.889   5.522  0.2360  0.2100  0.5227
  832MOL0     H14792   9.906  10.820   5.595  1.9743 -0.4585  1.5399
  832MOL0     H14793   9.951  10.649   5.576 -0.4858  0.3323 -1.1729
  832MOL0     H14794   9.994  10.664   5.358  2.5533  0.9633 -1.1009
  832MOL0     H14795   9.992  10.844   5.357 -0.9931 -0.1344  1.6369
  832MOL0     H14796   9.680  11.237   5.821 -1.4133  5.5885 -0.6941
  832MOL0     H14797   9.441  11.240   5.732 -0.4847 -0.3175 -1.1488
  832MOL0     H14798   9.175  11.302   5.581  0.9750 -0.0954 -0.8487
  832MOL0     H14799   8.916  11.299   5.632 -0.9332  2.7934 -3.2230
  832MOL0     H14800   7.293  10.510   5.360 -0.9022  0.8046 -2.5445
  832MOL0     H14801   7.112  10.380   5.240  1.2452 -1.1794  0.1181
  832MOL0     H14802   6.572  10.411   5.138 -3.1351  0.1536 -0.6329
  832MOL0     H14803   6.378  10.272   5.080  3.0902 -0.4209 -3.1765
  832MOL0     H14804   6.218  10.177   5.281  0.5058  1.7419 -0.9157
  832MOL0     H14805   6.193  10.171   5.109  2.6854  0.1676  0.6443
  832MOL0     H14806   6.098   9.923   5.150 -1.8329 -0.8624 -0.4914
  832MOL0     H14807   6.003  10.069   5.163  0.5767 -0.2702 -1.0235
  832MOL0     H14808   6.082  10.056   5.428 -2.4329 -0.5862  1.5256
  832MOL0     H14809   5.938   9.971   5.359  0.0378 -0.8346 -2.3617
  832MOL0     H14810   6.037   9.765   5.360  0.1241  1.0611 -1.1858
  832MOL0     H14811   6.044   9.841   5.523  1.5360  0.2575  0.1047
  832MOL0     H14812   6.451   9.838   5.460 -0.0038  0.1153  0.6126
  832MOL0     H14813   6.525   9.942   5.282  1.0892  0.2508  4.1217
  832MOL0     H14814   6.865  10.065   5.314  1.4772 -0.8530  1.1916
  832MOL0     H14815   6.771  10.079   5.460  2.8722 -1.6666  0.5603
  832MOL0     H14816   6.750   9.933   5.349 -1.2895  0.3863  1.7824
  833MOL0     O14817   8.799   3.869   5.646 -0.2973 -0.3298  0.3579
  833MOL0     C14818   8.815   3.805   5.542  0.2628 -0.8427 -0.1653
  833MOL0     O14819   8.918   3.734   5.503  0.0676  0.3540  0.2093
  833MOL0     C14820   9.041   3.763   5.540 -0.2740  0.2367  0.4867
  833MOL0     C14821   9.129   3.783   5.434  0.2207  0.4071  0.3943
  833MOL0     C14822   9.263   3.818   5.454 -0.9368 -0.7872 -0.8975
  833MOL0     C14823   9.313   3.839   5.581 -0.3227 -0.1458 -0.0914
  833MOL0     O14824   9.441   3.878   5.605 -0.4488 -0.1733 -0.1504
  833MOL0     C14825   9.549   3.790   5.550  0.1924  0.6313 -0.6662
  833MOL0     C14826   9.656   3.763   5.664  0.9450  0.6607  0.7408
  833MOL0     C14827   9.757   3.869   5.672 -0.0082  0.5274  0.1347
  833MOL0     C14828   9.843   3.872   5.802 -0.2751 -0.4198  0.5016
  833MOL0     C14829   9.916   3.749   5.828  0.0601 -0.5229 -0.7667
  833MOL0     C14830  10.013   3.752   5.950  0.2012  0.3792  0.6791
  833MOL0     C14831   9.946   3.698   6.082 -0.2966 -0.1196 -0.3513
  833MOL0     C14832   9.927   3.547   6.084 -0.1888  0.1772 -0.2230
  833MOL0     N14833   9.941   3.501   6.224  0.5001 -0.0173  0.1661
  833MOL0     C14834  10.058   3.516   6.295  0.8410 -0.1854 -0.6039
  833MOL0     C14835  10.028   3.488   6.423 -0.4201 -0.0786 -0.1779
  833MOL0     C14836  10.134   3.500   6.536  0.4687 -0.6236 -0.0308
  833MOL0     C14837  10.252   3.402   6.519 -0.0688  0.1323  1.0828
  833MOL0     C14838  10.350   3.430   6.636  0.8675 -0.6008  0.4554
  833MOL0     C14839  10.434   3.303   6.654 -0.5478 -0.7300 -0.3443
  833MOL0     O14840  10.526   3.321   6.766  0.3122 -0.1054 -0.1864
  833MOL0     C14841  10.654   3.361   6.736  0.0652 -0.3674 -0.2918
  833MOL0     C14842  10.751   3.345   6.838 -0.0572  0.2393  0.3346
  833MOL0     C14843  10.886   3.382   6.827  0.7613 -0.8332  0.1241
  833MOL0     C14844  10.988   3.346   6.937 -0.7359 -0.1908  0.2836
  833MOL0     C14845  10.930   3.441   6.705  0.1486  0.0040  0.4765
  833MOL0     C14846  11.070   3.497   6.694 -0.7836  0.5673 -0.0625
  833MOL0     O14847  11.112   3.575   6.797  0.1971 -0.6177  0.3668
  833MOL0     C14848  11.241   3.614   6.802 -0.0990 -0.2929  0.5437
  833MOL0     C14849  11.305   3.687   6.697  0.0203  1.3138  0.1939
  833MOL0     C14850  11.430   3.739   6.709  0.5915 -0.5205  0.9215
  833MOL0     C14851  11.515   3.695   6.802  0.2921 -0.1230 -0.5695
  833MOL0     O14852  11.648   3.734   6.806 -0.6388 -0.3016  0.1102
  833MOL0     C14853  11.697   3.783   6.932  0.1199  0.4701  0.6085
  833MOL0     C14854  11.792   3.682   7.005  1.0159  0.6936 -0.7627
  833MOL0     C14855  11.941   3.684   6.981  0.4116 -0.8849 -0.0756
  833MOL0     C14856  11.996   3.575   7.073 -0.4276 -0.1198  0.6222
  833MOL0     C14857  12.155   3.550   7.053 -0.6933  0.2817  0.3880
  833MOL0     C14858  12.212   3.435   7.141 -0.5612 -1.1713 -0.1909
  833MOL0     C14859  12.337   3.371   7.081 -0.6109 -0.1501 -0.2617
  833MOL0     C14860  12.408   3.301   7.188 -0.1159  0.4759 -0.4650
  833MOL0    Cl14861  12.530   3.201   7.121 -0.3848  0.4596  0.1541
  833MOL0     C14862  11.458   3.606   6.901 -0.6798 -1.1686 -0.1560
  833MOL0     C14863  11.323   3.574   6.908 -0.5079 -0.0052  0.6315
  833MOL0     O14864  11.146   3.473   6.598  0.1400  0.3467  0.4338
  833MOL0     C14865  10.841   3.446   6.593 -0.3042  0.0332 -0.2875
  833MOL0     C14866  10.700   3.416   6.616  0.3717 -0.3666  0.1971
  833MOL0     N14867   9.894   3.462   6.431  0.4176  1.2167 -0.6189
  833MOL0     N14868   9.841   3.468   6.308 -0.1417 -0.6158 -0.0227
  833MOL0     C14869   9.223   3.825   5.684  0.3371 -0.1097  0.5351
  833MOL0     C14870   9.088   3.788   5.671  0.5745  0.1095  0.0873
  833MOL0     C14871   8.702   3.763   5.454  0.2286  0.6325  0.2137
  833MOL0     C14872   8.714   3.701   5.330 -0.2080 -0.3451  0.3695
  833MOL0     C14873   8.607   3.680   5.245  0.6382 -0.1076  0.0785
  833MOL0     C14874   8.479   3.699   5.295 -0.8259  0.3284  0.4089
  833MOL0     O14875   8.388   3.640   5.207 -0.1958 -0.5885 -0.2976
  833MOL0     C14876   8.260   3.624   5.271  1.0073  0.2582  0.1148
  833MOL0     C14877   8.161   3.600   5.152  0.0520 -0.2546  0.0090
  833MOL0     C14878   8.016   3.608   5.196 -0.2647  0.5195 -0.3195
  833MOL0     C14879   7.932   3.627   5.068  1.2239 -0.5198 -0.4462
  833MOL0     C14880   7.800   3.679   5.096  0.8693  0.1563  0.3716
  833MOL0     C14881   7.704   3.749   5.105 -0.1796 -0.7268  0.6354
  833MOL0     C14882   8.460   3.755   5.426 -0.1214  0.8135  0.6514
  833MOL0     C14883   8.572   3.799   5.497  0.4196 -0.2196 -0.3239
  833MOL0     C14884   8.529   3.873   5.617 -0.5695  0.2533  0.2203
  833MOL0     H14885   9.097   3.771   5.331  0.1025 -0.1568  0.4937
  833MOL0     H14886   9.325   3.847   5.371  0.7211  0.3961  0.6942
  833MOL0     H14887   9.593   3.847   5.467  2.0071  0.1302 -0.0973
  833MOL0     H14888   9.513   3.695   5.509  0.6371  0.5013 -0.7683
  833MOL0     H14889   9.604   3.756   5.760 -1.4881  0.6479 -0.5126
  833MOL0     H14890   9.711   3.671   5.641  2.5175  1.9373 -0.9048
  833MOL0     H14891   9.828   3.843   5.592  2.6813  1.3134  2.1293
  833MOL0     H14892   9.707   3.965   5.655 -0.0170  1.4521  4.4495
  833MOL0     H14893   9.907   3.960   5.800 -0.3675 -0.0964  4.6311
  833MOL0     H14894   9.772   3.905   5.878  0.8444  3.2322  0.1275
  833MOL0     H14895   9.976   3.724   5.739  0.7231  2.2304 -1.1792
  833MOL0     H14896   9.846   3.668   5.850  0.1729 -0.3061  0.4671
  833MOL0     H14897  10.101   3.692   5.924 -1.8924 -1.4031 -3.2112
  833MOL0     H14898  10.049   3.854   5.966 -0.8356  0.5480  2.2182
  833MOL0     H14899   9.850   3.749   6.096  0.5904  1.6252 -0.3263
  833MOL0     H14900  10.016   3.723   6.162 -1.1927 -0.1765  0.4668
  833MOL0     H14901   9.823   3.527   6.055 -0.1796 -1.9052  0.9906
  833MOL0     H14902   9.996   3.493   6.018 -1.6908 -1.9924 -0.1471
  833MOL0     H14903  10.155   3.545   6.255  0.0718  1.7847 -1.1906
  833MOL0     H14904  10.082   3.482   6.631  0.6136 -1.2301 -0.0665
  833MOL0     H14905  10.162   3.606   6.543 -0.8303 -0.1917 -0.9901
  833MOL0     H14906  10.225   3.296   6.515  2.1004 -0.5082  1.7663
  833MOL0     H14907  10.304   3.418   6.424 -1.2215 -2.2838 -0.0470
  833MOL0     H14908  10.408   3.517   6.605  0.8643 -0.3507  1.1342
  833MOL0     H14909  10.306   3.454   6.733 -0.1821  3.3299 -0.8160
  833MOL0     H14910  10.375   3.211   6.660 -1.8360  0.0045 -1.2359
  833MOL0     H14911  10.491   3.288   6.562 -0.3855  3.1672 -1.0294
  833MOL0     H14912  10.726   3.290   6.928 -0.2893  1.1785  0.8532
  833MOL0     H14913  11.091   3.346   6.900 -1.1231 -4.5203 -1.3734
  833MOL0     H14914  10.963   3.245   6.971  0.7609  0.2869  3.1237
  833MOL0     H14915  10.989   3.409   7.026  3.5307  2.6124 -1.4183
  833MOL0     H14916  11.248   3.698   6.605 -2.6461 -3.4952  0.9229
  833MOL0     H14917  11.467   3.817   6.643  2.0620 -1.1774  0.9270
  833MOL0     H14918  11.759   3.873   6.931  0.0513  0.5813 -2.5339
  833MOL0     H14919  11.613   3.811   6.996  0.3862  1.2110  0.6363
  833MOL0     H14920  11.766   3.700   7.109 -4.9059  0.9078 -1.9448
  833MOL0     H14921  11.752   3.580   6.993  1.1734  0.5284  0.0552
  833MOL0     H14922  11.980   3.785   6.997 -2.9430  0.7541 -1.2065
  833MOL0     H14923  11.966   3.668   6.876  1.4960  1.6276 -0.2880
  833MOL0     H14924  11.941   3.482   7.056  1.4631 -1.6575  2.3959
  833MOL0     H14925  11.997   3.595   7.180  2.1149 -2.7533  1.2347
  833MOL0     H14926  12.162   3.505   6.954  0.3668 -0.4843  0.7938
  833MOL0     H14927  12.217   3.639   7.069  1.2983 -1.0740  0.5090
  833MOL0     H14928  12.136   3.359   7.161 -0.5711 -1.0661  0.1705
  833MOL0     H14929  12.229   3.466   7.244 -1.8176  3.2757 -1.0942
  833MOL0     H14930  12.407   3.446   7.042 -2.2003  1.4299 -0.2336
  833MOL0     H14931  12.304   3.304   7.001 -1.7417  4.1876 -3.8631
  833MOL0     H14932  12.332   3.241   7.239  1.9918  0.9569  3.6626
  833MOL0     H14933  12.453   3.378   7.251  3.7682 -0.8808 -1.2636
  833MOL0     H14934  11.525   3.554   6.968 -0.0648 -0.5318 -0.2554
  833MOL0     H14935  11.283   3.504   6.981  0.6687 -2.2933 -0.8229
  833MOL0     H14936  10.887   3.486   6.503  0.9252  4.0503  1.8866
  833MOL0     H14937  10.640   3.441   6.530  0.3676  0.7187  0.5018
  833MOL0     H14938   9.264   3.838   5.783  3.6316  1.0682 -0.8593
  833MOL0     H14939   9.013   3.781   5.749  0.2369 -1.7832 -0.3598
  833MOL0     H14940   8.814   3.681   5.292  1.6771 -0.5475  4.7637
  833MOL0     H14941   8.632   3.652   5.143 -0.4844  1.9799 -0.8405
  833MOL0     H14942   8.255   3.542   5.343  0.2844 -0.5016 -0.7716
  833MOL0     H14943   8.210   3.710   5.318 -3.1949 -2.4054  1.1380
  833MOL0     H14944   8.174   3.500   5.110 -2.8020 -1.2154  1.1568
  833MOL0     H14945   8.180   3.678   5.077 -0.1245 -0.3768 -0.1644
  833MOL0     H14946   7.987   3.522   5.257 -2.2915  2.2389  1.3180
  833MOL0     H14947   8.004   3.700   5.254 -0.0408  1.4642 -1.7194
  833MOL0     H14948   7.921   3.534   5.011 -2.0775 -0.7232  0.3306
  833MOL0     H14949   7.972   3.703   5.000 -1.0858  1.5855  0.4237
  833MOL0     H14950   7.619   3.814   5.109  2.1110  2.9249 -2.8841
  833MOL0     H14951   8.355   3.767   5.452 -1.0914 -0.3051 -2.2967
  833MOL0     H14952   8.574   3.824   5.704 -2.6480 -0.4137  0.9990
  833MOL0     H14953   8.574   3.972   5.618  1.7643 -0.7000 -1.7035
  833MOL0     H14954   8.420   3.880   5.618 -0.6105 -0.3557  1.0815
  834MOL0     O14955   6.324   9.992   9.723 -0.2094 -0.3984 -0.1777
  834MOL0     C14956   6.236  10.068   9.679 -0.7942  0.0255  0.4107
  834MOL0     O14957   6.237  10.122   9.550  0.5710 -0.4663  0.7665
  834MOL0     C14958   6.335  10.092   9.458 -0.0505  0.1756 -0.0362
  834MOL0     C14959   6.469  10.054   9.479  0.0063 -0.3482 -0.2354
  834MOL0     C14960   6.543  10.005   9.373  0.7065  0.1234  0.4010
  834MOL0     C14961   6.487   9.980   9.246  0.4985  0.0102  0.1058
  834MOL0     O14962   6.546   9.919   9.142  0.4458 -0.3294 -0.0956
  834MOL0     C14963   6.680   9.878   9.153  0.2485 -0.4460  0.6733
  834MOL0     C14964   6.727   9.849   9.005 -0.1970 -0.4575 -0.0653
  834MOL0     C14965   6.864   9.782   8.997 -0.1954  0.1669  0.3163
  834MOL0     C14966   6.892   9.711   8.862  0.2557  0.5186 -1.0088
  834MOL0     C14967   6.945   9.795   8.750 -1.1001 -0.2254 -0.2121
  834MOL0     C14968   7.100   9.815   8.759  0.1940  0.1100 -0.0540
  834MOL0     C14969   7.154   9.899   8.644  0.5842 -0.6090 -0.7109
  834MOL0     C14970   7.309   9.922   8.643 -0.2561  0.2731 -0.0825
  834MOL0     N14971   7.381   9.951   8.768  0.2189 -0.2194 -0.2453
  834MOL0     C14972   7.407  10.086   8.808  0.3744 -0.9131 -0.9036
  834MOL0     C14973   7.481  10.074   8.917  0.3289  0.0215 -0.7954
  834MOL0     C14974   7.535  10.191   8.996 -0.0938  0.2274 -0.0841
  834MOL0     C14975   7.680  10.235   8.972  0.3303  0.2122  0.0982
  834MOL0     C14976   7.779  10.122   9.012  0.9231 -0.2745  0.4901
  834MOL0     C14977   7.919  10.174   9.031 -0.0755 -0.1821 -0.3204
  834MOL0     O14978   7.960  10.237   8.904  1.0607  0.4722 -0.1778
  834MOL0     C14979   8.073  10.314   8.905 -0.5420  1.1346 -0.3127
  834MOL0     C14980   8.098  10.379   8.787 -0.4277  0.2618 -0.0712
  834MOL0     C14981   8.218  10.454   8.777 -0.3708 -0.2766 -0.5078
  834MOL0     C14982   8.238  10.515   8.651 -0.8777  0.2748 -0.0640
  834MOL0     C14983   8.302  10.467   8.888  0.2254  0.4418 -0.6009
  834MOL0     C14984   8.424  10.556   8.892 -0.0965  1.0481  0.0521
  834MOL0     O14985   8.478  10.591   9.014  0.3795  1.1445 -1.2211
  834MOL0     C14986   8.525  10.719   9.023 -0.6644 -0.5948 -0.0331
  834MOL0     C14987   8.431  10.829   9.004  0.2286 -0.0354  0.0832
  834MOL0     C14988   8.470  10.957   9.011 -0.0207 -0.6429 -0.1602
  834MOL0     C14989   8.607  10.984   9.024 -0.5691 -0.2230 -0.1055
  834MOL0     O14990   8.649  11.113   9.027  0.2928  0.0038 -0.3036
  834MOL0     C14991   8.766  11.159   8.950 -0.0127 -0.6085  0.2479
  834MOL0     C14992   8.783  11.314   8.968 -0.5243  0.5480 -0.2246
  834MOL0     C14993   8.855  11.364   9.089  0.2363 -0.7524 -0.2026
  834MOL0     C14994   8.857  11.521   9.105 -0.6643  0.3116  0.4228
  834MOL0     C14995   8.986  11.563   9.172 -0.0141  0.4048 -0.1856
  834MOL0     C14996   9.117  11.552   9.091 -0.2134 -0.6536  0.4874
  834MOL0     C14997   9.120  11.642   8.970 -0.6688  0.6495 -0.5672
  834MOL0     C14998   9.259  11.669   8.902 -0.0438  0.2839 -0.3705
  834MOL0    Cl14999   9.229  11.786   8.776  0.0638 -0.2159  0.3528
  834MOL0     C15000   8.706  10.884   9.031 -0.6001 -0.0607 -0.7051
  834MOL0     C15001   8.663  10.750   9.036  0.2689 -0.5168  0.0673
  834MOL0     O15002   8.462  10.601   8.786 -0.1813 -0.2659  0.1041
  834MOL0     C15003   8.276  10.397   8.997  0.4897  0.9237  1.0240
  834MOL0     C15004   8.155  10.323   9.013 -0.0898  0.7469 -0.1420
  834MOL0     N15005   7.493   9.931   8.939  0.1807  0.3385  0.0779
  834MOL0     N15006   7.436   9.860   8.850  0.7521 -0.0196  0.4786
  834MOL0     C15007   6.358  10.029   9.230  0.5419 -0.1532  0.9426
  834MOL0     C15008   6.286  10.087   9.333  0.1211 -0.1774  0.1095
  834MOL0     C15009   6.119  10.116   9.761 -0.0205  0.1207 -0.1182
  834MOL0     C15010   5.988  10.130   9.702 -0.1628 -0.6216  0.2394
  834MOL0     C15011   5.877  10.151   9.777 -0.1686  0.5548  0.8692
  834MOL0     C15012   5.886  10.161   9.917  0.1714 -0.3443 -0.5029
  834MOL0     O15013   5.784  10.178  10.008  0.8087 -0.0265 -0.4462
  834MOL0     C15014   5.653  10.163   9.957  0.1106  0.6716  0.1643
  834MOL0     C15015   5.554  10.106  10.062 -0.8865 -0.3730 -0.6166
  834MOL0     C15016   5.427  10.059   9.994 -0.1180  0.5025  0.4067
  834MOL0     C15017   5.328  10.004  10.097 -0.3626  0.7747 -0.2745
  834MOL0     C15018   5.203   9.962  10.027  0.0482 -0.5484  0.1879
  834MOL0     C15019   5.094   9.926   9.978 -0.7551  0.0493  0.5879
  834MOL0     C15020   6.012  10.152   9.972  0.3582  0.9662  0.0975
  834MOL0     C15021   6.129  10.132   9.899 -0.3030 -1.6453  0.5305
  834MOL0     C15022   6.266  10.130   9.975  0.5013  0.7138  0.4324
  834MOL0     H15023   6.521  10.061   9.574 -0.6302 -0.0264  0.0934
  834MOL0     H15024   6.642   9.971   9.401 -0.1570 -2.0430  1.0202
  834MOL0     H15025   6.695   9.792   9.220 -1.5182 -0.8739  0.5775
  834MOL0     H15026   6.738   9.963   9.189 -0.9314 -0.1482  1.9854
  834MOL0     H15027   6.654   9.780   8.963  2.9912 -1.3051 -5.0401
  834MOL0     H15028   6.720   9.944   8.951  0.2955  0.2304  1.0410
  834MOL0     H15029   6.936   9.859   9.027 -0.5409  0.1593  1.2019
  834MOL0     H15030   6.872   9.705   9.075 -1.2353  1.1965  1.4920
  834MOL0     H15031   6.972   9.639   8.881  0.7849  0.9020 -1.7359
  834MOL0     H15032   6.804   9.652   8.836  0.9135 -1.2585  0.5212
  834MOL0     H15033   6.898   9.894   8.750 -1.9466 -0.5280  2.4385
  834MOL0     H15034   6.912   9.754   8.654 -0.1282  0.2607 -0.7579
  834MOL0     H15035   7.108   9.870   8.853 -4.4783  1.0148  0.0673
  834MOL0     H15036   7.145   9.716   8.773  0.0359 -0.2486 -1.7997
  834MOL0     H15037   7.106   9.997   8.654  3.9954  0.9350  3.9511
  834MOL0     H15038   7.125   9.853   8.549  0.2064 -1.2641 -0.2874
  834MOL0     H15039   7.362   9.841   8.591 -0.6876  0.9753 -1.6998
  834MOL0     H15040   7.320  10.013   8.582 -0.0676  1.0170  1.0251
  834MOL0     H15041   7.384  10.181   8.760  1.0548  0.5866  1.5898
  834MOL0     H15042   7.536  10.155   9.100  3.8527 -1.1884 -0.4399
  834MOL0     H15043   7.463  10.272   8.985 -1.3116 -1.1953 -4.6144
  834MOL0     H15044   7.695  10.278   8.873 -1.5515  1.0841  0.1565
  834MOL0     H15045   7.696  10.316   9.044  0.9399 -0.9409  1.3098
  834MOL0     H15046   7.750  10.065   9.100 -0.1775 -2.1973 -1.0320
  834MOL0     H15047   7.772  10.046   8.934 -2.9883 -0.6268  0.9850
  834MOL0     H15048   7.916  10.247   9.113  0.7362 -0.6563  0.1504
  834MOL0     H15049   7.994  10.097   9.052  1.6777  0.9711 -2.0174
  834MOL0     H15050   8.022  10.361   8.712  0.3937 -3.2561 -0.2001
  834MOL0     H15051   8.170  10.468   8.579 -0.9614  0.9877 -0.4661
  834MOL0     H15052   8.339  10.498   8.612 -1.0709 -0.0219 -0.4466
  834MOL0     H15053   8.221  10.622   8.669  2.2673  0.3265  3.9999
  834MOL0     H15054   8.325  10.809   8.992 -0.3105  1.0806  2.4867
  834MOL0     H15055   8.395  11.034   8.996 -0.3001 -1.2301 -2.0250
  834MOL0     H15056   8.854  11.103   8.983  1.0022  0.8087  0.0669
  834MOL0     H15057   8.761  11.141   8.842  2.3739 -0.4805  0.0594
  834MOL0     H15058   8.845  11.348   8.884  0.4047 -1.8158 -0.5535
  834MOL0     H15059   8.686  11.363   8.959  0.6247  2.5791 -2.9711
  834MOL0     H15060   8.958  11.332   9.074  0.3915 -1.1860  1.5748
  834MOL0     H15061   8.824  11.310   9.178  0.2116  0.3800  0.4950
  834MOL0     H15062   8.779  11.563   9.170 -0.0202  0.3683  1.1686
  834MOL0     H15063   8.849  11.577   9.012  0.5617 -1.9069 -1.0996
  834MOL0     H15064   8.975  11.666   9.204 -1.0518  0.7155 -1.4359
  834MOL0     H15065   9.000  11.510   9.267 -3.6576  1.5608  1.1708
  834MOL0     H15066   9.142  11.451   9.058  1.2584 -1.1167  2.7952
  834MOL0     H15067   9.200  11.565   9.161  2.3176 -2.1008 -2.0352
  834MOL0     H15068   9.091  11.744   8.999  1.6693  1.2082  0.0007
  834MOL0     H15069   9.050  11.603   8.895 -1.3075  1.6690 -0.5229
  834MOL0     H15070   9.303  11.579   8.859 -1.2694 -0.4824 -0.0764
  834MOL0     H15071   9.328  11.700   8.981 -0.7077 -1.5799  1.0297
  834MOL0     H15072   8.809  10.913   9.045 -1.4405  3.8133 -1.5276
  834MOL0     H15073   8.735  10.668   9.040 -0.2446 -1.1758 -2.5349
  834MOL0     H15074   8.346  10.394   9.081  0.1292 -2.1155  1.3504
  834MOL0     H15075   8.137  10.255   9.096 -0.6494 -0.7920 -1.4846
  834MOL0     H15076   6.304  10.015   9.137  3.0513  1.8917 -0.9668
  834MOL0     H15077   6.180  10.107   9.317 -0.4694 -0.6931  2.8720
  834MOL0     H15078   5.983  10.119   9.594  3.2259  2.0564 -0.3751
  834MOL0     H15079   5.785  10.171   9.722  0.6708 -3.9217 -2.7336
  834MOL0     H15080   5.620  10.255   9.908  2.3241  1.3508 -0.1363
  834MOL0     H15081   5.659  10.087   9.878  1.4422  1.3243 -0.3931
  834MOL0     H15082   5.540  10.179  10.142  2.3416  0.0574 -0.3015
  834MOL0     H15083   5.608  10.023  10.109  1.3712  1.9346  1.1316
  834MOL0     H15084   5.384  10.146   9.943 -2.3348 -0.8811 -0.2377
  834MOL0     H15085   5.451   9.986   9.916 -1.6231  1.7524 -1.3271
  834MOL0     H15086   5.308  10.084  10.168 -0.5374  2.5601 -2.2273
  834MOL0     H15087   5.371   9.914  10.143  0.7595  2.3513  1.9417
  834MOL0     H15088   5.002   9.883   9.944 -0.3292  0.1874 -0.7637
  834MOL0     H15089   6.025  10.174  10.077  0.3463 -0.2699  0.3763
  834MOL0     H15090   6.246  10.166  10.076  2.8698  1.6979  0.6337
  834MOL0     H15091   6.308  10.029   9.980  1.2323  0.9314 -0.6977
  834MOL0     H15092   6.340  10.194   9.926  0.1990  1.2972  0.7209
  835MOL0     O15093   2.484  11.203   5.666  0.0233 -0.1652  0.2565
  835MOL0     C15094   2.470  11.250   5.556 -0.1723  1.3340  0.0235
  835MOL0     O15095   2.567  11.315   5.489 -0.2241  0.0453  1.1730
  835MOL0     C15096   2.693  11.295   5.529  0.0626  0.2704  0.0018
  835MOL0     C15097   2.771  11.202   5.451  0.8110 -0.7457 -0.9731
  835MOL0     C15098   2.907  11.191   5.469 -0.3791  0.6067 -0.7867
  835MOL0     C15099   2.976  11.267   5.567 -0.1943 -0.0699 -0.3029
  835MOL0     O15100   3.112  11.259   5.578  0.0515 -0.2496 -0.2461
  835MOL0     C15101   3.159  11.261   5.714 -0.0016  0.5833 -0.2854
  835MOL0     C15102   3.289  11.340   5.717  0.7394 -0.1056  0.4687
  835MOL0     C15103   3.274  11.498   5.702 -0.3639  0.4909 -0.3637
  835MOL0     C15104   3.400  11.583   5.727  0.5599 -0.3714 -0.7725
  835MOL0     C15105   3.432  11.592   5.875  0.5863 -0.1214  1.2548
  835MOL0     C15106   3.533  11.701   5.895  0.5038 -1.0069  0.5596
  835MOL0     C15107   3.564  11.713   6.047  0.6181  0.3988 -0.0220
  835MOL0     C15108   3.688  11.807   6.060 -0.4498  0.2661 -0.4427
  835MOL0     N15109   3.800  11.711   6.085  0.1366  0.5057  1.3226
  835MOL0     C15110   3.864  11.624   5.989  0.0334 -0.1822  0.0930
  835MOL0     C15111   3.960  11.561   6.068  0.1033  0.8287  0.0618
  835MOL0     C15112   4.046  11.448   6.024  1.1329  0.2730 -0.6471
  835MOL0     C15113   4.197  11.475   5.996 -0.4524 -0.1414  0.8508
  835MOL0     C15114   4.296  11.506   6.112  1.1410 -0.4478  0.4347
  835MOL0     C15115   4.405  11.605   6.072 -0.1828 -0.7640 -0.1183
  835MOL0     O15116   4.524  11.543   6.010 -0.2824  0.4970 -0.7109
  835MOL0     C15117   4.645  11.600   6.026  0.7443  0.0793 -0.0532
  835MOL0     C15118   4.653  11.741   6.007 -0.0518  0.2482 -0.4461
  835MOL0     C15119   4.783  11.799   6.027  0.2911 -0.0677 -0.1670
  835MOL0     C15120   4.785  11.951   6.015  0.7495  0.1829  0.0147
  835MOL0     C15121   4.900  11.721   6.055 -0.0568  0.3114 -0.1955
  835MOL0     C15122   5.037  11.770   6.070  1.4505 -0.7988 -0.0295
  835MOL0     O15123   5.140  11.690   6.033  0.9148 -0.9113 -0.4630
  835MOL0     C15124   5.278  11.725   6.039  0.2209  0.2115  0.5338
  835MOL0     C15125   5.362  11.612   6.060 -0.0095 -0.2492  0.1399
  835MOL0     C15126   5.505  11.627   6.047 -0.0559 -0.7710 -0.7532
  835MOL0     C15127   5.567  11.759   6.043  0.5239 -0.0574  0.3673
  835MOL0     O15128   5.702  11.756   6.043 -0.1822 -0.5050  0.2133
  835MOL0     C15129   5.771  11.870   6.096 -0.1412 -0.4739  0.2166
  835MOL0     C15130   5.924  11.870   6.042 -0.2051  0.7129  0.4500
  835MOL0     C15131   6.001  11.994   6.074 -1.1238 -0.8749 -1.1737
  835MOL0     C15132   6.153  11.979   6.055 -0.0733  1.0989  0.1189
  835MOL0     C15133   6.229  12.099   6.098  0.4527  0.9335  0.8375
  835MOL0     C15134   6.378  12.081   6.089 -0.3831 -0.4293 -0.2686
  835MOL0     C15135   6.430  11.984   6.204  0.6511  0.2152  0.1633
  835MOL0     C15136   6.580  11.991   6.207  0.5837 -0.3424 -0.3572
  835MOL0    Cl15137   6.643  11.859   6.308 -0.2283 -0.3042 -0.0160
  835MOL0     C15138   5.481  11.867   6.036  0.1183 -0.6309  0.1334
  835MOL0     C15139   5.338  11.846   6.025 -1.1994 -0.5187 -0.5045
  835MOL0     O15140   5.051  11.883   6.103  0.5758  0.3044  0.7519
  835MOL0     C15141   4.883  11.579   6.066 -0.3708 -0.0161 -0.4195
  835MOL0     C15142   4.757  11.517   6.049 -0.5291  0.4389 -0.0047
  835MOL0     N15143   3.950  11.608   6.196 -0.2773  0.5380 -1.5200
  835MOL0     N15144   3.868  11.700   6.200  0.0670  0.1724 -1.4083
  835MOL0     C15145   2.894  11.357   5.645 -0.8492 -0.7962 -0.5887
  835MOL0     C15146   2.759  11.371   5.628  0.0807  0.2354 -1.4447
  835MOL0     C15147   2.329  11.256   5.500 -0.6689  0.0735 -0.2240
  835MOL0     C15148   2.304  11.350   5.393  0.5402 -0.1235 -0.7681
  835MOL0     C15149   2.179  11.359   5.341  0.2367 -0.2340 -0.2675
  835MOL0     C15150   2.083  11.262   5.378 -0.0215 -0.8686 -0.2210
  835MOL0     O15151   1.964  11.248   5.305 -0.3715 -0.2462 -0.2650
  835MOL0     C15152   1.909  11.355   5.233 -0.7037  0.4081 -0.5051
  835MOL0     C15153   1.769  11.314   5.188  0.0055  0.3372 -0.0541
  835MOL0     C15154   1.702  11.404   5.087  0.2742  0.8081  0.2897
  835MOL0     C15155   1.575  11.342   5.018 -0.1297  0.1108  0.4514
  835MOL0     C15156   1.478  11.295   5.107 -0.0139 -0.5504 -0.0928
  835MOL0     C15157   1.408  11.237   5.186 -0.1232 -0.5232 -0.4422
  835MOL0     C15158   2.118  11.168   5.481 -0.8193  0.2101  0.2360
  835MOL0     C15159   2.232  11.165   5.546 -0.7310  0.9814 -0.4635
  835MOL0     C15160   2.250  11.068   5.666  0.6646 -0.1099 -0.2820
  835MOL0     H15161   2.715  11.148   5.374 -0.7414 -0.0814 -0.3459
  835MOL0     H15162   2.963  11.120   5.409 -0.6058 -0.1994 -0.0636
  835MOL0     H15163   3.180  11.155   5.736  0.1231  0.0515 -2.6988
  835MOL0     H15164   3.087  11.299   5.787  0.7669 -0.1284  0.8731
  835MOL0     H15165   3.328  11.315   5.816 -0.7787  1.1506  1.4199
  835MOL0     H15166   3.356  11.305   5.637 -1.8887 -3.8002 -0.3846
  835MOL0     H15167   3.236  11.521   5.602 -1.4241 -0.9093 -0.3161
  835MOL0     H15168   3.201  11.525   5.779  0.6105 -2.6478  1.8726
  835MOL0     H15169   3.486  11.551   5.668 -0.0320 -2.5734 -0.5375
  835MOL0     H15170   3.372  11.685   5.697  2.1665 -0.3778 -2.4468
  835MOL0     H15171   3.461  11.496   5.917  0.1273 -1.7839 -1.9110
  835MOL0     H15172   3.344  11.629   5.929  0.0229  1.4007 -0.5600
  835MOL0     H15173   3.629  11.681   5.847 -0.0928  0.4451 -1.3704
  835MOL0     H15174   3.493  11.797   5.860 -0.7579 -0.8218  2.3737
  835MOL0     H15175   3.581  11.611   6.081 -1.0644 -0.6938 -2.1846
  835MOL0     H15176   3.469  11.751   6.085 -0.2719 -2.0208  0.3430
  835MOL0     H15177   3.693  11.879   5.978 -2.1624 -0.2711 -1.0630
  835MOL0     H15178   3.675  11.863   6.153 -2.3453  1.0753 -1.1455
  835MOL0     H15179   3.844  11.596   5.887 -0.1120 -2.1196  0.6281
  835MOL0     H15180   3.984  11.401   5.947  0.4698 -0.5686  0.3730
  835MOL0     H15181   4.040  11.373   6.103  0.7652 -0.3113 -1.2226
  835MOL0     H15182   4.239  11.378   5.967  2.2308  1.6779 -2.0398
  835MOL0     H15183   4.205  11.547   5.915 -0.3718 -2.7749 -1.6636
  835MOL0     H15184   4.239  11.555   6.191 -0.9167  0.0302 -1.2550
  835MOL0     H15185   4.348  11.416   6.149 -1.2115 -1.6621  0.9671
  835MOL0     H15186   4.366  11.677   6.001  0.1166 -1.1610 -0.6898
  835MOL0     H15187   4.430  11.664   6.161 -0.9076 -0.7468  0.0759
  835MOL0     H15188   4.569  11.809   6.005  0.5412  0.9955 -0.4868
  835MOL0     H15189   4.882  11.990   5.985  0.8258  2.1194  2.4720
  835MOL0     H15190   4.760  11.989   6.115  0.2978 -2.2272  0.8979
  835MOL0     H15191   4.707  11.976   5.942  1.5453  2.8172 -0.0159
  835MOL0     H15192   5.316  11.516   6.080 -0.1150 -0.1457  0.4113
  835MOL0     H15193   5.573  11.543   6.061 -0.6267 -0.6739  4.4136
  835MOL0     H15194   5.731  11.962   6.053 -0.4940  0.6256  2.7657
  835MOL0     H15195   5.764  11.889   6.203 -0.6784  3.1704 -0.3469
  835MOL0     H15196   5.988  11.789   6.079 -0.5337  0.4144  0.3737
  835MOL0     H15197   5.922  11.863   5.933  1.2635  2.2893  0.2745
  835MOL0     H15198   5.990  12.025   6.178  0.0291 -0.3520 -1.1952
  835MOL0     H15199   5.968  12.075   6.009  0.2520 -0.0197 -0.8563
  835MOL0     H15200   6.160  11.959   5.948  0.9203 -0.0006  0.3739
  835MOL0     H15201   6.196  11.896   6.111  1.2284  0.1166 -2.1911
  835MOL0     H15202   6.192  12.179   6.033  0.2260 -0.0690 -0.2916
  835MOL0     H15203   6.200  12.131   6.199 -3.6164  0.8927 -0.1429
  835MOL0     H15204   6.427  12.178   6.101 -4.2887  1.8024 -0.6661
  835MOL0     H15205   6.404  12.043   5.989 -2.7682  0.1551 -1.1887
  835MOL0     H15206   6.404  11.885   6.166  1.1915  0.7849 -1.7920
  835MOL0     H15207   6.390  12.017   6.301  0.3370  3.6328 -1.0119
  835MOL0     H15208   6.598  12.087   6.257 -2.8273  0.6613 -0.8153
  835MOL0     H15209   6.618  11.990   6.104  0.5874 -0.1043 -0.3588
  835MOL0     H15210   5.518  11.969   6.035  0.7779 -0.7339  3.2187
  835MOL0     H15211   5.269  11.929   6.011 -0.4646  0.6298  2.0213
  835MOL0     H15212   4.973  11.523   6.089 -0.1876  0.9276  1.3311
  835MOL0     H15213   4.754  11.410   6.062 -0.3188  0.6948  2.9582
  835MOL0     H15214   2.941  11.432   5.709 -0.5385 -1.9510  0.5819
  835MOL0     H15215   2.704  11.444   5.686  0.5617  0.2595 -1.0182
  835MOL0     H15216   2.382  11.413   5.351  1.8408 -1.6444 -0.7557
  835MOL0     H15217   2.163  11.434   5.264  1.2451 -0.6834 -0.9307
  835MOL0     H15218   1.918  11.442   5.298  2.3425 -0.0662 -0.1557
  835MOL0     H15219   1.974  11.382   5.149 -0.4784  6.8235  1.2314
  835MOL0     H15220   1.714  11.313   5.282  2.9442  1.0501  1.8208
  835MOL0     H15221   1.767  11.209   5.157 -0.6552  0.1013  0.7729
  835MOL0     H15222   1.680  11.506   5.121  1.8099  1.1481  0.3636
  835MOL0     H15223   1.785  11.411   5.016  0.1030  0.3116  0.0386
  835MOL0     H15224   1.598  11.256   4.954  0.5113 -1.0947  2.2466
  835MOL0     H15225   1.544  11.424   4.952  1.8745 -0.3182 -1.1364
  835MOL0     H15226   1.338  11.177   5.240  3.0353 -1.4806  3.0019
  835MOL0     H15227   2.042  11.092   5.495 -1.1308  0.7518  1.6340
  835MOL0     H15228   2.337  11.004   5.651  0.6033  0.1329 -1.7492
  835MOL0     H15229   2.262  11.126   5.759 -1.5161  1.4236 -0.8797
  835MOL0     H15230   2.163  11.004   5.686  1.1510 -0.3293  1.2562
  836MOL0     O15231   9.243   1.033   3.620  0.5320 -0.2902  0.3857
  836MOL0     C15232   9.160   0.943   3.581 -0.3986 -0.0607 -0.4571
  836MOL0     O15233   9.198   0.811   3.564  1.1039 -0.1628 -0.3189
  836MOL0     C15234   9.330   0.775   3.569 -0.5880 -0.5656 -0.1429
  836MOL0     C15235   9.424   0.838   3.486 -0.8068  0.9936  0.3563
  836MOL0     C15236   9.565   0.821   3.514  1.3280 -0.2732 -0.1578
  836MOL0     C15237   9.604   0.736   3.611  0.7295  1.1021 -1.0715
  836MOL0     O15238   9.739   0.725   3.629  0.3700  0.2107  0.3173
  836MOL0     C15239   9.829   0.807   3.561 -0.0639  0.4587  0.2858
  836MOL0     C15240   9.973   0.767   3.603  0.1279 -0.0338  0.2303
  836MOL0     C15241  10.016   0.624   3.567 -0.2630  0.2092 -0.3038
  836MOL0     C15242  10.157   0.606   3.605 -0.6713  0.4000 -0.0157
  836MOL0     C15243  10.216   0.471   3.559 -0.7239  0.3874  0.1553
  836MOL0     C15244  10.234   0.462   3.410  0.1009  0.5258  0.3015
  836MOL0     C15245  10.298   0.327   3.356  0.2366 -0.0477  0.1242
  836MOL0     C15246  10.452   0.292   3.398  0.1119  0.5895 -0.4567
  836MOL0     N15247  10.537   0.410   3.367  0.1872  0.3406 -0.2780
  836MOL0     C15248  10.555   0.523   3.443 -0.6074 -1.0739  0.1037
  836MOL0     C15249  10.644   0.605   3.385  1.3400  0.7252  0.7790
  836MOL0     C15250  10.714   0.715   3.448  0.3363 -0.7615  0.5129
  836MOL0     C15251  10.740   0.825   3.344 -0.4368 -0.1181  0.1825
  836MOL0     C15252  10.810   0.941   3.406  0.3336  0.0837 -0.1739
  836MOL0     C15253  10.968   0.937   3.395  0.2558 -1.3376  0.3190
  836MOL0     O15254  11.012   0.815   3.437  0.1368  0.3803  0.4891
  836MOL0     C15255  11.146   0.793   3.455 -0.2539 -0.7686 -0.4553
  836MOL0     C15256  11.246   0.863   3.392  0.2785 -0.0395  0.3728
  836MOL0     C15257  11.386   0.831   3.409  0.1600 -0.6539 -0.0174
  836MOL0     C15258  11.476   0.913   3.324  0.0293  0.2632  0.3650
  836MOL0     C15259  11.432   0.736   3.506  0.2757  0.0677  0.6533
  836MOL0     C15260  11.578   0.715   3.542 -0.2479  0.7490  0.6723
  836MOL0     O15261  11.598   0.591   3.604 -0.8499 -0.4018  0.0501
  836MOL0     C15262  11.723   0.563   3.664  0.0156 -0.3245  0.8013
  836MOL0     C15263  11.779   0.436   3.643  1.0053 -0.4535  0.1351
  836MOL0     C15264  11.899   0.399   3.708  0.4421 -0.0240 -0.0843
  836MOL0     C15265  11.972   0.489   3.779 -0.1479 -0.4639  0.4323
  836MOL0     O15266  12.095   0.445   3.814 -0.3282  0.1140 -0.3009
  836MOL0     C15267  12.205   0.538   3.834  0.4098  0.3035  0.4645
  836MOL0     C15268  12.325   0.482   3.760 -0.8133 -0.4042 -0.0247
  836MOL0     C15269  12.465   0.566   3.747  0.7334  0.0066  0.1619
  836MOL0     C15270  12.434   0.689   3.647 -0.5637  0.2873 -0.3528
  836MOL0     C15271  12.541   0.792   3.614 -0.4024  0.4528 -0.3563
  836MOL0     C15272  12.667   0.728   3.552  0.5305  0.0903  0.4478
  836MOL0     C15273  12.777   0.836   3.532  0.2842 -0.4590  0.6338
  836MOL0     C15274  12.905   0.773   3.472  0.1531  0.1562  0.5527
  836MOL0    Cl15275  13.017   0.900   3.429 -0.0821  0.2026  0.1147
  836MOL0     C15276  11.920   0.620   3.799 -1.2250 -0.3419 -0.0672
  836MOL0     C15277  11.801   0.652   3.744  0.1355 -0.5517  1.1190
  836MOL0     O15278  11.664   0.789   3.511 -0.2492 -0.1955 -0.0077
  836MOL0     C15279  11.325   0.669   3.572  0.2244 -0.0247  0.0761
  836MOL0     C15280  11.192   0.704   3.553 -0.0742 -0.1242 -0.1994
  836MOL0     N15281  10.677   0.541   3.265  0.0822 -0.1532 -0.1569
  836MOL0     N15282  10.605   0.437   3.252  0.0696 -0.2030 -0.0399
  836MOL0     C15283   9.509   0.666   3.686 -0.1915  0.6143  0.0774
  836MOL0     C15284   9.367   0.688   3.664 -0.9350 -0.4035 -0.3393
  836MOL0     C15285   9.018   0.978   3.593 -0.9234  0.2309  0.5192
  836MOL0     C15286   8.989   1.113   3.619  0.1477  0.4593 -0.2217
  836MOL0     C15287   8.862   1.154   3.637 -0.1974  0.1882  0.6993
  836MOL0     C15288   8.758   1.066   3.645 -0.2926 -0.6342  0.2099
  836MOL0     O15289   8.628   1.106   3.658  0.4032  0.3930 -0.2851
  836MOL0     C15290   8.585   1.160   3.781 -0.1554  0.1182 -0.4533
  836MOL0     C15291   8.579   1.315   3.758  0.8750 -0.4347  0.7558
  836MOL0     C15292   8.495   1.391   3.861  0.0835  0.5326 -0.1273
  836MOL0     C15293   8.554   1.393   4.004 -0.6028  0.7652  0.3134
  836MOL0     C15294   8.691   1.456   4.016  1.0466  0.4003  0.0896
  836MOL0     C15295   8.804   1.494   4.036 -0.0417 -0.1389 -0.1329
  836MOL0     C15296   8.788   0.930   3.629 -0.7251 -0.2710  0.2620
  836MOL0     C15297   8.917   0.886   3.601  0.2301 -0.8308 -0.0904
  836MOL0     C15298   8.920   0.739   3.564  0.2095 -1.2499  0.5545
  836MOL0     H15299   9.385   0.905   3.411 -0.6412  0.4514 -0.2197
  836MOL0     H15300   9.624   0.892   3.457 -0.9824  1.5208 -0.4678
  836MOL0     H15301   9.801   0.910   3.585  0.4016  0.1996  2.0683
  836MOL0     H15302   9.824   0.786   3.454  1.0613 -2.2918  0.6989
  836MOL0     H15303  10.037   0.839   3.551 -3.2436  1.0546 -2.8430
  836MOL0     H15304   9.979   0.781   3.711 -2.8828  1.9587  0.2585
  836MOL0     H15305   9.956   0.546   3.614 -3.0532  2.4643  0.1456
  836MOL0     H15306  10.000   0.615   3.459 -0.8865  1.9991 -0.4019
  836MOL0     H15307  10.219   0.691   3.573 -0.4714  0.6529  1.0217
  836MOL0     H15308  10.166   0.608   3.714 -2.0368  1.3521  0.1104
  836MOL0     H15309  10.160   0.385   3.598 -0.1257 -1.6065 -3.0298
  836MOL0     H15310  10.316   0.462   3.604 -0.3801 -1.9718 -0.9414
  836MOL0     H15311  10.130   0.462   3.377  0.4754  1.7549 -0.9693
  836MOL0     H15312  10.295   0.542   3.367  0.3016 -1.1169 -2.7240
  836MOL0     H15313  10.299   0.345   3.248 -3.2100  1.0026  0.1493
  836MOL0     H15314  10.241   0.235   3.370  0.2452 -0.2932 -1.2760
  836MOL0     H15315  10.465   0.261   3.502  1.2998 -1.5852 -1.1769
  836MOL0     H15316  10.499   0.208   3.346  2.1662  0.6322  1.1979
  836MOL0     H15317  10.502   0.535   3.537 -2.4026  0.6961 -1.0473
  836MOL0     H15318  10.811   0.682   3.484 -0.4575 -3.1381  0.6687
  836MOL0     H15319  10.646   0.752   3.526 -0.5111 -1.3207  0.0586
  836MOL0     H15320  10.792   0.779   3.260  0.6599  1.2555  0.0624
  836MOL0     H15321  10.642   0.855   3.304 -2.0933 -1.5292  2.8594
  836MOL0     H15322  10.774   1.033   3.358 -1.6809 -0.1650  0.7969
  836MOL0     H15323  10.773   0.944   3.508  2.7231 -2.3593  0.8903
  836MOL0     H15324  11.001   0.958   3.293 -0.7057  5.2184  0.8996
  836MOL0     H15325  11.010   1.020   3.453 -1.0442  0.3970 -1.0945
  836MOL0     H15326  11.219   0.934   3.314  0.3233 -0.8381 -0.3841
  836MOL0     H15327  11.538   0.977   3.388 -0.4380 -0.1367  1.2408
  836MOL0     H15328  11.421   0.977   3.255 -2.8934 -3.3046 -0.9859
  836MOL0     H15329  11.551   0.858   3.266  1.6162  2.7277 -0.0750
  836MOL0     H15330  11.730   0.366   3.576  0.7776 -0.8431  0.7002
  836MOL0     H15331  11.928   0.298   3.681 -1.1276 -0.1737 -1.4036
  836MOL0     H15332  12.187   0.646   3.828 -0.7089  0.1985  1.5512
  836MOL0     H15333  12.219   0.526   3.942 -2.5632 -0.7614  0.8232
  836MOL0     H15334  12.345   0.382   3.799  0.4305  0.2309  1.0416
  836MOL0     H15335  12.288   0.464   3.659 -0.6563  0.1367 -0.1820
  836MOL0     H15336  12.545   0.509   3.699 -0.6399 -0.0816 -2.1635
  836MOL0     H15337  12.502   0.602   3.844 -0.5847  0.7526  0.4081
  836MOL0     H15338  12.341   0.732   3.685 -0.3271  2.0540 -1.6483
  836MOL0     H15339  12.414   0.634   3.555 -1.5834  1.1591 -0.6750
  836MOL0     H15340  12.503   0.870   3.548  3.3292  1.9628 -0.9970
  836MOL0     H15341  12.575   0.839   3.707 -0.9688 -1.9277  1.1428
  836MOL0     H15342  12.634   0.684   3.458  2.3176 -1.1209  0.3364
  836MOL0     H15343  12.700   0.637   3.602 -0.0368 -0.9255 -0.9664
  836MOL0     H15344  12.815   0.884   3.623 -0.9979  2.4783 -0.2526
  836MOL0     H15345  12.732   0.914   3.469 -0.1769 -0.0150  1.5031
  836MOL0     H15346  12.887   0.704   3.389 -0.9225 -0.7631  1.5186
  836MOL0     H15347  12.956   0.714   3.548  0.7956  0.5912  0.4683
  836MOL0     H15348  11.966   0.700   3.856  0.0614 -0.4493 -0.9051
  836MOL0     H15349  11.756   0.751   3.756 -0.0917 -0.7516  1.9612
  836MOL0     H15350  11.342   0.601   3.656 -1.9103  3.8105  4.0341
  836MOL0     H15351  11.122   0.646   3.612  1.8085 -1.9494  0.3723
  836MOL0     H15352   9.538   0.594   3.762 -0.1124  0.6428  0.0744
  836MOL0     H15353   9.299   0.631   3.727 -4.0940  0.2457 -2.9110
  836MOL0     H15354   9.066   1.189   3.621  0.0078  0.6296 -1.0633
  836MOL0     H15355   8.845   1.261   3.639 -1.1336  0.1198 -1.3661
  836MOL0     H15356   8.486   1.120   3.803 -0.4555  0.5310 -1.0443
  836MOL0     H15357   8.653   1.124   3.859  0.8601 -1.1117 -1.8254
  836MOL0     H15358   8.536   1.337   3.660 -1.7329  0.8095  2.0760
  836MOL0     H15359   8.681   1.354   3.764 -0.4150  3.4169  0.2942
  836MOL0     H15360   8.481   1.497   3.836  1.9894  1.1045  0.9971
  836MOL0     H15361   8.393   1.352   3.863  0.4096 -1.0673 -4.4523
  836MOL0     H15362   8.577   1.289   4.026  0.5060  0.5325 -1.6384
  836MOL0     H15363   8.485   1.433   4.079  0.6911  1.1876  1.3093
  836MOL0     H15364   8.900   1.540   4.053 -0.5878  1.4103 -1.0075
  836MOL0     H15365   8.702   0.866   3.642  1.2176 -2.9028  1.0175
  836MOL0     H15366   8.828   0.689   3.598  0.6382 -1.2454  1.7637
  836MOL0     H15367   8.927   0.732   3.455 -2.1195 -1.6241  0.3654
  836MOL0     H15368   8.998   0.685   3.619 -1.0312 -3.2647  0.4406
  837MOL0     O15369   5.643   1.338   6.643 -0.3873  0.1684  0.1395
  837MOL0     C15370   5.637   1.257   6.728  0.6410  0.4746 -0.5619
  837MOL0     O15371   5.747   1.184   6.771 -0.0495 -0.5519  0.1321
  837MOL0     C15372   5.871   1.157   6.712 -0.7461  0.3236 -0.6243
  837MOL0     C15373   5.942   1.050   6.771 -0.5126  0.3201 -0.7793
  837MOL0     C15374   6.076   1.016   6.718 -0.4202  0.4196 -0.0228
  837MOL0     C15375   6.128   1.087   6.611 -0.2806  0.1055  0.3616
  837MOL0     O15376   6.256   1.046   6.564  0.3047 -0.0273 -0.0970
  837MOL0     C15377   6.267   1.064   6.424  0.1740 -0.0063  0.2963
  837MOL0     C15378   6.379   0.980   6.367 -0.4212 -0.2748 -0.6752
  837MOL0     C15379   6.519   1.030   6.404 -0.5770 -1.3013 -0.6050
  837MOL0     C15380   6.629   0.968   6.334  0.1295  0.9229  0.2199
  837MOL0     C15381   6.768   1.014   6.385 -0.3184  0.6731  0.2128
  837MOL0     C15382   6.799   1.167   6.382  0.8720  0.0080 -0.1075
  837MOL0     C15383   6.949   1.189   6.409 -0.0295  0.1261  0.5427
  837MOL0     C15384   6.995   1.342   6.416 -0.1864 -0.3910 -0.5889
  837MOL0     N15385   7.131   1.373   6.441 -0.1919 -0.9305  0.0213
  837MOL0     C15386   7.217   1.317   6.532 -0.2887  0.1739 -0.4730
  837MOL0     C15387   7.327   1.393   6.538  0.3617 -0.3841  0.9140
  837MOL0     C15388   7.467   1.353   6.603  0.4775 -0.2280 -0.1046
  837MOL0     C15389   7.456   1.394   6.749 -0.1214  0.2146 -0.8747
  837MOL0     C15390   7.574   1.349   6.836  0.3378  0.4872  0.3570
  837MOL0     C15391   7.701   1.438   6.829 -1.2336  0.3092  0.0855
  837MOL0     O15392   7.814   1.347   6.840  0.4517  0.2130 -0.0296
  837MOL0     C15393   7.933   1.388   6.886  0.0078  0.2962  0.3443
  837MOL0     C15394   7.985   1.508   6.841  0.3794  0.1025 -0.9002
  837MOL0     C15395   8.122   1.543   6.866 -0.5088 -0.7453 -0.4005
  837MOL0     C15396   8.161   1.664   6.784  0.7168 -0.3827  0.8897
  837MOL0     C15397   8.205   1.453   6.944 -0.2821 -0.8338 -0.5025
  837MOL0     C15398   8.350   1.478   6.971 -0.3816 -0.3121  0.1088
  837MOL0     O15399   8.412   1.383   7.040 -0.5024 -0.5835 -0.5738
  837MOL0     C15400   8.552   1.376   7.041 -0.1336  0.2544 -0.2187
  837MOL0     C15401   8.619   1.344   7.164  0.1893 -0.1282 -0.7424
  837MOL0     C15402   8.755   1.332   7.167 -0.2855  0.3366 -0.6607
  837MOL0     C15403   8.833   1.342   7.056  0.0083 -0.3591  0.5141
  837MOL0     O15404   8.966   1.334   7.069  0.5978  0.2858 -0.0503
  837MOL0     C15405   9.061   1.367   6.974 -0.5666  0.1187  0.1170
  837MOL0     C15406   9.098   1.250   6.878 -0.0603  0.3108 -0.2517
  837MOL0     C15407   9.234   1.185   6.919 -0.5874  0.7415 -0.6266
  837MOL0     C15408   9.357   1.247   6.863  0.3723  0.1873  0.2285
  837MOL0     C15409   9.484   1.178   6.925 -0.2771  1.3454  0.3529
  837MOL0     C15410   9.596   1.171   6.828 -0.3124  0.5087 -0.8091
  837MOL0     C15411   9.671   1.300   6.824  0.1137 -0.7982  0.3930
  837MOL0     C15412   9.780   1.297   6.719 -0.0488  0.5479 -0.4380
  837MOL0    Cl15413   9.718   1.335   6.559 -0.0373 -0.1186  0.1267
  837MOL0     C15414   8.770   1.368   6.931  0.5287  0.2826 -0.7529
  837MOL0     C15415   8.632   1.388   6.928 -0.0457  0.3906  0.2023
  837MOL0     O15416   8.402   1.580   6.929 -0.4645 -0.2518  0.0678
  837MOL0     C15417   8.140   1.353   6.999  0.2962  0.5707 -0.9912
  837MOL0     C15418   8.014   1.308   6.961 -0.1858 -0.5353 -0.2819
  837MOL0     N15419   7.314   1.500   6.446 -0.6308 -0.6652 -0.5602
  837MOL0     N15420   7.202   1.480   6.383 -0.6347 -0.6344 -0.0498
  837MOL0     C15421   6.060   1.203   6.563 -0.4313  0.2287 -0.5574
  837MOL0     C15422   5.932   1.229   6.614 -0.7275 -0.3725  0.6198
  837MOL0     C15423   5.521   1.269   6.816 -0.9329 -0.6750  0.0438
  837MOL0     C15424   5.530   1.219   6.948  0.0228  0.1374 -0.1347
  837MOL0     C15425   5.428   1.231   7.032 -0.1861 -0.1304  0.8475
  837MOL0     C15426   5.305   1.279   6.998  0.4546  0.6039 -0.1255
  837MOL0     O15427   5.210   1.271   7.101  0.0758  0.3129  0.2439
  837MOL0     C15428   5.076   1.279   7.069  0.8354 -0.1129  0.1336
  837MOL0     C15429   5.006   1.249   7.201 -0.4799  0.0479  0.1461
  837MOL0     C15430   5.020   1.348   7.318 -0.0725 -0.2704 -0.8233
  837MOL0     C15431   4.945   1.313   7.449 -0.7126  0.1974 -0.6707
  837MOL0     C15432   4.821   1.234   7.431  0.1910 -0.3463 -0.1079
  837MOL0     C15433   4.720   1.165   7.418 -0.3276  0.1222  0.1253
  837MOL0     C15434   5.287   1.310   6.869  0.0281 -0.1276 -0.2860
  837MOL0     C15435   5.391   1.304   6.773  0.1099  0.0797  0.8422
  837MOL0     C15436   5.359   1.335   6.624 -0.5696 -0.2319 -0.0200
  837MOL0     H15437   5.891   0.986   6.841 -2.0876 -2.1642 -3.9307
  837MOL0     H15438   6.119   0.928   6.764 -3.0998 -2.9332 -3.3180
  837MOL0     H15439   6.279   1.170   6.400 -0.3275  0.1419  0.6963
  837MOL0     H15440   6.176   1.028   6.375 -0.1533 -0.6789  1.3808
  837MOL0     H15441   6.373   0.882   6.414  1.0379 -0.4008 -0.7016
  837MOL0     H15442   6.371   0.962   6.259  2.0014  1.4846 -1.2316
  837MOL0     H15443   6.519   1.136   6.378 -0.4236 -0.0371  3.7260
  837MOL0     H15444   6.542   1.028   6.511  0.9598 -0.7624 -0.9097
  837MOL0     H15445   6.626   0.862   6.361  1.7242  1.2515  1.8895
  837MOL0     H15446   6.629   0.988   6.226  3.5624 -0.8436 -0.2384
  837MOL0     H15447   6.854   0.961   6.344  0.1312 -0.3878  2.3544
  837MOL0     H15448   6.778   0.983   6.490  1.6103  1.6544  0.3545
  837MOL0     H15449   6.767   1.194   6.281 -0.4509 -2.9876 -0.5990
  837MOL0     H15450   6.742   1.221   6.459  2.1223  1.6136 -0.2574
  837MOL0     H15451   7.011   1.139   6.334  0.0564  1.3947 -0.2467
  837MOL0     H15452   6.970   1.136   6.503  1.9047 -0.7629 -0.3516
  837MOL0     H15453   6.970   1.391   6.321 -1.9188  0.5604  0.2984
  837MOL0     H15454   6.944   1.396   6.496 -0.9394 -1.7942 -0.0894
  837MOL0     H15455   7.198   1.230   6.595 -1.8429  1.4605  0.9131
  837MOL0     H15456   7.551   1.395   6.548 -0.2056 -0.5176 -1.4154
  837MOL0     H15457   7.483   1.245   6.600 -2.8603 -0.8129 -2.4447
  837MOL0     H15458   7.464   1.504   6.747  1.6664  0.3554  3.0281
  837MOL0     H15459   7.360   1.360   6.788 -0.8661 -1.7749 -4.0792
  837MOL0     H15460   7.543   1.357   6.941 -1.5016  2.6680 -0.2629
  837MOL0     H15461   7.606   1.245   6.826 -0.7246  0.2512 -0.8770
  837MOL0     H15462   7.705   1.499   6.738  3.6709  0.1762 -0.0448
  837MOL0     H15463   7.702   1.502   6.917  0.6210 -0.1920  0.4758
  837MOL0     H15464   7.925   1.575   6.780  1.8191  1.2893 -1.0829
  837MOL0     H15465   8.235   1.636   6.708 -1.1029  1.6912 -1.8377
  837MOL0     H15466   8.201   1.736   6.856  1.8750 -1.3758  1.2756
  837MOL0     H15467   8.079   1.710   6.728 -0.0176 -2.5562  0.0781
  837MOL0     H15468   8.559   1.323   7.252  1.0689 -0.5441 -0.2321
  837MOL0     H15469   8.807   1.299   7.256 -0.5950 -0.3516 -0.7291
  837MOL0     H15470   9.029   1.454   6.915 -2.9991 -0.5778  0.3042
  837MOL0     H15471   9.152   1.401   7.025 -1.5036 -0.6521  2.4347
  837MOL0     H15472   9.014   1.183   6.892 -0.7933  1.0814 -0.8629
  837MOL0     H15473   9.099   1.291   6.776 -0.1049  0.6772 -0.1091
  837MOL0     H15474   9.222   1.080   6.891 -4.1772  0.5423  1.1209
  837MOL0     H15475   9.248   1.180   7.027 -1.3331  0.1054 -0.5469
  837MOL0     H15476   9.371   1.353   6.884  1.6206  0.2888 -0.9514
  837MOL0     H15477   9.358   1.237   6.754  3.0748  0.6569  0.1279
  837MOL0     H15478   9.515   1.230   7.017 -0.2726 -1.1585  1.8672
  837MOL0     H15479   9.457   1.074   6.946 -2.3556  1.4218 -1.6102
  837MOL0     H15480   9.548   1.142   6.734  0.3017 -2.1560 -0.3915
  837MOL0     H15481   9.666   1.095   6.864 -1.5925 -0.1624  0.4129
  837MOL0     H15482   9.739   1.312   6.909  1.6411 -3.3207 -0.3496
  837MOL0     H15483   9.605   1.386   6.812 -0.4821 -1.1617  1.0171
  837MOL0     H15484   9.834   1.202   6.708  1.6081  1.1048  2.1504
  837MOL0     H15485   9.850   1.380   6.733 -1.6530  2.0397 -0.9286
  837MOL0     H15486   8.827   1.373   6.839  2.0828  2.0387  0.2412
  837MOL0     H15487   8.587   1.417   6.834 -0.3089  0.5052  0.3604
  837MOL0     H15488   8.195   1.284   7.062  1.2235  0.5260 -1.8045
  837MOL0     H15489   7.966   1.214   6.985 -0.0663 -0.9399 -1.5693
  837MOL0     H15490   6.098   1.282   6.499 -3.1939  2.3659  0.2467
  837MOL0     H15491   5.882   1.317   6.573  0.6923 -0.2190 -0.9166
  837MOL0     H15492   5.619   1.180   6.997  0.0948  0.9591  0.3981
  837MOL0     H15493   5.436   1.196   7.134  0.4374 -0.5954  0.6402
  837MOL0     H15494   5.048   1.381   7.040 -2.3716 -0.9917 -0.1396
  837MOL0     H15495   5.046   1.212   6.988 -0.2794  1.1622 -0.5436
  837MOL0     H15496   5.044   1.150   7.229 -1.0646 -1.7334 -4.3958
  837MOL0     H15497   4.902   1.231   7.173 -0.9494 -0.1834  1.9550
  837MOL0     H15498   5.126   1.369   7.339 -0.5387 -0.8536  2.6566
  837MOL0     H15499   4.968   1.440   7.290 -0.7971 -0.4037  0.0342
  837MOL0     H15500   4.922   1.407   7.501 -2.6882 -0.6184  0.0130
  837MOL0     H15501   4.995   1.246   7.520 -2.5001  1.5186  2.0219
  837MOL0     H15502   4.627   1.112   7.424  1.7579 -3.9907 -0.1186
  837MOL0     H15503   5.190   1.346   6.839 -1.5107 -1.7353  2.3901
  837MOL0     H15504   5.388   1.438   6.604 -2.9527 -0.0871 -3.7660
  837MOL0     H15505   5.424   1.278   6.558 -0.1779 -1.6309  1.5197
  837MOL0     H15506   5.251   1.321   6.611 -0.7460 -0.3719  1.4176
  838MOL0     O15507   8.574   3.163   5.541  0.0153  0.1692 -0.0806
  838MOL0     C15508   8.584   3.201   5.420  0.2648 -0.3523 -0.4028
  838MOL0     O15509   8.698   3.249   5.355  0.2299  0.0801 -0.6041
  838MOL0     C15510   8.822   3.262   5.413  0.7022  0.6243  1.1954
  838MOL0     C15511   8.871   3.177   5.510  0.0063  0.4006 -0.0189
  838MOL0     C15512   8.986   3.216   5.584 -0.4288 -0.1444 -0.4950
  838MOL0     C15513   9.059   3.325   5.541  0.6503 -0.8515 -0.0732
  838MOL0     O15514   9.186   3.336   5.602  0.5760  0.1326 -0.5736
  838MOL0     C15515   9.248   3.467   5.601 -0.3384 -0.2571 -0.3424
  838MOL0     C15516   9.392   3.457   5.643  0.7271 -0.1810  0.0751
  838MOL0     C15517   9.483   3.359   5.558 -0.3387 -0.4253 -1.1113
  838MOL0     C15518   9.621   3.354   5.625  0.2014 -0.9244  0.3016
  838MOL0     C15519   9.734   3.318   5.532 -0.0174  0.8680  0.4960
  838MOL0     C15520   9.864   3.294   5.601  0.5228 -0.0734  0.1225
  838MOL0     C15521   9.983   3.281   5.497 -0.1386  0.0763 -0.3429
  838MOL0     C15522  10.106   3.258   5.577  0.4678  0.6449 -0.5246
  838MOL0     N15523  10.177   3.388   5.602  0.5634 -0.2163 -0.3645
  838MOL0     C15524  10.278   3.428   5.524  0.0948  0.1503  0.7364
  838MOL0     C15525  10.345   3.521   5.597 -0.3710 -0.8163 -0.6613
  838MOL0     C15526  10.464   3.591   5.532 -1.0079  0.5185 -0.1635
  838MOL0     C15527  10.589   3.518   5.579  1.2417 -0.0922  1.0354
  838MOL0     C15528  10.712   3.567   5.495  0.9786 -0.1660 -0.4115
  838MOL0     C15529  10.837   3.539   5.573  0.1814  0.1787 -0.1235
  838MOL0     O15530  10.871   3.398   5.595 -0.6551  0.5495  0.2505
  838MOL0     C15531  10.997   3.365   5.643 -0.1592 -0.2851 -0.2981
  838MOL0     C15532  11.028   3.232   5.680  0.1950 -0.6051 -0.6197
  838MOL0     C15533  11.155   3.192   5.733 -0.0007 -0.5123 -0.1213
  838MOL0     C15534  11.175   3.040   5.762  0.6757  0.7607 -0.1042
  838MOL0     C15535  11.253   3.294   5.770 -0.2730  0.7273  1.1535
  838MOL0     C15536  11.386   3.255   5.823 -0.2783  0.3897  0.1647
  838MOL0     O15537  11.452   3.356   5.885 -0.4084  0.1516 -0.4377
  838MOL0     C15538  11.559   3.331   5.963 -0.0844  0.3367 -0.3886
  838MOL0     C15539  11.591   3.206   6.020  0.1868  0.4542 -0.9284
  838MOL0     C15540  11.707   3.185   6.105  0.2096 -0.4541  0.0622
  838MOL0     C15541  11.792   3.297   6.134 -0.3138 -0.1828 -0.1734
  838MOL0     O15542  11.904   3.300   6.207 -0.5165 -0.3164 -0.6817
  838MOL0     C15543  11.947   3.184   6.278  0.1231  0.6578 -0.0006
  838MOL0     C15544  12.051   3.103   6.189  0.4622 -0.4551 -0.4402
  838MOL0     C15545  12.181   3.179   6.172 -0.4778  0.3044 -0.6605
  838MOL0     C15546  12.248   3.199   6.309 -1.0920 -0.0564 -0.7596
  838MOL0     C15547  12.378   3.273   6.306  0.3224  0.0114  0.5243
  838MOL0     C15548  12.351   3.424   6.288 -0.1661 -0.0764  0.3001
  838MOL0     C15549  12.491   3.485   6.274  0.1981 -0.0839  0.1871
  838MOL0     C15550  12.485   3.637   6.271 -0.2708  0.1250  0.0907
  838MOL0    Cl15551  12.432   3.700   6.416  0.4475  0.0907 -0.4554
  838MOL0     C15552  11.755   3.419   6.078 -0.4619 -0.0961  0.5291
  838MOL0     C15553  11.648   3.439   5.992 -0.3172  0.4748 -0.2938
  838MOL0     O15554  11.435   3.145   5.788  0.0824  0.1625  0.1200
  838MOL0     C15555  11.214   3.428   5.759  0.3349 -0.4051  0.3481
  838MOL0     C15556  11.089   3.456   5.692  0.2301  0.4624 -0.1746
  838MOL0     N15557  10.284   3.532   5.718  0.1414  0.1716  0.0553
  838MOL0     N15558  10.185   3.452   5.721 -0.4409  0.8897  0.5604
  838MOL0     C15559   9.011   3.409   5.429  0.0302 -0.7550 -0.0518
  838MOL0     C15560   8.883   3.381   5.375 -0.5318  0.1070  1.6287
  838MOL0     C15561   8.467   3.180   5.331  0.0902  0.2640 -0.3865
  838MOL0     C15562   8.440   3.277   5.232 -1.0208  0.8220 -0.0233
  838MOL0     C15563   8.358   3.242   5.121  0.3846  0.3479 -0.2626
  838MOL0     C15564   8.280   3.126   5.125 -0.5789 -0.7399 -0.5733
  838MOL0     O15565   8.191   3.096   5.028 -0.0198 -0.6030  0.2761
  838MOL0     C15566   8.050   3.105   5.047 -0.7654  0.1687 -0.1040
  838MOL0     C15567   7.995   3.249   5.059 -0.0465 -0.1277 -0.8694
  838MOL0     C15568   7.873   3.256   5.151  1.1892 -0.2833  0.5912
  838MOL0     C15569   7.749   3.203   5.090 -0.5072  1.0238  0.9176
  838MOL0     C15570   7.717   3.256   4.957  0.4945 -0.2207 -0.2570
  838MOL0     C15571   7.699   3.298   4.844  0.7139  0.6957  0.8179
  838MOL0     C15572   8.292   3.046   5.231 -0.1118  0.1089  0.2118
  838MOL0     C15573   8.385   3.068   5.336  0.3699  0.3193  0.6408
  838MOL0     C15574   8.380   2.961   5.445 -0.2711  0.6472 -0.8000
  838MOL0     H15575   8.807   3.094   5.537 -0.4138  1.0487  1.0393
  838MOL0     H15576   9.026   3.149   5.660 -2.2200  0.8754  1.4459
  838MOL0     H15577   9.187   3.539   5.656 -1.7705 -1.6506 -0.0434
  838MOL0     H15578   9.262   3.496   5.497  2.4169 -0.3381 -0.0652
  838MOL0     H15579   9.434   3.557   5.638  0.2963 -0.0069 -0.0654
  838MOL0     H15580   9.394   3.436   5.751 -0.2552  0.1766  0.1772
  838MOL0     H15581   9.434   3.262   5.548  0.6013 -1.2653  1.7137
  838MOL0     H15582   9.507   3.408   5.463 -0.5546 -0.6117 -1.2650
  838MOL0     H15583   9.641   3.436   5.694  0.6032 -1.1919  0.5065
  838MOL0     H15584   9.615   3.264   5.687  4.4818 -2.1867 -0.7353
  838MOL0     H15585   9.745   3.402   5.463  3.5527  1.9166  2.1096
  838MOL0     H15586   9.704   3.228   5.476  0.3978  0.4824  0.8791
  838MOL0     H15587   9.875   3.382   5.665 -2.4552 -0.7051  1.6881
  838MOL0     H15588   9.847   3.207   5.665  3.5892 -2.6393 -2.2217
  838MOL0     H15589   9.985   3.375   5.440  1.8685  1.6353  2.0660
  838MOL0     H15590   9.971   3.198   5.427  0.9289 -0.2662 -0.1300
  838MOL0     H15591  10.084   3.210   5.673 -0.3270  1.4643 -0.2832
  838MOL0     H15592  10.162   3.187   5.517 -1.4939 -1.6994  0.2451
  838MOL0     H15593  10.305   3.400   5.422  0.8245  1.8583  0.4130
  838MOL0     H15594  10.475   3.697   5.555 -1.2964  0.8227 -1.3691
  838MOL0     H15595  10.453   3.603   5.424 -1.5033  2.2118  0.0540
  838MOL0     H15596  10.591   3.543   5.686  0.5778  1.1629  0.7810
  838MOL0     H15597  10.576   3.410   5.569  3.1628 -0.2240 -0.5680
  838MOL0     H15598  10.721   3.515   5.399 -1.4976  0.8965 -1.2974
  838MOL0     H15599  10.709   3.674   5.473 -1.1603 -0.2055 -0.5431
  838MOL0     H15600  10.913   3.584   5.509  0.2283 -0.0906 -0.2605
  838MOL0     H15601  10.838   3.592   5.669  0.8973 -0.0304 -0.0088
  838MOL0     H15602  10.954   3.154   5.663  1.3578 -2.1808  1.0798
  838MOL0     H15603  11.082   2.984   5.759  1.1653 -0.0592 -0.3778
  838MOL0     H15604  11.228   3.024   5.857 -0.5112 -1.2445  0.2739
  838MOL0     H15605  11.243   2.995   5.689 -0.2965  0.4290 -0.8261
  838MOL0     H15606  11.531   3.115   6.024  0.6530  0.1706 -0.1228
  838MOL0     H15607  11.727   3.080   6.124 -1.6027 -1.3539 -2.4257
  838MOL0     H15608  11.997   3.207   6.373 -1.3162 -0.3615  1.0633
  838MOL0     H15609  11.860   3.123   6.304  0.4372 -0.2375 -0.9819
  838MOL0     H15610  12.072   3.013   6.248 -0.9080 -0.6328 -0.2018
  838MOL0     H15611  12.015   3.076   6.089  4.9968  0.3513 -2.5650
  838MOL0     H15612  12.155   3.273   6.122 -0.9583 -0.1659 -1.3185
  838MOL0     H15613  12.251   3.123   6.110 -0.3771 -1.1610  0.7398
  838MOL0     H15614  12.272   3.100   6.351 -1.3490  0.3689  0.4308
  838MOL0     H15615  12.187   3.254   6.382  0.6868  0.7853  0.1652
  838MOL0     H15616  12.431   3.264   6.401  3.3935 -4.1922 -1.2676
  838MOL0     H15617  12.440   3.227   6.229 -1.4992 -1.5171 -0.1124
  838MOL0     H15618  12.293   3.465   6.371 -4.1564 -2.5703 -0.9525
  838MOL0     H15619  12.297   3.441   6.194 -0.4746 -1.6235  0.1674
  838MOL0     H15620  12.544   3.447   6.186 -1.0252 -0.6285 -0.3490
  838MOL0     H15621  12.539   3.452   6.366  1.4286  0.7268 -0.1387
  838MOL0     H15622  12.407   3.673   6.203  0.2872  1.7306  0.2786
  838MOL0     H15623  12.582   3.678   6.243 -1.7853  2.0299 -2.8822
  838MOL0     H15624  11.818   3.496   6.121 -0.0863 -0.8416  1.3425
  838MOL0     H15625  11.629   3.544   5.971 -1.9522  0.3318  0.4001
  838MOL0     H15626  11.276   3.507   5.799 -0.7730  0.8818 -0.3582
  838MOL0     H15627  11.075   3.563   5.701  0.8992  0.3909  2.7553
  838MOL0     H15628   9.073   3.492   5.397 -2.1994  1.9822  2.1649
  838MOL0     H15629   8.830   3.452   5.312 -1.7711 -1.9062  0.2800
  838MOL0     H15630   8.484   3.376   5.237  0.8181  0.0918 -0.8797
  838MOL0     H15631   8.329   3.305   5.038  2.0375  1.6805  0.1091
  838MOL0     H15632   8.017   3.077   4.947  1.7949  2.7426 -1.8415
  838MOL0     H15633   8.016   3.032   5.121  0.1131 -1.8721 -1.6189
  838MOL0     H15634   7.976   3.299   4.963 -2.0512  0.8235 -0.0263
  838MOL0     H15635   8.077   3.311   5.096  1.6661 -2.1591 -1.0630
  838MOL0     H15636   7.906   3.211   5.245  0.8575 -1.1461  0.2995
  838MOL0     H15637   7.853   3.361   5.175 -0.6854 -0.2025 -1.0040
  838MOL0     H15638   7.665   3.221   5.158 -1.2346  0.9081  0.0788
  838MOL0     H15639   7.763   3.095   5.087 -0.9999  0.9622  0.7941
  838MOL0     H15640   7.686   3.326   4.741  1.9861  1.0974  0.7491
  838MOL0     H15641   8.217   2.968   5.240  0.5387 -0.3467  2.1216
  838MOL0     H15642   8.470   2.899   5.443  0.8997  2.2707 -0.9788
  838MOL0     H15643   8.372   3.007   5.543 -0.1318 -1.4073  0.2249
  838MOL0     H15644   8.300   2.887   5.431 -0.1626  0.6711 -1.6104
  839MOL0     O15645  10.674   3.176   9.098 -0.2192  0.3975  0.2014
  839MOL0     C15646  10.559   3.154   9.135  0.2642 -1.0558  0.5199
  839MOL0     O15647  10.528   3.121   9.267  0.6236  0.4905 -0.0555
  839MOL0     C15648  10.608   3.034   9.339 -0.2155  0.1567 -0.6942
  839MOL0     C15649  10.733   3.074   9.376 -0.5327  0.5974 -0.1301
  839MOL0     C15650  10.808   2.985   9.454 -0.6526  0.5184  0.3900
  839MOL0     C15651  10.759   2.861   9.499  1.0335 -0.3063  0.0412
  839MOL0     O15652  10.850   2.772   9.551  0.5112 -0.2432 -0.3698
  839MOL0     C15653  10.800   2.642   9.569  0.6597 -0.7197  0.1723
  839MOL0     C15654  10.915   2.556   9.624  0.2816 -0.6991  0.0623
  839MOL0     C15655  11.035   2.549   9.522  0.2461  0.0702  0.1173
  839MOL0     C15656  11.131   2.456   9.587 -0.3561 -0.2007 -0.4842
  839MOL0     C15657  11.257   2.438   9.499 -0.2726  0.4103 -0.1551
  839MOL0     C15658  11.336   2.329   9.570 -0.4736 -0.5681  0.1590
  839MOL0     C15659  11.488   2.327   9.533 -0.2429 -0.8113  0.1987
  839MOL0     C15660  11.502   2.317   9.381 -0.1208 -0.1067 -0.7536
  839MOL0     N15661  11.642   2.285   9.334  0.6473 -0.3474  0.0882
  839MOL0     C15662  11.681   2.153   9.332 -0.3532  0.6610  0.2260
  839MOL0     C15663  11.806   2.162   9.274  0.6390 -0.2135  0.1562
  839MOL0     C15664  11.901   2.050   9.279  0.6776 -0.1007  0.0755
  839MOL0     C15665  11.927   1.981   9.150  0.2023 -0.3933 -1.0119
  839MOL0     C15666  12.036   1.869   9.172  0.3600 -0.2440  0.0460
  839MOL0     C15667  12.091   1.819   9.036  0.6029 -0.1860  0.3827
  839MOL0     O15668  12.137   1.686   9.066 -0.0535 -0.3061  0.2660
  839MOL0     C15669  12.272   1.666   9.033 -0.4808  0.3066 -0.2338
  839MOL0     C15670  12.315   1.554   8.961 -0.4606  0.0139 -0.2027
  839MOL0     C15671  12.448   1.533   8.918 -0.0295 -0.4289  0.1423
  839MOL0     C15672  12.482   1.411   8.840  0.0396 -0.3624 -0.4393
  839MOL0     C15673  12.543   1.633   8.956  0.0917 -0.0431 -0.5142
  839MOL0     C15674  12.684   1.635   8.911 -1.0604  0.0825  0.2893
  839MOL0     O15675  12.781   1.686   8.989  0.2192 -0.2819 -0.1142
  839MOL0     C15676  12.917   1.659   8.967 -0.1951  0.3880 -0.6024
  839MOL0     C15677  13.006   1.752   9.018 -0.1857 -0.3148 -0.3643
  839MOL0     C15678  13.147   1.721   9.009  0.8953 -0.3071  0.3669
  839MOL0     C15679  13.193   1.610   8.945  0.0514  0.2032 -0.6256
  839MOL0     O15680  13.327   1.589   8.911 -0.9906 -0.2381 -0.1304
  839MOL0     C15681  13.430   1.690   8.938 -0.6114  0.4360 -0.2414
  839MOL0     C15682  13.561   1.622   8.891  0.5016 -0.1895  0.3763
  839MOL0     C15683  13.563   1.580   8.739 -0.3372  0.3477  0.3669
  839MOL0     C15684  13.710   1.550   8.710  0.7034 -0.0807  0.0484
  839MOL0     C15685  13.797   1.673   8.684  0.7824  1.1866  0.1151
  839MOL0     C15686  13.943   1.623   8.668  0.6494 -0.2071 -0.1386
  839MOL0     C15687  14.046   1.737   8.656 -0.8360  0.0596  0.2319
  839MOL0     C15688  14.188   1.674   8.634  0.8703 -0.2641  0.0484
  839MOL0    Cl15689  14.320   1.788   8.625  0.3113 -0.2062  0.2396
  839MOL0     C15690  13.104   1.519   8.888  0.0725  0.0406 -0.0886
  839MOL0     C15691  12.965   1.538   8.905  0.2902  0.4387 -0.3143
  839MOL0     O15692  12.707   1.591   8.798 -0.5074 -0.5701 -0.3990
  839MOL0     C15693  12.501   1.734   9.045  0.2409  0.1227 -0.4177
  839MOL0     C15694  12.367   1.753   9.078 -0.4888 -0.9152  0.2661
  839MOL0     N15695  11.826   2.292   9.230  0.1746 -0.1879  0.1930
  839MOL0     N15696  11.723   2.359   9.258 -0.5886  0.1099  0.5326
  839MOL0     C15697  10.628   2.837   9.462 -0.1780  0.2817  0.4851
  839MOL0     C15698  10.550   2.918   9.389  0.5749 -0.4977 -0.2576
  839MOL0     C15699  10.445   3.170   9.036  0.0936 -0.8502  0.4756
  839MOL0     C15700  10.472   3.154   8.895 -1.1185 -0.1083  0.4529
  839MOL0     C15701  10.380   3.179   8.800 -0.3817 -0.4499 -0.5430
  839MOL0     C15702  10.245   3.204   8.836  0.6067  0.2743  0.1645
  839MOL0     O15703  10.144   3.221   8.744  0.3284 -0.8341  0.0241
  839MOL0     C15704  10.069   3.104   8.699 -0.1629  0.2018  0.5110
  839MOL0     C15705  10.153   3.013   8.611 -0.2745 -0.2635 -0.2389
  839MOL0     C15706  10.087   2.888   8.562  1.0367  0.0953 -0.3128
  839MOL0     C15707   9.981   2.909   8.442  0.5807 -0.3845  0.3765
  839MOL0     C15708   9.946   2.772   8.395  0.2175  0.1990  0.7827
  839MOL0     C15709   9.916   2.663   8.357  0.6157  0.2845 -0.1307
  839MOL0     C15710  10.215   3.213   8.973 -1.0672 -0.5906 -0.0725
  839MOL0     C15711  10.306   3.182   9.071 -0.0354  0.6845 -0.1857
  839MOL0     C15712  10.252   3.184   9.218 -0.7268  0.2665  0.5152
  839MOL0     H15713  10.778   3.164   9.337 -0.3022 -0.9688 -3.9098
  839MOL0     H15714  10.910   3.007   9.484 -0.7017  0.1159  0.8752
  839MOL0     H15715  10.758   2.607   9.475 -2.6153  2.6275  0.1656
  839MOL0     H15716  10.711   2.633   9.632 -2.0659 -0.3346 -3.2991
  839MOL0     H15717  10.947   2.605   9.717  0.0894 -1.3307  0.4706
  839MOL0     H15718  10.885   2.456   9.659  0.3036  0.1966  2.9306
  839MOL0     H15719  10.999   2.514   9.425 -0.1109 -0.9140  0.5839
  839MOL0     H15720  11.072   2.650   9.504  0.0820 -0.1974 -1.8898
  839MOL0     H15721  11.164   2.491   9.685 -0.9377  1.3960 -0.8314
  839MOL0     H15722  11.081   2.360   9.603  1.5677 -0.7874  2.8642
  839MOL0     H15723  11.310   2.534   9.503  0.7909 -0.2078  1.4407
  839MOL0     H15724  11.240   2.409   9.395  1.9625 -2.4223  0.1654
  839MOL0     H15725  11.328   2.347   9.678  2.1902  2.8004 -0.0334
  839MOL0     H15726  11.295   2.229   9.555 -0.3689 -0.6976  0.7318
  839MOL0     H15727  11.536   2.242   9.583 -0.2511 -0.2827  1.1300
  839MOL0     H15728  11.551   2.412   9.561  0.2154 -0.7759 -0.9255
  839MOL0     H15729  11.436   2.231   9.363 -1.2105 -0.0673  2.4790
  839MOL0     H15730  11.467   2.404   9.324  0.7930  0.0951 -1.0246
  839MOL0     H15731  11.645   2.067   9.387  0.6826 -1.0443 -1.5829
  839MOL0     H15732  11.869   1.968   9.344 -0.9677  0.3603 -0.1100
  839MOL0     H15733  11.995   2.097   9.309 -0.3330  2.5740 -0.7031
  839MOL0     H15734  11.839   1.928   9.112  0.2564 -2.7850  1.8530
  839MOL0     H15735  11.950   2.059   9.076 -4.5273  2.1277 -0.1853
  839MOL0     H15736  12.115   1.909   9.236 -0.5332  0.0692  0.9869
  839MOL0     H15737  11.999   1.783   9.229  1.1480  0.1049  1.1119
  839MOL0     H15738  12.012   1.805   8.962  0.9375 -2.2909  0.3491
  839MOL0     H15739  12.170   1.882   8.995  4.2394 -3.6639  1.3621
  839MOL0     H15740  12.247   1.471   8.941 -1.3836  0.5013  0.7859
  839MOL0     H15741  12.556   1.352   8.895  0.1895  1.2381  1.1739
  839MOL0     H15742  12.533   1.454   8.753  0.9968  2.3685  1.3281
  839MOL0     H15743  12.400   1.345   8.812  0.6022 -1.8771  1.2944
  839MOL0     H15744  12.954   1.827   9.077  0.6394 -0.2758  0.3352
  839MOL0     H15745  13.220   1.785   9.058  2.2354 -1.9418  0.6087
  839MOL0     H15746  13.400   1.781   8.884  1.5126  1.2556 -0.1403
  839MOL0     H15747  13.442   1.710   9.044  1.6666 -0.8959 -0.1984
  839MOL0     H15748  13.638   1.698   8.907  0.2328 -0.1832  1.7856
  839MOL0     H15749  13.587   1.533   8.948  1.6140 -2.4119 -3.2898
  839MOL0     H15750  13.518   1.656   8.674 -1.5813 -0.9948 -0.4006
  839MOL0     H15751  13.511   1.486   8.718 -0.5861  0.5911 -0.1185
  839MOL0     H15752  13.721   1.492   8.618 -0.5098  0.5926 -0.5375
  839MOL0     H15753  13.755   1.494   8.793  1.1282  1.0247  0.5844
  839MOL0     H15754  13.765   1.696   8.582 -1.2917  1.5338  0.7931
  839MOL0     H15755  13.782   1.754   8.756 -2.7706  0.1478  0.7417
  839MOL0     H15756  13.941   1.547   8.589 -1.2395 -3.0502  2.4494
  839MOL0     H15757  13.976   1.567   8.756  0.5347 -0.9367 -0.5563
  839MOL0     H15758  14.053   1.794   8.750  4.2384 -0.2866  0.2965
  839MOL0     H15759  14.026   1.805   8.573 -1.7231 -1.5113 -0.8833
  839MOL0     H15760  14.183   1.625   8.536 -2.0320 -0.4745  0.2002
  839MOL0     H15761  14.223   1.599   8.705 -0.1140 -1.9557 -1.1610
  839MOL0     H15762  13.142   1.431   8.838  2.4867 -0.3083  2.1498
  839MOL0     H15763  12.887   1.470   8.871  1.2400 -0.6229 -0.4686
  839MOL0     H15764  12.566   1.811   9.085  1.0343  0.0383 -1.5004
  839MOL0     H15765  12.331   1.830   9.146  0.5091  0.9616 -1.2373
  839MOL0     H15766  10.585   2.748   9.505  1.1327 -0.2191  0.7850
  839MOL0     H15767  10.448   2.895   9.360  0.8780 -0.0409 -1.7588
  839MOL0     H15768  10.576   3.134   8.874 -1.3949  0.7797 -1.9966
  839MOL0     H15769  10.406   3.175   8.695  0.3436  2.0723 -0.5238
  839MOL0     H15770  10.020   3.057   8.784  1.2912  1.5684  2.1791
  839MOL0     H15771   9.992   3.144   8.632 -0.6617 -0.5607  0.6209
  839MOL0     H15772  10.240   2.988   8.672  0.3566  3.1872  0.5322
  839MOL0     H15773  10.177   3.070   8.521 -2.0982  1.1037  0.0707
  839MOL0     H15774  10.174   2.826   8.539  1.8102  0.6436  1.0158
  839MOL0     H15775  10.029   2.844   8.644  0.0330  2.1558  0.1584
  839MOL0     H15776  10.037   2.955   8.360  2.3279 -2.1163  0.5368
  839MOL0     H15777   9.898   2.975   8.468  2.8259  2.2196  1.5233
  839MOL0     H15778   9.880   2.565   8.333  0.7025  0.6341 -1.8395
  839MOL0     H15779  10.110   3.230   8.998 -1.5850 -1.6033 -1.4217
  839MOL0     H15780  10.282   3.093   9.272  2.2200  1.0610  0.3784
  839MOL0     H15781  10.287   3.278   9.263 -3.8180  1.2844  0.9954
  839MOL0     H15782  10.143   3.187   9.212 -0.7048  0.4770  0.2338
  840MOL0     O15783   7.300   5.204   3.518 -0.8141  1.2085  0.3501
  840MOL0     C15784   7.424   5.206   3.525  0.0291 -0.5653  0.7146
  840MOL0     O15785   7.490   5.151   3.626  0.4116  0.2205 -0.7559
  840MOL0     C15786   7.431   5.067   3.721 -0.3131  0.1482 -0.0502
  840MOL0     C15787   7.525   5.008   3.812 -0.4185 -0.1662 -0.5474
  840MOL0     C15788   7.491   4.943   3.927  1.4471  0.3815  0.0321
  840MOL0     C15789   7.356   4.909   3.944  0.0590 -1.2833  0.5660
  840MOL0     O15790   7.297   4.840   4.048 -0.0484 -0.3465  0.8459
  840MOL0     C15791   7.378   4.759   4.131 -0.0777 -0.6984 -0.1870
  840MOL0     C15792   7.308   4.664   4.227  0.1914  0.3416 -0.3480
  840MOL0     C15793   7.234   4.740   4.338 -0.3665 -0.1152  1.0233
  840MOL0     C15794   7.160   4.638   4.425 -0.5147  0.0779 -0.3099
  840MOL0     C15795   7.071   4.704   4.526  0.2513 -0.2211  0.0859
  840MOL0     C15796   7.011   4.601   4.620 -0.7487 -0.2694  0.3529
  840MOL0     C15797   6.885   4.661   4.693 -0.2153 -0.0297 -0.4126
  840MOL0     C15798   6.902   4.795   4.765 -0.3854 -0.8077 -0.7095
  840MOL0     N15799   6.992   4.791   4.882 -1.1194 -0.1656 -0.1209
  840MOL0     C15800   6.967   4.720   5.000  0.2885 -0.7505 -0.1748
  840MOL0     C15801   7.083   4.738   5.065  0.0085 -0.4329 -0.2126
  840MOL0     C15802   7.106   4.676   5.198 -0.2495 -0.5382  0.6631
  840MOL0     C15803   7.146   4.781   5.310  0.1758 -0.0630 -0.4644
  840MOL0     C15804   7.042   4.894   5.326 -0.5554 -0.0940 -0.6806
  840MOL0     C15805   6.898   4.853   5.349 -0.0737 -0.6333 -0.1995
  840MOL0     O15806   6.830   4.822   5.227  0.0088 -0.8243  1.1530
  840MOL0     C15807   6.700   4.776   5.230 -0.4229 -0.0038  0.0181
  840MOL0     C15808   6.638   4.740   5.347  0.1740  0.5014 -1.0447
  840MOL0     C15809   6.506   4.693   5.352  0.5340  0.0419  0.0586
  840MOL0     C15810   6.446   4.679   5.490 -0.8735 -0.4850  0.0735
  840MOL0     C15811   6.439   4.675   5.223  0.1764 -0.6983 -0.4159
  840MOL0     C15812   6.305   4.616   5.203 -0.3725  0.5065  0.6254
  840MOL0     O15813   6.256   4.623   5.073  0.0162 -0.2644  0.0646
  840MOL0     C15814   6.141   4.564   5.032  0.5219  0.6572 -0.8440
  840MOL0     C15815   6.016   4.559   5.102 -0.1892  0.4531  0.4926
  840MOL0     C15816   5.899   4.500   5.050  0.7472  0.3851 -0.1306
  840MOL0     C15817   5.908   4.456   4.920  0.8952  0.3683 -0.5552
  840MOL0     O15818   5.799   4.410   4.845 -0.2052 -0.2972  0.0331
  840MOL0     C15819   5.674   4.414   4.919 -0.3786 -0.2358  0.3369
  840MOL0     C15820   5.571   4.326   4.837 -1.0911 -0.1659 -0.3658
  840MOL0     C15821   5.421   4.352   4.879  0.0888 -0.0168  1.2556
  840MOL0     C15822   5.378   4.343   5.027 -0.3315 -0.1888 -0.2446
  840MOL0     C15823   5.382   4.193   5.073  0.3626  0.7104 -0.1228
  840MOL0     C15824   5.308   4.177   5.208 -0.0033  0.1859 -0.1847
  840MOL0     C15825   5.347   4.040   5.269  0.3421 -0.0139  0.3860
  840MOL0     C15826   5.285   4.004   5.406 -0.7784 -0.9205 -0.2606
  840MOL0    Cl15827   5.117   4.008   5.410  0.3494  0.1970 -0.2978
  840MOL0     C15828   6.032   4.445   4.856 -0.1712  0.6116 -0.4474
  840MOL0     C15829   6.148   4.496   4.909  0.0133 -0.6984  0.0555
  840MOL0     O15830   6.256   4.557   5.300  0.4579  0.0756  0.5991
  840MOL0     C15831   6.514   4.708   5.102  0.6941 -0.4765 -0.3113
  840MOL0     C15832   6.640   4.767   5.109 -0.0362  0.3526 -0.7234
  840MOL0     N15833   7.175   4.808   4.993  0.8424 -0.1169 -0.2278
  840MOL0     N15834   7.112   4.852   4.883 -0.1114 -0.1167 -0.1243
  840MOL0     C15835   7.265   4.946   3.845  0.4582  0.2504  1.0587
  840MOL0     C15836   7.299   5.029   3.741  0.5468  0.8086  0.6816
  840MOL0     C15837   7.507   5.300   3.430 -0.8272  0.3900  0.0245
  840MOL0     C15838   7.635   5.338   3.472 -0.0954  0.4489  0.1873
  840MOL0     C15839   7.720   5.422   3.391  0.3154 -0.5546 -0.3110
  840MOL0     C15840   7.671   5.472   3.266  0.5283  0.0943  0.1900
  840MOL0     O15841   7.752   5.539   3.178  1.1382 -0.0396  0.3174
  840MOL0     C15842   7.860   5.614   3.244  0.2285 -0.1265  0.6763
  840MOL0     C15843   7.930   5.709   3.149 -0.2877  0.6336  0.3016
  840MOL0     C15844   8.027   5.811   3.226  1.4189  0.4728 -0.4883
  840MOL0     C15845   7.961   5.901   3.330  0.4047 -0.3436 -0.0549
  840MOL0     C15846   8.025   6.036   3.340 -0.1261  0.5447  0.2829
  840MOL0     C15847   8.070   6.146   3.345  0.9491  0.2061 -0.1461
  840MOL0     C15848   7.546   5.424   3.223  0.2430  0.6416  0.3944
  840MOL0     C15849   7.457   5.346   3.307 -0.0265 -0.7839  1.0071
  840MOL0     C15850   7.312   5.322   3.249 -0.4297 -0.2182 -0.2796
  840MOL0     H15851   7.632   5.018   3.798  0.1453 -3.4408  0.4436
  840MOL0     H15852   7.559   4.895   3.997  1.4654 -1.1406 -1.0002
  840MOL0     H15853   7.437   4.833   4.186 -1.4653  0.1421  0.2310
  840MOL0     H15854   7.443   4.691   4.075  0.8587 -0.4148  0.5254
  840MOL0     H15855   7.236   4.603   4.172  0.3429  0.8850 -1.1786
  840MOL0     H15856   7.384   4.605   4.279 -0.3906  0.0772  0.2052
  840MOL0     H15857   7.304   4.791   4.404 -1.9084  0.5024  2.2383
  840MOL0     H15858   7.170   4.813   4.288  0.2663  2.6393  3.9166
  840MOL0     H15859   7.092   4.582   4.360 -2.7665  3.1507 -0.8752
  840MOL0     H15860   7.225   4.562   4.467  0.8137  0.0492 -2.2663
  840MOL0     H15861   6.985   4.741   4.469  0.2421 -1.0644 -0.4654
  840MOL0     H15862   7.122   4.784   4.581 -1.4652  1.6159 -0.8857
  840MOL0     H15863   6.992   4.506   4.569 -0.7078 -0.7994  1.3105
  840MOL0     H15864   7.090   4.582   4.693 -1.9543  0.2110  1.8325
  840MOL0     H15865   6.846   4.597   4.772  3.3629 -1.1537  0.6241
  840MOL0     H15866   6.808   4.675   4.616  1.4712 -0.7057 -2.2912
  840MOL0     H15867   6.942   4.861   4.687  1.1873 -1.8878 -0.8643
  840MOL0     H15868   6.799   4.822   4.792  0.7030  0.5541  2.5322
  840MOL0     H15869   6.884   4.661   5.039  0.4679  0.7199  2.7251
  840MOL0     H15870   7.191   4.615   5.167  0.2789  2.0222 -3.6470
  840MOL0     H15871   7.019   4.620   5.236  0.2473 -0.3609  2.1454
  840MOL0     H15872   7.153   4.732   5.408  1.3387 -0.3550 -0.6826
  840MOL0     H15873   7.249   4.813   5.294  0.4569 -0.2339  0.8638
  840MOL0     H15874   7.067   4.945   5.419 -0.0814 -1.7630  0.1456
  840MOL0     H15875   7.056   4.962   5.242 -0.3001  1.2735  0.4333
  840MOL0     H15876   6.895   4.772   5.422 -1.0808  0.9775  1.6131
  840MOL0     H15877   6.854   4.941   5.395  0.7467 -0.3491  0.0613
  840MOL0     H15878   6.681   4.747   5.446 -1.6151  0.4542 -0.2291
  840MOL0     H15879   6.470   4.582   5.535 -1.2814 -0.1774  0.9775
  840MOL0     H15880   6.338   4.693   5.501 -0.6084  1.0363  1.0137
  840MOL0     H15881   6.492   4.753   5.556  0.1931 -0.5055 -0.6300
  840MOL0     H15882   6.002   4.598   5.202  0.3354  0.8446  0.4174
  840MOL0     H15883   5.815   4.497   5.117  0.0572  1.4715 -0.9219
  840MOL0     H15884   5.683   4.380   5.022 -0.0256 -0.1882  0.3261
  840MOL0     H15885   5.628   4.512   4.910  1.9508  0.9581  0.7809
  840MOL0     H15886   5.577   4.355   4.731 -0.3822 -0.2201 -0.3438
  840MOL0     H15887   5.584   4.219   4.853  1.3831 -0.0105 -0.9755
  840MOL0     H15888   5.360   4.277   4.828  1.0950 -0.8807  1.2937
  840MOL0     H15889   5.398   4.451   4.838  3.3206  0.4607  0.3348
  840MOL0     H15890   5.275   4.379   5.017 -0.3390  0.3544  1.4766
  840MOL0     H15891   5.428   4.406   5.101 -0.3709  2.5033 -2.3438
  840MOL0     H15892   5.345   4.127   4.994 -0.3406 -0.0543  0.8304
  840MOL0     H15893   5.484   4.155   5.086 -1.1076 -3.1494  1.3582
  840MOL0     H15894   5.201   4.179   5.183  0.1706  0.1877 -0.9348
  840MOL0     H15895   5.325   4.262   5.275 -0.9893 -0.3998  0.8672
  840MOL0     H15896   5.455   4.034   5.286  0.5710  1.5952 -0.3541
  840MOL0     H15897   5.314   3.966   5.195  1.1092  0.8775 -0.8864
  840MOL0     H15898   5.321   4.070   5.484 -2.6282  0.5907 -0.6154
  840MOL0     H15899   5.318   3.904   5.435 -0.2291 -1.0797 -1.3685
  840MOL0     H15900   6.033   4.408   4.754  2.6896 -1.1311  0.1055
  840MOL0     H15901   6.242   4.502   4.856  0.9851  0.1477  1.7960
  840MOL0     H15902   6.477   4.679   5.004  0.3721 -1.4097  0.0719
  840MOL0     H15903   6.687   4.805   5.019 -0.1036 -0.9833 -1.3598
  840MOL0     H15904   7.159   4.926   3.858  0.2455 -0.5627 -1.4001
  840MOL0     H15905   7.222   5.045   3.666 -0.5967 -0.1963  1.5944
  840MOL0     H15906   7.682   5.310   3.566  1.1309  1.2881 -0.1475
  840MOL0     H15907   7.821   5.449   3.422 -0.5665  2.4224  0.3545
  840MOL0     H15908   7.820   5.671   3.328 -0.3758  0.8639 -0.2644
  840MOL0     H15909   7.930   5.540   3.285  0.7868  0.4637  0.8088
  840MOL0     H15910   7.857   5.761   3.086 -1.2815 -0.1617  0.7574
  840MOL0     H15911   7.986   5.655   3.072  0.1106  2.6320 -0.8710
  840MOL0     H15912   8.122   5.773   3.265  0.0421 -3.1978 -0.2917
  840MOL0     H15913   8.048   5.887   3.150  0.2569  1.4776  0.1625
  840MOL0     H15914   7.950   5.849   3.426 -1.8033 -0.0489 -0.0868
  840MOL0     H15915   7.859   5.921   3.297  0.9153 -0.5527 -1.8299
  840MOL0     H15916   8.100   6.248   3.358  2.6262 -0.3788  0.8835
  840MOL0     H15917   7.512   5.467   3.129  1.5444 -1.2298 -0.9862
  840MOL0     H15918   7.310   5.348   3.143 -0.6564 -0.0244 -0.2286
  840MOL0     H15919   7.274   5.222   3.275  0.7324  0.0912  3.0718
  840MOL0     H15920   7.240   5.386   3.299  2.2515  0.6479  2.8011
  841MOL0     O15921   3.787   2.740   1.562  0.2555 -0.5000  0.1001
  841MOL0     C15922   3.779   2.867   1.577 -0.2595  0.2620  0.1864
  841MOL0     O15923   3.815   2.958   1.476  0.8011 -0.3920 -0.7754
  841MOL0     C15924   3.848   2.900   1.357  0.0543 -1.0009 -0.4866
  841MOL0     C15925   3.744   2.882   1.259 -0.5869  0.1389 -0.3440
  841MOL0     C15926   3.771   2.811   1.140 -0.6318 -0.1679 -0.4452
  841MOL0     C15927   3.893   2.749   1.122 -0.9248  0.0391  0.7470
  841MOL0     O15928   3.918   2.674   1.007 -0.9336 -0.2305 -0.0569
  841MOL0     C15929   3.871   2.725   0.875  0.1471  0.1636  0.4212
  841MOL0     C15930   3.950   2.663   0.756 -0.2250  0.2553 -0.3659
  841MOL0     C15931   4.090   2.718   0.765  0.0556  0.4557 -0.1420
  841MOL0     C15932   4.194   2.636   0.680 -0.1936  0.3616 -0.2149
  841MOL0     C15933   4.337   2.628   0.720 -0.3636 -0.3369  0.4013
  841MOL0     C15934   4.410   2.557   0.606 -0.3311  0.4647 -0.1071
  841MOL0     C15935   4.563   2.561   0.628 -0.3822  0.4587 -0.2545
  841MOL0     C15936   4.638   2.695   0.628  0.5026 -0.0793 -0.2366
  841MOL0     N15937   4.779   2.679   0.655  0.5106  0.8780 -0.0982
  841MOL0     C15938   4.837   2.612   0.754  0.1023  0.3522  1.5599
  841MOL0     C15939   4.972   2.615   0.716 -0.0845  0.9281  0.2493
  841MOL0     C15940   5.082   2.556   0.805  0.1206 -0.2964  0.7251
  841MOL0     C15941   5.215   2.527   0.728 -0.7370 -1.0858 -1.0587
  841MOL0     C15942   5.308   2.485   0.846 -0.2738 -0.0543  0.1635
  841MOL0     C15943   5.440   2.439   0.785 -0.5467 -0.3034 -0.4366
  841MOL0     O15944   5.521   2.400   0.899 -0.2621  0.7516 -0.4283
  841MOL0     C15945   5.644   2.349   0.868 -0.2483 -0.4073  0.0712
  841MOL0     C15946   5.668   2.217   0.848  0.5347  0.6168 -0.2322
  841MOL0     C15947   5.805   2.172   0.843 -0.4455 -0.4777  0.3076
  841MOL0     C15948   5.834   2.023   0.832 -0.8356 -0.5012 -0.1085
  841MOL0     C15949   5.910   2.266   0.850 -0.3385  0.9396  0.2896
  841MOL0     C15950   6.067   2.234   0.843 -0.4226 -0.0741  1.3998
  841MOL0     O15951   6.160   2.341   0.830  0.6889 -0.0542  0.2157
  841MOL0     C15952   6.290   2.327   0.818  0.1679 -0.2581 -1.4004
  841MOL0     C15953   6.348   2.394   0.707  0.5292  0.7817 -0.2072
  841MOL0     C15954   6.486   2.374   0.684 -0.6771  0.4967  0.3973
  841MOL0     C15955   6.567   2.297   0.769  1.0792  0.4008  0.4711
  841MOL0     O15956   6.697   2.270   0.741 -0.0387  0.6266  0.0193
  841MOL0     C15957   6.714   2.138   0.690 -0.2074  0.3854  0.2015
  841MOL0     C15958   6.839   2.063   0.756  0.3564 -1.3260  0.3580
  841MOL0     C15959   6.958   2.130   0.683  0.1016  0.3084 -0.6723
  841MOL0     C15960   7.089   2.065   0.725 -0.5822  0.5544  0.0483
  841MOL0     C15961   7.209   2.097   0.632 -0.2329  0.1188 -0.3772
  841MOL0     C15962   7.339   2.057   0.697  0.1568  0.5478  0.7441
  841MOL0     C15963   7.457   2.065   0.606  0.4624  0.4750  1.3906
  841MOL0     C15964   7.584   2.020   0.671  0.0864 -0.0475 -0.2081
  841MOL0    Cl15965   7.690   2.015   0.536  0.6413  0.3630 -0.1842
  841MOL0     C15966   6.508   2.232   0.879 -0.3499  0.8740 -0.2882
  841MOL0     C15967   6.371   2.238   0.895 -0.4453 -0.6905  0.0719
  841MOL0     O15968   6.101   2.114   0.850  0.4699 -0.7412 -0.3815
  841MOL0     C15969   5.876   2.402   0.854 -0.5273  0.0406  0.4791
  841MOL0     C15970   5.748   2.440   0.871  0.3076  0.2109  0.0179
  841MOL0     N15971   4.991   2.682   0.598  0.4342 -0.1555 -0.1340
  841MOL0     N15972   4.871   2.724   0.563 -0.1656 -0.0898 -0.0083
  841MOL0     C15973   3.991   2.767   1.219  0.1513  0.0487 -0.7891
  841MOL0     C15974   3.974   2.848   1.331 -0.3082 -0.5056 -0.8612
  841MOL0     C15975   3.728   2.923   1.693 -0.1511  0.2647  0.1518
  841MOL0     C15976   3.613   2.859   1.739  0.8723  0.8698  0.4319
  841MOL0     C15977   3.548   2.903   1.850 -0.0479 -0.1492 -0.1203
  841MOL0     C15978   3.591   3.018   1.916  0.1761 -0.2739 -0.6552
  841MOL0     O15979   3.544   3.080   2.029  0.2930  0.0171 -0.7313
  841MOL0     C15980   3.455   3.006   2.113 -0.6173  0.2486  0.0629
  841MOL0     C15981   3.399   3.108   2.217  0.0120 -0.5765  0.1685
  841MOL0     C15982   3.411   3.053   2.360 -0.2149  0.3358  0.8002
  841MOL0     C15983   3.293   3.101   2.457  0.0186 -0.2795  0.8883
  841MOL0     C15984   3.305   3.027   2.581 -0.1797  1.0017  0.7010
  841MOL0     C15985   3.308   2.962   2.685  1.3555 -0.3737 -0.3644
  841MOL0     C15986   3.710   3.078   1.881 -0.3948  0.0189  0.8347
  841MOL0     C15987   3.780   3.033   1.761 -0.6426  0.7497 -0.7429
  841MOL0     C15988   3.910   3.109   1.733 -0.2755  0.4946 -0.0186
  841MOL0     H15989   3.642   2.917   1.268 -0.5707  0.7032 -1.9353
  841MOL0     H15990   3.684   2.810   1.075 -0.0146 -0.8103 -1.2748
  841MOL0     H15991   3.871   2.834   0.873 -0.8516  0.1894  0.9180
  841MOL0     H15992   3.766   2.693   0.865  0.1560  0.1583  0.3437
  841MOL0     H15993   3.955   2.555   0.770  0.1096  0.2258 -0.6752
  841MOL0     H15994   3.914   2.693   0.657  1.9625 -0.6587 -1.5213
  841MOL0     H15995   4.098   2.826   0.746  3.2365  0.5155  0.9611
  841MOL0     H15996   4.131   2.706   0.865 -0.9392 -1.3746  0.0838
  841MOL0     H15997   4.162   2.533   0.695  0.2323  0.5719  2.7258
  841MOL0     H15998   4.185   2.671   0.577  1.1077  3.8018  0.6886
  841MOL0     H15999   4.330   2.570   0.812  0.7719 -0.0326  0.6959
  841MOL0     H16000   4.392   2.721   0.741  1.1657 -1.7235  2.9774
  841MOL0     H16001   4.368   2.456   0.608  0.3031  0.1900  2.1334
  841MOL0     H16002   4.390   2.612   0.514  1.0645  1.2199  0.0244
  841MOL0     H16003   4.604   2.490   0.556 -0.7016  0.3619 -0.3437
  841MOL0     H16004   4.583   2.512   0.724 -1.4340 -0.1248 -0.3222
  841MOL0     H16005   4.615   2.754   0.538  1.6535  1.1573  0.2422
  841MOL0     H16006   4.601   2.758   0.710  0.9973  1.1607 -0.9325
  841MOL0     H16007   4.787   2.570   0.841  0.0199 -1.2880  0.7698
  841MOL0     H16008   5.047   2.455   0.828  3.3194 -1.4429  1.0600
  841MOL0     H16009   5.106   2.619   0.891 -3.9243 -3.1928  4.3953
  841MOL0     H16010   5.207   2.444   0.658 -0.8979 -2.5894  0.6847
  841MOL0     H16011   5.255   2.620   0.686 -0.8900  0.7419  2.4260
  841MOL0     H16012   5.310   2.559   0.927 -2.7239 -2.6002  2.7631
  841MOL0     H16013   5.262   2.396   0.889 -0.7167  0.5194  0.8767
  841MOL0     H16014   5.425   2.353   0.719  1.6653 -1.7839  0.8707
  841MOL0     H16015   5.492   2.519   0.730  4.0084 -1.8207  1.1745
  841MOL0     H16016   5.591   2.141   0.853  0.0579  1.1207  0.2385
  841MOL0     H16017   5.866   1.990   0.931 -0.7345 -1.2654 -0.3880
  841MOL0     H16018   5.900   2.008   0.746  0.3372 -0.6227  0.7933
  841MOL0     H16019   5.742   1.968   0.808 -1.9935  1.0245  0.6910
  841MOL0     H16020   6.287   2.452   0.638  2.4292  1.8781 -1.0349
  841MOL0     H16021   6.540   2.426   0.605 -0.6520  0.4126  0.3593
  841MOL0     H16022   6.639   2.069   0.728  1.2129 -1.0442  0.5208
  841MOL0     H16023   6.727   2.125   0.582  0.4766 -3.4218  0.5808
  841MOL0     H16024   6.838   2.079   0.864  0.2972  1.0234  0.0606
  841MOL0     H16025   6.834   1.956   0.730  3.0766 -1.0953 -1.6131
  841MOL0     H16026   6.968   2.239   0.691  2.3870  0.0225  1.5021
  841MOL0     H16027   6.942   2.127   0.574  3.0298 -1.1676 -1.1537
  841MOL0     H16028   7.093   1.957   0.735  4.1638  0.4655 -0.2917
  841MOL0     H16029   7.110   2.103   0.826 -1.2463 -1.8243  1.1453
  841MOL0     H16030   7.199   2.043   0.538 -0.7686 -1.0457  0.3311
  841MOL0     H16031   7.211   2.204   0.609  2.3817 -0.1801 -1.9430
  841MOL0     H16032   7.331   1.950   0.716  0.8388 -0.2397 -2.7810
  841MOL0     H16033   7.346   2.129   0.780  1.1509  1.5866 -0.2125
  841MOL0     H16034   7.465   2.165   0.564 -1.2269 -1.0216 -3.1239
  841MOL0     H16035   7.425   2.000   0.525 -0.8828  1.5329  1.0346
  841MOL0     H16036   7.576   1.915   0.700  2.5006  0.1584  1.4469
  841MOL0     H16037   7.608   2.081   0.759 -1.3737 -1.0659  0.9312
  841MOL0     H16038   6.574   2.166   0.933 -0.8211  0.1148 -0.6238
  841MOL0     H16039   6.327   2.167   0.964 -0.8644  1.3987  2.1061
  841MOL0     H16040   5.952   2.478   0.846 -0.6364  0.2476  1.3338
  841MOL0     H16041   5.726   2.546   0.882  0.8804  0.2012  1.4629
  841MOL0     H16042   4.079   2.703   1.212 -0.1437 -0.9380  2.6146
  841MOL0     H16043   4.044   2.838   1.414 -1.1535  0.6162  0.0294
  841MOL0     H16044   3.563   2.772   1.699 -1.9788  0.9278  3.4237
  841MOL0     H16045   3.463   2.854   1.896  0.3212  0.1328  0.8920
  841MOL0     H16046   3.371   2.977   2.050 -1.0035  3.5712 -1.1774
  841MOL0     H16047   3.524   2.933   2.157 -0.6431  1.0942  1.5965
  841MOL0     H16048   3.296   3.133   2.191  0.3673 -1.5038 -2.4209
  841MOL0     H16049   3.447   3.206   2.206 -3.0163  1.0362  0.1328
  841MOL0     H16050   3.407   2.943   2.357  2.5707  0.1679  0.5948
  841MOL0     H16051   3.510   3.074   2.401  0.4629  1.5030 -1.2709
  841MOL0     H16052   3.200   3.093   2.399  1.1874  0.6659 -1.2460
  841MOL0     H16053   3.300   3.208   2.479  0.4722 -0.4414  1.5656
  841MOL0     H16054   3.319   2.910   2.778 -0.8738  1.4825  1.0291
  841MOL0     H16055   3.751   3.166   1.930 -0.5057 -0.4528  1.8181
  841MOL0     H16056   3.989   3.046   1.691  1.3407  1.4353  1.4703
  841MOL0     H16057   3.873   3.183   1.661 -1.8198 -1.2446 -1.0891
  841MOL0     H16058   3.942   3.164   1.823 -0.1053  1.0470 -0.4071
  842MOL0     O16059   9.324   2.613   7.241  1.0283 -0.7531 -0.4865
  842MOL0     C16060   9.270   2.717   7.285  0.5776 -0.3172  0.0731
  842MOL0     O16061   9.338   2.815   7.352  0.9396 -0.6092  0.8312
  842MOL0     C16062   9.467   2.793   7.386 -0.4364  0.0933 -0.5124
  842MOL0     C16063   9.575   2.882   7.367  0.7534 -0.1863  0.9517
  842MOL0     C16064   9.705   2.851   7.404  0.5207 -1.2105  0.5532
  842MOL0     C16065   9.737   2.732   7.467  0.1541  0.8517 -0.3933
  842MOL0     O16066   9.857   2.686   7.513  0.4961 -0.5977 -0.0495
  842MOL0     C16067   9.969   2.731   7.437 -0.4631 -0.1934 -0.1526
  842MOL0     C16068  10.086   2.644   7.481 -0.4082 -0.4118  0.5827
  842MOL0     C16069  10.125   2.660   7.638  1.1377 -0.8979  0.0638
  842MOL0     C16070  10.257   2.586   7.673 -0.2840  0.5779 -0.7680
  842MOL0     C16071  10.269   2.569   7.830 -0.6767 -0.7906  0.2835
  842MOL0     C16072  10.377   2.464   7.866  0.5853 -0.0384 -0.2496
  842MOL0     C16073  10.516   2.526   7.868  0.5978 -0.5727 -0.3222
  842MOL0     C16074  10.624   2.426   7.899 -0.8399  1.0512 -0.6488
  842MOL0     N16075  10.688   2.446   8.034  0.6135  0.2936 -0.6034
  842MOL0     C16076  10.726   2.573   8.084 -0.6320  0.3215 -0.0563
  842MOL0     C16077  10.750   2.549   8.215 -0.0946  0.3209 -0.0355
  842MOL0     C16078  10.757   2.656   8.309 -0.6282 -0.5489  0.0249
  842MOL0     C16079  10.904   2.671   8.356 -0.1247 -0.3042  0.2479
  842MOL0     C16080  10.984   2.745   8.257 -0.5580 -0.3951 -0.2464
  842MOL0     C16081  10.939   2.886   8.217 -0.3894 -0.3107 -0.0147
  842MOL0     O16082  10.944   2.969   8.336 -0.3855 -0.1822 -0.3017
  842MOL0     C16083  11.046   3.049   8.362  0.5600 -0.3653 -1.0330
  842MOL0     C16084  11.038   3.185   8.320  0.6118 -0.1450 -0.9041
  842MOL0     C16085  11.149   3.272   8.337  0.1438  0.0953 -0.4129
  842MOL0     C16086  11.147   3.424   8.299 -0.0314 -0.3527 -0.1883
  842MOL0     C16087  11.270   3.214   8.395 -0.3959 -0.3219  0.4338
  842MOL0     C16088  11.396   3.285   8.405 -0.1629  0.1614 -0.3149
  842MOL0     O16089  11.473   3.262   8.519  0.7960 -0.3460  0.1604
  842MOL0     C16090  11.593   3.322   8.522  0.0624  0.0082  0.6765
  842MOL0     C16091  11.702   3.285   8.435 -0.0076  0.3124  0.0668
  842MOL0     C16092  11.826   3.356   8.429 -0.2925 -0.2711 -0.4817
  842MOL0     C16093  11.852   3.453   8.525 -0.3025  0.0185  0.2146
  842MOL0     O16094  11.962   3.536   8.529  0.2911 -0.4946  0.6186
  842MOL0     C16095  12.059   3.529   8.421 -0.0767 -0.0915 -0.8376
  842MOL0     C16096  12.140   3.657   8.436  0.3048  0.4600  0.5490
  842MOL0     C16097  12.261   3.661   8.533  0.7639  0.2959  0.1018
  842MOL0     C16098  12.220   3.694   8.675 -0.0111 -0.6357 -1.2316
  842MOL0     C16099  12.214   3.567   8.756  0.0818 -0.1919 -0.5435
  842MOL0     C16100  12.130   3.592   8.883 -0.2173 -0.7934 -0.0483
  842MOL0     C16101  12.144   3.468   8.975  0.1478 -0.6130 -0.5033
  842MOL0     C16102  12.282   3.446   9.053  0.1912 -0.0181  0.4681
  842MOL0    Cl16103  12.337   3.596   9.122  0.2641 -0.0105 -0.8453
  842MOL0     C16104  11.754   3.487   8.610  1.3596 -0.9439 -0.4924
  842MOL0     C16105  11.627   3.431   8.617  0.2725  1.0742 -0.0341
  842MOL0     O16106  11.431   3.347   8.303  0.3158  0.1014 -0.3272
  842MOL0     C16107  11.273   3.080   8.433  0.1978 -0.7792  0.0164
  842MOL0     C16108  11.159   3.001   8.425 -0.0536  0.5672 -0.6361
  842MOL0     N16109  10.727   2.412   8.242 -0.4355  0.2504 -0.0656
  842MOL0     N16110  10.684   2.355   8.134 -0.2085 -0.7792 -0.4837
  842MOL0     C16111   9.638   2.646   7.482  0.2011  0.0689  0.2852
  842MOL0     C16112   9.500   2.675   7.452  0.8410 -0.0192  0.2142
  842MOL0     C16113   9.122   2.736   7.265  0.6329  0.3084 -0.3939
  842MOL0     C16114   9.049   2.616   7.223 -0.1361  0.1779  0.4766
  842MOL0     C16115   8.915   2.617   7.219  0.1023 -0.0263  0.2906
  842MOL0     C16116   8.843   2.728   7.252  0.6768  0.3445  0.4221
  842MOL0     O16117   8.709   2.740   7.249  0.9239 -0.4671 -0.5282
  842MOL0     C16118   8.620   2.631   7.251 -0.2665  0.3622  0.1545
  842MOL0     C16119   8.592   2.580   7.398 -0.0511 -0.4728  0.3527
  842MOL0     C16120   8.531   2.693   7.484  0.1568 -0.4032  0.1874
  842MOL0     C16121   8.387   2.747   7.439 -0.0219 -0.2513 -0.0014
  842MOL0     C16122   8.274   2.662   7.466 -0.1015 -0.0591  0.1188
  842MOL0     C16123   8.182   2.590   7.500  0.4029 -0.3070 -0.3789
  842MOL0     C16124   8.905   2.849   7.272 -0.2768 -0.2588  1.3723
  842MOL0     C16125   9.046   2.849   7.280  0.3094 -0.6161  0.2805
  842MOL0     C16126   9.113   2.985   7.314  0.6567 -0.2101  0.5401
  842MOL0     H16127   9.544   2.979   7.329 -0.1407  0.3530  2.8866
  842MOL0     H16128   9.788   2.919   7.383  1.5633 -2.6217 -0.0555
  842MOL0     H16129   9.992   2.836   7.455  0.7553 -0.2952 -0.9692
  842MOL0     H16130   9.952   2.718   7.330  0.3293  0.8054 -0.4160
  842MOL0     H16131  10.057   2.542   7.455  0.0612 -0.3199 -0.3239
  842MOL0     H16132  10.173   2.667   7.419 -0.2529 -1.0109  0.5738
  842MOL0     H16133  10.132   2.767   7.659  2.9081 -1.3702  2.2397
  842MOL0     H16134  10.040   2.620   7.694  0.6677 -0.6569 -0.4624
  842MOL0     H16135  10.259   2.492   7.618 -0.7600 -0.0514  0.2479
  842MOL0     H16136  10.346   2.639   7.638 -0.3598  4.4996  3.8826
  842MOL0     H16137  10.173   2.528   7.862 -2.0017  1.1697 -0.9239
  842MOL0     H16138  10.285   2.664   7.882  0.2792 -0.4366 -0.6337
  842MOL0     H16139  10.351   2.424   7.964 -4.3767 -2.0747 -2.0927
  842MOL0     H16140  10.387   2.380   7.796 -0.0980 -0.3690  0.0382
  842MOL0     H16141  10.523   2.593   7.954 -1.5742 -1.4897  0.6520
  842MOL0     H16142  10.543   2.583   7.779  0.1851 -0.3532 -0.3097
  842MOL0     H16143  10.583   2.325   7.910 -0.3313  0.9674  0.7387
  842MOL0     H16144  10.702   2.425   7.822 -3.3910 -2.2604 -3.4713
  842MOL0     H16145  10.725   2.672   8.039 -0.1515  0.5944  0.5219
  842MOL0     H16146  10.686   2.636   8.389 -0.0959 -0.8343  0.4291
  842MOL0     H16147  10.720   2.746   8.259 -0.9753 -0.0031  1.2405
  842MOL0     H16148  10.916   2.733   8.445 -1.7380  3.5405 -1.9735
  842MOL0     H16149  10.944   2.575   8.390  0.5092 -0.2627 -0.3737
  842MOL0     H16150  11.086   2.754   8.293  0.3631 -1.6713 -2.3403
  842MOL0     H16151  10.982   2.688   8.163 -1.9907 -1.6022  0.4699
  842MOL0     H16152  11.013   2.931   8.150  1.8353  0.0571  2.5188
  842MOL0     H16153  10.842   2.903   8.169  1.2479  1.2543 -3.1111
  842MOL0     H16154  10.945   3.224   8.281 -1.4292  0.3081  3.7936
  842MOL0     H16155  11.213   3.476   8.368  1.7844 -2.2773 -0.3858
  842MOL0     H16156  11.047   3.470   8.295 -0.6555 -1.4068  1.9798
  842MOL0     H16157  11.183   3.441   8.197 -1.0235 -0.2870 -0.5380
  842MOL0     H16158  11.696   3.207   8.360  3.8857 -0.6170  0.5286
  842MOL0     H16159  11.883   3.342   8.337  1.1888 -0.6749  0.4661
  842MOL0     H16160  12.116   3.436   8.433 -0.1230  0.0678  1.0564
  842MOL0     H16161  12.012   3.535   8.323  1.2499  2.5743 -1.3925
  842MOL0     H16162  12.177   3.683   8.336  0.0440 -1.2772 -0.0410
  842MOL0     H16163  12.077   3.742   8.461  1.0916  0.5656  2.3560
  842MOL0     H16164  12.335   3.738   8.509  3.2670 -1.5452  1.5127
  842MOL0     H16165  12.311   3.564   8.531  1.0451  0.3939 -3.0551
  842MOL0     H16166  12.122   3.742   8.673 -0.5006 -1.3498  1.5834
  842MOL0     H16167  12.294   3.752   8.730  0.4544 -0.6553 -1.8249
  842MOL0     H16168  12.155   3.494   8.699 -1.2527 -0.3343  0.9582
  842MOL0     H16169  12.306   3.514   8.784 -1.3239 -0.4580  4.5447
  842MOL0     H16170  12.024   3.601   8.858 -0.3031  2.0600  0.8981
  842MOL0     H16171  12.158   3.686   8.932 -0.2893 -1.5483  1.4957
  842MOL0     H16172  12.115   3.378   8.920  0.0179  0.0501 -1.5321
  842MOL0     H16173  12.065   3.473   9.051 -0.0969 -3.5788 -0.4510
  842MOL0     H16174  12.359   3.419   8.980  0.5672 -1.0756  1.2247
  842MOL0     H16175  12.259   3.375   9.134 -2.5892  1.9639  1.5847
  842MOL0     H16176  11.763   3.570   8.679  0.0131  1.1598 -2.6595
  842MOL0     H16177  11.549   3.460   8.686 -1.3852 -0.7732 -1.0309
  842MOL0     H16178  11.368   3.036   8.461 -0.3847 -1.8063  0.4353
  842MOL0     H16179  11.170   2.898   8.456  3.8167  1.0246  0.0425
  842MOL0     H16180   9.673   2.550   7.518  3.6845  1.2723  0.4995
  842MOL0     H16181   9.430   2.597   7.477 -0.2472  0.4961 -1.0898
  842MOL0     H16182   9.110   2.530   7.198 -2.4236 -0.8242 -2.2473
  842MOL0     H16183   8.878   2.516   7.199  2.7001 -0.8127 -0.8955
  842MOL0     H16184   8.522   2.664   7.217  0.0320  1.9545  0.7804
  842MOL0     H16185   8.658   2.555   7.182  1.4373 -0.1605  1.5945
  842MOL0     H16186   8.692   2.551   7.432  0.4819 -2.4576 -2.5589
  842MOL0     H16187   8.539   2.484   7.391 -0.4102 -0.1594 -2.0530
  842MOL0     H16188   8.516   2.656   7.586  0.8637  0.3960  0.6012
  842MOL0     H16189   8.608   2.771   7.480  0.0944 -0.1971  2.0641
  842MOL0     H16190   8.392   2.779   7.334  1.5008  1.4506  0.5350
  842MOL0     H16191   8.361   2.843   7.484 -0.5329  0.0443 -0.8986
  842MOL0     H16192   8.098   2.526   7.520  0.8913 -1.9595 -3.1450
  842MOL0     H16193   8.843   2.937   7.291  1.5170  0.8410  2.4801
  842MOL0     H16194   9.138   2.985   7.420  1.0277  3.0769  0.5699
  842MOL0     H16195   9.197   3.004   7.246 -2.1615  2.5699 -2.5871
  842MOL0     H16196   9.043   3.068   7.300  0.5917 -0.5074 -1.0477
  843MOL0     O16197   4.972   6.474  10.308  0.0979 -0.5582  0.4539
  843MOL0     C16198   4.976   6.468  10.430  1.0634 -0.8607  0.2259
  843MOL0     O16199   5.073   6.521  10.507 -0.0278 -0.5185 -0.1954
  843MOL0     C16200   5.173   6.591  10.444 -0.0704 -0.4837  0.7880
  843MOL0     C16201   5.160   6.720  10.379  0.5327 -0.5629 -0.8018
  843MOL0     C16202   5.271   6.784  10.320 -0.7854 -0.2213 -0.1398
  843MOL0     C16203   5.398   6.727  10.314 -0.2945  0.5692 -0.0706
  843MOL0     O16204   5.504   6.783  10.251  0.2548 -0.1069  0.0877
  843MOL0     C16205   5.583   6.690  10.177 -0.3442  0.3016  0.3595
  843MOL0     C16206   5.659   6.776  10.077 -0.5749  0.2241 -0.2837
  843MOL0     C16207   5.556   6.856   9.995  0.0006 -0.9556  1.0440
  843MOL0     C16208   5.623   6.933   9.878  0.2207  0.5912  0.2212
  843MOL0     C16209   5.523   7.034   9.814 -0.0915 -1.1279 -0.3444
  843MOL0     C16210   5.556   7.067   9.664 -0.9567 -0.2393  0.3513
  843MOL0     C16211   5.685   7.145   9.643  0.5335  0.8255  0.5674
  843MOL0     C16212   5.690   7.169   9.492 -0.4193 -0.1307  0.2351
  843MOL0     N16213   5.812   7.257   9.456 -0.6687 -0.3947 -0.2366
  843MOL0     C16214   5.939   7.220   9.414 -0.9183 -0.2021 -0.8114
  843MOL0     C16215   6.004   7.335   9.392 -0.6105 -0.7349  0.2154
  843MOL0     C16216   6.141   7.373   9.320  0.6995 -0.1157 -0.4330
  843MOL0     C16217   6.259   7.287   9.363 -0.1212 -0.5243 -0.5246
  843MOL0     C16218   6.377   7.360   9.291  0.5966 -0.1358  0.1351
  843MOL0     C16219   6.517   7.299   9.309  0.4086  0.3707 -0.5845
  843MOL0     O16220   6.560   7.278   9.442 -0.5772 -0.2997  0.2305
  843MOL0     C16221   6.692   7.243   9.467 -1.4270 -0.9718  0.1131
  843MOL0     C16222   6.728   7.226   9.599 -0.9750 -0.1898  0.5238
  843MOL0     C16223   6.860   7.203   9.640 -0.2256 -1.3632 -0.3351
  843MOL0     C16224   6.881   7.214   9.785 -0.4247  0.8394 -0.4503
  843MOL0     C16225   6.974   7.201   9.544  0.4748  0.8202  0.5533
  843MOL0     C16226   7.114   7.180   9.573 -1.0310  0.7770 -0.5333
  843MOL0     O16227   7.150   7.143   9.696 -0.2581  0.7535 -0.1575
  843MOL0     C16228   7.285   7.136   9.726  0.4158  0.3586 -0.4464
  843MOL0     C16229   7.366   7.246   9.711  0.3052 -0.1540  0.1685
  843MOL0     C16230   7.498   7.240   9.723 -0.1282  0.3021  0.2523
  843MOL0     C16231   7.558   7.120   9.764 -1.1954  0.0176  0.6824
  843MOL0     O16232   7.696   7.104   9.769 -0.1945  0.8230  0.0580
  843MOL0     C16233   7.761   7.210   9.839  0.1329 -0.7878 -0.1646
  843MOL0     C16234   7.904   7.195   9.856 -0.4035 -0.1573 -0.1787
  843MOL0     C16235   7.968   7.266   9.738 -0.5197 -0.8045  0.2250
  843MOL0     C16236   8.121   7.259   9.749  0.1815  0.9655 -0.1405
  843MOL0     C16237   8.178   7.313   9.610 -0.8661 -0.1417 -0.2385
  843MOL0     C16238   8.329   7.326   9.610 -0.0244  0.4343  0.5371
  843MOL0     C16239   8.403   7.204   9.659  0.4053  0.5281 -0.1062
  843MOL0     C16240   8.552   7.221   9.689 -0.7677  0.9159 -0.2307
  843MOL0    Cl16241   8.633   7.075   9.772  0.4220 -0.3739 -0.3211
  843MOL0     C16242   7.483   7.014   9.807  0.7990  0.6905 -0.4047
  843MOL0     C16243   7.342   7.021   9.787 -0.8574 -0.3878  0.1132
  843MOL0     O16244   7.192   7.202   9.479 -0.6375  0.1173  0.0634
  843MOL0     C16245   6.925   7.206   9.409  0.2933  1.1960  1.4447
  843MOL0     C16246   6.791   7.232   9.366 -0.2473  0.3805 -0.2549
  843MOL0     N16247   5.909   7.437   9.395  0.2293  0.5056  1.7694
  843MOL0     N16248   5.794   7.387   9.440  0.2385 -0.8493 -0.2173
  843MOL0     C16249   5.416   6.618  10.395 -1.1082  0.1096  0.5122
  843MOL0     C16250   5.304   6.545  10.454 -0.2591 -0.2647  0.5154
  843MOL0     C16251   4.852   6.406  10.488 -0.1437 -0.0647  0.2102
  843MOL0     C16252   4.726   6.430  10.423  1.1757  0.8542  0.2262
  843MOL0     C16253   4.606   6.390  10.479 -0.2983  1.4541 -0.3933
  843MOL0     C16254   4.605   6.324  10.606  0.6086  0.3613  0.5966
  843MOL0     O16255   4.495   6.281  10.675 -0.0182  0.8705  0.5642
  843MOL0     C16256   4.365   6.329  10.639 -0.9322  0.1544 -0.1883
  843MOL0     C16257   4.271   6.287  10.753  0.4936  0.1400  0.3532
  843MOL0     C16258   4.120   6.305  10.720  0.5317  0.6845  0.0267
  843MOL0     C16259   4.066   6.446  10.747  0.0223 -0.3359  0.1975
  843MOL0     C16260   3.988   6.453  10.866 -0.3804  0.0967 -1.0166
  843MOL0     C16261   3.939   6.474  10.978  0.1717 -0.4967  0.2408
  843MOL0     C16262   4.732   6.304  10.670  0.3120 -0.0302  0.1148
  843MOL0     C16263   4.852   6.332  10.611 -0.6126  0.1112  0.7618
  843MOL0     C16264   4.974   6.293  10.695 -0.0877  0.0887 -0.0624
  843MOL0     H16265   5.061   6.764  10.372  0.6344 -0.1864 -0.0292
  843MOL0     H16266   5.265   6.884  10.278  1.4897  0.1653  0.3304
  843MOL0     H16267   5.518   6.620  10.125 -2.8751  3.1292 -0.5787
  843MOL0     H16268   5.653   6.635  10.242 -0.1366  0.5217  0.3235
  843MOL0     H16269   5.736   6.838  10.123  1.0060 -1.8056 -0.1027
  843MOL0     H16270   5.710   6.716  10.002  2.5885  2.7250 -0.3488
  843MOL0     H16271   5.479   6.788   9.958 -1.1897 -0.0164  1.7410
  843MOL0     H16272   5.509   6.936  10.054 -0.8628 -2.0535  1.8734
  843MOL0     H16273   5.717   6.977   9.913  0.2920  0.8379 -0.2681
  843MOL0     H16274   5.645   6.854   9.805 -0.4351 -1.2133  1.8928
  843MOL0     H16275   5.544   7.132   9.859  1.5486 -1.6194  0.0355
  843MOL0     H16276   5.422   7.005   9.844 -0.6278  0.9701  0.0526
  843MOL0     H16277   5.560   6.979   9.599 -0.7342 -1.2945  1.7581
  843MOL0     H16278   5.475   7.133   9.630  0.9949  3.4243  2.2703
  843MOL0     H16279   5.771   7.089   9.679  0.1161 -0.1836  0.0352
  843MOL0     H16280   5.680   7.242   9.693  0.9781  0.9423  0.3923
  843MOL0     H16281   5.705   7.073   9.441 -2.3719 -0.6022  0.4879
  843MOL0     H16282   5.598   7.221   9.462 -1.8186 -2.8241 -0.4245
  843MOL0     H16283   5.979   7.119   9.409 -0.9095 -0.4642  2.3337
  843MOL0     H16284   6.166   7.478   9.337  0.7732 -0.1240 -0.4881
  843MOL0     H16285   6.116   7.358   9.214 -1.1934 -4.4631  0.4302
  843MOL0     H16286   6.271   7.280   9.472  0.4120 -2.1668 -0.6571
  843MOL0     H16287   6.250   7.187   9.320  0.5651 -0.6876 -0.3102
  843MOL0     H16288   6.354   7.346   9.185  1.0605  0.4237 -0.0398
  843MOL0     H16289   6.376   7.464   9.323 -1.2054  0.1729 -0.8412
  843MOL0     H16290   6.515   7.201   9.262  0.1518 -1.0641  2.2283
  843MOL0     H16291   6.583   7.372   9.261  0.0658  0.6394 -0.6489
  843MOL0     H16292   6.646   7.249   9.665 -0.9531  1.3239  0.0710
  843MOL0     H16293   6.889   7.111   9.819  0.4277  1.0316 -0.0570
  843MOL0     H16294   6.793   7.261   9.830 -0.3682  0.1865  0.3460
  843MOL0     H16295   6.971   7.262   9.825  0.3920  0.9768 -2.3108
  843MOL0     H16296   7.314   7.333   9.672 -1.8598 -0.7761  1.4487
  843MOL0     H16297   7.553   7.331   9.701  1.3910 -0.3233  1.2458
  843MOL0     H16298   7.729   7.304   9.792 -1.4081 -0.6062  1.1525
  843MOL0     H16299   7.725   7.214   9.942 -0.6450 -1.3507 -0.4013
  843MOL0     H16300   7.929   7.246   9.949 -0.5461  1.0605 -0.7891
  843MOL0     H16301   7.926   7.089   9.869  0.8226  0.1170  0.0973
  843MOL0     H16302   7.941   7.372   9.746 -1.5056 -0.9698 -0.6726
  843MOL0     H16303   7.934   7.214   9.648 -4.3651  2.5671 -0.5188
  843MOL0     H16304   8.140   7.153   9.766 -0.0997  0.5437 -2.2258
  843MOL0     H16305   8.165   7.311   9.835  0.6141 -0.8602  0.7817
  843MOL0     H16306   8.154   7.239   9.533 -2.7113 -0.5331  0.6599
  843MOL0     H16307   8.129   7.409   9.590  2.2114  2.2032  2.3886
  843MOL0     H16308   8.367   7.409   9.671  1.8560 -1.1510  1.6593
  843MOL0     H16309   8.363   7.341   9.507 -0.5210 -0.2744  0.2706
  843MOL0     H16310   8.399   7.121   9.588  1.2622  0.5505 -0.1923
  843MOL0     H16311   8.346   7.174   9.747 -1.6143 -3.8974 -2.6052
  843MOL0     H16312   8.581   7.307   9.750  1.5317  1.7430 -2.2796
  843MOL0     H16313   8.601   7.242   9.593  0.5650  0.2641  0.2735
  843MOL0     H16314   7.516   6.921   9.851  0.6233  1.0573  0.5184
  843MOL0     H16315   7.285   6.935   9.822 -0.5340 -0.7046 -0.1341
  843MOL0     H16316   6.991   7.178   9.328  0.3489 -0.9144  2.1324
  843MOL0     H16317   6.763   7.222   9.262 -0.0430 -0.2487 -0.2571
  843MOL0     H16318   5.519   6.585  10.406 -1.7834 -2.7983 -0.8735
  843MOL0     H16319   5.322   6.458  10.516  0.3137  0.6665  1.6841
  843MOL0     H16320   4.719   6.485  10.330  1.6396  0.1842 -0.2114
  843MOL0     H16321   4.507   6.389  10.434 -0.9041  0.3447  0.8743
  843MOL0     H16322   4.355   6.437  10.623 -0.2264  0.1600 -0.6245
  843MOL0     H16323   4.332   6.279  10.547 -0.0240 -0.4101 -0.2208
  843MOL0     H16324   4.279   6.355  10.838 -1.8297  2.6976 -1.3294
  843MOL0     H16325   4.297   6.184  10.781 -0.4240 -0.4537 -0.8692
  843MOL0     H16326   4.112   6.274  10.615  0.7703 -0.8126  0.4303
  843MOL0     H16327   4.061   6.233  10.777 -1.1007  1.1895 -0.9767
  843MOL0     H16328   4.008   6.482  10.661 -2.0341 -0.2482  1.5543
  843MOL0     H16329   4.148   6.518  10.754 -0.4698  0.4501 -1.5243
  843MOL0     H16330   3.911   6.485  11.081 -0.3310  1.3312 -0.0514
  843MOL0     H16331   4.743   6.262  10.769  2.1815  0.4903  0.1564
  843MOL0     H16332   4.978   6.367  10.776  0.7037  3.7724 -3.1557
  843MOL0     H16333   4.969   6.188  10.726  0.7907  0.1833  0.4293
  843MOL0     H16334   5.062   6.305  10.632 -0.4343  0.2811 -0.5155
  844MOL0     O16335   1.849   5.426   8.713 -0.2723 -0.1597 -0.5993
  844MOL0     C16336   1.804   5.344   8.629 -0.9451  0.2674  0.0007
  844MOL0     O16337   1.883   5.264   8.552 -0.9489 -0.0720 -0.0090
  844MOL0     C16338   2.011   5.232   8.601 -0.6385  0.2073  0.4621
  844MOL0     C16339   2.111   5.321   8.588 -0.1247 -0.0925  0.0700
  844MOL0     C16340   2.246   5.284   8.616 -0.4790 -0.5472 -0.6260
  844MOL0     C16341   2.267   5.160   8.680  0.4279  0.3693  0.0004
  844MOL0     O16342   2.390   5.108   8.716 -0.5773 -0.0943  0.9101
  844MOL0     C16343   2.477   5.118   8.598 -0.4484  1.2941 -0.0855
  844MOL0     C16344   2.609   5.195   8.632  1.0760 -0.4173  0.4507
  844MOL0     C16345   2.684   5.148   8.756  0.1065 -0.0171  0.1302
  844MOL0     C16346   2.750   5.007   8.736 -0.1714 -0.3924 -0.1854
  844MOL0     C16347   2.833   4.957   8.859 -0.4721 -0.6760  0.1849
  844MOL0     C16348   2.955   5.051   8.877  0.9443  0.5255 -0.5464
  844MOL0     C16349   3.045   5.006   8.997  0.1733 -0.4257 -0.6180
  844MOL0     C16350   3.191   5.041   8.968 -0.3242  0.0789  0.5176
  844MOL0     N16351   3.277   5.036   9.088 -0.0604  0.4495  0.4739
  844MOL0     C16352   3.334   4.922   9.134 -0.4677  0.6930  0.4747
  844MOL0     C16353   3.404   4.954   9.249  1.0342 -0.1784 -0.4514
  844MOL0     C16354   3.486   4.861   9.336  0.5078  0.5442  0.4634
  844MOL0     C16355   3.634   4.919   9.344  0.1729  0.1160 -0.3185
  844MOL0     C16356   3.728   4.827   9.434  0.5628 -0.0913  0.4940
  844MOL0     C16357   3.877   4.875   9.444  0.2473  0.0407 -0.1039
  844MOL0     O16358   3.875   4.993   9.527 -0.0249  0.0598  0.2337
  844MOL0     C16359   3.987   5.071   9.549 -1.0950 -0.0606  0.6582
  844MOL0     C16360   4.121   5.023   9.528 -0.0325 -0.5972 -0.3462
  844MOL0     C16361   4.231   5.105   9.569 -0.2840 -1.3389  0.2721
  844MOL0     C16362   4.363   5.042   9.542 -0.8892 -0.3127 -0.0284
  844MOL0     C16363   4.208   5.230   9.633  0.8311 -0.2692  0.3463
  844MOL0     C16364   4.319   5.326   9.646 -0.0654 -0.2165 -0.1311
  844MOL0     O16365   4.334   5.393   9.773  0.0188 -0.0904  1.1741
  844MOL0     C16366   4.457   5.427   9.797  0.8318 -0.3479 -0.6436
  844MOL0     C16367   4.488   5.561   9.795 -1.0271  0.2913 -0.4881
  844MOL0     C16368   4.622   5.595   9.811  0.7693 -0.2558  2.0591
  844MOL0     C16369   4.724   5.502   9.844  0.0562  0.1450  0.3308
  844MOL0     O16370   4.852   5.546   9.870 -0.3564  0.3132  0.4288
  844MOL0     C16371   4.955   5.451   9.832  1.1494  1.0050  0.0999
  844MOL0     C16372   5.092   5.516   9.811  0.3462 -0.8893 -0.2409
  844MOL0     C16373   5.151   5.593   9.934 -0.2947  0.2396 -0.4424
  844MOL0     C16374   5.287   5.656   9.898  0.3409 -0.3175 -0.0605
  844MOL0     C16375   5.312   5.754  10.011  0.6164 -0.1174 -0.8916
  844MOL0     C16376   5.440   5.834  10.006  0.3634 -0.2819  1.1185
  844MOL0     C16377   5.447   5.959   9.927  0.1197  0.3855 -0.6153
  844MOL0     C16378   5.589   6.017   9.920  1.0537  0.8429  0.4405
  844MOL0    Cl16379   5.604   6.166   9.822 -0.4055 -0.5567 -0.1321
  844MOL0     C16380   4.687   5.368   9.856  0.6594  0.2075  0.2706
  844MOL0     C16381   4.554   5.331   9.825 -0.4441  0.2539 -0.4758
  844MOL0     O16382   4.390   5.344   9.540  1.0973  0.3908  0.4964
  844MOL0     C16383   4.078   5.275   9.650  0.1206 -0.0530 -0.8516
  844MOL0     C16384   3.970   5.191   9.620 -0.3206 -0.5059  0.5314
  844MOL0     N16385   3.356   5.084   9.274  0.0372 -0.1955 -0.4053
  844MOL0     N16386   3.310   5.142   9.168  0.2378  0.9946  0.0397
  844MOL0     C16387   2.160   5.064   8.690 -0.0864 -0.3789  0.7121
  844MOL0     C16388   2.035   5.105   8.651 -0.1800 -0.2325  0.2633
  844MOL0     C16389   1.661   5.340   8.603  0.2728  0.2183  0.4674
  844MOL0     C16390   1.620   5.262   8.489  0.8937  1.1688 -0.8296
  844MOL0     C16391   1.483   5.272   8.450 -0.2402 -0.5295 -0.7839
  844MOL0     C16392   1.390   5.340   8.535  0.3324  0.1897  0.4766
  844MOL0     O16393   1.257   5.332   8.494  0.6799 -0.4635 -0.6323
  844MOL0     C16394   1.150   5.363   8.585 -0.3479  1.0197 -0.4752
  844MOL0     C16395   1.024   5.378   8.511 -0.0160 -0.1897  0.0919
  844MOL0     C16396   0.917   5.445   8.593 -0.9677  0.1392  0.0225
  844MOL0     C16397   0.834   5.536   8.505  0.2911  0.5533 -1.0954
  844MOL0     C16398   0.705   5.544   8.574 -0.4590  0.7373 -0.0695
  844MOL0     C16399   0.594   5.543   8.631  0.2061 -0.2609  0.5531
  844MOL0     C16400   1.428   5.419   8.646 -0.1065  0.0174  0.4930
  844MOL0     C16401   1.569   5.433   8.676  0.3691  0.5869  0.1393
  844MOL0     C16402   1.598   5.540   8.785 -0.3896 -0.6270 -0.3613
  844MOL0     H16403   2.084   5.420   8.555  4.1341  1.2194 -0.0834
  844MOL0     H16404   2.336   5.344   8.618 -2.0333  1.9084 -1.2731
  844MOL0     H16405   2.434   5.162   8.508 -0.4738  1.1466 -0.1456
  844MOL0     H16406   2.504   5.015   8.570  0.0617  1.2435  0.5575
  844MOL0     H16407   2.674   5.200   8.544  0.1704  3.2016 -0.1967
  844MOL0     H16408   2.577   5.298   8.653  0.5862 -0.3714 -0.4869
  844MOL0     H16409   2.753   5.223   8.795  0.3637 -0.8725  1.3706
  844MOL0     H16410   2.609   5.141   8.836 -0.5461 -0.6543 -0.5146
  844MOL0     H16411   2.677   4.928   8.715 -1.0435 -0.5874  3.0091
  844MOL0     H16412   2.814   5.016   8.648  1.4078 -0.1160  0.9476
  844MOL0     H16413   2.867   4.856   8.833 -0.2833 -0.6437  0.3011
  844MOL0     H16414   2.771   4.958   8.949 -3.4823 -2.4885 -1.7169
  844MOL0     H16415   3.016   5.053   8.786 -0.2366 -0.4627 -1.3932
  844MOL0     H16416   2.923   5.152   8.905 -2.8093 -0.5275 -0.6005
  844MOL0     H16417   3.037   4.901   9.026 -0.9558 -0.5388 -1.3138
  844MOL0     H16418   3.004   5.052   9.087 -1.9772 -2.2553 -0.5829
  844MOL0     H16419   3.227   4.965   8.898 -1.3245  1.2022 -1.2983
  844MOL0     H16420   3.183   5.139   8.919 -1.7885 -1.0736 -1.7116
  844MOL0     H16421   3.330   4.823   9.089  0.7843  0.1166  1.5683
  844MOL0     H16422   3.493   4.758   9.300 -1.9690 -0.2821  2.1146
  844MOL0     H16423   3.439   4.840   9.433 -1.3802 -0.1012 -0.5416
  844MOL0     H16424   3.676   4.941   9.245  0.6538  0.7992  0.0250
  844MOL0     H16425   3.627   5.014   9.398  0.7402 -1.2331  2.3063
  844MOL0     H16426   3.681   4.815   9.531 -1.1222  1.4206 -0.0791
  844MOL0     H16427   3.723   4.726   9.392  1.2468 -0.2346  0.7389
  844MOL0     H16428   3.942   4.804   9.496  0.8211  2.5264  2.9041
  844MOL0     H16429   3.910   4.906   9.345 -2.9891  0.2429 -1.2497
  844MOL0     H16430   4.140   4.926   9.482  0.1494 -0.1955 -1.1421
  844MOL0     H16431   4.400   5.060   9.441 -0.0369  2.1208  0.6299
  844MOL0     H16432   4.352   4.934   9.552 -1.1224 -0.3080 -0.2443
  844MOL0     H16433   4.437   5.076   9.615  0.4817 -0.0024 -1.5254
  844MOL0     H16434   4.421   5.640   9.763 -1.9448 -0.8868 -1.5556
  844MOL0     H16435   4.642   5.699   9.786 -3.6446  0.1615 -0.9255
  844MOL0     H16436   4.967   5.376   9.912 -0.8477  2.7083  2.1085
  844MOL0     H16437   4.923   5.397   9.743 -1.4240  2.6462 -0.0390
  844MOL0     H16438   5.158   5.430   9.795 -0.3262 -1.1386 -1.8800
  844MOL0     H16439   5.081   5.578   9.721  2.5506  0.0744  0.0993
  844MOL0     H16440   5.163   5.525  10.019 -2.7887  0.0822 -0.1350
  844MOL0     H16441   5.081   5.672   9.962  0.8677  1.3726 -0.6740
  844MOL0     H16442   5.262   5.712   9.807 -2.3830  2.7008  2.3338
  844MOL0     H16443   5.362   5.579   9.876  0.8670  0.4660 -1.1068
  844MOL0     H16444   5.225   5.821  10.011 -1.7107 -2.9404 -1.6450
  844MOL0     H16445   5.321   5.682  10.092 -0.7588 -0.9527 -1.4447
  844MOL0     H16446   5.513   5.765   9.963  0.2467  1.2671 -1.8314
  844MOL0     H16447   5.456   5.852  10.112  2.5226  0.2356  0.7552
  844MOL0     H16448   5.369   6.022   9.970  0.2162 -0.7512  1.3330
  844MOL0     H16449   5.425   5.945   9.821 -0.0694  1.2097 -0.6931
  844MOL0     H16450   5.656   5.937   9.889  0.9911  1.6552 -1.9765
  844MOL0     H16451   5.621   6.035  10.023  1.6342 -0.1367  0.4425
  844MOL0     H16452   4.747   5.281   9.877  0.0966 -0.0208  0.9537
  844MOL0     H16453   4.524   5.227   9.831 -0.6582  0.4085  2.0855
  844MOL0     H16454   4.070   5.375   9.691  3.0565  0.0039 -0.2173
  844MOL0     H16455   3.869   5.226   9.639 -0.4568 -1.1103  0.9685
  844MOL0     H16456   2.163   4.963   8.729 -1.9447 -0.0331  1.8660
  844MOL0     H16457   1.964   5.024   8.666  0.1776 -0.8558 -1.2463
  844MOL0     H16458   1.687   5.203   8.428 -0.1036 -0.7019 -0.1875
  844MOL0     H16459   1.434   5.215   8.372 -1.0779  1.7321 -2.0129
  844MOL0     H16460   1.142   5.282   8.658  1.1388 -0.2238 -1.6336
  844MOL0     H16461   1.158   5.456   8.643  2.3503 -1.2353  3.1807
  844MOL0     H16462   1.006   5.277   8.474  0.7861  0.0446 -0.9605
  844MOL0     H16463   1.047   5.437   8.422 -0.5339 -0.4102 -0.1915
  844MOL0     H16464   0.859   5.361   8.631 -1.4332  0.8822  1.0022
  844MOL0     H16465   0.950   5.501   8.681 -1.6522 -0.7734  0.8826
  844MOL0     H16466   0.830   5.503   8.401  0.0607  0.9146 -1.2071
  844MOL0     H16467   0.868   5.638   8.526 -2.7477  1.2081  1.3955
  844MOL0     H16468   0.499   5.540   8.680 -0.3516  1.3181 -0.3703
  844MOL0     H16469   1.361   5.476   8.710 -1.2227 -2.7406  1.9272
  844MOL0     H16470   1.664   5.501   8.862 -1.5730 -0.2222  0.8926
  844MOL0     H16471   1.655   5.617   8.732 -2.0123  1.0333  0.1971
  844MOL0     H16472   1.505   5.583   8.823  0.5604  2.5461 -1.3058
  845MOL0     O16473   9.954   5.284  10.304  0.2656  0.9238  0.2789
  845MOL0     C16474   9.968   5.212  10.201 -0.3761  0.6896  0.1622
  845MOL0     O16475  10.082   5.209  10.124  0.9383 -0.0253 -0.0821
  845MOL0     C16476  10.184   5.295  10.156 -0.7096  0.4172 -0.4168
  845MOL0     C16477  10.305   5.245  10.195 -1.1328 -0.9975  0.3167
  845MOL0     C16478  10.421   5.333  10.232 -0.0995  0.4179  0.0978
  845MOL0     C16479  10.400   5.471  10.224 -0.3352  0.1989  0.2225
  845MOL0     O16480  10.501   5.554  10.266 -0.2970  0.2544 -0.4877
  845MOL0     C16481  10.516   5.550  10.410 -0.3733  0.3641 -0.0916
  845MOL0     C16482  10.658   5.589  10.462  0.4168  0.1910 -0.2612
  845MOL0     C16483  10.773   5.505  10.405 -0.1754 -0.4472  0.4920
  845MOL0     C16484  10.809   5.368  10.474 -0.1672  0.6968  0.0178
  845MOL0     C16485  10.900   5.293  10.376 -0.0117 -0.2871 -0.1498
  845MOL0     C16486  10.957   5.168  10.432 -0.3387  0.1457 -0.3322
  845MOL0     C16487  10.851   5.051  10.439 -0.2477 -0.8027  0.0882
  845MOL0     C16488  10.917   4.913  10.466  0.3238 -0.1735  0.4866
  845MOL0     N16489  11.008   4.875  10.357  0.8436  0.0560 -0.0761
  845MOL0     C16490  10.984   4.848  10.225 -0.5670  0.0997  0.6271
  845MOL0     C16491  11.095   4.802  10.176  0.2911 -0.0331 -0.4477
  845MOL0     C16492  11.098   4.779  10.035 -0.3335  0.0378  1.0997
  845MOL0     C16493  11.171   4.645  10.011 -0.4877 -0.6645 -0.1265
  845MOL0     C16494  11.180   4.617   9.858 -0.3166  0.1451  0.1304
  845MOL0     C16495  11.309   4.686   9.802 -0.4806 -0.2077 -0.1320
  845MOL0     O16496  11.429   4.641   9.873  0.1451 -0.2015  0.2522
  845MOL0     C16497  11.543   4.644   9.799  0.4149  0.0921  0.8409
  845MOL0     C16498  11.565   4.716   9.681  0.4601  0.5408  0.3595
  845MOL0     C16499  11.685   4.721   9.607  0.8711  0.6450 -0.6363
  845MOL0     C16500  11.694   4.823   9.494 -0.0634 -0.5987  0.2095
  845MOL0     C16501  11.786   4.636   9.658 -0.3668 -0.7673  1.1733
  845MOL0     C16502  11.918   4.620   9.586  0.5181  0.5710  0.4185
  845MOL0     O16503  11.994   4.515   9.625  0.0470 -0.3236  0.0120
  845MOL0     C16504  12.107   4.476   9.551  0.1039 -0.0784 -0.0544
  845MOL0     C16505  12.221   4.423   9.614  0.4138 -0.0522 -0.5781
  845MOL0     C16506  12.336   4.395   9.545  0.1259  0.2864  0.2124
  845MOL0     C16507  12.336   4.400   9.406 -0.7647  0.5236 -0.2544
  845MOL0     O16508  12.449   4.365   9.331  0.1670 -0.4306 -0.5788
  845MOL0     C16509  12.508   4.446   9.239  0.0395 -0.1766  0.1095
  845MOL0     C16510  12.653   4.424   9.241 -0.2734  0.0134 -0.2363
  845MOL0     C16511  12.704   4.280   9.248  0.4676  0.3403  1.0407
  845MOL0     C16512  12.843   4.266   9.303  0.0989  0.6001 -0.0997
  845MOL0     C16513  12.883   4.117   9.309 -0.3991 -0.7338 -0.5408
  845MOL0     C16514  13.023   4.104   9.378 -0.1332 -0.2735  0.0863
  845MOL0     C16515  13.057   3.959   9.415  0.1775 -0.5626  0.3738
  845MOL0     C16516  13.204   3.942   9.453  0.0501  0.2465  1.0790
  845MOL0    Cl16517  13.234   4.012   9.611 -0.1625  0.1835  0.0164
  845MOL0     C16518  12.221   4.434   9.342  0.5483  0.4956 -1.0621
  845MOL0     C16519  12.110   4.486   9.414  0.3820  0.4726  0.8110
  845MOL0     O16520  11.953   4.708   9.516 -0.0328 -0.2252  0.3655
  845MOL0     C16521  11.770   4.555   9.770  0.0771  0.4965 -0.8631
  845MOL0     C16522  11.651   4.569   9.843 -0.1317 -0.8013  0.1477
  845MOL0     N16523  11.189   4.804  10.276 -0.3302  0.0525  0.1829
  845MOL0     N16524  11.136   4.849  10.383  0.0277 -0.2052  0.6912
  845MOL0     C16525  10.277   5.521  10.182  1.0942 -0.6942  0.1018
  845MOL0     C16526  10.171   5.430  10.150 -0.0678 -1.6001  0.8474
  845MOL0     C16527   9.857   5.110  10.169  0.0525 -1.1548  0.9156
  845MOL0     C16528   9.887   5.023  10.069  0.3815  0.0390 -0.0909
  845MOL0     C16529   9.800   4.912  10.037 -0.7426 -0.5715  0.2494
  845MOL0     C16530   9.672   4.904  10.092 -0.6551  0.6042  0.3661
  845MOL0     O16531   9.580   4.810  10.063  0.6301  0.0924 -0.0079
  845MOL0     C16532   9.608   4.691   9.983  0.1969 -0.1089  0.4882
  845MOL0     C16533   9.524   4.585  10.046 -0.0319  0.0817  0.6546
  845MOL0     C16534   9.567   4.538  10.187  0.2872  0.6326 -1.0324
  845MOL0     C16535   9.555   4.641  10.303  0.0152  0.3498 -0.2757
  845MOL0     C16536   9.417   4.671  10.332 -0.3689  0.4178  0.1612
  845MOL0     C16537   9.311   4.719  10.355 -0.0149 -1.1679 -0.0437
  845MOL0     C16538   9.643   4.996  10.197 -0.1040  0.1318  0.8993
  845MOL0     C16539   9.730   5.095  10.236  0.1350  0.3915 -0.4919
  845MOL0     C16540   9.680   5.176  10.353  0.1135 -0.3372 -0.5478
  845MOL0     H16541  10.334   5.144  10.224  1.2983 -0.4134  0.1539
  845MOL0     H16542  10.519   5.288  10.245 -0.2744 -0.8267 -2.3044
  845MOL0     H16543  10.507   5.452  10.457  2.1428  0.9525  1.8020
  845MOL0     H16544  10.432   5.611  10.445 -1.3493 -2.3268  2.7687
  845MOL0     H16545  10.662   5.696  10.439  0.0011  0.2594 -0.0296
  845MOL0     H16546  10.661   5.584  10.571 -0.2709  0.8655 -0.2069
  845MOL0     H16547  10.755   5.486  10.299  2.4772 -0.8514  0.0342
  845MOL0     H16548  10.864   5.565  10.411 -0.8569  0.8305 -1.0996
  845MOL0     H16549  10.859   5.390  10.569  1.7703  0.2017 -0.8528
  845MOL0     H16550  10.717   5.311  10.491 -0.3355  0.9868  0.0851
  845MOL0     H16551  10.976   5.367  10.351 -0.4135 -0.2390 -1.3319
  845MOL0     H16552  10.841   5.273  10.285 -2.1142 -0.1469  1.1144
  845MOL0     H16553  11.040   5.150  10.363 -0.6873  1.5108 -1.1499
  845MOL0     H16554  11.006   5.178  10.530  0.8384 -1.7437 -0.6944
  845MOL0     H16555  10.789   5.052  10.349 -0.4456  2.7705  0.1061
  845MOL0     H16556  10.783   5.077  10.521 -0.6543  2.3477 -1.1040
  845MOL0     H16557  10.958   4.911  10.567 -0.8360  1.7972  1.0704
  845MOL0     H16558  10.836   4.839  10.466 -2.1999  2.3840  0.2191
  845MOL0     H16559  10.888   4.846  10.175  0.0828  1.3979 -0.7661
  845MOL0     H16560  11.136   4.870   9.987 -3.6928 -0.4777 -3.1651
  845MOL0     H16561  10.998   4.773   9.991 -0.2205  3.5164  0.1092
  845MOL0     H16562  11.269   4.645  10.059 -0.9516 -0.0364  0.8550
  845MOL0     H16563  11.116   4.562  10.058 -0.6315 -0.1248  0.6787
  845MOL0     H16564  11.199   4.512   9.836 -0.9422  0.3820 -1.8276
  845MOL0     H16565  11.088   4.638   9.802 -0.0704  0.1642 -0.2697
  845MOL0     H16566  11.316   4.664   9.695 -0.3523 -2.9003  0.3595
  845MOL0     H16567  11.302   4.794   9.817 -2.1982 -0.2893 -0.1511
  845MOL0     H16568  11.483   4.780   9.649 -1.0910 -2.0896 -1.3227
  845MOL0     H16569  11.728   4.922   9.523 -0.5634  1.2199 -4.5816
  845MOL0     H16570  11.593   4.836   9.454  0.3808 -0.1022 -0.7606
  845MOL0     H16571  11.751   4.801   9.404  0.2884  2.3075 -0.3662
  845MOL0     H16572  12.209   4.413   9.721 -0.8841  0.0790 -0.6959
  845MOL0     H16573  12.430   4.358   9.587 -1.4722 -1.5264  2.5275
  845MOL0     H16574  12.471   4.405   9.144 -0.9246 -0.7505  0.7068
  845MOL0     H16575  12.466   4.545   9.254 -1.5696 -1.0688  1.9903
  845MOL0     H16576  12.688   4.474   9.150  0.4828 -3.4490 -2.0269
  845MOL0     H16577  12.693   4.480   9.326 -1.5744  0.7832 -0.0883
  845MOL0     H16578  12.693   4.236   9.148 -1.3085  1.0349  0.8974
  845MOL0     H16579  12.640   4.216   9.309  0.9274 -0.4253  0.7329
  845MOL0     H16580  12.845   4.304   9.405 -3.0426 -1.0150  0.7093
  845MOL0     H16581  12.908   4.323   9.236 -2.0641 -0.3695 -3.2571
  845MOL0     H16582  12.807   4.058   9.361  1.7346 -1.5321  1.8920
  845MOL0     H16583  12.900   4.083   9.207  0.6436 -1.2687 -0.1974
  845MOL0     H16584  13.022   4.175   9.461 -1.0042  2.2550 -1.9522
  845MOL0     H16585  13.091   4.140   9.300 -1.3476  1.3734 -0.2741
  845MOL0     H16586  13.033   3.898   9.327 -0.4376  0.0649  0.0959
  845MOL0     H16587  12.990   3.927   9.495 -0.5118  0.6583  0.3162
  845MOL0     H16588  13.271   4.002   9.392 -1.1413  0.6518  0.1186
  845MOL0     H16589  13.219   3.834   9.449 -2.7231 -0.1907 -0.3186
  845MOL0     H16590  12.205   4.441   9.234 -1.1650  2.2120 -0.7546
  845MOL0     H16591  12.030   4.523   9.351  0.6421 -2.5772 -1.5492
  845MOL0     H16592  11.846   4.482   9.798 -2.1013 -0.7133  2.5559
  845MOL0     H16593  11.647   4.522   9.941 -1.3106  1.6265  1.3468
  845MOL0     H16594  10.258   5.628  10.178  0.2251 -0.8278  0.4834
  845MOL0     H16595  10.072   5.465  10.119  0.5567  0.0220  0.5528
  845MOL0     H16596   9.981   5.023  10.015 -1.2974  0.3667 -3.2576
  845MOL0     H16597   9.834   4.842   9.962  0.3836 -0.9644  1.1112
  845MOL0     H16598   9.597   4.703   9.875  1.7966 -1.2302  0.1534
  845MOL0     H16599   9.711   4.654   9.995  0.1860 -1.0763 -1.9084
  845MOL0     H16600   9.543   4.495   9.988  3.6657 -0.6314  2.7042
  845MOL0     H16601   9.419   4.615  10.040  0.0453  0.1053 -1.5871
  845MOL0     H16602   9.500   4.458  10.219 -1.4966  2.1021 -0.8656
  845MOL0     H16603   9.673   4.511  10.182  0.3623  0.1603  1.6545
  845MOL0     H16604   9.593   4.737  10.266  0.6594 -0.5522 -2.0996
  845MOL0     H16605   9.609   4.608  10.392  0.8884  0.1717 -0.8542
  845MOL0     H16606   9.224   4.761  10.401  0.6240 -1.2903  1.3420
  845MOL0     H16607   9.548   4.993  10.249 -0.9485 -1.5574 -0.6179
  845MOL0     H16608   9.652   5.278  10.325  0.8937 -0.6686 -2.6802
  845MOL0     H16609   9.584   5.145  10.395 -0.8229  1.1042 -1.5215
  845MOL0     H16610   9.758   5.186  10.429 -1.6948 -3.0436  1.8690
  846MOL0     O16611  10.605   9.574   4.059  0.5711  1.0897  0.3614
  846MOL0     C16612  10.512   9.640   4.096  0.1736  0.0407  0.3594
  846MOL0     O16613  10.520   9.715   4.205 -0.1187 -0.7333  0.5515
  846MOL0     C16614  10.638   9.735   4.261 -0.5520  0.4330  0.3970
  846MOL0     C16615  10.717   9.841   4.214  0.1683  0.7325 -0.2392
  846MOL0     C16616  10.840   9.861   4.272 -1.4689 -0.4889 -0.7646
  846MOL0     C16617  10.895   9.782   4.374 -0.2520 -0.0734  0.3463
  846MOL0     O16618  11.028   9.791   4.423 -0.2131 -0.0720 -0.0998
  846MOL0     C16619  11.100   9.915   4.425 -0.0948 -0.2039  0.0930
  846MOL0     C16620  11.253   9.892   4.461  0.5344  0.3189  0.0882
  846MOL0     C16621  11.274   9.837   4.595  0.1063  1.0187 -0.0950
  846MOL0     C16622  11.421   9.852   4.623 -0.1484 -0.1257  0.7083
  846MOL0     C16623  11.469   9.755   4.729  1.1699  1.1872 -0.5694
  846MOL0     C16624  11.618   9.794   4.755 -0.2153  0.4571 -0.0523
  846MOL0     C16625  11.713   9.771   4.639 -0.1120 -0.5357 -0.1406
  846MOL0     C16626  11.856   9.725   4.680  0.2141  0.2031  0.3261
  846MOL0     N16627  11.922   9.799   4.782 -0.3130  0.4131 -0.3730
  846MOL0     C16628  11.970   9.754   4.904  0.2337 -0.1758 -0.1249
  846MOL0     C16629  12.046   9.857   4.950  0.4676  0.9181  0.1357
  846MOL0     C16630  12.122   9.870   5.082 -0.5555  0.8553  0.6152
  846MOL0     C16631  12.244   9.771   5.065 -0.1349 -0.0544  1.2030
  846MOL0     C16632  12.338   9.773   5.187 -0.4912  0.1843 -0.2123
  846MOL0     C16633  12.466   9.858   5.180 -0.2714 -0.0835 -0.3427
  846MOL0     O16634  12.552   9.803   5.083 -0.1182  0.7638  0.1218
  846MOL0     C16635  12.677   9.856   5.082 -0.6104 -0.2701 -0.4531
  846MOL0     C16636  12.711   9.977   5.157 -0.3535 -1.0427  0.8716
  846MOL0     C16637  12.833  10.043   5.136  0.4414  0.4408  0.3205
  846MOL0     C16638  12.857  10.176   5.202 -0.1659 -0.5535 -0.6119
  846MOL0     C16639  12.931   9.974   5.054 -0.0088  0.4194  0.1842
  846MOL0     C16640  13.065  10.027   5.027 -0.6387  0.3515 -0.0729
  846MOL0     O16641  13.162   9.935   4.977  0.5177  0.1142 -0.3218
  846MOL0     C16642  13.297   9.967   4.958  1.2436 -0.2732 -0.2058
  846MOL0     C16643  13.378   9.857   4.945  0.7305  0.0520  0.4848
  846MOL0     C16644  13.519   9.869   4.918 -0.0371 -0.0175 -0.7337
  846MOL0     C16645  13.568   9.998   4.890  0.5907  0.8681 -0.3203
  846MOL0     O16646  13.698  10.021   4.872  0.0512 -0.0955 -0.0211
  846MOL0     C16647  13.794   9.983   4.968 -0.1151 -0.1619  0.0608
  846MOL0     C16648  13.878  10.109   5.007 -0.2306  0.6720 -0.2220
  846MOL0     C16649  14.024  10.085   5.045 -0.1099  0.2711  0.4348
  846MOL0     C16650  14.092  10.225   5.056  0.9820  0.8372 -0.1499
  846MOL0     C16651  14.246  10.235   5.019  0.8706 -0.4098  0.1484
  846MOL0     C16652  14.333  10.162   5.121  1.0664 -0.0175  0.5210
  846MOL0     C16653  14.478  10.173   5.093 -0.3878 -1.1039 -0.8278
  846MOL0     C16654  14.516  10.083   4.974  0.0883  0.0659  0.9204
  846MOL0    Cl16655  14.693  10.060   4.935 -0.4510 -0.5603  0.3179
  846MOL0     C16656  13.481  10.115   4.890 -0.3268 -0.2581 -0.0432
  846MOL0     C16657  13.350  10.094   4.921 -0.0317 -0.1378 -0.4060
  846MOL0     O16658  13.088  10.143   5.046 -0.2176  0.2170  0.8175
  846MOL0     C16659  12.896   9.857   4.978  0.2841 -0.2275  0.2175
  846MOL0     C16660  12.772   9.805   5.003  0.2247  0.8388  0.4263
  846MOL0     N16661  12.041   9.962   4.858 -0.0175 -0.3099  0.6366
  846MOL0     N16662  11.950   9.925   4.761  0.5831  1.2674  0.2205
  846MOL0     C16663  10.818   9.674   4.415  0.0818 -0.8537  0.2761
  846MOL0     C16664  10.682   9.654   4.357 -0.2841  0.0687 -0.4340
  846MOL0     C16665  10.379   9.640   4.034  0.7148 -0.2435 -0.0768
  846MOL0     C16666  10.291   9.742   4.064  0.1365 -0.5246 -0.6028
  846MOL0     C16667  10.172   9.751   3.996 -0.0332 -0.4795 -0.4748
  846MOL0     C16668  10.135   9.661   3.895 -0.2790  0.8452 -0.3274
  846MOL0     O16669  10.011   9.661   3.839  0.1164  0.3823 -0.1928
  846MOL0     C16670   9.910   9.751   3.881  0.0413 -0.9117  0.1295
  846MOL0     C16671   9.777   9.709   3.823 -0.4189  0.3258 -0.1322
  846MOL0     C16672   9.718   9.590   3.906 -0.7219 -1.4833  0.0163
  846MOL0     C16673   9.641   9.624   4.030  1.1420  0.2205 -0.0419
  846MOL0     C16674   9.530   9.719   4.017 -0.5498 -0.5458 -0.0773
  846MOL0     C16675   9.445   9.808   3.998  0.6665  0.7033  0.6343
  846MOL0     C16676  10.223   9.557   3.871 -0.3252  1.0792  0.5966
  846MOL0     C16677  10.346   9.545   3.934 -0.1460  0.4877 -0.3996
  846MOL0     C16678  10.433   9.430   3.895 -0.1797  0.6170 -0.5995
  846MOL0     H16679  10.669   9.908   4.144 -2.0747  0.0255  0.5331
  846MOL0     H16680  10.884   9.957   4.247  1.5623 -1.8564 -1.1465
  846MOL0     H16681  11.050   9.988   4.489 -2.0673  1.6777 -3.2967
  846MOL0     H16682  11.090   9.959   4.326  0.8346  3.0330  1.3028
  846MOL0     H16683  11.304   9.821   4.394  0.8971 -0.2060  0.8932
  846MOL0     H16684  11.296   9.992   4.454  1.2472 -0.0874 -3.0194
  846MOL0     H16685  11.209   9.886   4.668 -0.6902 -1.3448  0.8859
  846MOL0     H16686  11.250   9.732   4.579  1.9708  0.7068 -1.2001
  846MOL0     H16687  11.477   9.832   4.531 -0.4880 -2.6809  0.9723
  846MOL0     H16688  11.448   9.954   4.650  4.9158 -0.7556 -0.9224
  846MOL0     H16689  11.459   9.649   4.705  4.9873  0.1018  1.6609
  846MOL0     H16690  11.416   9.772   4.824 -2.5764  0.8977 -2.4255
  846MOL0     H16691  11.633   9.893   4.798  3.1990  0.4011 -0.8153
  846MOL0     H16692  11.659   9.732   4.834  1.3634  0.9224 -0.4650
  846MOL0     H16693  11.727   9.862   4.580 -0.4973 -1.4802 -1.7554
  846MOL0     H16694  11.665   9.710   4.562  0.8215  0.6245 -1.7025
  846MOL0     H16695  11.842   9.619   4.705 -2.4542  0.4943  0.3279
  846MOL0     H16696  11.922   9.736   4.593  1.6692  1.4691  1.5240
  846MOL0     H16697  11.944   9.655   4.937  0.3979  0.5878  2.4915
  846MOL0     H16698  12.069   9.840   5.173 -1.8518  2.4961  0.4512
  846MOL0     H16699  12.159   9.971   5.101 -0.7110  0.6703  2.0960
  846MOL0     H16700  12.193   9.674   5.058 -0.6906  0.2308  1.2661
  846MOL0     H16701  12.307   9.792   4.978 -2.1314  1.1662 -0.0234
  846MOL0     H16702  12.281   9.801   5.276 -1.2023 -0.4486 -0.4606
  846MOL0     H16703  12.368   9.668   5.195  0.5463  0.2067 -2.8798
  846MOL0     H16704  12.443   9.960   5.148 -1.6745 -0.6017 -1.0509
  846MOL0     H16705  12.511   9.857   5.280 -1.1423 -1.0585  0.0583
  846MOL0     H16706  12.650  10.030   5.229 -1.7625 -1.3477 -0.0436
  846MOL0     H16707  12.777  10.211   5.268 -0.8035  0.7598 -2.0203
  846MOL0     H16708  12.878  10.259   5.134 -4.2173  2.3723  1.2817
  846MOL0     H16709  12.944  10.159   5.265 -0.8979  1.2494  0.9993
  846MOL0     H16710  13.323   9.763   4.942  1.6940 -0.7309  3.3620
  846MOL0     H16711  13.585   9.783   4.904  0.1396  0.1081 -0.6709
  846MOL0     H16712  13.747   9.950   5.061 -0.5191  0.1998 -0.0108
  846MOL0     H16713  13.851   9.896   4.934 -0.3729 -0.6495  0.8481
  846MOL0     H16714  13.866  10.177   4.922  1.0652  0.1790 -0.8126
  846MOL0     H16715  13.829  10.154   5.094  0.3369 -0.2787  0.6055
  846MOL0     H16716  14.075  10.033   4.963  2.2797 -0.9584  2.5759
  846MOL0     H16717  14.023  10.015   5.129 -0.6069 -2.8409 -1.9770
  846MOL0     H16718  14.080  10.263   5.158  0.4716  1.2401 -0.3579
  846MOL0     H16719  14.037  10.294   4.991  0.2707  1.4220  1.0417
  846MOL0     H16720  14.252  10.188   4.920  0.4420  1.5804 -0.8692
  846MOL0     H16721  14.273  10.341   5.014 -0.5837 -0.0317 -0.2274
  846MOL0     H16722  14.298  10.058   5.114 -1.8169  0.9153 -0.4107
  846MOL0     H16723  14.307  10.206   5.218  0.2756  1.3484 -0.2942
  846MOL0     H16724  14.524  10.128   5.182 -0.8224  0.4839  0.2316
  846MOL0     H16725  14.517  10.274   5.078  1.0765 -0.9656  2.8610
  846MOL0     H16726  14.468  10.113   4.880 -1.2647 -2.3583  0.7684
  846MOL0     H16727  14.472   9.984   4.989 -0.7442  0.8375  4.2067
  846MOL0     H16728  13.512  10.219   4.885  0.4527 -0.4423  0.6956
  846MOL0     H16729  13.296  10.189   4.922  1.3359  0.6573 -0.2567
  846MOL0     H16730  12.966   9.792   4.926  1.2291  0.7164  0.2811
  846MOL0     H16731  12.752   9.707   4.962 -1.6103  1.4835 -0.3768
  846MOL0     H16732  10.865   9.614   4.493  1.2002 -0.4323 -0.0581
  846MOL0     H16733  10.613   9.575   4.382 -0.6228 -1.0608 -4.3722
  846MOL0     H16734  10.314   9.815   4.142  1.6452  0.9035 -2.2980
  846MOL0     H16735  10.113   9.834   4.033  1.5228  0.5203 -0.0971
  846MOL0     H16736   9.906   9.761   3.989 -2.4516  2.4971 -0.0893
  846MOL0     H16737   9.939   9.850   3.844 -2.2444 -1.1465 -2.7705
  846MOL0     H16738   9.772   9.681   3.717  0.2463 -1.6677  0.3280
  846MOL0     H16739   9.706   9.792   3.837 -0.8276 -0.2340  1.2477
  846MOL0     H16740   9.643   9.551   3.837  0.4567 -1.1291 -1.5316
  846MOL0     H16741   9.797   9.517   3.928 -0.0704 -0.1268  2.6531
  846MOL0     H16742   9.708   9.668   4.105  0.5536  0.9742  0.0518
  846MOL0     H16743   9.599   9.535   4.077  1.1113  1.4748  2.4786
  846MOL0     H16744   9.360   9.869   3.972 -0.0048 -0.8421 -0.9522
  846MOL0     H16745  10.186   9.481   3.803 -1.5140  0.9884  1.3153
  846MOL0     H16746  10.537   9.456   3.873  0.3200 -1.8299 -1.5434
  846MOL0     H16747  10.438   9.362   3.981 -1.1479  1.9118  0.5269
  846MOL0     H16748  10.396   9.374   3.809  1.7596  0.5872 -1.4586
  847MOL0     O16749   2.191   0.182   2.958 -0.4554  0.4061  0.8480
  847MOL0     C16750   2.143   0.089   3.020 -0.2068  0.6854 -0.0428
  847MOL0     O16751   2.204   0.011   3.121 -0.0143 -0.0493 -0.7358
  847MOL0     C16752   2.328   0.036   3.175 -0.2516  0.6046 -0.5751
  847MOL0     C16753   2.440   0.110   3.120 -0.2590  0.7167  0.2697
  847MOL0     C16754   2.570   0.095   3.173  0.0447  0.0087 -0.4795
  847MOL0     C16755   2.600   0.023   3.283  0.0968  0.4751 -0.2121
  847MOL0     O16756   2.719   0.028   3.358 -0.3107  0.6232 -0.3881
  847MOL0     C16757   2.843   0.089   3.305 -0.1230  0.0035 -0.2015
  847MOL0     C16758   2.960   0.051   3.403  0.6971  0.3865 -0.5504
  847MOL0     C16759   3.075   0.138   3.380 -0.2892 -0.0431  1.0342
  847MOL0     C16760   3.046   0.290   3.415 -0.0857 -0.2077  0.3790
  847MOL0     C16761   3.172   0.379   3.415  0.2086 -0.2818 -0.2221
  847MOL0     C16762   3.246   0.379   3.551  0.0914 -0.0376 -0.5340
  847MOL0     C16763   3.364   0.489   3.554  0.6066 -0.0768  0.2262
  847MOL0     C16764   3.489   0.473   3.459  0.3320  0.2789  0.4985
  847MOL0     N16765   3.551   0.337   3.466 -0.3440  0.7455 -0.1695
  847MOL0     C16766   3.511   0.217   3.401 -1.3159 -0.2625  0.1134
  847MOL0     C16767   3.604   0.122   3.427  0.0360  0.0350  0.5744
  847MOL0     C16768   3.586  -0.027   3.387 -0.2851 -0.1863  0.4275
  847MOL0     C16769   3.707  -0.103   3.448  0.1898  0.3820  0.0420
  847MOL0     C16770   3.829  -0.068   3.381 -1.4280  0.1268  0.0411
  847MOL0     C16771   3.945  -0.154   3.424 -0.0497 -0.0422 -0.2724
  847MOL0     O16772   3.958  -0.275   3.348  0.0839 -0.5226 -0.0403
  847MOL0     C16773   4.083  -0.317   3.320 -0.6721 -0.1857  0.2606
  847MOL0     C16774   4.202  -0.275   3.384  0.2352  0.3652  1.0735
  847MOL0     C16775   4.335  -0.313   3.346 -0.6841 -0.3131 -0.7319
  847MOL0     C16776   4.451  -0.266   3.426  0.0679  0.3441  0.3570
  847MOL0     C16777   4.343  -0.401   3.239  0.4154 -0.5982 -0.3427
  847MOL0     C16778   4.473  -0.461   3.180  0.4131  0.2112 -0.2074
  847MOL0     O16779   4.467  -0.556   3.081 -0.4940 -0.4255  0.0637
  847MOL0     C16780   4.592  -0.597   3.030  0.2393 -0.9680  0.2116
  847MOL0     C16781   4.705  -0.510   2.990 -0.2879 -0.3016 -0.4252
  847MOL0     C16782   4.823  -0.562   2.935 -0.4177 -0.1618 -1.5810
  847MOL0     C16783   4.831  -0.702   2.908 -0.8803 -0.4611 -0.0067
  847MOL0     O16784   4.955  -0.745   2.849  0.5931 -0.4164  0.8746
  847MOL0     C16785   4.989  -0.874   2.885 -0.7422  0.4094 -0.7735
  847MOL0     C16786   5.136  -0.856   2.927  0.7427 -0.5303 -0.3984
  847MOL0     C16787   5.219  -0.834   2.800 -0.5014  0.5527  0.0930
  847MOL0     C16788   5.350  -0.768   2.832 -0.0119  0.0692 -0.8951
  847MOL0     C16789   5.464  -0.796   2.741  0.2909 -0.1778 -0.3781
  847MOL0     C16790   5.442  -0.765   2.594  0.5500 -1.2998  0.5272
  847MOL0     C16791   5.564  -0.752   2.508  0.3582 -0.0209 -0.4634
  847MOL0     C16792   5.512  -0.690   2.379  0.5099 -0.6667  0.5286
  847MOL0    Cl16793   5.640  -0.692   2.265 -0.3652  0.0953 -0.0622
  847MOL0     C16794   4.726  -0.782   2.936  0.0212  0.5214  0.1141
  847MOL0     C16795   4.610  -0.733   2.997  0.0218 -0.3441 -0.0414
  847MOL0     O16796   4.575  -0.428   3.238 -0.8318  0.4198  0.7294
  847MOL0     C16797   4.229  -0.434   3.164  0.2474 -0.2029 -0.8532
  847MOL0     C16798   4.100  -0.394   3.199 -0.6934  0.1831  0.8374
  847MOL0     N16799   3.691   0.181   3.516 -0.2031 -0.5703  0.1410
  847MOL0     N16800   3.658   0.299   3.549 -0.4314 -0.1590  0.1281
  847MOL0     C16801   2.492  -0.046   3.344 -0.3223 -0.5166 -0.4389
  847MOL0     C16802   2.360  -0.043   3.287  0.0787 -0.5391  0.2692
  847MOL0     C16803   2.000   0.060   2.989  0.2190 -0.7859 -0.1566
  847MOL0     C16804   1.926   0.012   3.100  0.0163  0.1395 -0.5092
  847MOL0     C16805   1.785  -0.011   3.088 -0.1626 -0.0439  0.5705
  847MOL0     C16806   1.724   0.017   2.962 -0.0470  0.6342  0.3512
  847MOL0     O16807   1.588   0.005   2.947  0.0663  0.0303  0.6321
  847MOL0     C16808   1.505  -0.053   3.046 -0.5238 -0.4596 -1.3113
  847MOL0     C16809   1.377  -0.104   2.979  0.1600  0.3368 -0.4477
  847MOL0     C16810   1.289   0.011   2.917 -0.0582  0.6583 -1.4088
  847MOL0     C16811   1.173  -0.048   2.842  0.0669 -0.3803  0.2786
  847MOL0     C16812   1.218  -0.105   2.714 -0.2316  0.3053 -0.0032
  847MOL0     C16813   1.266  -0.136   2.605  0.2871 -0.1151 -0.5506
  847MOL0     C16814   1.801   0.053   2.848 -0.1173 -0.7552 -0.5761
  847MOL0     C16815   1.938   0.085   2.861  0.0494  0.2652 -0.2559
  847MOL0     C16816   2.012   0.140   2.742 -0.5610 -0.1111 -0.2730
  847MOL0     H16817   2.427   0.164   3.027 -1.5062  0.5468  0.3186
  847MOL0     H16818   2.659   0.146   3.137 -0.6000  1.6616  0.1735
  847MOL0     H16819   2.822   0.196   3.299  1.7486  0.4496  0.5311
  847MOL0     H16820   2.874   0.052   3.206  1.1728 -1.4920  0.7133
  847MOL0     H16821   2.919   0.073   3.502 -1.2394  1.6947 -1.5763
  847MOL0     H16822   2.997  -0.051   3.397  1.9810  0.7424  0.8177
  847MOL0     H16823   3.165   0.106   3.433 -1.0554  0.0008  2.4005
  847MOL0     H16824   3.105   0.138   3.274  2.7377 -0.4837  1.8051
  847MOL0     H16825   2.977   0.330   3.340  0.1363 -0.9894 -0.2594
  847MOL0     H16826   3.003   0.282   3.515  0.0552 -5.7412  0.3055
  847MOL0     H16827   3.133   0.480   3.399 -1.6818 -1.1057 -1.1371
  847MOL0     H16828   3.239   0.350   3.334  0.7183 -1.6534  0.6521
  847MOL0     H16829   3.171   0.387   3.630 -1.8536  1.1960 -2.3999
  847MOL0     H16830   3.282   0.279   3.576 -1.8000 -0.0212  2.7704
  847MOL0     H16831   3.393   0.494   3.659  2.3835 -0.5533 -0.1933
  847MOL0     H16832   3.324   0.589   3.537  1.4137 -0.0229 -1.7285
  847MOL0     H16833   3.460   0.498   3.356 -0.8320  0.8135  0.9266
  847MOL0     H16834   3.564   0.545   3.491  1.6789 -1.8371  2.3664
  847MOL0     H16835   3.436   0.207   3.323 -0.2939  0.6623 -1.0304
  847MOL0     H16836   3.587  -0.039   3.278 -1.8749 -0.8465  0.4626
  847MOL0     H16837   3.498  -0.074   3.431  0.4639 -2.4446 -0.3572
  847MOL0     H16838   3.718  -0.064   3.550  0.4867  0.6280 -0.0829
  847MOL0     H16839   3.680  -0.209   3.450 -1.1567  0.6543  2.9908
  847MOL0     H16840   3.820  -0.070   3.272  0.8037  2.5236 -0.2876
  847MOL0     H16841   3.859   0.032   3.414 -2.6598 -0.4842  3.4974
  847MOL0     H16842   4.032  -0.088   3.419 -0.9418  1.4108  1.7003
  847MOL0     H16843   3.929  -0.166   3.532  2.5237  0.0612  0.1775
  847MOL0     H16844   4.208  -0.218   3.477  0.9274  1.9879  0.0901
  847MOL0     H16845   4.525  -0.225   3.358  1.4052 -0.6219  1.1845
  847MOL0     H16846   4.504  -0.347   3.477 -0.0776  0.3449  0.5120
  847MOL0     H16847   4.411  -0.197   3.500  1.0441  1.0688  0.2207
  847MOL0     H16848   4.699  -0.402   3.004  1.6384 -0.1217 -0.6463
  847MOL0     H16849   4.890  -0.485   2.898  1.1626 -1.0077 -0.5918
  847MOL0     H16850   4.935  -0.924   2.965 -1.5461 -0.7055 -1.9622
  847MOL0     H16851   4.986  -0.947   2.802  0.6593 -0.3509 -0.1912
  847MOL0     H16852   5.140  -0.784   3.009  0.5059  1.2430 -1.8814
  847MOL0     H16853   5.174  -0.943   2.981  0.4808  0.9642  2.3579
  847MOL0     H16854   5.167  -0.771   2.727  0.6328  0.9387 -0.4112
  847MOL0     H16855   5.248  -0.927   2.750  1.6737  2.6504 -2.9090
  847MOL0     H16856   5.389  -0.797   2.929  0.0432 -0.3166 -1.0328
  847MOL0     H16857   5.333  -0.660   2.838  2.4024  0.6915 -3.3105
  847MOL0     H16858   5.547  -0.730   2.764  0.5979 -0.7435  0.1579
  847MOL0     H16859   5.493  -0.901   2.749  0.3914 -0.1492 -0.3772
  847MOL0     H16860   5.396  -0.666   2.591  0.1125 -1.5033  0.4598
  847MOL0     H16861   5.373  -0.831   2.541  1.5003  0.1322 -2.8280
  847MOL0     H16862   5.596  -0.851   2.475 -2.6587 -0.9629 -0.8286
  847MOL0     H16863   5.644  -0.693   2.553  1.2295 -1.5438  0.0409
  847MOL0     H16864   5.477  -0.589   2.403  1.1333 -0.6514  1.4106
  847MOL0     H16865   5.432  -0.743   2.325 -1.1322  0.3343  1.8703
  847MOL0     H16866   4.730  -0.888   2.915  2.0560  0.4771  0.5572
  847MOL0     H16867   4.527  -0.799   3.019  0.3273 -0.1395  1.8864
  847MOL0     H16868   4.232  -0.503   3.080 -3.7616 -0.1192 -1.2963
  847MOL0     H16869   4.021  -0.426   3.133  0.1859  0.5754 -0.4393
  847MOL0     H16870   2.510  -0.106   3.433 -0.0665 -0.7156 -0.6231
  847MOL0     H16871   2.280  -0.100   3.334  0.3570  0.1716  1.6596
  847MOL0     H16872   1.970  -0.003   3.198  1.3534  0.2767 -1.0649
  847MOL0     H16873   1.729  -0.015   3.180  1.5155  0.3044  1.6568
  847MOL0     H16874   1.546  -0.144   3.090  2.0532  0.0009 -2.6001
  847MOL0     H16875   1.491   0.029   3.117  1.1354  0.1234 -1.6098
  847MOL0     H16876   1.324  -0.159   3.057  1.1135  0.5149  0.3407
  847MOL0     H16877   1.394  -0.191   2.914 -1.2125 -0.4367  0.1794
  847MOL0     H16878   1.262   0.069   3.006 -0.1632 -0.8997 -0.3758
  847MOL0     H16879   1.353   0.074   2.855  2.7707 -0.6251  0.0230
  847MOL0     H16880   1.107   0.039   2.831  0.6388  0.1924  1.2684
  847MOL0     H16881   1.117  -0.117   2.906  0.6283 -0.9712  0.1516
  847MOL0     H16882   1.296  -0.154   2.504 -0.9499 -0.6236 -0.8466
  847MOL0     H16883   1.748   0.068   2.754 -1.7684 -2.1137  0.0962
  847MOL0     H16884   2.112   0.098   2.725  0.0015  0.8053  0.7209
  847MOL0     H16885   1.954   0.105   2.655  0.3007 -1.3730 -0.3626
  847MOL0     H16886   2.013   0.249   2.748  2.0555 -0.1174  0.2465
  848MOL0     O16887   4.653   0.170   9.055  0.5441  0.1569  0.4387
  848MOL0     C16888   4.615   0.138   8.939  0.1072 -0.3950  0.3909
  848MOL0     O16889   4.691   0.070   8.847 -0.2352 -0.3078 -0.0580
  848MOL0     C16890   4.811   0.008   8.892  0.6435 -0.5521 -0.6775
  848MOL0     C16891   4.820  -0.129   8.897  0.5177  1.0700 -0.8307
  848MOL0     C16892   4.942  -0.184   8.925 -0.3953 -0.5048 -0.4420
  848MOL0     C16893   5.054  -0.110   8.956  0.1106 -0.3234 -0.0681
  848MOL0     O16894   5.172  -0.180   8.982  0.0203 -0.4301  0.5444
  848MOL0     C16895   5.290  -0.093   8.959 -0.0523 -0.3089 -0.3131
  848MOL0     C16896   5.399  -0.182   8.931 -0.0256 -0.2026  0.4619
  848MOL0     C16897   5.460  -0.250   9.051  0.6778  0.3322  0.2162
  848MOL0     C16898   5.543  -0.377   9.001 -0.0159  0.0655  0.2317
  848MOL0     C16899   5.608  -0.451   9.122  0.0702 -0.5281  0.2676
  848MOL0     C16900   5.718  -0.539   9.073 -0.6523  0.1794  0.4166
  848MOL0     C16901   5.855  -0.479   9.036  0.2258 -0.3638 -0.5660
  848MOL0     C16902   5.947  -0.573   8.946 -0.3262  0.3781 -0.2010
  848MOL0     N16903   6.086  -0.570   8.994  0.8649 -0.6576  0.4642
  848MOL0     C16904   6.184  -0.496   8.937  1.0899  0.2172  0.2895
  848MOL0     C16905   6.286  -0.499   9.024 -0.5783  1.0071  0.1263
  848MOL0     C16906   6.422  -0.435   9.029  0.2258  0.2514  0.7928
  848MOL0     C16907   6.534  -0.545   9.030  0.0639  0.5703 -0.6623
  848MOL0     C16908   6.562  -0.610   8.890  0.0678  0.7910 -0.7343
  848MOL0     C16909   6.703  -0.683   8.884 -1.3013  0.0066  1.2869
  848MOL0     O16910   6.811  -0.585   8.907 -0.2670 -1.1260  0.4093
  848MOL0     C16911   6.929  -0.630   8.959  0.0766  0.7057  0.3440
  848MOL0     C16912   6.975  -0.764   8.947 -0.3262  0.8636 -0.5953
  848MOL0     C16913   7.096  -0.799   9.011 -0.3927  0.1311  1.0915
  848MOL0     C16914   7.134  -0.942   8.998  0.3270 -0.0219 -1.3501
  848MOL0     C16915   7.183  -0.703   9.058 -1.1059 -0.6364  0.0356
  848MOL0     C16916   7.317  -0.736   9.123 -0.1569  0.7653 -0.6706
  848MOL0     O16917   7.396  -0.628   9.150  0.1603  0.0837 -0.9400
  848MOL0     C16918   7.496  -0.632   9.247  0.3735 -1.6665  0.2499
  848MOL0     C16919   7.469  -0.652   9.385  0.6977  0.5647  0.2750
  848MOL0     C16920   7.565  -0.635   9.477 -0.2457  0.0060  0.3214
  848MOL0     C16921   7.691  -0.597   9.435 -0.2077  0.2811  0.3581
  848MOL0     O16922   7.794  -0.586   9.523 -0.1008  0.0389 -0.4417
  848MOL0     C16923   7.771  -0.611   9.664 -0.1307 -0.4069  0.0973
  848MOL0     C16924   7.905  -0.609   9.740  0.2523 -0.3732 -0.1779
  848MOL0     C16925   7.990  -0.723   9.690  0.3477 -0.0364 -0.3363
  848MOL0     C16926   8.120  -0.729   9.781 -0.1489 -0.0636 -0.0682
  848MOL0     C16927   8.226  -0.824   9.716  0.1546  0.0686  0.5166
  848MOL0     C16928   8.373  -0.768   9.711  0.1865 -0.3103 -0.0271
  848MOL0     C16929   8.433  -0.745   9.849  0.0810  0.3728  0.6269
  848MOL0     C16930   8.587  -0.755   9.831 -0.5320 -0.6681 -0.8842
  848MOL0    Cl16931   8.639  -0.627   9.719 -0.0000 -0.0704  0.2613
  848MOL0     C16932   7.723  -0.585   9.303 -0.4447  0.2265  0.3698
  848MOL0     C16933   7.621  -0.593   9.204 -0.2950 -0.2314  0.6336
  848MOL0     O16934   7.340  -0.849   9.160  0.5536 -0.3364 -0.0004
  848MOL0     C16935   7.139  -0.568   9.061 -0.5792 -0.0560 -0.2152
  848MOL0     C16936   7.010  -0.534   9.017  0.4648  0.5556 -0.8671
  848MOL0     N16937   6.240  -0.573   9.131 -0.9837  0.3269  0.2586
  848MOL0     N16938   6.115  -0.617   9.114 -0.6771 -0.1909  0.2549
  848MOL0     C16939   5.042   0.028   8.957  0.3447 -0.4449 -0.1615
  848MOL0     C16940   4.920   0.095   8.920  0.4129 -0.1525  0.2616
  848MOL0     C16941   4.468   0.163   8.910  0.1144  0.7605  0.0883
  848MOL0     C16942   4.389   0.048   8.887  1.0974 -0.3674 -0.3975
  848MOL0     C16943   4.249   0.067   8.859 -0.4372 -0.2775  0.3912
  848MOL0     C16944   4.199   0.192   8.821 -0.6103 -1.2149  1.0713
  848MOL0     O16945   4.080   0.198   8.758 -0.2213  0.2067  0.2347
  848MOL0     C16946   3.959   0.163   8.831  1.0437  0.1008 -0.1877
  848MOL0     C16947   3.858   0.271   8.843  0.5743  0.7834  0.7601
  848MOL0     C16948   3.811   0.338   8.714  0.4373  0.5157 -0.7156
  848MOL0     C16949   3.799   0.256   8.580 -0.6236  0.0727 -0.5888
  848MOL0     C16950   3.729   0.125   8.599 -0.1280  0.7177 -0.0657
  848MOL0     C16951   3.687   0.016   8.635  0.1897  0.1476  0.4697
  848MOL0     C16952   4.286   0.301   8.834  0.3542 -0.4785  0.4598
  848MOL0     C16953   4.421   0.288   8.873  0.5199 -1.6792 -0.8030
  848MOL0     C16954   4.509   0.411   8.850  0.3874 -0.6924 -0.3496
  848MOL0     H16955   4.730  -0.191   8.895 -0.2937  1.7097  3.8753
  848MOL0     H16956   4.950  -0.293   8.921 -1.2178 -0.5444 -1.5494
  848MOL0     H16957   5.301  -0.035   9.051 -3.3181  0.8478 -0.5107
  848MOL0     H16958   5.276  -0.025   8.874  0.9608  2.3823  1.5187
  848MOL0     H16959   5.380  -0.251   8.848  1.0178  2.3803 -2.0837
  848MOL0     H16960   5.474  -0.118   8.883  1.2189 -1.9543 -0.0262
  848MOL0     H16961   5.517  -0.179   9.111 -1.9462  1.7374  1.2014
  848MOL0     H16962   5.379  -0.282   9.117 -0.3543  3.1401  0.4344
  848MOL0     H16963   5.473  -0.444   8.951  2.3944 -2.8665  0.4909
  848MOL0     H16964   5.618  -0.331   8.936 -0.1734  0.7661  0.5423
  848MOL0     H16965   5.536  -0.519   9.168 -1.5247 -0.6773 -2.2512
  848MOL0     H16966   5.636  -0.380   9.199 -2.4432 -1.7155  2.4312
  848MOL0     H16967   5.738  -0.603   9.159  0.8213  0.6577  0.4449
  848MOL0     H16968   5.684  -0.590   8.983 -0.1052  0.4775  0.0344
  848MOL0     H16969   5.902  -0.460   9.132 -2.2681 -1.0579  0.8905
  848MOL0     H16970   5.834  -0.395   8.969  2.1138 -1.0495 -2.1309
  848MOL0     H16971   5.905  -0.674   8.945 -0.0635  0.2251  1.3783
  848MOL0     H16972   5.935  -0.539   8.843 -0.9120 -0.7254 -0.5129
  848MOL0     H16973   6.177  -0.448   8.840 -2.2270 -1.5986 -0.5204
  848MOL0     H16974   6.437  -0.382   9.123  0.4792 -0.4723  1.1642
  848MOL0     H16975   6.438  -0.360   8.950 -1.0206 -0.0259  0.2459
  848MOL0     H16976   6.626  -0.502   9.070 -0.4482 -0.9428  2.4463
  848MOL0     H16977   6.511  -0.623   9.103 -1.0298  0.6028 -0.9568
  848MOL0     H16978   6.482  -0.682   8.871 -0.0676  0.9291 -0.6870
  848MOL0     H16979   6.559  -0.528   8.819 -0.3077  2.4919  1.1496
  848MOL0     H16980   6.704  -0.765   8.957  0.1960 -1.0567  0.1380
  848MOL0     H16981   6.714  -0.722   8.783 -0.0734 -1.5465  1.9847
  848MOL0     H16982   6.914  -0.850   8.924  2.0827 -1.9283  2.4915
  848MOL0     H16983   7.059  -0.991   8.935 -1.8132  1.2120  0.0931
  848MOL0     H16984   7.135  -0.987   9.097  1.5915  0.0973 -1.2887
  848MOL0     H16985   7.232  -0.965   8.955  0.0775  0.0244 -1.9531
  848MOL0     H16986   7.369  -0.688   9.406  1.5042 -1.3088  1.1372
  848MOL0     H16987   7.526  -0.654   9.577 -0.9806  0.7311  0.1788
  848MOL0     H16988   7.716  -0.530   9.712 -0.9649 -0.1177 -1.2856
  848MOL0     H16989   7.711  -0.701   9.682 -0.0132 -0.6388 -0.6165
  848MOL0     H16990   7.957  -0.515   9.719 -1.4541  0.1469 -2.5480
  848MOL0     H16991   7.882  -0.604   9.847 -2.0575 -1.5056 -0.5549
  848MOL0     H16992   8.018  -0.711   9.585 -1.4002 -1.3118 -0.9917
  848MOL0     H16993   7.950  -0.824   9.705  0.7222  0.1465  2.3485
  848MOL0     H16994   8.091  -0.757   9.882  1.2012  0.1029  0.3881
  848MOL0     H16995   8.166  -0.632   9.800  0.6007 -0.0687 -1.6283
  848MOL0     H16996   8.229  -0.916   9.774 -2.7516 -0.7040 -0.4010
  848MOL0     H16997   8.185  -0.836   9.615  1.6509 -1.4290  0.0564
  848MOL0     H16998   8.374  -0.674   9.655 -1.8142 -0.8720 -1.1085
  848MOL0     H16999   8.437  -0.839   9.660 -0.1164 -1.9047  1.7020
  848MOL0     H17000   8.399  -0.814   9.927 -1.0799 -2.0941 -1.8803
  848MOL0     H17001   8.405  -0.643   9.879  1.6821  0.5127  1.7826
  848MOL0     H17002   8.601  -0.860   9.805  1.9108 -1.0979  1.6950
  848MOL0     H17003   8.654  -0.739   9.917 -0.2547 -3.3960 -0.5260
  848MOL0     H17004   7.828  -0.559   9.291 -1.0889  4.1600  1.5416
  848MOL0     H17005   7.633  -0.577   9.097  0.0070  2.5166  1.0022
  848MOL0     H17006   7.200  -0.496   9.114 -3.8588  2.7378  0.1253
  848MOL0     H17007   6.965  -0.435   9.011  0.9098  0.9160  1.0183
  848MOL0     H17008   5.126   0.088   8.991 -0.2268 -0.1270  0.7183
  848MOL0     H17009   4.912   0.203   8.915 -2.5378 -0.3624 -2.1808
  848MOL0     H17010   4.429  -0.052   8.874 -0.6725 -1.1817  0.0278
  848MOL0     H17011   4.183  -0.014   8.829  0.5027 -0.7794 -0.3890
  848MOL0     H17012   3.900   0.084   8.784  0.5031 -0.1368  0.8538
  848MOL0     H17013   3.984   0.136   8.934 -0.2668  1.5313  0.5581
  848MOL0     H17014   3.903   0.351   8.903 -0.0545  1.0233  0.9128
  848MOL0     H17015   3.774   0.237   8.904  0.0288 -1.6579 -1.1670
  848MOL0     H17016   3.711   0.379   8.731  0.3200  0.2689 -0.8081
  848MOL0     H17017   3.879   0.422   8.700  2.0388 -0.7683 -0.9708
  848MOL0     H17018   3.898   0.227   8.544 -1.0870  0.4402 -2.2572
  848MOL0     H17019   3.751   0.311   8.499 -0.4345  3.3869  1.3692
  848MOL0     H17020   3.642  -0.076   8.667  0.3213 -0.7197 -1.6695
  848MOL0     H17021   4.252   0.400   8.806 -1.6836 -1.4662 -0.8077
  848MOL0     H17022   4.525   0.450   8.951 -2.7471  2.0666 -0.7362
  848MOL0     H17023   4.610   0.386   8.817  0.0019 -1.6696 -0.8277
  848MOL0     H17024   4.467   0.498   8.799 -3.1640 -0.3585  2.7331
  849MOL0     O17025   6.054   3.895   2.444  0.3568  0.0282  0.5838
  849MOL0     C17026   6.172   3.889   2.469  0.3723 -0.3807 -0.1944
  849MOL0     O17027   6.249   3.796   2.413  0.3805 -0.0311  0.6643
  849MOL0     C17028   6.226   3.736   2.294 -0.7825  0.7261  0.1222
  849MOL0     C17029   6.273   3.602   2.282  0.2092  0.7076  0.0069
  849MOL0     C17030   6.236   3.522   2.173 -0.1981 -0.1538  0.9127
  849MOL0     C17031   6.162   3.584   2.064  0.1436  0.3630 -0.3737
  849MOL0     O17032   6.099   3.524   1.959  0.4670  0.6219 -0.0323
  849MOL0     C17033   6.158   3.395   1.926  0.9099  0.1353 -0.0214
  849MOL0     C17034   6.129   3.344   1.780  0.0118 -0.1117 -0.0523
  849MOL0     C17035   6.199   3.431   1.672  0.4234 -0.2857 -0.1249
  849MOL0     C17036   6.093   3.487   1.574  0.8880 -0.7206  0.1753
  849MOL0     C17037   6.157   3.576   1.472 -0.8931 -0.1187  0.5000
  849MOL0     C17038   6.275   3.515   1.391 -0.5357  0.4554  0.2466
  849MOL0     C17039   6.229   3.391   1.309 -0.7315  0.3759  0.3619
  849MOL0     C17040   6.311   3.366   1.187 -0.5210 -0.7636 -0.1982
  849MOL0     N17041   6.449   3.343   1.224 -0.3965  0.3736 -0.1749
  849MOL0     C17042   6.498   3.237   1.300  0.9604 -0.1839  0.3641
  849MOL0     C17043   6.627   3.223   1.258 -0.2573  0.2318  0.0615
  849MOL0     C17044   6.735   3.135   1.316 -0.5743  0.2338  0.1510
  849MOL0     C17045   6.861   3.101   1.227  0.1490 -0.8211 -0.3374
  849MOL0     C17046   6.816   3.029   1.101  0.8664  0.0322  0.0352
  849MOL0     C17047   6.941   2.999   1.028 -0.6733 -0.0921  0.6460
  849MOL0     O17048   7.020   2.906   1.099 -0.2054  0.0046 -0.1377
  849MOL0     C17049   7.144   2.865   1.053  0.0107 -0.5609  0.0817
  849MOL0     C17050   7.199   2.900   0.930  0.1343 -1.2960 -0.0819
  849MOL0     C17051   7.327   2.871   0.884 -1.2200  0.1140 -0.3165
  849MOL0     C17052   7.376   2.939   0.746 -0.1146  0.0991  0.1874
  849MOL0     C17053   7.414   2.785   0.967  1.0834 -1.0242 -0.3722
  849MOL0     C17054   7.554   2.745   0.935 -0.0312  0.2118 -0.4174
  849MOL0     O17055   7.626   2.825   0.857 -0.3257  0.2909 -0.1056
  849MOL0     C17056   7.740   2.774   0.790  0.8851  0.1774 -0.4878
  849MOL0     C17057   7.739   2.659   0.706  0.9688 -0.0226  1.1531
  849MOL0     C17058   7.850   2.637   0.629 -0.6829 -0.7966  0.3852
  849MOL0     C17059   7.974   2.705   0.661  0.3671 -0.1168  0.3300
  849MOL0     O17060   8.089   2.666   0.613 -0.2306  0.4376  0.0409
  849MOL0     C17061   8.100   2.548   0.529  0.6384  0.0492  0.0143
  849MOL0     C17062   8.238   2.519   0.473 -0.8656  0.2507  0.0559
  849MOL0     C17063   8.272   2.617   0.366 -0.5783 -0.4540 -0.9077
  849MOL0     C17064   8.406   2.572   0.310 -0.0320  0.2855  0.0299
  849MOL0     C17065   8.532   2.613   0.391 -0.3139 -0.0296  0.2332
  849MOL0     C17066   8.658   2.578   0.322 -1.0821  0.7731 -0.1732
  849MOL0     C17067   8.780   2.584   0.416  0.4026 -0.1466  0.1885
  849MOL0     C17068   8.910   2.553   0.340 -0.2374 -1.0187 -0.1720
  849MOL0    Cl17069   8.943   2.669   0.214 -0.0914  0.0271 -0.1873
  849MOL0     C17070   7.975   2.811   0.751 -0.4434  0.3511  0.7630
  849MOL0     C17071   7.858   2.842   0.811 -0.2492 -0.1430  0.4785
  849MOL0     O17072   7.579   2.625   0.967 -0.3125 -0.0707  0.4533
  849MOL0     C17073   7.361   2.745   1.091 -0.2693 -0.3559  0.5282
  849MOL0     C17074   7.229   2.785   1.131 -0.2162 -0.7260  0.5797
  849MOL0     N17075   6.651   3.321   1.163 -1.2947 -0.6844  0.2879
  849MOL0     N17076   6.541   3.390   1.148  0.0686 -0.6269  0.6373
  849MOL0     C17077   6.142   3.723   2.059  0.8610 -0.1662  0.2280
  849MOL0     C17078   6.171   3.799   2.175  0.4514  0.1405  0.6022
  849MOL0     C17079   6.232   3.966   2.575  0.3252  0.0852 -0.2729
  849MOL0     C17080   6.370   3.937   2.617 -0.2501 -0.1508  0.0413
  849MOL0     C17081   6.432   4.022   2.698  1.2118  0.2394 -0.9547
  849MOL0     C17082   6.376   4.146   2.733  0.3191 -0.3380 -0.4495
  849MOL0     O17083   6.432   4.233   2.821  0.4180 -0.4987 -0.0898
  849MOL0     C17084   6.578   4.254   2.833 -0.5154  0.9317 -0.7009
  849MOL0     C17085   6.639   4.331   2.719  0.0759  0.3371  1.0185
  849MOL0     C17086   6.790   4.342   2.746 -0.1403  0.0085 -0.2364
  849MOL0     C17087   6.875   4.228   2.674  0.0174 -0.4986  0.0506
  849MOL0     C17088   6.905   4.270   2.537  0.4223 -1.2435 -0.4674
  849MOL0     C17089   6.944   4.310   2.428  0.9369 -0.0974  0.1118
  849MOL0     C17090   6.250   4.176   2.699  0.3875  0.4729 -0.1971
  849MOL0     C17091   6.177   4.095   2.616  0.0410  0.6808 -1.0251
  849MOL0     C17092   6.038   4.151   2.586  0.0843  0.1330  0.2562
  849MOL0     H17093   6.329   3.551   2.359  0.4942 -1.3634 -1.4932
  849MOL0     H17094   6.264   3.418   2.176  1.8684  0.3630  0.8924
  849MOL0     H17095   6.137   3.317   2.001 -0.4805  0.3041 -0.2115
  849MOL0     H17096   6.265   3.414   1.938  0.5988  1.3276  1.2503
  849MOL0     H17097   6.164   3.242   1.768 -2.3881 -0.9157 -0.7358
  849MOL0     H17098   6.021   3.337   1.768 -0.1189  0.9504  0.3742
  849MOL0     H17099   6.246   3.524   1.704 -3.7066  2.4201 -1.0323
  849MOL0     H17100   6.266   3.360   1.622  0.5761 -0.5440  0.4398
  849MOL0     H17101   6.036   3.408   1.524 -0.0725  1.4404 -2.3633
  849MOL0     H17102   6.022   3.555   1.621  1.7201 -0.3898  1.0041
  849MOL0     H17103   6.209   3.664   1.512 -4.3217  2.2849  0.0601
  849MOL0     H17104   6.076   3.610   1.407 -3.8884 -2.4012  2.7763
  849MOL0     H17105   6.306   3.582   1.310 -1.0123  0.6000  0.1794
  849MOL0     H17106   6.361   3.482   1.450 -0.7374  1.2202  0.9833
  849MOL0     H17107   6.127   3.405   1.273 -0.8206  1.4638  0.9983
  849MOL0     H17108   6.235   3.298   1.366  1.8129  1.5071  2.1799
  849MOL0     H17109   6.281   3.283   1.122  1.1766  0.4252 -2.6299
  849MOL0     H17110   6.318   3.454   1.122  2.9898 -1.3313 -0.7742
  849MOL0     H17111   6.447   3.180   1.377  2.7389 -1.0219  0.9669
  849MOL0     H17112   6.685   3.043   1.346 -0.2338 -0.2404 -0.7168
  849MOL0     H17113   6.768   3.179   1.411 -1.4717 -1.3174  1.2291
  849MOL0     H17114   6.898   3.201   1.203 -3.8162  1.0096  0.4817
  849MOL0     H17115   6.932   3.045   1.289 -0.0960  0.8796  1.5528
  849MOL0     H17116   6.773   2.931   1.123  2.5491 -0.8268 -0.3173
  849MOL0     H17117   6.752   3.083   1.031  2.3442  0.2427 -1.2188
  849MOL0     H17118   6.926   2.961   0.926  5.6271  1.8610 -1.4493
  849MOL0     H17119   7.008   3.084   1.012  1.2261 -1.8702 -1.5464
  849MOL0     H17120   7.135   2.963   0.868 -1.3863 -2.2807  0.4261
  849MOL0     H17121   7.449   3.020   0.760  1.8797 -1.8252  1.5417
  849MOL0     H17122   7.289   2.972   0.687  0.0874 -0.2658 -0.3190
  849MOL0     H17123   7.422   2.856   0.693 -1.0584 -0.4931  0.2693
  849MOL0     H17124   7.643   2.608   0.696  0.6542  0.7986 -0.2838
  849MOL0     H17125   7.847   2.561   0.552 -1.7601  0.6331 -1.0471
  849MOL0     H17126   8.070   2.461   0.589 -0.7351  1.2863  1.2148
  849MOL0     H17127   8.029   2.551   0.446  0.8032  0.2920 -0.1168
  849MOL0     H17128   8.308   2.519   0.556  1.3920 -0.7360 -1.7396
  849MOL0     H17129   8.237   2.414   0.444  0.5832  0.1544  0.3211
  849MOL0     H17130   8.292   2.708   0.423  1.1028 -0.4085 -1.5070
  849MOL0     H17131   8.189   2.632   0.297 -0.7724 -0.2541 -0.6320
  849MOL0     H17132   8.411   2.624   0.214 -0.9269  0.1715 -0.0808
  849MOL0     H17133   8.399   2.464   0.290 -1.4640  0.4115 -0.2436
  849MOL0     H17134   8.514   2.718   0.415  0.0091 -0.6532  3.6829
  849MOL0     H17135   8.524   2.564   0.488  0.7961  0.6268  0.6685
  849MOL0     H17136   8.663   2.653   0.243 -3.1475 -0.8578 -2.0172
  849MOL0     H17137   8.659   2.475   0.285  1.9609  0.0802  1.5020
  849MOL0     H17138   8.783   2.497   0.481  1.9096 -1.0521 -1.0253
  849MOL0     H17139   8.781   2.678   0.473 -2.2729  0.3980 -0.4973
  849MOL0     H17140   8.895   2.460   0.284 -1.4270 -1.7498  1.2793
  849MOL0     H17141   8.999   2.559   0.402  1.2540 -1.1151 -2.2028
  849MOL0     H17142   8.063   2.869   0.777 -1.4602  0.7690  3.7283
  849MOL0     H17143   7.850   2.932   0.872  1.6515 -0.7869  1.7818
  849MOL0     H17144   7.430   2.704   1.164 -1.1923  0.7575  2.0811
  849MOL0     H17145   7.193   2.770   1.232  2.4787  2.1825  2.1363
  849MOL0     H17146   6.112   3.773   1.968  0.5488 -1.3641 -0.3427
  849MOL0     H17147   6.151   3.906   2.173  1.4724  0.3314  0.0335
  849MOL0     H17148   6.428   3.847   2.600 -1.0001 -0.9240  1.3730
  849MOL0     H17149   6.526   3.983   2.735  1.3655 -0.0473 -1.6326
  849MOL0     H17150   6.592   4.288   2.936  4.4605 -0.9297 -0.4905
  849MOL0     H17151   6.634   4.160   2.840 -2.0352  0.0995  1.2839
  849MOL0     H17152   6.589   4.427   2.701 -0.9938 -0.6066 -1.6094
  849MOL0     H17153   6.623   4.271   2.629  0.2817  0.4809  0.8855
  849MOL0     H17154   6.838   4.433   2.709 -3.3437  1.9534  0.0946
  849MOL0     H17155   6.813   4.347   2.852  1.1891 -0.4267 -0.4736
  849MOL0     H17156   6.814   4.137   2.675  1.1644 -1.3194 -0.9873
  849MOL0     H17157   6.977   4.221   2.714  1.0959 -1.8775 -2.7120
  849MOL0     H17158   6.992   4.338   2.336  1.7952 -4.5553 -1.0212
  849MOL0     H17159   6.210   4.269   2.738  3.2989  2.1783 -0.9923
  849MOL0     H17160   6.050   4.229   2.511 -0.9742 -0.6803 -0.7896
  849MOL0     H17161   5.966   4.084   2.538  0.3109  0.1013 -0.0460
  849MOL0     H17162   5.992   4.191   2.677 -2.4815 -4.1485  1.1215
  850MOL0     O17163  10.554   3.672   1.587 -0.0436  0.2552 -0.2519
  850MOL0     C17164  10.562   3.635   1.468 -0.2088  0.5961  0.1666
  850MOL0     O17165  10.678   3.608   1.394  0.1365 -0.2215 -0.0707
  850MOL0     C17166  10.791   3.624   1.464  0.0350  0.0763  0.4480
  850MOL0     C17167  10.820   3.744   1.540  0.9280  0.3589 -0.2339
  850MOL0     C17168  10.950   3.761   1.598  0.1957 -0.3481 -0.6572
  850MOL0     C17169  11.054   3.674   1.579 -0.4831  0.0415  0.3972
  850MOL0     O17170  11.170   3.692   1.649 -0.3009  0.4110  0.5216
  850MOL0     C17171  11.201   3.596   1.751 -0.5213 -0.4581  0.2082
  850MOL0     C17172  11.356   3.599   1.758 -0.4491  0.4097  0.0631
  850MOL0     C17173  11.412   3.486   1.841 -0.1510  0.6551  0.4991
  850MOL0     C17174  11.566   3.503   1.879 -0.2931  0.4507  0.4309
  850MOL0     C17175  11.631   3.362   1.903 -1.0192 -0.5903  0.5129
  850MOL0     C17176  11.786   3.374   1.908  0.6313 -0.4538  0.3181
  850MOL0     C17177  11.843   3.242   1.907 -0.2287  0.9912  0.5481
  850MOL0     C17178  11.990   3.249   1.896 -0.0819  0.6241 -0.1748
  850MOL0     N17179  12.041   3.117   1.929  0.1387 -0.5281  0.1736
  850MOL0     C17180  12.050   3.054   2.050 -0.0122  0.3731  0.6528
  850MOL0     C17181  12.097   2.930   2.020  0.1563  0.0286  0.6993
  850MOL0     C17182  12.132   2.825   2.117  0.3940  0.7442 -0.3943
  850MOL0     C17183  12.260   2.856   2.194 -0.2343  0.1875  0.4024
  850MOL0     C17184  12.308   2.750   2.288  0.7812  0.3338  0.3992
  850MOL0     C17185  12.436   2.782   2.348 -0.0880  0.0853  0.4164
  850MOL0     O17186  12.448   2.918   2.389  0.3658  0.8078 -0.3906
  850MOL0     C17187  12.573   2.965   2.423  0.5721  0.0182 -0.7121
  850MOL0     C17188  12.695   2.891   2.428  0.0445 -0.5376 -0.8085
  850MOL0     C17189  12.812   2.944   2.457 -0.1651  0.0524 -0.3092
  850MOL0     C17190  12.929   2.848   2.457 -0.2801  0.5448 -0.1817
  850MOL0     C17191  12.817   3.081   2.474  0.7303 -1.2891 -0.1950
  850MOL0     C17192  12.948   3.150   2.506 -0.2809 -0.2815 -0.9800
  850MOL0     O17193  12.939   3.259   2.595  0.2607 -0.3781 -0.0904
  850MOL0     C17194  13.053   3.318   2.633 -0.0446  0.4705 -0.7446
  850MOL0     C17195  13.130   3.392   2.546 -0.5907  0.3338 -0.1177
  850MOL0     C17196  13.251   3.446   2.596  0.3750  0.0835  0.2913
  850MOL0     C17197  13.292   3.420   2.730  0.7380  0.1189 -0.1189
  850MOL0     O17198  13.398   3.478   2.783 -0.9012  0.4775 -0.0228
  850MOL0     C17199  13.520   3.510   2.714 -0.5606  0.0120 -1.0971
  850MOL0     C17200  13.523   3.658   2.686 -0.0327  0.0092  0.5248
  850MOL0     C17201  13.513   3.750   2.809 -0.1708 -0.3607  0.3671
  850MOL0     C17202  13.556   3.899   2.772 -0.3868  0.6399 -0.4811
  850MOL0     C17203  13.547   3.988   2.896 -0.1093  0.0943  0.2439
  850MOL0     C17204  13.600   4.127   2.870 -0.0190  0.0521 -0.3130
  850MOL0     C17205  13.749   4.146   2.906 -0.3142  0.8343 -0.0734
  850MOL0     C17206  13.789   4.290   2.896 -0.7864 -0.3790 -0.7708
  850MOL0    Cl17207  13.969   4.283   2.921 -0.0890  0.1625  0.2061
  850MOL0     C17208  13.198   3.359   2.812  0.1540 -0.0773 -0.3966
  850MOL0     C17209  13.086   3.297   2.764  0.3797 -0.4215 -0.1454
  850MOL0     O17210  13.052   3.110   2.457 -0.3809  0.0845 -0.1403
  850MOL0     C17211  12.705   3.159   2.476  0.8978  0.1025  0.6136
  850MOL0     C17212  12.585   3.101   2.442  0.6336  0.2881  0.3712
  850MOL0     N17213  12.125   2.930   1.883 -0.2285  0.4680  0.7226
  850MOL0     N17214  12.071   3.034   1.828  0.2173  0.2242  0.4559
  850MOL0     C17215  11.025   3.563   1.495  0.6882 -0.1104  0.3482
  850MOL0     C17216  10.897   3.533   1.444 -0.1887 -0.3803 -0.4842
  850MOL0     C17217  10.434   3.620   1.396 -0.1106  0.4715  0.7570
  850MOL0     C17218  10.447   3.642   1.262  0.9330  0.2617  0.7550
  850MOL0     C17219  10.330   3.623   1.174  0.2442 -0.3042 -0.9253
  850MOL0     C17220  10.204   3.585   1.233 -0.2855  0.7874 -0.1321
  850MOL0     O17221  10.088   3.569   1.160 -0.1599 -0.0470 -0.4361
  850MOL0     C17222  10.098   3.562   1.023  0.5273  0.0686  1.9254
  850MOL0     C17223   9.964   3.556   0.954 -0.3069  0.5191 -0.7053
  850MOL0     C17224   9.893   3.420   0.997 -0.3918 -0.0052 -0.6768
  850MOL0     C17225   9.977   3.297   0.979  0.1653  0.2328 -0.0615
  850MOL0     C17226  10.010   3.268   0.839 -0.0708  0.5944 -0.1327
  850MOL0     C17227  10.019   3.233   0.721  0.9000  0.5002  0.5813
  850MOL0     C17228  10.201   3.568   1.369  1.3092  0.0981 -0.2042
  850MOL0     C17229  10.306   3.586   1.454 -0.3551  0.8587  0.0067
  850MOL0     C17230  10.283   3.581   1.600  0.4127 -0.1638  0.0434
  850MOL0     H17231  10.748   3.824   1.556  0.4816 -0.3432  1.5529
  850MOL0     H17232  10.968   3.846   1.662 -0.1077 -2.0867  1.9023
  850MOL0     H17233  11.173   3.501   1.705  0.8703 -0.4037 -0.8251
  850MOL0     H17234  11.152   3.607   1.848  2.3765 -0.1266  1.7643
  850MOL0     H17235  11.398   3.590   1.658 -0.6392  2.7715 -0.2838
  850MOL0     H17236  11.381   3.698   1.797 -2.7273  1.9586 -2.0967
  850MOL0     H17237  11.368   3.471   1.940  1.1619 -4.3424  0.6273
  850MOL0     H17238  11.389   3.392   1.790 -1.1009  1.6565 -1.0112
  850MOL0     H17239  11.618   3.557   1.799 -1.4662  1.4370  0.2999
  850MOL0     H17240  11.580   3.549   1.978  0.4500  1.1206  0.0270
  850MOL0     H17241  11.601   3.287   1.829 -1.2819 -0.7857  0.8139
  850MOL0     H17242  11.585   3.329   1.996 -1.1304  1.2190  1.1343
  850MOL0     H17243  11.821   3.436   1.824 -0.5330  0.3840  0.4294
  850MOL0     H17244  11.820   3.438   1.990  0.5770 -3.1846  2.6048
  850MOL0     H17245  11.801   3.192   1.819 -1.2918  0.6208  1.2426
  850MOL0     H17246  11.816   3.186   1.997 -1.4949  0.8676  0.1077
  850MOL0     H17247  12.010   3.268   1.790  1.8253  0.9858  0.2155
  850MOL0     H17248  12.031   3.334   1.952  2.0454 -0.7581  0.4482
  850MOL0     H17249  12.017   3.095   2.145 -1.2879  0.5088  0.1732
  850MOL0     H17250  12.130   2.725   2.073 -2.7403  0.4419  0.2065
  850MOL0     H17251  12.045   2.811   2.182  1.8844 -1.2139  1.3332
  850MOL0     H17252  12.338   2.873   2.120  0.6496  2.4798  1.7582
  850MOL0     H17253  12.254   2.955   2.241 -0.3582 -0.5109  1.9400
  850MOL0     H17254  12.238   2.728   2.370  2.0914 -1.0678  1.1896
  850MOL0     H17255  12.327   2.656   2.235  0.4262 -0.4508  1.6035
  850MOL0     H17256  12.476   2.718   2.427  1.1081  0.4306  0.1150
  850MOL0     H17257  12.511   2.775   2.268 -0.8080  5.8581 -1.2472
  850MOL0     H17258  12.687   2.785   2.403 -1.0023 -0.6409 -0.0896
  850MOL0     H17259  12.894   2.746   2.476 -0.9063  1.0013  1.3471
  850MOL0     H17260  13.005   2.872   2.532  3.0194 -0.6693 -2.9126
  850MOL0     H17261  12.978   2.846   2.359 -1.6982  4.1328 -1.1287
  850MOL0     H17262  13.100   3.409   2.443 -1.3718 -0.5165 -0.0401
  850MOL0     H17263  13.307   3.514   2.534 -0.6386  1.4672  0.8473
  850MOL0     H17264  13.604   3.466   2.768 -1.9737 -2.6917 -0.9364
  850MOL0     H17265  13.527   3.457   2.618  1.1774 -1.9176  0.0089
  850MOL0     H17266  13.627   3.664   2.651 -0.1447 -1.4374 -0.1133
  850MOL0     H17267  13.452   3.689   2.609 -0.1981  3.4891  1.8879
  850MOL0     H17268  13.587   3.712   2.880  1.4480 -0.4219 -1.2889
  850MOL0     H17269  13.408   3.747   2.843 -0.9243 -0.2902 -1.8069
  850MOL0     H17270  13.493   3.937   2.691 -2.7931 -1.2952  0.3782
  850MOL0     H17271  13.657   3.889   2.732 -0.4912  0.8803 -0.8140
  850MOL0     H17272  13.442   3.982   2.926  0.0106 -2.6363  0.3958
  850MOL0     H17273  13.613   3.939   2.970  0.9486 -1.1581 -1.4461
  850MOL0     H17274  13.537   4.199   2.924 -1.6661  0.1767 -2.2605
  850MOL0     H17275  13.578   4.152   2.766  0.6297  1.2372 -0.1879
  850MOL0     H17276  13.812   4.088   2.838 -1.5115 -0.7790  0.1207
  850MOL0     H17277  13.772   4.112   3.008  1.6896 -1.4026 -1.1739
  850MOL0     H17278  13.746   4.351   2.975 -0.9214 -0.9271 -0.4124
  850MOL0     H17279  13.770   4.342   2.802  3.6870  2.1618 -0.5542
  850MOL0     H17280  13.210   3.353   2.920  0.4404 -4.4325 -0.4939
  850MOL0     H17281  13.021   3.229   2.818  1.3909 -1.9440 -0.7938
  850MOL0     H17282  12.717   3.266   2.487  1.0793  0.0070  1.3874
  850MOL0     H17283  12.493   3.154   2.423  0.0429 -0.1637  1.7946
  850MOL0     H17284  11.100   3.489   1.469 -0.3205 -0.1522 -2.9075
  850MOL0     H17285  10.881   3.443   1.385  0.3411 -0.0348 -1.1735
  850MOL0     H17286  10.541   3.666   1.212  1.0797 -1.3376  0.1843
  850MOL0     H17287  10.333   3.635   1.066  1.2602  0.8253 -0.7863
  850MOL0     H17288  10.141   3.653   0.982  0.6196 -0.0861  1.6747
  850MOL0     H17289  10.162   3.481   0.987  0.5854  0.9611 -0.1263
  850MOL0     H17290   9.977   3.571   0.847 -1.1922  2.3469 -0.5843
  850MOL0     H17291   9.909   3.648   0.975  1.2932  1.7665 -1.7746
  850MOL0     H17292   9.868   3.422   1.104 -1.8837  0.9090 -1.0147
  850MOL0     H17293   9.796   3.419   0.948 -0.5583  0.0986 -0.3553
  850MOL0     H17294   9.906   3.218   1.006  0.3562 -0.3216 -1.1400
  850MOL0     H17295  10.069   3.294   1.038 -0.2335  1.1982  0.6237
  850MOL0     H17296  10.027   3.193   0.622  0.3105 -0.8526  1.0565
  850MOL0     H17297  10.109   3.537   1.420  0.8990  0.4459 -0.7217
  850MOL0     H17298  10.358   3.518   1.650  1.1668  0.1980 -0.6128
  850MOL0     H17299  10.278   3.677   1.652  0.4665 -0.2335  0.1783
  850MOL0     H17300  10.189   3.531   1.624  1.2903 -1.8120  0.2191
  851MOL0     O17301   3.682   9.306   0.324  0.5476  0.8746  0.5509
  851MOL0     C17302   3.621   9.351   0.226  0.8980 -0.2766 -0.5359
  851MOL0     O17303   3.678   9.373   0.108 -0.0957 -0.1862 -0.1599
  851MOL0     C17304   3.805   9.321   0.092 -0.3529  0.3793  0.2548
  851MOL0     C17305   3.917   9.393   0.135  0.2670 -0.2849  0.1327
  851MOL0     C17306   4.050   9.344   0.121  0.7715 -0.2588  0.0554
  851MOL0     C17307   4.071   9.216   0.058  1.1179 -0.0665 -0.0519
  851MOL0     O17308   4.190   9.153   0.031 -0.3570 -0.5461 -0.1575
  851MOL0     C17309   4.305   9.241   0.018  1.0618  0.1358  0.0876
  851MOL0     C17310   4.433   9.166   0.030 -0.1720  0.1969  0.2823
  851MOL0     C17311   4.449   9.052  -0.069  0.5184 -0.0809 -0.2881
  851MOL0     C17312   4.593   8.996  -0.067 -0.0508 -0.4854  0.0634
  851MOL0     C17313   4.589   8.862  -0.124  0.8226 -0.3160 -0.2758
  851MOL0     C17314   4.716   8.774  -0.123  0.0183 -0.0427  0.4895
  851MOL0     C17315   4.675   8.628  -0.150 -0.3097 -0.0269 -0.3228
  851MOL0     C17316   4.636   8.591  -0.290 -0.6126  0.4643  0.3802
  851MOL0     N17317   4.713   8.651  -0.400  0.0306  0.6992 -0.5594
  851MOL0     C17318   4.842   8.606  -0.422  0.7635 -0.0618 -0.8989
  851MOL0     C17319   4.907   8.704  -0.484  0.0353 -0.2337 -1.1558
  851MOL0     C17320   5.049   8.713  -0.527  0.7521  0.1961 -0.7235
  851MOL0     C17321   5.140   8.720  -0.403 -0.2720  0.3849  1.0292
  851MOL0     C17322   5.128   8.864  -0.346  0.6058  0.2278 -0.4233
  851MOL0     C17323   5.233   8.895  -0.241 -0.1043  0.0113  0.2922
  851MOL0     O17324   5.253   8.795  -0.137  0.1446 -0.7229 -0.1087
  851MOL0     C17325   5.386   8.779  -0.096 -0.1892 -0.0050  0.0351
  851MOL0     C17326   5.474   8.684  -0.152 -0.3496  0.4003  0.2270
  851MOL0     C17327   5.599   8.674  -0.102  0.5508 -0.2690  0.2872
  851MOL0     C17328   5.682   8.563  -0.171  0.1719 -0.3356 -0.9626
  851MOL0     C17329   5.648   8.763  -0.004 -0.4193 -0.2306  0.4112
  851MOL0     C17330   5.783   8.756   0.052 -1.0253  0.4752  0.1275
  851MOL0     O17331   5.821   8.834   0.164 -0.5129  0.3824  0.4998
  851MOL0     C17332   5.952   8.838   0.213  0.0587 -0.4254 -0.5959
  851MOL0     C17333   6.024   8.957   0.209  0.2352 -0.3399  0.2971
  851MOL0     C17334   6.147   8.966   0.275 -0.5827 -1.0486  0.0563
  851MOL0     C17335   6.200   8.857   0.340 -0.2936 -0.1834  0.2235
  851MOL0     O17336   6.330   8.855   0.389  0.5330  0.5077  0.3176
  851MOL0     C17337   6.421   8.964   0.360  0.4579  0.4673 -0.1926
  851MOL0     C17338   6.558   8.937   0.415  0.0068  0.1797  0.1134
  851MOL0     C17339   6.674   9.034   0.357  0.4439  0.0534 -0.6567
  851MOL0     C17340   6.798   8.970   0.416  0.0420  0.5468 -0.2136
  851MOL0     C17341   6.923   9.048   0.394  0.0399  0.7233 -0.2692
  851MOL0     C17342   6.945   9.167   0.491  0.9467 -0.5478 -1.1567
  851MOL0     C17343   7.092   9.204   0.493  1.0132 -0.2397  0.6862
  851MOL0     C17344   7.109   9.334   0.572  0.3848  0.4127 -0.4194
  851MOL0    Cl17345   7.280   9.375   0.568 -0.2453 -0.0763  0.0743
  851MOL0     C17346   6.126   8.742   0.351  0.0499  0.1166  0.2681
  851MOL0     C17347   5.998   8.731   0.287 -0.6325  0.6191 -0.5315
  851MOL0     O17348   5.864   8.675   0.006  0.1266  0.1926 -0.0714
  851MOL0     C17349   5.561   8.859   0.058 -0.7812  0.1456 -0.0613
  851MOL0     C17350   5.429   8.859   0.005  0.7662 -0.3925  0.3649
  851MOL0     N17351   4.811   8.806  -0.501 -0.7701 -0.0357  0.9119
  851MOL0     N17352   4.702   8.771  -0.455  0.5000 -0.6513  0.3644
  851MOL0     C17353   3.962   9.144   0.006 -0.1000  0.2637 -0.2560
  851MOL0     C17354   3.830   9.202   0.028 -0.4950  0.5501 -0.0776
  851MOL0     C17355   3.492   9.424   0.249 -0.0690  0.1639 -0.0585
  851MOL0     C17356   3.462   9.540   0.171  0.5265 -0.1633 -0.7110
  851MOL0     C17357   3.342   9.602   0.188 -0.2645 -0.8595  0.7298
  851MOL0     C17358   3.252   9.562   0.283  0.8220 -1.0929 -0.4280
  851MOL0     O17359   3.145   9.641   0.305  0.3528 -0.3840 -1.1207
  851MOL0     C17360   3.081   9.651   0.433  0.3906 -0.8297  0.2723
  851MOL0     C17361   2.956   9.737   0.429 -0.0094 -0.2595  0.1132
  851MOL0     C17362   2.961   9.847   0.329  0.4575 -0.0985  0.2974
  851MOL0     C17363   2.861   9.959   0.356  0.4537 -0.5775  0.5139
  851MOL0     C17364   2.876  10.065   0.250 -0.6345  0.5551 -0.9440
  851MOL0     C17365   2.909  10.159   0.177 -0.0876 -0.3708  0.0985
  851MOL0     C17366   3.275   9.444   0.354  0.3389  0.4396 -0.3096
  851MOL0     C17367   3.397   9.380   0.344  0.0644  0.1384 -0.7350
  851MOL0     C17368   3.413   9.257   0.434  0.1366  0.4298  1.0677
  851MOL0     H17369   3.913   9.489   0.185  1.1658 -0.9195  1.4971
  851MOL0     H17370   4.128   9.404   0.166  0.0672  1.6827 -1.2055
  851MOL0     H17371   4.311   9.319   0.094 -0.1253  1.1890 -0.8569
  851MOL0     H17372   4.299   9.288  -0.081  1.9860  1.6660  0.7352
  851MOL0     H17373   4.514   9.238   0.019  0.7341 -0.9987 -1.2977
  851MOL0     H17374   4.432   9.121   0.130  0.7668 -0.0755  0.1833
  851MOL0     H17375   4.373   8.976  -0.047 -0.9402  2.2281  3.7622
  851MOL0     H17376   4.413   9.079  -0.169  2.0416 -1.7139 -1.3301
  851MOL0     H17377   4.659   9.054  -0.131 -0.7110  0.3606  0.1264
  851MOL0     H17378   4.630   8.998   0.036 -1.3708  0.5378  0.5384
  851MOL0     H17379   4.547   8.874  -0.224 -2.4440  1.4118  1.1550
  851MOL0     H17380   4.508   8.801  -0.083 -2.1376  1.5337 -2.9334
  851MOL0     H17381   4.786   8.818  -0.194  1.6376  0.7329  2.4872
  851MOL0     H17382   4.760   8.787  -0.024 -3.4634  3.7154  1.8256
  851MOL0     H17383   4.598   8.588  -0.083  0.0056  2.5090  1.7397
  851MOL0     H17384   4.764   8.567  -0.132 -1.2610 -1.6830 -1.0381
  851MOL0     H17385   4.630   8.482  -0.295  0.1557  0.4164  0.4845
  851MOL0     H17386   4.535   8.628  -0.313  0.3097  0.8087 -3.8487
  851MOL0     H17387   4.894   8.521  -0.378  0.2312  0.4883  0.8770
  851MOL0     H17388   5.054   8.805  -0.585 -2.5298  0.6869 -0.4252
  851MOL0     H17389   5.070   8.625  -0.589 -1.2191 -1.4246  0.7452
  851MOL0     H17390   5.112   8.635  -0.340  0.3159 -0.0286  0.7503
  851MOL0     H17391   5.244   8.691  -0.422 -0.4239  1.5818 -2.2764
  851MOL0     H17392   5.142   8.932  -0.430  3.1086 -1.0561 -1.1257
  851MOL0     H17393   5.030   8.877  -0.298 -2.0454 -3.6069 -4.1676
  851MOL0     H17394   5.330   8.901  -0.291 -0.2549  0.4926  0.0568
  851MOL0     H17395   5.210   8.993  -0.198  1.3445 -0.7544  3.0067
  851MOL0     H17396   5.442   8.616  -0.231  0.5712  0.0841  0.1072
  851MOL0     H17397   5.645   8.543  -0.272  0.8956  0.4274 -1.3959
  851MOL0     H17398   5.675   8.472  -0.110 -2.9154  0.1809 -0.3964
  851MOL0     H17399   5.787   8.586  -0.194 -0.3016  0.8881 -1.9595
  851MOL0     H17400   5.982   9.036   0.147 -2.4589 -1.3736  0.6648
  851MOL0     H17401   6.203   9.059   0.268  0.5427 -1.6459  0.8609
  851MOL0     H17402   6.417   8.990   0.254  0.0295 -0.2496 -0.3626
  851MOL0     H17403   6.389   9.054   0.414  1.6313 -0.5708  2.4006
  851MOL0     H17404   6.560   8.920   0.523  2.6313 -0.2121  0.0616
  851MOL0     H17405   6.585   8.840   0.373 -2.2485  0.0254 -1.1499
  851MOL0     H17406   6.677   9.138   0.392  0.7889  0.3642 -1.5778
  851MOL0     H17407   6.680   9.024   0.248  4.1723  0.0431 -0.5934
  851MOL0     H17408   6.808   8.870   0.375 -0.0626  0.1279  0.7467
  851MOL0     H17409   6.784   8.961   0.525 -0.3113 -0.9385 -0.3706
  851MOL0     H17410   7.007   8.979   0.407  1.3784  1.7615 -2.7002
  851MOL0     H17411   6.920   9.080   0.289 -1.3206  1.6424  0.0182
  851MOL0     H17412   6.906   9.151   0.591  0.0352  0.6796 -1.2943
  851MOL0     H17413   6.879   9.244   0.452  2.1110  1.6522  0.9635
  851MOL0     H17414   7.131   9.215   0.392  0.5489 -0.5181  0.4739
  851MOL0     H17415   7.155   9.126   0.537  2.6425 -0.9429 -2.6039
  851MOL0     H17416   7.073   9.328   0.675 -1.2362 -0.3328 -0.9961
  851MOL0     H17417   7.058   9.413   0.517  1.6434  2.5470  1.3228
  851MOL0     H17418   6.172   8.654   0.394 -2.0325 -1.8584 -1.2992
  851MOL0     H17419   5.951   8.633   0.280  1.5477 -0.4432 -1.1038
  851MOL0     H17420   5.588   8.933   0.133 -0.2959 -0.0155 -0.0747
  851MOL0     H17421   5.365   8.940   0.042 -0.2620  0.7953 -3.4913
  851MOL0     H17422   3.977   9.046  -0.038  1.1014 -0.5912  1.8855
  851MOL0     H17423   3.747   9.140  -0.005  0.2584  0.4380 -1.8937
  851MOL0     H17424   3.526   9.566   0.088 -0.7481 -0.9810 -2.0055
  851MOL0     H17425   3.317   9.678   0.115  1.0123 -1.2834 -0.1882
  851MOL0     H17426   3.045   9.554   0.470 -0.2369  0.3087  2.9284
  851MOL0     H17427   3.143   9.696   0.511  1.0305 -0.6923 -0.3102
  851MOL0     H17428   2.944   9.763   0.535  2.8404 -2.1662  0.9976
  851MOL0     H17429   2.863   9.688   0.398 -1.6894  2.0621  1.0543
  851MOL0     H17430   3.060   9.893   0.326  1.6977 -2.6646 -1.5191
  851MOL0     H17431   2.952   9.811   0.226  3.1503  2.0559 -0.8136
  851MOL0     H17432   2.867  10.012   0.452 -0.4404  1.1126 -0.3147
  851MOL0     H17433   2.761   9.916   0.346 -0.3370  1.1921  0.2961
  851MOL0     H17434   2.923  10.239   0.107  3.3074  0.4924  1.5471
  851MOL0     H17435   3.205   9.410   0.429  1.2488 -0.9001 -0.0281
  851MOL0     H17436   3.483   9.278   0.515 -0.6520 -0.1701  1.9313
  851MOL0     H17437   3.320   9.208   0.466  0.8711  0.0337  2.7058
  851MOL0     H17438   3.463   9.178   0.377  2.6025  1.4338  1.7238
  852MOL0     O17439   0.756   4.176   7.049 -0.1142  0.2584  0.1614
  852MOL0     C17440   0.757   4.242   7.151  0.4967  0.3270  0.3419
  852MOL0     O17441   0.863   4.308   7.205 -0.7183 -0.1075  0.2836
  852MOL0     C17442   0.992   4.273   7.169  0.5760 -0.3718 -0.4018
  852MOL0     C17443   1.086   4.371   7.170  0.2838  0.4036 -0.5331
  852MOL0     C17444   1.220   4.339   7.136 -0.2010 -0.6241 -0.2277
  852MOL0     C17445   1.272   4.212   7.113  0.1598 -0.3918 -0.3066
  852MOL0     O17446   1.409   4.202   7.083 -0.3363 -0.1744 -0.5739
  852MOL0     C17447   1.475   4.075   7.060  0.4047 -0.0574 -0.0336
  852MOL0     C17448   1.605   4.101   6.986  0.8694 -0.3528  0.5531
  852MOL0     C17449   1.675   3.963   6.968 -0.0284 -0.1717 -0.8769
  852MOL0     C17450   1.786   3.976   6.862 -0.1287  0.0021 -0.9196
  852MOL0     C17451   1.854   3.840   6.836  0.5145  0.9927 -0.3585
  852MOL0     C17452   1.934   3.848   6.707  0.4465 -0.3604  0.4718
  852MOL0     C17453   2.048   3.741   6.694 -0.5261  1.2323 -0.3481
  852MOL0     C17454   2.117   3.725   6.561 -0.0603 -0.4243  1.2279
  852MOL0     N17455   2.257   3.684   6.581  0.7236  0.2876  0.2575
  852MOL0     C17456   2.353   3.758   6.636 -0.3868 -0.3977 -0.2598
  852MOL0     C17457   2.451   3.667   6.659  0.4628 -0.5186  1.1212
  852MOL0     C17458   2.593   3.693   6.704  0.7994  0.9900 -0.2180
  852MOL0     C17459   2.702   3.745   6.599  0.3750 -0.4934  0.7089
  852MOL0     C17460   2.640   3.869   6.531  0.0531  0.3269 -0.5568
  852MOL0     C17461   2.730   3.964   6.452 -0.8137  0.2977  0.2241
  852MOL0     O17462   2.792   3.890   6.345 -0.7136  0.2915 -0.5293
  852MOL0     C17463   2.927   3.887   6.355 -0.2588  0.3849  0.7953
  852MOL0     C17464   3.009   3.989   6.304  0.6205 -0.0180  0.1847
  852MOL0     C17465   3.149   3.977   6.311 -0.1491  0.7925 -0.9654
  852MOL0     C17466   3.231   4.078   6.245 -0.0864  0.1345 -0.1471
  852MOL0     C17467   3.204   3.853   6.365  0.5871  0.3515 -0.2172
  852MOL0     C17468   3.349   3.826   6.392  0.2199 -0.1077  0.1602
  852MOL0     O17469   3.384   3.702   6.348 -0.6658 -0.9181  0.1737
  852MOL0     C17470   3.515   3.678   6.329  0.0590 -1.0925 -0.1877
  852MOL0     C17471   3.618   3.681   6.431  0.6979 -0.0445  1.3239
  852MOL0     C17472   3.751   3.658   6.396  0.2200  0.1681 -0.1613
  852MOL0     C17473   3.786   3.625   6.258  0.0288 -1.0940 -0.4550
  852MOL0     O17474   3.916   3.593   6.239 -0.0809 -0.1164  0.7061
  852MOL0     C17475   3.948   3.545   6.104 -0.0471 -0.3936 -0.6419
  852MOL0     C17476   4.092   3.498   6.105 -0.0083 -0.8386  0.1767
  852MOL0     C17477   4.194   3.609   6.145 -0.5257 -0.5815 -0.7716
  852MOL0     C17478   4.335   3.544   6.121 -0.0810  1.0307  0.2161
  852MOL0     C17479   4.440   3.664   6.107  0.1188  0.8055  0.1776
  852MOL0     C17480   4.573   3.623   6.164  0.7159 -0.2302  0.3488
  852MOL0     C17481   4.677   3.732   6.155  0.0774  0.8733  0.1898
  852MOL0     C17482   4.792   3.719   6.262  0.3636  0.2317  0.9994
  852MOL0    Cl17483   4.921   3.606   6.213 -0.0118 -0.3898  0.0387
  852MOL0     C17484   3.685   3.623   6.158  0.4114 -0.0403  0.0047
  852MOL0     C17485   3.551   3.648   6.194 -0.3117 -0.0346 -0.7470
  852MOL0     O17486   3.423   3.908   6.443  0.5670  0.2433  0.1288
  852MOL0     C17487   3.117   3.755   6.422  0.2118 -0.1153 -0.2859
  852MOL0     C17488   2.982   3.776   6.417 -0.8490  0.1797  0.9154
  852MOL0     N17489   2.417   3.547   6.599  0.6740 -0.0355  1.1248
  852MOL0     N17490   2.296   3.556   6.553  0.8771 -0.2824  0.6357
  852MOL0     C17491   1.172   4.107   7.116  0.2856 -0.0110 -0.1188
  852MOL0     C17492   1.033   4.140   7.144  0.1811 -0.5010 -0.0944
  852MOL0     C17493   0.619   4.270   7.210 -0.1420 -0.2408  0.5346
  852MOL0     C17494   0.513   4.184   7.174  0.0645 -0.4557  0.2474
  852MOL0     C17495   0.387   4.189   7.236 -0.0620 -0.1249  0.1354
  852MOL0     C17496   0.360   4.286   7.332 -0.1385 -0.4276  1.0082
  852MOL0     O17497   0.234   4.295   7.387 -0.2084  0.3764  0.2411
  852MOL0     C17498   0.239   4.285   7.527  0.4053  1.0307 -0.0249
  852MOL0     C17499   0.204   4.419   7.599  0.0880  0.0560  0.4233
  852MOL0     C17500   0.066   4.488   7.551 -0.0600 -0.3530  0.9192
  852MOL0     C17501   0.004   4.596   7.641 -0.1847 -0.2238  0.0494
  852MOL0     C17502   0.092   4.691   7.710  0.4696 -0.5368  0.1525
  852MOL0     C17503   0.167   4.776   7.758  0.3641 -0.3624  0.0607
  852MOL0     C17504   0.464   4.375   7.357  1.1622 -0.0068 -0.7146
  852MOL0     C17505   0.593   4.371   7.309 -0.3155  0.2067  0.1528
  852MOL0     C17506   0.692   4.471   7.366  0.3743  0.0771 -0.6319
  852MOL0     H17507   1.050   4.471   7.190 -5.1078 -1.3030 -0.0979
  852MOL0     H17508   1.289   4.422   7.125 -2.9096  1.8561  0.2891
  852MOL0     H17509   1.401   4.025   6.996  1.1437 -0.3975 -0.6324
  852MOL0     H17510   1.487   4.003   7.142 -0.0990  1.2996  1.2790
  852MOL0     H17511   1.571   4.150   6.895 -0.9211 -1.1238  0.7601
  852MOL0     H17512   1.670   4.164   7.048  0.5720 -1.0290  1.5731
  852MOL0     H17513   1.721   3.940   7.064 -0.8330  0.0132 -0.4407
  852MOL0     H17514   1.608   3.880   6.946 -2.2501  1.0577  0.7628
  852MOL0     H17515   1.739   4.004   6.768 -1.0713 -3.5340 -1.6508
  852MOL0     H17516   1.866   4.045   6.889 -0.2932  1.0520 -2.9268
  852MOL0     H17517   1.792   3.750   6.836  0.3695  1.0901 -1.0818
  852MOL0     H17518   1.920   3.821   6.921  0.3771 -1.4398 -0.7281
  852MOL0     H17519   1.878   3.836   6.614  1.7124  0.6878 -0.4592
  852MOL0     H17520   1.979   3.948   6.704 -3.1376  1.3791 -1.2296
  852MOL0     H17521   2.015   3.639   6.718 -1.6148  1.4376 -0.9090
  852MOL0     H17522   2.128   3.770   6.763  0.7818 -3.3276  0.4245
  852MOL0     H17523   2.066   3.653   6.496 -0.8311  1.1894 -0.0475
  852MOL0     H17524   2.109   3.823   6.512  1.1441 -1.2925 -0.8071
  852MOL0     H17525   2.350   3.863   6.663  1.7628  0.5968 -3.3695
  852MOL0     H17526   2.638   3.601   6.742  1.5464  1.5721  0.3608
  852MOL0     H17527   2.569   3.769   6.780 -2.3935 -1.2174  1.1872
  852MOL0     H17528   2.792   3.785   6.646  0.3447  0.4117  0.0364
  852MOL0     H17529   2.730   3.667   6.528  1.3940 -1.1753  1.8246
  852MOL0     H17530   2.574   3.846   6.448 -2.3550  2.8591  0.4690
  852MOL0     H17531   2.586   3.924   6.609  0.9250  0.5898 -0.1252
  852MOL0     H17532   2.663   4.040   6.411  0.3452  1.2259  0.0207
  852MOL0     H17533   2.797   4.020   6.518  0.5354  0.7166 -1.4157
  852MOL0     H17534   2.967   4.073   6.249 -0.7410  0.3385  1.7225
  852MOL0     H17535   3.172   4.136   6.173 -2.0041 -0.3014  1.0270
  852MOL0     H17536   3.319   4.032   6.198 -0.7132 -2.2738  0.8733
  852MOL0     H17537   3.265   4.141   6.328  0.0265 -3.1329  2.5014
  852MOL0     H17538   3.573   3.691   6.530  0.1819 -1.2227  1.2264
  852MOL0     H17539   3.827   3.658   6.473 -0.6956 -2.4902  0.8526
  852MOL0     H17540   3.890   3.460   6.067  0.2528 -0.0070 -2.0712
  852MOL0     H17541   3.923   3.623   6.032 -2.1132 -0.6752 -0.2860
  852MOL0     H17542   4.102   3.415   6.175  0.7541  2.2028  4.0538
  852MOL0     H17543   4.125   3.465   6.006  0.4957 -0.8895  0.3610
  852MOL0     H17544   4.183   3.642   6.248 -0.2106 -1.7056 -0.3644
  852MOL0     H17545   4.181   3.695   6.078 -3.2103 -1.2222 -1.1871
  852MOL0     H17546   4.340   3.493   6.025 -1.8118  0.5139  0.3734
  852MOL0     H17547   4.361   3.473   6.200 -0.5266  0.8301  0.1788
  852MOL0     H17548   4.442   3.695   6.002 -3.0274 -0.9361 -0.5264
  852MOL0     H17549   4.409   3.743   6.176 -0.7742  1.1750 -0.6152
  852MOL0     H17550   4.603   3.538   6.102  0.3829 -0.3424  0.3397
  852MOL0     H17551   4.546   3.590   6.264 -0.5672  0.7494  0.3518
  852MOL0     H17552   4.641   3.834   6.166  2.1034  1.6936 -0.3988
  852MOL0     H17553   4.722   3.719   6.056 -0.0342  0.5559  0.1802
  852MOL0     H17554   4.765   3.704   6.367 -0.9286 -1.6753  0.4322
  852MOL0     H17555   4.836   3.819   6.253  1.6927 -0.3056  1.3560
  852MOL0     H17556   3.702   3.586   6.057  0.3643  3.4710 -1.4657
  852MOL0     H17557   3.474   3.640   6.117 -1.5606  4.8455 -0.3252
  852MOL0     H17558   3.152   3.672   6.483  1.7180  1.7572  1.5489
  852MOL0     H17559   2.908   3.707   6.457 -1.7646  1.1755  0.9847
  852MOL0     H17560   1.198   4.003   7.102  0.4009  0.3324 -3.1559
  852MOL0     H17561   0.958   4.063   7.156  0.9724 -1.2974 -0.1118
  852MOL0     H17562   0.537   4.100   7.110  0.0656 -2.3174  2.5628
  852MOL0     H17563   0.307   4.123   7.203 -0.9272  0.9392  0.0373
  852MOL0     H17564   0.153   4.227   7.561 -0.4284 -0.0892 -3.6191
  852MOL0     H17565   0.330   4.241   7.568 -0.8742 -1.4052  0.4011
  852MOL0     H17566   0.289   4.488   7.598 -0.1347  0.3313  0.2159
  852MOL0     H17567   0.196   4.397   7.706  0.6648  1.3197  0.7499
  852MOL0     H17568   0.071   4.528   7.449 -1.9927  0.6960  1.1942
  852MOL0     H17569  -0.017   4.418   7.542 -0.9801  0.9668 -2.3765
  852MOL0     H17570  -0.049   4.531   7.711  1.0675 -0.5116  0.7722
  852MOL0     H17571  -0.073   4.645   7.581  0.8458  1.3148 -0.0753
  852MOL0     H17572   0.240   4.846   7.791 -1.7039  2.2392 -0.5657
  852MOL0     H17573   0.442   4.461   7.419  0.3173 -1.2257  0.7447
  852MOL0     H17574   0.647   4.528   7.447 -1.4679 -0.8896 -0.9286
  852MOL0     H17575   0.787   4.425   7.396  1.1874  2.5574  0.9555
  852MOL0     H17576   0.718   4.554   7.299  1.8815  1.7304  1.8515
  853MOL0     O17577   1.711   0.942   8.390 -0.1122  0.1964 -0.9852
  853MOL0     C17578   1.708   1.039   8.467  0.3921 -0.3682  0.7857
  853MOL0     O17579   1.816   1.093   8.522  0.8929  0.4077 -1.1745
  853MOL0     C17580   1.937   1.037   8.489  0.6310 -0.3071  0.0126
  853MOL0     C17581   1.984   0.931   8.561  0.4634 -1.0464  0.0307
  853MOL0     C17582   2.116   0.888   8.540  0.5182 -0.5610  0.4230
  853MOL0     C17583   2.193   0.937   8.432 -0.0202  0.2752 -0.3512
  853MOL0     O17584   2.324   0.897   8.402 -0.1444  0.1864 -0.4647
  853MOL0     C17585   2.343   0.757   8.427 -1.0063  0.3745 -0.0985
  853MOL0     C17586   2.452   0.700   8.339  0.6280 -0.4028 -0.0589
  853MOL0     C17587   2.493   0.567   8.401 -0.1738 -0.2340  0.2703
  853MOL0     C17588   2.621   0.498   8.348 -0.1508 -0.3642  0.0808
  853MOL0     C17589   2.761   0.578   8.345 -0.3090  0.3015  0.0091
  853MOL0     C17590   2.875   0.476   8.324  0.1849  0.4865  0.7373
  853MOL0     C17591   3.020   0.524   8.334  0.2578  0.9971  0.1755
  853MOL0     C17592   3.108   0.401   8.354 -1.4997 -0.1085  0.1753
  853MOL0     N17593   3.248   0.444   8.361 -0.0053 -0.0263  0.1118
  853MOL0     C17594   3.346   0.430   8.257 -0.5718 -0.1109 -0.6934
  853MOL0     C17595   3.464   0.475   8.319 -0.0671 -0.6073  0.6616
  853MOL0     C17596   3.590   0.488   8.247 -0.5316  0.3158  0.9609
  853MOL0     C17597   3.617   0.624   8.181 -0.7193  0.3980  0.2254
  853MOL0     C17598   3.686   0.730   8.264  0.6138 -0.1078 -0.1401
  853MOL0     C17599   3.816   0.675   8.321 -0.2480 -1.4607  0.0947
  853MOL0     O17600   3.899   0.648   8.206  0.4104  0.1561 -0.3834
  853MOL0     C17601   4.023   0.586   8.235  0.6245  0.0929 -0.5239
  853MOL0     C17602   4.068   0.544   8.360 -0.4925  0.3702 -0.8729
  853MOL0     C17603   4.192   0.481   8.374  0.7441 -0.1269  0.0229
  853MOL0     C17604   4.241   0.434   8.512  0.1204 -0.1920 -0.4175
  853MOL0     C17605   4.261   0.455   8.252  0.0458  0.0334 -0.0436
  853MOL0     C17606   4.391   0.401   8.258  0.6471  0.5857 -0.5778
  853MOL0     O17607   4.489   0.456   8.331  0.1361 -0.5578  0.4985
  853MOL0     C17608   4.604   0.382   8.350 -0.5316  0.6636 -0.2771
  853MOL0     C17609   4.691   0.342   8.243 -0.4470 -0.0360 -0.2162
  853MOL0     C17610   4.793   0.250   8.271  0.0405 -0.3839  0.3712
  853MOL0     C17611   4.805   0.190   8.402  0.4845 -0.1137  0.4678
  853MOL0     O17612   4.899   0.092   8.426  0.8488  0.0957 -0.2362
  853MOL0     C17613   4.886   0.009   8.545  0.1545  0.4685 -0.3530
  853MOL0     C17614   4.982  -0.111   8.526  0.8179  0.1958  0.4110
  853MOL0     C17615   5.134  -0.071   8.537  0.1203 -0.6839  0.1890
  853MOL0     C17616   5.226  -0.181   8.483  0.8033 -0.1889 -0.2144
  853MOL0     C17617   5.368  -0.123   8.508  0.0245 -1.5891 -0.4089
  853MOL0     C17618   5.471  -0.223   8.461 -0.3302 -0.3211  0.4252
  853MOL0     C17619   5.620  -0.173   8.505 -0.1631  0.1908  0.2088
  853MOL0     C17620   5.726  -0.271   8.536  0.5805  0.4145  0.3091
  853MOL0    Cl17621   5.711  -0.324   8.708  0.1451 -0.1259 -0.5337
  853MOL0     C17622   4.712   0.233   8.501  0.9895 -0.1474  0.0299
  853MOL0     C17623   4.613   0.323   8.479 -0.4443 -0.0629  0.6864
  853MOL0     O17624   4.400   0.297   8.190  0.0750 -0.3327  0.6804
  853MOL0     C17625   4.214   0.507   8.132 -0.1576  0.7587  0.2486
  853MOL0     C17626   4.092   0.562   8.124  0.0771  0.5911  0.5923
  853MOL0     N17627   3.442   0.495   8.451 -0.0139  0.4238  0.4496
  853MOL0     N17628   3.312   0.483   8.473  0.5561 -0.1907 -0.1680
  853MOL0     C17629   2.143   1.047   8.361 -0.4978  0.1636  0.8878
  853MOL0     C17630   2.016   1.097   8.392  0.6409 -0.0478  0.0451
  853MOL0     C17631   1.563   1.086   8.500  0.2169  0.1777 -0.1092
  853MOL0     C17632   1.457   1.055   8.416 -0.6462 -0.5010  0.4252
  853MOL0     C17633   1.322   1.080   8.439  0.1607 -0.0676  0.7456
  853MOL0     C17634   1.276   1.148   8.557 -0.3323  0.0222  0.1130
  853MOL0     O17635   1.153   1.193   8.581 -0.5162 -0.2291  0.0885
  853MOL0     C17636   1.046   1.163   8.484 -0.3766 -0.7690 -0.1533
  853MOL0     C17637   0.987   1.293   8.434  0.3178 -0.2053 -0.3911
  853MOL0     C17638   0.838   1.270   8.404 -0.4381  0.1806  0.2772
  853MOL0     C17639   0.763   1.398   8.372  1.0430 -0.6438  0.0075
  853MOL0     C17640   0.613   1.381   8.364 -0.1102  0.2813  0.4897
  853MOL0     C17641   0.492   1.369   8.336  0.3334 -0.1391  0.4499
  853MOL0     C17642   1.379   1.166   8.650 -0.2372 -0.9891  0.4456
  853MOL0     C17643   1.517   1.143   8.622 -0.1748 -0.0448 -0.6067
  853MOL0     C17644   1.611   1.167   8.737  0.0982  0.1189  0.7393
  853MOL0     H17645   1.914   0.889   8.632 -1.9377 -0.8975 -2.1204
  853MOL0     H17646   2.139   0.805   8.606 -1.3766 -1.4605  0.0195
  853MOL0     H17647   2.249   0.707   8.403 -2.7453  3.3512  0.0004
  853MOL0     H17648   2.353   0.737   8.534  0.7256 -0.9175 -0.4664
  853MOL0     H17649   2.408   0.685   8.240  0.3571 -0.4993  0.0760
  853MOL0     H17650   2.532   0.774   8.331 -0.4017  0.7956  0.3598
  853MOL0     H17651   2.509   0.577   8.509  0.2213  0.4725  0.1498
  853MOL0     H17652   2.411   0.495   8.390 -1.1878  0.4747  2.5912
  853MOL0     H17653   2.646   0.415   8.414  1.4728  2.0974  2.7808
  853MOL0     H17654   2.599   0.460   8.248  0.5255  3.9762 -1.9720
  853MOL0     H17655   2.780   0.636   8.436 -0.4491  3.2538 -1.6900
  853MOL0     H17656   2.770   0.650   8.263 -0.9123  0.3242 -0.0356
  853MOL0     H17657   2.859   0.394   8.395  1.2759 -0.3612  0.0332
  853MOL0     H17658   2.865   0.422   8.230  0.3890 -1.7729  1.9489
  853MOL0     H17659   3.031   0.585   8.424  2.9149  0.5742  0.2274
  853MOL0     H17660   3.064   0.577   8.249 -0.5566  2.1701  0.4683
  853MOL0     H17661   3.069   0.352   8.444  0.7646  1.8445  2.3646
  853MOL0     H17662   3.103   0.341   8.263  1.9666  0.3074 -0.4045
  853MOL0     H17663   3.328   0.387   8.159 -2.3737 -3.9278  1.0796
  853MOL0     H17664   3.579   0.422   8.161 -0.8272  1.7569 -0.1579
  853MOL0     H17665   3.674   0.457   8.310  0.5796 -2.0913 -1.5543
  853MOL0     H17666   3.681   0.596   8.097  0.4407  1.0291  0.8727
  853MOL0     H17667   3.519   0.663   8.150 -0.3815  0.4257 -0.8508
  853MOL0     H17668   3.688   0.813   8.192 -1.9073 -1.6491 -2.1733
  853MOL0     H17669   3.624   0.768   8.346  5.1491  3.6480  2.0256
  853MOL0     H17670   3.869   0.759   8.368 -3.7213 -0.5721  2.7899
  853MOL0     H17671   3.805   0.599   8.399 -3.3532  0.7208  2.0125
  853MOL0     H17672   4.012   0.556   8.452  0.5401 -0.5585 -0.0962
  853MOL0     H17673   4.271   0.330   8.496 -1.4138 -0.2698 -3.5033
  853MOL0     H17674   4.161   0.448   8.585  1.3836  0.6997  0.8520
  853MOL0     H17675   4.330   0.489   8.545 -0.3751  0.3002  0.1325
  853MOL0     H17676   4.673   0.378   8.142 -2.0990  1.0669  0.4124
  853MOL0     H17677   4.863   0.231   8.190 -0.1413  4.7015 -1.3770
  853MOL0     H17678   4.925   0.071   8.626  1.6784  1.4300 -1.7515
  853MOL0     H17679   4.784  -0.025   8.565  0.7666 -0.7854  0.7877
  853MOL0     H17680   4.957  -0.181   8.607  0.5626  0.5735  0.6626
  853MOL0     H17681   4.964  -0.158   8.429  0.5036  1.0324  0.0599
  853MOL0     H17682   5.147  -0.062   8.645  0.5509  1.4669 -0.0074
  853MOL0     H17683   5.157   0.026   8.492  0.7744 -0.0489  1.8146
  853MOL0     H17684   5.200  -0.207   8.380  0.4935 -1.6562  0.2077
  853MOL0     H17685   5.211  -0.279   8.529 -0.5626  0.1847  0.1828
  853MOL0     H17686   5.378  -0.027   8.457 -0.8561 -1.1079  0.3075
  853MOL0     H17687   5.382  -0.104   8.615 -1.7532  1.3822 -0.6069
  853MOL0     H17688   5.465  -0.233   8.352 -1.1940 -0.9336  0.5206
  853MOL0     H17689   5.459  -0.320   8.511  0.7109 -0.1185  1.1019
  853MOL0     H17690   5.625  -0.106   8.591  2.5463  2.3617 -1.4495
  853MOL0     H17691   5.665  -0.115   8.423 -0.2178  0.6940  0.5301
  853MOL0     H17692   5.820  -0.221   8.510 -0.7391  2.3864 -1.0676
  853MOL0     H17693   5.711  -0.364   8.481 -0.2888 -1.1872  3.0652
  853MOL0     H17694   4.727   0.178   8.593  0.6224 -0.3878 -0.0536
  853MOL0     H17695   4.548   0.348   8.562  1.0731  1.3554  1.5233
  853MOL0     H17696   4.276   0.487   8.045 -1.5063  0.1291 -0.5921
  853MOL0     H17697   4.046   0.595   8.032 -0.8995 -0.4403  0.6824
  853MOL0     H17698   2.188   1.095   8.275 -0.2557 -1.2927  0.1518
  853MOL0     H17699   1.975   1.186   8.345 -2.5757  0.4477  3.3373
  853MOL0     H17700   1.479   1.007   8.321  0.1521 -0.2484  0.4803
  853MOL0     H17701   1.253   1.050   8.361 -0.4561  2.6442  0.1292
  853MOL0     H17702   1.074   1.106   8.394 -1.3578 -0.9907 -0.3271
  853MOL0     H17703   0.973   1.099   8.534 -0.9884 -1.9364 -2.4139
  853MOL0     H17704   1.023   1.333   8.339 -0.0589  0.3003 -0.3233
  853MOL0     H17705   0.996   1.367   8.514 -2.7900  2.3879 -2.1871
  853MOL0     H17706   0.808   1.201   8.323 -2.2902 -0.4016  1.3965
  853MOL0     H17707   0.795   1.230   8.496  1.8438  1.8454  2.1890
  853MOL0     H17708   0.796   1.440   8.277 -0.1423  0.3947  0.0269
  853MOL0     H17709   0.782   1.470   8.453 -1.8116  0.3740 -0.1074
  853MOL0     H17710   0.388   1.368   8.311  0.0558  0.6569  1.5260
  853MOL0     H17711   1.356   1.213   8.745  0.4657  0.2168  0.0363
  853MOL0     H17712   1.651   1.070   8.767 -0.3540 -1.3733 -2.8943
  853MOL0     H17713   1.696   1.233   8.713  0.8027 -0.2974  1.9972
  853MOL0     H17714   1.560   1.225   8.814 -0.5934  4.7695 -2.7482
  854MOL0     O17715   9.039   0.274   0.225  0.3666  0.4720  0.0990
  854MOL0     C17716   9.017   0.292   0.104 -0.6855  0.3613 -0.1560
  854MOL0     O17717   9.109   0.294   0.006 -0.5544 -0.1091 -0.1615
  854MOL0     C17718   9.244   0.330   0.036  0.2978  0.2944  0.1461
  854MOL0     C17719   9.281   0.404   0.150  0.5575  0.3001  0.0733
  854MOL0     C17720   9.415   0.425   0.180 -0.0575 -0.3949 -0.5464
  854MOL0     C17721   9.516   0.380   0.102 -0.2351 -0.0021  0.1144
  854MOL0     O17722   9.640   0.423   0.134  0.1401 -0.3049  0.2389
  854MOL0     C17723   9.752   0.436   0.036  0.4452 -0.3302 -0.3298
  854MOL0     C17724   9.886   0.452   0.117  0.3598 -0.1155  0.0762
  854MOL0     C17725   9.880   0.563   0.215 -0.3009  1.0573 -0.4055
  854MOL0     C17726  10.012   0.562   0.311  0.5240 -0.1363  0.0638
  854MOL0     C17727   9.995   0.675   0.404 -0.7440  0.0420 -0.0231
  854MOL0     C17728  10.133   0.703   0.490  0.3768 -0.1843  0.0683
  854MOL0     C17729  10.124   0.822   0.581 -0.6743 -0.6611  0.6752
  854MOL0     C17730  10.269   0.873   0.618 -0.0388 -0.7437  0.1560
  854MOL0     N17731  10.343   0.931   0.504 -0.3091  0.2547  0.3780
  854MOL0     C17732  10.475   0.909   0.485 -0.5331  0.1592  0.0810
  854MOL0     C17733  10.516   0.990   0.390 -0.2323  0.5304  0.0959
  854MOL0     C17734  10.658   1.007   0.344  0.3309 -0.3159 -0.2598
  854MOL0     C17735  10.721   0.881   0.290  0.0190  0.6184 -0.0768
  854MOL0     C17736  10.858   0.893   0.238  0.0029 -0.0253  0.6808
  854MOL0     C17737  10.966   0.954   0.316 -0.1414  0.1425  0.0154
  854MOL0     O17738  11.089   0.973   0.234  0.0959 -0.0690 -0.7529
  854MOL0     C17739  11.211   0.984   0.304 -0.5559 -1.0033 -0.7159
  854MOL0     C17740  11.316   0.963   0.217  0.3111 -0.3730  0.0064
  854MOL0     C17741  11.441   0.953   0.261 -0.8952  0.1422 -0.1083
  854MOL0     C17742  11.551   0.921   0.159  0.5397 -0.0855  0.0885
  854MOL0     C17743  11.473   0.968   0.397 -0.1606 -0.3684 -0.5987
  854MOL0     C17744  11.612   0.974   0.462 -0.5928 -0.3473 -0.1490
  854MOL0     O17745  11.713   0.994   0.378 -0.0787 -0.8009  0.4528
  854MOL0     C17746  11.840   0.990   0.424  0.2126 -0.3358 -0.1330
  854MOL0     C17747  11.915   0.876   0.398  0.1573  0.5750 -0.4241
  854MOL0     C17748  12.045   0.860   0.451  1.0440  0.1478 -0.2841
  854MOL0     C17749  12.093   0.956   0.534 -0.0761 -0.1012  0.3062
  854MOL0     O17750  12.221   0.949   0.577  0.0776 -1.0848  0.0635
  854MOL0     C17751  12.272   1.021   0.687  0.6461 -0.2979  0.2561
  854MOL0     C17752  12.407   0.966   0.725 -0.0683 -0.0705  0.2300
  854MOL0     C17753  12.401   0.819   0.766  0.4258 -0.4589 -0.0008
  854MOL0     C17754  12.339   0.791   0.905  0.5333 -0.0291 -0.0839
  854MOL0     C17755  12.392   0.655   0.955 -0.0407  0.3742  0.1761
  854MOL0     C17756  12.344   0.614   1.091  0.3246  0.8030 -0.4176
  854MOL0     C17757  12.399   0.698   1.210 -1.0266 -0.1047 -0.4740
  854MOL0     C17758  12.332   0.642   1.344 -0.1365 -0.2532 -0.8206
  854MOL0    Cl17759  12.372   0.750   1.471 -0.1441  0.3050 -0.4690
  854MOL0     C17760  12.019   1.070   0.554 -0.3793  0.3291 -0.6449
  854MOL0     C17761  11.896   1.091   0.502  0.7737  0.4968  0.0717
  854MOL0     O17762  11.614   0.976   0.586 -0.1414  0.7660 -0.9525
  854MOL0     C17763  11.362   0.987   0.486  0.4932  0.1676  0.6455
  854MOL0     C17764  11.232   1.003   0.437  0.5678  0.6193 -0.2961
  854MOL0     N17765  10.407   1.066   0.344  0.2681  0.4269  0.0916
  854MOL0     N17766  10.304   1.027   0.414 -0.1329  0.8197  0.2232
  854MOL0     C17767   9.482   0.314  -0.016  1.2866  0.0470  0.2571
  854MOL0     C17768   9.347   0.290  -0.049 -0.9024 -0.5837  0.2364
  854MOL0     C17769   8.879   0.268   0.048 -0.2672  0.2754 -0.1675
  854MOL0     C17770   8.783   0.219   0.142  0.7877  0.0738 -0.9806
  854MOL0     C17771   8.653   0.189   0.101 -0.0805 -0.1104  0.5991
  854MOL0     C17772   8.620   0.213  -0.034  1.1774  0.3906  0.4403
  854MOL0     O17773   8.494   0.200  -0.100 -0.7565 -0.6940 -0.7415
  854MOL0     C17774   8.382   0.189  -0.009 -0.5338  0.6004  0.3785
  854MOL0     C17775   8.358   0.038   0.034  0.7493 -0.4242 -0.2507
  854MOL0     C17776   8.343  -0.047  -0.096  0.2008  0.7098 -0.7943
  854MOL0     C17777   8.199  -0.058  -0.160  0.2667  0.4075 -0.6454
  854MOL0     C17778   8.212  -0.084  -0.302 -0.0187  0.5686  0.0343
  854MOL0     C17779   8.211  -0.102  -0.422 -0.0866  0.3799  0.1593
  854MOL0     C17780   8.712   0.262  -0.120  0.4947 -0.5938 -0.6502
  854MOL0     C17781   8.841   0.288  -0.088  0.0977 -0.3622  0.1516
  854MOL0     C17782   8.927   0.358  -0.196 -0.4694 -0.2180  0.8868
  854MOL0     H17783   9.202   0.457   0.203  0.5598  2.2065 -1.7111
  854MOL0     H17784   9.442   0.491   0.261 -3.2022  2.7118 -1.7706
  854MOL0     H17785   9.742   0.519  -0.035  3.4502 -0.1354 -0.6510
  854MOL0     H17786   9.767   0.346  -0.024 -1.3462  0.6787 -2.4509
  854MOL0     H17787   9.916   0.357   0.163  2.5939 -0.2951 -1.5830
  854MOL0     H17788   9.960   0.460   0.037 -1.1180  0.1387 -1.3203
  854MOL0     H17789   9.871   0.665   0.176  0.1847  2.4237  2.7794
  854MOL0     H17790   9.793   0.552   0.281 -0.7047 -1.3334 -1.2347
  854MOL0     H17791  10.042   0.468   0.358 -0.5995 -0.5041  0.0699
  854MOL0     H17792  10.099   0.575   0.246  1.8038 -1.0633  1.5297
  854MOL0     H17793   9.929   0.644   0.486 -0.8350  1.4288  0.4505
  854MOL0     H17794   9.963   0.768   0.356  3.6154  1.9633  0.3354
  854MOL0     H17795  10.160   0.623   0.559  0.8056 -0.4983 -0.4573
  854MOL0     H17796  10.213   0.727   0.419 -0.6591  3.1032 -0.1554
  854MOL0     H17797  10.065   0.795   0.670 -2.3925  1.3647  0.2465
  854MOL0     H17798  10.072   0.904   0.531  1.0719  0.6162  0.8718
  854MOL0     H17799  10.261   0.953   0.692 -1.5046  1.5780 -2.3570
  854MOL0     H17800  10.329   0.790   0.656  2.3911  0.3080 -1.2280
  854MOL0     H17801  10.534   0.834   0.536 -1.9732 -0.2637  1.1900
  854MOL0     H17802  10.723   1.053   0.419  0.4305 -0.4320 -0.2755
  854MOL0     H17803  10.646   1.090   0.273  0.5019  1.4910  1.7047
  854MOL0     H17804  10.721   0.815   0.377 -2.7621  0.9594  0.2673
  854MOL0     H17805  10.661   0.831   0.214 -0.9634 -0.9015  1.6022
  854MOL0     H17806  10.907   0.799   0.210  4.1962  1.1416  3.1741
  854MOL0     H17807  10.845   0.950   0.146 -1.7414 -1.7765 -0.2185
  854MOL0     H17808  10.931   1.054   0.343 -2.4449 -0.5714 -0.1655
  854MOL0     H17809  10.979   0.892   0.405 -0.6516 -2.2025 -1.4511
  854MOL0     H17810  11.292   0.941   0.113  0.0795 -0.1007  0.0002
  854MOL0     H17811  11.516   0.866   0.071 -0.6328 -0.5147  0.8127
  854MOL0     H17812  11.631   0.861   0.203 -1.1285 -2.0539  0.5554
  854MOL0     H17813  11.607   1.011   0.134  0.5208  0.2546  1.2175
  854MOL0     H17814  11.882   0.800   0.329 -2.9792  0.8663  0.6056
  854MOL0     H17815  12.105   0.781   0.407  1.4615 -0.0596  0.6231
  854MOL0     H17816  12.283   1.125   0.654 -1.9031 -1.1517 -4.1919
  854MOL0     H17817  12.203   1.009   0.771  0.9615 -0.3572  0.5082
  854MOL0     H17818  12.483   0.986   0.649 -0.6775  0.8769 -0.1464
  854MOL0     H17819  12.444   1.023   0.811  2.4578  2.6163 -2.4213
  854MOL0     H17820  12.507   0.793   0.766  0.1681 -1.7408 -1.8758
  854MOL0     H17821  12.345   0.759   0.694 -0.1019  2.7616 -2.4998
  854MOL0     H17822  12.229   0.788   0.905  0.5433 -0.5460  0.5596
  854MOL0     H17823  12.373   0.874   0.968 -1.1374 -0.3925  1.3769
  854MOL0     H17824  12.364   0.577   0.883 -4.8084  1.6360  0.3371
  854MOL0     H17825  12.501   0.657   0.963  0.0207 -0.9885 -0.0030
  854MOL0     H17826  12.384   0.514   1.109 -0.6265  0.0161 -2.3860
  854MOL0     H17827  12.235   0.605   1.086  0.2566  1.1610  0.3038
  854MOL0     H17828  12.386   0.806   1.204  1.4975  0.3625  1.1627
  854MOL0     H17829  12.506   0.683   1.227 -1.2657 -1.4169 -0.0299
  854MOL0     H17830  12.383   0.551   1.376 -0.2004  0.1395  0.4665
  854MOL0     H17831  12.226   0.624   1.329 -0.3918 -0.4767  1.0358
  854MOL0     H17832  12.053   1.157   0.609  0.2178  0.1024 -0.6474
  854MOL0     H17833  11.850   1.186   0.528 -0.9321 -0.6684  1.6421
  854MOL0     H17834  11.376   1.009   0.592  0.6907 -1.1973  0.9257
  854MOL0     H17835  11.156   1.030   0.510 -1.2222 -0.0984 -1.8144
  854MOL0     H17836   9.548   0.283  -0.096  1.1861 -3.9856  1.5264
  854MOL0     H17837   9.325   0.231  -0.138 -2.0970  1.2135 -0.7197
  854MOL0     H17838   8.807   0.213   0.247 -1.3003  3.2442 -0.1624
  854MOL0     H17839   8.574   0.153   0.167 -1.0615  0.8897  0.0130
  854MOL0     H17840   8.402   0.256   0.075  2.3026 -0.2778  0.5191
  854MOL0     H17841   8.301   0.235  -0.065 -0.8729 -0.4262  0.0015
  854MOL0     H17842   8.266   0.038   0.092  0.2851 -1.8432 -0.9575
  854MOL0     H17843   8.434  -0.010   0.097  1.2137  1.1189  0.4398
  854MOL0     H17844   8.419  -0.031  -0.173  0.3097 -2.7381 -1.5514
  854MOL0     H17845   8.359  -0.146  -0.053  0.6777  0.8743 -0.5826
  854MOL0     H17846   8.148   0.038  -0.147 -1.1075 -0.5274  1.5042
  854MOL0     H17847   8.135  -0.127  -0.104 -0.8132  1.8158 -0.0505
  854MOL0     H17848   8.182  -0.108  -0.525  1.4545  0.1200 -0.2859
  854MOL0     H17849   8.675   0.278  -0.220  1.2946 -2.9698 -1.4146
  854MOL0     H17850   8.979   0.439  -0.144 -0.0303 -0.4901  0.8722
  854MOL0     H17851   9.002   0.292  -0.240 -1.1743  0.1683 -1.0139
  854MOL0     H17852   8.857   0.391  -0.274 -1.9770 -0.5587  2.0477
  855MOL0     O17853   3.787   9.403   5.475 -0.4206 -0.4188  0.3357
  855MOL0     C17854   3.777   9.403   5.601  0.0231 -0.1395  0.5928
  855MOL0     O17855   3.885   9.400   5.688 -0.7421  0.4572  0.3612
  855MOL0     C17856   4.011   9.386   5.626 -0.3142  0.4880 -0.0773
  855MOL0     C17857   4.063   9.266   5.570  0.1919 -0.3303  0.0167
  855MOL0     C17858   4.195   9.257   5.523 -0.0917  0.6853 -0.4076
  855MOL0     C17859   4.283   9.373   5.528 -0.3888 -0.0348  1.1816
  855MOL0     O17860   4.414   9.360   5.476 -0.4928  0.4953 -0.0381
  855MOL0     C17861   4.493   9.477   5.468 -0.5699  0.8147 -0.4898
  855MOL0     C17862   4.634   9.449   5.422 -0.1455 -0.2932 -0.4427
  855MOL0     C17863   4.639   9.426   5.275 -0.8496  0.6690  0.6154
  855MOL0     C17864   4.726   9.526   5.190 -0.0858  0.5526  0.7971
  855MOL0     C17865   4.662   9.659   5.179  0.2490  0.6243 -0.4607
  855MOL0     C17866   4.544   9.689   5.096  0.8126  0.0102 -0.3050
  855MOL0     C17867   4.535   9.840   5.064 -0.1945  0.5348 -1.2258
  855MOL0     C17868   4.521   9.935   5.183 -0.2774  0.5777  0.5354
  855MOL0     N17869   4.402   9.908   5.268 -0.7845  0.2867  0.0774
  855MOL0     C17870   4.274   9.949   5.238 -0.3782  0.7468  0.2906
  855MOL0     C17871   4.192   9.862   5.302  0.1352  0.6059 -0.0515
  855MOL0     C17872   4.046   9.856   5.303  0.0593  0.2100 -0.3182
  855MOL0     C17873   3.987   9.715   5.304 -0.1039  0.3516  0.3099
  855MOL0     C17874   4.041   9.631   5.186  0.0693 -0.4454  0.3908
  855MOL0     C17875   3.994   9.482   5.181  0.1415  0.3905  0.7633
  855MOL0     O17876   4.030   9.418   5.049  0.1861  1.0625  0.1883
  855MOL0     C17877   4.124   9.323   5.050 -0.3148  0.4254  0.3905
  855MOL0     C17878   4.119   9.240   4.941  0.2028 -0.9833 -0.4813
  855MOL0     C17879   4.207   9.141   4.907  0.0443  0.0383  0.1351
  855MOL0     C17880   4.169   9.052   4.784  0.1114  0.0160 -0.5379
  855MOL0     C17881   4.313   9.114   5.000 -0.0093 -0.5294 -0.0382
  855MOL0     C17882   4.428   9.016   4.979  0.4104 -0.1748  0.1184
  855MOL0     O17883   4.412   8.923   4.881  0.2434 -0.2656 -0.2525
  855MOL0     C17884   4.523   8.837   4.865  0.1541 -0.6052  0.0814
  855MOL0     C17885   4.640   8.879   4.803 -0.6873 -1.4137  0.6020
  855MOL0     C17886   4.750   8.795   4.812 -0.0792 -0.6966  0.1321
  855MOL0     C17887   4.740   8.662   4.849  0.5496  0.4762  0.2872
  855MOL0     O17888   4.860   8.591   4.853  0.3503 -0.0682  0.2311
  855MOL0     C17889   4.854   8.463   4.794 -0.4551  0.4278 -0.2789
  855MOL0     C17890   4.989   8.389   4.795  0.4807 -0.8241 -0.3472
  855MOL0     C17891   4.994   8.281   4.683  0.3098  0.9392 -0.4982
  855MOL0     C17892   4.905   8.168   4.706 -0.5583 -0.1860  0.2506
  855MOL0     C17893   4.965   8.043   4.630 -0.4894 -0.1873  0.0214
  855MOL0     C17894   4.909   8.055   4.484  0.6301  0.1120  0.9411
  855MOL0     C17895   4.751   8.069   4.473 -1.0801 -0.4952 -0.4952
  855MOL0     C17896   4.694   8.024   4.345  0.0621 -0.9795  0.8998
  855MOL0    Cl17897   4.791   8.064   4.199  0.1783 -0.0980  0.1795
  855MOL0     C17898   4.617   8.613   4.886  0.6463 -1.0759 -0.2875
  855MOL0     C17899   4.516   8.708   4.907 -0.1832  0.4127 -0.6049
  855MOL0     O17900   4.527   9.021   5.056  0.0902 -0.0618 -0.3252
  855MOL0     C17901   4.317   9.199   5.116 -0.4894  0.0593 -0.5978
  855MOL0     C17902   4.227   9.309   5.140 -0.1718  0.6038 -0.2738
  855MOL0     N17903   4.279   9.778   5.373  0.5271  0.9002  0.8961
  855MOL0     N17904   4.402   9.809   5.360 -0.2005 -0.1450 -0.1254
  855MOL0     C17905   4.226   9.498   5.569 -0.0433 -0.3950  0.0928
  855MOL0     C17906   4.096   9.495   5.622 -0.4927 -0.5572  0.3448
  855MOL0     C17907   3.637   9.393   5.658 -0.4442  0.5265  0.3189
  855MOL0     C17908   3.622   9.332   5.786  0.6208  0.1543 -0.4618
  855MOL0     C17909   3.502   9.313   5.849 -0.5440 -0.4215 -0.2898
  855MOL0     C17910   3.385   9.342   5.783  0.3499 -0.1617 -0.3077
  855MOL0     O17911   3.252   9.316   5.831  0.1692  0.9610  0.0241
  855MOL0     C17912   3.252   9.246   5.952  0.3006  0.6161 -0.0920
  855MOL0     C17913   3.114   9.244   6.004  0.9887 -0.4724 -1.3012
  855MOL0     C17914   3.102   9.140   6.119 -0.7763 -0.1222  0.0868
  855MOL0     C17915   2.991   9.147   6.220 -0.1573 -1.2074  0.0121
  855MOL0     C17916   2.869   9.149   6.151  0.0894  0.1170  0.3543
  855MOL0     C17917   2.756   9.130   6.108 -0.3161 -0.3637 -0.5476
  855MOL0     C17918   3.398   9.409   5.661 -0.6969 -0.0087  1.2192
  855MOL0     C17919   3.520   9.426   5.585  0.5691 -0.0796 -0.7538
  855MOL0     C17920   3.519   9.494   5.450  0.0834  0.5375  0.5047
  855MOL0     H17921   3.993   9.184   5.554 -2.8403  2.2058 -0.8006
  855MOL0     H17922   4.225   9.163   5.478  0.6514  0.5623  0.3417
  855MOL0     H17923   4.482   9.524   5.566 -1.8590  0.9109 -0.6590
  855MOL0     H17924   4.451   9.551   5.399 -2.7095  1.1317  1.0621
  855MOL0     H17925   4.698   9.535   5.445  1.3227 -1.3472 -0.4598
  855MOL0     H17926   4.673   9.367   5.484  0.2888  0.8665  0.8887
  855MOL0     H17927   4.682   9.327   5.259  1.2893  1.4776  1.0444
  855MOL0     H17928   4.535   9.426   5.242 -1.1755  0.0518  1.5835
  855MOL0     H17929   4.822   9.534   5.240  0.5342 -1.1740 -0.0062
  855MOL0     H17930   4.734   9.488   5.087 -0.1471 -1.7967  1.5936
  855MOL0     H17931   4.741   9.715   5.128  1.1169 -1.7393 -1.8584
  855MOL0     H17932   4.643   9.709   5.275 -1.6109  1.4298 -1.2020
  855MOL0     H17933   4.541   9.621   5.011 -0.3368 -0.1770 -0.1362
  855MOL0     H17934   4.451   9.670   5.151  0.3126 -1.2979 -1.5380
  855MOL0     H17935   4.449   9.874   5.006 -0.7756  1.4759  0.1197
  855MOL0     H17936   4.630   9.868   5.018  0.9033  2.4569  1.8755
  855MOL0     H17937   4.616   9.933   5.237  0.9195 -0.2086 -1.4837
  855MOL0     H17938   4.506  10.032   5.134 -1.6999 -1.1166 -2.6274
  855MOL0     H17939   4.235  10.027   5.175 -1.8130 -0.5106 -0.4473
  855MOL0     H17940   4.003   9.913   5.220 -2.2364 -1.2332 -0.2020
  855MOL0     H17941   4.026   9.895   5.403  1.4614  1.3921 -0.4623
  855MOL0     H17942   4.018   9.656   5.391 -1.2576 -1.3203 -0.3501
  855MOL0     H17943   3.878   9.718   5.297 -0.0334  1.8482 -0.7197
  855MOL0     H17944   4.003   9.681   5.097 -1.9864 -0.5763  1.1429
  855MOL0     H17945   4.150   9.628   5.177  0.3400  1.7080  2.0605
  855MOL0     H17946   4.035   9.429   5.267  1.2031 -0.4273 -0.2285
  855MOL0     H17947   3.885   9.474   5.191  0.1652 -2.3598 -0.4157
  855MOL0     H17948   4.039   9.252   4.869  0.7579  0.1537 -0.9401
  855MOL0     H17949   4.073   9.076   4.739 -1.4368 -0.8574  2.0496
  855MOL0     H17950   4.156   8.944   4.800  1.5206 -0.0737  0.0974
  855MOL0     H17951   4.253   9.069   4.716  0.0277  2.5628 -0.0850
  855MOL0     H17952   4.642   8.975   4.753  0.6967 -1.6311  0.2115
  855MOL0     H17953   4.845   8.821   4.766 -0.1103  1.3037  1.0887
  855MOL0     H17954   4.777   8.394   4.829 -0.7405  0.2249 -1.2710
  855MOL0     H17955   4.836   8.467   4.686 -4.0067 -1.7682  0.0818
  855MOL0     H17956   5.069   8.462   4.776  1.2511 -2.4253 -4.2177
  855MOL0     H17957   5.005   8.347   4.895  1.6869 -0.5297 -0.3999
  855MOL0     H17958   5.094   8.238   4.673 -0.0421  0.0594 -0.2602
  855MOL0     H17959   4.975   8.324   4.584 -1.0570  2.7989  0.4968
  855MOL0     H17960   4.798   8.185   4.689 -0.4601 -0.6479 -0.9060
  855MOL0     H17961   4.909   8.149   4.813 -0.9662 -0.4627  0.2203
  855MOL0     H17962   5.074   8.038   4.626 -0.3649  0.9091  1.3280
  855MOL0     H17963   4.924   7.954   4.678 -1.8320 -0.3987 -1.4056
  855MOL0     H17964   4.943   7.962   4.439  2.0999  0.8176  0.5294
  855MOL0     H17965   4.955   8.139   4.431  1.7780 -1.4096 -0.5601
  855MOL0     H17966   4.727   8.171   4.504  2.7611  0.7198 -0.9830
  855MOL0     H17967   4.704   8.006   4.549 -0.4057 -1.8303 -1.1493
  855MOL0     H17968   4.592   8.060   4.338  0.4057 -0.3940 -2.6660
  855MOL0     H17969   4.690   7.914   4.349 -0.6225 -1.0873 -1.5744
  855MOL0     H17970   4.606   8.511   4.922 -0.3622 -0.1555  2.2091
  855MOL0     H17971   4.427   8.699   4.969  1.7421  3.5538  3.0521
  855MOL0     H17972   4.400   9.184   5.185  1.1346  0.2280 -2.4219
  855MOL0     H17973   4.241   9.375   5.224  3.9871 -1.5301  0.9690
  855MOL0     H17974   4.279   9.592   5.574  0.3032 -0.5416 -0.7192
  855MOL0     H17975   4.067   9.593   5.659 -0.8399 -0.0891 -1.0764
  855MOL0     H17976   3.714   9.305   5.838 -0.2478  0.3070  1.2179
  855MOL0     H17977   3.501   9.292   5.956 -0.9644  1.8969  0.2142
  855MOL0     H17978   3.296   9.147   5.936  0.8576  0.1477  3.4120
  855MOL0     H17979   3.315   9.292   6.029  0.9522  1.0823 -0.8971
  855MOL0     H17980   3.044   9.217   5.924 -0.3491  2.7264 -1.3402
  855MOL0     H17981   3.089   9.344   6.040 -1.0132 -0.8174 -1.6226
  855MOL0     H17982   3.103   9.039   6.076  1.1854 -0.4203  0.7168
  855MOL0     H17983   3.188   9.153   6.185 -0.1618 -0.3746 -0.6480
  855MOL0     H17984   3.003   9.229   6.291 -0.5266 -3.1780  2.4981
  855MOL0     H17985   2.998   9.063   6.290  1.3294 -0.4906  0.7695
  855MOL0     H17986   2.663   9.103   6.063  1.0791 -2.5226 -2.3664
  855MOL0     H17987   3.307   9.446   5.615  1.4400  0.5309 -2.9961
  855MOL0     H17988   3.543   9.416   5.378 -4.5579 -2.4695  1.7755
  855MOL0     H17989   3.421   9.541   5.432  1.2808  2.5956 -0.9815
  855MOL0     H17990   3.587   9.579   5.436 -2.6858  2.7716 -0.4518
  856MOL0     O17991   5.091   5.032   0.589 -0.6270 -0.7090  0.3175
  856MOL0     C17992   5.098   5.017   0.709 -0.8841  0.2326  0.7415
  856MOL0     O17993   4.990   4.992   0.788  0.2366 -0.3359 -0.6075
  856MOL0     C17994   4.865   4.996   0.732 -0.4969  0.2583  0.0136
  856MOL0     C17995   4.774   5.099   0.768 -1.1321  0.6243 -0.2130
  856MOL0     C17996   4.654   5.112   0.714  0.0997 -0.2936  0.0652
  856MOL0     C17997   4.601   5.012   0.629 -0.5819  0.0332 -0.1244
  856MOL0     O17998   4.468   5.032   0.584 -0.3638  0.3824  0.2196
  856MOL0     C17999   4.405   4.919   0.522 -0.1198 -0.1103 -0.3088
  856MOL0     C18000   4.259   4.927   0.568 -0.5710  0.2629  0.6131
  856MOL0     C18001   4.173   4.847   0.468  0.2494  0.4727 -0.2053
  856MOL0     C18002   4.047   4.787   0.535 -0.8975 -0.0414  0.7107
  856MOL0     C18003   3.976   4.881   0.638 -0.3279  0.6800  0.2384
  856MOL0     C18004   3.924   5.004   0.562 -0.2516  0.0343 -0.4349
  856MOL0     C18005   3.825   5.097   0.635 -0.9029  0.2738 -0.2079
  856MOL0     C18006   3.686   5.029   0.663 -0.1973 -0.4090 -0.0041
  856MOL0     N18007   3.634   5.079   0.790 -0.2629 -0.5593  0.5708
  856MOL0     C18008   3.622   5.009   0.907 -0.4485 -0.4083 -0.6182
  856MOL0     C18009   3.549   5.090   0.992  0.2902  0.2583 -1.0958
  856MOL0     C18010   3.522   5.044   1.132  0.3138  0.0577  0.2141
  856MOL0     C18011   3.632   5.110   1.215 -0.1329  0.2505  0.0262
  856MOL0     C18012   3.600   5.108   1.366 -0.2838 -0.0352 -0.0848
  856MOL0     C18013   3.719   5.165   1.460 -0.2596 -0.3731 -0.0482
  856MOL0     O18014   3.842   5.094   1.417 -0.2797  0.2866  0.3046
  856MOL0     C18015   3.959   5.124   1.488  0.6395 -0.8654  0.3285
  856MOL0     C18016   4.078   5.084   1.433  0.0259  0.0680  0.6451
  856MOL0     C18017   4.206   5.098   1.490  0.0048  0.2296 -0.9847
  856MOL0     C18018   4.328   5.050   1.421  0.1424  0.1990  0.3698
  856MOL0     C18019   4.208   5.166   1.618  0.1325 -0.0139  0.1511
  856MOL0     C18020   4.324   5.180   1.702  0.3073 -1.0006 -0.5177
  856MOL0     O18021   4.324   5.263   1.806  0.1141 -0.5363 -0.4348
  856MOL0     C18022   4.455   5.299   1.848 -0.4456 -0.2965 -0.5536
  856MOL0     C18023   4.536   5.385   1.785  0.3136  0.3239  0.5973
  856MOL0     C18024   4.666   5.426   1.830 -0.2598  0.2656 -0.5386
  856MOL0     C18025   4.707   5.375   1.957 -0.9156  0.2700 -0.3839
  856MOL0     O18026   4.833   5.387   2.016 -0.8065 -0.4836 -0.3611
  856MOL0     C18027   4.904   5.508   1.977 -0.7136  1.0231  0.2031
  856MOL0     C18028   5.024   5.519   2.067  0.0558  0.1590  0.1604
  856MOL0     C18029   5.106   5.386   2.067  0.1595 -0.4924 -0.2765
  856MOL0     C18030   5.207   5.385   2.174 -0.4303  0.1155 -0.1520
  856MOL0     C18031   5.301   5.494   2.125  0.3171 -0.0624 -0.7394
  856MOL0     C18032   5.429   5.495   2.215  0.2852 -0.1619 -0.2494
  856MOL0     C18033   5.524   5.614   2.211  0.2178 -0.2337  0.5468
  856MOL0     C18034   5.630   5.599   2.313  0.2926 -0.2622  0.2146
  856MOL0    Cl18035   5.715   5.445   2.299 -0.4465  0.1009  0.3604
  856MOL0     C18036   4.625   5.280   2.018 -0.0278  0.6471 -0.5813
  856MOL0     C18037   4.503   5.248   1.966  0.2607  0.4191 -0.4927
  856MOL0     O18038   4.422   5.111   1.670  0.0667 -0.2953  0.0429
  856MOL0     C18039   4.087   5.215   1.673 -0.6054  0.2694  0.5973
  856MOL0     C18040   3.970   5.200   1.605 -0.1826 -0.1304 -1.1794
  856MOL0     N18041   3.528   5.208   0.928 -0.3097  0.4594  0.2351
  856MOL0     N18042   3.581   5.201   0.815 -0.1237 -0.7529  0.6367
  856MOL0     C18043   4.687   4.896   0.599 -0.6526  0.2839  0.0256
  856MOL0     C18044   4.820   4.898   0.650 -0.2368 -0.3656  0.5173
  856MOL0     C18045   5.229   5.021   0.769  0.5571  0.2261 -0.3076
  856MOL0     C18046   5.242   4.972   0.904  0.0992 -0.4867 -0.1703
  856MOL0     C18047   5.365   4.966   0.974 -0.0369 -0.3755  0.1796
  856MOL0     C18048   5.486   5.001   0.900  1.0439 -0.0110 -0.2309
  856MOL0     O18049   5.612   4.991   0.945 -0.0620  0.2920 -0.8321
  856MOL0     C18050   5.647   4.914   1.058 -0.0620  1.5040 -0.4472
  856MOL0     C18051   5.654   4.762   1.019 -0.1941 -0.5477 -0.2052
  856MOL0     C18052   5.771   4.724   0.909  0.7684  0.4120  0.3871
  856MOL0     C18053   5.772   4.572   0.891 -0.2120  0.7977  0.8214
  856MOL0     C18054   5.831   4.500   1.008  0.7396  0.3190 -0.1105
  856MOL0     C18055   5.876   4.422   1.093  0.4475  0.4987  0.0398
  856MOL0     C18056   5.467   5.048   0.776  0.0972 -0.1869 -0.1839
  856MOL0     C18057   5.350   5.060   0.702 -0.0685  0.5825 -0.1732
  856MOL0     C18058   5.346   5.136   0.570 -0.0641 -0.7527 -0.5346
  856MOL0     H18059   4.811   5.173   0.838 -0.7161 -1.0840  1.4331
  856MOL0     H18060   4.586   5.194   0.737  1.3902  0.3208  1.9324
  856MOL0     H18061   4.447   4.821   0.548 -0.1939  0.2365  1.1798
  856MOL0     H18062   4.415   4.923   0.413  0.4405  0.4676 -0.2434
  856MOL0     H18063   4.244   4.881   0.666 -0.5321  0.4868  0.7236
  856MOL0     H18064   4.229   5.032   0.577  0.0234  0.6528 -1.5083
  856MOL0     H18065   4.155   4.923   0.391 -1.5137 -0.2895 -0.6049
  856MOL0     H18066   4.233   4.767   0.424 -0.2179 -0.5610  0.9807
  856MOL0     H18067   3.981   4.776   0.448 -0.4942  2.5746 -0.0069
  856MOL0     H18068   4.067   4.687   0.574  1.0050 -0.5055 -1.2430
  856MOL0     H18069   4.044   4.907   0.720 -0.7546  1.0510  0.4763
  856MOL0     H18070   3.899   4.824   0.690  1.5479 -2.7409 -0.4294
  856MOL0     H18071   4.007   5.070   0.534 -0.1349  0.2466  0.3885
  856MOL0     H18072   3.877   4.964   0.472  0.3115  1.8417 -1.5793
  856MOL0     H18073   3.791   5.168   0.559 -0.8640 -0.0104 -0.4959
  856MOL0     H18074   3.863   5.147   0.724 -2.1631  0.2460  0.3571
  856MOL0     H18075   3.620   5.057   0.580 -1.0767 -1.4232  0.3425
  856MOL0     H18076   3.690   4.920   0.663 -0.7157 -0.6324 -4.7577
  856MOL0     H18077   3.653   4.910   0.942 -1.4951  0.1960  2.3184
  856MOL0     H18078   3.533   4.936   1.136  0.1968  0.0315 -0.1423
  856MOL0     H18079   3.424   5.083   1.162 -1.5147 -0.9401 -3.8589
  856MOL0     H18080   3.728   5.058   1.203  0.6288  1.8601 -1.2283
  856MOL0     H18081   3.656   5.210   1.179 -1.2491 -0.1504 -1.9585
  856MOL0     H18082   3.508   5.164   1.388 -0.1816 -0.1663  0.7298
  856MOL0     H18083   3.587   5.004   1.397  1.5452 -0.1342  0.4585
  856MOL0     H18084   3.733   5.272   1.441 -3.0810 -0.2542 -2.0013
  856MOL0     H18085   3.694   5.150   1.565 -1.5017 -0.8670 -0.4007
  856MOL0     H18086   4.069   5.038   1.335 -1.7453  0.1275  0.7454
  856MOL0     H18087   4.358   4.962   1.479  0.2754 -0.5623 -0.8124
  856MOL0     H18088   4.414   5.118   1.423  1.3987 -1.3447  1.9778
  856MOL0     H18089   4.307   5.025   1.317  1.3507 -4.0733  0.9722
  856MOL0     H18090   4.506   5.435   1.694  4.2275  0.1970 -0.9409
  856MOL0     H18091   4.724   5.483   1.759  0.1610 -0.2368 -0.6073
  856MOL0     H18092   4.942   5.492   1.875 -1.1782 -1.0483  0.3057
  856MOL0     H18093   4.841   5.596   1.990 -1.0445  0.4813  2.8024
  856MOL0     H18094   5.085   5.597   2.021 -0.3291 -0.4105 -1.3496
  856MOL0     H18095   4.993   5.542   2.170  0.1380 -1.0318  0.4692
  856MOL0     H18096   5.161   5.367   1.974  3.3626  2.8312  0.6864
  856MOL0     H18097   5.036   5.302   2.077 -2.9195  1.8522 -0.7210
  856MOL0     H18098   5.261   5.291   2.167  3.1983  2.0680 -0.8901
  856MOL0     H18099   5.169   5.410   2.274 -0.8817  2.0571 -0.7640
  856MOL0     H18100   5.324   5.496   2.018 -0.8322 -0.1563 -0.9994
  856MOL0     H18101   5.253   5.589   2.148  2.2650  0.3895  1.9141
  856MOL0     H18102   5.493   5.412   2.181  1.9033  0.7964  0.3448
  856MOL0     H18103   5.400   5.483   2.320  0.0947  1.1056 -0.1467
  856MOL0     H18104   5.469   5.707   2.221  2.3675  1.4766 -2.0409
  856MOL0     H18105   5.571   5.614   2.112 -0.8292 -2.0454  0.0100
  856MOL0     H18106   5.582   5.599   2.412  0.5578 -0.0975  0.3451
  856MOL0     H18107   5.701   5.683   2.309 -1.7569  1.6344  1.4915
  856MOL0     H18108   4.662   5.225   2.105 -1.0735 -1.9376 -1.6569
  856MOL0     H18109   4.451   5.171   2.022 -1.5677  2.1827  0.3510
  856MOL0     H18110   4.092   5.260   1.772  3.4760  1.8956 -0.1464
  856MOL0     H18111   3.882   5.238   1.657  0.6885 -0.5055  0.6499
  856MOL0     H18112   4.659   4.804   0.549 -0.1100 -0.8431  1.7204
  856MOL0     H18113   4.884   4.813   0.628  0.3754  0.5129 -1.2526
  856MOL0     H18114   5.146   4.940   0.945  0.3187 -3.3045 -1.6216
  856MOL0     H18115   5.367   4.931   1.076  0.2848 -1.2913 -0.1354
  856MOL0     H18116   5.742   4.949   1.098  0.6727  0.9635 -1.6855
  856MOL0     H18117   5.580   4.938   1.142 -3.0930 -0.3579 -2.1383
  856MOL0     H18118   5.553   4.730   0.989  0.5891 -0.8924 -2.7395
  856MOL0     H18119   5.687   4.715   1.112  0.9853 -1.1587 -0.9175
  856MOL0     H18120   5.727   4.773   0.822 -4.2665  1.2306  3.0577
  856MOL0     H18121   5.867   4.775   0.925  1.9655 -0.6723 -2.6328
  856MOL0     H18122   5.827   4.541   0.802 -1.2865 -1.9196  1.0095
  856MOL0     H18123   5.673   4.536   0.863  0.3557  0.3272 -0.6830
  856MOL0     H18124   5.903   4.350   1.168 -4.9316 -0.9149  1.0065
  856MOL0     H18125   5.561   5.084   0.736  1.2328 -1.6011  1.1137
  856MOL0     H18126   5.292   5.229   0.592 -1.4127 -1.7420  0.5084
  856MOL0     H18127   5.449   5.157   0.539  0.3074 -0.1422  0.9987
  856MOL0     H18128   5.289   5.086   0.491 -0.4143 -0.4207 -0.4977
  857MOL0     O18129  10.907   5.224   8.976 -0.2249  0.1345  0.2158
  857MOL0     C18130  10.850   5.303   9.037  0.4874 -1.6283 -0.2665
  857MOL0     O18131  10.815   5.428   8.999 -0.0005 -0.6395  0.3764
  857MOL0     C18132  10.852   5.460   8.872 -0.1206  0.7444  0.1717
  857MOL0     C18133  10.767   5.449   8.764  0.0239 -0.2412  0.0378
  857MOL0     C18134  10.808   5.485   8.637 -0.1327 -0.3205  0.8993
  857MOL0     C18135  10.941   5.534   8.618 -0.3831  0.0230  0.0378
  857MOL0     O18136  10.972   5.574   8.488 -0.1717 -0.2714 -0.8133
  857MOL0     C18137  11.114   5.595   8.456 -0.3508  0.3825 -0.4453
  857MOL0     C18138  11.161   5.738   8.489 -0.2598  0.2453  0.0422
  857MOL0     C18139  11.309   5.772   8.445 -0.3387  0.5157  0.5334
  857MOL0     C18140  11.349   5.913   8.467  1.2225 -0.2195  0.5433
  857MOL0     C18141  11.485   5.954   8.427 -0.3866 -0.2353  0.5282
  857MOL0     C18142  11.518   6.110   8.424 -1.0450  0.6468  0.2307
  857MOL0     C18143  11.670   6.125   8.423  0.0932  0.0399 -0.3066
  857MOL0     C18144  11.712   6.246   8.344  0.0211 -0.2360  0.3913
  857MOL0     N18145  11.853   6.255   8.330  0.3442 -0.1059  0.0304
  857MOL0     C18146  11.920   6.211   8.214  0.4938  0.1018  0.0027
  857MOL0     C18147  12.049   6.253   8.238 -0.2360 -0.5987 -0.2342
  857MOL0     C18148  12.159   6.230   8.145 -0.7017 -0.0651  0.1260
  857MOL0     C18149  12.291   6.189   8.220  0.8286 -0.2902  0.6546
  857MOL0     C18150  12.394   6.150   8.111 -0.1900  0.6929  0.9718
  857MOL0     C18151  12.509   6.071   8.187  0.3155  0.3114  0.0186
  857MOL0     O18152  12.592   5.991   8.094  1.0885 -0.5263  0.2851
  857MOL0     C18153  12.723   6.037   8.084 -0.1512  0.4304 -0.7579
  857MOL0     C18154  12.764   6.168   8.102 -0.7878 -0.9716  0.8999
  857MOL0     C18155  12.898   6.211   8.098  0.1817 -0.3275  0.0413
  857MOL0     C18156  12.920   6.362   8.115  0.0221 -0.0141 -0.2907
  857MOL0     C18157  13.000   6.112   8.092 -0.1532  0.2793  0.2115
  857MOL0     C18158  13.147   6.145   8.097 -0.4894  0.2033  1.6487
  857MOL0     O18159  13.216   6.083   8.189  0.0736 -0.2643 -0.1617
  857MOL0     C18160  13.340   6.126   8.230  0.5155  0.3833 -0.4621
  857MOL0     C18161  13.360   6.256   8.280  0.4681  1.0320  0.2553
  857MOL0     C18162  13.488   6.294   8.325 -0.0479  0.6209  0.3029
  857MOL0     C18163  13.593   6.199   8.324 -0.1567 -1.3453  0.3018
  857MOL0     O18164  13.722   6.220   8.369 -0.3870  0.1864 -0.1299
  857MOL0     C18165  13.762   6.355   8.414 -0.7123  0.3728 -0.0252
  857MOL0     C18166  13.915   6.353   8.427  0.4174  0.6851  0.2443
  857MOL0     C18167  13.986   6.490   8.413  0.0397  0.8242 -0.0049
  857MOL0     C18168  13.942   6.604   8.499 -0.1756 -0.7809  0.0564
  857MOL0     C18169  13.986   6.579   8.646 -0.4330 -0.4216 -0.2518
  857MOL0     C18170  14.136   6.600   8.667  0.3602 -0.3564  0.0356
  857MOL0     C18171  14.184   6.738   8.663  0.2447 -0.4963  0.5072
  857MOL0     C18172  14.322   6.756   8.733 -0.1450  1.6403  0.3497
  857MOL0    Cl18173  14.438   6.633   8.690  0.5194 -0.0223 -0.0554
  857MOL0     C18174  13.562   6.073   8.275 -0.2479  0.1998 -0.0859
  857MOL0     C18175  13.439   6.032   8.227  1.0242  0.3228  0.1833
  857MOL0     O18176  13.187   6.242   8.036 -0.4657 -0.3630 -0.1417
  857MOL0     C18177  12.964   5.976   8.088  0.5363 -0.3204 -0.3158
  857MOL0     C18178  12.828   5.933   8.075 -0.1961  0.0980 -0.3033
  857MOL0     N18179  12.059   6.310   8.364 -1.9228  0.1368  0.1193
  857MOL0     N18180  11.945   6.314   8.420 -0.4805  0.1780  0.4147
  857MOL0     C18181  11.027   5.540   8.732 -0.1054 -0.5501 -0.1865
  857MOL0     C18182  10.980   5.503   8.852 -1.0799 -0.0422 -0.2948
  857MOL0     C18183  10.786   5.267   9.165 -0.0978  0.6401  0.1239
  857MOL0     C18184  10.677   5.340   9.216 -0.3218 -0.2341  0.3277
  857MOL0     C18185  10.593   5.288   9.320 -0.2190  0.0770 -0.4781
  857MOL0     C18186  10.627   5.165   9.372  0.7941 -0.0450  0.6609
  857MOL0     O18187  10.544   5.094   9.457 -0.4017  0.1550 -0.3374
  857MOL0     C18188  10.417   5.150   9.496 -0.2597 -1.0698 -0.9243
  857MOL0     C18189  10.301   5.182   9.385 -0.5382  0.4305 -0.3208
  857MOL0     C18190  10.204   5.059   9.357  0.5702 -0.5470  0.2706
  857MOL0     C18191  10.061   5.093   9.351 -0.1294  0.6550  0.8075
  857MOL0     C18192  10.020   5.166   9.231 -0.2003  0.4178 -0.4063
  857MOL0     C18193  10.015   5.222   9.123  0.2846  0.1844 -0.1257
  857MOL0     C18194  10.743   5.108   9.344 -1.0021  0.1701 -0.9060
  857MOL0     C18195  10.834   5.149   9.242  0.0085  0.3654 -0.5718
  857MOL0     C18196  10.964   5.073   9.215  0.6985 -0.1459 -0.1848
  857MOL0     H18197  10.668   5.405   8.775  0.4796 -1.1661  0.7018
  857MOL0     H18198  10.745   5.491   8.549  0.6256  2.8641  0.4246
  857MOL0     H18199  11.138   5.582   8.350 -0.7845 -2.7498 -0.2504
  857MOL0     H18200  11.178   5.523   8.506 -0.9317  0.5384  0.5566
  857MOL0     H18201  11.089   5.796   8.431 -0.3877 -1.0842 -1.1793
  857MOL0     H18202  11.150   5.751   8.597  2.0378 -0.8852  0.4825
  857MOL0     H18203  11.385   5.711   8.494 -1.4359  0.7170  2.6019
  857MOL0     H18204  11.313   5.746   8.339  1.7398  1.5648  0.3103
  857MOL0     H18205  11.278   5.970   8.407  0.8035 -1.7290 -0.4318
  857MOL0     H18206  11.337   5.947   8.571  1.7223  1.3221  0.1297
  857MOL0     H18207  11.523   5.907   8.336  1.8652 -0.6943  1.6385
  857MOL0     H18208  11.548   5.906   8.503  1.1474  0.4944 -0.2306
  857MOL0     H18209  11.473   6.160   8.338 -1.9734 -1.8060 -0.7992
  857MOL0     H18210  11.486   6.156   8.518  3.3106  5.3023 -0.1526
  857MOL0     H18211  11.731   6.041   8.388  2.1660  0.6691  1.5620
  857MOL0     H18212  11.698   6.143   8.527  1.0062 -1.3972 -0.2771
  857MOL0     H18213  11.667   6.244   8.244  0.8368 -0.3408  0.0110
  857MOL0     H18214  11.676   6.330   8.404  2.3778  1.4199 -0.3414
  857MOL0     H18215  11.862   6.177   8.129 -2.8870 -2.5467  3.0619
  857MOL0     H18216  12.182   6.321   8.087  0.5260 -1.2450 -1.3271
  857MOL0     H18217  12.131   6.154   8.071  0.4636 -0.0674 -0.3332
  857MOL0     H18218  12.319   6.274   8.283 -3.3323  2.9568 -1.3637
  857MOL0     H18219  12.255   6.110   8.286  1.1866  0.1202  1.3508
  857MOL0     H18220  12.345   6.091   8.033 -1.4258  3.5941 -0.6297
  857MOL0     H18221  12.433   6.239   8.060  0.2079  0.7377  1.3576
  857MOL0     H18222  12.560   6.147   8.247 -0.9850  2.5516 -1.5608
  857MOL0     H18223  12.467   6.000   8.258  2.8389 -2.1142 -0.7365
  857MOL0     H18224  12.691   6.247   8.120 -1.0861 -0.9356 -0.3757
  857MOL0     H18225  12.835   6.408   8.167 -0.0300  0.5405 -0.8586
  857MOL0     H18226  12.942   6.416   8.023 -2.3774  1.3133 -0.1852
  857MOL0     H18227  12.996   6.383   8.191  2.0972 -1.5315 -1.8470
  857MOL0     H18228  13.285   6.335   8.276 -0.4242  0.1666 -0.4799
  857MOL0     H18229  13.512   6.394   8.358 -2.2344  1.5138 -0.6347
  857MOL0     H18230  13.732   6.431   8.342 -1.7762  0.1800  0.1945
  857MOL0     H18231  13.724   6.369   8.516 -0.3675  1.5841 -0.0565
  857MOL0     H18232  13.928   6.306   8.526 -0.1807  0.4403  0.2081
  857MOL0     H18233  13.943   6.281   8.350 -2.1686  0.0175 -0.1574
  857MOL0     H18234  13.967   6.519   8.310  2.8225  0.4752 -0.7103
  857MOL0     H18235  14.093   6.467   8.423 -0.4451 -1.2394  0.8949
  857MOL0     H18236  13.835   6.624   8.488 -0.3214 -0.2205  2.1425
  857MOL0     H18237  13.996   6.691   8.462 -0.1093 -1.3665 -1.3023
  857MOL0     H18238  13.935   6.649   8.712  1.8878 -0.0729  1.2670
  857MOL0     H18239  13.953   6.477   8.668 -0.6554 -0.8185 -2.2491
  857MOL0     H18240  14.196   6.550   8.591  2.7896  1.5184  0.5757
  857MOL0     H18241  14.176   6.562   8.762  3.8072  2.2549 -0.1548
  857MOL0     H18242  14.112   6.815   8.690  2.4079  1.8913 -0.0791
  857MOL0     H18243  14.203   6.758   8.557  2.4452 -0.1433  0.9202
  857MOL0     H18244  14.301   6.747   8.840 -0.0899  0.9057  0.3058
  857MOL0     H18245  14.359   6.854   8.704  1.6811  0.9702  0.2943
  857MOL0     H18246  13.641   5.999   8.283 -0.5414 -0.0203  0.8944
  857MOL0     H18247  13.422   5.931   8.194 -2.4156  1.0814 -0.7528
  857MOL0     H18248  13.038   5.897   8.098 -1.1715 -1.8226  1.1227
  857MOL0     H18249  12.800   5.828   8.077  0.0079  0.0077 -1.4042
  857MOL0     H18250  11.131   5.570   8.723 -0.2490 -0.5260 -2.2007
  857MOL0     H18251  11.035   5.516   8.944 -0.9946 -1.7982 -0.0686
  857MOL0     H18252  10.639   5.422   9.156  0.0110 -1.6687 -1.9487
  857MOL0     H18253  10.512   5.351   9.357 -0.1718  0.0644 -0.3505
  857MOL0     H18254  10.377   5.081   9.570  0.6967 -0.9807 -0.3150
  857MOL0     H18255  10.439   5.246   9.544 -0.0483 -0.8314 -1.4855
  857MOL0     H18256  10.362   5.204   9.296  0.4734 -3.4895 -0.7983
  857MOL0     H18257  10.242   5.269   9.415 -1.4510  0.1593 -1.2763
  857MOL0     H18258  10.218   5.005   9.263 -0.8994 -2.9435  1.3572
  857MOL0     H18259  10.206   4.987   9.438  1.1021 -1.1805 -0.2984
  857MOL0     H18260  10.037   5.155   9.438  1.5279 -0.5157  2.1645
  857MOL0     H18261  10.001   5.003   9.363  0.7171  0.0011  0.1879
  857MOL0     H18262  10.021   5.253   9.021 -1.8130 -0.6554 -0.5597
  857MOL0     H18263  10.774   5.028   9.410  0.6194  1.3977 -0.0844
  857MOL0     H18264  10.977   5.005   9.300  0.3089 -0.9499 -0.7552
  857MOL0     H18265  10.976   5.023   9.119  4.7363 -0.5124  0.3214
  857MOL0     H18266  11.045   5.147   9.214  2.1628 -1.6523  1.2775
  858MOL0     O18267   0.747   0.823   4.058 -0.1529 -0.5776  0.1724
  858MOL0     C18268   0.672   0.750   4.126  0.4497 -0.4927  0.1413
  858MOL0     O18269   0.716   0.654   4.223  0.7995  0.4048  0.0617
  858MOL0     C18270   0.845   0.665   4.256 -0.5994  0.1758 -0.9334
  858MOL0     C18271   0.896   0.777   4.328  0.0948 -0.3319  0.4535
  858MOL0     C18272   1.033   0.790   4.360  0.5550 -0.2268 -0.7542
  858MOL0     C18273   1.119   0.688   4.333 -0.1658  0.0744 -0.6263
  858MOL0     O18274   1.255   0.695   4.371 -0.6224  0.4300 -0.2845
  858MOL0     C18275   1.306   0.828   4.374  0.2827  0.1188 -0.0292
  858MOL0     C18276   1.453   0.818   4.382  0.4190  1.0005 -0.1477
  858MOL0     C18277   1.515   0.940   4.427 -0.5419  0.5938 -0.6426
  858MOL0     C18278   1.665   0.946   4.398  0.3651  0.2785 -0.0788
  858MOL0     C18279   1.721   1.080   4.456  0.2964  0.6910  0.0142
  858MOL0     C18280   1.868   1.107   4.443 -0.5245 -0.7326  0.1225
  858MOL0     C18281   1.945   1.023   4.549 -0.3076 -0.7710  0.4685
  858MOL0     C18282   2.079   1.082   4.556  0.3564  0.1497  0.0096
  858MOL0     N18283   2.145   1.007   4.671 -0.1467  0.0153  0.6378
  858MOL0     C18284   2.201   0.886   4.664  0.0661 -0.0624 -0.0897
  858MOL0     C18285   2.267   0.863   4.781 -0.0188  0.5688 -0.1778
  858MOL0     C18286   2.353   0.744   4.821 -0.2324  0.2048  0.2664
  858MOL0     C18287   2.369   0.727   4.978  0.3944  0.3664 -0.0582
  858MOL0     C18288   2.426   0.595   5.002 -0.1885  0.2000 -0.4588
  858MOL0     C18289   2.443   0.561   5.155  0.3767 -0.3337 -0.8610
  858MOL0     O18290   2.496   0.681   5.222 -0.0177  0.2606 -0.8298
  858MOL0     C18291   2.628   0.699   5.233  0.2959 -0.0619  0.3595
  858MOL0     C18292   2.735   0.617   5.188  0.4424  0.8445 -1.0546
  858MOL0     C18293   2.862   0.658   5.184 -0.2709 -0.2876 -0.5065
  858MOL0     C18294   2.971   0.570   5.130 -0.2383  0.6197  0.0687
  858MOL0     C18295   2.890   0.777   5.249  0.3261  0.5990 -0.2395
  858MOL0     C18296   3.021   0.843   5.253 -0.4945  0.0294  0.1402
  858MOL0     O18297   3.135   0.769   5.242 -0.4062 -0.4582 -0.0431
  858MOL0     C18298   3.258   0.843   5.265 -0.5674  0.5950 -0.5024
  858MOL0     C18299   3.299   0.956   5.198 -0.1186 -0.7530  0.7307
  858MOL0     C18300   3.424   1.012   5.213 -0.0658 -0.1770 -0.3279
  858MOL0     C18301   3.522   0.966   5.306  0.4351 -0.5861  0.3199
  858MOL0     O18302   3.633   1.045   5.334  0.0146 -0.0227  1.2703
  858MOL0     C18303   3.744   1.001   5.409  0.6795 -0.2747 -0.2000
  858MOL0     C18304   3.827   0.891   5.340  0.2109 -0.8118 -0.3391
  858MOL0     C18305   3.961   0.857   5.411  0.0084  0.1824 -0.9664
  858MOL0     C18306   4.030   0.737   5.350  0.1350  0.4117  0.2007
  858MOL0     C18307   4.181   0.734   5.389  0.3333  0.1641  1.1128
  858MOL0     C18308   4.209   0.691   5.533 -0.2412 -0.9013  0.1860
  858MOL0     C18309   4.350   0.728   5.587 -1.0226  0.0961  1.2720
  858MOL0     C18310   4.420   0.596   5.624  0.7009  0.3389 -0.2445
  858MOL0    Cl18311   4.582   0.642   5.681  0.2300 -0.8262 -0.2276
  858MOL0     C18312   3.491   0.845   5.370 -0.5658 -0.0235  0.2097
  858MOL0     C18313   3.364   0.783   5.348  0.1896 -0.5954 -0.4855
  858MOL0     O18314   3.019   0.966   5.263  0.6032  1.1310  0.5317
  858MOL0     C18315   2.796   0.856   5.313  0.3103 -0.2139  0.3259
  858MOL0     C18316   2.662   0.812   5.298  0.2725  0.0107  0.2194
  858MOL0     N18317   2.243   0.971   4.860 -1.1971 -0.4142 -0.1102
  858MOL0     N18318   2.178   1.055   4.794 -0.4823  0.2373  0.5688
  858MOL0     C18319   1.073   0.575   4.266  0.2741 -0.2239  0.9651
  858MOL0     C18320   0.941   0.571   4.221  0.1749 -0.0374 -0.1814
  858MOL0     C18321   0.521   0.764   4.102 -0.4387  0.0234  0.8808
  858MOL0     C18322   0.444   0.647   4.120  0.0288  0.2065  0.1137
  858MOL0     C18323   0.306   0.640   4.104 -0.1058 -0.6958  0.6974
  858MOL0     C18324   0.239   0.759   4.062  0.7594  0.4107  0.5225
  858MOL0     O18325   0.104   0.744   4.033  0.4396 -0.1809 -0.0229
  858MOL0     C18326   0.012   0.854   4.031 -0.5296  0.0881  0.2575
  858MOL0     C18327  -0.036   0.871   3.887 -0.4124  0.2255 -0.6492
  858MOL0     C18328  -0.116   0.996   3.890 -0.4162 -0.3404  0.1442
  858MOL0     C18329  -0.186   1.026   3.750 -0.2806 -0.9943 -0.2461
  858MOL0     C18330  -0.311   0.955   3.756 -0.4320 -0.5045 -0.6070
  858MOL0     C18331  -0.405   0.882   3.747 -0.7024 -0.2051 -0.6262
  858MOL0     C18332   0.311   0.876   4.043  0.2883  0.0311 -0.1176
  858MOL0     C18333   0.451   0.879   4.058  0.1431 -0.6713  0.0630
  858MOL0     C18334   0.525   1.005   4.041  0.0945 -0.2886 -0.2866
  858MOL0     H18335   0.829   0.850   4.373  0.3096 -0.9966  1.9001
  858MOL0     H18336   1.058   0.885   4.406 -0.1008  0.0775 -1.0070
  858MOL0     H18337   1.278   0.874   4.469 -0.5105 -0.2534 -0.0732
  858MOL0     H18338   1.276   0.910   4.308  1.8862  0.7082 -0.0654
  858MOL0     H18339   1.478   0.744   4.459  0.5947  1.4289  0.2147
  858MOL0     H18340   1.497   0.785   4.288  2.7422  2.9518  0.1449
  858MOL0     H18341   1.463   1.024   4.381 -1.5472 -0.9434 -2.4667
  858MOL0     H18342   1.504   0.956   4.534 -2.4905  2.1451 -1.0225
  858MOL0     H18343   1.712   0.853   4.433  1.5706  1.2347  0.8978
  858MOL0     H18344   1.686   0.959   4.291  2.3271 -1.0596  0.0768
  858MOL0     H18345   1.688   1.084   4.561  0.3549  1.6744  0.0041
  858MOL0     H18346   1.664   1.158   4.405 -2.9011 -0.8978  0.8354
  858MOL0     H18347   1.912   1.103   4.343 -1.2454  2.7161 -0.4773
  858MOL0     H18348   1.879   1.214   4.466  0.9262 -0.6533 -0.7999
  858MOL0     H18349   1.938   0.916   4.530 -0.1902 -0.9219  1.2742
  858MOL0     H18350   1.912   1.032   4.653  0.4654  0.2015  0.6451
  858MOL0     H18351   2.139   1.063   4.467  2.8217 -2.3227  2.0073
  858MOL0     H18352   2.087   1.190   4.575  3.4009 -0.0151  0.2402
  858MOL0     H18353   2.191   0.823   4.575 -0.1475  0.5843 -0.5337
  858MOL0     H18354   2.450   0.764   4.774 -0.1841  1.1944  0.7663
  858MOL0     H18355   2.312   0.655   4.773 -1.0019  0.1506  1.0013
  858MOL0     H18356   2.421   0.811   5.023  1.0501  0.1647 -0.4235
  858MOL0     H18357   2.267   0.731   5.018  0.2843 -3.5964  0.4394
  858MOL0     H18358   2.350   0.529   4.961  0.6850 -2.4820  1.9481
  858MOL0     H18359   2.525   0.578   4.956  0.1864  1.2837 -0.0847
  858MOL0     H18360   2.345   0.529   5.192  0.9819 -2.6404 -1.1124
  858MOL0     H18361   2.502   0.473   5.183 -0.6542 -0.6048  0.5726
  858MOL0     H18362   2.714   0.519   5.147  1.0102  0.2581  0.0164
  858MOL0     H18363   3.045   0.534   5.203  1.1504 -0.7792 -1.9016
  858MOL0     H18364   3.013   0.626   5.045 -2.9996  0.8785 -1.2468
  858MOL0     H18365   2.935   0.477   5.084  2.4600 -0.6010  0.2201
  858MOL0     H18366   3.242   1.011   5.124  2.6143 -0.4555 -1.3282
  858MOL0     H18367   3.435   1.102   5.154 -0.4977  0.2220  0.1847
  858MOL0     H18368   3.813   1.083   5.426 -0.2380  0.7210 -1.1071
  858MOL0     H18369   3.714   0.956   5.504  0.8973 -2.7077 -1.2134
  858MOL0     H18370   3.768   0.800   5.325  1.5812 -1.5745 -1.2590
  858MOL0     H18371   3.857   0.925   5.241 -1.6861  0.6163 -0.4804
  858MOL0     H18372   3.935   0.829   5.514 -4.3249 -0.5802 -2.0814
  858MOL0     H18373   4.035   0.938   5.413  2.0621 -1.5659  1.4117
  858MOL0     H18374   4.022   0.737   5.241  0.2857  3.1433  0.1348
  858MOL0     H18375   3.977   0.648   5.385  0.6099 -0.0889 -0.3240
  858MOL0     H18376   4.234   0.671   5.317 -2.3419 -0.4953 -0.4308
  858MOL0     H18377   4.216   0.836   5.371  1.5342 -0.3036  0.7178
  858MOL0     H18378   4.191   0.583   5.534 -0.7319 -0.8185  1.1767
  858MOL0     H18379   4.140   0.734   5.605  1.7843 -1.4777  2.6063
  858MOL0     H18380   4.366   0.798   5.670 -1.6384 -0.4563  1.8617
  858MOL0     H18381   4.399   0.777   5.502 -0.9634 -0.6052  0.8958
  858MOL0     H18382   4.420   0.525   5.541 -0.0855  2.2914 -2.0104
  858MOL0     H18383   4.361   0.548   5.703 -1.2496  0.3549 -1.6215
  858MOL0     H18384   3.563   0.793   5.432 -1.1938  0.6790  1.5812
  858MOL0     H18385   3.355   0.683   5.388  1.4652 -0.0652  1.2582
  858MOL0     H18386   2.816   0.947   5.368  1.5728  1.2932 -2.4295
  858MOL0     H18387   2.593   0.871   5.358  1.8498 -0.9521  3.2137
  858MOL0     H18388   1.133   0.493   4.227 -2.5357 -1.6544 -0.6868
  858MOL0     H18389   0.897   0.484   4.174  0.3972 -1.2950  1.8140
  858MOL0     H18390   0.500   0.559   4.150  0.0264  0.6601  1.5330
  858MOL0     H18391   0.249   0.555   4.140 -0.4628  0.2731  2.5755
  858MOL0     H18392  -0.075   0.825   4.091  0.3833  0.5325  1.8656
  858MOL0     H18393   0.038   0.953   4.072 -1.3726  0.6896 -0.6158
  858MOL0     H18394  -0.074   0.775   3.853  0.2736 -1.1902  2.2505
  858MOL0     H18395   0.051   0.901   3.828  0.4474  1.0627  0.9617
  858MOL0     H18396  -0.183   0.999   3.976  2.3042  0.2428  2.4077
  858MOL0     H18397  -0.051   1.082   3.907 -1.2718  0.2210  0.6004
  858MOL0     H18398  -0.121   0.979   3.675  3.1142 -0.3530  2.0555
  858MOL0     H18399  -0.191   1.132   3.724  5.4464 -0.3278  0.1490
  858MOL0     H18400  -0.487   0.815   3.731 -0.0966 -0.6253 -2.1511
  858MOL0     H18401   0.259   0.965   4.008 -0.7342 -0.4142  0.2325
  858MOL0     H18402   0.581   1.030   4.131 -0.5540 -0.0351  0.0510
  858MOL0     H18403   0.589   1.008   3.952  2.5530  4.5421  1.3358
  858MOL0     H18404   0.453   1.088   4.038 -1.2436 -1.3522  0.8489
  859MOL0     O18405   1.708   2.078   8.972 -0.4670  0.8260  0.8980
  859MOL0     C18406   1.703   2.197   9.005  0.4562 -0.1646  0.7801
  859MOL0     O18407   1.807   2.268   9.035  0.0322 -0.4497  0.2776
  859MOL0     C18408   1.932   2.211   9.034  0.2412  0.7204  0.2759
  859MOL0     C18409   1.976   2.161   8.909 -0.2302 -0.0872 -0.6141
  859MOL0     C18410   2.104   2.092   8.904  0.2128 -0.3519 -0.8195
  859MOL0     C18411   2.181   2.081   9.016 -0.1528  0.2415 -0.0528
  859MOL0     O18412   2.292   1.998   8.995  0.2931  0.3588 -0.0126
  859MOL0     C18413   2.384   1.991   9.103  0.4900 -0.8977 -0.0940
  859MOL0     C18414   2.507   1.910   9.059  0.5565  0.1213 -1.0942
  859MOL0     C18415   2.621   1.924   9.150  0.2983  0.4797 -0.0634
  859MOL0     C18416   2.736   1.851   9.083 -0.3784  0.1994 -0.2526
  859MOL0     C18417   2.837   1.802   9.185  0.0725 -0.8155 -0.8173
  859MOL0     C18418   2.950   1.718   9.114  0.4748  0.3002  0.0702
  859MOL0     C18419   2.906   1.590   9.040 -0.1241 -0.3957 -0.7954
  859MOL0     C18420   3.012   1.521   8.949  0.0108 -0.8915 -1.1300
  859MOL0     N18421   2.983   1.380   8.936  0.5125  0.5382 -0.2470
  859MOL0     C18422   3.062   1.279   8.978 -0.5629 -0.8723 -0.5961
  859MOL0     C18423   3.006   1.162   8.937  0.0330  0.3927  0.3778
  859MOL0     C18424   3.049   1.019   8.960  0.2452  0.5839 -0.1846
  859MOL0     C18425   3.044   0.976   9.106 -0.9254  0.0844 -0.5706
  859MOL0     C18426   2.916   1.004   9.185  0.0384 -0.2459  0.9118
  859MOL0     C18427   2.781   0.980   9.129 -0.7375  0.1922  0.2852
  859MOL0     O18428   2.671   1.015   9.218  0.7818 -0.2209 -0.0590
  859MOL0     C18429   2.621   1.144   9.233 -0.0666  0.5220  0.7333
  859MOL0     C18430   2.617   1.248   9.136 -0.6536 -0.3558 -0.8955
  859MOL0     C18431   2.551   1.372   9.166  0.6088 -0.1276  0.0741
  859MOL0     C18432   2.535   1.471   9.053  0.5737  1.0610  0.0389
  859MOL0     C18433   2.481   1.395   9.288 -0.3780 -0.5253  0.3121
  859MOL0     C18434   2.409   1.523   9.317  0.4584  0.2381  0.8108
  859MOL0     O18435   2.281   1.507   9.364 -0.6805 -0.2053  0.6930
  859MOL0     C18436   2.190   1.599   9.377  0.0995  0.1764 -0.3067
  859MOL0     C18437   2.188   1.721   9.305 -0.4184 -0.0916  1.1299
  859MOL0     C18438   2.076   1.807   9.299  1.0167  0.2078  1.0176
  859MOL0     C18439   1.967   1.779   9.383  0.4805  0.6983  0.9027
  859MOL0     O18440   1.850   1.850   9.397 -0.3735 -0.0510  0.5769
  859MOL0     C18441   1.845   1.984   9.348  0.3689 -0.0896  0.4493
  859MOL0     C18442   1.718   2.058   9.393 -0.0002  0.1903  0.2884
  859MOL0     C18443   1.594   2.008   9.327 -0.2490  0.6452 -0.3417
  859MOL0     C18444   1.469   2.092   9.367 -0.0158 -0.3096  0.5628
  859MOL0     C18445   1.343   2.048   9.296 -0.0043  0.5596  0.2563
  859MOL0     C18446   1.227   2.133   9.357 -0.1350 -0.5552 -0.0618
  859MOL0     C18447   1.096   2.043   9.357 -0.7698 -1.0795 -0.1900
  859MOL0     C18448   0.968   2.113   9.405 -0.0988  0.6817  0.3324
  859MOL0    Cl18449   0.965   2.104   9.587  0.0348  0.4257  0.1531
  859MOL0     C18450   1.972   1.666   9.461  0.6441 -0.3514 -1.0394
  859MOL0     C18451   2.079   1.577   9.458  0.1476  0.1897  0.5125
  859MOL0     O18452   2.464   1.626   9.287  0.0399 -0.6582  0.7577
  859MOL0     C18453   2.486   1.292   9.379 -0.2139 -0.1573 -0.3202
  859MOL0     C18454   2.546   1.166   9.346 -0.3582  0.0924 -0.5482
  859MOL0     N18455   2.890   1.199   8.872 -0.2579  0.2567  0.1909
  859MOL0     N18456   2.873   1.328   8.876  0.1530 -0.0767  0.4710
  859MOL0     C18457   2.134   2.132   9.136 -0.3807  0.2904 -0.2792
  859MOL0     C18458   2.012   2.195   9.147 -0.3832 -0.1919 -0.6362
  859MOL0     C18459   1.566   2.244   9.026  0.2833 -0.1621  0.5603
  859MOL0     C18460   1.455   2.162   8.971 -0.4525  0.5632 -0.2395
  859MOL0     C18461   1.323   2.200   8.974  0.1759  0.5656  0.7424
  859MOL0     C18462   1.290   2.322   9.043  0.0573  0.4081 -0.9020
  859MOL0     O18463   1.163   2.361   9.065  0.2065  0.4804  0.0469
  859MOL0     C18464   1.055   2.316   8.987  0.5480 -0.1957  0.7059
  859MOL0     C18465   0.936   2.343   9.083  1.2919  0.7855  0.4516
  859MOL0     C18466   0.794   2.316   9.008 -0.4406  0.5005  0.1426
  859MOL0     C18467   0.781   2.402   8.882  0.1793  1.0772  0.1017
  859MOL0     C18468   0.643   2.413   8.834  0.4616 -0.5331  0.1237
  859MOL0     C18469   0.529   2.429   8.793 -0.1964 -0.3062  0.5172
  859MOL0     C18470   1.388   2.386   9.114 -0.0401 -1.0729  0.1897
  859MOL0     C18471   1.528   2.360   9.097  0.1823  0.8992  0.4292
  859MOL0     C18472   1.637   2.460   9.143 -0.0759  0.0004 -0.4091
  859MOL0     H18473   1.904   2.156   8.827  0.5518 -1.3031 -1.2565
  859MOL0     H18474   2.119   2.035   8.813 -2.6043 -2.9478  0.1664
  859MOL0     H18475   2.332   1.951   9.191 -2.3836  3.2430  0.3517
  859MOL0     H18476   2.406   2.091   9.139 -0.3929 -1.1667  1.2717
  859MOL0     H18477   2.488   1.806   9.031 -1.9716  0.6310 -1.5731
  859MOL0     H18478   2.526   1.947   8.957 -1.9889 -0.1428 -1.7535
  859MOL0     H18479   2.644   2.030   9.164  1.3301  0.2375  0.1232
  859MOL0     H18480   2.589   1.873   9.241 -2.2449 -1.9293 -2.1204
  859MOL0     H18481   2.699   1.758   9.037  0.3290 -0.6461  0.8285
  859MOL0     H18482   2.796   1.898   9.004 -0.8021 -1.0497 -1.3688
  859MOL0     H18483   2.777   1.754   9.263 -2.7747  1.1243 -1.6233
  859MOL0     H18484   2.869   1.885   9.249 -1.5893 -1.9823  1.6826
  859MOL0     H18485   2.999   1.785   9.043  1.2726 -0.9518 -0.6052
  859MOL0     H18486   3.023   1.681   9.186  0.1534  0.0774  0.2865
  859MOL0     H18487   2.821   1.609   8.974  0.8926  2.5676 -1.3918
  859MOL0     H18488   2.873   1.518   9.116  2.4666  0.5316  1.3420
  859MOL0     H18489   3.019   1.572   8.852  1.5121  1.4416  0.1016
  859MOL0     H18490   3.113   1.528   8.990 -0.6200 -0.3691  0.4178
  859MOL0     H18491   3.144   1.294   9.047 -1.6503  3.7165  0.0604
  859MOL0     H18492   3.155   1.021   8.932  0.5765  2.7968  1.0306
  859MOL0     H18493   2.980   0.966   8.894  0.6598 -1.5056  0.9394
  859MOL0     H18494   3.051   0.866   9.106 -3.6191 -0.1603 -0.4786
  859MOL0     H18495   3.128   1.020   9.159 -0.1962  0.6855 -2.1443
  859MOL0     H18496   2.927   0.938   9.271 -1.1314  0.9642  2.0482
  859MOL0     H18497   2.919   1.109   9.218 -1.3021  0.0610  0.1652
  859MOL0     H18498   2.768   1.038   9.037  0.4902 -1.0567 -0.7252
  859MOL0     H18499   2.769   0.882   9.082  4.1675  0.3688 -2.0214
  859MOL0     H18500   2.652   1.241   9.033 -0.8166  0.3958 -1.0098
  859MOL0     H18501   2.611   1.549   9.071  3.0669  0.0079 -4.3768
  859MOL0     H18502   2.439   1.521   9.040  0.1296  0.3807  0.6402
  859MOL0     H18503   2.568   1.427   8.959  0.7420  0.8977  0.1745
  859MOL0     H18504   2.273   1.738   9.239  0.4205 -1.0907  1.9186
  859MOL0     H18505   2.075   1.899   9.243 -1.1947 -1.2513 -1.5764
  859MOL0     H18506   1.936   2.028   9.392  1.2383 -1.5582  0.1632
  859MOL0     H18507   1.848   1.984   9.239  0.6041 -0.5257  0.4548
  859MOL0     H18508   1.710   2.051   9.502  3.4317 -0.2975  0.6038
  859MOL0     H18509   1.730   2.164   9.368  1.5456  0.6187  2.5284
  859MOL0     H18510   1.579   1.905   9.361  0.6524  0.8927  0.8723
  859MOL0     H18511   1.605   2.010   9.218 -1.5814 -0.4823 -0.5319
  859MOL0     H18512   1.488   2.197   9.344 -4.2439  0.2597 -1.4166
  859MOL0     H18513   1.459   2.086   9.476  2.8371  1.3654  1.0105
  859MOL0     H18514   1.361   2.058   9.189  2.0653  1.0257  0.5963
  859MOL0     H18515   1.326   1.942   9.317  1.8954 -0.3472 -2.2603
  859MOL0     H18516   1.220   2.232   9.312 -0.3197 -0.5695 -0.0643
  859MOL0     H18517   1.235   2.136   9.466  1.3239  2.8497 -0.1516
  859MOL0     H18518   1.118   1.948   9.405  0.5200 -1.4197 -1.3744
  859MOL0     H18519   1.073   2.014   9.254  0.2053  1.3418 -1.1680
  859MOL0     H18520   0.882   2.058   9.366 -1.8419  1.6993  2.4919
  859MOL0     H18521   0.968   2.216   9.369 -0.9408  0.0810 -1.4878
  859MOL0     H18522   1.884   1.630   9.513  1.0591 -3.5515 -2.3548
  859MOL0     H18523   2.078   1.490   9.523  1.8524  0.9559  1.6505
  859MOL0     H18524   2.420   1.298   9.465 -1.7875  1.2502 -1.5689
  859MOL0     H18525   2.526   1.084   9.414  0.4308  0.8328  0.6316
  859MOL0     H18526   2.194   2.118   9.225 -1.1157 -2.4461 -0.1188
  859MOL0     H18527   1.978   2.242   9.238  2.8761  0.2275  0.4634
  859MOL0     H18528   1.472   2.068   8.919  1.6788 -1.0353  2.9884
  859MOL0     H18529   1.248   2.141   8.923  0.8523  2.4503 -2.6704
  859MOL0     H18530   1.046   2.361   8.888  1.6044 -4.2827 -1.4642
  859MOL0     H18531   1.053   2.209   8.964  2.5464  0.1306 -1.2562
  859MOL0     H18532   0.944   2.449   9.107 -2.4601  1.6841 -1.4553
  859MOL0     H18533   0.945   2.277   9.170 -0.5668  1.7325  1.4319
  859MOL0     H18534   0.782   2.210   8.980 -1.2459  1.0044 -1.5644
  859MOL0     H18535   0.713   2.340   9.077  0.2884 -1.9378  1.9992
  859MOL0     H18536   0.837   2.355   8.801 -0.3707  0.6459 -0.0394
  859MOL0     H18537   0.830   2.498   8.897  2.0434  0.4669 -1.6561
  859MOL0     H18538   0.432   2.443   8.749  0.8996 -0.9983 -2.3876
  859MOL0     H18539   1.364   2.453   9.196 -1.9568 -2.5778  0.9454
  859MOL0     H18540   1.707   2.482   9.061 -0.4026  0.8455 -0.4689
  859MOL0     H18541   1.602   2.556   9.182  1.4192  1.2848 -2.0131
  859MOL0     H18542   1.700   2.416   9.221 -1.9583  0.1357  1.2639
  860MOL0     O18543   1.743   7.602   3.501 -0.2159 -0.2639  0.8611
  860MOL0     C18544   1.702   7.660   3.604  0.1209  0.3576 -0.0701
  860MOL0     O18545   1.785   7.720   3.695 -0.5382 -0.6802 -0.1053
  860MOL0     C18546   1.919   7.702   3.661 -0.5426 -1.3870 -0.8523
  860MOL0     C18547   1.968   7.774   3.554  0.0466  0.4305 -0.0197
  860MOL0     C18548   2.101   7.770   3.516 -0.3323  0.3223  0.6078
  860MOL0     C18549   2.201   7.717   3.596  0.0190 -0.1257 -0.3337
  860MOL0     O18550   2.330   7.748   3.563  1.2637 -0.0012 -0.3388
  860MOL0     C18551   2.429   7.754   3.670 -0.4403 -0.0548  0.9826
  860MOL0     C18552   2.511   7.889   3.689  0.8494  0.1836 -0.1378
  860MOL0     C18553   2.633   7.863   3.783 -0.6399 -0.6155 -0.2885
  860MOL0     C18554   2.707   7.997   3.799 -0.0914  0.6257  0.3513
  860MOL0     C18555   2.860   7.984   3.757  0.0566 -0.4467 -0.7305
  860MOL0     C18556   2.918   8.118   3.773  0.4658  0.1713  0.5478
  860MOL0     C18557   3.026   8.139   3.665  0.2114 -0.4394  0.3731
  860MOL0     C18558   3.150   8.060   3.681 -0.7728 -0.1181  0.4190
  860MOL0     N18559   3.224   8.087   3.806  0.9040 -0.1883 -0.1362
  860MOL0     C18560   3.310   8.190   3.827 -0.7572  0.7163  0.0070
  860MOL0     C18561   3.359   8.168   3.953 -1.3589 -0.1522  0.2848
  860MOL0     C18562   3.462   8.252   4.033 -0.8359 -0.3102 -0.5040
  860MOL0     C18563   3.589   8.275   3.953  0.4888 -0.4477 -0.3200
  860MOL0     C18564   3.679   8.152   3.954 -0.6666 -0.2096  0.2714
  860MOL0     C18565   3.800   8.198   3.872 -0.6140 -0.1947  0.5910
  860MOL0     O18566   3.879   8.309   3.932  0.5015  0.5568  0.3095
  860MOL0     C18567   3.974   8.371   3.854  0.0734 -0.1764 -0.1529
  860MOL0     C18568   4.013   8.324   3.728  0.0742 -0.4984  0.2561
  860MOL0     C18569   4.131   8.384   3.680 -0.1931  0.2569  0.5537
  860MOL0     C18570   4.171   8.331   3.541 -0.6379 -0.0919 -0.2756
  860MOL0     C18571   4.206   8.485   3.750  0.3609 -0.1152  0.6093
  860MOL0     C18572   4.321   8.556   3.698 -1.0392 -0.0228  0.6396
  860MOL0     O18573   4.404   8.604   3.798 -0.8516 -0.3573 -0.1660
  860MOL0     C18574   4.530   8.656   3.783  0.8008  0.3453  0.7327
  860MOL0     C18575   4.598   8.664   3.664  0.3390 -0.5100  0.0895
  860MOL0     C18576   4.727   8.712   3.663  0.1814  0.1305  0.2524
  860MOL0     C18577   4.791   8.751   3.785 -0.2080 -0.5248  0.2668
  860MOL0     O18578   4.910   8.823   3.784  0.2342  0.0222 -0.5108
  860MOL0     C18579   4.915   8.937   3.691 -0.1614 -0.5210 -0.0312
  860MOL0     C18580   5.045   9.020   3.716  1.0445  0.4751  0.1402
  860MOL0     C18581   5.029   9.154   3.638  0.4093 -1.1994 -0.2392
  860MOL0     C18582   5.134   9.257   3.689 -0.2762 -0.3585  0.4336
  860MOL0     C18583   5.160   9.374   3.585  0.4884 -0.4968 -0.1683
  860MOL0     C18584   5.268   9.462   3.639 -0.0258 -0.7079  0.5895
  860MOL0     C18585   5.291   9.572   3.536 -0.4104 -0.0330 -0.4426
  860MOL0     C18586   5.374   9.521   3.418 -0.1205  0.0065  0.0779
  860MOL0    Cl18587   5.547   9.535   3.482  0.2380  0.0287  0.4613
  860MOL0     C18588   4.719   8.748   3.901 -0.2664  0.0390 -0.5608
  860MOL0     C18589   4.583   8.701   3.900 -0.9514 -0.2242 -0.4593
  860MOL0     O18590   4.331   8.570   3.579 -0.1418 -0.7351  0.0333
  860MOL0     C18591   4.154   8.533   3.874 -0.4886 -0.0752  0.2448
  860MOL0     C18592   4.039   8.467   3.922  0.0888 -0.1051 -0.0447
  860MOL0     N18593   3.318   8.041   3.990 -0.0448 -0.3969 -0.3797
  860MOL0     N18594   3.238   7.998   3.908  0.4947  0.6329 -1.1379
  860MOL0     C18595   2.158   7.648   3.711 -0.1828 -0.3298  0.6150
  860MOL0     C18596   2.019   7.647   3.748  0.4775  1.1300  0.2139
  860MOL0     C18597   1.557   7.666   3.614 -0.9056  0.3226 -0.1608
  860MOL0     C18598   1.481   7.555   3.576 -0.5810 -0.0424 -0.7267
  860MOL0     C18599   1.344   7.552   3.604 -0.3056 -0.3113  0.4821
  860MOL0     C18600   1.275   7.669   3.660 -0.0264  0.0024  0.4573
  860MOL0     O18601   1.136   7.659   3.669 -0.1847 -0.0447  0.2019
  860MOL0     C18602   1.065   7.752   3.754  0.0550  0.3702 -0.2072
  860MOL0     C18603   1.088   7.742   3.907 -0.2187  0.8173 -0.0011
  860MOL0     C18604   1.050   7.603   3.953 -0.7416  0.7965 -0.3843
  860MOL0     C18605   1.069   7.587   4.105  0.2906 -0.3089  1.4471
  860MOL0     C18606   1.016   7.463   4.156 -0.3685  0.7341 -0.8486
  860MOL0     C18607   0.966   7.348   4.173 -0.2167  0.2966  0.2847
  860MOL0     C18608   1.353   7.785   3.686 -0.4031  0.8140  0.3935
  860MOL0     C18609   1.497   7.786   3.664  0.8250 -0.6781  0.2080
  860MOL0     C18610   1.567   7.909   3.696 -0.2008 -0.2105 -0.0064
  860MOL0     H18611   1.899   7.826   3.488  2.0949  0.8432 -1.9592
  860MOL0     H18612   2.137   7.834   3.436  0.4730  0.3835  1.0033
  860MOL0     H18613   2.496   7.669   3.659 -0.1563  0.1056  1.4335
  860MOL0     H18614   2.386   7.741   3.770 -1.3617  2.0839  0.9203
  860MOL0     H18615   2.555   7.926   3.596 -0.0196 -3.5254 -2.2320
  860MOL0     H18616   2.449   7.969   3.732 -1.5667 -0.7330 -1.6873
  860MOL0     H18617   2.600   7.825   3.880  1.9212 -0.8310  0.5834
  860MOL0     H18618   2.702   7.785   3.749 -2.3809 -0.7804 -3.7955
  860MOL0     H18619   2.653   8.071   3.739 -3.5048 -0.8452  1.4142
  860MOL0     H18620   2.701   8.032   3.902  0.0418  1.8237 -0.0291
  860MOL0     H18621   2.868   7.949   3.653  0.5540  3.1919 -2.0631
  860MOL0     H18622   2.915   7.911   3.818 -1.5699 -1.7450 -0.7494
  860MOL0     H18623   2.845   8.197   3.756  1.0800  0.7563  0.5876
  860MOL0     H18624   2.958   8.122   3.875 -1.7088 -1.9260  1.5996
  860MOL0     H18625   3.058   8.244   3.671 -2.9829  0.6128  1.7330
  860MOL0     H18626   2.987   8.124   3.564  1.1942 -1.2709  0.1030
  860MOL0     H18627   3.119   7.955   3.670 -1.3480  0.1632 -0.8456
  860MOL0     H18628   3.214   8.074   3.593  0.9313  0.4826  1.6909
  860MOL0     H18629   3.338   8.276   3.768  3.6667 -0.1589  0.4789
  860MOL0     H18630   3.483   8.206   4.130 -1.1602  2.8026  1.1686
  860MOL0     H18631   3.422   8.352   4.054  1.3777  0.0288  3.0032
  860MOL0     H18632   3.548   8.304   3.857  0.7815  3.3203  0.5461
  860MOL0     H18633   3.633   8.364   4.000  1.4016 -1.7058  1.3192
  860MOL0     H18634   3.721   8.127   4.052  1.3192 -1.5452 -0.8350
  860MOL0     H18635   3.636   8.056   3.924 -1.6519  0.8409 -1.8597
  860MOL0     H18636   3.864   8.111   3.860  0.4158  0.7371 -1.0815
  860MOL0     H18637   3.759   8.239   3.780 -0.0438  3.2504  1.6945
  860MOL0     H18638   3.965   8.248   3.668  1.1206  0.2884 -1.6861
  860MOL0     H18639   4.143   8.401   3.462  0.0207 -0.4524 -0.8360
  860MOL0     H18640   4.123   8.237   3.514 -3.8204  1.4296 -0.3216
  860MOL0     H18641   4.280   8.320   3.545 -0.6580  0.0984  1.4473
  860MOL0     H18642   4.562   8.625   3.569 -0.1386  1.7276 -0.7151
  860MOL0     H18643   4.784   8.718   3.570  0.8061 -0.9469  0.5533
  860MOL0     H18644   4.913   8.895   3.589  0.6487  1.7387 -1.0423
  860MOL0     H18645   4.830   9.005   3.694  0.0526 -0.3007  1.3022
  860MOL0     H18646   5.066   9.034   3.823  1.7491  1.2465 -0.0881
  860MOL0     H18647   5.133   8.971   3.674  0.1748 -0.1341 -1.0144
  860MOL0     H18648   4.933   9.206   3.650  0.2463 -1.8301  1.4715
  860MOL0     H18649   5.043   9.128   3.533 -3.1914 -1.6489 -0.7532
  860MOL0     H18650   5.230   9.208   3.709  0.4257  0.9020  0.2863
  860MOL0     H18651   5.096   9.315   3.774  1.3128  2.1614 -0.4750
  860MOL0     H18652   5.195   9.333   3.490  2.5404  0.7176 -0.0063
  860MOL0     H18653   5.063   9.418   3.558  1.6511  1.2236 -1.7954
  860MOL0     H18654   5.356   9.401   3.664  1.5438  0.3820 -1.8873
  860MOL0     H18655   5.221   9.513   3.724  0.7023  1.2326 -0.1111
  860MOL0     H18656   5.344   9.658   3.578 -2.8584  0.1441  2.6245
  860MOL0     H18657   5.192   9.603   3.503  0.6174  1.2822 -2.4492
  860MOL0     H18658   5.349   9.579   3.329  2.3248  0.5589 -0.3173
  860MOL0     H18659   5.346   9.420   3.387 -1.2678  0.7957 -1.5889
  860MOL0     H18660   4.771   8.782   3.990 -0.1685  0.2496 -0.6963
  860MOL0     H18661   4.538   8.705   3.999  3.5513  2.0002  1.8341
  860MOL0     H18662   4.193   8.616   3.931 -0.5729  1.3285 -1.6451
  860MOL0     H18663   4.001   8.506   4.015 -2.0157  1.1972 -1.3568
  860MOL0     H18664   2.237   7.604   3.770  1.4912  0.8860 -0.6471
  860MOL0     H18665   1.995   7.597   3.841 -0.2573 -1.4634 -1.2871
  860MOL0     H18666   1.535   7.463   3.553 -1.4289 -0.1003 -2.6989
  860MOL0     H18667   1.279   7.465   3.594  2.6972 -3.4736  4.8049
  860MOL0     H18668   1.097   7.850   3.718  1.0009 -0.6281 -2.2220
  860MOL0     H18669   0.960   7.725   3.736  0.0178  1.5810 -1.9781
  860MOL0     H18670   1.026   7.806   3.970 -0.9165  0.0775  0.0771
  860MOL0     H18671   1.191   7.759   3.939  1.0282 -1.9207 -2.1052
  860MOL0     H18672   0.942   7.587   3.943 -0.6142 -0.4351  0.1129
  860MOL0     H18673   1.113   7.526   3.908 -0.8205 -0.9870  2.3506
  860MOL0     H18674   1.011   7.666   4.153 -1.7045  0.0062 -1.2634
  860MOL0     H18675   1.174   7.602   4.133  0.4489 -0.0125  0.7335
  860MOL0     H18676   0.910   7.258   4.186  0.9062 -0.6488 -1.1548
  860MOL0     H18677   1.314   7.881   3.720  0.8548  2.1145 -1.6341
  860MOL0     H18678   1.513   8.002   3.676  0.7323  0.5085  0.7540
  860MOL0     H18679   1.602   7.902   3.799  0.3410 -2.1703 -0.2892
  860MOL0     H18680   1.654   7.912   3.629  0.3509  0.7365  0.7265
  861MOL0     O18681   1.233   4.199   1.412 -0.3939 -0.1924 -0.0150
  861MOL0     C18682   1.214   4.192   1.535  0.5340 -0.4143  0.6561
  861MOL0     O18683   1.310   4.172   1.628  0.2778 -0.6651 -0.2838
  861MOL0     C18684   1.437   4.167   1.584  0.1785 -0.2265  0.8118
  861MOL0     C18685   1.506   4.283   1.559 -0.8888 -0.0393 -0.8338
  861MOL0     C18686   1.636   4.277   1.509 -0.3160  0.1485 -0.1817
  861MOL0     C18687   1.703   4.159   1.495 -0.6207 -0.2715 -0.1570
  861MOL0     O18688   1.833   4.159   1.459 -0.1510 -0.0323  0.4160
  861MOL0     C18689   1.919   4.051   1.502 -0.2706  0.4268  0.1126
  861MOL0     C18690   2.047   4.110   1.573 -0.2822 -0.3506 -0.2692
  861MOL0     C18691   2.014   4.180   1.711 -0.8163 -0.0451  0.5685
  861MOL0     C18692   2.136   4.267   1.751 -0.7806 -0.5390  0.0596
  861MOL0     C18693   2.115   4.358   1.877  0.6267  0.1217  0.8374
  861MOL0     C18694   2.210   4.480   1.876 -0.0908  0.4296  0.1690
  861MOL0     C18695   2.242   4.526   2.013 -0.3347  0.2105 -0.5193
  861MOL0     C18696   2.138   4.597   2.092  1.1696 -0.2394 -0.1408
  861MOL0     N18697   2.125   4.726   2.029 -0.5479 -0.5109 -0.6718
  861MOL0     C18698   2.013   4.757   1.951  0.2234  0.4584  0.0645
  861MOL0     C18699   2.028   4.892   1.918 -0.0950 -0.2475  0.2499
  861MOL0     C18700   1.947   4.963   1.809 -0.0547  0.2958 -1.0220
  861MOL0     C18701   1.811   4.983   1.865 -0.1129 -0.1163 -0.0721
  861MOL0     C18702   1.715   5.050   1.767  0.3258  0.6916  0.0153
  861MOL0     C18703   1.575   5.086   1.820 -0.7011  0.1761 -1.1863
  861MOL0     O18704   1.500   5.136   1.712  0.3543  0.0593 -0.3496
  861MOL0     C18705   1.372   5.169   1.736 -0.9157  0.2574  0.1171
  861MOL0     C18706   1.293   5.138   1.849  0.5251  0.7983 -0.8958
  861MOL0     C18707   1.167   5.206   1.869 -1.0057  0.3923 -0.8864
  861MOL0     C18708   1.083   5.163   1.988 -0.8504 -0.1933 -0.0010
  861MOL0     C18709   1.126   5.308   1.773 -0.3295  0.1895 -0.2522
  861MOL0     C18710   0.993   5.372   1.767  0.9632  0.1544 -0.2255
  861MOL0     O18711   0.945   5.428   1.647  0.1773 -0.0270  0.7651
  861MOL0     C18712   0.826   5.495   1.629 -0.0338 -0.5274 -0.1680
  861MOL0     C18713   0.837   5.626   1.577 -0.7769  0.1641 -0.0875
  861MOL0     C18714   0.717   5.698   1.553  0.7547 -0.2872  0.6741
  861MOL0     C18715   0.593   5.637   1.584 -1.2904 -0.4368 -0.3582
  861MOL0     O18716   0.472   5.700   1.572  0.4443  0.5967  0.3672
  861MOL0     C18717   0.469   5.825   1.517  0.2635 -0.1325 -0.1196
  861MOL0     C18718   0.333   5.886   1.502  0.7319 -0.3274  0.2767
  861MOL0     C18719   0.216   5.799   1.456 -0.1243 -0.4934 -0.1838
  861MOL0     C18720   0.080   5.877   1.490  0.6808  0.0211 -0.0163
  861MOL0     C18721  -0.043   5.821   1.421  0.1955 -0.2115  0.6759
  861MOL0     C18722  -0.169   5.899   1.469  0.1272 -0.4985 -0.4824
  861MOL0     C18723  -0.295   5.851   1.397  0.9665  0.3523 -0.0484
  861MOL0     C18724  -0.419   5.927   1.448  0.3847 -0.4560 -0.0119
  861MOL0    Cl18725  -0.568   5.900   1.345 -0.3366 -0.2734 -0.3301
  861MOL0     C18726   0.588   5.506   1.629  0.1344 -0.0456 -0.5050
  861MOL0     C18727   0.704   5.436   1.663 -0.1075 -0.5562  0.0132
  861MOL0     O18728   0.940   5.384   1.871  0.0312  0.1584  0.5112
  861MOL0     C18729   1.214   5.341   1.662  0.7545 -0.4314  0.2381
  861MOL0     C18730   1.325   5.265   1.651 -0.1612  0.0844  0.1676
  861MOL0     N18731   2.158   4.924   1.966 -0.8292 -1.2700 -0.4643
  861MOL0     N18732   2.210   4.832   2.037  0.2182  0.4811 -0.2488
  861MOL0     C18733   1.628   4.037   1.507  0.1602 -0.6325  0.0878
  861MOL0     C18734   1.491   4.046   1.549 -0.3415  0.8125  0.1970
  861MOL0     C18735   1.075   4.194   1.582 -0.2890 -0.4200 -0.0635
  861MOL0     C18736   0.978   4.109   1.519 -0.4176 -0.2116 -0.6663
  861MOL0     C18737   0.847   4.120   1.556  0.0170 -0.4119  0.4567
  861MOL0     C18738   0.806   4.204   1.661 -0.2134 -1.3643 -0.3370
  861MOL0     O18739   0.682   4.222   1.712  0.2983  0.9672 -0.4435
  861MOL0     C18740   0.569   4.145   1.666  0.4996  0.2309 -0.5577
  861MOL0     C18741   0.436   4.197   1.736  0.2860 -0.9601  0.9045
  861MOL0     C18742   0.315   4.117   1.699  0.4719 -0.3508  0.5547
  861MOL0     C18743   0.291   3.984   1.774  0.2160 -0.5569 -0.0138
  861MOL0     C18744   0.207   3.892   1.695 -0.6241 -1.0469  0.6149
  861MOL0     C18745   0.139   3.830   1.615 -0.1598  0.3341  0.2014
  861MOL0     C18746   0.905   4.280   1.730  0.3463  0.0466 -0.0294
  861MOL0     C18747   1.039   4.271   1.696  0.0933 -0.1166  0.5326
  861MOL0     C18748   1.128   4.372   1.769  0.0817  0.1617  0.3435
  861MOL0     H18749   1.456   4.379   1.568 -0.9791 -0.2636  2.5543
  861MOL0     H18750   1.681   4.375   1.495 -0.3956  0.7806  3.0471
  861MOL0     H18751   1.946   3.984   1.420  1.3814  0.8134  0.3066
  861MOL0     H18752   1.866   3.996   1.580 -4.0163 -1.0159 -3.1144
  861MOL0     H18753   2.123   4.032   1.587  0.0121  0.1984  1.4162
  861MOL0     H18754   2.086   4.184   1.503 -2.1825  1.7858  0.7996
  861MOL0     H18755   1.927   4.246   1.711 -0.9755 -0.1140  3.7394
  861MOL0     H18756   1.992   4.101   1.784 -1.7349 -1.1776 -0.8855
  861MOL0     H18757   2.228   4.217   1.780  0.0844  1.6092  1.2728
  861MOL0     H18758   2.154   4.343   1.674 -1.6853  1.2046  1.4778
  861MOL0     H18759   2.120   4.305   1.973 -1.6803 -3.5212 -0.8318
  861MOL0     H18760   2.014   4.399   1.881 -1.3903 -4.2333  0.6824
  861MOL0     H18761   2.306   4.451   1.832  0.1753 -1.1591  1.6828
  861MOL0     H18762   2.158   4.553   1.812 -2.9399 -2.2268 -0.8424
  861MOL0     H18763   2.330   4.588   1.992 -0.4557  0.6118  0.1415
  861MOL0     H18764   2.275   4.436   2.067 -1.1521  1.8829  3.0012
  861MOL0     H18765   2.046   4.539   2.100 -0.4047  1.9209 -1.5025
  861MOL0     H18766   2.170   4.615   2.194  1.7504 -2.6687  0.1631
  861MOL0     H18767   1.933   4.694   1.913  1.6129 -1.3545  0.0476
  861MOL0     H18768   1.945   4.898   1.720 -1.5159  0.8343 -1.4002
  861MOL0     H18769   1.992   5.055   1.770  1.7748 -0.3597 -0.5738
  861MOL0     H18770   1.773   4.891   1.911  0.1842  0.4074  1.2920
  861MOL0     H18771   1.813   5.061   1.942 -1.5370  0.1712 -0.2960
  861MOL0     H18772   1.760   5.137   1.718 -0.1601  1.6972  1.3043
  861MOL0     H18773   1.697   4.976   1.688  1.5395 -1.1717  1.3960
  861MOL0     H18774   1.529   4.998   1.867 -0.4507  1.0707  0.8318
  861MOL0     H18775   1.600   5.157   1.899  2.2654 -1.1115 -0.8599
  861MOL0     H18776   1.332   5.066   1.921 -0.0130  0.8551 -0.5437
  861MOL0     H18777   1.048   5.251   2.043 -1.3173  0.6548 -1.5757
  861MOL0     H18778   1.138   5.104   2.061 -1.5502  0.8513  1.4229
  861MOL0     H18779   0.992   5.115   1.949 -0.6285  1.7818 -3.3046
  861MOL0     H18780   0.934   5.661   1.544 -0.1816 -1.6444 -0.3997
  861MOL0     H18781   0.723   5.804   1.532  1.6381 -0.6628 -1.1616
  861MOL0     H18782   0.532   5.891   1.577 -1.3344 -2.3878  4.6518
  861MOL0     H18783   0.520   5.824   1.421  2.8987  0.7523  1.1662
  861MOL0     H18784   0.306   5.936   1.595 -2.9543  0.5117 -1.0716
  861MOL0     H18785   0.351   5.961   1.424  0.3510 -0.0917  0.4172
  861MOL0     H18786   0.206   5.700   1.501 -0.8434 -1.6526 -2.6629
  861MOL0     H18787   0.225   5.765   1.352  0.8692 -0.9281  0.0342
  861MOL0     H18788   0.086   5.983   1.462 -1.1695  0.3029  0.4923
  861MOL0     H18789   0.061   5.882   1.597  0.9861  0.0775  0.0373
  861MOL0     H18790  -0.030   5.821   1.312  1.3437 -1.4613  0.7970
  861MOL0     H18791  -0.052   5.716   1.449  0.6393 -0.9491 -1.6998
  861MOL0     H18792  -0.156   6.003   1.438 -0.8777 -0.7282 -1.7812
  861MOL0     H18793  -0.187   5.888   1.576  1.6994 -0.7319 -0.2167
  861MOL0     H18794  -0.321   5.746   1.415 -0.6209  0.8882  1.0226
  861MOL0     H18795  -0.287   5.860   1.288 -0.9236  0.0254 -0.2383
  861MOL0     H18796  -0.407   6.035   1.437 -3.3373  0.0322 -0.6702
  861MOL0     H18797  -0.440   5.907   1.554  0.0042  3.3999  0.7882
  861MOL0     H18798   0.503   5.439   1.636  0.4996 -0.3313  2.2416
  861MOL0     H18799   0.702   5.337   1.707  1.4975 -0.1126  1.1987
  861MOL0     H18800   1.190   5.420   1.592  2.6977  0.2782  0.2970
  861MOL0     H18801   1.380   5.279   1.558  0.6957 -2.3074  0.2465
  861MOL0     H18802   1.669   3.940   1.482  0.9038 -0.7054  1.5409
  861MOL0     H18803   1.432   3.955   1.555  0.1067  0.4734 -0.3267
  861MOL0     H18804   1.020   4.050   1.438  1.3854  0.0985  0.0010
  861MOL0     H18805   0.775   4.063   1.498 -0.5985 -0.2549  1.0488
  861MOL0     H18806   0.566   4.156   1.557 -1.2089 -3.9051 -1.1251
  861MOL0     H18807   0.591   4.039   1.681  1.0792  0.0118 -2.7102
  861MOL0     H18808   0.415   4.301   1.710  0.9356 -1.3560 -1.5065
  861MOL0     H18809   0.457   4.202   1.843  0.1549  0.3310  0.8799
  861MOL0     H18810   0.223   4.177   1.698  1.3880  1.1260  1.2753
  861MOL0     H18811   0.330   4.091   1.594  0.3242 -1.0922  0.7103
  861MOL0     H18812   0.229   3.999   1.864 -0.1266 -0.6706 -0.2286
  861MOL0     H18813   0.388   3.940   1.800  0.0167 -2.3351 -2.0543
  861MOL0     H18814   0.070   3.778   1.551 -2.8928  3.1465  0.5957
  861MOL0     H18815   0.876   4.337   1.818 -1.8458 -1.7462  0.4910
  861MOL0     H18816   1.140   4.466   1.714  3.2278 -0.0656  0.4535
  861MOL0     H18817   1.078   4.397   1.863 -0.3212 -0.1855  0.2223
  861MOL0     H18818   1.225   4.325   1.784 -0.1010 -1.1483 -2.0825
  862MOL0     O18819   3.588   2.556   3.983 -0.9079 -0.3188 -0.5497
  862MOL0     C18820   3.575   2.426   3.982  1.0149 -0.9608 -0.4666
  862MOL0     O18821   3.668   2.334   3.932  0.2130  0.5073 -0.0280
  862MOL0     C18822   3.774   2.364   3.855 -0.0916  0.4865 -0.1115
  862MOL0     C18823   3.887   2.298   3.883  0.7121  0.4806 -0.4074
  862MOL0     C18824   4.005   2.323   3.814 -0.1463 -0.1756 -0.0434
  862MOL0     C18825   4.015   2.436   3.731  0.6337 -0.3931  0.8249
  862MOL0     O18826   4.129   2.464   3.666 -0.1616  0.6340 -0.0961
  862MOL0     C18827   4.192   2.588   3.713  0.8696  0.4158 -0.1377
  862MOL0     C18828   4.320   2.620   3.634  0.9420  0.5397  0.1640
  862MOL0     C18829   4.308   2.660   3.480  0.1884 -0.0557  0.5020
  862MOL0     C18830   4.453   2.671   3.431 -0.4930 -0.3440  0.2962
  862MOL0     C18831   4.451   2.714   3.286  0.4475 -0.1112  0.2188
  862MOL0     C18832   4.586   2.684   3.217 -0.2170 -0.4038  0.1423
  862MOL0     C18833   4.618   2.765   3.090  1.0130 -0.4127  0.2693
  862MOL0     C18834   4.625   2.915   3.120  0.4722  0.0265  0.1937
  862MOL0     N18835   4.666   2.992   2.998  0.9290 -0.2432  0.7711
  862MOL0     C18836   4.787   2.975   2.935 -0.3557 -0.4504  0.0747
  862MOL0     C18837   4.779   3.059   2.823  0.1664  0.8315  0.0383
  862MOL0     C18838   4.888   3.081   2.725 -0.1388  0.3284  0.7461
  862MOL0     C18839   4.860   3.199   2.631 -0.1531 -0.3678 -0.3346
  862MOL0     C18840   4.986   3.249   2.549 -0.1212 -0.3635  1.0753
  862MOL0     C18841   4.943   3.387   2.474 -0.2785 -0.8482 -0.1761
  862MOL0     O18842   4.920   3.496   2.568 -0.0337 -0.2257  0.1489
  862MOL0     C18843   5.036   3.562   2.613  0.5083  0.2048 -0.1858
  862MOL0     C18844   5.021   3.662   2.709 -0.2372  0.1458 -0.0971
  862MOL0     C18845   5.123   3.755   2.744  0.2888 -0.2103 -0.4023
  862MOL0     C18846   5.085   3.850   2.855  0.1711  0.2544  0.2125
  862MOL0     C18847   5.260   3.731   2.708  0.5539  0.3951 -0.7252
  862MOL0     C18848   5.378   3.802   2.753  0.0101  0.5908  0.7172
  862MOL0     O18849   5.360   3.907   2.841  0.2800  0.4670 -0.2911
  862MOL0     C18850   5.470   3.939   2.918  0.4469 -0.6269  0.2148
  862MOL0     C18851   5.581   3.994   2.855 -0.4270  0.2819  0.3271
  862MOL0     C18852   5.695   4.032   2.929 -0.1083 -0.6831 -0.4456
  862MOL0     C18853   5.694   4.015   3.075  0.2215  0.3258 -0.4045
  862MOL0     O18854   5.797   4.052   3.156 -0.2069 -0.2543 -0.0086
  862MOL0     C18855   5.931   4.048   3.109  0.1005 -0.1783 -0.5934
  862MOL0     C18856   6.006   4.003   3.235  1.4147  0.0810 -0.1081
  862MOL0     C18857   6.151   4.051   3.236 -1.0091  0.2749 -0.4009
  862MOL0     C18858   6.229   3.970   3.140 -0.8593  0.9109  0.9367
  862MOL0     C18859   6.370   4.024   3.103  0.2209 -0.6502  0.0527
  862MOL0     C18860   6.463   4.029   3.224 -0.3923  0.3574 -0.0462
  862MOL0     C18861   6.564   4.136   3.206 -0.2838 -0.1293  0.4282
  862MOL0     C18862   6.661   4.140   3.329  0.4100  0.5183 -0.1388
  862MOL0    Cl18863   6.571   4.221   3.466 -0.1063  0.2459  0.5068
  862MOL0     C18864   5.579   3.966   3.135  0.1819  0.1986 -1.1577
  862MOL0     C18865   5.462   3.948   3.058  0.6610 -0.1737  0.3022
  862MOL0     O18866   5.486   3.754   2.716 -0.4449  0.3187 -0.2354
  862MOL0     C18867   5.273   3.619   2.626  0.2116 -0.1188  0.6390
  862MOL0     C18868   5.172   3.543   2.575  0.1750  0.2250 -0.1100
  862MOL0     N18869   4.650   3.115   2.827 -0.1502  0.2758 -0.0179
  862MOL0     N18870   4.576   3.063   2.921 -0.4911  0.2073 -0.4877
  862MOL0     C18871   3.897   2.506   3.713 -0.0041  0.4517  0.7713
  862MOL0     C18872   3.779   2.471   3.773  1.0362 -0.2724  0.1305
  862MOL0     C18873   3.452   2.368   4.049 -1.0734 -0.3771 -0.1436
  862MOL0     C18874   3.346   2.465   4.079  0.0522 -0.0150 -0.0131
  862MOL0     C18875   3.232   2.417   4.144 -0.5204  0.0642 -0.4074
  862MOL0     C18876   3.214   2.282   4.170 -0.1816 -0.3514  0.7720
  862MOL0     O18877   3.103   2.250   4.239  0.1940 -0.2116  0.3077
  862MOL0     C18878   3.119   2.174   4.362 -1.3091  0.3942 -0.0662
  862MOL0     C18879   3.024   2.066   4.350  0.5374 -0.5804 -0.6824
  862MOL0     C18880   2.882   2.107   4.394  0.5693  0.0330  0.0329
  862MOL0     C18881   2.778   1.988   4.383  0.6821 -0.2207 -0.1920
  862MOL0     C18882   2.785   1.901   4.500 -0.0835 -0.2782 -0.1060
  862MOL0     C18883   2.795   1.847   4.612  0.6703  0.3634 -0.4834
  862MOL0     C18884   3.312   2.194   4.137  0.0970 -0.5615 -0.4806
  862MOL0     C18885   3.432   2.223   4.077 -0.0800  0.0103 -0.1436
  862MOL0     C18886   3.528   2.109   4.041 -0.3647  0.2805 -0.2296
  862MOL0     H18887   3.900   2.215   3.952 -0.5355  0.0747 -0.6241
  862MOL0     H18888   4.087   2.256   3.839 -0.8739 -0.7096  0.9550
  862MOL0     H18889   4.205   2.565   3.819 -1.2279 -0.8397 -0.0917
  862MOL0     H18890   4.118   2.668   3.696 -2.0274 -2.2075 -0.7982
  862MOL0     H18891   4.377   2.697   3.687  1.4085 -0.6081  1.3908
  862MOL0     H18892   4.390   2.537   3.638  2.4557  1.4014 -3.7105
  862MOL0     H18893   4.254   2.583   3.425  1.4706  1.1766 -2.7313
  862MOL0     H18894   4.261   2.757   3.459 -2.7128 -1.4483  0.0773
  862MOL0     H18895   4.507   2.743   3.492  0.5153 -2.6346  2.2754
  862MOL0     H18896   4.504   2.574   3.427 -1.4854 -0.8452 -1.4015
  862MOL0     H18897   4.421   2.818   3.268 -1.9311 -0.9124 -0.7569
  862MOL0     H18898   4.372   2.655   3.239 -1.5396  2.4367  0.1232
  862MOL0     H18899   4.668   2.703   3.287  0.7760 -1.0436 -0.8027
  862MOL0     H18900   4.598   2.576   3.203  0.4821 -0.6407  2.2987
  862MOL0     H18901   4.530   2.750   3.027  0.4091 -0.4437  1.1022
  862MOL0     H18902   4.704   2.734   3.031  1.1646  2.2619 -1.0366
  862MOL0     H18903   4.528   2.941   3.163 -0.9720 -1.6142 -1.8902
  862MOL0     H18904   4.706   2.934   3.191 -0.4703 -0.3839  1.4013
  862MOL0     H18905   4.876   2.930   2.979 -0.0845  0.0276  0.0159
  862MOL0     H18906   4.904   2.989   2.669 -0.2272  0.8306 -0.1382
  862MOL0     H18907   4.983   3.089   2.779  0.1889 -0.2370  0.2563
  862MOL0     H18908   4.767   3.175   2.578 -1.7191 -0.1947  2.1391
  862MOL0     H18909   4.833   3.284   2.696  0.0336 -0.4335 -0.1681
  862MOL0     H18910   5.079   3.263   2.605  0.3200  3.5065 -0.2923
  862MOL0     H18911   5.007   3.175   2.472 -1.2307  0.8931 -0.4922
  862MOL0     H18912   5.012   3.410   2.392 -1.6730 -1.0997 -1.4575
  862MOL0     H18913   4.842   3.369   2.437 -0.7455  2.4319 -0.7900
  862MOL0     H18914   4.919   3.668   2.745 -1.1460 -3.3131 -1.6708
  862MOL0     H18915   5.131   3.948   2.840  0.5033  0.0564 -0.0745
  862MOL0     H18916   5.101   3.812   2.956 -1.0090 -0.1896  0.2505
  862MOL0     H18917   4.978   3.869   2.840  0.4453 -0.3080 -3.6274
  862MOL0     H18918   5.593   3.996   2.747 -0.7116 -1.2608  0.2348
  862MOL0     H18919   5.775   4.067   2.865 -0.8360  1.0463 -0.4745
  862MOL0     H18920   5.947   3.981   3.024  0.6481  0.1758 -0.7711
  862MOL0     H18921   5.969   4.147   3.083  1.4430  0.2258  2.4489
  862MOL0     H18922   5.962   4.048   3.324  1.1883  0.4111 -0.3830
  862MOL0     H18923   5.997   3.894   3.236  3.1078 -0.0808  0.7596
  862MOL0     H18924   6.200   4.045   3.334  1.8907  1.4086 -1.6748
  862MOL0     H18925   6.149   4.158   3.216 -1.3790  0.2836 -0.3318
  862MOL0     H18926   6.177   3.957   3.045  0.0711  3.1913  0.0525
  862MOL0     H18927   6.244   3.869   3.180  0.0288  0.0427 -1.4281
  862MOL0     H18928   6.412   3.968   3.018 -1.5907  0.3691 -1.5988
  862MOL0     H18929   6.353   4.127   3.072 -2.3903 -1.5344 -1.8129
  862MOL0     H18930   6.516   3.937   3.249 -1.2557  0.3996  2.2336
  862MOL0     H18931   6.407   4.057   3.314 -0.4044  0.9682 -0.2388
  862MOL0     H18932   6.513   4.231   3.186 -1.0040  0.1307  3.1068
  862MOL0     H18933   6.630   4.113   3.123  0.5945  0.8377  0.8476
  862MOL0     H18934   6.751   4.196   3.301  1.0348 -0.2955  0.1801
  862MOL0     H18935   6.689   4.040   3.363 -1.2729 -0.2713 -0.9505
  862MOL0     H18936   5.570   3.961   3.243  0.9824  2.9770 -0.8933
  862MOL0     H18937   5.365   3.921   3.099 -0.1644  2.3713  0.1491
  862MOL0     H18938   5.373   3.586   2.602 -0.1957  0.2012 -1.7962
  862MOL0     H18939   5.194   3.463   2.506 -1.3251  1.5729 -2.2945
  862MOL0     H18940   3.904   2.588   3.642 -1.8762 -0.2241 -0.2593
  862MOL0     H18941   3.692   2.534   3.760  2.5424  1.5670 -1.8467
  862MOL0     H18942   3.352   2.569   4.047 -0.3809 -0.5124 -1.8718
  862MOL0     H18943   3.139   2.472   4.146 -0.4842  0.1343 -0.6018
  862MOL0     H18944   3.219   2.131   4.363 -1.7546 -0.6569  1.6052
  862MOL0     H18945   3.107   2.231   4.454  1.8015  1.7533 -0.3589
  862MOL0     H18946   3.059   1.976   4.402  0.4203 -0.4979 -0.4587
  862MOL0     H18947   3.019   2.026   4.248 -2.9899  1.1867 -1.3830
  862MOL0     H18948   2.873   2.139   4.499  2.1418 -0.6171  0.3878
  862MOL0     H18949   2.844   2.186   4.328 -0.2056  2.0723  2.7286
  862MOL0     H18950   2.795   1.927   4.294  0.5817 -2.2379  1.0988
  862MOL0     H18951   2.675   2.023   4.378  0.0207 -1.5927  2.1304
  862MOL0     H18952   2.803   1.817   4.715  0.7135 -0.9038 -0.8409
  862MOL0     H18953   3.301   2.090   4.163  1.0961 -0.5652 -0.0629
  862MOL0     H18954   3.549   2.119   3.934 -3.4078  1.7206 -0.8212
  862MOL0     H18955   3.626   2.117   4.089  0.1797 -0.1662 -1.2436
  862MOL0     H18956   3.496   2.007   4.065  1.5490 -0.6675 -1.4491
  863MOL0     O18957   4.349   2.192   0.802  0.0807 -0.2896  0.0999
  863MOL0     C18958   4.396   2.194   0.914 -0.1257  0.0074  0.9009
  863MOL0     O18959   4.528   2.202   0.951 -0.6279  0.1271 -0.6215
  863MOL0     C18960   4.637   2.183   0.862  0.1177  1.0502 -0.1154
  863MOL0     C18961   4.767   2.186   0.914 -0.8905  0.0925 -0.7365
  863MOL0     C18962   4.881   2.168   0.836 -0.5143 -0.0598  0.7590
  863MOL0     C18963   4.874   2.157   0.695 -0.3553 -0.9886  0.0346
  863MOL0     O18964   4.981   2.155   0.604  0.0294  1.1567  0.6052
  863MOL0     C18965   5.113   2.153   0.664 -0.0820  0.6090 -0.5979
  863MOL0     C18966   5.161   2.010   0.695  0.6647  0.5147 -0.3016
  863MOL0     C18967   5.311   1.997   0.719 -0.7127 -0.4966 -0.8212
  863MOL0     C18968   5.380   1.941   0.592  0.0427  0.3849  0.1230
  863MOL0     C18969   5.526   1.974   0.582 -0.0598  0.4869 -0.2156
  863MOL0     C18970   5.585   1.975   0.435  0.4763 -0.9752 -0.5426
  863MOL0     C18971   5.732   2.027   0.444 -0.1141 -0.2569  0.3767
  863MOL0     C18972   5.795   2.052   0.309 -0.4634 -0.4846  0.1328
  863MOL0     N18973   5.922   2.120   0.325 -0.5272  0.2323  0.2471
  863MOL0     C18974   6.022   2.072   0.408 -0.5327 -0.9031  0.6847
  863MOL0     C18975   6.114   2.163   0.401  0.3916  0.1364  0.4579
  863MOL0     C18976   6.251   2.153   0.463 -0.9701 -0.1017 -0.4118
  863MOL0     C18977   6.351   2.093   0.362  0.7072  0.1725  0.2412
  863MOL0     C18978   6.487   2.085   0.428 -0.3879 -0.9557  0.3837
  863MOL0     C18979   6.612   2.076   0.337 -0.0191  0.4038  0.5818
  863MOL0     O18980   6.676   2.205   0.301 -0.7746  0.0052 -0.3894
  863MOL0     C18981   6.808   2.200   0.273  0.8223 -0.4719 -0.5094
  863MOL0     C18982   6.872   2.096   0.215  0.7839 -0.3145  0.7219
  863MOL0     C18983   7.011   2.097   0.192  0.6063  0.5661 -0.1586
  863MOL0     C18984   7.068   1.969   0.151 -0.3111 -0.2399  0.7153
  863MOL0     C18985   7.090   2.205   0.215 -0.7363 -0.0818 -0.8345
  863MOL0     C18986   7.235   2.218   0.189  0.1092  0.3096  0.0251
  863MOL0     O18987   7.286   2.335   0.227 -0.7300 -0.4490 -0.0504
  863MOL0     C18988   7.422   2.336   0.243 -0.1963  0.5628  0.7322
  863MOL0     C18989   7.513   2.351   0.144 -0.4897 -1.3211 -0.2079
  863MOL0     C18990   7.650   2.359   0.171 -0.8431 -0.0675 -1.8654
  863MOL0     C18991   7.707   2.335   0.300  0.8291 -0.4872 -0.1307
  863MOL0     O18992   7.840   2.326   0.333 -0.2390  0.3995 -0.7195
  863MOL0     C18993   7.926   2.253   0.240 -0.0462  0.1352 -0.2215
  863MOL0     C18994   7.932   2.110   0.283  0.2859 -0.8485 -0.2504
  863MOL0     C18995   8.040   2.031   0.204 -0.4951 -0.2337 -0.0187
  863MOL0     C18996   8.072   1.902   0.291 -0.1002  0.6724 -0.4324
  863MOL0     C18997   7.969   1.800   0.254  0.1629  0.5515 -0.5921
  863MOL0     C18998   7.963   1.687   0.360  0.7860 -0.1905  0.3332
  863MOL0     C18999   7.823   1.621   0.360 -0.2446 -0.0145 -0.2544
  863MOL0     C19000   7.809   1.506   0.255 -0.3281  0.5438 -0.1698
  863MOL0    Cl19001   7.935   1.383   0.269  0.0601  0.6360 -0.2859
  863MOL0     C19002   7.612   2.325   0.404  0.7180 -0.1132  0.4731
  863MOL0     C19003   7.476   2.340   0.374  0.4019 -0.1763  0.0638
  863MOL0     O19004   7.297   2.133   0.122  0.2547  0.6767 -0.0727
  863MOL0     C19005   7.016   2.319   0.268 -0.6240  0.6652 -0.3304
  863MOL0     C19006   6.882   2.316   0.299  1.1390  0.1954 -0.0434
  863MOL0     N19007   6.077   2.258   0.306 -0.1640  0.3966 -0.6292
  863MOL0     N19008   5.957   2.234   0.265 -0.5130  0.0525 -0.0524
  863MOL0     C19009   4.749   2.167   0.645 -0.4647 -1.0286 -0.6084
  863MOL0     C19010   4.631   2.174   0.723  0.8200 -0.4689  0.4661
  863MOL0     C19011   4.297   2.220   1.025  0.1902  0.7008 -0.4518
  863MOL0     C19012   4.194   2.311   0.999 -0.0979 -0.7169 -0.2011
  863MOL0     C19013   4.102   2.354   1.094  0.2042 -0.2301 -1.6032
  863MOL0     C19014   4.121   2.310   1.228  0.0768 -0.2508 -0.1574
  863MOL0     O19015   4.039   2.332   1.331 -0.6531  0.0683 -0.2115
  863MOL0     C19016   3.914   2.400   1.331 -0.0286  0.3249 -0.4613
  863MOL0     C19017   3.791   2.293   1.315 -0.4012  0.0765 -0.2065
  863MOL0     C19018   3.666   2.346   1.255  0.5511 -0.7804 -0.0117
  863MOL0     C19019   3.594   2.464   1.334  0.2014  0.1275 -0.3263
  863MOL0     C19020   3.536   2.428   1.463 -0.3539  0.6713  0.0079
  863MOL0     C19021   3.474   2.391   1.560 -1.2089  0.0083 -0.5329
  863MOL0     C19022   4.220   2.212   1.250  1.3970  0.1637 -0.2152
  863MOL0     C19023   4.303   2.161   1.153  0.1113  0.2377 -0.1566
  863MOL0     C19024   4.406   2.057   1.188  0.2713  0.3990  0.7554
  863MOL0     H19025   4.785   2.188   1.021 -0.3063 -0.1840 -0.8298
  863MOL0     H19026   4.979   2.164   0.882 -0.7698  0.0018  1.3264
  863MOL0     H19027   5.124   2.209   0.757 -3.4851  0.4204  0.0468
  863MOL0     H19028   5.182   2.185   0.586 -0.3361  0.5223 -0.8615
  863MOL0     H19029   5.108   1.970   0.782  1.1197 -2.4475 -1.2783
  863MOL0     H19030   5.137   1.933   0.621 -0.6628 -0.4327  1.0668
  863MOL0     H19031   5.351   2.091   0.759  0.0625 -1.1211 -0.0911
  863MOL0     H19032   5.327   1.916   0.791 -0.0909  0.1094 -0.2596
  863MOL0     H19033   5.357   1.834   0.594 -0.5607  0.5255  1.2412
  863MOL0     H19034   5.336   1.990   0.504  0.1164 -0.3215 -0.3095
  863MOL0     H19035   5.574   1.891   0.633  0.6556 -0.1067 -1.7932
  863MOL0     H19036   5.549   2.066   0.637  2.8310 -0.6850  0.7099
  863MOL0     H19037   5.568   1.882   0.380 -0.6938 -0.0682 -1.7526
  863MOL0     H19038   5.530   2.050   0.378  1.4072  0.3522  0.2368
  863MOL0     H19039   5.793   1.968   0.513 -2.2465 -0.5926  2.0636
  863MOL0     H19040   5.728   2.118   0.504 -1.2433  0.6679 -1.0390
  863MOL0     H19041   5.816   1.960   0.254 -0.8971 -0.2764 -0.3982
  863MOL0     H19042   5.721   2.111   0.253  0.5910  0.4610 -0.2974
  863MOL0     H19043   6.035   1.978   0.462 -0.4742 -0.9959  0.5105
  863MOL0     H19044   6.262   2.097   0.557  0.1501 -0.0667 -0.5038
  863MOL0     H19045   6.283   2.253   0.492  0.0969 -0.1918 -1.2373
  863MOL0     H19046   6.325   1.992   0.330  3.0965 -0.2461 -0.6035
  863MOL0     H19047   6.362   2.159   0.276  1.6144  0.4861  0.5859
  863MOL0     H19048   6.504   2.168   0.497  0.0895 -1.6120  1.0702
  863MOL0     H19049   6.492   2.001   0.498  2.8238 -0.9395  0.3608
  863MOL0     H19050   6.692   2.013   0.378  0.7609  1.8047  1.3068
  863MOL0     H19051   6.582   2.031   0.242 -2.0871  2.5003  0.1327
  863MOL0     H19052   6.819   2.003   0.195  2.8070 -1.0850 -1.5410
  863MOL0     H19053   7.131   1.929   0.232  0.6683 -4.0551 -1.6479
  863MOL0     H19054   7.116   1.969   0.053  1.8172 -1.3907  1.6717
  863MOL0     H19055   6.987   1.896   0.136 -0.4888  0.4163 -1.8724
  863MOL0     H19056   7.463   2.356   0.048  1.4641 -1.8240 -1.3030
  863MOL0     H19057   7.725   2.370   0.093  0.7341  0.6276 -0.3264
  863MOL0     H19058   7.889   2.253   0.138  0.6654  1.0229 -0.4887
  863MOL0     H19059   8.022   2.305   0.238  1.4274 -2.1871  2.2773
  863MOL0     H19060   7.938   2.104   0.392 -0.6381  2.2707  0.0570
  863MOL0     H19061   7.836   2.064   0.259  1.2087 -2.6734 -0.6556
  863MOL0     H19062   8.132   2.091   0.202  1.6916 -3.3495 -1.1980
  863MOL0     H19063   8.001   2.004   0.105 -1.1384  1.8786 -0.4008
  863MOL0     H19064   8.066   1.928   0.397 -2.4575 -1.4747  0.0461
  863MOL0     H19065   8.171   1.870   0.258 -0.9160  0.0176 -2.3549
  863MOL0     H19066   7.869   1.845   0.244 -0.5611 -0.5686  1.0726
  863MOL0     H19067   7.994   1.760   0.156 -2.1035 -0.6617 -0.7478
  863MOL0     H19068   7.979   1.723   0.462 -3.1603 -0.3331  1.1701
  863MOL0     H19069   8.034   1.611   0.326  1.1634 -0.1145  0.9257
  863MOL0     H19070   7.745   1.697   0.348  1.6635  1.7484 -2.7134
  863MOL0     H19071   7.818   1.582   0.462  0.1384  1.1237  0.2210
  863MOL0     H19072   7.821   1.539   0.152  2.5404  0.5016  0.0760
  863MOL0     H19073   7.712   1.456   0.264  0.8716 -1.9731 -0.3869
  863MOL0     H19074   7.648   2.320   0.506 -0.7056 -1.9097  0.9438
  863MOL0     H19075   7.401   2.344   0.452  0.4393  2.2803  0.0296
  863MOL0     H19076   7.069   2.411   0.290  1.2678 -0.6649  1.0837
  863MOL0     H19077   6.843   2.413   0.328  0.8828  0.5507 -1.5032
  863MOL0     H19078   4.735   2.146   0.539  1.9607 -2.8861 -0.6553
  863MOL0     H19079   4.542   2.180   0.661 -0.1186 -1.1911  1.6888
  863MOL0     H19080   4.181   2.355   0.900 -1.8928 -2.8568 -0.9804
  863MOL0     H19081   4.037   2.437   1.067  2.0790  1.6190 -0.7074
  863MOL0     H19082   3.885   2.463   1.415 -1.6628  0.1317 -0.8522
  863MOL0     H19083   3.906   2.470   1.247 -0.1451  2.8716  1.5447
  863MOL0     H19084   3.777   2.245   1.412 -1.4266 -0.7494 -0.7317
  863MOL0     H19085   3.820   2.209   1.251  0.4012  0.4772 -0.3825
  863MOL0     H19086   3.690   2.399   1.162 -0.5728 -0.9676 -0.4224
  863MOL0     H19087   3.590   2.274   1.226 -0.1528  0.0899 -0.3889
  863MOL0     H19088   3.517   2.488   1.261  1.4453 -1.6998 -2.3546
  863MOL0     H19089   3.655   2.554   1.330  1.2349 -0.6174 -3.0736
  863MOL0     H19090   3.426   2.359   1.650 -0.6893  0.0179 -0.2478
  863MOL0     H19091   4.235   2.177   1.352 -3.7120  0.2722  0.8288
  863MOL0     H19092   4.432   1.991   1.105 -1.0014 -0.3287  0.9003
  863MOL0     H19093   4.498   2.107   1.219  1.2771 -0.3597 -0.8728
  863MOL0     H19094   4.379   1.995   1.274  2.1801  1.6985  2.3770
  864MOL0     O19095   6.756   7.650   5.171  0.4263  0.7518  0.5547
  864MOL0     C19096   6.792   7.658   5.051  0.7651 -0.7733  0.2245
  864MOL0     O19097   6.911   7.617   4.995  0.2160 -0.0539  0.1545
  864MOL0     C19098   7.011   7.546   5.060  0.8614 -0.0387  0.2593
  864MOL0     C19099   7.133   7.555   4.998 -0.9102 -0.1891 -0.1153
  864MOL0     C19100   7.255   7.529   5.067  0.5062 -0.0605 -0.6260
  864MOL0     C19101   7.255   7.497   5.201  0.5607  0.5392 -0.1160
  864MOL0     O19102   7.376   7.461   5.261 -0.6131 -0.4561 -0.0676
  864MOL0     C19103   7.413   7.548   5.370  0.0195  0.0569 -1.3680
  864MOL0     C19104   7.554   7.508   5.433 -0.1749  0.0704 -0.0460
  864MOL0     C19105   7.672   7.547   5.357 -0.0193 -0.2149 -1.0859
  864MOL0     C19106   7.801   7.518   5.437  0.0417  0.7149  0.0090
  864MOL0     C19107   7.921   7.554   5.343  0.5531 -0.8607  0.2028
  864MOL0     C19108   8.039   7.555   5.430 -0.2445  0.2955  0.7464
  864MOL0     C19109   8.166   7.581   5.346 -0.2372  0.2588  0.1134
  864MOL0     C19110   8.290   7.559   5.431  0.0794 -0.0576 -0.0364
  864MOL0     N19111   8.407   7.619   5.362 -0.0011  0.3305 -0.6088
  864MOL0     C19112   8.464   7.592   5.241  0.3139  0.0727 -0.0814
  864MOL0     C19113   8.576   7.675   5.231  0.1718  0.0683 -0.3865
  864MOL0     C19114   8.681   7.674   5.117 -0.1900  0.8515 -0.1005
  864MOL0     C19115   8.781   7.558   5.135  0.0853 -0.1571 -0.3016
  864MOL0     C19116   8.883   7.550   5.023  0.4854 -0.4684 -0.1201
  864MOL0     C19117   8.981   7.448   5.040 -0.6359  0.9595 -0.3823
  864MOL0     O19118   9.073   7.457   4.932  0.1724 -0.2470  0.6066
  864MOL0     C19119   9.188   7.397   4.957  0.0956  0.7041 -0.3514
  864MOL0     C19120   9.198   7.259   4.987 -0.0983 -0.2140  0.0274
  864MOL0     C19121   9.325   7.203   5.007 -0.0630  0.7902 -0.1256
  864MOL0     C19122   9.320   7.054   5.034  0.0512  0.2608 -0.1223
  864MOL0     C19123   9.450   7.285   5.000  1.0754 -0.6489 -0.1020
  864MOL0     C19124   9.592   7.228   5.016 -0.2158  0.3235 -0.2456
  864MOL0     O19125   9.688   7.319   5.034  0.4434 -0.1632 -0.1830
  864MOL0     C19126   9.823   7.278   5.036  0.0749  0.5576  0.4795
  864MOL0     C19127   9.873   7.201   4.928  0.6114 -0.1232 -0.3524
  864MOL0     C19128  10.006   7.152   4.939 -0.1649  0.4133  0.0346
  864MOL0     C19129  10.096   7.188   5.037 -0.3300 -0.0247  0.0990
  864MOL0     O19130  10.226   7.148   5.015  0.5772 -0.3004 -0.1711
  864MOL0     C19131  10.332   7.200   5.081 -0.8689 -0.1316  0.1660
  864MOL0     C19132  10.449   7.112   5.069 -0.4785  0.7001 -0.0144
  864MOL0     C19133  10.565   7.178   5.145  0.5847  0.5930  0.4354
  864MOL0     C19134  10.686   7.079   5.164  0.8705 -0.3902  0.3314
  864MOL0     C19135  10.746   7.015   5.033 -0.0489  0.0663 -0.3456
  864MOL0     C19136  10.880   6.946   5.052 -0.5451  0.2268 -0.4204
  864MOL0     C19137  10.914   6.866   4.922 -0.7556 -0.6378  0.1855
  864MOL0     C19138  11.045   6.783   4.934 -0.3588 -0.4833  0.1345
  864MOL0    Cl19139  11.077   6.698   4.786  0.2750  0.5364  0.0312
  864MOL0     C19140  10.040   7.258   5.142  0.3011 -0.2567  0.2445
  864MOL0     C19141   9.913   7.297   5.145  0.0816 -0.2873 -0.0304
  864MOL0     O19142   9.614   7.108   4.995  0.1200  0.0161 -0.0792
  864MOL0     C19143   9.433   7.425   4.981  0.3052 -0.3785  0.2624
  864MOL0     C19144   9.304   7.474   4.959  0.1041 -0.2931  0.3852
  864MOL0     N19145   8.569   7.756   5.339 -0.1460 -0.8053  0.0870
  864MOL0     N19146   8.480   7.724   5.424 -0.1141 -0.4862 -0.1283
  864MOL0     C19147   7.129   7.470   5.258  0.8068 -0.3285 -0.3642
  864MOL0     C19148   7.009   7.498   5.193  0.9965  0.7516  0.5588
  864MOL0     C19149   6.705   7.721   4.955  0.6470 -0.0692  0.8400
  864MOL0     C19150   6.752   7.736   4.814 -0.1620  0.6486 -0.3114
  864MOL0     C19151   6.671   7.781   4.714  0.0728 -0.1825 -0.3704
  864MOL0     C19152   6.540   7.828   4.743  0.1723 -0.2329  0.4890
  864MOL0     O19153   6.448   7.873   4.655 -0.3684 -0.1627  0.8790
  864MOL0     C19154   6.465   7.836   4.516  0.5642  0.3328 -0.8065
  864MOL0     C19155   6.532   7.959   4.450 -0.2769 -0.1750 -0.7952
  864MOL0     C19156   6.585   7.942   4.314 -1.0553  0.5060  0.6262
  864MOL0     C19157   6.716   7.851   4.299  0.3950 -0.6024 -0.5133
  864MOL0     C19158   6.840   7.885   4.371 -0.0344 -1.0956  0.1683
  864MOL0     C19159   6.949   7.914   4.425  0.5796 -0.4288 -0.3268
  864MOL0     C19160   6.497   7.817   4.879  0.0065 -0.0424  0.0078
  864MOL0     C19161   6.570   7.763   4.983 -0.4517  0.3535 -0.7180
  864MOL0     C19162   6.496   7.733   5.108 -0.1837 -0.0224  0.4344
  864MOL0     H19163   7.139   7.613   4.907  0.1637 -1.5256 -0.9292
  864MOL0     H19164   7.352   7.553   5.024  0.4465 -0.6336 -1.0994
  864MOL0     H19165   7.337   7.553   5.449 -1.2187  0.0697 -2.5267
  864MOL0     H19166   7.416   7.644   5.317  1.0655  0.0496 -1.3451
  864MOL0     H19167   7.552   7.559   5.530  0.6110  1.0881 -0.5429
  864MOL0     H19168   7.554   7.401   5.457  1.4901  0.0626  0.0011
  864MOL0     H19169   7.679   7.493   5.262  2.1990  2.0405 -2.3369
  864MOL0     H19170   7.677   7.656   5.345  1.9620 -0.0112  0.8155
  864MOL0     H19171   7.805   7.570   5.533 -0.8428  0.7767  0.0233
  864MOL0     H19172   7.816   7.411   5.454  0.9542  0.8728  0.2477
  864MOL0     H19173   7.891   7.655   5.312 -0.0243 -0.9281  0.5179
  864MOL0     H19174   7.928   7.490   5.255  0.5922 -2.6880  1.4777
  864MOL0     H19175   8.014   7.625   5.510 -3.1205 -0.5501  0.6983
  864MOL0     H19176   8.046   7.453   5.468 -0.0336 -1.0230 -2.4717
  864MOL0     H19177   8.156   7.686   5.317 -2.7117  0.9556  2.9722
  864MOL0     H19178   8.161   7.517   5.257 -1.0488  2.5347 -1.5767
  864MOL0     H19179   8.283   7.609   5.529 -1.8074 -2.3024  1.0529
  864MOL0     H19180   8.306   7.453   5.449 -5.4068 -1.0122  0.9219
  864MOL0     H19181   8.443   7.499   5.190 -0.0375 -2.1803  3.8258
  864MOL0     H19182   8.727   7.772   5.109 -0.6450  1.1780  1.0355
  864MOL0     H19183   8.618   7.650   5.031 -1.8230 -1.4772  1.5852
  864MOL0     H19184   8.831   7.571   5.231 -0.1482 -0.9565 -0.0636
  864MOL0     H19185   8.727   7.463   5.142  0.1725 -0.2695 -1.0481
  864MOL0     H19186   8.823   7.535   4.932  0.0074 -0.3253  0.1684
  864MOL0     H19187   8.929   7.647   5.006 -0.7131  0.6797  2.6291
  864MOL0     H19188   9.039   7.469   5.130 -1.6490 -0.3861  0.6406
  864MOL0     H19189   8.944   7.345   5.033  1.0141  0.3122 -0.0656
  864MOL0     H19190   9.106   7.202   4.990 -0.7767  0.8546 -0.1327
  864MOL0     H19191   9.378   7.019   5.120 -1.3439  0.4207  0.9231
  864MOL0     H19192   9.348   6.992   4.949  1.5228 -1.2521  1.3894
  864MOL0     H19193   9.217   7.023   5.056  0.4612 -1.4138 -0.4292
  864MOL0     H19194   9.810   7.192   4.840  2.1641 -0.7343 -1.4546
  864MOL0     H19195  10.051   7.101   4.854  0.2667 -0.6333  0.8665
  864MOL0     H19196  10.357   7.298   5.040 -2.3268 -0.6690 -2.2028
  864MOL0     H19197  10.301   7.209   5.186 -0.8342  3.2800 -0.0152
  864MOL0     H19198  10.432   7.018   5.122  1.7172  0.3832  0.2162
  864MOL0     H19199  10.483   7.095   4.967 -0.0713  1.1020  0.0470
  864MOL0     H19200  10.525   7.216   5.239 -2.2320 -0.6711 -0.1350
  864MOL0     H19201  10.602   7.269   5.097  0.9186  0.3265  0.1761
  864MOL0     H19202  10.652   7.000   5.232 -2.2416  2.1059  1.9340
  864MOL0     H19203  10.757   7.141   5.220 -2.3352  1.4473  2.7079
  864MOL0     H19204  10.665   6.951   4.996  1.0304 -0.3385 -2.1422
  864MOL0     H19205  10.757   7.096   4.960 -0.7964  1.1739  0.7378
  864MOL0     H19206  10.859   6.874   5.132 -1.4670 -1.9226 -2.4617
  864MOL0     H19207  10.961   7.011   5.086  0.2119 -0.1233 -1.5056
  864MOL0     H19208  10.911   6.940   4.841 -2.3316  0.4076  1.1511
  864MOL0     H19209  10.829   6.800   4.903 -3.0137  1.8907  0.8474
  864MOL0     H19210  11.031   6.731   5.029 -0.9066  3.8410  2.6848
  864MOL0     H19211  11.129   6.848   4.961  0.5963 -1.4962 -0.2939
  864MOL0     H19212  10.107   7.267   5.227  3.3219  0.0584 -1.9716
  864MOL0     H19213   9.875   7.359   5.225  0.6064 -2.1809  1.7842
  864MOL0     H19214   9.525   7.483   4.976 -1.1689  2.0397 -0.2582
  864MOL0     H19215   9.303   7.574   4.918 -0.3658  0.0102  1.1124
  864MOL0     H19216   7.141   7.425   5.357  0.0157  0.7358  0.2344
  864MOL0     H19217   6.924   7.484   5.258  1.1637  0.6616  0.7589
  864MOL0     H19218   6.856   7.712   4.794  0.9754  1.9956  3.2624
  864MOL0     H19219   6.723   7.778   4.619  0.5838 -0.5500 -0.0850
  864MOL0     H19220   6.533   7.752   4.500  0.7572 -0.4746  3.2171
  864MOL0     H19221   6.369   7.816   4.467  1.4168 -0.2025 -2.3317
  864MOL0     H19222   6.614   7.997   4.511 -0.7001  1.4302 -1.1561
  864MOL0     H19223   6.453   8.035   4.449 -0.1491 -0.0030  0.6581
  864MOL0     H19224   6.504   7.889   4.265 -1.8171  0.6487  1.7065
  864MOL0     H19225   6.612   8.039   4.271  1.8727 -0.2126  0.6211
  864MOL0     H19226   6.740   7.840   4.193  2.7119  1.1585 -0.2289
  864MOL0     H19227   6.681   7.755   4.337  0.5608  0.1994  1.7874
  864MOL0     H19228   7.042   7.924   4.476  1.1439  0.2839 -1.4598
  864MOL0     H19229   6.395   7.838   4.910  0.2456 -0.3984  1.0793
  864MOL0     H19230   6.544   7.781   5.193  0.5758  0.6195 -0.3374
  864MOL0     H19231   6.391   7.761   5.097 -0.9399 -2.9168 -0.7324
  864MOL0     H19232   6.491   7.624   5.120 -1.1728 -0.1006 -0.5426
  865MOL0     O19233   4.978   2.260   8.831  0.0815  0.1721  0.0567
  865MOL0     C19234   4.939   2.375   8.809 -0.3848 -0.2902 -0.8339
  865MOL0     O19235   5.024   2.481   8.793  0.2271  0.2013 -0.4414
  865MOL0     C19236   5.161   2.449   8.804  0.6801  0.7992  0.2036
  865MOL0     C19237   5.222   2.368   8.705 -0.1068 -0.0518  0.1512
  865MOL0     C19238   5.362   2.354   8.715 -0.1465  0.2865 -0.3218
  865MOL0     C19239   5.433   2.422   8.814 -0.3722 -0.8556 -0.1891
  865MOL0     O19240   5.567   2.438   8.819 -0.0994  0.0256  0.3110
  865MOL0     C19241   5.633   2.427   8.697 -0.2554 -0.4573 -0.0593
  865MOL0     C19242   5.775   2.461   8.702  0.8033 -1.0237  0.0201
  865MOL0     C19243   5.788   2.615   8.727  0.7793  0.0108  0.4650
  865MOL0     C19244   5.929   2.651   8.780  0.5408  0.7268 -0.3662
  865MOL0     C19245   5.940   2.791   8.824  0.2081 -0.7277 -0.0406
  865MOL0     C19246   6.072   2.816   8.895  0.6594  0.2292  0.6611
  865MOL0     C19247   6.083   2.968   8.919 -0.1148  0.1860 -0.2279
  865MOL0     C19248   6.196   3.000   9.017 -0.8564  0.3150  0.2053
  865MOL0     N19249   6.238   3.142   9.019  0.6051  0.1537  0.4001
  865MOL0     C19250   6.298   3.217   8.921  0.0290  0.3178  0.0724
  865MOL0     C19251   6.310   3.339   8.969 -0.8727 -0.4872 -0.1578
  865MOL0     C19252   6.374   3.443   8.888  0.0132 -0.2651  0.1660
  865MOL0     C19253   6.532   3.453   8.914  0.1656  0.2875  0.2860
  865MOL0     C19254   6.591   3.559   8.817 -0.1541 -0.5959  0.1765
  865MOL0     C19255   6.733   3.611   8.862  0.1780 -0.1634 -0.3984
  865MOL0     O19256   6.841   3.514   8.829  0.5033 -0.5272 -0.3447
  865MOL0     C19257   6.973   3.555   8.834 -0.3923 -0.6487  0.8147
  865MOL0     C19258   7.019   3.673   8.889  0.2544 -0.2484  0.9262
  865MOL0     C19259   7.155   3.704   8.885 -0.4619  0.4390 -0.5805
  865MOL0     C19260   7.196   3.834   8.939 -0.5897 -0.0122  0.1805
  865MOL0     C19261   7.247   3.616   8.814  0.6561 -0.9386  1.0133
  865MOL0     C19262   7.390   3.646   8.795  0.5845  0.5600  0.2054
  865MOL0     O19263   7.451   3.713   8.898  0.4821 -0.5674 -0.1935
  865MOL0     C19264   7.581   3.685   8.943  0.2094 -0.1094 -1.5250
  865MOL0     C19265   7.639   3.770   9.038  0.8100 -0.4286  1.1857
  865MOL0     C19266   7.769   3.748   9.088  0.6618 -0.4276 -0.7491
  865MOL0     C19267   7.851   3.643   9.044  0.6879 -0.7919 -0.5927
  865MOL0     O19268   7.977   3.615   9.089  0.6617 -0.1954  0.1790
  865MOL0     C19269   8.025   3.681   9.204  0.1346  0.0306 -0.0295
  865MOL0     C19270   8.167   3.627   9.233  0.1274  0.5678 -0.0781
  865MOL0     C19271   8.245   3.598   9.106  0.5308  0.5279  0.5094
  865MOL0     C19272   8.396   3.591   9.128 -0.3475  0.0915  0.1338
  865MOL0     C19273   8.445   3.491   9.231  0.2548  0.9517  0.5439
  865MOL0     C19274   8.604   3.484   9.219 -0.2000  0.3300  0.2622
  865MOL0     C19275   8.671   3.382   9.315  0.3338 -0.2545 -0.3591
  865MOL0     C19276   8.818   3.354   9.297 -0.3216 -1.2709  0.1337
  865MOL0    Cl19277   8.904   3.502   9.333 -0.4368  0.3181  0.0396
  865MOL0     C19278   7.785   3.548   8.957  0.2610  0.3260  0.2312
  865MOL0     C19279   7.658   3.573   8.908 -0.2097  0.8523 -0.5004
  865MOL0     O19280   7.442   3.598   8.690  0.9741 -0.2243 -0.1332
  865MOL0     C19281   7.199   3.500   8.763  0.6361 -0.7167  0.0017
  865MOL0     C19282   7.064   3.473   8.779  0.3771  0.2421 -0.3101
  865MOL0     N19283   6.255   3.345   9.101 -0.6913 -0.3397  0.3618
  865MOL0     N19284   6.230   3.218   9.129  0.0431 -0.5847  0.8705
  865MOL0     C19285   5.363   2.502   8.905 -0.7302 -0.5545  0.7924
  865MOL0     C19286   5.231   2.510   8.903 -0.1732  0.7478  0.1552
  865MOL0     C19287   4.796   2.398   8.797  0.7333  0.5543 -0.3264
  865MOL0     C19288   4.713   2.292   8.760 -0.4831 -1.4261 -0.3363
  865MOL0     C19289   4.580   2.318   8.721 -0.1646  0.2669 -0.1092
  865MOL0     C19290   4.524   2.446   8.736  0.2248 -0.5373 -0.4033
  865MOL0     O19291   4.393   2.469   8.706 -0.2715  0.2701 -0.4618
  865MOL0     C19292   4.381   2.531   8.576 -0.7118  0.3155  0.4223
  865MOL0     C19293   4.230   2.506   8.544 -0.9708  0.9944  0.2552
  865MOL0     C19294   4.211   2.559   8.402  0.5172 -0.3098 -0.3483
  865MOL0     C19295   4.069   2.550   8.352 -0.1206  1.3081 -0.6156
  865MOL0     C19296   3.981   2.626   8.428  0.8610  0.0240 -0.0639
  865MOL0     C19297   3.904   2.699   8.486  0.0477 -0.0109 -0.2866
  865MOL0     C19298   4.598   2.549   8.780 -0.4458  0.5749  0.1071
  865MOL0     C19299   4.732   2.528   8.814 -0.5747  0.1131  0.7212
  865MOL0     C19300   4.810   2.643   8.872  0.4692  0.4276  1.0618
  865MOL0     H19301   5.169   2.315   8.627  0.5912  1.6292 -1.5306
  865MOL0     H19302   5.404   2.290   8.638  0.5454  0.6300 -0.2295
  865MOL0     H19303   5.583   2.493   8.625 -0.2107 -1.5810 -1.1506
  865MOL0     H19304   5.641   2.325   8.658  1.0071 -0.0663 -0.9070
  865MOL0     H19305   5.835   2.404   8.773  2.3924 -0.1876 -0.5968
  865MOL0     H19306   5.821   2.451   8.603  1.8368 -0.8526  0.4749
  865MOL0     H19307   5.781   2.662   8.628 -0.4705 -1.5359 -0.2341
  865MOL0     H19308   5.710   2.657   8.791  1.3428  2.3671 -0.3083
  865MOL0     H19309   5.970   2.579   8.851 -0.6780  0.6476  0.2746
  865MOL0     H19310   5.987   2.643   8.687 -0.1636 -0.0545 -0.7543
  865MOL0     H19311   5.853   2.826   8.880  0.8287 -0.8699  1.0375
  865MOL0     H19312   5.939   2.855   8.735 -2.4164  1.3991  1.3577
  865MOL0     H19313   6.052   2.760   8.987 -2.6889  1.4780  0.8489
  865MOL0     H19314   6.158   2.789   8.834 -0.3592  2.4782 -1.9928
  865MOL0     H19315   5.987   3.008   8.955 -2.0372 -0.0204 -4.4930
  865MOL0     H19316   6.104   3.024   8.828 -0.5888  0.4812 -0.1612
  865MOL0     H19317   6.172   2.968   9.119 -1.2578  2.0955  0.7018
  865MOL0     H19318   6.290   2.950   8.993  0.3380  1.6708  1.7592
  865MOL0     H19319   6.341   3.191   8.825  2.7839  3.8193  0.1428
  865MOL0     H19320   6.325   3.541   8.887 -2.4200 -1.3406 -2.0243
  865MOL0     H19321   6.360   3.412   8.784  1.6910 -1.6999  0.3371
  865MOL0     H19322   6.548   3.474   9.020 -1.5680 -0.4200  0.7207
  865MOL0     H19323   6.574   3.358   8.879 -2.2252 -1.6410  2.3040
  865MOL0     H19324   6.575   3.516   8.718 -2.5120  0.4658  0.0104
  865MOL0     H19325   6.527   3.648   8.822 -0.1239 -0.6263  2.0598
  865MOL0     H19326   6.741   3.711   8.820 -1.4697 -0.1878 -0.8169
  865MOL0     H19327   6.737   3.627   8.970  3.1204 -1.0529 -0.2868
  865MOL0     H19328   6.952   3.727   8.955 -0.7150  0.0494 -0.2634
  865MOL0     H19329   7.110   3.879   8.991 -1.8883 -2.5059  0.3221
  865MOL0     H19330   7.230   3.893   8.854  1.3603 -1.2536  0.0386
  865MOL0     H19331   7.280   3.827   9.009  1.9796 -0.2177 -2.7180
  865MOL0     H19332   7.569   3.847   9.069 -1.7253 -1.1368 -2.1752
  865MOL0     H19333   7.814   3.812   9.164  1.3749 -0.9132 -0.7552
  865MOL0     H19334   8.032   3.789   9.187  1.3349 -0.0664 -0.2737
  865MOL0     H19335   7.969   3.661   9.296  1.4411 -0.6518  0.6453
  865MOL0     H19336   8.222   3.700   9.293  1.0237 -0.6326  0.6007
  865MOL0     H19337   8.157   3.536   9.292 -2.4204  1.1444  0.5153
  865MOL0     H19338   8.231   3.676   9.031  0.4401 -2.0368 -2.3363
  865MOL0     H19339   8.218   3.505   9.056  3.2105 -0.2350  0.3338
  865MOL0     H19340   8.429   3.693   9.155  1.7347 -0.5558  0.2086
  865MOL0     H19341   8.425   3.574   9.024 -1.2666  1.4923 -0.3870
  865MOL0     H19342   8.401   3.516   9.328 -1.0184  0.1482  0.1909
  865MOL0     H19343   8.406   3.394   9.198  1.8198  0.3934  0.2521
  865MOL0     H19344   8.648   3.581   9.240  1.2671 -0.0796 -0.7472
  865MOL0     H19345   8.637   3.458   9.118 -0.9390  2.0612 -0.4539
  865MOL0     H19346   8.622   3.285   9.301 -1.5116 -0.2074  4.0585
  865MOL0     H19347   8.646   3.419   9.415 -2.9015 -1.4130 -0.6050
  865MOL0     H19348   8.842   3.330   9.193 -2.8738  0.6167 -1.0036
  865MOL0     H19349   8.853   3.273   9.362  0.0548  0.6429  2.4895
  865MOL0     H19350   7.847   3.468   8.918 -0.0509  0.7096 -1.0856
  865MOL0     H19351   7.623   3.503   8.833  1.8062 -1.1077  0.2458
  865MOL0     H19352   7.255   3.428   8.704  0.8143 -1.4395  1.0272
  865MOL0     H19353   7.026   3.380   8.737  1.2103 -0.5122  0.5557
  865MOL0     H19354   5.421   2.564   8.973  1.8215  0.5463 -2.1351
  865MOL0     H19355   5.190   2.571   8.982 -1.5546 -1.6457  1.4090
  865MOL0     H19356   4.746   2.189   8.755 -1.3671 -1.7774  0.8788
  865MOL0     H19357   4.508   2.241   8.700 -0.0515  0.9053 -3.3838
  865MOL0     H19358   4.405   2.638   8.573 -2.7203  0.7904 -0.0041
  865MOL0     H19359   4.444   2.481   8.502 -0.6517 -1.1828  1.4511
  865MOL0     H19360   4.188   2.574   8.618  2.3053  1.6766  1.6543
  865MOL0     H19361   4.213   2.399   8.557  1.8012  0.7300  2.8260
  865MOL0     H19362   4.246   2.661   8.382 -1.6574  0.7384  0.7554
  865MOL0     H19363   4.275   2.502   8.335  2.1483  1.2214 -0.1781
  865MOL0     H19364   4.041   2.448   8.380  1.0702  0.6146 -1.8063
  865MOL0     H19365   4.049   2.570   8.246 -1.3437 -1.3952 -0.9750
  865MOL0     H19366   3.826   2.758   8.529 -0.7587 -1.1784 -0.0989
  865MOL0     H19367   4.548   2.639   8.816  0.6347  0.7363  1.2857
  865MOL0     H19368   4.863   2.605   8.961  0.5949 -1.1015  0.3644
  865MOL0     H19369   4.879   2.681   8.797 -0.2514 -0.2451  0.0313
  865MOL0     H19370   4.754   2.727   8.915 -0.5659  0.0764  0.4274
  866MOL0     O19371   2.888   6.288   2.869  0.1388 -0.4784  0.1800
  866MOL0     C19372   2.766   6.307   2.875 -0.3531  1.5405 -1.4203
  866MOL0     O19373   2.680   6.235   2.953  0.1296  0.2810 -0.2775
  866MOL0     C19374   2.703   6.120   3.029 -0.1177  0.1040  0.1114
  866MOL0     C19375   2.825   6.051   3.023 -0.1940  0.5978  0.8513
  866MOL0     C19376   2.843   5.942   3.099 -1.4183 -0.8541 -0.1482
  866MOL0     C19377   2.742   5.885   3.172 -1.0540  0.5309  0.1902
  866MOL0     O19378   2.773   5.766   3.246  0.4064  0.1858  0.0869
  866MOL0     C19379   2.669   5.677   3.306 -0.6855 -0.1457  1.1127
  866MOL0     C19380   2.714   5.542   3.363  0.2085 -0.4778  0.2265
  866MOL0     C19381   2.759   5.440   3.253 -0.8180  0.1493 -0.8610
  866MOL0     C19382   2.816   5.320   3.333  0.3778 -0.0706  0.2602
  866MOL0     C19383   2.813   5.174   3.273 -0.0564  0.2739  0.5522
  866MOL0     C19384   2.839   5.174   3.123  0.1386  0.8454  0.1068
  866MOL0     C19385   2.798   5.044   3.049 -0.0629 -0.2933 -0.6734
  866MOL0     C19386   2.809   5.057   2.896  0.6851  1.0920  0.5241
  866MOL0     N19387   2.762   4.925   2.846 -0.0662  0.2404 -0.1175
  866MOL0     C19388   2.828   4.807   2.853  0.3041  0.8158 -0.2422
  866MOL0     C19389   2.727   4.720   2.801 -0.4992 -0.1234 -0.4835
  866MOL0     C19390   2.752   4.572   2.790  0.2768  0.3733  0.2906
  866MOL0     C19391   2.867   4.545   2.696  0.2016 -0.0010  0.7902
  866MOL0     C19392   2.888   4.399   2.670  0.0607  0.2186 -0.2129
  866MOL0     C19393   3.018   4.388   2.584  0.0513  0.0679 -0.3077
  866MOL0     O19394   3.040   4.251   2.558 -0.3137  0.6089  0.1254
  866MOL0     C19395   3.163   4.188   2.560  1.0716 -1.0931 -0.1992
  866MOL0     C19396   3.288   4.249   2.546  0.4541 -0.1872  0.3405
  866MOL0     C19397   3.405   4.179   2.553 -0.5980 -0.0250 -0.2068
  866MOL0     C19398   3.544   4.243   2.541 -0.1427 -0.2173  0.5330
  866MOL0     C19399   3.399   4.038   2.571  0.2999  0.1812  0.2568
  866MOL0     C19400   3.516   3.952   2.579  1.1696 -0.4923 -0.4031
  866MOL0     O19401   3.526   3.887   2.695  0.3173 -0.2161 -0.4613
  866MOL0     C19402   3.643   3.819   2.737  0.2971  0.4245 -0.8244
  866MOL0     C19403   3.615   3.730   2.845 -0.0263 -0.0693 -0.5588
  866MOL0     C19404   3.715   3.662   2.920  0.7943  0.5903  0.1558
  866MOL0     C19405   3.845   3.678   2.869 -0.5399 -0.2351 -0.3044
  866MOL0     O19406   3.950   3.614   2.929 -0.7010  0.0833  0.6579
  866MOL0     C19407   3.929   3.492   3.000  0.5602 -0.2142 -0.4237
  866MOL0     C19408   4.056   3.421   3.050  0.4503  1.4788 -0.4049
  866MOL0     C19409   4.144   3.383   2.934 -0.0339  0.6633  0.8175
  866MOL0     C19410   4.106   3.239   2.903 -0.7770 -0.2191 -0.2230
  866MOL0     C19411   4.184   3.195   2.784 -0.3397  0.2420 -0.1780
  866MOL0     C19412   4.196   3.043   2.765  0.4694 -0.0141 -0.3750
  866MOL0     C19413   4.228   3.001   2.627  0.0782  0.1310  0.9519
  866MOL0     C19414   4.112   3.026   2.523 -0.9120  0.3183 -0.3169
  866MOL0    Cl19415   4.163   3.068   2.367  0.5636  0.0280  0.3057
  866MOL0     C19416   3.870   3.748   2.757 -0.1015  0.6067 -0.4400
  866MOL0     C19417   3.770   3.827   2.687 -0.5874  0.3085  0.6551
  866MOL0     O19418   3.581   3.934   2.476  0.3078  0.4739 -0.3853
  866MOL0     C19419   3.271   3.977   2.590 -0.2442  0.2403 -0.0793
  866MOL0     C19420   3.154   4.057   2.588  0.4532 -0.3298 -1.0428
  866MOL0     N19421   2.611   4.788   2.779  0.1023 -0.2342  0.0874
  866MOL0     N19422   2.634   4.913   2.811 -0.1957  0.7021  0.0080
  866MOL0     C19423   2.618   5.950   3.187 -0.0484 -0.4030  0.5003
  866MOL0     C19424   2.599   6.068   3.111 -0.8007 -0.0645 -0.1542
  866MOL0     C19425   2.697   6.400   2.790  0.0879  1.0038 -0.1266
  866MOL0     C19426   2.554   6.386   2.775 -1.4654 -0.6320  0.5232
  866MOL0     C19427   2.476   6.470   2.695 -0.1249  1.3191  0.9295
  866MOL0     C19428   2.529   6.582   2.638 -0.1943  0.5620  0.4007
  866MOL0     O19429   2.459   6.675   2.565 -0.1711 -0.1445 -0.0287
  866MOL0     C19430   2.316   6.689   2.575  0.7223  0.1321  1.0537
  866MOL0     C19431   2.270   6.734   2.713 -0.5761  0.1814 -0.3278
  866MOL0     C19432   2.325   6.873   2.743 -0.3241  1.6863  0.3832
  866MOL0     C19433   2.299   6.898   2.886 -0.2166 -0.9546 -0.1632
  866MOL0     C19434   2.157   6.899   2.906  0.1963  0.5893  0.7426
  866MOL0     C19435   2.045   6.888   2.938 -1.0107  0.9993 -0.1541
  866MOL0     C19436   2.672   6.607   2.652 -0.1924  0.7356 -0.5286
  866MOL0     C19437   2.756   6.500   2.710  0.0690  0.3234 -0.0985
  866MOL0     C19438   2.911   6.528   2.705  1.1107 -0.2764  0.0992
  866MOL0     H19439   2.907   6.082   2.960  0.7326 -0.0610  1.7054
  866MOL0     H19440   2.936   5.887   3.091 -0.5314  0.3661  1.3175
  866MOL0     H19441   2.593   5.657   3.230  1.4171  0.7420 -1.3950
  866MOL0     H19442   2.624   5.738   3.384 -0.4884 -1.4294  2.2629
  866MOL0     H19443   2.795   5.564   3.434  2.5600 -2.6738 -1.5442
  866MOL0     H19444   2.621   5.499   3.401  2.1731 -5.1741  0.4704
  866MOL0     H19445   2.674   5.394   3.201  1.1428 -2.5522 -1.8968
  866MOL0     H19446   2.827   5.493   3.186  0.2526  1.8978  1.4878
  866MOL0     H19447   2.921   5.345   3.348  0.2698  1.9297 -1.8226
  866MOL0     H19448   2.760   5.301   3.425 -0.3826 -1.3777 -0.4339
  866MOL0     H19449   2.713   5.132   3.286  0.4139 -0.7005  1.1493
  866MOL0     H19450   2.881   5.112   3.333 -0.4022  0.9052  1.6192
  866MOL0     H19451   2.777   5.249   3.075  0.5137  1.5609  0.7155
  866MOL0     H19452   2.942   5.203   3.100 -0.6517  2.5808 -1.4204
  866MOL0     H19453   2.693   5.021   3.070  0.0149  1.3468  1.9192
  866MOL0     H19454   2.865   4.966   3.086 -2.8120 -1.6956  1.7244
  866MOL0     H19455   2.751   5.143   2.860  1.5503  2.3208  1.9236
  866MOL0     H19456   2.911   5.081   2.867  0.5030  2.7376  1.1149
  866MOL0     H19457   2.931   4.792   2.882  0.7473  3.4443 -0.2110
  866MOL0     H19458   2.657   4.528   2.759  0.8063 -0.0716 -0.7588
  866MOL0     H19459   2.778   4.529   2.887  0.0329  0.7841  0.5395
  866MOL0     H19460   2.851   4.592   2.598  3.1507  1.1353  0.7532
  866MOL0     H19461   2.959   4.592   2.732  1.1473  2.0186 -3.5223
  866MOL0     H19462   2.906   4.338   2.759  0.8476  0.5499 -0.1423
  866MOL0     H19463   2.808   4.357   2.608  0.6882 -0.2250 -0.7307
  866MOL0     H19464   2.989   4.444   2.495 -1.0836  2.9451  1.7313
  866MOL0     H19465   3.103   4.430   2.638 -1.2314  1.3232  0.8184
  866MOL0     H19466   3.299   4.354   2.522  0.0627  0.2476  1.9910
  866MOL0     H19467   3.632   4.187   2.573  1.7775  0.7105 -2.6471
  866MOL0     H19468   3.545   4.334   2.602 -2.8761 -1.5769  2.8459
  866MOL0     H19469   3.560   4.268   2.436  4.2514 -2.0634  0.5368
  866MOL0     H19470   3.518   3.722   2.894  0.3605 -2.5447 -0.0606
  866MOL0     H19471   3.690   3.613   3.013  2.2846 -0.2650  0.1408
  866MOL0     H19472   3.874   3.522   3.089  2.1031 -0.9926  0.8305
  866MOL0     H19473   3.863   3.423   2.946 -2.5822  0.4820  2.1990
  866MOL0     H19474   4.111   3.486   3.118 -2.6160  0.3573  3.5237
  866MOL0     H19475   4.020   3.333   3.105 -0.8057  0.1319 -3.1864
  866MOL0     H19476   4.252   3.393   2.950 -0.0049  1.8021  0.0239
  866MOL0     H19477   4.135   3.443   2.843  0.2519  0.5317  0.7001
  866MOL0     H19478   4.000   3.255   2.879 -1.5760  0.2585  3.1578
  866MOL0     H19479   4.114   3.173   2.990 -0.0849  0.3131  0.1270
  866MOL0     H19480   4.142   3.244   2.696  1.0156 -0.7350 -1.4231
  866MOL0     H19481   4.277   3.251   2.792 -0.8286  1.5338 -2.4929
  866MOL0     H19482   4.098   3.007   2.798  0.0849 -0.2094 -1.6733
  866MOL0     H19483   4.268   3.003   2.838  0.7956  0.2742 -0.5390
  866MOL0     H19484   4.237   2.892   2.621 -2.8411 -0.1399  0.3129
  866MOL0     H19485   4.322   3.045   2.592 -0.0508 -0.2721  0.0819
  866MOL0     H19486   4.056   3.111   2.561 -0.0968  0.3696  0.8097
  866MOL0     H19487   4.044   2.940   2.518  0.9258 -1.4708  2.5513
  866MOL0     H19488   3.970   3.735   2.718 -0.9103 -0.9478 -2.1526
  866MOL0     H19489   3.792   3.886   2.599  2.0025 -0.7793  0.4827
  866MOL0     H19490   3.263   3.871   2.614  3.8727 -0.1311  0.3954
  866MOL0     H19491   3.063   4.001   2.602  0.9459 -0.8511  0.2105
  866MOL0     H19492   2.540   5.909   3.250  1.1103 -2.7803  0.5226
  866MOL0     H19493   2.497   6.105   3.112 -1.1808 -1.0641  1.4520
  866MOL0     H19494   2.500   6.306   2.826  0.0260 -2.5808 -0.7899
  866MOL0     H19495   2.369   6.461   2.686  0.0557  1.1627 -2.8156
  866MOL0     H19496   2.287   6.766   2.504  0.8451 -0.3747  0.4421
  866MOL0     H19497   2.272   6.595   2.538  0.1177  2.0263 -3.7246
  866MOL0     H19498   2.302   6.660   2.787 -0.4515  0.0848 -0.4757
  866MOL0     H19499   2.161   6.733   2.704 -0.7447  0.5181  1.3417
  866MOL0     H19500   2.433   6.882   2.727 -0.2765  2.8578  1.2036
  866MOL0     H19501   2.259   6.946   2.695 -1.2286  0.7179  0.1178
  866MOL0     H19502   2.337   6.995   2.918 -3.3736 -0.0462  1.2363
  866MOL0     H19503   2.349   6.817   2.941 -0.6076 -1.0343  0.0777
  866MOL0     H19504   1.938   6.887   2.949 -0.9380  2.6523  1.0287
  866MOL0     H19505   2.728   6.691   2.613  2.1598 -0.1486  0.7467
  866MOL0     H19506   2.955   6.438   2.661  3.6796  1.1766 -0.5117
  866MOL0     H19507   2.938   6.614   2.643 -2.4288  0.7428 -0.2254
  866MOL0     H19508   2.935   6.542   2.811 -0.6652 -0.0060  0.4939
  867MOL0     O19509   7.579   8.808   7.119  0.2169  0.1411 -0.4301
  867MOL0     C19510   7.533   8.809   7.238  0.5870 -0.6338 -0.6592
  867MOL0     O19511   7.608   8.834   7.343  0.0596  0.3381  0.1775
  867MOL0     C19512   7.740   8.866   7.326 -1.0906  0.3824  0.0845
  867MOL0     C19513   7.834   8.781   7.377 -0.0269 -0.4296 -0.2000
  867MOL0     C19514   7.971   8.820   7.375  0.4681  0.8093  0.7891
  867MOL0     C19515   8.013   8.939   7.317  0.0554 -0.1058  0.1977
  867MOL0     O19516   8.150   8.959   7.309 -0.3344 -1.1824 -0.1273
  867MOL0     C19517   8.199   9.012   7.180 -0.6371  0.4384 -0.0105
  867MOL0     C19518   8.183   8.911   7.068  0.5594 -0.5165 -0.7129
  867MOL0     C19519   8.234   8.769   7.123 -0.8666  0.0696  0.7959
  867MOL0     C19520   8.282   8.675   7.008 -0.4271  0.2199 -0.5797
  867MOL0     C19521   8.298   8.534   7.077 -0.3508 -0.8438  0.2730
  867MOL0     C19522   8.443   8.500   7.119 -0.5503  0.7223  0.0119
  867MOL0     C19523   8.458   8.346   7.145  1.3192 -1.2990 -0.2653
  867MOL0     C19524   8.550   8.323   7.266 -0.0144  1.4163 -0.2247
  867MOL0     N19525   8.685   8.381   7.265 -0.5492 -0.9054  0.1216
  867MOL0     C19526   8.728   8.513   7.250  0.9831 -0.0073 -0.0118
  867MOL0     C19527   8.865   8.506   7.261  0.1163  0.1601 -0.1335
  867MOL0     C19528   8.964   8.621   7.249  0.3206 -0.1227 -0.6512
  867MOL0     C19529   9.113   8.581   7.228 -0.0359 -0.0281 -0.4614
  867MOL0     C19530   9.207   8.701   7.231 -0.5435 -0.4453 -0.3055
  867MOL0     C19531   9.359   8.658   7.239 -0.3921  0.7763 -0.1507
  867MOL0     O19532   9.435   8.776   7.239  0.1327 -0.5076 -0.2353
  867MOL0     C19533   9.576   8.766   7.238  1.2267 -0.3507  0.4969
  867MOL0     C19534   9.655   8.655   7.258  0.0299 -0.3379  0.4574
  867MOL0     C19535   9.796   8.662   7.279 -0.1571  0.7921  0.3766
  867MOL0     C19536   9.864   8.532   7.283 -0.0736  0.0588 -0.8271
  867MOL0     C19537   9.865   8.791   7.264  0.9607  0.4055 -1.1068
  867MOL0     C19538  10.014   8.817   7.281 -0.5983 -0.5451  0.4512
  867MOL0     O19539  10.048   8.939   7.338  0.0943 -0.0530  0.6604
  867MOL0     C19540  10.183   8.970   7.328  0.1101  0.1096 -0.0572
  867MOL0     C19541  10.219   9.058   7.224  0.5754  0.0204 -0.6646
  867MOL0     C19542  10.347   9.103   7.213  0.0770  0.3227  0.5064
  867MOL0     C19543  10.449   9.046   7.289  1.1023 -0.0857 -0.4485
  867MOL0     O19544  10.585   9.082   7.280 -0.0257 -0.1120 -0.1152
  867MOL0     C19545  10.639   9.168   7.177  0.2537  0.4400 -0.1058
  867MOL0     C19546  10.784   9.212   7.212  0.9271  0.2070 -0.6559
  867MOL0     C19547  10.885   9.099   7.215 -0.0501  0.2264  0.7849
  867MOL0     C19548  11.018   9.158   7.231 -0.2243  0.0176 -0.5144
  867MOL0     C19549  11.135   9.052   7.201  0.5207  0.1803 -0.0441
  867MOL0     C19550  11.276   9.096   7.237 -0.5536  0.2205 -0.6412
  867MOL0     C19551  11.384   8.991   7.215  0.0871 -0.3921 -0.3986
  867MOL0     C19552  11.524   9.050   7.208 -0.2036  1.3613 -0.5967
  867MOL0    Cl19553  11.577   9.129   7.360  0.6945 -0.3618  0.3567
  867MOL0     C19554  10.411   8.940   7.375 -1.0994  0.1934 -0.4898
  867MOL0     C19555  10.285   8.906   7.398 -0.0928 -0.2572  0.0723
  867MOL0     O19556  10.095   8.728   7.259 -0.0331  0.0994 -0.1741
  867MOL0     C19557   9.774   8.898   7.267 -0.9564  0.3632 -0.5496
  867MOL0     C19558   9.638   8.889   7.252 -0.0543  0.0530  0.1037
  867MOL0     N19559   8.901   8.384   7.297  0.2464  0.8443  0.1200
  867MOL0     N19560   8.797   8.306   7.286 -0.2287 -0.6437 -0.6362
  867MOL0     C19561   7.921   9.019   7.257  0.5251 -0.8193  0.4982
  867MOL0     C19562   7.785   8.990   7.266 -0.1818  0.5356  1.5240
  867MOL0     C19563   7.392   8.783   7.267  0.1352 -0.1684  0.1485
  867MOL0     C19564   7.356   8.696   7.372  0.4568  0.0009 -0.8576
  867MOL0     C19565   7.215   8.676   7.400 -0.7908  0.5533  0.6028
  867MOL0     C19566   7.117   8.735   7.309 -1.0051 -0.5045 -0.2361
  867MOL0     O19567   6.986   8.722   7.334 -0.9694 -0.7531 -0.6440
  867MOL0     C19568   6.911   8.847   7.317 -0.0254  0.1385 -0.3307
  867MOL0     C19569   6.800   8.859   7.424 -0.7372 -0.4123 -0.1212
  867MOL0     C19570   6.676   8.770   7.391  0.4123 -1.1574 -0.1530
  867MOL0     C19571   6.687   8.632   7.440  0.1231 -0.5200  0.4277
  867MOL0     C19572   6.563   8.557   7.425  0.4464 -0.0086 -0.2875
  867MOL0     C19573   6.453   8.510   7.407  0.0472 -0.2891  0.2019
  867MOL0     C19574   7.158   8.810   7.204  0.1795 -0.6160  1.0264
  867MOL0     C19575   7.290   8.838   7.172 -0.4035  0.2103 -0.3725
  867MOL0     C19576   7.323   8.941   7.060  0.5041  0.3331 -0.0185
  867MOL0     H19577   7.807   8.692   7.433 -2.9033 -0.4134 -1.3660
  867MOL0     H19578   8.045   8.755   7.420  1.4396  1.9568  0.8978
  867MOL0     H19579   8.302   9.047   7.197 -1.7801  4.3225 -0.1089
  867MOL0     H19580   8.150   9.101   7.139 -1.1529  1.2303  2.1529
  867MOL0     H19581   8.076   8.899   7.048  0.3227  0.7675 -0.3361
  867MOL0     H19582   8.246   8.940   6.983  1.2514  1.4353  0.4018
  867MOL0     H19583   8.314   8.788   7.195  0.3227  4.0715 -1.2853
  867MOL0     H19584   8.153   8.720   7.179 -0.4069 -0.5366  0.9452
  867MOL0     H19585   8.197   8.666   6.941 -1.2229  1.3839  0.2436
  867MOL0     H19586   8.366   8.700   6.943  0.0054 -0.0511 -0.1449
  867MOL0     H19587   8.269   8.470   6.994  1.1816 -0.4661 -0.6002
  867MOL0     H19588   8.223   8.524   7.156 -0.8115  2.7651  0.4574
  867MOL0     H19589   8.513   8.530   7.040  2.2426 -1.2613  1.5528
  867MOL0     H19590   8.487   8.562   7.198 -1.4642  0.3000  0.8714
  867MOL0     H19591   8.491   8.297   7.053 -2.1397  1.7744 -3.5011
  867MOL0     H19592   8.370   8.287   7.174  0.2011  0.0786 -0.7004
  867MOL0     H19593   8.511   8.356   7.363  0.5813  1.5247 -0.0164
  867MOL0     H19594   8.567   8.215   7.263  1.2560  1.6008 -0.0729
  867MOL0     H19595   8.668   8.601   7.229 -1.2380 -1.2631  0.6980
  867MOL0     H19596   8.947   8.684   7.337  0.7427  0.4673 -0.9826
  867MOL0     H19597   8.929   8.682   7.165  2.2740 -1.2101 -2.3572
  867MOL0     H19598   9.148   8.519   7.311  2.0885  1.9167  0.1963
  867MOL0     H19599   9.124   8.537   7.129  0.7437 -0.2009 -0.3058
  867MOL0     H19600   9.197   8.757   7.138 -0.7709 -1.4334 -0.8852
  867MOL0     H19601   9.193   8.770   7.315 -0.4333 -0.3300 -0.3821
  867MOL0     H19602   9.378   8.607   7.335  1.3371  0.8297 -0.4468
  867MOL0     H19603   9.383   8.597   7.152  2.0267 -2.4489  2.4833
  867MOL0     H19604   9.612   8.555   7.252 -0.9209  0.1132 -0.4576
  867MOL0     H19605   9.857   8.490   7.182  1.9857 -0.6150 -0.7537
  867MOL0     H19606   9.821   8.466   7.359  2.2122  2.4536  2.8783
  867MOL0     H19607   9.968   8.533   7.319 -0.8086 -1.4712  1.5603
  867MOL0     H19608  10.129   9.093   7.173 -2.2555 -0.1993  3.6547
  867MOL0     H19609  10.365   9.172   7.132  0.2679 -0.9664 -0.5809
  867MOL0     H19610  10.640   9.112   7.083  0.4317  0.4343 -0.1010
  867MOL0     H19611  10.577   9.258   7.176  1.3573  1.2244  0.3169
  867MOL0     H19612  10.803   9.288   7.136 -1.9301  1.3248 -0.3991
  867MOL0     H19613  10.780   9.273   7.303 -1.1274  0.3507 -0.7955
  867MOL0     H19614  10.872   9.054   7.116 -1.0717 -1.2557  1.5477
  867MOL0     H19615  10.867   9.026   7.295  1.9670  1.2784  2.3120
  867MOL0     H19616  11.031   9.192   7.334  2.8771 -1.7298 -0.1864
  867MOL0     H19617  11.034   9.248   7.171  0.1846  0.8241  0.7649
  867MOL0     H19618  11.128   8.963   7.264  2.4172  1.1116  1.5691
  867MOL0     H19619  11.135   9.031   7.094 -0.1803  2.3242 -0.5253
  867MOL0     H19620  11.279   9.126   7.342  0.8338 -1.0869 -0.2789
  867MOL0     H19621  11.307   9.181   7.175 -3.3572  1.5697 -0.3634
  867MOL0     H19622  11.371   8.938   7.120 -0.6536  0.6704 -0.9092
  867MOL0     H19623  11.370   8.919   7.295 -1.5338  3.4016  3.0833
  867MOL0     H19624  11.521   9.114   7.120 -0.4388  2.1369 -0.0409
  867MOL0     H19625  11.586   8.963   7.188 -0.3445  0.1449  3.4060
  867MOL0     H19626  10.499   8.902   7.425  0.3915  2.1755 -1.4412
  867MOL0     H19627  10.255   8.837   7.476  1.2394 -1.6776 -0.6029
  867MOL0     H19628   9.809   9.000   7.277 -0.2664  0.0401  0.5116
  867MOL0     H19629   9.573   8.976   7.243 -0.8517 -0.3107  1.8584
  867MOL0     H19630   7.941   9.111   7.202 -1.2882  0.2878  1.5871
  867MOL0     H19631   7.711   9.056   7.221 -0.0609  1.2622  2.3376
  867MOL0     H19632   7.437   8.662   7.436  1.7827  1.5983 -1.6247
  867MOL0     H19633   7.195   8.629   7.495  1.8730 -2.8537 -0.3236
  867MOL0     H19634   6.967   8.939   7.333 -0.4223  0.7192 -2.0713
  867MOL0     H19635   6.873   8.847   7.215  1.9149 -0.0873 -1.1035
  867MOL0     H19636   6.767   8.962   7.435  1.7587  0.3264  1.1734
  867MOL0     H19637   6.840   8.833   7.523 -0.2708 -0.2681 -0.2692
  867MOL0     H19638   6.575   8.809   7.412  0.1056 -1.4499 -1.0359
  867MOL0     H19639   6.666   8.758   7.283  3.2355 -1.4736 -0.4412
  867MOL0     H19640   6.703   8.641   7.548 -1.3658 -2.4905  0.8551
  867MOL0     H19641   6.756   8.570   7.382 -1.2794 -1.6278 -0.1032
  867MOL0     H19642   6.364   8.456   7.381  0.1477 -0.5498  0.3972
  867MOL0     H19643   7.075   8.830   7.136 -0.7481  0.0243  2.3203
  867MOL0     H19644   7.232   8.993   7.029  0.2493 -0.7878 -1.2152
  867MOL0     H19645   7.406   9.007   7.089  2.0755 -1.2498 -0.7597
  867MOL0     H19646   7.345   8.880   6.972 -2.3763 -0.6805 -0.1383
  868MOL0     O19647   3.390   1.571  10.316 -0.4223 -0.1690  0.6100
  868MOL0     C19648   3.397   1.690  10.340  0.1040 -0.3825  0.1596
  868MOL0     O19649   3.460   1.737  10.449 -0.8319  0.1865 -0.2790
  868MOL0     C19650   3.514   1.645  10.539 -0.6593  0.0894  1.1942
  868MOL0     C19651   3.442   1.631  10.660  0.3274  0.2151  0.8662
  868MOL0     C19652   3.479   1.537  10.746 -0.9306  1.4491  0.5295
  868MOL0     C19653   3.585   1.446  10.717  0.3206  1.0474  0.5430
  868MOL0     O19654   3.606   1.356  10.819 -0.8345 -0.6414  0.4968
  868MOL0     C19655   3.686   1.249  10.781  0.5720  0.0813 -1.2979
  868MOL0     C19656   3.721   1.153  10.899  0.2007  0.1254  0.3851
  868MOL0     C19657   3.812   1.030  10.860  0.1067  0.2339 -0.4549
  868MOL0     C19658   3.962   1.066  10.852  0.4583  0.3430  0.7702
  868MOL0     C19659   4.047   0.945  10.849 -0.6814  0.1130 -0.2069
  868MOL0     C19660   4.203   0.978  10.837  0.5806 -0.1318 -0.0524
  868MOL0     C19661   4.305   0.860  10.832  0.7436 -0.0375  0.2100
  868MOL0     C19662   4.281   0.763  10.714 -0.6691  0.5774  0.6198
  868MOL0     N19663   4.314   0.808  10.583 -0.8780 -0.2115  0.3356
  868MOL0     C19664   4.439   0.834  10.529 -1.0901  0.3946 -0.3520
  868MOL0     C19665   4.416   0.867  10.401 -0.3567 -0.2040  0.3803
  868MOL0     C19666   4.530   0.922  10.314  0.3135 -0.2999  0.3405
  868MOL0     C19667   4.595   0.802  10.247 -0.3183 -1.4379 -0.7395
  868MOL0     C19668   4.703   0.849  10.140 -0.0524 -1.5286 -0.3596
  868MOL0     C19669   4.790   0.742  10.082 -0.1103  0.2714 -1.1379
  868MOL0     O19670   4.894   0.799  10.005  0.1373  0.6448  0.0455
  868MOL0     C19671   4.969   0.710   9.933 -0.3475 -0.0922  1.0257
  868MOL0     C19672   4.955   0.574   9.925  0.1100  0.2928 -0.1167
  868MOL0     C19673   5.039   0.494   9.841  0.0482 -0.5702 -0.1083
  868MOL0     C19674   5.014   0.340   9.844 -0.5505 -0.4585  0.3532
  868MOL0     C19675   5.140   0.557   9.766  0.3261  0.2906 -0.2572
  868MOL0     C19676   5.262   0.487   9.704  0.5002 -0.5511  0.2453
  868MOL0     O19677   5.361   0.567   9.665 -0.2961  0.0060  0.2677
  868MOL0     C19678   5.472   0.512   9.619  0.0730  0.2946 -0.2015
  868MOL0     C19679   5.554   0.427   9.700  0.6192 -0.5283  0.9116
  868MOL0     C19680   5.662   0.360   9.647  0.2223  0.9793  0.2662
  868MOL0     C19681   5.686   0.361   9.510  0.4542 -0.1647  0.5094
  868MOL0     O19682   5.786   0.298   9.449  0.5241 -0.3133  0.1445
  868MOL0     C19683   5.895   0.257   9.522 -1.1537 -0.2861  0.4455
  868MOL0     C19684   6.002   0.205   9.420  1.1515 -0.9591 -0.4728
  868MOL0     C19685   6.075   0.309   9.345 -0.0873 -1.0861 -0.3622
  868MOL0     C19686   5.998   0.425   9.284 -0.5675 -0.1687 -0.4807
  868MOL0     C19687   6.080   0.519   9.201  0.1057 -0.6017  0.0707
  868MOL0     C19688   6.083   0.462   9.065  0.3970 -1.3951 -0.2344
  868MOL0     C19689   6.161   0.545   8.968  1.0372 -0.6362  0.1675
  868MOL0     C19690   6.136   0.486   8.834  1.0491 -0.4032  0.9513
  868MOL0    Cl19691   5.990   0.577   8.750 -0.2620  0.3435  0.3599
  868MOL0     C19692   5.600   0.442   9.428  0.0819 -0.8268 -0.4107
  868MOL0     C19693   5.494   0.521   9.481 -1.5087 -0.0245 -0.8118
  868MOL0     O19694   5.262   0.364   9.688  0.3213 -0.2562  0.2749
  868MOL0     C19695   5.150   0.701   9.771 -0.0349  0.5995  0.1999
  868MOL0     C19696   5.064   0.772   9.853 -0.1524  0.4575 -0.9939
  868MOL0     N19697   4.278   0.877  10.384  0.0181 -0.2896  0.0949
  868MOL0     N19698   4.219   0.849  10.495 -0.1839  0.4187  0.0553
  868MOL0     C19699   3.655   1.464  10.596  0.2656 -0.5791 -0.0730
  868MOL0     C19700   3.623   1.560  10.505  0.9675 -0.9045  0.1041
  868MOL0     C19701   3.353   1.790  10.234 -0.7701  0.4243 -0.2637
  868MOL0     C19702   3.383   1.924  10.257 -0.2799  0.8695 -0.5932
  868MOL0     C19703   3.350   2.019  10.166  0.1237  0.0125  0.1554
  868MOL0     C19704   3.297   1.983  10.040  0.1647 -0.1193 -0.0370
  868MOL0     O19705   3.259   2.081   9.954  1.0302 -0.6302 -0.6238
  868MOL0     C19706   3.297   2.081   9.817  1.0684 -0.0577  0.9760
  868MOL0     C19707   3.444   2.105   9.801  0.0556 -0.4008 -0.1912
  868MOL0     C19708   3.489   2.117   9.658  0.5384 -0.3446  0.0348
  868MOL0     C19709   3.469   1.993   9.568  0.3599 -0.9581 -0.2013
  868MOL0     C19710   3.539   1.876   9.626 -0.3644 -0.3356  0.8676
  868MOL0     C19711   3.589   1.786   9.688 -0.9535  0.2639 -0.0871
  868MOL0     C19712   3.281   1.844  10.005 -0.4422  0.0201 -0.0789
  868MOL0     C19713   3.313   1.749  10.106  0.7136 -1.1246  0.4524
  868MOL0     C19714   3.296   1.601  10.062 -0.4860 -0.3041 -0.1884
  868MOL0     H19715   3.350   1.688  10.675  1.4570  3.2200 -2.2848
  868MOL0     H19716   3.424   1.532  10.839 -0.3085 -3.3581  0.8751
  868MOL0     H19717   3.782   1.282  10.740  2.0115 -4.5351 -2.2497
  868MOL0     H19718   3.634   1.187  10.707 -1.1180 -1.2335  0.8624
  868MOL0     H19719   3.770   1.201  10.984  0.1005  0.2935  0.3504
  868MOL0     H19720   3.632   1.113  10.948  1.5162 -2.4735  0.8523
  868MOL0     H19721   3.794   0.947  10.929  1.4479 -0.2435 -0.6491
  868MOL0     H19722   3.780   0.981  10.768  0.9559 -0.5499 -0.3502
  868MOL0     H19723   3.974   1.124  10.760  1.1058 -1.1192 -0.1130
  868MOL0     H19724   4.004   1.124  10.934  2.0381 -1.8474  1.5945
  868MOL0     H19725   4.020   0.880  10.765 -2.3403 -2.3800  2.1195
  868MOL0     H19726   4.039   0.885  10.940  1.1524  0.9958  0.5889
  868MOL0     H19727   4.214   1.051  10.756 -0.1028  1.1546  0.9929
  868MOL0     H19728   4.219   1.029  10.932 -1.2669  0.6503 -0.1215
  868MOL0     H19729   4.299   0.805  10.927 -1.5430  0.6533  0.5128
  868MOL0     H19730   4.399   0.917  10.830 -0.1239  1.5755  2.0977
  868MOL0     H19731   4.341   0.675  10.736 -0.8381  0.1075 -0.7395
  868MOL0     H19732   4.175   0.735  10.722 -0.4632 -0.0928  1.0564
  868MOL0     H19733   4.535   0.822  10.577 -1.0599  0.4036 -0.4102
  868MOL0     H19734   4.607   0.969  10.376 -1.2557  1.3484  1.1656
  868MOL0     H19735   4.499   0.992  10.236  1.0192  0.1294  0.4361
  868MOL0     H19736   4.646   0.743  10.324 -0.3718 -0.4634  0.0722
  868MOL0     H19737   4.510   0.747  10.208 -1.5746  1.5510 -2.5562
  868MOL0     H19738   4.645   0.892  10.058  0.5384 -0.7513 -0.3737
  868MOL0     H19739   4.767   0.916  10.198 -2.8798 -1.4139  2.9934
  868MOL0     H19740   4.835   0.690  10.167  0.9844  1.7161 -0.7882
  868MOL0     H19741   4.731   0.677  10.017 -0.4966  0.7393 -1.2588
  868MOL0     H19742   4.889   0.526   9.996  0.5547  0.0034  0.1068
  868MOL0     H19743   5.089   0.293   9.908 -0.4703 -1.1755 -0.2535
  868MOL0     H19744   5.038   0.292   9.748  0.7365  1.2702 -0.2493
  868MOL0     H19745   4.910   0.308   9.853 -0.8626  0.8851  2.1843
  868MOL0     H19746   5.531   0.425   9.806 -1.4251 -1.3341  0.4942
  868MOL0     H19747   5.713   0.303   9.724  0.8292 -0.0872 -0.8852
  868MOL0     H19748   5.933   0.342   9.580 -0.3419  0.5844 -1.2893
  868MOL0     H19749   5.859   0.181   9.592 -0.9081  0.5742  1.5360
  868MOL0     H19750   6.074   0.137   9.467  0.9445 -0.6994  0.2377
  868MOL0     H19751   5.947   0.149   9.345 -1.0365  0.2257  0.1583
  868MOL0     H19752   6.130   0.254   9.268  0.8458 -0.7682  0.0616
  868MOL0     H19753   6.163   0.341   9.401  0.6072  0.0037 -2.0117
  868MOL0     H19754   5.959   0.473   9.373  0.5261 -2.4187  1.3441
  868MOL0     H19755   5.912   0.388   9.227  0.5339 -0.0138 -2.3418
  868MOL0     H19756   6.067   0.627   9.197 -0.5937 -0.6641  0.5056
  868MOL0     H19757   6.182   0.519   9.239  0.4276 -4.6562 -0.3473
  868MOL0     H19758   5.979   0.456   9.031  0.0787 -1.4335  0.6914
  868MOL0     H19759   6.119   0.358   9.064  1.0209 -1.1794 -0.3174
  868MOL0     H19760   6.267   0.546   8.993  0.9880 -0.1301  0.3723
  868MOL0     H19761   6.118   0.646   8.967  0.7308 -0.7604 -0.8682
  868MOL0     H19762   6.105   0.381   8.843  0.4897 -0.5125 -1.4456
  868MOL0     H19763   6.222   0.494   8.767  0.3662  1.1229  0.2121
  868MOL0     H19764   5.615   0.437   9.321  0.9275 -0.0740 -0.3408
  868MOL0     H19765   5.424   0.576   9.419 -0.6826  0.0819 -1.6655
  868MOL0     H19766   5.224   0.754   9.712 -0.1616  1.1180  0.5007
  868MOL0     H19767   5.072   0.881   9.852 -0.8571  0.5073 -1.8012
  868MOL0     H19768   3.739   1.401  10.570  0.8496  0.7627 -1.6272
  868MOL0     H19769   3.676   1.566  10.411  0.8600 -0.1936  0.0818
  868MOL0     H19770   3.430   1.949  10.351 -0.3585 -0.0196 -0.3128
  868MOL0     H19771   3.373   2.123  10.184 -0.9342  0.1634  0.6741
  868MOL0     H19772   3.276   1.986   9.768  1.9863 -0.7661  1.9217
  868MOL0     H19773   3.240   2.165   9.775  1.0811 -0.2247  0.6185
  868MOL0     H19774   3.497   2.032   9.862  2.1393  1.2082  0.0456
  868MOL0     H19775   3.477   2.196   9.853  1.7570 -0.5045 -1.0301
  868MOL0     H19776   3.420   2.183   9.604  0.4205  0.1611  0.7927
  868MOL0     H19777   3.594   2.144   9.651  0.4570 -0.1796 -0.5929
  868MOL0     H19778   3.511   2.013   9.469 -0.9466  1.3656 -0.3562
  868MOL0     H19779   3.364   1.969   9.554  0.8254 -4.5184  1.4729
  868MOL0     H19780   3.626   1.705   9.747  0.2940  1.2330  0.4999
  868MOL0     H19781   3.231   1.825   9.910 -3.0886  0.3713  1.1525
  868MOL0     H19782   3.389   1.546  10.076 -1.1882 -0.8617  3.1527
  868MOL0     H19783   3.217   1.551  10.119 -0.2217  0.1003  0.5495
  868MOL0     H19784   3.274   1.600   9.955  1.9156 -1.9751 -0.7429
  869MOL0     O19785   4.953   9.459   7.997  0.0775  0.2231 -0.3989
  869MOL0     C19786   5.003   9.379   7.917  0.0038 -0.3863  0.2422
  869MOL0     O19787   4.938   9.285   7.848 -0.0529  0.2149  0.8081
  869MOL0     C19788   4.805   9.277   7.880  0.3574  0.1708 -0.3180
  869MOL0     C19789   4.708   9.289   7.779 -0.6031  0.5764 -0.8293
  869MOL0     C19790   4.573   9.276   7.817  0.4375 -0.3654 -0.1211
  869MOL0     C19791   4.530   9.252   7.949 -0.3697  0.6444 -0.3004
  869MOL0     O19792   4.402   9.266   7.981  0.6832 -0.4549 -0.4663
  869MOL0     C19793   4.339   9.184   8.085  0.4237  0.2233 -0.3043
  869MOL0     C19794   4.199   9.162   8.044 -0.0750 -0.1840  0.1212
  869MOL0     C19795   4.117   9.302   8.030  0.3283 -0.4056  0.1353
  869MOL0     C19796   3.978   9.305   7.958 -0.4605 -0.5351 -1.1865
  869MOL0     C19797   3.883   9.429   7.975  0.0649  0.3833  0.2757
  869MOL0     C19798   3.924   9.547   7.893 -0.2298 -0.2505  0.1122
  869MOL0     C19799   3.825   9.663   7.895 -0.1016 -0.3665 -0.6244
  869MOL0     C19800   3.874   9.768   7.796 -0.5501  0.7545 -0.3563
  869MOL0     N19801   3.973   9.861   7.857 -0.2886  0.3939  0.3831
  869MOL0     C19802   4.105   9.861   7.835 -0.4216 -0.6284  0.6253
  869MOL0     C19803   4.153   9.973   7.894 -0.0221 -1.6209 -0.4334
  869MOL0     C19804   4.301  10.014   7.899  1.2611  0.5104 -0.1684
  869MOL0     C19805   4.375   9.981   7.767 -0.2785 -0.6627  0.1180
  869MOL0     C19806   4.506  10.059   7.753 -0.1657 -0.5584 -0.2647
  869MOL0     C19807   4.608  10.063   7.871  0.2712  0.0829 -0.3754
  869MOL0     O19808   4.635   9.924   7.916  0.3520 -0.2399  1.1384
  869MOL0     C19809   4.716   9.922   8.025 -0.2345  0.4445  0.4925
  869MOL0     C19810   4.768  10.026   8.101 -0.0024  1.1008  0.0519
  869MOL0     C19811   4.849  10.005   8.211  0.3523  0.3332 -0.2157
  869MOL0     C19812   4.887  10.141   8.275  0.1592  0.6893  0.4437
  869MOL0     C19813   4.888   9.872   8.252  0.1917 -0.2494 -1.0609
  869MOL0     C19814   4.981   9.845   8.372 -0.8693 -0.0010  0.0971
  869MOL0     O19815   5.024   9.721   8.376  0.0696 -0.6217  0.4565
  869MOL0     C19816   5.120   9.687   8.461 -0.3136 -0.2483  0.3860
  869MOL0     C19817   5.093   9.631   8.591  0.1597  0.7017  0.6625
  869MOL0     C19818   5.200   9.602   8.686 -0.1585 -1.0990  0.4960
  869MOL0     C19819   5.332   9.625   8.643 -0.3615 -0.1335  0.6856
  869MOL0     O19820   5.442   9.579   8.713 -0.1794  0.0145  0.2028
  869MOL0     C19821   5.429   9.503   8.842 -0.2950  0.0695  0.5085
  869MOL0     C19822   5.574   9.474   8.891  0.4886 -0.2168 -0.1134
  869MOL0     C19823   5.658   9.387   8.789  0.2466  0.4109  0.2537
  869MOL0     C19824   5.794   9.342   8.849 -0.1060  0.5296  0.2083
  869MOL0     C19825   5.867   9.240   8.756 -0.3469  0.2444 -0.5455
  869MOL0     C19826   6.011   9.205   8.813 -0.0038  0.0290  0.4038
  869MOL0     C19827   6.094   9.102   8.727 -0.1174  0.5858 -0.1546
  869MOL0     C19828   6.201   9.180   8.649 -0.0083 -0.1118  0.6876
  869MOL0    Cl19829   6.121   9.272   8.523  0.1006 -0.2641 -0.3032
  869MOL0     C19830   5.358   9.669   8.511 -0.1665  0.3564  0.3129
  869MOL0     C19831   5.256   9.703   8.423 -0.5601 -0.9165 -0.4305
  869MOL0     O19832   4.996   9.930   8.461 -0.1961 -1.1023  0.0484
  869MOL0     C19833   4.837   9.767   8.175 -1.0886 -0.4280 -0.1070
  869MOL0     C19834   4.748   9.794   8.064  0.1625 -0.2989 -0.0611
  869MOL0     N19835   4.049  10.034   7.956  0.2558 -0.3329 -0.1430
  869MOL0     N19836   3.943   9.962   7.947 -0.4797  0.6943  0.2656
  869MOL0     C19837   4.634   9.216   8.045  0.5157  0.4591 -0.6567
  869MOL0     C19838   4.767   9.249   8.014  1.0643  0.7377 -0.3117
  869MOL0     C19839   5.153   9.372   7.884 -0.3717 -0.2947  0.2987
  869MOL0     C19840   5.203   9.280   7.788 -0.2669  0.6810 -0.2096
  869MOL0     C19841   5.336   9.268   7.754 -0.1359 -0.4958 -0.5302
  869MOL0     C19842   5.430   9.335   7.826 -1.1516  0.1215  0.3637
  869MOL0     O19843   5.567   9.323   7.811 -0.3563  0.2083 -0.5542
  869MOL0     C19844   5.644   9.265   7.920 -0.2115  0.0864 -0.1838
  869MOL0     C19845   5.743   9.362   7.975 -0.0206 -0.6229  1.4667
  869MOL0     C19846   5.847   9.407   7.875  0.1822 -0.1788  0.8355
  869MOL0     C19847   5.914   9.542   7.920  0.6279  0.9003  0.0685
  869MOL0     C19848   6.014   9.608   7.833  0.5673  0.2090  0.1642
  869MOL0     C19849   6.107   9.664   7.765 -0.0396  0.4635  0.0979
  869MOL0     C19850   5.391   9.427   7.925  0.8158  0.4543 -0.3192
  869MOL0     C19851   5.251   9.449   7.953 -0.2341 -0.3617  0.3868
  869MOL0     C19852   5.234   9.519   8.080 -0.8983 -0.3184  0.0071
  869MOL0     H19853   4.734   9.293   7.673 -1.8416 -2.5357 -1.3564
  869MOL0     H19854   4.498   9.287   7.739 -0.4336  2.1498  0.9581
  869MOL0     H19855   4.334   9.230   8.184 -0.6794 -2.2029  0.8478
  869MOL0     H19856   4.398   9.092   8.091 -1.7648 -1.4496 -2.7083
  869MOL0     H19857   4.192   9.116   7.945  0.4701  2.1699 -1.0738
  869MOL0     H19858   4.152   9.091   8.113 -0.7327 -1.3306 -1.4424
  869MOL0     H19859   4.111   9.346   8.130  1.2222  1.8558 -0.7502
  869MOL0     H19860   4.179   9.365   7.966  1.7780 -0.5859  1.2946
  869MOL0     H19861   4.003   9.299   7.851  1.3548 -0.6051 -0.7829
  869MOL0     H19862   3.925   9.214   7.990  2.6852 -1.5854  1.5742
  869MOL0     H19863   3.895   9.463   8.078  4.5077  1.8509 -0.5375
  869MOL0     H19864   3.786   9.388   7.944  1.3867 -1.1242 -2.2012
  869MOL0     H19865   4.025   9.579   7.921  0.2649 -0.2815 -1.5139
  869MOL0     H19866   3.933   9.519   7.788  0.9263  1.1722 -0.2039
  869MOL0     H19867   3.804   9.693   7.998 -0.1832 -1.9951 -0.1385
  869MOL0     H19868   3.732   9.616   7.862 -0.1127  0.7338 -2.2485
  869MOL0     H19869   3.915   9.724   7.705  0.9089  0.8010  0.2590
  869MOL0     H19870   3.785   9.826   7.768 -0.2379  1.5279  0.2324
  869MOL0     H19871   4.165   9.794   7.774  2.0572  1.6192  0.3983
  869MOL0     H19872   4.345   9.958   7.982  1.3269  1.0099  0.1401
  869MOL0     H19873   4.304  10.120   7.927  0.4155  0.7886 -1.0608
  869MOL0     H19874   4.381   9.874   7.747 -0.0503 -0.9924  1.7800
  869MOL0     H19875   4.315  10.024   7.686 -0.7093 -1.2551  0.1189
  869MOL0     H19876   4.558  10.008   7.671  2.8331  0.3028  0.9673
  869MOL0     H19877   4.493  10.162   7.720  2.0578 -0.1072  0.1142
  869MOL0     H19878   4.700  10.114   7.840  0.0301 -0.9081 -2.9285
  869MOL0     H19879   4.570  10.131   7.947 -0.8244 -0.2721 -0.5936
  869MOL0     H19880   4.745  10.127   8.069  1.0452  0.7035 -2.1422
  869MOL0     H19881   4.854  10.141   8.379  3.0712  1.3184  1.4689
  869MOL0     H19882   4.848  10.225   8.215 -2.5593 -0.7032  0.1288
  869MOL0     H19883   4.995  10.144   8.291  0.2617 -1.9134  0.6099
  869MOL0     H19884   4.997   9.612   8.638  0.7350  1.4738  2.2065
  869MOL0     H19885   5.177   9.566   8.786  1.5301  2.0286  2.1766
  869MOL0     H19886   5.374   9.563   8.915  1.2210  0.6717  1.1976
  869MOL0     H19887   5.372   9.410   8.839  0.7639 -0.6492  1.7208
  869MOL0     H19888   5.628   9.567   8.910  2.6908 -1.1955 -1.1044
  869MOL0     H19889   5.566   9.416   8.983 -0.7162  1.5095  0.9154
  869MOL0     H19890   5.673   9.441   8.696  3.3496 -0.2943  0.2229
  869MOL0     H19891   5.605   9.295   8.763  0.2686  0.3165  0.5398
  869MOL0     H19892   5.787   9.298   8.949  0.7997  0.6975  0.3631
  869MOL0     H19893   5.869   9.422   8.845  2.3056 -1.6299 -1.1715
  869MOL0     H19894   5.813   9.146   8.744  0.5062 -0.4095  0.5014
  869MOL0     H19895   5.867   9.280   8.654 -1.9295 -1.7194 -1.3695
  869MOL0     H19896   5.986   9.155   8.907  0.4920 -0.1956  0.4184
  869MOL0     H19897   6.068   9.298   8.822  3.3390 -1.7732 -0.5597
  869MOL0     H19898   6.021   9.052   8.661 -2.5640  4.3927 -0.6236
  869MOL0     H19899   6.154   9.035   8.788 -1.6356  0.8415  1.7054
  869MOL0     H19900   6.283   9.129   8.597  0.1396  3.0384 -2.5367
  869MOL0     H19901   6.246   9.256   8.714 -0.7818  0.1174  0.9637
  869MOL0     H19902   5.463   9.683   8.486  0.0030  1.3780  1.4773
  869MOL0     H19903   5.288   9.755   8.333  1.6358  0.3483  0.9894
  869MOL0     H19904   4.871   9.670   8.211  0.7028  0.6529  1.3115
  869MOL0     H19905   4.715   9.713   8.000 -3.1762  0.8153  0.0077
  869MOL0     H19906   4.612   9.180   8.145  2.3544 -2.7416 -1.2616
  869MOL0     H19907   4.845   9.223   8.085  0.2422  0.0547  0.3539
  869MOL0     H19908   5.135   9.212   7.737 -1.4812 -0.8232  3.1132
  869MOL0     H19909   5.375   9.198   7.681 -0.9252  0.0012 -1.4343
  869MOL0     H19910   5.578   9.232   8.001  2.0331 -0.9637  1.3006
  869MOL0     H19911   5.696   9.173   7.892 -1.4738 -0.4703 -0.8239
  869MOL0     H19912   5.791   9.316   8.062  2.5345 -0.4540  0.2577
  869MOL0     H19913   5.698   9.460   7.994  4.6862  2.0606  0.5565
  869MOL0     H19914   5.916   9.326   7.850 -1.9047 -1.8758  0.1574
  869MOL0     H19915   5.811   9.433   7.774  5.3292 -2.6379 -2.0350
  869MOL0     H19916   5.953   9.527   8.021  0.8274  0.2646 -0.0985
  869MOL0     H19917   5.839   9.622   7.916  0.0989  0.4281  0.4540
  869MOL0     H19918   6.188   9.717   7.720  0.9629 -2.0934 -1.3214
  869MOL0     H19919   5.467   9.477   7.984 -0.6840 -0.7873  2.9231
  869MOL0     H19920   5.217   9.621   8.045 -1.9210  1.2214  4.3071
  869MOL0     H19921   5.157   9.483   8.149 -0.6436  1.5122  1.3349
  869MOL0     H19922   5.327   9.521   8.139 -0.5967  0.8290 -0.4792
  870MOL0     O19923   1.379   2.594   9.426 -0.8022 -0.2815 -0.1195
  870MOL0     C19924   1.345   2.534   9.523 -0.3750  0.5552 -0.0554
  870MOL0     O19925   1.432   2.479   9.608  0.7768  0.1517  0.0797
  870MOL0     C19926   1.567   2.477   9.574 -0.3658  0.3867  0.6536
  870MOL0     C19927   1.639   2.360   9.599 -0.9324 -0.2478 -0.7280
  870MOL0     C19928   1.769   2.350   9.568  0.7074  0.1888  0.7409
  870MOL0     C19929   1.844   2.452   9.511  0.5398 -0.1271 -0.3548
  870MOL0     O19930   1.970   2.426   9.473 -0.4422 -0.0999  0.2390
  870MOL0     C19931   2.059   2.525   9.426 -0.2456 -0.7687 -0.2782
  870MOL0     C19932   2.201   2.463   9.420  0.0261 -0.1705  0.7413
  870MOL0     C19933   2.308   2.558   9.374  0.3564  0.1461  0.4652
  870MOL0     C19934   2.369   2.662   9.472 -0.1526 -0.2616 -0.8512
  870MOL0     C19935   2.468   2.754   9.414 -0.1677 -0.8360  0.0981
  870MOL0     C19936   2.599   2.685   9.382  0.0145 -0.0992 -0.2305
  870MOL0     C19937   2.677   2.790   9.295  0.0917  0.1570 -1.2073
  870MOL0     C19938   2.831   2.766   9.324 -0.0748  0.3250 -0.4348
  870MOL0     N19939   2.882   2.636   9.283  0.2235 -0.0906  0.8494
  870MOL0     C19940   2.866   2.581   9.156 -0.6305 -0.0143  0.2939
  870MOL0     C19941   2.889   2.452   9.178  0.0762 -0.4273  0.6757
  870MOL0     C19942   2.858   2.340   9.082 -0.8701 -0.7429  0.7083
  870MOL0     C19943   2.982   2.300   9.004  0.5873 -0.8713  0.1585
  870MOL0     C19944   2.936   2.191   8.902 -0.4295 -0.6615 -0.0307
  870MOL0     C19945   3.032   2.125   8.810 -0.2542 -0.1082  0.5671
  870MOL0     O19946   3.083   2.223   8.716 -0.3023 -0.1684 -0.0712
  870MOL0     C19947   3.159   2.181   8.610  0.3825  0.1473  0.2589
  870MOL0     C19948   3.189   2.049   8.577 -0.1700  0.3993  0.8531
  870MOL0     C19949   3.277   2.014   8.478 -0.2565  0.2661  0.2398
  870MOL0     C19950   3.310   1.867   8.486 -0.7890  0.0044  0.4879
  870MOL0     C19951   3.353   2.115   8.407 -0.0928 -0.0669  0.6134
  870MOL0     C19952   3.465   2.098   8.309  0.5726  0.2869 -0.0632
  870MOL0     O19953   3.557   2.206   8.295 -0.4620 -0.1696 -0.1300
  870MOL0     C19954   3.664   2.199   8.211 -1.8550  0.0824  0.0574
  870MOL0     C19955   3.803   2.198   8.247  1.0001 -0.0793 -0.7336
  870MOL0     C19956   3.912   2.182   8.156  0.1009  0.1191  0.1384
  870MOL0     C19957   3.882   2.160   8.027  0.0055 -0.1189  0.0218
  870MOL0     O19958   3.986   2.151   7.943 -0.1856  0.7659  0.1806
  870MOL0     C19959   3.956   2.187   7.806  0.3399 -0.2000  0.6046
  870MOL0     C19960   4.081   2.186   7.707  0.4278  0.5252  0.0046
  870MOL0     C19961   4.148   2.051   7.700  0.0665 -0.5621 -0.3521
  870MOL0     C19962   4.247   2.026   7.580 -0.2556  0.0575  0.1512
  870MOL0     C19963   4.283   1.877   7.578  0.2362 -0.4633 -0.7096
  870MOL0     C19964   4.347   1.826   7.452  0.1358  0.3401  0.2493
  870MOL0     C19965   4.451   1.721   7.474  0.2654  0.1031 -0.5753
  870MOL0     C19966   4.485   1.653   7.350 -0.4574  0.8870 -0.0483
  870MOL0    Cl19967   4.587   1.500   7.374 -0.1848 -0.1672  0.0204
  870MOL0     C19968   3.743   2.166   7.987  0.5627  0.2457 -0.0199
  870MOL0     C19969   3.641   2.181   8.077  0.7427 -0.7312  0.3579
  870MOL0     O19970   3.470   1.998   8.239 -0.3626  0.5890 -0.9918
  870MOL0     C19971   3.316   2.250   8.434 -0.1557  0.2085 -0.8860
  870MOL0     C19972   3.222   2.279   8.534 -1.1283  0.2812 -0.6260
  870MOL0     N19973   2.951   2.434   9.306  0.1507 -0.4115  0.6958
  870MOL0     N19974   2.959   2.550   9.364 -0.1655 -0.2290  0.5137
  870MOL0     C19975   1.781   2.575   9.493  0.3222  0.7354  0.3634
  870MOL0     C19976   1.645   2.591   9.530  0.2707  1.3658  0.3616
  870MOL0     C19977   1.196   2.522   9.553 -0.6472 -0.5917  0.3455
  870MOL0     C19978   1.170   2.461   9.671 -0.3434  1.4654  0.1165
  870MOL0     C19979   1.043   2.442   9.724  0.1695 -0.3130  0.2156
  870MOL0     C19980   0.935   2.471   9.640 -0.0408 -0.2762 -0.6224
  870MOL0     O19981   0.810   2.430   9.680 -0.6779  0.4474 -0.2034
  870MOL0     C19982   0.711   2.386   9.583  0.4250  0.8722 -0.1149
  870MOL0     C19983   0.647   2.251   9.624 -0.0778 -0.0224  0.6329
  870MOL0     C19984   0.538   2.259   9.737 -1.0358 -0.2555 -0.5483
  870MOL0     C19985   0.405   2.255   9.688  0.2925  0.6710  0.8858
  870MOL0     C19986   0.365   2.121   9.658  0.6919 -0.4784 -0.5612
  870MOL0     C19987   0.321   2.009   9.633 -0.4368  0.3699 -0.4009
  870MOL0     C19988   0.953   2.535   9.523 -0.6634 -0.2518  0.9916
  870MOL0     C19989   1.088   2.573   9.474  1.0446  0.1268 -0.9303
  870MOL0     C19990   1.097   2.657   9.349  0.5458 -0.1124 -0.3999
  870MOL0     H19991   1.607   2.275   9.659  0.9586 -0.4845  0.0063
  870MOL0     H19992   1.822   2.256   9.580  0.4564 -0.4284 -2.1552
  870MOL0     H19993   2.056   2.610   9.495 -1.0509  1.1639 -2.5575
  870MOL0     H19994   2.031   2.557   9.326 -4.6819 -2.2048  0.2936
  870MOL0     H19995   2.231   2.407   9.509 -2.4809 -1.9626  0.5918
  870MOL0     H19996   2.189   2.389   9.340  1.1141  0.6769 -0.2349
  870MOL0     H19997   2.393   2.494   9.352 -1.8556 -2.2646 -1.7528
  870MOL0     H19998   2.269   2.609   9.285  0.3941  0.5340  0.6667
  870MOL0     H19999   2.302   2.730   9.526  0.4331 -0.0557 -0.3607
  870MOL0     H20000   2.415   2.604   9.553  1.4162  3.1826  0.9745
  870MOL0     H20001   2.484   2.841   9.478  0.8701  1.3833 -2.9486
  870MOL0     H20002   2.423   2.785   9.319 -2.3862 -1.2157  0.9670
  870MOL0     H20003   2.662   2.657   9.467  2.3010  1.5404 -1.2988
  870MOL0     H20004   2.578   2.601   9.316 -0.1865 -0.4250  0.2422
  870MOL0     H20005   2.660   2.895   9.320  0.1948  0.2645 -1.5809
  870MOL0     H20006   2.652   2.775   9.190  0.4924  0.7595 -1.3935
  870MOL0     H20007   2.875   2.840   9.256  0.8812  0.9607  0.8303
  870MOL0     H20008   2.870   2.779   9.426 -0.6559 -0.2889 -0.1223
  870MOL0     H20009   2.820   2.629   9.070 -1.4802 -0.4325  0.5155
  870MOL0     H20010   2.780   2.374   9.013 -1.6919  0.7279  2.2939
  870MOL0     H20011   2.823   2.253   9.138  2.5481 -0.9510  2.8474
  870MOL0     H20012   3.012   2.388   8.947 -1.8627 -0.7716 -1.1056
  870MOL0     H20013   3.063   2.266   9.069  2.5855  0.6874 -1.3827
  870MOL0     H20014   2.885   2.117   8.963  2.5136 -1.4289  1.6974
  870MOL0     H20015   2.857   2.233   8.839 -3.3246 -1.9400  2.5167
  870MOL0     H20016   3.112   2.081   8.869  0.9852  2.8030  1.2240
  870MOL0     H20017   2.973   2.045   8.765 -1.9938 -0.2947  3.0178
  870MOL0     H20018   3.146   1.976   8.645  1.6509 -1.4048  0.1739
  870MOL0     H20019   3.331   1.834   8.384 -0.5015  1.7745 -0.0651
  870MOL0     H20020   3.247   1.791   8.532  0.4243 -0.1824  1.9053
  870MOL0     H20021   3.404   1.856   8.541  0.8262 -0.1219 -2.1570
  870MOL0     H20022   3.816   2.201   8.355 -2.4522  1.0261 -0.2202
  870MOL0     H20023   4.015   2.187   8.188  0.2190  1.8367 -0.3936
  870MOL0     H20024   3.872   2.129   7.766 -0.9249  2.9119 -1.5956
  870MOL0     H20025   3.929   2.292   7.800 -0.1547 -0.3977 -0.9757
  870MOL0     H20026   4.040   2.225   7.613  0.4464  1.9943  0.5795
  870MOL0     H20027   4.156   2.256   7.744  0.7923  1.4450 -2.3267
  870MOL0     H20028   4.083   1.965   7.713  0.9930 -1.5512 -1.8825
  870MOL0     H20029   4.206   2.042   7.792  2.8403 -0.2984 -1.9491
  870MOL0     H20030   4.337   2.087   7.584  0.2122 -0.3574 -2.3745
  870MOL0     H20031   4.187   2.058   7.493  0.6674  0.0253 -0.5118
  870MOL0     H20032   4.348   1.861   7.664 -1.1672 -0.4149  0.3839
  870MOL0     H20033   4.195   1.816   7.600 -0.1420  0.4869  0.5141
  870MOL0     H20034   4.395   1.909   7.398  1.3145  0.3211  1.2131
  870MOL0     H20035   4.264   1.788   7.393 -1.5014  1.6292  1.6109
  870MOL0     H20036   4.400   1.651   7.541 -1.0501  1.5214 -0.0164
  870MOL0     H20037   4.545   1.759   7.517 -0.4787  1.5765 -0.1885
  870MOL0     H20038   4.542   1.718   7.282 -0.0443 -1.5776 -2.2098
  870MOL0     H20039   4.393   1.629   7.296  0.0352 -0.2281 -0.4070
  870MOL0     H20040   3.718   2.168   7.882  0.8337  0.8985 -0.0774
  870MOL0     H20041   3.540   2.171   8.039  0.1153  0.3763  1.6614
  870MOL0     H20042   3.374   2.321   8.376  3.3800 -1.9286 -0.3120
  870MOL0     H20043   3.193   2.381   8.557 -0.4226  0.1542  0.9623
  870MOL0     H20044   1.820   2.650   9.426  2.5290 -0.2843  0.4190
  870MOL0     H20045   1.597   2.687   9.512 -1.9979  1.0426  3.7690
  870MOL0     H20046   1.255   2.438   9.734 -0.7962 -0.8469 -0.0259
  870MOL0     H20047   1.017   2.398   9.819 -0.2895  0.9722  0.7018
  870MOL0     H20048   0.627   2.456   9.574 -2.1436 -1.9826 -0.1330
  870MOL0     H20049   0.750   2.372   9.481  0.1996  0.3628 -0.1361
  870MOL0     H20050   0.717   2.170   9.649 -0.5205 -0.9624 -1.0121
  870MOL0     H20051   0.592   2.207   9.540 -0.3196 -0.0995  0.8316
  870MOL0     H20052   0.556   2.171   9.799  0.3404 -0.3771 -1.0743
  870MOL0     H20053   0.543   2.350   9.797 -1.4539 -0.0297 -0.8536
  870MOL0     H20054   0.383   2.317   9.601 -1.3282 -0.4639  0.4282
  870MOL0     H20055   0.348   2.299   9.770  2.5737  2.2404  1.6917
  870MOL0     H20056   0.279   1.912   9.618  1.4116 -0.3279 -1.3909
  870MOL0     H20057   0.869   2.580   9.471  0.8406  1.2472 -0.2992
  870MOL0     H20058   1.002   2.698   9.314  0.3373 -0.9841 -0.8595
  870MOL0     H20059   1.165   2.739   9.375  0.1143 -0.5003  2.2254
  870MOL0     H20060   1.134   2.599   9.264  0.0834 -0.3632 -0.4345
  871MOL0     O20061   1.940   4.095   7.693  0.3561  0.3306  0.3895
  871MOL0     C20062   1.885   4.048   7.586  0.4743  0.0435 -1.1127
  871MOL0     O20063   1.954   4.021   7.480 -0.1788 -0.2548 -0.0136
  871MOL0     C20064   2.094   4.030   7.470  0.9415 -0.0118 -0.4928
  871MOL0     C20065   2.155   4.102   7.362  0.8995 -0.0694  1.4162
  871MOL0     C20066   2.288   4.115   7.357 -0.5789  0.0165  0.0084
  871MOL0     C20067   2.367   4.055   7.454 -0.5717 -0.0195 -0.2593
  871MOL0     O20068   2.504   4.065   7.431  0.0376 -0.1801 -0.3456
  871MOL0     C20069   2.606   4.048   7.535  0.0024 -0.4421  0.3412
  871MOL0     C20070   2.740   4.110   7.499  0.2899  0.2297 -0.4404
  871MOL0     C20071   2.812   4.049   7.386  0.4312 -0.0013 -0.2389
  871MOL0     C20072   2.953   4.110   7.394 -0.5176 -0.2852  0.4278
  871MOL0     C20073   3.027   4.088   7.260 -0.2512  0.1696 -0.7584
  871MOL0     C20074   3.062   3.949   7.220  0.2690 -0.0493  0.2645
  871MOL0     C20075   3.182   3.955   7.129  0.9844  0.5833 -0.6687
  871MOL0     C20076   3.221   3.822   7.070 -0.4471  0.7603 -0.3332
  871MOL0     N20077   3.356   3.847   7.011  0.2505  0.2719  0.1029
  871MOL0     C20078   3.395   3.872   6.882  0.4562  0.3041  0.2309
  871MOL0     C20079   3.522   3.916   6.890 -0.0224 -1.0158 -0.7322
  871MOL0     C20080   3.600   3.955   6.771 -0.7425 -0.4253  0.3985
  871MOL0     C20081   3.747   3.924   6.783 -0.4653  0.4881 -0.5081
  871MOL0     C20082   3.821   3.939   6.650 -0.5263 -1.1916  0.2482
  871MOL0     C20083   3.977   3.926   6.654  0.3735 -0.4205  1.2620
  871MOL0     O20084   4.022   3.958   6.782  0.0557 -0.1348 -0.5139
  871MOL0     C20085   4.161   3.962   6.795  0.1482 -0.4024  0.0185
  871MOL0     C20086   4.205   3.973   6.924  0.0095 -0.0181 -0.4880
  871MOL0     C20087   4.338   3.977   6.965 -0.7448  0.2075  0.0012
  871MOL0     C20088   4.389   3.964   7.110  0.9734 -0.2559 -0.1521
  871MOL0     C20089   4.430   3.964   6.859 -0.3061 -0.3936  0.1488
  871MOL0     C20090   4.574   3.982   6.886  0.2686  0.6622  0.5828
  871MOL0     O20091   4.605   4.078   6.976  0.2957  0.2348  0.0612
  871MOL0     C20092   4.734   4.105   7.024  0.4604  0.3385 -0.3723
  871MOL0     C20093   4.854   4.086   6.952 -0.3540  0.1891  0.2535
  871MOL0     C20094   4.976   4.099   7.021  0.1509 -1.2680  0.0072
  871MOL0     C20095   4.984   4.138   7.152  0.0609  0.7316 -0.8387
  871MOL0     O20096   5.113   4.146   7.214 -0.9836 -0.6598  0.1573
  871MOL0     C20097   5.114   4.217   7.342 -0.4464  0.4940  0.4716
  871MOL0     C20098   5.258   4.250   7.391 -1.0681 -0.4348  0.2317
  871MOL0     C20099   5.330   4.127   7.453  0.4275 -0.3162 -0.1462
  871MOL0     C20100   5.447   4.175   7.532 -0.3098 -0.3830  0.5640
  871MOL0     C20101   5.519   4.063   7.611 -0.6480 -0.9197 -0.6623
  871MOL0     C20102   5.561   3.942   7.532  0.1383  0.3660  0.5310
  871MOL0     C20103   5.644   3.836   7.615 -0.3219  0.0687 -0.7724
  871MOL0     C20104   5.769   3.896   7.695  0.2779 -0.4161  0.1440
  871MOL0    Cl20105   5.882   3.991   7.592  0.4205 -0.2212  0.0117
  871MOL0     C20106   4.857   4.154   7.227 -0.0397  0.1995 -1.1067
  871MOL0     C20107   4.738   4.150   7.161  0.7420  0.8269 -0.5043
  871MOL0     O20108   4.654   3.909   6.828  0.3515 -0.4556 -0.0237
  871MOL0     C20109   4.393   3.977   6.726  1.2033 -0.5538 -0.7797
  871MOL0     C20110   4.260   3.963   6.696  1.2170  0.5146 -0.1285
  871MOL0     N20111   3.565   3.909   7.019 -0.1531  0.2740 -0.2405
  871MOL0     N20112   3.467   3.864   7.092 -0.4829  0.2482 -0.6627
  871MOL0     C20113   2.312   3.980   7.555  0.8045 -0.4399  0.1542
  871MOL0     C20114   2.168   3.967   7.566 -0.3161  0.0265  0.1942
  871MOL0     C20115   1.742   4.042   7.589 -0.3377 -0.7783  0.1210
  871MOL0     C20116   1.673   4.065   7.471  0.1386 -0.3602  0.4013
  871MOL0     C20117   1.534   4.072   7.465 -0.0896 -0.6755  0.0743
  871MOL0     C20118   1.461   4.053   7.588  0.1184  0.0561 -0.3542
  871MOL0     O20119   1.323   4.062   7.579  0.2478  0.2476  0.3095
  871MOL0     C20120   1.241   4.032   7.700 -0.0725 -0.1437 -0.8905
  871MOL0     C20121   1.104   4.089   7.668  0.2352 -0.5077 -0.3619
  871MOL0     C20122   1.103   4.248   7.668 -0.0239  0.5230 -0.8912
  871MOL0     C20123   0.979   4.301   7.612 -0.4072 -0.5260 -0.6448
  871MOL0     C20124   0.862   4.298   7.709 -1.1683 -0.5792  0.3409
  871MOL0     C20125   0.764   4.319   7.780 -0.3820 -0.7136 -0.2044
  871MOL0     C20126   1.528   4.032   7.707 -0.6004 -0.4163  0.1610
  871MOL0     C20127   1.660   4.023   7.706 -1.5183 -0.0764 -1.2115
  871MOL0     C20128   1.719   3.991   7.838 -0.4811  0.5307  0.2123
  871MOL0     H20129   2.094   4.142   7.282 -2.0131 -1.9193  2.5585
  871MOL0     H20130   2.334   4.172   7.277 -2.0923  1.7422  0.3155
  871MOL0     H20131   2.611   3.939   7.541 -2.3732 -0.9151 -2.9687
  871MOL0     H20132   2.574   4.089   7.631  0.0011 -2.6451  1.3368
  871MOL0     H20133   2.713   4.215   7.487 -2.5512 -0.1729  1.5433
  871MOL0     H20134   2.794   4.084   7.591 -1.8750  0.1128  0.8647
  871MOL0     H20135   2.803   3.940   7.395  0.2911 -0.0440 -0.8660
  871MOL0     H20136   2.767   4.075   7.290  0.2710  1.0525  0.1103
  871MOL0     H20137   2.950   4.217   7.414 -0.5287 -0.0910 -0.5680
  871MOL0     H20138   3.018   4.071   7.473 -0.3323  1.9677  1.4814
  871MOL0     H20139   3.121   4.142   7.270  1.4496 -2.6678 -0.3466
  871MOL0     H20140   2.972   4.125   7.173  0.6889 -2.2024 -2.4839
  871MOL0     H20141   3.087   3.895   7.311 -0.0352 -0.4212  0.1309
  871MOL0     H20142   2.979   3.898   7.170  0.5265  0.3190 -0.5612
  871MOL0     H20143   3.267   3.998   7.183  0.8296  1.9485 -1.4648
  871MOL0     H20144   3.167   4.029   7.050  0.1811 -1.2353 -2.3231
  871MOL0     H20145   3.230   3.750   7.152 -2.8583 -0.6597 -1.2145
  871MOL0     H20146   3.150   3.774   7.002  1.5481  0.4681 -2.3323
  871MOL0     H20147   3.341   3.867   6.787  0.8016  1.2662 -0.0329
  871MOL0     H20148   3.581   4.063   6.764 -0.4565 -0.4364 -0.6935
  871MOL0     H20149   3.554   3.903   6.687 -2.2262  0.2407  0.7569
  871MOL0     H20150   3.785   4.001   6.851  0.0366  0.3897 -0.6720
  871MOL0     H20151   3.756   3.826   6.831 -3.4226  0.4464  0.1415
  871MOL0     H20152   3.777   3.880   6.570 -2.5469 -0.3199  0.6552
  871MOL0     H20153   3.807   4.046   6.629  5.1122 -0.5739 -2.1907
  871MOL0     H20154   3.988   3.819   6.631 -0.8080 -0.5941  1.4149
  871MOL0     H20155   4.016   3.984   6.570 -0.2051  1.3543  2.1745
  871MOL0     H20156   4.134   3.987   7.005  2.7618 -0.4857  2.1726
  871MOL0     H20157   4.411   4.065   7.145  1.1322 -0.2008 -0.4044
  871MOL0     H20158   4.476   3.898   7.112 -0.0077 -1.7037 -2.1318
  871MOL0     H20159   4.316   3.920   7.179  0.1309  2.5654  0.8920
  871MOL0     H20160   4.845   4.049   6.851 -0.9299  0.0300  0.3577
  871MOL0     H20161   5.065   4.081   6.962 -0.3928  2.3277 -2.2273
  871MOL0     H20162   5.065   4.313   7.322  0.4948  0.6986 -1.0429
  871MOL0     H20163   5.063   4.157   7.417  1.3305 -2.1642 -0.3005
  871MOL0     H20164   5.313   4.288   7.304 -1.4676 -0.7322 -0.1546
  871MOL0     H20165   5.256   4.329   7.467 -0.7304  0.3971 -0.5911
  871MOL0     H20166   5.363   4.068   7.367  2.5420 -1.1511  1.1477
  871MOL0     H20167   5.268   4.066   7.519 -0.0809  0.0859 -0.2500
  871MOL0     H20168   5.417   4.246   7.610 -1.8159 -0.2353 -0.0996
  871MOL0     H20169   5.510   4.230   7.462 -1.8784 -1.8861 -2.2387
  871MOL0     H20170   5.600   4.110   7.668 -2.9751 -0.4615  2.5363
  871MOL0     H20171   5.443   4.032   7.683 -0.5926 -0.8842 -0.5900
  871MOL0     H20172   5.629   3.968   7.450  0.7850 -5.1757 -1.0740
  871MOL0     H20173   5.472   3.893   7.494  0.2357  0.4482  0.2004
  871MOL0     H20174   5.689   3.763   7.547  2.1720  0.0516  0.7587
  871MOL0     H20175   5.582   3.783   7.688  0.1625  0.0565 -0.3580
  871MOL0     H20176   5.830   3.818   7.741  1.1105 -0.6326 -1.2657
  871MOL0     H20177   5.724   3.949   7.779 -0.6494 -0.1467 -0.5062
  871MOL0     H20178   4.850   4.181   7.332 -0.0061  1.7290 -1.4650
  871MOL0     H20179   4.642   4.178   7.203  0.2080  2.0458 -2.4263
  871MOL0     H20180   4.466   3.962   6.647 -0.1528 -1.9827 -1.8094
  871MOL0     H20181   4.240   3.937   6.593 -2.5886  0.5470  0.4791
  871MOL0     H20182   2.375   3.912   7.611  0.1194 -0.2387  1.1826
  871MOL0     H20183   2.110   3.909   7.637 -1.0170  0.4880  0.0100
  871MOL0     H20184   1.730   4.094   7.384 -1.3161  0.0718 -0.4518
  871MOL0     H20185   1.488   4.085   7.367 -0.5916 -2.9352 -0.0546
  871MOL0     H20186   1.246   3.923   7.707  1.2905 -0.2397 -2.5862
  871MOL0     H20187   1.286   4.076   7.790  0.1526  0.4073 -1.2610
  871MOL0     H20188   1.033   4.054   7.744 -1.4535  0.7563 -1.2848
  871MOL0     H20189   1.067   4.050   7.573 -0.0217 -0.3705 -0.3199
  871MOL0     H20190   1.105   4.281   7.772  1.5887 -0.8726 -0.4410
  871MOL0     H20191   1.186   4.292   7.611 -1.9923 -0.2852 -4.7352
  871MOL0     H20192   0.943   4.243   7.527 -0.7333 -0.5429 -0.4997
  871MOL0     H20193   0.993   4.403   7.577  0.1545 -0.2726  0.2772
  871MOL0     H20194   0.679   4.327   7.845  0.8673  3.5514  1.2340
  871MOL0     H20195   1.472   4.021   7.799  0.4401 -0.1336  0.8437
  871MOL0     H20196   1.769   4.077   7.883 -1.6806  0.9423  0.8201
  871MOL0     H20197   1.654   3.938   7.909 -0.4009  0.6884  0.4039
  871MOL0     H20198   1.800   3.918   7.828  2.1084  3.1923  0.6767
  872MOL0     O20199  10.613   7.116   8.253 -0.0587  0.6550 -0.2292
  872MOL0     C20200  10.505   7.130   8.197 -0.1657  0.1175  0.2143
  872MOL0     O20201  10.404   7.031   8.202  1.0775  0.2228 -1.2022
  872MOL0     C20202  10.429   6.920   8.289  0.1524  0.0653 -0.4582
  872MOL0     C20203  10.541   6.837   8.276  0.1971 -0.8903 -0.0256
  872MOL0     C20204  10.559   6.729   8.358  0.1330 -0.5075 -0.5307
  872MOL0     C20205  10.470   6.694   8.458 -0.8274 -0.4886  0.2499
  872MOL0     O20206  10.500   6.584   8.526  0.5176  0.3078  0.2537
  872MOL0     C20207  10.592   6.588   8.638 -0.2366 -0.5432  0.3234
  872MOL0     C20208  10.737   6.614   8.593  0.0386  0.1072 -0.3562
  872MOL0     C20209  10.830   6.615   8.716  0.2910  1.0468  0.0138
  872MOL0     C20210  10.960   6.694   8.705 -0.3877 -0.1340 -0.4191
  872MOL0     C20211  11.063   6.646   8.607 -0.1920 -0.0803  0.3257
  872MOL0     C20212  11.178   6.753   8.607  0.1262 -0.4918  0.3997
  872MOL0     C20213  11.253   6.750   8.477 -0.5471  0.1979 -0.0839
  872MOL0     C20214  11.348   6.640   8.485 -0.0480  0.3447 -1.0055
  872MOL0     N20215  11.417   6.613   8.358 -0.4843 -0.6709 -0.4172
  872MOL0     C20216  11.500   6.699   8.293 -0.1601  0.0127  1.0897
  872MOL0     C20217  11.545   6.617   8.194 -1.0029 -0.1493 -0.4701
  872MOL0     C20218  11.641   6.667   8.075 -0.3906  0.3505 -0.7164
  872MOL0     C20219  11.789   6.629   8.097 -0.4969 -0.1681 -0.3074
  872MOL0     C20220  11.848   6.623   8.237  0.3441 -0.3852  0.2694
  872MOL0     C20221  11.994   6.597   8.231  0.3046 -0.7718  0.0914
  872MOL0     O20222  12.077   6.699   8.164  0.2193 -0.7453 -0.1428
  872MOL0     C20223  12.213   6.677   8.161  0.3506  0.2324  0.8645
  872MOL0     C20224  12.292   6.768   8.093 -0.0453 -0.5311  0.9336
  872MOL0     C20225  12.431   6.747   8.084 -0.7881  0.5677 -0.0799
  872MOL0     C20226  12.504   6.861   8.016  0.8214 -0.1028 -0.7479
  872MOL0     C20227  12.495   6.648   8.150 -0.3682 -0.0165  0.0656
  872MOL0     C20228  12.630   6.630   8.146 -0.0516 -0.3764  0.8090
  872MOL0     O20229  12.697   6.654   8.265 -0.6839  0.5168  0.3092
  872MOL0     C20230  12.831   6.673   8.267 -0.3093  1.2364 -0.4811
  872MOL0     C20231  12.887   6.761   8.179  0.3294 -0.2233 -0.2233
  872MOL0     C20232  13.020   6.795   8.195 -0.7688 -0.0838  0.9022
  872MOL0     C20233  13.103   6.745   8.294  0.9202 -0.4170 -0.7057
  872MOL0     O20234  13.234   6.791   8.325  0.0142 -0.0328  0.2466
  872MOL0     C20235  13.290   6.904   8.254 -0.8175 -0.5518  0.1638
  872MOL0     C20236  13.411   6.954   8.331  0.2363  0.5374  0.5629
  872MOL0     C20237  13.500   6.843   8.374 -0.1942 -0.6557  0.2700
  872MOL0     C20238  13.641   6.888   8.416 -0.6455 -0.6228 -0.8545
  872MOL0     C20239  13.649   6.989   8.531  0.3424  0.5259 -0.7377
  872MOL0     C20240  13.798   7.011   8.564 -0.7261 -0.1435 -0.1855
  872MOL0     C20241  13.837   7.111   8.664  0.2139 -0.6024  0.1192
  872MOL0     C20242  13.778   7.095   8.801  0.3876  0.2893  0.2541
  872MOL0    Cl20243  13.842   6.957   8.883  0.5579 -0.4989 -0.3372
  872MOL0     C20244  13.047   6.649   8.377  0.2661  0.5970 -1.0641
  872MOL0     C20245  12.908   6.613   8.363  0.1059 -0.8739  0.4519
  872MOL0     O20246  12.682   6.611   8.037 -0.0804  0.5533 -0.8579
  872MOL0     C20247  12.413   6.564   8.228 -0.0772 -1.2228 -0.1368
  872MOL0     C20248  12.273   6.575   8.233 -0.1325  0.0488 -0.1342
  872MOL0     N20249  11.493   6.493   8.200 -0.3701  1.0025 -0.3136
  872MOL0     N20250  11.415   6.492   8.297 -0.0063 -0.6665 -0.2290
  872MOL0     C20251  10.364   6.787   8.484 -0.3099  0.2887  0.3655
  872MOL0     C20252  10.338   6.890   8.391  0.5037  0.5970 -0.0615
  872MOL0     C20253  10.476   7.258   8.134  0.6533 -0.3575 -0.6458
  872MOL0     C20254  10.344   7.292   8.109  0.4886 -0.2707 -0.4210
  872MOL0     C20255  10.299   7.412   8.060  0.3596  0.4360  0.4341
  872MOL0     C20256  10.397   7.498   8.002 -0.9671 -0.1110  0.1138
  872MOL0     O20257  10.372   7.622   7.936 -0.6183  0.5438  0.1649
  872MOL0     C20258  10.285   7.713   8.006  0.2741  0.4242 -0.1251
  872MOL0     C20259  10.214   7.812   7.906 -0.3646 -0.4714 -0.2759
  872MOL0     C20260  10.305   7.927   7.870  0.2611  0.0457 -0.4402
  872MOL0     C20261  10.236   8.017   7.762 -0.8709  0.1121 -0.7323
  872MOL0     C20262  10.186   7.943   7.644  0.0987  0.2739  0.1134
  872MOL0     C20263  10.148   7.896   7.535  0.2248 -0.5222  0.1479
  872MOL0     C20264  10.531   7.468   8.024  0.9467 -0.2314  0.2574
  872MOL0     C20265  10.576   7.352   8.088  0.4533  0.8529 -0.2644
  872MOL0     C20266  10.722   7.336   8.104 -1.3934  0.5555  0.5668
  872MOL0     H20267  10.606   6.843   8.189 -0.6878  1.2645 -0.6152
  872MOL0     H20268  10.652   6.675   8.342  1.6239  1.7941 -0.0902
  872MOL0     H20269  10.581   6.492   8.689 -1.7453 -0.2226  0.6705
  872MOL0     H20270  10.556   6.652   8.719 -1.6702 -0.1240 -0.5908
  872MOL0     H20271  10.767   6.537   8.521  0.1163  0.5687 -0.8211
  872MOL0     H20272  10.744   6.714   8.549 -1.5361  0.3207 -0.1741
  872MOL0     H20273  10.775   6.659   8.799 -0.1289 -0.3526  0.5018
  872MOL0     H20274  10.854   6.511   8.738 -1.2375  0.3721 -1.2707
  872MOL0     H20275  10.929   6.797   8.682 -1.8196 -0.1354  1.2956
  872MOL0     H20276  11.011   6.688   8.801 -1.0534  1.6514  0.0926
  872MOL0     H20277  11.020   6.643   8.506  0.3327  1.2698  0.0389
  872MOL0     H20278  11.100   6.546   8.630 -0.1775 -0.0906  0.2552
  872MOL0     H20279  11.135   6.852   8.619 -0.9764 -0.6972 -1.5179
  872MOL0     H20280  11.246   6.730   8.690 -1.4012 -4.3567  0.7939
  872MOL0     H20281  11.321   6.835   8.476  0.7076 -0.7001  1.9627
  872MOL0     H20282  11.189   6.730   8.390 -0.0020 -3.5048  0.1995
  872MOL0     H20283  11.427   6.668   8.556 -3.1540  2.6480  1.8634
  872MOL0     H20284  11.298   6.550   8.522  0.9522  0.6572  1.3287
  872MOL0     H20285  11.534   6.800   8.313  4.1869 -1.0961  0.2630
  872MOL0     H20286  11.648   6.776   8.067 -1.4275  0.5157  0.4103
  872MOL0     H20287  11.607   6.621   7.981  2.8368 -3.2088 -0.4063
  872MOL0     H20288  11.820   6.540   8.042  2.0850 -0.0013  0.7590
  872MOL0     H20289  11.844   6.702   8.037 -2.7182  0.0603 -2.2310
  872MOL0     H20290  11.825   6.720   8.282 -3.0544 -0.9634  0.0450
  872MOL0     H20291  11.793   6.546   8.292 -2.0618  0.6870 -0.5009
  872MOL0     H20292  12.022   6.564   8.331  1.0272  0.7985  0.4255
  872MOL0     H20293  12.005   6.512   8.163  2.7104 -1.1122  0.8366
  872MOL0     H20294  12.249   6.851   8.038  0.1249 -2.3656 -2.2588
  872MOL0     H20295  12.604   6.875   8.056 -0.1216  2.3367  1.0460
  872MOL0     H20296  12.456   6.957   8.039 -0.8406 -1.0249 -0.1895
  872MOL0     H20297  12.498   6.843   7.909 -2.4799 -0.4527 -0.6128
  872MOL0     H20298  12.832   6.802   8.095  1.0336 -0.1790 -0.6765
  872MOL0     H20299  13.062   6.862   8.121 -1.2580  0.3018  0.9751
  872MOL0     H20300  13.316   6.881   8.150 -1.8717  0.9756 -0.4804
  872MOL0     H20301  13.219   6.985   8.235 -0.8666 -0.4476  0.7871
  872MOL0     H20302  13.470   7.014   8.262 -0.1344 -0.1590 -0.3731
  872MOL0     H20303  13.379   7.017   8.415 -2.0913  1.0040 -0.5672
  872MOL0     H20304  13.518   6.780   8.286  1.1254 -0.9704  0.7409
  872MOL0     H20305  13.454   6.775   8.446  1.7798 -5.6026 -2.5914
  872MOL0     H20306  13.686   6.933   8.327  1.7502 -2.3904 -0.6400
  872MOL0     H20307  13.692   6.794   8.438  1.4997  0.7541  0.3597
  872MOL0     H20308  13.592   7.081   8.512 -1.6263 -0.5413 -0.2207
  872MOL0     H20309  13.596   6.939   8.612 -1.1488  3.7925  0.4575
  872MOL0     H20310  13.865   7.031   8.479  0.3614 -0.3293  0.6015
  872MOL0     H20311  13.843   6.916   8.596  2.1741  0.2292 -2.6840
  872MOL0     H20312  13.806   7.211   8.632 -0.9461  0.0560  2.9940
  872MOL0     H20313  13.945   7.106   8.681 -0.0600  0.1766  2.4330
  872MOL0     H20314  13.671   7.086   8.781  0.8968  0.4029 -3.1453
  872MOL0     H20315  13.801   7.189   8.853  0.3335  1.5664 -1.8836
  872MOL0     H20316  13.106   6.608   8.458 -0.5455  1.6940  0.1375
  872MOL0     H20317  12.859   6.545   8.432 -1.9884  0.1299  0.0495
  872MOL0     H20318  12.461   6.489   8.290  0.7780 -0.7148 -0.1595
  872MOL0     H20319  12.231   6.504   8.304 -0.6222 -0.1772 -0.6433
  872MOL0     H20320  10.298   6.748   8.561  1.9967 -2.0108  1.2970
  872MOL0     H20321  10.253   6.955   8.408  0.5577  0.6169  0.1499
  872MOL0     H20322  10.271   7.215   8.132 -1.9831  2.1694  0.4695
  872MOL0     H20323  10.195   7.438   8.048  0.6062  0.8988 -0.9245
  872MOL0     H20324  10.201   7.662   8.055 -0.7073 -0.0944 -2.2453
  872MOL0     H20325  10.341   7.755   8.090 -2.4723 -2.8711  3.7961
  872MOL0     H20326  10.133   7.862   7.960 -0.8926  0.9031 -2.2302
  872MOL0     H20327  10.175   7.749   7.825 -0.1854 -0.2731 -0.5211
  872MOL0     H20328  10.338   7.984   7.958 -0.5076  1.3179 -0.9504
  872MOL0     H20329  10.404   7.894   7.836 -0.1554 -3.2352  1.1441
  872MOL0     H20330  10.304   8.096   7.728  0.3652 -0.3167  0.6348
  872MOL0     H20331  10.154   8.071   7.809  0.1269  0.9288  0.1158
  872MOL0     H20332  10.102   7.874   7.440  0.1627  2.4255 -0.5965
  872MOL0     H20333  10.603   7.531   7.972  0.2332 -1.3337 -2.2426
  872MOL0     H20334  10.740   7.346   8.212 -0.5822  1.1082  0.3878
  872MOL0     H20335  10.757   7.236   8.078 -0.9325  1.0940 -0.9919
  872MOL0     H20336  10.782   7.407   8.047  0.2080 -1.1152  0.0732
  873MOL0     O20337   4.818   7.135   7.222 -0.5146 -1.1231 -0.6670
  873MOL0     C20338   4.791   7.149   7.341  0.7942  0.0850  0.1837
  873MOL0     O20339   4.882   7.155   7.440  0.2677 -0.4005  0.9209
  873MOL0     C20340   5.010   7.172   7.397  0.8471  0.5201  0.1660
  873MOL0     C20341   5.082   7.079   7.321 -0.7083 -0.5403 -0.0585
  873MOL0     C20342   5.215   7.106   7.277  0.2966 -0.3835 -0.0820
  873MOL0     C20343   5.272   7.225   7.314  0.5375 -0.6335 -0.1656
  873MOL0     O20344   5.400   7.259   7.277  0.0919  0.2163  0.1641
  873MOL0     C20345   5.509   7.169   7.323  0.1122 -0.5078 -0.1751
  873MOL0     C20346   5.634   7.266   7.341  0.3972 -0.3297  0.5225
  873MOL0     C20347   5.751   7.195   7.420 -0.4040  0.1384 -0.2047
  873MOL0     C20348   5.887   7.268   7.397 -0.5275  0.2163  0.1998
  873MOL0     C20349   6.002   7.188   7.467  0.5389 -0.0517 -0.2335
  873MOL0     C20350   6.134   7.260   7.451  0.6401  0.1059  0.1779
  873MOL0     C20351   6.249   7.200   7.524  0.5543 -0.0973 -0.5999
  873MOL0     C20352   6.373   7.289   7.532 -0.0273  0.2031 -0.3713
  873MOL0     N20353   6.430   7.303   7.400 -0.3775 -0.5453 -0.7431
  873MOL0     C20354   6.430   7.419   7.324  0.0053 -0.6187  0.1715
  873MOL0     C20355   6.504   7.393   7.217  0.3910 -0.0645  0.4032
  873MOL0     C20356   6.519   7.479   7.097  0.0216 -0.2976  0.3043
  873MOL0     C20357   6.655   7.473   7.038  0.6000 -0.0653 -0.0195
  873MOL0     C20358   6.680   7.364   6.929 -0.4578 -0.7760 -0.8713
  873MOL0     C20359   6.829   7.358   6.891  0.1855  0.4636 -1.3300
  873MOL0     O20360   6.873   7.495   6.870 -0.2800  0.0277  0.5515
  873MOL0     C20361   7.009   7.517   6.868  0.0060  0.1595  0.1045
  873MOL0     C20362   7.067   7.576   6.756 -0.4031 -0.7840  0.0434
  873MOL0     C20363   7.206   7.615   6.756 -1.2492 -0.7346  0.3778
  873MOL0     C20364   7.260   7.655   6.627 -0.3142 -0.4172  0.5585
  873MOL0     C20365   7.291   7.577   6.865  0.5392  0.5161  0.4137
  873MOL0     C20366   7.439   7.598   6.877 -0.4253 -0.1273 -0.4616
  873MOL0     O20367   7.510   7.518   6.972  0.4921 -0.3324  0.4446
  873MOL0     C20368   7.643   7.497   6.952  0.6405  0.3203  0.2530
  873MOL0     C20369   7.718   7.475   7.058 -0.3957 -0.3902 -0.1647
  873MOL0     C20370   7.848   7.431   7.039  0.5219 -0.2353 -0.0078
  873MOL0     C20371   7.905   7.417   6.912  0.5403  0.7580  0.4680
  873MOL0     O20372   8.033   7.372   6.890 -0.5624 -0.2150 -0.3262
  873MOL0     C20373   8.106   7.310   6.997  0.0991  0.3509  0.0185
  873MOL0     C20374   8.255   7.268   6.958  0.3680 -0.1210 -0.4029
  873MOL0     C20375   8.279   7.255   6.809  0.5573 -0.1441  0.3631
  873MOL0     C20376   8.426   7.214   6.787 -0.9527 -0.8514  0.0077
  873MOL0     C20377   8.476   7.249   6.646  0.1173 -1.1162  0.9529
  873MOL0     C20378   8.616   7.179   6.625 -0.5842  0.0372  0.0007
  873MOL0     C20379   8.684   7.242   6.489 -0.2853  0.5977 -0.3715
  873MOL0     C20380   8.751   7.127   6.414 -0.4032 -0.0366 -1.0162
  873MOL0    Cl20381   8.615   7.033   6.346  0.1232 -0.1024 -0.2053
  873MOL0     C20382   7.826   7.444   6.803 -1.1128 -0.6279 -0.0410
  873MOL0     C20383   7.699   7.494   6.823  0.7178 -0.1172 -0.8954
  873MOL0     O20384   7.485   7.685   6.806 -0.4530  0.0139 -0.0891
  873MOL0     C20385   7.225   7.512   6.977  0.2035 -0.3093  0.2075
  873MOL0     C20386   7.087   7.494   6.977 -0.3374  0.3943 -0.1604
  873MOL0     N20387   6.549   7.259   7.233 -0.2300  0.2000  0.1871
  873MOL0     N20388   6.517   7.212   7.342  0.1862  0.2172 -0.6414
  873MOL0     C20389   5.203   7.308   7.401 -0.3019 -0.3704 -0.2959
  873MOL0     C20390   5.072   7.287   7.436  0.0501 -0.6079 -0.0493
  873MOL0     C20391   4.646   7.168   7.377  0.3025 -0.1303  0.9002
  873MOL0     C20392   4.619   7.217   7.510 -0.5634  0.1016  0.3186
  873MOL0     C20393   4.495   7.234   7.561 -0.2642 -0.7799  0.0637
  873MOL0     C20394   4.386   7.199   7.492  0.5340 -0.0577  1.0169
  873MOL0     O20395   4.266   7.182   7.558  0.1439 -0.8713 -0.2133
  873MOL0     C20396   4.148   7.139   7.482  0.7931 -0.2662 -0.6009
  873MOL0     C20397   4.028   7.129   7.573  0.4369  0.5151 -0.2130
  873MOL0     C20398   3.918   7.062   7.492 -0.7895 -0.3708 -0.0832
  873MOL0     C20399   3.792   7.068   7.573  0.8253 -0.5545 -0.8622
  873MOL0     C20400   3.686   6.979   7.523 -1.0496 -0.8845  1.0272
  873MOL0     C20401   3.588   6.916   7.508 -0.0829  0.0894  0.8553
  873MOL0     C20402   4.411   7.167   7.350 -0.3508 -0.2842  0.3503
  873MOL0     C20403   4.535   7.147   7.292 -0.1903 -0.9552 -0.3155
  873MOL0     C20404   4.533   7.107   7.149  0.1578 -0.6400  0.4660
  873MOL0     H20405   5.054   6.981   7.285  2.5644 -0.9980 -1.7805
  873MOL0     H20406   5.269   7.027   7.225 -1.3436 -0.9637 -0.9684
  873MOL0     H20407   5.529   7.091   7.249 -1.8968 -0.2235 -1.0624
  873MOL0     H20408   5.486   7.130   7.422  2.2334  2.4628  1.6619
  873MOL0     H20409   5.667   7.299   7.242  1.5342 -0.9838  0.6642
  873MOL0     H20410   5.604   7.363   7.383  0.8049 -0.4613  1.1331
  873MOL0     H20411   5.734   7.201   7.528  0.2052  0.5345 -0.1303
  873MOL0     H20412   5.771   7.092   7.389  0.3317 -0.0379  0.8341
  873MOL0     H20413   5.902   7.281   7.290 -1.9949  2.5105  0.2011
  873MOL0     H20414   5.885   7.371   7.434  0.8969  1.2413 -2.3380
  873MOL0     H20415   6.011   7.093   7.414 -0.4802 -0.0257 -0.4714
  873MOL0     H20416   5.987   7.175   7.575  2.3036  1.2910  0.2103
  873MOL0     H20417   6.167   7.255   7.347  0.7912 -0.5016  0.2552
  873MOL0     H20418   6.114   7.362   7.486 -1.2366  0.2839 -1.2446
  873MOL0     H20419   6.280   7.101   7.487  2.2413 -0.0206  0.5442
  873MOL0     H20420   6.219   7.186   7.628  2.0235 -0.7396 -0.2372
  873MOL0     H20421   6.351   7.382   7.585 -1.2298 -1.7034  2.8208
  873MOL0     H20422   6.444   7.235   7.596 -3.3021 -1.2957  2.3498
  873MOL0     H20423   6.386   7.513   7.357  0.8359  0.0664 -0.6206
  873MOL0     H20424   6.507   7.582   7.131 -0.1556  0.1469 -1.0277
  873MOL0     H20425   6.439   7.457   7.026  0.6714 -2.6815  0.2332
  873MOL0     H20426   6.671   7.574   6.999  0.1335  0.1732  0.3979
  873MOL0     H20427   6.724   7.454   7.121  1.8571 -1.0045 -1.2369
  873MOL0     H20428   6.640   7.268   6.964 -1.5591 -0.1214 -0.2634
  873MOL0     H20429   6.621   7.391   6.841  2.5821  3.2630 -1.9433
  873MOL0     H20430   6.882   7.302   6.969 -0.3915  3.6712  1.5963
  873MOL0     H20431   6.831   7.301   6.797 -0.8839 -1.0836 -0.4566
  873MOL0     H20432   6.997   7.618   6.684  2.0714  3.4997 -0.2256
  873MOL0     H20433   7.341   7.588   6.598 -1.1273 -0.8328 -0.8385
  873MOL0     H20434   7.299   7.756   6.638  1.3827 -1.1776  2.0520
  873MOL0     H20435   7.186   7.626   6.551  0.2653 -0.5684  0.0425
  873MOL0     H20436   7.679   7.484   7.159 -0.3917 -1.3362 -0.0692
  873MOL0     H20437   7.903   7.415   7.132 -2.3230  0.8256  1.9972
  873MOL0     H20438   8.115   7.376   7.084  3.3224 -0.4069  0.4129
  873MOL0     H20439   8.047   7.225   7.031 -1.5950  0.4005 -2.5528
  873MOL0     H20440   8.326   7.345   6.988  0.7708 -1.4618  2.4390
  873MOL0     H20441   8.294   7.189   7.024 -1.3360 -2.1945 -1.7373
  873MOL0     H20442   8.262   7.349   6.757 -2.4855 -1.5473 -1.4610
  873MOL0     H20443   8.209   7.187   6.761  0.0705  1.6078 -1.5466
  873MOL0     H20444   8.434   7.106   6.800  1.6838 -0.9067 -1.3590
  873MOL0     H20445   8.489   7.269   6.857 -2.4686 -0.2048  0.9082
  873MOL0     H20446   8.410   7.212   6.567  1.4750 -0.7326 -0.3751
  873MOL0     H20447   8.485   7.358   6.646 -0.1932 -1.0493  2.5957
  873MOL0     H20448   8.594   7.073   6.615 -2.7476  0.3587  0.7778
  873MOL0     H20449   8.675   7.198   6.715 -2.8905 -0.2887  1.6845
  873MOL0     H20450   8.761   7.312   6.521  0.1131  0.5964 -1.2920
  873MOL0     H20451   8.613   7.296   6.426 -0.1047  0.7136 -0.4776
  873MOL0     H20452   8.825   7.078   6.479  2.6309  5.4746  0.2853
  873MOL0     H20453   8.815   7.163   6.334  0.6691 -0.5978 -0.4347
  873MOL0     H20454   7.867   7.426   6.704  3.7252  0.0387  1.5829
  873MOL0     H20455   7.635   7.499   6.736 -0.1407  0.6024 -0.2445
  873MOL0     H20456   7.277   7.487   7.068 -0.2449  0.0497  0.5699
  873MOL0     H20457   7.040   7.461   7.069  2.3796  0.8235  1.4533
  873MOL0     H20458   5.256   7.397   7.433 -0.3660  0.3531 -2.1226
  873MOL0     H20459   5.018   7.363   7.493  1.8058  0.0496  0.8057
  873MOL0     H20460   4.704   7.218   7.578  0.0269 -0.8416 -0.3714
  873MOL0     H20461   4.492   7.263   7.665 -1.9832 -1.9139  0.3551
  873MOL0     H20462   4.125   7.213   7.404 -1.0384 -2.8277 -2.6473
  873MOL0     H20463   4.165   7.041   7.436 -0.3222 -0.1970 -1.1962
  873MOL0     H20464   4.000   7.232   7.594 -2.0321  0.0766 -0.9850
  873MOL0     H20465   4.044   7.067   7.662 -0.9437 -2.2950 -1.7845
  873MOL0     H20466   3.910   7.124   7.402  2.9387 -0.0765 -0.3556
  873MOL0     H20467   3.942   6.956   7.480 -2.5104 -0.8216  0.1413
  873MOL0     H20468   3.755   7.171   7.576 -0.0943 -0.8764 -0.8243
  873MOL0     H20469   3.813   7.032   7.674 -0.0613  0.9641 -0.1119
  873MOL0     H20470   3.503   6.854   7.488 -1.2918  2.0543 -0.4665
  873MOL0     H20471   4.331   7.147   7.279 -0.4499  2.8057 -0.5678
  873MOL0     H20472   4.607   7.168   7.097 -1.2948  0.0711 -0.8422
  873MOL0     H20473   4.560   7.001   7.151 -2.2657 -1.3441  2.8440
  873MOL0     H20474   4.441   7.119   7.092  0.1300 -0.5439  0.5314
  874MOL0     O20475  10.595   6.746   5.631  0.3356  0.0931 -0.4358
  874MOL0     C20476  10.548   6.814   5.542 -0.8047 -0.3846  0.2238
  874MOL0     O20477  10.573   6.793   5.411  0.0701  0.4249  0.3626
  874MOL0     C20478  10.679   6.721   5.361 -0.5297  0.1536 -0.2655
  874MOL0     C20479  10.800   6.692   5.422  0.8945 -0.6665 -0.3503
  874MOL0     C20480  10.912   6.629   5.355  0.3235 -0.3795  0.6537
  874MOL0     C20481  10.890   6.579   5.221 -0.4662  0.7073 -0.1450
  874MOL0     O20482  10.985   6.512   5.154 -0.2073  0.2489  0.6578
  874MOL0     C20483  10.956   6.447   5.032  0.5885  0.0718  0.2597
  874MOL0     C20484  11.073   6.357   4.998 -0.4281 -0.4465 -0.0438
  874MOL0     C20485  11.217   6.416   4.981 -0.4694 -0.1139  0.4467
  874MOL0     C20486  11.332   6.324   5.024  0.6791 -0.0038 -0.3327
  874MOL0     C20487  11.457   6.412   5.011 -0.0974 -1.3409 -0.0634
  874MOL0     C20488  11.500   6.457   4.867 -0.1694  0.7464 -0.1620
  874MOL0     C20489  11.620   6.551   4.870  0.2499  0.1043  0.6784
  874MOL0     C20490  11.577   6.684   4.822 -0.1286 -0.2408  0.0147
  874MOL0     N20491  11.685   6.780   4.800  0.5334 -0.5506  0.7642
  874MOL0     C20492  11.798   6.769   4.731 -1.4286 -0.6671  0.6326
  874MOL0     C20493  11.850   6.896   4.732  0.1953  0.2236 -0.0881
  874MOL0     C20494  11.999   6.931   4.699  0.6154  1.2811 -0.2369
  874MOL0     C20495  12.105   6.833   4.745  0.3292  0.1934  0.9769
  874MOL0     C20496  12.239   6.871   4.699 -0.6808 -0.3376  0.0659
  874MOL0     C20497  12.351   6.786   4.765 -0.0970  0.1101  0.0337
  874MOL0     O20498  12.482   6.813   4.698 -0.0920 -0.3937 -0.4885
  874MOL0     C20499  12.552   6.923   4.741 -0.7100 -0.1830 -0.6113
  874MOL0     C20500  12.672   6.932   4.658  0.0384 -0.3103 -0.2787
  874MOL0     C20501  12.772   7.034   4.684 -0.0323  0.0790 -0.2230
  874MOL0     C20502  12.899   7.039   4.611  0.1785  0.0040 -0.4318
  874MOL0     C20503  12.739   7.139   4.780  0.4808  0.5990  0.6457
  874MOL0     C20504  12.822   7.257   4.819 -0.3464  0.8164 -0.9816
  874MOL0     O20505  12.769   7.337   4.913 -0.3224 -0.1074 -0.2202
  874MOL0     C20506  12.825   7.454   4.954  0.0587 -1.3785  0.7031
  874MOL0     C20507  12.948   7.455   5.016 -0.2089 -0.6854  0.7160
  874MOL0     C20508  13.004   7.568   5.076 -0.3800 -0.4583 -0.2912
  874MOL0     C20509  12.942   7.695   5.061 -0.7118  0.1578 -0.5619
  874MOL0     O20510  12.990   7.816   5.117 -0.3281  0.4952 -0.4708
  874MOL0     C20511  13.059   7.888   5.015  0.2338  0.3391  0.4372
  874MOL0     C20512  13.209   7.869   5.041 -0.3172  0.0634 -1.2288
  874MOL0     C20513  13.289   7.941   4.937 -0.4324  0.2093  1.1768
  874MOL0     C20514  13.435   7.911   4.970  0.0094  0.6692  0.9954
  874MOL0     C20515  13.520   7.969   4.856 -0.3825 -0.6374 -1.0757
  874MOL0     C20516  13.671   7.947   4.889  0.4100 -0.1805  0.2313
  874MOL0     C20517  13.724   8.030   5.013 -0.2094 -0.3767 -0.3910
  874MOL0     C20518  13.877   8.035   5.006  0.7728 -0.6439 -0.1243
  874MOL0    Cl20519  13.954   8.100   5.159 -0.3442  0.1318  0.0113
  874MOL0     C20520  12.822   7.694   4.993  0.9000  0.5475  0.0422
  874MOL0     C20521  12.770   7.585   4.926  0.1926 -0.5378 -1.1688
  874MOL0     O20522  12.922   7.285   4.758 -0.0522 -0.1901  0.4839
  874MOL0     C20523  12.617   7.125   4.850 -0.3376 -0.1999 -0.2345
  874MOL0     C20524  12.522   7.023   4.829 -0.8557  0.2463  1.0468
  874MOL0     N20525  11.761   6.987   4.790  0.4503  1.2730  0.6237
  874MOL0     N20526  11.670   6.912   4.840 -0.1157 -0.1987 -0.3245
  874MOL0     C20527  10.767   6.623   5.158  1.2285 -0.4700 -0.3257
  874MOL0     C20528  10.673   6.691   5.226 -0.2562 -0.1806  0.5654
  874MOL0     C20529  10.448   6.923   5.570  0.7103  0.8267 -0.6280
  874MOL0     C20530  10.394   6.983   5.450 -0.2722 -0.1595 -0.6166
  874MOL0     C20531  10.305   7.089   5.470  0.3820  0.3725  0.5796
  874MOL0     C20532  10.258   7.130   5.594 -0.2561  0.1542 -0.2184
  874MOL0     O20533  10.155   7.230   5.595  0.2425  0.4797 -0.1520
  874MOL0     C20534  10.071   7.256   5.710  0.9090 -0.0265 -0.0010
  874MOL0     C20535   9.959   7.358   5.680 -0.4653 -0.0534 -0.1961
  874MOL0     C20536   9.875   7.342   5.554 -1.1705 -0.6440 -0.8586
  874MOL0     C20537   9.728   7.349   5.582 -0.3972  0.0091 -0.3471
  874MOL0     C20538   9.656   7.307   5.462 -0.3961 -0.4890 -0.3821
  874MOL0     C20539   9.604   7.273   5.358  0.1542  0.8680 -0.1627
  874MOL0     C20540  10.311   7.065   5.707  0.7580 -0.1002 -0.1254
  874MOL0     C20541  10.404   6.965   5.696  0.5177  0.8569 -0.7423
  874MOL0     C20542  10.447   6.893   5.822  0.8557 -0.3612  0.1341
  874MOL0     H20543  10.833   6.731   5.518  0.4291 -0.5613 -0.2329
  874MOL0     H20544  10.999   6.592   5.407 -0.5836 -0.6486  2.0381
  874MOL0     H20545  10.930   6.518   4.953  2.4239  1.0412  0.4705
  874MOL0     H20546  10.878   6.371   5.045  0.1740  0.3434 -0.5720
  874MOL0     H20547  11.075   6.288   5.084 -0.0506  0.3583  0.6093
  874MOL0     H20548  11.050   6.307   4.903 -0.1446  1.3019 -1.0639
  874MOL0     H20549  11.219   6.440   4.874 -1.1837  1.1662  0.6999
  874MOL0     H20550  11.226   6.514   5.029 -3.2278  1.2071 -1.4050
  874MOL0     H20551  11.328   6.297   5.130 -1.4808 -0.0338 -0.3778
  874MOL0     H20552  11.332   6.229   4.970 -2.8133 -0.1441 -0.3062
  874MOL0     H20553  11.542   6.364   5.061  0.4968  1.8594  2.3087
  874MOL0     H20554  11.446   6.502   5.072 -1.4459 -0.5939 -1.3425
  874MOL0     H20555  11.536   6.369   4.812  1.5056  2.2999 -1.6907
  874MOL0     H20556  11.413   6.494   4.812  0.4365 -1.2794 -2.7031
  874MOL0     H20557  11.703   6.505   4.815 -0.7702  1.4614 -2.1693
  874MOL0     H20558  11.654   6.572   4.972  1.6116 -1.6677  0.6320
  874MOL0     H20559  11.526   6.679   4.725 -3.7527 -1.6827  1.7802
  874MOL0     H20560  11.504   6.727   4.891 -0.9991 -0.3552 -0.8177
  874MOL0     H20561  11.859   6.685   4.702 -0.3236 -0.5918  2.5860
  874MOL0     H20562  12.025   7.034   4.728 -1.2364  2.6559 -2.9705
  874MOL0     H20563  11.999   6.931   4.589  2.3370  0.8439 -0.2608
  874MOL0     H20564  12.098   6.826   4.854 -0.7394 -1.4281  0.8365
  874MOL0     H20565  12.080   6.732   4.710 -0.7854  0.4758  0.9058
  874MOL0     H20566  12.239   6.876   4.590 -1.7734  1.5891  0.1129
  874MOL0     H20567  12.255   6.975   4.727  0.3338 -0.8888  1.7203
  874MOL0     H20568  12.343   6.805   4.873 -1.1988 -2.2093  0.4221
  874MOL0     H20569  12.328   6.681   4.742 -0.1937 -0.0219  0.7082
  874MOL0     H20570  12.684   6.854   4.584 -0.2947  0.9642 -1.7218
  874MOL0     H20571  12.991   7.051   4.669 -0.0273 -0.4240 -0.0133
  874MOL0     H20572  12.900   7.113   4.530  0.2071 -0.6067 -1.0073
  874MOL0     H20573  12.907   6.938   4.568  0.2230  0.7220 -2.1870
  874MOL0     H20574  12.993   7.356   5.025  0.2827 -0.5480 -0.1319
  874MOL0     H20575  13.094   7.555   5.137  0.0117 -3.2614 -1.3725
  874MOL0     H20576  13.032   7.854   4.915 -0.7716  0.0667  0.7867
  874MOL0     H20577  13.029   7.991   5.034 -3.0078  0.1386 -2.6355
  874MOL0     H20578  13.237   7.893   5.144 -0.6811 -2.1936 -0.5502
  874MOL0     H20579  13.234   7.763   5.035 -0.4252 -0.1902  1.4812
  874MOL0     H20580  13.275   8.049   4.943  0.0396  0.3241  0.2785
  874MOL0     H20581  13.252   7.912   4.839  1.4971  0.2735  0.3890
  874MOL0     H20582  13.457   7.804   4.969  1.3319  0.9149  0.1267
  874MOL0     H20583  13.472   7.955   5.063  0.3426  1.6617  0.4157
  874MOL0     H20584  13.496   7.912   4.767 -0.1291 -3.5632  0.6034
  874MOL0     H20585  13.494   8.074   4.840 -1.0831 -0.6364 -0.0189
  874MOL0     H20586  13.725   7.979   4.800  0.7735 -3.1234 -0.7008
  874MOL0     H20587  13.687   7.839   4.895  1.4127 -0.2798 -2.6677
  874MOL0     H20588  13.703   7.974   5.104  0.5470 -1.3925 -0.8178
  874MOL0     H20589  13.690   8.133   5.023 -0.7302 -0.5730 -0.1182
  874MOL0     H20590  13.898   8.108   4.927  1.8805  2.1772  2.5635
  874MOL0     H20591  13.918   7.937   4.982  1.8071 -1.5584  4.4120
  874MOL0     H20592  12.767   7.788   4.984 -1.3443 -0.8875 -2.5886
  874MOL0     H20593  12.677   7.590   4.871 -1.4625 -2.0938  1.2952
  874MOL0     H20594  12.585   7.204   4.917  0.9288  0.7916 -0.7551
  874MOL0     H20595  12.425   7.018   4.878 -0.5912 -0.6797  1.4951
  874MOL0     H20596  10.746   6.613   5.052  0.8892  1.5368 -0.4900
  874MOL0     H20597  10.589   6.721   5.165  1.5635  0.5466 -1.7157
  874MOL0     H20598  10.416   6.953   5.348  0.0788 -0.7646 -0.3671
  874MOL0     H20599  10.266   7.120   5.374 -0.6025 -1.3025  0.4004
  874MOL0     H20600  10.027   7.159   5.734 -0.1940 -0.0455 -1.9032
  874MOL0     H20601  10.121   7.290   5.801 -1.6833 -0.4895  1.7115
  874MOL0     H20602  10.007   7.456   5.673  1.3373 -0.9400 -1.0005
  874MOL0     H20603   9.892   7.355   5.766 -3.1741  0.9453 -2.1533
  874MOL0     H20604   9.894   7.422   5.482  0.2324 -0.5728 -0.4421
  874MOL0     H20605   9.902   7.252   5.497  0.0783 -1.6401  1.2031
  874MOL0     H20606   9.704   7.453   5.606 -0.3122 -0.2972  1.1241
  874MOL0     H20607   9.695   7.289   5.667  0.0085 -2.5712 -1.8952
  874MOL0     H20608   9.553   7.242   5.269  0.3954  1.9259 -0.6825
  874MOL0     H20609  10.273   7.098   5.802  0.6237  1.5381 -0.7246
  874MOL0     H20610  10.432   6.785   5.819 -2.9527  0.0154 -2.3167
  874MOL0     H20611  10.554   6.912   5.831  0.7357  0.3793  0.1247
  874MOL0     H20612  10.390   6.919   5.911 -1.4435 -0.5716 -1.1972
  875MOL0     O20613  10.234  10.662   4.895  0.0994 -0.5402  0.0463
  875MOL0     C20614  10.226  10.559   4.836 -0.2669 -0.0171 -0.2694
  875MOL0     O20615  10.328  10.488   4.779 -0.0751  0.0942 -1.1240
  875MOL0     C20616  10.458  10.536   4.799  0.3617  1.2946 -0.1600
  875MOL0     C20617  10.534  10.545   4.684 -0.0221 -0.1198 -0.7116
  875MOL0     C20618  10.670  10.584   4.696  0.0213  1.1338 -0.5119
  875MOL0     C20619  10.726  10.621   4.822 -0.0837 -0.3929  0.8542
  875MOL0     O20620  10.864  10.655   4.815 -0.0155  0.5512 -0.1241
  875MOL0     C20621  10.938  10.657   4.936 -0.4400  0.2346 -0.1231
  875MOL0     C20622  11.079  10.701   4.910  0.1848 -1.0500 -0.6764
  875MOL0     C20623  11.173  10.670   5.023  0.4221 -0.3539 -0.6923
  875MOL0     C20624  11.314  10.711   4.982  0.2667 -0.1736  0.0954
  875MOL0     C20625  11.408  10.697   5.099  0.2508  0.2564 -0.6477
  875MOL0     C20626  11.553  10.717   5.062 -0.6639  0.2612 -0.8232
  875MOL0     C20627  11.650  10.689   5.183  0.9612  0.4157 -0.0940
  875MOL0     C20628  11.792  10.690   5.144 -0.3306 -0.4123  0.0160
  875MOL0     N20629  11.896  10.645   5.248  0.5585 -0.4305 -0.0801
  875MOL0     C20630  11.863  10.591   5.372 -0.4748 -0.0360 -0.7608
  875MOL0     C20631  11.983  10.551   5.424  0.1353 -0.4156  0.1702
  875MOL0     C20632  11.996  10.492   5.562 -0.3903  0.9053 -0.3335
  875MOL0     C20633  12.137  10.427   5.595  0.0467  0.8761 -0.3869
  875MOL0     C20634  12.220  10.507   5.684 -0.3506 -0.2655  0.4859
  875MOL0     C20635  12.267  10.641   5.610  0.2962 -0.0958  0.0977
  875MOL0     O20636  12.369  10.709   5.681 -0.6987 -0.0864 -0.0686
  875MOL0     C20637  12.498  10.670   5.666  0.3730 -0.1050 -0.3436
  875MOL0     C20638  12.547  10.576   5.575  0.8036 -0.0039 -0.7145
  875MOL0     C20639  12.682  10.551   5.564  0.6480  0.6252 -1.4333
  875MOL0     C20640  12.728  10.440   5.483 -1.0372  0.6292 -0.8432
  875MOL0     C20641  12.773  10.619   5.652  0.2661  0.4909  0.3196
  875MOL0     C20642  12.926  10.600   5.647  1.2163 -0.6175  0.2870
  875MOL0     O20643  12.996  10.577   5.534  0.5001 -0.1821 -0.3574
  875MOL0     C20644  13.125  10.602   5.541 -0.1153 -0.0302  1.0551
  875MOL0     C20645  13.218  10.501   5.501  0.2194 -0.3256 -0.3268
  875MOL0     C20646  13.357  10.525   5.520  0.2550 -0.8308  0.6460
  875MOL0     C20647  13.404  10.648   5.565 -0.5385  0.3967 -0.3879
  875MOL0     O20648  13.539  10.662   5.600  0.5749  0.4814 -0.4896
  875MOL0     C20649  13.632  10.655   5.487 -0.3258 -1.0790  0.0989
  875MOL0     C20650  13.739  10.772   5.491  0.3903  0.6132  0.3497
  875MOL0     C20651  13.860  10.738   5.413  0.4514 -0.3929  0.6830
  875MOL0     C20652  13.968  10.844   5.409 -0.4383 -0.6942 -0.0470
  875MOL0     C20653  14.033  10.851   5.272  0.6487 -0.1932 -0.3974
  875MOL0     C20654  14.113  10.728   5.224 -0.3199 -0.0056 -0.3916
  875MOL0     C20655  14.249  10.701   5.306 -0.3921 -0.5942 -0.0282
  875MOL0     C20656  14.327  10.586   5.235 -0.7434  0.4888 -0.5751
  875MOL0    Cl20657  14.435  10.640   5.096  0.0883  0.1500  0.5092
  875MOL0     C20658  13.314  10.753   5.592 -0.4830  0.1339 -0.0994
  875MOL0     C20659  13.177  10.728   5.566 -0.9176 -0.3820  0.2113
  875MOL0     O20660  12.971  10.606   5.759  0.3185 -0.6753  0.3506
  875MOL0     C20661  12.726  10.718   5.735  0.6615  0.1657  0.4319
  875MOL0     C20662  12.590  10.743   5.741  1.6979  0.2856 -0.4338
  875MOL0     N20663  12.082  10.574   5.327  0.4461 -0.7925  0.1893
  875MOL0     N20664  12.027  10.625   5.227  0.5381 -0.1557  0.8044
  875MOL0     C20665  10.646  10.615   4.942 -0.1849 -0.7523 -0.0704
  875MOL0     C20666  10.512  10.571   4.930  0.3765 -0.4011 -0.3090
  875MOL0     C20667  10.092  10.479   4.842 -0.3131 -0.5001 -0.0052
  875MOL0     C20668  10.089  10.339   4.841  0.1659  0.0234  0.4462
  875MOL0     C20669   9.967  10.279   4.847 -0.6814  0.2783  0.0900
  875MOL0     C20670   9.843  10.348   4.862 -0.7164 -0.0165  0.2147
  875MOL0     O20671   9.730  10.261   4.860 -0.2950 -0.1461  0.1537
  875MOL0     C20672   9.610  10.323   4.813  0.1489 -0.0512  0.2272
  875MOL0     C20673   9.508  10.217   4.781  0.0941 -1.0166 -0.3034
  875MOL0     C20674   9.388  10.280   4.696  0.1385 -0.8013  0.0808
  875MOL0     C20675   9.286  10.166   4.703  0.7998 -0.5426  0.3968
  875MOL0     C20676   9.185  10.188   4.597 -0.1215 -0.3734  0.8626
  875MOL0     C20677   9.097  10.218   4.511  0.4831  0.7331  0.3248
  875MOL0     C20678   9.840  10.488   4.865 -0.0677  0.3272  0.0216
  875MOL0     C20679   9.967  10.553   4.864 -0.0884  0.4024 -0.2257
  875MOL0     C20680   9.957  10.702   4.886  0.1544  0.8538 -0.7457
  875MOL0     H20681  10.496  10.513   4.588 -0.2686  1.1292 -1.0439
  875MOL0     H20682  10.740  10.578   4.614  1.3118 -0.0674  0.6209
  875MOL0     H20683  10.939  10.560   4.986 -0.2689  1.6365  2.8259
  875MOL0     H20684  10.886  10.729   5.000 -0.2914  3.3856 -3.2545
  875MOL0     H20685  11.113  10.655   4.817  0.3120 -1.4900 -0.4165
  875MOL0     H20686  11.075  10.808   4.889 -2.8963 -0.1755  3.0332
  875MOL0     H20687  11.142  10.726   5.112 -0.7285 -2.3837  0.2471
  875MOL0     H20688  11.175  10.565   5.051 -1.8765 -0.0508  0.8636
  875MOL0     H20689  11.344  10.652   4.895  1.0816 -0.3059  0.4602
  875MOL0     H20690  11.315  10.817   4.955  0.2836  0.3776  2.0981
  875MOL0     H20691  11.403  10.606   5.159  2.1343 -0.3634 -1.3574
  875MOL0     H20692  11.384  10.774   5.172  2.6459  0.0353  0.4546
  875MOL0     H20693  11.571  10.650   4.977  2.4229 -1.8653  1.2958
  875MOL0     H20694  11.572  10.820   5.032  1.1884  0.1682 -0.0810
  875MOL0     H20695  11.630  10.588   5.219  2.9104 -0.0404 -0.1615
  875MOL0     H20696  11.631  10.762   5.262  0.3640  1.5151 -1.2101
  875MOL0     H20697  11.808  10.621   5.060 -0.3751 -1.8245  1.1352
  875MOL0     H20698  11.819  10.790   5.111  0.6958 -1.0781 -1.2471
  875MOL0     H20699  11.766  10.574   5.416 -0.3163 -1.9840 -1.0974
  875MOL0     H20700  11.917  10.417   5.568 -2.0815  2.6864  0.9444
  875MOL0     H20701  11.975  10.579   5.624  0.1564  1.5754 -1.0681
  875MOL0     H20702  12.117  10.339   5.657 -2.0336  2.5692  1.5051
  875MOL0     H20703  12.193  10.406   5.503  0.6102  2.8870 -0.5560
  875MOL0     H20704  12.167  10.533   5.776  1.0545 -2.4950  2.0460
  875MOL0     H20705  12.310  10.451   5.713 -0.5625 -0.1491  1.3784
  875MOL0     H20706  12.287  10.624   5.503 -0.0950  0.4714 -0.0706
  875MOL0     H20707  12.188  10.716   5.606  1.3298  1.1004  1.4994
  875MOL0     H20708  12.478  10.518   5.514 -0.1612  3.2097 -2.9358
  875MOL0     H20709  12.651  10.367   5.456 -0.6043  0.4570 -1.6414
  875MOL0     H20710  12.810  10.389   5.535 -0.6703  0.4194 -1.6112
  875MOL0     H20711  12.761  10.489   5.391 -0.6796 -1.8752 -2.1378
  875MOL0     H20712  13.189  10.406   5.457  1.4342 -0.2782 -1.2939
  875MOL0     H20713  13.433  10.448   5.508  0.2486 -0.8807  0.9242
  875MOL0     H20714  13.683  10.558   5.493  2.3743  0.1237 -1.5270
  875MOL0     H20715  13.580  10.666   5.391 -2.2048  0.0942  1.1788
  875MOL0     H20716  13.691  10.862   5.451  0.0346 -0.0303 -0.7057
  875MOL0     H20717  13.784  10.769   5.591  2.1069 -3.0809 -0.3865
  875MOL0     H20718  13.832  10.717   5.309  2.0206  0.1124  0.1283
  875MOL0     H20719  13.893  10.648   5.467 -2.7276 -1.4367  1.0852
  875MOL0     H20720  14.035  10.823   5.492 -0.7022 -1.6506 -0.0602
  875MOL0     H20721  13.919  10.940   5.430  0.0869 -0.6036  0.7884
  875MOL0     H20722  13.950  10.875   5.204 -0.2287 -0.4759  0.5433
  875MOL0     H20723  14.088  10.945   5.269 -1.6043  1.1688 -2.0220
  875MOL0     H20724  14.134  10.755   5.120  1.1514  2.2160  0.4192
  875MOL0     H20725  14.050  10.639   5.211  1.5695 -1.4513 -0.1618
  875MOL0     H20726  14.222  10.679   5.410  0.3954 -1.2567  0.0507
  875MOL0     H20727  14.317  10.787   5.309 -1.1275 -0.0227  1.9456
  875MOL0     H20728  14.251  10.515   5.201 -0.4295  0.2304 -0.7392
  875MOL0     H20729  14.389  10.536   5.310  0.5966  2.4534 -0.3115
  875MOL0     H20730  13.329  10.858   5.616 -2.1979  0.0397  1.6528
  875MOL0     H20731  13.102  10.807   5.566 -0.9625 -0.3775 -1.8313
  875MOL0     H20732  12.778  10.791   5.796  0.1014  0.7627  0.2077
  875MOL0     H20733  12.549  10.824   5.801 -0.3288 -1.5314  0.7869
  875MOL0     H20734  10.686  10.649   5.038 -2.7209 -0.4052  0.9476
  875MOL0     H20735  10.452  10.578   5.020 -2.5111  0.7597 -2.1408
  875MOL0     H20736  10.182  10.283   4.841  0.9788  1.2886 -1.0669
  875MOL0     H20737   9.958  10.171   4.844  0.5363  0.1235  0.9718
  875MOL0     H20738   9.560  10.381   4.891 -1.9233 -1.0603 -0.2652
  875MOL0     H20739   9.624  10.379   4.720  2.2360 -0.2038  0.4185
  875MOL0     H20740   9.465  10.176   4.873  0.9611  3.8559  2.6723
  875MOL0     H20741   9.561  10.143   4.722 -2.8538 -4.7015  1.2491
  875MOL0     H20742   9.344  10.367   4.747 -1.2319 -0.7012 -1.1931
  875MOL0     H20743   9.420  10.309   4.595  0.9183  0.3447  0.6298
  875MOL0     H20744   9.231  10.163   4.797 -1.7623  3.1418 -0.7493
  875MOL0     H20745   9.329  10.067   4.686  3.6113  0.6526 -0.0426
  875MOL0     H20746   9.032  10.224   4.426 -0.4476  0.9933  1.0313
  875MOL0     H20747   9.744  10.539   4.861 -0.0344  0.3795 -0.1228
  875MOL0     H20748  10.006  10.735   4.978  0.1854 -0.1227 -0.3959
  875MOL0     H20749   9.994  10.761   4.802 -1.7058  2.9956 -0.1449
  875MOL0     H20750   9.852  10.733   4.889  0.0530  0.4399  1.0502
  876MOL0     O20751   8.232   7.958   6.510 -0.1569 -0.5319 -0.1077
  876MOL0     C20752   8.212   7.864   6.435 -0.1689  1.2872 -0.2839
  876MOL0     O20753   8.318   7.807   6.362  0.2314 -0.3641  0.5432
  876MOL0     C20754   8.444   7.841   6.389 -0.0839  0.3953 -0.3912
  876MOL0     C20755   8.491   7.973   6.377  0.0315  0.8887 -0.1533
  876MOL0     C20756   8.622   8.008   6.409  0.1468  0.4059 -0.8351
  876MOL0     C20757   8.713   7.911   6.458  0.4397  0.0561  0.7257
  876MOL0     O20758   8.840   7.932   6.503 -0.5284 -0.1957 -0.0596
  876MOL0     C20759   8.884   8.057   6.550 -1.2352 -0.3311 -0.0507
  876MOL0     C20760   8.975   8.120   6.446  0.0484 -0.3184  0.0614
  876MOL0     C20761   9.044   8.251   6.499  0.9589 -0.5690 -0.1119
  876MOL0     C20762   9.180   8.260   6.424 -0.3932 -0.5188  0.5372
  876MOL0     C20763   9.266   8.384   6.458 -0.0698  0.1015 -0.0763
  876MOL0     C20764   9.200   8.522   6.422  0.4555  0.0642 -0.3363
  876MOL0     C20765   9.303   8.628   6.455 -0.3123 -0.0355 -0.6247
  876MOL0     C20766   9.248   8.775   6.473  0.3112  0.3301  0.4624
  876MOL0     N20767   9.358   8.863   6.516 -0.1173 -0.8693 -0.0659
  876MOL0     C20768   9.352   8.993   6.547 -0.3272  0.1090  0.1293
  876MOL0     C20769   9.468   9.031   6.595  1.2504  0.3130 -1.0657
  876MOL0     C20770   9.503   9.168   6.642 -0.4152  0.3276 -0.5734
  876MOL0     C20771   9.436   9.203   6.776 -0.1873 -0.0498 -0.4517
  876MOL0     C20772   9.464   9.085   6.883  0.1487  0.2883 -0.0039
  876MOL0     C20773   9.610   9.061   6.920  0.0726  0.1247  0.7096
  876MOL0     O20774   9.682   9.182   6.955 -0.8882 -0.1279 -0.3497
  876MOL0     C20775   9.817   9.179   6.931  0.0453 -0.2394 -0.2620
  876MOL0     C20776   9.891   9.295   6.907  0.4290  0.0119  0.4425
  876MOL0     C20777  10.026   9.301   6.868 -1.1507 -0.2020 -0.2462
  876MOL0     C20778  10.092   9.429   6.824 -0.0135  0.6476  0.5228
  876MOL0     C20779  10.094   9.176   6.860 -0.3680 -0.7461 -0.5030
  876MOL0     C20780  10.237   9.156   6.814  0.0139  0.1909 -0.1154
  876MOL0     O20781  10.262   9.024   6.771 -0.0220  0.1783  0.4256
  876MOL0     C20782  10.394   8.984   6.757 -0.1629  0.2795  0.5226
  876MOL0     C20783  10.438   8.909   6.645 -0.6011  0.4474 -0.0854
  876MOL0     C20784  10.563   8.844   6.645  0.0954 -0.0351  0.2516
  876MOL0     C20785  10.649   8.856   6.754 -0.1916  0.9247  1.1010
  876MOL0     O20786  10.782   8.805   6.762 -0.3162  0.2295 -0.3501
  876MOL0     C20787  10.843   8.738   6.652  0.0775  0.2251  0.1300
  876MOL0     C20788  10.951   8.652   6.708  0.5298 -0.2471  0.0030
  876MOL0     C20789  11.016   8.565   6.602  0.9679  0.3097  0.7753
  876MOL0     C20790  11.119   8.464   6.645 -0.0223  0.1208  0.3494
  876MOL0     C20791  11.151   8.355   6.532  0.1083  0.5126  0.0864
  876MOL0     C20792  11.192   8.422   6.401  0.4850  0.5163  0.1401
  876MOL0     C20793  11.171   8.316   6.292  0.0494 -0.2838  0.2456
  876MOL0     C20794  11.221   8.378   6.166 -0.2703 -0.4877 -0.1730
  876MOL0    Cl20795  11.255   8.254   6.034  0.1715 -0.6001 -0.0359
  876MOL0     C20796  10.607   8.934   6.866 -0.9006  0.7972  0.0209
  876MOL0     C20797  10.481   8.993   6.866 -0.5369 -0.0052  0.4351
  876MOL0     O20798  10.317   9.250   6.821 -0.0668  0.0352  0.8308
  876MOL0     C20799  10.033   9.058   6.903 -1.1637  0.3239  0.0178
  876MOL0     C20800   9.897   9.064   6.939 -0.3625 -0.5048  0.6904
  876MOL0     N20801   9.550   8.921   6.600  0.0509  0.9006 -0.3977
  876MOL0     N20802   9.484   8.825   6.549 -0.3307 -0.0303 -0.6636
  876MOL0     C20803   8.669   7.782   6.467 -1.0366  0.1149  0.3053
  876MOL0     C20804   8.534   7.748   6.437 -0.1170  0.0935 -0.8909
  876MOL0     C20805   8.076   7.808   6.412  0.0278  0.4127  0.2208
  876MOL0     C20806   8.060   7.696   6.323  0.5537 -0.7423  0.0399
  876MOL0     C20807   7.935   7.648   6.291  0.2524  0.3016 -0.0764
  876MOL0     C20808   7.821   7.716   6.333  0.3927  0.5587 -0.0097
  876MOL0     O20809   7.693   7.675   6.297 -0.9527 -0.0656  0.4723
  876MOL0     C20810   7.658   7.674   6.156  0.0817  0.2671 -0.0744
  876MOL0     C20811   7.577   7.544   6.144  0.1988 -0.3030  0.2441
  876MOL0     C20812   7.466   7.510   6.245 -0.2339  0.7363  0.4150
  876MOL0     C20813   7.359   7.607   6.283 -0.6015 -0.4321  0.5747
  876MOL0     C20814   7.292   7.671   6.164 -0.3779  0.3118  1.1503
  876MOL0     C20815   7.240   7.723   6.068  0.0335  0.8678  0.9661
  876MOL0     C20816   7.828   7.814   6.425 -0.0561  0.3933 -0.0403
  876MOL0     C20817   7.955   7.867   6.465  0.2092  0.1673  0.8906
  876MOL0     C20818   7.946   7.975   6.559  0.5580  0.0180 -0.3532
  876MOL0     H20819   8.418   8.048   6.348 -0.2947  0.8532  0.5559
  876MOL0     H20820   8.659   8.109   6.399  2.0860 -0.3307 -1.7473
  876MOL0     H20821   8.929   8.027   6.645 -1.7764 -1.8149 -0.2316
  876MOL0     H20822   8.799   8.121   6.575 -0.6714  0.6059 -0.4561
  876MOL0     H20823   9.047   8.044   6.415  2.5083  0.5996  2.9487
  876MOL0     H20824   8.907   8.149   6.366 -1.2085 -3.2457 -0.0552
  876MOL0     H20825   8.979   8.337   6.482 -1.5185 -2.1555  0.7160
  876MOL0     H20826   9.055   8.233   6.607 -1.4959  1.7835  0.6531
  876MOL0     H20827   9.232   8.166   6.446 -0.7805 -0.7907  0.2935
  876MOL0     H20828   9.164   8.260   6.316 -1.0386 -0.4829  0.6288
  876MOL0     H20829   9.343   8.374   6.382 -1.4407  0.8005 -1.6078
  876MOL0     H20830   9.301   8.381   6.562  0.7639 -3.5574 -0.3434
  876MOL0     H20831   9.179   8.530   6.315  0.3347 -0.9544 -0.3970
  876MOL0     H20832   9.105   8.544   6.471  1.2937  1.2628  0.8298
  876MOL0     H20833   9.381   8.629   6.378 -0.9380  3.3563 -1.3565
  876MOL0     H20834   9.352   8.598   6.549  2.5263  2.8777 -1.0202
  876MOL0     H20835   9.211   8.794   6.372 -0.7438 -1.0761  0.5438
  876MOL0     H20836   9.168   8.763   6.547  2.5733 -0.9353  2.8632
  876MOL0     H20837   9.264   9.056   6.538 -1.5394 -1.4663  0.5787
  876MOL0     H20838   9.469   9.247   6.574  3.2848  3.7891  1.1588
  876MOL0     H20839   9.612   9.175   6.648 -0.4927  0.1940  1.4181
  876MOL0     H20840   9.454   9.304   6.812  1.4489  0.2317 -1.9318
  876MOL0     H20841   9.328   9.194   6.762 -0.3937  1.5239 -0.0539
  876MOL0     H20842   9.407   9.109   6.973  0.6597  4.4788 -0.5628
  876MOL0     H20843   9.421   8.990   6.852 -0.0537  0.0590  0.9339
  876MOL0     H20844   9.612   8.992   7.004  1.9277 -1.2647 -0.3993
  876MOL0     H20845   9.672   9.024   6.838  0.5308 -0.7209  1.4185
  876MOL0     H20846   9.825   9.381   6.895 -2.0884 -1.5589  2.0162
  876MOL0     H20847  10.190   9.461   6.860  1.0289  1.0208 -2.3878
  876MOL0     H20848  10.024   9.513   6.836 -1.2438  0.2680 -2.7940
  876MOL0     H20849  10.102   9.410   6.717  2.3503 -0.8580  0.9356
  876MOL0     H20850  10.379   8.902   6.555 -0.2742  0.3343 -0.2915
  876MOL0     H20851  10.599   8.794   6.556 -1.7557 -0.5683 -0.2346
  876MOL0     H20852  10.775   8.665   6.608  0.6592 -0.0091 -0.3936
  876MOL0     H20853  10.874   8.799   6.566  2.0822  0.7503  1.1488
  876MOL0     H20854  11.027   8.716   6.754  0.6516 -0.8315  0.6269
  876MOL0     H20855  10.913   8.585   6.786  2.0069 -2.1844 -0.8765
  876MOL0     H20856  11.075   8.623   6.530  0.9879 -0.8339 -0.1452
  876MOL0     H20857  10.936   8.512   6.550 -0.2342 -1.1328  3.8063
  876MOL0     H20858  11.093   8.418   6.740  0.4219 -1.8917 -0.4483
  876MOL0     H20859  11.215   8.508   6.672  0.1069  0.2118 -0.2405
  876MOL0     H20860  11.225   8.283   6.568 -0.7275  0.0905  0.9748
  876MOL0     H20861  11.058   8.301   6.513 -0.1296  1.2807 -1.0394
  876MOL0     H20862  11.291   8.469   6.405  1.2111 -1.0188  2.4303
  876MOL0     H20863  11.116   8.498   6.380 -0.7388 -0.9896 -1.1875
  876MOL0     H20864  11.063   8.298   6.288  0.5324 -3.8207  0.4525
  876MOL0     H20865  11.225   8.225   6.319  3.5132  1.6436  0.3426
  876MOL0     H20866  11.324   8.406   6.190  0.2295 -3.8949  2.3770
  876MOL0     H20867  11.169   8.468   6.132  1.4989 -0.7455 -4.1300
  876MOL0     H20868  10.688   8.946   6.938 -0.4400  2.5445 -0.7362
  876MOL0     H20869  10.456   9.054   6.953  3.6330  2.6836  0.0237
  876MOL0     H20870  10.078   8.959   6.898  1.2712  1.4413 -3.2938
  876MOL0     H20871   9.842   8.979   6.979 -2.3848  0.9875  1.2675
  876MOL0     H20872   8.728   7.697   6.498 -0.8455 -0.2523 -1.0111
  876MOL0     H20873   8.492   7.651   6.462  0.6626 -0.0515 -0.0523
  876MOL0     H20874   8.140   7.652   6.265 -1.4576 -0.4671 -3.1403
  876MOL0     H20875   7.931   7.562   6.225 -1.0756  0.7921 -0.6566
  876MOL0     H20876   7.601   7.761   6.123  0.7354 -0.0919 -2.3685
  876MOL0     H20877   7.744   7.664   6.089  0.2015 -1.9979  0.3160
  876MOL0     H20878   7.646   7.460   6.161  0.4353  0.3435  3.0458
  876MOL0     H20879   7.536   7.535   6.044 -0.3106  1.3215  0.2821
  876MOL0     H20880   7.410   7.432   6.193 -0.0020 -0.4159  1.8387
  876MOL0     H20881   7.510   7.471   6.337  0.3424 -3.0844 -1.2946
  876MOL0     H20882   7.396   7.690   6.344 -2.5511 -0.3360  1.7064
  876MOL0     H20883   7.277   7.562   6.340 -0.0213 -0.1343  1.6695
  876MOL0     H20884   7.197   7.768   5.980 -0.5223 -0.5337  0.4856
  876MOL0     H20885   7.737   7.853   6.470  1.0777  0.6352  2.2084
  876MOL0     H20886   8.005   8.062   6.530  0.4667  0.0623 -0.4046
  876MOL0     H20887   7.842   8.009   6.557  0.1265 -0.7400  2.9251
  876MOL0     H20888   7.978   7.942   6.659 -0.1827  3.9809  1.3673
  877MOL0     O20889   9.550   7.194   8.968  0.5567 -0.3186 -0.6909
  877MOL0     C20890   9.548   7.072   8.934 -0.2638  0.3858 -1.0667
  877MOL0     O20891   9.664   6.986   8.943 -0.1106 -0.0204 -0.0156
  877MOL0     C20892   9.779   7.051   8.970 -0.1714  0.8602 -0.1303
  877MOL0     C20893   9.815   7.091   9.092 -0.2633 -0.0973 -0.2990
  877MOL0     C20894   9.927   7.167   9.117 -0.5704  0.7365  1.0085
  877MOL0     C20895  10.012   7.196   9.007  1.4479  0.3459  0.2576
  877MOL0     O20896  10.128   7.262   9.007 -0.4721  0.6302 -0.9536
  877MOL0     C20897  10.134   7.377   9.090 -0.1151 -0.5138 -0.5608
  877MOL0     C20898  10.229   7.473   9.018 -0.7660  0.3491  0.0019
  877MOL0     C20899  10.374   7.433   9.058 -0.4955  0.2548  0.1701
  877MOL0     C20900  10.465   7.454   8.939 -0.3076 -0.4370 -0.8155
  877MOL0     C20901  10.598   7.379   8.952 -0.3322 -0.1918 -0.3880
  877MOL0     C20902  10.699   7.437   9.067  0.3376  0.4131 -0.0322
  877MOL0     C20903  10.855   7.408   9.042  0.7042  0.2784 -0.7036
  877MOL0     C20904  10.905   7.477   8.920 -0.1916  0.0272  0.1078
  877MOL0     N20905  11.048   7.459   8.904  0.8354  0.8211 -0.5795
  877MOL0     C20906  11.123   7.511   8.805  0.1453 -1.0253  0.4349
  877MOL0     C20907  11.243   7.450   8.804 -0.3437  0.9595  0.7933
  877MOL0     C20908  11.359   7.476   8.714  0.9134 -0.2291 -0.1361
  877MOL0     C20909  11.479   7.547   8.789  0.0044  0.4552  0.7944
  877MOL0     C20910  11.607   7.528   8.705 -1.0610  0.0242 -1.0859
  877MOL0     C20911  11.742   7.595   8.758 -0.0579 -0.2159  0.0423
  877MOL0     O20912  11.854   7.537   8.700 -0.4149 -0.5732 -0.7680
  877MOL0     C20913  11.943   7.616   8.628  0.8069 -0.0082 -0.5402
  877MOL0     C20914  12.076   7.634   8.668  0.8401 -0.2647 -0.2408
  877MOL0     C20915  12.155   7.727   8.605 -0.2640 -0.5170 -0.0027
  877MOL0     C20916  12.290   7.737   8.681  0.8197  0.5528 -0.6096
  877MOL0     C20917  12.111   7.817   8.509 -0.2981 -0.4334  0.4342
  877MOL0     C20918  12.191   7.929   8.437  0.3000 -1.2994 -0.4974
  877MOL0     O20919  12.329   7.940   8.453 -0.1396 -0.4759  0.0809
  877MOL0     C20920  12.399   8.029   8.378 -0.7363  0.5084  0.2038
  877MOL0     C20921  12.356   8.166   8.362  0.0651  1.2058  0.1692
  877MOL0     C20922  12.432   8.248   8.286  0.6423 -0.6612  0.2444
  877MOL0     C20923  12.553   8.211   8.229  0.3261  0.4940 -0.2209
  877MOL0     O20924  12.637   8.291   8.165  0.0711 -0.2421  0.2598
  877MOL0     C20925  12.573   8.399   8.088 -0.2448  1.0123  0.0602
  877MOL0     C20926  12.673   8.484   8.019  0.0274 -0.5527 -0.0308
  877MOL0     C20927  12.777   8.538   8.123  0.9831  0.9454  0.4694
  877MOL0     C20928  12.879   8.628   8.054 -0.4442  0.6001 -0.1945
  877MOL0     C20929  13.005   8.669   8.135 -0.3496  0.4183  0.8570
  877MOL0     C20930  13.097   8.769   8.052  0.6987 -0.0199 -0.0804
  877MOL0     C20931  13.190   8.844   8.136  0.6634  0.0978  0.4642
  877MOL0     C20932  13.308   8.896   8.057  0.1321  0.7471 -0.4842
  877MOL0    Cl20933  13.261   8.993   7.903 -0.1730  0.3725  0.0633
  877MOL0     C20934  12.599   8.081   8.247  0.2295  0.2678  0.2792
  877MOL0     C20935  12.515   7.990   8.312 -0.3659  0.1901 -0.3569
  877MOL0     O20936  12.128   7.999   8.363 -0.8992 -0.6962  0.7491
  877MOL0     C20937  11.977   7.796   8.470 -0.3516 -0.2599 -0.8523
  877MOL0     C20938  11.897   7.701   8.527 -0.4873 -0.2150 -0.5801
  877MOL0     N20939  11.235   7.347   8.899 -0.0828 -0.4752 -0.3145
  877MOL0     N20940  11.119   7.355   8.961 -0.6078 -0.2855  0.8599
  877MOL0     C20941   9.988   7.128   8.888  0.0340 -0.8090 -0.1737
  877MOL0     C20942   9.867   7.065   8.863  0.1234  0.9269  0.5765
  877MOL0     C20943   9.421   6.996   8.905 -0.9493 -0.8567 -0.1420
  877MOL0     C20944   9.307   7.033   8.978 -1.4991  0.8169 -0.7336
  877MOL0     C20945   9.183   6.968   8.967 -0.4340  0.3399 -0.2962
  877MOL0     C20946   9.162   6.879   8.867  0.0038  0.1520  1.4308
  877MOL0     O20947   9.045   6.820   8.856  0.3969  0.5704  0.2023
  877MOL0     C20948   9.020   6.719   8.754  0.0137  1.3841  0.4488
  877MOL0     C20949   8.867   6.711   8.713  0.0161  0.4563 -0.2939
  877MOL0     C20950   8.775   6.633   8.813 -1.2414 -0.0466 -0.8478
  877MOL0     C20951   8.627   6.630   8.777 -0.5068  0.3994  0.2643
  877MOL0     C20952   8.572   6.753   8.717 -0.4208  0.0615 -0.2250
  877MOL0     C20953   8.518   6.859   8.685 -0.3853 -0.1376  0.5117
  877MOL0     C20954   9.266   6.850   8.782  0.2320 -0.1098  0.0485
  877MOL0     C20955   9.396   6.898   8.807 -0.5183 -0.1986 -0.1186
  877MOL0     C20956   9.507   6.870   8.705 -0.3049 -0.0732  0.1420
  877MOL0     H20957   9.743   7.078   9.172  0.5632  0.2876  0.5454
  877MOL0     H20958   9.961   7.195   9.216  3.2737  1.8826 -0.4301
  877MOL0     H20959  10.175   7.344   9.186  0.7218 -1.9405 -1.3734
  877MOL0     H20960  10.038   7.425   9.115 -0.0616 -0.1786 -0.9840
  877MOL0     H20961  10.211   7.495   8.913  0.3894  0.9955 -0.0818
  877MOL0     H20962  10.207   7.571   9.061 -0.6051 -0.9099  3.2558
  877MOL0     H20963  10.390   7.492   9.149 -1.7359 -1.2808  1.4547
  877MOL0     H20964  10.379   7.327   9.085 -1.7702 -0.0839 -0.8530
  877MOL0     H20965  10.419   7.408   8.851 -1.2682 -0.1074 -0.4924
  877MOL0     H20966  10.481   7.559   8.913  0.5062  0.0624  1.4519
  877MOL0     H20967  10.645   7.376   8.853  2.5097 -0.0862  0.8500
  877MOL0     H20968  10.577   7.276   8.981  3.4042 -1.0208 -0.1284
  877MOL0     H20969  10.688   7.545   9.059  3.6817  0.7575 -1.5570
  877MOL0     H20970  10.665   7.392   9.161 -0.2437  0.5439 -0.1800
  877MOL0     H20971  10.877   7.301   9.046  3.4848  0.8112  0.0443
  877MOL0     H20972  10.916   7.441   9.126 -0.1681 -2.8512  1.3503
  877MOL0     H20973  10.849   7.442   8.832  1.9250 -0.4135 -1.1267
  877MOL0     H20974  10.892   7.585   8.932 -0.7437 -0.2600  2.6219
  877MOL0     H20975  11.089   7.583   8.731  0.1700 -2.3942 -0.9557
  877MOL0     H20976  11.315   7.541   8.638  2.8262 -0.6525 -1.6755
  877MOL0     H20977  11.388   7.386   8.659  1.0814  0.2569 -0.8545
  877MOL0     H20978  11.448   7.652   8.795 -1.9922  0.2544 -2.8567
  877MOL0     H20979  11.492   7.505   8.889  2.6226  0.8112  0.6916
  877MOL0     H20980  11.630   7.423   8.724  0.4240  0.8078  2.4387
  877MOL0     H20981  11.586   7.557   8.602 -0.4997 -1.3456 -1.6093
  877MOL0     H20982  11.732   7.699   8.726 -0.1388 -1.4112 -4.3949
  877MOL0     H20983  11.751   7.578   8.866 -1.4644 -2.4798 -0.1346
  877MOL0     H20984  12.111   7.570   8.748 -2.0680 -0.9578  0.5924
  877MOL0     H20985  12.285   7.827   8.745 -1.7797  4.5490 -5.6894
  877MOL0     H20986  12.384   7.725   8.626  2.0031 -1.4081  1.6264
  877MOL0     H20987  12.291   7.654   8.753  1.8018 -0.3068 -1.5844
  877MOL0     H20988  12.274   8.201   8.424  0.3549  1.1516  0.5857
  877MOL0     H20989  12.398   8.351   8.287  0.4509 -0.7187 -0.1398
  877MOL0     H20990  12.508   8.349   8.015  0.5156 -0.8737  0.6004
  877MOL0     H20991  12.529   8.467   8.161  4.1808  1.1244  3.0564
  877MOL0     H20992  12.728   8.424   7.947  3.4888  2.8723 -0.5639
  877MOL0     H20993  12.631   8.576   7.977 -1.2339 -1.1246 -0.0642
  877MOL0     H20994  12.825   8.453   8.172  2.0532 -1.1337 -3.7270
  877MOL0     H20995  12.731   8.595   8.205  0.6603  1.7066 -0.2251
  877MOL0     H20996  12.821   8.720   8.036 -0.5224  0.8584  1.3037
  877MOL0     H20997  12.915   8.571   7.968  0.7408 -1.2808  1.4860
  877MOL0     H20998  12.981   8.724   8.226 -3.3402  1.7872 -0.6218
  877MOL0     H20999  13.057   8.575   8.159 -1.4824  0.2352  2.8114
  877MOL0     H21000  13.039   8.852   8.010 -0.1943 -1.3411 -1.5857
  877MOL0     H21001  13.144   8.710   7.973  1.1041 -0.0342  0.1689
  877MOL0     H21002  13.230   8.775   8.211  1.6818  0.2069  0.0384
  877MOL0     H21003  13.131   8.922   8.186 -1.1181 -0.5534 -0.5226
  877MOL0     H21004  13.373   8.813   8.027  0.6290  1.0363 -0.2232
  877MOL0     H21005  13.376   8.956   8.118  0.3228  0.8716 -0.8118
  877MOL0     H21006  12.688   8.040   8.200  0.6376  1.5324 -0.0756
  877MOL0     H21007  12.558   7.891   8.324  0.6373  0.5925 -0.5212
  877MOL0     H21008  11.931   7.866   8.400  0.5847  1.1985 -0.0699
  877MOL0     H21009  11.792   7.698   8.498 -0.8160  1.5250  0.2640
  877MOL0     H21010  10.060   7.128   8.806 -0.7047 -4.2995 -0.9874
  877MOL0     H21011   9.848   7.015   8.769 -1.8712 -0.5644  1.6821
  877MOL0     H21012   9.331   7.099   9.060 -0.8400 -1.6560  1.2076
  877MOL0     H21013   9.106   7.008   9.033 -0.9773  2.9613 -2.3338
  877MOL0     H21014   9.076   6.736   8.662 -1.0499 -1.0153 -0.7311
  877MOL0     H21015   9.055   6.621   8.788 -0.2085  1.2024  0.1563
  877MOL0     H21016   8.869   6.653   8.621  1.3718 -0.8874  0.5478
  877MOL0     H21017   8.824   6.811   8.697 -3.7888 -0.8236  0.8952
  877MOL0     H21018   8.815   6.534   8.838  2.1075  0.5017 -3.2014
  877MOL0     H21019   8.794   6.697   8.900  1.8823 -0.6513 -0.9792
  877MOL0     H21020   8.574   6.607   8.870  1.5491 -0.7369  1.2380
  877MOL0     H21021   8.610   6.541   8.716 -1.4266  0.8069 -0.0983
  877MOL0     H21022   8.473   6.949   8.648  1.5196  1.4729  1.8763
  877MOL0     H21023   9.273   6.772   8.707 -0.4234 -0.5698  0.4472
  877MOL0     H21024   9.481   6.785   8.641  1.3148  0.1077 -0.8174
  877MOL0     H21025   9.520   6.961   8.645 -4.5759  0.9105  0.3714
  877MOL0     H21026   9.595   6.845   8.765 -0.8497  0.5179  1.2217
  878MOL0     O21027   2.315   0.648   1.186 -0.1220 -0.3010 -0.4390
  878MOL0     C21028   2.222   0.728   1.209  0.0073  0.0224  0.1187
  878MOL0     O21029   2.237   0.864   1.218  0.7972  0.5583 -0.2390
  878MOL0     C21030   2.365   0.919   1.203 -0.5089 -0.3393 -0.2862
  878MOL0     C21031   2.485   0.878   1.262  0.2424  0.6542  0.1917
  878MOL0     C21032   2.601   0.951   1.250  0.1392  0.9384 -0.4286
  878MOL0     C21033   2.599   1.070   1.179 -0.2773  0.7847 -0.9072
  878MOL0     O21034   2.703   1.163   1.181  0.4071  0.5118 -0.1266
  878MOL0     C21035   2.823   1.131   1.250 -0.7686 -1.3736 -0.8060
  878MOL0     C21036   2.906   1.257   1.250  0.0645 -0.3773 -0.1031
  878MOL0     C21037   3.009   1.251   1.369 -0.8132  0.5037 -0.0634
  878MOL0     C21038   2.962   1.224   1.510 -0.0082 -0.4825 -0.3299
  878MOL0     C21039   3.068   1.265   1.621  0.6295  0.0913 -0.3531
  878MOL0     C21040   3.193   1.182   1.619  0.0249  0.1698  1.0536
  878MOL0     C21041   3.309   1.243   1.691  0.5357  0.8193  0.3086
  878MOL0     C21042   3.428   1.145   1.699  0.6872  0.7737  1.1612
  878MOL0     N21043   3.546   1.203   1.754  0.9077 -0.0392  0.1516
  878MOL0     C21044   3.576   1.215   1.891  0.4942 -0.2729 -0.0034
  878MOL0     C21045   3.690   1.284   1.894 -0.3428  0.4974  0.8545
  878MOL0     C21046   3.767   1.330   2.019  1.3769 -0.3837  0.1080
  878MOL0     C21047   3.842   1.210   2.066  0.5900 -0.8670  0.7811
  878MOL0     C21048   3.899   1.242   2.206  0.0584 -0.6740  0.3293
  878MOL0     C21049   4.018   1.346   2.191  0.3741  0.1512 -0.4875
  878MOL0     O21050   4.121   1.299   2.100 -0.4087 -0.1532  0.0267
  878MOL0     C21051   4.232   1.372   2.069  0.9173  0.2820  0.6713
  878MOL0     C21052   4.275   1.483   2.133 -0.1943  0.7557 -0.4120
  878MOL0     C21053   4.397   1.542   2.103 -0.0354  0.0553  0.5481
  878MOL0     C21054   4.456   1.630   2.204 -0.7235 -0.5479 -1.0576
  878MOL0     C21055   4.464   1.500   1.983  0.1861  0.1301  0.5428
  878MOL0     C21056   4.582   1.572   1.925 -0.7689  0.0663 -0.4437
  878MOL0     O21057   4.627   1.682   1.987  0.1125 -0.3298 -0.0688
  878MOL0     C21058   4.744   1.744   1.952  0.5395 -0.4476 -0.1783
  878MOL0     C21059   4.734   1.886   1.933 -0.6121 -0.0905  0.8199
  878MOL0     C21060   4.844   1.963   1.887 -0.2006 -0.0266 -0.2086
  878MOL0     C21061   4.974   1.902   1.881 -0.5874 -0.4857 -0.7293
  878MOL0     O21062   5.089   1.973   1.850 -0.9978  0.0415  0.3060
  878MOL0     C21063   5.076   2.078   1.751  0.1376 -0.1364  0.5706
  878MOL0     C21064   5.209   2.129   1.714  0.1610 -0.1980 -0.1401
  878MOL0     C21065   5.308   2.016   1.670  1.1800 -0.3804 -0.0669
  878MOL0     C21066   5.446   2.051   1.721 -0.2457 -0.9725 -0.1671
  878MOL0     C21067   5.558   1.951   1.679  0.0920  0.4685  0.6533
  878MOL0     C21068   5.690   1.980   1.757  0.3591 -0.7867 -0.5600
  878MOL0     C21069   5.788   1.873   1.705 -0.7360 -0.1383  1.0728
  878MOL0     C21070   5.924   1.884   1.768  0.0370 -0.0222  0.4253
  878MOL0    Cl21071   6.004   2.025   1.694  0.3840  0.2824  0.2891
  878MOL0     C21072   4.986   1.763   1.915 -0.2080  0.0160  0.3235
  878MOL0     C21073   4.871   1.692   1.949  0.4054  0.1148  0.9522
  878MOL0     O21074   4.641   1.522   1.829  0.3091  0.3446  0.6799
  878MOL0     C21075   4.407   1.396   1.913  0.0106 -0.4064  0.8309
  878MOL0     C21076   4.298   1.322   1.960  0.4341 -0.5602 -0.7326
  878MOL0     N21077   3.734   1.315   1.766 -0.4277  0.4929  0.1479
  878MOL0     N21078   3.651   1.254   1.685 -0.6190  0.4250 -0.6003
  878MOL0     C21079   2.487   1.105   1.109  0.8306 -0.0463 -0.0850
  878MOL0     C21080   2.367   1.035   1.126  0.1563 -0.3225 -1.6216
  878MOL0     C21081   2.083   0.681   1.233 -0.9749  1.0334 -0.2015
  878MOL0     C21082   1.994   0.760   1.307  0.0109 -0.2617 -0.2877
  878MOL0     C21083   1.861   0.725   1.323 -0.7108  0.2153 -0.3944
  878MOL0     C21084   1.805   0.614   1.258  0.3201 -0.0364 -0.8559
  878MOL0     O21085   1.663   0.602   1.262 -0.3102 -0.3730 -0.1372
  878MOL0     C21086   1.608   0.491   1.182  0.1543 -0.4130 -1.1270
  878MOL0     C21087   1.460   0.507   1.167  0.5807 -0.0253 -0.0707
  878MOL0     C21088   1.414   0.615   1.068 -0.3425 -0.2907  0.2370
  878MOL0     C21089   1.384   0.564   0.931  0.0795  0.5664 -0.2442
  878MOL0     C21090   1.385   0.670   0.832 -0.7369 -0.6502 -0.5797
  878MOL0     C21091   1.393   0.776   0.768 -0.9466 -0.0017 -0.9863
  878MOL0     C21092   1.892   0.528   1.188  0.4030  0.3357 -0.3933
  878MOL0     C21093   2.029   0.561   1.173  0.0799 -0.3091 -0.6763
  878MOL0     C21094   2.114   0.458   1.111  0.3777 -0.1038 -0.8199
  878MOL0     H21095   2.483   0.788   1.322  1.2046  1.7632  1.9506
  878MOL0     H21096   2.695   0.921   1.293 -0.6169 -0.9738 -0.0346
  878MOL0     H21097   2.884   1.045   1.220  0.3480 -1.6871  1.9997
  878MOL0     H21098   2.794   1.117   1.355 -0.0159  2.5448  0.0624
  878MOL0     H21099   2.972   1.245   1.163 -0.4764  2.2833 -0.9701
  878MOL0     H21100   2.843   1.347   1.253  0.3289 -0.1955  2.8734
  878MOL0     H21101   3.091   1.183   1.347 -1.4453 -0.7535  1.2999
  878MOL0     H21102   3.047   1.354   1.361  2.4610 -0.5652 -0.0189
  878MOL0     H21103   2.874   1.290   1.516  0.9987  1.7246 -5.0551
  878MOL0     H21104   2.947   1.117   1.524 -0.1242 -0.1325  3.1941
  878MOL0     H21105   3.016   1.254   1.717  0.8802 -0.6673 -0.2962
  878MOL0     H21106   3.093   1.370   1.604  0.7533  0.0969 -0.1394
  878MOL0     H21107   3.174   1.090   1.675  0.8475  0.5520  2.0092
  878MOL0     H21108   3.218   1.161   1.515 -2.5500 -3.1969  0.9740
  878MOL0     H21109   3.287   1.273   1.793  1.6478  0.3033  0.7132
  878MOL0     H21110   3.340   1.330   1.631  1.1046 -0.5503 -1.4815
  878MOL0     H21111   3.409   1.049   1.746 -0.5381  1.0697  1.3100
  878MOL0     H21112   3.465   1.113   1.601  0.1228  2.3078  0.4070
  878MOL0     H21113   3.517   1.172   1.972 -1.1520 -0.7624 -1.3985
  878MOL0     H21114   3.690   1.355   2.092  1.6527 -2.4801  1.1942
  878MOL0     H21115   3.830   1.417   1.996 -0.6387  2.4649  4.2080
  878MOL0     H21116   3.772   1.127   2.083  2.2763 -2.7044 -0.6456
  878MOL0     H21117   3.919   1.180   1.994  1.4865  4.2642 -0.8015
  878MOL0     H21118   3.815   1.283   2.263  0.0381  0.0914 -0.2500
  878MOL0     H21119   3.946   1.157   2.258  0.4602  0.5890  2.1481
  878MOL0     H21120   3.976   1.443   2.166  0.7767  1.4215  3.1594
  878MOL0     H21121   4.053   1.359   2.294 -1.3896  0.2687  0.1226
  878MOL0     H21122   4.216   1.523   2.215  0.4631 -0.4590  0.6902
  878MOL0     H21123   4.462   1.731   2.164 -2.9894 -0.2571 -0.7847
  878MOL0     H21124   4.553   1.590   2.236 -1.6553 -0.7308  1.8718
  878MOL0     H21125   4.391   1.642   2.292 -1.7305  2.9214 -2.1190
  878MOL0     H21126   4.640   1.940   1.937 -0.3524  0.7364 -2.1756
  878MOL0     H21127   4.826   2.066   1.859 -4.6116 -0.5367  0.1086
  878MOL0     H21128   5.031   2.036   1.661 -1.0476 -1.2974  1.6605
  878MOL0     H21129   5.007   2.160   1.772 -1.6562 -1.1041 -1.1507
  878MOL0     H21130   5.190   2.202   1.635  0.4352 -2.1237 -2.0777
  878MOL0     H21131   5.250   2.166   1.809  2.5798 -1.5287 -0.5773
  878MOL0     H21132   5.315   2.010   1.561  2.2700  1.0840 -0.1107
  878MOL0     H21133   5.276   1.915   1.699  0.0064 -0.3149 -1.0680
  878MOL0     H21134   5.455   2.057   1.830  1.0371 -0.0365 -0.2903
  878MOL0     H21135   5.487   2.148   1.693  2.9555 -1.6689  1.5554
  878MOL0     H21136   5.521   1.851   1.701  1.4305 -0.0845  0.4815
  878MOL0     H21137   5.587   1.959   1.574 -0.0515 -1.0998  0.4738
  878MOL0     H21138   5.661   1.960   1.860 -0.4625  0.7770 -0.4657
  878MOL0     H21139   5.732   2.080   1.744 -0.8003 -0.5849 -3.5214
  878MOL0     H21140   5.805   1.882   1.597  4.5761 -0.9359  1.5554
  878MOL0     H21141   5.743   1.776   1.727  0.8447 -1.0600  0.4627
  878MOL0     H21142   5.976   1.791   1.745 -1.3115 -0.9249  0.9911
  878MOL0     H21143   5.899   1.902   1.873 -2.2440 -1.5929  0.2173
  878MOL0     H21144   5.084   1.716   1.904  0.1907  1.4867 -5.6407
  878MOL0     H21145   4.875   1.587   1.975 -0.8307 -0.5316 -1.2134
  878MOL0     H21146   4.442   1.350   1.821 -1.8176 -0.7630  0.2703
  878MOL0     H21147   4.269   1.228   1.913 -1.0697  0.0051 -1.0051
  878MOL0     H21148   2.475   1.197   1.052 -5.5342  0.6965  1.6337
  878MOL0     H21149   2.285   1.069   1.064  0.1030 -0.2204 -1.4943
  878MOL0     H21150   2.033   0.847   1.357 -0.6123  0.4986 -1.1026
  878MOL0     H21151   1.791   0.787   1.379 -0.4408 -1.0750  1.4867
  878MOL0     H21152   1.662   0.483   1.087  2.3790  1.2132 -0.1045
  878MOL0     H21153   1.634   0.399   1.234  3.0065  2.2503  2.8052
  878MOL0     H21154   1.419   0.528   1.266  0.9995  3.6601 -0.5552
  878MOL0     H21155   1.409   0.416   1.133  2.7444 -2.1343  1.9192
  878MOL0     H21156   1.322   0.665   1.099  0.5187  2.0641 -0.7481
  878MOL0     H21157   1.493   0.690   1.060  0.3638 -0.4891  3.9506
  878MOL0     H21158   1.290   0.511   0.943  0.4373 -0.4672 -1.7137
  878MOL0     H21159   1.458   0.493   0.894  2.6389  2.1549  1.4909
  878MOL0     H21160   1.400   0.870   0.718 -0.1349 -0.1232 -1.1183
  878MOL0     H21161   1.849   0.444   1.135  1.6530 -0.0503 -0.8195
  878MOL0     H21162   2.185   0.417   1.183  3.1411  1.8637 -2.2145
  878MOL0     H21163   2.052   0.371   1.087 -2.2202  1.1659  0.8448
  878MOL0     H21164   2.174   0.501   1.029  0.2163 -0.5981 -1.2044
  879MOL0     O21165   5.588   9.785  11.398 -0.7597 -0.2970 -0.1546
  879MOL0     C21166   5.523   9.796  11.501 -0.6252 -0.1571  0.2556
  879MOL0     O21167   5.572   9.832  11.627 -0.4959  0.6397  0.6344
  879MOL0     C21168   5.702   9.872  11.627 -0.0391  0.7440 -0.0101
  879MOL0     C21169   5.724   9.978  11.711  0.0564  1.0904 -0.6522
  879MOL0     C21170   5.853  10.022  11.734  0.0975 -0.0651  0.0990
  879MOL0     C21171   5.958   9.961  11.680 -0.3073 -0.3915 -0.4446
  879MOL0     O21172   6.086   9.985  11.719 -0.4410  0.2004  0.4239
  879MOL0     C21173   6.105  10.069  11.830  0.0344  0.1066  0.2457
  879MOL0     C21174   6.252  10.104  11.850 -0.0797  0.0586  0.6657
  879MOL0     C21175   6.322  10.171  11.723  0.1474 -0.3198  0.3781
  879MOL0     C21176   6.472  10.194  11.765  0.7545 -0.6172  0.4688
  879MOL0     C21177   6.497  10.324  11.849  0.6629  0.3975  0.2648
  879MOL0     C21178   6.597  10.309  11.964  0.3982 -0.4972 -0.5689
  879MOL0     C21179   6.744  10.277  11.918  0.4902 -0.4153 -0.1505
  879MOL0     C21180   6.791  10.383  11.818 -0.4225 -0.9739 -0.0615
  879MOL0     N21181   6.912  10.332  11.758 -0.6846 -0.3520  1.0755
  879MOL0     C21182   7.044  10.335  11.817 -0.3017 -0.3621  0.8270
  879MOL0     C21183   7.109  10.266  11.722 -0.3792 -0.0941  0.0267
  879MOL0     C21184   7.246  10.205  11.740  1.1813 -0.0418 -1.1439
  879MOL0     C21185   7.332  10.327  11.708 -0.2593 -0.5867 -0.2037
  879MOL0     C21186   7.491  10.290  11.701 -0.6190  0.7865  0.6638
  879MOL0     C21187   7.583  10.407  11.715  0.4052 -0.2256  0.0754
  879MOL0     O21188   7.721  10.362  11.701  0.2764 -0.0336  0.4375
  879MOL0     C21189   7.823  10.457  11.671  0.7512 -0.4531  0.0360
  879MOL0     C21190   7.944  10.415  11.611 -0.7718  0.0405 -0.1730
  879MOL0     C21191   8.055  10.500  11.589 -1.0145  0.5772  0.2548
  879MOL0     C21192   8.190  10.456  11.533 -0.2072  0.0451  0.0079
  879MOL0     C21193   8.036  10.636  11.621 -0.4548 -0.1128  0.6858
  879MOL0     C21194   8.135  10.744  11.593 -0.1187 -0.1028  0.6002
  879MOL0     O21195   8.265  10.728  11.636 -0.5170  0.0860 -0.0449
  879MOL0     C21196   8.338  10.841  11.650  0.1291  0.6410  0.2715
  879MOL0     C21197   8.453  10.851  11.568  0.1211 -0.5743  0.3522
  879MOL0     C21198   8.548  10.947  11.602 -0.1450 -0.4140  0.7603
  879MOL0     C21199   8.524  11.040  11.707  0.5769 -0.4375 -0.0715
  879MOL0     O21200   8.616  11.137  11.739  0.0899  0.0718 -0.3201
  879MOL0     C21201   8.644  11.228  11.630  0.4197  0.4584  0.3402
  879MOL0     C21202   8.790  11.233  11.609 -0.8727  0.4449 -0.3602
  879MOL0     C21203   8.850  11.289  11.745 -0.3404 -0.3869  0.8476
  879MOL0     C21204   9.007  11.290  11.758  0.5208 -0.7573 -0.3117
  879MOL0     C21205   9.073  11.161  11.800 -0.3976  1.0502 -0.2137
  879MOL0     C21206   9.227  11.172  11.761 -0.5596 -0.8753 -0.2679
  879MOL0     C21207   9.310  11.092  11.853 -0.6900  0.2334  0.1032
  879MOL0     C21208   9.454  11.082  11.810  0.0306 -0.7085 -0.1835
  879MOL0    Cl21209   9.555  10.996  11.921  0.1146 -0.5086 -0.1517
  879MOL0     C21210   8.404  11.030  11.783  0.1402 -0.4948 -0.3387
  879MOL0     C21211   8.318  10.923  11.762  0.4875 -0.4198 -0.0930
  879MOL0     O21212   8.091  10.850  11.548  0.1324  0.1550 -0.9184
  879MOL0     C21213   7.919  10.684  11.675  0.5767  0.2072 -0.0460
  879MOL0     C21214   7.814  10.594  11.704 -0.0841  0.1740  0.1322
  879MOL0     N21215   7.036  10.235  11.614  0.0700 -0.5386 -0.5686
  879MOL0     N21216   6.917  10.274  11.635 -0.1472 -0.1388  0.3267
  879MOL0     C21217   5.941   9.859  11.590  0.4235  0.9053 -0.1915
  879MOL0     C21218   5.808   9.816  11.557 -0.6542  0.9161 -0.0465
  879MOL0     C21219   5.388   9.749  11.505 -0.2707  0.1162 -0.4733
  879MOL0     C21220   5.319   9.731  11.627 -0.2060 -0.0995 -0.5181
  879MOL0     C21221   5.189   9.691  11.643 -0.0774 -0.1663  0.0486
  879MOL0     C21222   5.116   9.660  11.524  0.3070  0.5810 -0.2871
  879MOL0     O21223   4.981   9.621  11.516 -0.1951 -0.4112 -1.1927
  879MOL0     C21224   4.901   9.661  11.630 -0.0350  0.2065 -0.0115
  879MOL0     C21225   4.768   9.593  11.615 -0.3364 -0.1416 -0.3871
  879MOL0     C21226   4.694   9.628  11.748  0.1184  0.6774 -0.1995
  879MOL0     C21227   4.563   9.546  11.761  0.4383  0.4935  0.6166
  879MOL0     C21228   4.472   9.590  11.652 -0.2140 -0.1039 -0.0457
  879MOL0     C21229   4.398   9.635  11.569  0.3987 -0.4644  1.0194
  879MOL0     C21230   5.180   9.682  11.402  0.7281 -1.1674 -0.3321
  879MOL0     C21231   5.310   9.726  11.392  0.2622  0.4306  0.2714
  879MOL0     C21232   5.357   9.742  11.249  0.0311  0.1917  0.2620
  879MOL0     H21233   5.639  10.018  11.765  0.3136  0.6376  0.1216
  879MOL0     H21234   5.872  10.105  11.802  0.7899  1.2291 -1.5726
  879MOL0     H21235   6.067  10.034  11.926  0.0903  0.0709  0.2551
  879MOL0     H21236   6.060  10.169  11.823  0.1194  0.1635  0.4840
  879MOL0     H21237   6.257  10.167  11.939 -1.9238 -0.6714  1.3355
  879MOL0     H21238   6.292  10.008  11.881  1.6564  0.9125  1.1664
  879MOL0     H21239   6.311  10.094  11.647 -0.4426  2.6068 -2.7086
  879MOL0     H21240   6.281  10.265  11.685 -0.1176  0.3452  2.1676
  879MOL0     H21241   6.508  10.103  11.814 -0.1294 -1.2193  0.0353
  879MOL0     H21242   6.531  10.200  11.673 -1.5787  1.2005 -1.0378
  879MOL0     H21243   6.397  10.348  11.888  1.5080  1.8025  1.6510
  879MOL0     H21244   6.515  10.408  11.781  0.3175  0.7461  0.5982
  879MOL0     H21245   6.605  10.405  12.016  1.5118 -0.5510 -0.6140
  879MOL0     H21246   6.572  10.235  12.040 -1.2583  0.3297 -0.2866
  879MOL0     H21247   6.742  10.174  11.882 -4.1990 -0.2002 -1.1933
  879MOL0     H21248   6.816  10.283  12.000  0.0705 -1.4665  0.3101
  879MOL0     H21249   6.719  10.410  11.740 -1.3007  4.4414  2.1448
  879MOL0     H21250   6.819  10.474  11.873  1.8810 -1.6047 -0.0668
  879MOL0     H21251   7.075  10.376  11.912  0.8522  1.3039 -0.2169
  879MOL0     H21252   7.265  10.118  11.676  0.8976 -0.0292 -1.2439
  879MOL0     H21253   7.263  10.181  11.846 -3.5813 -0.9982 -0.3551
  879MOL0     H21254   7.302  10.385  11.620 -0.8254  0.9102  0.9374
  879MOL0     H21255   7.325  10.401  11.787  0.6677  1.8890 -2.2954
  879MOL0     H21256   7.507  10.210  11.775  2.2660 -1.1069 -1.7261
  879MOL0     H21257   7.521  10.238  11.609 -0.1864 -0.6877  1.6002
  879MOL0     H21258   7.559  10.480  11.636  2.6662 -0.3779 -0.8400
  879MOL0     H21259   7.567  10.462  11.808  0.8830  0.8220 -0.4444
  879MOL0     H21260   7.946  10.310  11.582 -1.2766  0.3408 -1.3395
  879MOL0     H21261   8.246  10.431  11.623 -0.3361  2.8753  0.9889
  879MOL0     H21262   8.242  10.535  11.477  0.5909 -0.9713 -0.7122
  879MOL0     H21263   8.184  10.371  11.465  0.7815  0.7226 -0.9659
  879MOL0     H21264   8.480  10.773  11.498 -1.1722 -0.2010 -0.6007
  879MOL0     H21265   8.641  10.972  11.552  0.6650  2.8384  3.4938
  879MOL0     H21266   8.581  11.197  11.546 -2.0094  0.9040  1.9144
  879MOL0     H21267   8.600  11.323  11.661 -2.7211 -1.4059  2.1093
  879MOL0     H21268   8.830  11.134  11.586  1.6141  1.1746  0.4792
  879MOL0     H21269   8.815  11.302  11.528 -2.2642 -0.0870 -1.2836
  879MOL0     H21270   8.818  11.233  11.833  1.0752 -1.2824  0.8367
  879MOL0     H21271   8.827  11.396  11.752  2.0012  0.3874 -1.6389
  879MOL0     H21272   9.034  11.367  11.830  2.4062 -1.5002 -0.1837
  879MOL0     H21273   9.059  11.327  11.670  4.0543  1.5287  2.4922
  879MOL0     H21274   9.064  11.151  11.909  1.1120  1.2961 -0.0561
  879MOL0     H21275   9.020  11.086  11.741  0.2509  0.6889 -0.3423
  879MOL0     H21276   9.257  11.277  11.761 -2.5613 -0.2451  1.3175
  879MOL0     H21277   9.245  11.131  11.661  1.6012 -0.8110  0.0432
  879MOL0     H21278   9.275  10.988  11.847 -2.1365  0.7794 -2.3409
  879MOL0     H21279   9.310  11.131  11.955 -0.5361 -0.7506  0.4892
  879MOL0     H21280   9.502  11.180  11.799  0.8240 -0.8644  1.5071
  879MOL0     H21281   9.472  11.022  11.720  1.5753 -2.6282  1.2974
  879MOL0     H21282   8.376  11.100  11.861 -0.1532 -2.6329  1.5976
  879MOL0     H21283   8.221  10.920  11.811  1.1114  0.8020  1.2849
  879MOL0     H21284   7.911  10.791  11.692  0.9514  0.3319 -0.6264
  879MOL0     H21285   7.726  10.626  11.760  0.2657 -0.0124  0.7930
  879MOL0     H21286   6.021   9.807  11.538  1.9480  1.3296  1.6090
  879MOL0     H21287   5.804   9.738  11.482  0.6734  1.6246 -0.8875
  879MOL0     H21288   5.378   9.753  11.716  1.1173  2.4353 -1.9029
  879MOL0     H21289   5.146   9.677  11.742  1.2766 -1.9565  0.4300
  879MOL0     H21290   4.949   9.610  11.714 -1.6945 -0.6865  0.4431
  879MOL0     H21291   4.894   9.769  11.644 -0.2077 -0.0412  2.3239
  879MOL0     H21292   4.785   9.485  11.605 -1.2512 -0.2646 -0.7727
  879MOL0     H21293   4.713   9.625  11.527  2.0224  3.0798 -0.8503
  879MOL0     H21294   4.757   9.603  11.834  0.8938 -0.7761 -1.1362
  879MOL0     H21295   4.664   9.733  11.745  2.7836  1.5997  1.3372
  879MOL0     H21296   4.523   9.562  11.862  2.0077 -0.6759  1.4696
  879MOL0     H21297   4.581   9.439  11.745 -1.6567  0.0108  1.2323
  879MOL0     H21298   4.339   9.661  11.484  3.9579  1.3797 -1.1500
  879MOL0     H21299   5.139   9.665  11.304 -0.3447 -1.9226  0.2271
  879MOL0     H21300   5.426   9.661  11.223 -0.5804 -0.0414 -0.6909
  879MOL0     H21301   5.277   9.739  11.176 -2.6592  0.5076  3.0000
  879MOL0     H21302   5.403   9.842  11.243 -1.4638  1.0556  2.0068
  880MOL0     O21303   2.856  11.316   7.115  0.3925  0.2506  0.9267
  880MOL0     C21304   2.753  11.254   7.078  0.4003 -0.1939 -0.7314
  880MOL0     O21305   2.740  11.160   6.975 -0.1411 -0.1324  0.6023
  880MOL0     C21306   2.857  11.129   6.908  0.0513 -0.8353 -0.1633
  880MOL0     C21307   2.845  11.137   6.772  0.2692  0.1195 -0.4105
  880MOL0     C21308   2.957  11.115   6.688 -0.8630  0.4573 -0.0724
  880MOL0     C21309   3.078  11.070   6.743 -0.1926  1.1088  0.9158
  880MOL0     O21310   3.197  11.051   6.675  0.1509  0.1664 -0.0670
  880MOL0     C21311   3.212  11.121   6.550  0.2451  0.6344  0.0505
  880MOL0     C21312   3.362  11.113   6.524  0.5387  0.3516  0.1377
  880MOL0     C21313   3.408  10.979   6.492  0.2912 -0.0841  0.7105
  880MOL0     C21314   3.568  10.952   6.498 -0.1477  0.2740  0.1951
  880MOL0     C21315   3.632  10.888   6.375 -0.0363 -1.0716  0.1474
  880MOL0     C21316   3.781  10.867   6.411  0.4884 -0.2612  0.4962
  880MOL0     C21317   3.853  10.784   6.302 -0.8919  0.3650 -0.1375
  880MOL0     C21318   4.009  10.770   6.339 -0.0688  0.2396 -0.7131
  880MOL0     N21319   4.060  10.687   6.238 -0.1787 -0.8009  0.3044
  880MOL0     C21320   4.176  10.714   6.167  0.2715  0.8020 -0.4170
  880MOL0     C21321   4.181  10.610   6.078  0.0183  0.4058 -0.3166
  880MOL0     C21322   4.306  10.585   5.992  1.2103  0.0920  0.3724
  880MOL0     C21323   4.337  10.429   5.961  0.5914 -0.6290 -0.7222
  880MOL0     C21324   4.401  10.372   6.093 -0.9363 -0.0539  0.3066
  880MOL0     C21325   4.390  10.224   6.101 -0.3705  0.6566 -1.1897
  880MOL0     O21326   4.474  10.170   5.995  0.5429  0.4388 -0.1667
  880MOL0     C21327   4.612  10.177   5.986 -0.0571  0.8583  0.8019
  880MOL0     C21328   4.688  10.241   6.082 -1.2044  0.7836 -0.2174
  880MOL0     C21329   4.826  10.253   6.065 -0.3208 -0.5174  0.5920
  880MOL0     C21330   4.890  10.344   6.175  0.3587  0.7063 -0.4437
  880MOL0     C21331   4.886  10.217   5.940 -0.9405 -0.0569  1.3364
  880MOL0     C21332   5.030  10.247   5.896 -0.0545  0.2408 -0.3465
  880MOL0     O21333   5.085  10.189   5.783 -0.0693 -0.9050  0.0476
  880MOL0     C21334   5.219  10.213   5.746  0.4911  0.1508  0.7393
  880MOL0     C21335   5.255  10.264   5.616  0.8003 -0.2989 -0.3044
  880MOL0     C21336   5.388  10.284   5.590 -0.5772 -0.4760 -0.0098
  880MOL0     C21337   5.487  10.234   5.673  0.3926  0.1376 -0.3983
  880MOL0     O21338   5.625  10.238   5.643  0.1317  0.1760 -0.2138
  880MOL0     C21339   5.666  10.202   5.508  0.1570 -0.0999 -0.3404
  880MOL0     C21340   5.812  10.214   5.497  0.7640  0.5371 -0.2993
  880MOL0     C21341   5.880  10.348   5.514 -0.4105 -0.8037 -0.1096
  880MOL0     C21342   6.030  10.348   5.489 -0.6361  0.2590 -0.7245
  880MOL0     C21343   6.085  10.493   5.493  0.1830  0.2772 -0.4029
  880MOL0     C21344   6.228  10.510   5.426  0.8961  0.4124  0.3271
  880MOL0     C21345   6.275  10.652   5.428 -0.0557 -0.2950  0.0841
  880MOL0     C21346   6.215  10.736   5.315 -0.0386 -0.3684  0.0626
  880MOL0    Cl21347   6.277  10.678   5.165 -0.3630 -0.1116  0.0733
  880MOL0     C21348   5.453  10.177   5.793  0.2609 -0.0204  0.5133
  880MOL0     C21349   5.318  10.170   5.827 -0.0354  0.2994 -1.1881
  880MOL0     O21350   5.105  10.303   5.978  0.6441  0.1829 -0.0696
  880MOL0     C21351   4.805  10.157   5.842 -0.6681  0.0415  0.2325
  880MOL0     C21352   4.673  10.144   5.863 -0.2223  0.1360 -0.0347
  880MOL0     N21353   4.076  10.524   6.090  0.4208  0.7961  0.4837
  880MOL0     N21354   4.004  10.571   6.185  0.3332  0.5264 -0.5490
  880MOL0     C21355   3.086  11.053   6.880  1.2207 -0.5221 -1.1773
  880MOL0     C21356   2.977  11.083   6.962 -0.1764 -0.3678  0.4260
  880MOL0     C21357   2.626  11.275   7.141 -0.3827 -0.7174  0.3500
  880MOL0     C21358   2.504  11.288   7.064 -0.5095 -0.3490 -0.2315
  880MOL0     C21359   2.372  11.307   7.116 -0.1328  0.3526 -0.7147
  880MOL0     C21360   2.355  11.312   7.257  0.8856 -0.5787  0.2757
  880MOL0     O21361   2.222  11.322   7.307  0.3245  0.1845 -0.0783
  880MOL0     C21362   2.115  11.256   7.229  0.0921  1.1848 -0.0114
  880MOL0     C21363   2.130  11.094   7.224  0.6774 -0.1237  0.0606
  880MOL0     C21364   2.175  11.041   7.357 -0.1628  0.1878 -0.7453
  880MOL0     C21365   2.156  10.896   7.374  0.8085 -0.1154 -0.1509
  880MOL0     C21366   2.204  10.846   7.504  0.2981  0.1964 -0.2567
  880MOL0     C21367   2.240  10.794   7.610 -0.2973 -0.0026  0.1640
  880MOL0     C21368   2.470  11.301   7.334 -0.3628 -0.3997 -0.2111
  880MOL0     C21369   2.607  11.298   7.281  0.4583  0.6847 -0.1782
  880MOL0     C21370   2.718  11.295   7.388  0.5790 -0.4643  0.0552
  880MOL0     H21371   2.748  11.167   6.733  0.2732 -0.9725 -1.3180
  880MOL0     H21372   2.942  11.129   6.582 -1.5113 -0.0970 -0.0676
  880MOL0     H21373   3.170  11.221   6.558 -0.0965  0.3814  1.9046
  880MOL0     H21374   3.152  11.085   6.466  2.4015 -3.9621  0.1648
  880MOL0     H21375   3.383  11.184   6.444 -2.0936  1.8020  0.6019
  880MOL0     H21376   3.403  11.154   6.617 -2.4421 -2.3926  2.9328
  880MOL0     H21377   3.347  10.909   6.550  0.6461 -2.7325 -1.8470
  880MOL0     H21378   3.390  10.945   6.390  0.9729 -1.1701  0.9337
  880MOL0     H21379   3.628  11.041   6.518  1.5338 -1.0708  1.3137
  880MOL0     H21380   3.588  10.895   6.588 -1.0741  0.4423  0.5214
  880MOL0     H21381   3.617  10.949   6.285  3.0973  2.6239  1.8827
  880MOL0     H21382   3.577  10.794   6.365 -2.8413  0.3641  0.9638
  880MOL0     H21383   3.833  10.963   6.419  0.7043 -0.3177 -0.1406
  880MOL0     H21384   3.786  10.810   6.504 -3.2384 -0.4607  0.6950
  880MOL0     H21385   3.846  10.834   6.205  1.1866  2.3561  0.6425
  880MOL0     H21386   3.801  10.688   6.298  1.4212 -1.0337  1.3369
  880MOL0     H21387   4.045  10.872   6.323 -0.1066  0.2911 -0.4706
  880MOL0     H21388   4.033  10.731   6.438  3.9230  0.4704 -1.4082
  880MOL0     H21389   4.241  10.798   6.189 -2.1032  1.9237  3.1183
  880MOL0     H21390   4.395  10.635   6.034 -0.2495  1.8182  1.5876
  880MOL0     H21391   4.287  10.632   5.895 -0.4291 -0.4155  0.4331
  880MOL0     H21392   4.239  10.384   5.943 -0.7140  1.7742 -0.1053
  880MOL0     H21393   4.397  10.408   5.872  0.3460 -0.9194 -0.8195
  880MOL0     H21394   4.504  10.410   6.091 -1.2317  0.8669  1.3941
  880MOL0     H21395   4.350  10.416   6.180 -0.7943 -0.8392  0.7958
  880MOL0     H21396   4.428  10.182   6.195  0.2305 -1.0638 -2.1575
  880MOL0     H21397   4.287  10.189   6.093 -0.9001  2.0469 -0.7351
  880MOL0     H21398   4.646  10.273   6.177 -0.2595  1.1510  0.0864
  880MOL0     H21399   4.904  10.443   6.131 -2.2856  1.7710  0.8660
  880MOL0     H21400   4.981  10.302   6.219 -1.6334 -1.1032  2.3647
  880MOL0     H21401   4.831  10.359   6.266  0.6372 -1.5243  0.1790
  880MOL0     H21402   5.179  10.286   5.542 -0.1960 -1.7884  0.2310
  880MOL0     H21403   5.424  10.327   5.497  0.5394  0.2023  0.7103
  880MOL0     H21404   5.650  10.098   5.477  1.7441 -0.9213  1.4176
  880MOL0     H21405   5.612  10.266   5.437 -0.5128 -2.0595 -1.7194
  880MOL0     H21406   5.859  10.132   5.552  1.0272 -1.1729 -2.8914
  880MOL0     H21407   5.839  10.188   5.394  3.8154  0.4668  0.4374
  880MOL0     H21408   5.876  10.389   5.615  1.0575  0.5897 -0.5781
  880MOL0     H21409   5.834  10.420   5.446 -0.3526  0.0776  0.7500
  880MOL0     H21410   6.038  10.305   5.388  0.3020 -0.7339 -0.2487
  880MOL0     H21411   6.069  10.275   5.560  1.4910  3.2694  1.4393
  880MOL0     H21412   6.020  10.570   5.451  0.2442  0.4379 -0.2024
  880MOL0     H21413   6.108  10.523   5.596  2.1071 -0.8771 -0.4352
  880MOL0     H21414   6.221  10.460   5.330  1.3758 -1.9796  1.4730
  880MOL0     H21415   6.298  10.454   5.489  2.0457 -0.0088 -1.2552
  880MOL0     H21416   6.383  10.646   5.414 -0.1121  0.1287 -0.6002
  880MOL0     H21417   6.246  10.691   5.526 -1.5366 -1.8784  0.3199
  880MOL0     H21418   6.241  10.840   5.334 -1.7268 -0.3355  2.7669
  880MOL0     H21419   6.106  10.725   5.308  0.0962 -2.2084  0.2298
  880MOL0     H21420   5.529  10.142   5.862 -0.6588 -1.6322  0.7357
  880MOL0     H21421   5.280  10.122   5.918 -2.3040  1.0460 -1.6854
  880MOL0     H21422   4.844  10.136   5.743  0.6168  0.5782  0.6051
  880MOL0     H21423   4.610  10.108   5.782 -0.3161  1.1211 -0.4046
  880MOL0     H21424   3.179  11.026   6.928  1.3328  0.4302 -0.8438
  880MOL0     H21425   2.985  11.078   7.070  0.1433 -0.4455  0.4021
  880MOL0     H21426   2.505  11.279   6.956 -1.3306  0.6697 -0.3385
  880MOL0     H21427   2.288  11.327   7.050 -1.4328 -1.3098  0.3639
  880MOL0     H21428   2.023  11.284   7.281  0.6216 -1.8430  2.8807
  880MOL0     H21429   2.107  11.294   7.127  0.3821 -0.2016 -0.5768
  880MOL0     H21430   2.195  11.063   7.142 -0.0185  0.0408 -0.5550
  880MOL0     H21431   2.031  11.049   7.217  0.9251 -1.4694  3.4118
  880MOL0     H21432   2.281  11.057   7.379 -0.4412 -0.4482  1.2630
  880MOL0     H21433   2.128  11.095   7.440  0.1969 -0.1722 -0.2968
  880MOL0     H21434   2.192  10.842   7.286 -3.5551 -2.5383 -0.7240
  880MOL0     H21435   2.047  10.885   7.374  0.8613 -0.7317 -1.1093
  880MOL0     H21436   2.283  10.742   7.694  2.2047 -0.0620 -1.0391
  880MOL0     H21437   2.452  11.316   7.441  2.5301 -2.7606  0.7348
  880MOL0     H21438   2.677  11.295   7.490 -2.8387  0.5576 -1.1948
  880MOL0     H21439   2.784  11.209   7.373  1.1471  0.3491 -2.6527
  880MOL0     H21440   2.764  11.393   7.377 -0.3002  0.0520  0.7736
  881MOL0     O21441  10.205   1.131   2.537  0.0816 -0.0963 -0.5292
  881MOL0     C21442  10.199   1.128   2.413 -0.8471  0.1503 -0.7672
  881MOL0     O21443  10.308   1.113   2.336 -0.0698  0.0087  0.2032
  881MOL0     C21444  10.437   1.139   2.379 -0.9814 -0.6147 -0.5486
  881MOL0     C21445  10.483   1.235   2.471 -0.0068 -0.0932 -0.7498
  881MOL0     C21446  10.617   1.242   2.509  0.1144 -0.4476 -0.1675
  881MOL0     C21447  10.705   1.157   2.443 -0.3090  0.2979  0.6283
  881MOL0     O21448  10.836   1.143   2.460  0.4088  0.0176  0.3042
  881MOL0     C21449  10.916   1.226   2.373  0.5260 -0.2601  0.3059
  881MOL0     C21450  11.043   1.260   2.448  1.0099  0.4567  0.1971
  881MOL0     C21451  11.001   1.349   2.568 -0.2024 -0.7537 -0.4046
  881MOL0     C21452  11.113   1.407   2.663  0.1359 -0.6026 -0.3771
  881MOL0     C21453  11.217   1.300   2.697 -0.0998 -0.6886  0.0015
  881MOL0     C21454  11.305   1.349   2.806 -1.2596 -0.2472 -0.0805
  881MOL0     C21455  11.427   1.255   2.829 -0.0613  0.7063  0.3541
  881MOL0     C21456  11.517   1.309   2.944 -0.7368 -0.9661  0.0120
  881MOL0     N21457  11.647   1.235   2.943  0.1955 -0.9049 -0.1644
  881MOL0     C21458  11.764   1.300   2.931 -0.6807 -0.7418 -0.5978
  881MOL0     C21459  11.848   1.216   2.995  0.1609  0.2373  0.0027
  881MOL0     C21460  11.992   1.262   3.031  0.9128  0.1440  0.2034
  881MOL0     C21461  12.046   1.271   3.180  0.1205 -0.5538 -0.2797
  881MOL0     C21462  12.142   1.398   3.207 -0.0783 -0.4423  0.3613
  881MOL0     C21463  12.151   1.448   3.354  0.8540  0.7783  0.4432
  881MOL0     O21464  12.264   1.542   3.354  0.2091 -0.1779  0.2601
  881MOL0     C21465  12.306   1.597   3.475 -0.2750  0.5452  0.2509
  881MOL0     C21466  12.228   1.593   3.592  0.4019  0.4972 -0.1168
  881MOL0     C21467  12.272   1.655   3.704 -0.1147  1.3838 -1.5508
  881MOL0     C21468  12.177   1.633   3.826  0.3962 -0.7784  0.9207
  881MOL0     C21469  12.403   1.696   3.721  0.0193 -0.1856 -0.2059
  881MOL0     C21470  12.464   1.745   3.841 -0.3114 -0.5018  0.6074
  881MOL0     O21471  12.600   1.781   3.829  0.5668  0.1890  0.7919
  881MOL0     C21472  12.676   1.813   3.936 -0.7638 -0.6437  0.3726
  881MOL0     C21473  12.632   1.895   4.044  0.6140 -0.3270 -0.2610
  881MOL0     C21474  12.721   1.928   4.149  0.1380  1.5746  0.4241
  881MOL0     C21475  12.852   1.877   4.151  0.4828 -0.1416  0.5726
  881MOL0     O21476  12.929   1.908   4.262 -0.5773 -0.1952  0.1450
  881MOL0     C21477  13.058   1.851   4.275 -1.0268  0.0042  0.0832
  881MOL0     C21478  13.119   1.931   4.394  0.3552 -0.4280  0.3424
  881MOL0     C21479  13.252   1.868   4.432 -0.5269 -0.4074 -0.5856
  881MOL0     C21480  13.371   1.948   4.369 -0.0578  0.0125 -0.2080
  881MOL0     C21481  13.504   1.889   4.432  0.3517 -1.1487 -0.0104
  881MOL0     C21482  13.563   1.969   4.548  0.6084  0.2188 -0.0074
  881MOL0     C21483  13.686   1.912   4.608 -0.3246  0.6630 -0.1577
  881MOL0     C21484  13.723   1.998   4.726  0.0913  0.4468 -0.2695
  881MOL0    Cl21485  13.877   1.928   4.778  0.0289 -0.2321  0.2481
  881MOL0     C21486  12.897   1.803   4.044  0.3919 -0.3955  0.1365
  881MOL0     C21487  12.812   1.778   3.938 -0.2475 -0.1227  0.7556
  881MOL0     O21488  12.406   1.741   3.952  0.6312  0.0940 -0.1840
  881MOL0     C21489  12.481   1.693   3.599 -0.1808  0.4491 -0.0206
  881MOL0     C21490  12.435   1.638   3.485  0.0228  0.6798 -0.1564
  881MOL0     N21491  11.783   1.097   3.023 -0.5556  0.3988  0.4279
  881MOL0     N21492  11.663   1.108   2.982 -0.3846  0.2018 -0.5265
  881MOL0     C21493  10.661   1.054   2.354 -0.3458  0.7599 -0.3023
  881MOL0     C21494  10.533   1.051   2.323 -0.5628  0.4864  1.0831
  881MOL0     C21495  10.062   1.122   2.357 -0.0115 -0.0010  0.1827
  881MOL0     C21496   9.953   1.166   2.441  0.4915 -0.0096 -0.2154
  881MOL0     C21497   9.824   1.183   2.393  0.8084 -0.1557 -0.4411
  881MOL0     C21498   9.800   1.155   2.257  0.6200  0.0790 -0.0636
  881MOL0     O21499   9.680   1.161   2.195 -0.1420 -0.3908 -0.8033
  881MOL0     C21500   9.580   1.241   2.252  0.2296 -1.2464 -0.6011
  881MOL0     C21501   9.499   1.163   2.344 -0.1187  0.4595  0.1789
  881MOL0     C21502   9.366   1.116   2.284 -0.3307 -0.8047  0.0296
  881MOL0     C21503   9.263   1.227   2.238  0.0438 -0.2120  0.4325
  881MOL0     C21504   9.138   1.173   2.185 -0.4295 -0.8821  0.3419
  881MOL0     C21505   9.034   1.131   2.143 -0.2077 -0.8511 -0.3666
  881MOL0     C21506   9.898   1.084   2.185  0.4671  0.2342 -1.0507
  881MOL0     C21507  10.030   1.075   2.231 -0.6259  0.4441 -0.6450
  881MOL0     C21508  10.137   1.002   2.145  0.6367  0.4258  0.7603
  881MOL0     H21509  10.416   1.297   2.531 -0.1509 -0.6316 -0.3441
  881MOL0     H21510  10.647   1.317   2.581  1.0958 -1.8485  0.9516
  881MOL0     H21511  10.850   1.311   2.353 -2.2075 -2.6292 -1.5743
  881MOL0     H21512  10.937   1.172   2.280 -3.7672 -0.6060 -0.6390
  881MOL0     H21513  11.101   1.173   2.478  1.4804  0.4174 -0.7928
  881MOL0     H21514  11.111   1.310   2.378  1.1027  2.7564  1.8134
  881MOL0     H21515  10.943   1.433   2.529 -2.6584 -1.4043  1.5793
  881MOL0     H21516  10.939   1.291   2.637  3.8078 -1.8989  2.6197
  881MOL0     H21517  11.157   1.496   2.616  2.3812 -1.0223  0.8317
  881MOL0     H21518  11.065   1.440   2.756  0.4858 -2.4720  0.4941
  881MOL0     H21519  11.279   1.268   2.613 -2.6485 -3.0185 -1.1048
  881MOL0     H21520  11.164   1.213   2.737 -2.6893  1.4851  1.6112
  881MOL0     H21521  11.346   1.446   2.777 -0.8319 -0.2930  0.3477
  881MOL0     H21522  11.255   1.358   2.903 -0.0889 -2.7138  0.8419
  881MOL0     H21523  11.486   1.256   2.737  0.6589  1.6865  0.8098
  881MOL0     H21524  11.391   1.156   2.860 -2.2795  1.9156  2.0014
  881MOL0     H21525  11.533   1.415   2.922 -0.2241 -0.7741  1.2316
  881MOL0     H21526  11.471   1.300   3.043  3.2726 -0.8363  2.0903
  881MOL0     H21527  11.782   1.400   2.895  0.2250 -1.0250 -0.9704
  881MOL0     H21528  12.001   1.360   2.982 -2.2804 -0.8874 -2.8749
  881MOL0     H21529  12.057   1.196   2.972 -0.3104  0.1828 -1.2606
  881MOL0     H21530  11.967   1.269   3.255  3.3446 -4.3042  3.5416
  881MOL0     H21531  12.091   1.177   3.214 -0.7183 -0.0408  2.4552
  881MOL0     H21532  12.244   1.382   3.169  0.7156 -1.7896  2.8646
  881MOL0     H21533  12.108   1.483   3.146  1.1489  0.9883  1.5982
  881MOL0     H21534  12.060   1.497   3.389 -0.2364 -0.9212  0.0860
  881MOL0     H21535  12.175   1.371   3.427  1.1052  2.2832  2.0187
  881MOL0     H21536  12.124   1.565   3.580  0.7009 -0.2361 -1.1607
  881MOL0     H21537  12.204   1.546   3.887 -0.9839 -1.9424 -0.0367
  881MOL0     H21538  12.077   1.603   3.793  0.5556  0.6827 -1.0579
  881MOL0     H21539  12.171   1.726   3.883  1.4012 -0.0258 -0.1607
  881MOL0     H21540  12.532   1.937   4.043  1.9711  3.2442 -0.9471
  881MOL0     H21541  12.679   1.979   4.235 -1.3381  4.1993 -1.6941
  881MOL0     H21542  13.038   1.752   4.315 -0.1616 -0.2771 -0.1606
  881MOL0     H21543  13.124   1.852   4.188 -0.7930  0.7322  0.2588
  881MOL0     H21544  13.133   2.035   4.365 -0.0470  0.2830  2.5411
  881MOL0     H21545  13.045   1.942   4.474 -0.2378 -1.9549  0.0338
  881MOL0     H21546  13.261   1.764   4.401  3.6657 -0.6289  0.7511
  881MOL0     H21547  13.266   1.869   4.541  1.7479 -2.0538 -0.8094
  881MOL0     H21548  13.364   2.055   4.389 -0.9303 -0.0199 -0.2962
  881MOL0     H21549  13.372   1.935   4.260  0.3408 -1.1424 -0.0818
  881MOL0     H21550  13.476   1.788   4.463 -0.9450 -0.0092  2.8038
  881MOL0     H21551  13.575   1.891   4.348 -0.7331  0.7429 -0.9340
  881MOL0     H21552  13.486   1.988   4.622  0.2659 -0.6497 -0.1362
  881MOL0     H21553  13.581   2.071   4.511 -3.2309  1.4564  1.0719
  881MOL0     H21554  13.762   1.914   4.529  0.7289  2.3794  0.8256
  881MOL0     H21555  13.675   1.806   4.633  0.9314  1.0588  2.3574
  881MOL0     H21556  13.654   1.995   4.811 -1.6530  0.1798 -1.6332
  881MOL0     H21557  13.745   2.101   4.697  3.9874 -0.4062 -0.8674
  881MOL0     H21558  13.001   1.777   4.027  0.8089  2.8548 -3.8936
  881MOL0     H21559  12.869   1.726   3.861  2.4827  0.6911  2.0889
  881MOL0     H21560  12.587   1.719   3.597  0.4057 -1.7170 -0.7732
  881MOL0     H21561  12.492   1.619   3.395 -1.3707 -2.0347 -0.5911
  881MOL0     H21562  10.740   0.994   2.311 -0.7490  1.1732 -1.6498
  881MOL0     H21563  10.505   0.977   2.250  1.2994  0.4854  0.3137
  881MOL0     H21564   9.979   1.174   2.546  0.3349  0.6903 -0.2259
  881MOL0     H21565   9.751   1.231   2.458  1.3290 -0.7947  0.6344
  881MOL0     H21566   9.624   1.326   2.306 -2.3608 -0.5583  0.5747
  881MOL0     H21567   9.527   1.296   2.173  1.2273 -0.4347 -0.7360
  881MOL0     H21568   9.483   1.227   2.431  2.2542  1.1285  0.1787
  881MOL0     H21569   9.546   1.069   2.376 -2.0032 -1.3485 -1.9796
  881MOL0     H21570   9.401   1.056   2.199 -0.5518 -4.1004  2.0707
  881MOL0     H21571   9.311   1.048   2.350 -1.6504  2.4134  2.5015
  881MOL0     H21572   9.301   1.282   2.152 -0.4905 -0.8259 -0.2087
  881MOL0     H21573   9.237   1.297   2.318 -1.8525  0.4573 -0.6973
  881MOL0     H21574   8.941   1.104   2.097 -0.1193 -0.7999 -0.5784
  881MOL0     H21575   9.870   1.040   2.089  0.7397  0.2904 -1.1584
  881MOL0     H21576  10.194   1.080   2.095  0.9329  0.5355  1.2657
  881MOL0     H21577  10.189   0.932   2.211  0.1226 -0.4376  0.2740
  881MOL0     H21578  10.087   0.935   2.074 -2.0844  1.2505  1.7656
  882MOL0     O21579   8.446   2.080   9.548 -0.3615 -0.2896 -1.1568
  882MOL0     C21580   8.359   2.085   9.630  0.5132 -0.4950 -0.1074
  882MOL0     O21581   8.351   2.027   9.752 -0.4657  0.5241  0.4319
  882MOL0     C21582   8.475   1.995   9.794 -0.8541 -0.6199 -0.7561
  882MOL0     C21583   8.548   1.880   9.760 -0.0861  0.1869  0.0156
  882MOL0     C21584   8.677   1.852   9.813  0.4901 -0.4047  0.3327
  882MOL0     C21585   8.732   1.933   9.911  0.0240  0.1461 -0.6842
  882MOL0     O21586   8.847   1.911   9.971  0.5739  0.3351 -0.8941
  882MOL0     C21587   8.948   1.814   9.917  0.1932 -0.0638 -0.4281
  882MOL0     C21588   9.033   1.765  10.039  1.3657  0.1663 -0.5588
  882MOL0     C21589   9.139   1.665  10.019 -0.2885  0.3733  0.5591
  882MOL0     C21590   9.093   1.542   9.938 -0.0739 -0.7475  0.1159
  882MOL0     C21591   8.979   1.463  10.000  0.0577 -0.0009 -0.3150
  882MOL0     C21592   8.930   1.343   9.920 -0.3544  0.2684 -0.3473
  882MOL0     C21593   8.833   1.253   9.994  0.9519  0.3215  0.1929
  882MOL0     C21594   8.700   1.309  10.032 -0.2412 -0.1913 -0.1921
  882MOL0     N21595   8.631   1.358   9.918  0.2528 -0.6594  0.0893
  882MOL0     C21596   8.578   1.282   9.813 -0.1097 -0.0558  0.2808
  882MOL0     C21597   8.568   1.376   9.712  0.7380  0.6225  0.9836
  882MOL0     C21598   8.532   1.325   9.571  0.0414 -1.3746  0.4936
  882MOL0     C21599   8.533   1.436   9.462 -0.7374  0.1936  0.1740
  882MOL0     C21600   8.429   1.538   9.493 -0.5250  0.0740  0.3440
  882MOL0     C21601   8.382   1.631   9.380 -0.1954 -0.1728  0.5622
  882MOL0     O21602   8.289   1.731   9.425  0.0822 -0.4234 -0.3271
  882MOL0     C21603   8.161   1.699   9.456  0.5325 -0.0687 -0.4641
  882MOL0     C21604   8.109   1.565   9.444  0.6227 -0.6281 -0.1951
  882MOL0     C21605   7.971   1.537   9.464 -0.6877 -0.6724 -0.5787
  882MOL0     C21606   7.934   1.393   9.440 -0.1302 -0.1612  0.2280
  882MOL0     C21607   7.887   1.639   9.512  0.2429 -0.2365 -0.2671
  882MOL0     C21608   7.748   1.624   9.561  0.2747  0.4191 -0.2674
  882MOL0     O21609   7.683   1.728   9.611  0.2719  0.0703  0.4156
  882MOL0     C21610   7.558   1.704   9.655  0.3038 -0.1647 -0.4593
  882MOL0     C21611   7.534   1.628   9.769 -0.2467 -0.7248  0.0637
  882MOL0     C21612   7.402   1.605   9.825 -0.1960  0.8732  0.0501
  882MOL0     C21613   7.295   1.640   9.745  0.7349 -0.4657 -0.4190
  882MOL0     O21614   7.169   1.602   9.769  0.0250 -0.4136  0.2083
  882MOL0     C21615   7.136   1.532   9.889  0.1068  0.2608 -0.2183
  882MOL0     C21616   6.987   1.504   9.895  0.1957 -1.2108  0.2619
  882MOL0     C21617   6.893   1.627   9.917  0.1007 -0.0080 -0.5500
  882MOL0     C21618   6.834   1.632  10.069  0.1729  0.3605 -0.3521
  882MOL0     C21619   6.767   1.770  10.090  0.1695 -0.1209 -0.0558
  882MOL0     C21620   6.762   1.813  10.234 -0.0107 -0.2415 -0.6990
  882MOL0     C21621   6.693   1.940  10.239 -0.1633 -0.1564 -0.4911
  882MOL0     C21622   6.763   2.023  10.348  0.7028 -0.4938  0.7257
  882MOL0    Cl21623   6.937   2.079  10.300  0.1606 -0.2834  0.3087
  882MOL0     C21624   7.321   1.728   9.640 -0.4300  0.1290 -0.2768
  882MOL0     C21625   7.444   1.759   9.602 -1.1544  0.0762  0.2549
  882MOL0     O21626   7.689   1.515   9.536  0.1291  0.9950 -0.0329
  882MOL0     C21627   7.933   1.775   9.510 -0.1138  0.4985 -0.2254
  882MOL0     C21628   8.074   1.802   9.488 -0.6187  0.3742 -0.2382
  882MOL0     N21629   8.625   1.493   9.748  0.1824  0.1119  0.3642
  882MOL0     N21630   8.655   1.487   9.873 -0.2334  0.6393 -0.9610
  882MOL0     C21631   8.658   2.043   9.958 -0.3515 -0.3190  1.4833
  882MOL0     C21632   8.535   2.072   9.895 -0.5962 -0.8015 -0.9543
  882MOL0     C21633   8.231   2.154   9.583 -0.7042  0.4018  0.0716
  882MOL0     C21634   8.134   2.190   9.685 -0.4338 -0.1493 -0.0484
  882MOL0     C21635   8.017   2.258   9.658  0.1952  0.5510  0.6673
  882MOL0     C21636   7.988   2.299   9.528  0.1951 -1.0343 -0.3791
  882MOL0     O21637   7.887   2.376   9.477  0.2207  0.2101  0.1906
  882MOL0     C21638   7.777   2.393   9.568 -0.4837 -0.6144  1.3578
  882MOL0     C21639   7.657   2.471   9.504  0.0330  0.5817  0.7592
  882MOL0     C21640   7.573   2.494   9.624  0.0653  1.0130  0.4256
  882MOL0     C21641   7.435   2.526   9.568 -0.4127 -0.4782  0.4285
  882MOL0     C21642   7.343   2.563   9.681  0.6092 -0.0780  1.2317
  882MOL0     C21643   7.261   2.590   9.767  0.7436 -0.5076  0.6723
  882MOL0     C21644   8.074   2.271   9.425 -0.7638 -0.6061 -0.6412
  882MOL0     C21645   8.196   2.197   9.448  0.5762  0.0830 -0.5824
  882MOL0     C21646   8.277   2.174   9.322  0.3727  0.6789  0.1112
  882MOL0     H21647   8.511   1.808   9.687  2.2862 -0.2707 -0.8289
  882MOL0     H21648   8.714   1.758   9.772 -3.1691 -1.5826 -0.6475
  882MOL0     H21649   9.012   1.856   9.839  1.6393 -1.0675  0.1856
  882MOL0     H21650   8.898   1.734   9.861 -0.9656  0.7179 -0.5589
  882MOL0     H21651   9.073   1.859  10.078 -0.1098  0.6819 -0.2202
  882MOL0     H21652   8.963   1.734  10.117  0.7073  0.2201 -1.1212
  882MOL0     H21653   9.213   1.716   9.956  0.2304  0.2175  1.0295
  882MOL0     H21654   9.192   1.634  10.110 -1.6988  2.2223  2.0837
  882MOL0     H21655   9.046   1.567   9.842 -0.1284  0.9234  0.5550
  882MOL0     H21656   9.173   1.473   9.910  0.9952  0.9082 -1.0401
  882MOL0     H21657   8.896   1.531  10.018 -0.5001 -0.7722  0.1266
  882MOL0     H21658   9.015   1.434  10.100 -0.8374 -0.7075 -0.1791
  882MOL0     H21659   8.885   1.377   9.827  1.4346  0.1918 -1.2853
  882MOL0     H21660   9.020   1.281   9.907  0.1536  0.8525  0.2564
  882MOL0     H21661   8.883   1.227  10.088 -2.3352  0.5370  2.1369
  882MOL0     H21662   8.825   1.157   9.941  1.6227 -2.0146  3.9475
  882MOL0     H21663   8.641   1.229  10.078  2.1094 -2.0348 -0.2323
  882MOL0     H21664   8.716   1.381  10.113  0.5435 -1.6394  0.9822
  882MOL0     H21665   8.548   1.178   9.807 -1.0743  0.2863 -3.0713
  882MOL0     H21666   8.434   1.276   9.570  1.4993 -4.5412  0.6256
  882MOL0     H21667   8.609   1.251   9.547  2.4422 -0.1685  3.6496
  882MOL0     H21668   8.634   1.478   9.460 -1.4131  1.9085  0.2305
  882MOL0     H21669   8.513   1.401   9.360  0.6526 -0.9026  0.2520
  882MOL0     H21670   8.343   1.478   9.524  0.9105 -3.3038 -1.6190
  882MOL0     H21671   8.456   1.596   9.581  0.3220 -0.1266  0.2320
  882MOL0     H21672   8.469   1.684   9.339 -0.7548  0.2572 -0.1102
  882MOL0     H21673   8.345   1.576   9.293  0.7752 -0.4117  0.2881
  882MOL0     H21674   8.173   1.487   9.403  0.1999 -0.8822 -0.3766
  882MOL0     H21675   7.892   1.368   9.537  0.3090  0.2602  0.5305
  882MOL0     H21676   8.019   1.328   9.414  0.7279  0.7668  0.6415
  882MOL0     H21677   7.858   1.384   9.362  0.7128 -1.5018 -0.4855
  882MOL0     H21678   7.616   1.594   9.831  0.3072  3.0178  1.7219
  882MOL0     H21679   7.383   1.540   9.910 -2.9847 -1.5885 -2.1805
  882MOL0     H21680   7.173   1.429   9.890  1.0278  0.5840  0.8534
  882MOL0     H21681   7.171   1.578   9.981 -0.1597  0.0066  0.0145
  882MOL0     H21682   6.966   1.452   9.801  1.1852  2.2030 -2.0438
  882MOL0     H21683   6.969   1.437   9.979 -0.1497 -1.9313 -0.3746
  882MOL0     H21684   6.805   1.632   9.852 -0.9837  1.7183  0.9555
  882MOL0     H21685   6.952   1.715   9.889 -1.0256  0.0459 -2.9562
  882MOL0     H21686   6.916   1.611  10.138  0.6983 -2.0506 -1.6304
  882MOL0     H21687   6.765   1.551  10.094 -0.3155  1.3383  1.8111
  882MOL0     H21688   6.842   1.835  10.044  0.5168 -1.4567 -1.4766
  882MOL0     H21689   6.674   1.763  10.034  0.2134 -3.0150  0.0794
  882MOL0     H21690   6.862   1.828  10.274 -1.5413  1.3701  2.9309
  882MOL0     H21691   6.720   1.735  10.298  1.4478  0.3833  1.0924
  882MOL0     H21692   6.587   1.930  10.266  1.0220 -0.9826  5.0824
  882MOL0     H21693   6.700   1.996  10.146  2.6984  0.4195 -0.0209
  882MOL0     H21694   6.775   1.965  10.440 -0.3755  0.4576  1.5005
  882MOL0     H21695   6.708   2.117  10.365 -1.3086 -1.4029 -0.4397
  882MOL0     H21696   7.228   1.761   9.595 -0.3718 -0.1111 -0.5758
  882MOL0     H21697   7.454   1.828   9.519 -0.3262  1.7187  1.6479
  882MOL0     H21698   7.860   1.850   9.538 -2.4549 -2.6890  3.0361
  882MOL0     H21699   8.120   1.900   9.489  1.3573 -0.4907  1.2396
  882MOL0     H21700   8.692   2.105  10.041 -1.3733  1.7051  0.4588
  882MOL0     H21701   8.484   2.161   9.929  0.0623 -1.1259  0.9724
  882MOL0     H21702   8.151   2.146   9.783 -0.0905 -2.2391 -1.0067
  882MOL0     H21703   7.952   2.274   9.743  1.8275 -1.8482  2.5020
  882MOL0     H21704   7.745   2.291   9.588  0.2597 -1.0738  0.3027
  882MOL0     H21705   7.818   2.438   9.659  0.3871  1.7697 -0.1085
  882MOL0     H21706   7.608   2.413   9.425 -0.8823  2.4380 -0.1289
  882MOL0     H21707   7.690   2.566   9.461  1.4784 -1.6599 -3.7053
  882MOL0     H21708   7.568   2.417   9.701  0.0837  0.3587 -0.2115
  882MOL0     H21709   7.599   2.586   9.675  0.3129  2.3663 -1.9852
  882MOL0     H21710   7.399   2.437   9.516 -0.1107 -2.0017  2.6565
  882MOL0     H21711   7.437   2.600   9.488 -1.3392 -1.0465 -0.1298
  882MOL0     H21712   7.193   2.629   9.840  3.4829  2.1392  2.0291
  882MOL0     H21713   8.054   2.302   9.323 -0.4577 -2.5177 -1.3290
  882MOL0     H21714   8.304   2.069   9.327 -0.3800  0.4825  0.1511
  882MOL0     H21715   8.228   2.215   9.232 -0.3450 -0.2912  0.0507
  882MOL0     H21716   8.374   2.224   9.328  0.3368  0.8645 -0.6266
  883MOL0     O21717   1.199   1.843   5.878 -0.0887 -1.0988  0.1537
  883MOL0     C21718   1.151   1.946   5.832  0.5133 -0.6446  0.1505
  883MOL0     O21719   1.215   2.063   5.806 -0.1895  0.0432 -0.0656
  883MOL0     C21720   1.339   2.086   5.844  0.8353  0.1642 -0.0904
  883MOL0     C21721   1.413   2.030   5.950  0.4403 -0.2742 -0.1349
  883MOL0     C21722   1.537   2.078   5.988 -0.2596  0.1542 -1.2544
  883MOL0     C21723   1.596   2.188   5.926  0.5984  0.3074  0.0461
  883MOL0     O21724   1.722   2.235   5.969 -0.4676 -0.2882  0.4349
  883MOL0     C21725   1.792   2.347   5.890  0.3597  0.0168  0.1582
  883MOL0     C21726   1.915   2.397   5.959 -0.9721 -0.2396 -0.6712
  883MOL0     C21727   2.029   2.292   5.961  0.4277  0.4026  0.1687
  883MOL0     C21728   2.147   2.346   6.044 -0.1698 -0.1374 -0.7054
  883MOL0     C21729   2.280   2.275   6.017  0.7220 -0.1920  0.0996
  883MOL0     C21730   2.305   2.137   6.070 -0.1329  0.3607 -0.3815
  883MOL0     C21731   2.301   2.131   6.227  0.2632  0.1676  0.1421
  883MOL0     C21732   2.343   1.986   6.266  1.0466 -0.2467  0.8892
  883MOL0     N21733   2.476   1.946   6.223  0.4347  0.0250  0.6590
  883MOL0     C21734   2.536   1.915   6.101  0.1130 -0.1911  0.0301
  883MOL0     C21735   2.667   1.919   6.124  0.0169 -0.5736 -0.3275
  883MOL0     C21736   2.777   1.879   6.029  0.6819 -0.1208 -0.3060
  883MOL0     C21737   2.819   1.998   5.935  0.0629  0.5723 -0.3734
  883MOL0     C21738   2.887   1.938   5.819  0.1451 -0.1896 -0.9844
  883MOL0     C21739   2.944   2.033   5.725  0.1569 -0.0924  0.3050
  883MOL0     O21740   3.057   2.094   5.789  0.2488  0.0220  0.1667
  883MOL0     C21741   3.160   2.151   5.720  0.0244  0.8911 -0.9096
  883MOL0     C21742   3.248   2.228   5.800  0.7370 -0.2366  0.1445
  883MOL0     C21743   3.364   2.301   5.748 -0.1428  0.2497 -0.8379
  883MOL0     C21744   3.443   2.373   5.856  0.0161 -0.2165 -0.2802
  883MOL0     C21745   3.388   2.292   5.615  0.0166 -0.3795  0.8672
  883MOL0     C21746   3.505   2.364   5.555 -0.5772  0.1882  0.9075
  883MOL0     O21747   3.618   2.378   5.624  0.1475 -0.1588  0.3511
  883MOL0     C21748   3.726   2.433   5.552  1.1449 -0.3500 -0.1323
  883MOL0     C21749   3.791   2.546   5.595  0.2302  0.3568 -0.7605
  883MOL0     C21750   3.895   2.600   5.519  1.1375 -0.3393 -0.0018
  883MOL0     C21751   3.927   2.558   5.389  0.3115 -0.1419 -0.1924
  883MOL0     O21752   4.021   2.615   5.316  0.0215 -0.1638  0.0060
  883MOL0     C21753   4.066   2.549   5.203  0.2017  0.3225  0.1840
  883MOL0     C21754   4.199   2.612   5.157  0.2776  0.1777  0.6303
  883MOL0     C21755   4.232   2.549   5.021  0.1943 -0.2642  0.1261
  883MOL0     C21756   4.355   2.618   4.978 -0.3282 -0.5294  0.0073
  883MOL0     C21757   4.419   2.572   4.840 -0.2051  0.0002 -0.3303
  883MOL0     C21758   4.536   2.667   4.824  0.1007 -0.0632 -0.1268
  883MOL0     C21759   4.601   2.656   4.687 -0.1206 -0.7354 -0.7384
  883MOL0     C21760   4.670   2.788   4.654  0.0697 -0.0131  0.4775
  883MOL0    Cl21761   4.542   2.892   4.581  0.2938  0.0902  0.5144
  883MOL0     C21762   3.865   2.434   5.346  0.0930 -0.5282  0.1794
  883MOL0     C21763   3.763   2.372   5.429 -0.5582 -0.6491  0.0035
  883MOL0     O21764   3.485   2.407   5.438 -0.2314  0.4512 -0.1409
  883MOL0     C21765   3.292   2.218   5.539  0.1682  1.1159  0.0756
  883MOL0     C21766   3.185   2.140   5.587  0.2317  0.4825  0.0984
  883MOL0     N21767   2.693   1.948   6.257  0.0809 -0.0843 -0.2053
  883MOL0     N21768   2.577   1.969   6.309 -0.0767  0.7755  0.1989
  883MOL0     C21769   1.527   2.249   5.818  0.4289 -1.0282  0.8556
  883MOL0     C21770   1.399   2.202   5.785  0.5105  0.3742 -1.2985
  883MOL0     C21771   1.017   1.948   5.777  0.2199 -0.1857  0.0364
  883MOL0     C21772   0.970   2.073   5.732  0.7540  0.0475 -0.8448
  883MOL0     C21773   0.842   2.082   5.680 -0.5086  0.1925  0.0677
  883MOL0     C21774   0.767   1.964   5.653 -0.2192 -0.3707  0.0934
  883MOL0     O21775   0.641   1.986   5.606  0.5669 -0.7504 -0.3936
  883MOL0     C21776   0.564   1.875   5.557 -0.4552 -0.7400  0.2611
  883MOL0     C21777   0.623   1.816   5.428  0.1062 -0.5020 -0.2532
  883MOL0     C21778   0.558   1.686   5.380 -0.3080  0.6009  0.5070
  883MOL0     C21779   0.591   1.628   5.241 -0.0600  0.6701 -0.6448
  883MOL0     C21780   0.735   1.619   5.208 -0.8345  1.2664 -0.4426
  883MOL0     C21781   0.862   1.616   5.194 -0.0528  0.3662  0.1395
  883MOL0     C21782   0.824   1.840   5.681 -0.4180  0.1961  1.2461
  883MOL0     C21783   0.950   1.831   5.742  0.4994  0.1709  0.5296
  883MOL0     C21784   0.999   1.692   5.758  0.1612 -0.2639 -0.3845
  883MOL0     H21785   1.379   1.944   6.006 -0.2499 -0.6916 -1.1747
  883MOL0     H21786   1.598   2.032   6.065  0.8857  3.5526  0.0453
  883MOL0     H21787   1.728   2.434   5.874  1.4236  0.1845 -4.4742
  883MOL0     H21788   1.815   2.297   5.796  0.6269 -1.9296  1.2062
  883MOL0     H21789   1.949   2.487   5.908 -0.0451 -0.3306 -0.2302
  883MOL0     H21790   1.887   2.432   6.059  0.3140  0.5374 -0.5680
  883MOL0     H21791   1.996   2.198   6.007 -0.5679  0.6951  0.0780
  883MOL0     H21792   2.061   2.273   5.858  1.5610 -0.9725  0.7440
  883MOL0     H21793   2.154   2.454   6.031 -0.8679 -0.0472 -0.3199
  883MOL0     H21794   2.123   2.330   6.149  3.6025 -1.3032  0.1256
  883MOL0     H21795   2.355   2.341   6.062  1.0186  1.2253 -2.2790
  883MOL0     H21796   2.294   2.276   5.908 -1.5649 -0.7555 -0.2505
  883MOL0     H21797   2.231   2.072   6.024 -1.3537  1.7641 -0.4626
  883MOL0     H21798   2.401   2.099   6.034 -0.9318 -1.3274 -0.7797
  883MOL0     H21799   2.208   2.168   6.270  0.3304  0.1602  0.2961
  883MOL0     H21800   2.384   2.197   6.257  0.6989  0.4960 -1.6292
  883MOL0     H21801   2.331   1.979   6.375 -0.0276  3.0417  1.0889
  883MOL0     H21802   2.272   1.913   6.226  1.2898  0.4022 -0.7860
  883MOL0     H21803   2.485   1.898   6.007 -0.0496  2.0668 -0.3277
  883MOL0     H21804   2.736   1.796   5.971  4.5227 -1.5415 -1.2884
  883MOL0     H21805   2.860   1.832   6.084 -0.0655 -1.6119 -0.3952
  883MOL0     H21806   2.735   2.059   5.900  1.3521  2.6947  0.0286
  883MOL0     H21807   2.884   2.069   5.988  0.6595 -1.7137  2.2199
  883MOL0     H21808   2.960   1.866   5.858  1.3838  1.3226 -0.4277
  883MOL0     H21809   2.806   1.886   5.767 -0.2925 -0.8173  0.2707
  883MOL0     H21810   2.977   1.978   5.636 -0.7253  2.7351 -1.9444
  883MOL0     H21811   2.880   2.117   5.697  0.3771 -0.1618 -0.4280
  883MOL0     H21812   3.246   2.227   5.909  3.1855 -0.1306  0.2358
  883MOL0     H21813   3.551   2.358   5.845 -0.0427 -0.8797 -0.0053
  883MOL0     H21814   3.399   2.356   5.955 -1.8038  0.4819 -0.9357
  883MOL0     H21815   3.419   2.478   5.839 -2.4844 -1.0579 -2.5750
  883MOL0     H21816   3.758   2.592   5.687  0.7173  1.1853 -0.9817
  883MOL0     H21817   3.945   2.685   5.563 -0.9647  1.1890 -0.4201
  883MOL0     H21818   4.095   2.445   5.218  0.8825  0.3658 -0.7821
  883MOL0     H21819   3.996   2.552   5.119  1.8186  1.5073 -1.1790
  883MOL0     H21820   4.183   2.721   5.159  0.2560  0.3573 -2.7410
  883MOL0     H21821   4.280   2.590   5.227  1.1120  0.4958 -0.2057
  883MOL0     H21822   4.158   2.574   4.944 -0.8556 -1.4164  0.7308
  883MOL0     H21823   4.249   2.441   5.028 -2.0353 -0.7873 -1.3782
  883MOL0     H21824   4.434   2.592   5.050 -0.7382 -1.5787  0.1038
  883MOL0     H21825   4.335   2.725   4.975  2.9720  0.1771 -2.8104
  883MOL0     H21826   4.446   2.467   4.832 -1.2469 -0.1485 -2.8941
  883MOL0     H21827   4.340   2.596   4.768 -1.1171  0.6594  0.8612
  883MOL0     H21828   4.605   2.648   4.906 -1.5036 -0.6233  1.1504
  883MOL0     H21829   4.496   2.768   4.833 -2.9869 -1.1111 -0.7573
  883MOL0     H21830   4.528   2.621   4.614 -2.1295  0.8716  0.3886
  883MOL0     H21831   4.678   2.579   4.694  0.0918 -0.3891  1.8467
  883MOL0     H21832   4.751   2.767   4.583 -0.0794  1.3722 -0.1413
  883MOL0     H21833   4.724   2.844   4.730  0.2340  1.3640 -0.6070
  883MOL0     H21834   3.885   2.384   5.251 -0.2513 -1.7809  0.7442
  883MOL0     H21835   3.714   2.280   5.398 -1.0632 -0.1057 -0.8462
  883MOL0     H21836   3.303   2.207   5.432 -1.8706  1.6751 -0.2460
  883MOL0     H21837   3.136   2.079   5.513 -0.0162  2.3466 -1.3478
  883MOL0     H21838   1.578   2.327   5.764  2.4972 -0.2698  3.6671
  883MOL0     H21839   1.343   2.249   5.705  0.4854 -1.4402 -2.4078
  883MOL0     H21840   1.020   2.168   5.748  0.7027 -0.2012  1.0861
  883MOL0     H21841   0.789   2.174   5.656  1.0934  1.0257 -0.4422
  883MOL0     H21842   0.554   1.793   5.628  0.8820 -0.0153  1.3258
  883MOL0     H21843   0.464   1.912   5.532  0.1804  1.6983  1.0319
  883MOL0     H21844   0.730   1.792   5.437 -0.2220 -2.1474 -0.4783
  883MOL0     H21845   0.611   1.895   5.353  0.7014  1.2200  1.3724
  883MOL0     H21846   0.584   1.601   5.444 -2.4875  1.5101  2.7419
  883MOL0     H21847   0.449   1.684   5.379 -0.3021 -0.0844 -0.1998
  883MOL0     H21848   0.538   1.683   5.162 -2.1671  2.3758  1.7848
  883MOL0     H21849   0.552   1.526   5.238 -0.6640  0.9105 -1.7412
  883MOL0     H21850   0.968   1.606   5.178  0.3486 -1.5503  3.2741
  883MOL0     H21851   0.779   1.750   5.640  0.7285 -0.2020  0.8001
  883MOL0     H21852   1.084   1.678   5.690 -1.3686  1.0762 -2.6952
  883MOL0     H21853   1.016   1.663   5.862  0.8538 -2.0872 -0.9671
  883MOL0     H21854   0.928   1.620   5.716  0.8838 -0.6222 -1.0220
  884MOL0     O21855   2.645   2.587   0.150 -0.2857 -0.1814  0.3036
  884MOL0     C21856   2.586   2.570   0.263 -0.4964 -0.3618  0.1616
  884MOL0     O21857   2.651   2.538   0.379  0.8009  0.4014 -0.3618
  884MOL0     C21858   2.785   2.514   0.391  0.8830 -0.8163 -0.8111
  884MOL0     C21859   2.851   2.574   0.503 -0.1671  0.8489 -0.5611
  884MOL0     C21860   2.990   2.541   0.516  0.8116 -0.2393 -0.7149
  884MOL0     C21861   3.065   2.460   0.431  0.3649  0.1084  0.2148
  884MOL0     O21862   3.197   2.450   0.456  0.4139  1.4435 -0.4304
  884MOL0     C21863   3.250   2.318   0.441 -0.2203 -0.1864  0.0980
  884MOL0     C21864   3.388   2.313   0.516  0.0745 -0.4833 -0.3990
  884MOL0     C21865   3.470   2.184   0.490 -0.2127 -0.4848  0.9880
  884MOL0     C21866   3.598   2.182   0.571 -0.3468 -0.1613  0.5171
  884MOL0     C21867   3.721   2.124   0.488 -0.2261 -0.0161  0.2471
  884MOL0     C21868   3.848   2.174   0.550 -0.4764  0.7091 -0.4794
  884MOL0     C21869   3.977   2.119   0.479 -0.0896  0.2521 -0.1061
  884MOL0     C21870   4.097   2.210   0.518  0.1270 -0.0084  0.4138
  884MOL0     N21871   4.216   2.173   0.444  0.2362  0.5982 -0.3494
  884MOL0     C21872   4.272   2.053   0.480  0.1309 -0.2609  0.3677
  884MOL0     C21873   4.378   2.044   0.400  0.3615  0.6116  0.0541
  884MOL0     C21874   4.477   1.926   0.405 -0.0747  0.0702  0.0187
  884MOL0     C21875   4.471   1.837   0.276  0.9156 -0.8267  0.6519
  884MOL0     C21876   4.354   1.739   0.273  0.4135 -0.2994  0.1559
  884MOL0     C21877   4.224   1.813   0.254 -0.0746  0.5165 -0.3903
  884MOL0     O21878   4.136   1.728   0.180 -0.3122  0.5856  0.1631
  884MOL0     C21879   4.026   1.791   0.136  0.6345  0.4302 -1.0643
  884MOL0     C21880   3.993   1.804   0.004  0.1000  0.1023  0.1772
  884MOL0     C21881   3.878   1.861  -0.034 -0.2752  0.3588  0.5766
  884MOL0     C21882   3.874   1.900  -0.178 -0.2908  0.1080  0.3725
  884MOL0     C21883   3.777   1.907   0.064  0.2659 -0.3895 -0.3553
  884MOL0     C21884   3.655   1.975   0.037  0.4223 -0.0658 -0.0704
  884MOL0     O21885   3.594   2.036   0.146  0.0658  0.0967 -0.1936
  884MOL0     C21886   3.468   2.082   0.121  1.1639 -0.4344  0.0794
  884MOL0     C21887   3.440   2.189   0.031  0.2011  0.0505 -0.6562
  884MOL0     C21888   3.306   2.222   0.012  0.5678  0.1068 -0.5156
  884MOL0     C21889   3.206   2.148   0.068  0.0628  0.3584  0.0479
  884MOL0     O21890   3.080   2.186   0.024  0.3598 -0.6765  0.0264
  884MOL0     C21891   2.991   2.082  -0.002 -0.0578 -0.1954  0.0269
  884MOL0     C21892   2.886   2.073   0.102 -0.6884  1.2475  0.0463
  884MOL0     C21893   2.774   1.967   0.062  0.6311  0.4103  0.3754
  884MOL0     C21894   2.643   1.995   0.136  0.0981 -0.3289 -0.6009
  884MOL0     C21895   2.574   2.116   0.077 -0.9945  0.4105  0.1070
  884MOL0     C21896   2.444   2.165   0.129 -0.1009 -0.7458  0.1986
  884MOL0     C21897   2.410   2.278   0.038 -0.5390  0.0568 -0.1540
  884MOL0     C21898   2.283   2.345   0.083 -0.2275  0.1648 -0.2251
  884MOL0    Cl21899   2.139   2.246   0.068  0.0032  0.1489 -0.0427
  884MOL0     C21900   3.232   2.050   0.166 -0.4558  0.1019  0.2515
  884MOL0     C21901   3.367   2.022   0.193 -0.7696  0.3782 -0.9989
  884MOL0     O21902   3.615   1.973  -0.082  0.0964  0.2493 -1.1533
  884MOL0     C21903   3.817   1.882   0.198 -0.1293 -0.6002 -0.1234
  884MOL0     C21904   3.940   1.823   0.235  0.5558 -0.8264 -0.4156
  884MOL0     N21905   4.388   2.166   0.321 -0.2803  0.5938 -0.2005
  884MOL0     N21906   4.285   2.237   0.351  0.0452  0.6243 -0.1381
  884MOL0     C21907   2.995   2.394   0.329  0.0000  0.3430 -0.1829
  884MOL0     C21908   2.853   2.426   0.309 -0.0460 -0.0218  0.6638
  884MOL0     C21909   2.438   2.600   0.277  0.9033  0.2436  0.3210
  884MOL0     C21910   2.368   2.541   0.379 -0.1172  0.4293 -0.0777
  884MOL0     C21911   2.231   2.560   0.394 -0.0534  0.2771  1.0274
  884MOL0     C21912   2.162   2.655   0.314 -0.3507 -0.0334 -0.3083
  884MOL0     O21913   2.034   2.680   0.347  0.2083  0.1238 -0.0681
  884MOL0     C21914   1.942   2.624   0.251 -1.1017 -0.2013  0.2941
  884MOL0     C21915   1.922   2.471   0.286  0.3999 -0.0570 -0.3263
  884MOL0     C21916   1.856   2.401   0.174 -0.1125  0.1893 -0.1252
  884MOL0     C21917   1.800   2.261   0.218 -0.2602  0.0766 -0.8968
  884MOL0     C21918   1.655   2.250   0.192  0.7404 -1.2455  0.2747
  884MOL0     C21919   1.547   2.210   0.170  0.0448  0.5780 -0.0691
  884MOL0     C21920   2.239   2.712   0.209  0.6795  0.5532  0.1164
  884MOL0     C21921   2.372   2.689   0.191 -0.2904  0.8327  0.2503
  884MOL0     C21922   2.449   2.771   0.094 -0.0205 -0.2252 -0.7555
  884MOL0     H21923   2.792   2.634   0.571  0.1941 -2.0976  2.6259
  884MOL0     H21924   3.040   2.597   0.595 -0.3683 -1.0722  0.6803
  884MOL0     H21925   3.256   2.296   0.334 -3.6202 -0.0244 -0.2485
  884MOL0     H21926   3.185   2.237   0.476 -1.9054  0.1596 -2.0295
  884MOL0     H21927   3.447   2.401   0.488  0.2996 -0.3901  0.3534
  884MOL0     H21928   3.365   2.329   0.621  2.1409  2.7898 -0.2904
  884MOL0     H21929   3.407   2.096   0.499  1.8595 -2.3020 -1.0183
  884MOL0     H21930   3.493   2.192   0.384 -1.1664 -0.0333  0.8111
  884MOL0     H21931   3.621   2.286   0.597  0.7085 -0.5418  1.1808
  884MOL0     H21932   3.566   2.119   0.654 -1.8847 -1.4214 -0.9827
  884MOL0     H21933   3.717   2.161   0.385 -1.6029  3.2632  1.3338
  884MOL0     H21934   3.713   2.015   0.486 -0.6945  0.0053  0.6637
  884MOL0     H21935   3.844   2.282   0.535  0.0607  0.4296 -2.9915
  884MOL0     H21936   3.849   2.151   0.657 -0.2615 -1.1302 -0.8485
  884MOL0     H21937   3.949   2.133   0.374 -2.2377 -1.2912  0.2028
  884MOL0     H21938   3.998   2.014   0.499 -4.1045 -0.2646  2.6842
  884MOL0     H21939   4.075   2.316   0.501 -0.1206 -0.1987 -0.5084
  884MOL0     H21940   4.127   2.212   0.623  1.9545 -0.9805 -0.0441
  884MOL0     H21941   4.245   1.986   0.561  0.9208 -1.1869 -0.1144
  884MOL0     H21942   4.446   1.868   0.492 -3.6345  2.1422  0.3116
  884MOL0     H21943   4.566   1.987   0.417 -1.2017  1.6746  0.5097
  884MOL0     H21944   4.469   1.896   0.184 -0.9078  3.7715  3.3066
  884MOL0     H21945   4.561   1.776   0.263 -0.3983 -2.7324 -0.0682
  884MOL0     H21946   4.362   1.672   0.187  0.9945  1.1512 -0.9734
  884MOL0     H21947   4.358   1.669   0.357  0.2149  0.2132  0.6014
  884MOL0     H21948   4.181   1.831   0.353  0.0226 -3.0556  0.4632
  884MOL0     H21949   4.246   1.907   0.202 -1.8511  1.0171 -0.2964
  884MOL0     H21950   4.057   1.761  -0.072  0.2199 -0.0854  0.3844
  884MOL0     H21951   3.956   1.875  -0.246 -2.6228 -0.5186 -2.4292
  884MOL0     H21952   3.857   2.006  -0.195  2.2943  0.7770  1.4829
  884MOL0     H21953   3.796   1.843  -0.230  1.5648 -0.8654 -1.5246
  884MOL0     H21954   3.525   2.236  -0.017  0.7355  0.7399  0.9236
  884MOL0     H21955   3.274   2.308  -0.046 -2.7896 -1.6768 -1.5568
  884MOL0     H21956   2.953   2.097  -0.104  1.2458  1.4752 -0.2565
  884MOL0     H21957   3.040   1.985   0.001  0.7741  0.1387  4.8810
  884MOL0     H21958   2.935   2.035   0.192 -2.6260 -1.4027  0.0732
  884MOL0     H21959   2.846   2.173   0.121  0.9345  1.5900  1.9406
  884MOL0     H21960   2.810   1.870   0.098  1.1639  0.4738  0.0218
  884MOL0     H21961   2.757   1.967  -0.046 -1.0398  0.0966  0.6156
  884MOL0     H21962   2.663   2.013   0.242  0.4634  4.2450 -1.2422
  884MOL0     H21963   2.582   1.904   0.127 -1.4872  0.4980  1.0588
  884MOL0     H21964   2.642   2.202   0.073  1.9156 -1.7438  0.2927
  884MOL0     H21965   2.549   2.083  -0.024  1.4315 -2.5817  0.3470
  884MOL0     H21966   2.444   2.202   0.232  1.0762  1.1664 -0.4347
  884MOL0     H21967   2.369   2.087   0.120  1.2770 -1.9611 -1.4794
  884MOL0     H21968   2.407   2.241  -0.064 -0.1125 -0.4974  0.0279
  884MOL0     H21969   2.494   2.348   0.030 -0.2973  0.1349  2.2196
  884MOL0     H21970   2.259   2.436   0.027  0.6358 -0.0103 -0.9121
  884MOL0     H21971   2.298   2.388   0.183  0.1613 -1.0138  0.2384
  884MOL0     H21972   3.153   1.993   0.213  0.6318 -0.8906  0.9487
  884MOL0     H21973   3.398   1.958   0.275  2.7086  2.6873 -0.3143
  884MOL0     H21974   3.776   1.922   0.290  0.8496 -2.4888  1.1788
  884MOL0     H21975   3.960   1.814   0.341  0.6276  0.2675 -0.3238
  884MOL0     H21976   3.044   2.311   0.279 -0.2079 -1.4012  2.3129
  884MOL0     H21977   2.799   2.382   0.225  1.2683 -1.2697  0.4323
  884MOL0     H21978   2.414   2.460   0.434 -1.9773 -0.2763  0.5410
  884MOL0     H21979   2.170   2.521   0.475 -1.3542  3.1857  1.5640
  884MOL0     H21980   1.842   2.668   0.264 -0.7379  0.5402  0.6284
  884MOL0     H21981   1.973   2.637   0.147  2.3961 -0.5385  1.1929
  884MOL0     H21982   1.861   2.462   0.377 -0.7396 -1.6313 -1.2068
  884MOL0     H21983   2.020   2.423   0.298  1.4526  1.9608 -0.3461
  884MOL0     H21984   1.776   2.453   0.121 -1.6065 -0.7582  1.1270
  884MOL0     H21985   1.927   2.402   0.090 -0.9887  7.6820 -1.4850
  884MOL0     H21986   1.821   2.240   0.324  0.3071  2.1839 -0.5345
  884MOL0     H21987   1.850   2.190   0.152  0.1113  0.4099 -0.9773
  884MOL0     H21988   1.450   2.171   0.145  0.3706 -0.4011  0.1497
  884MOL0     H21989   2.188   2.782   0.144  1.1820  0.6502 -0.1826
  884MOL0     H21990   2.522   2.836   0.144  0.4579 -2.7299  2.1177
  884MOL0     H21991   2.500   2.709   0.019 -1.2233 -1.7524 -0.3630
  884MOL0     H21992   2.378   2.833   0.040  2.6417  2.9052 -0.9665
  885MOL0     O21993   5.985   7.683   3.882 -0.0999  0.2426 -0.3218
  885MOL0     C21994   5.966   7.762   3.786 -0.6089 -0.3277 -0.0997
  885MOL0     O21995   6.026   7.886   3.778  0.2043  0.0493  0.4513
  885MOL0     C21996   6.080   7.937   3.888  0.2623  0.2549 -0.1502
  885MOL0     C21997   6.184   7.879   3.971  0.3513 -0.1594  0.0740
  885MOL0     C21998   6.234   7.951   4.080 -0.0551 -0.7016  0.1717
  885MOL0     C21999   6.192   8.079   4.119 -0.0559  0.2171  0.5571
  885MOL0     O22000   6.244   8.124   4.236  0.0848  0.1946  0.4271
  885MOL0     C22001   6.241   8.268   4.259 -0.7732 -0.5244  0.9584
  885MOL0     C22002   6.337   8.339   4.162 -0.0488  0.3667  0.2377
  885MOL0     C22003   6.485   8.313   4.191  0.8034 -0.1860 -0.1036
  885MOL0     C22004   6.536   8.353   4.328 -1.1559  0.8785  0.3754
  885MOL0     C22005   6.685   8.363   4.328 -0.3690  0.0322  0.3580
  885MOL0     C22006   6.736   8.371   4.470  0.6817  0.4737 -0.6439
  885MOL0     C22007   6.887   8.404   4.491  0.1798  0.1113 -0.0411
  885MOL0     C22008   6.966   8.299   4.424 -0.6092  0.2966  0.2382
  885MOL0     N22009   7.104   8.326   4.462  0.3439 -0.2678 -0.1178
  885MOL0     C22010   7.181   8.435   4.437  0.5330 -1.2679 -1.0034
  885MOL0     C22011   7.297   8.418   4.505  0.9106 -0.4412 -0.4502
  885MOL0     C22012   7.407   8.519   4.484  0.1382  0.4031  0.7099
  885MOL0     C22013   7.381   8.642   4.565  0.4548  0.5493  0.7086
  885MOL0     C22014   7.480   8.746   4.528  0.4837 -0.7366 -0.4797
  885MOL0     C22015   7.493   8.834   4.653  1.4955 -1.1696 -0.3028
  885MOL0     O22016   7.593   8.943   4.630  0.6728  0.6515  0.5551
  885MOL0     C22017   7.717   8.923   4.686  0.2717  0.2026  0.0448
  885MOL0     C22018   7.804   9.029   4.675 -0.8007 -0.2381  0.0979
  885MOL0     C22019   7.935   9.022   4.733 -0.0970 -0.3728 -0.2984
  885MOL0     C22020   8.016   9.149   4.736  0.1334 -0.6040  0.6214
  885MOL0     C22021   7.981   8.903   4.792 -0.4741  0.3481  0.4391
  885MOL0     C22022   8.122   8.875   4.847 -0.1769 -0.7158 -1.0328
  885MOL0     O22023   8.225   8.969   4.819 -0.0708  0.1144 -0.6323
  885MOL0     C22024   8.356   8.973   4.871  0.1115  0.3485  0.7327
  885MOL0     C22025   8.394   8.897   4.981 -0.0578 -0.1554  0.8049
  885MOL0     C22026   8.532   8.872   5.008 -0.5769 -0.7675 -0.5900
  885MOL0     C22027   8.637   8.929   4.937 -0.4738  0.2938  0.9020
  885MOL0     O22028   8.765   8.909   4.972 -0.4518 -1.6116  0.0144
  885MOL0     C22029   8.866   8.973   4.900  0.4906  0.0889  0.7715
  885MOL0     C22030   9.000   8.966   4.963 -0.2148 -0.6367 -0.3648
  885MOL0     C22031   9.070   8.832   4.982 -0.7254  0.6467 -0.5089
  885MOL0     C22032   9.198   8.850   5.065  0.1972 -0.6374 -0.8117
  885MOL0     C22033   9.287   8.726   5.071 -0.0706 -0.3813 -0.3654
  885MOL0     C22034   9.421   8.763   5.131  0.6525  0.0260  0.2901
  885MOL0     C22035   9.494   8.633   5.183 -0.1314  0.4278  0.2065
  885MOL0     C22036   9.617   8.662   5.268 -0.3006  0.3830 -0.5265
  885MOL0    Cl22037   9.706   8.511   5.293 -0.1506  0.0527 -0.1477
  885MOL0     C22038   8.595   9.005   4.825 -0.7354 -0.3192  0.1583
  885MOL0     C22039   8.457   9.032   4.794  0.5381  0.3465  0.7629
  885MOL0     O22040   8.136   8.764   4.893 -0.4784  0.3051  0.8761
  885MOL0     C22041   7.892   8.793   4.783 -0.0309  0.7143 -0.0281
  885MOL0     C22042   7.768   8.806   4.732  0.2411 -0.0693 -0.4876
  885MOL0     N22043   7.278   8.306   4.588 -0.1230 -0.2512  0.1971
  885MOL0     N22044   7.164   8.252   4.559 -0.3300  0.0933  0.3349
  885MOL0     C22045   6.091   8.133   4.034  0.2287  0.4713 -0.2208
  885MOL0     C22046   6.035   8.061   3.932 -0.2992 -0.1840 -0.3298
  885MOL0     C22047   5.865   7.733   3.679  0.5283 -0.5243  0.2656
  885MOL0     C22048   5.819   7.848   3.608 -0.8212  0.1716 -1.0816
  885MOL0     C22049   5.737   7.841   3.501 -1.4037 -0.6667 -0.0792
  885MOL0     C22050   5.675   7.726   3.471 -0.4273 -0.1235  0.0422
  885MOL0     O22051   5.601   7.697   3.361  0.0674 -0.0157 -0.1410
  885MOL0     C22052   5.577   7.797   3.260  0.3363  0.7078  0.6317
  885MOL0     C22053   5.447   7.869   3.292 -0.0084 -0.0299 -0.1437
  885MOL0     C22054   5.337   7.788   3.353  0.3036  0.0125 -0.0462
  885MOL0     C22055   5.283   7.687   3.264  0.2029 -0.1593  0.1761
  885MOL0     C22056   5.147   7.636   3.284 -0.1611 -0.4333  0.4824
  885MOL0     C22057   5.034   7.614   3.298  0.0263 -0.3836  0.3762
  885MOL0     C22058   5.699   7.611   3.555 -0.5132 -0.3050  0.4115
  885MOL0     C22059   5.793   7.614   3.661  0.2031 -0.3451  0.4560
  885MOL0     C22060   5.819   7.496   3.735  0.3659  0.6002 -0.6546
  885MOL0     H22061   6.219   7.781   3.940 -0.0027 -0.1676 -0.3122
  885MOL0     H22062   6.312   7.904   4.139  1.8100  1.0499 -0.7480
  885MOL0     H22063   6.266   8.297   4.361 -2.5443  0.5953  1.1323
  885MOL0     H22064   6.141   8.308   4.238 -1.3051 -1.2157  2.1123
  885MOL0     H22065   6.322   8.310   4.058  0.3476 -0.9454  0.5317
  885MOL0     H22066   6.312   8.446   4.170 -1.5094  0.1446 -0.9857
  885MOL0     H22067   6.508   8.210   4.164 -1.7216 -0.8068 -0.1320
  885MOL0     H22068   6.541   8.381   4.125  0.5790  1.2947  1.1673
  885MOL0     H22069   6.491   8.436   4.383  0.6877  0.7246  2.2424
  885MOL0     H22070   6.525   8.267   4.393 -1.5570  1.3191  0.8990
  885MOL0     H22071   6.727   8.445   4.269 -0.5660  1.8883  2.6546
  885MOL0     H22072   6.711   8.268   4.280 -0.0449  1.2581 -2.0557
  885MOL0     H22073   6.678   8.448   4.523  1.7642  0.4276  0.6551
  885MOL0     H22074   6.723   8.275   4.521 -1.1629  1.1625  0.2558
  885MOL0     H22075   6.908   8.406   4.598  0.7732 -1.5611 -0.0880
  885MOL0     H22076   6.910   8.504   4.453  3.3391 -0.5296 -0.0411
  885MOL0     H22077   6.932   8.205   4.471  1.0675 -0.4718 -0.0175
  885MOL0     H22078   6.940   8.296   4.318 -0.6961  3.9259  0.0519
  885MOL0     H22079   7.167   8.505   4.355 -2.1531 -2.4658 -1.6897
  885MOL0     H22080   7.431   8.536   4.378  1.8914 -0.3522  0.9474
  885MOL0     H22081   7.501   8.475   4.519  0.4220  0.6337  0.2552
  885MOL0     H22082   7.284   8.686   4.543 -0.4963 -0.5999  2.4066
  885MOL0     H22083   7.385   8.613   4.670 -1.2379 -1.7986  0.2146
  885MOL0     H22084   7.575   8.703   4.496  1.8856  0.2454  2.0550
  885MOL0     H22085   7.456   8.805   4.439  1.7849  1.1468  0.3489
  885MOL0     H22086   7.394   8.881   4.651  1.5605 -1.0085 -2.4700
  885MOL0     H22087   7.505   8.787   4.751  1.4505  1.6648  1.1644
  885MOL0     H22088   7.771   9.119   4.624  0.0393 -0.3451 -0.6536
  885MOL0     H22089   8.104   9.135   4.672  0.3271  1.1601  0.4661
  885MOL0     H22090   8.039   9.175   4.839  0.7650 -0.4974  0.4596
  885MOL0     H22091   7.956   9.232   4.697  0.1591 -0.0726  1.6789
  885MOL0     H22092   8.322   8.849   5.046  0.4185 -1.9111  0.0974
  885MOL0     H22093   8.548   8.821   5.102  2.0577 -0.6229 -0.8964
  885MOL0     H22094   8.874   8.929   4.800 -0.8692 -1.5430  1.3244
  885MOL0     H22095   8.839   9.078   4.886  1.1700  0.3258  1.2059
  885MOL0     H22096   9.068   9.024   4.899  1.6952 -1.8963  0.4101
  885MOL0     H22097   8.996   9.017   5.060 -0.1436 -1.3949  0.0390
  885MOL0     H22098   9.104   8.781   4.891  1.7201 -0.1497  0.7751
  885MOL0     H22099   9.001   8.765   5.034 -0.1665 -0.5841 -1.3236
  885MOL0     H22100   9.162   8.874   5.165  0.1033 -1.0268 -0.7508
  885MOL0     H22101   9.251   8.943   5.042 -0.4336  0.3908  1.6394
  885MOL0     H22102   9.241   8.642   5.125  2.9164 -3.4200 -2.1586
  885MOL0     H22103   9.302   8.698   4.967  0.0985  1.4624 -0.8791
  885MOL0     H22104   9.405   8.827   5.218 -0.2446 -1.3302  1.1650
  885MOL0     H22105   9.484   8.829   5.070  0.3950 -0.5894 -0.6688
  885MOL0     H22106   9.525   8.577   5.094 -1.8435 -0.7412  0.2895
  885MOL0     H22107   9.418   8.571   5.232 -0.4834 -0.1160 -0.9689
  885MOL0     H22108   9.590   8.697   5.368  1.2033  0.0636  0.0225
  885MOL0     H22109   9.686   8.733   5.221  0.7021  0.7849  1.4536
  885MOL0     H22110   8.663   9.046   4.751 -1.8535 -0.1976 -0.8508
  885MOL0     H22111   8.425   9.085   4.704  0.1665 -2.2410 -0.7234
  885MOL0     H22112   7.926   8.695   4.814 -0.6697  0.1274 -1.1284
  885MOL0     H22113   7.700   8.722   4.720 -1.1852  1.1343 -1.0528
  885MOL0     H22114   6.037   8.226   4.046 -1.7862 -1.0201  4.4114
  885MOL0     H22115   5.959   8.114   3.876 -0.7181 -0.5681 -0.1299
  885MOL0     H22116   5.852   7.950   3.630  2.3256 -0.8548 -0.4985
  885MOL0     H22117   5.731   7.933   3.444  2.9113  0.7634  1.3915
  885MOL0     H22118   5.662   7.864   3.247  0.2491  1.5276  3.5367
  885MOL0     H22119   5.551   7.746   3.167 -0.1580  3.2135 -0.6953
  885MOL0     H22120   5.422   7.923   3.200  1.6038  1.5790  0.2926
  885MOL0     H22121   5.469   7.946   3.367 -0.3025  0.3045 -0.3933
  885MOL0     H22122   5.359   7.749   3.452 -0.6943  2.9504  1.4374
  885MOL0     H22123   5.250   7.848   3.380  0.0268 -0.9305  1.2517
  885MOL0     H22124   5.353   7.604   3.277  0.7051  0.2662  0.2259
  885MOL0     H22125   5.293   7.728   3.163  2.7818  1.5902  1.0290
  885MOL0     H22126   4.928   7.604   3.312 -0.4462  1.3475 -1.4596
  885MOL0     H22127   5.654   7.513   3.538  0.3229 -0.5223 -0.7132
  885MOL0     H22128   5.787   7.410   3.674 -3.0830 -1.2888  3.3180
  885MOL0     H22129   5.922   7.464   3.754 -1.6307 -6.1408  1.8127
  885MOL0     H22130   5.766   7.499   3.831  1.3048 -1.5414 -0.0133
  886MOL0     O22131   6.831  11.157   3.423 -0.0826  0.2812  0.4550
  886MOL0     C22132   6.772  11.269   3.423  0.5953  0.5383 -0.2256
  886MOL0     O22133   6.783  11.361   3.319 -0.5057 -0.1681  0.6113
  886MOL0     C22134   6.868  11.326   3.217  0.1522  0.5654 -0.6178
  886MOL0     C22135   6.971  11.411   3.188 -0.3589 -0.7686  0.0384
  886MOL0     C22136   7.054  11.394   3.074  0.5063 -0.5942 -1.1991
  886MOL0     C22137   7.028  11.275   2.992  0.4798 -0.8243 -0.0774
  886MOL0     O22138   7.123  11.258   2.896  0.6849 -0.3540  0.1163
  886MOL0     C22139   7.143  11.121   2.865 -1.3838  0.2952 -0.8698
  886MOL0     C22140   7.240  11.037   2.966 -0.1588 -0.0062  0.3446
  886MOL0     C22141   7.370  11.125   3.001 -0.1613  0.9621 -0.2806
  886MOL0     C22142   7.464  11.140   2.879 -0.5585  0.3797  0.2342
  886MOL0     C22143   7.604  11.182   2.925  0.4074  1.2202 -0.1688
  886MOL0     C22144   7.705  11.080   2.977  0.1556 -0.5827  0.3593
  886MOL0     C22145   7.823  11.151   3.045 -0.8908 -0.2327  0.1544
  886MOL0     C22146   7.916  11.234   2.948 -0.5847 -0.1549 -0.2250
  886MOL0     N22147   8.010  11.146   2.872 -0.6421  0.3651 -0.4188
  886MOL0     C22148   7.998  11.103   2.744  0.3132  0.5971 -0.5798
  886MOL0     C22149   8.087  11.009   2.727 -0.3670 -0.5880 -0.4332
  886MOL0     C22150   8.125  10.953   2.594 -0.8956  0.4184  0.8490
  886MOL0     C22151   8.028  10.851   2.554 -0.0403 -0.2369  0.6112
  886MOL0     C22152   8.077  10.756   2.445  0.2161  0.5327  0.4143
  886MOL0     C22153   8.125  10.626   2.519  0.6026 -0.3105 -1.1763
  886MOL0     O22154   8.245  10.636   2.596  0.1176 -0.7415 -0.2182
  886MOL0     C22155   8.365  10.633   2.527 -0.5068  0.4077 -0.0498
  886MOL0     C22156   8.389  10.584   2.394 -0.0157 -0.3657 -0.1197
  886MOL0     C22157   8.519  10.556   2.347  0.5355 -0.3161 -0.1589
  886MOL0     C22158   8.529  10.499   2.206  0.0993  0.9254  0.7033
  886MOL0     C22159   8.635  10.596   2.424  0.6248  0.6673 -0.1267
  886MOL0     C22160   8.772  10.566   2.372  0.5793 -0.6469  0.4269
  886MOL0     O22161   8.788  10.439   2.321  0.1624 -0.1854  0.3978
  886MOL0     C22162   8.912  10.396   2.292 -0.4777 -1.0778  0.2252
  886MOL0     C22163   8.977  10.324   2.394 -0.5609 -0.2524 -0.1633
  886MOL0     C22164   9.111  10.297   2.378 -0.7688  0.2851  0.8417
  886MOL0     C22165   9.172  10.304   2.254 -0.1557 -0.4942  0.0059
  886MOL0     O22166   9.306  10.269   2.240 -0.0674 -0.0489  0.2015
  886MOL0     C22167   9.395  10.377   2.190  0.7085  0.1243  0.8927
  886MOL0     C22168   9.542  10.338   2.209 -0.1731  0.8470  0.7494
  886MOL0     C22169   9.559  10.321   2.360 -0.5504  0.2183  0.7055
  886MOL0     C22170   9.689  10.231   2.386  0.2989 -0.2832  0.0982
  886MOL0     C22171   9.695  10.215   2.537 -0.6918  0.0541 -0.3105
  886MOL0     C22172   9.788  10.097   2.583 -0.7135  0.4938  0.4847
  886MOL0     C22173   9.940  10.119   2.590  0.3000  0.4493  0.6636
  886MOL0     C22174  10.015   9.991   2.600 -0.4210  0.8898  0.1574
  886MOL0    Cl22175   9.947   9.872   2.723 -0.1814  0.4147  0.3324
  886MOL0     C22176   9.105  10.373   2.157  0.5337  0.0606 -0.2009
  886MOL0     C22177   8.975  10.419   2.176  0.3851  0.0123  0.3564
  886MOL0     O22178   8.864  10.646   2.402 -0.3302  0.2992  0.1168
  886MOL0     C22179   8.617  10.658   2.548  0.3932  0.4625  0.0846
  886MOL0     C22180   8.485  10.673   2.597 -0.2898 -0.9281  0.6421
  886MOL0     N22181   8.168  11.012   2.836 -0.0020  0.1194  1.1671
  886MOL0     N22182   8.129  11.095   2.924 -0.0222 -0.1655 -0.0055
  886MOL0     C22183   6.924  11.189   3.025 -0.6558  0.4774 -0.3052
  886MOL0     C22184   6.845  11.210   3.137  0.2238 -0.1215 -0.8101
  886MOL0     C22185   6.692  11.313   3.535 -0.2397  0.0846  0.4176
  886MOL0     C22186   6.595  11.414   3.517  0.5324  0.5977  0.5815
  886MOL0     C22187   6.508  11.455   3.613  0.4987 -0.4984  0.6922
  886MOL0     C22188   6.498  11.399   3.735  0.7722 -0.1069 -0.1998
  886MOL0     O22189   6.420  11.443   3.835 -0.3142 -0.3759  0.2760
  886MOL0     C22190   6.311  11.531   3.807  0.5112 -0.2691 -0.3329
  886MOL0     C22191   6.228  11.560   3.935  0.1504  0.8985  0.1764
  886MOL0     C22192   6.112  11.460   3.942  0.3431 -0.3210 -1.3049
  886MOL0     C22193   6.054  11.473   4.078  1.1157 -0.1002 -0.8385
  886MOL0     C22194   5.910  11.439   4.087  0.0438  0.0547  0.0135
  886MOL0     C22195   5.793  11.410   4.069 -0.8902 -0.2147 -1.1169
  886MOL0     C22196   6.598  11.306   3.758 -0.2118 -0.6711  0.9671
  886MOL0     C22197   6.696  11.265   3.667 -0.4262 -0.2264 -0.0224
  886MOL0     C22198   6.779  11.144   3.714  0.2433 -0.3119 -0.0229
  886MOL0     H22199   6.981  11.494   3.257 -2.3393 -1.1165  0.7905
  886MOL0     H22200   7.132  11.464   3.048  0.6699  0.0342  0.8328
  886MOL0     H22201   7.186  11.103   2.766  0.9886 -2.7688  0.5541
  886MOL0     H22202   7.051  11.063   2.861 -2.5904  1.9688  0.9193
  886MOL0     H22203   7.184  11.016   3.057 -1.2556  1.2461 -0.0090
  886MOL0     H22204   7.279  10.941   2.931  2.0340  0.7081  0.6718
  886MOL0     H22205   7.334  11.220   3.042  0.3732  0.4792  1.3876
  886MOL0     H22206   7.417  11.067   3.081  1.3055 -2.4295 -3.3553
  886MOL0     H22207   7.472  11.045   2.825  2.2954 -0.4372  1.8509
  886MOL0     H22208   7.425  11.211   2.806 -2.1223 -1.9665 -1.3645
  886MOL0     H22209   7.576  11.246   3.009 -1.9204  0.4689 -0.2874
  886MOL0     H22210   7.650  11.233   2.840  0.1943 -1.4491 -2.0290
  886MOL0     H22211   7.659  11.009   3.047 -2.6181  0.7681  0.0574
  886MOL0     H22212   7.742  11.019   2.894  0.6306 -1.3174  1.0945
  886MOL0     H22213   7.893  11.078   3.086 -0.5671 -1.1634 -1.9413
  886MOL0     H22214   7.785  11.208   3.131  3.6060 -2.7319  4.3518
  886MOL0     H22215   7.862  11.309   2.890  1.3526  1.9555  0.5580
  886MOL0     H22216   7.989  11.285   3.012 -1.7025 -0.0926  1.0507
  886MOL0     H22217   7.931  11.137   2.665 -0.9110  1.2670  0.7103
  886MOL0     H22218   8.221  10.901   2.606 -0.7854  0.6779  1.1199
  886MOL0     H22219   8.135  11.036   2.523 -1.4590  1.6800  2.1922
  886MOL0     H22220   7.979  10.799   2.637  0.7981 -3.9311 -0.9951
  886MOL0     H22221   7.947  10.912   2.511  0.6994  2.1659  2.3964
  886MOL0     H22222   7.998  10.723   2.377 -1.6868  2.3860  1.5991
  886MOL0     H22223   8.163  10.805   2.397  2.0576 -2.2221  0.7004
  886MOL0     H22224   8.043  10.579   2.575  1.6929 -1.4057 -0.4454
  886MOL0     H22225   8.123  10.548   2.441 -3.1333 -1.6956  0.0611
  886MOL0     H22226   8.301  10.559   2.336  1.0128 -0.7494 -1.5556
  886MOL0     H22227   8.530  10.391   2.224 -0.6040  0.7548 -0.2550
  886MOL0     H22228   8.611  10.535   2.144  0.4737 -2.2305 -0.8560
  886MOL0     H22229   8.434  10.512   2.153 -1.1932 -1.0431  2.3701
  886MOL0     H22230   8.916  10.292   2.478 -0.1487  0.7387  0.5357
  886MOL0     H22231   9.167  10.235   2.448  0.2608 -3.3744 -2.8519
  886MOL0     H22232   9.366  10.387   2.085 -1.3258 -2.7062  1.0611
  886MOL0     H22233   9.390  10.475   2.238  3.2549  0.8127 -0.0609
  886MOL0     H22234   9.580  10.250   2.156  2.4262 -0.1842  3.9412
  886MOL0     H22235   9.598  10.431   2.192  1.1039  0.0191  0.2703
  886MOL0     H22236   9.472  10.276   2.408 -0.2756 -0.5382  0.5135
  886MOL0     H22237   9.564  10.421   2.404 -1.2863 -0.0319  1.3804
  886MOL0     H22238   9.778  10.277   2.344 -0.7761  0.8196 -1.0507
  886MOL0     H22239   9.672  10.134   2.338 -0.0928  1.2792 -3.1518
  886MOL0     H22240   9.718  10.313   2.578 -0.6606  0.3792 -1.0878
  886MOL0     H22241   9.595  10.196   2.577  0.4012  0.8643  3.1037
  886MOL0     H22242   9.775  10.019   2.507  0.6997  1.0844 -0.4015
  886MOL0     H22243   9.748  10.063   2.678 -1.6996 -0.2437 -0.1725
  886MOL0     H22244   9.966  10.187   2.671  3.6057  2.2328 -1.6243
  886MOL0     H22245   9.968  10.174   2.500  2.5335  2.0140  2.2201
  886MOL0     H22246  10.122  10.009   2.616 -0.4401  0.6765  0.5210
  886MOL0     H22247  10.007   9.942   2.502  2.1154  0.6154  0.0219
  886MOL0     H22248   9.151  10.383   2.059  0.6856  0.1279 -0.1239
  886MOL0     H22249   8.916  10.475   2.104  0.3576  1.6984  1.6262
  886MOL0     H22250   8.703  10.687   2.608  0.3401  1.4757 -0.3097
  886MOL0     H22251   8.480  10.721   2.694 -1.8499 -1.7824  1.0171
  886MOL0     H22252   6.890  11.107   2.962 -2.3801 -0.3910  1.6494
  886MOL0     H22253   6.763  11.142   3.159  1.7449 -3.1399 -3.6549
  886MOL0     H22254   6.591  11.459   3.419  2.1104  0.4109  0.4019
  886MOL0     H22255   6.453  11.545   3.589  1.6096  0.5672  1.9508
  886MOL0     H22256   6.359  11.626   3.779 -1.2858  0.2041 -1.9802
  886MOL0     H22257   6.259  11.490   3.721 -1.3337 -1.4776  1.2840
  886MOL0     H22258   6.189  11.661   3.943  4.9732  3.1829 -1.2857
  886MOL0     H22259   6.298  11.555   4.019  0.5560  1.4589 -0.1251
  886MOL0     H22260   6.034  11.482   3.869  1.8750 -0.9228 -3.2460
  886MOL0     H22261   6.150  11.358   3.930 -0.5348 -0.9654  1.0031
  886MOL0     H22262   6.061  11.572   4.125 -0.0170 -1.1103  1.6178
  886MOL0     H22263   6.112  11.420   4.154  0.1241 -1.3332 -0.9146
  886MOL0     H22264   5.691  11.393   4.039 -1.0324 -2.1746  0.2852
  886MOL0     H22265   6.581  11.269   3.859 -3.7729  0.5552  0.9210
  886MOL0     H22266   6.735  11.093   3.800  0.0779  0.6054  0.4486
  886MOL0     H22267   6.787  11.069   3.635  1.0351 -1.0863  0.7618
  886MOL0     H22268   6.874  11.183   3.752 -0.0820 -1.1821  1.7800
  887MOL0     O22269  11.280   1.942   9.306  0.0926  0.6481 -0.4927
  887MOL0     C22270  11.371   1.874   9.350  1.1053  0.4461  0.0655
  887MOL0     O22271  11.382   1.822   9.477 -0.3357  0.0605 -0.3100
  887MOL0     C22272  11.281   1.854   9.562  0.1293 -0.2023  0.3077
  887MOL0     C22273  11.300   1.957   9.648  0.5984  0.2709  0.0393
  887MOL0     C22274  11.206   1.998   9.743  0.2534 -0.8617 -0.1060
  887MOL0     C22275  11.080   1.937   9.739  0.0718 -0.2185 -0.0673
  887MOL0     O22276  10.983   1.971   9.827 -0.1288 -0.0679  0.2215
  887MOL0     C22277  10.976   1.862   9.924  0.8114  0.3896  0.4033
  887MOL0     C22278  10.909   1.905  10.054 -0.2838 -0.5890  0.1140
  887MOL0     C22279  10.804   1.803  10.110 -0.5714  0.4586 -0.7261
  887MOL0     C22280  10.666   1.843  10.069  0.1892 -0.2574 -0.2565
  887MOL0     C22281  10.626   1.836   9.917 -0.2185  0.1195 -0.3710
  887MOL0     C22282  10.474   1.867   9.896  0.6550  0.7372  0.2973
  887MOL0     C22283  10.431   2.005   9.950 -0.1461 -0.5565  0.6808
  887MOL0     C22284  10.294   2.048   9.902  0.2910  0.6773  0.4492
  887MOL0     N22285  10.198   1.956   9.954 -0.3919  0.0014  0.0461
  887MOL0     C22286  10.148   1.842   9.888  0.6865 -0.1673 -0.0519
  887MOL0     C22287  10.073   1.791   9.996  0.1825  0.3515  0.0995
  887MOL0     C22288   9.993   1.664   9.992  0.1085 -0.9642  0.0931
  887MOL0     C22289  10.070   1.537   9.933  0.3299  0.4790 -0.5385
  887MOL0     C22290  10.183   1.495  10.033  0.0918  0.3925  0.5191
  887MOL0     C22291  10.250   1.370   9.973  0.3148 -0.0821  0.1201
  887MOL0     O22292  10.361   1.343  10.052 -0.5182 -0.3175  0.0570
  887MOL0     C22293  10.490   1.385  10.019 -0.0007 -1.1735 -0.3076
  887MOL0     C22294  10.592   1.373  10.114 -0.9932 -0.1435 -0.2349
  887MOL0     C22295  10.726   1.413  10.083 -0.3908 -0.2460 -0.5421
  887MOL0     C22296  10.821   1.410  10.203 -0.1645  0.5404 -0.3808
  887MOL0     C22297  10.762   1.443   9.949 -0.1427 -0.0980 -0.3017
  887MOL0     C22298  10.901   1.475   9.905  1.5146 -0.2734  0.6856
  887MOL0     O22299  11.006   1.438   9.979 -0.2962 -0.5837 -0.1095
  887MOL0     C22300  11.125   1.502   9.967 -0.0825  0.3639 -0.2761
  887MOL0     C22301  11.186   1.518  10.087 -0.2605  0.4378  0.3014
  887MOL0     C22302  11.313   1.584  10.107  0.0342  0.5439 -0.0499
  887MOL0     C22303  11.372   1.650   9.994  0.1765 -0.2720 -0.2744
  887MOL0     O22304  11.485   1.720   9.992 -0.1861 -0.7511  0.0471
  887MOL0     C22305  11.585   1.693  10.099  0.5772  0.0013 -0.2972
  887MOL0     C22306  11.720   1.727  10.037 -0.6924  0.7201  0.9208
  887MOL0     C22307  11.769   1.644   9.918  0.3392 -0.0538 -0.1544
  887MOL0     C22308  11.889   1.715   9.853  0.1869 -0.2164  0.1144
  887MOL0     C22309  11.941   1.638   9.734 -0.5328  0.1205  0.3821
  887MOL0     C22310  12.001   1.724   9.624  0.5028 -0.4247 -0.4728
  887MOL0     C22311  12.104   1.821   9.691  0.7267 -0.1412  0.9389
  887MOL0     C22312  12.236   1.775   9.665 -0.0442  0.0910  0.2296
  887MOL0    Cl22313  12.287   1.801   9.493 -0.3990 -0.0295  0.0258
  887MOL0     C22314  11.306   1.627   9.866 -0.4669 -0.3681 -0.1106
  887MOL0     C22315  11.184   1.558   9.856  0.4445 -0.4318  0.8135
  887MOL0     O22316  10.901   1.537   9.798 -0.6311  0.6575  0.1496
  887MOL0     C22317  10.656   1.445   9.856 -0.2289 -0.6972  0.3308
  887MOL0     C22318  10.526   1.430   9.891 -0.6413 -0.2963 -0.0779
  887MOL0     N22319  10.062   1.892  10.088 -0.6428 -0.4044 -0.7225
  887MOL0     N22320  10.150   1.984  10.074 -0.1340  0.4819 -0.3247
  887MOL0     C22321  11.049   1.842   9.639 -0.1999 -0.5684  0.1146
  887MOL0     C22322  11.152   1.797   9.549 -0.7220  0.2671  0.2884
  887MOL0     C22323  11.479   1.834   9.249 -0.4407 -0.1587  1.0627
  887MOL0     C22324  11.565   1.727   9.290 -0.3580  0.1912  0.1633
  887MOL0     C22325  11.649   1.655   9.209 -0.2210 -0.8779  0.1745
  887MOL0     C22326  11.659   1.694   9.075  0.0066 -0.2685 -0.4786
  887MOL0     O22327  11.753   1.635   8.997 -0.0513  0.0727 -0.2327
  887MOL0     C22328  11.729   1.499   8.964 -0.2933 -0.0112  0.4228
  887MOL0     C22329  11.788   1.472   8.824  0.1128 -0.1113  0.3413
  887MOL0     C22330  11.941   1.446   8.820 -0.1252 -0.1986 -0.3829
  887MOL0     C22331  11.992   1.406   8.690 -0.2765  0.1995  0.4203
  887MOL0     C22332  11.944   1.268   8.668 -0.2528 -0.0083 -0.1765
  887MOL0     C22333  11.934   1.148   8.641  0.2751  0.1523  0.5923
  887MOL0     C22334  11.587   1.800   9.025  0.2784 -0.9003 -0.7452
  887MOL0     C22335  11.495   1.871   9.111 -0.9796 -0.8797  0.0908
  887MOL0     C22336  11.410   1.980   9.046 -0.3113  0.7845  0.7289
  887MOL0     H22337  11.398   2.004   9.657  0.4955  0.5793 -0.4164
  887MOL0     H22338  11.218   2.082   9.810 -0.5281 -0.4479 -0.4641
  887MOL0     H22339  11.075   1.825   9.953  0.6873  0.0388  0.3833
  887MOL0     H22340  10.922   1.774   9.888 -1.2616  1.3040  1.1391
  887MOL0     H22341  10.987   1.926  10.128 -0.2302  0.1000 -0.1294
  887MOL0     H22342  10.864   2.004  10.047  1.0823 -0.0516 -2.6870
  887MOL0     H22343  10.828   1.699  10.086  2.3404  0.5936  1.0723
  887MOL0     H22344  10.817   1.808  10.219 -0.6442 -1.3383 -0.5926
  887MOL0     H22345  10.595   1.779  10.121 -0.6564 -0.3783 -1.5247
  887MOL0     H22346  10.644   1.945  10.103  2.0090  0.0007  0.2478
  887MOL0     H22347  10.661   1.735   9.898  0.7437  0.9152 -3.4680
  887MOL0     H22348  10.681   1.915   9.864 -1.8205  0.5485 -1.4776
  887MOL0     H22349  10.456   1.858   9.788 -0.3032  2.6798  0.2341
  887MOL0     H22350  10.418   1.787   9.946 -1.4139  1.6183 -0.4700
  887MOL0     H22351  10.507   2.070   9.906  1.5649 -1.4116  2.2164
  887MOL0     H22352  10.422   2.020  10.058 -0.5377  0.1633  0.5560
  887MOL0     H22353  10.259   2.149   9.923 -1.1815  0.7470 -1.8547
  887MOL0     H22354  10.287   2.029   9.794 -0.4013 -1.3836  0.8056
  887MOL0     H22355  10.176   1.804   9.790 -0.5001  3.7760 -2.1130
  887MOL0     H22356   9.912   1.691   9.923  0.1957 -3.6854 -1.1930
  887MOL0     H22357   9.936   1.642  10.082  0.6767  0.1905  0.7537
  887MOL0     H22358   9.994   1.460   9.916  0.4690  0.6994 -2.3056
  887MOL0     H22359  10.103   1.561   9.832  0.8905  1.5511 -0.1172
  887MOL0     H22360  10.255   1.577  10.035 -2.0071  2.2890  1.8699
  887MOL0     H22361  10.150   1.468  10.134 -0.9141  1.6675  0.5508
  887MOL0     H22362  10.185   1.282   9.973 -1.2502  1.0251 -0.9026
  887MOL0     H22363  10.277   1.385   9.868  0.1044 -0.4378  0.0147
  887MOL0     H22364  10.565   1.327  10.209 -0.8140 -3.3539 -1.6110
  887MOL0     H22365  10.892   1.328  10.190 -1.6837 -0.6209 -1.8656
  887MOL0     H22366  10.772   1.388  10.298  0.5383  1.3650  0.1876
  887MOL0     H22367  10.878   1.503  10.211 -0.0276  0.5272 -1.0977
  887MOL0     H22368  11.133   1.460  10.162  0.0449 -1.7651 -1.0889
  887MOL0     H22369  11.356   1.572  10.206 -1.4979 -2.2373  0.3866
  887MOL0     H22370  11.560   1.747  10.191  0.3456 -1.6190  0.6325
  887MOL0     H22371  11.579   1.585  10.115 -0.9816  0.3050  1.5095
  887MOL0     H22372  11.718   1.828   9.995 -0.1245  0.0995 -0.6872
  887MOL0     H22373  11.799   1.720  10.112  0.5033 -4.8895 -0.4193
  887MOL0     H22374  11.690   1.647   9.841 -0.6949  1.0649  0.9097
  887MOL0     H22375  11.790   1.538   9.938  1.2101  0.1326 -0.0537
  887MOL0     H22376  11.965   1.714   9.932  2.0161 -1.5768 -1.5619
  887MOL0     H22377  11.859   1.818   9.830  0.1377 -0.4263 -0.7924
  887MOL0     H22378  12.015   1.563   9.764  0.6950  0.8992 -0.6271
  887MOL0     H22379  11.871   1.575   9.679  0.3332  1.0638 -1.9040
  887MOL0     H22380  11.923   1.784   9.576  0.2355 -0.4936 -0.1306
  887MOL0     H22381  12.046   1.665   9.545 -0.5549 -1.2357 -0.4865
  887MOL0     H22382  12.102   1.833   9.800  2.1995  2.7428  0.7615
  887MOL0     H22383  12.099   1.918   9.640 -0.4695 -0.5912  0.1783
  887MOL0     H22384  12.233   1.667   9.680 -0.4851  0.2030  1.0407
  887MOL0     H22385  12.302   1.831   9.733 -0.1527  0.6278 -0.0967
  887MOL0     H22386  11.350   1.684   9.784  0.0252  1.0276  1.0876
  887MOL0     H22387  11.132   1.568   9.762 -0.6283  0.9353  1.5043
  887MOL0     H22388  10.675   1.479   9.755 -0.1002 -3.3385 -0.6126
  887MOL0     H22389  10.460   1.454   9.808 -1.0855 -0.2846  0.2746
  887MOL0     H22390  10.951   1.797   9.627  0.2489 -1.1111 -1.9910
  887MOL0     H22391  11.137   1.725   9.468 -2.0772  0.9186 -0.0810
  887MOL0     H22392  11.567   1.709   9.397 -1.2594  2.9854  0.7109
  887MOL0     H22393  11.723   1.581   9.238  1.0665  0.3003  0.0361
  887MOL0     H22394  11.774   1.425   9.031 -0.8820 -1.6939 -0.9637
  887MOL0     H22395  11.620   1.491   8.961 -0.3221 -2.1223  3.2474
  887MOL0     H22396  11.766   1.554   8.756  0.6760  0.6449  1.0542
  887MOL0     H22397  11.740   1.383   8.782  0.9985 -0.3874 -0.1169
  887MOL0     H22398  11.990   1.539   8.849  0.2298 -0.5120  0.0393
  887MOL0     H22399  11.965   1.377   8.902  1.1855 -0.8811 -1.3074
  887MOL0     H22400  12.101   1.416   8.686 -0.4858  2.5380 -1.6434
  887MOL0     H22401  11.951   1.478   8.618  1.6201 -0.6134 -1.6069
  887MOL0     H22402  11.936   1.041   8.644 -0.1902  0.0891  4.8055
  887MOL0     H22403  11.608   1.818   8.920  1.1473 -0.0122 -0.4329
  887MOL0     H22404  11.301   1.970   9.041 -0.2258 -0.8909  1.4687
  887MOL0     H22405  11.427   2.070   9.105  1.0440 -0.4222  2.2616
  887MOL0     H22406  11.451   1.999   8.946  0.7945 -0.7091  0.8649
  888MOL0     O22407   6.849   5.835   2.677 -0.3407 -0.3413  0.9727
  888MOL0     C22408   6.782   5.840   2.778 -0.6587 -0.7009  0.1731
  888MOL0     O22409   6.780   5.747   2.873 -0.6934 -0.2430  0.5699
  888MOL0     C22410   6.879   5.649   2.855 -0.6005 -0.0560  0.6075
  888MOL0     C22411   6.872   5.557   2.741  0.4754 -0.1380  0.1555
  888MOL0     C22412   6.960   5.446   2.734  0.4471 -0.2142 -0.0295
  888MOL0     C22413   7.065   5.440   2.827  0.2997 -0.0023  0.7946
  888MOL0     O22414   7.174   5.354   2.818  0.5664 -0.1923  0.1256
  888MOL0     C22415   7.201   5.287   2.694  0.1797 -0.0419 -0.2038
  888MOL0     C22416   7.311   5.193   2.728  0.3157 -0.1019  0.5866
  888MOL0     C22417   7.422   5.257   2.803  0.1850 -0.9620 -1.1026
  888MOL0     C22418   7.507   5.366   2.719  0.3840 -0.1371 -0.2709
  888MOL0     C22419   7.558   5.478   2.808 -0.1728  0.5168  0.5248
  888MOL0     C22420   7.446   5.590   2.819 -0.3592  0.0926 -0.2457
  888MOL0     C22421   7.487   5.709   2.917 -0.6320 -0.0094  0.3843
  888MOL0     C22422   7.368   5.810   2.945  1.2697  0.1351 -0.1345
  888MOL0     N22423   7.350   5.898   2.825  0.2355  0.4624  0.2158
  888MOL0     C22424   7.262   5.871   2.727  0.3836  0.4329  0.0839
  888MOL0     C22425   7.278   5.972   2.642  0.2721 -0.2433 -0.1553
  888MOL0     C22426   7.204   5.980   2.505 -0.4568  0.0893 -0.6263
  888MOL0     C22427   7.313   5.960   2.404  0.5198  1.4052 -0.0338
  888MOL0     C22428   7.270   5.919   2.261  0.1362 -0.1501  0.4391
  888MOL0     C22429   7.387   5.904   2.168 -0.0360 -0.1261  0.6569
  888MOL0     O22430   7.492   5.831   2.232  0.2090 -0.2464 -0.1848
  888MOL0     C22431   7.621   5.833   2.177  0.4235 -0.0977  0.1771
  888MOL0     C22432   7.732   5.786   2.258 -0.4714 -0.2336  0.0518
  888MOL0     C22433   7.871   5.794   2.216 -0.2067 -0.7678 -0.6855
  888MOL0     C22434   7.974   5.744   2.316 -0.2237  0.0167 -0.9955
  888MOL0     C22435   7.901   5.840   2.088 -1.2130  0.0188  0.1996
  888MOL0     C22436   8.037   5.837   2.032  0.4197 -1.1095  0.0874
  888MOL0     O22437   8.041   5.849   1.897 -0.8776 -0.3797 -0.1209
  888MOL0     C22438   8.170   5.849   1.843  0.6892  0.3457 -0.1339
  888MOL0     C22439   8.239   5.731   1.830  0.1104 -1.0135  0.5296
  888MOL0     C22440   8.358   5.721   1.758 -0.9227 -0.7642  1.0992
  888MOL0     C22441   8.415   5.827   1.693  0.8566 -0.0423  0.3837
  888MOL0     O22442   8.523   5.822   1.608  0.3919  0.5789  0.5952
  888MOL0     C22443   8.648   5.820   1.684 -1.2720  0.7872  0.5640
  888MOL0     C22444   8.768   5.843   1.581 -0.1629 -0.8089  0.7251
  888MOL0     C22445   8.917   5.816   1.621  0.0273  0.2299  0.3793
  888MOL0     C22446   8.960   5.670   1.612 -0.1791 -0.1969  0.5586
  888MOL0     C22447   9.114   5.656   1.655  0.0062 -0.4056  0.2721
  888MOL0     C22448   9.215   5.694   1.539  0.1625 -0.0815 -0.1209
  888MOL0     C22449   9.369   5.661   1.580  0.1373  0.2109 -0.3586
  888MOL0     C22450   9.480   5.644   1.465 -0.4649  0.2176  0.4115
  888MOL0    Cl22451   9.626   5.590   1.561 -0.0025 -0.3883  0.2565
  888MOL0     C22452   8.340   5.945   1.700  0.3840 -0.0168  0.2537
  888MOL0     C22453   8.224   5.962   1.777  0.1396 -0.3450 -0.0912
  888MOL0     O22454   8.136   5.853   2.105 -0.5874 -0.0190  0.0322
  888MOL0     C22455   7.799   5.886   2.006  0.8649  0.3844 -0.1414
  888MOL0     C22456   7.655   5.885   2.050  0.0461 -1.6089  0.3203
  888MOL0     N22457   7.376   6.061   2.685  0.0838 -0.2151 -0.6430
  888MOL0     N22458   7.431   6.003   2.795 -0.4922  0.3656  0.3988
  888MOL0     C22459   7.068   5.528   2.935  0.5244  0.3887  0.3593
  888MOL0     C22460   6.980   5.635   2.949  1.4584  0.0764 -0.1283
  888MOL0     C22461   6.693   5.960   2.796  0.4067  0.2266  0.1179
  888MOL0     C22462   6.562   5.943   2.843  0.7645 -0.1101  0.0107
  888MOL0     C22463   6.467   6.053   2.825 -0.3323  0.1595  0.8738
  888MOL0     C22464   6.504   6.175   2.766  0.3464  0.2618  0.3693
  888MOL0     O22465   6.411   6.279   2.746  0.4105 -0.3313  0.2326
  888MOL0     C22466   6.271   6.252   2.770  0.7867  0.1298  0.1472
  888MOL0     C22467   6.195   6.364   2.713 -0.3675  0.2390 -0.0874
  888MOL0     C22468   6.062   6.391   2.786  0.4390 -0.2372 -0.3599
  888MOL0     C22469   5.958   6.285   2.769  0.3017  0.7072  0.4206
  888MOL0     C22470   5.858   6.304   2.879 -0.4239 -0.0170  0.9056
  888MOL0     C22471   5.767   6.309   2.957  0.1076  0.0315 -0.0230
  888MOL0     C22472   6.635   6.195   2.730 -0.2489  0.4130  0.0040
  888MOL0     C22473   6.728   6.089   2.747  0.1003  0.1157 -0.3313
  888MOL0     C22474   6.875   6.135   2.735 -0.9604  0.4426 -0.8027
  888MOL0     H22475   6.789   5.568   2.673 -0.7511 -0.9619  1.4539
  888MOL0     H22476   6.940   5.390   2.643 -1.3816 -1.8876  1.3401
  888MOL0     H22477   7.240   5.357   2.620 -1.3159  1.5960  0.4807
  888MOL0     H22478   7.116   5.231   2.655  0.8564 -0.6365 -0.8502
  888MOL0     H22479   7.266   5.111   2.784 -0.6870  0.1161  0.1199
  888MOL0     H22480   7.354   5.154   2.635 -0.7911  4.7034 -2.3006
  888MOL0     H22481   7.385   5.298   2.897  2.2957  1.3067 -1.1414
  888MOL0     H22482   7.501   5.186   2.831  1.0644 -1.0127 -3.4551
  888MOL0     H22483   7.589   5.307   2.676  0.4626 -0.4147  0.2470
  888MOL0     H22484   7.440   5.401   2.640 -0.9618  2.2858  1.8371
  888MOL0     H22485   7.655   5.520   2.779 -0.4363  1.3704  0.8230
  888MOL0     H22486   7.580   5.439   2.908  0.5804 -0.4380 -0.0056
  888MOL0     H22487   7.411   5.630   2.724 -0.7363 -1.6145 -0.8615
  888MOL0     H22488   7.358   5.538   2.859  0.8503  0.1553  2.7150
  888MOL0     H22489   7.577   5.756   2.877  0.2175 -2.1430 -0.3590
  888MOL0     H22490   7.525   5.667   3.011 -0.1306  1.4538  0.8633
  888MOL0     H22491   7.277   5.759   2.978  0.6552  0.5043 -1.1880
  888MOL0     H22492   7.399   5.869   3.031 -2.3210 -1.3250  2.4085
  888MOL0     H22493   7.202   5.782   2.709  0.0709  0.4952  0.7789
  888MOL0     H22494   7.147   6.069   2.476 -1.1708 -1.2819 -3.8764
  888MOL0     H22495   7.132   5.898   2.499  0.7191 -1.4781  3.6570
  888MOL0     H22496   7.371   6.053   2.411  2.9823 -0.1552  1.7973
  888MOL0     H22497   7.377   5.882   2.447  0.6035  1.7999  0.5818
  888MOL0     H22498   7.225   5.820   2.261 -1.3245  0.3988  3.5078
  888MOL0     H22499   7.192   5.978   2.214  0.1352  0.0648  0.7054
  888MOL0     H22500   7.347   5.849   2.082 -2.7347  0.8765  1.1697
  888MOL0     H22501   7.434   5.998   2.138  1.1894 -1.1392 -0.7551
  888MOL0     H22502   7.719   5.743   2.357  1.3658 -2.8734 -0.7459
  888MOL0     H22503   7.928   5.704   2.407 -0.0029  1.0371 -0.4296
  888MOL0     H22504   8.037   5.822   2.360 -0.4196  0.0793 -0.8246
  888MOL0     H22505   8.040   5.663   2.282  0.9162  0.4684  0.0720
  888MOL0     H22506   8.197   5.646   1.882 -0.2934 -1.3832 -0.3758
  888MOL0     H22507   8.421   5.633   1.760  2.3137  1.2252 -1.1990
  888MOL0     H22508   8.654   5.902   1.757  3.5772  0.7883  0.4771
  888MOL0     H22509   8.659   5.723   1.733  0.3609  0.8554  0.3707
  888MOL0     H22510   8.752   5.790   1.486 -1.2968  0.4899  0.1579
  888MOL0     H22511   8.758   5.952   1.575  0.9395 -0.7448 -0.4078
  888MOL0     H22512   8.928   5.858   1.721 -2.8888  1.1580  0.4064
  888MOL0     H22513   8.964   5.882   1.549 -2.1528  2.1229  0.5895
  888MOL0     H22514   8.930   5.627   1.516 -0.6200  0.4317  0.4055
  888MOL0     H22515   8.902   5.623   1.692  0.2147  0.0433  0.9925
  888MOL0     H22516   9.134   5.714   1.745 -0.6815 -0.9348  0.7673
  888MOL0     H22517   9.144   5.552   1.672 -0.1106 -1.3032 -3.9282
  888MOL0     H22518   9.213   5.802   1.523  1.4231 -0.2038 -1.3533
  888MOL0     H22519   9.189   5.636   1.450  0.6013 -1.0329  0.3529
  888MOL0     H22520   9.366   5.567   1.636  0.4667  0.5002  0.1553
  888MOL0     H22521   9.409   5.731   1.654 -1.1319  0.7056 -0.1255
  888MOL0     H22522   9.501   5.734   1.406 -1.3506  0.5329  0.5712
  888MOL0     H22523   9.446   5.568   1.393  0.6635  0.8994 -0.8994
  888MOL0     H22524   8.383   6.026   1.643  1.4686 -1.0103 -0.3928
  888MOL0     H22525   8.175   6.059   1.778  0.1481 -0.3300 -0.5506
  888MOL0     H22526   7.820   5.913   1.903 -3.0674 -0.8917 -1.4486
  888MOL0     H22527   7.584   5.904   1.969  1.7635  2.5793 -0.5069
  888MOL0     H22528   7.121   5.506   3.027  0.0072  0.1796  0.6127
  888MOL0     H22529   6.991   5.705   3.031  1.4678 -1.1238  0.9333
  888MOL0     H22530   6.546   5.849   2.895 -0.7322  0.4471  0.6191
  888MOL0     H22531   6.367   6.039   2.863 -0.3009 -1.2449  0.4962
  888MOL0     H22532   6.237   6.159   2.723  1.1685 -0.4710  1.0314
  888MOL0     H22533   6.253   6.241   2.878  1.4799 -0.0711  0.2485
  888MOL0     H22534   6.171   6.345   2.608 -1.9119 -1.3079  0.4873
  888MOL0     H22535   6.251   6.457   2.721 -2.1312  1.4512 -1.1977
  888MOL0     H22536   6.093   6.415   2.888  0.3932  3.3095 -1.0782
  888MOL0     H22537   6.022   6.483   2.744  2.4273  1.9768  2.2618
  888MOL0     H22538   5.988   6.180   2.774 -0.5529  0.4024 -0.5689
  888MOL0     H22539   5.909   6.293   2.671  2.1236 -2.2259 -0.8496
  888MOL0     H22540   5.674   6.289   3.007  0.0680 -0.5310 -0.3207
  888MOL0     H22541   6.668   6.295   2.704 -1.5369  1.5882  2.5048
  888MOL0     H22542   6.925   6.083   2.653  0.2586  0.0005  0.1845
  888MOL0     H22543   6.885   6.242   2.720 -0.0038  0.6867  1.2481
  888MOL0     H22544   6.925   6.096   2.824 -2.2412  0.4741 -0.0382
  889MOL0     O22545   5.588   2.786   8.012 -0.3670 -0.9592  0.4906
  889MOL0     C22546   5.615   2.883   7.939 -0.4882 -0.5514  0.0688
  889MOL0     O22547   5.748   2.913   7.898 -0.0539  0.5794 -0.8997
  889MOL0     C22548   5.830   2.802   7.880 -0.3247 -0.5021  0.0449
  889MOL0     C22549   5.807   2.671   7.860  0.1381  0.1540  0.9040
  889MOL0     C22550   5.917   2.586   7.835 -0.0996  0.5583  0.6765
  889MOL0     C22551   6.050   2.628   7.829  0.4030  0.0922 -0.3930
  889MOL0     O22552   6.154   2.543   7.821 -0.1229  0.0157  0.3639
  889MOL0     C22553   6.180   2.506   7.680  0.6094  0.7361 -0.4453
  889MOL0     C22554   6.320   2.452   7.691  0.2849  0.2642  0.6039
  889MOL0     C22555   6.420   2.559   7.733  0.3424  0.1553 -0.0451
  889MOL0     C22556   6.568   2.545   7.695 -0.4771  0.6742 -0.4659
  889MOL0     C22557   6.643   2.421   7.758 -0.6823 -0.1842 -0.4340
  889MOL0     C22558   6.771   2.387   7.691 -0.3670 -0.2667  0.3735
  889MOL0     C22559   6.873   2.498   7.679 -0.5719  0.1112  0.3193
  889MOL0     C22560   6.890   2.585   7.808 -0.2504 -0.3003  0.6839
  889MOL0     N22561   7.022   2.647   7.813  0.1433 -0.5015  0.7830
  889MOL0     C22562   7.048   2.773   7.772  0.5350  0.4596  0.4820
  889MOL0     C22563   7.180   2.784   7.799  0.0184 -0.3058  0.5368
  889MOL0     C22564   7.267   2.903   7.791 -0.6405 -0.4470  0.1157
  889MOL0     C22565   7.260   2.979   7.658  0.2986  1.0211  0.2713
  889MOL0     C22566   7.319   3.124   7.668 -0.2443 -0.0086  0.6159
  889MOL0     C22567   7.460   3.130   7.713  1.0391  0.1421 -0.7912
  889MOL0     O22568   7.459   3.126   7.858 -0.5516 -0.1402 -0.5240
  889MOL0     C22569   7.575   3.118   7.933  0.3244 -0.3366  0.1875
  889MOL0     C22570   7.579   3.035   8.040 -0.0453 -0.3113 -1.0237
  889MOL0     C22571   7.692   3.013   8.124 -0.5489 -0.5630  0.1140
  889MOL0     C22572   7.675   2.927   8.252  0.3143  0.2666 -0.2825
  889MOL0     C22573   7.809   3.099   8.103 -0.3630  0.8659  0.0893
  889MOL0     C22574   7.928   3.101   8.196  1.2064  0.3441 -0.2738
  889MOL0     O22575   8.018   3.205   8.199 -0.2732  0.3653 -0.0227
  889MOL0     C22576   8.147   3.169   8.221 -0.7457 -0.0306 -0.5261
  889MOL0     C22577   8.244   3.189   8.125  0.0584  0.4994  0.2755
  889MOL0     C22578   8.376   3.145   8.152 -0.0231 -0.3190 -0.2665
  889MOL0     C22579   8.417   3.084   8.274 -0.1279  0.8724  0.1032
  889MOL0     O22580   8.537   3.017   8.289  0.3239  0.5003  0.7211
  889MOL0     C22581   8.659   3.083   8.245 -0.0688  0.1159 -0.4664
  889MOL0     C22582   8.731   3.005   8.138 -0.0281  0.9829  0.3617
  889MOL0     C22583   8.868   3.076   8.102 -0.3331 -0.7230  0.2783
  889MOL0     C22584   8.973   3.035   8.216  0.2691  0.1669 -0.3170
  889MOL0     C22585   9.118   3.035   8.174 -0.7640  0.1426 -0.2652
  889MOL0     C22586   9.191   2.925   8.254 -0.1358  0.4673 -0.5022
  889MOL0     C22587   9.186   2.930   8.409  0.5104 -0.1587  0.4274
  889MOL0     C22588   9.252   2.811   8.469 -0.1782  0.6567  0.1911
  889MOL0    Cl22589   9.424   2.794   8.418 -0.0402 -0.1761 -0.3604
  889MOL0     C22590   8.314   3.068   8.369  0.1084  0.3253  0.4343
  889MOL0     C22591   8.188   3.121   8.346 -0.5097  0.3759  0.3647
  889MOL0     O22592   7.948   2.989   8.245  0.0425  0.5141  0.3752
  889MOL0     C22593   7.806   3.198   8.001  0.3833 -0.2312  0.7443
  889MOL0     C22594   7.689   3.207   7.922 -0.4439  0.2821  0.3663
  889MOL0     N22595   7.224   2.656   7.839 -0.5344 -0.1305  0.9969
  889MOL0     N22596   7.128   2.572   7.846 -0.3172 -0.0133  1.1601
  889MOL0     C22597   6.077   2.762   7.844 -0.0427 -0.4027 -0.6790
  889MOL0     C22598   5.968   2.845   7.869  0.7410  0.8873 -0.5435
  889MOL0     C22599   5.508   2.991   7.914 -0.0405  0.6566 -0.2629
  889MOL0     C22600   5.543   3.117   7.848 -0.5315 -0.8751  0.1576
  889MOL0     C22601   5.461   3.226   7.834 -0.1497 -0.9770  0.3137
  889MOL0     C22602   5.328   3.207   7.873 -0.2269 -0.0959 -0.0291
  889MOL0     O22603   5.237   3.303   7.858  0.5268 -1.0569 -0.4277
  889MOL0     C22604   5.272   3.444   7.830 -0.1626  0.2338 -0.7711
  889MOL0     C22605   5.150   3.534   7.829  0.0215 -0.7590  0.2286
  889MOL0     C22606   5.180   3.673   7.811  1.1930 -0.3313 -0.3407
  889MOL0     C22607   5.279   3.715   7.693  0.3450 -0.2202 -0.6286
  889MOL0     C22608   5.203   3.701   7.557 -0.0593 -0.9571 -0.2234
  889MOL0     C22609   5.143   3.699   7.451  0.8964  0.0488 -0.1651
  889MOL0     C22610   5.279   3.085   7.927 -0.0398 -0.1669 -0.3246
  889MOL0     C22611   5.365   2.975   7.950  0.5684 -0.2438 -0.4429
  889MOL0     C22612   5.301   2.852   8.013  0.7901  0.3134 -0.3480
  889MOL0     H22613   5.704   2.636   7.859  0.7502 -1.8225 -0.5372
  889MOL0     H22614   5.894   2.481   7.816  1.3929  0.3454 -0.1108
  889MOL0     H22615   6.176   2.589   7.608  1.4164  0.5494 -0.7134
  889MOL0     H22616   6.109   2.434   7.639  0.2277  0.4560  0.6778
  889MOL0     H22617   6.337   2.368   7.760 -0.2075 -0.7077 -0.4166
  889MOL0     H22618   6.354   2.411   7.596  0.9357  0.2977  0.8134
  889MOL0     H22619   6.381   2.647   7.682 -1.0948 -1.8405 -2.6600
  889MOL0     H22620   6.404   2.565   7.841 -0.2884  0.7149 -0.1611
  889MOL0     H22621   6.577   2.529   7.587  2.4684  0.1940 -0.2385
  889MOL0     H22622   6.621   2.635   7.727 -2.4522  1.9039 -0.4628
  889MOL0     H22623   6.573   2.337   7.755 -0.6519 -0.2536  0.6557
  889MOL0     H22624   6.659   2.445   7.863 -2.8837  2.5463 -0.5909
  889MOL0     H22625   6.816   2.301   7.741 -0.3948 -0.3581  0.2427
  889MOL0     H22626   6.747   2.367   7.586 -1.2699  2.1237  0.0548
  889MOL0     H22627   6.864   2.565   7.593 -0.6622  0.8352  0.8815
  889MOL0     H22628   6.973   2.457   7.667 -0.3635  1.2113 -2.7352
  889MOL0     H22629   6.809   2.659   7.803 -2.6371 -2.7042  0.9104
  889MOL0     H22630   6.874   2.526   7.898  0.6229 -1.1776  0.2754
  889MOL0     H22631   6.978   2.848   7.738 -0.5628 -0.5143  0.5294
  889MOL0     H22632   7.370   2.868   7.798 -1.3206 -2.7402 -0.5741
  889MOL0     H22633   7.239   2.968   7.875 -1.3543  0.5787 -0.8842
  889MOL0     H22634   7.318   2.930   7.579 -1.6846  1.0649 -1.3148
  889MOL0     H22635   7.156   2.973   7.623 -0.5943  0.5381  2.8240
  889MOL0     H22636   7.326   3.159   7.565  1.0546 -0.3512  0.5717
  889MOL0     H22637   7.253   3.193   7.723 -0.7022 -0.6392  0.8746
  889MOL0     H22638   7.506   3.036   7.682  0.5467 -0.2196 -0.4275
  889MOL0     H22639   7.515   3.218   7.678 -1.5504  1.3195 -2.1377
  889MOL0     H22640   7.492   2.971   8.048 -0.1194 -0.0433  0.5699
  889MOL0     H22641   7.740   2.839   8.248 -0.6409 -0.4091 -2.3571
  889MOL0     H22642   7.570   2.894   8.249  0.1018  0.9664 -1.0726
  889MOL0     H22643   7.687   2.993   8.337 -0.7830  1.9526 -1.3737
  889MOL0     H22644   8.221   3.232   8.028  2.4455  0.8794 -0.1764
  889MOL0     H22645   8.451   3.155   8.074 -2.5554  1.6447 -2.6341
  889MOL0     H22646   8.636   3.185   8.214 -5.5446 -1.9968 -5.1573
  889MOL0     H22647   8.722   3.089   8.333 -0.1059 -0.0412 -0.4280
  889MOL0     H22648   8.730   2.896   8.147  2.0743  0.9005  0.0374
  889MOL0     H22649   8.659   3.013   8.056  1.2028 -1.1435 -1.0124
  889MOL0     H22650   8.854   3.184   8.093  0.0350 -0.8315 -3.2204
  889MOL0     H22651   8.902   3.041   8.003  1.8403 -0.7627  0.9894
  889MOL0     H22652   8.936   2.937   8.249 -1.7770  1.2118  0.6736
  889MOL0     H22653   8.961   3.102   8.302  0.8860  3.9019 -2.9075
  889MOL0     H22654   9.134   3.007   8.070 -0.2656 -0.0552 -0.1394
  889MOL0     H22655   9.157   3.134   8.200  0.9794  0.0636 -2.2824
  889MOL0     H22656   9.297   2.923   8.225  0.2311 -1.7492  0.8034
  889MOL0     H22657   9.160   2.825   8.224  2.8465 -0.6809 -0.1279
  889MOL0     H22658   9.082   2.926   8.443  1.0736  1.6592  2.5556
  889MOL0     H22659   9.240   3.016   8.447  2.1033  0.2867 -2.4863
  889MOL0     H22660   9.187   2.730   8.434 -1.5519  1.8269 -0.0617
  889MOL0     H22661   9.253   2.809   8.579  0.6663  2.2258  0.2360
  889MOL0     H22662   8.317   3.011   8.461  0.1097  0.3099  0.4247
  889MOL0     H22663   8.102   3.111   8.411 -0.9539  0.3219 -0.2163
  889MOL0     H22664   7.892   3.259   7.978  0.0318  0.4605  1.2217
  889MOL0     H22665   7.685   3.291   7.853  0.8085  0.0182 -0.0479
  889MOL0     H22666   6.176   2.805   7.832  0.2617 -0.6958  0.6639
  889MOL0     H22667   5.987   2.952   7.877 -1.4653  1.3157 -0.2126
  889MOL0     H22668   5.636   3.125   7.793 -0.7494  1.1533  0.0115
  889MOL0     H22669   5.501   3.317   7.792 -0.3260  0.0839  2.3573
  889MOL0     H22670   5.331   3.488   7.911 -2.6057  0.2949  1.1004
  889MOL0     H22671   5.318   3.452   7.732  0.6064  0.9463 -0.3634
  889MOL0     H22672   5.089   3.527   7.919 -1.6596 -2.3712 -0.9723
  889MOL0     H22673   5.091   3.495   7.746  1.2730 -3.4985  0.4797
  889MOL0     H22674   5.083   3.719   7.792  0.8541 -1.4003 -1.2694
  889MOL0     H22675   5.224   3.710   7.904 -0.1532  0.3544  0.0499
  889MOL0     H22676   5.367   3.651   7.702 -0.0977 -0.5787  2.2750
  889MOL0     H22677   5.314   3.819   7.698  1.3505 -0.6019  1.0583
  889MOL0     H22678   5.113   3.693   7.349 -0.3809  0.2596  0.1847
  889MOL0     H22679   5.174   3.072   7.954 -0.6481 -0.0685 -2.4298
  889MOL0     H22680   5.329   2.764   7.954 -0.0836  1.1991 -2.1598
  889MOL0     H22681   5.338   2.838   8.115  1.0196  3.6426  0.1360
  889MOL0     H22682   5.193   2.865   8.018  0.3702 -2.7064  2.7811
  890MOL0     O22683   1.414  11.079   0.792 -0.6975 -0.4710 -0.3950
  890MOL0     C22684   1.390  11.125   0.681  0.2628 -0.1068 -0.1164
  890MOL0     O22685   1.476  11.131   0.579 -0.2197 -0.1547 -0.2485
  890MOL0     C22686   1.606  11.108   0.614  0.2640  0.2292  0.3645
  890MOL0     C22687   1.664  10.983   0.625 -0.2464  0.7898  0.5945
  890MOL0     C22688   1.795  10.968   0.670  0.3508 -0.3091 -0.2164
  890MOL0     C22689   1.879  11.083   0.696 -0.9235 -0.5448  0.4641
  890MOL0     O22690   2.006  11.090   0.748 -1.0348  0.8857  0.6411
  890MOL0     C22691   2.086  10.969   0.723  0.0216  0.6937  0.0653
  890MOL0     C22692   2.233  11.005   0.739  1.0571  0.9039  0.0759
  890MOL0     C22693   2.277  11.064   0.604 -0.2036  0.2511  0.1589
  890MOL0     C22694   2.424  11.090   0.599  0.0805  0.6108 -0.5496
  890MOL0     C22695   2.479  11.111   0.456  0.6295  0.3341 -0.3655
  890MOL0     C22696   2.612  11.168   0.442 -0.4755 -0.3780  0.3730
  890MOL0     C22697   2.719  11.105   0.524  0.3000  0.5150  0.8511
  890MOL0     C22698   2.854  11.176   0.506  0.1191 -0.3325  0.2337
  890MOL0     N22699   2.960  11.104   0.574  0.0247  0.6842  0.1873
  890MOL0     C22700   3.029  10.989   0.511 -0.4267 -0.0506 -0.5077
  890MOL0     C22701   3.129  10.965   0.601  0.0175 -0.3347 -1.1692
  890MOL0     C22702   3.226  10.850   0.584 -0.0417  0.2409 -0.1232
  890MOL0     C22703   3.368  10.903   0.561 -0.1682 -0.1734 -0.1795
  890MOL0     C22704   3.457  10.886   0.687  0.9646 -0.1514  0.1650
  890MOL0     C22705   3.601  10.904   0.637 -0.8401 -0.3487  0.0723
  890MOL0     O22706   3.695  10.907   0.752 -0.2470  0.7297  0.4174
  890MOL0     C22707   3.778  10.804   0.778 -0.2397  0.1565 -0.2519
  890MOL0     C22708   3.762  10.672   0.732  0.7367 -0.0587  0.6589
  890MOL0     C22709   3.854  10.567   0.758  0.6018  0.5209  0.2348
  890MOL0     C22710   3.836  10.421   0.721 -0.2809 -0.8933  0.0264
  890MOL0     C22711   3.965  10.603   0.828  0.0419 -0.7255 -0.3316
  890MOL0     C22712   4.063  10.501   0.879  0.3432  0.2573  0.4661
  890MOL0     O22713   4.105  10.397   0.799  0.2194  0.5044 -0.2023
  890MOL0     C22714   4.219  10.321   0.833  0.3312 -0.1142  0.5986
  890MOL0     C22715   4.246  10.208   0.753 -0.6666  0.0443 -0.6626
  890MOL0     C22716   4.355  10.123   0.773  0.6682 -0.7164 -0.3066
  890MOL0     C22717   4.446  10.152   0.880 -0.4594  0.4555  0.9791
  890MOL0     O22718   4.545  10.064   0.897 -0.6777 -0.6330 -0.3031
  890MOL0     C22719   4.661  10.094   0.968 -0.1471  0.3626 -0.0093
  890MOL0     C22720   4.741  10.198   0.898  0.6139  0.7629  0.5184
  890MOL0     C22721   4.877  10.230   0.947 -0.5884  0.3400 -0.4935
  890MOL0     C22722   4.948  10.336   0.853 -0.3156 -0.5262 -0.0083
  890MOL0     C22723   5.084  10.374   0.905 -0.0459  0.0420 -0.5842
  890MOL0     C22724   5.169  10.258   0.958  0.2631  0.4508 -0.2966
  890MOL0     C22725   5.306  10.307   1.027  0.0304 -0.2911 -0.6013
  890MOL0     C22726   5.436  10.294   0.955 -0.2342 -0.4651 -0.3477
  890MOL0    Cl22727   5.475  10.129   0.909  0.2255 -0.0373  0.2311
  890MOL0     C22728   4.418  10.269   0.958  0.9750  1.1724  0.2063
  890MOL0     C22729   4.305  10.348   0.944 -0.0100  0.3072  0.7248
  890MOL0     O22730   4.103  10.522   0.992  0.6461  1.1384 -0.4533
  890MOL0     C22731   3.989  10.736   0.872 -0.3267 -0.6339 -0.0521
  890MOL0     C22732   3.893  10.826   0.853  0.0652 -0.3073 -0.2800
  890MOL0     N22733   3.126  11.059   0.697 -0.8624  0.7985  0.0502
  890MOL0     N22734   3.033  11.142   0.676 -0.1224  0.3422 -0.3084
  890MOL0     C22735   1.822  11.207   0.666 -0.4736 -0.5447 -0.2529
  890MOL0     C22736   1.688  11.223   0.627 -0.4395  0.5800  0.0452
  890MOL0     C22737   1.247  11.157   0.671  0.0657 -0.0728 -0.0345
  890MOL0     C22738   1.186  11.173   0.548 -0.5126 -0.1485  0.0329
  890MOL0     C22739   1.055  11.208   0.529 -0.0545  0.5549  0.4041
  890MOL0     C22740   0.975  11.223   0.637  0.5825  0.7203  0.1695
  890MOL0     O22741   0.842  11.247   0.599  0.3891  0.2975  0.2066
  890MOL0     C22742   0.752  11.258   0.713 -0.6272 -0.1476  0.9963
  890MOL0     C22743   0.604  11.219   0.686 -0.0022  0.5445  0.5383
  890MOL0     C22744   0.528  11.308   0.589 -0.9179  0.1380  1.0463
  890MOL0     C22745   0.375  11.283   0.576 -0.0877 -0.0734 -0.2089
  890MOL0     C22746   0.358  11.150   0.523 -0.0167 -0.7831 -1.2231
  890MOL0     C22747   0.348  11.043   0.480  1.2513 -0.0351  0.2502
  890MOL0     C22748   1.024  11.212   0.766  0.0493  0.8276  0.2927
  890MOL0     C22749   1.159  11.183   0.784  0.3555  0.5451 -0.8049
  890MOL0     C22750   1.206  11.191   0.936 -0.0333 -0.0359  0.4692
  890MOL0     H22751   1.608  10.890   0.618 -0.3928  0.7872  1.6496
  890MOL0     H22752   1.837  10.871   0.690 -0.7136 -0.7560 -0.0539
  890MOL0     H22753   2.062  10.924   0.627 -0.0736  1.9374 -0.5117
  890MOL0     H22754   2.067  10.896   0.802  0.8172  1.9133  1.4379
  890MOL0     H22755   2.246  11.068   0.827  2.8071  0.9005 -0.1345
  890MOL0     H22756   2.282  10.911   0.767 -0.7497  0.6566  2.7391
  890MOL0     H22757   2.252  10.983   0.534 -1.8216  0.3009  0.6207
  890MOL0     H22758   2.214  11.150   0.579 -0.7703 -0.6170 -1.5428
  890MOL0     H22759   2.436  11.183   0.656  2.5437  0.1515 -0.2237
  890MOL0     H22760   2.473  11.005   0.646 -1.7846  0.2610  0.9153
  890MOL0     H22761   2.404  11.174   0.408  0.7971  0.8852  0.0906
  890MOL0     H22762   2.479  11.018   0.398  0.1392 -1.4037  2.2145
  890MOL0     H22763   2.636  11.169   0.336  0.2266  0.9521  0.5287
  890MOL0     H22764   2.597  11.272   0.471  1.4740 -0.1037  0.4977
  890MOL0     H22765   2.734  11.003   0.490  0.2046  0.6467  0.4164
  890MOL0     H22766   2.691  11.099   0.630  0.5110 -0.1466  0.8745
  890MOL0     H22767   2.878  11.188   0.400  1.6150  1.5239  0.7305
  890MOL0     H22768   2.835  11.278   0.542  0.4131  0.2898 -1.3314
  890MOL0     H22769   3.030  10.951   0.410  1.3033  1.1853 -1.0068
  890MOL0     H22770   3.199  10.787   0.498  3.6587  0.2452 -1.4639
  890MOL0     H22771   3.224  10.783   0.671 -0.1121 -0.6281 -0.7749
  890MOL0     H22772   3.410  10.843   0.480 -0.7635 -0.9648  0.0886
  890MOL0     H22773   3.375  11.007   0.528  1.8523  0.1889  1.1883
  890MOL0     H22774   3.438  10.968   0.757  0.1310 -1.0261  0.9976
  890MOL0     H22775   3.435  10.791   0.738 -2.2135  0.2347 -0.3247
  890MOL0     H22776   3.622  10.822   0.568 -1.1221 -1.1955  0.9610
  890MOL0     H22777   3.609  11.002   0.589  0.4205  0.6621  2.1891
  890MOL0     H22778   3.673  10.646   0.675  0.5154 -2.5538  1.9819
  890MOL0     H22779   3.911  10.388   0.649 -0.2633 -1.3606  0.2582
  890MOL0     H22780   3.734  10.414   0.683  0.1139  2.7918 -2.2085
  890MOL0     H22781   3.845  10.349   0.803 -2.1893 -3.4761 -1.8401
  890MOL0     H22782   4.174  10.187   0.674  1.0593 -0.8588 -2.0762
  890MOL0     H22783   4.373  10.043   0.702 -0.3293 -0.3984 -0.9408
  890MOL0     H22784   4.635  10.124   1.070  0.3748  0.6634  0.0374
  890MOL0     H22785   4.720  10.002   0.976 -0.2793  0.3051  0.3557
  890MOL0     H22786   4.753  10.174   0.792  0.2902  1.4731  0.3114
  890MOL0     H22787   4.693  10.296   0.905 -0.0556  0.5739 -0.9894
  890MOL0     H22788   4.924  10.132   0.948  1.4914  1.2170  2.3836
  890MOL0     H22789   4.868  10.273   1.048  0.1947  0.9830 -0.6855
  890MOL0     H22790   4.885  10.425   0.853 -0.2492 -0.3035  4.0290
  890MOL0     H22791   4.959  10.295   0.752  0.0095  0.1683 -0.2621
  890MOL0     H22792   5.134  10.426   0.822  0.0853 -0.6325 -0.9396
  890MOL0     H22793   5.075  10.438   0.993 -1.0710  0.6865 -1.1492
  890MOL0     H22794   5.189  10.184   0.880 -0.4055  1.0967 -1.1052
  890MOL0     H22795   5.113  10.211   1.039  2.1790  1.4935  1.7083
  890MOL0     H22796   5.319  10.256   1.123  0.2952  1.1648  0.1554
  890MOL0     H22797   5.305  10.410   1.062  3.4333 -1.0020  2.1878
  890MOL0     H22798   5.514  10.339   1.018 -2.1245  3.2641 -0.4103
  890MOL0     H22799   5.435  10.360   0.868 -1.6670  0.7535  0.5570
  890MOL0     H22800   4.476  10.297   1.045 -0.9250 -0.1484  1.9609
  890MOL0     H22801   4.298  10.432   1.012 -0.6421 -0.4591  1.6239
  890MOL0     H22802   4.084  10.760   0.919  0.2369 -1.0829 -0.9326
  890MOL0     H22803   3.904  10.926   0.892  1.2066  0.6089 -2.7281
  890MOL0     H22804   1.879  11.299   0.674 -1.3320  0.0303 -0.6290
  890MOL0     H22805   1.650  11.324   0.614 -1.1643  0.2705 -0.3114
  890MOL0     H22806   1.243  11.153   0.458  1.4455 -1.7441  1.5419
  890MOL0     H22807   1.006  11.217   0.432 -0.2461 -0.2296  0.4246
  890MOL0     H22808   0.781  11.199   0.800 -1.2292  0.5861  1.7126
  890MOL0     H22809   0.760  11.360   0.751 -0.5149 -0.6701  2.4236
  890MOL0     H22810   0.559  11.221   0.785  1.6838 -1.4713  1.4053
  890MOL0     H22811   0.594  11.119   0.643 -0.9678  0.7586  0.2279
  890MOL0     H22812   0.548  11.413   0.614 -1.4051  0.6328 -0.5179
  890MOL0     H22813   0.565  11.296   0.487 -2.3673  1.4400  0.3141
  890MOL0     H22814   0.334  11.364   0.514  1.4807 -1.0554 -2.6692
  890MOL0     H22815   0.342  11.292   0.680  1.4982  1.7145  0.2053
  890MOL0     H22816   0.344  10.937   0.464 -0.5265 -0.2810  1.8049
  890MOL0     H22817   0.963  11.240   0.851 -1.2446 -0.1661 -0.2715
  890MOL0     H22818   1.130  11.256   0.981  0.6687  1.1921 -0.0603
  890MOL0     H22819   1.212  11.087   0.968 -1.9429 -0.5130 -0.6265
  890MOL0     H22820   1.305  11.236   0.954  1.7355 -3.1790 -0.6111
  891MOL0     O22821  10.688   1.789   2.774 -0.3849  0.0480 -0.0504
  891MOL0     C22822  10.608   1.717   2.825  0.9161  0.6378  0.2238
  891MOL0     O22823  10.617   1.673   2.952 -0.2359  0.6457 -0.0576
  891MOL0     C22824  10.730   1.701   3.025 -0.5757 -0.5594  0.0581
  891MOL0     C22825  10.849   1.633   2.996 -0.3564  0.4092 -0.3502
  891MOL0     C22826  10.963   1.666   3.064  0.3666  0.8014  0.3397
  891MOL0     C22827  10.966   1.756   3.163 -0.3284 -0.4280  0.6624
  891MOL0     O22828  11.079   1.808   3.224 -0.4252 -0.0756  0.0991
  891MOL0     C22829  11.208   1.764   3.172 -0.6256 -0.8924 -0.8883
  891MOL0     C22830  11.323   1.859   3.224  0.7826 -0.2845 -0.7218
  891MOL0     C22831  11.371   1.810   3.357  0.1853 -0.6899  0.5485
  891MOL0     C22832  11.490   1.899   3.403 -0.2893  0.6520 -0.0062
  891MOL0     C22833  11.594   1.817   3.490  0.0509 -0.0526 -0.0313
  891MOL0     C22834  11.547   1.813   3.634  0.7094 -0.1199  0.0768
  891MOL0     C22835  11.616   1.703   3.713 -0.3292 -0.7814  0.1708
  891MOL0     C22836  11.773   1.716   3.707 -0.1646  0.0028 -1.1804
  891MOL0     N22837  11.831   1.784   3.828  0.2420 -1.1580 -0.3331
  891MOL0     C22838  11.868   1.733   3.949 -0.0789 -0.7892 -0.6207
  891MOL0     C22839  11.890   1.836   4.035 -0.0286  0.4255 -0.6782
  891MOL0     C22840  11.938   1.840   4.180 -0.2989 -0.8452 -0.5528
  891MOL0     C22841  12.085   1.803   4.197 -0.3845 -0.5345  0.0633
  891MOL0     C22842  12.136   1.853   4.327 -0.3307  0.2918 -0.0585
  891MOL0     C22843  12.290   1.837   4.364 -0.6211 -0.3261 -0.9975
  891MOL0     O22844  12.299   1.848   4.508  0.2041  0.6162  0.0887
  891MOL0     C22845  12.417   1.882   4.567 -0.4952  0.0600  0.4833
  891MOL0     C22846  12.415   1.900   4.700 -0.2240  0.2450  0.1414
  891MOL0     C22847  12.520   1.951   4.772 -0.4191  0.2456  0.7620
  891MOL0     C22848  12.497   1.972   4.925 -0.1425 -0.5979  0.0280
  891MOL0     C22849  12.645   1.964   4.711 -0.4898 -0.4061  0.5746
  891MOL0     C22850  12.772   1.989   4.772 -0.8762 -0.2759 -0.0167
  891MOL0     O22851  12.885   2.034   4.692  0.0057 -0.3732  0.3119
  891MOL0     C22852  13.010   2.059   4.745  1.0373  0.2581  0.3518
  891MOL0     C22853  13.069   2.183   4.702  0.3773 -0.3240  0.2450
  891MOL0     C22854  13.202   2.213   4.739  0.5064  1.4091  0.2498
  891MOL0     C22855  13.276   2.122   4.816  0.7494 -0.2174  0.3038
  891MOL0     O22856  13.403   2.149   4.847 -0.3002 -0.0130  0.5745
  891MOL0     C22857  13.424   2.274   4.921 -0.4975 -0.8557  0.5502
  891MOL0     C22858  13.564   2.275   4.990 -0.1825 -0.0336 -0.2939
  891MOL0     C22859  13.567   2.361   5.109 -0.4365 -0.0404 -0.3528
  891MOL0     C22860  13.695   2.352   5.192 -0.9741 -0.1076  0.7064
  891MOL0     C22861  13.699   2.450   5.318 -0.3180  0.1485 -0.2539
  891MOL0     C22862  13.817   2.429   5.411 -0.4662 -0.1044 -0.2612
  891MOL0     C22863  13.828   2.292   5.482 -0.4388 -0.5273  0.0344
  891MOL0     C22864  13.938   2.300   5.600 -0.1270  0.1190  0.0586
  891MOL0    Cl22865  14.104   2.342   5.533  0.0054  0.2957 -0.1652
  891MOL0     C22866  13.218   2.007   4.855 -0.3382 -0.2424 -0.6029
  891MOL0     C22867  13.084   1.974   4.827  0.5808  0.3865 -0.2485
  891MOL0     O22868  12.773   1.984   4.900  1.2448  0.0145  0.8561
  891MOL0     C22869  12.649   1.944   4.572  0.2420 -1.0307  0.0596
  891MOL0     C22870  12.536   1.907   4.500  0.6607 -0.4326 -0.4327
  891MOL0     N22871  11.872   1.956   3.964  0.1357  0.4793  0.4687
  891MOL0     N22872  11.849   1.924   3.839  0.0880  0.7366  0.4654
  891MOL0     C22873  10.854   1.825   3.190  0.2893  0.8075 -1.1294
  891MOL0     C22874  10.729   1.793   3.131 -0.3000 -0.5575 -0.4359
  891MOL0     C22875  10.492   1.682   2.744  0.5661 -0.2707 -0.1266
  891MOL0     C22876  10.368   1.689   2.809  0.8079 -0.1244 -0.2841
  891MOL0     C22877  10.245   1.651   2.738 -0.8176 -0.5456  0.3936
  891MOL0     C22878  10.255   1.601   2.606 -0.2608 -0.2069  0.4582
  891MOL0     O22879  10.138   1.589   2.535  0.2038  0.6316  1.2012
  891MOL0     C22880  10.105   1.465   2.465 -0.1722 -0.2092  0.4342
  891MOL0     C22881  10.035   1.506   2.338 -0.3666  0.5640 -0.5649
  891MOL0     C22882   9.889   1.538   2.366 -1.3779 -0.1643 -0.0275
  891MOL0     C22883   9.813   1.590   2.245  0.5183  0.1615 -0.0901
  891MOL0     C22884   9.816   1.491   2.132  0.6766  0.4780 -0.8851
  891MOL0     C22885   9.806   1.420   2.036 -0.8856  0.6491 -0.4823
  891MOL0     C22886  10.383   1.594   2.545  1.2934  0.2071  0.3559
  891MOL0     C22887  10.498   1.633   2.618  0.7620 -0.6748  1.0770
  891MOL0     C22888  10.628   1.618   2.544 -0.7350  0.0503  0.6828
  891MOL0     H22889  10.849   1.562   2.914 -0.5049  1.8666 -1.6601
  891MOL0     H22890  11.053   1.614   3.032  1.0137 -0.2025  3.4635
  891MOL0     H22891  11.202   1.767   3.063 -1.6719 -3.6209 -0.9848
  891MOL0     H22892  11.226   1.664   3.214 -0.3887  0.6991  3.2781
  891MOL0     H22893  11.395   1.863   3.141  1.6878  1.3290  0.0741
  891MOL0     H22894  11.284   1.961   3.232  0.1011 -0.3553 -2.5345
  891MOL0     H22895  11.292   1.807   3.433 -1.3112  0.0872 -0.9057
  891MOL0     H22896  11.416   1.710   3.347  2.6779  0.6155 -4.1362
  891MOL0     H22897  11.549   1.928   3.316 -0.6026 -0.2185 -0.5157
  891MOL0     H22898  11.450   1.983   3.461  0.6056 -0.4623  2.3840
  891MOL0     H22899  11.691   1.865   3.481  0.3904 -0.6398  0.4471
  891MOL0     H22900  11.600   1.716   3.450 -0.4261 -0.7968  1.6495
  891MOL0     H22901  11.573   1.905   3.687 -0.2240 -0.0950  0.5093
  891MOL0     H22902  11.440   1.793   3.639  0.8054 -0.8606 -0.6703
  891MOL0     H22903  11.599   1.608   3.663  0.6547 -0.5907 -0.5546
  891MOL0     H22904  11.589   1.696   3.819 -2.8897  1.2166 -0.2632
  891MOL0     H22905  11.805   1.612   3.714 -0.5880 -0.0025  2.3075
  891MOL0     H22906  11.806   1.755   3.610  2.7330 -0.1443 -0.3479
  891MOL0     H22907  11.884   1.631   3.983 -0.6582 -0.8904 -0.6434
  891MOL0     H22908  11.893   1.768   4.249  1.6914 -0.2689  1.4868
  891MOL0     H22909  11.922   1.943   4.212 -0.0101 -0.4822 -1.5444
  891MOL0     H22910  12.091   1.694   4.201 -2.0807 -0.6073  1.5600
  891MOL0     H22911  12.149   1.849   4.121  0.6687 -0.8478  0.7423
  891MOL0     H22912  12.120   1.961   4.331  2.6854  0.7908  0.5841
  891MOL0     H22913  12.077   1.812   4.410  1.3170 -0.2025  0.9009
  891MOL0     H22914  12.329   1.739   4.337 -1.5262 -0.7707 -0.7281
  891MOL0     H22915  12.349   1.916   4.316  0.9128 -0.6217  0.3331
  891MOL0     H22916  12.316   1.897   4.744  0.1875  1.0236  1.1902
  891MOL0     H22917  12.543   1.888   4.979 -0.7372 -1.7507 -1.1893
  891MOL0     H22918  12.393   1.978   4.956 -0.2145  1.3270 -0.4659
  891MOL0     H22919  12.541   2.061   4.971 -2.3437  0.8460 -0.5230
  891MOL0     H22920  13.019   2.246   4.630 -0.7050 -1.8256 -0.3698
  891MOL0     H22921  13.242   2.304   4.694  1.1092  0.2900 -1.5948
  891MOL0     H22922  13.433   2.356   4.849 -2.8377  0.2341  1.3877
  891MOL0     H22923  13.344   2.282   4.995 -2.6419  1.4308 -1.8134
  891MOL0     H22924  13.589   2.173   5.019  1.7811  0.2163 -0.9389
  891MOL0     H22925  13.634   2.313   4.914 -1.0134  3.4992  0.5130
  891MOL0     H22926  13.487   2.336   5.180  0.0047  2.5909  1.2502
  891MOL0     H22927  13.555   2.467   5.084 -1.9741 -0.0335  0.3280
  891MOL0     H22928  13.766   2.372   5.111 -1.8849  0.0532 -0.0737
  891MOL0     H22929  13.693   2.250   5.231 -2.4743  0.9142  3.5887
  891MOL0     H22930  13.693   2.548   5.271 -1.0737 -1.1508 -3.1594
  891MOL0     H22931  13.610   2.442   5.380  0.9988 -2.5078  1.4995
  891MOL0     H22932  13.815   2.509   5.485 -1.1140  0.7388 -1.1742
  891MOL0     H22933  13.913   2.433   5.359 -1.8542  2.4539 -2.8939
  891MOL0     H22934  13.865   2.211   5.420  2.6820  0.8051 -0.0330
  891MOL0     H22935  13.729   2.261   5.519  0.7626 -4.6812  0.2654
  891MOL0     H22936  13.957   2.199   5.637  2.8778  0.0838 -1.3170
  891MOL0     H22937  13.896   2.356   5.685  0.1341  0.7905 -0.2474
  891MOL0     H22938  13.286   1.936   4.902  1.5136  2.0782  0.4061
  891MOL0     H22939  13.036   1.880   4.851  1.2869  0.0331 -0.1785
  891MOL0     H22940  12.726   1.967   4.500 -0.4263  0.6629 -0.1599
  891MOL0     H22941  12.534   1.899   4.392 -2.4411  0.4821 -0.5368
  891MOL0     H22942  10.847   1.888   3.279 -0.4502 -2.1149  1.0360
  891MOL0     H22943  10.649   1.864   3.150  1.0560  0.5351  1.5311
  891MOL0     H22944  10.360   1.729   2.910  1.0034 -1.6278  0.3643
  891MOL0     H22945  10.150   1.660   2.790 -0.5878  2.1738  0.5251
  891MOL0     H22946  10.199   1.423   2.429  0.6910  1.8239  0.2092
  891MOL0     H22947  10.055   1.388   2.525  1.1656 -0.5652  1.1382
  891MOL0     H22948  10.043   1.412   2.282  0.2978 -0.1751  0.7182
  891MOL0     H22949  10.073   1.588   2.276  1.7552  1.2730  1.5165
  891MOL0     H22950   9.831   1.462   2.420  0.1022 -0.7516  0.7992
  891MOL0     H22951   9.900   1.617   2.441  0.8794 -0.9193  0.5354
  891MOL0     H22952   9.865   1.680   2.212  0.4750  2.5198  5.2060
  891MOL0     H22953   9.712   1.614   2.281  0.3994 -0.1427 -0.2181
  891MOL0     H22954   9.806   1.354   1.951  0.9527  0.8553 -0.6981
  891MOL0     H22955  10.384   1.562   2.441 -2.6281 -2.4780  0.9053
  891MOL0     H22956  10.716   1.589   2.603 -1.1783 -1.1377  0.7780
  891MOL0     H22957  10.622   1.539   2.469  2.0045  0.0426  0.3506
  891MOL0     H22958  10.652   1.711   2.492 -0.6155 -0.6035 -0.4544
  892MOL0     O22959   3.728   6.865   9.437 -0.1900 -0.4872 -0.2575
  892MOL0     C22960   3.664   6.768   9.473 -0.3129  0.4631  0.1280
  892MOL0     O22961   3.717   6.651   9.519  0.3994 -0.2263  0.4500
  892MOL0     C22962   3.851   6.618   9.501 -0.6404  0.3218 -0.7600
  892MOL0     C22963   3.897   6.504   9.430  0.1861 -0.9905  0.6151
  892MOL0     C22964   4.030   6.457   9.428 -0.6489  0.2071 -0.2339
  892MOL0     C22965   4.131   6.534   9.491 -0.7387  1.0389  0.5469
  892MOL0     O22966   4.264   6.507   9.502 -1.1506 -0.8155 -0.3665
  892MOL0     C22967   4.309   6.399   9.414  0.7148  0.3204 -0.0169
  892MOL0     C22968   4.451   6.362   9.435 -0.0375  0.9428 -0.3531
  892MOL0     C22969   4.549   6.475   9.417 -0.0336  0.0253 -0.1256
  892MOL0     C22970   4.566   6.522   9.272  1.0307  0.1738  0.6045
  892MOL0     C22971   4.675   6.635   9.265  0.5273  0.5702  0.4673
  892MOL0     C22972   4.688   6.666   9.117 -0.7121 -0.7243  0.4036
  892MOL0     C22973   4.761   6.802   9.092  0.4684  0.2744  0.8465
  892MOL0     C22974   4.838   6.811   8.963 -0.7493  0.5566  0.0383
  892MOL0     N22975   4.946   6.708   8.964 -0.9173  0.3217 -0.1407
  892MOL0     C22976   5.067   6.719   9.032  0.0490  0.2436  1.2540
  892MOL0     C22977   5.147   6.616   8.982  1.0802 -0.2125  0.0754
  892MOL0     C22978   5.295   6.610   9.005  0.5877  0.0536 -0.4044
  892MOL0     C22979   5.389   6.719   8.952 -0.5821  0.8797 -0.2754
  892MOL0     C22980   5.539   6.668   8.966  0.3776  0.1487 -0.4094
  892MOL0     C22981   5.645   6.747   8.899  0.1559  0.1732 -0.3487
  892MOL0     O22982   5.779   6.691   8.908  0.1908  0.0418  0.0830
  892MOL0     C22983   5.879   6.746   8.985 -0.4831  0.1801  0.9805
  892MOL0     C22984   5.896   6.883   8.997  0.6670  0.2552  0.5041
  892MOL0     C22985   6.013   6.931   9.068 -0.0560  0.3070  0.5212
  892MOL0     C22986   6.044   7.080   9.072  0.9997 -0.4747  0.6514
  892MOL0     C22987   6.114   6.837   9.115  0.2736 -0.5252  0.5435
  892MOL0     C22988   6.247   6.874   9.177  1.2309 -0.8936 -0.6008
  892MOL0     O22989   6.355   6.796   9.144 -0.3498  0.0350  0.2959
  892MOL0     C22990   6.474   6.860   9.111  0.7554 -0.3848 -0.5139
  892MOL0     C22991   6.508   6.998   9.085  0.2950  0.2586  0.0105
  892MOL0     C22992   6.638   7.037   9.053 -0.2792  0.1314  0.1652
  892MOL0     C22993   6.744   6.946   9.047 -0.2363  0.1803  0.1925
  892MOL0     O22994   6.876   6.990   9.029 -0.2177  0.3838  0.2566
  892MOL0     C22995   6.974   6.887   9.018  0.0051  0.1916 -0.4908
  892MOL0     C22996   7.112   6.954   8.990 -0.0038  0.5268  0.0455
  892MOL0     C22997   7.161   7.058   9.093 -1.0905  0.2774  0.3409
  892MOL0     C22998   7.314   7.048   9.094 -0.6396  0.4387 -0.3783
  892MOL0     C22999   7.374   7.157   9.188  0.4318  0.4563  0.4045
  892MOL0     C23000   7.302   7.298   9.190 -0.1399 -0.2170 -0.1310
  892MOL0     C23001   7.308   7.357   9.048  0.2413 -0.5508 -0.0585
  892MOL0     C23002   7.202   7.466   9.043 -0.4472 -0.0768 -0.0484
  892MOL0    Cl23003   7.035   7.394   9.053  0.3531 -0.0938  0.4507
  892MOL0     C23004   6.709   6.807   9.073 -0.2672 -0.2429  0.2725
  892MOL0     C23005   6.580   6.773   9.112 -0.0510 -0.4139  0.2432
  892MOL0     O23006   6.261   6.966   9.257  0.1340 -0.1350 -0.1690
  892MOL0     C23007   6.087   6.702   9.104 -0.8027 -0.0419 -0.4607
  892MOL0     C23008   5.977   6.667   9.038  0.0709  0.5344 -0.6261
  892MOL0     N23009   5.077   6.538   8.892 -0.1126  0.7105 -0.1344
  892MOL0     N23010   4.959   6.596   8.882 -0.6473  0.4264 -0.0207
  892MOL0     C23011   4.088   6.654   9.554  0.7657  0.6095  0.2915
  892MOL0     C23012   3.952   6.694   9.552  0.2880  0.1823 -0.7088
  892MOL0     C23013   3.507   6.786   9.485  0.5469 -1.0596  0.0192
  892MOL0     C23014   3.434   6.686   9.545  0.6735 -1.1025 -0.8116
  892MOL0     C23015   3.295   6.687   9.545 -0.2495  0.1903  0.3593
  892MOL0     C23016   3.222   6.787   9.486 -0.3822 -0.3745 -0.4217
  892MOL0     O23017   3.087   6.770   9.488  0.2654  0.1285 -0.3187
  892MOL0     C23018   3.024   6.748   9.359 -0.1499  0.1078 -0.2929
  892MOL0     C23019   3.040   6.597   9.324  0.9788 -0.0698  0.2954
  892MOL0     C23020   2.937   6.564   9.215  0.1154 -0.1035  0.0730
  892MOL0     C23021   2.784   6.553   9.255  0.8096 -0.2742 -0.8051
  892MOL0     C23022   2.683   6.522   9.154 -1.2008 -0.1705 -0.0449
  892MOL0     C23023   2.604   6.529   9.064  0.2004 -0.7456  0.7731
  892MOL0     C23024   3.298   6.893   9.431  0.7596 -0.1298 -0.4780
  892MOL0     C23025   3.440   6.887   9.427  1.2991  0.2354  0.5671
  892MOL0     C23026   3.504   6.983   9.333 -0.0004 -0.1467  0.1713
  892MOL0     H23027   3.819   6.455   9.373 -0.5110  0.8968 -0.1284
  892MOL0     H23028   4.047   6.365   9.373  2.0403  1.4127 -1.6120
  892MOL0     H23029   4.282   6.428   9.312  0.3682  1.0737  0.2805
  892MOL0     H23030   4.244   6.313   9.431  0.4353  0.3935 -0.6913
  892MOL0     H23031   4.465   6.324   9.536  1.6228  3.3438  0.4160
  892MOL0     H23032   4.480   6.284   9.364 -0.0838 -1.6129  2.2528
  892MOL0     H23033   4.503   6.551   9.481  0.8483  0.8322 -0.4334
  892MOL0     H23034   4.646   6.454   9.463  1.6455  2.8230 -2.0601
  892MOL0     H23035   4.601   6.435   9.215  0.2974  0.9468 -1.1194
  892MOL0     H23036   4.472   6.548   9.223  0.8541 -1.5249 -0.0587
  892MOL0     H23037   4.768   6.601   9.311  1.3580  0.8348 -0.9610
  892MOL0     H23038   4.629   6.721   9.315 -2.7295 -0.6607 -0.1698
  892MOL0     H23039   4.750   6.591   9.066 -2.0984 -0.3550 -1.9571
  892MOL0     H23040   4.597   6.675   9.058  0.8702  4.0392 -1.8764
  892MOL0     H23041   4.822   6.827   9.179 -0.0229  2.8976  0.5191
  892MOL0     H23042   4.697   6.891   9.082 -0.7795 -0.6344  0.5230
  892MOL0     H23043   4.775   6.793   8.876 -0.8068 -1.4434  0.4357
  892MOL0     H23044   4.891   6.906   8.963 -0.5007  0.4180  0.0155
  892MOL0     H23045   5.092   6.797   9.104  2.1003 -0.4736  1.3721
  892MOL0     H23046   5.323   6.518   8.955 -1.2721  1.0140 -3.4883
  892MOL0     H23047   5.316   6.606   9.112 -1.5376 -0.8000  0.0366
  892MOL0     H23048   5.352   6.734   8.850  0.2371  1.9537 -0.4245
  892MOL0     H23049   5.372   6.813   9.004 -1.1813  0.0905  0.9954
  892MOL0     H23050   5.565   6.654   9.071  2.1363 -0.4992 -0.8860
  892MOL0     H23051   5.555   6.573   8.913  0.2408 -1.0384  1.5773
  892MOL0     H23052   5.621   6.738   8.793 -0.5065 -2.1496 -0.0590
  892MOL0     H23053   5.635   6.850   8.936  0.5727 -0.1764  0.7948
  892MOL0     H23054   5.822   6.953   8.958  0.3508  1.1034  2.4963
  892MOL0     H23055   5.966   7.133   9.017 -0.9696 -1.5757  2.2248
  892MOL0     H23056   6.140   7.093   9.022 -0.7241  1.9732 -2.3549
  892MOL0     H23057   6.047   7.126   9.171  0.9959  1.2697 -0.1179
  892MOL0     H23058   6.426   7.069   9.076 -0.4494 -0.6868 -0.8555
  892MOL0     H23059   6.647   7.142   9.025 -1.7222  0.7149  1.7037
  892MOL0     H23060   6.975   6.826   9.109 -3.0407 -0.9740 -1.1083
  892MOL0     H23061   6.946   6.817   8.939 -1.0814 -1.0179  0.9095
  892MOL0     H23062   7.183   6.872   8.977 -0.2632  0.2897  0.1045
  892MOL0     H23063   7.096   7.003   8.893 -2.2937 -2.2371 -1.1089
  892MOL0     H23064   7.128   7.040   9.196  1.1846 -1.2091  0.9054
  892MOL0     H23065   7.140   7.161   9.064  1.3926  1.4728  2.3165
  892MOL0     H23066   7.341   7.067   8.990  0.5281  1.1983  0.0441
  892MOL0     H23067   7.347   6.951   9.132 -1.0235  0.6774  0.5849
  892MOL0     H23068   7.360   7.114   9.288 -3.2230 -2.2914 -1.0219
  892MOL0     H23069   7.481   7.167   9.170  0.4096  1.1341  0.6507
  892MOL0     H23070   7.345   7.359   9.270 -0.3172  0.3075 -0.4325
  892MOL0     H23071   7.206   7.286   9.241  0.4185 -0.9094  0.7929
  892MOL0     H23072   7.304   7.283   8.967  3.8151 -1.6557  0.6125
  892MOL0     H23073   7.409   7.397   9.035  0.6501 -1.9567 -1.5404
  892MOL0     H23074   7.216   7.527   8.953 -1.9125 -0.3045 -0.4540
  892MOL0     H23075   7.216   7.535   9.128 -2.2534 -0.2091  0.3946
  892MOL0     H23076   6.780   6.725   9.068  0.3111  0.2400  0.3630
  892MOL0     H23077   6.570   6.668   9.139  0.8015 -0.2501  1.2267
  892MOL0     H23078   6.165   6.637   9.142 -1.2673  1.0074  2.5410
  892MOL0     H23079   5.952   6.562   9.025  2.0493  0.3263 -3.6312
  892MOL0     H23080   4.161   6.709   9.611  2.8132  1.1286 -2.5855
  892MOL0     H23081   3.907   6.782   9.596 -4.5805 -2.0768 -0.4968
  892MOL0     H23082   3.489   6.616   9.608 -2.8216 -1.0932  2.5791
  892MOL0     H23083   3.245   6.607   9.598  3.2866 -2.8063 -0.3410
  892MOL0     H23084   2.921   6.776   9.379 -0.2256 -1.2767  1.5113
  892MOL0     H23085   3.061   6.812   9.278  2.5920 -0.9149  0.0337
  892MOL0     H23086   3.030   6.534   9.413 -0.1026 -0.6874 -0.2437
  892MOL0     H23087   3.138   6.600   9.276  0.4781  1.6648 -0.6908
  892MOL0     H23088   2.938   6.640   9.137 -0.5169 -1.0595 -0.8900
  892MOL0     H23089   2.969   6.471   9.168  2.3280  0.1063  1.0200
  892MOL0     H23090   2.745   6.629   9.323  1.6404 -1.9369  1.6562
  892MOL0     H23091   2.778   6.467   9.323 -1.9004 -0.6449 -1.3767
  892MOL0     H23092   2.526   6.531   8.990 -1.1664 -1.7532  2.1164
  892MOL0     H23093   3.252   6.978   9.381  0.2534  0.1551  0.4534
  892MOL0     H23094   3.431   7.046   9.283 -0.0674  0.0698  0.5398
  892MOL0     H23095   3.564   7.048   9.397 -1.1709  1.2707 -0.1178
  892MOL0     H23096   3.563   6.925   9.261 -0.0865 -1.0493  0.8047
  893MOL0     O23097   6.274   6.407   0.548  0.0267  0.3479  0.1398
  893MOL0     C23098   6.300   6.291   0.508 -0.5828 -0.2486  1.4102
  893MOL0     O23099   6.402   6.259   0.433  1.0869 -0.5848  0.4108
  893MOL0     C23100   6.496   6.353   0.400  0.3328  0.0512 -0.4190
  893MOL0     C23101   6.488   6.423   0.283 -0.1934 -0.0776 -0.4325
  893MOL0     C23102   6.571   6.525   0.253 -0.4021  0.1977 -0.0652
  893MOL0     C23103   6.692   6.543   0.326 -0.1657  0.2344 -0.3772
  893MOL0     O23104   6.770   6.648   0.301 -0.0657  0.3176 -0.1851
  893MOL0     C23105   6.898   6.660   0.367  0.9413  0.2612  0.4571
  893MOL0     C23106   6.959   6.794   0.322 -0.6042 -0.7338  0.2201
  893MOL0     C23107   7.086   6.827   0.398  0.5576  0.4561 -1.5086
  893MOL0     C23108   7.206   6.795   0.321 -0.3861  0.8512 -0.1922
  893MOL0     C23109   7.342   6.831   0.379 -0.2506 -0.0779  0.8050
  893MOL0     C23110   7.382   6.724   0.480  0.7313 -0.0636 -0.3670
  893MOL0     C23111   7.503   6.770   0.562  0.2525  0.4761 -0.4939
  893MOL0     C23112   7.626   6.789   0.468 -0.6843  0.0432  0.3096
  893MOL0     N23113   7.749   6.788   0.539  0.1381  0.7173 -0.1874
  893MOL0     C23114   7.784   6.708   0.650 -0.7969 -0.5695 -0.4771
  893MOL0     C23115   7.923   6.725   0.649  0.8991 -0.3771 -0.5360
  893MOL0     C23116   7.987   6.658   0.762 -0.5368 -0.4438 -0.2013
  893MOL0     C23117   8.139   6.679   0.738 -0.1752 -0.3364 -0.2747
  893MOL0     C23118   8.195   6.587   0.842  0.0427  0.0570 -0.2084
  893MOL0     C23119   8.346   6.620   0.849 -0.9336  0.8518  0.3193
  893MOL0     O23120   8.397   6.518   0.926  0.1672 -0.2571  0.2561
  893MOL0     C23121   8.532   6.530   0.962 -0.0593 -0.7327  0.1290
  893MOL0     C23122   8.612   6.649   0.977  0.0869 -0.2392 -0.0466
  893MOL0     C23123   8.751   6.632   1.007 -0.6351 -1.0655  0.0190
  893MOL0     C23124   8.830   6.762   1.003 -0.4832 -0.0560  0.2515
  893MOL0     C23125   8.806   6.497   1.022  0.3272 -0.8548 -0.4243
  893MOL0     C23126   8.949   6.472   1.068  0.4683 -0.1415 -0.3486
  893MOL0     O23127   9.041   6.569   1.063 -0.3654 -0.2431 -0.9473
  893MOL0     C23128   9.177   6.548   1.080 -0.9235 -0.2814  0.2089
  893MOL0     C23129   9.232   6.476   1.186 -0.0119 -0.8647 -0.8798
  893MOL0     C23130   9.367   6.479   1.218  0.3817  0.4620  0.5755
  893MOL0     C23131   9.454   6.548   1.134 -0.5960  0.2270 -0.1127
  893MOL0     O23132   9.590   6.570   1.148  0.1088 -0.6536  0.0206
  893MOL0     C23133   9.663   6.478   1.226 -0.9310 -0.2830 -0.8395
  893MOL0     C23134   9.817   6.500   1.221 -0.0681  0.1187 -0.8101
  893MOL0     C23135   9.872   6.537   1.077  0.0427  0.1196 -0.2585
  893MOL0     C23136  10.009   6.598   1.078 -0.0973 -0.1236  0.9463
  893MOL0     C23137  10.078   6.618   0.948  0.4473 -0.5071  0.0495
  893MOL0     C23138  10.234   6.644   0.950  0.3367  0.7247 -0.7501
  893MOL0     C23139  10.283   6.707   0.815  0.5257  0.2898 -0.9427
  893MOL0     C23140  10.436   6.720   0.811  0.5488  0.6746 -0.4749
  893MOL0    Cl23141  10.476   6.800   0.655  0.1652  0.0778 -0.5475
  893MOL0     C23142   9.401   6.625   1.027 -0.5297 -0.5097  0.3377
  893MOL0     C23143   9.263   6.628   1.006 -0.1490  0.2447  0.5422
  893MOL0     O23144   8.975   6.355   1.104 -0.0242  0.5402 -0.1897
  893MOL0     C23145   8.715   6.393   1.025  0.1878 -0.6993 -0.6920
  893MOL0     C23146   8.585   6.400   0.989  0.0645 -1.2366  0.6361
  893MOL0     N23147   7.959   6.813   0.554  0.0386 -0.4480  0.5303
  893MOL0     N23148   7.856   6.860   0.488 -0.6810  0.2336  0.3712
  893MOL0     C23149   6.717   6.446   0.421 -0.7682  0.7642  0.4717
  893MOL0     C23150   6.615   6.365   0.470  0.3751 -0.0714 -0.0014
  893MOL0     C23151   6.230   6.178   0.577  0.6086 -0.5033 -0.2513
  893MOL0     C23152   6.301   6.071   0.628 -0.6255  1.0710 -0.9747
  893MOL0     C23153   6.241   5.970   0.699 -0.4270  0.0783  0.2594
  893MOL0     C23154   6.102   5.970   0.717  0.1138  0.2836  0.0484
  893MOL0     O23155   6.043   5.864   0.786  0.6820  0.1454  0.4822
  893MOL0     C23156   5.902   5.850   0.802  0.3836 -0.3508  0.5360
  893MOL0     C23157   5.876   5.740   0.900  0.2597 -0.3501  0.6278
  893MOL0     C23158   5.904   5.750   1.046 -0.4190 -0.7068  1.6466
  893MOL0     C23159   5.809   5.845   1.130 -0.1714 -0.1935  0.0396
  893MOL0     C23160   5.669   5.817   1.102  0.0251  0.0424  0.2884
  893MOL0     C23161   5.558   5.789   1.071 -0.8183  0.5398  0.9113
  893MOL0     C23162   6.028   6.069   0.663  1.0353 -0.3925 -0.0103
  893MOL0     C23163   6.090   6.181   0.599 -0.2421 -0.0067 -0.0363
  893MOL0     C23164   6.007   6.289   0.539  0.6863 -0.1374  0.0030
  893MOL0     H23165   6.402   6.414   0.217  1.1798  1.0270 -2.4740
  893MOL0     H23166   6.540   6.597   0.177 -0.7407 -0.3184 -0.4223
  893MOL0     H23167   6.964   6.580   0.331 -1.0679 -0.8589 -0.9387
  893MOL0     H23168   6.886   6.655   0.475  0.3157 -0.2081  0.3713
  893MOL0     H23169   6.981   6.797   0.215 -1.3999  2.4449  0.0644
  893MOL0     H23170   6.886   6.871   0.348 -1.7091 -1.0024 -1.9020
  893MOL0     H23171   7.096   6.933   0.425 -0.2859 -0.3462  2.7420
  893MOL0     H23172   7.070   6.778   0.495 -3.8083  1.3723 -1.5550
  893MOL0     H23173   7.192   6.694   0.281 -2.6347  1.8169 -2.0958
  893MOL0     H23174   7.196   6.859   0.233  3.3067  0.9168 -0.7244
  893MOL0     H23175   7.339   6.932   0.423 -4.3135  0.0229  0.6942
  893MOL0     H23176   7.411   6.838   0.295 -0.6156  0.0347  0.5108
  893MOL0     H23177   7.293   6.703   0.540 -0.8286  0.8414 -2.2653
  893MOL0     H23178   7.410   6.631   0.430  1.2010  0.0969 -0.4095
  893MOL0     H23179   7.507   6.688   0.634 -0.6289  0.0754 -0.8911
  893MOL0     H23180   7.470   6.856   0.621  1.8846 -0.6179  2.1822
  893MOL0     H23181   7.627   6.715   0.387 -0.5482  2.1515 -1.7416
  893MOL0     H23182   7.615   6.883   0.412  2.4758  1.1085  1.2754
  893MOL0     H23183   7.726   6.644   0.715 -3.5788  0.7239 -1.5151
  893MOL0     H23184   7.957   6.553   0.768 -4.3692  0.2478 -3.3125
  893MOL0     H23185   7.954   6.705   0.855 -0.5024 -1.6937  0.4692
  893MOL0     H23186   8.175   6.650   0.639  1.9557  2.7354 -0.5701
  893MOL0     H23187   8.164   6.785   0.750 -3.2291  0.3360  0.8335
  893MOL0     H23188   8.164   6.596   0.947  3.6949 -2.7704  1.3514
  893MOL0     H23189   8.184   6.483   0.810 -1.3987  0.1985 -0.2715
  893MOL0     H23190   8.389   6.621   0.749 -0.3682 -1.4079  0.4895
  893MOL0     H23191   8.362   6.714   0.903  1.8089  1.4994 -1.4211
  893MOL0     H23192   8.565   6.745   0.961 -0.9845 -0.2978  2.4140
  893MOL0     H23193   8.875   6.780   1.101  0.0289  0.1694 -0.0174
  893MOL0     H23194   8.775   6.847   0.963  1.8948  1.4820  0.0496
  893MOL0     H23195   8.924   6.745   0.948 -0.9288 -2.3997  0.0985
  893MOL0     H23196   9.163   6.415   1.243 -1.5519  2.1805  0.7877
  893MOL0     H23197   9.405   6.419   1.300  1.3466  1.3004  0.7604
  893MOL0     H23198   9.622   6.469   1.327  0.7751  1.5277  0.0689
  893MOL0     H23199   9.637   6.386   1.173 -0.0264 -0.8538 -0.3106
  893MOL0     H23200   9.839   6.574   1.299 -2.1108 -1.2548  1.1972
  893MOL0     H23201   9.857   6.407   1.263  0.1296 -0.1766 -1.6320
  893MOL0     H23202   9.794   6.594   1.026 -3.4664 -2.9463  1.2177
  893MOL0     H23203   9.884   6.441   1.027  0.3091  0.1244 -0.2039
  893MOL0     H23204  10.082   6.533   1.128  0.5184 -0.7014 -0.6294
  893MOL0     H23205  10.013   6.690   1.137 -0.1690 -1.0574  2.4923
  893MOL0     H23206  10.075   6.530   0.883 -0.1249 -0.3775 -0.1036
  893MOL0     H23207  10.035   6.708   0.903 -1.4007 -0.9112  0.9198
  893MOL0     H23208  10.280   6.545   0.960  0.5085  0.4295 -3.6076
  893MOL0     H23209  10.261   6.710   1.033  1.2428 -1.0981  0.4862
  893MOL0     H23210  10.232   6.801   0.792  1.4131  1.0111 -0.0313
  893MOL0     H23211  10.260   6.647   0.726 -0.4078 -0.0449 -0.4864
  893MOL0     H23212  10.484   6.625   0.834  0.5486  0.6982 -0.3770
  893MOL0     H23213  10.465   6.786   0.893  3.9049 -2.5846  1.2303
  893MOL0     H23214   9.470   6.683   0.966 -0.7203 -0.1721  0.4389
  893MOL0     H23215   9.232   6.699   0.930  2.3585  0.7656 -0.1072
  893MOL0     H23216   8.761   6.295   1.033  0.5878 -0.6173 -1.7187
  893MOL0     H23217   8.526   6.309   0.993 -1.1905 -0.6439 -1.9384
  893MOL0     H23218   6.814   6.442   0.468  0.5881 -4.4752 -2.1258
  893MOL0     H23219   6.642   6.302   0.554  2.5681  0.4555 -0.2633
  893MOL0     H23220   6.409   6.077   0.619 -0.4660 -1.1139 -1.0839
  893MOL0     H23221   6.294   5.894   0.756 -0.7311  0.1147  0.5971
  893MOL0     H23222   5.864   5.944   0.843  0.8900 -0.9367  2.4529
  893MOL0     H23223   5.856   5.833   0.704  1.8876  1.5835 -0.5820
  893MOL0     H23224   5.930   5.653   0.861  2.0111  0.9142  0.1163
  893MOL0     H23225   5.773   5.708   0.882  0.5159 -0.8662  0.0237
  893MOL0     H23226   5.899   5.653   1.095 -2.3220  0.1716  3.3256
  893MOL0     H23227   6.007   5.783   1.061 -0.6664 -0.3166  2.5623
  893MOL0     H23228   5.828   5.951   1.110 -0.6349 -0.3791 -1.4877
  893MOL0     H23229   5.829   5.820   1.235  0.7707 -2.9930 -0.7116
  893MOL0     H23230   5.456   5.765   1.047 -1.5256  3.2901  0.7617
  893MOL0     H23231   5.921   6.083   0.673  1.4295  1.4980  3.3651
  893MOL0     H23232   5.986   6.378   0.598  1.1835  0.1655 -0.2673
  893MOL0     H23233   6.041   6.325   0.441  3.2542 -0.6922  0.6366
  893MOL0     H23234   5.903   6.259   0.524 -0.4841  2.2339  2.4686
  894MOL0     O23235   5.395  11.283   0.543 -0.4101 -0.3731 -0.3053
  894MOL0     C23236   5.321  11.362   0.488  0.2204 -0.1082 -0.1776
  894MOL0     O23237   5.361  11.478   0.432  0.0293  0.1129 -0.0525
  894MOL0     C23238   5.486  11.517   0.484  1.2279 -0.5867  0.3072
  894MOL0     C23239   5.591  11.482   0.404  0.0482  0.1527 -0.7526
  894MOL0     C23240   5.720  11.513   0.441  0.5514 -0.1234 -0.4895
  894MOL0     C23241   5.741  11.588   0.558 -0.7048 -0.5647 -0.7702
  894MOL0     O23242   5.867  11.626   0.597 -0.2783  0.6114 -0.5739
  894MOL0     C23243   5.960  11.512   0.611  0.7538  0.2307  0.5274
  894MOL0     C23244   6.056  11.520   0.723  0.0449 -0.5389 -0.7534
  894MOL0     C23245   6.151  11.635   0.713  0.4944  0.1812 -0.4772
  894MOL0     C23246   6.277  11.603   0.630  0.0450  0.0048 -0.0736
  894MOL0     C23247   6.352  11.721   0.598 -0.0298 -1.0020 -0.5692
  894MOL0     C23248   6.444  11.702   0.479 -0.3632 -0.0069  0.2758
  894MOL0     C23249   6.570  11.800   0.488 -0.3557 -0.0409 -0.0361
  894MOL0     C23250   6.635  11.810   0.354  0.4731 -0.6210  0.2985
  894MOL0     N23251   6.749  11.900   0.378  0.3379  0.2736  0.4316
  894MOL0     C23252   6.748  12.044   0.401  0.3124  0.4516 -0.0316
  894MOL0     C23253   6.880  12.076   0.417  0.6944  0.4608 -0.1093
  894MOL0     C23254   6.936  12.217   0.431 -0.9191  0.0957  0.2345
  894MOL0     C23255   7.036  12.223   0.550 -0.2903  0.4418  0.5153
  894MOL0     C23256   7.170  12.137   0.526 -0.6520 -0.2246  0.7181
  894MOL0     C23257   7.286  12.188   0.616  0.2694  0.7609 -0.2223
  894MOL0     O23258   7.331  12.301   0.550 -0.8126 -0.3926 -0.8800
  894MOL0     C23259   7.454  12.358   0.590  0.5766  0.2099  0.6775
  894MOL0     C23260   7.501  12.457   0.504  0.8660 -0.4908 -0.5241
  894MOL0     C23261   7.622  12.512   0.526 -0.2439  0.1514 -0.6143
  894MOL0     C23262   7.652  12.632   0.435 -0.6797 -0.3094 -0.1547
  894MOL0     C23263   7.711  12.470   0.625  0.0266  0.0514  0.6753
  894MOL0     C23264   7.859  12.515   0.642 -0.1417  0.2571 -0.0905
  894MOL0     O23265   7.892  12.630   0.582  0.2604  0.0643 -0.0316
  894MOL0     C23266   8.016  12.674   0.586 -0.6122 -0.1189  1.1204
  894MOL0     C23267   8.027  12.816   0.600 -1.3054 -0.4540 -0.1540
  894MOL0     C23268   8.157  12.875   0.592  0.2202  0.5616  0.0097
  894MOL0     C23269   8.270  12.794   0.581 -0.6997 -0.5600 -0.3869
  894MOL0     O23270   8.388  12.860   0.573 -0.3498 -0.0179  0.3444
  894MOL0     C23271   8.490  12.785   0.497 -0.2308 -0.3739  0.3836
  894MOL0     C23272   8.610  12.878   0.464 -0.4154 -0.1467  0.1268
  894MOL0     C23273   8.648  12.947   0.596  0.1379  0.5100  0.1883
  894MOL0     C23274   8.779  13.016   0.571  0.2219  0.9107 -0.1196
  894MOL0     C23275   8.800  13.135   0.474  0.0994  0.6783  0.2330
  894MOL0     C23276   8.692  13.244   0.491  0.3876  0.4549  0.1193
  894MOL0     C23277   8.704  13.338   0.374 -0.1458  0.5612  0.3666
  894MOL0     C23278   8.597  13.442   0.378 -0.3341  0.2434  0.3252
  894MOL0    Cl23279   8.437  13.378   0.348  0.8107 -0.0196 -0.1432
  894MOL0     C23280   8.258  12.654   0.566  0.1898  0.3197 -1.0315
  894MOL0     C23281   8.131  12.598   0.564 -0.2286  0.0001  0.0424
  894MOL0     O23282   7.926  12.448   0.712 -0.9595  0.7362 -0.2802
  894MOL0     C23283   7.659  12.377   0.721  0.0625 -1.2933 -0.3321
  894MOL0     C23284   7.540  12.317   0.699 -0.3671 -0.0730 -0.1897
  894MOL0     N23285   6.954  11.958   0.394 -0.2166  0.2796  0.0995
  894MOL0     N23286   6.878  11.857   0.372 -0.0147 -0.0891 -0.5906
  894MOL0     C23287   5.629  11.634   0.635 -0.2008 -0.5197 -0.3605
  894MOL0     C23288   5.499  11.606   0.597  0.0687 -0.8246 -0.8705
  894MOL0     C23289   5.189  11.311   0.450  0.2461 -0.3453 -0.4513
  894MOL0     C23290   5.179  11.172   0.435 -0.7755 -0.7549 -0.1754
  894MOL0     C23291   5.058  11.105   0.389  0.1967 -0.3564  0.3534
  894MOL0     C23292   4.939  11.184   0.359 -0.6461 -0.1775 -0.3929
  894MOL0     O23293   4.833  11.124   0.297 -0.7637  0.1002 -0.3916
  894MOL0     C23294   4.721  11.194   0.235  0.2243  0.6277 -0.1527
  894MOL0     C23295   4.612  11.220   0.344 -0.3965  0.0972 -0.9634
  894MOL0     C23296   4.562  11.079   0.381  0.6666 -0.0486 -0.8802
  894MOL0     C23297   4.467  11.079   0.498 -1.0329 -0.3670  0.3730
  894MOL0     C23298   4.437  10.956   0.572 -0.2358 -0.3739  0.6510
  894MOL0     C23299   4.391  10.857   0.632  0.6166  0.0545 -0.7179
  894MOL0     C23300   4.957  11.327   0.370  0.2653  0.5931 -1.3991
  894MOL0     C23301   5.074  11.391   0.424  0.2302 -0.3933  0.2218
  894MOL0     C23302   5.084  11.541   0.432 -0.4492  0.7535  0.0302
  894MOL0     H23303   5.569  11.423   0.316  0.7627 -0.6056 -0.4296
  894MOL0     H23304   5.807  11.476   0.387  1.0254 -2.5951  1.7659
  894MOL0     H23305   6.023  11.505   0.522  0.7461  0.0100  0.5397
  894MOL0     H23306   5.901  11.420   0.618  3.0114 -1.1996  1.9623
  894MOL0     H23307   6.000  11.550   0.812 -1.2699  1.8661 -2.2721
  894MOL0     H23308   6.110  11.427   0.744  1.2465  0.7688  2.8054
  894MOL0     H23309   6.101  11.726   0.676  0.9260 -0.5800 -3.1717
  894MOL0     H23310   6.181  11.665   0.814 -1.5866  2.7672 -0.5030
  894MOL0     H23311   6.344  11.540   0.690  1.3694  2.2579  0.9319
  894MOL0     H23312   6.246  11.555   0.537 -0.8370 -0.8555  0.6336
  894MOL0     H23313   6.411  11.740   0.688 -0.6954 -1.5231 -0.0079
  894MOL0     H23314   6.286  11.806   0.580  0.4950 -0.5580 -0.4328
  894MOL0     H23315   6.485  11.601   0.477 -0.9836 -0.3388  2.0064
  894MOL0     H23316   6.388  11.722   0.388  0.8645  0.4672 -0.3935
  894MOL0     H23317   6.644  11.760   0.558  2.2805  0.8577 -2.1244
  894MOL0     H23318   6.537  11.900   0.517 -3.0104 -0.0264 -2.6804
  894MOL0     H23319   6.658  11.714   0.307 -0.9788 -3.0182  4.0548
  894MOL0     H23320   6.563  11.849   0.281  3.3855  1.7122 -1.5753
  894MOL0     H23321   6.660  12.107   0.409  1.3316  1.8936  0.3360
  894MOL0     H23322   6.858  12.293   0.438  0.8258  2.1764 -1.4988
  894MOL0     H23323   6.987  12.252   0.341 -1.6258 -0.9767 -0.6186
  894MOL0     H23324   7.061  12.329   0.559  1.7711  0.2265 -1.5106
  894MOL0     H23325   6.983  12.171   0.630 -2.7415 -0.7753 -1.7171
  894MOL0     H23326   7.152  12.037   0.567 -0.6301 -1.5711 -2.2510
  894MOL0     H23327   7.207  12.124   0.424  3.7214  1.1094  1.9103
  894MOL0     H23328   7.264  12.200   0.723 -0.8961  1.0122 -0.4741
  894MOL0     H23329   7.368  12.117   0.605 -1.5202 -1.8187  1.8604
  894MOL0     H23330   7.434  12.496   0.427 -1.1597 -1.7703  0.4933
  894MOL0     H23331   7.644  12.721   0.498  0.2521 -1.5756  1.8644
  894MOL0     H23332   7.582  12.630   0.351 -0.5944 -1.2217 -0.2156
  894MOL0     H23333   7.756  12.627   0.401 -0.6583  0.8996 -0.2956
  894MOL0     H23334   7.943  12.882   0.620 -0.9142  0.1076 -0.3292
  894MOL0     H23335   8.174  12.982   0.597 -1.0350  0.8171 -0.6318
  894MOL0     H23336   8.516  12.695   0.553 -1.7932  1.3504  4.2657
  894MOL0     H23337   8.448  12.762   0.399 -0.2987  0.4234  0.2112
  894MOL0     H23338   8.691  12.820   0.418  0.3124  0.6457  0.3677
  894MOL0     H23339   8.580  12.952   0.390  1.4114 -0.8380 -1.3899
  894MOL0     H23340   8.658  12.868   0.671  0.5731 -3.5179 -3.6839
  894MOL0     H23341   8.567  13.011   0.631 -0.9692 -2.5783  3.8182
  894MOL0     H23342   8.849  12.937   0.541  0.1465  0.9540 -0.4141
  894MOL0     H23343   8.807  13.048   0.672  2.7107  1.7907 -1.0224
  894MOL0     H23344   8.903  13.171   0.473  0.7007 -0.8971  1.1495
  894MOL0     H23345   8.781  13.083   0.379  1.7006 -1.0764  0.8125
  894MOL0     H23346   8.703  13.291   0.589 -2.0406 -0.4208  0.8931
  894MOL0     H23347   8.594  13.195   0.485 -0.0717  1.4638 -1.2239
  894MOL0     H23348   8.717  13.290   0.277  0.3537 -0.2211  0.8189
  894MOL0     H23349   8.803  13.377   0.399  0.4549 -1.1830  0.7958
  894MOL0     H23350   8.616  13.508   0.293 -0.3069  1.2045  1.0686
  894MOL0     H23351   8.596  13.504   0.468  0.4929  2.4390 -1.1050
  894MOL0     H23352   8.344  12.588   0.562  1.5568  2.0857 -2.8975
  894MOL0     H23353   8.119  12.491   0.550 -1.3940  0.2922 -1.4346
  894MOL0     H23354   7.724  12.348   0.804  0.8919  2.5783  0.5597
  894MOL0     H23355   7.512  12.234   0.762 -0.4786  0.1142  0.0121
  894MOL0     H23356   5.643  11.699   0.721 -0.5048  0.6947 -1.2022
  894MOL0     H23357   5.419  11.650   0.657  0.5822 -1.0208 -0.0287
  894MOL0     H23358   5.269  11.113   0.442  1.4169  2.3375 -0.3464
  894MOL0     H23359   5.055  10.998   0.372  1.7029 -0.6915  1.8772
  894MOL0     H23360   4.763  11.281   0.185 -0.3206  1.3394  0.6046
  894MOL0     H23361   4.680  11.123   0.162  1.3805 -0.7691  0.4837
  894MOL0     H23362   4.529  11.277   0.302 -1.1122 -0.3718 -0.2245
  894MOL0     H23363   4.666  11.269   0.426  1.0169 -0.7681 -1.3424
  894MOL0     H23364   4.498  11.047   0.298  2.0147 -0.1940 -1.8843
  894MOL0     H23365   4.643  11.007   0.392  1.0349  0.0722 -2.5291
  894MOL0     H23366   4.370  11.117   0.465 -0.1168  0.4338 -1.5317
  894MOL0     H23367   4.493  11.157   0.571  0.2112 -0.2617 -0.1611
  894MOL0     H23368   4.357  10.765   0.675  0.1499  0.2631 -0.6399
  894MOL0     H23369   4.865  11.384   0.362 -0.6834 -1.0671 -3.0197
  894MOL0     H23370   5.139  11.568   0.522  0.5227  0.6829 -0.5273
  894MOL0     H23371   5.145  11.576   0.349 -2.2802  0.2499 -1.6136
  894MOL0     H23372   4.987  11.592   0.430  0.0951  1.9274  1.4111
  895MOL0     O23373  10.357   8.719   9.805  0.3738  0.5078  0.3392
  895MOL0     C23374  10.354   8.594   9.799  0.3411  0.6648  0.1602
  895MOL0     O23375  10.457   8.508   9.800  0.4300 -0.7461  0.8187
  895MOL0     C23376  10.583   8.555   9.796 -0.1855  0.3342 -0.1269
  895MOL0     C23377  10.640   8.621   9.686 -0.5508  0.1446 -0.8983
  895MOL0     C23378  10.758   8.694   9.694  0.1077 -1.2819 -0.1654
  895MOL0     C23379  10.828   8.692   9.818 -0.1607 -0.0163  1.0635
  895MOL0     O23380  10.945   8.764   9.825 -1.0972  1.3911 -0.2586
  895MOL0     C23381  10.988   8.805   9.954  0.5438 -0.3605 -0.1669
  895MOL0     C23382  11.089   8.713  10.028 -0.5434 -0.0993 -0.1204
  895MOL0     C23383  11.213   8.691   9.930 -0.0848 -0.9481  0.0183
  895MOL0     C23384  11.346   8.668  10.001  0.4422  0.1043 -0.4394
  895MOL0     C23385  11.406   8.791  10.059  0.6157  0.6092  0.0987
  895MOL0     C23386  11.511   8.745  10.169  0.2825 -0.8088  0.5300
  895MOL0     C23387  11.566   8.874  10.233 -0.4436 -0.3267  0.5077
  895MOL0     C23388  11.704   8.843  10.310 -0.2403  0.6288 -0.0556
  895MOL0     N23389  11.697   8.727  10.398 -0.5962 -0.5206 -0.0180
  895MOL0     C23390  11.616   8.715  10.509 -0.0220  0.0524  0.1207
  895MOL0     C23391  11.636   8.593  10.560  0.3733  0.2789  0.3081
  895MOL0     C23392  11.594   8.537  10.693  0.5308  0.4912 -0.2575
  895MOL0     C23393  11.451   8.478  10.686 -0.1563  0.8511  0.8314
  895MOL0     C23394  11.410   8.413  10.814  0.9663  0.1759  0.1846
  895MOL0     C23395  11.284   8.321  10.806  0.1513 -0.3818 -0.1741
  895MOL0     O23396  11.172   8.400  10.850  0.1284 -0.6142 -0.2026
  895MOL0     C23397  11.050   8.344  10.826 -0.1576 -0.2993  0.8335
  895MOL0     C23398  10.963   8.428  10.774  0.9514  1.5654  0.2993
  895MOL0     C23399  10.833   8.401  10.730  0.5744  1.0302  0.5592
  895MOL0     C23400  10.743   8.510  10.686 -0.4588  0.4572  0.3810
  895MOL0     C23401  10.794   8.262  10.733 -0.6669  0.0536  0.8583
  895MOL0     C23402  10.662   8.208  10.696 -0.9559 -0.4088  0.0652
  895MOL0     O23403  10.564   8.287  10.731 -0.6510  0.3326 -0.1337
  895MOL0     C23404  10.435   8.253  10.701 -0.3929  0.0682  0.0902
  895MOL0     C23405  10.371   8.125  10.700  0.3672 -0.4527  0.3003
  895MOL0     C23406  10.233   8.133  10.683  0.3068 -0.0812  0.0692
  895MOL0     C23407  10.171   8.251  10.647  0.4344  0.5198  0.2671
  895MOL0     O23408  10.037   8.227  10.625 -0.1599  0.0999  1.1980
  895MOL0     C23409   9.968   8.325  10.553 -0.2839 -0.5421  0.3062
  895MOL0     C23410   9.833   8.269  10.523 -0.3996 -0.6159 -0.2025
  895MOL0     C23411   9.728   8.254  10.640 -0.2223  0.2609  0.2667
  895MOL0     C23412   9.600   8.175  10.589 -0.7422  0.6837  0.1849
  895MOL0     C23413   9.482   8.166  10.696 -1.0708  0.1275  0.1553
  895MOL0     C23414   9.389   8.049  10.643 -0.3387 -0.4366 -0.4457
  895MOL0     C23415   9.449   7.912  10.681  0.2510  0.5595 -0.1839
  895MOL0     C23416   9.423   7.811  10.566 -0.1795  0.0721  0.6423
  895MOL0    Cl23417   9.244   7.806  10.557 -0.2182 -0.2214  0.4787
  895MOL0     C23418  10.235   8.372  10.634 -0.0816 -0.2957  0.2022
  895MOL0     C23419  10.365   8.371  10.671 -0.8378 -0.5144  0.9848
  895MOL0     O23420  10.655   8.102  10.636  0.0167  0.5541 -0.4701
  895MOL0     C23421  10.891   8.170  10.777  0.7971  0.5026 -0.0351
  895MOL0     C23422  11.015   8.205  10.829 -0.4559 -0.1044  0.6523
  895MOL0     N23423  11.728   8.530  10.478  0.4609  0.8073 -0.3043
  895MOL0     N23424  11.762   8.609  10.381  0.9381 -0.3713 -0.1758
  895MOL0     C23425  10.775   8.620   9.921  0.4648  0.0215 -0.3375
  895MOL0     C23426  10.655   8.552   9.913  0.2265 -0.1947 -0.4791
  895MOL0     C23427  10.217   8.537   9.792  0.7517 -0.5758 -0.4723
  895MOL0     C23428  10.110   8.627   9.768 -1.0346  0.2073 -0.7857
  895MOL0     C23429   9.974   8.576   9.772 -0.4613 -0.3978 -0.5572
  895MOL0     C23430   9.947   8.447   9.807  0.2283  0.0545  0.2020
  895MOL0     O23431   9.818   8.409   9.824  0.4383  0.5008 -0.0597
  895MOL0     C23432   9.749   8.398   9.707  0.1049 -0.0749  0.2690
  895MOL0     C23433   9.606   8.365   9.742 -0.1140 -0.1819 -0.9643
  895MOL0     C23434   9.550   8.455   9.837 -0.4604 -0.3148 -0.4917
  895MOL0     C23435   9.402   8.416   9.850 -0.6065 -0.9525  0.1903
  895MOL0     C23436   9.335   8.485   9.954  0.3496 -0.5399 -0.3420
  895MOL0     C23437   9.264   8.537  10.041  0.3750 -0.4850  0.4221
  895MOL0     C23438  10.056   8.359   9.832  0.0858 -0.8794  0.4697
  895MOL0     C23439  10.189   8.401   9.828  0.7204  0.2457  0.0353
  895MOL0     C23440  10.304   8.307   9.876  0.0999  0.0097 -0.8088
  895MOL0     H23441  10.596   8.618   9.586  0.4989 -1.5031 -1.3432
  895MOL0     H23442  10.795   8.748   9.608 -3.7474 -0.6409 -1.6023
  895MOL0     H23443  10.908   8.804  10.029  4.0239 -2.2046  4.0404
  895MOL0     H23444  11.029   8.906   9.949  0.7280 -0.3386  1.2599
  895MOL0     H23445  11.128   8.771  10.112  0.7686  0.2073 -0.9161
  895MOL0     H23446  11.047   8.621  10.071  1.0185 -0.5936  0.4341
  895MOL0     H23447  11.181   8.611   9.862  1.1154 -0.6423 -0.9270
  895MOL0     H23448  11.215   8.783   9.872 -0.1045 -0.8762  0.1307
  895MOL0     H23449  11.333   8.584  10.069  0.5341 -1.0272 -1.7762
  895MOL0     H23450  11.418   8.625   9.932  0.4292 -0.0713 -0.3442
  895MOL0     H23451  11.330   8.857  10.103  0.5956  1.5108 -1.2135
  895MOL0     H23452  11.462   8.852   9.987  1.0416 -0.1457 -0.2267
  895MOL0     H23453  11.447   8.694  10.241  1.9984 -4.0025 -0.0500
  895MOL0     H23454  11.585   8.672  10.135  3.3562  1.9814  0.6202
  895MOL0     H23455  11.499   8.919  10.306 -1.3333 -0.1381 -0.4088
  895MOL0     H23456  11.580   8.950  10.156  0.6022 -0.6129  0.3957
  895MOL0     H23457  11.774   8.825  10.227 -0.3434 -1.9628  0.3441
  895MOL0     H23458  11.721   8.931  10.372  0.7875 -0.4907  1.3187
  895MOL0     H23459  11.549   8.790  10.549 -0.2850 -1.7782  3.5217
  895MOL0     H23460  11.595   8.627  10.755  1.3870 -1.3533  2.6417
  895MOL0     H23461  11.671   8.469  10.730 -0.2676 -1.8586 -2.5887
  895MOL0     H23462  11.382   8.560  10.667 -0.2606  0.6976  0.5377
  895MOL0     H23463  11.443   8.408  10.602  3.0057  0.9437  0.3210
  895MOL0     H23464  11.489   8.345  10.847  1.4230 -0.1251 -1.4499
  895MOL0     H23465  11.393   8.493  10.886  0.3915 -0.1835  0.4617
  895MOL0     H23466  11.265   8.281  10.706  0.0277  0.1481 -0.3651
  895MOL0     H23467  11.290   8.233  10.871  2.8339  0.0510  0.2547
  895MOL0     H23468  11.005   8.527  10.794  1.1232  1.0908  2.5087
  895MOL0     H23469  10.660   8.516  10.757  1.6213  0.2390  2.9873
  895MOL0     H23470  10.700   8.469  10.593 -1.4114 -0.6127  1.2526
  895MOL0     H23471  10.794   8.605  10.670  0.7396 -0.1172  0.7345
  895MOL0     H23472  10.426   8.032  10.716 -0.2331 -0.8245  0.2319
  895MOL0     H23473  10.165   8.048  10.678 -0.5113  0.6318 -2.3417
  895MOL0     H23474   9.954   8.409  10.621 -0.5232 -0.4639  0.1590
  895MOL0     H23475  10.011   8.359  10.459 -2.2818  0.3788 -0.3178
  895MOL0     H23476   9.788   8.342  10.455 -1.4243 -1.7932 -0.8237
  895MOL0     H23477   9.849   8.182  10.459 -0.4656  0.1227 -1.2546
  895MOL0     H23478   9.710   8.358  10.672  5.1310  2.1409 -1.7138
  895MOL0     H23479   9.770   8.198  10.724  1.0155 -0.6870 -0.9378
  895MOL0     H23480   9.632   8.074  10.562 -1.4189  1.2156 -2.9532
  895MOL0     H23481   9.566   8.220  10.495  3.3752 -0.8446 -2.3022
  895MOL0     H23482   9.526   8.149  10.795 -1.0612  0.7687  0.2677
  895MOL0     H23483   9.431   8.262  10.707 -2.3854 -0.3100 -1.6452
  895MOL0     H23484   9.391   8.057  10.534 -0.2865  1.3018 -0.3373
  895MOL0     H23485   9.285   8.049  10.676 -0.1723 -1.6425  0.1224
  895MOL0     H23486   9.399   7.876  10.771  0.3558 -2.6642 -1.2675
  895MOL0     H23487   9.555   7.927  10.701  0.5663 -0.2165 -1.1710
  895MOL0     H23488   9.470   7.719  10.601  1.8082  1.2416  1.2247
  895MOL0     H23489   9.475   7.851  10.478  0.5934 -1.0693  0.5648
  895MOL0     H23490  10.184   8.465  10.608  0.5990 -0.5926 -2.4284
  895MOL0     H23491  10.408   8.470  10.674 -2.6179  0.2976  3.6032
  895MOL0     H23492  10.865   8.065  10.786  1.5975  0.4842  3.0909
  895MOL0     H23493  11.076   8.123  10.866 -0.9383 -0.6129  0.3194
  895MOL0     H23494  10.837   8.613  10.010 -0.3648  0.3183  0.2712
  895MOL0     H23495  10.618   8.488   9.993  2.4152 -4.3093 -2.4448
  895MOL0     H23496  10.129   8.734   9.758  2.0457 -0.2159 -0.2202
  895MOL0     H23497   9.885   8.638   9.764 -0.3610 -0.0497  0.7798
  895MOL0     H23498   9.759   8.482   9.638 -0.4827 -1.4715 -1.5681
  895MOL0     H23499   9.792   8.311   9.657  1.1062 -1.1815  2.8596
  895MOL0     H23500   9.596   8.265   9.784 -0.7428  0.2164 -0.1339
  895MOL0     H23501   9.541   8.358   9.654 -2.8165 -1.0866  0.9951
  895MOL0     H23502   9.604   8.449   9.932  1.7676  0.6661 -1.6224
  895MOL0     H23503   9.557   8.558   9.801  0.7337  0.0520  0.6730
  895MOL0     H23504   9.390   8.310   9.875 -2.8522 -0.8925 -0.4070
  895MOL0     H23505   9.352   8.434   9.755  0.9916 -2.0138 -0.8966
  895MOL0     H23506   9.213   8.573  10.128  1.0052 -0.0619  0.6231
  895MOL0     H23507  10.041   8.255   9.861 -1.4514 -0.8039  0.0480
  895MOL0     H23508  10.360   8.350   9.960 -1.4340  0.3239  0.0871
  895MOL0     H23509  10.284   8.208   9.917 -0.4175 -0.0709 -1.2347
  895MOL0     H23510  10.372   8.283   9.793  0.7181 -0.4019 -0.1905
  896MOL0     O23511   7.016   2.154   7.216 -0.2739  0.7101 -0.0109
  896MOL0     C23512   6.934   2.063   7.199  0.6303 -0.9379 -0.3846
  896MOL0     O23513   6.961   1.931   7.199  0.4888  0.1763  0.2702
  896MOL0     C23514   7.089   1.882   7.167  0.6998  0.4923  1.1131
  896MOL0     C23515   7.189   1.907   7.261 -0.4842  0.2775  0.0813
  896MOL0     C23516   7.319   1.846   7.249  0.8307  0.4661  0.6733
  896MOL0     C23517   7.349   1.756   7.145  0.6514  0.3424  0.9798
  896MOL0     O23518   7.470   1.704   7.113  0.1023  0.2938  0.5658
  896MOL0     C23519   7.588   1.769   7.156  0.1030 -0.0862  0.1715
  896MOL0     C23520   7.712   1.681   7.131 -1.0873 -0.1264  0.2289
  896MOL0     C23521   7.817   1.694   7.239 -0.6572 -0.7090 -0.2541
  896MOL0     C23522   7.934   1.585   7.227  1.2699 -0.9026 -0.6267
  896MOL0     C23523   8.016   1.562   7.355  0.0158 -0.6889 -0.5214
  896MOL0     C23524   8.124   1.453   7.339 -0.4246  0.1236 -0.0109
  896MOL0     C23525   8.232   1.435   7.454 -0.2042  0.3887  0.1877
  896MOL0     C23526   8.334   1.557   7.467  0.3785 -0.8263  0.1679
  896MOL0     N23527   8.444   1.510   7.555  0.7465 -0.1419  0.4464
  896MOL0     C23528   8.512   1.579   7.652 -0.5707 -0.4315  0.6579
  896MOL0     C23529   8.611   1.508   7.691 -0.5755  0.0921  0.2258
  896MOL0     C23530   8.711   1.557   7.795 -0.7870 -0.0696  0.1078
  896MOL0     C23531   8.850   1.528   7.751 -0.7055  0.2845  0.0575
  896MOL0     C23532   8.899   1.385   7.788 -0.5275 -0.6279 -0.4745
  896MOL0     C23533   9.037   1.348   7.735 -1.0180 -0.6835  0.0076
  896MOL0     O23534   9.132   1.450   7.773  0.2487 -0.5262 -0.2211
  896MOL0     C23535   9.263   1.434   7.752 -0.7999  0.2774  0.4937
  896MOL0     C23536   9.321   1.316   7.702 -0.7397 -0.3995  0.4561
  896MOL0     C23537   9.460   1.321   7.681 -0.8255  0.9389  0.3505
  896MOL0     C23538   9.515   1.210   7.602 -0.0460 -0.6495 -0.3218
  896MOL0     C23539   9.546   1.425   7.726  0.7066  0.4672 -0.5052
  896MOL0     C23540   9.696   1.440   7.703 -0.5693 -0.3440  0.2729
  896MOL0     O23541   9.767   1.358   7.625 -0.1675  0.2038  0.2223
  896MOL0     C23542   9.903   1.371   7.589  0.6560  0.1967  0.4611
  896MOL0     C23543   9.984   1.260   7.565  0.5485  0.3652 -0.5703
  896MOL0     C23544  10.120   1.269   7.524  0.2644  0.4225 -0.0534
  896MOL0     C23545  10.180   1.392   7.509  0.6145  1.0273  0.2640
  896MOL0     O23546  10.314   1.399   7.476 -0.2742 -0.5088 -0.6816
  896MOL0     C23547  10.354   1.524   7.425 -0.3185 -0.2998 -0.1443
  896MOL0     C23548  10.482   1.496   7.351  0.3021 -0.1711 -0.2086
  896MOL0     C23549  10.589   1.426   7.439  0.2888  0.3742 -0.1402
  896MOL0     C23550  10.724   1.397   7.376  0.4606  0.2324 -0.5585
  896MOL0     C23551  10.811   1.314   7.463  0.0146 -0.3847 -0.1741
  896MOL0     C23552  10.910   1.397   7.544  0.1761  0.6152 -0.8756
  896MOL0     C23553  11.027   1.318   7.615 -0.3162 -0.1380  0.2801
  896MOL0     C23554  11.143   1.411   7.639 -0.4127  0.4057  0.0633
  896MOL0    Cl23555  11.270   1.319   7.730  0.0492 -0.4558 -0.1222
  896MOL0     C23556  10.110   1.500   7.560  0.7286  0.1986  0.4651
  896MOL0     C23557   9.972   1.494   7.589  0.8342  0.8268  0.0280
  896MOL0     O23558   9.740   1.541   7.758 -0.7104 -0.6270  0.0543
  896MOL0     C23559   9.484   1.530   7.801  0.6201  0.1962  0.0092
  896MOL0     C23560   9.344   1.546   7.801 -0.6513  0.7788  0.0109
  896MOL0     N23561   8.617   1.394   7.613 -0.1720 -0.1148  0.1819
  896MOL0     N23562   8.521   1.400   7.531  0.5297  0.5223  0.1425
  896MOL0     C23563   7.236   1.713   7.061  0.1925 -0.1591 -0.8571
  896MOL0     C23564   7.115   1.787   7.074 -0.0775  0.7249 -0.2425
  896MOL0     C23565   6.796   2.090   7.197 -0.5420 -0.2262  0.0052
  896MOL0     C23566   6.736   2.130   7.317  0.5034 -0.1967  0.4269
  896MOL0     C23567   6.602   2.167   7.317 -0.6472  0.0030 -0.5126
  896MOL0     C23568   6.529   2.153   7.200 -0.3888 -0.2654 -0.7576
  896MOL0     O23569   6.392   2.158   7.189  0.3576  0.0041 -0.4249
  896MOL0     C23570   6.320   2.214   7.298  0.7730 -0.1677 -0.6596
  896MOL0     C23571   6.170   2.227   7.253 -0.4056  0.4920 -0.2302
  896MOL0     C23572   6.095   2.313   7.362  0.2200  0.4235  0.1999
  896MOL0     C23573   5.948   2.295   7.343  0.0447  0.8628  0.0023
  896MOL0     C23574   5.887   2.401   7.427  0.3846  0.3924 -0.3555
  896MOL0     C23575   5.843   2.502   7.481 -0.4222 -0.4823  1.1792
  896MOL0     C23576   6.584   2.107   7.084  0.1568  0.7355  0.4453
  896MOL0     C23577   6.718   2.063   7.083 -0.2786  0.7414  0.1133
  896MOL0     C23578   6.785   2.015   6.955 -0.1845 -0.4639 -0.4567
  896MOL0     H23579   7.176   1.989   7.331 -1.3291  0.8233 -0.7007
  896MOL0     H23580   7.393   1.867   7.326  0.8863 -1.0871  1.0731
  896MOL0     H23581   7.582   1.786   7.264  0.4247  3.8352 -0.2723
  896MOL0     H23582   7.594   1.868   7.109 -1.3882  0.8588  1.8139
  896MOL0     H23583   7.676   1.578   7.125 -0.9860 -0.1589  0.1596
  896MOL0     H23584   7.764   1.716   7.041  1.1227  0.0794  1.5141
  896MOL0     H23585   7.868   1.788   7.219 -2.1754  0.2229  0.0546
  896MOL0     H23586   7.772   1.702   7.338 -0.6477  1.9690 -0.4094
  896MOL0     H23587   7.897   1.484   7.206  1.9964 -0.8739 -2.1999
  896MOL0     H23588   8.008   1.618   7.154  0.1711  1.0983 -0.8958
  896MOL0     H23589   7.939   1.531   7.427 -0.8968 -2.0089 -1.9918
  896MOL0     H23590   8.058   1.660   7.379  0.9613 -1.1607 -0.1842
  896MOL0     H23591   8.082   1.353   7.331 -1.5361  0.6852 -1.7779
  896MOL0     H23592   8.177   1.474   7.246 -3.6876 -2.4674 -2.7295
  896MOL0     H23593   8.275   1.338   7.429  1.8438  1.4143 -0.4975
  896MOL0     H23594   8.183   1.434   7.552 -1.9893  4.0789 -0.4955
  896MOL0     H23595   8.374   1.589   7.370  2.6760 -1.1221  0.9625
  896MOL0     H23596   8.280   1.646   7.501 -1.0415 -1.4357 -0.4046
  896MOL0     H23597   8.479   1.671   7.699  1.7372  0.5881  0.4142
  896MOL0     H23598   8.687   1.506   7.888  0.7007 -1.0394 -0.0199
  896MOL0     H23599   8.702   1.665   7.814  3.2039 -0.0711  3.2101
  896MOL0     H23600   8.853   1.536   7.642 -1.5175  0.9026  0.0682
  896MOL0     H23601   8.915   1.603   7.796 -1.5836  0.4188  1.1406
  896MOL0     H23602   8.907   1.376   7.897 -0.8140 -1.8011 -0.5282
  896MOL0     H23603   8.830   1.315   7.740 -2.8061  1.5227 -0.5096
  896MOL0     H23604   9.071   1.248   7.763  0.4338  0.0634  1.0209
  896MOL0     H23605   9.036   1.343   7.625  2.1981 -2.2150 -0.0623
  896MOL0     H23606   9.270   1.221   7.690 -0.1115 -0.6382 -0.3695
  896MOL0     H23607   9.563   1.243   7.510  2.1344  0.4981  1.1355
  896MOL0     H23608   9.445   1.127   7.589 -1.1253  0.3635 -1.1657
  896MOL0     H23609   9.594   1.168   7.666 -1.5921 -1.6205  1.0337
  896MOL0     H23610   9.944   1.160   7.581  1.4340  0.2738  1.3034
  896MOL0     H23611  10.173   1.174   7.512  0.5716  0.6279 -0.3508
  896MOL0     H23612  10.280   1.573   7.361  2.0831  3.4088 -0.4281
  896MOL0     H23613  10.379   1.590   7.508  3.5422 -4.3580  2.3819
  896MOL0     H23614  10.458   1.430   7.268  2.5643 -2.8796  1.1013
  896MOL0     H23615  10.524   1.588   7.309 -1.1445  0.7227  0.2310
  896MOL0     H23616  10.545   1.331   7.472 -1.7562  2.7812  5.3006
  896MOL0     H23617  10.603   1.476   7.535  0.4841  0.3201 -0.1414
  896MOL0     H23618  10.769   1.494   7.352 -0.2446  0.4013 -1.2494
  896MOL0     H23619  10.700   1.338   7.287 -0.0848 -1.3297  0.5936
  896MOL0     H23620  10.754   1.256   7.536  0.8428 -0.2856  0.5755
  896MOL0     H23621  10.874   1.249   7.401 -0.9764  0.8141 -2.5610
  896MOL0     H23622  10.863   1.452   7.626 -1.2330 -2.4827  0.5466
  896MOL0     H23623  10.954   1.456   7.463 -2.9000  0.4669 -2.8233
  896MOL0     H23624  11.065   1.238   7.551 -4.3377 -3.0157  1.1496
  896MOL0     H23625  10.989   1.279   7.710  0.8158 -0.7293  0.5116
  896MOL0     H23626  11.117   1.503   7.692 -1.1449  0.9554 -1.2078
  896MOL0     H23627  11.179   1.446   7.542 -0.1825 -2.9191 -1.1625
  896MOL0     H23628  10.157   1.596   7.576  1.4139 -0.4165  2.4821
  896MOL0     H23629   9.909   1.579   7.612  1.6450  1.1410  1.1797
  896MOL0     H23630   9.542   1.606   7.852  1.7444 -2.6898  3.3519
  896MOL0     H23631   9.300   1.636   7.843 -0.9516  1.1404 -1.0578
  896MOL0     H23632   7.236   1.634   6.986 -3.4877 -1.8204  0.6587
  896MOL0     H23633   7.025   1.761   7.020 -0.6326 -0.3954  1.1574
  896MOL0     H23634   6.782   2.143   7.415 -0.6245 -1.5830  1.1928
  896MOL0     H23635   6.565   2.209   7.410  1.1512  0.3589  0.0774
  896MOL0     H23636   6.324   2.151   7.388 -0.7931 -1.0900 -1.2150
  896MOL0     H23637   6.343   2.318   7.326 -2.2316  0.2624  0.6554
  896MOL0     H23638   6.122   2.131   7.229 -0.6019  1.2143 -2.9992
  896MOL0     H23639   6.161   2.280   7.158 -3.9777 -2.7869 -2.0239
  896MOL0     H23640   6.125   2.283   7.463 -2.5566  2.8332  1.8871
  896MOL0     H23641   6.110   2.420   7.343 -4.1006  1.4670  1.4773
  896MOL0     H23642   5.913   2.198   7.381  0.1785  1.1781  0.9625
  896MOL0     H23643   5.916   2.302   7.239  0.6287 -0.3194 -0.2665
  896MOL0     H23644   5.803   2.595   7.515  0.6896  1.2585 -1.9538
  896MOL0     H23645   6.524   2.090   6.996  0.8795  2.1136 -0.3509
  896MOL0     H23646   6.731   2.047   6.865  0.8618 -0.0605 -0.9570
  896MOL0     H23647   6.888   2.051   6.946  0.1701 -1.3280  0.0598
  896MOL0     H23648   6.773   1.907   6.948  1.2854 -0.7756  1.1400
  897MOL0     O23649   7.834   1.435   1.712 -0.1099  0.5454  0.5207
  897MOL0     C23650   7.758   1.437   1.611  0.1088 -0.4714 -1.1975
  897MOL0     O23651   7.750   1.537   1.517 -0.4363  0.2522  0.2955
  897MOL0     C23652   7.861   1.627   1.507  0.2349  0.5427  0.5124
  897MOL0     C23653   7.950   1.621   1.407 -0.2819 -0.2448  0.6392
  897MOL0     C23654   8.064   1.709   1.393 -0.1330 -0.7417 -1.0715
  897MOL0     C23655   8.080   1.807   1.494  0.6517  0.0800 -0.2243
  897MOL0     O23656   8.175   1.903   1.473  0.5113  0.2227  0.1104
  897MOL0     C23657   8.140   2.040   1.503 -0.1876  0.3669 -0.0278
  897MOL0     C23658   8.244   2.123   1.427 -0.2969  0.7945 -0.6491
  897MOL0     C23659   8.366   2.143   1.518 -0.5792  0.1421  0.0969
  897MOL0     C23660   8.466   2.222   1.438  0.2885  0.3729  0.3179
  897MOL0     C23661   8.588   2.246   1.519 -0.0320  0.4947 -0.1315
  897MOL0     C23662   8.701   2.143   1.496 -0.3230 -0.3127  0.1799
  897MOL0     C23663   8.820   2.181   1.578 -0.0840  0.2515  0.1793
  897MOL0     C23664   8.931   2.081   1.551 -0.0693  0.8951  0.0306
  897MOL0     N23665   9.046   2.104   1.638  0.3485 -0.3537  0.4743
  897MOL0     C23666   9.126   2.218   1.641 -0.2913  0.8143 -0.5804
  897MOL0     C23667   9.201   2.193   1.755  0.4011  0.0415 -0.1861
  897MOL0     C23668   9.302   2.286   1.814  0.6905  0.2727 -0.1086
  897MOL0     C23669   9.440   2.213   1.838  0.7076 -0.1626 -0.1465
  897MOL0     C23670   9.552   2.303   1.902 -0.5146  0.1508  0.2958
  897MOL0     C23671   9.700   2.244   1.890  0.8854 -0.0007  0.4799
  897MOL0     O23672   9.779   2.334   1.957 -0.0759  0.8736  0.5193
  897MOL0     C23673   9.908   2.306   1.987 -0.2787  0.5216  0.1041
  897MOL0     C23674   9.969   2.387   2.076 -0.4404 -0.0000 -0.0193
  897MOL0     C23675  10.109   2.368   2.111 -0.1772 -0.1003  0.0227
  897MOL0     C23676  10.163   2.470   2.209 -0.3678 -0.6982 -0.2352
  897MOL0     C23677  10.181   2.250   2.057  0.0578  0.0812 -0.2564
  897MOL0     C23678  10.324   2.220   2.087 -0.9903  0.0235 -0.7367
  897MOL0     O23679  10.386   2.118   2.032  0.5082  0.3354  0.0816
  897MOL0     C23680  10.498   2.062   2.092  0.1402 -0.6258 -0.1449
  897MOL0     C23681  10.481   1.936   2.139 -0.0402 -0.4467  0.3656
  897MOL0     C23682  10.591   1.870   2.198  0.3497  0.3359  0.0400
  897MOL0     C23683  10.711   1.934   2.224  0.0060  0.2923 -0.1903
  897MOL0     O23684  10.811   1.860   2.290 -0.1074 -0.3569  0.1907
  897MOL0     C23685  10.895   1.939   2.373 -0.0784 -0.4135 -0.6636
  897MOL0     C23686  10.970   1.837   2.458  0.2402 -0.3468  0.0132
  897MOL0     C23687  11.095   1.895   2.520  0.9792 -0.4616  0.4266
  897MOL0     C23688  11.144   1.803   2.635  0.2073  0.2260  0.1820
  897MOL0     C23689  11.264   1.871   2.689  0.2233  0.0457  0.1740
  897MOL0     C23690  11.361   1.781   2.769  0.0785  0.0505 -0.9584
  897MOL0     C23691  11.480   1.867   2.818  0.2826 -0.1013  0.0706
  897MOL0     C23692  11.585   1.770   2.874 -0.2834 -0.0254 -0.4511
  897MOL0    Cl23693  11.526   1.663   2.998  0.2079 -0.3452 -0.2008
  897MOL0     C23694  10.729   2.065   2.173 -0.2831 -1.0745 -0.7258
  897MOL0     C23695  10.625   2.124   2.106  1.1255 -0.3617  0.1905
  897MOL0     O23696  10.381   2.293   2.165  0.1826  0.2180 -0.0403
  897MOL0     C23697  10.107   2.156   1.981 -1.1706  0.3775  0.0230
  897MOL0     C23698   9.981   2.192   1.947  1.3681  0.2632  0.1067
  897MOL0     N23699   9.166   2.075   1.812  0.3087 -0.4843  0.4903
  897MOL0     N23700   9.064   2.027   1.748  0.0025 -0.1412  0.4014
  897MOL0     C23701   7.985   1.828   1.597  0.5686  0.2212 -0.0187
  897MOL0     C23702   7.879   1.736   1.599 -0.2564 -0.6297  0.0223
  897MOL0     C23703   7.656   1.329   1.628 -0.0607 -0.0543 -1.1538
  897MOL0     C23704   7.676   1.229   1.723  0.9401  0.1274  0.3143
  897MOL0     C23705   7.575   1.134   1.750 -0.5994  0.5066 -0.2545
  897MOL0     C23706   7.451   1.119   1.680 -0.4929  0.4226  0.1327
  897MOL0     O23707   7.347   1.034   1.702  0.3865  1.1010 -0.8905
  897MOL0     C23708   7.329   0.999   1.840  0.6197  0.0463 -1.1811
  897MOL0     C23709   7.406   0.864   1.887 -0.0752 -0.1965 -0.5908
  897MOL0     C23710   7.342   0.733   1.839  0.0893  0.4089  0.6868
  897MOL0     C23711   7.195   0.702   1.873 -0.1701  0.2275  0.6487
  897MOL0     C23712   7.161   0.735   2.011  0.0262 -0.8200 -0.2655
  897MOL0     C23713   7.127   0.781   2.121  0.4867  0.7768  0.2443
  897MOL0     C23714   7.442   1.210   1.582 -0.0889 -0.2445  0.1032
  897MOL0     C23715   7.538   1.308   1.550  1.3027  0.4215 -0.3830
  897MOL0     C23716   7.503   1.396   1.433 -0.3428 -0.6053 -0.1350
  897MOL0     H23717   7.942   1.535   1.342  2.1492 -0.6139  0.7407
  897MOL0     H23718   8.129   1.698   1.307  1.3284  0.8151 -0.2295
  897MOL0     H23719   8.147   2.056   1.611  1.4140 -1.0867  0.1278
  897MOL0     H23720   8.040   2.070   1.470 -0.0117  1.1977  0.1723
  897MOL0     H23721   8.270   2.066   1.338  1.6433 -0.3772  0.6085
  897MOL0     H23722   8.200   2.221   1.404  0.6796  1.4549  0.2106
  897MOL0     H23723   8.342   2.202   1.607  1.0455 -0.9396  1.3216
  897MOL0     H23724   8.417   2.050   1.542 -0.0916 -0.1062 -1.7447
  897MOL0     H23725   8.486   2.182   1.338 -2.1706 -1.4699  0.4792
  897MOL0     H23726   8.417   2.319   1.431  3.6681  2.2205 -0.2511
  897MOL0     H23727   8.556   2.249   1.623 -0.8018 -0.7689 -0.3180
  897MOL0     H23728   8.626   2.344   1.486 -0.9530  0.4592 -1.3619
  897MOL0     H23729   8.676   2.044   1.536  0.5446 -0.5903  0.0454
  897MOL0     H23730   8.726   2.130   1.391  1.0280 -1.7036  0.6464
  897MOL0     H23731   8.790   2.174   1.682 -1.3348 -0.6419 -0.2280
  897MOL0     H23732   8.849   2.281   1.545 -1.1917  0.8885  1.0743
  897MOL0     H23733   8.895   1.982   1.582  0.2765  1.0808  1.0590
  897MOL0     H23734   8.973   2.080   1.450  3.3180 -0.1536  1.3087
  897MOL0     H23735   9.119   2.294   1.564  1.5870  0.8975 -0.7052
  897MOL0     H23736   9.265   2.320   1.911 -1.1078  1.0807 -1.0233
  897MOL0     H23737   9.305   2.376   1.751  2.7312  0.0394 -0.3981
  897MOL0     H23738   9.417   2.127   1.903  0.1316  0.7380  0.8768
  897MOL0     H23739   9.471   2.172   1.742  3.2088  2.4405 -0.5689
  897MOL0     H23740   9.551   2.393   1.839  0.7443  0.9240  1.3348
  897MOL0     H23741   9.531   2.335   2.005 -2.6703 -0.2983  0.0394
  897MOL0     H23742   9.697   2.142   1.930 -0.6734 -0.0807  0.2194
  897MOL0     H23743   9.729   2.244   1.785 -0.7779  3.8321 -0.1840
  897MOL0     H23744   9.919   2.472   2.120  0.3114  1.1381 -1.2869
  897MOL0     H23745  10.271   2.484   2.200 -0.3646 -0.8613 -0.4826
  897MOL0     H23746  10.131   2.426   2.304 -2.7189 -0.4121 -0.8403
  897MOL0     H23747  10.124   2.569   2.188  0.3372 -0.7665 -2.1178
  897MOL0     H23748  10.389   1.878   2.135  0.6423 -1.9303  3.5286
  897MOL0     H23749  10.584   1.778   2.255  1.1167  0.3386  0.1540
  897MOL0     H23750  10.974   1.991   2.319  1.8240 -4.2894 -1.9685
  897MOL0     H23751  10.846   2.011   2.440  2.2451  1.3191 -0.6806
  897MOL0     H23752  10.901   1.794   2.530  0.3232 -1.1891 -0.4037
  897MOL0     H23753  11.001   1.755   2.392 -1.5256 -0.4923 -0.6994
  897MOL0     H23754  11.085   1.992   2.570 -0.1351 -1.1376  1.5668
  897MOL0     H23755  11.164   1.902   2.436 -1.1223 -0.2673 -1.3702
  897MOL0     H23756  11.174   1.707   2.594 -0.8929 -0.2604  0.4832
  897MOL0     H23757  11.063   1.782   2.706 -2.9500  1.1459 -2.8666
  897MOL0     H23758  11.318   1.912   2.603 -0.5484  1.7791  0.4694
  897MOL0     H23759  11.238   1.959   2.748  0.9960 -0.1579  0.8353
  897MOL0     H23760  11.405   1.707   2.700 -0.4047 -1.6974  0.5224
  897MOL0     H23761  11.308   1.718   2.841  1.4676  0.2889  0.3124
  897MOL0     H23762  11.440   1.947   2.881 -3.2236 -0.5462 -1.3686
  897MOL0     H23763  11.522   1.911   2.728 -4.6129  0.6535 -2.1840
  897MOL0     H23764  11.654   1.839   2.923 -1.6122 -0.2124  1.8409
  897MOL0     H23765  11.634   1.712   2.796  1.8570  0.3357  0.5574
  897MOL0     H23766  10.814   2.130   2.188 -1.5806  0.4368  0.4859
  897MOL0     H23767  10.646   2.224   2.070 -0.7869 -0.5115 -1.5021
  897MOL0     H23768  10.152   2.065   1.944  2.0100  1.0405  1.8904
  897MOL0     H23769   9.925   2.129   1.879  2.5312 -0.1962 -0.4423
  897MOL0     H23770   7.992   1.903   1.675  1.8482 -0.8567  0.9432
  897MOL0     H23771   7.802   1.757   1.672 -0.5680 -2.8162  0.4052
  897MOL0     H23772   7.761   1.217   1.790  2.3957  1.5745 -1.1893
  897MOL0     H23773   7.602   1.060   1.825  1.8948  1.7181  0.1561
  897MOL0     H23774   7.359   1.082   1.904  3.0431 -0.7587 -1.1791
  897MOL0     H23775   7.224   0.974   1.857  0.4303  1.3059 -0.4645
  897MOL0     H23776   7.419   0.868   1.996  1.1542  3.0865 -0.7212
  897MOL0     H23777   7.510   0.857   1.854  0.0968  0.9480 -0.3423
  897MOL0     H23778   7.349   0.743   1.730 -0.1059  2.7319  0.8433
  897MOL0     H23779   7.405   0.655   1.883 -0.2351 -0.2991 -0.0848
  897MOL0     H23780   7.172   0.596   1.858  0.2025  0.4082 -1.6834
  897MOL0     H23781   7.126   0.754   1.804 -2.1909  0.4360  2.7142
  897MOL0     H23782   7.100   0.820   2.217  0.6022 -0.6958  0.8970
  897MOL0     H23783   7.352   1.218   1.521 -0.2061 -4.3690 -0.5746
  897MOL0     H23784   7.582   1.460   1.394  1.1382 -1.0584  1.9770
  897MOL0     H23785   7.469   1.331   1.351 -3.1228  1.0183 -0.4077
  897MOL0     H23786   7.419   1.461   1.458 -0.1000 -0.2333 -0.2869
  898MOL0     O23787   5.032   9.857   5.354 -0.1336 -0.7654 -0.1087
  898MOL0     C23788   5.055   9.868   5.472  0.7536 -0.7887 -0.9019
  898MOL0     O23789   5.181   9.880   5.527 -0.6658  0.9479  0.6360
  898MOL0     C23790   5.297   9.883   5.456 -0.1851 -0.5731  0.2008
  898MOL0     C23791   5.302   9.940   5.325 -0.4006 -0.8712 -0.7766
  898MOL0     C23792   5.425   9.951   5.250 -0.1626 -0.7112 -0.6578
  898MOL0     C23793   5.551   9.920   5.311 -0.0201  0.4062  0.3786
  898MOL0     O23794   5.669   9.941   5.246 -0.2784  0.2230  0.0213
  898MOL0     C23795   5.679   9.939   5.101 -0.1173 -0.3183 -0.0772
  898MOL0     C23796   5.756   9.816   5.050 -0.1990  0.3449  0.1753
  898MOL0     C23797   5.686   9.685   5.076  0.3417 -0.6958 -0.0524
  898MOL0     C23798   5.776   9.565   5.092 -0.2978  0.1816 -0.1346
  898MOL0     C23799   5.861   9.534   4.962 -0.2206  0.0700  0.1609
  898MOL0     C23800   5.769   9.470   4.847 -0.7428 -0.1829 -0.2750
  898MOL0     C23801   5.871   9.403   4.756 -0.1947 -0.0963 -0.5506
  898MOL0     C23802   5.810   9.347   4.626 -0.0313  0.4349 -0.0223
  898MOL0     N23803   5.686   9.274   4.646 -0.8222  0.2586  0.4295
  898MOL0     C23804   5.564   9.340   4.639 -0.3528 -0.5362  0.5088
  898MOL0     C23805   5.475   9.256   4.707 -0.3986  0.9285  0.1597
  898MOL0     C23806   5.324   9.266   4.723  0.6797  0.8404  0.2086
  898MOL0     C23807   5.256   9.317   4.597  0.1259 -0.1248  0.0091
  898MOL0     C23808   5.108   9.319   4.624 -0.0716  0.2012  1.2721
  898MOL0     C23809   5.043   9.417   4.516 -0.4427 -0.0333 -0.2420
  898MOL0     O23810   5.106   9.548   4.520 -0.0030 -0.4139  0.5277
  898MOL0     C23811   5.040   9.657   4.575 -0.2556 -0.5038 -0.4182
  898MOL0     C23812   5.097   9.782   4.557 -0.0450  0.5056 -0.1831
  898MOL0     C23813   5.037   9.903   4.590  0.2088 -0.7635  0.1289
  898MOL0     C23814   5.115  10.027   4.561 -0.6341 -0.2783 -0.9056
  898MOL0     C23815   4.919   9.898   4.664  0.6744 -0.0144  0.0588
  898MOL0     C23816   4.843  10.014   4.721 -0.8917 -0.2013 -0.3474
  898MOL0     O23817   4.746   9.988   4.801  0.2508 -0.7764 -0.4728
  898MOL0     C23818   4.626  10.049   4.777 -0.5201 -0.1819 -0.5393
  898MOL0     C23819   4.527   9.970   4.716 -0.1233 -0.0178  0.2115
  898MOL0     C23820   4.403  10.021   4.688  0.3518  0.0050 -0.0006
  898MOL0     C23821   4.377  10.152   4.710  0.0809  0.0257 -0.1901
  898MOL0     O23822   4.253  10.193   4.676  0.4038 -0.1493  0.5373
  898MOL0     C23823   4.196  10.309   4.741  0.4372 -0.4287 -1.1088
  898MOL0     C23824   4.052  10.302   4.727  0.6090  0.2315 -0.2341
  898MOL0     C23825   3.991  10.414   4.809  0.3710  0.7920  0.2328
  898MOL0     C23826   3.844  10.400   4.827  0.5085  1.1143 -0.7838
  898MOL0     C23827   3.781  10.503   4.923  0.1330  0.4301  0.1840
  898MOL0     C23828   3.626  10.503   4.934  0.0331 -0.3363 -0.2545
  898MOL0     C23829   3.590  10.407   5.047  0.1534  0.3731 -0.5452
  898MOL0     C23830   3.444  10.386   5.073  0.6344  0.7161  0.4912
  898MOL0    Cl23831   3.357  10.541   5.112  0.4801  0.0213  0.6418
  898MOL0     C23832   4.476  10.228   4.772  0.1191  0.2935 -1.8665
  898MOL0     C23833   4.600  10.178   4.816  0.4356  0.2609 -0.3225
  898MOL0     O23834   4.872  10.124   4.680 -0.4669  0.3048 -0.0700
  898MOL0     C23835   4.865   9.770   4.698  0.3961 -0.2391 -0.1174
  898MOL0     C23836   4.928   9.649   4.661 -0.3934  0.4151 -0.2442
  898MOL0     N23837   5.548   9.155   4.764  0.7664 -0.1239 -0.1632
  898MOL0     N23838   5.673   9.162   4.719 -0.7142 -0.1523 -0.2540
  898MOL0     C23839   5.543   9.853   5.436  0.2816 -0.2376  0.3097
  898MOL0     C23840   5.422   9.844   5.516 -0.1079 -0.0473  0.9761
  898MOL0     C23841   4.934   9.860   5.558 -1.1763 -0.1836 -0.0708
  898MOL0     C23842   4.810   9.881   5.504  0.6727 -0.8867 -0.6729
  898MOL0     C23843   4.692   9.861   5.586  0.5333 -0.1308 -0.5102
  898MOL0     C23844   4.700   9.838   5.720 -0.0008  0.2773  0.0239
  898MOL0     O23845   4.601   9.819   5.811  0.5569 -0.2197  0.4562
  898MOL0     C23846   4.472   9.801   5.751 -0.1082  1.1587 -0.2168
  898MOL0     C23847   4.360   9.776   5.858  0.0371 -0.8915 -0.3790
  898MOL0     C23848   4.385   9.645   5.938  0.5754 -0.4692  0.2859
  898MOL0     C23849   4.364   9.670   6.088 -0.4329  0.2054 -0.4203
  898MOL0     C23850   4.478   9.742   6.151 -0.6965 -0.3893 -0.4178
  898MOL0     C23851   4.569   9.810   6.200 -0.0062  0.8445  0.0009
  898MOL0     C23852   4.826   9.808   5.772 -0.0993  0.2785 -0.0775
  898MOL0     C23853   4.947   9.815   5.691  0.2470  0.4316 -0.8054
  898MOL0     C23854   5.072   9.762   5.763 -0.4222 -0.0597  0.0937
  898MOL0     H23855   5.208   9.973   5.281 -1.2957 -2.2443  0.0253
  898MOL0     H23856   5.425  10.002   5.154  1.5609 -0.3631 -0.5082
  898MOL0     H23857   5.722  10.036   5.076  1.6933 -0.4981  1.9542
  898MOL0     H23858   5.581   9.932   5.054 -0.1213  0.9668 -0.2920
  898MOL0     H23859   5.780   9.833   4.945 -1.9195  1.9848 -0.0024
  898MOL0     H23860   5.850   9.813   5.107  0.5952  0.3279 -1.0901
  898MOL0     H23861   5.617   9.694   5.160 -2.3422  0.7093 -2.2469
  898MOL0     H23862   5.630   9.661   4.985  0.9408  1.3958 -1.0466
  898MOL0     H23863   5.846   9.591   5.172 -1.7315  0.0224  1.2134
  898MOL0     H23864   5.713   9.478   5.113  1.2372 -0.7510  0.8572
  898MOL0     H23865   5.942   9.466   4.989 -1.0876 -1.1625 -0.2500
  898MOL0     H23866   5.900   9.630   4.927 -0.1423  0.4059  1.1343
  898MOL0     H23867   5.708   9.401   4.907 -1.0545  2.0657  2.1785
  898MOL0     H23868   5.712   9.538   4.785 -2.3534  0.9922  2.3297
  898MOL0     H23869   5.928   9.319   4.798 -0.6277  0.4788  1.3098
  898MOL0     H23870   5.945   9.477   4.726 -1.1841  1.9738  1.7618
  898MOL0     H23871   5.787   9.426   4.554  1.1355  1.1591  0.3751
  898MOL0     H23872   5.888   9.287   4.577 -1.4747 -0.4694 -1.2746
  898MOL0     H23873   5.544   9.423   4.573  1.7323 -0.8343 -0.5780
  898MOL0     H23874   5.291   9.330   4.805 -3.8472  1.9581 -2.1286
  898MOL0     H23875   5.283   9.168   4.749 -0.7839  1.0759 -1.0186
  898MOL0     H23876   5.290   9.418   4.573 -0.3243 -0.0213 -0.2025
  898MOL0     H23877   5.278   9.252   4.511 -0.8613 -0.1629 -0.2280
  898MOL0     H23878   5.059   9.222   4.617 -2.6277  1.5224 -2.7764
  898MOL0     H23879   5.087   9.366   4.721  2.3294  0.1433  1.8812
  898MOL0     H23880   5.063   9.363   4.423  1.1715  0.2570 -0.0921
  898MOL0     H23881   4.935   9.431   4.529 -0.0968  2.3498  0.6097
  898MOL0     H23882   5.185   9.795   4.496 -0.3096  1.0018 -0.4701
  898MOL0     H23883   5.213   9.997   4.521 -0.8602  0.8921 -2.4425
  898MOL0     H23884   5.134  10.087   4.650 -0.1812 -1.3602 -0.2497
  898MOL0     H23885   5.056  10.078   4.484 -0.1121  0.2074 -0.9922
  898MOL0     H23886   4.544   9.867   4.684  0.9990  0.0289  0.5922
  898MOL0     H23887   4.331   9.970   4.625 -1.7336 -0.7408  2.8157
  898MOL0     H23888   4.233  10.309   4.844  3.2694 -3.3734 -1.9705
  898MOL0     H23889   4.224  10.401   4.689 -1.7987  1.4409  0.7707
  898MOL0     H23890   4.029  10.320   4.622 -0.4618 -1.9101 -0.4410
  898MOL0     H23891   4.004  10.205   4.746 -0.5664  0.6306 -1.0814
  898MOL0     H23892   4.006  10.509   4.757  0.8815  1.3226  1.3240
  898MOL0     H23893   4.040  10.423   4.906 -0.2126  2.2699  0.4115
  898MOL0     H23894   3.837  10.303   4.879 -1.6302  2.3591  1.4931
  898MOL0     H23895   3.796  10.396   4.729 -0.0616  1.2274 -0.5131
  898MOL0     H23896   3.828  10.502   5.021  2.1458 -0.5242 -0.7237
  898MOL0     H23897   3.799  10.599   4.873 -0.0074 -0.2704 -1.2775
  898MOL0     H23898   3.579  10.472   4.840  0.7560 -0.9920 -0.4079
  898MOL0     H23899   3.576  10.600   4.946 -1.8696 -0.9664 -2.4033
  898MOL0     H23900   3.636  10.441   5.140 -0.9177  3.8215 -1.1385
  898MOL0     H23901   3.632  10.307   5.031  0.9116  0.5074  0.4971
  898MOL0     H23902   3.433  10.310   5.152  2.0394 -0.0290  0.0163
  898MOL0     H23903   3.412  10.335   4.982 -2.0270  1.8482  0.7027
  898MOL0     H23904   4.457  10.334   4.783  2.3524  0.5301  0.5395
  898MOL0     H23905   4.688  10.226   4.859  0.8713 -0.5560 -0.2855
  898MOL0     H23906   4.774   9.765   4.757  1.8131  0.7918  2.2950
  898MOL0     H23907   4.894   9.553   4.698  0.5773  0.0300 -0.3022
  898MOL0     H23908   5.632   9.803   5.471 -1.4837 -3.1862  0.9072
  898MOL0     H23909   5.429   9.802   5.616  2.3604  0.0774  0.9338
  898MOL0     H23910   4.803   9.895   5.397  4.0447 -2.4365 -1.2372
  898MOL0     H23911   4.597   9.874   5.535 -0.3814  0.1264  1.1655
  898MOL0     H23912   4.431   9.887   5.698 -1.1803 -1.0878 -3.3228
  898MOL0     H23913   4.479   9.714   5.685 -2.8075 -2.5606  3.7975
  898MOL0     H23914   4.261   9.772   5.812 -0.0725  0.3591 -0.3025
  898MOL0     H23915   4.352   9.862   5.925 -2.0037 -0.3861 -1.2095
  898MOL0     H23916   4.307   9.574   5.910  2.2582 -1.7307 -1.4131
  898MOL0     H23917   4.476   9.589   5.915 -0.9210 -2.4260 -1.2586
  898MOL0     H23918   4.365   9.575   6.143  3.6716 -0.5154 -1.4072
  898MOL0     H23919   4.269   9.714   6.120  0.9575  1.9880  1.5194
  898MOL0     H23920   4.639   9.877   6.246 -0.3875  0.8036  0.6593
  898MOL0     H23921   4.827   9.790   5.879  0.9811 -0.5668 -0.2142
  898MOL0     H23922   5.040   9.699   5.847  0.8780  1.0958  1.5136
  898MOL0     H23923   5.147   9.716   5.699 -0.3771 -0.0191  0.1160
  898MOL0     H23924   5.138   9.846   5.783  0.1156 -0.7283  1.1800
  899MOL0     O23925   8.337   2.021   2.419  0.2442 -0.0354 -0.5337
  899MOL0     C23926   8.413   1.930   2.442  0.2533 -0.2088 -0.0448
  899MOL0     O23927   8.369   1.825   2.517 -0.5459 -0.3222 -0.7473
  899MOL0     C23928   8.236   1.824   2.552  0.4137  0.1832  0.5140
  899MOL0     C23929   8.195   1.836   2.685  0.0954  0.7787 -0.0617
  899MOL0     C23930   8.057   1.824   2.706 -0.2887  0.6638 -0.6612
  899MOL0     C23931   7.960   1.805   2.605  0.3165  0.3410  0.4490
  899MOL0     O23932   7.825   1.803   2.632  0.0351  0.4519 -0.0882
  899MOL0     C23933   7.774   1.793   2.769  0.2839  0.0446  0.0683
  899MOL0     C23934   7.619   1.769   2.768 -0.4289  0.4483 -0.0027
  899MOL0     C23935   7.564   1.786   2.909 -0.2650 -0.2578  0.3098
  899MOL0     C23936   7.443   1.694   2.925  0.1476 -0.4254  0.2226
  899MOL0     C23937   7.369   1.725   3.062 -0.5211  0.4536  0.0549
  899MOL0     C23938   7.282   1.602   3.103  0.8267 -0.5402 -0.3190
  899MOL0     C23939   7.198   1.621   3.230 -0.1863  0.2018  0.0313
  899MOL0     C23940   7.117   1.490   3.263  0.0850  0.1647 -0.3041
  899MOL0     N23941   7.037   1.437   3.153  0.2519  0.5212 -0.2296
  899MOL0     C23942   7.065   1.318   3.085 -0.2459 -0.4510  0.7966
  899MOL0     C23943   6.985   1.322   2.973  0.6156  0.3671  0.3813
  899MOL0     C23944   6.976   1.221   2.859 -0.0973  1.0084  0.0058
  899MOL0     C23945   6.986   1.079   2.909 -0.3498 -0.4789 -0.3470
  899MOL0     C23946   6.952   0.969   2.807 -1.3166 -0.0235 -0.2165
  899MOL0     C23947   7.076   0.933   2.726  0.0287  0.9816 -0.9098
  899MOL0     O23948   7.076   1.011   2.610  0.2887  0.1712 -0.1184
  899MOL0     C23949   7.181   1.003   2.525 -0.0268 -0.1424 -0.6468
  899MOL0     C23950   7.273   0.900   2.512 -0.0722  0.6152  0.4898
  899MOL0     C23951   7.387   0.918   2.433 -0.9505 -0.2827 -0.8860
  899MOL0     C23952   7.492   0.801   2.445  0.4308  0.0323  0.4998
  899MOL0     C23953   7.399   1.029   2.343  0.1879 -0.3776 -0.6535
  899MOL0     C23954   7.504   1.039   2.246 -0.5756 -0.1108  0.8615
  899MOL0     O23955   7.633   1.034   2.290 -0.1561  0.3385 -0.3751
  899MOL0     C23956   7.735   1.069   2.202 -0.0655 -0.0630  0.2267
  899MOL0     C23957   7.799   0.970   2.132 -0.5107 -0.0816  0.0641
  899MOL0     C23958   7.890   1.011   2.041 -0.1385 -0.1927  0.6803
  899MOL0     C23959   7.924   1.146   2.015 -0.2607 -0.3441 -0.4701
  899MOL0     O23960   8.013   1.177   1.918 -0.1970  0.2857  0.3035
  899MOL0     C23961   8.100   1.292   1.938 -0.5408  0.1204 -0.1825
  899MOL0     C23962   8.191   1.300   1.815  0.1545 -0.1885  0.3014
  899MOL0     C23963   8.304   1.407   1.823 -0.0145  0.2834 -0.3128
  899MOL0     C23964   8.277   1.539   1.752  0.0682 -0.1388  0.1966
  899MOL0     C23965   8.391   1.636   1.757 -0.2804 -0.3194  0.2372
  899MOL0     C23966   8.513   1.588   1.674  0.6030 -0.2695 -0.0205
  899MOL0     C23967   8.649   1.669   1.694 -0.0801  0.1495  0.2549
  899MOL0     C23968   8.780   1.595   1.706 -0.5696  0.4770 -0.1015
  899MOL0    Cl23969   8.922   1.707   1.672  0.2823  0.5092  0.9388
  899MOL0     C23970   7.848   1.240   2.077 -0.1795  0.0004 -0.0376
  899MOL0     C23971   7.756   1.206   2.173 -0.0345 -0.2969 -0.2394
  899MOL0     O23972   7.471   1.084   2.137  0.7043 -0.2366  0.7401
  899MOL0     C23973   7.305   1.133   2.364  0.4283 -0.1503  0.3956
  899MOL0     C23974   7.201   1.112   2.450 -0.2135 -0.3942  0.7521
  899MOL0     N23975   6.902   1.429   2.974  0.6816  0.3923  0.5129
  899MOL0     N23976   6.940   1.500   3.076 -0.1822 -0.0198  0.1276
  899MOL0     C23977   8.002   1.800   2.469  0.1373 -0.2768  0.8597
  899MOL0     C23978   8.137   1.813   2.447 -0.0248 -0.4680  0.5208
  899MOL0     C23979   8.552   1.932   2.390 -0.3759  0.1269 -0.1724
  899MOL0     C23980   8.619   1.816   2.356 -0.4529 -1.1217  0.0167
  899MOL0     C23981   8.748   1.818   2.301 -0.3006  0.1576  0.1752
  899MOL0     C23982   8.809   1.939   2.279 -0.6605 -0.1661  0.5568
  899MOL0     O23983   8.935   1.936   2.229 -0.8260 -0.4045 -0.4767
  899MOL0     C23984   8.965   2.028   2.116 -0.5866  0.5573  0.4693
  899MOL0     C23985   9.052   2.146   2.166  0.4281  0.0821  0.4191
  899MOL0     C23986   9.200   2.104   2.149  0.1865  0.1998 -0.2948
  899MOL0     C23987   9.280   2.076   2.279  0.4062 -0.0046 -0.0505
  899MOL0     C23988   9.422   2.103   2.264  0.4639 -0.2689  0.2689
  899MOL0     C23989   9.537   2.126   2.250  0.4828  0.8883 -0.0876
  899MOL0     C23990   8.743   2.058   2.310  0.6682 -1.0364  0.1440
  899MOL0     C23991   8.616   2.059   2.369 -0.3817  0.2403  0.0235
  899MOL0     C23992   8.566   2.182   2.423  0.2332 -0.4965  0.8408
  899MOL0     H23993   8.266   1.848   2.767 -1.4241  1.2012  1.2276
  899MOL0     H23994   8.010   1.821   2.803 -2.7788  0.6144 -1.7993
  899MOL0     H23995   7.793   1.884   2.827 -0.4643  1.0763 -1.2482
  899MOL0     H23996   7.820   1.707   2.819 -0.1653  0.8523  1.9811
  899MOL0     H23997   7.569   1.840   2.701  1.6855  0.9471 -1.1640
  899MOL0     H23998   7.592   1.669   2.734 -0.7736 -0.1662  1.9833
  899MOL0     H23999   7.651   1.774   2.974  0.4414  2.0557 -0.1294
  899MOL0     H24000   7.531   1.889   2.921  2.3549  0.8811 -1.3211
  899MOL0     H24001   7.376   1.715   2.842  2.5873  2.6289 -1.1830
  899MOL0     H24002   7.474   1.589   2.917 -2.5105 -1.2249 -0.3160
  899MOL0     H24003   7.313   1.819   3.071 -0.7146  0.3098  0.3332
  899MOL0     H24004   7.447   1.740   3.137 -0.9785 -0.4181  0.7181
  899MOL0     H24005   7.206   1.585   3.027 -1.7607  1.0049  1.7312
  899MOL0     H24006   7.347   1.515   3.112  1.5427 -0.1928 -1.7218
  899MOL0     H24007   7.125   1.700   3.210  0.6419  0.8146 -0.6481
  899MOL0     H24008   7.258   1.652   3.317 -1.2625 -0.7974  1.1727
  899MOL0     H24009   7.180   1.415   3.312  2.0248  1.8764 -0.0263
  899MOL0     H24010   7.047   1.522   3.341  3.3370  1.3902  2.3694
  899MOL0     H24011   7.138   1.242   3.110 -1.4862 -1.6272  0.9368
  899MOL0     H24012   7.061   1.236   2.792 -0.6969 -0.1601 -1.0608
  899MOL0     H24013   6.872   1.224   2.824 -0.9692 -0.3600  2.2764
  899MOL0     H24014   7.088   1.057   2.941 -0.0795  1.3780  0.1977
  899MOL0     H24015   6.925   1.081   3.000 -0.4096 -0.2380 -0.3899
  899MOL0     H24016   6.914   0.881   2.859 -2.0096  0.2711 -0.2106
  899MOL0     H24017   6.875   0.999   2.736  1.0428  2.5906 -1.8840
  899MOL0     H24018   7.169   0.950   2.782  0.5481 -0.0389 -1.4441
  899MOL0     H24019   7.080   0.825   2.707 -0.9465  0.1769  2.6339
  899MOL0     H24020   7.259   0.817   2.581 -1.6690  1.1281  0.8273
  899MOL0     H24021   7.443   0.703   2.452 -2.4644  1.2637 -0.6707
  899MOL0     H24022   7.549   0.819   2.536  0.9482  1.0330 -0.0108
  899MOL0     H24023   7.561   0.816   2.362  1.8339  1.5245  1.8748
  899MOL0     H24024   7.790   0.864   2.156  1.0858 -0.3978 -0.5987
  899MOL0     H24025   7.955   0.932   2.005  2.5221  1.7832  0.8352
  899MOL0     H24026   8.051   1.387   1.962 -3.9360 -1.3945 -0.4689
  899MOL0     H24027   8.164   1.270   2.024 -1.8677 -2.5974  0.2167
  899MOL0     H24028   8.238   1.206   1.786 -0.0960 -0.4028  0.5988
  899MOL0     H24029   8.121   1.335   1.738  1.6074 -0.5685 -1.2478
  899MOL0     H24030   8.396   1.364   1.783  0.0969 -1.3098  1.4970
  899MOL0     H24031   8.318   1.428   1.929 -1.5789  0.1643 -0.0561
  899MOL0     H24032   8.187   1.586   1.794 -0.9554  0.6691 -2.6537
  899MOL0     H24033   8.249   1.515   1.649 -0.1208  1.2346 -0.0986
  899MOL0     H24034   8.360   1.729   1.709 -1.0603  0.1719  1.6352
  899MOL0     H24035   8.420   1.665   1.859  2.6878 -0.2393 -0.5206
  899MOL0     H24036   8.480   1.583   1.570 -5.0283  2.7056  1.1766
  899MOL0     H24037   8.531   1.481   1.689  1.5376 -0.4991 -2.3632
  899MOL0     H24038   8.635   1.737   1.779  0.3832 -2.3319  2.4595
  899MOL0     H24039   8.648   1.729   1.602  3.1868  2.4079  1.4986
  899MOL0     H24040   8.778   1.512   1.634 -2.8165 -1.1127  1.6557
  899MOL0     H24041   8.800   1.550   1.804  1.8793  1.9822  0.1624
  899MOL0     H24042   7.850   1.343   2.044 -2.8033  0.0288 -0.3384
  899MOL0     H24043   7.690   1.275   2.225  0.7863 -1.9865  3.3527
  899MOL0     H24044   7.314   1.230   2.315  3.4922 -1.2965 -1.6653
  899MOL0     H24045   7.133   1.196   2.451 -0.8929 -0.8502 -1.5065
  899MOL0     H24046   7.935   1.779   2.386  2.1111 -3.5988 -0.0870
  899MOL0     H24047   8.170   1.816   2.344 -1.0272 -0.2519  0.2017
  899MOL0     H24048   8.566   1.722   2.368  2.0292 -2.3602  2.7064
  899MOL0     H24049   8.794   1.723   2.277 -2.4925 -0.7452 -0.6717
  899MOL0     H24050   9.020   1.971   2.041  0.3800  1.2345  0.6385
  899MOL0     H24051   8.875   2.058   2.060 -1.4434 -3.0669 -0.3387
  899MOL0     H24052   9.031   2.172   2.270  3.9772 -0.5311  1.4379
  899MOL0     H24053   9.030   2.231   2.101  3.0824  0.3574 -0.2682
  899MOL0     H24054   9.208   2.014   2.087  1.5263  0.0160  0.1178
  899MOL0     H24055   9.256   2.186   2.103  1.2143 -0.9486 -1.1595
  899MOL0     H24056   9.266   1.970   2.301  1.1658 -0.2109 -0.5270
  899MOL0     H24057   9.245   2.140   2.360  1.2673 -0.3475  0.5986
  899MOL0     H24058   9.640   2.147   2.232  0.3775  1.9311  0.4510
  899MOL0     H24059   8.800   2.150   2.303  1.5735 -1.4956  1.1130
  899MOL0     H24060   8.649   2.253   2.415 -1.6894  1.5932 -3.1068
  899MOL0     H24061   8.480   2.207   2.360  0.5077  0.3339  0.7782
  899MOL0     H24062   8.528   2.170   2.525 -0.7652  0.9767  0.6643
  900MOL0     O24063   7.232   3.160   6.679  0.4535  0.7224  0.0012
  900MOL0     C24064   7.206   3.262   6.618 -0.4434  0.2901 -0.4400
  900MOL0     O24065   7.282   3.374   6.620  0.6905  0.9391 -0.0081
  900MOL0     C24066   7.386   3.408   6.703 -0.0089  0.6774  0.1778
  900MOL0     C24067   7.465   3.520   6.675  0.4008  0.8481 -0.4517
  900MOL0     C24068   7.568   3.558   6.758  0.4849  0.2702  0.2265
  900MOL0     C24069   7.602   3.485   6.873  0.9515  0.6076  0.1084
  900MOL0     O24070   7.712   3.531   6.948 -0.3031 -0.5570 -0.3762
  900MOL0     C24071   7.753   3.475   7.073 -0.4447  0.3448  0.3454
  900MOL0     C24072   7.861   3.565   7.128  0.9647  0.2846 -1.3769
  900MOL0     C24073   7.990   3.551   7.052  0.0421 -0.0632  0.2382
  900MOL0     C24074   8.086   3.666   7.084  0.1935 -0.0879  0.4549
  900MOL0     C24075   8.212   3.656   6.998 -0.1396  0.0555 -0.1574
  900MOL0     C24076   8.307   3.773   7.025 -0.3123 -0.5900 -1.1807
  900MOL0     C24077   8.355   3.779   7.171 -0.5815  0.1638 -0.7708
  900MOL0     C24078   8.481   3.861   7.187 -0.4129  0.7810  0.2238
  900MOL0     N24079   8.498   3.976   7.106  0.1053 -0.3211  0.2855
  900MOL0     C24080   8.413   4.086   7.101  0.4241 -0.3055 -0.6372
  900MOL0     C24081   8.481   4.173   7.027  1.2504 -0.0107  0.2400
  900MOL0     C24082   8.438   4.314   6.999  0.4126  0.4080  0.6995
  900MOL0     C24083   8.539   4.406   7.074  0.6487 -0.2817  0.4506
  900MOL0     C24084   8.551   4.554   7.019 -0.9592 -0.7522 -0.0026
  900MOL0     C24085   8.673   4.616   7.086  0.2807  0.2071 -0.2428
  900MOL0     O24086   8.674   4.753   7.043 -0.1664  0.6513 -0.0775
  900MOL0     C24087   8.785   4.827   7.062  0.1438  0.0020 -0.0275
  900MOL0     C24088   8.773   4.964   7.029 -0.0107  0.0513 -0.6693
  900MOL0     C24089   8.868   5.063   7.051 -0.2181 -0.1102  0.0005
  900MOL0     C24090   8.834   5.204   7.011  0.6143 -0.0724  0.4819
  900MOL0     C24091   8.995   5.018   7.098  0.0824  0.3562 -0.2644
  900MOL0     C24092   9.121   5.099   7.100  0.3681  0.3435  0.4583
  900MOL0     O24093   9.115   5.212   7.026  0.3201 -0.3910  0.1851
  900MOL0     C24094   9.212   5.302   7.051 -0.7054  0.7915 -0.3173
  900MOL0     C24095   9.208   5.389   7.155  0.8829  0.1371 -0.1685
  900MOL0     C24096   9.320   5.475   7.181 -0.2223  0.3458 -0.2415
  900MOL0     C24097   9.439   5.471   7.101  0.8793 -0.7734  0.2715
  900MOL0     O24098   9.539   5.566   7.111  0.5055  0.4163 -0.7029
  900MOL0     C24099   9.537   5.652   7.228  0.2108  0.1748 -0.0868
  900MOL0     C24100   9.659   5.736   7.215 -0.1206 -0.0304  0.3854
  900MOL0     C24101   9.782   5.658   7.274  0.2378 -0.9848 -0.2165
  900MOL0     C24102   9.910   5.717   7.232 -0.3855 -0.5378 -0.8632
  900MOL0     C24103  10.031   5.666   7.317 -0.1132 -0.3908 -0.5574
  900MOL0     C24104  10.075   5.523   7.278  0.3961 -0.3663  0.3484
  900MOL0     C24105  10.194   5.491   7.372 -0.1345 -0.3988  0.3152
  900MOL0     C24106  10.231   5.348   7.389  0.3797 -0.5269  0.2401
  900MOL0    Cl24107  10.281   5.285   7.220 -0.1730 -0.1464 -0.0491
  900MOL0     C24108   9.435   5.384   6.991  0.0139 -0.3291  1.0200
  900MOL0     C24109   9.328   5.305   6.966 -0.3388  0.2589  0.1801
  900MOL0     O24110   9.212   5.066   7.169  0.1549  0.1109  0.1246
  900MOL0     C24111   9.003   4.886   7.136  0.4943 -0.0503 -0.3297
  900MOL0     C24112   8.904   4.787   7.125 -0.3132 -0.6321  0.3562
  900MOL0     N24113   8.599   4.120   6.986 -0.5162 -0.0251 -0.4735
  900MOL0     N24114   8.612   4.010   7.041 -0.6752 -0.1339  0.0157
  900MOL0     C24115   7.512   3.383   6.914 -0.2242  0.3027 -0.0068
  900MOL0     C24116   7.403   3.347   6.826  0.0877  1.1095  0.3271
  900MOL0     C24117   7.080   3.255   6.534  0.3781  0.3488  0.1243
  900MOL0     C24118   7.030   3.373   6.470  0.7008 -0.5227  0.9650
  900MOL0     C24119   6.908   3.383   6.396 -0.1025 -0.8612 -0.2376
  900MOL0     C24120   6.831   3.274   6.377 -0.2651  0.7632  0.1562
  900MOL0     O24121   6.716   3.288   6.305  0.4150  1.1061 -0.0176
  900MOL0     C24122   6.615   3.187   6.316 -0.3412 -0.2939 -0.1362
  900MOL0     C24123   6.501   3.228   6.220  0.4517  0.8474  0.0503
  900MOL0     C24124   6.403   3.110   6.207  0.6521 -0.7506 -0.1802
  900MOL0     C24125   6.440   3.025   6.082  0.1719 -1.3073  1.2005
  900MOL0     C24126   6.380   3.097   5.967  0.5218 -0.2566 -0.0802
  900MOL0     C24127   6.343   3.157   5.868  0.4130 -0.0801  0.4708
  900MOL0     C24128   6.875   3.154   6.437 -0.0785 -0.3033  0.4323
  900MOL0     C24129   6.999   3.136   6.507  0.0573  0.7059  0.8901
  900MOL0     C24130   7.010   2.997   6.566 -0.7860 -0.4016 -0.0146
  900MOL0     H24131   7.440   3.588   6.594 -2.5748  1.9162  1.1888
  900MOL0     H24132   7.625   3.649   6.738  0.3066  0.0976 -1.1544
  900MOL0     H24133   7.800   3.378   7.054  2.1083  0.9739  2.9160
  900MOL0     H24134   7.675   3.460   7.148 -1.3851  0.3071 -0.6092
  900MOL0     H24135   7.820   3.666   7.142  0.7056 -0.1253  1.5534
  900MOL0     H24136   7.881   3.526   7.228  0.5252 -0.4879 -1.5793
  900MOL0     H24137   8.034   3.453   7.074  0.5632 -0.5177 -2.4441
  900MOL0     H24138   7.957   3.566   6.949  0.0734  1.3408  0.4200
  900MOL0     H24139   8.032   3.760   7.070 -0.1918  0.3301  3.9339
  900MOL0     H24140   8.113   3.674   7.189  0.2191 -1.2990  0.5496
  900MOL0     H24141   8.192   3.657   6.890 -0.2437  1.2876 -0.1337
  900MOL0     H24142   8.263   3.559   7.002 -2.2720 -1.1925 -1.3393
  900MOL0     H24143   8.393   3.784   6.958  0.3387 -1.7529 -0.5721
  900MOL0     H24144   8.259   3.871   7.013  2.7308  1.1760 -0.1238
  900MOL0     H24145   8.364   3.678   7.212  2.6701  0.9117  0.6585
  900MOL0     H24146   8.274   3.824   7.229 -1.0721 -1.7916  0.1371
  900MOL0     H24147   8.483   3.894   7.291 -0.6891  0.0151  0.4774
  900MOL0     H24148   8.569   3.800   7.167 -0.5884  0.5820  0.0516
  900MOL0     H24149   8.311   4.083   7.140  0.1594 -4.0854 -1.2010
  900MOL0     H24150   8.336   4.340   7.028 -0.1747 -0.4641 -0.4906
  900MOL0     H24151   8.455   4.339   6.894  1.6094  1.7813  1.1751
  900MOL0     H24152   8.513   4.395   7.180 -2.7237 -0.4416 -0.2647
  900MOL0     H24153   8.633   4.355   7.053 -0.7583 -1.9065 -2.4212
  900MOL0     H24154   8.557   4.559   6.910 -1.2664  4.0697  0.0109
  900MOL0     H24155   8.459   4.608   7.042 -1.9915 -1.6796 -1.7059
  900MOL0     H24156   8.677   4.610   7.195 -0.6409  0.6603 -0.1741
  900MOL0     H24157   8.764   4.567   7.051  0.0689 -0.6264  0.3615
  900MOL0     H24158   8.677   4.998   6.991 -0.7913 -0.0702  1.1271
  900MOL0     H24159   8.892   5.235   6.923 -0.5685 -0.5995 -0.5096
  900MOL0     H24160   8.860   5.270   7.095  5.6890 -1.9339  0.7229
  900MOL0     H24161   8.733   5.202   6.969  0.2608 -1.2308  1.3628
  900MOL0     H24162   9.119   5.394   7.216  0.9705 -0.7792  0.0550
  900MOL0     H24163   9.309   5.540   7.267  0.9675  1.3475 -0.8170
  900MOL0     H24164   9.442   5.707   7.231  0.7947  1.2211 -0.3704
  900MOL0     H24165   9.543   5.597   7.322  2.1805  2.5668  1.3055
  900MOL0     H24166   9.669   5.760   7.108 -0.8415  0.3712  0.4047
  900MOL0     H24167   9.637   5.829   7.268 -1.4231 -0.5710  0.8160
  900MOL0     H24168   9.782   5.554   7.240 -2.1055 -1.4044  0.9169
  900MOL0     H24169   9.769   5.656   7.382 -1.2092  0.3710 -0.3319
  900MOL0     H24170   9.902   5.825   7.247  2.1869  0.3122 -4.3082
  900MOL0     H24171   9.931   5.692   7.127 -0.5399 -0.5239 -0.8967
  900MOL0     H24172  10.114   5.735   7.299  0.4321 -0.9181 -0.1302
  900MOL0     H24173  10.003   5.664   7.423  2.7994  0.2984  0.3254
  900MOL0     H24174  10.109   5.521   7.174 -0.8295  0.7358 -0.1041
  900MOL0     H24175   9.992   5.452   7.289  0.2253 -0.8167 -2.8809
  900MOL0     H24176  10.175   5.538   7.469  1.8642  0.0893  0.5094
  900MOL0     H24177  10.275   5.546   7.324  0.3489  0.6787  2.2753
  900MOL0     H24178  10.137   5.294   7.401 -0.7102  1.0422 -0.8749
  900MOL0     H24179  10.304   5.324   7.467  1.4130 -0.7984 -0.7669
  900MOL0     H24180   9.523   5.371   6.929 -2.8812 -2.3288 -3.1595
  900MOL0     H24181   9.331   5.226   6.892  2.4975  1.0943 -0.7290
  900MOL0     H24182   9.091   4.845   7.184  1.1845  1.3617 -0.3242
  900MOL0     H24183   8.919   4.685   7.158  1.6067  0.1005  1.8988
  900MOL0     H24184   7.515   3.351   7.018  1.1653  0.2735 -0.0372
  900MOL0     H24185   7.332   3.274   6.864 -0.7216  2.4572  1.4996
  900MOL0     H24186   7.070   3.473   6.482 -3.4041  1.5508 -0.5820
  900MOL0     H24187   6.867   3.468   6.342 -0.8234 -1.0507 -0.0070
  900MOL0     H24188   6.654   3.087   6.293  0.2590 -0.3072  0.8538
  900MOL0     H24189   6.575   3.188   6.418 -0.2492 -1.9098 -0.0583
  900MOL0     H24190   6.548   3.244   6.123  1.1397 -2.8507 -0.3766
  900MOL0     H24191   6.457   3.320   6.260  0.6534  0.4399  1.2566
  900MOL0     H24192   6.413   3.053   6.300 -0.6995  1.3289  1.3308
  900MOL0     H24193   6.299   3.142   6.204  0.5488 -1.1363 -1.3581
  900MOL0     H24194   6.396   2.925   6.085  2.8017 -2.6532 -0.6338
  900MOL0     H24195   6.549   3.025   6.073  0.2887  2.9688  0.3253
  900MOL0     H24196   6.307   3.209   5.781 -0.7763 -0.8314  0.4947
  900MOL0     H24197   6.813   3.065   6.437  0.1020 -0.5001 -2.2321
  900MOL0     H24198   6.941   2.985   6.650 -1.9676 -0.2749 -0.9413
  900MOL0     H24199   6.982   2.922   6.492  0.9304 -1.3607  0.2628
  900MOL0     H24200   7.113   2.971   6.593  0.4792  3.4169 -0.4332
  901MOL0     O24201   3.758   7.891   2.437  0.2478  0.2036  0.1964
  901MOL0     C24202   3.706   7.916   2.331 -0.9530 -0.8226  0.9386
  901MOL0     O24203   3.769   7.974   2.234 -0.5773 -0.3477  0.1648
  901MOL0     C24204   3.903   8.009   2.258 -0.0576 -0.1721  1.0135
  901MOL0     C24205   3.951   8.095   2.353  0.1423 -0.1777 -0.5451
  901MOL0     C24206   4.093   8.125   2.366 -0.5907 -0.1548 -0.9487
  901MOL0     C24207   4.187   8.077   2.268  0.1020  0.3365  1.1543
  901MOL0     O24208   4.322   8.079   2.276  0.2199  0.2480 -0.7383
  901MOL0     C24209   4.391   8.182   2.333 -0.7893  0.2195 -0.2809
  901MOL0     C24210   4.543   8.184   2.300  0.3056  0.2386 -0.1022
  901MOL0     C24211   4.629   8.263   2.401 -0.2441 -0.1131  0.2885
  901MOL0     C24212   4.767   8.250   2.343 -0.1035  0.2009  0.1451
  901MOL0     C24213   4.863   8.305   2.449 -0.1264  0.5463  0.1273
  901MOL0     C24214   4.996   8.337   2.391 -0.2319  0.4867  0.3711
  901MOL0     C24215   5.056   8.214   2.326  0.8404 -0.9289  0.6425
  901MOL0     C24216   5.205   8.197   2.336  0.5503 -0.0506 -0.3176
  901MOL0     N24217   5.245   8.157   2.467 -0.1549  0.2557  0.4819
  901MOL0     C24218   5.193   8.048   2.524  0.1077  0.4133  0.6452
  901MOL0     C24219   5.253   8.047   2.643  0.0433 -0.4046 -0.5536
  901MOL0     C24220   5.220   7.961   2.767 -0.5718 -1.1525  0.1849
  901MOL0     C24221   5.307   7.982   2.893 -0.6080 -0.2173 -0.5216
  901MOL0     C24222   5.454   7.941   2.912  0.1373 -0.6658  0.8614
  901MOL0     C24223   5.535   8.049   2.976 -0.6424 -0.1446 -0.9451
  901MOL0     O24224   5.669   8.001   2.973 -0.5280  0.1888 -0.2151
  901MOL0     C24225   5.770   8.043   3.062  0.0132  0.7021  0.0599
  901MOL0     C24226   5.756   8.139   3.166 -0.0206  0.6462 -0.5825
  901MOL0     C24227   5.853   8.169   3.259 -0.3333  0.3094  0.6231
  901MOL0     C24228   5.820   8.283   3.351  0.0811 -0.5663 -0.6180
  901MOL0     C24229   5.968   8.099   3.244  0.0301 -0.5532 -0.5892
  901MOL0     C24230   6.097   8.133   3.318  0.3793 -0.1411  0.2714
  901MOL0     O24231   6.195   8.034   3.322 -0.0177  0.2014  0.2872
  901MOL0     C24232   6.297   8.034   3.413 -0.4551 -0.5532  0.0208
  901MOL0     C24233   6.263   8.046   3.544 -0.8279  0.2585 -0.0590
  901MOL0     C24234   6.366   8.058   3.635 -0.3824 -0.3275 -0.5576
  901MOL0     C24235   6.501   8.046   3.601 -0.3205  1.0970 -0.0984
  901MOL0     O24236   6.604   8.039   3.695  0.1237  0.0830  0.5855
  901MOL0     C24237   6.565   8.091   3.828  0.1796  1.5738  0.2104
  901MOL0     C24238   6.687   8.124   3.906 -0.1124  0.2848 -1.0332
  901MOL0     C24239   6.794   8.009   3.904 -0.6730 -0.4898 -0.8381
  901MOL0     C24240   6.930   8.070   3.963  0.5292 -0.2853 -0.8896
  901MOL0     C24241   6.992   8.172   3.865  0.4699 -0.1508 -0.9512
  901MOL0     C24242   7.134   8.221   3.904  0.3301 -0.0724  0.6165
  901MOL0     C24243   7.245   8.115   3.878 -0.7031  0.3239 -0.1383
  901MOL0     C24244   7.277   8.092   3.730 -0.7137 -0.2496  0.3388
  901MOL0    Cl24245   7.164   7.996   3.634 -0.0212 -0.4803 -0.1647
  901MOL0     C24246   6.530   8.025   3.463  0.6418  0.0340  0.3206
  901MOL0     C24247   6.430   8.026   3.368 -0.3071  0.1661 -0.2926
  901MOL0     O24248   6.109   8.237   3.374 -0.0843 -0.6721 -0.6077
  901MOL0     C24249   5.982   7.987   3.155  0.0157  0.0575  0.4229
  901MOL0     C24250   5.885   7.961   3.063  0.5745  0.3028 -0.9921
  901MOL0     N24251   5.357   8.133   2.643  0.6027 -1.3406  0.1175
  901MOL0     N24252   5.346   8.210   2.540  0.5093  0.5341 -0.9355
  901MOL0     C24253   4.138   7.979   2.176 -0.1431  0.3710  0.2065
  901MOL0     C24254   4.001   7.952   2.174 -0.9468  0.6389  0.1406
  901MOL0     C24255   3.557   7.892   2.307 -0.3945  0.3289  0.1061
  901MOL0     C24256   3.465   7.881   2.424 -0.0622 -0.1304 -0.6432
  901MOL0     C24257   3.333   7.896   2.407  0.0663 -0.0650 -0.8238
  901MOL0     C24258   3.281   7.898   2.277  0.2343 -0.6344  0.4039
  901MOL0     O24259   3.145   7.895   2.269  0.2182  0.1638 -0.0638
  901MOL0     C24260   3.071   7.922   2.157  0.4869  0.0812  0.5910
  901MOL0     C24261   3.098   8.065   2.102 -0.4178 -0.2947  0.7597
  901MOL0     C24262   3.039   8.096   1.963 -0.8179 -0.2388  0.6322
  901MOL0     C24263   2.890   8.078   1.951  0.6180 -0.4721 -0.0162
  901MOL0     C24264   2.836   8.154   1.839  0.3839 -0.0271  0.9644
  901MOL0     C24265   2.794   8.189   1.728  0.5218  0.7610  0.1683
  901MOL0     C24266   3.369   7.886   2.167 -0.6895  0.1839 -0.2945
  901MOL0     C24267   3.505   7.879   2.180  0.1222  0.4979 -0.1734
  901MOL0     C24268   3.582   7.852   2.055 -0.1938 -0.6760  0.5863
  901MOL0     H24269   3.890   8.141   2.430 -2.0160  0.7213 -2.7117
  901MOL0     H24270   4.128   8.190   2.446 -2.4578  0.5787 -0.6878
  901MOL0     H24271   4.384   8.169   2.442 -0.5366  4.2623  0.3981
  901MOL0     H24272   4.336   8.272   2.303 -0.4700  0.3462 -0.4918
  901MOL0     H24273   4.563   8.077   2.311  1.4578  0.4328 -0.1764
  901MOL0     H24274   4.542   8.214   2.195 -3.9640  1.9937  0.2258
  901MOL0     H24275   4.595   8.367   2.408  1.3446  0.4625 -0.0176
  901MOL0     H24276   4.621   8.215   2.499  0.0466  1.3798  1.0829
  901MOL0     H24277   4.791   8.146   2.319 -3.2706 -0.4488 -0.6679
  901MOL0     H24278   4.764   8.302   2.247 -1.4599  0.0767  0.1118
  901MOL0     H24279   4.868   8.243   2.539  1.5542  1.5478  0.7685
  901MOL0     H24280   4.824   8.402   2.480  2.2726  1.7812 -0.4777
  901MOL0     H24281   4.982   8.422   2.324 -0.7458  1.7259  1.9639
  901MOL0     H24282   5.058   8.378   2.472 -0.2739  2.4046 -0.5192
  901MOL0     H24283   5.041   8.227   2.218 -0.1960  1.0805  1.0017
  901MOL0     H24284   5.003   8.125   2.360  0.4241  0.0688  2.7297
  901MOL0     H24285   5.242   8.119   2.270  2.3638  0.1412  0.4261
  901MOL0     H24286   5.269   8.279   2.304  1.2059 -0.7133 -0.7509
  901MOL0     H24287   5.115   7.978   2.498  0.9745 -0.2022 -0.3797
  901MOL0     H24288   5.225   7.861   2.722  0.3790 -1.9618  1.9946
  901MOL0     H24289   5.120   7.983   2.806 -0.0423  0.7492  0.5607
  901MOL0     H24290   5.303   8.090   2.905  0.1981 -0.0616 -1.5229
  901MOL0     H24291   5.252   7.932   2.973 -0.5856  1.5968  0.6755
  901MOL0     H24292   5.469   7.848   2.968  0.0100 -2.9745 -2.6374
  901MOL0     H24293   5.494   7.939   2.811 -1.8304  3.4697 -0.2318
  901MOL0     H24294   5.523   8.144   2.923 -1.8447  0.5949  0.5657
  901MOL0     H24295   5.496   8.076   3.075  0.5029  1.5242 -0.9116
  901MOL0     H24296   5.667   8.198   3.188 -0.3769  0.7580 -2.2118
  901MOL0     H24297   5.824   8.377   3.295 -0.6418 -1.0039 -1.4290
  901MOL0     H24298   5.881   8.290   3.442 -2.4462  1.6853  1.0688
  901MOL0     H24299   5.719   8.268   3.390 -0.4574  0.6834 -1.4551
  901MOL0     H24300   6.158   8.047   3.570 -0.4190  1.1270  1.7311
  901MOL0     H24301   6.343   8.054   3.741 -0.0933 -0.7655 -0.5114
  901MOL0     H24302   6.504   8.180   3.812 -3.8288 -1.3629 -3.7275
  901MOL0     H24303   6.508   8.023   3.892  3.2779 -0.9585  0.5458
  901MOL0     H24304   6.726   8.217   3.865  0.5854  0.5776  0.2325
  901MOL0     H24305   6.660   8.135   4.012  3.2226  2.4366 -0.2288
  901MOL0     H24306   6.813   7.980   3.800  1.0287 -1.1882 -0.3694
  901MOL0     H24307   6.767   7.918   3.959 -0.2596  0.8370  1.7036
  901MOL0     H24308   7.005   8.002   4.005  0.3080 -0.3081 -0.5217
  901MOL0     H24309   6.897   8.130   4.049  1.0047  0.9097 -1.5275
  901MOL0     H24310   6.993   8.121   3.768  0.0307 -0.7419 -0.6518
  901MOL0     H24311   6.930   8.262   3.859 -0.1443  0.2440  5.0257
  901MOL0     H24312   7.125   8.246   4.010  0.5545 -0.8197  0.8171
  901MOL0     H24313   7.152   8.314   3.848 -2.5488 -0.6888 -1.5854
  901MOL0     H24314   7.223   8.018   3.925  1.1977  0.5114  1.2597
  901MOL0     H24315   7.331   8.158   3.930 -0.5534 -0.0160 -0.0978
  901MOL0     H24316   7.374   8.042   3.729 -0.6444 -0.1829  1.7420
  901MOL0     H24317   7.299   8.186   3.678  0.8586 -1.5391 -1.4691
  901MOL0     H24318   6.629   8.005   3.424  0.6889  2.2698 -0.8785
  901MOL0     H24319   6.448   7.998   3.265 -0.5954 -2.7073  0.3727
  901MOL0     H24320   6.066   7.919   3.150 -0.8237 -1.1785  2.0044
  901MOL0     H24321   5.889   7.874   2.998  1.9976  1.1811 -2.1348
  901MOL0     H24322   4.209   7.932   2.109 -0.8600  1.0852 -1.1093
  901MOL0     H24323   3.957   7.889   2.097 -2.1860  3.5211 -1.6706
  901MOL0     H24324   3.517   7.885   2.520  2.2055 -0.8710 -1.7494
  901MOL0     H24325   3.259   7.887   2.486 -0.1064  0.6962 -0.8903
  901MOL0     H24326   3.104   7.849   2.081  0.1183  2.2012 -1.7241
  901MOL0     H24327   2.962   7.916   2.161  0.2338  0.7631 -2.5782
  901MOL0     H24328   3.205   8.089   2.094 -0.4712 -0.7214 -1.9668
  901MOL0     H24329   3.061   8.142   2.170 -0.1459  2.1694 -1.7344
  901MOL0     H24330   3.065   8.194   1.924  0.7685 -0.9816 -0.2531
  901MOL0     H24331   3.090   8.030   1.892 -1.5962  0.7623 -0.9012
  901MOL0     H24332   2.833   8.096   2.042  0.7325 -2.2348  0.4334
  901MOL0     H24333   2.868   7.972   1.939 -1.7092  0.1094 -1.5373
  901MOL0     H24334   2.767   8.231   1.633  2.5483 -1.4904 -1.5355
  901MOL0     H24335   3.324   7.889   2.068  1.3601  2.5448 -1.2573
  901MOL0     H24336   3.535   7.778   1.990 -1.2473 -0.5528  1.1880
  901MOL0     H24337   3.609   7.947   2.007  0.5829 -0.9417  0.4725
  901MOL0     H24338   3.673   7.796   2.080 -0.1989 -0.8708  0.1728
  902MOL0     O24339   7.491   4.101   1.311  0.1177  0.6291  0.0036
  902MOL0     C24340   7.541   4.058   1.212  0.1939  0.1906  1.4428
  902MOL0     O24341   7.674   4.062   1.181  0.0071 -0.0440 -0.1670
  902MOL0     C24342   7.752   4.148   1.256  0.0084  0.4839  0.2584
  902MOL0     C24343   7.732   4.280   1.294  0.2915  0.6008  0.8476
  902MOL0     C24344   7.828   4.353   1.371  0.4667  0.4337 -0.4358
  902MOL0     C24345   7.947   4.290   1.413 -0.9148 -0.3585 -0.1045
  902MOL0     O24346   8.035   4.358   1.490 -0.3568  1.0172  0.0098
  902MOL0     C24347   8.145   4.286   1.537 -0.7037  0.4525  0.0544
  902MOL0     C24348   8.258   4.364   1.597  0.7769  0.0074 -0.0180
  902MOL0     C24349   8.380   4.266   1.619 -0.6066 -0.5752  0.2967
  902MOL0     C24350   8.482   4.351   1.684  0.3405  0.2244 -0.4069
  902MOL0     C24351   8.606   4.272   1.720  0.2077  0.0997 -0.1348
  902MOL0     C24352   8.698   4.364   1.804 -0.5775  0.0712  0.5758
  902MOL0     C24353   8.748   4.483   1.733  0.0269  0.2014 -1.3842
  902MOL0     C24354   8.860   4.555   1.807 -0.0905 -0.1283 -0.3425
  902MOL0     N24355   8.987   4.481   1.805 -0.1186  0.2980 -0.3803
  902MOL0     C24356   9.056   4.429   1.700  0.2413  0.0956 -0.6009
  902MOL0     C24357   9.167   4.363   1.761  0.6072 -0.0556 -0.0648
  902MOL0     C24358   9.276   4.283   1.693  0.1296  0.3775  0.3374
  902MOL0     C24359   9.378   4.219   1.793  0.4055  0.0792  0.1239
  902MOL0     C24360   9.489   4.153   1.707 -0.2685  0.4134 -0.8026
  902MOL0     C24361   9.561   4.054   1.793  0.6402 -0.2426 -0.3690
  902MOL0     O24362   9.662   4.126   1.862 -0.3078  0.3604  0.1804
  902MOL0     C24363   9.766   4.050   1.915  0.2923  0.0486 -0.9949
  902MOL0     C24364   9.881   4.120   1.958  0.4068  0.4697 -0.1415
  902MOL0     C24365   9.990   4.054   2.007 -0.9933 -1.4752 -0.9820
  902MOL0     C24366  10.104   4.152   2.053  0.4139  0.3280  0.4344
  902MOL0     C24367  10.003   3.914   2.011  0.2884 -0.6671  0.0035
  902MOL0     C24368  10.122   3.835   2.038 -0.0378  0.1828 -0.6931
  902MOL0     O24369  10.131   3.715   1.974 -0.3234 -0.3355  0.3219
  902MOL0     C24370  10.230   3.627   2.009  1.1152 -0.9933  0.3887
  902MOL0     C24371  10.346   3.623   1.928  0.1709  0.1872 -0.6330
  902MOL0     C24372  10.438   3.516   1.932 -0.7694  0.3430  0.0926
  902MOL0     C24373  10.426   3.419   2.033  0.4991  0.3708  0.1748
  902MOL0     O24374  10.526   3.323   2.029  0.3420  0.2955 -0.3143
  902MOL0     C24375  10.554   3.255   2.148 -0.5678 -0.7538 -0.1607
  902MOL0     C24376  10.680   3.168   2.137  0.2082  0.2789 -0.0361
  902MOL0     C24377  10.794   3.264   2.144  0.1600  1.1835 -0.0810
  902MOL0     C24378  10.913   3.165   2.143 -0.0321  0.5328  0.0477
  902MOL0     C24379  11.046   3.232   2.103 -0.1945 -0.3862  0.7500
  902MOL0     C24380  11.055   3.292   1.958  0.4118  0.0054  0.0567
  902MOL0     C24381  11.023   3.185   1.854  0.2323  0.3505 -0.3599
  902MOL0     C24382  11.082   3.235   1.718 -0.3195  0.1594  0.9467
  902MOL0    Cl24383  11.058   3.099   1.596 -0.3078  0.5195 -0.0201
  902MOL0     C24384  10.314   3.418   2.122  0.5481 -0.2553  0.8847
  902MOL0     C24385  10.218   3.528   2.108  0.4703 -0.1410  0.6180
  902MOL0     O24386  10.198   3.877   2.119 -0.5133  0.3030  0.3663
  902MOL0     C24387   9.893   3.842   1.979  0.4726 -0.8666  0.5756
  902MOL0     C24388   9.769   3.913   1.941 -0.2810  0.0127 -0.6364
  902MOL0     N24389   9.154   4.386   1.898 -0.7493  0.3575  0.3612
  902MOL0     N24390   9.048   4.454   1.924 -0.4158 -0.2828 -0.1546
  902MOL0     C24391   7.961   4.149   1.385 -0.0821 -0.9600 -0.4212
  902MOL0     C24392   7.873   4.089   1.299 -0.0730  0.1487 -0.0407
  902MOL0     C24393   7.459   3.988   1.102 -1.3122 -0.5242 -0.3458
  902MOL0     C24394   7.522   3.920   1.004 -0.0322 -0.5880  0.1955
  902MOL0     C24395   7.446   3.842   0.915 -0.5977 -0.9653  0.5986
  902MOL0     C24396   7.312   3.846   0.926 -0.2125 -0.5203  0.4483
  902MOL0     O24397   7.246   3.776   0.829 -0.3046  0.3616  0.4172
  902MOL0     C24398   7.249   3.840   0.696 -0.4782 -0.9198 -0.8632
  902MOL0     C24399   7.175   3.748   0.600  0.4199  0.2673 -0.5823
  902MOL0     C24400   7.260   3.634   0.551  0.0169 -0.2807  0.5250
  902MOL0     C24401   7.175   3.569   0.439 -0.0139 -0.1695 -0.1556
  902MOL0     C24402   7.261   3.498   0.343  0.2451 -0.4189 -0.0922
  902MOL0     C24403   7.332   3.430   0.276 -0.2851 -0.5271 -0.4114
  902MOL0     C24404   7.246   3.918   1.023  0.2146 -0.1260 -0.1016
  902MOL0     C24405   7.324   3.997   1.112 -0.2652 -0.3630  0.2859
  902MOL0     C24406   7.232   4.090   1.201  0.4920 -0.2530  0.3215
  902MOL0     H24407   7.636   4.328   1.278  0.9201  1.4631 -0.6171
  902MOL0     H24408   7.800   4.447   1.417  0.5321 -0.1042  0.7177
  902MOL0     H24409   8.189   4.231   1.453  0.3781  1.5263 -0.1012
  902MOL0     H24410   8.107   4.213   1.610  2.6142 -0.2114  1.3043
  902MOL0     H24411   8.287   4.448   1.532  1.3816  1.4970  2.0601
  902MOL0     H24412   8.224   4.412   1.689  0.8245  1.8643 -0.9182
  902MOL0     H24413   8.353   4.187   1.690  1.5091 -0.2771  1.5017
  902MOL0     H24414   8.420   4.228   1.524  1.3156  0.7713  0.5197
  902MOL0     H24415   8.502   4.436   1.618 -2.5806 -1.0532 -3.2111
  902MOL0     H24416   8.444   4.385   1.781  1.4047  1.1278 -0.2835
  902MOL0     H24417   8.656   4.228   1.634  0.4589 -2.4425  1.2318
  902MOL0     H24418   8.584   4.187   1.784  0.1395 -0.1189 -0.4450
  902MOL0     H24419   8.648   4.391   1.898 -0.8004  0.3957  0.3646
  902MOL0     H24420   8.781   4.300   1.836 -0.8151 -0.4245  0.2155
  902MOL0     H24421   8.668   4.557   1.733  0.2172  0.6741  3.4078
  902MOL0     H24422   8.789   4.458   1.634  1.4837 -0.4027 -0.6701
  902MOL0     H24423   8.884   4.649   1.756  1.0108 -0.5747 -0.6858
  902MOL0     H24424   8.826   4.576   1.909 -3.0738 -1.9208 -0.8472
  902MOL0     H24425   9.026   4.442   1.596 -1.1281 -1.8746 -0.5134
  902MOL0     H24426   9.329   4.344   1.619 -0.7292  0.6037 -0.1005
  902MOL0     H24427   9.234   4.200   1.635  1.3352  0.0224 -0.0734
  902MOL0     H24428   9.424   4.288   1.864 -2.3546  1.3672  0.7653
  902MOL0     H24429   9.332   4.136   1.848  0.2611  0.8326  1.1758
  902MOL0     H24430   9.444   4.094   1.627 -1.2747 -1.2194  0.9003
  902MOL0     H24431   9.564   4.218   1.662 -0.1434  0.4296 -0.5735
  902MOL0     H24432   9.495   4.005   1.866  1.5270  0.8952  1.2656
  902MOL0     H24433   9.597   3.980   1.720 -1.5037 -0.5701 -1.1689
  902MOL0     H24434   9.889   4.228   1.956  2.4454  0.3467 -1.0584
  902MOL0     H24435  10.065   4.244   2.096  3.0286  3.2760 -2.9051
  902MOL0     H24436  10.169   4.181   1.970  1.0084  1.9558  1.4375
  902MOL0     H24437  10.165   4.109   2.133  2.3519  1.8752 -0.1428
  902MOL0     H24438  10.351   3.696   1.848 -1.9955  0.0194 -0.9625
  902MOL0     H24439  10.527   3.497   1.872 -0.5544 -3.6668  1.3763
  902MOL0     H24440  10.564   3.322   2.234 -0.4526 -1.5628  0.4681
  902MOL0     H24441  10.465   3.199   2.179 -1.4151 -0.0606 -1.2394
  902MOL0     H24442  10.680   3.094   2.217 -0.4116 -0.6360 -0.8591
  902MOL0     H24443  10.672   3.117   2.040 -2.8392 -0.0550  0.2813
  902MOL0     H24444  10.804   3.320   2.238  0.1995  2.8387 -1.0242
  902MOL0     H24445  10.800   3.330   2.057  1.0348  0.3159 -0.7020
  902MOL0     H24446  10.890   3.082   2.075 -1.6589 -0.6605  1.9467
  902MOL0     H24447  10.920   3.118   2.241 -0.9755 -0.2058 -0.2187
  902MOL0     H24448  11.061   3.319   2.168  1.4553  1.2439 -1.6408
  902MOL0     H24449  11.125   3.158   2.112 -0.5523 -0.7843  0.6613
  902MOL0     H24450  11.158   3.320   1.935  1.2390 -2.4887  0.4109
  902MOL0     H24451  10.989   3.376   1.937  0.2510 -0.8190 -3.2301
  902MOL0     H24452  10.914   3.176   1.857  0.3393 -1.2233  3.1460
  902MOL0     H24453  11.071   3.092   1.886 -1.6594 -0.8265 -0.8252
  902MOL0     H24454  11.188   3.257   1.733 -0.0601  0.1890 -0.6831
  902MOL0     H24455  11.032   3.327   1.685  2.6100  0.9424 -1.8246
  902MOL0     H24456  10.302   3.343   2.199 -0.5554 -2.3730 -1.1895
  902MOL0     H24457  10.135   3.525   2.177 -0.4039  0.0254 -0.3986
  902MOL0     H24458   9.901   3.734   1.983  1.5317 -1.0061 -2.6516
  902MOL0     H24459   9.678   3.855   1.932  0.1680 -0.6738 -0.8576
  902MOL0     H24460   8.052   4.095   1.407 -0.1992 -1.0500 -0.1394
  902MOL0     H24461   7.892   3.990   1.258 -0.5602 -0.5498  1.3232
  902MOL0     H24462   7.630   3.921   0.995 -0.1009  2.4363 -1.4506
  902MOL0     H24463   7.491   3.777   0.840 -0.0476  0.9496 -0.7884
  902MOL0     H24464   7.200   3.938   0.690  0.8499 -0.2600 -1.4407
  902MOL0     H24465   7.351   3.859   0.661 -0.6389 -1.5661 -1.6877
  902MOL0     H24466   7.143   3.816   0.520 -0.9204 -0.0771 -0.3655
  902MOL0     H24467   7.086   3.699   0.639  2.2567 -0.6053  2.8998
  902MOL0     H24468   7.350   3.675   0.503 -1.0061 -0.0334 -1.2793
  902MOL0     H24469   7.286   3.565   0.631  0.4776  1.2270  1.7166
  902MOL0     H24470   7.120   3.646   0.385 -1.9981  0.2873  2.3138
  902MOL0     H24471   7.097   3.509   0.486  0.8099  1.0050  2.9673
  902MOL0     H24472   7.397   3.369   0.218  0.0542 -0.1547 -0.4267
  902MOL0     H24473   7.138   3.924   1.032  0.4417  2.1141  1.9688
  902MOL0     H24474   7.130   4.084   1.162 -0.2156 -1.3101  2.2172
  902MOL0     H24475   7.228   4.061   1.306 -0.7065 -0.4452  0.2362
  902MOL0     H24476   7.273   4.191   1.191  1.7788 -0.8337 -0.6656
  903MOL0     O24477   2.380  11.040   1.293  0.1039 -0.4723  0.7612
  903MOL0     C24478   2.304  11.051   1.193 -1.0624  0.1312  0.0474
  903MOL0     O24479   2.350  11.076   1.068 -0.0336 -0.1270 -0.8606
  903MOL0     C24480   2.482  11.091   1.059 -0.2615 -0.3738 -0.3486
  903MOL0     C24481   2.572  10.982   1.054 -0.8109 -1.1164 -0.4780
  903MOL0     C24482   2.708  11.004   1.025 -0.9980  0.3020 -0.1619
  903MOL0     C24483   2.756  11.133   0.997 -0.2161 -0.3679  0.1743
  903MOL0     O24484   2.881  11.160   0.973  1.0481 -0.2341  0.6917
  903MOL0     C24485   2.984  11.126   1.071  0.1636  0.3180  0.5806
  903MOL0     C24486   3.098  11.225   1.050  1.1732 -0.5474 -0.7882
  903MOL0     C24487   3.238  11.169   1.075 -0.4378  0.6118  0.0286
  903MOL0     C24488   3.355  11.269   1.081 -0.6115  0.3758 -0.3826
  903MOL0     C24489   3.449  11.267   0.967 -0.1996 -0.7642  0.2909
  903MOL0     C24490   3.384  11.309   0.839  0.2744 -0.3962 -0.3923
  903MOL0     C24491   3.469  11.283   0.717 -0.8457  0.4314  0.8623
  903MOL0     C24492   3.381  11.303   0.594  0.2221 -0.3825 -0.1941
  903MOL0     N24493   3.442  11.312   0.461  0.4703  0.3710  0.9524
  903MOL0     C24494   3.477  11.429   0.397 -0.5241  0.1468 -0.6359
  903MOL0     C24495   3.544  11.385   0.284  0.5876 -0.2847 -0.2476
  903MOL0     C24496   3.607  11.471   0.179 -0.4445  0.4074  0.5481
  903MOL0     C24497   3.514  11.538   0.076  0.2941  0.4813 -0.2910
  903MOL0     C24498   3.599  11.607  -0.035 -0.4272  0.2287 -0.5240
  903MOL0     C24499   3.512  11.689  -0.127 -0.6716 -0.0295 -0.0370
  903MOL0     O24500   3.524  11.825  -0.076 -0.2386 -0.0693 -0.0773
  903MOL0     C24501   3.458  11.932  -0.141 -0.0999 -0.3532  0.1590
  903MOL0     C24502   3.414  11.921  -0.274  0.3875  0.5367 -0.2004
  903MOL0     C24503   3.336  12.027  -0.332  0.0316 -0.1253 -0.1075
  903MOL0     C24504   3.302  12.003  -0.477  0.4552 -1.1036  0.4584
  903MOL0     C24505   3.299  12.144  -0.250 -0.6157 -0.5059  0.3606
  903MOL0     C24506   3.217  12.262  -0.290  0.5400  0.1664 -0.0997
  903MOL0     O24507   3.219  12.370  -0.218  0.3451  0.2443  0.1801
  903MOL0     C24508   3.159  12.481  -0.264 -0.1359 -0.2144  0.7151
  903MOL0     C24509   3.028  12.488  -0.308  0.2476  0.5319 -0.0651
  903MOL0     C24510   2.972  12.606  -0.361  0.5372 -0.2524  0.1198
  903MOL0     C24511   3.049  12.719  -0.366 -0.2307  0.4046 -0.4369
  903MOL0     O24512   2.999  12.833  -0.417  0.0623 -0.0577 -0.3816
  903MOL0     C24513   2.894  12.838  -0.517  0.4229 -0.4336  0.2370
  903MOL0     C24514   2.884  12.986  -0.572  0.9692  1.2263 -0.7909
  903MOL0     C24515   2.857  13.076  -0.454 -0.2256 -0.3165 -1.3215
  903MOL0     C24516   2.899  13.221  -0.499  1.1941  0.4288  0.3704
  903MOL0     C24517   2.852  13.319  -0.394  0.2873  1.0344 -0.6828
  903MOL0     C24518   2.922  13.453  -0.425 -0.7355 -0.2501  0.2515
  903MOL0     C24519   2.878  13.509  -0.553 -0.0930 -0.0889  0.1516
  903MOL0     C24520   2.939  13.648  -0.579 -0.4224  0.4660  0.3673
  903MOL0    Cl24521   2.847  13.752  -0.693  0.0973  0.6100 -0.0471
  903MOL0     C24522   3.179  12.713  -0.315 -0.4827 -0.1549  0.1406
  903MOL0     C24523   3.233  12.600  -0.258 -0.0078 -0.0867  0.3414
  903MOL0     O24524   3.149  12.252  -0.394 -0.0967  0.1751 -0.5576
  903MOL0     C24525   3.365  12.152  -0.131 -1.3676 -0.2078  0.1502
  903MOL0     C24526   3.445  12.056  -0.075  0.0499  0.2794  0.0847
  903MOL0     N24527   3.554  11.248   0.292 -0.2482  0.1333  0.2657
  903MOL0     N24528   3.492  11.203   0.392 -0.1434 -0.3572 -0.2370
  903MOL0     C24529   2.671  11.242   1.001  0.1341 -0.2692 -0.1122
  903MOL0     C24530   2.538  11.217   1.036 -0.6274 -0.0529  0.4864
  903MOL0     C24531   2.161  11.028   1.224 -0.5398 -0.1610 -0.5388
  903MOL0     C24532   2.081  11.071   1.115 -0.2655  1.0062 -0.7662
  903MOL0     C24533   1.942  11.080   1.127 -0.2924 -0.6213 -0.2010
  903MOL0     C24534   1.876  11.023   1.236 -0.3865 -0.2319 -1.1690
  903MOL0     O24535   1.742  11.010   1.244  0.2477  0.6322 -0.4004
  903MOL0     C24536   1.668  11.020   1.121  0.1576 -0.3211  0.5551
  903MOL0     C24537   1.522  10.987   1.154 -0.0908  0.4067  0.3879
  903MOL0     C24538   1.442  11.070   1.252 -0.2561 -0.1948  1.0382
  903MOL0     C24539   1.333  11.001   1.322 -1.5429 -0.0466 -0.2288
  903MOL0     C24540   1.218  10.970   1.237  0.2871  0.0210  0.1586
  903MOL0     C24541   1.127  10.917   1.181  0.3352  0.6050 -0.1343
  903MOL0     C24542   1.954  10.968   1.348  0.5220  0.1063  0.3435
  903MOL0     C24543   2.095  10.981   1.339 -1.1522 -0.8065  0.1186
  903MOL0     C24544   2.175  10.924   1.453  0.0932  0.1745  0.6307
  903MOL0     H24545   2.537  10.879   1.060 -1.7408 -0.8231 -0.6436
  903MOL0     H24546   2.777  10.921   1.017 -1.2096  0.3011 -3.0107
  903MOL0     H24547   3.013  11.022   1.054 -0.5487  0.0612  0.9057
  903MOL0     H24548   2.949  11.140   1.173  1.8432  2.4373  0.9423
  903MOL0     H24549   3.094  11.255   0.945  2.0504 -0.3893 -0.7856
  903MOL0     H24550   3.076  11.310   1.115 -1.0899  1.3020 -3.7184
  903MOL0     H24551   3.247  11.121   1.173 -0.1875 -3.1016 -1.6438
  903MOL0     H24552   3.250  11.092   0.997  1.5212  1.1095 -0.2128
  903MOL0     H24553   3.312  11.369   1.081 -1.4321  0.0976 -2.8570
  903MOL0     H24554   3.419  11.242   1.166 -1.2848  3.0670  1.0870
  903MOL0     H24555   3.492  11.167   0.959 -0.3230 -0.8992  1.1924
  903MOL0     H24556   3.520  11.343   0.998  1.1064 -1.7915 -0.0837
  903MOL0     H24557   3.290  11.254   0.832  1.5560 -2.6374 -0.7984
  903MOL0     H24558   3.371  11.418   0.842  4.3387  0.3012 -1.9166
  903MOL0     H24559   3.518  11.185   0.715  2.3480  1.8438  2.1332
  903MOL0     H24560   3.560  11.343   0.717 -0.9511  0.5916  0.7144
  903MOL0     H24561   3.304  11.226   0.584 -0.0144 -0.2095  0.2443
  903MOL0     H24562   3.332  11.399   0.615  1.5285  0.4699 -0.8916
  903MOL0     H24563   3.464  11.531   0.431  4.3674  1.4044 -1.6668
  903MOL0     H24564   3.678  11.413   0.118  0.6032 -0.4533  2.4965
  903MOL0     H24565   3.667  11.549   0.227 -0.7064  1.0953 -0.2157
  903MOL0     H24566   3.448  11.468   0.022  4.2307 -0.7633 -4.0648
  903MOL0     H24567   3.450  11.616   0.119 -1.9138 -1.0425 -0.6229
  903MOL0     H24568   3.687  11.654   0.009  0.8021 -2.0495 -0.4197
  903MOL0     H24569   3.645  11.528  -0.094 -0.6288 -1.5647  1.5831
  903MOL0     H24570   3.538  11.671  -0.232 -2.0793 -0.6983 -0.2904
  903MOL0     H24571   3.406  11.663  -0.132 -0.4476 -0.7709 -1.9136
  903MOL0     H24572   3.451  11.838  -0.333  0.7806 -0.1544  0.9777
  903MOL0     H24573   3.202  12.042  -0.498  0.5885 -0.3520  1.1497
  903MOL0     H24574   3.286  11.896  -0.495  0.5989 -0.7152 -2.2964
  903MOL0     H24575   3.373  12.053  -0.544 -0.5113  0.3827  0.5018
  903MOL0     H24576   2.965  12.399  -0.308  1.1422 -0.1201  0.6283
  903MOL0     H24577   2.871  12.603  -0.399  1.2048 -2.4868 -1.6698
  903MOL0     H24578   2.920  12.775  -0.603  0.3174 -1.5561  1.0091
  903MOL0     H24579   2.806  12.801  -0.464  1.6347 -3.3427  0.4313
  903MOL0     H24580   2.975  13.002  -0.630  0.9808 -1.2051 -1.5588
  903MOL0     H24581   2.796  12.987  -0.637  0.4929  1.7283 -0.1545
  903MOL0     H24582   2.903  13.042  -0.360 -2.2170 -0.6580 -0.4275
  903MOL0     H24583   2.751  13.086  -0.432 -0.1318 -0.8403 -0.5793
  903MOL0     H24584   2.857  13.233  -0.600  2.4814  0.8549 -0.1276
  903MOL0     H24585   3.008  13.225  -0.499  1.2002  0.3760 -0.0641
  903MOL0     H24586   2.747  13.342  -0.377  0.7649  2.7620  0.1512
  903MOL0     H24587   2.882  13.287  -0.293 -1.8724  1.3232  0.1000
  903MOL0     H24588   3.030  13.434  -0.423 -0.5894  0.4504 -0.5246
  903MOL0     H24589   2.901  13.525  -0.346 -0.3172 -0.2033  0.3223
  903MOL0     H24590   2.769  13.517  -0.544  0.1573  5.7511  3.2926
  903MOL0     H24591   2.907  13.443  -0.635  1.9708  0.2482  0.5508
  903MOL0     H24592   3.041  13.629  -0.614  0.2230  1.7532  1.4751
  903MOL0     H24593   2.940  13.694  -0.479  2.6372 -4.1226  2.8135
  903MOL0     H24594   3.237  12.805  -0.311 -1.1710  0.3097 -0.4874
  903MOL0     H24595   3.334  12.590  -0.222 -0.5212 -0.1609  1.8207
  903MOL0     H24596   3.361  12.246  -0.077  0.8637  1.5342 -2.4366
  903MOL0     H24597   3.481  12.074   0.026 -0.3421  0.0738  0.2683
  903MOL0     H24598   2.707  11.342   0.983 -1.3089  0.3167  0.1377
  903MOL0     H24599   2.464  11.297   1.036  0.2000  0.7299 -0.1524
  903MOL0     H24600   2.120  11.097   1.018 -0.3195 -1.9581 -1.6710
  903MOL0     H24601   1.890  11.111   1.037  0.7610 -1.1180 -0.9889
  903MOL0     H24602   1.671  11.116   1.068 -0.8734 -1.5448 -1.8377
  903MOL0     H24603   1.714  10.951   1.051  1.2487  0.8840  0.0644
  903MOL0     H24604   1.512  10.881   1.180  0.1033  0.1654 -0.5044
  903MOL0     H24605   1.473  10.998   1.057  4.0894 -0.6178 -2.1014
  903MOL0     H24606   1.507  11.111   1.331 -1.1265  3.0888  0.2350
  903MOL0     H24607   1.393  11.148   1.193  0.5382 -1.9436 -2.1531
  903MOL0     H24608   1.283  11.056   1.402 -2.2295  2.3842 -2.1597
  903MOL0     H24609   1.377  10.905   1.351 -0.4710  0.6598  0.5696
  903MOL0     H24610   1.049  10.872   1.123  1.0823  3.2555 -3.4941
  903MOL0     H24611   1.905  10.915   1.429  1.6188  0.1277  1.0333
  903MOL0     H24612   2.245  10.855   1.405  3.5151  2.9960  1.1102
  903MOL0     H24613   2.237  11.002   1.498  0.6404  0.0913  0.0377
  903MOL0     H24614   2.107  10.874   1.523  0.2104  1.2543  1.5392
  904MOL0     O24615   8.549   4.622   2.008  0.1239  0.2549  0.7177
  904MOL0     C24616   8.464   4.573   2.079 -0.0383 -0.2499  0.1731
  904MOL0     O24617   8.488   4.487   2.187  0.9453  0.7623 -0.3503
  904MOL0     C24618   8.621   4.475   2.221  0.2910 -0.4420 -0.3192
  904MOL0     C24619   8.665   4.355   2.273  0.1493 -0.0211  0.5280
  904MOL0     C24620   8.798   4.335   2.311  0.1392 -0.3980  1.2630
  904MOL0     C24621   8.891   4.435   2.317  0.1361  0.4874 -0.1398
  904MOL0     O24622   9.023   4.399   2.329 -0.5435  0.0554  0.6894
  904MOL0     C24623   9.132   4.498   2.306  0.1160  0.3860 -0.3565
  904MOL0     C24624   9.272   4.432   2.311  0.1051  0.0556 -0.0997
  904MOL0     C24625   9.300   4.353   2.430 -0.8908  0.0068  0.5222
  904MOL0     C24626   9.430   4.382   2.497  0.2207 -0.0233 -0.6697
  904MOL0     C24627   9.458   4.270   2.596  1.2991 -0.0536  0.7958
  904MOL0     C24628   9.572   4.286   2.698  0.3943 -0.2869  0.5021
  904MOL0     C24629   9.696   4.316   2.615  0.2957 -0.0086  1.0488
  904MOL0     C24630   9.824   4.324   2.707  0.4878 -0.8716 -0.2284
  904MOL0     N24631   9.837   4.464   2.759 -0.3722  0.4175  0.9808
  904MOL0     C24632   9.789   4.506   2.882  0.7454  0.2344  0.4222
  904MOL0     C24633   9.840   4.620   2.907 -0.6607 -0.1627  0.0981
  904MOL0     C24634   9.830   4.695   3.034  0.6890 -0.0248 -0.1266
  904MOL0     C24635   9.847   4.841   3.017 -0.0061 -0.0963 -0.4605
  904MOL0     C24636   9.849   4.919   3.157  0.3856 -0.6343  0.9506
  904MOL0     C24637   9.833   5.071   3.130  0.3010  0.5784 -1.0243
  904MOL0     O24638   9.952   5.108   3.050 -0.1514  0.1212  0.3105
  904MOL0     C24639  10.082   5.084   3.085  0.4300 -0.8101 -0.0307
  904MOL0     C24640  10.179   5.089   2.987 -0.5322 -0.2329  0.8689
  904MOL0     C24641  10.316   5.085   3.009 -0.0741  0.0287 -0.2533
  904MOL0     C24642  10.405   5.090   2.880 -0.4538 -0.2510 -0.1387
  904MOL0     C24643  10.365   5.076   3.144  0.2679 -0.4204  0.4385
  904MOL0     C24644  10.511   5.073   3.161  0.2984 -0.6938 -0.0533
  904MOL0     O24645  10.595   5.159   3.104  0.1002 -0.4683  0.1787
  904MOL0     C24646  10.728   5.133   3.103  0.7075 -0.0987  0.0735
  904MOL0     C24647  10.814   5.242   3.109  0.2512 -1.2128  0.5525
  904MOL0     C24648  10.954   5.221   3.100  0.8596 -0.1187 -0.0814
  904MOL0     C24649  11.011   5.101   3.078  0.4622 -0.3874 -0.3095
  904MOL0     O24650  11.148   5.087   3.072  0.2693  0.1575  0.0927
  904MOL0     C24651  11.197   4.952   3.041 -0.7529 -0.5460  0.0486
  904MOL0     C24652  11.349   4.931   3.044  0.4710  0.0151 -0.6748
  904MOL0     C24653  11.425   5.007   2.929  0.6033 -0.3473  0.0124
  904MOL0     C24654  11.574   4.983   2.936 -0.5354  0.5660 -0.4839
  904MOL0     C24655  11.654   5.074   2.843  0.3636 -0.3062 -0.1852
  904MOL0     C24656  11.801   5.037   2.839 -0.1059 -1.1576  0.4508
  904MOL0     C24657  11.884   5.133   2.748 -0.3240  0.0592 -0.2956
  904MOL0     C24658  11.857   5.115   2.601 -0.0431  0.2628 -0.5989
  904MOL0    Cl24659  11.985   5.195   2.517 -0.8182  0.2150  0.1372
  904MOL0     C24660  10.921   4.999   3.050  1.1428 -0.2711 -0.0154
  904MOL0     C24661  10.784   5.010   3.072 -0.5694  0.3513  0.4668
  904MOL0     O24662  10.545   4.982   3.234 -0.5121 -0.5787 -0.3012
  904MOL0     C24663  10.268   5.070   3.249 -0.0555 -0.4862 -0.1998
  904MOL0     C24664  10.131   5.081   3.217 -0.0128 -0.2076 -1.1643
  904MOL0     N24665   9.925   4.664   2.804  0.0797  0.3629  0.7182
  904MOL0     N24666   9.930   4.559   2.719 -0.0072 -1.0943 -0.4316
  904MOL0     C24667   8.844   4.563   2.280  0.6671  0.1379  0.5529
  904MOL0     C24668   8.709   4.583   2.240 -0.5584  0.8112 -0.3568
  904MOL0     C24669   8.322   4.587   2.044 -0.5533 -0.4336  0.9225
  904MOL0     C24670   8.222   4.522   2.117  0.0410 -0.0521 -1.1637
  904MOL0     C24671   8.081   4.529   2.083 -0.4202  0.4460  0.7569
  904MOL0     C24672   8.046   4.610   1.980 -0.0030 -0.1720 -0.1030
  904MOL0     O24673   7.918   4.622   1.928 -0.4394  0.0707  0.2615
  904MOL0     C24674   7.911   4.549   1.810  0.8760 -0.1857  0.5808
  904MOL0     C24675   7.766   4.503   1.778  0.0769 -0.8254 -0.9771
  904MOL0     C24676   7.727   4.389   1.867 -0.0041  0.0622 -1.3137
  904MOL0     C24677   7.581   4.367   1.869  0.6266  0.2279  0.9462
  904MOL0     C24678   7.535   4.298   1.742 -0.5628 -0.0286 -0.3486
  904MOL0     C24679   7.481   4.250   1.647  0.3950 -0.2687 -0.5296
  904MOL0     C24680   8.138   4.679   1.911  0.2097 -0.8285 -0.0748
  904MOL0     C24681   8.279   4.669   1.937 -0.4599 -0.1826  0.4684
  904MOL0     C24682   8.376   4.734   1.832  0.2815  0.5082  0.3545
  904MOL0     H24683   8.599   4.269   2.282 -2.0972  1.5835  0.5284
  904MOL0     H24684   8.822   4.232   2.335 -0.9934 -0.8171  0.6535
  904MOL0     H24685   9.126   4.590   2.365 -1.0271  1.2352 -1.7247
  904MOL0     H24686   9.115   4.534   2.204 -3.7597  0.3281  0.1118
  904MOL0     H24687   9.272   4.371   2.219 -1.0821 -0.9908  0.5628
  904MOL0     H24688   9.350   4.507   2.302 -0.0316 -0.0515 -3.9682
  904MOL0     H24689   9.221   4.364   2.504 -0.4049 -1.6577  1.3210
  904MOL0     H24690   9.292   4.249   2.399 -0.9994 -0.3400  1.6690
  904MOL0     H24691   9.516   4.416   2.438  1.1278  1.2141  1.2678
  904MOL0     H24692   9.405   4.465   2.564 -2.8258 -1.2448 -0.1458
  904MOL0     H24693   9.475   4.188   2.525  1.2876  2.5620 -2.4756
  904MOL0     H24694   9.366   4.239   2.646  2.1128 -2.3434  0.9914
  904MOL0     H24695   9.548   4.363   2.772 -1.8545 -0.3235 -0.1136
  904MOL0     H24696   9.601   4.197   2.755  0.3175 -0.2887  0.5379
  904MOL0     H24697   9.693   4.407   2.554  1.8601 -1.1451 -0.8383
  904MOL0     H24698   9.709   4.232   2.547  0.7587 -0.3918  1.6011
  904MOL0     H24699   9.802   4.261   2.793  1.2675 -1.8343 -0.7082
  904MOL0     H24700   9.914   4.288   2.656  0.4780 -0.6370 -0.4137
  904MOL0     H24701   9.725   4.450   2.949 -0.6091  2.8079  1.4310
  904MOL0     H24702   9.905   4.646   3.097  1.0581 -2.6771 -2.4640
  904MOL0     H24703   9.733   4.672   3.081  1.1761  1.7823  1.9314
  904MOL0     H24704   9.934   4.862   2.953 -0.9208  0.3514 -1.5900
  904MOL0     H24705   9.761   4.885   2.966  1.3545  1.3313 -1.6244
  904MOL0     H24706   9.768   4.887   3.223  0.2667 -2.8409 -0.1651
  904MOL0     H24707   9.946   4.905   3.207  0.0999 -0.8668  1.4389
  904MOL0     H24708   9.749   5.105   3.069 -0.0389  2.0965  0.2309
  904MOL0     H24709   9.824   5.112   3.231  0.4514 -1.4567 -0.1502
  904MOL0     H24710  10.151   5.099   2.883 -2.4135  0.7900  1.4320
  904MOL0     H24711  10.502   5.044   2.901  0.5111  0.1204 -3.2114
  904MOL0     H24712  10.412   5.189   2.834  1.0509 -1.2366 -2.1607
  904MOL0     H24713  10.367   5.026   2.800  1.2774 -1.3625 -0.1210
  904MOL0     H24714  10.777   5.344   3.117 -0.8050 -1.5141 -0.2442
  904MOL0     H24715  11.020   5.306   3.109 -0.9942  1.4594 -0.7415
  904MOL0     H24716  11.150   4.878   3.108  3.5904 -2.0572  1.7634
  904MOL0     H24717  11.161   4.918   2.944  1.6021  0.6409 -1.3183
  904MOL0     H24718  11.391   4.966   3.139 -1.7540  0.9961  0.0055
  904MOL0     H24719  11.369   4.825   3.024 -0.5087 -0.1487 -0.8587
  904MOL0     H24720  11.406   5.114   2.929  0.8451 -0.2415  2.7902
  904MOL0     H24721  11.384   4.962   2.838 -0.7470 -0.3789  0.6136
  904MOL0     H24722  11.592   4.878   2.916 -3.2768  0.2282 -1.6934
  904MOL0     H24723  11.615   4.986   3.037  0.5801 -2.1641 -0.7969
  904MOL0     H24724  11.614   5.070   2.741 -0.2023 -2.1665  0.0810
  904MOL0     H24725  11.650   5.179   2.872  0.9225  0.0853 -1.4482
  904MOL0     H24726  11.803   4.933   2.805 -0.3449 -0.5767 -1.5105
  904MOL0     H24727  11.850   5.036   2.937  1.6700  0.6463 -0.3393
  904MOL0     H24728  11.990   5.111   2.767  0.7812  3.4364 -1.6821
  904MOL0     H24729  11.869   5.239   2.774  2.5680  0.5136 -0.0918
  904MOL0     H24730  11.770   5.179   2.583  0.0718  0.2341 -1.2655
  904MOL0     H24731  11.824   5.016   2.569 -1.6229  1.1364 -1.8276
  904MOL0     H24732  10.950   4.896   3.033 -1.5473 -1.4404  1.7197
  904MOL0     H24733  10.723   4.922   3.051 -0.0054 -0.0367  0.4434
  904MOL0     H24734  10.306   5.061   3.350  2.5659  1.7955 -0.8936
  904MOL0     H24735  10.059   5.073   3.297  0.7187 -0.3868 -0.5140
  904MOL0     H24736   8.899   4.655   2.290  1.3115  0.0875 -1.9345
  904MOL0     H24737   8.677   4.684   2.219 -1.7328  0.1055 -2.3198
  904MOL0     H24738   8.248   4.448   2.193  1.6127 -0.0291 -1.6322
  904MOL0     H24739   8.007   4.471   2.135 -2.3352  2.4410  0.4154
  904MOL0     H24740   7.944   4.599   1.719  1.0904 -0.2068  0.6470
  904MOL0     H24741   7.969   4.456   1.811  2.0012  0.4970 -0.1220
  904MOL0     H24742   7.750   4.471   1.675 -2.1640  0.0259 -0.9530
  904MOL0     H24743   7.704   4.591   1.792  2.5767  0.5921  2.9848
  904MOL0     H24744   7.792   4.302   1.852  2.3762  0.9980  2.2932
  904MOL0     H24745   7.751   4.406   1.972 -0.5111  0.9592 -1.3330
  904MOL0     H24746   7.533   4.463   1.886  1.5214  0.2865  3.7148
  904MOL0     H24747   7.551   4.319   1.963 -0.9114  0.0523  0.3865
  904MOL0     H24748   7.447   4.198   1.560  0.0120 -0.2075 -0.4183
  904MOL0     H24749   8.094   4.744   1.836 -0.7608 -0.7069  0.5734
  904MOL0     H24750   8.307   4.780   1.761 -0.5509 -2.9701 -1.3117
  904MOL0     H24751   8.443   4.805   1.883  2.1377  0.6272 -2.0674
  904MOL0     H24752   8.435   4.664   1.772 -0.3706  1.4910 -1.4904
  905MOL0     O24753   9.602   7.799   3.860 -0.0013 -0.2040 -0.3945
  905MOL0     C24754   9.670   7.897   3.821 -0.1232  0.8159  0.6033
  905MOL0     O24755   9.799   7.922   3.857 -0.3819 -0.0855 -0.0758
  905MOL0     C24756   9.854   7.854   3.963  0.3700 -0.0422  0.8049
  905MOL0     C24757   9.861   7.916   4.083 -0.1368 -0.0070 -1.3379
  905MOL0     C24758   9.922   7.851   4.196 -0.3313 -1.1253 -0.4093
  905MOL0     C24759   9.965   7.718   4.186 -0.6350  0.9638  0.1425
  905MOL0     O24760   9.999   7.663   4.311  0.0727 -0.8593  0.0161
  905MOL0     C24761  10.103   7.564   4.315  0.0012 -0.4733  0.7738
  905MOL0     C24762  10.250   7.616   4.279  0.3179 -0.4386 -0.6779
  905MOL0     C24763  10.347   7.504   4.274  0.1464  0.0768  0.5837
  905MOL0     C24764  10.467   7.537   4.185 -0.6483  0.2545 -0.3276
  905MOL0     C24765  10.539   7.400   4.157  0.2036  0.6230  0.0301
  905MOL0     C24766  10.658   7.417   4.062 -0.1571  0.1082  0.3776
  905MOL0     C24767  10.704   7.288   3.989 -0.5568  0.3288 -0.0090
  905MOL0     C24768  10.647   7.265   3.852 -0.8747  0.3577 -0.7447
  905MOL0     N24769  10.512   7.316   3.833  0.1702 -0.8650  0.3342
  905MOL0     C24770  10.465   7.420   3.766 -0.1935  0.2291  0.4973
  905MOL0     C24771  10.331   7.396   3.756 -0.4688 -0.2663  0.2844
  905MOL0     C24772  10.234   7.469   3.679 -0.1361  0.6441  0.0109
  905MOL0     C24773  10.169   7.386   3.571 -0.3172  0.2772 -0.3325
  905MOL0     C24774  10.047   7.460   3.487  0.9352 -0.0715 -0.2300
  905MOL0     C24775   9.913   7.487   3.554 -0.2849  0.0723 -0.1507
  905MOL0     O24776   9.837   7.581   3.471  0.5380 -0.0687 -0.0953
  905MOL0     C24777   9.697   7.583   3.500 -0.2877 -0.4195  0.4672
  905MOL0     C24778   9.611   7.611   3.392 -0.2834  0.0589 -0.6660
  905MOL0     C24779   9.474   7.628   3.420 -0.0084  0.2823  0.0282
  905MOL0     C24780   9.373   7.663   3.319 -0.1270 -0.3055 -0.0424
  905MOL0     C24781   9.420   7.590   3.547  0.0755 -0.8040  0.3523
  905MOL0     C24782   9.264   7.603   3.570  0.2507 -0.3764  0.1229
  905MOL0     O24783   9.193   7.722   3.543  0.2634  0.2006 -0.9397
  905MOL0     C24784   9.071   7.724   3.614 -0.2337  0.3120 -0.5863
  905MOL0     C24785   9.079   7.740   3.748  0.4273 -0.3515  0.1346
  905MOL0     C24786   8.964   7.765   3.825 -0.3415  0.1500 -0.0439
  905MOL0     C24787   8.839   7.782   3.764 -0.0040 -0.1406 -0.4017
  905MOL0     O24788   8.720   7.791   3.837 -0.0958 -0.8704 -0.2560
  905MOL0     C24789   8.718   7.785   3.987  0.2413  0.0845  0.4924
  905MOL0     C24790   8.601   7.864   4.041  0.7981 -0.2270 -0.7881
  905MOL0     C24791   8.461   7.854   3.975  0.1056 -0.3766 -0.6591
  905MOL0     C24792   8.373   7.901   4.081 -0.2052  0.1250 -0.4447
  905MOL0     C24793   8.233   7.921   4.027  0.0111 -0.0492  0.5469
  905MOL0     C24794   8.146   7.986   4.137  0.8103 -0.4566  0.5261
  905MOL0     C24795   8.005   7.957   4.104 -1.1849 -0.5183  0.4951
  905MOL0     C24796   7.968   8.006   3.964  0.2048  0.0976  0.3562
  905MOL0    Cl24797   8.026   8.186   3.954  0.0569 -0.4084  0.3152
  905MOL0     C24798   8.834   7.762   3.624 -0.5066 -0.1168 -0.3599
  905MOL0     C24799   8.947   7.737   3.545 -0.3239 -0.2797  0.3525
  905MOL0     O24800   9.221   7.508   3.633  0.4041  0.0755 -0.5148
  905MOL0     C24801   9.505   7.543   3.647  0.0823 -0.0461 -0.5046
  905MOL0     C24802   9.641   7.544   3.620  0.2631 -0.0812  0.4185
  905MOL0     N24803  10.304   7.279   3.821 -0.7259 -0.5854 -0.4066
  905MOL0     N24804  10.412   7.231   3.870 -0.1911 -0.3013  0.3488
  905MOL0     C24805   9.966   7.651   4.063 -0.4952 -0.0719  0.4153
  905MOL0     C24806   9.900   7.722   3.948 -0.0850  0.0347 -0.6644
  905MOL0     C24807   9.602   7.984   3.719  0.6385 -0.1095  0.1272
  905MOL0     C24808   9.490   7.948   3.641  0.0386 -0.4977  0.6546
  905MOL0     C24809   9.438   8.023   3.536 -0.1073  0.6995 -0.4642
  905MOL0     C24810   9.487   8.150   3.514 -0.0542  0.1592  0.7799
  905MOL0     O24811   9.412   8.218   3.413 -0.7530 -0.6750 -0.4734
  905MOL0     C24812   9.485   8.277   3.305  0.0914  1.1039  0.5437
  905MOL0     C24813   9.538   8.423   3.307  0.1485  0.4947  0.0781
  905MOL0     C24814   9.419   8.520   3.328 -0.1230  0.6347 -0.1631
  905MOL0     C24815   9.324   8.539   3.203  0.2464 -0.5164 -1.0716
  905MOL0     C24816   9.374   8.612   3.086  0.8546 -0.7045 -0.8839
  905MOL0     C24817   9.409   8.669   2.986  0.2918  0.1386  0.3749
  905MOL0     C24818   9.594   8.198   3.588 -0.6539  0.1366  0.7976
  905MOL0     C24819   9.648   8.117   3.691  1.1618 -0.9527  0.7065
  905MOL0     C24820   9.754   8.187   3.774  0.0888 -0.7069 -0.6876
  905MOL0     H24821   9.813   8.012   4.103 -2.5184 -1.6212  1.4076
  905MOL0     H24822   9.922   7.898   4.294  2.4244 -0.5621 -0.5949
  905MOL0     H24823  10.093   7.480   4.245  2.3619  1.1841 -1.7647
  905MOL0     H24824  10.109   7.519   4.414  0.9941 -1.6679  0.1938
  905MOL0     H24825  10.249   7.662   4.180 -0.7916 -1.6906 -1.2885
  905MOL0     H24826  10.282   7.691   4.351  0.5613  0.4618 -1.6962
  905MOL0     H24827  10.377   7.466   4.372 -0.0196 -1.2549  0.1368
  905MOL0     H24828  10.297   7.415   4.234 -2.0380  1.1678  0.7409
  905MOL0     H24829  10.431   7.579   4.091 -2.1733 -0.7989 -0.2458
  905MOL0     H24830  10.544   7.598   4.234  0.2600  0.7199 -2.2472
  905MOL0     H24831  10.468   7.331   4.111 -1.5769  3.2696 -1.4430
  905MOL0     H24832  10.574   7.346   4.246 -0.5245  2.3006  1.3913
  905MOL0     H24833  10.641   7.498   3.991  3.5878  0.4284 -0.3286
  905MOL0     H24834  10.742   7.451   4.123 -1.5214  0.4444  2.1611
  905MOL0     H24835  10.681   7.202   4.053  0.1476  0.4943  0.4768
  905MOL0     H24836  10.811   7.297   3.967 -0.6719  1.1771 -0.2539
  905MOL0     H24837  10.718   7.298   3.776  1.5526  0.3804  1.4237
  905MOL0     H24838  10.632   7.159   3.831 -0.6527 -0.1763  1.5394
  905MOL0     H24839  10.516   7.497   3.709 -2.0664 -0.8218 -2.9640
  905MOL0     H24840  10.285   7.541   3.614 -0.2405 -0.5809 -1.4978
  905MOL0     H24841  10.167   7.521   3.748 -1.0820 -0.7070  0.1560
  905MOL0     H24842  10.241   7.369   3.490  0.3829  1.8284 -0.0695
  905MOL0     H24843  10.124   7.299   3.620 -0.2211  1.6345  2.3197
  905MOL0     H24844  10.081   7.563   3.473  1.1330 -0.0747  0.2019
  905MOL0     H24845  10.022   7.419   3.389 -0.2119  1.2843 -0.5464
  905MOL0     H24846   9.857   7.393   3.562  0.4546 -0.4132 -0.6149
  905MOL0     H24847   9.931   7.530   3.653 -1.6284 -1.0039  0.6058
  905MOL0     H24848   9.644   7.622   3.289 -3.2521  0.1060 -1.7175
  905MOL0     H24849   9.291   7.592   3.302 -0.6584  0.5607 -1.2899
  905MOL0     H24850   9.417   7.689   3.222  0.1421  0.0112  0.1627
  905MOL0     H24851   9.325   7.756   3.352 -2.5889 -1.6074  0.2810
  905MOL0     H24852   9.178   7.728   3.792 -0.4069  0.6809  2.4184
  905MOL0     H24853   8.974   7.790   3.930 -2.7634  1.3121 -0.0099
  905MOL0     H24854   8.709   7.678   4.005  3.2461 -0.5090 -0.9409
  905MOL0     H24855   8.807   7.834   4.027 -0.5805  2.0882  0.0319
  905MOL0     H24856   8.593   7.832   4.145  2.6314 -1.0805 -0.8714
  905MOL0     H24857   8.644   7.965   4.045  3.3518 -1.2812  1.3302
  905MOL0     H24858   8.439   7.753   3.937 -0.1815 -0.8579  0.7227
  905MOL0     H24859   8.457   7.926   3.892 -4.3181 -0.9292 -1.1686
  905MOL0     H24860   8.405   7.992   4.135  0.1058 -1.3718  2.0579
  905MOL0     H24861   8.372   7.829   4.163 -3.1044 -1.4260 -1.6991
  905MOL0     H24862   8.240   7.973   3.931  0.9657 -2.3404 -0.6967
  905MOL0     H24863   8.205   7.820   3.997  3.0232 -0.2346 -2.1135
  905MOL0     H24864   8.162   8.094   4.147 -3.8017  0.4857  0.1284
  905MOL0     H24865   8.177   7.938   4.230  3.3501  0.4559  0.2284
  905MOL0     H24866   7.939   8.003   4.178 -2.4287 -0.1744 -0.7795
  905MOL0     H24867   7.991   7.848   4.104 -0.3813 -0.6616 -1.5024
  905MOL0     H24868   7.861   8.012   3.943 -0.1586 -2.9838  0.7751
  905MOL0     H24869   8.016   7.950   3.882 -2.6918  0.1451 -1.5402
  905MOL0     H24870   8.740   7.767   3.571 -1.2891  0.8577  1.0593
  905MOL0     H24871   8.921   7.723   3.441 -1.8880 -0.9435  0.7990
  905MOL0     H24872   9.465   7.516   3.744 -1.2814 -1.1918 -1.3409
  905MOL0     H24873   9.704   7.519   3.705 -0.2371 -1.8628  0.3037
  905MOL0     H24874  10.004   7.551   4.045 -2.7831 -0.7002 -1.4271
  905MOL0     H24875   9.896   7.678   3.849 -3.1932 -1.9268  0.1817
  905MOL0     H24876   9.452   7.846   3.651  1.6796 -1.7306 -3.5559
  905MOL0     H24877   9.363   7.979   3.472  0.9636 -2.2919  0.1961
  905MOL0     H24878   9.568   8.210   3.280 -0.5590  0.7168 -0.6713
  905MOL0     H24879   9.422   8.266   3.216  2.4980 -1.6245 -1.0130
  905MOL0     H24880   9.590   8.446   3.213 -1.4507  1.7203 -0.5627
  905MOL0     H24881   9.606   8.446   3.389  0.5235 -2.7367  0.8265
  905MOL0     H24882   9.363   8.488   3.416  1.2445 -1.8528 -0.1176
  905MOL0     H24883   9.454   8.619   3.361 -0.9888  2.1569 -3.3681
  905MOL0     H24884   9.236   8.594   3.238 -1.8580 -1.5905 -4.3048
  905MOL0     H24885   9.285   8.447   3.160 -4.6342  1.5923 -1.7801
  905MOL0     H24886   9.438   8.723   2.898  2.7612  0.3651  1.2550
  905MOL0     H24887   9.642   8.291   3.558 -0.5089 -0.4496 -0.9128
  905MOL0     H24888   9.856   8.171   3.739  0.6663  0.0660  0.5585
  905MOL0     H24889   9.729   8.293   3.785 -0.5488 -0.8953 -0.2076
  905MOL0     H24890   9.740   8.146   3.875 -1.9158 -0.4460 -0.8232
  906MOL0     O24891   7.037   6.628   9.543 -0.8541 -0.1406 -0.7365
  906MOL0     C24892   6.967   6.691   9.464 -0.5876 -0.5553  1.0004
  906MOL0     O24893   7.019   6.775   9.371 -0.3930 -0.7858  0.1194
  906MOL0     C24894   7.155   6.785   9.369  0.6258 -0.3633 -0.0297
  906MOL0     C24895   7.231   6.870   9.454  0.3277  0.2231  0.6611
  906MOL0     C24896   7.366   6.875   9.436 -0.1879 -0.0009 -0.1213
  906MOL0     C24897   7.435   6.795   9.346  0.2082  0.1112  0.0074
  906MOL0     O24898   7.574   6.793   9.334  1.1361  0.0138  0.0401
  906MOL0     C24899   7.651   6.822   9.450  0.6532 -0.0267  0.7304
  906MOL0     C24900   7.796   6.767   9.452  0.5790 -0.6740 -0.4432
  906MOL0     C24901   7.884   6.847   9.356 -0.1285 -0.1432  0.2363
  906MOL0     C24902   8.003   6.905   9.420 -1.0944  0.2415  0.7890
  906MOL0     C24903   8.095   6.808   9.491  0.2653 -0.0623  0.1614
  906MOL0     C24904   8.205   6.887   9.564  0.3337  0.4058 -0.4568
  906MOL0     C24905   8.311   6.806   9.630  0.1159  0.7391 -0.4978
  906MOL0     C24906   8.429   6.748   9.550  0.3830 -0.1836  0.1721
  906MOL0     N24907   8.493   6.641   9.638  0.5120  0.1332 -0.6734
  906MOL0     C24908   8.441   6.521   9.676  0.1321  0.0158 -0.2627
  906MOL0     C24909   8.553   6.470   9.745  0.3995  0.2641  0.3439
  906MOL0     C24910   8.567   6.329   9.813 -0.1468  0.1646  0.2186
  906MOL0     C24911   8.540   6.211   9.722  0.3785 -0.0769  0.7442
  906MOL0     C24912   8.638   6.218   9.598 -1.4707 -0.5609 -0.0382
  906MOL0     C24913   8.784   6.215   9.633 -0.0937  0.3015  0.0720
  906MOL0     O24914   8.863   6.175   9.516  0.2225  0.2772 -0.0851
  906MOL0     C24915   8.990   6.134   9.541  0.2061 -0.1839  0.5075
  906MOL0     C24916   9.069   6.087   9.433  0.0039 -0.6562 -0.2704
  906MOL0     C24917   9.204   6.053   9.452 -0.7171 -0.2038  0.2185
  906MOL0     C24918   9.274   6.020   9.321  0.4215  0.2351 -0.0809
  906MOL0     C24919   9.276   6.065   9.572 -0.6931  0.5452  0.4502
  906MOL0     C24920   9.425   6.044   9.585 -0.1778  0.0719 -0.2008
  906MOL0     O24921   9.462   5.988   9.701  0.8683 -0.4681  0.3523
  906MOL0     C24922   9.596   5.975   9.729 -0.0389  1.1369  0.4831
  906MOL0     C24923   9.642   5.849   9.766 -0.9627 -0.0211 -0.2133
  906MOL0     C24924   9.780   5.847   9.802 -0.2090  0.2123  0.1053
  906MOL0     C24925   9.865   5.960   9.809  0.1143  0.5529 -0.0793
  906MOL0     O24926   9.997   5.949   9.847  0.4860 -0.3993  0.2520
  906MOL0     C24927  10.026   5.896   9.980 -0.0479 -0.1655  0.5279
  906MOL0     C24928  10.158   5.945  10.032  0.4466  0.1878 -0.9505
  906MOL0     C24929  10.168   6.092  10.060 -1.2665 -1.2020  0.3015
  906MOL0     C24930  10.312   6.150  10.082  0.3881  0.6453 -0.7326
  906MOL0     C24931  10.392   6.086  10.190  0.5750  0.0841 -0.1167
  906MOL0     C24932  10.539   6.133  10.190  0.1410  0.2740 -0.3681
  906MOL0     C24933  10.614   6.075  10.317  0.0868  0.0223  0.8842
  906MOL0     C24934  10.752   6.135  10.337  0.2842 -1.1220 -0.2632
  906MOL0    Cl24935  10.878   6.057  10.249 -0.0504 -0.2365 -0.0713
  906MOL0     C24936   9.810   6.084   9.768 -0.1803 -0.4184  0.6952
  906MOL0     C24937   9.679   6.088   9.725 -0.0866  0.0909  0.5112
  906MOL0     O24938   9.500   6.077   9.491  0.6344 -0.0915  0.2820
  906MOL0     C24939   9.201   6.105   9.676 -0.6095 -0.3390 -0.4396
  906MOL0     C24940   9.062   6.144   9.667  0.2002  0.0156  0.1874
  906MOL0     N24941   8.662   6.555   9.742  0.5721  1.1955 -0.0361
  906MOL0     N24942   8.619   6.652   9.664 -0.0232  0.4352  0.1886
  906MOL0     C24943   7.362   6.723   9.257 -0.1495  0.3651  0.0458
  906MOL0     C24944   7.224   6.715   9.267  0.4686 -0.4737 -0.4949
  906MOL0     C24945   6.818   6.702   9.482  0.2992 -0.2107 -0.7590
  906MOL0     C24946   6.762   6.833   9.484 -0.4360  0.6342  0.5756
  906MOL0     C24947   6.628   6.857   9.514  0.2559 -0.6823  0.2696
  906MOL0     C24948   6.549   6.748   9.568  0.9247 -0.0490  0.5573
  906MOL0     O24949   6.428   6.763   9.631  0.0980 -0.4698  0.3789
  906MOL0     C24950   6.345   6.854   9.552 -1.0430 -0.0954  0.7127
  906MOL0     C24951   6.203   6.852   9.606 -0.0661 -0.3107 -0.6366
  906MOL0     C24952   6.178   6.937   9.728 -0.0423 -0.0954  0.4169
  906MOL0     C24953   6.028   6.933   9.762 -0.2272  0.6116 -0.8319
  906MOL0     C24954   5.988   6.806   9.841 -0.8899  0.7728 -0.2592
  906MOL0     C24955   5.979   6.702   9.896  0.0932  0.3032  0.4775
  906MOL0     C24956   6.611   6.621   9.573  0.4306  0.0220 -0.3912
  906MOL0     C24957   6.738   6.597   9.531 -0.4705 -0.4236 -0.0063
  906MOL0     C24958   6.792   6.454   9.547  1.1990 -0.7757  0.0457
  906MOL0     H24959   7.186   6.934   9.530 -1.9663 -0.5283  0.0223
  906MOL0     H24960   7.424   6.941   9.501  1.7290 -0.2412 -1.5154
  906MOL0     H24961   7.598   6.783   9.537 -1.1198  2.5291  0.8684
  906MOL0     H24962   7.658   6.930   9.463 -1.0905  0.5499 -2.3140
  906MOL0     H24963   7.831   6.757   9.555 -2.2343 -0.9852  0.5718
  906MOL0     H24964   7.795   6.664   9.416 -2.0678 -1.4897  1.6381
  906MOL0     H24965   7.929   6.769   9.295 -2.1806 -3.4636  2.5712
  906MOL0     H24966   7.814   6.920   9.313 -1.6186 -2.8821 -2.3267
  906MOL0     H24967   8.053   6.966   9.345 -0.3467 -0.4015  0.7576
  906MOL0     H24968   7.976   6.969   9.505  1.7490 -1.0550  2.8057
  906MOL0     H24969   8.137   6.753   9.406 -0.3723 -2.7666  1.4857
  906MOL0     H24970   8.041   6.739   9.556 -0.6516 -1.0776 -1.6011
  906MOL0     H24971   8.258   6.950   9.491  1.4487 -0.0007 -0.0213
  906MOL0     H24972   8.174   6.956   9.643  0.1616 -2.8735  2.5510
  906MOL0     H24973   8.258   6.719   9.669  0.5993 -0.8124 -3.0322
  906MOL0     H24974   8.348   6.870   9.710  1.4755  1.3879 -1.5981
  906MOL0     H24975   8.387   6.698   9.462 -0.0403 -1.4142  1.0507
  906MOL0     H24976   8.498   6.830   9.526  0.6975 -0.2297  0.8913
  906MOL0     H24977   8.343   6.476   9.664 -0.8308  2.1256 -0.9298
  906MOL0     H24978   8.495   6.336   9.895  0.8962  1.6242  1.0542
  906MOL0     H24979   8.666   6.329   9.860  0.1767  2.1254 -0.3898
  906MOL0     H24980   8.564   6.118   9.776  1.2975  0.0447  0.5720
  906MOL0     H24981   8.438   6.214   9.683 -0.1414 -2.2891  1.7262
  906MOL0     H24982   8.617   6.141   9.523 -3.1685 -2.3618  2.1737
  906MOL0     H24983   8.631   6.311   9.540  1.0514 -1.0314 -1.2757
  906MOL0     H24984   8.814   6.313   9.670 -2.5921  1.8542 -1.7219
  906MOL0     H24985   8.792   6.144   9.715  1.8830 -1.3508 -1.4219
  906MOL0     H24986   9.010   6.085   9.342 -2.6297  1.8031  1.2353
  906MOL0     H24987   9.337   6.108   9.304  1.1755 -0.1030  0.9329
  906MOL0     H24988   9.201   6.014   9.239 -0.8293  0.3976  0.9803
  906MOL0     H24989   9.333   5.929   9.330 -0.1136 -0.1091 -0.0062
  906MOL0     H24990   9.593   5.752   9.769  0.4308 -0.7783 -0.9178
  906MOL0     H24991   9.833   5.755   9.826 -1.0380 -0.1206  0.7124
  906MOL0     H24992   9.942   5.924  10.045 -0.6371 -1.0073  0.1392
  906MOL0     H24993  10.019   5.788   9.971 -0.5477 -0.1365  0.5562
  906MOL0     H24994  10.173   5.886  10.123  0.6206 -0.4232 -1.3721
  906MOL0     H24995  10.239   5.923   9.962 -0.1495  0.9867 -1.9209
  906MOL0     H24996  10.111   6.125  10.147  1.5219  0.0057  1.7852
  906MOL0     H24997  10.115   6.149   9.984 -0.9088  0.1953  1.0693
  906MOL0     H24998  10.301   6.258  10.087 -2.7890  0.4717 -1.3343
  906MOL0     H24999  10.366   6.133   9.988 -0.2468  2.3742 -1.4520
  906MOL0     H25000  10.346   6.100  10.288  1.4098  0.9837  0.1532
  906MOL0     H25001  10.403   5.979  10.171 -3.7954 -0.5699  0.0778
  906MOL0     H25002  10.535   6.242  10.190 -0.9475  0.2537  0.3038
  906MOL0     H25003  10.585   6.103  10.096 -0.2247 -1.2896 -0.0820
  906MOL0     H25004  10.619   5.966  10.311 -0.2938  0.0547 -0.2173
  906MOL0     H25005  10.559   6.101  10.408  0.9017  2.4402  0.7612
  906MOL0     H25006  10.760   6.122  10.445 -1.3756  0.5959  0.1393
  906MOL0     H25007  10.753   6.240  10.305  4.6483 -0.6852  0.7116
  906MOL0     H25008   9.867   6.176   9.758 -0.0242 -0.0805  3.5849
  906MOL0     H25009   9.637   6.184   9.699 -0.2235 -0.1752 -0.2800
  906MOL0     H25010   9.254   6.118   9.770  0.3316 -1.3410 -0.8113
  906MOL0     H25011   9.016   6.176   9.760  0.6144 -0.3413  0.5184
  906MOL0     H25012   7.410   6.669   9.176 -0.0751 -0.6283  0.7303
  906MOL0     H25013   7.173   6.657   9.190  2.5060 -1.4027 -1.2126
  906MOL0     H25014   6.829   6.915   9.462 -0.4701  0.2668 -0.9762
  906MOL0     H25015   6.583   6.955   9.508 -1.9665 -1.7555 -2.6344
  906MOL0     H25016   6.373   6.959   9.565  3.1725 -1.1442  1.6252
  906MOL0     H25017   6.348   6.826   9.446 -1.5213  0.4560  0.5467
  906MOL0     H25018   6.172   6.750   9.628  2.1761 -0.8370  0.4630
  906MOL0     H25019   6.144   6.891   9.523  0.2449  0.2773 -0.5894
  906MOL0     H25020   6.247   6.927   9.811 -0.7563 -0.5303  0.9715
  906MOL0     H25021   6.190   7.040   9.691  0.9475 -0.6209 -0.7723
  906MOL0     H25022   5.965   6.948   9.674  0.0107  3.1542 -0.6207
  906MOL0     H25023   6.013   7.016   9.832  3.2399 -0.0750  0.9613
  906MOL0     H25024   5.962   6.600   9.924 -2.6796  0.2890 -0.9133
  906MOL0     H25025   6.556   6.541   9.622  0.3239  0.4768  0.2506
  906MOL0     H25026   6.878   6.459   9.614  3.7379 -2.5433 -2.8657
  906MOL0     H25027   6.713   6.391   9.589  2.7962 -2.3836  0.7147
  906MOL0     H25028   6.823   6.404   9.455  2.4757 -1.8714  1.0327
  907MOL0     O25029   1.453   7.506   2.889 -0.3140 -0.5156  0.4424
  907MOL0     C25030   1.377   7.526   2.983 -0.0129 -0.8061  0.3720
  907MOL0     O25031   1.409   7.614   3.091  0.4011 -0.2807  0.5316
  907MOL0     C25032   1.530   7.676   3.084  0.4095 -0.0405  0.1592
  907MOL0     C25033   1.550   7.791   3.004 -0.8431  0.1062 -0.1823
  907MOL0     C25034   1.672   7.857   3.001 -1.0408 -0.1292 -0.0077
  907MOL0     C25035   1.776   7.818   3.084  0.2739  0.2444  0.3419
  907MOL0     O25036   1.890   7.888   3.087 -0.9964 -0.5764 -0.3611
  907MOL0     C25037   1.920   8.008   3.011 -0.4818  0.9484  0.0254
  907MOL0     C25038   2.067   8.054   3.047  0.0236  0.2738  0.3323
  907MOL0     C25039   2.085   8.121   3.191  0.4109 -0.4674 -0.5655
  907MOL0     C25040   2.236   8.149   3.202 -1.2415  0.3583 -0.2594
  907MOL0     C25041   2.274   8.206   3.343  0.1236  0.1139  0.5886
  907MOL0     C25042   2.318   8.348   3.359  0.2725 -0.1968  0.3850
  907MOL0     C25043   2.225   8.447   3.280 -0.2508 -0.2325  0.2913
  907MOL0     C25044   2.244   8.592   3.329 -0.1154  0.3606 -1.1457
  907MOL0     N25045   2.382   8.621   3.317 -0.1797  0.0569  0.3356
  907MOL0     C25046   2.442   8.634   3.197  0.0641  0.3642 -0.1695
  907MOL0     C25047   2.565   8.680   3.231  0.7493 -0.0960 -0.3964
  907MOL0     C25048   2.670   8.691   3.124 -0.0882  0.0152 -0.8582
  907MOL0     C25049   2.738   8.556   3.085 -0.3308  0.0883 -0.3986
  907MOL0     C25050   2.892   8.564   3.076 -0.0050  1.2780  1.1218
  907MOL0     C25051   2.951   8.425   3.039 -0.3913 -0.7772 -0.0593
  907MOL0     O25052   2.891   8.363   2.929  0.0778 -1.3159 -0.6983
  907MOL0     C25053   2.948   8.386   2.808  1.3813 -0.3837  0.0191
  907MOL0     C25054   3.062   8.315   2.764 -0.0162 -0.2129 -0.6811
  907MOL0     C25055   3.123   8.341   2.640 -0.6394 -0.6169 -0.8012
  907MOL0     C25056   3.234   8.238   2.602  0.2799  0.0152 -0.6835
  907MOL0     C25057   3.082   8.441   2.562 -0.9826 -1.2228 -0.0014
  907MOL0     C25058   3.149   8.457   2.429 -0.1933 -0.1664 -0.0556
  907MOL0     O25059   3.179   8.344   2.355 -0.1488  0.1388  0.2616
  907MOL0     C25060   3.290   8.341   2.269  0.2167 -0.1699  0.1544
  907MOL0     C25061   3.385   8.242   2.279  0.3387  0.5252  1.0315
  907MOL0     C25062   3.498   8.239   2.190  0.0198  0.1884  0.5518
  907MOL0     C25063   3.503   8.336   2.086 -0.0702  0.1229 -0.2380
  907MOL0     O25064   3.597   8.345   1.988  0.5431 -1.1153  0.1407
  907MOL0     C25065   3.727   8.359   2.041 -0.1262 -0.5581  0.7072
  907MOL0     C25066   3.828   8.412   1.934  0.8532 -0.4556  0.0244
  907MOL0     C25067   3.782   8.542   1.865 -0.5456  0.0916  0.9833
  907MOL0     C25068   3.761   8.657   1.961  0.2915 -0.1191  1.0447
  907MOL0     C25069   3.679   8.776   1.901  0.3977  0.0658  0.5629
  907MOL0     C25070   3.532   8.736   1.880 -0.7313 -0.2211 -0.3916
  907MOL0     C25071   3.459   8.847   1.804  0.6471 -0.5921 -0.3288
  907MOL0     C25072   3.312   8.817   1.788  0.4150  0.1492 -0.6530
  907MOL0    Cl25073   3.222   8.806   1.945  0.0648  0.0145  0.0775
  907MOL0     C25074   3.398   8.425   2.074 -0.7713 -0.8075  0.1115
  907MOL0     C25075   3.304   8.438   2.170 -0.4483 -1.1643 -0.0030
  907MOL0     O25076   3.172   8.578   2.402 -1.2034 -0.2810 -0.4748
  907MOL0     C25077   2.965   8.515   2.601  0.3310 -0.0185 -0.6632
  907MOL0     C25078   2.898   8.482   2.719 -0.0234 -0.2074 -0.0433
  907MOL0     N25079   2.567   8.715   3.366  0.3491 -0.8254 -0.9715
  907MOL0     N25080   2.454   8.672   3.420 -0.2312 -0.8092  0.3364
  907MOL0     C25081   1.758   7.709   3.161 -0.3964 -0.1178  0.1128
  907MOL0     C25082   1.641   7.626   3.156 -0.2721 -0.0424  0.4053
  907MOL0     C25083   1.247   7.454   2.980 -1.0547 -0.5751 -0.1693
  907MOL0     C25084   1.175   7.427   2.861  0.6576 -0.4738  0.2378
  907MOL0     C25085   1.053   7.361   2.858  0.4529 -0.1592 -0.8982
  907MOL0     C25086   1.001   7.316   2.979 -0.2474 -0.0075  0.1422
  907MOL0     O25087   0.883   7.259   2.996 -0.2930 -0.1356  0.0745
  907MOL0     C25088   0.879   7.117   2.996  0.3057 -1.0167 -0.5869
  907MOL0     C25089   0.738   7.070   3.025 -0.5671  1.1299  0.0845
  907MOL0     C25090   0.637   7.105   2.914  0.6097 -0.1966  0.2413
  907MOL0     C25091   0.506   7.039   2.952  0.5737 -0.3712  0.0763
  907MOL0     C25092   0.396   7.131   2.918 -0.0647  0.5208 -0.3308
  907MOL0     C25093   0.309   7.218   2.904 -0.1176  0.4531  0.4957
  907MOL0     C25094   1.066   7.349   3.099  0.0755 -0.0573 -0.4926
  907MOL0     C25095   1.190   7.415   3.107 -0.3949  0.9750  0.4988
  907MOL0     C25096   1.259   7.425   3.243 -0.0614 -0.5141 -0.2365
  907MOL0     H25097   1.473   7.837   2.943 -0.5758  0.3517 -0.3392
  907MOL0     H25098   1.679   7.944   2.937  0.0721  1.2560  1.8690
  907MOL0     H25099   1.849   8.088   3.035 -2.4357 -0.8584  0.5732
  907MOL0     H25100   1.911   7.981   2.905 -1.6078  0.0884  0.3173
  907MOL0     H25101   2.131   7.965   3.045 -0.8593 -0.3867 -1.2310
  907MOL0     H25102   2.095   8.131   2.974 -1.9946  0.1926 -0.6146
  907MOL0     H25103   2.026   8.213   3.200  1.5429  0.3851 -1.5017
  907MOL0     H25104   2.048   8.050   3.265 -1.7308  0.9489 -0.1928
  907MOL0     H25105   2.293   8.055   3.203 -0.9152  0.5529  1.1069
  907MOL0     H25106   2.276   8.207   3.119  1.7387  0.4153  1.0994
  907MOL0     H25107   2.356   8.142   3.377 -0.3323  0.0230  1.5528
  907MOL0     H25108   2.191   8.182   3.410  0.3713  0.0734  0.8849
  907MOL0     H25109   2.329   8.381   3.462 -0.7187  2.4148 -0.2756
  907MOL0     H25110   2.416   8.352   3.310 -1.1085 -1.1712 -2.6763
  907MOL0     H25111   2.120   8.416   3.285 -0.8976  1.8843  0.7134
  907MOL0     H25112   2.250   8.444   3.174 -1.0300 -0.3161  0.0998
  907MOL0     H25113   2.190   8.673   3.279 -0.2319  2.0533  1.5035
  907MOL0     H25114   2.212   8.580   3.433  4.0961 -0.5306  0.2545
  907MOL0     H25115   2.397   8.614   3.100  2.9913 -0.6107 -1.4279
  907MOL0     H25116   2.749   8.757   3.161  0.7253 -0.6123 -1.4351
  907MOL0     H25117   2.617   8.741   3.042 -1.2823 -0.1380 -0.2130
  907MOL0     H25118   2.718   8.479   3.161 -0.4467 -0.1962 -0.7156
  907MOL0     H25119   2.699   8.536   2.985  1.6032  5.3052 -2.5585
  907MOL0     H25120   2.923   8.640   3.003  3.4118  1.3266  2.4495
  907MOL0     H25121   2.916   8.592   3.179  0.5076  0.3918  1.2562
  907MOL0     H25122   3.058   8.444   3.029 -0.4377 -1.0240 -1.1722
  907MOL0     H25123   2.957   8.358   3.125 -0.5182 -0.4833  0.1814
  907MOL0     H25124   3.101   8.229   2.818 -0.7850  1.2594  2.4893
  907MOL0     H25125   3.269   8.188   2.693 -1.1949  1.5151  0.7960
  907MOL0     H25126   3.319   8.296   2.566  0.9281 -1.0562 -0.8995
  907MOL0     H25127   3.214   8.163   2.526  0.1106  0.5747 -1.1960
  907MOL0     H25128   3.372   8.158   2.347 -0.1765  1.0363  1.5817
  907MOL0     H25129   3.556   8.148   2.188  1.0508  0.7496  2.3773
  907MOL0     H25130   3.729   8.431   2.123 -2.9918  0.2924  0.1444
  907MOL0     H25131   3.748   8.261   2.087  0.2760 -1.4709 -1.2864
  907MOL0     H25132   3.926   8.418   1.982  0.4381  1.0326  0.7388
  907MOL0     H25133   3.837   8.339   1.853 -0.1215  1.7881 -2.2346
  907MOL0     H25134   3.688   8.506   1.823  1.3366 -2.0093 -1.7642
  907MOL0     H25135   3.843   8.575   1.780 -1.2732  1.6371  1.0291
  907MOL0     H25136   3.864   8.688   1.984  0.7677 -0.7426 -0.2005
  907MOL0     H25137   3.714   8.628   2.055 -1.8249 -0.3975 -0.0525
  907MOL0     H25138   3.679   8.862   1.968 -0.1784 -0.9211  1.8657
  907MOL0     H25139   3.712   8.796   1.799 -2.5090 -1.4901 -0.7960
  907MOL0     H25140   3.481   8.730   1.977 -0.4509  1.2530 -0.1317
  907MOL0     H25141   3.527   8.638   1.832  0.2948  0.7331 -2.5525
  907MOL0     H25142   3.508   8.859   1.707  0.9713  5.1027  0.1990
  907MOL0     H25143   3.465   8.942   1.859 -2.6357 -0.8599  0.7155
  907MOL0     H25144   3.295   8.719   1.740  0.4741  0.1098 -0.5938
  907MOL0     H25145   3.258   8.889   1.726  0.5708 -0.1683 -1.1701
  907MOL0     H25146   3.391   8.497   1.994  2.3618 -1.2309 -0.6972
  907MOL0     H25147   3.227   8.512   2.148  0.3632 -0.0497  0.7799
  907MOL0     H25148   2.911   8.585   2.537 -1.1481 -0.5518 -0.0450
  907MOL0     H25149   2.794   8.514   2.727 -0.1084 -0.2350 -0.9562
  907MOL0     H25150   1.841   7.673   3.221 -0.0768  0.4013 -0.0178
  907MOL0     H25151   1.620   7.530   3.201  0.3492 -0.3290  0.0891
  907MOL0     H25152   1.215   7.455   2.764  0.6342 -3.5360 -0.7860
  907MOL0     H25153   1.000   7.346   2.764  0.5003 -0.4202 -0.8853
  907MOL0     H25154   0.920   7.072   2.905  0.4058 -0.1505 -0.9776
  907MOL0     H25155   0.944   7.089   3.079  0.8402  0.5447 -0.4455
  907MOL0     H25156   0.699   7.121   3.114 -0.0012  3.7655 -1.0748
  907MOL0     H25157   0.737   6.962   3.045 -1.7681  1.4433  1.9972
  907MOL0     H25158   0.623   7.214   2.919  0.6116 -0.2088  0.5326
  907MOL0     H25159   0.659   7.069   2.813 -2.5174 -1.0068 -0.2576
  907MOL0     H25160   0.505   7.021   3.060  1.0756 -0.2427  0.1065
  907MOL0     H25161   0.493   6.947   2.894  1.1189  0.0835 -0.7660
  907MOL0     H25162   0.237   7.296   2.900 -0.7540 -0.1270  0.4242
  907MOL0     H25163   1.028   7.318   3.197  0.5925 -0.7840 -0.5097
  907MOL0     H25164   1.368   7.421   3.232 -0.0920  0.7917 -1.3104
  907MOL0     H25165   1.242   7.524   3.284 -0.2277 -0.8695  0.5680
  907MOL0     H25166   1.209   7.357   3.314 -1.7586  0.8797 -0.0371
  908MOL0     O25167   4.846   5.944   7.909 -0.1477  0.3513 -0.4087
  908MOL0     C25168   4.786   5.859   7.852  0.0765  0.1043  0.0550
  908MOL0     O25169   4.802   5.828   7.724 -0.6066  0.4828  0.5575
  908MOL0     C25170   4.915   5.877   7.658  0.6503 -0.2096 -0.4118
  908MOL0     C25171   4.937   6.006   7.620 -0.1635  0.4084  0.1688
  908MOL0     C25172   5.056   6.051   7.563  1.0840  0.3858  0.2190
  908MOL0     C25173   5.159   5.962   7.531  0.4192  0.2062  0.0108
  908MOL0     O25174   5.271   6.012   7.471 -0.7640  0.0262 -0.0110
  908MOL0     C25175   5.395   5.936   7.457 -0.0099 -0.0672  0.6714
  908MOL0     C25176   5.495   6.015   7.371  0.6559 -0.4679 -0.0330
  908MOL0     C25177   5.625   5.942   7.374 -0.3912 -0.4869  0.8525
  908MOL0     C25178   5.735   6.026   7.306  0.6227 -0.7490 -0.0868
  908MOL0     C25179   5.860   6.018   7.385 -0.3691 -0.5883 -0.0491
  908MOL0     C25180   5.981   6.100   7.334  0.4953 -0.4643 -0.6138
  908MOL0     C25181   6.020   6.098   7.183 -0.9799  0.2212 -0.4363
  908MOL0     C25182   6.097   5.970   7.149  0.6228 -0.0104 -0.1629
  908MOL0     N25183   6.248   5.976   7.137  0.0644 -0.3361  0.1647
  908MOL0     C25184   6.328   6.049   7.215 -0.1670 -0.0861 -0.7826
  908MOL0     C25185   6.448   6.022   7.161 -0.4644 -0.0852 -0.9441
  908MOL0     C25186   6.583   6.083   7.206 -0.1126  0.6318  1.0321
  908MOL0     C25187   6.680   5.988   7.274 -0.3957  0.3157 -0.4668
  908MOL0     C25188   6.767   5.898   7.185  0.3897 -0.0223  0.1451
  908MOL0     C25189   6.915   5.915   7.205  0.4389  0.4332  0.4806
  908MOL0     O25190   6.944   5.897   7.343 -0.5014 -0.1941 -0.1884
  908MOL0     C25191   7.067   5.848   7.382  0.2977 -0.6701 -0.0274
  908MOL0     C25192   7.076   5.800   7.510  0.3713  0.2817 -0.3945
  908MOL0     C25193   7.206   5.753   7.559 -0.2203 -0.0934  0.5584
  908MOL0     C25194   7.206   5.687   7.689 -0.6935  0.1337  0.4221
  908MOL0     C25195   7.326   5.766   7.474  0.1704  0.8455  0.0424
  908MOL0     C25196   7.469   5.728   7.510 -0.0229 -0.6435  0.0833
  908MOL0     O25197   7.556   5.721   7.405  0.7595  0.5114  0.0120
  908MOL0     C25198   7.683   5.696   7.446  0.2016  0.6678  0.0591
  908MOL0     C25199   7.741   5.568   7.420  0.4843 -0.4413  0.1170
  908MOL0     C25200   7.861   5.534   7.482  0.0198 -0.8980  0.9576
  908MOL0     C25201   7.934   5.633   7.541 -0.2393 -0.3244  0.6647
  908MOL0     O25202   8.057   5.612   7.598 -0.6273 -0.2244 -0.2539
  908MOL0     C25203   8.098   5.479   7.629 -0.1654 -0.1981  0.6904
  908MOL0     C25204   8.200   5.489   7.744  0.2113 -0.5235 -0.7129
  908MOL0     C25205   8.324   5.422   7.706  0.0691  0.8044  0.4705
  908MOL0     C25206   8.409   5.377   7.823 -0.7987  0.2446 -0.1910
  908MOL0     C25207   8.507   5.268   7.793  0.2417 -0.0923  0.0600
  908MOL0     C25208   8.622   5.316   7.703 -0.2323  0.0517  0.8342
  908MOL0     C25209   8.727   5.384   7.789 -0.3898  0.2318  0.0844
  908MOL0     C25210   8.859   5.392   7.723 -0.0914  0.1431 -0.6445
  908MOL0    Cl25211   8.842   5.503   7.582 -0.0901  0.0918  0.0244
  908MOL0     C25212   7.889   5.760   7.546 -0.7011  0.6603  0.9718
  908MOL0     C25213   7.760   5.793   7.506 -0.6644 -1.4902 -0.9211
  908MOL0     O25214   7.492   5.687   7.621  0.3447  0.5316  0.3989
  908MOL0     C25215   7.298   5.825   7.350  0.8677 -0.3331 -0.8105
  908MOL0     C25216   7.174   5.849   7.298  0.0882 -0.1659 -0.8416
  908MOL0     N25217   6.445   5.930   7.053 -0.7267 -0.3098  0.2247
  908MOL0     N25218   6.318   5.903   7.048 -0.3741  0.2271 -0.2338
  908MOL0     C25219   5.140   5.825   7.570  0.8543 -0.1706  0.9057
  908MOL0     C25220   5.015   5.785   7.633 -0.5485  0.3537  0.5283
  908MOL0     C25221   4.676   5.797   7.923  0.1203  0.8336  0.5944
  908MOL0     C25222   4.685   5.785   8.061  0.0277  0.4460 -0.6682
  908MOL0     C25223   4.587   5.713   8.122 -0.5035  0.1835  0.6960
  908MOL0     C25224   4.468   5.660   8.062 -0.5470  0.5021  0.6035
  908MOL0     O25225   4.386   5.589   8.141 -1.0724  0.4734 -0.3766
  908MOL0     C25226   4.392   5.455   8.105 -0.4707  1.4214 -0.2289
  908MOL0     C25227   4.309   5.373   8.194 -0.4472  0.0608 -0.4264
  908MOL0     C25228   4.315   5.225   8.144  0.8528  0.8838  0.6402
  908MOL0     C25229   4.211   5.194   8.040  0.6868 -0.0560  0.1761
  908MOL0     C25230   4.155   5.052   8.041  0.2478 -0.3971 -0.9385
  908MOL0     C25231   4.136   4.935   8.060 -0.0418 -0.2445 -0.1902
  908MOL0     C25232   4.460   5.676   7.923  0.0080 -0.2058 -0.0586
  908MOL0     C25233   4.567   5.734   7.850  0.3213 -0.0955  0.1298
  908MOL0     C25234   4.538   5.752   7.705 -0.0350  0.2411 -0.8425
  908MOL0     H25235   4.861   6.078   7.648 -0.7561 -0.0846 -0.1554
  908MOL0     H25236   5.069   6.156   7.537 -0.1900  0.6038  0.3827
  908MOL0     H25237   5.390   5.830   7.430 -2.1959  0.6370 -2.2844
  908MOL0     H25238   5.445   5.927   7.553  2.7618  0.3194 -0.6245
  908MOL0     H25239   5.470   6.029   7.266  1.2491 -0.3084 -0.1530
  908MOL0     H25240   5.502   6.118   7.406 -2.6942 -0.7223  1.8284
  908MOL0     H25241   5.654   5.920   7.477  1.1637  0.7772  0.7340
  908MOL0     H25242   5.611   5.848   7.319 -0.2484  1.2051 -2.3060
  908MOL0     H25243   5.751   5.989   7.205  2.4375 -3.2700  0.9980
  908MOL0     H25244   5.699   6.129   7.294  0.0624 -0.8427  0.6987
  908MOL0     H25245   5.888   5.913   7.399  2.8343  0.1117 -0.4675
  908MOL0     H25246   5.839   6.056   7.485  1.1169 -3.0737  1.2987
  908MOL0     H25247   5.946   6.201   7.359 -0.7712 -1.0040 -0.1169
  908MOL0     H25248   6.063   6.077   7.403  1.2816  2.4795 -0.4385
  908MOL0     H25249   6.093   6.174   7.154  0.2123 -1.3579 -1.8443
  908MOL0     H25250   5.933   6.110   7.118  0.3714 -0.0175 -2.4060
  908MOL0     H25251   6.076   5.888   7.218  1.2321  0.0936  0.1604
  908MOL0     H25252   6.060   5.933   7.053 -0.7308 -2.7664  1.3018
  908MOL0     H25253   6.309   6.117   7.298  2.4030 -0.5646  0.2814
  908MOL0     H25254   6.568   6.165   7.276 -0.1329  1.8407 -0.3519
  908MOL0     H25255   6.637   6.135   7.127 -1.1970  1.7449  0.9998
  908MOL0     H25256   6.747   6.048   7.337 -1.8072  2.5406 -0.9819
  908MOL0     H25257   6.624   5.919   7.338  0.7350 -0.5294 -0.3583
  908MOL0     H25258   6.738   5.799   7.220 -2.0401  1.7222  3.6690
  908MOL0     H25259   6.746   5.908   7.078 -2.1085  0.3464  0.5977
  908MOL0     H25260   6.954   5.827   7.153  0.1643  1.1181 -0.9233
  908MOL0     H25261   6.949   6.011   7.166  0.8322 -0.1068 -0.5496
  908MOL0     H25262   6.984   5.801   7.568  0.0080 -1.4293 -0.8806
  908MOL0     H25263   7.108   5.657   7.726 -0.8423  0.2491  0.1264
  908MOL0     H25264   7.254   5.747   7.766  0.3310  1.4988 -1.2017
  908MOL0     H25265   7.260   5.592   7.675 -0.8171  0.1448 -0.1568
  908MOL0     H25266   7.686   5.498   7.358  3.2622 -1.0954 -1.8350
  908MOL0     H25267   7.902   5.436   7.463 -0.2559 -1.2470  2.0872
  908MOL0     H25268   8.019   5.407   7.649 -0.0143 -0.8247 -0.8410
  908MOL0     H25269   8.140   5.435   7.539  0.5866  0.1101  0.8784
  908MOL0     H25270   8.220   5.591   7.778  1.7580 -1.2119  0.5980
  908MOL0     H25271   8.158   5.437   7.831 -0.5057 -1.0065 -1.3474
  908MOL0     H25272   8.387   5.479   7.637  2.8451 -1.6727  0.7208
  908MOL0     H25273   8.291   5.338   7.644 -1.1238  1.0778  0.7144
  908MOL0     H25274   8.342   5.335   7.899  1.0094  1.3973  2.1363
  908MOL0     H25275   8.454   5.462   7.874 -1.0960  0.7148 -0.6968
  908MOL0     H25276   8.550   5.215   7.878  1.0695  0.5785  0.0731
  908MOL0     H25277   8.453   5.193   7.734  1.2901 -0.2946 -0.6628
  908MOL0     H25278   8.579   5.381   7.626  0.4086 -0.4033  0.0821
  908MOL0     H25279   8.672   5.229   7.659 -1.4436  0.0389 -0.6216
  908MOL0     H25280   8.760   5.325   7.874  1.6294 -0.2085 -0.9581
  908MOL0     H25281   8.694   5.485   7.816 -2.3707 -0.5680  0.8740
  908MOL0     H25282   8.873   5.291   7.684  2.1826  0.6855 -1.4142
  908MOL0     H25283   8.934   5.428   7.794 -0.1071 -0.9000 -0.0933
  908MOL0     H25284   7.958   5.832   7.589  0.5341  0.7253 -0.9980
  908MOL0     H25285   7.714   5.892   7.506 -0.5493 -1.4362 -1.1821
  908MOL0     H25286   7.377   5.849   7.279  0.2883  1.1932 -0.9755
  908MOL0     H25287   7.181   5.890   7.198  3.2136  0.7256 -0.3772
  908MOL0     H25288   5.220   5.754   7.552  0.3731 -0.3297 -0.7755
  908MOL0     H25289   4.997   5.680   7.651  1.1711 -1.1263 -4.5531
  908MOL0     H25290   4.768   5.820   8.121 -1.1270 -0.1329  1.3538
  908MOL0     H25291   4.609   5.690   8.226 -1.0770 -0.2922  0.7187
  908MOL0     H25292   4.362   5.441   8.000  4.6366 -0.9295 -1.6871
  908MOL0     H25293   4.495   5.424   8.124 -0.6173 -0.1737 -1.7484
  908MOL0     H25294   4.206   5.408   8.191 -0.7888 -0.7249 -4.5253
  908MOL0     H25295   4.355   5.382   8.293 -3.1712  0.5004  0.8840
  908MOL0     H25296   4.413   5.191   8.110 -0.0034 -0.1562 -0.9208
  908MOL0     H25297   4.297   5.152   8.225  1.1212 -0.4147 -0.4350
  908MOL0     H25298   4.245   5.226   7.942 -0.3475 -1.0442 -0.5299
  908MOL0     H25299   4.135   5.265   8.072  2.5367  1.6748  0.9664
  908MOL0     H25300   4.129   4.832   8.088 -1.4674  0.2351  1.4116
  908MOL0     H25301   4.365   5.639   7.885  0.6448 -3.5739  1.2673
  908MOL0     H25302   4.439   5.714   7.679 -0.0848 -0.7645  0.7156
  908MOL0     H25303   4.545   5.858   7.680  1.5613  0.9962  2.3638
  908MOL0     H25304   4.603   5.698   7.635 -0.3661  0.4206 -1.2973
  909MOL0     O25305   8.062   0.163   5.021 -0.2595  0.9715  0.0545
  909MOL0     C25306   7.998   0.269   5.021  0.5730 -0.7522  0.3287
  909MOL0     O25307   8.051   0.390   4.985 -0.1174  0.2515 -0.2627
  909MOL0     C25308   8.183   0.421   4.971  0.2932  0.3766 -0.1061
  909MOL0     C25309   8.297   0.360   5.023  0.5431  0.6439  0.0152
  909MOL0     C25310   8.426   0.412   4.987  0.3865  0.5490 -0.5457
  909MOL0     C25311   8.436   0.519   4.905 -0.2319 -0.4311 -0.0133
  909MOL0     O25312   8.556   0.573   4.868  0.5984 -0.2216  0.1279
  909MOL0     C25313   8.584   0.696   4.945  0.7813 -0.0772 -0.0976
  909MOL0     C25314   8.696   0.772   4.879  0.4346  0.6025 -0.0023
  909MOL0     C25315   8.823   0.681   4.886  0.5736 -0.0821 -0.1528
  909MOL0     C25316   8.936   0.738   4.804 -0.9228  0.3316 -0.3244
  909MOL0     C25317   9.054   0.631   4.818  0.3005 -0.0930  0.0806
  909MOL0     C25318   9.188   0.693   4.871 -0.3689  0.6095  0.4833
  909MOL0     C25319   9.304   0.593   4.848  0.2853 -0.7638 -0.6114
  909MOL0     C25320   9.420   0.621   4.935 -0.1119  0.4089 -0.8208
  909MOL0     N25321   9.527   0.524   4.912  0.4225 -0.2313  0.0830
  909MOL0     C25322   9.515   0.391   4.950 -0.1118  0.0577 -0.5885
  909MOL0     C25323   9.620   0.330   4.892 -0.4438  0.5022  0.0694
  909MOL0     C25324   9.684   0.193   4.920 -0.2880 -0.1745  0.9148
  909MOL0     C25325   9.736   0.187   5.060 -0.2044  0.4892 -0.6220
  909MOL0     C25326   9.720   0.055   5.126 -0.7551 -0.5073  0.7110
  909MOL0     C25327   9.840  -0.026   5.079  0.4595  0.1557 -0.1019
  909MOL0     O25328   9.829  -0.158   5.124  0.3512  0.7612  0.5629
  909MOL0     C25329   9.752  -0.256   5.064  0.0406  0.4333  0.0967
  909MOL0     C25330   9.688  -0.358   5.133 -0.4566  0.4557 -0.1978
  909MOL0     C25331   9.613  -0.453   5.064 -0.2641 -1.1684  0.1533
  909MOL0     C25332   9.521  -0.536   5.141  0.2150  0.2662 -0.0763
  909MOL0     C25333   9.620  -0.459   4.921 -0.3334  0.0957  0.5430
  909MOL0     C25334   9.549  -0.556   4.836  0.5692  0.1058  0.4006
  909MOL0     O25335   9.508  -0.526   4.717 -0.8153  0.3686 -0.2514
  909MOL0     C25336   9.467  -0.618   4.625  0.1710 -0.1635  0.1121
  909MOL0     C25337   9.330  -0.624   4.587 -0.1768  0.3075  0.1271
  909MOL0     C25338   9.282  -0.719   4.492 -0.1110  0.8407  0.9279
  909MOL0     C25339   9.373  -0.810   4.437 -1.0754 -0.6827  0.3370
  909MOL0     O25340   9.355  -0.901   4.327 -0.2243  0.1193 -0.2331
  909MOL0     C25341   9.257  -0.885   4.218  0.1077  0.8055 -0.0461
  909MOL0     C25342   9.314  -0.805   4.097 -0.1483  0.4937 -0.0165
  909MOL0     C25343   9.364  -0.664   4.143 -0.1944 -0.6252 -0.5895
  909MOL0     C25344   9.379  -0.547   4.040 -0.4118  1.0537 -0.3792
  909MOL0     C25345   9.506  -0.570   3.959  0.0186  0.2934 -0.3729
  909MOL0     C25346   9.520  -0.493   3.828 -0.6556 -0.5287 -0.2978
  909MOL0     C25347   9.408  -0.520   3.727 -0.1756  0.2508 -0.5291
  909MOL0     C25348   9.421  -0.452   3.594 -0.4987  0.9654  0.0673
  909MOL0    Cl25349   9.543  -0.549   3.500  0.2848 -0.4778 -0.0045
  909MOL0     C25350   9.510  -0.798   4.479  0.0717 -0.2306  0.4916
  909MOL0     C25351   9.559  -0.703   4.566  0.3439  0.2331  0.2667
  909MOL0     O25352   9.532  -0.671   4.888 -1.0470 -0.5725 -0.0124
  909MOL0     C25353   9.686  -0.360   4.853  0.2386 -0.1310  0.1224
  909MOL0     C25354   9.742  -0.253   4.919  0.2698  0.0985 -0.9047
  909MOL0     N25355   9.692   0.427   4.823 -0.1337  0.3741  0.7853
  909MOL0     N25356   9.640   0.534   4.832  0.4266 -0.2284  0.3607
  909MOL0     C25357   8.322   0.569   4.844  0.9625 -0.7213  0.7489
  909MOL0     C25358   8.200   0.522   4.881 -0.0365  0.2108 -0.1111
  909MOL0     C25359   7.862   0.279   5.075  0.6191  0.4117 -0.8680
  909MOL0     C25360   7.799   0.406   5.081  0.4965  0.2525 -0.3267
  909MOL0     C25361   7.682   0.428   5.155  0.3047  0.0905  0.7825
  909MOL0     C25362   7.611   0.322   5.210 -0.1275 -0.0160 -0.2195
  909MOL0     O25363   7.488   0.354   5.271 -0.3630  0.3671 -0.3794
  909MOL0     C25364   7.404   0.249   5.320  0.0347 -0.6099  0.1020
  909MOL0     C25365   7.337   0.179   5.203  0.1279  0.1131 -0.1279
  909MOL0     C25366   7.217   0.103   5.247  0.7585  0.6684 -0.3529
  909MOL0     C25367   7.157   0.001   5.144  0.4039 -0.4072  0.4624
  909MOL0     C25368   7.256  -0.109   5.113 -0.6704 -1.0225  0.9896
  909MOL0     C25369   7.348  -0.192   5.080 -0.1377 -0.1455 -0.0377
  909MOL0     C25370   7.670   0.196   5.200 -0.1756  0.1132  0.3854
  909MOL0     C25371   7.796   0.169   5.132 -0.3496  0.1338  0.5043
  909MOL0     C25372   7.838   0.023   5.124  0.2690  0.4418  0.3391
  909MOL0     H25373   8.291   0.272   5.087  0.2804  0.0339 -0.8289
  909MOL0     H25374   8.527   0.389   5.018  0.2552  0.1904 -0.3824
  909MOL0     H25375   8.619   0.665   5.044  0.7076 -0.8292 -0.2998
  909MOL0     H25376   8.500   0.763   4.963  1.1063  0.1272  0.7071
  909MOL0     H25377   8.655   0.797   4.782 -2.2370 -1.0976  0.5844
  909MOL0     H25378   8.710   0.866   4.933 -3.3029 -0.1936  2.8070
  909MOL0     H25379   8.858   0.683   4.990  0.0036  2.0892  0.0484
  909MOL0     H25380   8.808   0.577   4.855  2.4111 -0.5780  0.5049
  909MOL0     H25381   8.908   0.750   4.699 -2.7916 -1.9427 -0.1599
  909MOL0     H25382   8.966   0.836   4.842 -1.9138  0.5995 -0.2026
  909MOL0     H25383   9.075   0.591   4.718  5.4637 -0.7491  1.1560
  909MOL0     H25384   9.031   0.544   4.879  1.4090 -0.9803 -0.7211
  909MOL0     H25385   9.224   0.784   4.823  0.2500 -0.1464 -0.5438
  909MOL0     H25386   9.169   0.711   4.977 -2.1673  0.1618  0.2768
  909MOL0     H25387   9.335   0.606   4.744  0.2587  1.9808 -0.3582
  909MOL0     H25388   9.278   0.488   4.863 -0.1115 -1.1719 -3.4988
  909MOL0     H25389   9.466   0.720   4.932  1.4427 -0.2377  0.3962
  909MOL0     H25390   9.383   0.604   5.036  0.2861 -2.9346 -1.1540
  909MOL0     H25391   9.435   0.354   5.014 -1.9857  1.5244 -1.9642
  909MOL0     H25392   9.768   0.188   4.850 -0.4349  1.7305  0.5482
  909MOL0     H25393   9.618   0.112   4.888 -0.1813 -0.8580  2.3860
  909MOL0     H25394   9.839   0.220   5.074  0.4803 -1.9627  0.7867
  909MOL0     H25395   9.672   0.255   5.118 -0.1413  1.4000 -1.5921
  909MOL0     H25396   9.727   0.045   5.235 -1.4121 -1.5121  0.6741
  909MOL0     H25397   9.630   0.009   5.083 -1.2730 -0.1753  1.4103
  909MOL0     H25398   9.841  -0.015   4.970 -0.1436 -0.7753 -0.2190
  909MOL0     H25399   9.930   0.016   5.124 -0.6550 -0.2614  2.7192
  909MOL0     H25400   9.703  -0.377   5.238  4.6178 -1.4025 -0.9829
  909MOL0     H25401   9.419  -0.541   5.103 -0.8555  0.8499  2.4680
  909MOL0     H25402   9.507  -0.486   5.238 -1.5413  1.2825 -0.8069
  909MOL0     H25403   9.570  -0.633   5.152 -1.9614 -1.1181 -1.8776
  909MOL0     H25404   9.267  -0.550   4.636  0.1551  0.1523  0.8043
  909MOL0     H25405   9.179  -0.708   4.460 -1.0365  1.5386  3.9057
  909MOL0     H25406   9.225  -0.983   4.181 -0.8034  1.2290 -0.4061
  909MOL0     H25407   9.173  -0.828   4.260 -0.6730  0.1993 -0.7452
  909MOL0     H25408   9.405  -0.846   4.053  0.4231  2.0789 -0.3719
  909MOL0     H25409   9.244  -0.793   4.013  2.7203 -1.5761 -2.9739
  909MOL0     H25410   9.452  -0.690   4.202 -0.1764  0.9561  0.1113
  909MOL0     H25411   9.296  -0.633   4.222  2.3133 -0.8293  1.7907
  909MOL0     H25412   9.373  -0.450   4.089 -2.3827  0.3310  0.9447
  909MOL0     H25413   9.293  -0.560   3.974 -0.6791 -3.9577  0.5185
  909MOL0     H25414   9.588  -0.546   4.027 -1.1515 -0.5405  1.4221
  909MOL0     H25415   9.521  -0.677   3.938  3.6125  0.2789  1.5437
  909MOL0     H25416   9.612  -0.532   3.784 -0.5332 -0.9151  0.2907
  909MOL0     H25417   9.528  -0.385   3.839 -1.0610 -0.2746 -2.1114
  909MOL0     H25418   9.312  -0.494   3.772  1.3550  1.4117  2.2947
  909MOL0     H25419   9.390  -0.628   3.717 -0.3700  0.4306 -2.6411
  909MOL0     H25420   9.454  -0.350   3.613  1.7498 -0.0360  2.0020
  909MOL0     H25421   9.328  -0.457   3.537 -1.9304  2.3513  2.1539
  909MOL0     H25422   9.572  -0.875   4.436  0.7477  0.9899 -0.7930
  909MOL0     H25423   9.662  -0.694   4.599  0.2672  1.7084  0.1823
  909MOL0     H25424   9.693  -0.366   4.745 -1.4218 -0.0712 -0.0143
  909MOL0     H25425   9.791  -0.170   4.871 -0.7454  2.1045  1.3265
  909MOL0     H25426   8.317   0.647   4.768  1.7882 -0.7549  0.6455
  909MOL0     H25427   8.114   0.564   4.829 -0.5817 -0.8763 -0.0979
  909MOL0     H25428   7.843   0.498   5.041  1.1588 -0.0199 -0.2463
  909MOL0     H25429   7.645   0.530   5.149 -1.3255 -0.3537  2.3587
  909MOL0     H25430   7.460   0.180   5.384 -0.1416  1.4056  2.5695
  909MOL0     H25431   7.341   0.306   5.388  0.7674 -0.6191  0.8130
  909MOL0     H25432   7.406   0.108   5.157 -0.5214 -0.4537 -0.2391
  909MOL0     H25433   7.301   0.244   5.122 -0.0592 -1.9747 -1.8146
  909MOL0     H25434   7.231   0.048   5.340 -2.9756 -1.0617 -0.6233
  909MOL0     H25435   7.136   0.173   5.269 -0.6144 -0.2192 -2.2503
  909MOL0     H25436   7.126   0.051   5.052  1.6196 -0.2928  0.0882
  909MOL0     H25437   7.064  -0.042   5.182  0.1190  0.7815  1.1504
  909MOL0     H25438   7.429  -0.240   5.029  1.1844  2.9743 -1.1097
  909MOL0     H25439   7.615   0.114   5.246 -0.6247 -0.3083 -0.8664
  909MOL0     H25440   7.845  -0.004   5.019 -1.9783  1.1971 -0.0686
  909MOL0     H25441   7.939   0.013   5.165  0.0914 -2.1577  0.2820
  909MOL0     H25442   7.779  -0.042   5.190 -1.0642  3.5809  2.4909
  910MOL0     O25443   5.994   0.459   3.636 -0.1500 -0.2406  0.8778
  910MOL0     C25444   6.028   0.341   3.624  0.6405  0.6809 -1.3621
  910MOL0     O25445   6.153   0.293   3.598 -0.3202 -0.1936 -0.4982
  910MOL0     C25446   6.252   0.375   3.563  0.3635  0.7865  0.2460
  910MOL0     C25447   6.286   0.495   3.630 -0.4194  0.1617 -0.1349
  910MOL0     C25448   6.387   0.582   3.588 -0.0279  0.3596 -0.1003
  910MOL0     C25449   6.455   0.555   3.475  0.1178 -0.0927  0.3921
  910MOL0     O25450   6.552   0.650   3.440 -0.0373 -0.0524  0.1016
  910MOL0     C25451   6.652   0.618   3.337  0.0011 -0.8979  0.2630
  910MOL0     C25452   6.757   0.732   3.348  1.1053 -0.2908  1.1496
  910MOL0     C25453   6.868   0.688   3.253  0.2616  1.0869 -0.8680
  910MOL0     C25454   6.956   0.799   3.213  0.1376 -0.1521 -0.2162
  910MOL0     C25455   7.079   0.729   3.141 -0.0602 -0.6619  0.3673
  910MOL0     C25456   7.194   0.838   3.140  0.5882  0.6074 -0.5410
  910MOL0     C25457   7.321   0.799   3.063  0.3383  0.0732 -0.0857
  910MOL0     C25458   7.439   0.906   3.088  0.5364  0.0358 -0.0275
  910MOL0     N25459   7.418   1.038   3.030  0.6815 -0.6169 -0.1473
  910MOL0     C25460   7.443   1.078   2.903  0.6367  0.8122  1.0014
  910MOL0     C25461   7.409   1.213   2.905 -0.2965  0.7677  0.0986
  910MOL0     C25462   7.401   1.300   2.785  0.1037  0.1415  0.7113
  910MOL0     C25463   7.542   1.347   2.735 -0.3778  0.1514  0.0050
  910MOL0     C25464   7.638   1.245   2.683 -0.3880  0.1327  1.3235
  910MOL0     C25465   7.761   1.297   2.605  0.8440  0.3524 -0.0611
  910MOL0     O25466   7.827   1.406   2.674 -0.1060 -0.6840 -0.9767
  910MOL0     C25467   7.945   1.437   2.626 -0.8958  0.2905 -0.5555
  910MOL0     C25468   8.050   1.464   2.715 -0.1173 -0.4802  0.9214
  910MOL0     C25469   8.176   1.473   2.661  0.6592  0.0830  0.5655
  910MOL0     C25470   8.288   1.486   2.761  0.4057 -0.0586 -0.2818
  910MOL0     C25471   8.203   1.478   2.522  0.4242  0.0665 -0.1960
  910MOL0     C25472   8.341   1.474   2.454 -0.7270 -0.4077  0.0166
  910MOL0     O25473   8.355   1.476   2.316  0.5182 -0.1032  0.1264
  910MOL0     C25474   8.477   1.475   2.256  0.1962 -0.2719  0.3092
  910MOL0     C25475   8.577   1.383   2.289  0.0649  0.3275  0.4332
  910MOL0     C25476   8.699   1.390   2.219 -0.3467  0.1339 -0.1140
  910MOL0     C25477   8.725   1.496   2.133  0.4166  0.5654 -0.1298
  910MOL0     O25478   8.859   1.515   2.085  0.7712  0.2431  1.1189
  910MOL0     C25479   8.965   1.488   2.182  0.3211 -0.5551  0.6984
  910MOL0     C25480   9.092   1.587   2.168  0.7320 -0.3457 -0.6069
  910MOL0     C25481   9.166   1.562   2.042  0.5404  0.1656  1.1096
  910MOL0     C25482   9.248   1.687   1.996  0.2537 -0.1567  0.3382
  910MOL0     C25483   9.340   1.653   1.879 -0.1578  0.3331 -0.4681
  910MOL0     C25484   9.391   1.786   1.810 -1.1396  0.4319 -0.1314
  910MOL0     C25485   9.470   1.752   1.676  0.2207 -0.2135  0.1614
  910MOL0     C25486   9.510   1.880   1.604  0.1319 -0.0424 -0.0905
  910MOL0    Cl25487   9.651   1.950   1.684  0.3724  0.2588 -0.0667
  910MOL0     C25488   8.621   1.584   2.096  0.3172  0.6627 -0.1987
  910MOL0     C25489   8.501   1.575   2.163  0.5695  0.5872  0.8147
  910MOL0     O25490   8.437   1.455   2.530 -0.0945 -0.3840  0.1719
  910MOL0     C25491   8.092   1.478   2.436  0.7209 -0.0135  0.3642
  910MOL0     C25492   7.966   1.443   2.488 -0.7863 -0.2413  0.6605
  910MOL0     N25493   7.372   1.251   3.031  0.3025 -0.4414 -0.3487
  910MOL0     N25494   7.366   1.144   3.098 -0.1018 -0.1102  0.0214
  910MOL0     C25495   6.428   0.435   3.400  0.0251 -0.4475  0.4960
  910MOL0     C25496   6.319   0.352   3.436 -0.4814  0.1965 -0.3631
  910MOL0     C25497   5.927   0.234   3.643 -0.5596  0.7760 -0.1617
  910MOL0     C25498   5.930   0.130   3.551 -0.1401  0.1447 -0.7797
  910MOL0     C25499   5.844   0.026   3.557  0.3435 -0.5509  0.5228
  910MOL0     C25500   5.729   0.031   3.637 -0.9933  0.0105  0.0765
  910MOL0     O25501   5.649  -0.086   3.636 -0.6383 -0.1019  0.3381
  910MOL0     C25502   5.520  -0.069   3.691  0.1694 -0.6509  0.0186
  910MOL0     C25503   5.452  -0.204   3.689 -0.9945  0.3697  0.3585
  910MOL0     C25504   5.296  -0.182   3.709 -0.1764 -0.5779  0.3283
  910MOL0     C25505   5.229  -0.312   3.693  0.2831 -0.0450  0.3054
  910MOL0     C25506   5.098  -0.319   3.767  0.1539  0.2599 -0.6578
  910MOL0     C25507   4.986  -0.333   3.807 -0.5630  0.5164 -0.2154
  910MOL0     C25508   5.713   0.139   3.721 -0.3274  0.1096 -0.9683
  910MOL0     C25509   5.814   0.244   3.726 -0.4429  0.5744 -0.7930
  910MOL0     C25510   5.799   0.355   3.833 -0.3376 -0.9228 -0.1488
  910MOL0     H25511   6.226   0.517   3.718 -1.4806 -1.8543 -0.2868
  910MOL0     H25512   6.409   0.675   3.640 -0.1900  2.3284 -3.2390
  910MOL0     H25513   6.605   0.625   3.238  0.4626 -1.8290 -0.0331
  910MOL0     H25514   6.697   0.519   3.348 -0.2341 -1.3576 -2.3065
  910MOL0     H25515   6.707   0.826   3.322 -0.0577 -0.2449  3.2751
  910MOL0     H25516   6.795   0.742   3.450  0.0153  2.4131  1.3803
  910MOL0     H25517   6.927   0.613   3.308 -0.2393  0.8644 -0.6256
  910MOL0     H25518   6.828   0.635   3.166 -1.2429 -3.3298  2.1063
  910MOL0     H25519   6.910   0.867   3.140  0.3988 -0.1640 -0.3923
  910MOL0     H25520   7.002   0.844   3.301 -0.1446 -1.1522  0.4676
  910MOL0     H25521   7.057   0.694   3.040 -0.5180 -1.6816  0.8147
  910MOL0     H25522   7.111   0.644   3.201  1.7499  0.3782  0.9647
  910MOL0     H25523   7.153   0.935   3.111 -2.4795 -0.2045  0.6966
  910MOL0     H25524   7.223   0.852   3.245  0.1115  0.1695 -0.3471
  910MOL0     H25525   7.303   0.804   2.956  1.2292  0.8291 -0.2043
  910MOL0     H25526   7.350   0.696   3.087  0.8295  0.2534  0.0985
  910MOL0     H25527   7.439   0.914   3.197 -1.5558  1.2713 -0.0655
  910MOL0     H25528   7.538   0.867   3.066  0.5236 -0.7858  1.2192
  910MOL0     H25529   7.474   1.018   2.818 -0.7868 -0.3324  1.2552
  910MOL0     H25530   7.356   1.395   2.815 -0.4727 -0.1482  0.7852
  910MOL0     H25531   7.331   1.262   2.710 -0.4222 -0.1440  1.3361
  910MOL0     H25532   7.521   1.425   2.661 -0.5386 -0.0965 -0.2126
  910MOL0     H25533   7.581   1.405   2.819 -2.0661  0.1417  0.8410
  910MOL0     H25534   7.685   1.188   2.764  2.1031  1.0050  0.5677
  910MOL0     H25535   7.585   1.176   2.617  0.0480  1.3122 -0.3262
  910MOL0     H25536   7.825   1.210   2.591  2.5592  1.8135 -1.8194
  910MOL0     H25537   7.732   1.332   2.505  1.9704 -1.5077 -1.0828
  910MOL0     H25538   8.032   1.458   2.822  0.9890  1.3509  1.2559
  910MOL0     H25539   8.248   1.509   2.860 -1.3971 -1.1979 -0.6966
  910MOL0     H25540   8.353   1.568   2.728  0.0082  1.4692  2.4003
  910MOL0     H25541   8.348   1.395   2.765 -2.7132 -2.2211  1.5957
  910MOL0     H25542   8.570   1.310   2.369 -2.7091 -2.2543 -1.8715
  910MOL0     H25543   8.781   1.328   2.253 -0.0169  0.6102 -0.0234
  910MOL0     H25544   8.919   1.485   2.281 -4.2041 -0.6940 -1.1327
  910MOL0     H25545   8.991   1.384   2.160 -2.5452 -0.6192 -3.6274
  910MOL0     H25546   9.061   1.691   2.174 -0.5867 -0.8089  2.2438
  910MOL0     H25547   9.155   1.565   2.255 -0.4279 -2.5824 -0.2541
  910MOL0     H25548   9.098   1.549   1.957  2.2998  0.5647 -0.4397
  910MOL0     H25549   9.227   1.472   2.053 -1.3044 -1.1930  0.6909
  910MOL0     H25550   9.306   1.725   2.080  1.4027  0.3051 -0.6218
  910MOL0     H25551   9.177   1.764   1.964 -1.6971 -2.4187 -1.1121
  910MOL0     H25552   9.418   1.585   1.913  0.7482  2.1103  1.2517
  910MOL0     H25553   9.279   1.603   1.804 -1.0299  0.0934  0.3691
  910MOL0     H25554   9.452   1.846   1.878  1.0406 -0.9447 -0.7596
  910MOL0     H25555   9.299   1.838   1.783 -1.5883 -0.0686  0.3943
  910MOL0     H25556   9.402   1.699   1.609  3.6785 -0.9226 -3.0911
  910MOL0     H25557   9.561   1.694   1.694 -0.0738 -0.5287  0.6621
  910MOL0     H25558   9.433   1.955   1.582  1.3484  1.5831  0.9689
  910MOL0     H25559   9.532   1.845   1.503  0.2311  1.2309 -0.5284
  910MOL0     H25560   8.637   1.681   2.050  1.6760 -0.2666 -1.7748
  910MOL0     H25561   8.426   1.653   2.155 -0.9329 -0.6660  2.1711
  910MOL0     H25562   8.100   1.494   2.329  0.3480  1.9094  0.5896
  910MOL0     H25563   7.879   1.450   2.423 -0.0342  2.9314 -0.1974
  910MOL0     H25564   6.477   0.399   3.310 -0.5998 -0.6400  0.2305
  910MOL0     H25565   6.298   0.268   3.371 -0.5491  0.1329 -0.2597
  910MOL0     H25566   6.013   0.110   3.485 -0.3481 -3.2099 -0.1983
  910MOL0     H25567   5.860  -0.060   3.493  0.7744  1.1962 -1.8446
  910MOL0     H25568   5.517  -0.024   3.791 -1.9610 -0.8278  0.0859
  910MOL0     H25569   5.467  -0.001   3.624  0.9218  1.3313  1.3320
  910MOL0     H25570   5.488  -0.262   3.775  0.0046 -0.9105 -0.8548
  910MOL0     H25571   5.478  -0.255   3.595  0.7846 -0.1124  1.0701
  910MOL0     H25572   5.276  -0.164   3.815  4.2140 -0.7715  1.3904
  910MOL0     H25573   5.251  -0.106   3.646 -1.1620 -1.5262 -0.1491
  910MOL0     H25574   5.300  -0.394   3.706 -0.5684 -1.2094 -1.8499
  910MOL0     H25575   5.208  -0.312   3.585  0.8323  0.4721  0.1965
  910MOL0     H25576   4.891  -0.356   3.850  0.5975  0.5754  2.6581
  910MOL0     H25577   5.627   0.149   3.787 -0.6768 -1.3470 -1.1661
  910MOL0     H25578   5.883   0.349   3.903 -1.8055 -0.9822  1.6919
  910MOL0     H25579   5.815   0.451   3.784  1.5832 -2.1065 -2.0328
  910MOL0     H25580   5.708   0.339   3.890 -0.9869 -2.0200 -1.4347
  911MOL0     O25581  10.643   9.541  10.920 -0.6421 -0.3165 -0.1799
  911MOL0     C25582  10.642   9.459  10.825 -0.0918  0.6052 -0.1325
  911MOL0     O25583  10.743   9.435  10.733 -0.2622  0.2174 -0.2337
  911MOL0     C25584  10.858   9.509  10.741  0.4782  0.3798  1.0027
  911MOL0     C25585  10.887   9.611  10.658 -0.7356 -1.6694 -0.2860
  911MOL0     C25586  11.020   9.668  10.647  0.0316  0.2635 -0.1815
  911MOL0     C25587  11.118   9.633  10.741  0.0743  0.7671  0.7302
  911MOL0     O25588  11.241   9.692  10.738 -0.1709  0.3282  0.0922
  911MOL0     C25589  11.304   9.714  10.871 -0.1872 -0.4804 -0.4837
  911MOL0     C25590  11.396   9.594  10.889 -0.4118  0.3122 -0.3242
  911MOL0     C25591  11.535   9.622  10.949 -0.0141  0.7790 -0.5448
  911MOL0     C25592  11.627   9.685  10.847  0.2546 -0.2553 -0.2750
  911MOL0     C25593  11.761   9.735  10.907 -0.1076 -0.6091 -1.0040
  911MOL0     C25594  11.829   9.642  11.016  0.4194 -0.7578  0.8723
  911MOL0     C25595  11.862   9.503  10.966  0.6384 -0.1502 -0.8827
  911MOL0     C25596  11.930   9.422  11.082  0.1453 -1.1883  0.0009
  911MOL0     N25597  11.916   9.280  11.056 -0.3830  0.3467 -0.1399
  911MOL0     C25598  11.957   9.207  10.947  0.2234 -0.1181 -0.6870
  911MOL0     C25599  11.940   9.080  10.979  0.6303  0.1030 -0.5238
  911MOL0     C25600  11.962   8.973  10.881  0.2143  0.5804  0.0888
  911MOL0     C25601  11.994   8.830  10.935  0.3013  0.2734  0.1046
  911MOL0     C25602  12.055   8.740  10.826  0.5097  0.5962 -0.1318
  911MOL0     C25603  11.943   8.702  10.729  0.4709  0.1663  0.4727
  911MOL0     O25604  11.906   8.806  10.632 -0.5500  0.2000  0.0737
  911MOL0     C25605  11.999   8.834  10.533 -0.3128  0.4302 -1.1752
  911MOL0     C25606  11.968   8.947  10.462 -1.1952 -0.0109  0.5559
  911MOL0     C25607  12.039   8.979  10.344  0.9387 -0.6064  0.0431
  911MOL0     C25608  11.999   9.104  10.267  0.5875  0.4495  0.3534
  911MOL0     C25609  12.140   8.886  10.290 -0.9267 -0.4922 -0.0325
  911MOL0     C25610  12.235   8.927  10.172  0.0581  0.2837 -0.0193
  911MOL0     O25611  12.342   8.848  10.161 -0.6341  0.4166 -0.4416
  911MOL0     C25612  12.415   8.847  10.045  0.3772  0.0470  0.9321
  911MOL0     C25613  12.366   8.766   9.931  0.6163 -0.2702  0.0645
  911MOL0     C25614  12.450   8.765   9.816 -0.4699 -0.1041 -0.5736
  911MOL0     C25615  12.572   8.830   9.801 -0.0150 -0.1521  0.4606
  911MOL0     O25616  12.625   8.850   9.675  0.0851  0.2952  0.4866
  911MOL0     C25617  12.721   8.948   9.656 -0.2654 -0.4175 -0.3634
  911MOL0     C25618  12.738   8.980   9.514 -0.7321  0.2639  1.0795
  911MOL0     C25619  12.835   9.099   9.494  0.1300  0.0604 -0.0549
  911MOL0     C25620  12.975   9.064   9.519 -0.2247  0.5637 -0.4390
  911MOL0     C25621  13.021   9.085   9.664 -0.1405 -0.3766 -0.0772
  911MOL0     C25622  13.174   9.094   9.678  0.1019  0.6454  0.3084
  911MOL0     C25623  13.246   8.965   9.655 -0.3649 -0.1846  0.3940
  911MOL0     C25624  13.205   8.839   9.734  0.3340 -0.5014 -0.8376
  911MOL0    Cl25625  13.053   8.760   9.682 -0.2565  0.5411  0.4602
  911MOL0     C25626  12.615   8.901   9.914 -0.2053  0.3323  0.2230
  911MOL0     C25627  12.540   8.911  10.030 -0.0563  0.1524  0.4939
  911MOL0     O25628  12.206   9.016  10.089 -0.0484 -0.0061 -0.2118
  911MOL0     C25629  12.170   8.775  10.374 -0.1162  0.0920 -0.6428
  911MOL0     C25630  12.101   8.749  10.492 -0.5658 -0.5456 -0.5136
  911MOL0     N25631  11.890   9.073  11.103 -0.2790  0.1374  0.4780
  911MOL0     N25632  11.881   9.191  11.156 -0.4406 -0.7349 -0.5172
  911MOL0     C25633  11.076   9.530  10.836 -0.6023  0.7870  0.5240
  911MOL0     C25634  10.955   9.462  10.831 -0.6835  0.3459 -0.1328
  911MOL0     C25635  10.515   9.384  10.817 -0.6992 -0.2715  0.6971
  911MOL0     C25636  10.394   9.453  10.846  1.1624 -0.4927 -0.2389
  911MOL0     C25637  10.273   9.374  10.846  0.5473  0.9570  0.2299
  911MOL0     C25638  10.271   9.239  10.804 -0.1020  0.3754 -0.1950
  911MOL0     O25639  10.159   9.154  10.818 -0.4098 -0.0958 -0.4622
  911MOL0     C25640  10.026   9.210  10.808 -0.1324  0.3169 -0.9471
  911MOL0     C25641   9.917   9.110  10.832  0.0048  0.3408  0.7060
  911MOL0     C25642   9.911   8.998  10.730  0.1290  0.0018  0.4237
  911MOL0     C25643   9.865   9.051  10.587  0.0718  0.1392  0.6193
  911MOL0     C25644   9.838   8.937  10.498 -0.1033  0.3683  0.2155
  911MOL0     C25645   9.821   8.838  10.427  0.8420  0.2060  0.2313
  911MOL0     C25646  10.398   9.181  10.768  0.3416  0.1678 -0.1258
  911MOL0     C25647  10.522   9.249  10.772  0.0618  0.3425  0.2389
  911MOL0     C25648  10.638   9.158  10.748 -0.2628  0.1448 -0.1844
  911MOL0     H25649  10.817   9.639  10.579  1.4076 -1.7463 -2.3250
  911MOL0     H25650  11.044   9.753  10.585  0.4611  1.2500  1.2866
  911MOL0     H25651  11.243   9.720  10.961 -1.6405  2.4118 -1.5462
  911MOL0     H25652  11.359   9.808  10.868  1.6688 -1.5000 -0.2826
  911MOL0     H25653  11.349   9.526  10.961  0.8555  0.4838  0.7152
  911MOL0     H25654  11.407   9.539  10.795  0.4748  1.0301 -0.6574
  911MOL0     H25655  11.527   9.692  11.033  0.8885  0.4726 -0.1921
  911MOL0     H25656  11.567   9.523  10.983 -1.2596  0.2260 -0.9142
  911MOL0     H25657  11.662   9.610  10.775  2.7001  0.3530  0.2094
  911MOL0     H25658  11.584   9.770  10.793  0.5792 -0.3835 -0.7416
  911MOL0     H25659  11.737   9.832  10.951 -1.2894 -1.3770  0.0999
  911MOL0     H25660  11.831   9.752  10.824 -1.4959  0.2825 -2.0443
  911MOL0     H25661  11.920   9.688  11.054 -0.3102  1.1165  0.4629
  911MOL0     H25662  11.764   9.641  11.105  1.9255 -1.2669  2.0140
  911MOL0     H25663  11.934   9.504  10.883  2.2353 -0.5980  0.4394
  911MOL0     H25664  11.770   9.447  10.946 -0.2497  0.9892 -0.1299
  911MOL0     H25665  12.037   9.441  11.093 -0.4119  0.6011  4.4409
  911MOL0     H25666  11.896   9.450  11.182  0.4936 -0.8775  0.0344
  911MOL0     H25667  11.982   9.256  10.853  0.3871 -1.0918 -1.1653
  911MOL0     H25668  12.047   9.005  10.820  0.3113 -1.1129 -0.7154
  911MOL0     H25669  11.875   8.958  10.816  2.2210 -1.2607 -2.3646
  911MOL0     H25670  12.068   8.841  11.014  0.2662 -3.8997  0.9664
  911MOL0     H25671  11.911   8.791  10.994  1.5385 -0.6548  1.2918
  911MOL0     H25672  12.148   8.782  10.786  1.3429 -1.3533 -0.3154
  911MOL0     H25673  12.077   8.643  10.870 -0.7249  0.8200  1.0450
  911MOL0     H25674  11.950   8.601  10.687 -1.2650  0.0349  0.3955
  911MOL0     H25675  11.846   8.691  10.779 -1.0265  1.6818 -1.8884
  911MOL0     H25676  11.892   9.015  10.500 -1.2171  0.9293 -1.1137
  911MOL0     H25677  12.090   9.165  10.259  1.3619 -0.8896 -2.1544
  911MOL0     H25678  11.926   9.167  10.317  1.2107 -0.2412  2.2167
  911MOL0     H25679  11.965   9.072  10.168 -1.4233  1.1027  0.7992
  911MOL0     H25680  12.277   8.704   9.927  1.0375 -0.8321 -1.6397
  911MOL0     H25681  12.410   8.724   9.724 -1.7113  1.6738 -0.8866
  911MOL0     H25682  12.718   9.041   9.713 -0.8467 -2.0348  2.4269
  911MOL0     H25683  12.812   8.896   9.687  0.0781 -0.8779 -2.0359
  911MOL0     H25684  12.757   8.892   9.452 -1.6672  1.2131 -0.6282
  911MOL0     H25685  12.640   9.005   9.473  0.5875 -0.4778 -2.9729
  911MOL0     H25686  12.809   9.189   9.550  3.1066  0.2210  1.2534
  911MOL0     H25687  12.827   9.129   9.389 -0.0917 -0.4650 -0.1901
  911MOL0     H25688  13.041   9.127   9.459  2.6582 -2.7681 -1.1396
  911MOL0     H25689  13.007   8.960   9.501  0.0236  1.0668 -3.4355
  911MOL0     H25690  12.985   9.182   9.699 -1.1382 -0.0689 -1.8327
  911MOL0     H25691  12.981   9.012   9.736  0.7320  0.0593  0.8737
  911MOL0     H25692  13.183   9.129   9.781  1.0042 -2.3109  1.3292
  911MOL0     H25693  13.221   9.168   9.612  2.5810 -2.0527 -1.1963
  911MOL0     H25694  13.349   8.995   9.675 -0.1422 -0.1036 -0.7953
  911MOL0     H25695  13.230   8.940   9.549  2.0844 -2.1865  0.4034
  911MOL0     H25696  13.197   8.859   9.841 -1.6962 -0.2113 -1.0002
  911MOL0     H25697  13.278   8.761   9.713  1.9358  1.2912 -2.2910
  911MOL0     H25698  12.714   8.947   9.915  1.4895 -2.9974  1.8188
  911MOL0     H25699  12.581   8.971  10.111  1.0250  0.3840 -0.2093
  911MOL0     H25700  12.250   8.704  10.353 -0.0603 -0.2241  0.5566
  911MOL0     H25701  12.109   8.655  10.547 -1.5859  0.7015  1.9477
  911MOL0     H25702  11.142   9.492  10.913 -1.2817  0.0729  0.7671
  911MOL0     H25703  10.934   9.376  10.894  1.3153 -0.2304 -0.1903
  911MOL0     H25704  10.378   9.553  10.885 -0.9514 -0.4603 -1.0618
  911MOL0     H25705  10.180   9.418  10.880  1.0390  2.4432 -0.2321
  911MOL0     H25706  10.010   9.288  10.882  0.3010 -0.3188 -0.1630
  911MOL0     H25707  10.015   9.258  10.711  3.5106  0.3441 -1.4878
  911MOL0     H25708   9.823   9.166  10.833 -1.0882 -1.2653 -1.8475
  911MOL0     H25709   9.935   9.070  10.932 -0.1139  0.3163  0.7174
  911MOL0     H25710  10.008   8.947  10.719  1.1726  1.5963  1.8343
  911MOL0     H25711   9.835   8.925  10.759 -1.4639 -0.0171 -3.2139
  911MOL0     H25712   9.948   9.111  10.547  0.5237  0.9565  2.6426
  911MOL0     H25713   9.771   9.107  10.586  0.1443  0.2793  1.3754
  911MOL0     H25714   9.814   8.748  10.371 -0.4506  0.7460 -0.5127
  911MOL0     H25715  10.390   9.074  10.749  1.4449  0.3729 -1.9438
  911MOL0     H25716  10.678   9.177  10.647  0.8386  4.2326  0.8424
  911MOL0     H25717  10.716   9.173  10.823 -0.0528  0.5799 -0.4869
  911MOL0     H25718  10.613   9.051  10.749  2.0464 -0.4643 -0.8464
  912MOL0     O25719   2.188   4.124   3.971  0.0817 -0.0602 -0.6663
  912MOL0     C25720   2.310   4.119   3.945  1.1396 -0.3859 -0.2732
  912MOL0     O25721   2.372   4.019   3.866  0.0027 -0.1253  0.6020
  912MOL0     C25722   2.285   3.923   3.813 -0.2625 -0.0591 -0.0986
  912MOL0     C25723   2.215   3.943   3.690 -0.4015  0.3394  0.2283
  912MOL0     C25724   2.123   3.849   3.647 -0.1247  0.0127 -0.4937
  912MOL0     C25725   2.111   3.724   3.707  0.1325 -0.1261 -1.1138
  912MOL0     O25726   2.019   3.629   3.676  0.7616  0.7267 -0.1652
  912MOL0     C25727   2.028   3.593   3.537  0.1297  0.2167 -0.8944
  912MOL0     C25728   1.966   3.454   3.528  0.8245 -0.0293 -0.7552
  912MOL0     C25729   1.964   3.402   3.380 -0.4023  0.1673 -0.1697
  912MOL0     C25730   1.840   3.336   3.339 -0.8286  0.2197 -0.3453
  912MOL0     C25731   1.830   3.184   3.372  0.2006  1.2375 -0.2327
  912MOL0     C25732   1.838   3.173   3.528  0.2699  0.5135 -0.1956
  912MOL0     C25733   1.793   3.042   3.590  0.1986  0.5902  0.0131
  912MOL0     C25734   1.818   3.052   3.741  0.1600 -0.0662 -0.6119
  912MOL0     N25735   1.960   3.050   3.794 -0.7032 -0.1935 -0.0808
  912MOL0     C25736   2.037   3.150   3.850 -0.5683  0.3405  0.0180
  912MOL0     C25737   2.157   3.090   3.859 -0.6998  0.1022 -0.0988
  912MOL0     C25738   2.293   3.163   3.866  0.2866  0.3777  0.0697
  912MOL0     C25739   2.346   3.208   3.734  0.2326  0.3966  0.4691
  912MOL0     C25740   2.288   3.334   3.685  0.0105 -0.6292 -0.7673
  912MOL0     C25741   2.387   3.457   3.690  1.1624  0.4693  0.7367
  912MOL0     O25742   2.527   3.431   3.658 -0.2039 -0.1884 -0.3546
  912MOL0     C25743   2.616   3.536   3.648  0.2850  0.4872  0.4751
  912MOL0     C25744   2.574   3.672   3.638 -0.2346  0.5282 -0.3893
  912MOL0     C25745   2.668   3.780   3.642  1.0285 -0.7453  0.4179
  912MOL0     C25746   2.614   3.917   3.634  0.5923 -0.5986 -0.3409
  912MOL0     C25747   2.801   3.748   3.664 -0.4176 -0.9291  0.8269
  912MOL0     C25748   2.917   3.851   3.667 -0.0423 -0.4045  0.0070
  912MOL0     O25749   3.039   3.795   3.653 -0.5465 -0.5334 -0.3818
  912MOL0     C25750   3.150   3.872   3.651  0.3296 -0.1660  0.6755
  912MOL0     C25751   3.166   3.976   3.568 -0.6611 -0.8199  0.0182
  912MOL0     C25752   3.292   4.049   3.554 -0.4075 -0.0920  0.4314
  912MOL0     C25753   3.405   4.007   3.627  0.0017 -0.1660  0.1825
  912MOL0     O25754   3.534   4.063   3.619 -0.0076  0.1053 -0.4596
  912MOL0     C25755   3.556   4.158   3.715 -0.2508  0.4010 -0.5386
  912MOL0     C25756   3.705   4.183   3.725  0.7612  0.8432  0.6416
  912MOL0     C25757   3.783   4.232   3.602 -0.1108 -0.2126  0.2796
  912MOL0     C25758   3.821   4.103   3.519 -0.9363 -0.6157 -0.0244
  912MOL0     C25759   3.910   4.146   3.394  0.1613  0.4962  0.3427
  912MOL0     C25760   3.989   4.034   3.313  0.1713 -0.3484  0.2063
  912MOL0     C25761   4.068   4.094   3.199  0.3667 -0.5569 -0.5788
  912MOL0     C25762   4.106   3.989   3.093 -0.1695  0.6385  0.3239
  912MOL0    Cl25763   4.205   3.851   3.167  0.3174 -0.0518 -0.2966
  912MOL0     C25764   3.387   3.896   3.713  0.1365 -0.0367 -0.4996
  912MOL0     C25765   3.263   3.832   3.723  0.0500 -0.0004  0.2116
  912MOL0     O25766   2.893   3.969   3.664  0.5630 -0.7199  0.0690
  912MOL0     C25767   2.843   3.610   3.667 -0.0790 -0.4140 -0.1428
  912MOL0     C25768   2.745   3.507   3.658 -0.0670  0.0615  0.0466
  912MOL0     N25769   2.153   2.958   3.818 -0.3506 -0.0162  0.7234
  912MOL0     N25770   2.035   2.939   3.774 -0.5333  0.2046 -0.0439
  912MOL0     C25771   2.182   3.703   3.823  0.3179 -0.5267  0.0105
  912MOL0     C25772   2.264   3.800   3.875  0.3566  0.3293 -0.7262
  912MOL0     C25773   2.401   4.230   4.000 -0.3199  1.0612 -0.1682
  912MOL0     C25774   2.542   4.212   3.967  1.2900 -0.0889 -0.6048
  912MOL0     C25775   2.631   4.307   3.997  0.5441  0.3342  0.3413
  912MOL0     C25776   2.592   4.423   4.069 -0.3186 -0.1052  0.0795
  912MOL0     O25777   2.688   4.511   4.106  0.1335 -0.5300  0.1502
  912MOL0     C25778   2.719   4.593   3.997 -0.0922  1.1881 -0.0365
  912MOL0     C25779   2.859   4.642   4.004  1.0686 -0.2411 -0.4938
  912MOL0     C25780   2.883   4.740   4.120 -0.9584 -1.5444  0.6112
  912MOL0     C25781   3.022   4.730   4.182 -0.5794 -0.2738  0.0558
  912MOL0     C25782   3.111   4.767   4.074 -0.4991  0.4002 -0.5652
  912MOL0     C25783   3.172   4.819   3.981 -0.1254  0.5571  0.2823
  912MOL0     C25784   2.463   4.442   4.099  0.4337 -0.1770 -0.1992
  912MOL0     C25785   2.362   4.348   4.076 -0.1251 -1.0553 -0.3447
  912MOL0     C25786   2.220   4.374   4.108 -0.2834  0.4063  0.2556
  912MOL0     H25787   2.220   4.035   3.634 -0.5706  1.7093  2.3505
  912MOL0     H25788   2.064   3.874   3.559 -1.0652 -1.0952 -0.1978
  912MOL0     H25789   2.133   3.596   3.505  0.4596 -0.4950  0.0783
  912MOL0     H25790   1.976   3.675   3.487  1.2314  1.9784  0.6821
  912MOL0     H25791   2.030   3.385   3.585  0.1405  1.0016  1.3738
  912MOL0     H25792   1.868   3.448   3.576  0.5412  2.2984 -0.9700
  912MOL0     H25793   1.975   3.489   3.314  1.4138  0.8597  0.9429
  912MOL0     H25794   2.052   3.340   3.362  0.1179  0.8631 -0.0987
  912MOL0     H25795   1.758   3.389   3.388  0.9966  2.4071  0.5003
  912MOL0     H25796   1.840   3.345   3.230 -0.6049  1.1548 -0.2728
  912MOL0     H25797   1.901   3.115   3.326 -1.4716 -1.1518  0.6278
  912MOL0     H25798   1.729   3.161   3.337 -0.3505  3.5498 -0.3282
  912MOL0     H25799   1.945   3.188   3.547  0.5829 -0.9360 -0.7426
  912MOL0     H25800   1.782   3.256   3.572  0.5722  0.2346  0.7495
  912MOL0     H25801   1.851   2.960   3.546 -2.0810  0.1561 -2.4531
  912MOL0     H25802   1.693   3.009   3.564  0.0984  0.6066  0.3705
  912MOL0     H25803   1.772   3.146   3.772  2.2277  0.8655 -0.1716
  912MOL0     H25804   1.763   2.970   3.788 -0.4345  0.5907 -0.1509
  912MOL0     H25805   2.020   3.256   3.870  1.4230  0.6893  0.1384
  912MOL0     H25806   2.371   3.097   3.905  2.8589  0.5417 -4.2388
  912MOL0     H25807   2.283   3.244   3.939  0.4265 -0.0781  0.6032
  912MOL0     H25808   2.455   3.223   3.734  0.1089  1.3876  0.8232
  912MOL0     H25809   2.316   3.128   3.666 -1.6899  1.5482 -0.1075
  912MOL0     H25810   2.260   3.341   3.580  1.3524  0.4775 -1.0868
  912MOL0     H25811   2.206   3.349   3.756 -0.0497 -3.4531 -0.1425
  912MOL0     H25812   2.348   3.530   3.618  4.5552 -0.8363 -2.8172
  912MOL0     H25813   2.386   3.488   3.795 -3.7033 -0.4568  1.1774
  912MOL0     H25814   2.469   3.699   3.642 -1.0737 -2.4460  2.4105
  912MOL0     H25815   2.504   3.921   3.637  0.5562 -0.3518 -1.5409
  912MOL0     H25816   2.646   3.968   3.543 -2.4479  2.3354  0.0305
  912MOL0     H25817   2.652   3.975   3.718 -0.2775 -0.3677 -0.0979
  912MOL0     H25818   3.083   4.011   3.508 -2.0596 -3.3124  0.3802
  912MOL0     H25819   3.307   4.136   3.491 -1.2635  2.5326  3.5909
  912MOL0     H25820   3.501   4.248   3.686  2.2266  2.3997  0.6055
  912MOL0     H25821   3.523   4.117   3.811 -2.9683 -1.9516 -2.3114
  912MOL0     H25822   3.701   4.269   3.792 -1.8438  1.8325 -0.6254
  912MOL0     H25823   3.750   4.099   3.778 -0.4203 -0.2244  0.0258
  912MOL0     H25824   3.870   4.284   3.645 -0.3040  2.0829 -1.8842
  912MOL0     H25825   3.729   4.310   3.547 -0.7700 -0.7799  0.1165
  912MOL0     H25826   3.736   4.042   3.487 -0.5056 -0.4495 -1.5980
  912MOL0     H25827   3.893   4.055   3.586 -0.8564  2.3060  2.1227
  912MOL0     H25828   3.843   4.200   3.326 -0.5038 -3.0344 -2.1147
  912MOL0     H25829   3.983   4.217   3.433  0.0239 -0.2019  1.9188
  912MOL0     H25830   3.904   3.976   3.275  0.4266  0.2168 -1.3003
  912MOL0     H25831   4.054   3.973   3.376 -0.7846 -1.5638  0.0533
  912MOL0     H25832   4.158   4.141   3.241  0.2472  1.2027 -2.1596
  912MOL0     H25833   4.003   4.170   3.155 -1.1090 -0.3873  1.7333
  912MOL0     H25834   4.169   4.035   3.016  0.0617  1.6770  1.1161
  912MOL0     H25835   4.007   3.957   3.058 -1.0202  4.2886 -1.0011
  912MOL0     H25836   3.473   3.870   3.774 -0.7072  0.1086  0.7883
  912MOL0     H25837   3.261   3.744   3.787 -0.2483 -1.9530 -2.2888
  912MOL0     H25838   2.943   3.569   3.671  0.1329  0.2136  1.8585
  912MOL0     H25839   2.791   3.409   3.660  0.9365  0.4741 -1.4977
  912MOL0     H25840   2.158   3.611   3.875 -0.7096  0.5535  1.5369
  912MOL0     H25841   2.326   3.790   3.964 -0.5049  2.4220  0.1621
  912MOL0     H25842   2.577   4.115   3.933 -1.7548 -1.8367  0.8839
  912MOL0     H25843   2.733   4.304   3.960 -0.0948  1.9634 -1.7647
  912MOL0     H25844   2.704   4.540   3.903  1.5656  0.1402  0.2415
  912MOL0     H25845   2.650   4.679   3.996 -0.7983  0.6474  0.7908
  912MOL0     H25846   2.883   4.689   3.908  0.8164  1.1667  0.1055
  912MOL0     H25847   2.926   4.556   4.013  1.4425  0.0920 -0.0393
  912MOL0     H25848   2.869   4.843   4.086  4.3604 -1.1070 -1.1631
  912MOL0     H25849   2.803   4.730   4.193 -0.5701 -2.9546  0.8734
  912MOL0     H25850   3.045   4.630   4.223 -1.4238 -1.6828 -2.6647
  912MOL0     H25851   3.029   4.800   4.266 -0.0181 -0.9492  0.5919
  912MOL0     H25852   3.224   4.862   3.898 -0.5893 -3.2214 -2.2300
  912MOL0     H25853   2.436   4.536   4.147  0.6443  0.1218 -0.6575
  912MOL0     H25854   2.160   4.398   4.019 -0.5426  2.4286  0.9436
  912MOL0     H25855   2.163   4.289   4.148 -0.9652  0.3312 -0.8198
  912MOL0     H25856   2.216   4.463   4.171  1.3655  1.0839 -0.5280
  913MOL0     O25857  11.388   7.940   4.590  0.3220  0.7566 -0.1988
  913MOL0     C25858  11.293   7.868   4.553  0.4689 -0.3331  0.0070
  913MOL0     O25859  11.297   7.734   4.520 -0.8134 -0.7308  0.0275
  913MOL0     C25860  11.417   7.670   4.500 -0.4537 -0.2999  0.8232
  913MOL0     C25861  11.426   7.539   4.547  0.9464 -0.1532 -0.2302
  913MOL0     C25862  11.548   7.472   4.548  0.4705 -0.0931 -0.3034
  913MOL0     C25863  11.663   7.523   4.485  0.9342  0.1542 -0.1974
  913MOL0     O25864  11.793   7.492   4.516  0.3312 -0.1035 -0.2318
  913MOL0     C25865  11.826   7.387   4.610 -0.0812  0.4490 -0.3527
  913MOL0     C25866  11.980   7.393   4.614  1.0271 -0.0718  0.0581
  913MOL0     C25867  12.048   7.325   4.499 -0.3380 -0.1238  0.0782
  913MOL0     C25868  12.196   7.265   4.538  0.5750  0.1140  0.0819
  913MOL0     C25869  12.293   7.378   4.536 -0.1202  1.3191 -0.9484
  913MOL0     C25870  12.423   7.317   4.603  0.2004  0.3407  0.0485
  913MOL0     C25871  12.522   7.436   4.614 -0.1479 -0.3265  0.4387
  913MOL0     C25872  12.611   7.460   4.489 -0.0855 -0.4550 -0.2962
  913MOL0     N25873  12.695   7.582   4.502 -0.4558  0.0191 -0.6903
  913MOL0     C25874  12.797   7.578   4.598 -0.9244  0.3133  0.6105
  913MOL0     C25875  12.877   7.676   4.565 -0.5451  0.2583 -0.9476
  913MOL0     C25876  13.006   7.696   4.635 -0.2618 -0.1888 -0.2868
  913MOL0     C25877  13.129   7.673   4.541  0.1507  0.6321 -0.8390
  913MOL0     C25878  13.255   7.685   4.625  0.2040  0.5679 -0.8775
  913MOL0     C25879  13.368   7.682   4.525 -0.4084  0.7168 -0.2208
  913MOL0     O25880  13.495   7.649   4.600  0.4491 -0.3803 -0.0144
  913MOL0     C25881  13.603   7.619   4.529 -0.7996 -0.2204  0.1698
  913MOL0     C25882  13.694   7.544   4.605 -0.1079  1.0039 -0.0718
  913MOL0     C25883  13.813   7.511   4.544  0.8029  0.2710 -0.3045
  913MOL0     C25884  13.912   7.432   4.631 -0.2652  0.1816 -0.2536
  913MOL0     C25885  13.852   7.547   4.416  0.1883  0.8503  0.6716
  913MOL0     C25886  13.970   7.499   4.337  0.3016 -0.1422  0.0429
  913MOL0     O25887  14.033   7.595   4.261  1.1498 -1.0637 -0.5847
  913MOL0     C25888  14.144   7.582   4.190 -1.3490  0.2953  0.3511
  913MOL0     C25889  14.227   7.476   4.169  0.5153 -0.5582 -0.5649
  913MOL0     C25890  14.345   7.485   4.099 -0.5497  0.4378  0.5623
  913MOL0     C25891  14.392   7.606   4.041  0.3871  0.0791  0.2898
  913MOL0     O25892  14.515   7.617   3.979 -0.2339 -0.1874  0.0686
  913MOL0     C25893  14.631   7.575   4.058 -0.3295 -0.3349  0.4844
  913MOL0     C25894  14.725   7.694   4.053 -0.0991 -0.3636  0.1648
  913MOL0     C25895  14.851   7.668   4.132 -0.9239 -0.0063  0.3435
  913MOL0     C25896  14.967   7.772   4.109  1.0993  0.2068  0.0064
  913MOL0     C25897  15.028   7.825   4.239  0.8175 -0.0879 -0.0242
  913MOL0     C25898  15.110   7.723   4.320 -0.1769 -0.2674 -0.0796
  913MOL0     C25899  15.200   7.625   4.243  0.5356 -0.1061  0.3875
  913MOL0     C25900  15.254   7.511   4.322  0.3528  0.2443  1.0441
  913MOL0    Cl25901  15.330   7.570   4.469 -0.0202 -0.1466 -0.3380
  913MOL0     C25902  14.299   7.714   4.052 -0.8150  0.1802  0.5040
  913MOL0     C25903  14.180   7.700   4.121  0.3745  0.6516 -0.0418
  913MOL0     O25904  14.007   7.384   4.339  0.0239 -0.3604 -0.1689
  913MOL0     C25905  13.761   7.623   4.345  0.4294 -0.6861  0.0913
  913MOL0     C25906  13.637   7.661   4.397 -0.2496  0.2760 -0.4331
  913MOL0     N25907  12.825   7.745   4.459 -0.6055 -0.1025  0.5679
  913MOL0     N25908  12.719   7.685   4.413  0.6405  0.4802  0.2314
  913MOL0     C25909  11.652   7.652   4.431  0.7390 -0.2324  0.2423
  913MOL0     C25910  11.536   7.731   4.441 -0.0705 -0.5411  0.0956
  913MOL0     C25911  11.161   7.925   4.549 -0.0114 -0.8399 -0.3294
  913MOL0     C25912  11.101   7.927   4.420 -0.6875 -0.4035  0.0692
  913MOL0     C25913  10.984   8.009   4.401 -0.1555 -0.8032  0.1588
  913MOL0     C25914  10.924   8.083   4.505  0.3403  0.2268 -0.2201
  913MOL0     O25915  10.817   8.165   4.494  0.5278  0.2584 -0.7130
  913MOL0     C25916  10.770   8.208   4.371 -0.4931 -0.3418  0.2631
  913MOL0     C25917  10.685   8.334   4.390  0.9641  0.4126  0.1557
  913MOL0     C25918  10.548   8.303   4.462 -0.2144  0.1597 -0.2708
  913MOL0     C25919  10.504   8.424   4.550 -0.7812  0.9830  0.0070
  913MOL0     C25920  10.360   8.416   4.589  0.3174 -0.2165 -0.1100
  913MOL0     C25921  10.249   8.383   4.638  0.1370  0.9731 -0.4013
  913MOL0     C25922  10.985   8.078   4.631 -0.7870 -0.3349  0.1553
  913MOL0     C25923  11.099   8.003   4.656 -0.1025  0.7170 -0.4131
  913MOL0     C25924  11.160   8.003   4.794 -0.2056 -0.1318 -0.0745
  913MOL0     H25925  11.341   7.496   4.599  1.6943 -0.0966  1.1037
  913MOL0     H25926  11.549   7.383   4.609 -0.5370  1.0550  1.4775
  913MOL0     H25927  11.783   7.289   4.587  0.8134  0.5364 -2.6771
  913MOL0     H25928  11.781   7.414   4.707  0.5108  0.1217  0.0153
  913MOL0     H25929  12.023   7.494   4.619  2.1430 -0.5243  0.0551
  913MOL0     H25930  12.010   7.339   4.705  0.9918  1.5154  1.0565
  913MOL0     H25931  11.983   7.246   4.460 -2.2914  1.3683  0.1665
  913MOL0     H25932  12.061   7.394   4.416  4.1530 -1.8459 -0.9306
  913MOL0     H25933  12.186   7.218   4.636 -2.5322  1.2777  0.4344
  913MOL0     H25934  12.223   7.198   4.456  0.5650 -0.5571  0.6214
  913MOL0     H25935  12.263   7.464   4.597 -2.2845  0.3742 -0.5982
  913MOL0     H25936  12.317   7.408   4.433  0.8597 -0.3962 -1.2482
  913MOL0     H25937  12.404   7.287   4.707  1.9755 -0.8648  0.0678
  913MOL0     H25938  12.466   7.233   4.548  1.3127  0.8774  0.0607
  913MOL0     H25939  12.584   7.406   4.699 -1.7856  0.7869  2.1020
  913MOL0     H25940  12.461   7.521   4.647 -1.1701 -0.4931 -0.9378
  913MOL0     H25941  12.668   7.371   4.464  0.0542 -0.7163  0.8859
  913MOL0     H25942  12.559   7.482   4.396  1.9680 -0.1586 -1.4374
  913MOL0     H25943  12.823   7.500   4.669 -1.0660 -1.3100 -1.0526
  913MOL0     H25944  13.016   7.623   4.717  1.3336 -0.8397 -1.0215
  913MOL0     H25945  13.003   7.799   4.670  1.3452  0.3918 -1.7196
  913MOL0     H25946  13.114   7.577   4.490  1.7346 -0.2245  0.1988
  913MOL0     H25947  13.130   7.753   4.468  2.8676  1.0716 -0.3963
  913MOL0     H25948  13.259   7.782   4.675 -0.7023  0.9796 -1.5706
  913MOL0     H25949  13.253   7.601   4.694 -4.0378  2.4549  1.6993
  913MOL0     H25950  13.352   7.608   4.446  1.0319 -1.6082  1.5607
  913MOL0     H25951  13.380   7.780   4.478 -2.5576  1.2144  0.1270
  913MOL0     H25952  13.675   7.519   4.709 -0.0724 -0.7486 -0.4536
  913MOL0     H25953  14.001   7.493   4.648  0.3351 -1.0538  1.4225
  913MOL0     H25954  13.952   7.349   4.571  1.7052 -0.2911  1.5883
  913MOL0     H25955  13.878   7.402   4.730  1.7861 -1.5064  0.0203
  913MOL0     H25956  14.205   7.379   4.211 -0.6776 -0.1134 -0.1100
  913MOL0     H25957  14.411   7.400   4.083 -0.6149  0.4160  0.4032
  913MOL0     H25958  14.601   7.566   4.163 -0.7782  0.0263  0.3930
  913MOL0     H25959  14.665   7.476   4.025  1.3790  0.2150  0.5223
  913MOL0     H25960  14.752   7.710   3.949  3.1190  2.0696  1.2400
  913MOL0     H25961  14.678   7.787   4.085  1.7443 -0.2908  2.9548
  913MOL0     H25962  14.883   7.565   4.118  0.6553  0.3980  0.7737
  913MOL0     H25963  14.820   7.682   4.237 -3.5597 -0.6469 -0.2782
  913MOL0     H25964  14.921   7.851   4.048  0.0821 -0.9998 -0.8298
  913MOL0     H25965  15.047   7.743   4.041  1.1208  3.2779 -1.4461
  913MOL0     H25966  15.091   7.911   4.215  0.4917 -0.3471 -2.0602
  913MOL0     H25967  14.958   7.880   4.302  0.0765 -2.1788  1.0535
  913MOL0     H25968  15.040   7.663   4.379 -0.3222 -0.9574 -0.9413
  913MOL0     H25969  15.168   7.781   4.392 -0.5681 -0.9398  0.7976
  913MOL0     H25970  15.282   7.684   4.202 -0.8397  0.6780 -1.3145
  913MOL0     H25971  15.145   7.577   4.162  1.9166 -2.3371  0.6783
  913MOL0     H25972  15.321   7.449   4.263  1.1497  2.5569 -0.6478
  913MOL0     H25973  15.163   7.457   4.349  0.1511  0.7719  1.4453
  913MOL0     H25974  14.319   7.814   4.013 -0.3430  0.3178  1.0887
  913MOL0     H25975  14.117   7.788   4.125  1.6214  1.6654 -1.5603
  913MOL0     H25976  13.783   7.676   4.252  0.3077 -2.2161 -0.8423
  913MOL0     H25977  13.568   7.726   4.345 -0.6843 -0.8567 -1.3043
  913MOL0     H25978  11.739   7.676   4.371  2.0738 -2.3898  1.2104
  913MOL0     H25979  11.535   7.830   4.398  0.3987 -0.8537 -0.6470
  913MOL0     H25980  11.147   7.876   4.336 -2.1198 -2.1149  0.2844
  913MOL0     H25981  10.934   8.009   4.305 -0.2584 -1.1206  0.2094
  913MOL0     H25982  10.849   8.228   4.298 -0.3001  1.4422  0.9139
  913MOL0     H25983  10.715   8.125   4.327 -1.5527 -1.1290  2.8669
  913MOL0     H25984  10.659   8.384   4.296  0.7450 -0.3431 -0.1851
  913MOL0     H25985  10.747   8.395   4.456  2.5553 -1.2544  0.2714
  913MOL0     H25986  10.468   8.283   4.390 -0.6363 -2.7569  0.8851
  913MOL0     H25987  10.548   8.213   4.524 -1.8164 -0.4883 -1.1589
  913MOL0     H25988  10.513   8.516   4.491  0.2977  0.0428 -1.3695
  913MOL0     H25989  10.562   8.436   4.642 -2.0337 -0.7683  1.0867
  913MOL0     H25990  10.149   8.352   4.656  0.2166  1.1407  0.3377
  913MOL0     H25991  10.928   8.135   4.704 -3.2591  2.1132 -3.2849
  913MOL0     H25992  11.087   8.048   4.862  0.2031 -3.4907  2.9254
  913MOL0     H25993  11.186   7.901   4.823  0.5686  0.8628  3.1464
  913MOL0     H25994  11.247   8.069   4.800  0.0220 -0.5063  0.8817
  914MOL0     O25995   4.886   0.382   2.920  0.1979 -0.2513 -0.5304
  914MOL0     C25996   4.888   0.354   3.040  0.8949  0.0811 -0.6978
  914MOL0     O25997   5.001   0.316   3.109  0.4693  0.3780 -0.2226
  914MOL0     C25998   5.121   0.329   3.050 -0.6963 -0.4197 -0.6689
  914MOL0     C25999   5.176   0.454   3.009  0.0718  0.4461 -0.5923
  914MOL0     C26000   5.301   0.469   2.956 -0.3182  0.3642  0.3651
  914MOL0     C26001   5.380   0.351   2.935 -0.7981  0.2697 -0.5101
  914MOL0     O26002   5.508   0.344   2.876 -0.0926 -0.3147 -1.3217
  914MOL0     C26003   5.569   0.478   2.865 -0.9366  0.1375  0.6273
  914MOL0     C26004   5.710   0.466   2.814 -0.7650 -0.4229  0.6714
  914MOL0     C26005   5.789   0.365   2.896  0.3934 -0.2633  1.2294
  914MOL0     C26006   5.942   0.358   2.871 -0.2853 -0.0610  0.8032
  914MOL0     C26007   6.028   0.469   2.937 -1.0044  0.7720 -0.6436
  914MOL0     C26008   6.162   0.453   2.867 -0.4570  0.1458  0.8952
  914MOL0     C26009   6.260   0.565   2.922  0.3054 -0.0749 -0.3761
  914MOL0     C26010   6.379   0.576   2.837 -0.0987 -0.8349 -0.5545
  914MOL0     N26011   6.478   0.672   2.877 -0.0502  0.6667 -0.9430
  914MOL0     C26012   6.472   0.789   2.948  0.3931  0.3050  0.0328
  914MOL0     C26013   6.589   0.833   2.971 -0.5023  0.1108  0.5053
  914MOL0     C26014   6.616   0.972   3.018 -0.8772  0.1975 -0.2637
  914MOL0     C26015   6.597   1.077   2.908  0.1955  0.4923  0.1796
  914MOL0     C26016   6.579   1.217   2.970 -0.5195 -0.0296  0.5231
  914MOL0     C26017   6.567   1.341   2.875 -0.2346 -0.1202  0.2067
  914MOL0     O26018   6.458   1.328   2.783 -0.8576 -0.1997 -0.2366
  914MOL0     C26019   6.332   1.364   2.826 -0.2429  0.4946  1.0070
  914MOL0     C26020   6.236   1.329   2.737 -0.4081 -0.3903 -0.0085
  914MOL0     C26021   6.099   1.351   2.763 -0.4251  0.6494 -0.0289
  914MOL0     C26022   6.010   1.310   2.648  0.4901  0.0700 -0.2883
  914MOL0     C26023   6.061   1.401   2.885  0.7410 -0.2170  0.3040
  914MOL0     C26024   5.915   1.416   2.930 -0.0603 -0.1803 -0.3394
  914MOL0     O26025   5.825   1.340   2.875 -0.5830  0.1950  0.7305
  914MOL0     C26026   5.693   1.339   2.911 -0.4546 -0.4284  0.0640
  914MOL0     C26027   5.620   1.458   2.933  0.4065  0.7590  0.0328
  914MOL0     C26028   5.489   1.459   2.980  0.5411 -0.6907  1.2248
  914MOL0     C26029   5.430   1.336   3.013 -0.3623  0.6468 -1.3247
  914MOL0     O26030   5.302   1.330   3.064 -0.0540 -0.0129 -0.3464
  914MOL0     C26031   5.276   1.408   3.175 -0.3872  0.3024 -0.4294
  914MOL0     C26032   5.147   1.372   3.233 -0.1545 -0.5041 -0.8456
  914MOL0     C26033   5.037   1.345   3.130 -0.0719  0.6655  0.2567
  914MOL0     C26034   4.905   1.306   3.212 -0.1910  0.0647  0.0989
  914MOL0     C26035   4.792   1.298   3.108  0.1145  0.6254  0.5768
  914MOL0     C26036   4.663   1.218   3.155  0.7014 -0.1984  0.1545
  914MOL0     C26037   4.696   1.075   3.199 -0.0554 -0.4768  0.2296
  914MOL0     C26038   4.583   0.977   3.158 -0.9568  0.0414 -0.1339
  914MOL0    Cl26039   4.427   1.030   3.227  0.0350  0.4756 -0.2846
  914MOL0     C26040   5.500   1.211   3.000 -0.3578  0.4741  0.4746
  914MOL0     C26041   5.630   1.210   2.936  0.5478 -1.0981  0.4606
  914MOL0     O26042   5.904   1.490   3.028 -0.1822  0.0650 -0.0153
  914MOL0     C26043   6.159   1.443   2.974 -0.4388 -0.3289  0.1507
  914MOL0     C26044   6.297   1.430   2.939  0.0858  0.2050 -1.0499
  914MOL0     N26045   6.673   0.742   2.912  1.0145  0.1419  0.3873
  914MOL0     N26046   6.607   0.638   2.867 -0.3586  0.1468 -0.1613
  914MOL0     C26047   5.334   0.228   2.969  0.8135  0.3024 -0.5258
  914MOL0     C26048   5.208   0.216   3.031 -0.1445 -0.0206 -0.0030
  914MOL0     C26049   4.758   0.352   3.115  0.0922 -0.4049 -1.0729
  914MOL0     C26050   4.758   0.274   3.233  0.1920  0.5716 -0.2844
  914MOL0     C26051   4.634   0.249   3.291  0.7442 -0.0215  0.9860
  914MOL0     C26052   4.521   0.316   3.245  0.6266  0.1355  0.4466
  914MOL0     O26053   4.401   0.272   3.301  0.0942  0.6857 -0.4642
  914MOL0     C26054   4.273   0.323   3.268  0.7006 -0.0726 -0.5309
  914MOL0     C26055   4.161   0.299   3.380 -0.4470  0.2786  0.1711
  914MOL0     C26056   4.023   0.325   3.319  0.3794  0.4595 -0.3046
  914MOL0     C26057   3.992   0.467   3.265  0.7179  0.4198 -0.4036
  914MOL0     C26058   3.853   0.486   3.222  0.1303 -0.2105  1.3447
  914MOL0     C26059   3.730   0.502   3.212  0.1752  0.3662 -0.1550
  914MOL0     C26060   4.525   0.399   3.135 -0.0225 -0.4697  0.7033
  914MOL0     C26061   4.642   0.423   3.065 -0.3473  0.3598 -0.7306
  914MOL0     C26062   4.644   0.528   2.961  0.1172 -0.2057 -0.0690
  914MOL0     H26063   5.118   0.543   3.029  0.5187  0.1091  2.7280
  914MOL0     H26064   5.335   0.570   2.936  0.3782  0.6139  2.6280
  914MOL0     H26065   5.577   0.525   2.964  1.0803  0.1568  0.5005
  914MOL0     H26066   5.512   0.539   2.796 -1.2034  2.0087  2.3949
  914MOL0     H26067   5.709   0.450   2.706  2.1965  0.7531  0.3840
  914MOL0     H26068   5.764   0.561   2.826 -1.3300 -0.3187  3.0982
  914MOL0     H26069   5.767   0.380   3.002 -3.7340 -1.4781  0.7262
  914MOL0     H26070   5.751   0.263   2.888 -1.1957 -0.0566  4.6052
  914MOL0     H26071   5.984   0.258   2.889 -0.5140  0.0186  1.8412
  914MOL0     H26072   5.947   0.362   2.762 -1.6586  1.2255  0.7572
  914MOL0     H26073   6.044   0.459   3.044 -2.1657 -2.7903 -0.6896
  914MOL0     H26074   5.985   0.569   2.922 -0.5171  0.8171 -1.9115
  914MOL0     H26075   6.215   0.357   2.867  2.0864  1.3927 -1.2949
  914MOL0     H26076   6.133   0.478   2.765  2.8818  0.2953 -0.1468
  914MOL0     H26077   6.288   0.558   3.028  1.7318 -0.2975 -0.7493
  914MOL0     H26078   6.201   0.657   2.924 -1.0668 -0.9171 -0.5700
  914MOL0     H26079   6.435   0.483   2.823  0.6761 -0.5590  0.5794
  914MOL0     H26080   6.344   0.604   2.737 -2.7200 -3.2080 -0.4217
  914MOL0     H26081   6.378   0.838   2.972  0.3600  1.3774 -2.0565
  914MOL0     H26082   6.717   0.985   3.058 -0.8156  0.5275 -0.5202
  914MOL0     H26083   6.543   0.983   3.098  0.8413 -1.3763  1.6252
  914MOL0     H26084   6.678   1.080   2.834 -1.5588 -0.1675 -1.8840
  914MOL0     H26085   6.501   1.052   2.862  0.2499  1.2552 -0.3702
  914MOL0     H26086   6.498   1.220   3.043 -0.8988 -3.4486  0.4092
  914MOL0     H26087   6.665   1.248   3.030 -1.7502 -0.1235  2.3968
  914MOL0     H26088   6.553   1.424   2.945  3.9146 -0.1086  1.3296
  914MOL0     H26089   6.661   1.360   2.821 -0.4206  0.8260  0.1919
  914MOL0     H26090   6.270   1.261   2.659  0.3467 -0.9431  0.7859
  914MOL0     H26091   5.949   1.393   2.610 -0.3953 -0.1885  0.5471
  914MOL0     H26092   5.937   1.236   2.680  1.3074 -0.5664  0.1448
  914MOL0     H26093   6.063   1.267   2.562 -0.1317  1.2877 -1.3184
  914MOL0     H26094   5.662   1.556   2.911  1.2240  0.2825 -0.5652
  914MOL0     H26095   5.441   1.556   2.973 -1.0219 -1.5188 -0.1879
  914MOL0     H26096   5.358   1.396   3.247  0.5670  2.2249 -1.1124
  914MOL0     H26097   5.284   1.514   3.150 -2.2029  1.3408  2.7836
  914MOL0     H26098   5.154   1.284   3.297  0.4906  1.2506  1.6330
  914MOL0     H26099   5.117   1.461   3.289  1.4629 -0.1819 -0.4278
  914MOL0     H26100   5.070   1.266   3.062  0.3300  0.7522  0.3465
  914MOL0     H26101   5.012   1.440   3.083  2.3074  0.5879 -1.3361
  914MOL0     H26102   4.876   1.377   3.290 -2.8985 -1.1327  0.2879
  914MOL0     H26103   4.930   1.218   3.271  3.8230 -0.9098 -2.5917
  914MOL0     H26104   4.769   1.401   3.080  0.7690  0.0381 -2.4822
  914MOL0     H26105   4.832   1.251   3.017 -0.0646  0.3658  0.6316
  914MOL0     H26106   4.592   1.221   3.072 -1.3014  1.4922  1.8224
  914MOL0     H26107   4.617   1.268   3.241 -0.8417 -0.9233 -0.2213
  914MOL0     H26108   4.713   1.075   3.307  0.2563 -0.7984  0.1813
  914MOL0     H26109   4.785   1.039   3.147  0.1934  3.3471 -2.3241
  914MOL0     H26110   4.610   0.875   3.187 -0.7851  0.0643 -0.2137
  914MOL0     H26111   4.571   0.977   3.049 -0.7236  1.6234 -0.1868
  914MOL0     H26112   5.450   1.124   3.042  1.9983 -1.5145 -0.5968
  914MOL0     H26113   5.688   1.119   2.926  3.1218 -0.0645  4.1332
  914MOL0     H26114   6.139   1.486   3.072 -0.6497  0.6452 -0.3030
  914MOL0     H26115   6.368   1.479   3.006  1.4122  0.3147 -2.4875
  914MOL0     H26116   5.396   0.142   2.947 -0.5236 -0.4379 -1.5287
  914MOL0     H26117   5.170   0.118   3.056 -0.4724 -0.2386 -1.2727
  914MOL0     H26118   4.845   0.225   3.276 -1.8028 -1.5242  1.6097
  914MOL0     H26119   4.625   0.185   3.378 -0.1480 -1.4919 -0.1583
  914MOL0     H26120   4.284   0.430   3.252  1.3919 -0.1989 -0.9340
  914MOL0     H26121   4.228   0.280   3.178  0.4570 -1.8356  0.3885
  914MOL0     H26122   4.187   0.366   3.462  3.9372  0.3931 -1.0553
  914MOL0     H26123   4.157   0.194   3.412 -1.8048  0.0931 -0.5387
  914MOL0     H26124   4.011   0.258   3.233 -3.3616 -1.0932  1.2209
  914MOL0     H26125   3.944   0.299   3.390  1.1177  1.3846  0.8976
  914MOL0     H26126   4.053   0.477   3.175  1.1373 -6.1833 -1.3777
  914MOL0     H26127   4.007   0.539   3.345 -1.5475 -1.1547  1.5925
  914MOL0     H26128   3.623   0.512   3.213 -0.3825 -3.6920  1.9033
  914MOL0     H26129   4.437   0.459   3.115 -0.8984 -1.5419  1.2012
  914MOL0     H26130   4.560   0.597   2.948  0.1190 -0.6520 -3.2840
  914MOL0     H26131   4.723   0.601   2.979  0.2692 -1.0003  3.0373
  914MOL0     H26132   4.648   0.480   2.863  2.4022  3.8497 -2.2385
  915MOL0     O26133   0.542   1.474   9.361 -0.6043 -0.2303  0.4904
  915MOL0     C26134   0.533   1.369   9.305  1.0776 -0.6557  0.0431
  915MOL0     O26135   0.418   1.293   9.286 -0.0627  0.1355 -0.3584
  915MOL0     C26136   0.291   1.331   9.327  0.2830 -0.7492 -0.4155
  915MOL0     C26137   0.276   1.387   9.449 -0.0402  0.4073  1.1958
  915MOL0     C26138   0.147   1.438   9.479  0.2684 -0.8839  0.3314
  915MOL0     C26139   0.034   1.410   9.401 -0.2574  0.1774  0.9777
  915MOL0     O26140  -0.099   1.437   9.434  0.0654  0.4642  0.2474
  915MOL0     C26141  -0.137   1.335   9.518  0.6515  0.0163 -0.2480
  915MOL0     C26142  -0.286   1.359   9.549  0.5242 -0.1856 -0.1863
  915MOL0     C26143  -0.370   1.295   9.438 -0.3944 -0.2029  0.1449
  915MOL0     C26144  -0.517   1.316   9.489  0.4116 -0.0202  0.4362
  915MOL0     C26145  -0.624   1.271   9.394  0.1102  0.5157  0.7723
  915MOL0     C26146  -0.769   1.309   9.445  0.2355 -0.3999  0.4839
  915MOL0     C26147  -0.866   1.315   9.324 -1.2398  0.7804  0.3607
  915MOL0     C26148  -1.012   1.361   9.357  0.4832  0.4747  0.0479
  915MOL0     N26149  -1.070   1.297   9.467  0.0566  0.1266  0.3706
  915MOL0     C26150  -1.082   1.164   9.480 -0.5372 -0.8213 -0.2218
  915MOL0     C26151  -1.136   1.139   9.597  0.0232  0.3290  0.1586
  915MOL0     C26152  -1.181   1.009   9.664 -0.1340 -0.5880  0.1120
  915MOL0     C26153  -1.060   0.912   9.671  0.0677  0.1389  1.1087
  915MOL0     C26154  -0.955   0.947   9.784 -0.0288  0.0040  0.2594
  915MOL0     C26155  -0.900   1.087   9.794  0.2802 -0.0759 -0.1761
  915MOL0     O26156  -0.794   1.103   9.893  0.0547 -0.2238 -0.3056
  915MOL0     C26157  -0.667   1.073   9.854 -0.0664 -1.3955  0.3459
  915MOL0     C26158  -0.630   1.013   9.729 -0.5018 -0.6272 -0.3453
  915MOL0     C26159  -0.492   0.982   9.700 -0.0760 -0.0998 -0.6831
  915MOL0     C26160  -0.466   0.900   9.581 -1.4461 -0.4465 -0.5678
  915MOL0     C26161  -0.386   1.026   9.788 -0.2355  0.2119 -0.0968
  915MOL0     C26162  -0.242   1.008   9.766 -0.6198  0.6487 -0.7885
  915MOL0     O26163  -0.163   1.047   9.873  0.1516  0.2814  0.1470
  915MOL0     C26164  -0.039   1.095   9.845  0.7816 -0.0640 -0.4823
  915MOL0     C26165   0.061   1.022   9.790 -0.5354  0.1742  0.3957
  915MOL0     C26166   0.189   1.078   9.768  0.1305  0.2646  0.7458
  915MOL0     C26167   0.222   1.212   9.808  0.7034  0.4249 -0.2478
  915MOL0     O26168   0.343   1.273   9.797 -0.8019  0.2674 -0.2777
  915MOL0     C26169   0.457   1.187   9.805 -0.2110 -0.6226  0.1229
  915MOL0     C26170   0.583   1.267   9.765  0.0145  0.2755  0.4086
  915MOL0     C26171   0.713   1.183   9.776 -0.1473  0.1758 -0.1796
  915MOL0     C26172   0.828   1.268   9.714 -0.0953 -0.3700  0.6392
  915MOL0     C26173   0.948   1.181   9.697 -0.2693  0.4131  0.8050
  915MOL0     C26174   1.023   1.132   9.825  0.5414 -0.8581 -0.0001
  915MOL0     C26175   1.144   1.040   9.806  0.2318 -0.3049  0.3345
  915MOL0     C26176   1.204   0.965   9.932 -0.4394 -0.0670  0.4477
  915MOL0    Cl26177   1.311   0.835   9.866 -0.2152 -0.1894 -0.0377
  915MOL0     C26178   0.118   1.286   9.870  0.1415 -0.2640 -0.5077
  915MOL0     C26179  -0.008   1.224   9.896  0.0269 -0.9030  0.1985
  915MOL0     O26180  -0.205   0.978   9.653 -0.1915 -0.9537 -0.5362
  915MOL0     C26181  -0.425   1.090   9.906  0.4539 -0.0578  0.7010
  915MOL0     C26182  -0.563   1.115   9.947  0.2753 -0.3172 -0.0037
  915MOL0     N26183  -1.165   1.266   9.655  0.4966  0.4250 -0.4459
  915MOL0     N26184  -1.130   1.353   9.572  0.4357  0.3185 -0.7101
  915MOL0     C26185   0.051   1.335   9.281 -0.2850  0.2862 -0.8002
  915MOL0     C26186   0.182   1.293   9.242  0.7339  0.4680 -1.1303
  915MOL0     C26187   0.655   1.313   9.228 -0.6175 -0.3122 -0.4423
  915MOL0     C26188   0.629   1.202   9.149 -0.4330  0.2056 -0.5785
  915MOL0     C26189   0.735   1.131   9.088 -0.4450  0.4476  0.6642
  915MOL0     C26190   0.871   1.176   9.102  0.3840  0.2769 -0.5359
  915MOL0     O26191   0.980   1.126   9.038 -0.4605  0.3046 -0.1063
  915MOL0     C26192   0.940   1.031   8.936 -0.1347 -0.5883 -0.0673
  915MOL0     C26193   1.058   0.990   8.845  0.2598 -0.0570 -0.3716
  915MOL0     C26194   1.164   0.893   8.899  0.7019 -0.7061  0.1257
  915MOL0     C26195   1.134   0.848   9.042  0.1000 -0.7705 -0.5713
  915MOL0     C26196   1.226   0.732   9.058 -0.2299 -0.5202 -0.0439
  915MOL0     C26197   1.306   0.645   9.067 -0.3981 -0.5084 -0.4500
  915MOL0     C26198   0.894   1.278   9.195 -0.7883 -0.5352  0.3918
  915MOL0     C26199   0.793   1.354   9.249  0.5728  0.0042 -0.5999
  915MOL0     C26200   0.846   1.476   9.330  0.1091 -0.2277 -0.0232
  915MOL0     H26201   0.365   1.402   9.510  1.9769  0.9348 -1.6954
  915MOL0     H26202   0.133   1.490   9.573 -0.8988 -1.1212  0.3017
  915MOL0     H26203  -0.084   1.336   9.614 -1.3231  0.3071  0.8961
  915MOL0     H26204  -0.128   1.238   9.468 -3.5982 -0.1934 -1.0066
  915MOL0     H26205  -0.301   1.311   9.646  1.9589 -1.7049 -0.6641
  915MOL0     H26206  -0.307   1.466   9.544  1.6033  0.0157 -0.6877
  915MOL0     H26207  -0.364   1.339   9.338 -0.3168  0.0633  0.2661
  915MOL0     H26208  -0.362   1.187   9.427 -0.7144  0.0402 -4.0190
  915MOL0     H26209  -0.520   1.262   9.584  1.1558 -0.2664  0.3300
  915MOL0     H26210  -0.540   1.423   9.493  0.8508  0.1635 -1.0618
  915MOL0     H26211  -0.628   1.163   9.379  3.0074  0.5420 -0.8413
  915MOL0     H26212  -0.602   1.316   9.297 -0.4999 -0.7051  0.0455
  915MOL0     H26213  -0.799   1.233   9.517  0.9458 -0.5775  0.6008
  915MOL0     H26214  -0.775   1.404   9.499  0.7215 -0.2354  0.2612
  915MOL0     H26215  -0.873   1.213   9.285 -4.4667  1.8738 -2.3947
  915MOL0     H26216  -0.826   1.382   9.248 -0.2400  2.0184  1.9276
  915MOL0     H26217  -1.003   1.470   9.357  0.9390  0.4404  0.1202
  915MOL0     H26218  -1.065   1.330   9.266  0.6709 -0.5898  0.2848
  915MOL0     H26219  -1.059   1.098   9.398  0.5819  0.7948 -1.2728
  915MOL0     H26220  -1.264   0.963   9.611 -1.6585 -1.1508  2.7795
  915MOL0     H26221  -1.219   1.036   9.763 -0.7668 -0.1908 -0.2385
  915MOL0     H26222  -1.097   0.809   9.674 -2.7372  1.0167 -0.2052
  915MOL0     H26223  -1.010   0.920   9.573  1.5366 -2.4342  1.5472
  915MOL0     H26224  -1.003   0.916   9.877 -3.4479 -1.0823 -1.6426
  915MOL0     H26225  -0.866   0.885   9.783  1.3992  1.8868  1.9722
  915MOL0     H26226  -0.869   1.112   9.692  0.3330  0.7867  0.0419
  915MOL0     H26227  -0.977   1.162   9.813 -0.4369 -1.0930  1.0811
  915MOL0     H26228  -0.714   0.977   9.671 -0.6247 -0.5667 -0.2055
  915MOL0     H26229  -0.393   0.822   9.603 -0.8049  0.4969  0.7656
  915MOL0     H26230  -0.427   0.973   9.509 -0.9815  0.0100  0.1345
  915MOL0     H26231  -0.553   0.844   9.545 -1.7564 -1.8922  2.1340
  915MOL0     H26232   0.050   0.919   9.758  1.6082 -0.4873  1.5596
  915MOL0     H26233   0.259   1.008   9.723  0.2962  1.2886 -0.6670
  915MOL0     H26234   0.462   1.147   9.906 -0.6776  1.0956  0.8518
  915MOL0     H26235   0.462   1.107   9.731  1.0284  0.9389 -1.6015
  915MOL0     H26236   0.566   1.300   9.662  0.3288  0.2757  0.3540
  915MOL0     H26237   0.597   1.358   9.825  2.4314 -0.1165  0.5374
  915MOL0     H26238   0.693   1.093   9.716  0.7378 -1.0307  1.2767
  915MOL0     H26239   0.724   1.163   9.883 -3.0738 -0.2776  0.1251
  915MOL0     H26240   0.847   1.351   9.784 -0.0990 -0.1553  0.3877
  915MOL0     H26241   0.794   1.317   9.623 -1.3245 -1.0653  0.7132
  915MOL0     H26242   0.916   1.096   9.635  1.4521  1.6364 -1.9149
  915MOL0     H26243   1.008   1.240   9.627 -0.6691 -1.3301 -1.1281
  915MOL0     H26244   0.952   1.068   9.878  1.7036  0.2010  3.0708
  915MOL0     H26245   1.049   1.218   9.887 -1.4946  0.0071 -0.2547
  915MOL0     H26246   1.224   1.102   9.766  0.8375 -0.6133  1.0457
  915MOL0     H26247   1.119   0.967   9.729  1.7884 -1.0411  0.5023
  915MOL0     H26248   1.119   0.921   9.983 -1.5223  2.3438  0.8379
  915MOL0     H26249   1.255   1.031  10.002 -0.2611  0.6513 -0.3396
  915MOL0     H26250   0.136   1.386   9.909  2.6518 -0.8833  0.1167
  915MOL0     H26251  -0.082   1.270   9.962 -0.6399 -1.4535 -0.1656
  915MOL0     H26252  -0.360   1.142   9.976 -0.7430  2.5550  0.0214
  915MOL0     H26253  -0.607   1.153  10.039 -2.2380  0.7123 -1.5327
  915MOL0     H26254  -0.038   1.310   9.225 -0.9571  0.0202  0.3503
  915MOL0     H26255   0.191   1.234   9.152 -0.9776  0.9254 -1.6463
  915MOL0     H26256   0.528   1.172   9.122 -0.6035 -0.4041  0.6533
  915MOL0     H26257   0.709   1.044   9.028  1.9620 -1.1390  1.7964
  915MOL0     H26258   0.900   0.945   8.990 -0.5412  1.4336  3.1218
  915MOL0     H26259   0.861   1.079   8.878 -1.0115 -1.1889  0.6098
  915MOL0     H26260   1.108   1.082   8.815  0.3349  0.3353  0.8860
  915MOL0     H26261   1.017   0.938   8.758  3.5618 -4.6741  0.3934
  915MOL0     H26262   1.172   0.807   8.834  0.0947 -0.1715 -0.6795
  915MOL0     H26263   1.264   0.936   8.901  0.5269  0.0399 -3.0597
  915MOL0     H26264   1.029   0.820   9.057 -1.3106  4.3826  1.1143
  915MOL0     H26265   1.153   0.920   9.121  0.7609  0.8829 -2.1743
  915MOL0     H26266   1.379   0.566   9.064  0.3634  0.1908 -2.1899
  915MOL0     H26267   0.995   1.314   9.213  0.3909 -2.6625 -1.3828
  915MOL0     H26268   0.930   1.448   9.394  1.5490  1.7954 -0.9476
  915MOL0     H26269   0.881   1.549   9.257 -1.8163 -0.1252 -0.9102
  915MOL0     H26270   0.766   1.529   9.382  0.2862  0.2218 -0.2062
  916MOL0     O26271   8.935   6.566   4.370 -0.2420  1.1517  0.0759
  916MOL0     C26272   8.986   6.669   4.404 -0.1659 -0.4215  0.2018
  916MOL0     O26273   9.123   6.693   4.417  0.7260 -0.5070  0.3923
  916MOL0     C26274   9.199   6.583   4.388 -0.8803 -0.2609  0.2684
  916MOL0     C26275   9.242   6.550   4.258 -0.3312  0.2919 -0.0119
  916MOL0     C26276   9.345   6.456   4.243 -0.6426 -0.0149  0.2675
  916MOL0     C26277   9.390   6.380   4.348  0.0511 -0.2440  0.0604
  916MOL0     O26278   9.478   6.270   4.349  0.6034 -0.5923 -0.1497
  916MOL0     C26279   9.489   6.203   4.226  0.4721  0.3655  0.0785
  916MOL0     C26280   9.543   6.066   4.272 -0.4318  0.3365  0.2257
  916MOL0     C26281   9.444   5.984   4.361  0.1417  0.4634 -0.2950
  916MOL0     C26282   9.450   5.829   4.360  0.9613  0.5037  0.4230
  916MOL0     C26283   9.324   5.754   4.414  0.1316 -0.6889 -0.3793
  916MOL0     C26284   9.259   5.806   4.540 -0.2798 -0.4723  0.4097
  916MOL0     C26285   9.148   5.702   4.588  0.1844  0.1216 -0.5845
  916MOL0     C26286   9.067   5.745   4.718  0.2320  0.7024  0.2103
  916MOL0     N26287   9.135   5.726   4.846  0.3434 -0.0137  0.2764
  916MOL0     C26288   9.219   5.813   4.900 -0.1933 -0.1397 -0.4861
  916MOL0     C26289   9.255   5.757   5.018 -0.6673 -0.6672 -0.3261
  916MOL0     C26290   9.362   5.809   5.119  0.3775 -0.3677 -0.4695
  916MOL0     C26291   9.474   5.720   5.124 -0.1052 -0.0407  0.3695
  916MOL0     C26292   9.589   5.772   5.217  0.7866  0.3795 -0.8479
  916MOL0     C26293   9.722   5.695   5.207  0.3076 -0.3299 -0.0643
  916MOL0     O26294   9.789   5.727   5.084  0.0484  0.2128  0.0894
  916MOL0     C26295   9.921   5.682   5.073  0.0914  0.3288 -0.0728
  916MOL0     C26296   9.981   5.577   5.152  0.4690  0.3384  0.4487
  916MOL0     C26297  10.120   5.546   5.140  0.2274  0.1705 -0.9068
  916MOL0     C26298  10.161   5.454   5.248 -0.5421 -0.3713  0.0377
  916MOL0     C26299  10.202   5.618   5.050  0.3068 -0.3369  0.5567
  916MOL0     C26300  10.347   5.601   5.034  0.6687 -0.3693  0.0742
  916MOL0     O26301  10.411   5.706   4.961 -0.1314  0.1103 -0.1483
  916MOL0     C26302  10.540   5.694   4.916 -0.5120 -0.1661  0.5558
  916MOL0     C26303  10.608   5.577   4.861  0.4323 -0.8280 -0.4000
  916MOL0     C26304  10.738   5.585   4.822 -0.3852  0.4406 -0.5473
  916MOL0     C26305  10.808   5.707   4.833 -0.0316  0.9000  0.3382
  916MOL0     O26306  10.942   5.707   4.792 -0.2872 -0.3037  1.0458
  916MOL0     C26307  11.033   5.629   4.879  0.7733  0.6047  1.0155
  916MOL0     C26308  11.166   5.602   4.805  0.5271 -0.8407  0.8518
  916MOL0     C26309  11.262   5.720   4.820  0.0136 -0.0096 -0.0840
  916MOL0     C26310  11.390   5.703   4.734 -0.4871  0.0949 -0.3670
  916MOL0     C26311  11.518   5.773   4.794  0.5344  0.7377  0.1739
  916MOL0     C26312  11.498   5.923   4.824 -0.0810  0.3475 -0.2485
  916MOL0     C26313  11.491   6.015   4.699 -0.5315  0.7565 -0.6678
  916MOL0     C26314  11.630   6.073   4.652 -0.6423  0.1706 -0.0988
  916MOL0    Cl26315  11.710   6.185   4.765  0.4254  0.1142 -0.1159
  916MOL0     C26316  10.739   5.826   4.870  0.3474 -0.4135  0.7379
  916MOL0     C26317  10.608   5.813   4.915  0.4038  0.1031 -1.5786
  916MOL0     O26318  10.402   5.504   5.080  0.1976  0.7557 -0.0563
  916MOL0     C26319  10.142   5.713   4.960  0.3992  0.2461 -0.0747
  916MOL0     C26320  10.007   5.741   4.977  0.4841 -0.8517  0.4816
  916MOL0     N26321   9.176   5.643   5.037 -1.0961 -0.4127 -0.5121
  916MOL0     N26322   9.107   5.621   4.933 -0.0323 -0.4827 -0.1875
  916MOL0     C26323   9.343   6.413   4.473  0.5314 -0.8012  0.2587
  916MOL0     C26324   9.259   6.519   4.494 -0.3646  0.3046 -0.1801
  916MOL0     C26325   8.904   6.793   4.414  0.2653  0.5443 -0.1639
  916MOL0     C26326   8.965   6.918   4.402 -0.2453 -0.3411  0.3594
  916MOL0     C26327   8.891   7.036   4.396  0.8455  0.2338 -0.8582
  916MOL0     C26328   8.754   7.040   4.393  0.0159  0.7780 -0.3669
  916MOL0     O26329   8.688   7.156   4.378 -0.2409  0.8537  0.1322
  916MOL0     C26330   8.542   7.176   4.379 -0.5560  0.6299 -0.1535
  916MOL0     C26331   8.487   7.159   4.519 -0.1587 -0.4339  0.4015
  916MOL0     C26332   8.339   7.201   4.520 -0.2925 -0.5329  0.1101
  916MOL0     C26333   8.264   7.184   4.651  0.1548 -0.1274 -0.1364
  916MOL0     C26334   8.145   7.267   4.675 -0.8031  0.7010 -0.6690
  916MOL0     C26335   8.039   7.322   4.669 -1.2558 -0.3681 -0.3214
  916MOL0     C26336   8.693   6.918   4.421 -0.3080  0.7794 -0.2059
  916MOL0     C26337   8.762   6.791   4.428  0.5955 -0.0894 -0.3496
  916MOL0     C26338   8.680   6.671   4.473  0.0562 -0.8765  0.6036
  916MOL0     H26339   9.205   6.593   4.165  1.9630 -0.5879 -1.4004
  916MOL0     H26340   9.385   6.438   4.144 -2.0140  0.5266 -0.4025
  916MOL0     H26341   9.553   6.255   4.154 -0.7840  1.6379 -0.1585
  916MOL0     H26342   9.390   6.186   4.181 -0.0688  2.6570  0.3011
  916MOL0     H26343   9.561   6.009   4.181  1.4325  1.1107  0.0865
  916MOL0     H26344   9.637   6.072   4.326  1.0496 -1.0875 -2.0212
  916MOL0     H26345   9.440   6.021   4.464  0.6100 -4.4938  1.7523
  916MOL0     H26346   9.351   6.023   4.320  0.3316  0.5924 -0.6084
  916MOL0     H26347   9.462   5.794   4.257 -3.8513 -2.0568  0.4277
  916MOL0     H26348   9.530   5.791   4.424  1.4777 -1.7951 -1.4453
  916MOL0     H26349   9.362   5.652   4.425  2.8166 -0.1736 -3.4060
  916MOL0     H26350   9.258   5.744   4.327  1.4171 -2.4082 -1.2143
  916MOL0     H26351   9.340   5.824   4.611  1.2973  0.6549 -1.5946
  916MOL0     H26352   9.203   5.899   4.527  0.9743  0.1171 -1.0274
  916MOL0     H26353   9.198   5.607   4.610  1.3154  1.1134  1.4443
  916MOL0     H26354   9.074   5.684   4.509  1.0096  3.1416 -2.2096
  916MOL0     H26355   9.045   5.851   4.701  0.2484  0.6632 -0.0511
  916MOL0     H26356   8.971   5.694   4.720  0.3215  0.5487  0.9012
  916MOL0     H26357   9.266   5.897   4.851  1.2852 -1.1327 -0.8288
  916MOL0     H26358   9.321   5.813   5.220 -0.4193 -1.3517 -0.7462
  916MOL0     H26359   9.399   5.904   5.078  1.7444 -1.4763 -1.9512
  916MOL0     H26360   9.442   5.622   5.163 -1.8573  1.1363  2.0652
  916MOL0     H26361   9.506   5.710   5.020 -1.4204 -0.3132 -0.0220
  916MOL0     H26362   9.607   5.879   5.209  0.0150  1.0701  3.8558
  916MOL0     H26363   9.554   5.769   5.320  1.0008 -0.8234 -0.7938
  916MOL0     H26364   9.795   5.713   5.287 -0.3441  0.1499  0.4426
  916MOL0     H26365   9.691   5.590   5.206  0.2290 -0.3414 -2.6068
  916MOL0     H26366   9.912   5.537   5.226  0.6827 -0.2299  0.3465
  916MOL0     H26367  10.075   5.421   5.308  0.1153 -0.6805  0.8258
  916MOL0     H26368  10.228   5.518   5.306 -1.8032 -1.1793  2.5667
  916MOL0     H26369  10.217   5.367   5.213 -0.2610 -0.2687  0.2325
  916MOL0     H26370  10.553   5.485   4.845  0.8974 -1.4359  1.3174
  916MOL0     H26371  10.783   5.491   4.794 -0.8569 -0.3779  1.2566
  916MOL0     H26372  11.061   5.678   4.973 -0.0826 -1.5632  2.4993
  916MOL0     H26373  10.984   5.533   4.901 -0.6237  1.0481 -0.0540
  916MOL0     H26374  11.211   5.508   4.839 -1.0899 -0.8837  3.0630
  916MOL0     H26375  11.144   5.594   4.698 -1.0007 -1.3281  1.1830
  916MOL0     H26376  11.277   5.720   4.929 -1.5834  0.5595  0.1629
  916MOL0     H26377  11.218   5.817   4.797 -0.8239 -0.3043  0.2382
  916MOL0     H26378  11.378   5.724   4.628 -0.0484 -5.2662 -1.7542
  916MOL0     H26379  11.409   5.596   4.742 -3.0021 -0.2913  1.9087
  916MOL0     H26380  11.538   5.725   4.890  1.8809 -1.6450 -1.2230
  916MOL0     H26381  11.610   5.755   4.738  1.3478 -1.0892  1.9986
  916MOL0     H26382  11.592   5.949   4.875 -0.9237  2.4177  0.3687
  916MOL0     H26383  11.418   5.940   4.896 -0.9131 -1.1916 -0.7747
  916MOL0     H26384  11.420   6.096   4.719  0.5073  1.1244  1.9546
  916MOL0     H26385  11.442   5.960   4.618 -1.2565  0.7675 -0.2484
  916MOL0     H26386  11.614   6.123   4.556 -4.5389  1.6374  1.1240
  916MOL0     H26387  11.683   5.978   4.634  1.5525  0.8377  2.2768
  916MOL0     H26388  10.791   5.920   4.850 -3.4373  1.7705  0.2429
  916MOL0     H26389  10.554   5.905   4.938  1.5160  0.4906 -0.4253
  916MOL0     H26390  10.199   5.773   4.890  0.9966  0.2357  0.3948
  916MOL0     H26391   9.965   5.812   4.907 -1.7558 -3.6164 -1.1760
  916MOL0     H26392   9.373   6.357   4.560 -1.2195 -1.2387  0.6111
  916MOL0     H26393   9.223   6.542   4.593  0.6121  0.7211  0.0937
  916MOL0     H26394   9.073   6.931   4.399 -0.3165  1.4977  2.7984
  916MOL0     H26395   8.935   7.135   4.385 -0.5674  1.2396  1.6364
  916MOL0     H26396   8.521   7.279   4.347 -0.8044  1.1699  1.5986
  916MOL0     H26397   8.496   7.098   4.319 -3.1053  2.0162 -0.1296
  916MOL0     H26398   8.540   7.236   4.576  1.5210 -0.7108 -0.7131
  916MOL0     H26399   8.501   7.062   4.567 -3.3399  0.0609  2.6711
  916MOL0     H26400   8.330   7.308   4.499  0.3954 -0.6799 -1.0212
  916MOL0     H26401   8.281   7.156   4.439  1.2649 -2.1843 -0.1614
  916MOL0     H26402   8.333   7.195   4.735  0.7750 -1.3398 -0.4523
  916MOL0     H26403   8.227   7.082   4.662 -1.7739  0.2187 -2.5246
  916MOL0     H26404   7.944   7.372   4.657 -1.1876 -0.1570  0.0011
  916MOL0     H26405   8.587   6.908   4.445  0.1753 -2.0066  1.1671
  916MOL0     H26406   8.748   6.608   4.532  2.1330  0.6996  0.0095
  916MOL0     H26407   8.599   6.703   4.538  0.5829 -0.4970  1.0877
  916MOL0     H26408   8.630   6.624   4.388  0.8178 -1.3650  0.4111
  917MOL0     O26409   6.947   9.171   4.650  0.3990 -0.3597  0.3240
  917MOL0     C26410   6.889   9.168   4.758 -0.5600  0.1943  0.4825
  917MOL0     O26411   6.950   9.149   4.874  0.3436 -0.0359 -0.1149
  917MOL0     C26412   7.085   9.180   4.871  0.4047  0.1410  0.9375
  917MOL0     C26413   7.149   9.281   4.807  0.0135 -0.6962 -0.0473
  917MOL0     C26414   7.287   9.303   4.831 -0.5266  0.1239 -0.5878
  917MOL0     C26415   7.360   9.223   4.912 -0.0945 -0.2224  0.1033
  917MOL0     O26416   7.499   9.248   4.914 -0.1706 -0.3943  0.3962
  917MOL0     C26417   7.571   9.229   5.041 -0.6754  0.2454  0.0417
  917MOL0     C26418   7.661   9.097   5.023  0.7304 -0.7326 -0.2000
  917MOL0     C26419   7.785   9.110   5.103 -0.8067  0.0808  0.2511
  917MOL0     C26420   7.857   8.970   5.135 -0.1933 -0.1684  0.0900
  917MOL0     C26421   7.999   8.995   5.185 -0.6146 -0.2120 -1.1949
  917MOL0     C26422   8.029   9.103   5.300 -0.5717  0.1547  0.2887
  917MOL0     C26423   8.181   9.099   5.354 -0.1740  0.0101  0.0662
  917MOL0     C26424   8.282   9.114   5.239  0.6244 -0.0013  0.3899
  917MOL0     N26425   8.277   9.240   5.173 -0.3638  0.1401  0.1247
  917MOL0     C26426   8.339   9.355   5.218  0.1893 -0.0226 -0.7428
  917MOL0     C26427   8.295   9.452   5.135 -1.1823  0.2715 -0.4039
  917MOL0     C26428   8.316   9.602   5.136  0.9262 -0.0700 -0.6887
  917MOL0     C26429   8.420   9.641   5.035 -0.3115  0.5946  0.8049
  917MOL0     C26430   8.462   9.792   5.033 -0.4334  0.8615 -0.1257
  917MOL0     C26431   8.586   9.821   4.950  0.4774 -0.8394 -0.7881
  917MOL0     O26432   8.556   9.785   4.815  0.0825  0.5051 -0.2161
  917MOL0     C26433   8.661   9.756   4.736  0.0849  0.2331  0.1518
  917MOL0     C26434   8.636   9.712   4.609  0.2008 -0.4948  0.6648
  917MOL0     C26435   8.722   9.663   4.516 -0.3346 -0.1325 -0.1014
  917MOL0     C26436   8.669   9.597   4.393 -0.1268  0.1526  0.4142
  917MOL0     C26437   8.861   9.668   4.555  0.3025 -0.1257 -0.3574
  917MOL0     C26438   8.968   9.610   4.471  0.5711 -0.0415  0.3912
  917MOL0     O26439   9.091   9.656   4.504 -0.5169  0.1439 -0.0153
  917MOL0     C26440   9.200   9.580   4.464  0.2000  0.4376 -0.5320
  917MOL0     C26441   9.292   9.539   4.569  0.1624  0.4180 -0.8782
  917MOL0     C26442   9.403   9.458   4.534  0.4902 -1.1895  0.3929
  917MOL0     C26443   9.423   9.418   4.390 -1.0357 -0.1003 -0.0885
  917MOL0     O26444   9.545   9.361   4.345  0.4546 -0.0489 -0.2841
  917MOL0     C26445   9.632   9.301   4.441 -0.9380  0.0400  0.4243
  917MOL0     C26446   9.727   9.198   4.377  0.2856 -0.0336 -0.1564
  917MOL0     C26447   9.821   9.261   4.279  0.2724  0.6990 -0.1324
  917MOL0     C26448   9.903   9.370   4.342 -0.4893 -1.0673  0.1786
  917MOL0     C26449  10.016   9.402   4.249 -0.0560  0.5043  0.0581
  917MOL0     C26450  10.118   9.507   4.285 -0.1424 -0.7169  0.4106
  917MOL0     C26451  10.206   9.467   4.406 -0.3304  0.2435 -0.2290
  917MOL0     C26452  10.258   9.599   4.471  0.4905  0.0983 -0.5284
  917MOL0    Cl26453  10.386   9.547   4.589 -0.3929  0.1484 -0.2515
  917MOL0     C26454   9.324   9.452   4.299 -0.2623 -0.2432 -0.7645
  917MOL0     C26455   9.216   9.533   4.331 -0.1490  1.0183 -0.1175
  917MOL0     O26456   8.942   9.506   4.399 -0.4599 -0.0798  0.4460
  917MOL0     C26457   8.899   9.721   4.681  0.5269  0.7156 -0.0706
  917MOL0     C26458   8.794   9.773   4.768 -0.0712 -0.5678 -0.0570
  917MOL0     N26459   8.215   9.391   5.046  0.6014  0.4483 -0.5837
  917MOL0     N26460   8.203   9.264   5.060 -0.1136 -0.0191  0.3906
  917MOL0     C26461   7.300   9.123   4.986 -0.1051 -0.0162  1.0209
  917MOL0     C26462   7.160   9.098   4.963  0.6322  0.3661 -0.0491
  917MOL0     C26463   6.744   9.206   4.758 -0.0555 -0.9012  0.1058
  917MOL0     C26464   6.676   9.216   4.881  0.2453 -0.0033 -0.4748
  917MOL0     C26465   6.538   9.228   4.890  0.2605  0.8948  0.8872
  917MOL0     C26466   6.460   9.236   4.767  0.4258  1.1717 -0.7229
  917MOL0     O26467   6.325   9.261   4.787  0.6688 -0.3342 -0.7357
  917MOL0     C26468   6.232   9.260   4.678  0.0418  0.6748  0.1814
  917MOL0     C26469   6.223   9.120   4.604  0.0308  0.1358  0.2940
  917MOL0     C26470   6.151   9.027   4.704 -0.4008 -0.1281  0.9786
  917MOL0     C26471   6.178   8.886   4.654  1.0577 -0.1840  0.7243
  917MOL0     C26472   6.089   8.802   4.733  0.0708  0.1756 -0.9133
  917MOL0     C26473   6.016   8.715   4.781 -0.2116 -0.3545  0.9415
  917MOL0     C26474   6.533   9.230   4.645 -0.4843 -1.1202 -0.0172
  917MOL0     C26475   6.667   9.224   4.633  0.9288 -0.1153  0.3942
  917MOL0     C26476   6.730   9.228   4.486 -0.3068  1.0077 -0.2698
  917MOL0     H26477   7.099   9.356   4.746 -1.1022 -1.2539  0.1639
  917MOL0     H26478   7.337   9.372   4.764 -0.5216  2.0714  1.2966
  917MOL0     H26479   7.516   9.231   5.135 -2.5765  0.8379 -1.0214
  917MOL0     H26480   7.643   9.311   5.050  0.5759 -0.9059  0.7897
  917MOL0     H26481   7.604   9.010   5.057 -0.2944 -0.8772 -2.1779
  917MOL0     H26482   7.686   9.093   4.917  2.7766 -1.7595  0.2558
  917MOL0     H26483   7.856   9.168   5.044 -0.1306 -1.4061 -0.4429
  917MOL0     H26484   7.759   9.174   5.188 -2.0888  2.0386 -1.5045
  917MOL0     H26485   7.806   8.907   5.209 -0.2289  1.5053  1.5527
  917MOL0     H26486   7.863   8.910   5.044 -1.5730  0.4312 -0.4236
  917MOL0     H26487   8.049   9.035   5.096 -1.5060  1.9428 -0.7761
  917MOL0     H26488   8.049   8.903   5.215  1.5293  1.1383 -0.3921
  917MOL0     H26489   8.001   9.197   5.253  1.2078  0.9122  0.6623
  917MOL0     H26490   7.958   9.081   5.380 -0.6772 -4.8609 -0.8215
  917MOL0     H26491   8.192   9.003   5.406 -1.2991 -0.7517 -1.0327
  917MOL0     H26492   8.198   9.178   5.427  2.8054  1.3937 -1.8965
  917MOL0     H26493   8.375   9.107   5.296 -1.1300 -0.7683  3.4014
  917MOL0     H26494   8.268   9.031   5.169 -2.6006  2.4898 -2.2622
  917MOL0     H26495   8.418   9.364   5.293 -0.8714 -0.3397  0.4457
  917MOL0     H26496   8.348   9.636   5.235  0.4217 -0.5427 -0.3594
  917MOL0     H26497   8.226   9.658   5.109 -0.0839 -0.9008  0.8325
  917MOL0     H26498   8.501   9.569   5.050 -0.1643  0.6847  0.4365
  917MOL0     H26499   8.364   9.615   4.944  3.2121  0.6736 -1.5814
  917MOL0     H26500   8.377   9.848   4.993 -1.6638  0.4102  1.6945
  917MOL0     H26501   8.476   9.828   5.135 -0.1184 -0.3375  0.2735
  917MOL0     H26502   8.606   9.928   4.951 -2.1817 -0.2519 -1.9948
  917MOL0     H26503   8.678   9.782   4.994  0.8135  1.8402  1.1041
  917MOL0     H26504   8.532   9.687   4.588 -0.5482  1.1343  2.1234
  917MOL0     H26505   8.665   9.488   4.404 -1.1825  0.1992  0.5447
  917MOL0     H26506   8.732   9.618   4.305 -0.1479 -3.9971 -0.8450
  917MOL0     H26507   8.569   9.635   4.373 -1.0081  0.2246  4.2394
  917MOL0     H26508   9.278   9.576   4.670 -0.6826  1.0491 -1.2125
  917MOL0     H26509   9.486   9.429   4.597  0.4607 -0.6250  0.6973
  917MOL0     H26510   9.687   9.364   4.510  0.9423  0.0152 -0.9779
  917MOL0     H26511   9.563   9.237   4.497 -1.4634 -1.3653 -1.6985
  917MOL0     H26512   9.783   9.147   4.455 -1.7324  0.7549  1.8973
  917MOL0     H26513   9.666   9.122   4.328 -1.5297  1.2041  0.0799
  917MOL0     H26514   9.775   9.306   4.190  1.8234 -0.6601 -1.6782
  917MOL0     H26515   9.880   9.178   4.239  1.6518  0.5620  1.9942
  917MOL0     H26516   9.932   9.330   4.440  1.7720  1.2273  0.5505
  917MOL0     H26517   9.843   9.460   4.357 -0.6212 -1.4401  2.1981
  917MOL0     H26518  10.068   9.312   4.215 -1.4114  1.0652 -4.0751
  917MOL0     H26519   9.978   9.450   4.159 -0.0677  4.2223  1.8642
  917MOL0     H26520  10.070   9.601   4.310  1.4783 -0.0352  1.1263
  917MOL0     H26521  10.174   9.519   4.191 -2.3367  0.9934 -0.7719
  917MOL0     H26522  10.292   9.407   4.373 -1.3726 -1.9298  0.7860
  917MOL0     H26523  10.154   9.402   4.476  2.0121 -0.0575  1.3294
  917MOL0     H26524  10.181   9.659   4.521 -0.1157 -0.4112 -0.8368
  917MOL0     H26525  10.305   9.666   4.399 -0.3490  1.4812  0.1530
  917MOL0     H26526   9.342   9.417   4.198 -3.0796 -0.1759 -1.3791
  917MOL0     H26527   9.140   9.564   4.260 -1.9410 -0.8504  0.8958
  917MOL0     H26528   9.004   9.728   4.708  0.1810 -1.0819  1.9911
  917MOL0     H26529   8.829   9.824   4.857 -4.8503 -0.6445  2.1347
  917MOL0     H26530   7.356   9.043   5.035  0.3830 -2.9727 -3.6815
  917MOL0     H26531   7.097   9.037   5.027 -1.3616  2.3057 -0.0046
  917MOL0     H26532   6.734   9.214   4.972 -0.7305 -0.9169  0.1448
  917MOL0     H26533   6.502   9.247   4.991  1.0931  3.1764  0.7994
  917MOL0     H26534   6.134   9.292   4.714 -0.4258  0.6108 -1.0020
  917MOL0     H26535   6.260   9.339   4.607  2.7902 -2.8463 -3.0485
  917MOL0     H26536   6.319   9.078   4.572 -2.1240 -3.5394 -1.9431
  917MOL0     H26537   6.158   9.122   4.516  1.1560 -2.1360 -0.6743
  917MOL0     H26538   6.183   9.042   4.807 -1.4266 -2.1829  1.6427
  917MOL0     H26539   6.046   9.053   4.693 -0.2647 -0.0249 -0.2887
  917MOL0     H26540   6.283   8.859   4.667  1.0633 -0.6762 -0.2632
  917MOL0     H26541   6.145   8.876   4.551 -2.3433 -2.5838  1.8734
  917MOL0     H26542   5.951   8.641   4.823 -3.1128  0.3456 -1.8959
  917MOL0     H26543   6.482   9.252   4.551  0.5844  0.2563 -0.3082
  917MOL0     H26544   6.756   9.128   4.449  1.5019  0.4772  2.1874
  917MOL0     H26545   6.663   9.278   4.415  0.0150  1.8135 -0.0142
  917MOL0     H26546   6.827   9.278   4.485  0.4359 -0.2788  1.8079
  918MOL0     O26547   5.129   9.440   0.402  0.2749  1.1076 -0.1187
  918MOL0     C26548   5.098   9.335   0.469  0.0589  0.1714  0.4428
  918MOL0     O26549   5.049   9.226   0.410  0.5996 -0.0363 -0.0058
  918MOL0     C26550   5.024   9.223   0.275  0.0492 -0.3631  0.8126
  918MOL0     C26551   4.890   9.238   0.231  0.2810 -0.6109  0.3907
  918MOL0     C26552   4.860   9.235   0.093  0.4940  0.2534  0.6693
  918MOL0     C26553   4.967   9.226   0.004 -0.1716 -0.2399  1.2035
  918MOL0     O26554   4.948   9.228  -0.129  0.0417  0.1483  0.0762
  918MOL0     C26555   4.943   9.358  -0.200  0.8612  0.9722  0.5656
  918MOL0     C26556   4.967   9.335  -0.350  0.0155  0.4648  0.6041
  918MOL0     C26557   5.092   9.265  -0.385  0.7138 -0.0670 -0.3918
  918MOL0     C26558   5.216   9.331  -0.342 -0.7951 -0.3846  0.5801
  918MOL0     C26559   5.337   9.238  -0.362  0.0605  0.6251  0.1647
  918MOL0     C26560   5.459   9.284  -0.293  0.5479 -0.1336 -0.2488
  918MOL0     C26561   5.460   9.261  -0.137 -0.0239  1.1733  0.3935
  918MOL0     C26562   5.470   9.391  -0.055  0.4057  0.2280 -0.1677
  918MOL0     N26563   5.504   9.358   0.088  0.5358 -0.0422  0.1106
  918MOL0     C26564   5.428   9.389   0.197  1.1947 -0.1277  0.2503
  918MOL0     C26565   5.502   9.358   0.304  0.5509  0.4023  0.8279
  918MOL0     C26566   5.469   9.373   0.445  0.4954  0.7856  1.0518
  918MOL0     C26567   5.579   9.436   0.526  0.0650  0.8482  0.3719
  918MOL0     C26568   5.552   9.441   0.680  0.1647  0.0054  0.2104
  918MOL0     C26569   5.531   9.303   0.742 -0.0225  0.6836  0.6609
  918MOL0     O26570   5.529   9.323   0.879 -0.4970  0.3287 -0.1998
  918MOL0     C26571   5.643   9.311   0.956  0.7598  0.2699  0.3352
  918MOL0     C26572   5.624   9.335   1.089  0.5344 -0.1037  0.5547
  918MOL0     C26573   5.717   9.336   1.190  0.4034 -0.0332  0.3900
  918MOL0     C26574   5.675   9.359   1.327 -0.1131  0.5007 -0.1576
  918MOL0     C26575   5.852   9.317   1.155  0.9355  0.5410  0.0081
  918MOL0     C26576   5.969   9.338   1.251 -0.5975 -1.0727  1.4474
  918MOL0     O26577   6.089   9.322   1.193  0.1236  0.1150 -0.4196
  918MOL0     C26578   6.204   9.299   1.276  0.8050  0.2715 -0.2798
  918MOL0     C26579   6.230   9.389   1.384 -0.0887  0.4262  0.6826
  918MOL0     C26580   6.355   9.364   1.450  0.4465 -0.1520  0.5420
  918MOL0     C26581   6.434   9.255   1.420 -0.1618  0.8386  0.3308
  918MOL0     O26582   6.534   9.221   1.498 -0.7140 -0.6250  0.3936
  918MOL0     C26583   6.647   9.305   1.511 -0.3115  0.4891  1.1104
  918MOL0     C26584   6.773   9.216   1.522 -0.7477  0.7348 -0.5804
  918MOL0     C26585   6.909   9.289   1.540  0.4338  0.5357 -0.2603
  918MOL0     C26586   7.034   9.196   1.546  0.6818 -0.2054 -0.5583
  918MOL0     C26587   7.162   9.282   1.571  0.5200  0.1235 -0.1463
  918MOL0     C26588   7.282   9.197   1.523 -0.0880  0.5807 -0.4363
  918MOL0     C26589   7.404   9.289   1.548  0.1881 -0.4294  0.2516
  918MOL0     C26590   7.527   9.229   1.470 -0.0255  0.1707 -0.7360
  918MOL0    Cl26591   7.560   9.054   1.508  0.1194 -0.0113 -0.4697
  918MOL0     C26592   6.395   9.163   1.318 -0.4529 -0.1611 -0.2138
  918MOL0     C26593   6.288   9.199   1.238 -0.4685  0.3620 -0.4754
  918MOL0     O26594   5.949   9.359   1.372 -0.2044 -0.3075  0.1265
  918MOL0     C26595   5.883   9.284   1.019 -0.0022  0.1920 -0.0871
  918MOL0     C26596   5.775   9.285   0.920 -0.4670 -0.5186 -0.9906
  918MOL0     N26597   5.617   9.296   0.256 -0.2438 -0.1001 -0.8590
  918MOL0     N26598   5.625   9.299   0.130  0.4299 -0.1070 -0.7049
  918MOL0     C26599   5.097   9.220   0.050  0.6668 -0.4044 -0.5017
  918MOL0     C26600   5.126   9.213   0.188  0.3240  1.3774 -0.6293
  918MOL0     C26601   5.134   9.333   0.615  0.0695 -0.7152 -0.0401
  918MOL0     C26602   5.133   9.202   0.680 -0.0767 -0.6712  0.9014
  918MOL0     C26603   5.156   9.192   0.814 -0.1051  0.0342  0.2942
  918MOL0     C26604   5.177   9.307   0.896  0.2971  0.1789  1.0136
  918MOL0     O26605   5.198   9.275   1.030  0.3235  0.8223  0.0569
  918MOL0     C26606   5.230   9.380   1.119  1.0379 -0.1605 -0.0491
  918MOL0     C26607   5.121   9.479   1.158 -0.1227 -0.2723 -0.2736
  918MOL0     C26608   4.994   9.414   1.196  0.8105 -0.6146 -0.0360
  918MOL0     C26609   4.879   9.515   1.199 -0.0062  0.3266 -0.3309
  918MOL0     C26610   4.878   9.588   1.320  0.2091 -0.7198  0.1830
  918MOL0     C26611   4.856   9.665   1.416 -0.2499  0.1171  0.6268
  918MOL0     C26612   5.186   9.429   0.828 -0.2343 -0.2751 -0.3614
  918MOL0     C26613   5.158   9.448   0.695  0.3344 -0.2137 -0.1019
  918MOL0     C26614   5.163   9.592   0.643  0.1424  0.6835 -0.0196
  918MOL0     H26615   4.805   9.265   0.292  1.4240  0.7795  1.4279
  918MOL0     H26616   4.756   9.236   0.062  0.4427 -1.4038  0.6911
  918MOL0     H26617   5.009   9.431  -0.151  0.7259  0.1189  2.0901
  918MOL0     H26618   4.840   9.396  -0.197  0.1449 -0.5611 -1.8893
  918MOL0     H26619   4.888   9.278  -0.400  0.8512  0.7801 -1.1540
  918MOL0     H26620   4.953   9.428  -0.405 -1.4044 -1.5688 -2.7896
  918MOL0     H26621   5.089   9.166  -0.339  1.2806 -1.1593 -2.6026
  918MOL0     H26622   5.087   9.249  -0.493 -2.7337 -0.2445 -0.3087
  918MOL0     H26623   5.230   9.432  -0.381  1.6279  0.6766  3.7261
  918MOL0     H26624   5.199   9.338  -0.234  2.3251 -0.0774  1.1595
  918MOL0     H26625   5.367   9.232  -0.467  0.7557 -0.3909  0.4016
  918MOL0     H26626   5.310   9.136  -0.334  2.6801  0.1953  1.5315
  918MOL0     H26627   5.542   9.224  -0.331  1.2965  0.8985 -0.2822
  918MOL0     H26628   5.470   9.390  -0.315  1.0637 -0.6321 -2.5792
  918MOL0     H26629   5.547   9.197  -0.115  0.1742  1.1839 -0.3417
  918MOL0     H26630   5.379   9.208  -0.087  0.0610  1.1659  0.5254
  918MOL0     H26631   5.549   9.459  -0.089  3.7535 -3.0640  0.4750
  918MOL0     H26632   5.372   9.441  -0.054 -0.6645 -1.7964  0.2642
  918MOL0     H26633   5.334   9.442   0.192  1.5012  0.7863  2.5828
  918MOL0     H26634   5.434   9.280   0.493  1.5293  0.0300  0.3748
  918MOL0     H26635   5.381   9.438   0.448 -2.5087 -2.5210 -2.7567
  918MOL0     H26636   5.670   9.377   0.512 -0.1369  0.6560 -0.1513
  918MOL0     H26637   5.598   9.538   0.492 -2.6767  1.1972 -0.3481
  918MOL0     H26638   5.625   9.510   0.724 -0.9077  2.4879 -1.6882
  918MOL0     H26639   5.461   9.498   0.699  0.6996  0.6441  0.8955
  918MOL0     H26640   5.432   9.261   0.720 -0.3090  1.1387  1.0669
  918MOL0     H26641   5.608   9.231   0.714 -1.1696  0.4575 -2.3442
  918MOL0     H26642   5.519   9.357   1.110 -0.1075 -0.9026 -1.5167
  918MOL0     H26643   5.729   9.445   1.368  1.5423 -0.2856 -0.6153
  918MOL0     H26644   5.692   9.272   1.391 -3.3119  0.6465  1.0891
  918MOL0     H26645   5.567   9.377   1.331 -0.7372 -2.1887 -2.3843
  918MOL0     H26646   6.161   9.470   1.404  1.2780  1.8921 -0.2879
  918MOL0     H26647   6.382   9.433   1.529 -0.9730 -0.2230  1.1208
  918MOL0     H26648   6.645   9.376   1.429 -0.3291  1.9375  2.3319
  918MOL0     H26649   6.634   9.364   1.602 -0.3490 -0.0029  1.4331
  918MOL0     H26650   6.759   9.147   1.606  0.5518  2.4574  1.1632
  918MOL0     H26651   6.786   9.163   1.427  0.7538  3.9292 -2.3380
  918MOL0     H26652   6.904   9.361   1.623 -1.0605 -0.3719  0.4877
  918MOL0     H26653   6.920   9.347   1.448 -0.1258 -0.5557 -1.0407
  918MOL0     H26654   7.038   9.146   1.449  0.1406 -3.0013  0.7666
  918MOL0     H26655   7.027   9.117   1.621 -0.0427  0.2342 -0.1494
  918MOL0     H26656   7.147   9.370   1.508  0.0216  0.3276  0.2494
  918MOL0     H26657   7.173   9.302   1.678 -3.4565 -2.9803  1.1006
  918MOL0     H26658   7.273   9.162   1.420  1.3772 -0.7408 -0.1522
  918MOL0     H26659   7.302   9.106   1.580 -1.2507  1.2894  1.1983
  918MOL0     H26660   7.412   9.309   1.655 -1.9394 -0.7652  0.5092
  918MOL0     H26661   7.387   9.392   1.514  2.2359 -0.2419 -0.3401
  918MOL0     H26662   7.622   9.276   1.497 -1.3576  0.4617  4.5974
  918MOL0     H26663   7.505   9.238   1.364  0.1151  2.0447 -0.6549
  918MOL0     H26664   6.437   9.065   1.301  0.0672 -0.7863  3.6958
  918MOL0     H26665   6.268   9.150   1.144 -1.7790  1.9310 -1.0694
  918MOL0     H26666   5.986   9.254   1.000 -0.0189 -0.7180  1.1666
  918MOL0     H26667   5.813   9.275   0.819 -1.8967 -0.9352 -1.5083
  918MOL0     H26668   5.180   9.213  -0.020 -0.0793 -2.5415 -1.2546
  918MOL0     H26669   5.227   9.210   0.226  1.2802  0.5256 -3.0121
  918MOL0     H26670   5.116   9.116   0.615 -1.2459  3.2434 -4.7414
  918MOL0     H26671   5.154   9.097   0.867  1.2365 -1.0819 -1.5149
  918MOL0     H26672   5.258   9.327   1.210 -0.5817 -1.3852 -0.2135
  918MOL0     H26673   5.321   9.431   1.085  1.6687 -2.5012 -2.1524
  918MOL0     H26674   5.095   9.551   1.080  0.9128 -1.1391 -1.4648
  918MOL0     H26675   5.157   9.537   1.243 -0.0180  0.6163 -0.9151
  918MOL0     H26676   4.975   9.328   1.130 -0.5554  0.1762 -0.7221
  918MOL0     H26677   5.000   9.381   1.300 -0.6942  0.1313  0.3223
  918MOL0     H26678   4.786   9.460   1.185  1.6730 -2.3415 -1.7592
  918MOL0     H26679   4.887   9.588   1.117  3.3349  0.1777 -0.2905
  918MOL0     H26680   4.837   9.726   1.501 -2.2742  0.1029  0.2397
  918MOL0     H26681   5.207   9.518   0.886 -0.0037 -0.9378  0.5905
  918MOL0     H26682   5.084   9.609   0.569 -1.0086 -2.9418  0.1636
  918MOL0     H26683   5.154   9.663   0.725 -1.6738 -3.8234  4.1427
  918MOL0     H26684   5.259   9.609   0.594 -0.2413  0.4718 -0.8770
  919MOL0     O26685   8.455   7.662   7.485  0.2695 -0.2424 -0.0301
  919MOL0     C26686   8.368   7.666   7.398  0.3522 -1.4191  0.1956
  919MOL0     O26687   8.392   7.712   7.266  0.7293  0.2009  0.0961
  919MOL0     C26688   8.526   7.743   7.246  0.0169  0.5318  0.2941
  919MOL0     C26689   8.559   7.877   7.272 -0.0266 -0.5469  0.2603
  919MOL0     C26690   8.694   7.916   7.248 -0.7138 -0.0957  0.8433
  919MOL0     C26691   8.792   7.826   7.212  0.3245  0.7217 -0.1510
  919MOL0     O26692   8.925   7.856   7.199 -0.5627  0.5169  0.0598
  919MOL0     C26693   8.984   7.984   7.231  0.8665 -0.1033 -0.9590
  919MOL0     C26694   9.133   7.963   7.250  0.3194  0.3761 -0.3595
  919MOL0     C26695   9.211   8.097   7.282 -0.2503 -0.0963 -0.0973
  919MOL0     C26696   9.360   8.071   7.254 -0.1804 -0.1982 -0.6262
  919MOL0     C26697   9.459   8.185   7.308 -0.4472  0.2051  0.6038
  919MOL0     C26698   9.510   8.155   7.449  0.2241  0.4043 -0.0541
  919MOL0     C26699   9.603   8.268   7.503 -0.2601  0.1863  0.1497
  919MOL0     C26700   9.631   8.233   7.649  0.1339  0.6487 -0.3491
  919MOL0     N26701   9.739   8.314   7.699  0.7024 -0.2336 -0.0790
  919MOL0     C26702   9.751   8.453   7.683 -0.2310  0.4806 -0.0464
  919MOL0     C26703   9.878   8.470   7.724 -0.0388 -0.7743 -0.3678
  919MOL0     C26704   9.943   8.603   7.746  0.5389  0.1187 -0.9949
  919MOL0     C26705  10.042   8.626   7.634 -0.1948 -0.1826  0.4853
  919MOL0     C26706  10.165   8.532   7.619 -0.1101 -0.4930 -0.8263
  919MOL0     C26707  10.275   8.557   7.517  0.2270 -0.5241 -0.3002
  919MOL0     O26708  10.367   8.447   7.514  0.3972  0.8696 -0.1521
  919MOL0     C26709  10.478   8.467   7.451 -0.8064  0.0990 -0.7455
  919MOL0     C26710  10.512   8.571   7.358 -0.8194 -0.8546 -0.3405
  919MOL0     C26711  10.641   8.575   7.304  0.8781 -0.3990  0.6755
  919MOL0     C26712  10.653   8.689   7.207  0.2908 -0.6175 -1.0588
  919MOL0     C26713  10.736   8.474   7.333  0.2426 -0.6072  0.1619
  919MOL0     C26714  10.873   8.474   7.268  0.0425  1.0290  0.5975
  919MOL0     O26715  10.925   8.601   7.235 -0.9419  0.2335 -0.6771
  919MOL0     C26716  11.052   8.610   7.179 -1.1001  0.2439 -0.2504
  919MOL0     C26717  11.162   8.550   7.242 -0.5767 -0.1368 -0.6950
  919MOL0     C26718  11.293   8.548   7.195 -0.0520  0.0763 -0.0004
  919MOL0     C26719  11.320   8.591   7.065  0.3581 -0.4947 -0.7148
  919MOL0     O26720  11.450   8.573   7.028 -0.1428 -0.2381 -0.1847
  919MOL0     C26721  11.477   8.586   6.891  0.8469 -0.2217  0.0988
  919MOL0     C26722  11.628   8.564   6.859 -0.2488 -0.2990 -0.5002
  919MOL0     C26723  11.706   8.677   6.919  0.4279 -0.6363 -0.0506
  919MOL0     C26724  11.855   8.671   6.885  0.7537 -0.4063 -0.2085
  919MOL0     C26725  11.924   8.802   6.933  0.9791 -0.6756  0.4088
  919MOL0     C26726  12.061   8.810   6.880  0.1585  0.6568 -0.9090
  919MOL0     C26727  12.163   8.709   6.923 -0.8604  0.2815  0.8128
  919MOL0     C26728  12.307   8.760   6.880 -0.5210  0.6161 -0.2486
  919MOL0    Cl26729  12.420   8.667   6.981 -0.3632  0.1448 -0.1476
  919MOL0     C26730  11.207   8.650   6.991  0.3594  0.0835  0.1332
  919MOL0     C26731  11.083   8.665   7.054 -1.1402 -0.4129 -0.2031
  919MOL0     O26732  10.921   8.361   7.238  0.1499 -0.1223  0.5150
  919MOL0     C26733  10.704   8.374   7.425 -0.1486 -1.1233 -0.6723
  919MOL0     C26734  10.574   8.371   7.478 -0.3172  0.5045 -0.0829
  919MOL0     N26735   9.936   8.341   7.757  0.9262 -0.8107  0.7465
  919MOL0     N26736   9.852   8.255   7.740  0.6706 -0.5596 -0.1384
  919MOL0     C26737   8.755   7.691   7.185  0.3231 -0.0146 -0.4027
  919MOL0     C26738   8.625   7.653   7.189  1.1650 -0.1066  0.9173
  919MOL0     C26739   8.223   7.622   7.428  0.0758 -0.7524 -0.0089
  919MOL0     C26740   8.121   7.640   7.332 -0.0761  0.0436 -0.1433
  919MOL0     C26741   7.995   7.586   7.339  0.8895 -0.6553 -0.3986
  919MOL0     C26742   7.947   7.535   7.453  0.1371  0.6424 -0.3282
  919MOL0     O26743   7.821   7.489   7.456  0.1826  0.3562  0.0384
  919MOL0     C26744   7.752   7.478   7.574 -0.7182 -0.2476  0.3159
  919MOL0     C26745   7.612   7.433   7.537 -0.2943  0.1149  0.2598
  919MOL0     C26746   7.514   7.425   7.653 -0.1664  0.8350  0.2236
  919MOL0     C26747   7.391   7.347   7.616  0.2200  0.3551  0.0092
  919MOL0     C26748   7.279   7.392   7.699 -0.4472 -0.0344 -0.3444
  919MOL0     C26749   7.184   7.430   7.766  0.2549 -0.0041 -0.2870
  919MOL0     C26750   8.036   7.526   7.565  0.4515 -0.2857 -0.1888
  919MOL0     C26751   8.175   7.565   7.552 -0.5702  0.2723  0.4542
  919MOL0     C26752   8.266   7.528   7.660 -0.7875 -0.4462  0.3689
  919MOL0     H26753   8.482   7.947   7.304  1.5708  0.4556  2.0976
  919MOL0     H26754   8.717   8.020   7.268  0.6537  0.1963 -1.7687
  919MOL0     H26755   8.939   8.021   7.323  0.7460 -1.9678 -0.2265
  919MOL0     H26756   8.972   8.051   7.145  2.2301  2.5428  0.7683
  919MOL0     H26757   9.161   7.891   7.327 -0.5759  1.6310  1.2088
  919MOL0     H26758   9.180   7.921   7.160  1.9223 -2.5559  1.6909
  919MOL0     H26759   9.178   8.176   7.213 -1.5943 -0.4160  0.1516
  919MOL0     H26760   9.201   8.125   7.387 -1.1732  1.0228 -0.4595
  919MOL0     H26761   9.395   7.976   7.296  1.3846 -0.4189 -2.2950
  919MOL0     H26762   9.371   8.074   7.145  1.0562  0.5970 -0.5067
  919MOL0     H26763   9.418   8.287   7.311  1.3809  0.9867  0.5035
  919MOL0     H26764   9.546   8.177   7.242 -0.8301 -0.3875  0.1549
  919MOL0     H26765   9.425   8.146   7.518  0.6608  0.1938  0.4613
  919MOL0     H26766   9.563   8.060   7.437 -2.0729 -0.6182 -3.7486
  919MOL0     H26767   9.547   8.361   7.491  0.8641  0.9897  0.9278
  919MOL0     H26768   9.696   8.273   7.445  0.3283  1.1457  1.1528
  919MOL0     H26769   9.538   8.249   7.705 -0.1594  0.6538 -0.8242
  919MOL0     H26770   9.648   8.127   7.667 -2.5370  0.1067 -0.5057
  919MOL0     H26771   9.675   8.529   7.666 -1.0204 -0.0523  0.9524
  919MOL0     H26772   9.990   8.572   7.840  1.5545 -0.5611 -1.7028
  919MOL0     H26773   9.873   8.680   7.776 -0.8961 -1.7684  0.7841
  919MOL0     H26774   9.983   8.630   7.542  2.4594 -2.3169 -1.4824
  919MOL0     H26775  10.084   8.727   7.641  2.2912 -0.8272 -2.5916
  919MOL0     H26776  10.222   8.528   7.712 -1.1756 -1.5485 -0.1960
  919MOL0     H26777  10.129   8.432   7.592  0.3344 -0.7055 -0.6389
  919MOL0     H26778  10.239   8.581   7.416 -0.5780 -0.7821 -0.0804
  919MOL0     H26779  10.331   8.643   7.555  1.8016 -1.2530 -0.8794
  919MOL0     H26780  10.440   8.645   7.324  1.7817  1.8750 -0.3810
  919MOL0     H26781  10.669   8.660   7.103 -2.9617 -1.4518 -1.4481
  919MOL0     H26782  10.734   8.754   7.241  0.4389 -1.1979 -0.2716
  919MOL0     H26783  10.557   8.741   7.213  1.0439  0.7748 -0.6242
  919MOL0     H26784  11.136   8.496   7.333 -4.1603 -0.4451 -1.7361
  919MOL0     H26785  11.371   8.517   7.264 -2.7334 -1.7314  2.4669
  919MOL0     H26786  11.424   8.508   6.836  1.8636 -0.2595 -0.8518
  919MOL0     H26787  11.443   8.685   6.862 -0.0936 -0.6608 -0.3351
  919MOL0     H26788  11.658   8.470   6.907 -1.6319 -0.5990 -0.2032
  919MOL0     H26789  11.650   8.572   6.752  0.3106 -0.4914 -0.4041
  919MOL0     H26790  11.703   8.677   7.028 -1.8272  1.2754 -0.0365
  919MOL0     H26791  11.663   8.772   6.885 -0.0237 -0.5805  0.6682
  919MOL0     H26792  11.884   8.646   6.783 -0.2226 -1.5475 -0.2280
  919MOL0     H26793  11.896   8.595   6.952  2.2739  0.7140  0.1936
  919MOL0     H26794  11.871   8.891   6.896 -0.0502 -1.3395  0.2396
  919MOL0     H26795  11.927   8.815   7.041 -0.1582  3.0942  0.1500
  919MOL0     H26796  12.093   8.909   6.915 -1.9745  1.2963 -0.6064
  919MOL0     H26797  12.064   8.809   6.771 -1.6277 -0.0642 -0.9907
  919MOL0     H26798  12.139   8.614   6.876 -2.7516  1.5934 -1.0578
  919MOL0     H26799  12.163   8.691   7.031 -2.3052  0.4699  0.8635
  919MOL0     H26800  12.326   8.868   6.889 -1.5683  0.6504  2.1856
  919MOL0     H26801  12.314   8.734   6.774 -4.9492 -0.1570 -0.5252
  919MOL0     H26802  11.227   8.703   6.899  0.8325 -0.7974 -0.2903
  919MOL0     H26803  11.001   8.715   7.002  0.9953  6.1538  1.7593
  919MOL0     H26804  10.781   8.303   7.452 -1.3948 -1.5495  2.0874
  919MOL0     H26805  10.541   8.295   7.548 -0.1353  1.8835  1.5482
  919MOL0     H26806   8.833   7.624   7.151  0.4623  0.5907 -1.2941
  919MOL0     H26807   8.592   7.552   7.169  1.2043  0.0814 -0.1315
  919MOL0     H26808   8.139   7.702   7.245 -1.6479 -0.3524 -0.7787
  919MOL0     H26809   7.918   7.598   7.263 -0.3228 -0.0240  0.8838
  919MOL0     H26810   7.803   7.399   7.630 -0.7893 -0.6362 -0.1519
  919MOL0     H26811   7.748   7.574   7.625 -1.5649 -0.0745 -0.0545
  919MOL0     H26812   7.622   7.340   7.480 -0.5341  0.9027 -1.1113
  919MOL0     H26813   7.570   7.501   7.462 -0.8926 -2.3330 -1.7545
  919MOL0     H26814   7.546   7.358   7.735 -1.2680  1.9339  1.5979
  919MOL0     H26815   7.495   7.523   7.696 -0.9856 -0.0548  1.9932
  919MOL0     H26816   7.404   7.239   7.624  0.4555  0.4856  1.6652
  919MOL0     H26817   7.356   7.370   7.515 -1.0143 -1.0211  0.0833
  919MOL0     H26818   7.108   7.465   7.832 -0.7293 -1.2940 -0.7043
  919MOL0     H26819   8.017   7.472   7.657  0.7019 -1.1560 -0.6440
  919MOL0     H26820   8.329   7.458   7.605 -0.2307 -0.0145  0.4445
  919MOL0     H26821   8.338   7.608   7.680 -0.1356 -0.7192 -0.7981
  919MOL0     H26822   8.213   7.492   7.749  1.3567 -2.5748  0.8967
  920MOL0     O26823   6.710   6.271  10.581 -0.2087  0.6042  0.0638
  920MOL0     C26824   6.595   6.274  10.624 -0.4094 -0.2212  0.9743
  920MOL0     O26825   6.550   6.332  10.736 -0.2473  0.2855  0.0623
  920MOL0     C26826   6.640   6.357  10.833 -0.6061  0.1646  0.1897
  920MOL0     C26827   6.752   6.269  10.862 -0.6162  0.3629  0.5501
  920MOL0     C26828   6.840   6.299  10.964  0.0286  0.8657 -0.6300
  920MOL0     C26829   6.831   6.422  11.035  0.3759  0.1412  1.0544
  920MOL0     O26830   6.931   6.445  11.120 -0.8090 -0.2904  0.0550
  920MOL0     C26831   6.925   6.561  11.204 -0.5194  0.1084 -0.9169
  920MOL0     C26832   7.046   6.545  11.307 -0.2136 -0.0261  0.4216
  920MOL0     C26833   7.005   6.482  11.445 -0.0424 -0.5976 -0.6589
  920MOL0     C26834   6.952   6.326  11.426 -0.2188 -0.3702 -0.2100
  920MOL0     C26835   6.907   6.258  11.556 -0.3245  1.0063 -0.4171
  920MOL0     C26836   7.024   6.245  11.656  0.5876 -0.2953 -0.1036
  920MOL0     C26837   6.982   6.189  11.799  1.1624 -0.2721 -0.2664
  920MOL0     C26838   7.108   6.163  11.884 -0.2877  0.3497  0.2082
  920MOL0     N26839   7.153   6.283  11.959 -0.1825  0.1644  0.5353
  920MOL0     C26840   7.180   6.276  12.091 -0.1067 -1.1854 -0.7308
  920MOL0     C26841   7.183   6.403  12.128  0.6164  0.6359 -0.3904
  920MOL0     C26842   7.193   6.444  12.266  0.5713 -0.4345 -0.5110
  920MOL0     C26843   7.246   6.583  12.278 -0.0223  0.2224  0.6233
  920MOL0     C26844   7.277   6.630  12.415  0.2588  0.3147  0.2851
  920MOL0     C26845   7.156   6.625  12.512 -0.4431  0.8375  0.1366
  920MOL0     O26846   7.064   6.707  12.439 -0.1709  0.2473 -0.5898
  920MOL0     C26847   6.946   6.737  12.506  0.7295  1.0634  0.3280
  920MOL0     C26848   6.857   6.812  12.436  0.5930  0.2347  0.1568
  920MOL0     C26849   6.726   6.832  12.480  0.4407  0.0640 -0.6324
  920MOL0     C26850   6.623   6.905  12.389  0.0149  0.5775 -0.4529
  920MOL0     C26851   6.688   6.786  12.607  0.4548 -0.3696  0.0792
  920MOL0     C26852   6.545   6.813  12.656 -0.5035  0.4675  0.5597
  920MOL0     O26853   6.469   6.920  12.617  0.5058 -0.4399 -0.7865
  920MOL0     C26854   6.345   6.936  12.677 -0.1693  0.7851  0.5067
  920MOL0     C26855   6.324   6.939  12.813 -0.5963  0.5633  0.6411
  920MOL0     C26856   6.207   6.993  12.858 -0.8323 -0.1062 -0.1853
  920MOL0     C26857   6.105   7.035  12.775  0.6071  0.0300  0.7797
  920MOL0     O26858   5.982   7.072  12.824 -0.1012 -0.0861 -0.3748
  920MOL0     C26859   5.940   7.008  12.939 -0.7768 -0.4584  0.0136
  920MOL0     C26860   5.798   7.048  12.979  0.4398 -0.0230 -0.3276
  920MOL0     C26861   5.761   6.994  13.119  0.7900  0.6022 -0.9729
  920MOL0     C26862   5.618   7.050  13.148  0.2234 -0.3675  0.3602
  920MOL0     C26863   5.572   6.992  13.278 -0.1986 -0.9483  0.0466
  920MOL0     C26864   5.453   7.072  13.337  1.1595 -0.2365 -0.3752
  920MOL0     C26865   5.486   7.208  13.406  0.0363 -0.1462 -0.0699
  920MOL0     C26866   5.379   7.256  13.498 -0.6164 -0.6611 -0.1142
  920MOL0    Cl26867   5.235   7.346  13.413 -0.4355  0.2604  0.2279
  920MOL0     C26868   6.129   7.017  12.639  0.4544 -0.3664  0.8541
  920MOL0     C26869   6.246   6.971  12.586 -0.3358  0.2404 -0.2284
  920MOL0     O26870   6.507   6.720  12.734 -0.4303  0.3482 -0.2130
  920MOL0     C26871   6.784   6.715  12.682  0.1910  0.1448 -0.2591
  920MOL0     C26872   6.907   6.690  12.632  1.2236 -0.3958 -0.1173
  920MOL0     N26873   7.154   6.484  12.015 -0.5064  0.4165 -0.2890
  920MOL0     N26874   7.142   6.409  11.918 -0.2837 -0.1137  0.0229
  920MOL0     C26875   6.716   6.501  11.009 -0.7455 -0.0864  0.5974
  920MOL0     C26876   6.620   6.475  10.914 -0.0880  0.4040  0.1536
  920MOL0     C26877   6.504   6.199  10.534  0.2385 -0.5357 -0.1777
  920MOL0     C26878   6.357   6.216  10.552  0.5963 -0.0604  0.0495
  920MOL0     C26879   6.265   6.131  10.493 -0.7524 -0.5964 -0.1769
  920MOL0     C26880   6.302   6.050  10.392  0.0462  0.7532  0.3847
  920MOL0     O26881   6.219   5.972  10.317 -0.0228 -0.1705 -0.0884
  920MOL0     C26882   6.074   5.982  10.334 -0.3318 -0.4458  0.0819
  920MOL0     C26883   5.998   5.898  10.231  0.3337 -0.3016 -0.0399
  920MOL0     C26884   5.883   5.822  10.302  0.8119  0.0727  0.4635
  920MOL0     C26885   5.793   5.756  10.194  0.0265 -0.3517  0.1583
  920MOL0     C26886   5.675   5.684  10.252 -0.6500 -0.3129  0.6115
  920MOL0     C26887   5.566   5.641  10.278 -0.2520  0.6924  0.0054
  920MOL0     C26888   6.434   6.037  10.359 -0.3208 -0.2362  0.1848
  920MOL0     C26889   6.538   6.102  10.438 -1.0651  0.3192 -0.5655
  920MOL0     C26890   6.675   6.085  10.383 -0.5987  0.6260 -0.4120
  920MOL0     H26891   6.768   6.179  10.804  0.3393  1.0511 -0.2887
  920MOL0     H26892   6.924   6.232  10.978 -0.0612  0.8457 -0.1947
  920MOL0     H26893   6.830   6.578  11.254 -1.1040  1.4093 -2.3810
  920MOL0     H26894   6.952   6.649  11.145 -1.1143 -0.3242 -1.8480
  920MOL0     H26895   7.133   6.490  11.269 -0.7470 -1.1074  0.7395
  920MOL0     H26896   7.079   6.646  11.334  0.6936  0.3726 -1.9583
  920MOL0     H26897   7.095   6.477  11.507  0.6042  1.4999 -1.3689
  920MOL0     H26898   6.930   6.541  11.499  0.5434  0.6436 -1.1787
  920MOL0     H26899   6.862   6.326  11.364 -0.6669  1.1309  0.3924
  920MOL0     H26900   7.033   6.272  11.375 -0.8955 -2.4348  0.7999
  920MOL0     H26901   6.870   6.156  11.541  1.4124  0.1019  1.0773
  920MOL0     H26902   6.823   6.317  11.594  1.5683  1.1839  4.0422
  920MOL0     H26903   7.095   6.177  11.609  1.4400  0.4602  0.0814
  920MOL0     H26904   7.072   6.341  11.672 -0.7303  0.6998 -1.8058
  920MOL0     H26905   6.929   6.096  11.777  2.5640 -1.6981  2.0604
  920MOL0     H26906   6.908   6.249  11.852  1.4016  0.0902 -0.3403
  920MOL0     H26907   7.075   6.094  11.963  1.5068  1.2180  1.8126
  920MOL0     H26908   7.186   6.122  11.819 -0.0059  2.2681 -0.7286
  920MOL0     H26909   7.182   6.198  12.167 -0.7743 -0.6137 -0.1062
  920MOL0     H26910   7.244   6.364  12.320 -0.2027 -0.9436 -0.5185
  920MOL0     H26911   7.091   6.448  12.307 -0.4772  1.1390 -3.0318
  920MOL0     H26912   7.342   6.585  12.225  1.0578  1.8193  2.4797
  920MOL0     H26913   7.190   6.656  12.220 -1.4170 -0.4709  1.0648
  920MOL0     H26914   7.362   6.576  12.457 -1.0693 -1.6901  0.5207
  920MOL0     H26915   7.302   6.736  12.413 -1.4121  0.7790  1.3892
  920MOL0     H26916   7.119   6.523  12.522 -2.0079  1.1318 -2.0172
  920MOL0     H26917   7.174   6.658  12.615 -0.7493 -0.1827  0.5246
  920MOL0     H26918   6.894   6.855  12.343 -0.7934 -0.8342 -0.9349
  920MOL0     H26919   6.539   6.841  12.360 -0.9049  2.0351 -1.0530
  920MOL0     H26920   6.670   6.918  12.290  3.3954 -0.0044  0.9194
  920MOL0     H26921   6.584   7.001  12.423 -2.0312 -0.8306  1.4723
  920MOL0     H26922   6.407   6.903  12.873  0.8694  1.9753 -0.4548
  920MOL0     H26923   6.205   7.013  12.965  2.0567  0.1328 -0.0861
  920MOL0     H26924   5.946   6.901  12.923  5.0654 -0.6682  1.3616
  920MOL0     H26925   6.006   7.035  13.022 -0.3062  1.5180 -0.9269
  920MOL0     H26926   5.798   7.157  12.991 -0.4299  0.0514 -0.8884
  920MOL0     H26927   5.728   7.024  12.898 -0.7353  0.6564  0.4727
  920MOL0     H26928   5.838   7.021  13.192 -0.4313  1.2673  0.0998
  920MOL0     H26929   5.750   6.885  13.128  0.0141  0.6567 -1.1963
  920MOL0     H26930   5.538   7.028  13.077 -1.1604 -1.1918  2.1032
  920MOL0     H26931   5.627   7.159  13.150 -0.8868 -0.1078 -2.6944
  920MOL0     H26932   5.544   6.890  13.251  0.8084 -0.9657 -1.0114
  920MOL0     H26933   5.654   6.995  13.351  0.7703  0.4955 -1.0573
  920MOL0     H26934   5.406   7.012  13.416 -2.1831  2.2642 -0.2486
  920MOL0     H26935   5.379   7.091  13.259 -0.2087 -1.6338  0.5229
  920MOL0     H26936   5.512   7.289  13.337  2.7880  0.2670  1.2918
  920MOL0     H26937   5.569   7.207  13.478 -1.6929  2.0726  2.1661
  920MOL0     H26938   5.426   7.326  13.568 -0.8609  0.0273 -0.6224
  920MOL0     H26939   5.340   7.176  13.561 -1.3750 -0.4872 -0.3466
  920MOL0     H26940   6.049   7.038  12.570  0.3434  0.2584  1.1704
  920MOL0     H26941   6.283   6.961  12.485  1.0692  1.1097  0.1700
  920MOL0     H26942   6.753   6.703  12.785 -4.0952  0.9755 -1.2544
  920MOL0     H26943   6.967   6.635  12.703 -0.4346 -0.9310  0.9280
  920MOL0     H26944   6.693   6.580  11.079  0.5874 -0.0120  0.9705
  920MOL0     H26945   6.530   6.533  10.897  1.1484  2.2812 -0.2382
  920MOL0     H26946   6.327   6.288  10.628 -0.0218  2.2672 -2.2519
  920MOL0     H26947   6.159   6.138  10.515 -1.2036  0.2117 -2.4122
  920MOL0     H26948   6.046   5.955  10.436  1.2780 -2.2487  0.1076
  920MOL0     H26949   6.043   6.087  10.324 -6.3473 -1.5306  2.9141
  920MOL0     H26950   6.060   5.828  10.173 -0.8673 -0.8556 -0.6798
  920MOL0     H26951   5.959   5.971  10.160 -2.2840 -0.6289  0.9611
  920MOL0     H26952   5.924   5.751  10.373  2.3731 -1.4093 -1.7834
  920MOL0     H26953   5.831   5.902  10.355  0.1021  0.2861 -0.5154
  920MOL0     H26954   5.848   5.674  10.146 -0.4646  1.2996 -3.5550
  920MOL0     H26955   5.758   5.823  10.116  0.1629  0.9679  1.1918
  920MOL0     H26956   5.470   5.596  10.297 -0.8364  0.3422 -3.2445
  920MOL0     H26957   6.455   5.982  10.268 -0.3487  0.4644 -0.2483
  920MOL0     H26958   6.733   6.024  10.452 -1.9547  1.1998  1.2962
  920MOL0     H26959   6.659   6.033  10.288 -0.3483  0.0779 -0.1548
  920MOL0     H26960   6.726   6.179  10.360  0.8187 -0.1134 -0.4282
  921MOL0     O26961   4.607   8.672   9.112 -0.4244 -0.5278 -0.7383
  921MOL0     C26962   4.514   8.672   9.192  0.3687 -0.4352  0.0429
  921MOL0     O26963   4.520   8.625   9.322 -0.2570  0.2974  0.7317
  921MOL0     C26964   4.637   8.574   9.378  0.3773 -0.3326 -0.0274
  921MOL0     C26965   4.754   8.518   9.318  0.6293  0.0820 -0.3227
  921MOL0     C26966   4.856   8.464   9.387 -0.3786 -0.3527  0.0456
  921MOL0     C26967   4.842   8.453   9.526 -0.3292  0.0617  1.4648
  921MOL0     O26968   4.921   8.373   9.607  0.3019  0.2780 -0.4311
  921MOL0     C26969   5.054   8.398   9.568  0.9078  0.2137 -0.2702
  921MOL0     C26970   5.149   8.366   9.683 -0.0643 -0.5567 -0.0067
  921MOL0     C26971   5.280   8.443   9.651 -0.2663  0.2770 -0.2653
  921MOL0     C26972   5.385   8.437   9.761  0.4678  0.1595  0.2239
  921MOL0     C26973   5.504   8.519   9.707  0.7639  0.2021  0.3538
  921MOL0     C26974   5.606   8.537   9.826 -0.5968  0.3790  0.1609
  921MOL0     C26975   5.724   8.624   9.792 -0.3727 -0.2248 -0.6645
  921MOL0     C26976   5.792   8.606   9.647 -0.1987 -0.1298 -0.6129
  921MOL0     N26977   5.909   8.693   9.630 -0.2399  0.3766 -0.6599
  921MOL0     C26978   6.025   8.686   9.710 -0.2086  0.1558 -1.6358
  921MOL0     C26979   6.122   8.752   9.641 -0.1907 -0.0659  0.1408
  921MOL0     C26980   6.265   8.776   9.662 -0.0470  0.2149  0.3316
  921MOL0     C26981   6.277   8.827   9.804  0.2488  0.0015  0.5680
  921MOL0     C26982   6.412   8.876   9.848 -0.6190 -0.5439 -0.5427
  921MOL0     C26983   6.417   8.932   9.987 -0.5640 -0.3347 -0.6763
  921MOL0     O26984   6.365   8.842  10.084  0.6596 -0.8417  0.0108
  921MOL0     C26985   6.346   8.879  10.214  0.1023  0.0971 -0.0569
  921MOL0     C26986   6.424   8.972  10.286  0.4792 -0.3048 -0.2491
  921MOL0     C26987   6.386   9.007  10.417 -0.4264  0.3282 -1.1350
  921MOL0     C26988   6.483   9.102  10.493 -0.2199 -0.5339  0.0943
  921MOL0     C26989   6.264   8.966  10.468 -0.4019 -0.0619 -0.3760
  921MOL0     C26990   6.228   9.022  10.588 -0.0997 -0.3327  0.5817
  921MOL0     O26991   6.132   9.111  10.566 -0.5486 -0.1901 -0.4795
  921MOL0     C26992   6.082   9.198  10.659  0.7811  0.7242 -0.3430
  921MOL0     C26993   5.944   9.226  10.661  0.8368  0.3845  0.8070
  921MOL0     C26994   5.891   9.324  10.743 -0.1124  0.0971 -1.0679
  921MOL0     C26995   5.974   9.390  10.840 -0.7816  0.0606  1.2626
  921MOL0     O26996   5.922   9.486  10.913 -0.3556  0.6805 -0.8877
  921MOL0     C26997   5.958   9.491  11.050 -0.1828  0.0716  0.0925
  921MOL0     C26998   5.835   9.505  11.131  0.1689  1.2879  0.4703
  921MOL0     C26999   5.865   9.536  11.277  0.9959 -0.1666 -0.1418
  921MOL0     C27000   5.963   9.440  11.345  0.7735 -0.2268  0.3360
  921MOL0     C27001   5.976   9.460  11.494 -0.0171 -0.4812 -0.2538
  921MOL0     C27002   6.070   9.353  11.555  0.6256  0.1976  0.0215
  921MOL0     C27003   6.097   9.374  11.709  0.0717  0.5754  0.2185
  921MOL0     C27004   5.972   9.324  11.781 -0.2218  0.0228 -0.8860
  921MOL0    Cl27005   5.997   9.325  11.966 -0.2379  0.0447  0.0178
  921MOL0     C27006   6.109   9.371  10.835  0.2764  1.2149 -0.1249
  921MOL0     C27007   6.164   9.271  10.751  0.4981  0.4284 -0.0324
  921MOL0     O27008   6.288   8.998  10.692  0.5358 -0.2073  0.3402
  921MOL0     C27009   6.183   8.885  10.391  0.1814  0.2694 -0.1386
  921MOL0     C27010   6.230   8.835  10.272  0.2187 -0.0260  0.0667
  921MOL0     N27011   6.057   8.787   9.529  0.4367 -0.4363  0.6511
  921MOL0     N27012   5.926   8.764   9.522 -1.1883  0.0934  0.1640
  921MOL0     C27013   4.728   8.505   9.588 -0.2121  0.2348  0.0421
  921MOL0     C27014   4.629   8.565   9.521 -0.1499 -0.9304  0.4786
  921MOL0     C27015   4.392   8.741   9.153  0.2871  0.0362 -0.1720
  921MOL0     C27016   4.346   8.753   9.020  0.7917 -0.4520 -0.4697
  921MOL0     C27017   4.233   8.825   8.980 -0.5967  0.1590  0.3819
  921MOL0     C27018   4.169   8.910   9.073  0.5689  0.4187  0.2792
  921MOL0     O27019   4.060   8.988   9.049  0.2529  0.3119  0.0612
  921MOL0     C27020   4.013   9.018   8.916 -0.0220 -0.5717 -0.2538
  921MOL0     C27021   3.879   9.088   8.921 -0.2819 -0.0419 -0.4555
  921MOL0     C27022   3.872   9.224   8.998 -0.2325 -0.2587  0.9116
  921MOL0     C27023   3.955   9.339   8.939  0.9626  0.0558 -0.0361
  921MOL0     C27024   4.100   9.324   8.950  0.1617 -0.1520  0.2819
  921MOL0     C27025   4.220   9.321   8.957 -0.6444  0.4665  0.2688
  921MOL0     C27026   4.208   8.905   9.201 -0.5223  0.8250 -1.2109
  921MOL0     C27027   4.315   8.818   9.245  1.5506 -0.7598  0.3405
  921MOL0     C27028   4.337   8.833   9.393  0.4424 -0.7472  0.6892
  921MOL0     H27029   4.768   8.517   9.211  2.2382  0.4683 -0.1418
  921MOL0     H27030   4.943   8.428   9.334  1.0117  1.7337  0.8340
  921MOL0     H27031   5.052   8.503   9.535 -0.6957 -0.7378 -3.5768
  921MOL0     H27032   5.072   8.334   9.482  0.3764 -0.9299  0.4429
  921MOL0     H27033   5.125   8.396   9.785  2.4630 -0.7736  0.7174
  921MOL0     H27034   5.165   8.259   9.693  0.1076 -0.6850 -1.4305
  921MOL0     H27035   5.319   8.410   9.555 -1.6911  1.0260 -1.1303
  921MOL0     H27036   5.259   8.548   9.630  2.0225  0.6669 -0.9076
  921MOL0     H27037   5.345   8.480   9.853 -0.9587 -2.0405  0.7288
  921MOL0     H27038   5.416   8.334   9.785  1.5315  0.7786  1.6320
  921MOL0     H27039   5.465   8.617   9.678 -1.8850 -0.9593 -0.3675
  921MOL0     H27040   5.552   8.467   9.625  2.8462  2.6605 -0.1015
  921MOL0     H27041   5.549   8.577   9.911 -0.9404  2.6946 -1.1033
  921MOL0     H27042   5.638   8.441   9.869  1.2706  0.9590  0.1573
  921MOL0     H27043   5.801   8.618   9.870 -2.4039  2.6353  1.8231
  921MOL0     H27044   5.692   8.729   9.796  0.3315 -0.0256  2.6092
  921MOL0     H27045   5.831   8.503   9.646  0.0927 -0.0813  1.3001
  921MOL0     H27046   5.719   8.621   9.568 -1.6230  0.5911  0.7855
  921MOL0     H27047   6.033   8.646   9.811 -3.7110  0.8629 -0.9571
  921MOL0     H27048   6.312   8.838   9.586 -0.9051 -0.7884 -1.0529
  921MOL0     H27049   6.323   8.684   9.651 -0.4698  0.0770 -0.7982
  921MOL0     H27050   6.198   8.902   9.815 -0.5352 -0.1421 -2.8882
  921MOL0     H27051   6.247   8.747   9.872  0.7183 -0.9324 -0.2991
  921MOL0     H27052   6.491   8.801   9.844 -0.5300 -0.4122 -1.5996
  921MOL0     H27053   6.445   8.951   9.776 -0.1864  0.8874  1.0802
  921MOL0     H27054   6.518   8.969  10.009 -1.8449  1.9258  1.9641
  921MOL0     H27055   6.350   9.018   9.985 -2.1500 -1.4386  0.9071
  921MOL0     H27056   6.523   9.004  10.254  0.7882  0.1869  1.1426
  921MOL0     H27057   6.439   9.202  10.497  0.1030 -0.3554 -0.7157
  921MOL0     H27058   6.583   9.101  10.450 -0.0592  0.1807  0.4364
  921MOL0     H27059   6.500   9.071  10.597  1.0162  0.2949  0.1606
  921MOL0     H27060   5.873   9.175  10.597  1.2865 -1.8243  1.9700
  921MOL0     H27061   5.789   9.362  10.738 -0.5469 -1.0489 -1.1032
  921MOL0     H27062   6.016   9.402  11.074  0.0241  0.8274  2.6699
  921MOL0     H27063   6.022   9.577  11.070 -0.5467  0.9403 -2.1330
  921MOL0     H27064   5.781   9.587  11.082  0.9375  0.7329 -1.4153
  921MOL0     H27065   5.776   9.412  11.130  0.8781  0.8335 -0.2015
  921MOL0     H27066   5.770   9.538  11.331  0.0813  0.6991 -1.7179
  921MOL0     H27067   5.906   9.637  11.272  1.0204  0.1811  3.8728
  921MOL0     H27068   6.062   9.442  11.299  0.8727 -2.3077  0.3647
  921MOL0     H27069   5.915   9.343  11.329 -1.3743  0.8698 -0.2984
  921MOL0     H27070   6.026   9.554  11.519 -1.9471  0.2128  1.3409
  921MOL0     H27071   5.877   9.467  11.540 -0.7855 -4.0445 -1.0305
  921MOL0     H27072   6.164   9.351  11.500  1.3985  0.6190  1.2884
  921MOL0     H27073   6.025   9.258  11.528 -0.6526  0.6784  0.3827
  921MOL0     H27074   6.128   9.475  11.736  0.4357  1.0978 -1.9686
  921MOL0     H27075   6.177   9.305  11.735 -0.2648  0.4879  1.0682
  921MOL0     H27076   5.955   9.219  11.757  3.8360 -1.8706  2.9926
  921MOL0     H27077   5.883   9.384  11.761  0.1306  1.3497  1.2240
  921MOL0     H27078   6.179   9.427  10.895 -0.7688  0.3938  1.9431
  921MOL0     H27079   6.271   9.252  10.751  0.4436 -0.1085 -2.0544
  921MOL0     H27080   6.082   8.855  10.416 -0.3592  0.2591 -2.1932
  921MOL0     H27081   6.174   8.773  10.203 -0.4642  1.0177 -0.3400
  921MOL0     H27082   4.724   8.511   9.696 -0.9126  2.9990 -0.0523
  921MOL0     H27083   4.549   8.609   9.578  0.7012  1.5459 -0.1377
  921MOL0     H27084   4.385   8.693   8.939 -3.0139  0.7962 -3.5684
  921MOL0     H27085   4.200   8.813   8.878  1.8590  2.2689 -0.7678
  921MOL0     H27086   4.084   9.078   8.859 -1.9911  2.4229  0.2221
  921MOL0     H27087   3.989   8.931   8.854 -1.7583 -1.8606  2.0435
  921MOL0     H27088   3.805   9.024   8.970 -1.1710  2.2383  1.3934
  921MOL0     H27089   3.846   9.099   8.817 -1.4859 -0.7792 -0.1709
  921MOL0     H27090   3.767   9.257   8.998 -1.4426 -3.6109  3.0684
  921MOL0     H27091   3.896   9.210   9.104  0.3893  0.2008  0.8320
  921MOL0     H27092   3.943   9.430   8.998  0.8708  0.9794 -1.4276
  921MOL0     H27093   3.924   9.350   8.834  0.2906  2.3902  0.3590
  921MOL0     H27094   4.326   9.330   8.971 -0.4671  2.1103 -1.6606
  921MOL0     H27095   4.149   8.964   9.270  2.2574  1.2974  0.9087
  921MOL0     H27096   4.328   8.734   9.438 -0.3417 -1.4600 -0.9775
  921MOL0     H27097   4.438   8.871   9.412  1.0554 -1.8684 -0.1899
  921MOL0     H27098   4.257   8.886   9.446 -0.2905 -2.9649  1.9099
  922MOL0     O27099  10.312   1.227  11.213  0.1509  0.8617 -0.5872
  922MOL0     C27100  10.312   1.260  11.333 -0.1262 -0.5889  0.2614
  922MOL0     O27101  10.428   1.302  11.401  0.3829  0.4835 -0.4964
  922MOL0     C27102  10.559   1.288  11.353 -0.0365  0.5540 -0.3034
  922MOL0     C27103  10.612   1.283  11.219 -0.1681  0.6212  0.7578
  922MOL0     C27104  10.749   1.256  11.193 -0.0894  0.3009 -0.5806
  922MOL0     C27105  10.841   1.223  11.301  0.6577 -0.0517 -0.4113
  922MOL0     O27106  10.977   1.193  11.282 -0.5911 -0.1763  0.5418
  922MOL0     C27107  11.055   1.254  11.173  0.2761  0.1704  0.7684
  922MOL0     C27108  11.200   1.197  11.186  0.4305 -0.2708 -0.5103
  922MOL0     C27109  11.266   1.253  11.312  0.0071 -0.0010  0.1742
  922MOL0     C27110  11.421   1.223  11.309  0.2088 -0.5989 -0.5329
  922MOL0     C27111  11.489   1.302  11.420 -0.3275 -0.5543  0.5280
  922MOL0     C27112  11.634   1.267  11.415  0.0405  0.9359 -0.3404
  922MOL0     C27113  11.690   1.316  11.551 -0.7849  0.1416  0.2262
  922MOL0     C27114  11.836   1.284  11.580  0.6142  0.0936  0.8658
  922MOL0     N27115  11.940   1.343  11.495  0.0244 -0.0476 -0.4007
  922MOL0     C27116  11.955   1.473  11.465  1.2209  0.1378  0.4498
  922MOL0     C27117  12.065   1.478  11.382 -0.1992  0.1075  0.0016
  922MOL0     C27118  12.134   1.602  11.322 -0.5124 -0.9233  0.1693
  922MOL0     C27119  12.250   1.567  11.221 -0.1754  0.0253  0.3998
  922MOL0     C27120  12.333   1.689  11.183 -0.3019 -0.4765 -0.1699
  922MOL0     C27121  12.399   1.669  11.053 -0.4402 -0.5272 -0.5262
  922MOL0     O27122  12.511   1.767  11.036  0.3704  0.6785  0.7840
  922MOL0     C27123  12.631   1.729  10.990  0.0281 -0.4721 -0.7590
  922MOL0     C27124  12.706   1.648  11.078 -0.2805 -0.3146  0.8149
  922MOL0     C27125  12.821   1.579  11.028 -0.9767 -0.1579  0.7637
  922MOL0     C27126  12.900   1.504  11.125 -0.4397  0.2398  0.2603
  922MOL0     C27127  12.859   1.599  10.895 -0.7406  0.3628 -0.0816
  922MOL0     C27128  12.977   1.536  10.837 -0.0755 -0.1246  0.1680
  922MOL0     O27129  13.037   1.428  10.900  0.8947  0.3617 -0.3012
  922MOL0     C27130  13.144   1.368  10.840  0.5114 -0.0908 -1.3018
  922MOL0     C27131  13.281   1.410  10.870 -0.6882  0.2549  0.3052
  922MOL0     C27132  13.386   1.334  10.810 -0.2838  0.1461 -0.0650
  922MOL0     C27133  13.355   1.224  10.730  0.6411 -0.0552 -0.3840
  922MOL0     O27134  13.443   1.134  10.679 -0.1344  0.3412  0.2559
  922MOL0     C27135  13.570   1.106  10.733  0.6131  0.3246 -0.2610
  922MOL0     C27136  13.571   1.021  10.865 -0.1729  0.6582 -0.2993
  922MOL0     C27137  13.713   1.001  10.915 -0.3124  0.1668  1.0385
  922MOL0     C27138  13.709   0.938  11.053 -1.3633 -0.1090 -1.0825
  922MOL0     C27139  13.842   0.940  11.115 -0.5474  0.1093  0.7508
  922MOL0     C27140  13.933   0.833  11.047 -0.1550  0.6063  0.8707
  922MOL0     C27141  14.079   0.831  11.114 -0.8121 -0.3939 -0.0925
  922MOL0     C27142  14.185   0.755  11.035  0.9520 -0.2093  0.7521
  922MOL0    Cl27143  14.316   0.725  11.150 -0.0759 -0.1407  0.2582
  922MOL0     C27144  13.223   1.217  10.681 -0.3195  0.7054 -0.4725
  922MOL0     C27145  13.113   1.274  10.746 -0.8821  0.0869  0.1324
  922MOL0     O27146  13.008   1.573  10.724 -0.2062  0.4743  0.1170
  922MOL0     C27147  12.782   1.689  10.817  0.4663 -0.2869  0.0966
  922MOL0     C27148  12.674   1.759  10.866 -0.1670  0.0674 -0.3360
  922MOL0     N27149  12.111   1.348  11.362  0.2402  0.4820 -0.4158
  922MOL0     N27150  12.029   1.270  11.428  0.0769  0.0897 -0.7916
  922MOL0     C27151  10.787   1.217  11.428  0.2508 -0.0174  0.0885
  922MOL0     C27152  10.653   1.247  11.453  0.8462 -0.5581  0.6680
  922MOL0     C27153  10.187   1.255  11.407  0.0848 -0.7599 -0.3680
  922MOL0     C27154  10.199   1.256  11.540  0.1044 -0.1379 -0.8009
  922MOL0     C27155  10.088   1.237  11.626  0.6577 -0.0252 -0.5239
  922MOL0     C27156   9.960   1.210  11.572 -0.0077  0.2376 -0.1552
  922MOL0     O27157   9.850   1.199  11.652 -0.2924 -0.2974  0.4018
  922MOL0     C27158   9.830   1.073  11.724  0.4790 -0.6490 -0.4729
  922MOL0     C27159   9.699   1.016  11.670 -0.1396 -0.3905  0.3355
  922MOL0     C27160   9.569   1.085  11.707  0.1705  0.1321  0.7145
  922MOL0     C27161   9.445   1.021  11.631  0.2965  0.3261 -0.0812
  922MOL0     C27162   9.388   0.899  11.696 -0.0478  0.2809  0.2134
  922MOL0     C27163   9.334   0.810  11.754  0.6507  0.2514  0.2263
  922MOL0     C27164   9.944   1.218  11.435 -0.8962  0.3363  0.1497
  922MOL0     C27165  10.054   1.241  11.347  0.4515 -0.0835 -0.5912
  922MOL0     C27166  10.026   1.245  11.195 -0.5629  0.4575 -0.3299
  922MOL0     H27167  10.545   1.307  11.138  1.1813 -1.4752 -1.0927
  922MOL0     H27168  10.785   1.262  11.091 -0.9126  1.6025 -0.8062
  922MOL0     H27169  11.040   1.362  11.180  1.4571  0.4280 -0.4977
  922MOL0     H27170  11.016   1.225  11.075 -0.9028 -0.7035  1.4656
  922MOL0     H27171  11.184   1.089  11.174 -3.2496  0.3095 -1.8903
  922MOL0     H27172  11.263   1.225  11.101  1.0124  1.6464  0.4852
  922MOL0     H27173  11.252   1.362  11.313 -0.6365 -0.0012 -2.1685
  922MOL0     H27174  11.222   1.216  11.405  0.0347 -0.5569 -0.0354
  922MOL0     H27175  11.449   1.118  11.320  2.2341 -0.5238 -3.8458
  922MOL0     H27176  11.451   1.248  11.207 -1.2713 -2.1677 -1.4084
  922MOL0     H27177  11.437   1.277  11.512  0.1166 -0.1755  0.8897
  922MOL0     H27178  11.485   1.411  11.426  0.5184 -0.5184  0.6068
  922MOL0     H27179  11.647   1.159  11.406 -2.0826  0.7491 -1.8256
  922MOL0     H27180  11.685   1.315  11.331  2.4076 -1.0809 -0.1899
  922MOL0     H27181  11.640   1.267  11.635  1.6842 -0.7246  1.3045
  922MOL0     H27182  11.664   1.422  11.556 -2.9737 -0.3861  1.0334
  922MOL0     H27183  11.858   1.317  11.682  0.9343  4.4447 -0.4090
  922MOL0     H27184  11.852   1.176  11.580  3.8183  0.4513 -1.1641
  922MOL0     H27185  11.896   1.558  11.496 -0.5499 -0.2374 -1.6665
  922MOL0     H27186  12.183   1.662  11.400  1.8081 -0.6620 -1.3807
  922MOL0     H27187  12.052   1.652  11.271  0.1389 -0.8940 -0.8768
  922MOL0     H27188  12.318   1.497  11.271  3.0662  1.7543 -1.2836
  922MOL0     H27189  12.195   1.529  11.134  3.2429  2.7101 -3.3116
  922MOL0     H27190  12.274   1.781  11.181  0.6445  0.1420 -0.5867
  922MOL0     H27191  12.409   1.711  11.258  1.9794 -1.8163 -1.9416
  922MOL0     H27192  12.441   1.568  11.060 -1.1333 -0.8728 -1.2136
  922MOL0     H27193  12.331   1.660  10.968 -1.6474  0.1708  0.3336
  922MOL0     H27194  12.678   1.653  11.182  0.1488 -0.1323  0.9264
  922MOL0     H27195  13.002   1.536  11.148 -0.2113 -1.0289  1.0798
  922MOL0     H27196  12.892   1.398  11.100  0.3718  0.1592  0.3356
  922MOL0     H27197  12.850   1.519  11.222  0.5679  1.6782  0.5894
  922MOL0     H27198  13.300   1.499  10.929  1.5335  0.1975 -0.2449
  922MOL0     H27199  13.490   1.358  10.826  0.2543  0.0330 -2.8794
  922MOL0     H27200  13.633   1.058  10.658 -0.5768  0.7987 -1.6047
  922MOL0     H27201  13.625   1.198  10.756  1.6639 -0.7814  1.9161
  922MOL0     H27202  13.507   1.066  10.941 -0.2630  2.3419 -1.3065
  922MOL0     H27203  13.546   0.916  10.846  0.0354  0.8138 -1.5606
  922MOL0     H27204  13.767   1.095  10.924  1.1491 -0.0601 -3.3030
  922MOL0     H27205  13.766   0.940  10.841  1.4543  3.3498 -0.5337
  922MOL0     H27206  13.674   0.834  11.054 -0.3038 -0.4735  0.1950
  922MOL0     H27207  13.647   1.002  11.116 -1.3596 -0.9707 -0.1950
  922MOL0     H27208  13.888   1.040  11.110  0.1871 -0.0625  2.9845
  922MOL0     H27209  13.843   0.917  11.222  1.5190  1.2551  1.0492
  922MOL0     H27210  13.936   0.869  10.944  0.2390  1.6525  1.2301
  922MOL0     H27211  13.878   0.739  11.047  2.3837 -0.9796 -0.2394
  922MOL0     H27212  14.076   0.795  11.218 -1.8591  0.6318  0.2552
  922MOL0     H27213  14.104   0.937  11.126  1.0167 -0.6927 -0.8375
  922MOL0     H27214  14.230   0.805  10.949  0.7703  0.7249  1.1892
  922MOL0     H27215  14.128   0.667  11.006  0.1322  0.2796  0.8417
  922MOL0     H27216  13.213   1.145  10.601 -2.2650  0.3476  0.0428
  922MOL0     H27217  13.009   1.267  10.716 -0.7931 -3.8685  0.2617
  922MOL0     H27218  12.811   1.703  10.713  1.7915  0.2270  0.5176
  922MOL0     H27219  12.606   1.813  10.801 -2.2835 -1.5420  0.4226
  922MOL0     H27220  10.857   1.197  11.508 -1.3318  4.0826  2.8110
  922MOL0     H27221  10.618   1.245  11.556 -3.3825  0.9697 -0.4981
  922MOL0     H27222  10.293   1.251  11.594 -1.6855  0.9613  2.6927
  922MOL0     H27223  10.095   1.235  11.734 -3.8623 -1.0705 -0.0721
  922MOL0     H27224   9.908   1.000  11.699  0.9123  0.0242 -1.1217
  922MOL0     H27225   9.831   1.080  11.833  1.0870  1.3376 -0.5669
  922MOL0     H27226   9.676   0.915  11.705 -0.6724  0.1828  1.7090
  922MOL0     H27227   9.708   1.021  11.561  1.8336  0.9602  0.5081
  922MOL0     H27228   9.559   1.070  11.815  0.8479 -2.8863  0.4580
  922MOL0     H27229   9.590   1.189  11.682  3.2526 -0.5556  0.0602
  922MOL0     H27230   9.476   0.999  11.529 -0.8912  0.3121 -0.4522
  922MOL0     H27231   9.363   1.093  11.628  0.6963  0.7441 -1.8805
  922MOL0     H27232   9.274   0.734  11.799 -0.7919  0.9392 -0.4528
  922MOL0     H27233   9.845   1.215  11.392 -0.3627  0.3110 -1.1168
  922MOL0     H27234  10.058   1.147  11.159 -0.7884  0.0173  0.6261
  922MOL0     H27235   9.919   1.257  11.172 -0.7553 -1.8368 -0.8736
  922MOL0     H27236  10.083   1.328  11.152 -0.2877  2.7228  3.8492
  923MOL0     O27237   0.107   0.590   0.316 -0.4109 -0.3809  0.7338
  923MOL0     C27238   0.128   0.477   0.275 -0.2721  0.7227 -0.1206
  923MOL0     O27239   0.251   0.432   0.239 -0.3077  0.9260 -0.2148
  923MOL0     C27240   0.350   0.516   0.193 -0.2297 -0.4326 -0.2945
  923MOL0     C27241   0.323   0.619   0.102 -0.6142 -0.1644 -0.3213
  923MOL0     C27242   0.431   0.702   0.051  1.2351  0.0483  0.5409
  923MOL0     C27243   0.559   0.678   0.085  0.4014  0.1886 -0.3865
  923MOL0     O27244   0.668   0.739   0.032  0.5994  0.9164  0.2218
  923MOL0     C27245   0.651   0.883   0.019  0.1963 -0.0282  0.7110
  923MOL0     C27246   0.782   0.947  -0.029  0.2149 -0.3874 -0.4679
  923MOL0     C27247   0.879   0.964   0.091 -0.3021  0.0945 -0.1532
  923MOL0     C27248   1.003   1.020   0.029 -0.5454 -0.5231 -0.5122
  923MOL0     C27249   0.987   1.151  -0.045  0.8576  1.0692  1.3780
  923MOL0     C27250   1.125   1.180  -0.112 -0.6176  0.3740 -0.2224
  923MOL0     C27251   1.230   1.234  -0.013  0.6363 -0.5707 -0.2959
  923MOL0     C27252   1.367   1.202  -0.075 -0.7976  0.0026 -0.5876
  923MOL0     N27253   1.472   1.217   0.028 -0.3489 -0.2239  0.0916
  923MOL0     C27254   1.515   1.332   0.089  0.3595 -0.1084 -0.4350
  923MOL0     C27255   1.635   1.303   0.155  0.0994 -1.2114  0.4192
  923MOL0     C27256   1.695   1.399   0.255 -0.2705  0.1255 -0.6399
  923MOL0     C27257   1.617   1.408   0.389 -0.4815  0.7119  0.8574
  923MOL0     C27258   1.669   1.520   0.473 -0.8914 -0.4025 -1.4255
  923MOL0     C27259   1.820   1.506   0.504 -0.0109  0.0727 -0.5445
  923MOL0     O27260   1.843   1.583   0.621 -0.1569  0.2718 -0.5375
  923MOL0     C27261   1.972   1.582   0.672  0.6115  0.1071  0.5235
  923MOL0     C27262   2.011   1.688   0.757 -0.2938  0.8991 -0.4534
  923MOL0     C27263   2.141   1.694   0.807 -0.7641  0.0197  0.4526
  923MOL0     C27264   2.168   1.810   0.894  0.2113 -0.1883 -0.2490
  923MOL0     C27265   2.232   1.593   0.775 -1.2909  0.2420  0.2879
  923MOL0     C27266   2.371   1.596   0.835  0.2003  0.8764 -0.2959
  923MOL0     O27267   2.392   1.653   0.955 -0.5055  0.8635 -0.1361
  923MOL0     C27268   2.524   1.675   0.977 -0.6085 -0.5832 -0.2644
  923MOL0     C27269   2.563   1.807   0.970 -0.7332 -0.3074  0.2092
  923MOL0     C27270   2.702   1.833   0.986  1.5975 -0.3930 -0.1476
  923MOL0     C27271   2.794   1.724   1.002  0.0984  0.6475 -0.1466
  923MOL0     O27272   2.930   1.745   0.999  0.6797  0.9887  0.0138
  923MOL0     C27273   3.008   1.675   0.896  0.7587  0.4759 -0.4196
  923MOL0     C27274   3.103   1.576   0.969 -0.1404 -0.1826 -0.3857
  923MOL0     C27275   3.183   1.658   1.075 -0.4572  0.1058  0.0313
  923MOL0     C27276   3.143   1.608   1.211 -0.9517 -0.3084  0.3990
  923MOL0     C27277   3.214   1.678   1.331  0.2220 -1.3109  0.4724
  923MOL0     C27278   3.193   1.587   1.455  0.0864  0.4408  0.5188
  923MOL0     C27279   3.240   1.665   1.575  0.4695  0.3673 -0.6026
  923MOL0     C27280   3.197   1.598   1.710  0.1056 -0.5833 -0.3926
  923MOL0    Cl27281   3.027   1.626   1.721 -0.3623 -0.2186  0.0187
  923MOL0     C27282   2.750   1.590   1.018  0.4437 -0.3117  0.2717
  923MOL0     C27283   2.614   1.569   1.006 -0.4328 -0.2020 -0.0284
  923MOL0     O27284   2.455   1.547   0.760  0.2159  0.5718 -0.1588
  923MOL0     C27285   2.200   1.496   0.684 -0.2779  0.5985 -0.5770
  923MOL0     C27286   2.067   1.485   0.636  0.2129 -0.4306  0.0486
  923MOL0     N27287   1.654   1.169   0.142 -0.0294  1.0388  0.1137
  923MOL0     N27288   1.563   1.116   0.069  0.7744 -0.3570  0.0158
  923MOL0     C27289   0.587   0.561   0.155 -0.1157 -0.3556 -1.0905
  923MOL0     C27290   0.482   0.486   0.217  0.2953  0.0659  0.5562
  923MOL0     C27291   0.016   0.381   0.270  0.5183  0.5250 -0.4074
  923MOL0     C27292  -0.082   0.389   0.365  0.1369 -0.5233  0.3201
  923MOL0     C27293  -0.196   0.313   0.357 -0.7823  0.6295 -0.5142
  923MOL0     C27294  -0.208   0.201   0.269 -0.1740 -0.6879 -0.4802
  923MOL0     O27295  -0.315   0.120   0.256  0.6747  0.1548  0.4084
  923MOL0     C27296  -0.441   0.174   0.296  0.0360 -0.0180 -0.8873
  923MOL0     C27297  -0.544   0.066   0.309 -0.3348  0.1069  0.1025
  923MOL0     C27298  -0.687   0.132   0.331 -0.6891  0.5057 -0.3115
  923MOL0     C27299  -0.794   0.026   0.364  0.2592  0.1477 -0.2704
  923MOL0     C27300  -0.836  -0.056   0.249  0.3707 -0.1050 -0.4324
  923MOL0     C27301  -0.871  -0.114   0.153 -0.2977 -0.0197 -0.2283
  923MOL0     C27302  -0.109   0.186   0.181 -0.1199 -0.5362 -0.4007
  923MOL0     C27303  -0.003   0.276   0.169 -0.3387  0.3188 -0.3065
  923MOL0     C27304   0.086   0.259   0.043  0.4170 -0.4348 -0.7900
  923MOL0     H27305   0.217   0.631   0.081 -0.7983 -2.0611 -0.5794
  923MOL0     H27306   0.408   0.790  -0.008  0.7657  0.5415  1.4528
  923MOL0     H27307   0.623   0.926   0.116  1.7263 -1.6516  1.9430
  923MOL0     H27308   0.574   0.906  -0.055 -0.0164 -1.8373  0.3425
  923MOL0     H27309   0.827   0.880  -0.104 -0.6799 -2.3661  0.6698
  923MOL0     H27310   0.755   1.040  -0.079  1.4215 -0.3467 -1.0739
  923MOL0     H27311   0.842   1.031   0.170 -3.5752 -1.2379 -0.4022
  923MOL0     H27312   0.918   0.871   0.135  2.3206  1.2608  0.1997
  923MOL0     H27313   1.081   1.033   0.105 -1.1710  1.0256 -0.0973
  923MOL0     H27314   1.047   0.939  -0.029 -0.0995  0.3952 -1.4767
  923MOL0     H27315   0.961   1.231   0.024  2.3315  2.7765  0.0659
  923MOL0     H27316   0.914   1.142  -0.126  0.9540 -2.0368  1.5234
  923MOL0     H27317   1.163   1.085  -0.151 -1.7352 -1.7848  3.4511
  923MOL0     H27318   1.112   1.240  -0.203 -1.3622  1.3669  0.5195
  923MOL0     H27319   1.223   1.184   0.084 -1.3533 -0.9976 -0.6185
  923MOL0     H27320   1.213   1.339   0.011 -2.8965 -0.5731 -2.1374
  923MOL0     H27321   1.372   1.099  -0.111  0.6859 -1.0993  2.4685
  923MOL0     H27322   1.387   1.280  -0.150 -0.4851  2.4676  1.8718
  923MOL0     H27323   1.452   1.420   0.099 -0.5043 -0.8594  1.0423
  923MOL0     H27324   1.722   1.495   0.210 -1.5444  0.8545  0.1133
  923MOL0     H27325   1.795   1.360   0.276  0.0184 -0.5657 -3.0589
  923MOL0     H27326   1.512   1.426   0.362 -0.6363 -1.6966 -0.5093
  923MOL0     H27327   1.634   1.315   0.444  2.2267 -0.0085 -1.0126
  923MOL0     H27328   1.650   1.620   0.434 -2.7678 -0.1333  0.0169
  923MOL0     H27329   1.615   1.514   0.568  0.3551  3.0667 -0.3343
  923MOL0     H27330   1.844   1.400   0.505 -0.5099 -0.0598  0.8175
  923MOL0     H27331   1.879   1.547   0.422  0.4695  0.4678 -0.0103
  923MOL0     H27332   1.930   1.758   0.772 -0.1304  1.6523 -2.7422
  923MOL0     H27333   2.074   1.865   0.901 -2.9134 -5.1489  2.8358
  923MOL0     H27334   2.252   1.867   0.851  1.0667 -1.1575  0.1153
  923MOL0     H27335   2.176   1.775   0.997 -2.5062  0.5299  0.2726
  923MOL0     H27336   2.490   1.882   0.943  0.7196  0.9345 -0.4357
  923MOL0     H27337   2.738   1.936   0.983 -0.2734  0.6101  4.1605
  923MOL0     H27338   2.948   1.619   0.824 -0.7494  2.3658 -0.7122
  923MOL0     H27339   3.049   1.754   0.833  1.9279 -2.4038 -3.5429
  923MOL0     H27340   3.047   1.494   1.016  2.0282 -3.0971 -2.4762
  923MOL0     H27341   3.162   1.522   0.894 -0.8913 -0.3492 -0.8690
  923MOL0     H27342   3.158   1.764   1.066  0.2958  0.1966 -1.2409
  923MOL0     H27343   3.287   1.628   1.063  0.2691  2.8221 -1.3953
  923MOL0     H27344   3.169   1.502   1.219  2.2040  0.2695 -0.7250
  923MOL0     H27345   3.038   1.622   1.238 -0.1040  2.2460  2.8715
  923MOL0     H27346   3.319   1.701   1.309 -0.3833  0.7907 -0.4959
  923MOL0     H27347   3.168   1.776   1.342  0.6939 -0.7377 -1.9916
  923MOL0     H27348   3.261   1.502   1.449 -3.5496 -2.7134  0.4533
  923MOL0     H27349   3.091   1.549   1.466 -0.2006  1.0567  0.1142
  923MOL0     H27350   3.208   1.770   1.576  1.8913  0.8292 -0.2054
  923MOL0     H27351   3.349   1.656   1.569  0.7066  2.9145 -1.5725
  923MOL0     H27352   3.254   1.636   1.795 -0.7588 -0.0297 -0.0476
  923MOL0     H27353   3.212   1.490   1.702  0.0650 -0.6716  0.6250
  923MOL0     H27354   2.811   1.501   1.027 -0.1688 -0.7628  0.0263
  923MOL0     H27355   2.566   1.473   0.992 -0.7615 -0.5242  2.6736
  923MOL0     H27356   2.265   1.415   0.652 -1.8511 -0.8665 -0.2212
  923MOL0     H27357   2.042   1.409   0.563  1.4492 -0.7254 -0.1019
  923MOL0     H27358   0.692   0.531   0.160 -0.2000 -1.1254 -3.0516
  923MOL0     H27359   0.510   0.399   0.276 -2.8743 -0.8281  0.9520
  923MOL0     H27360  -0.079   0.467   0.441 -0.0464 -2.6221  2.6045
  923MOL0     H27361  -0.269   0.334   0.435 -0.1255  0.5452  0.1393
  923MOL0     H27362  -0.429   0.223   0.393  0.2757 -3.0790  0.7639
  923MOL0     H27363  -0.464   0.252   0.224 -1.5016  1.4743  1.1171
  923MOL0     H27364  -0.511  -0.001   0.389 -4.4793 -0.4425  1.6002
  923MOL0     H27365  -0.550  -0.001   0.222  0.1466  1.1211 -0.7309
  923MOL0     H27366  -0.687   0.197   0.420 -0.0368 -0.7793  0.6622
  923MOL0     H27367  -0.723   0.194   0.249 -1.1441  1.7274  0.7646
  923MOL0     H27368  -0.885   0.084   0.381  0.7178  1.2241 -1.3890
  923MOL0     H27369  -0.764  -0.034   0.451 -0.0121 -0.0668 -0.3221
  923MOL0     H27370  -0.900  -0.170   0.066  0.2459  0.9507 -1.0584
  923MOL0     H27371  -0.136   0.115   0.103 -4.7804  0.4868 -0.0149
  923MOL0     H27372   0.167   0.188   0.064  1.0366  0.8871  1.8323
  923MOL0     H27373   0.017   0.228  -0.035 -0.8823 -1.8449  0.8599
  923MOL0     H27374   0.132   0.356   0.018  0.7823 -0.4161 -0.0870
  924MOL0     O27375   7.955  10.305   8.414  0.2152 -0.1634  0.5248
  924MOL0     C27376   7.975  10.215   8.326  0.0188 -0.1341  0.5688
  924MOL0     O27377   8.099  10.179   8.288  0.6392  0.3206  0.3827
  924MOL0     C27378   8.200  10.275   8.276 -0.1145 -0.2248  0.1362
  924MOL0     C27379   8.184  10.414   8.279  0.8271 -0.0574 -0.8355
  924MOL0     C27380   8.297  10.494   8.280 -0.0349 -1.4845 -0.0467
  924MOL0     C27381   8.424  10.438   8.257 -0.6074 -0.2419  0.0042
  924MOL0     O27382   8.533  10.524   8.244 -0.8063  0.2674 -0.0253
  924MOL0     C27383   8.654  10.473   8.190  0.3948 -0.7594  0.0448
  924MOL0     C27384   8.754  10.589   8.180 -0.7749  0.7548  0.4690
  924MOL0     C27385   8.887  10.525   8.131  0.0453  0.6895 -0.3431
  924MOL0     C27386   8.986  10.635   8.079  0.4278 -0.1713 -0.0667
  924MOL0     C27387   9.111  10.635   8.173  1.1580  0.8689 -0.0913
  924MOL0     C27388   9.142  10.773   8.222  0.8121  1.1186 -0.2028
  924MOL0     C27389   9.276  10.795   8.293  0.1717 -0.2684 -0.0968
  924MOL0     C27390   9.398  10.736   8.216  0.1089 -0.2086 -0.5397
  924MOL0     N27391   9.521  10.787   8.274 -0.7427 -0.6009 -0.3726
  924MOL0     C27392   9.544  10.831   8.400  0.1957  0.1006  0.2543
  924MOL0     C27393   9.676  10.866   8.398 -0.0533 -0.5192 -0.6275
  924MOL0     C27394   9.771  10.914   8.507  0.5300 -0.0930 -0.0983
  924MOL0     C27395   9.768  10.835   8.643  0.8195 -0.0662  0.2867
  924MOL0     C27396   9.837  10.697   8.644 -0.0707  0.1619 -0.3149
  924MOL0     C27397   9.970  10.699   8.569 -0.8127  0.3314  0.5999
  924MOL0     O27398  10.067  10.754   8.662 -0.1373  0.3741  0.1479
  924MOL0     C27399  10.194  10.777   8.626  0.5093 -0.2548 -0.3392
  924MOL0     C27400  10.258  10.888   8.676 -0.1211  0.9186  0.7255
  924MOL0     C27401  10.393  10.912   8.645  1.0098  0.3780  0.0601
  924MOL0     C27402  10.449  11.041   8.707 -0.2956 -1.0775  0.2110
  924MOL0     C27403  10.465  10.823   8.557 -0.4443  0.3694 -0.6918
  924MOL0     C27404  10.609  10.836   8.530 -0.8381 -0.5230 -0.2949
  924MOL0     O27405  10.681  10.919   8.607  1.4271  0.3271 -0.5236
  924MOL0     C27406  10.815  10.932   8.596 -0.0052  0.0819  0.8523
  924MOL0     C27407  10.861  11.045   8.659  0.2963  0.1901 -0.0979
  924MOL0     C27408  11.003  11.063   8.686  0.4933  0.5293  0.4757
  924MOL0     C27409  11.096  10.972   8.632  0.2741  0.2579  0.1816
  924MOL0     O27410  11.220  11.006   8.670  0.0774 -0.0149  0.1561
  924MOL0     C27411  11.311  10.900   8.661 -0.3943 -0.3100  0.8863
  924MOL0     C27412  11.436  10.935   8.754  0.0257  0.4316  0.7685
  924MOL0     C27413  11.391  10.976   8.895  0.1760 -0.7881 -0.0598
  924MOL0     C27414  11.324  10.870   8.979  0.2560  0.2085 -1.0734
  924MOL0     C27415  11.293  10.935   9.111 -0.6698 -0.5079 -0.6435
  924MOL0     C27416  11.200  10.850   9.198 -0.8349 -0.7318  0.2803
  924MOL0     C27417  11.201  10.903   9.340  0.0517  0.1389 -0.0188
  924MOL0     C27418  11.324  10.871   9.431 -0.6431 -0.3842  0.1659
  924MOL0    Cl27419  11.245  10.764   9.563  0.2570  0.1593 -0.4915
  924MOL0     C27420  11.051  10.864   8.554 -0.0942  0.1848 -0.7458
  924MOL0     C27421  10.910  10.844   8.541  1.0969 -0.2383  0.3021
  924MOL0     O27422  10.646  10.784   8.430 -0.0863 -0.2157 -0.2114
  924MOL0     C27423  10.393  10.718   8.507  0.2636  0.2284 -0.9621
  924MOL0     C27424  10.261  10.691   8.540  0.3684 -0.0051  0.4507
  924MOL0     N27425   9.732  10.834   8.273  0.1840  0.5553 -0.1442
  924MOL0     N27426   9.630  10.817   8.198 -0.6627  1.0178  0.5713
  924MOL0     C27427   8.435  10.298   8.262  0.0410  0.0338  0.3201
  924MOL0     C27428   8.326  10.218   8.278 -0.1367  1.1599 -0.0255
  924MOL0     C27429   7.860  10.135   8.280  0.3579  0.1529  0.0837
  924MOL0     C27430   7.885  10.002   8.234  1.4862 -0.3875  0.3165
  924MOL0     C27431   7.780   9.930   8.173 -0.8024 -0.2502 -0.3893
  924MOL0     C27432   7.650   9.990   8.156 -0.0650  0.2745 -0.0628
  924MOL0     O27433   7.538   9.921   8.110 -0.6043 -0.1045  0.7195
  924MOL0     C27434   7.544   9.806   8.023  0.7813 -0.2243  0.1823
  924MOL0     C27435   7.432   9.828   7.919  0.4590  0.0623  0.2732
  924MOL0     C27436   7.358   9.704   7.875 -0.1707  0.3100  0.1182
  924MOL0     C27437   7.233   9.752   7.794  0.4074 -0.3460 -0.0837
  924MOL0     C27438   7.146   9.637   7.754  0.5071 -0.8185  0.2042
  924MOL0     C27439   7.090   9.542   7.709  0.5229  0.1311 -0.5080
  924MOL0     C27440   7.634  10.118   8.202 -0.8274  0.5353  0.2296
  924MOL0     C27441   7.727  10.193   8.277 -0.6590 -0.4118  0.4805
  924MOL0     C27442   7.687  10.337   8.317  0.4584  0.0674  0.0103
  924MOL0     H27443   8.094  10.474   8.288  0.6147 -0.1622 -2.0807
  924MOL0     H27444   8.284  10.600   8.300  1.2449 -1.2034 -0.6209
  924MOL0     H27445   8.649  10.419   8.095  0.8082 -0.6080 -0.0650
  924MOL0     H27446   8.697  10.401   8.261  0.4895 -0.0265  0.7522
  924MOL0     H27447   8.708  10.652   8.104 -0.6521  0.9970  0.5938
  924MOL0     H27448   8.770  10.640   8.276  1.2760 -0.8652  1.0663
  924MOL0     H27449   8.919  10.469   8.219  2.5192  1.9130 -0.3888
  924MOL0     H27450   8.867  10.455   8.049 -1.7771 -0.1626  0.7705
  924MOL0     H27451   9.012  10.618   7.974 -1.7325  0.1702 -0.7161
  924MOL0     H27452   8.931  10.729   8.069  0.1647 -0.3977 -0.8529
  924MOL0     H27453   9.195  10.592   8.119  1.0139  0.5575 -0.0711
  924MOL0     H27454   9.095  10.578   8.265 -2.1633 -0.7167 -1.4823
  924MOL0     H27455   9.131  10.853   8.149 -0.1608 -0.1269 -1.4673
  924MOL0     H27456   9.062  10.783   8.297  1.2513  1.1720  0.2673
  924MOL0     H27457   9.272  10.765   8.399  2.4391 -0.4718 -0.0272
  924MOL0     H27458   9.291  10.903   8.300 -0.8925 -0.1743  1.2917
  924MOL0     H27459   9.409  10.627   8.216  0.8673 -0.1513 -1.9583
  924MOL0     H27460   9.392  10.770   8.113 -3.0046 -1.7096 -0.9849
  924MOL0     H27461   9.470  10.844   8.479  0.6526  0.3768  0.6421
  924MOL0     H27462   9.742  11.015   8.537 -2.2467 -0.3170 -1.6817
  924MOL0     H27463   9.873  10.926   8.470  0.7380  1.3292  0.8650
  924MOL0     H27464   9.818  10.899   8.717  0.1984 -0.0969  0.7357
  924MOL0     H27465   9.665  10.825   8.678  0.0438 -1.8137 -2.2685
  924MOL0     H27466   9.846  10.662   8.748 -3.3574  0.1075  0.0351
  924MOL0     H27467   9.768  10.623   8.605 -0.9466  0.8966 -0.1806
  924MOL0     H27468   9.996  10.595   8.545 -0.6580  1.0026 -2.7331
  924MOL0     H27469   9.972  10.739   8.467  0.2738  0.5671  0.7033
  924MOL0     H27470  10.205  10.960   8.738  0.5034  1.0011  1.1733
  924MOL0     H27471  10.502  11.091   8.625 -0.1911 -1.1753  0.2209
  924MOL0     H27472  10.509  11.037   8.798 -1.3547 -0.0990  0.9918
  924MOL0     H27473  10.373  11.113   8.740  0.4981  0.0208 -0.2923
  924MOL0     H27474  10.786  11.108   8.706  1.3075  2.2814 -1.1549
  924MOL0     H27475  11.040  11.139   8.754 -1.1940  0.8783  1.0763
  924MOL0     H27476  11.266  10.807   8.698  1.6683 -1.3569  0.8987
  924MOL0     H27477  11.351  10.891   8.560  0.7255  1.4142  1.1420
  924MOL0     H27478  11.497  10.844   8.757  0.8187  0.9541  3.7756
  924MOL0     H27479  11.501  11.009   8.707  0.6299 -0.9409 -0.6730
  924MOL0     H27480  11.331  11.067   8.886  0.7497 -0.2212  1.6183
  924MOL0     H27481  11.480  11.020   8.939  0.1990 -0.5489 -0.3406
  924MOL0     H27482  11.383  10.778   8.987  0.1059 -0.2246 -3.7441
  924MOL0     H27483  11.233  10.829   8.933  1.5926 -0.6613 -3.0855
  924MOL0     H27484  11.387  10.930   9.165 -0.7439  0.6766 -0.3811
  924MOL0     H27485  11.260  11.037   9.091 -2.1557 -0.5302  1.3325
  924MOL0     H27486  11.244  10.750   9.198 -0.6448 -0.6917 -2.0298
  924MOL0     H27487  11.100  10.851   9.155 -1.1855 -1.2644  1.0635
  924MOL0     H27488  11.111  10.860   9.385 -0.9518  0.4160 -1.6944
  924MOL0     H27489  11.192  11.012   9.336 -1.1240  0.0791  0.4096
  924MOL0     H27490  11.355  10.965   9.476  0.0344 -1.0921  1.2368
  924MOL0     H27491  11.416  10.824   9.393 -0.8151 -1.0959  0.6043
  924MOL0     H27492  11.117  10.797   8.499 -1.2529 -0.8478 -0.9178
  924MOL0     H27493  10.880  10.763   8.476 -2.4735  1.3698 -0.2689
  924MOL0     H27494  10.448  10.649   8.443  1.6762  0.4882 -0.0837
  924MOL0     H27495  10.220  10.602   8.494 -0.0051 -1.2257  2.9321
  924MOL0     H27496   8.531  10.249   8.259  1.4358  2.5440  1.2821
  924MOL0     H27497   8.338  10.113   8.303  1.4629  1.4727  0.6513
  924MOL0     H27498   7.976   9.945   8.249  1.7032 -1.5239 -4.0638
  924MOL0     H27499   7.794   9.826   8.146 -0.1880 -0.0508 -0.8521
  924MOL0     H27500   7.644   9.799   7.980  0.4240 -1.0003 -0.5582
  924MOL0     H27501   7.531   9.722   8.092  0.5675 -0.7111 -0.4485
  924MOL0     H27502   7.477   9.877   7.832 -0.5864 -0.2933 -0.4823
  924MOL0     H27503   7.347   9.889   7.950 -0.6928 -0.6092 -1.4320
  924MOL0     H27504   7.421   9.644   7.810  0.4818  2.7675 -1.6420
  924MOL0     H27505   7.339   9.654   7.971  2.6256  0.3818  0.7903
  924MOL0     H27506   7.268   9.807   7.706 -0.5293  1.0884  0.4058
  924MOL0     H27507   7.169   9.819   7.852 -2.3879 -1.1658 -2.0253
  924MOL0     H27508   7.029   9.456   7.690 -0.1012  0.3336  0.5342
  924MOL0     H27509   7.534  10.159   8.188 -2.1682 -3.0971 -2.0994
  924MOL0     H27510   7.580  10.359   8.315  0.6995  1.3557 -2.3201
  924MOL0     H27511   7.734  10.367   8.411  3.0558 -0.0274 -1.1803
  924MOL0     H27512   7.735  10.396   8.239 -0.2853 -0.6759 -1.0388
  925MOL0     O27513   8.396   4.029   9.178 -0.6251  0.2817  0.0166
  925MOL0     C27514   8.443   4.096   9.092  0.5272  0.6487 -0.5024
  925MOL0     O27515   8.573   4.120   9.071  0.1460  0.0228 -0.0798
  925MOL0     C27516   8.676   4.061   9.133 -0.0801 -0.9153  0.1615
  925MOL0     C27517   8.677   3.934   9.177  0.7520  0.0407  0.4115
  925MOL0     C27518   8.790   3.877   9.246 -0.6892 -0.9002  1.0695
  925MOL0     C27519   8.904   3.966   9.272 -0.0288 -0.5131 -0.2376
  925MOL0     O27520   9.009   3.900   9.329  0.5249  0.0770  0.6975
  925MOL0     C27521   9.137   3.968   9.339 -0.1503 -0.0758  0.3747
  925MOL0     C27522   9.239   3.892   9.428 -0.1285 -0.0657 -0.2529
  925MOL0     C27523   9.386   3.949   9.444  0.6682 -0.0764 -0.2824
  925MOL0     C27524   9.379   4.095   9.503 -0.3511 -1.1358 -0.6108
  925MOL0     C27525   9.512   4.142   9.563 -0.4296  0.2978  0.0574
  925MOL0     C27526   9.486   4.269   9.645 -0.1150  0.1680  0.4076
  925MOL0     C27527   9.608   4.344   9.678 -0.4318  0.1488  0.4691
  925MOL0     C27528   9.726   4.270   9.736 -0.7411 -0.8194 -0.3627
  925MOL0     N27529   9.812   4.374   9.793  0.2059 -0.3547  0.2105
  925MOL0     C27530   9.856   4.391   9.926 -0.1286 -0.7244 -0.2233
  925MOL0     C27531   9.959   4.485   9.922  0.2484 -0.6317 -0.0090
  925MOL0     C27532  10.039   4.510  10.042 -0.1474 -0.2463  0.0659
  925MOL0     C27533  10.022   4.655  10.096  0.1378  0.3787 -0.7794
  925MOL0     C27534  10.076   4.660  10.240 -0.2210  0.1387 -0.0955
  925MOL0     C27535  10.096   4.800  10.293 -0.3726 -0.0262 -0.4906
  925MOL0     O27536  10.233   4.806  10.344  0.1464  0.3462 -0.5801
  925MOL0     C27537  10.275   4.910  10.433 -0.0229  0.4095  0.7555
  925MOL0     C27538  10.203   5.023  10.453 -0.5485 -0.3370  0.5679
  925MOL0     C27539  10.240   5.123  10.539 -0.2842 -1.0362 -0.0184
  925MOL0     C27540  10.147   5.245  10.567 -0.3487 -0.8009  0.1792
  925MOL0     C27541  10.371   5.118  10.594 -0.3385  0.7810 -0.0950
  925MOL0     C27542  10.420   5.212  10.695  0.8252 -0.5650  0.2016
  925MOL0     O27543  10.487   5.163  10.807  0.3814 -0.2281  0.3274
  925MOL0     C27544  10.503   5.230  10.920 -0.1545 -0.1096 -0.7692
  925MOL0     C27545  10.571   5.161  11.019  0.3919 -0.5849 -0.4642
  925MOL0     C27546  10.581   5.214  11.150  0.3490  0.1265 -0.3543
  925MOL0     C27547  10.544   5.347  11.178  0.0161 -0.5080 -0.3834
  925MOL0     O27548  10.564   5.405  11.296 -0.0812 -0.0306 -0.9099
  925MOL0     C27549  10.703   5.392  11.340  0.0067  0.1518  0.1118
  925MOL0     C27550  10.750   5.522  11.387  0.4129  0.0107 -0.1762
  925MOL0     C27551  10.701   5.559  11.527 -0.1940  0.4675  0.9881
  925MOL0     C27552  10.798   5.515  11.631 -0.0336  0.6814 -0.7945
  925MOL0     C27553  10.758   5.594  11.766  0.1721 -0.1719  0.2489
  925MOL0     C27554  10.828   5.535  11.894  0.2294 -1.1744  0.6165
  925MOL0     C27555  10.984   5.549  11.885 -0.2792  0.7992  0.5296
  925MOL0     C27556  11.043   5.509  12.017 -0.9285  0.2855 -0.4826
  925MOL0    Cl27557  11.042   5.333  12.046 -0.1312 -0.2845  0.0509
  925MOL0     C27558  10.497   5.427  11.071  0.8755  1.0515 -0.0881
  925MOL0     C27559  10.459   5.363  10.946  0.3169 -0.1660 -0.2924
  925MOL0     O27560  10.400   5.326  10.662 -0.5802 -0.4084  0.8447
  925MOL0     C27561  10.454   5.009  10.565 -0.0383 -0.0658 -0.6575
  925MOL0     C27562  10.404   4.911  10.485  0.1395  0.5029 -0.3588
  925MOL0     N27563   9.972   4.523   9.787  0.5185  0.6649  0.7096
  925MOL0     N27564   9.895   4.452   9.711 -0.0427  1.1718 -0.2153
  925MOL0     C27565   8.892   4.103   9.234 -0.2524  0.0748 -0.7546
  925MOL0     C27566   8.782   4.142   9.170  0.2409 -0.0687 -0.2144
  925MOL0     C27567   8.351   4.171   8.995  0.0951  0.6509 -0.3919
  925MOL0     C27568   8.408   4.281   8.914 -0.0507 -0.1113 -0.3009
  925MOL0     C27569   8.323   4.351   8.829  0.7203  0.7410  0.1150
  925MOL0     C27570   8.178   4.330   8.820 -0.6622 -0.0933 -0.4595
  925MOL0     O27571   8.112   4.427   8.748 -0.1890  0.3503 -0.7189
  925MOL0     C27572   7.968   4.436   8.749  0.2055  0.7154 -0.2978
  925MOL0     C27573   7.922   4.512   8.872  0.1704  0.2989 -0.4703
  925MOL0     C27574   7.984   4.655   8.871 -0.5601  1.1451  0.5732
  925MOL0     C27575   7.917   4.752   8.958 -0.3276  0.2442  0.5616
  925MOL0     C27576   7.786   4.777   8.906  0.0578  0.1144  0.2957
  925MOL0     C27577   7.681   4.776   8.855  0.3917 -0.9685 -0.8347
  925MOL0     C27578   8.130   4.222   8.891 -0.2896  0.1203 -0.1898
  925MOL0     C27579   8.210   4.147   8.981 -0.6444 -0.2791  0.1898
  925MOL0     C27580   8.141   4.042   9.062 -0.3492 -0.0843 -0.3379
  925MOL0     H27581   8.594   3.867   9.157  1.8316 -1.1296 -0.3000
  925MOL0     H27582   8.787   3.774   9.283 -0.3176 -0.0173  3.8226
  925MOL0     H27583   9.124   4.070   9.376  1.0445  0.4683 -0.6261
  925MOL0     H27584   9.173   3.988   9.237 -3.6273  0.3199 -0.9247
  925MOL0     H27585   9.198   3.880   9.529  1.2795  1.1492  0.4943
  925MOL0     H27586   9.254   3.789   9.393  1.8144  0.2927 -0.5681
  925MOL0     H27587   9.449   3.898   9.518  0.4643 -1.1895 -0.8571
  925MOL0     H27588   9.436   3.955   9.347  0.0471 -0.2435 -0.6197
  925MOL0     H27589   9.348   4.168   9.427  1.7843  0.5254  0.0209
  925MOL0     H27590   9.309   4.107   9.586 -0.9269 -2.0335 -0.9445
  925MOL0     H27591   9.583   4.171   9.484 -0.1782 -2.8069 -1.0057
  925MOL0     H27592   9.560   4.067   9.626  0.5777 -2.2557 -3.4251
  925MOL0     H27593   9.415   4.333   9.592 -0.3766 -1.2539 -1.0279
  925MOL0     H27594   9.431   4.246   9.736 -1.1138  3.2155  0.7000
  925MOL0     H27595   9.584   4.431   9.741  0.6170  1.3654 -0.7495
  925MOL0     H27596   9.636   4.386   9.581  1.5565 -0.5375  0.6952
  925MOL0     H27597   9.702   4.202   9.817  2.9749 -3.4069 -1.1497
  925MOL0     H27598   9.787   4.218   9.661  0.9861  2.6590 -1.6450
  925MOL0     H27599   9.817   4.342  10.015 -1.4471 -0.0368 -0.3904
  925MOL0     H27600  10.145   4.495  10.016 -0.6581  0.6319 -2.9525
  925MOL0     H27601  10.025   4.440  10.124  1.4799  0.9226  1.4249
  925MOL0     H27602  10.073   4.728  10.032  2.4365  0.0428  0.5424
  925MOL0     H27603   9.915   4.675  10.097 -0.5004 -2.5662  0.3907
  925MOL0     H27604   9.996   4.611  10.295 -1.5635  2.7481  0.4381
  925MOL0     H27605  10.173   4.611  10.251 -0.2656 -0.0576 -0.5384
  925MOL0     H27606  10.087   4.866  10.207 -4.8610  0.7299  0.3441
  925MOL0     H27607  10.015   4.817  10.365 -0.8910  1.8849 -1.4720
  925MOL0     H27608  10.109   5.042  10.403  0.2204  2.1034 -0.1001
  925MOL0     H27609  10.042   5.215  10.559 -0.1862 -1.5493  0.7675
  925MOL0     H27610  10.165   5.333  10.504  0.1350 -1.0171  0.0163
  925MOL0     H27611  10.170   5.279  10.668  2.4680  1.4354 -1.0796
  925MOL0     H27612  10.601   5.061  10.991  1.6752  0.2764 -2.4301
  925MOL0     H27613  10.636   5.148  11.217 -0.6376 -0.3802 -0.0228
  925MOL0     H27614  10.717   5.318  11.419  1.9933 -0.0792 -0.4100
  925MOL0     H27615  10.764   5.352  11.259  1.9431 -3.6396  3.1138
  925MOL0     H27616  10.859   5.517  11.387  0.3730 -1.6179  0.5828
  925MOL0     H27617  10.724   5.605  11.321 -0.8486  0.5646  0.9975
  925MOL0     H27618  10.601   5.522  11.549  0.2489 -1.4627 -0.0616
  925MOL0     H27619  10.693   5.668  11.523 -0.8788  0.4021  0.3777
  925MOL0     H27620  10.904   5.533  11.614  0.1945 -0.7757 -1.0300
  925MOL0     H27621  10.782   5.407  11.642  1.4737  0.5549  0.5633
  925MOL0     H27622  10.787   5.699  11.761  0.0423 -0.1567 -0.1888
  925MOL0     H27623  10.651   5.593  11.788  0.3616  0.2785  1.2723
  925MOL0     H27624  10.805   5.434  11.927  0.6493 -1.0685  1.2549
  925MOL0     H27625  10.781   5.598  11.969 -1.9075 -3.3450  1.2029
  925MOL0     H27626  11.007   5.652  11.858 -3.3651  0.5597 -4.2481
  925MOL0     H27627  11.023   5.484  11.806 -1.9539  1.5867 -1.0239
  925MOL0     H27628  11.006   5.564  12.104 -1.6821 -2.2065  0.8980
  925MOL0     H27629  11.145   5.546  12.013 -1.2485  1.6345  1.9354
  925MOL0     H27630  10.474   5.532  11.085 -0.6412  0.9263 -1.3167
  925MOL0     H27631  10.415   5.426  10.869  0.5251 -0.2608 -0.4926
  925MOL0     H27632  10.548   4.987  10.614 -0.2157  2.0354  0.7676
  925MOL0     H27633  10.460   4.820  10.468 -2.3530 -0.9701 -1.4115
  925MOL0     H27634   8.971   4.170   9.267 -0.7125  0.3905 -0.2731
  925MOL0     H27635   8.783   4.245   9.137  1.6278  0.4185  1.2095
  925MOL0     H27636   8.514   4.302   8.919 -0.4341  1.8470  0.8516
  925MOL0     H27637   8.362   4.446   8.794 -3.3198  3.1353  1.4745
  925MOL0     H27638   7.929   4.491   8.663 -0.7834  1.1272  0.3952
  925MOL0     H27639   7.927   4.335   8.745 -1.4992  1.1412  3.1132
  925MOL0     H27640   7.963   4.459   8.958  0.2047  0.3937 -0.4289
  925MOL0     H27641   7.815   4.512   8.896 -0.0376  2.8140 -1.1480
  925MOL0     H27642   8.090   4.643   8.898 -1.1203 -1.4894  1.9048
  925MOL0     H27643   7.999   4.696   8.770 -0.4134 -0.7777 -0.2401
  925MOL0     H27644   7.972   4.847   8.963  1.0850 -0.2984 -2.4649
  925MOL0     H27645   7.908   4.715   9.061 -0.9174 -1.5231 -0.0912
  925MOL0     H27646   7.586   4.761   8.808 -0.9826 -1.6616  1.9450
  925MOL0     H27647   8.024   4.196   8.889 -0.6067  1.3316  0.3060
  925MOL0     H27648   8.191   3.947   9.041  1.1888  0.4812  0.5847
  925MOL0     H27649   8.148   4.065   9.169 -0.1701 -0.5868 -0.2372
  925MOL0     H27650   8.038   4.030   9.029 -0.5574 -2.5949  0.9755
  926MOL0     O27651   0.925   6.204   9.862  0.3424  0.5139 -0.1597
  926MOL0     C27652   0.854   6.181   9.765  1.3003 -0.3481  0.6508
  926MOL0     O27653   0.892   6.137   9.645  0.1592 -0.2599  0.2715
  926MOL0     C27654   1.021   6.109   9.606 -1.3680  0.0958 -0.0894
  926MOL0     C27655   1.106   6.031   9.683 -0.1436  0.7613 -0.1522
  926MOL0     C27656   1.235   5.984   9.633 -0.2744 -0.1253 -0.0121
  926MOL0     C27657   1.286   6.042   9.517  0.1980 -0.2841 -0.1852
  926MOL0     O27658   1.412   6.025   9.471 -0.4287  0.1053  0.4565
  926MOL0     C27659   1.514   6.025   9.568 -0.1332  0.2728 -0.9214
  926MOL0     C27660   1.652   6.043   9.496 -0.3293 -0.1870 -0.4093
  926MOL0     C27661   1.767   6.020   9.592  0.0681  0.0373  1.0898
  926MOL0     C27662   1.897   6.021   9.513  0.0948  0.3896 -0.4166
  926MOL0     C27663   2.016   6.010   9.602 -0.5764  0.5943  0.0505
  926MOL0     C27664   2.029   5.909   9.714  0.4887 -0.6373 -0.2468
  926MOL0     C27665   2.177   5.915   9.762  0.2702 -0.0205  0.4705
  926MOL0     C27666   2.189   5.835   9.889 -0.6252  0.0363  0.1871
  926MOL0     N27667   2.324   5.840   9.952  0.0053  0.4368 -0.5438
  926MOL0     C27668   2.368   5.760  10.064  0.8949 -0.5196 -0.1652
  926MOL0     C27669   2.504   5.768  10.052  0.6692 -0.6402  0.4561
  926MOL0     C27670   2.605   5.730  10.160  0.0420 -0.6558  0.3534
  926MOL0     C27671   2.613   5.853  10.252  0.3181  0.4513  0.3016
  926MOL0     C27672   2.645   5.828  10.398  0.1629 -0.3599 -0.4532
  926MOL0     C27673   2.801   5.796  10.410 -0.1448 -0.6105  0.2667
  926MOL0     O27674   2.827   5.720  10.528  0.1912 -0.2101 -0.3063
  926MOL0     C27675   2.950   5.739  10.589 -0.1430 -0.6002 -0.3917
  926MOL0     C27676   2.980   5.697  10.720  0.1088 -0.1749 -0.2224
  926MOL0     C27677   3.103   5.712  10.788  0.0509  0.5044 -0.4156
  926MOL0     C27678   3.116   5.657  10.934  0.3683 -0.9417 -0.7001
  926MOL0     C27679   3.210   5.772  10.721 -0.7295  0.1437 -0.0386
  926MOL0     C27680   3.349   5.787  10.779 -0.1523  0.6069  0.2356
  926MOL0     O27681   3.433   5.846  10.698 -0.0134  0.0448  0.9186
  926MOL0     C27682   3.565   5.845  10.737 -0.4904 -0.4051 -1.2884
  926MOL0     C27683   3.608   5.964  10.776  0.3755  0.3557 -0.8627
  926MOL0     C27684   3.746   5.986  10.812  0.3824  0.4048  0.5484
  926MOL0     C27685   3.836   5.879  10.800  1.2005 -0.3583  1.3250
  926MOL0     O27686   3.970   5.902  10.823  0.7162 -0.0395  0.1179
  926MOL0     C27687   4.065   5.822  10.752 -1.3034 -0.8322  0.0359
  926MOL0     C27688   4.214   5.854  10.800  0.6520 -0.3993  0.5494
  926MOL0     C27689   4.322   5.775  10.724  1.5390 -0.1060 -0.8078
  926MOL0     C27690   4.463   5.826  10.774  0.8034  0.8222 -0.0132
  926MOL0     C27691   4.566   5.770  10.677 -0.1668  0.1760  0.4170
  926MOL0     C27692   4.713   5.770  10.718 -1.2973 -0.0981 -0.3369
  926MOL0     C27693   4.795   5.904  10.723  0.6622  0.9055 -0.0239
  926MOL0     C27694   4.897   5.901  10.613  0.4286  0.6709 -0.0419
  926MOL0    Cl27695   5.041   5.807  10.667 -0.6629  0.2490  0.3869
  926MOL0     C27696   3.783   5.753  10.767 -0.1840 -0.4210 -0.1533
  926MOL0     C27697   3.649   5.732  10.739  0.2133 -1.5271  0.1171
  926MOL0     O27698   3.384   5.726  10.882  0.5044  0.5336 -0.6270
  926MOL0     C27699   3.182   5.821  10.590  0.1727  0.0807  0.4727
  926MOL0     C27700   3.060   5.799  10.531 -0.1023  0.4285  1.7197
  926MOL0     N27701   2.538   5.852   9.947  0.6968  0.4505  0.4858
  926MOL0     N27702   2.431   5.896   9.894 -0.5734  0.4471  1.0888
  926MOL0     C27703   1.204   6.136   9.444 -0.0196  0.3604 -0.9401
  926MOL0     C27704   1.074   6.156   9.483 -0.2846 -0.0872  0.2845
  926MOL0     C27705   0.706   6.222   9.775  0.2022 -0.9410 -0.5379
  926MOL0     C27706   0.632   6.229   9.653  0.2039 -1.1402 -0.2712
  926MOL0     C27707   0.496   6.241   9.651 -0.2897  0.2339  0.5949
  926MOL0     C27708   0.423   6.264   9.771  0.3649 -0.4697 -0.5955
  926MOL0     O27709   0.282   6.280   9.781 -0.6337 -0.0146  0.1582
  926MOL0     C27710   0.203   6.217   9.678  0.0731  0.8764  0.2553
  926MOL0     C27711   0.045   6.232   9.703 -0.2934 -0.1908  0.1745
  926MOL0     C27712   0.009   6.210   9.851 -0.1817 -0.3208 -0.4871
  926MOL0     C27713  -0.140   6.192   9.866 -0.0160 -0.3648  0.4534
  926MOL0     C27714  -0.225   6.290   9.786  0.1621 -1.0925  0.1758
  926MOL0     C27715  -0.298   6.367   9.724 -0.5591  0.0544 -0.0431
  926MOL0     C27716   0.497   6.273   9.898  0.0873 -0.2025  0.2043
  926MOL0     C27717   0.637   6.252   9.899 -0.5393  0.0572 -0.1061
  926MOL0     C27718   0.707   6.262  10.028 -0.2169 -0.0905 -0.4752
  926MOL0     H27719   1.062   6.001   9.778 -1.9530  4.2375  0.2672
  926MOL0     H27720   1.301   5.916   9.687  0.3864  1.1946  0.8897
  926MOL0     H27721   1.512   5.931   9.623 -0.0598  0.9528  0.2856
  926MOL0     H27722   1.501   6.107   9.640 -0.0658 -0.0874 -0.4927
  926MOL0     H27723   1.660   5.970   9.414 -0.4449 -3.0185  1.9219
  926MOL0     H27724   1.655   6.148   9.466  0.4134  0.1719  0.8731
  926MOL0     H27725   1.783   6.110   9.651  0.8070 -0.1991  1.2638
  926MOL0     H27726   1.748   5.925   9.644  0.8811 -0.7036  0.0830
  926MOL0     H27727   1.898   5.945   9.435  1.7126  0.8664 -0.9028
  926MOL0     H27728   1.911   6.113   9.456  2.0404  0.1650 -0.3881
  926MOL0     H27729   2.020   6.105   9.655 -0.5690  0.7978 -0.3127
  926MOL0     H27730   2.110   6.009   9.545 -2.3766 -1.4971 -3.1692
  926MOL0     H27731   1.963   5.939   9.797 -3.1680  0.0927 -3.1350
  926MOL0     H27732   2.003   5.810   9.676  2.6102 -0.1969 -3.1280
  926MOL0     H27733   2.211   6.016   9.789 -1.6061  0.7069  0.2632
  926MOL0     H27734   2.245   5.872   9.688 -0.2123 -0.9735  0.5679
  926MOL0     H27735   2.105   5.861   9.954 -1.3941  1.9984 -1.4886
  926MOL0     H27736   2.167   5.731   9.865 -1.9103 -0.1633  2.0658
  926MOL0     H27737   2.318   5.720  10.151  2.2202  2.6109  2.2188
  926MOL0     H27738   2.701   5.716  10.109 -0.9705  1.3556 -2.3159
  926MOL0     H27739   2.572   5.639  10.211  2.7317 -0.9076  1.8011
  926MOL0     H27740   2.690   5.922  10.215 -0.1948  0.9055  0.0718
  926MOL0     H27741   2.519   5.908  10.255 -1.8366 -2.9783  1.6210
  926MOL0     H27742   2.630   5.921  10.454  4.9912  0.5291 -0.2142
  926MOL0     H27743   2.592   5.738  10.432 -1.7785 -0.8178 -4.2110
  926MOL0     H27744   2.828   5.736  10.322 -1.1707  2.2712 -2.1730
  926MOL0     H27745   2.853   5.891  10.420 -1.2472  0.3161 -2.0552
  926MOL0     H27746   2.893   5.650  10.765  0.7195 -0.7505  0.3824
  926MOL0     H27747   3.199   5.587  10.947  1.4656  0.7038  1.9216
  926MOL0     H27748   3.027   5.605  10.972 -0.1915  0.0112 -0.6828
  926MOL0     H27749   3.124   5.750  10.991 -1.7335 -0.6755 -0.7351
  926MOL0     H27750   3.540   6.049  10.777  1.3335  1.1542  0.7976
  926MOL0     H27751   3.776   6.082  10.853  1.2280  0.3851  0.0005
  926MOL0     H27752   4.043   5.716  10.769 -3.5103 -0.5116 -0.5378
  926MOL0     H27753   4.056   5.854  10.648 -0.7763 -0.7779  0.0032
  926MOL0     H27754   4.237   5.960  10.787 -1.1359  0.0274  0.6447
  926MOL0     H27755   4.226   5.830  10.906  0.4980 -0.6963  0.4991
  926MOL0     H27756   4.297   5.784  10.618  1.1864 -3.5392 -1.1495
  926MOL0     H27757   4.311   5.671  10.757 -0.5993  1.0492  2.6608
  926MOL0     H27758   4.479   5.783  10.874  1.0939  2.7888  0.8338
  926MOL0     H27759   4.459   5.935  10.786 -0.6396  0.7650  0.1208
  926MOL0     H27760   4.536   5.670  10.645 -0.0991  1.0173 -2.5722
  926MOL0     H27761   4.554   5.817  10.579 -1.2874  0.0360  0.4639
  926MOL0     H27762   4.766   5.696  10.657  0.3400 -0.1665  1.1006
  926MOL0     H27763   4.709   5.728  10.819  2.4046  0.8369  0.3629
  926MOL0     H27764   4.844   5.915  10.820 -2.5839  3.9316  1.5010
  926MOL0     H27765   4.726   5.989  10.717 -1.4749 -0.5501  1.7614
  926MOL0     H27766   4.935   6.001  10.591  1.7807 -0.1974 -1.9243
  926MOL0     H27767   4.866   5.854  10.519  2.6566 -3.0215  0.8700
  926MOL0     H27768   3.854   5.671  10.770  0.3809  0.0982  1.3261
  926MOL0     H27769   3.609   5.636  10.710 -3.1254  0.5898 -3.2459
  926MOL0     H27770   3.259   5.869  10.529  0.2614 -1.2298 -0.5064
  926MOL0     H27771   3.050   5.840  10.431 -3.1909 -0.1746  1.6819
  926MOL0     H27772   1.247   6.176   9.353  0.3676  0.6204 -0.6482
  926MOL0     H27773   1.017   6.223   9.420  1.1727  0.9940  0.0519
  926MOL0     H27774   0.687   6.209   9.562  2.9190 -0.7475  1.2008
  926MOL0     H27775   0.435   6.240   9.561  0.0400 -0.4837  0.3681
  926MOL0     H27776   0.234   6.264   9.584  2.4261  2.8335  1.8843
  926MOL0     H27777   0.222   6.110   9.672  0.2243  0.6547  3.1223
  926MOL0     H27778  -0.012   6.161   9.642 -1.3724  0.1988  0.7068
  926MOL0     H27779   0.020   6.330   9.662 -0.2093 -0.3356 -0.2367
  926MOL0     H27780   0.051   6.123   9.902 -1.0158 -0.2375  0.3427
  926MOL0     H27781   0.046   6.296   9.908 -0.8321 -1.1311  1.2071
  926MOL0     H27782  -0.193   6.194   9.962 -4.0688 -3.4414 -1.3738
  926MOL0     H27783  -0.169   6.099   9.816  1.8841 -0.6455 -0.1820
  926MOL0     H27784  -0.368   6.432   9.675 -1.7201  0.2980  1.8070
  926MOL0     H27785   0.448   6.297   9.992  1.1907  3.2628  0.0292
  926MOL0     H27786   0.640   6.263  10.114  1.0595 -2.1000  0.6151
  926MOL0     H27787   0.775   6.180  10.053  1.3807  1.2137 -0.2883
  926MOL0     H27788   0.765   6.356  10.033 -1.2220  0.4850  1.2746
  927MOL0     O27789   3.651  11.018   2.526  0.1518  0.1746  0.5113
  927MOL0     C27790   3.588  11.075   2.613 -0.2232  0.2051  0.4722
  927MOL0     O27791   3.643  11.106   2.730  0.0197 -0.2259 -0.6626
  927MOL0     C27792   3.771  11.066   2.756 -0.3913  0.7420  0.4205
  927MOL0     C27793   3.877  11.126   2.685 -0.4518 -0.5044  0.4449
  927MOL0     C27794   4.003  11.097   2.726 -0.8940 -0.2465 -0.3251
  927MOL0     C27795   4.041  10.998   2.815  0.6231  0.2467  0.1711
  927MOL0     O27796   4.171  10.963   2.832  0.0830  0.0911  0.2569
  927MOL0     C27797   4.284  11.005   2.748  0.6144  0.8161 -0.5290
  927MOL0     C27798   4.341  11.144   2.785  0.4444 -0.0371  1.2754
  927MOL0     C27799   4.451  11.188   2.686 -0.5556 -0.1082  1.0417
  927MOL0     C27800   4.579  11.099   2.680  0.3367 -0.0098 -0.2072
  927MOL0     C27801   4.692  11.157   2.593  0.1612 -0.1726  0.4149
  927MOL0     C27802   4.659  11.142   2.439 -0.1658 -0.3806 -0.5277
  927MOL0     C27803   4.788  11.180   2.371  0.2149 -0.0606 -0.1045
  927MOL0     C27804   4.783  11.138   2.226 -0.0389 -0.1552  0.0709
  927MOL0     N27805   4.674  11.205   2.151 -0.6579 -0.0042  0.0786
  927MOL0     C27806   4.546  11.164   2.149 -0.1437 -0.0771 -0.2257
  927MOL0     C27807   4.479  11.245   2.071 -0.6760  0.4863  0.3207
  927MOL0     C27808   4.338  11.244   2.040  0.2062 -0.3574 -0.5014
  927MOL0     C27809   4.254  11.302   2.151 -0.3522  0.5866 -0.0321
  927MOL0     C27810   4.226  11.454   2.149 -0.0791 -0.1006 -0.6368
  927MOL0     C27811   4.357  11.535   2.157 -0.1378 -0.1622  0.8414
  927MOL0     O27812   4.307  11.673   2.164 -0.1670  0.3924 -0.0984
  927MOL0     C27813   4.408  11.765   2.173  0.7365 -1.0981  0.3506
  927MOL0     C27814   4.363  11.895   2.139  0.5017 -0.1543 -0.1930
  927MOL0     C27815   4.452  12.003   2.132 -0.1840  0.0535 -0.1749
  927MOL0     C27816   4.390  12.131   2.103 -0.0807 -0.1872  0.5250
  927MOL0     C27817   4.589  11.991   2.165 -0.4550 -0.5727 -0.2936
  927MOL0     C27818   4.686  12.106   2.159 -1.0733  0.0955 -0.3150
  927MOL0     O27819   4.810  12.057   2.148  0.0354 -0.3925 -0.1973
  927MOL0     C27820   4.907  12.143   2.147 -0.1124 -0.2659 -0.0497
  927MOL0     C27821   4.942  12.215   2.264  0.2482  0.6241  0.2312
  927MOL0     C27822   5.038  12.319   2.257 -0.1085 -0.0502 -0.6967
  927MOL0     C27823   5.117  12.340   2.143 -1.0379  0.4221 -0.8022
  927MOL0     O27824   5.213  12.431   2.151 -0.1264  0.3462  0.1372
  927MOL0     C27825   5.285  12.475   2.038  0.1336  0.7811  0.1288
  927MOL0     C27826   5.406  12.556   2.083 -0.0116  1.2931  0.6120
  927MOL0     C27827   5.436  12.667   1.986  0.2483  0.3868 -0.2322
  927MOL0     C27828   5.467  12.626   1.844  0.6817  0.2351 -0.2995
  927MOL0     C27829   5.502  12.757   1.766  1.3767 -0.3992 -0.3784
  927MOL0     C27830   5.582  12.725   1.636  0.2536 -0.1753  0.9950
  927MOL0     C27831   5.654  12.841   1.569 -0.4486 -0.0236  0.0518
  927MOL0     C27832   5.557  12.946   1.520  0.0160  0.5382 -0.2401
  927MOL0    Cl27833   5.627  13.050   1.394  0.1756  0.3206 -0.3342
  927MOL0     C27834   5.089  12.260   2.034  0.1578  0.5705 -0.3319
  927MOL0     C27835   4.981  12.171   2.031 -0.1391 -1.4100  1.1639
  927MOL0     O27836   4.656  12.227   2.163 -0.2776 -0.4398 -0.0673
  927MOL0     C27837   4.636  11.866   2.203 -0.1178  0.5000  0.1742
  927MOL0     C27838   4.551  11.754   2.193  0.0168 -0.2760 -0.3661
  927MOL0     N27839   4.571  11.337   2.021  0.2007 -0.3146  1.0707
  927MOL0     N27840   4.685  11.302   2.058 -0.2382 -0.8539  0.6203
  927MOL0     C27841   3.932  10.924   2.874  0.5444 -0.0577  0.1389
  927MOL0     C27842   3.801  10.964   2.845  0.0974  0.4766  0.5187
  927MOL0     C27843   3.449  11.118   2.581  0.4880  0.8887  0.6947
  927MOL0     C27844   3.371  11.168   2.686 -0.8727 -0.2096  0.2730
  927MOL0     C27845   3.247  11.226   2.676 -0.2306  0.4207  0.7142
  927MOL0     C27846   3.186  11.232   2.551  0.3856 -0.5035  0.0664
  927MOL0     O27847   3.056  11.277   2.534  0.0851  0.2046  0.2729
  927MOL0     C27848   2.980  11.260   2.410 -0.5058  1.0485  1.1573
  927MOL0     C27849   2.845  11.324   2.439 -0.6853  0.2281 -0.0000
  927MOL0     C27850   2.851  11.476   2.419 -0.6200 -0.2985 -0.2636
  927MOL0     C27851   2.887  11.554   2.544 -0.1265 -1.0808 -0.5991
  927MOL0     C27852   2.888  11.699   2.502  0.7510  0.0665  0.0139
  927MOL0     C27853   2.879  11.813   2.465  0.2791  0.1517  0.4983
  927MOL0     C27854   3.258  11.183   2.437  0.1355 -0.1346  0.4319
  927MOL0     C27855   3.392  11.123   2.447  0.5736  0.0790  0.2866
  927MOL0     C27856   3.457  11.083   2.321  0.2571  0.6535 -0.1215
  927MOL0     H27857   3.872  11.208   2.614 -0.6862  0.9382  2.0759
  927MOL0     H27858   4.084  11.149   2.675 -0.9292 -1.0129 -1.1981
  927MOL0     H27859   4.263  10.993   2.642 -0.8195 -1.0461 -0.0918
  927MOL0     H27860   4.359  10.929   2.769  1.7543  1.7672 -1.0401
  927MOL0     H27861   4.258  11.216   2.783 -0.3312 -0.8897 -1.1306
  927MOL0     H27862   4.393  11.145   2.881  0.3673  2.9889  1.4007
  927MOL0     H27863   4.400  11.184   2.589  0.3647  2.5567  0.3649
  927MOL0     H27864   4.475  11.291   2.711 -2.7946 -0.0620  3.2683
  927MOL0     H27865   4.609  11.093   2.785 -3.0820 -0.8111  0.8440
  927MOL0     H27866   4.550  11.002   2.640 -0.0502  0.2792 -0.6440
  927MOL0     H27867   4.787  11.105   2.609  2.2110  2.8404 -1.1873
  927MOL0     H27868   4.715  11.259   2.624  0.5239 -0.6664  1.8787
  927MOL0     H27869   4.634  11.038   2.417  0.5421 -0.4715 -0.9221
  927MOL0     H27870   4.578  11.210   2.412  0.1104  0.9724  1.7320
  927MOL0     H27871   4.874  11.130   2.417  0.7154 -1.3447 -2.3232
  927MOL0     H27872   4.798  11.288   2.383 -1.2471  0.1087 -0.2539
  927MOL0     H27873   4.877  11.167   2.178  0.6367  1.1532  2.0279
  927MOL0     H27874   4.775  11.030   2.212 -1.3175  0.1035 -1.5475
  927MOL0     H27875   4.509  11.083   2.212 -3.2673 -0.1467 -1.9297
  927MOL0     H27876   4.311  11.141   2.017 -2.0971 -0.0598  0.5881
  927MOL0     H27877   4.327  11.298   1.945 -0.9593  0.5292  0.1143
  927MOL0     H27878   4.158  11.250   2.149 -0.7358  1.2171 -3.7655
  927MOL0     H27879   4.296  11.277   2.249 -1.0905  2.2578  0.7451
  927MOL0     H27880   4.159  11.484   2.068 -0.2074  2.0563  0.2209
  927MOL0     H27881   4.162  11.473   2.235  0.2469 -3.1037  0.4037
  927MOL0     H27882   4.422  11.510   2.242  1.4264 -0.1772 -0.3165
  927MOL0     H27883   4.407  11.517   2.062 -0.6460 -0.4716  0.6270
  927MOL0     H27884   4.259  11.902   2.107  1.3820 -0.6609 -3.5274
  927MOL0     H27885   4.294  12.128   2.051 -0.7127  0.0095  1.6375
  927MOL0     H27886   4.457  12.190   2.041  0.6408  0.9692  2.3358
  927MOL0     H27887   4.378  12.185   2.198  1.9265 -3.1567  2.6416
  927MOL0     H27888   4.898  12.188   2.359  3.2844  1.4129  2.0265
  927MOL0     H27889   5.063  12.385   2.339  0.5064 -1.3432  0.2003
  927MOL0     H27890   5.326  12.389   1.984  0.9007  0.8927  0.5197
  927MOL0     H27891   5.213  12.534   1.981 -0.7626  0.1258  0.5461
  927MOL0     H27892   5.376  12.594   2.182 -2.6395  0.7193  0.1045
  927MOL0     H27893   5.497  12.496   2.094 -0.5595 -1.0120 -4.7512
  927MOL0     H27894   5.520  12.720   2.032 -0.7891  2.2261 -0.3603
  927MOL0     H27895   5.351  12.735   1.978  0.5130  0.5415 -2.5358
  927MOL0     H27896   5.380  12.584   1.794  0.3707 -2.4129  2.2351
  927MOL0     H27897   5.555  12.561   1.853  0.1819 -0.1959  2.3405
  927MOL0     H27898   5.404  12.799   1.741  0.9712 -1.1650 -0.1092
  927MOL0     H27899   5.563  12.828   1.822 -0.1767  0.5964  0.1117
  927MOL0     H27900   5.500  12.697   1.569  0.4739  0.2290  0.5473
  927MOL0     H27901   5.655  12.646   1.653  2.8731  2.0950  0.9478
  927MOL0     H27902   5.719  12.802   1.491 -0.4250 -1.7821  0.9020
  927MOL0     H27903   5.730  12.891   1.630  0.7485 -0.1598 -1.2921
  927MOL0     H27904   5.530  12.990   1.616 -0.8312 -3.3891  1.5133
  927MOL0     H27905   5.467  12.896   1.484 -0.0869  0.3678  0.2465
  927MOL0     H27906   5.150  12.270   1.945  1.6801  1.5254  0.7639
  927MOL0     H27907   4.954  12.119   1.939  1.1580  1.9197 -1.3082
  927MOL0     H27908   4.739  11.842   2.227 -0.4499  0.0540  1.2323
  927MOL0     H27909   4.599  11.659   2.213  0.8628  0.4508  1.3347
  927MOL0     H27910   3.938  10.845   2.947  1.1582 -0.1306  0.0185
  927MOL0     H27911   3.727  10.905   2.900  1.2129 -0.2896  1.2297
  927MOL0     H27912   3.400  11.160   2.790 -1.8660  2.4122  0.8479
  927MOL0     H27913   3.198  11.251   2.769  1.5690 -2.5193  2.6532
  927MOL0     H27914   3.027  11.320   2.333  1.0176  2.6744  3.2368
  927MOL0     H27915   2.971  11.154   2.381 -0.0047  1.6736 -1.5376
  927MOL0     H27916   2.817  11.309   2.544 -1.4332  1.0155 -0.0657
  927MOL0     H27917   2.772  11.285   2.367  1.7093 -0.7777 -1.9973
  927MOL0     H27918   2.928  11.500   2.344 -1.4538  0.0126 -1.0450
  927MOL0     H27919   2.758  11.519   2.380  0.1418  1.1480 -0.5641
  927MOL0     H27920   2.979  11.522   2.594 -0.4745  0.3466  1.0665
  927MOL0     H27921   2.806  11.547   2.618  0.0084 -1.6446 -0.5058
  927MOL0     H27922   2.870  11.918   2.448 -1.2810  0.2213  1.5197
  927MOL0     H27923   3.218  11.203   2.338  3.4542 -1.1786 -1.2660
  927MOL0     H27924   3.533  11.158   2.297  3.0119 -2.1048 -0.7481
  927MOL0     H27925   3.486  10.977   2.324 -2.4634 -0.1936 -1.0083
  927MOL0     H27926   3.392  11.086   2.233 -2.0675  2.0865  1.5371
  928MOL0     O27927   8.353   1.914   4.613  0.4579  0.4263  0.5874
  928MOL0     C27928   8.440   1.859   4.681 -0.1557  0.2128  0.3753
  928MOL0     O27929   8.450   1.867   4.814  0.5169 -0.2917  0.2175
  928MOL0     C27930   8.516   1.775   4.887  0.8932  0.5302  0.0321
  928MOL0     C27931   8.492   1.638   4.865  0.6118  0.4014  0.2624
  928MOL0     C27932   8.554   1.537   4.944 -0.0116  0.4261 -0.5123
  928MOL0     C27933   8.658   1.573   5.028 -0.0555 -0.0423  0.5135
  928MOL0     O27934   8.741   1.491   5.096  0.2993 -0.0125 -1.0641
  928MOL0     C27935   8.677   1.433   5.218 -0.2589  0.0463 -0.2289
  928MOL0     C27936   8.709   1.506   5.350 -0.1863  0.5087 -0.4461
  928MOL0     C27937   8.851   1.480   5.391 -0.7779 -0.1400 -0.3234
  928MOL0     C27938   8.923   1.611   5.433 -0.0577 -0.0353  0.6272
  928MOL0     C27939   9.072   1.577   5.473 -0.2781  0.2864 -0.0005
  928MOL0     C27940   9.141   1.706   5.531 -0.6009  0.5047  0.2384
  928MOL0     C27941   9.284   1.679   5.574  0.2703  0.1531 -0.5057
  928MOL0     C27942   9.334   1.803   5.647 -0.0299  0.0148  0.6852
  928MOL0     N27943   9.242   1.843   5.755 -0.7113 -0.4537  0.5408
  928MOL0     C27944   9.220   1.764   5.868  0.1187  0.2189  0.3599
  928MOL0     C27945   9.185   1.855   5.962  0.2393 -0.1308 -0.2569
  928MOL0     C27946   9.154   1.834   6.106  0.1161  0.7813 -0.5189
  928MOL0     C27947   9.008   1.780   6.111 -0.8271  0.7289 -0.3495
  928MOL0     C27948   8.904   1.859   6.038 -0.0787  0.4654 -0.3308
  928MOL0     C27949   8.759   1.833   6.089  0.4086 -0.3575  0.1793
  928MOL0     O27950   8.665   1.942   6.044  0.4247  0.1828 -0.2013
  928MOL0     C27951   8.530   1.935   6.062 -0.4030  0.5752  0.3226
  928MOL0     C27952   8.471   1.866   6.163 -0.4760  0.0664 -0.3960
  928MOL0     C27953   8.329   1.872   6.171  0.3025 -0.0641  0.7132
  928MOL0     C27954   8.259   1.810   6.292  0.1904  0.3008 -0.0770
  928MOL0     C27955   8.253   1.925   6.061  0.8094  0.2960 -0.7086
  928MOL0     C27956   8.102   1.915   6.058  0.6023  0.6981 -0.0808
  928MOL0     O27957   8.022   2.021   6.041 -0.4783 -0.2033 -0.3586
  928MOL0     C27958   7.899   2.004   6.101  0.3368  0.0072  0.3665
  928MOL0     C27959   7.863   2.063   6.220  0.4158  0.0651  0.0215
  928MOL0     C27960   7.736   2.036   6.273  0.4589 -0.0278  0.0903
  928MOL0     C27961   7.637   1.979   6.186  1.6869 -0.3116 -0.9313
  928MOL0     O27962   7.499   1.981   6.215 -0.0178 -0.1369 -0.5132
  928MOL0     C27963   7.399   1.898   6.162  0.3527  1.2364 -0.0673
  928MOL0     C27964   7.272   1.875   6.250  1.0603 -0.3700 -0.6039
  928MOL0     C27965   7.212   2.013   6.287 -0.0527 -0.2354 -0.0362
  928MOL0     C27966   7.133   2.050   6.163 -0.0906  0.2645  0.5719
  928MOL0     C27967   7.066   2.181   6.197  0.0099 -0.1597 -1.7020
  928MOL0     C27968   6.999   2.237   6.073  0.6116  0.7560  0.1950
  928MOL0     C27969   6.947   2.376   6.098 -0.8926  0.0992  0.3273
  928MOL0     C27970   6.837   2.392   6.205 -0.3325  0.0392  0.7095
  928MOL0    Cl27971   6.708   2.262   6.173 -0.7396 -0.5045 -0.1866
  928MOL0     C27972   7.670   1.931   6.057  0.4351  0.5871 -0.0501
  928MOL0     C27973   7.801   1.942   6.020 -0.1187  0.5699 -0.3465
  928MOL0     O27974   8.064   1.799   6.084 -0.1774 -0.2577 -0.8066
  928MOL0     C27975   8.314   1.984   5.953  0.3246 -0.6823 -0.3095
  928MOL0     C27976   8.455   1.997   5.961  0.6343  0.1706 -0.0967
  928MOL0     N27977   9.159   1.975   5.893 -0.2929  0.4301  0.7002
  928MOL0     N27978   9.205   1.972   5.773  0.3653  0.4862  0.1588
  928MOL0     C27979   8.681   1.711   5.046  0.3411 -0.1006 -0.2251
  928MOL0     C27980   8.609   1.812   4.979 -0.4475 -0.1896 -0.2524
  928MOL0     C27981   8.548   1.794   4.609  0.2368 -0.7016  0.3541
  928MOL0     C27982   8.671   1.858   4.626 -0.6631  1.0305  0.1043
  928MOL0     C27983   8.788   1.809   4.577 -0.9071 -0.0956 -0.0420
  928MOL0     C27984   8.795   1.691   4.505 -0.9785 -1.0258  0.2984
  928MOL0     O27985   8.910   1.649   4.440  0.3890 -0.3863 -0.4928
  928MOL0     C27986   9.028   1.649   4.523 -0.2305  0.8327  0.1613
  928MOL0     C27987   9.116   1.537   4.469 -0.0590  0.1817  0.2363
  928MOL0     C27988   9.236   1.581   4.389 -0.4871  0.9066  0.9165
  928MOL0     C27989   9.333   1.664   4.465  0.0374 -0.9260 -0.0452
  928MOL0     C27990   9.406   1.594   4.566 -1.0289  0.6110  0.6242
  928MOL0     C27991   9.457   1.524   4.652  0.5565 -0.2887  0.3347
  928MOL0     C27992   8.675   1.621   4.488 -0.2603  0.7202  0.0561
  928MOL0     C27993   8.548   1.667   4.536  0.3434 -0.2114 -0.4445
  928MOL0     C27994   8.418   1.590   4.524  0.4708  0.9575  0.8330
  928MOL0     H27995   8.425   1.604   4.786  1.6010  0.7632 -0.7647
  928MOL0     H27996   8.536   1.434   4.918 -2.8712  0.8201 -0.4053
  928MOL0     H27997   8.722   1.335   5.237 -0.6504 -0.0948 -0.0133
  928MOL0     H27998   8.570   1.417   5.202 -0.1920  0.0620 -0.7011
  928MOL0     H27999   8.695   1.614   5.334  1.0945  0.7073 -0.3000
  928MOL0     H28000   8.645   1.474   5.432  1.7620 -0.9105  0.5799
  928MOL0     H28001   8.863   1.411   5.476  2.4339  0.2342 -0.3547
  928MOL0     H28002   8.907   1.436   5.308  0.6437 -1.7665  1.4085
  928MOL0     H28003   8.907   1.683   5.352 -1.6596  0.6945  1.5306
  928MOL0     H28004   8.869   1.655   5.518 -3.2490 -3.4912  0.6753
  928MOL0     H28005   9.130   1.549   5.385  0.8680 -1.1272  1.1346
  928MOL0     H28006   9.083   1.495   5.545  0.4698  1.1255  0.8795
  928MOL0     H28007   9.139   1.781   5.451 -1.6235  0.4518  0.1923
  928MOL0     H28008   9.073   1.747   5.607 -0.6389 -1.4162  1.2755
  928MOL0     H28009   9.359   1.658   5.497  2.1605  1.4740  0.8737
  928MOL0     H28010   9.294   1.598   5.647  1.7824  1.0980  0.3976
  928MOL0     H28011   9.436   1.788   5.684  0.3976 -3.2660 -1.3133
  928MOL0     H28012   9.327   1.887   5.578 -1.2884  0.1695  0.9765
  928MOL0     H28013   9.240   1.658   5.879  2.2566  0.4207 -1.1373
  928MOL0     H28014   9.164   1.917   6.176 -1.2035 -1.3113  2.3687
  928MOL0     H28015   9.225   1.760   6.144 -0.8260 -0.2122 -0.6371
  928MOL0     H28016   9.017   1.679   6.071 -0.3947  0.3090  0.7675
  928MOL0     H28017   8.985   1.776   6.218 -2.1487 -0.5448 -0.6613
  928MOL0     H28018   8.919   1.966   6.059 -1.4959  0.6022  0.1028
  928MOL0     H28019   8.911   1.829   5.933 -0.9528 -2.4947  0.3770
  928MOL0     H28020   8.727   1.742   6.038  0.2034  1.1283 -2.5061
  928MOL0     H28021   8.760   1.829   6.198 -0.5824 -0.9439  0.1750
  928MOL0     H28022   8.525   1.820   6.246 -2.8798  2.1093  2.5214
  928MOL0     H28023   8.331   1.794   6.373  1.3329 -0.6622 -1.2240
  928MOL0     H28024   8.231   1.706   6.272  0.6006 -0.4592  2.7805
  928MOL0     H28025   8.173   1.870   6.320 -0.3063  0.3343 -1.6026
  928MOL0     H28026   7.946   2.104   6.277 -0.5938 -0.3151  1.8695
  928MOL0     H28027   7.720   2.073   6.374 -2.3657  2.0081 -0.9717
  928MOL0     H28028   7.366   1.937   6.065  0.9839  2.0123  0.0208
  928MOL0     H28029   7.436   1.797   6.146 -2.0049  0.4833 -1.3299
  928MOL0     H28030   7.209   1.807   6.193 -0.8170 -0.2138  1.1703
  928MOL0     H28031   7.292   1.826   6.345 -4.2900  1.3738  1.8723
  928MOL0     H28032   7.288   2.086   6.316  0.9995 -1.9403  1.6645
  928MOL0     H28033   7.138   1.997   6.366 -0.7490  4.4646  0.5612
  928MOL0     H28034   7.061   1.974   6.131  1.6020 -0.2903 -2.2589
  928MOL0     H28035   7.205   2.063   6.081  1.7750  0.3489  2.1533
  928MOL0     H28036   6.987   2.163   6.270 -0.1366  0.3873 -1.7216
  928MOL0     H28037   7.136   2.254   6.239  1.1443 -1.9084 -0.4143
  928MOL0     H28038   6.930   2.168   6.023  1.8151  0.3386 -0.9349
  928MOL0     H28039   7.072   2.247   5.992  1.6152  1.3952  1.1542
  928MOL0     H28040   6.910   2.404   5.999  1.1375 -2.3264 -1.2401
  928MOL0     H28041   7.032   2.436   6.133  1.8686 -2.9004 -0.7026
  928MOL0     H28042   6.784   2.484   6.181 -1.2963 -1.6453 -5.1996
  928MOL0     H28043   6.877   2.394   6.307  3.6087  0.2160 -0.6879
  928MOL0     H28044   7.585   1.894   6.002  0.0542  1.7196 -0.2624
  928MOL0     H28045   7.830   1.898   5.925 -1.0335  0.5416 -0.6171
  928MOL0     H28046   8.253   2.023   5.872  0.0346  0.7938  0.5787
  928MOL0     H28047   8.511   2.054   5.888  0.4859  1.5696  0.8409
  928MOL0     H28048   8.758   1.745   5.114 -0.5733  3.2844 -0.7313
  928MOL0     H28049   8.632   1.917   4.995  1.0779  0.2021 -4.0630
  928MOL0     H28050   8.671   1.948   4.686  2.5894  0.8982  0.4833
  928MOL0     H28051   8.878   1.864   4.605 -0.6919 -1.4497  2.1687
  928MOL0     H28052   9.086   1.741   4.535  1.8605 -0.6279  2.1072
  928MOL0     H28053   9.005   1.622   4.627 -1.5714  1.1333 -0.0416
  928MOL0     H28054   9.055   1.472   4.406 -0.0127 -0.5887  0.9694
  928MOL0     H28055   9.136   1.474   4.555 -3.1887 -2.2561 -0.6319
  928MOL0     H28056   9.298   1.503   4.343  0.2609  0.5808  2.4249
  928MOL0     H28057   9.196   1.633   4.301  0.1218  1.1456  0.7787
  928MOL0     H28058   9.296   1.757   4.509 -0.2782 -1.9277  1.9136
  928MOL0     H28059   9.402   1.688   4.384  1.5550  0.4246  1.5871
  928MOL0     H28060   9.493   1.445   4.715  0.7498 -0.5820 -0.1364
  928MOL0     H28061   8.693   1.526   4.440 -0.8805  1.6126 -2.0362
  928MOL0     H28062   8.447   1.485   4.536  2.9703  1.3728 -0.8216
  928MOL0     H28063   8.340   1.622   4.593  1.1367  4.3816  0.1669
  928MOL0     H28064   8.377   1.604   4.424  0.8940  1.7532  0.7634
  929MOL0     O28065  10.143   4.015   8.511 -0.5588  0.7130 -0.1014
  929MOL0     C28066  10.075   4.077   8.433  0.3431  0.3624  0.9430
  929MOL0     O28067   9.941   4.046   8.400  0.0686 -0.6304  0.5656
  929MOL0     C28068   9.892   3.949   8.483  0.3244  0.3324  0.2062
  929MOL0     C28069   9.878   3.818   8.427 -0.7028 -0.0220 -0.1349
  929MOL0     C28070   9.835   3.708   8.498 -0.7557 -0.0171  1.3877
  929MOL0     C28071   9.813   3.721   8.632 -0.3994  0.6651 -0.0870
  929MOL0     O28072   9.774   3.618   8.709 -0.3319 -0.3786 -0.0984
  929MOL0     C28073   9.816   3.483   8.679 -0.0951 -0.5218  0.0035
  929MOL0     C28074   9.728   3.372   8.727 -0.0915  0.6411 -0.6029
  929MOL0     C28075   9.690   3.374   8.872 -0.5241 -0.3996 -0.7962
  929MOL0     C28076   9.570   3.281   8.895 -0.4447 -0.0218 -0.1039
  929MOL0     C28077   9.532   3.286   9.046  0.1986 -0.4602 -0.1019
  929MOL0     C28078   9.397   3.209   9.068 -0.4296 -0.2463  0.1387
  929MOL0     C28079   9.368   3.253   9.213  0.6609  0.3973  0.1578
  929MOL0     C28080   9.228   3.185   9.259  1.2532 -0.6213 -0.0440
  929MOL0     N28081   9.207   3.186   9.407 -0.2891 -0.2762  0.0804
  929MOL0     C28082   9.148   3.288   9.478 -1.0200 -0.6043 -0.0417
  929MOL0     C28083   9.162   3.250   9.607 -0.0791 -0.6567 -0.6023
  929MOL0     C28084   9.125   3.337   9.729 -0.4983  0.0015 -0.8623
  929MOL0     C28085   9.228   3.324   9.853  0.3208  0.4234 -0.0014
  929MOL0     C28086   9.172   3.377   9.987  0.1766  0.1295 -0.1495
  929MOL0     C28087   9.289   3.430  10.078  0.4487  0.4692  0.4570
  929MOL0     O28088   9.378   3.312  10.106 -0.4414  0.7040  0.3668
  929MOL0     C28089   9.455   3.300  10.221 -0.6676 -0.4263 -0.1939
  929MOL0     C28090   9.462   3.400  10.318  0.4926 -0.0491 -0.6515
  929MOL0     C28091   9.551   3.388  10.423 -0.0356  0.2866  0.1697
  929MOL0     C28092   9.517   3.474  10.543 -0.6934  0.3270  0.0905
  929MOL0     C28093   9.644   3.283  10.423  0.6424 -0.5289  0.0298
  929MOL0     C28094   9.760   3.278  10.517 -0.8127 -0.3649 -0.1601
  929MOL0     O28095   9.802   3.393  10.562  0.1231  0.4012  0.0124
  929MOL0     C28096   9.920   3.395  10.636 -0.0670  0.8838 -0.1420
  929MOL0     C28097   9.910   3.358  10.768  0.9037 -0.7200 -1.1180
  929MOL0     C28098  10.019   3.377  10.854 -0.0266 -0.1766  0.5255
  929MOL0     C28099  10.143   3.413  10.799  0.0784 -0.0273  0.1766
  929MOL0     O28100  10.259   3.440  10.868  0.0482 -0.5830  0.3864
  929MOL0     C28101  10.272   3.381  10.995  0.1718 -0.3353  0.8101
  929MOL0     C28102  10.406   3.429  11.051  0.0326 -0.0228  0.0893
  929MOL0     C28103  10.426   3.372  11.192  0.2215  0.1924 -0.2757
  929MOL0     C28104  10.568   3.403  11.241 -0.5487 -0.2113 -0.0709
  929MOL0     C28105  10.611   3.318  11.362 -1.1574 -0.4134 -0.8115
  929MOL0     C28106  10.723   3.382  11.446  0.1171 -0.3906  0.6087
  929MOL0     C28107  10.847   3.414  11.368 -0.4625 -0.3791 -0.3393
  929MOL0     C28108  10.969   3.421  11.461 -0.1594 -0.8907 -0.0690
  929MOL0    Cl28109  11.022   3.259  11.511  0.0868  0.2159 -0.2468
  929MOL0     C28110  10.160   3.427  10.662  0.1765 -0.9218 -0.3154
  929MOL0     C28111  10.048   3.416  10.577 -0.0793  0.1511  0.3665
  929MOL0     O28112   9.815   3.170  10.535 -0.0688  0.4874 -0.0442
  929MOL0     C28113   9.619   3.187  10.335 -0.5977  1.5390 -0.1531
  929MOL0     C28114   9.527   3.186  10.236  0.4922  0.9468  0.1752
  929MOL0     N28115   9.209   3.124   9.621  0.0792  0.9404  1.0865
  929MOL0     N28116   9.236   3.088   9.496 -0.9881  0.2955 -0.3154
  929MOL0     C28117   9.832   3.840   8.701 -0.2121  0.0350  0.2189
  929MOL0     C28118   9.856   3.956   8.621  0.5418 -0.0724  0.0262
  929MOL0     C28119  10.137   4.201   8.358 -0.3286  0.4285  0.1624
  929MOL0     C28120  10.071   4.251   8.246  0.0910  0.2589  0.3600
  929MOL0     C28121  10.125   4.358   8.168  0.4868 -0.8897  0.7408
  929MOL0     C28122  10.245   4.415   8.204 -0.2927  0.5483 -0.0349
  929MOL0     O28123  10.298   4.519   8.135  0.2505 -0.5122 -0.6430
  929MOL0     C28124  10.250   4.557   8.003 -0.2060 -0.4915 -0.0732
  929MOL0     C28125  10.354   4.667   7.964  0.5538  0.7102 -0.4651
  929MOL0     C28126  10.477   4.606   7.895 -0.1957  0.5166  0.6089
  929MOL0     C28127  10.436   4.535   7.765 -0.0869  0.4516 -0.0624
  929MOL0     C28128  10.569   4.495   7.707  0.0305 -0.1334  0.1156
  929MOL0     C28129  10.684   4.469   7.664 -0.2734 -0.0044 -0.4633
  929MOL0     C28130  10.313   4.365   8.313  0.0887 -0.0425 -0.1658
  929MOL0     C28131  10.260   4.262   8.390  0.8411 -0.2676 -1.0248
  929MOL0     C28132  10.336   4.218   8.509  0.4855  0.0293  0.6026
  929MOL0     H28133   9.906   3.804   8.323  0.0851  0.4910 -0.0035
  929MOL0     H28134   9.827   3.615   8.441 -1.2551  2.3299 -2.8147
  929MOL0     H28135   9.921   3.472   8.710  0.3376 -2.0093 -1.7782
  929MOL0     H28136   9.815   3.459   8.572  0.8887  0.1513 -0.1756
  929MOL0     H28137   9.634   3.370   8.671 -0.6883 -0.6364  0.4041
  929MOL0     H28138   9.783   3.280   8.706  0.7535  1.0235 -0.1299
  929MOL0     H28139   9.773   3.336   8.933 -1.0862  1.1319  1.0306
  929MOL0     H28140   9.673   3.474   8.913  0.8521  0.5194 -2.3582
  929MOL0     H28141   9.490   3.316   8.830 -0.2626  1.5092  0.4567
  929MOL0     H28142   9.591   3.177   8.865  0.6940  0.8171 -2.5560
  929MOL0     H28143   9.521   3.394   9.064 -0.8843 -0.0896 -2.5412
  929MOL0     H28144   9.609   3.256   9.117  2.4722  1.3210 -1.6778
  929MOL0     H28145   9.321   3.244   8.998  0.2995 -0.8848 -1.0121
  929MOL0     H28146   9.392   3.099   9.071  0.2099 -0.2722  0.4166
  929MOL0     H28147   9.363   3.363   9.213  1.7921  0.4954  2.0390
  929MOL0     H28148   9.448   3.220   9.280  0.3069 -1.0902 -0.1226
  929MOL0     H28149   9.142   3.236   9.215 -1.9550 -2.0655  3.8822
  929MOL0     H28150   9.225   3.080   9.231  0.2056 -0.2375 -1.4598
  929MOL0     H28151   9.124   3.388   9.444 -1.0236 -0.4274  0.4712
  929MOL0     H28152   9.025   3.308   9.763 -0.6932 -0.8520 -2.1096
  929MOL0     H28153   9.118   3.444   9.707  2.8855  0.6242  0.4514
  929MOL0     H28154   9.241   3.216   9.868 -2.1343  0.4491  3.6639
  929MOL0     H28155   9.319   3.382   9.836  1.5903 -0.9446  1.6897
  929MOL0     H28156   9.104   3.462   9.977 -0.1888 -0.1300  0.0994
  929MOL0     H28157   9.116   3.298  10.038 -1.5312  1.9513  0.9465
  929MOL0     H28158   9.343   3.512  10.030 -2.9333  2.6891  0.1495
  929MOL0     H28159   9.236   3.468  10.165 -1.4033 -0.9309 -0.0045
  929MOL0     H28160   9.389   3.480  10.311  0.5425  0.2262  1.5167
  929MOL0     H28161   9.425   3.531  10.532 -0.6981  0.2130 -0.4968
  929MOL0     H28162   9.596   3.544  10.572 -2.0505  2.2784 -0.7355
  929MOL0     H28163   9.511   3.407  10.630  1.1371 -2.0296 -1.4474
  929MOL0     H28164   9.814   3.343  10.818  0.5300 -0.5196 -1.7676
  929MOL0     H28165   9.998   3.364  10.960  1.2957 -2.6839  0.5686
  929MOL0     H28166  10.185   3.416  11.051 -0.7532  0.3222 -0.9419
  929MOL0     H28167  10.287   3.273  10.982  0.3881 -0.1135 -1.0697
  929MOL0     H28168  10.484   3.384  10.988 -0.5900 -0.0548 -0.6806
  929MOL0     H28169  10.418   3.536  11.036 -0.6091 -0.1658 -1.7466
  929MOL0     H28170  10.407   3.265  11.185 -0.7978  0.3672 -0.3538
  929MOL0     H28171  10.350   3.408  11.262 -1.4925  1.1363 -2.4866
  929MOL0     H28172  10.564   3.508  11.273 -0.2258 -0.5622  1.1630
  929MOL0     H28173  10.640   3.405  11.159 -2.7914  1.5242 -2.1398
  929MOL0     H28174  10.526   3.290  11.426 -0.4750 -1.1978 -0.2316
  929MOL0     H28175  10.652   3.223  11.329  0.1487  0.0753 -0.6725
  929MOL0     H28176  10.752   3.315  11.527 -3.8648 -0.5948  2.1127
  929MOL0     H28177  10.681   3.469  11.498 -0.2721 -1.0985  1.5061
  929MOL0     H28178  10.851   3.504  11.307  4.6732 -1.5323 -2.1320
  929MOL0     H28179  10.863   3.331  11.299  0.5035  0.6193 -1.3411
  929MOL0     H28180  10.962   3.480  11.553  2.0956  1.5054 -1.3321
  929MOL0     H28181  11.054   3.464  11.409  0.4755  0.5993  2.0573
  929MOL0     H28182  10.255   3.459  10.622 -0.3922 -1.0241 -1.8141
  929MOL0     H28183  10.054   3.430  10.469  1.6022 -0.8668  0.2896
  929MOL0     H28184   9.683   3.099  10.340 -0.4223  1.7119  0.9178
  929MOL0     H28185   9.521   3.112  10.157 -1.5610  2.3752 -1.0993
  929MOL0     H28186   9.818   3.841   8.809  3.4622  0.8286  0.8321
  929MOL0     H28187   9.867   4.049   8.677  0.4397  1.4754 -2.3664
  929MOL0     H28188   9.975   4.213   8.214  0.0604 -1.5513  2.3816
  929MOL0     H28189  10.067   4.390   8.082  1.5734 -1.1983 -0.1309
  929MOL0     H28190  10.248   4.474   7.931  1.4200  0.9291 -1.8760
  929MOL0     H28191  10.148   4.597   8.013  0.1963  0.0698  2.4287
  929MOL0     H28192  10.396   4.703   8.058 -1.0522  2.7461 -0.4530
  929MOL0     H28193  10.316   4.754   7.909  2.1824  0.6995 -1.6976
  929MOL0     H28194  10.538   4.691   7.862 -0.6213  0.8641  0.7050
  929MOL0     H28195  10.533   4.547   7.967 -0.6882 -2.4923 -1.3114
  929MOL0     H28196  10.384   4.601   7.694  2.5119 -0.0096 -2.6147
  929MOL0     H28197  10.374   4.448   7.783 -0.7464  0.6468 -1.3000
  929MOL0     H28198  10.784   4.436   7.645 -0.9819 -4.7657  2.2437
  929MOL0     H28199  10.405   4.419   8.333 -0.9251  1.4131  0.8039
  929MOL0     H28200  10.274   4.222   8.599  0.7817 -5.2446  1.3399
  929MOL0     H28201  10.374   4.119   8.485  0.0273 -0.1747  0.6958
  929MOL0     H28202  10.422   4.283   8.524  0.1459  0.5434  0.3728
  930MOL0     O28203  11.365   0.328   5.556  0.4254 -0.5398 -0.2451
  930MOL0     C28204  11.335   0.222   5.502 -0.0229 -0.4237 -0.2830
  930MOL0     O28205  11.400   0.102   5.524  0.0548  0.8236 -0.3088
  930MOL0     C28206  11.518   0.121   5.599  0.3385  0.1851 -0.3293
  930MOL0     C28207  11.535   0.088   5.729 -0.6247 -0.2757  0.5464
  930MOL0     C28208  11.652   0.111   5.795 -0.4475  0.1436  0.1515
  930MOL0     C28209  11.752   0.181   5.728 -0.2745  0.3059  0.0729
  930MOL0     O28210  11.872   0.207   5.792 -0.1023  0.2279  0.0950
  930MOL0     C28211  11.988   0.188   5.721  0.0947  1.1355 -0.6481
  930MOL0     C28212  12.103   0.149   5.820 -0.4674  0.3090  0.3616
  930MOL0     C28213  12.106   0.229   5.949 -0.4441 -0.8310 -0.1707
  930MOL0     C28214  12.199   0.156   6.043  0.0715 -0.0818 -0.1423
  930MOL0     C28215  12.222   0.225   6.182 -0.2910  0.9278  0.6592
  930MOL0     C28216  12.341   0.169   6.258 -0.5556 -0.0319 -1.4597
  930MOL0     C28217  12.351   0.256   6.387  0.4471  0.6470 -0.0685
  930MOL0     C28218  12.447   0.218   6.491 -0.8672 -0.2616 -0.4883
  930MOL0     N28219  12.579   0.197   6.429 -0.2675  0.3348 -0.2445
  930MOL0     C28220  12.664   0.290   6.382 -0.3052  0.2010 -0.0052
  930MOL0     C28221  12.765   0.228   6.313  0.7239  0.1286 -1.1255
  930MOL0     C28222  12.888   0.300   6.270 -0.9453  0.1359 -0.3012
  930MOL0     C28223  12.894   0.331   6.122 -0.3457 -0.3649  1.3055
  930MOL0     C28224  12.902   0.199   6.030 -0.3168 -0.5144  0.4036
  930MOL0     C28225  12.914   0.257   5.888 -0.2452  0.3210  0.1078
  930MOL0     O28226  13.035   0.331   5.866  0.1443 -0.0830  0.4690
  930MOL0     C28227  13.150   0.253   5.884  0.1750 -0.6534  0.4768
  930MOL0     C28228  13.174   0.139   5.809 -0.4782  0.6661 -0.6982
  930MOL0     C28229  13.301   0.068   5.821  0.6165 -0.3574 -0.4948
  930MOL0     C28230  13.321  -0.078   5.756 -0.7529 -0.1643 -0.1492
  930MOL0     C28231  13.408   0.126   5.895  0.9803  0.1473 -0.6479
  930MOL0     C28232  13.539   0.066   5.905 -0.1895 -0.8865  1.2616
  930MOL0     O28233  13.629   0.109   5.819 -0.1630  0.4932 -1.1101
  930MOL0     C28234  13.756   0.134   5.870  0.6123  1.0077 -0.7181
  930MOL0     C28235  13.848   0.029   5.890 -0.2217 -0.7242  0.1982
  930MOL0     C28236  13.981   0.055   5.932  0.3630 -0.0984 -0.8945
  930MOL0     C28237  14.019   0.185   5.958 -0.4100  0.1469 -0.4948
  930MOL0     O28238  14.153   0.196   5.983 -0.4258  0.3625 -0.1872
  930MOL0     C28239  14.221   0.322   5.970 -0.4707 -0.5001  0.2086
  930MOL0     C28240  14.199   0.391   6.105 -0.6256  0.6325 -0.1708
  930MOL0     C28241  14.275   0.523   6.105  0.3685 -1.7050 -0.7087
  930MOL0     C28242  14.423   0.512   6.124 -1.1524  0.4473 -0.6236
  930MOL0     C28243  14.487   0.634   6.172  0.0095 -0.3263 -0.9959
  930MOL0     C28244  14.637   0.614   6.225  0.5594  0.4628 -0.1625
  930MOL0     C28245  14.699   0.747   6.225 -0.4030 -0.5521 -0.3322
  930MOL0     C28246  14.836   0.748   6.292  0.0814  0.4061  0.3953
  930MOL0    Cl28247  14.959   0.688   6.180 -0.5789 -0.4751 -0.2210
  930MOL0     C28248  13.930   0.287   5.935  0.4151 -0.4129  0.4735
  930MOL0     C28249  13.797   0.261   5.888  0.1740  0.4692  0.1135
  930MOL0     O28250  13.561  -0.028   5.980  0.2269 -0.4986  0.1170
  930MOL0     C28251  13.376   0.251   5.957 -0.3784  0.2887 -0.2611
  930MOL0     C28252  13.250   0.311   5.957 -0.1020  0.1650  0.0460
  930MOL0     N28253  12.746   0.098   6.327  0.4660  0.5558 -0.4847
  930MOL0     N28254  12.636   0.082   6.394 -0.4066  0.0182  0.3477
  930MOL0     C28255  11.731   0.207   5.590 -0.1513 -0.7381 -0.8727
  930MOL0     C28256  11.620   0.178   5.525 -0.7023 -0.2084 -0.0990
  930MOL0     C28257  11.225   0.221   5.400 -0.3056  0.1768 -0.6571
  930MOL0     C28258  11.115   0.301   5.413  0.1132 -0.4984  0.1534
  930MOL0     C28259  11.013   0.306   5.327  0.0077 -0.2245 -0.9816
  930MOL0     C28260  11.020   0.226   5.208 -0.2236 -0.1794 -0.7592
  930MOL0     O28261  10.927   0.217   5.109 -0.4231  0.6553 -0.2880
  930MOL0     C28262  10.793   0.260   5.141 -0.6350 -0.4829 -0.8558
  930MOL0     C28263  10.696   0.208   5.035 -0.3183  0.6009  0.6689
  930MOL0     C28264  10.549   0.242   5.035  0.5117 -0.2057  0.6429
  930MOL0     C28265  10.468   0.150   4.945  0.0896  0.1324 -0.7375
  930MOL0     C28266  10.318   0.173   4.942 -1.2899  0.6886  0.6558
  930MOL0     C28267  10.204   0.179   4.931 -0.0794  0.2508 -0.8392
  930MOL0     C28268  11.139   0.153   5.193 -0.6298  0.7526 -0.1789
  930MOL0     C28269  11.237   0.142   5.287 -0.1831 -0.4890  0.4052
  930MOL0     C28270  11.355   0.060   5.253 -0.6514  0.1806 -0.4356
  930MOL0     H28271  11.458   0.030   5.781 -1.4765 -0.4967 -0.8987
  930MOL0     H28272  11.670   0.077   5.897  1.9912  1.2875  0.1754
  930MOL0     H28273  12.017   0.279   5.668  3.1080 -0.6000 -2.2629
  930MOL0     H28274  11.981   0.105   5.649  1.2318  0.8095 -0.3910
  930MOL0     H28275  12.102   0.042   5.842  0.2229  0.2191 -0.0126
  930MOL0     H28276  12.202   0.167   5.777  0.3507 -0.8114  1.6992
  930MOL0     H28277  12.158   0.325   5.941  2.0264 -2.0343  0.4963
  930MOL0     H28278  12.009   0.254   5.993 -0.7992 -1.3675 -0.6381
  930MOL0     H28279  12.155   0.058   6.065  0.8112 -0.1024  1.3523
  930MOL0     H28280  12.293   0.145   5.988  0.7816  1.9517  0.5862
  930MOL0     H28281  12.132   0.207   6.242 -1.7628  1.9674 -1.1268
  930MOL0     H28282  12.229   0.333   6.161 -2.6614  1.1863  0.8863
  930MOL0     H28283  12.328   0.064   6.288 -0.7427  0.5249  0.5208
  930MOL0     H28284  12.428   0.169   6.192 -0.1908 -0.5754 -0.9833
  930MOL0     H28285  12.248   0.254   6.423  0.2274  0.0629 -0.7101
  930MOL0     H28286  12.370   0.363   6.372 -0.0520  1.3066  3.1836
  930MOL0     H28287  12.464   0.296   6.566  0.5164 -1.8740  0.9696
  930MOL0     H28288  12.417   0.128   6.545  1.8238 -0.1929  1.3224
  930MOL0     H28289  12.658   0.398   6.394  0.7326  0.5223 -1.8991
  930MOL0     H28290  12.977   0.241   6.290 -0.6718  1.2446  2.0426
  930MOL0     H28291  12.893   0.385   6.339  0.1045  0.0938 -0.3197
  930MOL0     H28292  12.809   0.388   6.086  1.7739  1.4340 -1.2599
  930MOL0     H28293  12.985   0.389   6.102 -1.6152  1.7334  1.2917
  930MOL0     H28294  12.978   0.126   6.058  1.3557 -0.5400 -3.5394
  930MOL0     H28295  12.804   0.150   6.023 -0.9639  0.5901  1.2686
  930MOL0     H28296  12.919   0.168   5.824  0.7585  1.1876 -1.0817
  930MOL0     H28297  12.827   0.316   5.859 -1.1824 -0.5700  1.0486
  930MOL0     H28298  13.099   0.105   5.739 -2.0269  3.1458 -0.3644
  930MOL0     H28299  13.234  -0.103   5.695  0.4672 -1.9528 -1.2618
  930MOL0     H28300  13.323  -0.154   5.834 -2.4864 -0.8056 -0.6911
  930MOL0     H28301  13.404  -0.069   5.685 -0.3230  1.1819  0.4848
  930MOL0     H28302  13.819  -0.071   5.861 -0.1381 -0.6684 -0.0864
  930MOL0     H28303  14.035  -0.032   5.967 -1.3837 -0.5598  0.8620
  930MOL0     H28304  14.326   0.302   5.950  0.1507  1.0166  1.7199
  930MOL0     H28305  14.182   0.380   5.886 -1.4814  0.0673  1.0496
  930MOL0     H28306  14.092   0.409   6.121 -0.4985  0.5750  0.8588
  930MOL0     H28307  14.238   0.327   6.185  1.0548  2.1791  0.3296
  930MOL0     H28308  14.226   0.597   6.170  1.3032 -1.4461 -0.2879
  930MOL0     H28309  14.262   0.579   6.012  1.9104 -1.2284 -0.6573
  930MOL0     H28310  14.473   0.473   6.035  0.3879 -1.3380  0.9517
  930MOL0     H28311  14.436   0.431   6.196 -2.6987  1.3773  0.7974
  930MOL0     H28312  14.480   0.706   6.090 -0.7615  0.3941 -0.3319
  930MOL0     H28313  14.428   0.683   6.251 -0.0288  0.6432 -1.6030
  930MOL0     H28314  14.691   0.544   6.161 -0.0332  1.6762 -2.0415
  930MOL0     H28315  14.626   0.571   6.325 -0.2851  1.9476  0.4176
  930MOL0     H28316  14.631   0.828   6.254  1.7749  0.8745  1.0933
  930MOL0     H28317  14.725   0.771   6.121  1.3762  1.8908  0.5791
  930MOL0     H28318  14.826   0.686   6.382 -1.3156 -0.4889 -0.3463
  930MOL0     H28319  14.861   0.851   6.319 -0.1291  0.3662  0.7607
  930MOL0     H28320  13.966   0.389   5.939  1.0371 -0.5558 -1.1568
  930MOL0     H28321  13.722   0.339   5.870  0.4317  1.3700  2.5222
  930MOL0     H28322  13.461   0.301   6.004  0.8676 -1.4442 -0.5859
  930MOL0     H28323  13.235   0.411   5.996  0.7366  1.0335 -1.7743
  930MOL0     H28324  11.801   0.263   5.530 -0.0390  2.0113  1.6025
  930MOL0     H28325  11.623   0.205   5.420 -2.2070  0.7898  0.0745
  930MOL0     H28326  11.110   0.366   5.500  3.2655  1.6514 -1.0800
  930MOL0     H28327  10.922   0.349   5.367  1.2308  0.2483  1.4895
  930MOL0     H28328  10.773   0.224   5.242 -0.1004  0.1636 -0.5160
  930MOL0     H28329  10.784   0.369   5.134 -1.0629 -0.2229  2.2487
  930MOL0     H28330  10.700   0.099   5.023 -0.4674  0.6965 -0.3438
  930MOL0     H28331  10.731   0.249   4.940  1.8976 -1.2243  0.6068
  930MOL0     H28332  10.523   0.235   5.141  0.4878 -3.1257  0.5284
  930MOL0     H28333  10.539   0.349   5.017  0.6429  0.0450  1.9546
  930MOL0     H28334  10.478   0.046   4.978 -0.5236 -0.0566 -1.1205
  930MOL0     H28335  10.501   0.172   4.843  1.0332 -0.0027 -0.4715
  930MOL0     H28336  10.100   0.186   4.904  0.1436 -2.5798 -2.8701
  930MOL0     H28337  11.152   0.092   5.104 -0.5926 -0.2510  0.4965
  930MOL0     H28338  11.327  -0.011   5.175  1.3895 -1.9562  0.6671
  930MOL0     H28339  11.453   0.107   5.242 -1.3266  1.5418 -0.8100
  930MOL0     H28340  11.370  -0.014   5.332  0.3558 -0.4613 -1.2200
  931MOL0     O28341   8.792  10.001   8.450  0.2092 -0.0402  0.3755
  931MOL0     C28342   8.707  10.089   8.464  0.1687 -0.3074  0.3869
  931MOL0     O28343   8.736  10.221   8.457 -0.2483  0.2142  0.3870
  931MOL0     C28344   8.868  10.270   8.465  0.0622  0.4876  0.6875
  931MOL0     C28345   8.963  10.213   8.370  0.1563  0.6267  0.8218
  931MOL0     C28346   9.093  10.262   8.358 -1.1663 -0.4699 -0.4515
  931MOL0     C28347   9.138  10.370   8.431  0.4816  0.3073 -1.4859
  931MOL0     O28348   9.262  10.415   8.419  0.0007 -0.3839 -0.1099
  931MOL0     C28349   9.333  10.471   8.529 -0.5822  0.3116 -0.2410
  931MOL0     C28350   9.480  10.498   8.485  0.5885  0.1449 -0.5299
  931MOL0     C28351   9.547  10.370   8.439 -0.1651 -0.8570 -0.2382
  931MOL0     C28352   9.678  10.391   8.360  0.0198 -0.2683  0.3366
  931MOL0     C28353   9.736  10.268   8.301  0.3051  1.0316  0.0541
  931MOL0     C28354   9.846  10.294   8.205  0.1996  0.9883 -0.9039
  931MOL0     C28355   9.889  10.166   8.136 -0.3710 -0.4661  0.2202
  931MOL0     C28356   9.972  10.071   8.230 -0.4198 -0.0476  0.5059
  931MOL0     N28357  10.009   9.933   8.182 -0.1207 -0.5014  0.0824
  931MOL0     C28358  10.142   9.913   8.147 -0.3673  0.2369 -0.0575
  931MOL0     C28359  10.137   9.795   8.079 -0.1513  0.0733 -0.0032
  931MOL0     C28360  10.256   9.725   8.016  0.6347 -0.3349  0.1478
  931MOL0     C28361  10.231   9.705   7.865  0.3360  0.6722 -0.7781
  931MOL0     C28362  10.308   9.578   7.811 -0.1561  0.5908  0.1858
  931MOL0     C28363  10.455   9.571   7.849  0.6428  0.8117 -0.5860
  931MOL0     O28364  10.518   9.686   7.779 -0.1037 -0.0439 -0.2462
  931MOL0     C28365  10.639   9.731   7.823 -0.0218 -0.5756  0.1551
  931MOL0     C28366  10.656   9.862   7.810 -0.8170  0.5059 -0.7984
  931MOL0     C28367  10.787   9.916   7.839 -0.1696 -0.0262 -0.5285
  931MOL0     C28368  10.807  10.069   7.836  0.9813 -0.1743  0.0635
  931MOL0     C28369  10.893   9.836   7.888  0.2142 -0.0876 -0.0238
  931MOL0     C28370  11.026   9.871   7.927 -0.0726  0.5114  0.1000
  931MOL0     O28371  11.108   9.771   7.941 -0.5007  0.7689  0.9766
  931MOL0     C28372  11.245   9.799   7.971  0.5481  0.5555  0.2276
  931MOL0     C28373  11.291   9.863   8.086  0.6166  0.4772 -0.2697
  931MOL0     C28374  11.426   9.894   8.099 -0.1700 -0.4944  0.5427
  931MOL0     C28375  11.513   9.848   8.003 -0.2033 -0.3390  0.2222
  931MOL0     O28376  11.641   9.881   8.035  0.2919 -0.2860 -0.1080
  931MOL0     C28377  11.749   9.852   7.948 -0.4906 -0.3285 -0.1364
  931MOL0     C28378  11.882   9.881   8.015  0.6141 -0.5559 -0.3682
  931MOL0     C28379  11.901   9.795   8.139 -0.2245  0.6617 -0.2345
  931MOL0     C28380  11.851   9.862   8.270  0.7624  0.4428  0.1244
  931MOL0     C28381  11.956   9.965   8.312  0.0685  0.2423  0.1897
  931MOL0     C28382  11.889  10.068   8.407  0.2219  0.3373 -0.0572
  931MOL0     C28383  11.989  10.175   8.458 -0.1221  0.1375 -0.3113
  931MOL0     C28384  11.909  10.305   8.508  0.1126  0.0581  0.5368
  931MOL0    Cl28385  12.020  10.433   8.536 -0.1875 -0.0067  0.0411
  931MOL0     C28386  11.476   9.794   7.889  0.6766  1.2011 -0.3653
  931MOL0     C28387  11.340   9.761   7.871 -0.5135 -0.4502  0.7745
  931MOL0     O28388  11.058   9.989   7.933 -0.5805 -0.1693  0.4072
  931MOL0     C28389  10.864   9.698   7.880 -0.0722 -0.1393  1.2435
  931MOL0     C28390  10.748   9.656   7.838 -0.0258  0.0483 -0.3192
  931MOL0     N28391  10.005   9.746   8.093 -0.6370  0.3815 -0.3375
  931MOL0     N28392   9.926   9.839   8.146 -0.4467  0.1589 -0.5733
  931MOL0     C28393   9.046  10.419   8.534  0.6312  0.4354  0.0634
  931MOL0     C28394   8.909  10.373   8.547 -0.2232 -0.2674  0.5758
  931MOL0     C28395   8.565  10.056   8.504 -0.6423  0.8468 -0.9363
  931MOL0     C28396   8.484  10.148   8.571  0.6823 -1.1221 -0.4688
  931MOL0     C28397   8.357  10.117   8.611 -0.5838  0.8916  0.7636
  931MOL0     C28398   8.299   9.995   8.571  0.1033  0.4736 -0.1749
  931MOL0     O28399   8.166   9.956   8.596  0.4438  0.2471  0.6166
  931MOL0     C28400   8.079  10.048   8.675  0.5087  0.8621 -0.6403
  931MOL0     C28401   7.934  10.006   8.661  0.0994  0.3053  0.4971
  931MOL0     C28402   7.914   9.866   8.731 -0.5229 -0.4415  0.8459
  931MOL0     C28403   7.769   9.816   8.726 -0.2206  0.7534 -0.3035
  931MOL0     C28404   7.714   9.821   8.591  0.2842 -0.5077  0.0987
  931MOL0     C28405   7.675   9.835   8.475 -0.2503 -0.9163 -0.7487
  931MOL0     C28406   8.380   9.898   8.510  0.0031  0.0749 -0.0724
  931MOL0     C28407   8.511   9.922   8.479 -0.3651 -0.0761  0.0779
  931MOL0     C28408   8.573   9.817   8.380 -0.2049 -0.0372 -0.6977
  931MOL0     H28409   8.947  10.133   8.300  1.5231  2.4388 -1.7154
  931MOL0     H28410   9.154  10.209   8.286 -0.7347 -0.6326  0.0286
  931MOL0     H28411   9.338  10.400   8.613 -2.4047 -1.6115 -1.6535
  931MOL0     H28412   9.289  10.569   8.547  0.6223  0.7964  0.1989
  931MOL0     H28413   9.475  10.576   8.410  5.2130  2.3774  1.1392
  931MOL0     H28414   9.538  10.550   8.561 -0.7189 -0.3735  0.8845
  931MOL0     H28415   9.572  10.313   8.529  1.5976 -0.0328 -0.1843
  931MOL0     H28416   9.471  10.314   8.383 -1.9639 -0.0631  1.3016
  931MOL0     H28417   9.657  10.465   8.283  1.4340 -0.7064 -0.4996
  931MOL0     H28418   9.752  10.442   8.422  1.3503  0.6823 -1.9007
  931MOL0     H28419   9.653  10.210   8.259  1.4106 -1.4607  1.1173
  931MOL0     H28420   9.784  10.212   8.381 -0.5217  0.1905 -0.0305
  931MOL0     H28421   9.823  10.368   8.127  0.5447  0.9910 -1.0057
  931MOL0     H28422   9.934  10.331   8.260  0.0834  2.0203 -1.3897
  931MOL0     H28423   9.960  10.195   8.058  1.2001 -0.9091  1.4337
  931MOL0     H28424   9.806  10.118   8.083 -0.2320 -0.1516 -0.2865
  931MOL0     H28425  10.064  10.116   8.267 -0.7010  0.6356  0.3950
  931MOL0     H28426   9.907  10.054   8.316 -2.0823 -0.4562 -0.7737
  931MOL0     H28427  10.232   9.972   8.158  0.0696 -0.3722 -0.2818
  931MOL0     H28428  10.250   9.628   8.065  0.2126 -0.0392  0.7037
  931MOL0     H28429  10.350   9.782   8.028 -0.2876  1.6188 -1.3106
  931MOL0     H28430  10.126   9.697   7.836  0.0715  0.1581  0.2740
  931MOL0     H28431  10.265   9.794   7.812  2.3725 -0.5888 -1.6926
  931MOL0     H28432  10.267   9.486   7.852  2.0003 -1.6393 -2.2602
  931MOL0     H28433  10.293   9.581   7.703 -3.4201  4.1477  0.5182
  931MOL0     H28434  10.467   9.569   7.957  0.7511 -0.1383 -0.6117
  931MOL0     H28435  10.499   9.478   7.811 -1.7274 -1.2955  1.4767
  931MOL0     H28436  10.572   9.930   7.804 -0.7469  1.0707  2.5904
  931MOL0     H28437  10.726  10.128   7.791  1.0661 -0.0522  0.0679
  931MOL0     H28438  10.903  10.082   7.786  0.8285 -0.8652 -0.4142
  931MOL0     H28439  10.822  10.114   7.935  1.0935  1.9995 -0.8820
  931MOL0     H28440  11.218   9.887   8.162  2.5573  2.3704  1.1222
  931MOL0     H28441  11.455   9.933   8.195  0.1660 -5.1753  2.5938
  931MOL0     H28442  11.743   9.749   7.912 -0.6985 -0.9729  1.6183
  931MOL0     H28443  11.732   9.926   7.869 -0.3283  2.2159  2.0546
  931MOL0     H28444  11.962   9.858   7.944  0.3759 -1.3278 -0.4057
  931MOL0     H28445  11.878   9.988   8.034 -2.9263 -0.9069  1.9070
  931MOL0     H28446  12.007   9.776   8.158 -0.7359  0.5685  3.2424
  931MOL0     H28447  11.853   9.697   8.131  1.3322 -0.1229 -0.3877
  931MOL0     H28448  11.837   9.789   8.351 -0.2534  1.4571  0.8855
  931MOL0     H28449  11.758   9.918   8.264  0.1220 -0.3587  1.8215
  931MOL0     H28450  12.029   9.908   8.370 -1.4674 -1.8893  0.1698
  931MOL0     H28451  11.998  10.017   8.226 -2.1883  0.7897 -0.6438
  931MOL0     H28452  11.850  10.016   8.495  0.4992  2.1240  1.1940
  931MOL0     H28453  11.809  10.128   8.362  0.9457  0.8932 -0.6224
  931MOL0     H28454  12.064  10.211   8.387 -1.0522  4.6469  0.6765
  931MOL0     H28455  12.039  10.126   8.543  2.1931 -0.4405 -1.9050
  931MOL0     H28456  11.864  10.266   8.600  1.0027  1.6176  1.6783
  931MOL0     H28457  11.833  10.340   8.438 -0.9642  2.3164  2.6841
  931MOL0     H28458  11.548   9.766   7.812 -1.6097  2.6783 -3.2560
  931MOL0     H28459  11.303   9.722   7.777  1.0357  2.9680 -1.4592
  931MOL0     H28460  10.946   9.628   7.895  0.3963  0.7734  3.3205
  931MOL0     H28461  10.738   9.548   7.827 -2.0444  0.0175  1.2020
  931MOL0     H28462   9.073  10.511   8.584 -1.9436  0.4505  1.6173
  931MOL0     H28463   8.841  10.412   8.621 -0.1123  0.7122  0.1706
  931MOL0     H28464   8.515  10.252   8.578 -2.7152  0.2616 -3.0456
  931MOL0     H28465   8.305  10.196   8.662 -2.0057  0.5091 -0.0468
  931MOL0     H28466   8.099  10.050   8.783 -1.6440  1.5658 -0.1963
  931MOL0     H28467   8.097  10.150   8.639  2.4216  0.0877 -1.9944
  931MOL0     H28468   7.906  10.007   8.555 -2.8743  0.9402  1.1892
  931MOL0     H28469   7.864  10.074   8.710 -0.7923  0.5244 -0.9856
  931MOL0     H28470   7.986   9.793   8.691  1.9860  3.4312 -2.4816
  931MOL0     H28471   7.931   9.876   8.838  2.3189 -0.0183  0.4327
  931MOL0     H28472   7.704   9.872   8.794  0.5225  2.2813 -0.8264
  931MOL0     H28473   7.777   9.711   8.757  2.3406  0.7838 -0.6576
  931MOL0     H28474   7.648   9.851   8.372 -1.7983 -0.9636 -0.3762
  931MOL0     H28475   8.354   9.794   8.494  0.0528  0.3544 -2.2954
  931MOL0     H28476   8.671   9.791   8.421 -1.3172 -2.0730  0.8755
  931MOL0     H28477   8.510   9.728   8.389 -0.6352  0.4507  2.0713
  931MOL0     H28478   8.561   9.862   8.281 -0.1455 -1.4531 -1.3826
  932MOL0     O28479  10.654   7.041   9.763  0.1023  0.8851  0.2923
  932MOL0     C28480  10.544   7.092   9.798 -0.4826  0.2035  0.2433
  932MOL0     O28481  10.532   7.225   9.825 -0.0957 -0.0104 -0.1560
  932MOL0     C28482  10.633   7.313   9.800 -0.3511 -0.1477  0.1475
  932MOL0     C28483  10.590   7.446   9.807 -0.0811  0.4923  0.4608
  932MOL0     C28484  10.686   7.545   9.831 -0.3599  0.1120 -0.0782
  932MOL0     C28485  10.823   7.524   9.822  0.0569  0.4249 -0.6344
  932MOL0     O28486  10.900   7.641   9.832 -0.3663  0.7269  0.0002
  932MOL0     C28487  11.043   7.622   9.831  0.3460 -0.1688 -0.0623
  932MOL0     C28488  11.121   7.747   9.872  0.1970  0.2840 -0.5237
  932MOL0     C28489  11.084   7.879   9.797  0.2498 -0.3289  0.0750
  932MOL0     C28490  11.129   7.875   9.653  1.2335  0.0151  0.2464
  932MOL0     C28491  11.277   7.866   9.657  0.3801  0.6979  0.1385
  932MOL0     C28492  11.335   7.904   9.525  0.4250 -0.5091 -0.9445
  932MOL0     C28493  11.486   7.935   9.538 -0.5128  0.3895  0.4911
  932MOL0     C28494  11.577   7.909   9.418 -0.4560 -0.3648 -0.3864
  932MOL0     N28495  11.717   7.878   9.444 -0.8367  0.2087  0.2487
  932MOL0     C28496  11.810   7.965   9.406  0.2860 -1.3985 -0.8594
  932MOL0     C28497  11.934   7.915   9.436  0.0836 -0.2634 -0.8033
  932MOL0     C28498  12.069   7.986   9.407  0.2891  0.5648 -0.3232
  932MOL0     C28499  12.188   7.894   9.448  0.2714  0.6221  0.0181
  932MOL0     C28500  12.310   7.933   9.358 -0.4027  0.1790  0.1378
  932MOL0     C28501  12.367   8.072   9.393 -0.0968 -0.2459 -0.3333
  932MOL0     O28502  12.463   8.123   9.293 -0.3811 -0.3586  0.3566
  932MOL0     C28503  12.595   8.095   9.292 -0.1396 -0.7745 -0.4141
  932MOL0     C28504  12.673   8.179   9.216 -0.0458  0.3205  0.0343
  932MOL0     C28505  12.809   8.168   9.207 -0.1938 -0.4579  0.1283
  932MOL0     C28506  12.874   8.249   9.097  0.3824 -0.5310 -0.4327
  932MOL0     C28507  12.878   8.070   9.282 -0.2474  0.9098  0.2120
  932MOL0     C28508  13.024   8.045   9.287  0.0163  0.8371  0.7948
  932MOL0     O28509  13.068   7.922   9.330 -0.2767 -0.7004  0.0824
  932MOL0     C28510  13.196   7.878   9.337 -0.8134  0.7125 -0.4361
  932MOL0     C28511  13.314   7.952   9.304  0.3347  0.2872  0.0670
  932MOL0     C28512  13.435   7.890   9.312 -0.2654 -0.1939 -0.2343
  932MOL0     C28513  13.455   7.767   9.379 -0.5241 -0.2202 -0.0945
  932MOL0     O28514  13.581   7.725   9.403 -0.1133 -0.7000 -1.0886
  932MOL0     C28515  13.613   7.693   9.540 -0.3291  0.5123 -0.0969
  932MOL0     C28516  13.762   7.702   9.570 -0.3693  0.1359 -0.1229
  932MOL0     C28517  13.825   7.831   9.525  0.0363  0.2491 -0.3555
  932MOL0     C28518  13.973   7.827   9.559  0.0509  0.8896 -0.7983
  932MOL0     C28519  14.050   7.954   9.540  0.0639  0.4094  0.2068
  932MOL0     C28520  14.198   7.919   9.533 -0.6444  0.6102  0.2042
  932MOL0     C28521  14.268   7.894   9.666  0.0021  0.2485 -0.3448
  932MOL0     C28522  14.410   7.841   9.652  0.3987  1.2898  0.6916
  932MOL0    Cl28523  14.516   7.876   9.798 -0.2260 -0.1511 -0.1182
  932MOL0     C28524  13.343   7.698   9.432 -0.1202 -0.4223  0.7324
  932MOL0     C28525  13.218   7.753   9.405 -0.4301 -0.2201  0.7582
  932MOL0     O28526  13.094   8.146   9.283 -0.4778  0.3084  0.0222
  932MOL0     C28527  12.799   7.987   9.368 -1.0868  0.7928  0.2571
  932MOL0     C28528  12.657   7.993   9.366 -0.0367 -0.3191  0.2144
  932MOL0     N28529  11.913   7.787   9.483  0.3108  0.3548  0.2148
  932MOL0     N28530  11.783   7.764   9.486  0.3393 -0.2623  0.3180
  932MOL0     C28531  10.864   7.392   9.799 -0.3786  0.2471  0.1512
  932MOL0     C28532  10.771   7.286   9.806 -1.1500  0.5399 -0.4288
  932MOL0     C28533  10.432   7.002   9.829  0.1290 -0.1200 -0.2784
  932MOL0     C28534  10.340   7.042   9.927  0.6210  0.6875  0.3126
  932MOL0     C28535  10.223   6.968   9.946 -0.6976 -0.0716  0.6361
  932MOL0     C28536  10.206   6.854   9.868 -0.2000 -0.2304  0.1210
  932MOL0     O28537  10.093   6.777   9.872  1.0504  0.5693  0.2705
  932MOL0     C28538   9.985   6.806   9.966 -0.2959 -0.5877  0.1774
  932MOL0     C28539   9.883   6.697   9.948  0.7450 -0.1092  0.0528
  932MOL0     C28540   9.926   6.563  10.005  0.0580  0.1642  0.3789
  932MOL0     C28541   9.819   6.456   9.988  0.6358  0.9956  0.2088
  932MOL0     C28542   9.858   6.330  10.060  0.4245  0.9856 -0.0060
  932MOL0     C28543   9.866   6.226  10.122 -0.2696 -0.1860 -0.4700
  932MOL0     C28544  10.288   6.823   9.768 -0.5574 -0.0842  0.4573
  932MOL0     C28545  10.404   6.902   9.737  0.5850 -0.2743 -0.5775
  932MOL0     C28546  10.495   6.851   9.625 -0.4648  0.1222 -0.0421
  932MOL0     H28547  10.486   7.463   9.834 -0.9449  2.8477 -3.4654
  932MOL0     H28548  10.647   7.642   9.861 -1.2800 -0.3571  0.3035
  932MOL0     H28549  11.067   7.586   9.731 -1.1851 -2.5209  0.3344
  932MOL0     H28550  11.070   7.548   9.907 -0.4400  0.2410  0.6411
  932MOL0     H28551  11.091   7.775   9.974 -1.6007  1.6847 -1.3882
  932MOL0     H28552  11.230   7.731   9.872  0.5184  2.1933  0.2335
  932MOL0     H28553  10.978   7.901   9.810  0.6605  0.6330  2.2632
  932MOL0     H28554  11.131   7.961   9.851  0.3535 -1.6675  2.1234
  932MOL0     H28555  11.081   7.790   9.603  0.5888 -0.0817  1.0109
  932MOL0     H28556  11.104   7.972   9.610  2.6771  0.0842 -0.4897
  932MOL0     H28557  11.313   7.766   9.681 -0.9378  0.7267  2.5001
  932MOL0     H28558  11.320   7.928   9.736 -0.0313 -0.2711  1.1409
  932MOL0     H28559  11.311   7.827   9.452 -2.2044 -1.2961  0.6085
  932MOL0     H28560  11.282   7.992   9.488 -1.5436 -1.8307 -1.4230
  932MOL0     H28561  11.527   7.884   9.625 -0.3242  0.1921  0.2867
  932MOL0     H28562  11.498   8.042   9.557  0.4256  0.5732 -0.9901
  932MOL0     H28563  11.534   7.821   9.368  1.9940 -2.3217  0.7242
  932MOL0     H28564  11.563   8.000   9.359  2.0822  2.0874  2.4616
  932MOL0     H28565  11.789   8.054   9.348  1.2190 -2.3023 -2.6600
  932MOL0     H28566  12.070   8.077   9.467  0.0664 -1.3422  2.8266
  932MOL0     H28567  12.068   8.008   9.300 -0.7632  0.6490 -0.3103
  932MOL0     H28568  12.216   7.902   9.554  3.2554  1.5789 -0.7623
  932MOL0     H28569  12.156   7.793   9.424 -1.0213  0.0178  3.6436
  932MOL0     H28570  12.392   7.862   9.375  0.4052  1.0232 -0.1319
  932MOL0     H28571  12.283   7.926   9.252  2.5749 -4.2411 -0.6323
  932MOL0     H28572  12.287   8.145   9.408  0.7052  0.9907 -1.7726
  932MOL0     H28573  12.422   8.060   9.487  0.2746  1.2188 -0.3369
  932MOL0     H28574  12.618   8.248   9.153  1.7832  0.1511 -1.8722
  932MOL0     H28575  12.799   8.323   9.069 -2.4742 -3.2092 -0.3855
  932MOL0     H28576  12.894   8.180   9.014 -1.2261 -0.0134 -1.2722
  932MOL0     H28577  12.974   8.282   9.126 -0.3370  1.0166  0.3837
  932MOL0     H28578  13.309   8.052   9.264 -1.6224  1.6533  3.3305
  932MOL0     H28579  13.522   7.945   9.279  0.2708 -0.9101 -0.0313
  932MOL0     H28580  13.551   7.759   9.602 -1.5612 -0.5231 -0.1743
  932MOL0     H28581  13.578   7.591   9.560 -0.3178  0.8537  1.8774
  932MOL0     H28582  13.788   7.688   9.676  1.6474 -3.9023 -0.9383
  932MOL0     H28583  13.809   7.623   9.510 -0.1922  0.5155 -0.4909
  932MOL0     H28584  13.778   7.912   9.582 -2.0658 -0.8913 -0.4002
  932MOL0     H28585  13.810   7.852   9.418  0.1779 -1.2206 -0.6756
  932MOL0     H28586  14.017   7.741   9.508 -2.8691 -1.4686  0.3853
  932MOL0     H28587  13.976   7.802   9.666 -0.4788  1.5941 -0.6110
  932MOL0     H28588  14.020   7.982   9.439  1.3361  1.7091  0.1699
  932MOL0     H28589  14.023   8.043   9.597 -0.7294  0.4001 -0.1391
  932MOL0     H28590  14.242   8.008   9.487  0.4390  0.5272  1.0624
  932MOL0     H28591  14.218   7.841   9.459 -0.3289  1.9683 -1.1857
  932MOL0     H28592  14.203   7.829   9.725  0.9580 -0.7307 -0.3358
  932MOL0     H28593  14.269   7.994   9.712 -0.6678  1.3885 -2.6218
  932MOL0     H28594  14.458   7.874   9.559 -3.3833 -0.7093 -2.2892
  932MOL0     H28595  14.400   7.732   9.644  0.2037  1.4503 -2.4983
  932MOL0     H28596  13.347   7.612   9.498  0.8381 -0.3098  0.8314
  932MOL0     H28597  13.133   7.695   9.439 -0.1744  0.9992  3.9145
  932MOL0     H28598  12.841   7.910   9.432 -0.6360  2.7202  2.4255
  932MOL0     H28599  12.597   7.917   9.415 -1.9426 -0.4619 -2.1424
  932MOL0     H28600  10.971   7.372   9.797 -0.5765 -0.9561 -2.5217
  932MOL0     H28601  10.814   7.188   9.824  0.4091  1.5276  1.8062
  932MOL0     H28602  10.360   7.135   9.979  2.3812  0.7474 -0.3955
  932MOL0     H28603  10.162   6.994  10.032  0.5628 -1.2199  1.9305
  932MOL0     H28604  10.024   6.802  10.068 -1.2678 -0.4177  0.5719
  932MOL0     H28605   9.937   6.904   9.959 -2.0441 -1.3824  0.2938
  932MOL0     H28606   9.857   6.685   9.842  0.7925 -1.3744  0.1593
  932MOL0     H28607   9.790   6.720  10.000  1.3650  1.7169  0.4089
  932MOL0     H28608  10.020   6.531   9.958 -1.2119 -1.9017 -0.8794
  932MOL0     H28609   9.946   6.587  10.110  1.0421  2.0006 -0.1817
  932MOL0     H28610   9.798   6.429   9.884  1.5046  0.1469  0.2424
  932MOL0     H28611   9.723   6.495  10.022 -0.0087 -1.1871  1.0543
  932MOL0     H28612   9.872   6.128  10.166 -1.1644 -1.2192 -2.4915
  932MOL0     H28613  10.257   6.741   9.704 -2.4670  1.5645 -0.8574
  932MOL0     H28614  10.453   6.770   9.565  0.3128  0.9318 -1.7754
  932MOL0     H28615  10.522   6.936   9.561  0.6574 -0.0352  0.2061
  932MOL0     H28616  10.589   6.816   9.668 -0.4272 -2.2980 -1.8536
  933MOL0     O28617   2.310   6.028   6.019 -0.6411  0.4213  0.2210
  933MOL0     C28618   2.222   6.089   5.952  0.4235 -0.0092  1.4701
  933MOL0     O28619   2.250   6.195   5.864  0.4814 -0.4645 -1.0258
  933MOL0     C28620   2.385   6.240   5.851  0.2625  0.6504 -0.5251
  933MOL0     C28621   2.428   6.358   5.915 -0.4995  0.3641  0.5632
  933MOL0     C28622   2.559   6.402   5.899  0.0455 -0.0704 -0.1069
  933MOL0     C28623   2.649   6.327   5.827 -0.1470  0.3947  0.1574
  933MOL0     O28624   2.778   6.362   5.842  0.4692  0.3564 -0.5714
  933MOL0     C28625   2.851   6.387   5.722 -0.2760 -0.0559  0.3073
  933MOL0     C28626   2.938   6.515   5.747  0.5423  0.4675 -0.4977
  933MOL0     C28627   3.028   6.538   5.626 -0.2597  0.1170 -0.4823
  933MOL0     C28628   2.954   6.555   5.489  0.2626  0.2167 -0.0975
  933MOL0     C28629   3.052   6.617   5.395 -1.1209 -1.0350  0.1774
  933MOL0     C28630   3.012   6.602   5.247 -0.0640  0.1785 -0.2292
  933MOL0     C28631   2.863   6.637   5.209 -0.3333  0.1371 -0.2392
  933MOL0     C28632   2.855   6.788   5.203  0.3031 -0.1521 -0.8284
  933MOL0     N28633   2.912   6.819   5.075  0.6190  0.7564  0.3051
  933MOL0     C28634   3.042   6.861   5.052  0.0443 -0.0097 -0.3727
  933MOL0     C28635   3.047   6.893   4.923  0.4357 -0.2184 -0.1673
  933MOL0     C28636   3.162   6.943   4.854 -0.4558  0.4559  0.2107
  933MOL0     C28637   3.176   7.092   4.855 -0.6532  0.0106  0.0350
  933MOL0     C28638   3.300   7.134   4.777 -0.3705  0.9094  0.7524
  933MOL0     C28639   3.426   7.140   4.859 -0.1490  0.0248  0.1330
  933MOL0     O28640   3.526   7.201   4.777 -0.1907 -0.3326 -0.3964
  933MOL0     C28641   3.636   7.241   4.844 -0.7090 -0.6370 -0.2140
  933MOL0     C28642   3.658   7.240   4.982  0.1517  0.3535  0.0496
  933MOL0     C28643   3.772   7.270   5.060  0.3858 -0.5571  0.0013
  933MOL0     C28644   3.769   7.250   5.210  0.3812 -0.8289 -0.3511
  933MOL0     C28645   3.889   7.301   4.980  0.2829  0.7555 -0.1669
  933MOL0     C28646   4.019   7.317   5.034  0.3099 -0.6578  0.4761
  933MOL0     O28647   4.095   7.425   4.991 -0.0963  0.1444 -0.4614
  933MOL0     C28648   4.222   7.444   5.036 -0.1948  0.0923 -1.0454
  933MOL0     C28649   4.270   7.540   5.123  0.0778  0.3784 -0.9682
  933MOL0     C28650   4.402   7.531   5.166  0.3711 -0.4457 -0.6939
  933MOL0     C28651   4.487   7.442   5.114  0.3018  0.2697 -0.2104
  933MOL0     O28652   4.617   7.447   5.167 -0.0289 -0.1202 -0.2758
  933MOL0     C28653   4.667   7.327   5.216 -0.2310 -0.1698  0.9604
  933MOL0     C28654   4.819   7.312   5.177 -0.0180  0.6200  0.9966
  933MOL0     C28655   4.881   7.189   5.244  0.3091 -1.3288 -0.0921
  933MOL0     C28656   5.008   7.149   5.182 -0.1890  0.5690 -0.6089
  933MOL0     C28657   5.055   7.016   5.242 -0.1411  0.5617  0.9546
  933MOL0     C28658   5.202   7.018   5.312 -0.1689 -0.2517  0.2483
  933MOL0     C28659   5.267   6.877   5.308  0.5446  0.3583 -0.0046
  933MOL0     C28660   5.194   6.776   5.387  0.0497  0.5179  0.1450
  933MOL0    Cl28661   5.281   6.627   5.384 -0.0958  0.3957 -0.2855
  933MOL0     C28662   4.447   7.360   5.009 -0.2350 -1.0749  0.1966
  933MOL0     C28663   4.316   7.355   4.976  0.4186 -0.4698  1.1427
  933MOL0     O28664   4.054   7.230   5.108 -0.3736  0.1800 -0.0509
  933MOL0     C28665   3.872   7.318   4.841  0.3255  1.4464  0.2506
  933MOL0     C28666   3.751   7.289   4.775  0.1187  0.2385  0.7105
  933MOL0     N28667   2.919   6.881   4.870 -0.0160 -0.5405 -0.0189
  933MOL0     N28668   2.839   6.837   4.956  0.1582 -0.6725 -0.8443
  933MOL0     C28669   2.612   6.215   5.752 -1.0869 -0.6775 -0.5022
  933MOL0     C28670   2.479   6.172   5.766  0.0900  0.3913 -0.0806
  933MOL0     C28671   2.077   6.064   5.973 -0.2741  0.4319 -0.5654
  933MOL0     C28672   1.983   6.151   5.910  0.4880 -0.2193  0.2044
  933MOL0     C28673   1.843   6.137   5.930  0.2049 -0.3573  0.3218
  933MOL0     C28674   1.796   6.029   6.005  0.3126 -0.0549 -0.5389
  933MOL0     O28675   1.664   6.011   6.021 -0.3469 -0.1654  0.5628
  933MOL0     C28676   1.602   5.904   6.099 -0.0416 -0.1239 -0.5511
  933MOL0     C28677   1.458   5.944   6.139 -0.2929 -0.3120  0.3104
  933MOL0     C28678   1.363   5.890   6.027  0.7383 -0.7875  0.2370
  933MOL0     C28679   1.214   5.878   6.070 -0.6088  0.5892  1.0074
  933MOL0     C28680   1.120   5.876   5.959 -0.1243 -1.1050 -0.9035
  933MOL0     C28681   1.028   5.863   5.879  0.3301  0.0395 -0.6042
  933MOL0     C28682   1.886   5.946   6.072 -0.2212  0.4094 -0.3185
  933MOL0     C28683   2.024   5.959   6.058 -0.7830  0.8814  0.0429
  933MOL0     C28684   2.104   5.857   6.140  0.9277 -0.9423 -0.4144
  933MOL0     H28685   2.367   6.406   5.990 -0.8761 -1.1498  1.2685
  933MOL0     H28686   2.592   6.489   5.955  0.3328 -0.8604  0.9917
  933MOL0     H28687   2.789   6.427   5.640 -0.3280 -0.9826 -0.1152
  933MOL0     H28688   2.902   6.301   5.679  1.2663  1.8617 -1.9630
  933MOL0     H28689   2.867   6.594   5.775 -2.5691 -2.5846  0.9131
  933MOL0     H28690   2.998   6.500   5.837 -1.7727 -0.7083  0.9476
  933MOL0     H28691   3.092   6.626   5.638 -0.9940  0.6790 -0.6025
  933MOL0     H28692   3.099   6.456   5.615 -0.5759 -0.4846  1.5780
  933MOL0     H28693   2.926   6.458   5.447 -1.2516  0.9207 -0.7909
  933MOL0     H28694   2.873   6.627   5.506  2.3614  2.6586  0.2371
  933MOL0     H28695   3.154   6.577   5.393 -0.9842 -1.0015 -4.2888
  933MOL0     H28696   3.063   6.724   5.418 -0.6383 -1.1001  0.2544
  933MOL0     H28697   3.073   6.653   5.172 -0.9087 -1.3326 -2.0574
  933MOL0     H28698   3.019   6.494   5.228  0.7106  0.6140 -2.8061
  933MOL0     H28699   2.786   6.600   5.277  0.8302  0.3564  1.2539
  933MOL0     H28700   2.834   6.613   5.106 -1.5945  1.9760 -0.3563
  933MOL0     H28701   2.752   6.821   5.219  0.8295  0.8254  0.7578
  933MOL0     H28702   2.907   6.838   5.286 -0.8025 -0.2288 -0.0605
  933MOL0     H28703   3.123   6.868   5.124 -1.5059 -1.1300  1.5608
  933MOL0     H28704   3.158   6.905   4.751 -4.0302 -1.5358  0.9400
  933MOL0     H28705   3.255   6.896   4.888 -0.0586  0.7784 -0.4061
  933MOL0     H28706   3.103   7.149   4.795 -1.0080  0.3743  0.8057
  933MOL0     H28707   3.168   7.141   4.952  1.5465  0.4900  0.0271
  933MOL0     H28708   3.331   7.060   4.702 -2.0597  2.0787 -1.2035
  933MOL0     H28709   3.284   7.234   4.735  1.3009  0.6827 -0.5144
  933MOL0     H28710   3.404   7.204   4.945 -2.7019 -0.8437  0.2152
  933MOL0     H28711   3.463   7.043   4.892  1.9096  1.0705  1.0954
  933MOL0     H28712   3.575   7.199   5.038 -1.0533 -0.0086 -1.9276
  933MOL0     H28713   3.842   7.323   5.248  2.8411 -2.6083 -1.4262
  933MOL0     H28714   3.796   7.151   5.247  0.3956 -1.0083 -0.8351
  933MOL0     H28715   3.671   7.260   5.257 -0.5573 -1.2122 -2.1369
  933MOL0     H28716   4.200   7.611   5.166 -1.0453 -0.4547 -1.3806
  933MOL0     H28717   4.439   7.612   5.228  2.1987 -1.2222 -0.6999
  933MOL0     H28718   4.657   7.353   5.322  2.0777  2.3997  0.6622
  933MOL0     H28719   4.618   7.234   5.186  4.7899 -2.9793  0.2764
  933MOL0     H28720   4.829   7.309   5.068 -1.5179 -0.6490  0.8565
  933MOL0     H28721   4.863   7.409   5.202  0.9797  0.4483 -0.0318
  933MOL0     H28722   4.808   7.109   5.261  0.3109 -1.3997 -0.4120
  933MOL0     H28723   4.916   7.229   5.339  0.9277 -0.2286 -0.7633
  933MOL0     H28724   5.079   7.232   5.187 -2.6499  2.7442  2.1834
  933MOL0     H28725   4.990   7.128   5.077  0.3814 -0.0225 -0.5945
  933MOL0     H28726   4.992   6.976   5.322  0.9069 -0.9937  1.0567
  933MOL0     H28727   5.037   6.934   5.172 -4.4667 -1.7291  4.1999
  933MOL0     H28728   5.201   7.056   5.414  1.1868 -1.0838  0.5970
  933MOL0     H28729   5.264   7.085   5.250  0.8375  0.9146  2.4202
  933MOL0     H28730   5.368   6.882   5.349 -0.1137 -1.8630  2.1349
  933MOL0     H28731   5.266   6.840   5.205  1.0496  1.0089 -0.2472
  933MOL0     H28732   5.090   6.761   5.357 -0.6856  1.5985  2.0180
  933MOL0     H28733   5.189   6.810   5.491  1.0991  1.8567 -0.2139
  933MOL0     H28734   4.514   7.287   4.965 -0.9417 -1.9457  0.5341
  933MOL0     H28735   4.290   7.276   4.907  1.0615 -0.0885  0.4580
  933MOL0     H28736   3.939   7.373   4.776  1.7792  0.3627  0.7732
  933MOL0     H28737   3.739   7.304   4.668  1.2871 -0.0828  0.5256
  933MOL0     H28738   2.687   6.154   5.704 -2.2028 -2.6309  0.1340
  933MOL0     H28739   2.461   6.074   5.722  0.8107 -0.1612  0.8088
  933MOL0     H28740   2.025   6.230   5.849 -1.1672 -0.6103 -1.5212
  933MOL0     H28741   1.774   6.208   5.887 -1.7544 -0.9801  2.2606
  933MOL0     H28742   1.606   5.814   6.037  1.9026 -1.3364  1.2102
  933MOL0     H28743   1.660   5.890   6.190 -1.7927  0.7789  0.7613
  933MOL0     H28744   1.438   6.050   6.159 -0.5836 -0.1039 -0.9578
  933MOL0     H28745   1.429   5.895   6.232 -0.6726 -1.1032 -0.2104
  933MOL0     H28746   1.369   5.964   5.947 -1.0006 -1.2354 -0.3607
  933MOL0     H28747   1.388   5.793   5.985  1.3981  0.6437 -2.9633
  933MOL0     H28748   1.191   5.963   6.134 -0.9323  1.7454 -0.5861
  933MOL0     H28749   1.212   5.784   6.126  3.7474 -0.6025 -0.4142
  933MOL0     H28750   0.941   5.845   5.820  0.3875 -2.5950 -0.0120
  933MOL0     H28751   1.848   5.869   6.139  3.3321 -0.9866  0.2832
  933MOL0     H28752   2.206   5.848   6.102  1.7921  3.1305  0.4784
  933MOL0     H28753   2.107   5.884   6.246 -2.8123  0.2224 -0.4601
  933MOL0     H28754   2.057   5.759   6.133  0.8222 -1.1038  1.7593
  934MOL0     O28755   2.991   5.722   2.442  0.1879  0.9084 -0.3984
  934MOL0     C28756   2.998   5.660   2.336  0.4210 -0.0087  0.6108
  934MOL0     O28757   3.117   5.631   2.271  1.3714  0.2604  0.6134
  934MOL0     C28758   3.230   5.700   2.310  0.8852  0.0991 -0.4576
  934MOL0     C28759   3.231   5.842   2.307  0.0073  0.7792 -0.6751
  934MOL0     C28760   3.351   5.902   2.353  1.0588  0.0266  0.1325
  934MOL0     C28761   3.464   5.827   2.412 -0.0855  0.1105  0.0342
  934MOL0     O28762   3.586   5.881   2.460  0.0057 -0.5450  0.1049
  934MOL0     C28763   3.589   6.019   2.483  0.8722 -0.1160  0.5536
  934MOL0     C28764   3.715   6.064   2.558 -0.3247  0.9313  0.4974
  934MOL0     C28765   3.737   5.978   2.687 -0.3239 -0.0777  0.1598
  934MOL0     C28766   3.775   6.056   2.808  0.1391  0.3699  0.3823
  934MOL0     C28767   3.808   5.971   2.932  0.4328  0.4879  0.0415
  934MOL0     C28768   3.907   5.856   2.919  0.2246  0.0848  0.5076
  934MOL0     C28769   3.944   5.807   3.059 -0.7311 -0.1913  0.3480
  934MOL0     C28770   4.060   5.702   3.051 -0.7258  0.2718  0.6540
  934MOL0     N28771   4.172   5.722   2.956 -0.0273  0.2733  0.6555
  934MOL0     C28772   4.248   5.834   2.944  0.0332  0.1399  0.3286
  934MOL0     C28773   4.338   5.800   2.851 -0.0087  0.6546 -0.5191
  934MOL0     C28774   4.443   5.890   2.788 -0.2698 -0.1301  0.0905
  934MOL0     C28775   4.585   5.832   2.828 -0.1961  0.1575 -1.1501
  934MOL0     C28776   4.641   5.895   2.951 -0.4721  0.0030  0.2828
  934MOL0     C28777   4.746   5.807   3.017  0.3379  0.3880 -1.0000
  934MOL0     O28778   4.868   5.786   2.946  0.2281 -0.2475  0.1460
  934MOL0     C28779   4.965   5.884   2.934 -0.2192 -0.1944 -0.6543
  934MOL0     C28780   4.971   5.999   3.022 -0.0981  0.4185  0.0729
  934MOL0     C28781   5.068   6.103   3.009 -0.3716  0.3722 -0.3951
  934MOL0     C28782   5.059   6.217   3.102  0.3990 -0.9687  0.2336
  934MOL0     C28783   5.162   6.096   2.903 -0.0243  0.2147  0.3110
  934MOL0     C28784   5.271   6.188   2.888  0.2636 -0.4729 -0.3917
  934MOL0     O28785   5.300   6.236   2.767  0.7627  0.6756 -0.7729
  934MOL0     C28786   5.394   6.332   2.751  0.4107  0.1448  0.3618
  934MOL0     C28787   5.414   6.436   2.837 -0.8081 -0.5667  0.0627
  934MOL0     C28788   5.526   6.520   2.811  0.0849 -1.0565 -0.0728
  934MOL0     C28789   5.599   6.509   2.699 -0.3846  0.0278 -0.5404
  934MOL0     O28790   5.713   6.587   2.684  0.1040  0.5798  0.5514
  934MOL0     C28791   5.693   6.721   2.723 -0.7165  0.6987  0.2594
  934MOL0     C28792   5.738   6.824   2.607 -0.9607  0.6136 -0.8280
  934MOL0     C28793   5.888   6.833   2.609  0.3058 -0.3473 -0.2770
  934MOL0     C28794   5.932   6.920   2.495  0.1144 -0.3689 -0.1232
  934MOL0     C28795   6.086   6.934   2.505  0.2090  0.4508  0.2836
  934MOL0     C28796   6.147   6.998   2.380  0.2377  0.2059  0.5791
  934MOL0     C28797   6.293   7.024   2.396 -0.1296  0.4258 -0.4138
  934MOL0     C28798   6.368   7.099   2.281 -0.2913 -0.1983  0.4783
  934MOL0    Cl28799   6.539   7.103   2.329  0.2045 -0.3414 -0.0379
  934MOL0     C28800   5.571   6.408   2.607 -0.1755  0.1499 -1.1339
  934MOL0     C28801   5.464   6.317   2.624  0.2702 -0.3162  0.1079
  934MOL0     O28802   5.326   6.225   2.990 -0.1573  0.3242 -0.2252
  934MOL0     C28803   5.156   5.982   2.817  1.0285  0.4786  0.0290
  934MOL0     C28804   5.059   5.881   2.829  0.3387 -0.8477  0.2214
  934MOL0     N28805   4.325   5.672   2.810 -0.0203  0.0531  0.1664
  934MOL0     N28806   4.220   5.628   2.864 -0.1036 -0.1330  0.1483
  934MOL0     C28807   3.449   5.685   2.411 -0.0272  0.4707 -0.2519
  934MOL0     C28808   3.338   5.628   2.364 -0.1804  0.2501 -0.6940
  934MOL0     C28809   2.868   5.608   2.268 -1.0809  0.2579 -0.3602
  934MOL0     C28810   2.887   5.539   2.148  0.4359  0.1253 -0.0326
  934MOL0     C28811   2.780   5.494   2.079  0.1238 -0.0220  0.0166
  934MOL0     C28812   2.654   5.517   2.120  0.1845 -0.1045  1.3063
  934MOL0     O28813   2.554   5.463   2.041 -0.3288 -0.5243 -0.1074
  934MOL0     C28814   2.462   5.554   1.976 -0.3850  0.4165 -0.2665
  934MOL0     C28815   2.329   5.583   2.035 -0.7594 -0.8483  0.6111
  934MOL0     C28816   2.264   5.703   1.969 -0.3233  0.0143  0.0576
  934MOL0     C28817   2.114   5.707   1.994 -0.3093 -0.2045 -0.1060
  934MOL0     C28818   2.042   5.821   1.944 -1.0036 -0.0932  0.6326
  934MOL0     C28819   1.991   5.918   1.883 -0.1913  0.2803 -0.2854
  934MOL0     C28820   2.628   5.584   2.243 -0.3022  0.1566  0.0207
  934MOL0     C28821   2.734   5.631   2.318 -1.0314  0.1165  0.2510
  934MOL0     C28822   2.701   5.685   2.453 -0.5097  0.0598 -0.0897
  934MOL0     H28823   3.151   5.909   2.277  0.1180  2.5419  2.5547
  934MOL0     H28824   3.366   6.009   2.361  3.5961 -0.3654  1.6083
  934MOL0     H28825   3.498   6.046   2.538 -0.1553 -1.3436 -0.4551
  934MOL0     H28826   3.581   6.068   2.385 -1.7529 -1.0340  0.2187
  934MOL0     H28827   3.807   6.067   2.500 -0.1351  1.9315  0.8347
  934MOL0     H28828   3.708   6.169   2.585  2.2959  1.9408 -2.2484
  934MOL0     H28829   3.650   5.921   2.721 -0.4709  0.2271  0.2952
  934MOL0     H28830   3.825   5.914   2.674 -0.4500 -0.4392  1.0078
  934MOL0     H28831   3.865   6.114   2.782 -0.4567  0.5743 -1.3597
  934MOL0     H28832   3.697   6.128   2.834 -0.4136  0.2161 -0.8251
  934MOL0     H28833   3.723   5.921   2.980  0.4601 -1.5341 -1.8159
  934MOL0     H28834   3.851   6.046   2.998  3.3300  1.7073 -2.9716
  934MOL0     H28835   3.872   5.770   2.862 -1.0036  0.2607  0.9695
  934MOL0     H28836   3.995   5.897   2.867  0.1693  1.8092  1.6633
  934MOL0     H28837   3.851   5.780   3.109 -2.7907  1.1088 -2.5345
  934MOL0     H28838   3.979   5.892   3.118 -2.0113  0.4359  0.2185
  934MOL0     H28839   4.102   5.684   3.150  1.8536 -2.6619 -0.8123
  934MOL0     H28840   4.006   5.612   3.021 -0.4849 -0.0133  1.0767
  934MOL0     H28841   4.246   5.930   2.993  0.7350 -0.2581  1.1576
  934MOL0     H28842   4.441   5.992   2.827 -1.3597 -0.2044  0.2561
  934MOL0     H28843   4.419   5.881   2.682  0.7167  2.7314 -0.4611
  934MOL0     H28844   4.581   5.722   2.835  1.8489  0.0749 -0.6607
  934MOL0     H28845   4.658   5.849   2.748 -0.0198  2.5331 -0.5439
  934MOL0     H28846   4.665   5.995   2.914 -1.8648  0.9050  1.7081
  934MOL0     H28847   4.568   5.914   3.030 -1.4585  1.0368 -0.8393
  934MOL0     H28848   4.768   5.857   3.112  0.1816 -1.9305  0.3315
  934MOL0     H28849   4.691   5.718   3.047  0.4048  0.1614 -1.5424
  934MOL0     H28850   4.909   6.013   3.111 -0.1540  2.1396 -0.2048
  934MOL0     H28851   5.127   6.198   3.186  0.4569 -1.0847  0.1611
  934MOL0     H28852   4.960   6.223   3.147  0.8854  0.3513  1.1985
  934MOL0     H28853   5.072   6.312   3.049  1.4964 -0.8019  0.7661
  934MOL0     H28854   5.359   6.453   2.929 -0.0879 -0.6014  0.5114
  934MOL0     H28855   5.545   6.591   2.891 -0.0005 -0.2006 -0.7922
  934MOL0     H28856   5.586   6.742   2.730 -0.6254  2.5682 -2.4408
  934MOL0     H28857   5.748   6.742   2.815  0.1465  0.4712 -0.1929
  934MOL0     H28858   5.689   6.791   2.515  1.5185 -2.1401 -1.2984
  934MOL0     H28859   5.702   6.925   2.629 -2.7075  0.5253 -2.9517
  934MOL0     H28860   5.929   6.733   2.591 -1.4261 -1.4510  1.4804
  934MOL0     H28861   5.915   6.868   2.709 -0.2968 -0.4767 -0.0658
  934MOL0     H28862   5.894   7.022   2.497 -2.0651 -0.9070 -4.0157
  934MOL0     H28863   5.901   6.876   2.400  1.4779 -3.1941  0.6041
  934MOL0     H28864   6.099   6.984   2.601  0.2266 -0.3800  0.7191
  934MOL0     H28865   6.137   6.837   2.507  1.5783  1.1496  1.2320
  934MOL0     H28866   6.095   7.094   2.370  2.2562  1.2029 -1.0304
  934MOL0     H28867   6.130   6.929   2.297  0.1777  0.5892  0.2708
  934MOL0     H28868   6.356   6.937   2.415  1.8033  1.9497  0.5182
  934MOL0     H28869   6.314   7.070   2.493  0.0806 -2.4786  1.0196
  934MOL0     H28870   6.316   7.194   2.269  0.3277  0.1439  0.5087
  934MOL0     H28871   6.355   7.046   2.186  2.0250  1.3419 -0.7896
  934MOL0     H28872   5.626   6.391   2.515 -2.0121 -0.6029 -2.1434
  934MOL0     H28873   5.458   6.234   2.554  6.4295  0.7237 -2.2312
  934MOL0     H28874   5.215   5.982   2.726 -1.4903 -0.5927 -1.7011
  934MOL0     H28875   5.049   5.804   2.753 -1.3878 -0.5774  0.1344
  934MOL0     H28876   3.524   5.614   2.444 -2.6188 -2.3574 -0.0968
  934MOL0     H28877   3.338   5.520   2.349  2.3977  0.2288 -0.9201
  934MOL0     H28878   2.986   5.509   2.113  0.1785 -1.8432  0.7962
  934MOL0     H28879   2.793   5.448   1.982 -0.0129 -0.3909  0.1740
  934MOL0     H28880   2.508   5.652   1.958  1.9588 -0.0658  2.4229
  934MOL0     H28881   2.433   5.515   1.878 -1.9395 -0.2076  0.4221
  934MOL0     H28882   2.342   5.594   2.143 -3.8926 -3.1122  1.3527
  934MOL0     H28883   2.263   5.498   2.015 -4.5503  2.1202 -0.7436
  934MOL0     H28884   2.307   5.800   1.997  1.3809 -0.8775  0.6551
  934MOL0     H28885   2.269   5.687   1.861 -0.2404  0.8041 -0.0667
  934MOL0     H28886   2.094   5.701   2.102 -0.1242  3.0982  0.2030
  934MOL0     H28887   2.075   5.619   1.941 -3.1991 -1.0272  3.0066
  934MOL0     H28888   1.942   5.999   1.833  1.0387  0.5141 -1.1625
  934MOL0     H28889   2.529   5.604   2.283  0.1109  1.3153  0.5256
  934MOL0     H28890   2.706   5.613   2.534  0.3116 -0.0592 -0.2377
  934MOL0     H28891   2.771   5.767   2.475  0.9898 -1.4547  1.0251
  934MOL0     H28892   2.599   5.725   2.457 -0.5645 -0.1616  3.2782
  935MOL0     O28893   9.558   1.020   8.732 -0.3280  0.1746 -0.1002
  935MOL0     C28894   9.486   1.027   8.632  1.1697  0.2471  1.0277
  935MOL0     O28895   9.531   1.020   8.501 -0.3704  0.3431 -0.2286
  935MOL0     C28896   9.666   0.993   8.460  0.3867  0.3310  0.2512
  935MOL0     C28897   9.774   1.018   8.546  0.6808 -0.3168  0.7118
  935MOL0     C28898   9.901   0.992   8.486 -0.4783 -0.0123  0.0346
  935MOL0     C28899   9.912   0.937   8.355 -0.2114 -0.1512  0.2742
  935MOL0     O28900  10.031   0.899   8.297 -0.4493 -0.2406  0.6436
  935MOL0     C28901  10.153   0.953   8.330 -0.0873 -0.2460 -0.4585
  935MOL0     C28902  10.249   0.913   8.226  0.2743  0.0877 -0.3031
  935MOL0     C28903  10.385   0.986   8.221 -0.4899  0.2820 -0.2407
  935MOL0     C28904  10.462   0.934   8.107 -0.6378 -0.5254  0.7707
  935MOL0     C28905  10.611   0.991   8.110  0.0673  0.0288  0.3114
  935MOL0     C28906  10.692   0.963   8.242  0.4124  0.1374  0.9387
  935MOL0     C28907  10.696   0.815   8.281 -0.0929 -0.2883  0.3264
  935MOL0     C28908  10.806   0.798   8.385 -0.0654 -0.1241 -0.5160
  935MOL0     N28909  10.940   0.820   8.333  0.0214 -0.2453  0.5845
  935MOL0     C28910  10.980   0.802   8.206  0.7372  0.0225  0.2146
  935MOL0     C28911  11.106   0.845   8.211 -0.1127  0.3728  0.2729
  935MOL0     C28912  11.185   0.849   8.085 -0.0556 -0.3906 -0.0755
  935MOL0     C28913  11.257   0.988   8.052 -0.4149 -0.0297 -0.2815
  935MOL0     C28914  11.166   1.071   7.953 -1.0742  0.4633 -0.0574
  935MOL0     C28915  11.025   1.100   8.005  0.0836 -0.5063 -0.6031
  935MOL0     O28916  11.039   1.146   8.139 -0.5790 -0.4076 -0.0545
  935MOL0     C28917  10.939   1.218   8.200 -0.0296  0.0783 -0.4967
  935MOL0     C28918  10.842   1.290   8.144  0.5584 -0.9703  0.3664
  935MOL0     C28919  10.726   1.339   8.208 -0.3850  0.3635  0.2635
  935MOL0     C28920  10.611   1.391   8.126 -0.2656  0.4021  0.0204
  935MOL0     C28921  10.713   1.305   8.348  0.3781  0.3539  0.5720
  935MOL0     C28922  10.583   1.326   8.417 -0.9230  0.0309  0.2405
  935MOL0     O28923  10.480   1.258   8.363  0.7631 -0.0042  0.1403
  935MOL0     C28924  10.353   1.268   8.414 -0.3577  0.7800 -0.2296
  935MOL0     C28925  10.257   1.326   8.327 -0.1180  0.3284 -0.3650
  935MOL0     C28926  10.124   1.341   8.379 -0.6662 -1.5672 -0.3255
  935MOL0     C28927  10.085   1.314   8.509 -0.0430 -0.7658 -0.4485
  935MOL0     O28928   9.961   1.357   8.561 -0.9511 -0.1188  0.3721
  935MOL0     C28929   9.848   1.363   8.477 -0.1819 -0.3397  0.1007
  935MOL0     C28930   9.716   1.333   8.546 -0.5083  0.2945  0.1152
  935MOL0     C28931   9.650   1.450   8.613  0.8918 -0.3928  0.6289
  935MOL0     C28932   9.499   1.422   8.650  0.9427  0.0471  0.1585
  935MOL0     C28933   9.442   1.546   8.725  0.2340 -0.4285  0.0276
  935MOL0     C28934   9.309   1.515   8.797 -0.1902  0.0870  0.6617
  935MOL0     C28935   9.197   1.470   8.709 -0.3939  0.6218  1.2506
  935MOL0     C28936   9.054   1.479   8.767 -0.5784 -0.1625  0.0178
  935MOL0    Cl28937   9.037   1.435   8.939 -0.0880 -0.3210  0.0486
  935MOL0     C28938  10.182   1.270   8.594  0.1644 -0.3506 -0.1282
  935MOL0     C28939  10.313   1.242   8.548 -0.3491  0.3398 -0.1265
  935MOL0     O28940  10.580   1.396   8.531 -0.0777  0.6989  0.2321
  935MOL0     C28941  10.823   1.255   8.417  0.2903 -0.8566  0.4798
  935MOL0     C28942  10.938   1.205   8.338  1.1344  0.2353  0.9928
  935MOL0     N28943  11.138   0.879   8.339  0.7009 -0.8437  0.6482
  935MOL0     N28944  11.036   0.869   8.414  0.6522 -0.6318  0.3804
  935MOL0     C28945   9.800   0.895   8.286 -0.0959  0.4041 -1.0736
  935MOL0     C28946   9.676   0.925   8.335  0.4017 -0.0239  0.3130
  935MOL0     C28947   9.340   1.055   8.659 -0.1976 -0.5140  0.9005
  935MOL0     C28948   9.294   1.055   8.792  0.7369 -0.0300  0.1020
  935MOL0     C28949   9.163   1.087   8.827 -0.2034 -0.5580  0.0987
  935MOL0     C28950   9.063   1.102   8.733 -0.5387 -0.1355  0.7362
  935MOL0     O28951   8.931   1.131   8.741  1.1571 -0.0186 -0.5436
  935MOL0     C28952   8.868   1.135   8.869 -0.5016 -0.6759 -0.1695
  935MOL0     C28953   8.819   0.996   8.916 -0.8510  0.4009 -0.1825
  935MOL0     C28954   8.685   0.946   8.851 -0.5926 -0.6479 -0.2185
  935MOL0     C28955   8.661   0.801   8.883 -0.3631  1.0878  1.1912
  935MOL0     C28956   8.767   0.716   8.834  0.1513 -0.5459 -0.4352
  935MOL0     C28957   8.859   0.646   8.807  0.2060  0.0556 -0.1404
  935MOL0     C28958   9.110   1.109   8.598 -0.2019 -0.1312 -0.0699
  935MOL0     C28959   9.245   1.083   8.560  0.1555  0.7269 -0.8649
  935MOL0     C28960   9.277   1.115   8.418  0.5028 -0.1694 -0.6132
  935MOL0     H28961   9.761   1.047   8.650 -0.8699 -2.1645  1.0963
  935MOL0     H28962   9.987   1.005   8.552  0.7481 -0.8738 -1.3371
  935MOL0     H28963  10.181   0.894   8.419  2.3577 -0.9531 -1.6269
  935MOL0     H28964  10.144   1.058   8.358  0.4512 -0.1746 -0.5580
  935MOL0     H28965  10.262   0.807   8.248 -2.0379 -0.3768 -0.8534
  935MOL0     H28966  10.194   0.922   8.131  2.3472  0.5494 -1.5098
  935MOL0     H28967  10.362   1.091   8.203 -0.5951  0.3050  0.0183
  935MOL0     H28968  10.430   0.976   8.321  0.4905 -0.1220 -0.7053
  935MOL0     H28969  10.471   0.827   8.126 -2.5638 -0.5491  1.7355
  935MOL0     H28970  10.417   0.953   8.009 -0.4861 -0.9802  0.6127
  935MOL0     H28971  10.601   1.099   8.097 -1.0087  0.1251  1.6566
  935MOL0     H28972  10.656   0.940   8.024 -1.6307  1.8800 -1.7817
  935MOL0     H28973  10.794   0.994   8.217  0.6947 -2.2432 -1.1842
  935MOL0     H28974  10.654   1.027   8.322 -0.4394  1.3658 -0.3992
  935MOL0     H28975  10.715   0.758   8.190  0.8753 -1.7071  1.3631
  935MOL0     H28976  10.601   0.790   8.329  0.1187 -0.1055  0.8459
  935MOL0     H28977  10.788   0.872   8.463 -3.9213 -2.7869  1.4286
  935MOL0     H28978  10.813   0.699   8.430  2.0055 -0.8522 -2.2252
  935MOL0     H28979  10.912   0.773   8.127 -0.6686  0.0764  1.3508
  935MOL0     H28980  11.129   0.825   7.994  2.2565  0.5845 -1.8744
  935MOL0     H28981  11.264   0.773   8.086  0.8082  0.4392 -1.3563
  935MOL0     H28982  11.290   1.038   8.143  2.4836 -1.5287 -0.3927
  935MOL0     H28983  11.347   0.952   8.002  0.6167  1.9068  0.1001
  935MOL0     H28984  11.223   1.165   7.956 -0.8764  0.3790 -0.9920
  935MOL0     H28985  11.165   1.022   7.856 -1.4990  0.6229 -0.1338
  935MOL0     H28986  10.986   1.178   7.939  3.2734  2.2557  0.4666
  935MOL0     H28987  10.966   1.009   8.010 -2.5813  1.2010  1.8946
  935MOL0     H28988  10.849   1.310   8.037  3.0664  0.8617  0.7823
  935MOL0     H28989  10.567   1.473   8.184  1.5296  0.8900  0.7583
  935MOL0     H28990  10.536   1.311   8.128 -1.0190  1.0622  2.7081
  935MOL0     H28991  10.636   1.418   8.023 -0.0431  0.9055  0.1998
  935MOL0     H28992  10.270   1.364   8.226 -0.8931 -1.3402 -1.1377
  935MOL0     H28993  10.056   1.384   8.305  2.5183  0.9307 -2.0657
  935MOL0     H28994   9.843   1.461   8.430  1.1780  0.6278  1.8212
  935MOL0     H28995   9.864   1.301   8.389 -0.9187  1.4513 -1.3478
  935MOL0     H28996   9.642   1.289   8.478  0.4918 -1.4239  0.0957
  935MOL0     H28997   9.732   1.255   8.622 -1.9275 -1.5951 -1.3961
  935MOL0     H28998   9.661   1.529   8.538  4.3782 -2.4040 -1.2598
  935MOL0     H28999   9.704   1.480   8.703 -0.6084  0.2400  1.3437
  935MOL0     H29000   9.494   1.337   8.719  0.0165  1.7379  2.2886
  935MOL0     H29001   9.447   1.394   8.558  2.1891 -2.3973  0.1134
  935MOL0     H29002   9.525   1.575   8.791  0.7288  1.5878 -1.3799
  935MOL0     H29003   9.425   1.629   8.656  0.6522  0.9743  1.5226
  935MOL0     H29004   9.275   1.605   8.848 -1.8238 -0.9001  1.4096
  935MOL0     H29005   9.336   1.440   8.872  0.1085 -0.3021  0.1728
  935MOL0     H29006   9.206   1.365   8.681 -0.8735  1.0414 -0.6006
  935MOL0     H29007   9.194   1.525   8.614  0.6070 -2.7167 -0.9100
  935MOL0     H29008   8.989   1.418   8.704  0.0215  0.0870 -0.8619
  935MOL0     H29009   9.019   1.583   8.761 -3.8335 -1.1939 -0.8163
  935MOL0     H29010  10.145   1.236   8.690 -0.0635 -0.1568 -0.1452
  935MOL0     H29011  10.395   1.205   8.609 -0.1961 -1.4847 -1.3440
  935MOL0     H29012  10.815   1.234   8.523  1.0910  3.5242  1.5995
  935MOL0     H29013  11.010   1.142   8.388 -0.6522 -1.2623  1.8245
  935MOL0     H29014   9.791   0.840   8.193 -0.5943 -0.4900 -0.5216
  935MOL0     H29015   9.591   0.893   8.276  1.1865  0.1087 -0.9322
  935MOL0     H29016   9.372   1.036   8.866  1.1957 -3.0524 -1.0410
  935MOL0     H29017   9.140   1.095   8.933  1.9995 -3.3482  0.9199
  935MOL0     H29018   8.936   1.159   8.951 -0.2920 -1.2690 -0.1650
  935MOL0     H29019   8.791   1.212   8.867  0.0141 -0.1385 -2.7764
  935MOL0     H29020   8.803   0.999   9.024 -3.0829 -3.1857 -0.2638
  935MOL0     H29021   8.903   0.928   8.899 -0.1270  1.3842 -0.6175
  935MOL0     H29022   8.611   1.004   8.906 -0.8071  0.6247 -1.7867
  935MOL0     H29023   8.677   0.958   8.743  0.8095 -1.2479 -0.4107
  935MOL0     H29024   8.560   0.768   8.860 -1.2330  2.4791  2.7618
  935MOL0     H29025   8.666   0.796   8.992  0.5724 -1.2928  1.1086
  935MOL0     H29026   8.944   0.587   8.778 -0.8362 -0.5791 -2.0250
  935MOL0     H29027   9.032   1.129   8.525 -3.5219  2.9744  3.8217
  935MOL0     H29028   9.340   1.039   8.371  0.0950 -1.4390  0.8177
  935MOL0     H29029   9.189   1.124   8.353  0.0415  0.7694  0.1097
  935MOL0     H29030   9.334   1.208   8.410  2.0107 -1.1736 -2.3544
  936MOL0     O29031  10.557   7.939   6.215  0.9386  0.3057  0.4927
  936MOL0     C29032  10.481   7.901   6.126 -0.5539 -0.1182  0.5983
  936MOL0     O29033  10.501   7.797   6.040  0.0355 -0.5878 -0.3397
  936MOL0     C29034  10.623   7.729   6.048  0.4374  0.3114  0.4771
  936MOL0     C29035  10.668   7.684   5.924  1.1967 -0.5251  0.0523
  936MOL0     C29036  10.780   7.604   5.919 -0.1511 -0.6332  0.7048
  936MOL0     C29037  10.843   7.553   6.030  0.6116  0.3681 -0.3092
  936MOL0     O29038  10.942   7.469   6.016 -0.2145 -0.0730 -0.3792
  936MOL0     C29039  10.964   7.362   6.113  0.1092  0.0203 -0.1141
  936MOL0     C29040  11.058   7.252   6.053  0.1418  0.1178 -0.6445
  936MOL0     C29041  11.192   7.319   6.006  1.2076 -0.2884 -0.1475
  936MOL0     C29042  11.295   7.204   5.979  0.4263  0.0041 -0.1357
  936MOL0     C29043  11.423   7.272   5.923 -0.2792 -0.8536 -0.8232
  936MOL0     C29044  11.532   7.167   5.896  0.5704 -0.2065  0.3698
  936MOL0     C29045  11.646   7.238   5.836  0.4922 -0.2878 -0.4402
  936MOL0     C29046  11.732   7.143   5.744  0.4055 -0.2801  0.2940
  936MOL0     N29047  11.841   7.218   5.690 -0.2013  0.1340  0.1019
  936MOL0     C29048  11.860   7.266   5.562  0.0029  0.1803  0.4220
  936MOL0     C29049  11.987   7.320   5.555  0.6594  0.3554  0.2031
  936MOL0     C29050  12.061   7.370   5.438  0.4939 -0.1051 -0.4010
  936MOL0     C29051  12.183   7.455   5.467  0.4360 -0.3646  0.0999
  936MOL0     C29052  12.273   7.469   5.349  1.2404 -0.4499 -0.3934
  936MOL0     C29053  12.404   7.545   5.352 -0.3473 -0.7988 -0.5804
  936MOL0     O29054  12.373   7.682   5.384  0.0334  0.3289 -0.3518
  936MOL0     C29055  12.484   7.763   5.409  0.2796 -0.3034 -0.2673
  936MOL0     C29056  12.455   7.892   5.438 -0.9244  1.0568  0.3365
  936MOL0     C29057  12.556   7.994   5.444 -0.0951  0.3978  0.9544
  936MOL0     C29058  12.506   8.127   5.490  0.0277 -0.7138  0.2570
  936MOL0     C29059  12.695   7.957   5.426 -0.4382  0.0177 -0.6969
  936MOL0     C29060  12.812   8.052   5.423 -0.8612  0.0633 -0.3903
  936MOL0     O29061  12.940   8.000   5.435  0.3605 -0.1177  0.1052
  936MOL0     C29062  13.045   8.084   5.430 -0.2072 -0.4309  0.3333
  936MOL0     C29063  13.105   8.108   5.550 -0.4500 -0.2959 -0.1686
  936MOL0     C29064  13.216   8.184   5.546 -0.1735 -0.1457  0.3111
  936MOL0     C29065  13.266   8.255   5.436  0.7047  0.1630  0.3984
  936MOL0     O29066  13.375   8.334   5.456 -0.9885 -0.1673 -0.1706
  936MOL0     C29067  13.440   8.387   5.344 -0.3135  0.5005 -0.1648
  936MOL0     C29068  13.592   8.436   5.376  0.4819 -0.0104  1.2380
  936MOL0     C29069  13.663   8.334   5.460 -0.2168 -0.5323  0.0116
  936MOL0     C29070  13.670   8.376   5.613 -0.1418 -0.5108  0.4329
  936MOL0     C29071  13.671   8.257   5.701  0.2666  0.0716 -0.5888
  936MOL0     C29072  13.660   8.302   5.849  0.7031  0.3160  0.9706
  936MOL0     C29073  13.513   8.356   5.883 -0.3101 -0.5735  0.2035
  936MOL0     C29074  13.501   8.378   6.032 -0.2103  1.1071 -0.7659
  936MOL0    Cl29075  13.604   8.521   6.081  0.3859  0.2327 -0.3983
  936MOL0     C29076  13.194   8.238   5.314 -0.7306  0.3363 -0.5427
  936MOL0     C29077  13.085   8.143   5.304 -0.1473  0.5150 -0.7466
  936MOL0     O29078  12.794   8.164   5.388 -0.4874  0.0249  0.1929
  936MOL0     C29079  12.726   7.824   5.403 -0.1743 -0.2347 -0.3176
  936MOL0     C29080  12.621   7.729   5.390  0.1500  0.5480  0.2870
  936MOL0     N29081  12.042   7.294   5.676  0.4390  0.1786  0.2729
  936MOL0     N29082  11.952   7.246   5.752  0.6583  0.1086  0.4231
  936MOL0     C29083  10.789   7.589   6.150 -0.3634 -0.3792  0.6376
  936MOL0     C29084  10.684   7.684   6.161 -0.1369  0.1709 -0.0297
  936MOL0     C29085  10.356   7.979   6.095  0.2249 -0.7866 -0.0097
  936MOL0     C29086  10.240   7.906   6.066 -0.4414  0.2157 -0.0678
  936MOL0     C29087  10.116   7.974   6.047  0.7105  0.5270  0.1363
  936MOL0     C29088  10.096   8.110   6.065 -1.0745 -0.1149  0.5127
  936MOL0     O29089   9.973   8.160   6.058  0.3659 -0.5932 -0.3966
  936MOL0     C29090   9.966   8.301   6.073  0.4586 -0.7051 -0.1218
  936MOL0     C29091   9.823   8.349   6.103 -0.0541  0.2501 -1.4356
  936MOL0     C29092   9.793   8.314   6.255  0.9336  0.4866 -0.1214
  936MOL0     C29093   9.682   8.399   6.315 -0.4698  0.7597  0.2800
  936MOL0     C29094   9.727   8.524   6.363  0.0719 -0.4997 -0.0235
  936MOL0     C29095   9.780   8.631   6.392  0.0349 -0.1863 -0.3676
  936MOL0     C29096  10.222   8.183   6.085  0.0010 -0.3852  0.6329
  936MOL0     C29097  10.349   8.124   6.105  0.2829  0.0257  0.9952
  936MOL0     C29098  10.458   8.216   6.140  0.0391  0.4481 -0.4222
  936MOL0     H29099  10.626   7.731   5.836 -0.6609 -2.0846  0.0500
  936MOL0     H29100  10.818   7.581   5.820 -1.2497 -0.7694  0.3113
  936MOL0     H29101  10.871   7.309   6.139 -0.2334  0.4214 -0.5182
  936MOL0     H29102  11.007   7.396   6.208  1.3746 -2.5923  0.3454
  936MOL0     H29103  11.071   7.190   6.143 -1.6270 -0.0366 -0.4708
  936MOL0     H29104  11.011   7.193   5.974  1.0514 -0.2031 -0.9685
  936MOL0     H29105  11.180   7.378   5.915  1.5164 -0.2837 -0.1868
  936MOL0     H29106  11.247   7.385   6.073  1.1263 -1.7376  1.4138
  936MOL0     H29107  11.318   7.151   6.072  0.3071  1.9865  1.0757
  936MOL0     H29108  11.247   7.142   5.903  0.9833  2.0294 -2.2692
  936MOL0     H29109  11.463   7.337   6.001  1.8472  1.4874 -3.6242
  936MOL0     H29110  11.408   7.333   5.833  0.2335 -1.4829 -1.3522
  936MOL0     H29111  11.555   7.113   5.988 -3.4782 -2.0330  0.5599
  936MOL0     H29112  11.485   7.098   5.826 -0.7644  0.8772  0.1431
  936MOL0     H29113  11.711   7.273   5.916 -0.4263  1.7702 -0.5358
  936MOL0     H29114  11.607   7.330   5.793  0.8381 -0.0972 -0.3474
  936MOL0     H29115  11.773   7.056   5.796  0.6990 -0.0388  0.4656
  936MOL0     H29116  11.672   7.112   5.658  1.7224 -1.6660 -0.1689
  936MOL0     H29117  11.794   7.252   5.477  0.8421  0.1854 -0.2436
  936MOL0     H29118  11.994   7.418   5.366 -1.9590 -3.4963 -0.6353
  936MOL0     H29119  12.090   7.279   5.385 -1.7114  0.6937 -3.2344
  936MOL0     H29120  12.153   7.556   5.499 -0.7890 -1.2980  2.0929
  936MOL0     H29121  12.232   7.413   5.555 -1.9869 -0.6368  1.3937
  936MOL0     H29122  12.291   7.368   5.313  0.3207 -1.5326  1.9256
  936MOL0     H29123  12.210   7.516   5.273 -0.6634  0.6512  1.7416
  936MOL0     H29124  12.476   7.490   5.414 -1.2085  0.6428  1.8615
  936MOL0     H29125  12.447   7.535   5.252 -0.1834 -0.3696 -0.5561
  936MOL0     H29126  12.349   7.903   5.456 -1.4480  1.5012 -2.6318
  936MOL0     H29127  12.411   8.125   5.545  1.7186 -0.1078  3.4688
  936MOL0     H29128  12.511   8.196   5.405  0.1125  1.1226  1.6865
  936MOL0     H29129  12.571   8.172   5.566 -1.4051  3.0639 -0.5008
  936MOL0     H29130  13.083   8.046   5.635 -1.5416  1.0327  0.5658
  936MOL0     H29131  13.279   8.205   5.632  1.4603  4.2469 -1.6538
  936MOL0     H29132  13.431   8.305   5.272  1.0137  0.3009 -0.1345
  936MOL0     H29133  13.387   8.474   5.303  0.6675  1.5422  0.6962
  936MOL0     H29134  13.645   8.440   5.280  2.7785 -3.6715  2.1790
  936MOL0     H29135  13.595   8.536   5.421  0.6803  1.9645 -2.6908
  936MOL0     H29136  13.763   8.332   5.417 -0.0594  3.1436 -0.1257
  936MOL0     H29137  13.615   8.237   5.443  1.8971 -1.6419  0.0862
  936MOL0     H29138  13.584   8.441   5.635  0.7233  0.2600  1.6647
  936MOL0     H29139  13.765   8.430   5.622  0.6271 -1.1197 -2.8497
  936MOL0     H29140  13.591   8.185   5.682  1.3152 -1.1965 -0.3493
  936MOL0     H29141  13.767   8.205   5.696 -0.4138 -2.0029  3.2987
  936MOL0     H29142  13.733   8.381   5.869 -0.2305  1.5046 -0.1677
  936MOL0     H29143  13.678   8.224   5.924 -0.6518 -1.5504 -0.5360
  936MOL0     H29144  13.446   8.276   5.852 -0.6640 -0.4151  0.5451
  936MOL0     H29145  13.505   8.448   5.825  5.2058  1.9089  2.5971
  936MOL0     H29146  13.533   8.291   6.088 -1.4081 -0.1122 -1.9105
  936MOL0     H29147  13.398   8.404   6.058 -0.6180  0.2857 -1.5075
  936MOL0     H29148  13.213   8.284   5.218 -2.0390 -0.4127 -1.2024
  936MOL0     H29149  13.035   8.131   5.208  0.6015 -3.5367 -0.7906
  936MOL0     H29150  12.830   7.810   5.375  0.1574  2.0759 -0.4488
  936MOL0     H29151  12.648   7.626   5.373 -0.9043 -0.4290  3.7321
  936MOL0     H29152  10.833   7.538   6.235  1.0291  2.2225  1.5865
  936MOL0     H29153  10.655   7.708   6.263  1.7452 -0.9929  0.8342
  936MOL0     H29154  10.235   7.798   6.070 -1.4232  0.2613  0.2861
  936MOL0     H29155  10.025   7.916   6.039  1.3385 -0.5479  0.5824
  936MOL0     H29156  10.028   8.342   6.153 -1.3605 -0.3451  1.1638
  936MOL0     H29157   9.995   8.341   5.975 -0.9111  2.0881  0.5018
  936MOL0     H29158   9.757   8.297   6.033  1.4360 -3.0093 -0.5573
  936MOL0     H29159   9.817   8.458   6.087 -0.7252  0.1180 -2.1440
  936MOL0     H29160   9.753   8.212   6.263 -0.3161  0.6354 -3.3207
  936MOL0     H29161   9.884   8.318   6.315  0.8751 -1.4626  0.1642
  936MOL0     H29162   9.638   8.339   6.395  0.1545 -1.4004 -0.9035
  936MOL0     H29163   9.610   8.416   6.235  0.2799  0.1245 -0.5496
  936MOL0     H29164   9.803   8.734   6.407  0.2719 -0.4669  1.3374
  936MOL0     H29165  10.208   8.290   6.097 -1.0830 -0.4790  0.2285
  936MOL0     H29166  10.424   8.318   6.121 -1.4921 -0.1647 -1.1463
  936MOL0     H29167  10.483   8.198   6.245 -1.0420 -0.0890 -0.2389
  936MOL0     H29168  10.542   8.200   6.071 -1.3037 -0.1947 -1.9883
  937MOL0     O29169  10.504   2.894   7.857  0.4143  0.0070 -0.4763
  937MOL0     C29170  10.394   2.953   7.862 -0.2272  0.2117 -0.7836
  937MOL0     O29171  10.324   2.968   7.973 -0.1714 -0.6599 -0.3257
  937MOL0     C29172  10.372   2.924   8.093 -0.3349 -0.6295 -0.3435
  937MOL0     C29173  10.304   2.827   8.158  0.0656 -0.8404  0.9213
  937MOL0     C29174  10.334   2.798   8.292 -0.8088  0.2086  0.0634
  937MOL0     C29175  10.451   2.859   8.358  0.8000 -0.0823 -0.1679
  937MOL0     O29176  10.495   2.811   8.483  0.1720  0.3110 -0.3049
  937MOL0     C29177  10.553   2.908   8.565  0.6938  0.3049 -0.4272
  937MOL0     C29178  10.581   2.846   8.703 -0.4757 -0.5190 -0.8950
  937MOL0     C29179  10.697   2.755   8.708 -0.3485 -0.4506  0.0981
  937MOL0     C29180  10.823   2.817   8.770  0.3663  0.4706 -0.0903
  937MOL0     C29181  10.939   2.715   8.754 -0.9271  0.7525 -0.1574
  937MOL0     C29182  11.076   2.778   8.764 -0.0061  0.7904 -0.1792
  937MOL0     C29183  11.184   2.671   8.796 -0.2869 -0.4786  0.1544
  937MOL0     C29184  11.319   2.737   8.831  0.8144 -0.0896  0.5109
  937MOL0     N29185  11.429   2.644   8.839  0.1423 -0.3937  0.0129
  937MOL0     C29186  11.415   2.511   8.876  0.2676 -0.2573  0.3304
  937MOL0     C29187  11.541   2.468   8.868 -0.5207  0.2906 -0.9664
  937MOL0     C29188  11.580   2.330   8.902  0.1605 -1.0010  0.7234
  937MOL0     C29189  11.610   2.236   8.777  0.1617 -0.2911  0.2473
  937MOL0     C29190  11.699   2.111   8.813  0.6168 -1.0900  0.3304
  937MOL0     C29191  11.711   2.023   8.681  0.3391 -0.2635 -0.6947
  937MOL0     O29192  11.809   1.914   8.702  0.4441 -0.8216 -0.4582
  937MOL0     C29193  11.945   1.941   8.691  0.5346  0.2841 -0.2600
  937MOL0     C29194  12.034   1.835   8.672 -0.3551 -0.5419  0.9836
  937MOL0     C29195  12.169   1.856   8.641  0.7285 -0.3725  0.4444
  937MOL0     C29196  12.255   1.733   8.637 -0.3984  0.3290  0.4573
  937MOL0     C29197  12.214   1.990   8.636 -0.2617  0.1190 -0.3681
  937MOL0     C29198  12.352   2.025   8.622  0.3994 -0.0547  0.3781
  937MOL0     O29199  12.429   1.970   8.526  0.1287  0.4768  0.0683
  937MOL0     C29200  12.566   1.975   8.545  0.3693 -0.3909 -1.2894
  937MOL0     C29201  12.624   1.912   8.646  0.6146  0.5072 -0.5433
  937MOL0     C29202  12.759   1.917   8.667 -0.4171 -0.7587  0.0974
  937MOL0     C29203  12.843   1.973   8.576 -0.9671 -0.0115 -0.7860
  937MOL0     O29204  12.978   1.968   8.579 -0.3286 -0.7643  0.2784
  937MOL0     C29205  13.043   1.868   8.658  0.2251  0.3287 -0.4012
  937MOL0     C29206  13.171   1.824   8.610  0.2165  1.4436  0.0535
  937MOL0     C29207  13.265   1.933   8.574  0.5775  0.5192 -0.4073
  937MOL0     C29208  13.410   1.881   8.568  0.9653  0.5349  0.0338
  937MOL0     C29209  13.503   1.985   8.508  0.4568 -0.5183 -0.5183
  937MOL0     C29210  13.653   1.937   8.488  0.3002  0.7569 -0.2978
  937MOL0     C29211  13.741   2.040   8.430 -0.5407 -0.0364  0.1180
  937MOL0     C29212  13.810   2.144   8.521  0.3492  0.0505  0.1146
  937MOL0    Cl29213  13.895   2.056   8.651  0.0727  0.4043  0.3133
  937MOL0     C29214  12.783   2.039   8.475  0.2881 -0.2066  0.9171
  937MOL0     C29215  12.642   2.039   8.452  0.0496  0.2970 -0.1868
  937MOL0     O29216  12.391   2.114   8.698 -0.5579 -0.5309  0.0679
  937MOL0     C29217  12.126   2.097   8.652 -0.1125 -0.8343 -0.6549
  937MOL0     C29218  11.994   2.072   8.682 -0.3896 -0.5983  0.2546
  937MOL0     N29219  11.627   2.561   8.822 -0.4566  0.0605 -0.3085
  937MOL0     N29220  11.558   2.668   8.802 -0.8131 -0.6369 -0.0836
  937MOL0     C29221  10.519   2.956   8.283 -1.0140  0.1421 -0.4931
  937MOL0     C29222  10.482   2.984   8.153  0.4174  0.6595 -0.0624
  937MOL0     C29223  10.335   3.009   7.740  0.8123 -0.2803  0.2527
  937MOL0     C29224  10.184   3.024   7.730  0.2491 -0.7260 -0.3187
  937MOL0     C29225  10.126   3.051   7.608  0.0846  0.6776 -0.4342
  937MOL0     C29226  10.207   3.076   7.496  0.8112  0.8085 -0.0415
  937MOL0     O29227  10.144   3.102   7.376  0.3045 -0.4685  0.9955
  937MOL0     C29228  10.182   3.000   7.282 -0.1258  0.6232  1.2341
  937MOL0     C29229  10.078   3.005   7.165 -0.0174 -0.8653 -0.2319
  937MOL0     C29230  10.099   3.140   7.098  0.4137 -0.1339  0.6310
  937MOL0     C29231  10.026   3.150   6.960  0.2950  0.5231 -0.0612
  937MOL0     C29232  10.000   3.289   6.919 -0.4863  0.7488  0.6514
  937MOL0     C29233   9.994   3.403   6.883 -0.0669 -0.8646  0.1480
  937MOL0     C29234  10.344   3.062   7.505 -0.4116 -0.6722 -0.0153
  937MOL0     C29235  10.409   3.030   7.621 -1.3812 -0.0179 -0.5171
  937MOL0     C29236  10.567   3.002   7.611  0.6428 -0.7408 -0.3302
  937MOL0     H29237  10.213   2.784   8.117 -0.2836 -1.1025  1.9317
  937MOL0     H29238  10.275   2.720   8.339 -1.3455  0.8719  0.5014
  937MOL0     H29239  10.488   2.996   8.572  0.2325 -0.0695  0.0403
  937MOL0     H29240  10.652   2.934   8.527  1.0047 -0.5858 -0.2605
  937MOL0     H29241  10.585   2.918   8.786  0.6756 -2.7535  1.0909
  937MOL0     H29242  10.491   2.792   8.734  0.9371 -1.8679  1.0534
  937MOL0     H29243  10.674   2.660   8.758 -5.4731 -0.0946 -1.0997
  937MOL0     H29244  10.711   2.726   8.603 -1.2118 -0.3092 -0.0604
  937MOL0     H29245  10.853   2.910   8.721  2.7047 -0.3840 -0.4051
  937MOL0     H29246  10.819   2.830   8.879  1.3367  0.6871 -0.0687
  937MOL0     H29247  10.932   2.653   8.664  2.4880  0.3108 -0.2653
  937MOL0     H29248  10.930   2.649   8.840  1.0004 -2.7562 -2.4207
  937MOL0     H29249  11.113   2.820   8.670  0.8502  0.4357 -0.0112
  937MOL0     H29250  11.072   2.856   8.841  2.7547 -0.2646  1.1938
  937MOL0     H29251  11.187   2.605   8.709  2.3651  0.7350 -0.7856
  937MOL0     H29252  11.163   2.607   8.882  3.2520 -1.1212  0.6706
  937MOL0     H29253  11.336   2.814   8.756 -0.3000  1.3400  1.6392
  937MOL0     H29254  11.306   2.788   8.927  0.1546  0.8787 -0.0721
  937MOL0     H29255  11.331   2.442   8.889  3.2208 -3.8818  1.9816
  937MOL0     H29256  11.510   2.301   8.982  2.5309  0.2958  3.4253
  937MOL0     H29257  11.676   2.339   8.953  0.9799  2.2080 -1.1522
  937MOL0     H29258  11.512   2.198   8.745 -0.2832  0.5469  0.5810
  937MOL0     H29259  11.655   2.293   8.695  2.2607  0.5956  1.9235
  937MOL0     H29260  11.795   2.151   8.846 -0.5490  1.4685  0.8970
  937MOL0     H29261  11.654   2.052   8.893 -0.1543 -0.9189  0.0362
  937MOL0     H29262  11.615   1.973   8.666  0.1160  0.6579 -2.5922
  937MOL0     H29263  11.728   2.095   8.600  0.7618 -2.0131 -2.2500
  937MOL0     H29264  11.989   1.736   8.676 -1.6625 -0.5260 -4.9028
  937MOL0     H29265  12.302   1.710   8.732  1.9066 -1.1771 -0.9478
  937MOL0     H29266  12.332   1.739   8.559 -0.4311  3.6848  0.5481
  937MOL0     H29267  12.186   1.653   8.609  0.3548  0.5427 -2.3697
  937MOL0     H29268  12.561   1.837   8.693  0.5235  0.2233 -1.1031
  937MOL0     H29269  12.801   1.871   8.755 -0.8786 -0.2780  0.5746
  937MOL0     H29270  13.069   1.903   8.758  0.5571 -1.5003  0.1787
  937MOL0     H29271  12.983   1.780   8.682  2.6991 -0.8060  2.1073
  937MOL0     H29272  13.222   1.758   8.680 -2.0387 -1.0274 -0.4766
  937MOL0     H29273  13.147   1.764   8.521 -2.5377 -0.0666  1.6711
  937MOL0     H29274  13.255   2.022   8.637  0.8668  0.7163 -0.6429
  937MOL0     H29275  13.238   1.967   8.474  0.1371 -0.2315 -0.5564
  937MOL0     H29276  13.413   1.786   8.513 -2.1436  0.6984 -0.5864
  937MOL0     H29277  13.439   1.857   8.671  1.9784  1.3400 -0.0435
  937MOL0     H29278  13.464   2.007   8.408  0.3316 -0.2946 -0.4209
  937MOL0     H29279  13.503   2.079   8.562  1.4029 -1.1998  0.7047
  937MOL0     H29280  13.638   1.850   8.423 -0.7202  0.2474  0.5892
  937MOL0     H29281  13.695   1.912   8.586  0.3197  0.0894 -0.4717
  937MOL0     H29282  13.682   2.100   8.360 -2.1457  3.0624  3.7821
  937MOL0     H29283  13.820   1.986   8.376 -1.7024 -2.4104  0.6635
  937MOL0     H29284  13.728   2.196   8.571  2.1441  0.8119  2.4752
  937MOL0     H29285  13.883   2.216   8.480 -0.7165  1.7239  1.0326
  937MOL0     H29286  12.837   2.100   8.404  1.6361  1.2001  3.0234
  937MOL0     H29287  12.596   2.074   8.360 -2.0255 -1.0340  0.2791
  937MOL0     H29288  12.151   2.203   8.649 -2.5883 -0.0040  2.3185
  937MOL0     H29289  11.934   2.163   8.678  0.7874  0.2013  0.3110
  937MOL0     H29290  10.606   3.012   8.317 -1.0089  1.2389 -2.1671
  937MOL0     H29291  10.534   3.064   8.100  0.7264  0.9755  0.6928
  937MOL0     H29292  10.122   3.006   7.817 -1.1899 -0.0486 -1.1501
  937MOL0     H29293  10.018   3.065   7.611 -0.3607 -1.9844 -1.0650
  937MOL0     H29294  10.280   3.025   7.242 -0.5690  2.5043  1.2039
  937MOL0     H29295  10.182   2.901   7.328 -1.2937  1.3328  2.8599
  937MOL0     H29296   9.983   2.979   7.212  0.0963  1.5715  1.5426
  937MOL0     H29297  10.125   2.938   7.092  1.9088  1.3772 -1.1594
  937MOL0     H29298  10.060   3.222   7.159  2.1828  1.1074  0.1828
  937MOL0     H29299  10.207   3.153   7.089  0.9904 -2.4246  3.0583
  937MOL0     H29300   9.938   3.094   6.992  0.5900 -0.0827 -0.2939
  937MOL0     H29301  10.076   3.089   6.884  3.0328  2.1525  0.2971
  937MOL0     H29302   9.984   3.496   6.831 -0.6186 -2.3599 -2.5994
  937MOL0     H29303  10.400   3.085   7.415  0.9054  0.2547  1.0075
  937MOL0     H29304  10.605   3.068   7.532 -0.9787 -0.2315 -0.7335
  937MOL0     H29305  10.614   3.031   7.705 -0.6656  3.3274 -0.7128
  937MOL0     H29306  10.592   2.898   7.589 -1.4052 -1.5676  1.0107
  938MOL0     O29307   3.302  11.285   3.172 -0.4845  0.0668  0.0192
  938MOL0     C29308   3.271  11.367   3.082  0.4003 -0.4890 -0.3692
  938MOL0     O29309   3.344  11.468   3.036 -0.5674  0.3351 -0.0880
  938MOL0     C29310   3.481  11.448   3.040  1.1491  0.0465 -0.2565
  938MOL0     C29311   3.551  11.565   3.078 -0.1162 -0.5388  0.3157
  938MOL0     C29312   3.687  11.556   3.089 -0.5953  0.4420  0.5262
  938MOL0     C29313   3.755  11.442   3.051 -0.7002 -0.4532  0.2338
  938MOL0     O29314   3.889  11.440   3.063  0.0333  0.8230  0.8460
  938MOL0     C29315   3.972  11.373   2.963  0.7269 -0.7081 -0.4774
  938MOL0     C29316   4.111  11.431   2.940  0.1952 -0.4267  0.2172
  938MOL0     C29317   4.215  11.391   3.048  0.9430  0.0098  0.0448
  938MOL0     C29318   4.356  11.439   3.002  0.8085  0.4529  0.6104
  938MOL0     C29319   4.474  11.353   3.078  0.8572 -0.0491 -0.4783
  938MOL0     C29320   4.613  11.381   3.026 -0.0504  0.2075 -0.0437
  938MOL0     C29321   4.728  11.312   3.113 -0.6386  0.2804  0.8018
  938MOL0     C29322   4.862  11.370   3.075  0.3808  0.3626 -0.1925
  938MOL0     N29323   4.920  11.320   2.945  0.1198 -0.2989  0.3278
  938MOL0     C29324   4.927  11.386   2.830  0.4937 -0.6917 -0.5913
  938MOL0     C29325   4.995  11.304   2.747  0.3518  0.9071 -0.5426
  938MOL0     C29326   5.059  11.350   2.618  0.3880  0.7433 -0.1080
  938MOL0     C29327   5.141  11.476   2.658 -0.1515 -0.0127  0.7509
  938MOL0     C29328   5.224  11.522   2.541  0.4174 -0.7354  0.2773
  938MOL0     C29329   5.353  11.598   2.581  1.1233  0.1449 -0.5532
  938MOL0     O29330   5.439  11.628   2.469 -0.1275  0.0300 -0.1805
  938MOL0     C29331   5.576  11.619   2.488 -0.3747  0.3337  0.6992
  938MOL0     C29332   5.652  11.662   2.380  0.0268 -1.1259  0.0744
  938MOL0     C29333   5.782  11.651   2.368 -0.4789  0.5890 -0.2799
  938MOL0     C29334   5.850  11.696   2.242  0.0147 -0.1653  0.4443
  938MOL0     C29335   5.855  11.596   2.481  0.5265 -0.1494  0.0114
  938MOL0     C29336   5.999  11.565   2.466  0.8471  0.6826  0.2378
  938MOL0     O29337   6.065  11.576   2.587  0.2653  0.4550  0.3425
  938MOL0     C29338   6.200  11.550   2.588 -0.3348  0.0527  0.5287
  938MOL0     C29339   6.244  11.424   2.614 -0.8872 -0.2046  1.1278
  938MOL0     C29340   6.378  11.396   2.617 -0.0380 -0.5016  0.7441
  938MOL0     C29341   6.475  11.494   2.614  0.6420  0.0736  0.1131
  938MOL0     O29342   6.608  11.467   2.621 -0.3666 -0.1462  0.4746
  938MOL0     C29343   6.666  11.492   2.749 -1.2437 -0.3090 -0.1190
  938MOL0     C29344   6.814  11.473   2.761  0.1727 -0.3875  0.1022
  938MOL0     C29345   6.878  11.513   2.624  0.1210 -0.0405 -0.4603
  938MOL0     C29346   7.035  11.521   2.627  0.3115 -0.3691  0.7345
  938MOL0     C29347   7.118  11.396   2.573 -0.1914  1.0912  0.4319
  938MOL0     C29348   7.263  11.435   2.542  0.3712 -0.3501 -0.7083
  938MOL0     C29349   7.329  11.466   2.676 -0.3912 -0.7751  1.1558
  938MOL0     C29350   7.479  11.471   2.656  0.3148 -0.8081 -0.9973
  938MOL0    Cl29351   7.558  11.500   2.811  0.2494 -0.3510  0.3139
  938MOL0     C29352   6.437  11.624   2.580  0.0437  0.0443  0.7153
  938MOL0     C29353   6.304  11.651   2.560  0.1065 -0.4532 -0.2941
  938MOL0     O29354   6.056  11.533   2.358  0.6044  0.3484 -0.2694
  938MOL0     C29355   5.782  11.556   2.590 -0.3451 -0.2779  0.4354
  938MOL0     C29356   5.644  11.573   2.596  0.9758  0.1970 -0.1225
  938MOL0     N29357   5.019  11.186   2.811 -0.3582  0.1597 -0.9599
  938MOL0     N29358   4.969  11.198   2.936  0.3721 -0.9850  0.6978
  938MOL0     C29359   3.689  11.327   3.001  0.1227  0.1559  0.5410
  938MOL0     C29360   3.550  11.334   2.998 -0.5096  0.7382  0.3153
  938MOL0     C29361   3.131  11.352   3.023 -0.2640  0.2237  0.0614
  938MOL0     C29362   3.090  11.451   2.933 -0.6681  0.1169  0.4417
  938MOL0     C29363   2.958  11.461   2.880 -0.5833 -0.8562  0.0538
  938MOL0     C29364   2.876  11.359   2.897  0.5631  0.4608  0.1140
  938MOL0     O29365   2.745  11.366   2.840  1.1374 -0.1674  0.1310
  938MOL0     C29366   2.641  11.281   2.877  0.3766 -0.1258  0.5958
  938MOL0     C29367   2.504  11.332   2.814  0.6153  0.4338 -0.7385
  938MOL0     C29368   2.382  11.236   2.846 -0.2579  0.0352  0.1176
  938MOL0     C29369   2.292  11.234   2.729 -0.6109 -0.6553  0.3462
  938MOL0     C29370   2.184  11.141   2.741 -0.1956 -0.1162  0.0322
  938MOL0     C29371   2.103  11.058   2.774 -0.0242 -0.5198 -0.4415
  938MOL0     C29372   2.922  11.245   2.966  0.4353  0.7471 -0.2480
  938MOL0     C29373   3.046  11.239   3.032 -0.1123  0.1654 -0.0843
  938MOL0     C29374   3.087  11.114   3.109  0.4632  0.3760  0.0746
  938MOL0     H29375   3.491  11.653   3.100  0.4859 -0.4346  1.6514
  938MOL0     H29376   3.759  11.627   3.128 -1.1383 -0.0416  2.5405
  938MOL0     H29377   3.917  11.361   2.869  0.1161 -3.5715  0.1282
  938MOL0     H29378   3.992  11.268   2.988  1.0193 -1.1845 -2.5477
  938MOL0     H29379   4.140  11.405   2.838 -0.8304 -0.4604 -0.0743
  938MOL0     H29380   4.105  11.540   2.932  1.2834 -0.3154  0.6826
  938MOL0     H29381   4.190  11.437   3.143 -0.1083  2.4597 -1.3287
  938MOL0     H29382   4.212  11.282   3.056 -1.4230  0.0590  0.4708
  938MOL0     H29383   4.380  11.416   2.898  2.3273 -0.7442  1.1934
  938MOL0     H29384   4.364  11.548   3.016 -0.3233  0.2970  2.9887
  938MOL0     H29385   4.447  11.247   3.077 -0.9558  0.3667 -0.1675
  938MOL0     H29386   4.468  11.384   3.183  2.5544  0.4010 -0.4907
  938MOL0     H29387   4.609  11.349   2.921  0.5256 -1.4528  0.4080
  938MOL0     H29388   4.620  11.490   3.031  2.7628  0.0503  1.4159
  938MOL0     H29389   4.738  11.204   3.120  0.0568  0.1845 -1.1662
  938MOL0     H29390   4.719  11.357   3.213  2.0627  0.6552  0.9570
  938MOL0     H29391   4.866  11.479   3.081 -0.8221  0.3481  2.9905
  938MOL0     H29392   4.927  11.344   3.160 -2.8511 -1.0917  2.0583
  938MOL0     H29393   4.907  11.491   2.811 -1.9638 -0.9262  0.3352
  938MOL0     H29394   4.975  11.386   2.558 -0.7540  0.5295  1.3236
  938MOL0     H29395   5.120  11.269   2.575  0.0596  1.5503 -2.2441
  938MOL0     H29396   5.066  11.549   2.691 -3.4028 -3.3013  1.3937
  938MOL0     H29397   5.216  11.455   2.734  3.4948  1.1825 -2.2127
  938MOL0     H29398   5.243  11.439   2.473 -2.7281 -0.0540 -1.6345
  938MOL0     H29399   5.169  11.597   2.482 -1.2137  0.7192  3.3955
  938MOL0     H29400   5.328  11.688   2.638 -1.5866 -1.1910  0.5530
  938MOL0     H29401   5.396  11.532   2.657 -1.3198 -0.7547  0.1619
  938MOL0     H29402   5.589  11.710   2.306  0.4934 -1.1574 -0.3484
  938MOL0     H29403   5.861  11.612   2.173  0.6095  3.0830 -3.8112
  938MOL0     H29404   5.944  11.749   2.258  0.8150 -1.5597  0.4957
  938MOL0     H29405   5.780  11.759   2.185  2.5175  1.3482 -1.1600
  938MOL0     H29406   6.169  11.349   2.636 -1.5354  0.4097  1.0646
  938MOL0     H29407   6.407  11.293   2.637  0.3175 -0.6250 -0.3513
  938MOL0     H29408   6.652  11.596   2.780  1.5859 -0.2589  1.3610
  938MOL0     H29409   6.614  11.430   2.824 -1.9609 -1.2455 -1.3460
  938MOL0     H29410   6.848  11.531   2.846  2.2388  0.1394 -1.0149
  938MOL0     H29411   6.834  11.365   2.769  0.7050 -0.1440  3.0080
  938MOL0     H29412   6.839  11.613   2.601  1.0184  0.9824  2.0431
  938MOL0     H29413   6.858  11.442   2.543  0.9505 -1.4677  0.5432
  938MOL0     H29414   7.074  11.534   2.729  2.5128 -0.5581 -0.0281
  938MOL0     H29415   7.050  11.610   2.566 -0.6244 -0.3988  0.4440
  938MOL0     H29416   7.123  11.309   2.640  0.9474 -1.0148 -2.2216
  938MOL0     H29417   7.067  11.346   2.491  0.0687 -0.6288  1.2728
  938MOL0     H29418   7.262  11.532   2.491 -0.1005  0.1933  0.3078
  938MOL0     H29419   7.318  11.357   2.487  1.4825  1.0458 -1.6411
  938MOL0     H29420   7.294  11.394   2.751 -3.3146 -1.3173 -0.5795
  938MOL0     H29421   7.302  11.567   2.706 -1.2147 -0.7053  0.2020
  938MOL0     H29422   7.506  11.556   2.593  2.2735  0.4132  1.3393
  938MOL0     H29423   7.511  11.381   2.602 -0.5023  0.4332 -3.7217
  938MOL0     H29424   6.509  11.703   2.564  0.6185 -0.4790  0.7149
  938MOL0     H29425   6.265  11.748   2.532  1.6009  0.0303 -0.7915
  938MOL0     H29426   5.816  11.512   2.684  0.9515 -1.0934 -0.3683
  938MOL0     H29427   5.596  11.546   2.689 -1.4221 -2.1011 -1.8940
  938MOL0     H29428   3.744  11.237   2.978  1.6119  0.2408  3.3984
  938MOL0     H29429   3.499  11.249   2.955 -2.3871  1.2204  1.4645
  938MOL0     H29430   3.158  11.529   2.902 -1.4350  1.3812  1.7842
  938MOL0     H29431   2.933  11.551   2.824  1.5124  0.5030  1.1782
  938MOL0     H29432   2.667  11.181   2.843  0.9494 -0.5662  2.2514
  938MOL0     H29433   2.641  11.277   2.986 -1.7079 -2.2727  0.5918
  938MOL0     H29434   2.510  11.342   2.705  0.4308  1.9286 -0.6318
  938MOL0     H29435   2.490  11.431   2.860  1.8100 -0.8138  2.6183
  938MOL0     H29436   2.426  11.140   2.871  3.0312  1.3837  0.0281
  938MOL0     H29437   2.326  11.254   2.938  0.2623 -1.9564  0.8735
  938MOL0     H29438   2.354  11.208   2.643 -0.5966 -1.5235  0.6071
  938MOL0     H29439   2.257  11.337   2.715  1.3300  0.0906  0.6183
  938MOL0     H29440   2.024  10.993   2.804 -0.0105 -0.7060 -0.8111
  938MOL0     H29441   2.852  11.162   2.972 -0.4042  1.4542  0.0172
  938MOL0     H29442   3.103  11.134   3.216  1.5671  0.7461 -0.1454
  938MOL0     H29443   3.026  11.026   3.086 -0.6757  1.0342  0.4785
  938MOL0     H29444   3.189  11.091   3.079  0.8856  1.3075  0.7511
  939MOL0     O29445   2.860   9.437   2.645 -0.6194  0.0709  0.7261
  939MOL0     C29446   2.795   9.529   2.698 -0.1209  1.3607  0.2509
  939MOL0     O29447   2.835   9.604   2.802  0.2355  0.6153 -0.5452
  939MOL0     C29448   2.951   9.578   2.869  0.3217  0.9920 -0.1701
  939MOL0     C29449   3.080   9.600   2.810 -0.3262  0.1473  0.2315
  939MOL0     C29450   3.197   9.553   2.876  0.4319 -0.2529 -0.1816
  939MOL0     C29451   3.190   9.480   2.995  0.0626 -0.9473  0.2474
  939MOL0     O29452   3.306   9.435   3.055 -0.1352 -0.2000 -0.1604
  939MOL0     C29453   3.328   9.300   3.040 -0.4505  0.7917 -0.1158
  939MOL0     C29454   3.407   9.291   2.908 -0.2158 -0.8074  0.3048
  939MOL0     C29455   3.456   9.145   2.880 -1.0890  0.2108 -0.0896
  939MOL0     C29456   3.540   9.147   2.747 -0.7863 -0.3184 -0.1252
  939MOL0     C29457   3.626   9.023   2.752 -0.1722 -0.0978 -0.1984
  939MOL0     C29458   3.706   9.011   2.627 -0.7228 -0.8320 -0.1443
  939MOL0     C29459   3.818   8.900   2.634  0.4623 -0.0014 -0.9323
  939MOL0     C29460   3.948   8.958   2.691  0.3298  0.0092  0.2323
  939MOL0     N29461   4.056   8.859   2.674 -0.1548  0.1045 -0.5312
  939MOL0     C29462   4.183   8.898   2.644  0.1497  1.4067 -0.0179
  939MOL0     C29463   4.263   8.803   2.703 -0.9887 -0.0425 -0.1955
  939MOL0     C29464   4.411   8.779   2.698 -0.3464  0.1224  1.3803
  939MOL0     C29465   4.489   8.908   2.722  0.3635 -0.7626 -0.4739
  939MOL0     C29466   4.478   8.971   2.859 -0.0724 -0.0757 -0.0571
  939MOL0     C29467   4.541   8.877   2.962  0.7591 -0.3303  0.2911
  939MOL0     O29468   4.681   8.883   2.954  0.3898 -0.6296  0.8655
  939MOL0     C29469   4.756   8.991   3.000 -0.7749  0.4800 -0.7462
  939MOL0     C29470   4.727   9.067   3.109 -0.3665 -0.5799 -0.2878
  939MOL0     C29471   4.812   9.173   3.149 -0.6066 -0.0502 -0.0672
  939MOL0     C29472   4.765   9.251   3.276 -0.4706  0.4309 -0.0012
  939MOL0     C29473   4.935   9.199   3.080  0.3173 -0.8178 -0.1253
  939MOL0     C29474   5.042   9.303   3.117  0.5300  0.1141 -0.4453
  939MOL0     O29475   5.161   9.288   3.043  0.5061 -0.3353  0.0404
  939MOL0     C29476   5.272   9.363   3.059  0.4485 -0.6415 -0.5224
  939MOL0     C29477   5.397   9.322   3.108 -0.4231  0.4814 -0.8431
  939MOL0     C29478   5.501   9.411   3.114  0.1293  0.0166 -0.1567
  939MOL0     C29479   5.492   9.534   3.063  0.3254 -0.1482  0.1299
  939MOL0     O29480   5.602   9.606   3.067 -0.4289  0.1473  0.3727
  939MOL0     C29481   5.582   9.743   3.114  0.6117  0.1867  0.0789
  939MOL0     C29482   5.708   9.834   3.106 -0.0679 -0.0287  0.3721
  939MOL0     C29483   5.821   9.782   3.189 -0.0974  0.2557  0.4068
  939MOL0     C29484   5.931   9.883   3.220 -0.4694 -0.1692  0.5925
  939MOL0     C29485   6.035   9.843   3.321  0.6794  0.1186 -0.5385
  939MOL0     C29486   6.118   9.721   3.295  0.1478 -0.1681 -0.4803
  939MOL0     C29487   6.227   9.699   3.400 -0.6848 -0.4602 -0.8752
  939MOL0     C29488   6.271   9.554   3.418  0.0972  0.6844 -0.3524
  939MOL0    Cl29489   6.336   9.499   3.262  0.1708 -0.2162 -0.2994
  939MOL0     C29490   5.370   9.583   3.011  0.6310 -0.5597  0.2760
  939MOL0     C29491   5.255   9.493   3.009 -0.2557  0.9994  0.2130
  939MOL0     O29492   5.035   9.375   3.217  0.8386  0.5326 -0.4625
  939MOL0     C29493   4.962   9.108   2.974  0.1635 -0.0017  0.1922
  939MOL0     C29494   4.864   9.016   2.933  0.0360  0.0813 -0.2004
  939MOL0     N29495   4.178   8.705   2.761  0.3813  0.1677  0.7303
  939MOL0     N29496   4.056   8.745   2.746 -0.4673 -0.4143  0.0732
  939MOL0     C29497   3.058   9.468   3.060 -0.3901 -0.3013 -0.2154
  939MOL0     C29498   2.939   9.511   2.995 -0.2034 -0.5433 -0.0788
  939MOL0     C29499   2.661   9.566   2.647 -0.3817  0.3672 -0.9445
  939MOL0     C29500   2.618   9.701   2.651  0.1903  0.1531  0.4936
  939MOL0     C29501   2.501   9.740   2.582 -0.2594  0.4578  0.9651
  939MOL0     C29502   2.426   9.653   2.512  0.4766 -0.3691 -0.1253
  939MOL0     O29503   2.312   9.692   2.440  0.5447  0.2186 -0.1990
  939MOL0     C29504   2.294   9.826   2.400  0.7884 -0.7443  0.4909
  939MOL0     C29505   2.407   9.876   2.310  0.0265 -0.0196  0.4334
  939MOL0     C29506   2.412  10.017   2.232  1.1138 -0.3002 -0.3667
  939MOL0     C29507   2.514  10.012   2.129 -0.7667  0.4067  0.0567
  939MOL0     C29508   2.523  10.148   2.066  0.2580 -0.8660 -0.0179
  939MOL0     C29509   2.539  10.264   2.020  0.0373  0.4152 -0.0775
  939MOL0     C29510   2.462   9.519   2.515  0.3067 -0.2106  0.0925
  939MOL0     C29511   2.570   9.466   2.582 -0.2197 -0.1080  0.7564
  939MOL0     C29512   2.598   9.316   2.588  0.0057 -1.3876 -0.0577
  939MOL0     H29513   3.087   9.655   2.717 -2.2865 -0.3660 -0.2780
  939MOL0     H29514   3.298   9.569   2.843  0.1957 -1.2966 -1.5071
  939MOL0     H29515   3.242   9.233   3.046  0.2901 -0.5018 -2.5145
  939MOL0     H29516   3.385   9.270   3.128  0.8842  1.9803 -0.5478
  939MOL0     H29517   3.348   9.320   2.821  1.5025 -2.5455 -1.5523
  939MOL0     H29518   3.485   9.368   2.911 -0.0654 -0.8094 -2.2040
  939MOL0     H29519   3.523   9.102   2.955 -4.1618 -2.8735  1.1365
  939MOL0     H29520   3.374   9.073   2.878 -1.0814  0.0355  2.7628
  939MOL0     H29521   3.477   9.153   2.658 -2.7480  0.7183  1.2622
  939MOL0     H29522   3.617   9.224   2.746  0.1970 -1.2636  0.0893
  939MOL0     H29523   3.562   8.935   2.759 -0.2341  0.1084  3.0333
  939MOL0     H29524   3.694   9.022   2.837 -0.4208  0.0574  0.0022
  939MOL0     H29525   3.641   8.993   2.541 -1.5201  2.1823 -0.2843
  939MOL0     H29526   3.751   9.107   2.603 -2.5036 -0.7427 -3.8194
  939MOL0     H29527   3.836   8.858   2.535 -0.6474 -0.6827 -0.8654
  939MOL0     H29528   3.781   8.814   2.691  2.6910 -1.0352 -0.9509
  939MOL0     H29529   3.961   9.060   2.655 -5.2125  2.0561  2.9671
  939MOL0     H29530   3.936   8.967   2.799 -0.5057  0.1726  0.1337
  939MOL0     H29531   4.222   8.979   2.583  1.4066 -0.4536 -1.8352
  939MOL0     H29532   4.448   8.741   2.602  0.1717 -3.5974  2.8890
  939MOL0     H29533   4.446   8.694   2.757  2.5388 -1.4066 -2.0816
  939MOL0     H29534   4.596   8.887   2.708  1.3128  2.6853  0.4500
  939MOL0     H29535   4.470   8.980   2.641 -2.9681 -2.1167 -1.0559
  939MOL0     H29536   4.525   9.069   2.861  1.2986 -0.6443 -1.6206
  939MOL0     H29537   4.372   8.981   2.882  0.1114 -1.9774  1.9310
  939MOL0     H29538   4.495   8.904   3.058 -2.0284 -0.0677 -1.0042
  939MOL0     H29539   4.508   8.773   2.954 -0.2840  0.0998 -1.7785
  939MOL0     H29540   4.632   9.050   3.158 -1.6772 -1.3808 -2.8892
  939MOL0     H29541   4.768   9.358   3.254 -1.1841  0.4056 -0.2462
  939MOL0     H29542   4.820   9.214   3.362  0.7793 -0.3329 -1.0867
  939MOL0     H29543   4.659   9.241   3.299 -0.1226 -1.2084  1.0681
  939MOL0     H29544   5.399   9.217   3.136 -1.2611  0.1592 -1.9044
  939MOL0     H29545   5.592   9.376   3.161  0.3171  0.8861  0.1536
  939MOL0     H29546   5.500   9.800   3.069 -0.2951  1.9482  3.6376
  939MOL0     H29547   5.553   9.728   3.218 -1.6108 -1.8568 -0.7344
  939MOL0     H29548   5.754   9.829   3.007 -1.7305  3.1392 -0.6959
  939MOL0     H29549   5.688   9.932   3.151 -1.2714 -1.1054  2.3184
  939MOL0     H29550   5.861   9.692   3.142  0.3940 -1.0873  3.1810
  939MOL0     H29551   5.777   9.752   3.285 -3.0598 -0.4925 -1.0545
  939MOL0     H29552   5.876   9.973   3.249  0.1348  1.8667 -3.8460
  939MOL0     H29553   5.975   9.919   3.127 -0.7889  1.0061  0.8815
  939MOL0     H29554   6.109   9.922   3.332 -0.5813  1.2420  0.3372
  939MOL0     H29555   5.989   9.822   3.419  1.0827  1.7284  0.0231
  939MOL0     H29556   6.157   9.730   3.193 -0.8545 -2.2545 -1.1043
  939MOL0     H29557   6.053   9.634   3.280 -0.6384  0.3156  0.0276
  939MOL0     H29558   6.188   9.747   3.491  1.3318  0.6989 -0.5586
  939MOL0     H29559   6.321   9.748   3.374  2.0928 -4.9115 -0.0954
  939MOL0     H29560   6.185   9.491   3.445  0.4747  0.3409  0.0575
  939MOL0     H29561   6.340   9.552   3.503  0.4700  0.0649 -0.6645
  939MOL0     H29562   5.356   9.681   2.966  0.1491 -0.7642 -0.0243
  939MOL0     H29563   5.165   9.519   2.954 -2.3565  0.4324  3.1449
  939MOL0     H29564   5.050   9.124   2.912 -0.0427  0.5658  0.0347
  939MOL0     H29565   4.880   8.962   2.840 -3.1503 -2.1120  0.3792
  939MOL0     H29566   3.048   9.412   3.152 -3.7498  1.7788  0.8613
  939MOL0     H29567   2.842   9.486   3.036  0.0554 -0.0174  0.8775
  939MOL0     H29568   2.681   9.776   2.698  0.4239  0.0719  0.3127
  939MOL0     H29569   2.464   9.840   2.603 -1.0142  0.2600  0.6238
  939MOL0     H29570   2.206   9.828   2.334  0.3186 -2.4087  1.0201
  939MOL0     H29571   2.279   9.887   2.489  0.8618 -3.0040  2.1366
  939MOL0     H29572   2.425   9.803   2.230  1.4721  2.3542 -1.5315
  939MOL0     H29573   2.501   9.891   2.364 -0.2983  0.4179  0.8859
  939MOL0     H29574   2.315  10.046   2.189  2.6912  1.7304 -2.7967
  939MOL0     H29575   2.443  10.094   2.303  0.2227  0.7668 -1.1003
  939MOL0     H29576   2.482   9.942   2.051  0.2749 -0.8807  0.7387
  939MOL0     H29577   2.614   9.993   2.169 -0.7216 -1.1649 -0.7195
  939MOL0     H29578   2.542  10.356   1.966 -3.9191  0.1130 -1.1472
  939MOL0     H29579   2.396   9.451   2.461 -0.0967  2.6369 -3.4308
  939MOL0     H29580   2.509   9.262   2.622 -0.0381 -0.8651  0.6880
  939MOL0     H29581   2.622   9.276   2.489 -3.7671  0.6157 -2.0556
  939MOL0     H29582   2.684   9.303   2.653  0.5637  0.3321 -0.3888
  940MOL0     O29583  10.630  10.163   4.204  0.0299  0.4271  0.2732
  940MOL0     C29584  10.657  10.274   4.155  0.3847 -0.1873 -0.6591
  940MOL0     O29585  10.751  10.358   4.202  0.0648 -0.0109 -0.5687
  940MOL0     C29586  10.795  10.341   4.328  0.1129  0.3708 -0.6179
  940MOL0     C29587  10.931  10.340   4.341 -0.1346 -0.3814 -0.1782
  940MOL0     C29588  10.994  10.319   4.465 -0.3665  0.1235 -0.5947
  940MOL0     C29589  10.919  10.302   4.581  0.4275  0.0497 -0.1738
  940MOL0     O29590  10.986  10.303   4.702 -0.2978 -0.3497 -0.3846
  940MOL0     C29591  10.923  10.257   4.822 -0.8436 -0.5088  0.0275
  940MOL0     C29592  11.019  10.250   4.940 -0.2983 -0.0719 -0.0986
  940MOL0     C29593  11.114  10.137   4.934  0.5842 -0.1281  0.7847
  940MOL0     C29594  11.214  10.128   5.042 -1.4515  0.3063 -0.2252
  940MOL0     C29595  11.320  10.029   5.018 -0.1715  0.3609  0.4770
  940MOL0     C29596  11.437  10.059   5.111 -0.4668 -0.1908 -0.0026
  940MOL0     C29597  11.518   9.930   5.118 -0.5074  0.4013  0.7302
  940MOL0     C29598  11.628   9.933   5.226 -0.3835 -0.3328  0.6120
  940MOL0     N29599  11.705   9.804   5.236  0.2569  0.0501  0.0308
  940MOL0     C29600  11.647   9.680   5.223 -0.1166  0.2304  0.0656
  940MOL0     C29601  11.738   9.583   5.242  0.8577 -0.4401  0.2487
  940MOL0     C29602  11.721   9.436   5.215 -0.5482  1.0530  0.9527
  940MOL0     C29603  11.641   9.401   5.090 -0.8339  0.1570 -0.0255
  940MOL0     C29604  11.718   9.430   4.958  1.0440 -0.0007 -0.1777
  940MOL0     C29605  11.648   9.368   4.838 -0.0347  0.0001 -0.4976
  940MOL0     O29606  11.731   9.378   4.729 -0.6092  0.5792  0.1570
  940MOL0     C29607  11.673   9.367   4.601 -0.1939  0.5488 -0.7935
  940MOL0     C29608  11.766   9.368   4.500 -0.1487 -0.5828 -0.2608
  940MOL0     C29609  11.729   9.339   4.364  0.2158  0.3167  0.1716
  940MOL0     C29610  11.837   9.356   4.265  0.0455 -0.7095  0.1168
  940MOL0     C29611  11.595   9.299   4.333 -0.2959  0.6394 -0.3100
  940MOL0     C29612  11.541   9.255   4.199 -0.5012 -0.5913 -0.5156
  940MOL0     O29613  11.404   9.240   4.189  0.4235 -0.7689 -0.5937
  940MOL0     C29614  11.341   9.235   4.065  0.1856  0.4578 -0.0757
  940MOL0     C29615  11.214   9.172   4.069 -0.0116  0.0338  0.0376
  940MOL0     C29616  11.138   9.164   3.953  0.2032  1.0613  0.6030
  940MOL0     C29617  11.179   9.201   3.825  0.1117 -1.1713  0.0559
  940MOL0     O29618  11.123   9.172   3.710  0.1588 -0.2065  0.2082
  940MOL0     C29619  11.012   9.077   3.709  0.3258  0.5269  0.2476
  940MOL0     C29620  10.966   9.054   3.567 -0.3096 -0.4046 -0.4551
  940MOL0     C29621  10.867   8.939   3.550 -0.0967  0.0671 -0.2831
  940MOL0     C29622  10.760   8.953   3.438 -0.4687  0.7549 -0.7298
  940MOL0     C29623  10.665   8.835   3.434  0.9421 -0.4211  0.1952
  940MOL0     C29624  10.744   8.710   3.384  0.1955  0.7228  0.4244
  940MOL0     C29625  10.648   8.594   3.336 -0.4725 -0.6511 -0.3422
  940MOL0     C29626  10.713   8.459   3.309 -0.2959  0.2196  1.1567
  940MOL0    Cl29627  10.824   8.477   3.162 -0.5847  0.3112  0.2833
  940MOL0     C29628  11.307   9.263   3.818  0.0588 -0.6680 -0.2961
  940MOL0     C29629  11.383   9.275   3.932  0.7775 -1.3127 -0.6523
  940MOL0     O29630  11.622   9.250   4.108  0.5285 -0.2747  0.1342
  940MOL0     C29631  11.504   9.294   4.438  0.4584 -0.1330 -0.2741
  940MOL0     C29632  11.543   9.324   4.569  0.5520  0.2512  0.0236
  940MOL0     N29633  11.847   9.659   5.289 -0.9385  0.5184  0.6991
  940MOL0     N29634  11.829   9.787   5.285  0.7280 -0.0248  0.1270
  940MOL0     C29635  10.778  10.308   4.569  0.2214 -0.9009  0.5936
  940MOL0     C29636  10.714  10.329   4.441 -0.1025 -0.5990 -0.4004
  940MOL0     C29637  10.589  10.330   4.032  0.0748 -0.3464 -0.4681
  940MOL0     C29638  10.602  10.469   3.997 -0.5098 -0.0290  0.6468
  940MOL0     C29639  10.534  10.521   3.886 -0.1672  0.4249 -0.0068
  940MOL0     C29640  10.436  10.444   3.824  0.4427  0.7422  0.0416
  940MOL0     O29641  10.356  10.499   3.725 -0.0534 -0.2454 -0.5854
  940MOL0     C29642  10.263  10.594   3.771 -0.0582 -0.0198 -0.6323
  940MOL0     C29643  10.149  10.603   3.676 -0.2369  0.2284  0.1849
  940MOL0     C29644  10.073  10.478   3.643  0.6729  0.4682  0.2115
  940MOL0     C29645   9.936  10.500   3.577 -0.5766  0.1272  0.3050
  940MOL0     C29646   9.824  10.550   3.652 -0.5148  1.1828 -0.0615
  940MOL0     C29647   9.722  10.584   3.706  0.0813  0.1564  0.1498
  940MOL0     C29648  10.435  10.305   3.844 -0.5246  0.1732  0.3955
  940MOL0     C29649  10.512  10.252   3.945 -0.7835  0.1580 -0.9619
  940MOL0     C29650  10.497  10.099   3.960  0.4224  0.7806  0.3333
  940MOL0     H29651  10.988  10.372   4.254 -1.9311  1.1944 -0.8497
  940MOL0     H29652  11.102  10.329   4.464 -0.1892 -1.4252  0.3469
  940MOL0     H29653  10.862  10.166   4.818  2.1584 -2.5921 -1.6951
  940MOL0     H29654  10.863  10.343   4.853  1.5492  2.0541 -1.9633
  940MOL0     H29655  11.070  10.345   4.957  1.7381 -1.3974  1.8432
  940MOL0     H29656  10.959  10.234   5.031  0.1426 -2.5300 -0.1768
  940MOL0     H29657  11.057  10.044   4.927  0.0840  0.3145 -3.2067
  940MOL0     H29658  11.168  10.143   4.839  0.4340 -1.2610  0.6219
  940MOL0     H29659  11.256  10.228   5.060  0.1177 -0.2997 -0.4223
  940MOL0     H29660  11.165  10.106   5.138 -0.6057  3.7720  1.1894
  940MOL0     H29661  11.359  10.018   4.916  0.1101  1.4522  0.4533
  940MOL0     H29662  11.266   9.936   5.042 -2.0838  1.0032 -1.0871
  940MOL0     H29663  11.470  10.160   5.084  2.3083 -0.7566  0.9920
  940MOL0     H29664  11.387  10.067   5.208 -0.3062  0.2164  0.0471
  940MOL0     H29665  11.570   9.902   5.026  1.6549  0.5961  1.8350
  940MOL0     H29666  11.449   9.853   5.153 -1.6681  1.1611  0.1871
  940MOL0     H29667  11.703  10.012   5.220  0.8484 -1.4395  0.9326
  940MOL0     H29668  11.581   9.952   5.323 -0.1110  1.9923  0.3359
  940MOL0     H29669  11.540   9.667   5.205  0.0087 -1.4384  0.4200
  940MOL0     H29670  11.682   9.387   5.305 -2.2575  2.0619  0.8097
  940MOL0     H29671  11.826   9.407   5.203  0.0351  2.6953  1.9057
  940MOL0     H29672  11.635   9.292   5.094  3.1099 -0.2066  0.4456
  940MOL0     H29673  11.542   9.447   5.091  0.5813  3.9108 -3.3047
  940MOL0     H29674  11.725   9.538   4.942  2.0846  0.1227  0.9460
  940MOL0     H29675  11.815   9.380   4.949  1.3518  0.4686  0.5010
  940MOL0     H29676  11.624   9.264   4.859  0.4188  0.3119  1.8817
  940MOL0     H29677  11.564   9.437   4.824  1.4886  2.4966  1.5678
  940MOL0     H29678  11.865   9.408   4.524  0.0653 -0.7173 -0.8975
  940MOL0     H29679  11.856   9.259   4.218 -1.3766 -0.5813 -0.7946
  940MOL0     H29680  11.928   9.396   4.311  0.2993 -0.0992 -0.8847
  940MOL0     H29681  11.794   9.426   4.192 -3.7832 -0.0670  2.6979
  940MOL0     H29682  11.175   9.136   4.164  1.7580  2.5590  1.8677
  940MOL0     H29683  11.053   9.097   3.962 -0.6029  1.3772 -2.9836
  940MOL0     H29684  11.049   8.984   3.753  0.0742  1.1032  1.7263
  940MOL0     H29685  10.932   9.115   3.774 -0.3965  0.1719 -0.4158
  940MOL0     H29686  10.933   9.148   3.523 -2.3488 -1.1932 -0.7070
  940MOL0     H29687  11.055   9.035   3.507 -1.0442  0.7597 -1.9711
  940MOL0     H29688  10.804   8.923   3.638 -0.7735 -1.5272 -1.0224
  940MOL0     H29689  10.920   8.847   3.526  0.4415  0.8119 -2.1247
  940MOL0     H29690  10.820   8.961   3.347 -0.7716  1.1913 -0.8968
  940MOL0     H29691  10.695   9.042   3.439 -0.7182  0.5761 -0.9081
  940MOL0     H29692  10.626   8.794   3.527 -1.3649 -2.8195 -1.6581
  940MOL0     H29693  10.579   8.854   3.368  0.2225  0.9613  1.4805
  940MOL0     H29694  10.797   8.654   3.462 -1.9405 -3.1323 -0.6184
  940MOL0     H29695  10.810   8.749   3.306 -1.6340  1.3949 -0.8823
  940MOL0     H29696  10.595   8.637   3.251 -0.0903  2.1307  0.7427
  940MOL0     H29697  10.576   8.576   3.416 -1.4650 -0.3362 -1.1490
  940MOL0     H29698  10.643   8.377   3.292  0.4402  0.1905 -2.6079
  940MOL0     H29699  10.768   8.435   3.401 -1.4059  0.3260  1.8751
  940MOL0     H29700  11.346   9.292   3.721  2.4475 -2.7238 -0.0570
  940MOL0     H29701  11.484   9.312   3.919  0.2677  0.0486 -0.8548
  940MOL0     H29702  11.405   9.254   4.418  0.4379  0.2587 -0.9895
  940MOL0     H29703  11.470   9.307   4.648 -1.6085  2.8502 -1.2643
  940MOL0     H29704  10.717  10.297   4.657 -0.0456  0.4379  0.5954
  940MOL0     H29705  10.605  10.326   4.442 -0.1633 -1.7537  2.6485
  940MOL0     H29706  10.670  10.535   4.050 -0.0171  0.1192 -0.1430
  940MOL0     H29707  10.554  10.624   3.859  0.4293  0.7463  1.5551
  940MOL0     H29708  10.232  10.570   3.872  0.7672 -2.1325 -0.8379
  940MOL0     H29709  10.306  10.695   3.762  0.8685 -0.3955 -0.5624
  940MOL0     H29710  10.195  10.636   3.582  2.4681 -0.9159  1.0012
  940MOL0     H29711  10.079  10.671   3.725 -3.0858 -0.8489 -2.0823
  940MOL0     H29712  10.134  10.415   3.577  0.2886 -2.3428  2.3626
  940MOL0     H29713  10.061  10.420   3.734 -0.4850  0.0161 -0.2213
  940MOL0     H29714   9.896  10.407   3.536 -2.0878  1.1394 -0.6360
  940MOL0     H29715   9.952  10.573   3.497  2.1281 -0.4921  0.2023
  940MOL0     H29716   9.639  10.618   3.765  1.7618  0.9812  2.1408
  940MOL0     H29717  10.359  10.240   3.802 -0.7299 -1.5178  3.1111
  940MOL0     H29718  10.439  10.070   4.048  1.4052  0.1260  0.7873
  940MOL0     H29719  10.447  10.052   3.876  0.0863 -0.4898  1.2135
  940MOL0     H29720  10.600  10.062   3.964  0.4262  0.6661 -0.6437
  941MOL0     O29721   6.477   6.533   3.856 -0.6921 -0.3961  0.4572
  941MOL0     C29722   6.514   6.455   3.945 -0.2869 -0.7999  0.0982
  941MOL0     O29723   6.648   6.431   3.980  0.8816  0.1793 -0.7858
  941MOL0     C29724   6.752   6.516   3.968  0.1133 -0.1441 -0.9879
  941MOL0     C29725   6.753   6.661   3.958  0.0415  0.2169  0.0664
  941MOL0     C29726   6.865   6.736   3.912  0.3265 -0.8286 -0.7714
  941MOL0     C29727   6.988   6.668   3.917 -0.1774 -0.3295 -0.5250
  941MOL0     O29728   7.110   6.722   3.871  0.3325  0.2273 -0.2967
  941MOL0     C29729   7.115   6.859   3.827 -0.5616  0.7033  0.8590
  941MOL0     C29730   7.248   6.916   3.787 -0.6284 -0.2983  0.5553
  941MOL0     C29731   7.311   6.850   3.666 -0.1115  0.3264  0.3875
  941MOL0     C29732   7.465   6.880   3.662 -0.0854  0.6579 -0.3088
  941MOL0     C29733   7.516   6.816   3.525  1.1751 -0.0388 -0.4733
  941MOL0     C29734   7.673   6.818   3.505  0.2069  0.5450 -0.5665
  941MOL0     C29735   7.727   6.958   3.512 -0.3331 -0.5732 -0.2141
  941MOL0     C29736   7.691   7.056   3.400  0.0022  0.3159  0.1888
  941MOL0     N29737   7.760   7.181   3.398 -0.2786  0.2964  0.7269
  941MOL0     C29738   7.819   7.229   3.284  0.0392  0.8015 -0.3875
  941MOL0     C29739   7.872   7.346   3.321 -0.0261 -0.3528  0.1433
  941MOL0     C29740   7.955   7.434   3.238  0.0633 -0.7665  0.5039
  941MOL0     C29741   8.104   7.402   3.258 -0.1679  0.5731 -0.0740
  941MOL0     C29742   8.136   7.262   3.212  0.4439  0.5284 -0.0113
  941MOL0     C29743   8.286   7.227   3.223  0.0145 -0.4246  0.0727
  941MOL0     O29744   8.292   7.100   3.154 -0.0393 -0.1935  0.3028
  941MOL0     C29745   8.416   7.041   3.145 -0.0643 -0.9912  0.1712
  941MOL0     C29746   8.430   6.910   3.093  0.5928 -0.0385  0.4527
  941MOL0     C29747   8.548   6.836   3.089 -0.7507  0.3822 -0.1695
  941MOL0     C29748   8.536   6.688   3.041 -0.1486 -0.3465  0.4358
  941MOL0     C29749   8.667   6.905   3.118  0.0831 -0.0543  0.3492
  941MOL0     C29750   8.799   6.849   3.131  0.1139  0.3071  0.5452
  941MOL0     O29751   8.904   6.937   3.171  0.0760  0.5305  0.1627
  941MOL0     C29752   9.038   6.913   3.122  0.4265  0.4608  0.1233
  941MOL0     C29753   9.134   6.993   3.170 -0.3943  0.1981 -0.9074
  941MOL0     C29754   9.270   6.966   3.162 -1.2630  0.2245  0.4166
  941MOL0     C29755   9.309   6.858   3.091 -0.6779  0.9291 -0.9981
  941MOL0     O29756   9.448   6.838   3.097  0.1612 -0.0217  0.2228
  941MOL0     C29757   9.502   6.742   3.006 -0.7366  0.1889 -0.3872
  941MOL0     C29758   9.646   6.776   2.978  0.4103 -0.2385 -0.6424
  941MOL0     C29759   9.728   6.659   2.932  0.2488  1.0002  0.3270
  941MOL0     C29760   9.871   6.706   2.912 -0.0524  0.2067 -0.5829
  941MOL0     C29761   9.967   6.605   2.854  0.0179  0.0261  0.7063
  941MOL0     C29762  10.106   6.656   2.810  0.0494  0.0119 -0.1341
  941MOL0     C29763  10.190   6.536   2.759  0.2816  0.6148 -0.4009
  941MOL0     C29764  10.332   6.588   2.727  0.0336 -0.0715  0.2325
  941MOL0    Cl29765  10.424   6.455   2.654  0.3490 -0.5256  0.0854
  941MOL0     C29766   9.210   6.782   3.022 -1.4034  0.0023 -0.6795
  941MOL0     C29767   9.075   6.806   3.038 -0.2945 -0.1963  0.2986
  941MOL0     O29768   8.811   6.729   3.102 -0.1982  0.0228  0.6909
  941MOL0     C29769   8.652   7.045   3.158 -0.0939 -0.0878 -0.2889
  941MOL0     C29770   8.533   7.108   3.172  0.2222 -0.7225  0.6018
  941MOL0     N29771   7.853   7.372   3.454  0.1522  0.9115 -0.4538
  941MOL0     N29772   7.779   7.273   3.496  0.0389 -0.3086 -0.2871
  941MOL0     C29773   6.999   6.534   3.953 -1.1467  0.2616 -0.1254
  941MOL0     C29774   6.881   6.457   3.971 -0.1088 -0.5458 -0.2314
  941MOL0     C29775   6.417   6.344   3.964 -0.1590  0.8200  0.4677
  941MOL0     C29776   6.467   6.215   3.967 -0.4359  0.2811  0.0598
  941MOL0     C29777   6.389   6.101   3.974  0.1337 -0.2051  0.2025
  941MOL0     C29778   6.254   6.117   3.970  0.1461 -0.6961  0.2750
  941MOL0     O29779   6.192   5.987   3.972 -0.3039  0.2446 -0.4825
  941MOL0     C29780   6.051   5.971   3.980  0.5168  1.1601  0.2590
  941MOL0     C29781   5.981   5.989   3.840  0.3003  0.3516  0.4333
  941MOL0     C29782   6.053   5.918   3.719 -0.3911  0.1910  0.4918
  941MOL0     C29783   6.088   5.767   3.744  0.3103 -0.1375  0.3001
  941MOL0     C29784   5.968   5.687   3.786  0.0825 -0.0225 -0.7433
  941MOL0     C29785   5.856   5.648   3.809 -0.1297  0.1058  0.1037
  941MOL0     C29786   6.195   6.246   3.969  0.0605  1.2059 -0.7074
  941MOL0     C29787   6.272   6.362   3.968 -0.4845 -0.0229  1.3434
  941MOL0     C29788   6.208   6.505   3.972 -0.3438 -0.4670  0.0841
  941MOL0     H29789   6.659   6.715   3.966  0.3777  0.7352  0.5388
  941MOL0     H29790   6.865   6.840   3.879  1.8230 -0.1935  1.0427
  941MOL0     H29791   7.064   6.913   3.908 -0.1448 -0.8408  2.2203
  941MOL0     H29792   7.047   6.866   3.742  0.4894 -1.3475 -0.2433
  941MOL0     H29793   7.239   7.021   3.757  2.8621 -0.9945 -4.0172
  941MOL0     H29794   7.314   6.911   3.874  1.7128 -0.4520 -1.1232
  941MOL0     H29795   7.288   6.744   3.677 -0.7861  0.5325  1.0103
  941MOL0     H29796   7.262   6.888   3.576 -2.3169 -0.6205  1.1274
  941MOL0     H29797   7.477   6.989   3.658  2.1525  0.4950  0.6143
  941MOL0     H29798   7.523   6.848   3.749  1.7406  2.7557 -0.6767
  941MOL0     H29799   7.458   6.867   3.447 -0.5242  0.3537  0.9827
  941MOL0     H29800   7.483   6.712   3.537 -1.0770  0.8657  2.1975
  941MOL0     H29801   7.736   6.771   3.581 -2.1047 -2.1851 -0.1765
  941MOL0     H29802   7.688   6.768   3.408 -0.0255 -0.2658 -0.1918
  941MOL0     H29803   7.836   6.950   3.518 -0.3782 -0.9909  0.0249
  941MOL0     H29804   7.691   7.009   3.602  0.1665  0.6749 -0.6857
  941MOL0     H29805   7.693   7.010   3.301  0.4796 -0.9202  0.7600
  941MOL0     H29806   7.586   7.078   3.418 -0.8699 -3.2821  0.0927
  941MOL0     H29807   7.852   7.167   3.201  2.0323 -0.9588  1.5684
  941MOL0     H29808   7.938   7.538   3.267  0.4562 -0.5438 -0.0640
  941MOL0     H29809   7.931   7.429   3.131  0.7412  1.1090  0.2279
  941MOL0     H29810   8.162   7.473   3.199 -2.1450 -0.2467 -3.2050
  941MOL0     H29811   8.133   7.427   3.361 -1.8565  0.1395  0.5317
  941MOL0     H29812   8.078   7.189   3.269  0.5849  2.2321  2.4824
  941MOL0     H29813   8.110   7.249   3.107  3.0488 -2.1575 -0.4412
  941MOL0     H29814   8.346   7.310   3.184 -1.4543 -0.1806 -1.8521
  941MOL0     H29815   8.298   7.209   3.330 -0.5155 -4.0705 -0.3719
  941MOL0     H29816   8.337   6.864   3.061 -1.0122  2.5112  1.1994
  941MOL0     H29817   8.561   6.619   3.122  1.9817 -0.6029 -0.3789
  941MOL0     H29818   8.604   6.672   2.957 -0.4468  0.8972 -0.0707
  941MOL0     H29819   8.437   6.666   3.000 -0.0607  1.3064 -0.7880
  941MOL0     H29820   9.109   7.071   3.241  1.0786 -0.6639  0.6617
  941MOL0     H29821   9.343   7.032   3.208  0.6629 -0.2780 -1.7373
  941MOL0     H29822   9.507   6.649   3.064 -0.7226  1.2201  1.3412
  941MOL0     H29823   9.458   6.731   2.906  0.4367 -1.4145 -0.7726
  941MOL0     H29824   9.646   6.858   2.906  1.0257 -0.3328 -0.7518
  941MOL0     H29825   9.681   6.819   3.072  0.1461 -0.6975 -0.3319
  941MOL0     H29826   9.687   6.611   2.843  1.0562  1.1086 -0.1128
  941MOL0     H29827   9.732   6.580   3.007 -1.2312 -0.3878 -0.9780
  941MOL0     H29828   9.912   6.730   3.011 -0.7092 -1.0457  0.0142
  941MOL0     H29829   9.876   6.792   2.845  1.2578  1.0729  0.5699
  941MOL0     H29830   9.978   6.527   2.929  4.9582  0.1283  0.4410
  941MOL0     H29831   9.924   6.565   2.762  1.8417  0.3148 -0.3185
  941MOL0     H29832  10.152   6.711   2.893 -1.8886  2.1957 -0.4009
  941MOL0     H29833  10.100   6.731   2.731  0.8937 -0.7188 -0.9155
  941MOL0     H29834  10.149   6.482   2.673 -1.9442  1.9082 -0.2024
  941MOL0     H29835  10.195   6.459   2.836 -0.2716 -1.9273 -2.7460
  941MOL0     H29836  10.380   6.608   2.823 -2.9746  0.5468  1.7049
  941MOL0     H29837  10.340   6.669   2.655  3.9028 -0.0395  0.4733
  941MOL0     H29838   9.241   6.699   2.958 -1.3860  1.2300 -2.3227
  941MOL0     H29839   9.002   6.736   2.998 -0.2884  0.0040 -0.0647
  941MOL0     H29840   8.732   7.112   3.188  1.7271 -1.3335 -2.0671
  941MOL0     H29841   8.530   7.210   3.207  0.2520 -0.3240 -0.5074
  941MOL0     H29842   7.091   6.482   3.930 -1.4165  0.6141 -2.1284
  941MOL0     H29843   6.891   6.352   3.997 -0.2862 -1.0795 -2.1306
  941MOL0     H29844   6.574   6.201   3.959  0.0847  1.3642  3.5431
  941MOL0     H29845   6.426   6.000   3.984 -0.0056 -0.6892 -3.0678
  941MOL0     H29846   6.042   5.867   4.014  0.9575  0.4889 -1.5759
  941MOL0     H29847   6.000   6.037   4.051 -0.7586  1.6301 -1.0454
  941MOL0     H29848   5.988   6.096   3.817  2.5560 -0.1131 -1.3450
  941MOL0     H29849   5.877   5.954   3.840  0.0679  0.8767  2.9791
  941MOL0     H29850   5.986   5.914   3.632  0.6245 -2.2414 -0.2374
  941MOL0     H29851   6.145   5.972   3.694  1.7433 -2.0641  2.8867
  941MOL0     H29852   6.165   5.758   3.822 -0.3101 -4.1054  0.6587
  941MOL0     H29853   6.125   5.711   3.658 -1.0722 -1.9976  0.8424
  941MOL0     H29854   5.762   5.597   3.803 -0.0686  0.0847 -0.9080
  941MOL0     H29855   6.087   6.254   3.969 -0.0463  0.0607  0.1789
  941MOL0     H29856   6.198   6.548   3.871  0.9475 -0.8816 -0.2412
  941MOL0     H29857   6.113   6.497   4.025 -2.0607 -1.6526 -2.8850
  941MOL0     H29858   6.273   6.566   4.035 -1.4846 -0.0672  0.9045
  942MOL0     O29859   7.566   5.532   7.098  0.8564 -0.6592 -0.3395
  942MOL0     C29860   7.531   5.604   7.005 -0.3348  0.6769 -0.0686
  942MOL0     O29861   7.622   5.664   6.919 -0.1642  0.2274 -0.9973
  942MOL0     C29862   7.751   5.675   6.962 -0.5080 -0.3857  0.1584
  942MOL0     C29863   7.860   5.677   6.880 -0.5167 -0.0022 -0.4288
  942MOL0     C29864   7.999   5.684   6.926  0.0854 -1.1335  0.2321
  942MOL0     C29865   8.028   5.709   7.062 -0.5596  1.2815  0.3274
  942MOL0     O29866   8.168   5.723   7.078 -0.1835  0.3628 -0.3167
  942MOL0     C29867   8.215   5.705   7.212  0.7068 -0.1441 -0.8167
  942MOL0     C29868   8.195   5.827   7.303  0.7116 -0.0710  0.0208
  942MOL0     C29869   8.309   5.875   7.390  0.1838  0.4558 -0.1321
  942MOL0     C29870   8.331   5.776   7.515  0.1741 -0.2745  0.3228
  942MOL0     C29871   8.450   5.819   7.601 -0.0051  0.3486 -0.6404
  942MOL0     C29872   8.591   5.835   7.531 -0.4739  0.9272  0.3811
  942MOL0     C29873   8.696   5.876   7.639 -0.1993 -0.4043 -0.5739
  942MOL0     C29874   8.835   5.884   7.585  0.8982 -0.0863  0.8849
  942MOL0     N29875   8.934   5.875   7.685 -0.5109 -0.1056 -0.2549
  942MOL0     C29876   9.034   5.961   7.703  0.4014 -0.5739 -0.2395
  942MOL0     C29877   9.120   5.916   7.799  0.2900 -0.1953 -0.2748
  942MOL0     C29878   9.234   5.991   7.862  0.4940  0.0918 -0.1965
  942MOL0     C29879   9.365   5.917   7.886 -0.1376 -0.0981  0.8233
  942MOL0     C29880   9.488   6.005   7.946  0.8097  0.5589 -0.4174
  942MOL0     C29881   9.520   6.132   7.874  0.0709 -0.7508  0.2924
  942MOL0     O29882   9.556   6.100   7.740 -0.3572  0.1757 -0.4659
  942MOL0     C29883   9.641   6.175   7.665 -0.3471  0.0768 -0.0947
  942MOL0     C29884   9.666   6.134   7.532  0.3970 -0.9839  0.3433
  942MOL0     C29885   9.764   6.194   7.448 -1.3680 -0.6113  0.8916
  942MOL0     C29886   9.781   6.114   7.318  0.7814 -0.5043  0.0831
  942MOL0     C29887   9.838   6.303   7.496 -0.5829 -0.3628 -0.6208
  942MOL0     C29888   9.943   6.377   7.417 -0.1163 -0.3649 -0.5485
  942MOL0     O29889   9.998   6.480   7.487  0.1921 -0.3308 -0.1543
  942MOL0     C29890  10.122   6.515   7.451 -0.5695  0.4537 -0.3758
  942MOL0     C29891  10.171   6.630   7.515  0.0358  0.5571  0.3221
  942MOL0     C29892  10.301   6.679   7.502 -0.7868  1.5707 -0.7482
  942MOL0     C29893  10.392   6.618   7.423  0.9151  0.9033 -0.1919
  942MOL0     O29894  10.517   6.684   7.414  0.1504  0.6894  0.1629
  942MOL0     C29895  10.631   6.630   7.353 -0.0613  0.3744 -0.3400
  942MOL0     C29896  10.698   6.516   7.433  0.7002 -0.1203 -0.1901
  942MOL0     C29897  10.846   6.522   7.392 -0.0563  0.5678  0.4232
  942MOL0     C29898  10.927   6.427   7.485 -0.9286 -0.1541 -0.3547
  942MOL0     C29899  11.075   6.461   7.483 -0.1545  0.2982  0.1403
  942MOL0     C29900  11.154   6.378   7.582 -0.1335 -0.0072  1.0741
  942MOL0     C29901  11.295   6.427   7.622 -0.8568 -0.2805 -0.4207
  942MOL0     C29902  11.308   6.531   7.731  0.5296  0.8988 -1.1656
  942MOL0    Cl29903  11.219   6.490   7.884 -0.0450 -0.1714  0.1091
  942MOL0     C29904  10.347   6.504   7.354  0.4465 -0.1665  0.1329
  942MOL0     C29905  10.221   6.452   7.372  0.6878 -0.2207 -0.3269
  942MOL0     O29906   9.940   6.373   7.297  0.5939  0.1414 -0.0040
  942MOL0     C29907   9.801   6.355   7.626  0.0953 -0.3004  0.9381
  942MOL0     C29908   9.714   6.286   7.712  0.3145  1.2049  0.3351
  942MOL0     N29909   9.066   5.794   7.841  0.1364  1.0272  0.3106
  942MOL0     N29910   8.956   5.767   7.766  0.4485  0.5454 -0.7314
  942MOL0     C29911   7.918   5.705   7.155 -0.7606 -0.1618 -0.1380
  942MOL0     C29912   7.788   5.704   7.098  0.2269  0.1823  0.2607
  942MOL0     C29913   7.388   5.629   6.989 -0.1792 -0.3050  0.4764
  942MOL0     C29914   7.341   5.731   6.903 -0.4559  0.1489 -0.2774
  942MOL0     C29915   7.207   5.771   6.886 -0.4672  0.5423 -1.5370
  942MOL0     C29916   7.112   5.708   6.960 -0.3946 -0.4315 -0.4002
  942MOL0     O29917   6.980   5.733   6.954 -0.7294  0.4982  0.9217
  942MOL0     C29918   6.914   5.751   6.828 -0.3459  0.3537  0.6244
  942MOL0     C29919   6.935   5.648   6.714 -0.4832 -1.0767  0.2405
  942MOL0     C29920   6.902   5.700   6.577  0.0783 -0.3555 -0.0041
  942MOL0     C29921   6.982   5.811   6.513  0.0833  0.9472 -0.5098
  942MOL0     C29922   7.121   5.773   6.527  0.0664  0.1266  0.2641
  942MOL0     C29923   7.227   5.729   6.566 -0.6471  0.1052 -0.6899
  942MOL0     C29924   7.154   5.613   7.056  0.6343 -0.1041  1.0827
  942MOL0     C29925   7.283   5.560   7.058  0.3192  0.1943 -0.5804
  942MOL0     C29926   7.304   5.428   7.139 -0.8544 -0.2926  0.2782
  942MOL0     H29927   7.834   5.685   6.774  0.4765  1.5979 -0.5863
  942MOL0     H29928   8.076   5.667   6.852  0.1042  1.4243 -0.4028
  942MOL0     H29929   8.323   5.687   7.208  0.4338 -2.3138 -0.1205
  942MOL0     H29930   8.165   5.615   7.249 -0.5993  0.5153 -0.9313
  942MOL0     H29931   8.179   5.923   7.253  1.6213  1.2705  2.1519
  942MOL0     H29932   8.102   5.812   7.359  0.2480 -1.0068 -0.9724
  942MOL0     H29933   8.395   5.876   7.323  0.7559 -2.6541  0.4189
  942MOL0     H29934   8.291   5.979   7.420 -0.7254  0.0719  0.7334
  942MOL0     H29935   8.243   5.793   7.578  0.3161  1.9117  0.0353
  942MOL0     H29936   8.329   5.672   7.483 -2.8520 -1.3703  3.4877
  942MOL0     H29937   8.452   5.732   7.667 -3.0700  0.6253 -0.0191
  942MOL0     H29938   8.415   5.904   7.661 -0.1436 -0.5053  0.5238
  942MOL0     H29939   8.629   5.751   7.473  1.3670 -0.2617  3.0782
  942MOL0     H29940   8.599   5.919   7.462  4.1268 -1.2082 -2.1429
  942MOL0     H29941   8.691   5.799   7.717  1.0428 -0.0848 -0.1643
  942MOL0     H29942   8.665   5.971   7.683  1.0029  0.0899 -0.7637
  942MOL0     H29943   8.840   5.792   7.526  2.2210  0.6424 -0.1834
  942MOL0     H29944   8.842   5.962   7.509  0.8528 -2.4387 -1.6905
  942MOL0     H29945   9.046   6.059   7.658 -3.3640 -0.5034 -1.4219
  942MOL0     H29946   9.205   6.033   7.959 -2.8486 -1.1118 -0.5270
  942MOL0     H29947   9.265   6.069   7.792  2.7729  2.1308  2.8079
  942MOL0     H29948   9.346   5.824   7.940 -0.1826 -1.7705 -1.8919
  942MOL0     H29949   9.392   5.878   7.787 -5.8238 -0.9329 -0.7817
  942MOL0     H29950   9.454   6.035   8.046 -0.6642 -1.6705 -0.1622
  942MOL0     H29951   9.574   5.938   7.955  0.2457  0.0571  1.9851
  942MOL0     H29952   9.434   6.198   7.879  0.2719 -0.5910  2.4088
  942MOL0     H29953   9.603   6.187   7.918  0.7412 -1.2166 -0.3574
  942MOL0     H29954   9.591   6.062   7.499  1.0161 -0.4256 -2.5222
  942MOL0     H29955   9.883   6.076   7.311  0.3211 -1.7713  0.0712
  942MOL0     H29956   9.758   6.181   7.234  2.2909  0.6946  0.5685
  942MOL0     H29957   9.704   6.036   7.318  2.1258 -1.9272 -2.1850
  942MOL0     H29958  10.120   6.685   7.593 -1.3042  1.4211 -1.0883
  942MOL0     H29959  10.344   6.761   7.557  0.8634 -1.5502  3.0721
  942MOL0     H29960  10.609   6.585   7.255 -1.1278 -0.7715  0.3927
  942MOL0     H29961  10.713   6.700   7.336  0.4075 -0.1214 -0.1458
  942MOL0     H29962  10.689   6.515   7.542 -0.1244 -1.8006 -0.2363
  942MOL0     H29963  10.659   6.420   7.398 -1.7003 -0.2636  2.5493
  942MOL0     H29964  10.885   6.622   7.411 -1.5392  1.4551 -0.9527
  942MOL0     H29965  10.869   6.508   7.286 -0.4578  1.0825  0.2640
  942MOL0     H29966  10.923   6.324   7.451  1.5099 -0.0810 -1.0214
  942MOL0     H29967  10.887   6.436   7.587 -0.8814  3.2817 -0.5190
  942MOL0     H29968  11.105   6.444   7.379 -1.0844  0.6600 -0.1996
  942MOL0     H29969  11.087   6.566   7.513  0.0037  0.0932  0.8196
  942MOL0     H29970  11.164   6.277   7.541  1.5982  0.8405 -0.7801
  942MOL0     H29971  11.100   6.361   7.676  1.0739  1.0847  1.9987
  942MOL0     H29972  11.348   6.463   7.534  1.8663  2.8163  2.2098
  942MOL0     H29973  11.349   6.336   7.653 -0.4275  0.3946  0.9137
  942MOL0     H29974  11.268   6.624   7.690 -0.6462 -0.7595 -4.1006
  942MOL0     H29975  11.414   6.546   7.756  0.0439  0.3357  1.4088
  942MOL0     H29976  10.425   6.457   7.295 -1.5612 -1.9543 -1.2509
  942MOL0     H29977  10.189   6.365   7.315 -0.0974 -0.2263  0.0985
  942MOL0     H29978   9.853   6.440   7.669  1.8257 -0.6947 -0.2663
  942MOL0     H29979   9.708   6.321   7.815 -0.3591 -2.8062  1.8604
  942MOL0     H29980   7.931   5.731   7.260  1.4155  2.4272 -0.9381
  942MOL0     H29981   7.718   5.719   7.179  1.6585 -2.5140  2.1464
  942MOL0     H29982   7.415   5.787   6.847  2.0387 -1.9950  0.6417
  942MOL0     H29983   7.192   5.859   6.824 -0.6366  1.5645 -0.0989
  942MOL0     H29984   6.807   5.774   6.840 -0.7478  1.4969 -3.4830
  942MOL0     H29985   6.962   5.835   6.778  2.4859 -2.0444 -0.9924
  942MOL0     H29986   6.868   5.566   6.740 -3.2214  2.0278  4.2095
  942MOL0     H29987   7.039   5.618   6.723  0.0525 -0.2543 -2.3554
  942MOL0     H29988   6.922   5.614   6.513  0.4655 -2.0317  2.2510
  942MOL0     H29989   6.798   5.734   6.569  0.6736  1.1015 -3.0526
  942MOL0     H29990   6.961   5.907   6.562 -0.6932 -0.4317  2.0767
  942MOL0     H29991   6.947   5.824   6.410 -1.5411 -2.5898 -0.5497
  942MOL0     H29992   7.323   5.690   6.593 -0.9428 -0.8230 -0.9477
  942MOL0     H29993   7.072   5.572   7.115  0.7303 -0.0330  1.2664
  942MOL0     H29994   7.341   5.345   7.079 -2.1423 -0.1162 -0.8133
  942MOL0     H29995   7.377   5.430   7.220 -0.3842 -4.0712  0.1232
  942MOL0     H29996   7.208   5.400   7.183 -0.4499  0.5353  1.7462
  943MOL0     O29997   1.528   9.339   9.873  0.4867 -0.1042 -0.2915
  943MOL0     C29998   1.498   9.461   9.866 -0.1069  0.2630  0.2966
  943MOL0     O29999   1.596   9.560   9.847 -0.0922  1.1827  0.3869
  943MOL0     C30000   1.724   9.529   9.815 -0.1662  0.1705  0.1810
  943MOL0     C30001   1.821   9.511   9.908 -0.1316  0.0816 -0.0655
  943MOL0     C30002   1.949   9.459   9.876  1.5366 -0.2234 -0.0580
  943MOL0     C30003   1.986   9.439   9.747  0.4528  1.2443  0.1694
  943MOL0     O30004   2.106   9.387   9.706 -0.3025 -1.1849  0.5882
  943MOL0     C30005   2.226   9.399   9.781 -0.4049  0.3445 -0.3723
  943MOL0     C30006   2.323   9.296   9.720 -0.2762  0.6810  0.2810
  943MOL0     C30007   2.467   9.349   9.727  0.8005  0.3751  0.3972
  943MOL0     C30008   2.562   9.248   9.655 -1.3100 -0.0044 -0.3007
  943MOL0     C30009   2.706   9.266   9.717 -1.2911 -0.2444 -0.4714
  943MOL0     C30010   2.790   9.151   9.657 -0.4574 -0.7773  0.0796
  943MOL0     C30011   2.935   9.172   9.698  0.1802  0.0752 -0.0261
  943MOL0     C30012   2.952   9.132   9.848  0.0845  0.0937  0.2473
  943MOL0     N30013   3.091   9.100   9.866  0.1807  0.7850 -0.1719
  943MOL0     C30014   3.142   9.014   9.955 -0.2448  0.3564 -0.1998
  943MOL0     C30015   3.274   9.041   9.953 -0.5109  0.1241 -0.7827
  943MOL0     C30016   3.367   8.976  10.049  0.1082  0.3662 -0.0409
  943MOL0     C30017   3.508   9.031  10.063 -0.8990  0.4758 -0.2369
  943MOL0     C30018   3.596   8.917  10.110 -0.5051 -0.1003 -0.1801
  943MOL0     C30019   3.747   8.960  10.131 -0.2485 -0.1883  0.4079
  943MOL0     O30020   3.805   8.938  10.261  0.3117  0.1458  0.8800
  943MOL0     C30021   3.897   9.036  10.290 -0.4563 -0.2511 -0.7961
  943MOL0     C30022   3.865   9.129  10.386 -0.1751 -0.3341 -0.6225
  943MOL0     C30023   3.951   9.229  10.443 -0.0943  1.1165  0.4919
  943MOL0     C30024   3.899   9.330  10.536  0.2353  0.1555  0.1210
  943MOL0     C30025   4.084   9.223  10.401 -0.1325 -1.1960  1.1083
  943MOL0     C30026   4.187   9.326  10.437  0.9609  0.1764 -0.5274
  943MOL0     O30027   4.174   9.407  10.546  0.4728 -0.7964  0.1496
  943MOL0     C30028   4.267   9.499  10.593  0.9524 -0.6163  0.0722
  943MOL0     C30029   4.406   9.494  10.564  0.3170 -0.1120  0.2585
  943MOL0     C30030   4.496   9.586  10.616 -0.3753 -0.1496 -0.3958
  943MOL0     C30031   4.442   9.688  10.703  0.1991  0.6871 -0.4750
  943MOL0     O30032   4.526   9.778  10.773 -0.0128  0.4176  0.3734
  943MOL0     C30033   4.666   9.746  10.792  1.4657 -0.5386  0.1238
  943MOL0     C30034   4.758   9.806  10.685  0.3362 -0.1399  0.4021
  943MOL0     C30035   4.731   9.951  10.656  0.4555 -0.0210 -0.7381
  943MOL0     C30036   4.844  10.019  10.580 -0.9275 -0.9289  0.6600
  943MOL0     C30037   4.830  10.173  10.602 -0.7721 -0.4395 -0.0850
  943MOL0     C30038   4.939  10.253  10.529  0.1400 -0.3765  0.1746
  943MOL0     C30039   4.921  10.406  10.546 -0.4811 -0.1273 -0.0344
  943MOL0     C30040   5.043  10.487  10.493  0.1328 -0.6525 -0.2550
  943MOL0    Cl30041   5.072  10.449  10.312 -0.1028  0.5168 -0.2411
  943MOL0     C30042   4.304   9.701  10.716  0.3971 -0.6291  0.0414
  943MOL0     C30043   4.214   9.609  10.670 -0.0018  0.5682  1.0830
  943MOL0     O30044   4.266   9.345  10.348 -0.5314 -0.4140  0.4929
  943MOL0     C30045   4.120   9.136  10.289  0.2015 -0.3434 -0.8930
  943MOL0     C30046   4.026   9.050  10.231  0.9081 -0.3970  0.3167
  943MOL0     N30047   3.302   9.137   9.870  0.4542  0.0350  0.0866
  943MOL0     N30048   3.194   9.165   9.800  0.1552  0.2074 -0.0795
  943MOL0     C30049   1.890   9.455   9.645  0.4078 -0.4897 -0.5510
  943MOL0     C30050   1.761   9.514   9.684 -0.6995 -0.3467  0.1649
  943MOL0     C30051   1.357   9.509   9.868  0.1817 -0.1652  0.5110
  943MOL0     C30052   1.334   9.646   9.842  0.0118 -0.3386 -0.3718
  943MOL0     C30053   1.205   9.689   9.823  0.2082 -0.4139  0.3824
  943MOL0     C30054   1.098   9.614   9.831  0.2818 -0.0519 -0.0474
  943MOL0     O30055   0.977   9.674   9.798  0.0014  0.1349 -0.1838
  943MOL0     C30056   0.849   9.606   9.839 -0.4720 -0.6886  0.1309
  943MOL0     C30057   0.743   9.715   9.839 -0.5026 -0.1325 -0.1042
  943MOL0     C30058   0.611   9.648   9.824  0.0141 -0.5360  0.0430
  943MOL0     C30059   0.521   9.749   9.758 -0.1271  0.1356 -0.0908
  943MOL0     C30060   0.377   9.706   9.768  0.5664 -0.9369 -0.0406
  943MOL0     C30061   0.259   9.674   9.768 -0.0048  0.7203  0.0884
  943MOL0     C30062   1.113   9.481   9.864 -0.3629  0.0511  0.0022
  943MOL0     C30063   1.243   9.422   9.888  0.5260 -0.3920  0.0072
  943MOL0     C30064   1.255   9.282   9.910  0.0528  0.5084 -0.2604
  943MOL0     H30065   1.805   9.539  10.012 -3.9014  0.8014 -0.6893
  943MOL0     H30066   2.019   9.429   9.953 -0.4001 -2.5920  0.8720
  943MOL0     H30067   2.210   9.379   9.888 -1.2232 -0.1979 -0.5905
  943MOL0     H30068   2.271   9.498   9.797  0.6404 -0.4844  2.7101
  943MOL0     H30069   2.315   9.205   9.780  1.1703 -0.4495 -1.1525
  943MOL0     H30070   2.299   9.273   9.615 -0.8271  0.5635  0.4267
  943MOL0     H30071   2.484   9.443   9.673  0.3410  1.3073  1.8214
  943MOL0     H30072   2.497   9.360   9.832  3.3369 -0.6252 -0.1452
  943MOL0     H30073   2.522   9.147   9.671  0.9689 -1.0456 -0.8115
  943MOL0     H30074   2.560   9.272   9.549 -2.4673 -1.6114 -0.6932
  943MOL0     H30075   2.706   9.252   9.825  0.7988  3.5656  0.1855
  943MOL0     H30076   2.744   9.367   9.704  2.9849 -1.5865  0.0650
  943MOL0     H30077   2.748   9.062   9.705 -1.8170  0.8921  2.1622
  943MOL0     H30078   2.771   9.151   9.550  1.3472  0.9966 -0.3166
  943MOL0     H30079   2.971   9.272   9.672  1.4492  0.0528  1.4740
  943MOL0     H30080   3.001   9.112   9.635  0.6178  0.0166  0.4898
  943MOL0     H30081   2.922   9.220   9.907 -0.5784 -0.4572  0.7506
  943MOL0     H30082   2.890   9.053   9.891 -0.2420  0.8832  1.2838
  943MOL0     H30083   3.088   8.944  10.017 -2.0374  1.8304 -0.0176
  943MOL0     H30084   3.366   8.869  10.024 -0.7765  1.2549 -4.5771
  943MOL0     H30085   3.318   8.989  10.146 -2.3916  2.6431 -1.4856
  943MOL0     H30086   3.545   9.092   9.980  1.3750  1.9340  1.6994
  943MOL0     H30087   3.517   9.091  10.154  2.7004 -1.4635  0.8702
  943MOL0     H30088   3.551   8.886  10.204  0.2559 -1.5868 -0.2682
  943MOL0     H30089   3.588   8.832  10.041 -1.5856 -2.5904  2.7862
  943MOL0     H30090   3.809   8.915  10.052 -3.8554 -0.1421 -2.7394
  943MOL0     H30091   3.749   9.064  10.097  3.1661 -0.6204 -1.1942
  943MOL0     H30092   3.761   9.122  10.416  0.5280  2.3639  3.1244
  943MOL0     H30093   3.960   9.329  10.627  2.8956  1.4823 -1.5273
  943MOL0     H30094   3.798   9.297  10.563  0.5635  0.2161  1.4626
  943MOL0     H30095   3.908   9.434  10.506 -1.2163  1.6272  4.1372
  943MOL0     H30096   4.441   9.413  10.502 -1.8166  0.0237 -1.2509
  943MOL0     H30097   4.601   9.571  10.593 -1.0537 -3.4954 -1.8145
  943MOL0     H30098   4.699   9.794  10.885 -0.8718  0.4851  0.5215
  943MOL0     H30099   4.679   9.637  10.792 -1.7713 -1.0899  2.1853
  943MOL0     H30100   4.858   9.792  10.727  0.5768 -1.3935 -0.5185
  943MOL0     H30101   4.749   9.750  10.591  0.3504  0.7028 -0.1090
  943MOL0     H30102   4.728  10.000  10.754  0.8793  1.6208 -1.5151
  943MOL0     H30103   4.638   9.946  10.598  0.8384  1.8898 -1.5843
  943MOL0     H30104   4.847   9.985  10.476 -0.0206  1.7714 -0.2857
  943MOL0     H30105   4.943   9.995  10.620 -0.0798  0.8847 -0.2295
  943MOL0     H30106   4.730  10.206  10.572 -0.9618  0.5178  1.4559
  943MOL0     H30107   4.840  10.203  10.707 -3.9700  1.9426 -0.3192
  943MOL0     H30108   4.925  10.231  10.422 -2.3486  2.0765 -0.1377
  943MOL0     H30109   5.038  10.219  10.559  1.4640  0.5535 -2.7612
  943MOL0     H30110   4.908  10.430  10.652  1.1494  0.0681  0.1508
  943MOL0     H30111   4.832  10.445  10.496  1.7006  1.4083 -3.0802
  943MOL0     H30112   5.132  10.462  10.552 -0.4533 -1.3068  0.3905
  943MOL0     H30113   5.021  10.594  10.501 -1.1087 -0.8729 -0.4223
  943MOL0     H30114   4.271   9.797  10.755  4.2254  1.2476 -0.9077
  943MOL0     H30115   4.108   9.625  10.653  0.1770 -0.3646 -1.1895
  943MOL0     H30116   4.222   9.141  10.252  1.8779 -1.6558  3.0547
  943MOL0     H30117   4.045   8.993  10.140 -0.3381 -2.5309  1.3112
  943MOL0     H30118   1.916   9.458   9.540  2.5525  0.2594 -0.0381
  943MOL0     H30119   1.695   9.517   9.599  1.8360  1.1308 -1.9029
  943MOL0     H30120   1.418   9.712   9.822  0.0567 -0.6546 -1.2674
  943MOL0     H30121   1.199   9.795   9.798  1.0374  0.1191  2.3216
  943MOL0     H30122   0.822   9.526   9.770 -1.3602 -0.7021  0.4874
  943MOL0     H30123   0.859   9.562   9.938 -1.0857 -0.2148  0.4140
  943MOL0     H30124   0.761   9.774   9.749 -1.8305  0.1875 -0.1832
  943MOL0     H30125   0.749   9.777   9.929 -2.2148 -0.3382  0.1854
  943MOL0     H30126   0.620   9.564   9.755  0.7105  0.1017 -0.6568
  943MOL0     H30127   0.565   9.608   9.915  0.8506 -2.0898 -0.1841
  943MOL0     H30128   0.545   9.757   9.652 -0.5409 -2.1730 -0.4089
  943MOL0     H30129   0.520   9.844   9.813  1.2634 -0.6171  1.3127
  943MOL0     H30130   0.154   9.655   9.773  0.2154 -0.7202 -0.5081
  943MOL0     H30131   1.025   9.417   9.868  1.0653 -1.9403  3.1908
  943MOL0     H30132   1.315   9.264  10.000  2.4589  0.2044 -1.8354
  943MOL0     H30133   1.161   9.227   9.921  1.3665 -1.6233  0.8742
  943MOL0     H30134   1.303   9.241   9.821  2.1949  0.7022  0.7462
  944MOL0     O30135  10.752   2.633  10.410 -0.2411 -0.3442 -0.0047
  944MOL0     C30136  10.669   2.639  10.497 -0.0603  0.3837 -0.1128
  944MOL0     O30137  10.695   2.649  10.628  0.1277 -0.2448  0.2165
  944MOL0     C30138  10.830   2.632  10.672 -0.0495  0.1491 -0.1754
  944MOL0     C30139  10.911   2.522  10.638  0.1770 -0.2352 -0.5115
  944MOL0     C30140  11.048   2.521  10.661 -0.3280 -0.4782  0.6902
  944MOL0     C30141  11.107   2.621  10.744 -0.1661 -0.8226 -0.0232
  944MOL0     O30142  11.233   2.593  10.787  0.4928 -0.5583  0.0757
  944MOL0     C30143  11.321   2.696  10.846 -0.2392 -0.6349  0.1515
  944MOL0     C30144  11.419   2.610  10.919 -0.2063 -0.1041 -0.3937
  944MOL0     C30145  11.545   2.679  10.965  0.1710  0.2485 -0.8340
  944MOL0     C30146  11.616   2.565  11.052  0.2810 -0.3661  0.4775
  944MOL0     C30147  11.729   2.623  11.131 -0.3071 -0.0159  1.1372
  944MOL0     C30148  11.801   2.531  11.231  0.2674 -0.6127 -0.1740
  944MOL0     C30149  11.830   2.384  11.179  0.2422 -0.0966  0.6039
  944MOL0     C30150  11.915   2.304  11.273 -0.3090  1.0549  0.1129
  944MOL0     N30151  12.054   2.356  11.288  0.1488  0.4713  0.1461
  944MOL0     C30152  12.160   2.317  11.212  0.5109  0.7243 -0.8726
  944MOL0     C30153  12.268   2.367  11.282  0.3731  0.4876 -0.1414
  944MOL0     C30154  12.409   2.329  11.247  0.1814  0.5480 -0.2210
  944MOL0     C30155  12.512   2.365  11.354  0.1106 -1.0636 -0.2805
  944MOL0     C30156  12.650   2.307  11.326 -0.6144 -1.1147  0.2073
  944MOL0     C30157  12.714   2.382  11.204 -0.8636 -0.9049 -0.9921
  944MOL0     O30158  12.855   2.369  11.204 -0.1366  0.0945 -0.2541
  944MOL0     C30159  12.915   2.252  11.178  0.6341  0.3830  0.2035
  944MOL0     C30160  13.046   2.243  11.214 -0.1505 -0.0759 -0.2618
  944MOL0     C30161  13.129   2.141  11.165 -0.2374  0.0651 -0.5540
  944MOL0     C30162  13.262   2.128  11.223  0.1728  0.7052  0.4993
  944MOL0     C30163  13.067   2.031  11.095  0.5712 -0.0682  0.4422
  944MOL0     C30164  13.147   1.925  11.038 -0.4021  0.1605 -0.3094
  944MOL0     O30165  13.274   1.948  10.992 -0.3329 -0.2406 -0.4992
  944MOL0     C30166  13.356   1.873  10.909  0.9276  0.7650  0.0018
  944MOL0     C30167  13.300   1.800  10.802  0.5483 -1.1946 -0.6288
  944MOL0     C30168  13.388   1.737  10.716  0.2566  0.9829  0.5687
  944MOL0     C30169  13.523   1.724  10.750  0.5184  0.2156  0.4240
  944MOL0     O30170  13.608   1.651  10.676 -0.2346 -1.0068  0.3921
  944MOL0     C30171  13.560   1.563  10.570  0.2292 -0.6580  0.3678
  944MOL0     C30172  13.675   1.482  10.516 -0.4161 -0.1490  0.1181
  944MOL0     C30173  13.769   1.423  10.624  0.8946 -0.2309 -0.4580
  944MOL0     C30174  13.868   1.316  10.566 -0.4369  0.2749  0.1939
  944MOL0     C30175  13.958   1.268  10.679  0.3067  0.0609  0.7979
  944MOL0     C30176  14.035   1.149  10.635 -0.1853  0.0796  0.3382
  944MOL0     C30177  14.135   1.085  10.729 -0.5777 -0.5949 -0.2851
  944MOL0     C30178  14.203   0.949  10.674 -0.4230 -0.9974  0.0246
  944MOL0    Cl30179  14.069   0.837  10.658  0.2374  0.1730 -0.2754
  944MOL0     C30180  13.570   1.794  10.852  0.0650  0.0513 -0.4388
  944MOL0     C30181  13.492   1.875  10.926  0.8972  0.2887  1.2857
  944MOL0     O30182  13.090   1.818  11.036 -0.7294 -0.0743  0.0887
  944MOL0     C30183  12.930   2.040  11.060 -0.6457 -0.1710  0.0254
  944MOL0     C30184  12.858   2.151  11.095  0.3799 -0.9993 -0.1770
  944MOL0     N30185  12.217   2.461  11.381 -0.3278  0.2050 -0.3761
  944MOL0     N30186  12.093   2.446  11.388  0.2303 -0.6432 -0.0686
  944MOL0     C30187  11.024   2.720  10.785  0.5527 -0.2663 -0.6277
  944MOL0     C30188  10.886   2.732  10.754  0.2557  0.7615  0.2420
  944MOL0     C30189  10.537   2.659  10.440 -0.1426  1.3251  0.2584
  944MOL0     C30190  10.523   2.747  10.328 -0.3816 -1.1015  0.1369
  944MOL0     C30191  10.398   2.793  10.298  0.3711  0.2414 -0.3476
  944MOL0     C30192  10.281   2.743  10.359 -0.0210 -0.5918 -0.5345
  944MOL0     O30193  10.158   2.792  10.326  0.6406 -1.1271  0.5585
  944MOL0     C30194  10.038   2.723  10.365  0.6158  0.1633 -0.4145
  944MOL0     C30195   9.918   2.781  10.309 -0.1598  0.2089  0.5613
  944MOL0     C30196   9.911   2.756  10.159  0.1687 -0.3649  0.6150
  944MOL0     C30197   9.803   2.840  10.090  0.1290 -0.6037  0.5206
  944MOL0     C30198   9.659   2.815  10.129 -0.3590 -0.4044  0.2822
  944MOL0     C30199   9.549   2.809  10.177 -0.4113 -0.9718  0.2855
  944MOL0     C30200  10.295   2.640  10.455  0.0145 -0.0079  0.1674
  944MOL0     C30201  10.421   2.607  10.501 -0.7016 -1.0934  1.1781
  944MOL0     C30202  10.424   2.504  10.612 -1.0681 -0.1040  0.4433
  944MOL0     H30203  10.872   2.432  10.591 -1.1152  0.8082 -1.5466
  944MOL0     H30204  11.107   2.431  10.645 -0.0676 -1.3952  5.3407
  944MOL0     H30205  11.272   2.759  10.920 -0.5367 -2.0709  1.2177
  944MOL0     H30206  11.369   2.759  10.770  0.3488  0.1894  1.1688
  944MOL0     H30207  11.372   2.552  10.999 -0.8574 -0.4756 -1.0359
  944MOL0     H30208  11.449   2.527  10.854  0.8799 -2.0603  2.3809
  944MOL0     H30209  11.605   2.719  10.883 -1.4998 -0.1331 -2.3145
  944MOL0     H30210  11.523   2.761  11.035 -0.0997 -0.6727  0.1775
  944MOL0     H30211  11.538   2.533  11.122 -0.9437 -1.8969 -1.4737
  944MOL0     H30212  11.630   2.476  10.989  1.4404  0.7885 -0.9657
  944MOL0     H30213  11.688   2.703  11.194  0.9505  2.6981 -1.2319
  944MOL0     H30214  11.805   2.671  11.069 -0.4862 -0.0598  0.8799
  944MOL0     H30215  11.896   2.583  11.246 -1.0326  1.3565  1.7707
  944MOL0     H30216  11.757   2.537  11.331 -1.7297  2.3771 -1.1020
  944MOL0     H30217  11.877   2.393  11.080 -0.0262  1.8082  0.6010
  944MOL0     H30218  11.735   2.334  11.160 -0.8348  2.0195  0.0282
  944MOL0     H30219  11.867   2.300  11.372  0.3265 -0.5444  0.3842
  944MOL0     H30220  11.927   2.201  11.237 -1.1980  0.8715  0.3144
  944MOL0     H30221  12.151   2.252  11.126  3.5620 -0.3570 -0.4975
  944MOL0     H30222  12.441   2.394  11.165  1.0152  2.9793  1.8806
  944MOL0     H30223  12.421   2.222  11.227 -2.5754  0.0116  0.5146
  944MOL0     H30224  12.524   2.474  11.361  1.6653 -1.1873 -0.6811
  944MOL0     H30225  12.478   2.327  11.450 -1.0449 -1.0192 -0.6533
  944MOL0     H30226  12.710   2.318  11.416 -0.3957  0.4348 -0.0950
  944MOL0     H30227  12.646   2.201  11.299  0.5754 -0.6412 -2.0777
  944MOL0     H30228  12.676   2.359  11.104  0.9734  1.4907 -2.3606
  944MOL0     H30229  12.693   2.488  11.215  0.7419 -0.4562 -1.8129
  944MOL0     H30230  13.089   2.315  11.283  0.6446  1.8172 -2.5968
  944MOL0     H30231  13.337   2.152  11.148  0.1410 -4.7744 -1.7695
  944MOL0     H30232  13.291   2.028  11.258  0.7592  1.5027  2.4514
  944MOL0     H30233  13.274   2.208  11.297  1.9531 -0.3425  1.3965
  944MOL0     H30234  13.192   1.805  10.792  0.6594 -0.5140 -1.5749
  944MOL0     H30235  13.338   1.698  10.628  0.9513 -3.3534  1.8865
  944MOL0     H30236  13.499   1.478  10.602 -2.9363  1.4247  0.4063
  944MOL0     H30237  13.516   1.630  10.495  0.6002 -0.0192  0.7103
  944MOL0     H30238  13.639   1.399  10.454 -1.4153  1.3303 -1.3407
  944MOL0     H30239  13.738   1.535  10.445  2.2906 -0.2128  2.3229
  944MOL0     H30240  13.711   1.379  10.706  0.2560 -0.3787 -0.9857
  944MOL0     H30241  13.824   1.508  10.665 -0.5038  2.0425 -2.9835
  944MOL0     H30242  13.934   1.359  10.490  2.4822 -4.4580 -0.4145
  944MOL0     H30243  13.805   1.235  10.528 -2.1120  2.6556 -2.5734
  944MOL0     H30244  14.039   1.332  10.713  1.4004 -1.2175  0.6932
  944MOL0     H30245  13.890   1.245  10.762 -2.6178 -1.5794 -1.8356
  944MOL0     H30246  14.082   1.174  10.540 -1.1572  1.3332  0.1616
  944MOL0     H30247  13.967   1.068  10.610  1.1132 -1.3129  1.1217
  944MOL0     H30248  14.085   1.055  10.821 -0.3701  0.7185  0.2698
  944MOL0     H30249  14.211   1.157  10.758 -0.3427 -1.6523  1.9396
  944MOL0     H30250  14.277   0.919  10.750  0.7473  2.5046  0.4401
  944MOL0     H30251  14.247   0.964  10.576  0.0825  0.9201  0.4971
  944MOL0     H30252  13.670   1.783  10.893 -0.5604  1.4111  1.5762
  944MOL0     H30253  13.522   1.928  11.017  4.0003  2.3181 -0.7308
  944MOL0     H30254  12.887   1.958  11.003 -0.9484  1.2393 -1.8946
  944MOL0     H30255  12.755   2.145  11.061 -0.4276 -0.7040  2.0861
  944MOL0     H30256  11.079   2.795  10.841 -1.3729  1.1908 -0.5856
  944MOL0     H30257  10.831   2.800  10.817  0.5566 -1.6989  3.4267
  944MOL0     H30258  10.609   2.794  10.281 -1.6658  2.2459  0.8475
  944MOL0     H30259  10.388   2.864  10.217  0.3262  1.8980  1.0673
  944MOL0     H30260  10.051   2.617  10.339  3.3543  0.1527  0.6242
  944MOL0     H30261  10.022   2.721  10.473 -1.0528  0.3890 -0.6374
  944MOL0     H30262   9.932   2.889  10.326 -0.7719  0.3800  0.0231
  944MOL0     H30263   9.828   2.737  10.351 -0.2184  0.6950  0.9584
  944MOL0     H30264  10.002   2.790  10.109 -0.8712  0.0389 -1.0952
  944MOL0     H30265   9.906   2.648  10.142  0.3204 -0.5552  1.7185
  944MOL0     H30266   9.808   2.818   9.983 -1.1444 -2.3480  0.7728
  944MOL0     H30267   9.821   2.947  10.101  1.4126 -0.7118 -0.3054
  944MOL0     H30268   9.451   2.800  10.220 -1.5901  2.2928 -1.3563
  944MOL0     H30269  10.209   2.589  10.496  0.1723 -2.3638 -2.1585
  944MOL0     H30270  10.435   2.557  10.707 -0.7481 -3.4477  2.4393
  944MOL0     H30271  10.334   2.442  10.604 -0.8732 -0.2082 -1.2098
  944MOL0     H30272  10.508   2.443  10.579 -2.0603 -1.0111 -0.4973
  945MOL0     O30273   7.632  10.738   8.829  0.9028 -0.0077 -0.4168
  945MOL0     C30274   7.663  10.631   8.788  0.0909 -0.5029 -0.8513
  945MOL0     O30275   7.793  10.576   8.814  0.0230  0.4549 -0.1600
  945MOL0     C30276   7.873  10.641   8.899 -0.3538  0.5319  0.7539
  945MOL0     C30277   7.897  10.576   9.022 -0.3796 -0.4016 -1.1011
  945MOL0     C30278   7.977  10.644   9.122 -0.2549  0.2205  0.3344
  945MOL0     C30279   8.043  10.765   9.094 -0.0231  0.3193 -0.5344
  945MOL0     O30280   8.132  10.828   9.179  0.5614  0.0215 -1.2984
  945MOL0     C30281   8.120  10.798   9.321 -0.0037  0.4580 -0.0417
  945MOL0     C30282   8.248  10.827   9.396 -0.9646 -0.4080 -0.0945
  945MOL0     C30283   8.289  10.985   9.408  0.0414 -0.0799 -0.0887
  945MOL0     C30284   8.363  11.024   9.526  0.0495  0.3044 -0.2062
  945MOL0     C30285   8.283  11.019   9.656 -0.4588  0.7654  1.0766
  945MOL0     C30286   8.166  11.103   9.672  0.4556 -0.3391 -0.0334
  945MOL0     C30287   8.186  11.250   9.649 -0.3304  0.5034 -0.1076
  945MOL0     C30288   8.066  11.339   9.688  0.2938 -0.9717 -0.4034
  945MOL0     N30289   8.086  11.481   9.660 -0.5976 -0.2699  0.7035
  945MOL0     C30290   8.065  11.546   9.541 -0.0976 -0.1257  0.1945
  945MOL0     C30291   8.118  11.668   9.558  0.5505  0.4943  0.5170
  945MOL0     C30292   8.127  11.771   9.452  0.5912 -0.4227 -0.5410
  945MOL0     C30293   8.226  11.726   9.338 -0.1444 -0.3493  0.8520
  945MOL0     C30294   8.207  11.811   9.218 -0.3517  0.4077 -1.1583
  945MOL0     C30295   8.306  11.926   9.212  0.4942  0.0034 -0.8286
  945MOL0     O30296   8.426  11.876   9.145  0.7338 -0.2922  0.7968
  945MOL0     C30297   8.545  11.939   9.180 -0.4501  0.7216 -0.3198
  945MOL0     C30298   8.570  12.062   9.238  0.4423  0.1333 -0.6176
  945MOL0     C30299   8.700  12.107   9.260  0.3379  0.2003 -0.5937
  945MOL0     C30300   8.706  12.237   9.338 -0.0759 -1.0677 -1.0639
  945MOL0     C30301   8.813  12.024   9.218 -0.7035 -0.0636 -0.0439
  945MOL0     C30302   8.956  12.063   9.214 -0.3421  0.2633 -0.1738
  945MOL0     O30303   9.038  11.971   9.164 -0.0434  0.2924 -0.4786
  945MOL0     C30304   9.153  12.006   9.098  0.0271  0.5175 -0.1655
  945MOL0     C30305   9.273  11.935   9.127  0.0335  0.2502  0.0699
  945MOL0     C30306   9.392  11.959   9.049 -0.3161 -1.0651 -0.7895
  945MOL0     C30307   9.386  12.046   8.942  0.9048  0.6356 -0.0473
  945MOL0     O30308   9.497  12.069   8.861  0.3770  0.3564  0.6484
  945MOL0     C30309   9.623  12.100   8.924 -0.1274 -0.0042 -1.1650
  945MOL0     C30310   9.726  12.121   8.809 -0.6518  0.4616 -1.0826
  945MOL0     C30311   9.851  12.201   8.863 -0.3985  0.3165 -0.3378
  945MOL0     C30312   9.968  12.151   8.779  0.3256 -0.3348 -0.5793
  945MOL0     C30313  10.096  12.225   8.812  0.1761 -0.9974 -0.4786
  945MOL0     C30314  10.217  12.167   8.736  0.9005 -0.1899  0.0133
  945MOL0     C30315  10.348  12.235   8.766 -0.7515  0.1116  0.4131
  945MOL0     C30316  10.452  12.196   8.670 -0.1127 -0.2987  0.6542
  945MOL0    Cl30317  10.569  12.317   8.637  0.0783 -0.3803 -0.2092
  945MOL0     C30318   9.263  12.112   8.905  0.1474 -0.0644 -0.5109
  945MOL0     C30319   9.152  12.103   8.989  1.0388  0.6130 -0.1575
  945MOL0     O30320   8.981  12.180   9.231 -0.3784 -0.1845  0.2155
  945MOL0     C30321   8.783  11.901   9.157  0.3192 -0.3975  0.2659
  945MOL0     C30322   8.654  11.860   9.140 -0.5862 -0.0743 -0.3690
  945MOL0     N30323   8.155  11.686   9.686 -0.3780 -0.2986 -0.1463
  945MOL0     N30324   8.145  11.568   9.750 -0.3065 -0.4255  0.3745
  945MOL0     C30325   8.017  10.824   8.963  0.2849  0.5697 -0.0538
  945MOL0     C30326   7.930  10.760   8.875 -0.4299  0.0744  0.7925
  945MOL0     C30327   7.562  10.538   8.724  0.6678  0.1475  0.9632
  945MOL0     C30328   7.602  10.409   8.670 -0.5399 -0.6716 -0.0298
  945MOL0     C30329   7.522  10.326   8.595 -0.5428 -0.6688  0.0778
  945MOL0     C30330   7.394  10.359   8.563  0.3151 -0.3745 -0.3137
  945MOL0     O30331   7.321  10.260   8.496  0.4690  0.4749  0.1376
  945MOL0     C30332   7.188  10.276   8.429 -0.2158  0.4495  0.0793
  945MOL0     C30333   7.143  10.140   8.367 -0.3793  0.1770  0.2610
  945MOL0     C30334   7.254  10.064   8.289 -0.5979 -0.8016  1.2178
  945MOL0     C30335   7.197   9.938   8.222  0.4300  0.0736 -1.1171
  945MOL0     C30336   7.096   9.969   8.127  0.7925  0.6804  0.0947
  945MOL0     C30337   6.999   9.994   8.049 -0.0497  0.4306  0.7468
  945MOL0     C30338   7.353  10.479   8.608  0.2117 -0.0641  0.6886
  945MOL0     C30339   7.428  10.566   8.690 -0.1353  0.6631 -0.8317
  945MOL0     C30340   7.364  10.693   8.728  0.3579  0.0072 -0.4882
  945MOL0     H30341   7.848  10.485   9.053 -1.2409  1.0669  2.3388
  945MOL0     H30342   7.986  10.599   9.221 -2.8006  0.0806  0.5781
  945MOL0     H30343   8.103  10.692   9.343  1.5197 -0.0477 -1.1665
  945MOL0     H30344   8.034  10.848   9.365 -1.1773 -0.2788 -1.4188
  945MOL0     H30345   8.242  10.792   9.499  1.6353  1.1665  0.6844
  945MOL0     H30346   8.330  10.767   9.355 -2.6751 -2.4400 -0.7076
  945MOL0     H30347   8.352  11.008   9.322  0.1048 -0.1210 -0.0532
  945MOL0     H30348   8.200  11.048   9.400  0.0279 -0.0909 -0.0349
  945MOL0     H30349   8.447  10.956   9.541  0.5351  0.7533 -0.8787
  945MOL0     H30350   8.412  11.120   9.509  3.8191 -1.4566 -0.2249
  945MOL0     H30351   8.352  11.045   9.736  2.0233 -1.0226 -0.3464
  945MOL0     H30352   8.245  10.918   9.674 -1.7344  1.6530  3.8195
  945MOL0     H30353   8.093  11.064   9.601  1.9919 -1.9261 -0.8085
  945MOL0     H30354   8.124  11.095   9.773 -0.9212  0.7715 -0.4815
  945MOL0     H30355   8.197  11.270   9.542 -0.1223 -1.4374 -0.4952
  945MOL0     H30356   8.274  11.282   9.704  2.1805 -1.4204 -2.7150
  945MOL0     H30357   7.979  11.309   9.629 -0.5337  0.5844 -0.0316
  945MOL0     H30358   8.041  11.328   9.794  0.1485 -0.6845 -0.4076
  945MOL0     H30359   8.020  11.512   9.448  3.8255 -3.1415 -0.9050
  945MOL0     H30360   8.145  11.870   9.495 -1.7210 -0.2521  0.1435
  945MOL0     H30361   8.026  11.776   9.412 -0.8393 -2.2986  2.4980
  945MOL0     H30362   8.330  11.730   9.371  0.6735  2.2348 -1.6430
  945MOL0     H30363   8.186  11.630   9.306  0.2127 -0.0258 -0.6430
  945MOL0     H30364   8.223  11.749   9.130  0.7526 -0.1091 -0.6002
  945MOL0     H30365   8.101  11.838   9.222 -0.6047 -0.5345  3.0330
  945MOL0     H30366   8.268  12.010   9.153  1.1543  1.5371  0.8316
  945MOL0     H30367   8.331  11.965   9.311 -1.7203 -0.0521 -0.2074
  945MOL0     H30368   8.488  12.127   9.267  0.7002  0.1519  0.0746
  945MOL0     H30369   8.780  12.228   9.418 -2.2854 -0.1196  1.2273
  945MOL0     H30370   8.614  12.271   9.386  1.3975  0.6428  0.7415
  945MOL0     H30371   8.737  12.310   9.263  0.0458  0.2176  0.1913
  945MOL0     H30372   9.295  11.872   9.212 -1.5223  1.0066  1.0784
  945MOL0     H30373   9.484  11.910   9.078 -1.3619 -2.1000  0.9703
  945MOL0     H30374   9.612  12.193   8.980  2.9233 -0.4841  0.5019
  945MOL0     H30375   9.660  12.015   8.984  0.7127  0.8153 -0.4857
  945MOL0     H30376   9.762  12.023   8.775  3.5920  0.6749  2.0243
  945MOL0     H30377   9.691  12.181   8.725  0.2371  2.4322 -0.1218
  945MOL0     H30378   9.872  12.181   8.968 -1.5647  2.1909  0.3022
  945MOL0     H30379   9.828  12.306   8.840  0.8999  0.5158 -0.8415
  945MOL0     H30380   9.946  12.162   8.672 -1.1675 -1.1425 -0.3751
  945MOL0     H30381   9.991  12.045   8.790  0.8416 -0.0083  2.3073
  945MOL0     H30382  10.086  12.333   8.794  1.0004 -0.8071  0.1203
  945MOL0     H30383  10.116  12.228   8.920  0.0227  1.9451 -0.4593
  945MOL0     H30384  10.193  12.167   8.629 -2.4207  3.0353  0.5379
  945MOL0     H30385  10.234  12.072   8.786  6.8074  0.7295  0.5558
  945MOL0     H30386  10.363  12.209   8.871 -0.4706 -0.5159  0.2231
  945MOL0     H30387  10.326  12.341   8.747 -1.0549  0.0609  0.4844
  945MOL0     H30388  10.406  12.172   8.574 -0.4488 -0.9729  0.9802
  945MOL0     H30389  10.499  12.102   8.702 -0.3074  0.1648  2.3880
  945MOL0     H30390   9.262  12.172   8.815 -1.5603  0.1295 -0.3858
  945MOL0     H30391   9.061  12.161   8.989 -0.0264 -0.9626  1.0957
  945MOL0     H30392   8.862  11.832   9.131  2.5470  1.8185  0.7444
  945MOL0     H30393   8.639  11.763   9.094 -0.9452 -0.5128  0.6449
  945MOL0     H30394   8.079  10.908   8.935  0.2542  0.3910 -0.6609
  945MOL0     H30395   7.902  10.789   8.774 -1.3204 -4.1817 -0.4013
  945MOL0     H30396   7.705  10.375   8.680  0.0349  0.9850  0.0588
  945MOL0     H30397   7.557  10.232   8.553  2.5160  0.8219 -0.9657
  945MOL0     H30398   7.115  10.322   8.496  0.8705  2.5083 -0.1020
  945MOL0     H30399   7.189  10.349   8.347 -1.8809 -0.1327 -0.5182
  945MOL0     H30400   7.051  10.147   8.308 -0.7923 -1.9876  0.5903
  945MOL0     H30401   7.123  10.078   8.454 -3.3428  1.7107  0.8157
  945MOL0     H30402   7.292  10.132   8.212  4.5313 -1.1099  3.1435
  945MOL0     H30403   7.337  10.038   8.355  3.9041  2.8359 -2.2750
  945MOL0     H30404   7.168   9.873   8.305  0.7050  2.3036  0.8432
  945MOL0     H30405   7.275   9.881   8.171  0.7184  2.4458 -3.5256
  945MOL0     H30406   6.932  10.025   7.972 -0.5279 -2.3678 -0.0541
  945MOL0     H30407   7.251  10.511   8.589  0.2376  0.4237  1.3466
  945MOL0     H30408   7.261  10.697   8.693  0.8614 -1.1826 -2.1996
  945MOL0     H30409   7.376  10.718   8.834  0.2408  0.6104 -0.6134
  945MOL0     H30410   7.415  10.765   8.663 -1.1817  0.9773 -0.6645
  946MOL0     O30411   9.415   4.043   4.517 -0.3273 -0.2286 -0.2745
  946MOL0     C30412   9.335   3.966   4.575  0.3441  0.9346 -0.8606
  946MOL0     O30413   9.380   3.861   4.656 -0.2081  0.3111  0.3491
  946MOL0     C30414   9.503   3.872   4.714  0.4270 -1.2708 -0.4270
  946MOL0     C30415   9.596   3.775   4.696 -0.2507  0.0449 -0.4344
  946MOL0     C30416   9.721   3.787   4.755 -1.0138 -0.3924  0.5969
  946MOL0     C30417   9.765   3.900   4.833  1.0613  0.3776  0.5163
  946MOL0     O30418   9.890   3.896   4.871  0.0302 -0.4584 -0.3160
  946MOL0     C30419   9.933   4.000   4.965 -0.1322  0.2803  0.2301
  946MOL0     C30420  10.086   3.977   4.997  0.6339  0.2722 -0.1871
  946MOL0     C30421  10.187   3.969   4.878  0.1870  0.3588  0.3883
  946MOL0     C30422  10.335   3.971   4.922 -0.1277  0.7346 -0.1182
  946MOL0     C30423  10.432   3.954   4.799 -0.0366 -0.1683  0.0925
  946MOL0     C30424  10.572   3.900   4.836  0.2514  0.2789  1.2066
  946MOL0     C30425  10.661   3.871   4.718 -0.3601 -0.6568  0.1131
  946MOL0     C30426  10.730   4.003   4.666  0.5445 -0.3629 -0.2441
  946MOL0     N30427  10.863   3.982   4.618  0.6863  0.4489  1.5164
  946MOL0     C30428  10.915   3.898   4.520 -0.4291 -0.2785 -1.0202
  946MOL0     C30429  11.054   3.911   4.526 -0.5049 -0.3739 -0.4945
  946MOL0     C30430  11.150   3.829   4.446 -0.3321 -0.1619  0.2358
  946MOL0     C30431  11.149   3.678   4.493 -0.4606 -0.3017 -0.8032
  946MOL0     C30432  11.208   3.664   4.632 -0.3159 -0.8553  0.7859
  946MOL0     C30433  11.362   3.683   4.633  0.1911  0.3300 -0.2644
  946MOL0     O30434  11.424   3.672   4.766  1.2688 -0.5635  0.0843
  946MOL0     C30435  11.559   3.654   4.741 -0.4374  0.1435 -1.2853
  946MOL0     C30436  11.625   3.537   4.780 -0.5626  0.2156 -0.0563
  946MOL0     C30437  11.763   3.524   4.755  0.4216  0.1682 -0.7337
  946MOL0     C30438  11.829   3.396   4.790  0.5502 -0.1791 -0.5362
  946MOL0     C30439  11.840   3.626   4.689 -0.0612  0.3761  0.5905
  946MOL0     C30440  11.983   3.608   4.641 -1.1304 -0.3375  0.2303
  946MOL0     O30441  12.058   3.721   4.642 -0.2992 -0.1042  0.2546
  946MOL0     C30442  12.196   3.712   4.628 -0.1659 -0.5857 -0.0234
  946MOL0     C30443  12.271   3.750   4.518  0.3796 -0.3212  0.0979
  946MOL0     C30444  12.411   3.735   4.512  0.8786  0.9662  0.1773
  946MOL0     C30445  12.485   3.682   4.621  0.1849 -0.3162  0.6263
  946MOL0     O30446  12.624   3.689   4.605  0.1357 -1.1590 -0.6778
  946MOL0     C30447  12.690   3.594   4.686  0.0374 -0.9697 -0.7866
  946MOL0     C30448  12.847   3.604   4.678  0.4736 -0.8665 -0.1205
  946MOL0     C30449  12.892   3.755   4.679 -0.0179  0.7654  0.1828
  946MOL0     C30450  13.033   3.755   4.728 -0.2619 -0.9638 -0.0828
  946MOL0     C30451  13.098   3.892   4.745  0.4027  0.5442 -0.5046
  946MOL0     C30452  13.151   3.933   4.611  0.5027 -0.8089 -0.1752
  946MOL0     C30453  13.176   4.082   4.582  0.3934 -0.3966 -0.7626
  946MOL0     C30454  13.312   4.135   4.634 -0.3257  0.2026  0.2440
  946MOL0    Cl30455  13.452   4.075   4.546 -0.4094 -0.2385  0.0238
  946MOL0     C30456  12.407   3.648   4.733  0.1100  0.3132 -0.4512
  946MOL0     C30457  12.266   3.667   4.738 -0.4989 -0.3522 -0.6337
  946MOL0     O30458  12.025   3.501   4.613 -0.4847  0.1974  0.3774
  946MOL0     C30459  11.771   3.747   4.667  0.3840 -0.4615  0.2565
  946MOL0     C30460  11.630   3.765   4.686  0.0189 -0.4784  0.7243
  946MOL0     N30461  11.083   4.005   4.624  0.6371  0.1661 -0.6099
  946MOL0     N30462  10.972   4.044   4.670  0.2143  0.2130 -0.3131
  946MOL0     C30463   9.671   4.002   4.845 -0.1997  0.0117 -0.6795
  946MOL0     C30464   9.543   3.989   4.795 -0.1435  0.0145  0.2716
  946MOL0     C30465   9.188   3.980   4.547 -0.2272 -1.2311 -0.0648
  946MOL0     C30466   9.104   3.872   4.593  0.8236 -0.3922 -0.2818
  946MOL0     C30467   8.966   3.873   4.563 -0.4255 -0.0595 -0.0427
  946MOL0     C30468   8.911   3.982   4.496  0.7106 -0.2742  0.8891
  946MOL0     O30469   8.778   4.001   4.472  0.5439 -0.1415  0.0759
  946MOL0     C30470   8.685   3.939   4.563 -0.3014 -0.1876 -0.3784
  946MOL0     C30471   8.542   3.983   4.540 -0.1325  1.1575  0.8405
  946MOL0     C30472   8.484   3.909   4.423  0.2766  0.2755 -0.8625
  946MOL0     C30473   8.339   3.952   4.406 -0.3584 -0.3997 -0.7198
  946MOL0     C30474   8.267   3.864   4.315  0.4514  0.9111 -0.5708
  946MOL0     C30475   8.196   3.798   4.246  0.0788  0.6141 -0.5881
  946MOL0     C30476   8.988   4.086   4.445  0.7722  0.4161  0.1390
  946MOL0     C30477   9.128   4.085   4.480 -0.1218 -0.6696 -0.7156
  946MOL0     C30478   9.202   4.214   4.445  0.1855  0.7266 -0.2545
  946MOL0     H30479   9.570   3.680   4.651  0.2032  0.7571 -2.2879
  946MOL0     H30480   9.789   3.702   4.757  2.0960  1.8121 -1.6991
  946MOL0     H30481   9.861   4.001   5.047 -2.7530 -1.4113 -1.8632
  946MOL0     H30482   9.936   4.101   4.924  1.9808  2.3008  4.6628
  946MOL0     H30483  10.122   4.068   5.045  0.3047 -0.1726  0.9399
  946MOL0     H30484  10.101   3.896   5.069  0.4192  0.4373  0.0429
  946MOL0     H30485  10.168   3.872   4.830  2.2887 -0.2783  0.7031
  946MOL0     H30486  10.166   4.042   4.800  1.1530 -0.7160 -0.9380
  946MOL0     H30487  10.346   4.055   4.990  0.7518  0.0458  0.6147
  946MOL0     H30488  10.365   3.888   4.987 -0.4342  0.9942  0.3601
  946MOL0     H30489  10.432   4.051   4.747 -4.7721 -0.4988 -1.0031
  946MOL0     H30490  10.399   3.883   4.723  4.4992 -0.4092 -1.9670
  946MOL0     H30491  10.609   3.983   4.896  1.2981  1.8396 -1.4240
  946MOL0     H30492  10.553   3.806   4.889 -5.5649 -0.0475 -0.7128
  946MOL0     H30493  10.617   3.812   4.637  0.7257 -1.5090  0.1182
  946MOL0     H30494  10.744   3.807   4.748 -0.4527 -0.4597  0.8152
  946MOL0     H30495  10.668   4.054   4.591 -0.8741 -0.2439  0.9481
  946MOL0     H30496  10.724   4.071   4.752  0.2740  0.9699 -1.2724
  946MOL0     H30497  10.870   3.835   4.444 -0.3893 -0.1396 -1.1596
  946MOL0     H30498  11.243   3.881   4.470 -0.1862  0.0529 -0.7580
  946MOL0     H30499  11.122   3.849   4.343 -1.1276  0.8399  0.6289
  946MOL0     H30500  11.050   3.630   4.495 -0.0927 -1.0699 -0.3271
  946MOL0     H30501  11.198   3.607   4.426 -1.9592 -0.7426 -1.4740
  946MOL0     H30502  11.166   3.744   4.693 -0.9570 -0.5905  0.0228
  946MOL0     H30503  11.179   3.568   4.677  1.1114 -1.5556  0.2733
  946MOL0     H30504  11.409   3.610   4.566  2.7277  0.5912  1.0927
  946MOL0     H30505  11.379   3.783   4.591  1.1476 -0.9258 -3.1167
  946MOL0     H30506  11.565   3.453   4.813 -0.4962  1.6995  4.5424
  946MOL0     H30507  11.766   3.333   4.853  1.9798 -0.6846  0.4479
  946MOL0     H30508  11.926   3.409   4.839  0.3068 -0.5903  0.0652
  946MOL0     H30509  11.853   3.342   4.698 -1.4295 -0.4595 -0.9186
  946MOL0     H30510  12.229   3.796   4.429 -0.5730 -2.0277 -0.3877
  946MOL0     H30511  12.471   3.781   4.435  1.8997 -0.5825  0.0204
  946MOL0     H30512  12.658   3.616   4.789  0.9697  0.5012 -0.7745
  946MOL0     H30513  12.650   3.498   4.651 -1.3499  0.3405 -3.0297
  946MOL0     H30514  12.892   3.548   4.760  0.1085 -0.0052  0.6768
  946MOL0     H30515  12.882   3.562   4.583  0.8751 -0.5396 -0.1187
  946MOL0     H30516  12.830   3.798   4.759 -1.4933 -1.5286  0.3436
  946MOL0     H30517  12.885   3.807   4.583  2.6379  0.9777  0.0377
  946MOL0     H30518  13.105   3.696   4.670  2.3027  1.9774 -0.2236
  946MOL0     H30519  13.031   3.704   4.825 -0.1336 -0.7785  0.0195
  946MOL0     H30520  13.035   3.960   4.803  0.1908  0.5625 -0.7563
  946MOL0     H30521  13.180   3.880   4.817 -3.2864  0.0928  4.1050
  946MOL0     H30522  13.079   3.911   4.533 -0.9476 -0.1025  0.9126
  946MOL0     H30523  13.248   3.886   4.591  0.6939  0.3095 -2.1358
  946MOL0     H30524  13.100   4.141   4.634  0.6131 -0.5873 -0.2264
  946MOL0     H30525  13.167   4.109   4.476  0.3994 -1.1522 -0.9599
  946MOL0     H30526  13.314   4.110   4.740  0.2680 -1.5641 -0.1609
  946MOL0     H30527  13.318   4.244   4.625  0.3797 -0.0165 -3.6037
  946MOL0     H30528  12.455   3.608   4.822 -2.1824  2.6367  2.0322
  946MOL0     H30529  12.217   3.650   4.833 -1.6522 -0.1282 -1.1711
  946MOL0     H30530  11.820   3.841   4.643  0.2030 -0.2484  0.7110
  946MOL0     H30531  11.574   3.858   4.682 -1.9474 -1.6254  0.1277
  946MOL0     H30532   9.698   4.093   4.896 -3.1750 -0.4262  1.9828
  946MOL0     H30533   9.465   4.064   4.806 -2.4656 -2.5725  3.1930
  946MOL0     H30534   9.144   3.778   4.628 -0.6012 -1.7234 -2.0232
  946MOL0     H30535   8.903   3.789   4.589  0.4347  0.2676  3.7347
  946MOL0     H30536   8.678   3.830   4.554  0.6898 -0.3528  0.6221
  946MOL0     H30537   8.712   3.963   4.666 -2.0770  2.5508 -0.4625
  946MOL0     H30538   8.533   4.090   4.519 -0.1572  0.5312 -3.0047
  946MOL0     H30539   8.495   3.956   4.635  1.2843 -2.5402  0.6767
  946MOL0     H30540   8.543   3.947   4.339  2.0460  1.4983  0.8354
  946MOL0     H30541   8.507   3.802   4.431 -0.3323  0.2880  3.0222
  946MOL0     H30542   8.338   4.053   4.364  0.1418  0.6547  1.6434
  946MOL0     H30543   8.277   3.955   4.496  1.6585  1.4895  0.6980
  946MOL0     H30544   8.130   3.732   4.194  0.0172 -0.6344  1.0107
  946MOL0     H30545   8.945   4.170   4.391  2.8092  2.0688  0.9478
  946MOL0     H30546   9.144   4.295   4.400  1.7803  0.6909 -2.5118
  946MOL0     H30547   9.264   4.250   4.528 -0.1526  1.7271 -0.4262
  946MOL0     H30548   9.262   4.183   4.359 -0.8595  1.8265 -1.4148
  947MOL0     O30549  10.336   5.573   9.537 -0.0403 -0.2244  0.4132
  947MOL0     C30550  10.263   5.669   9.571 -0.0338 -0.1267  0.6549
  947MOL0     O30551  10.253   5.714   9.698 -0.3043 -0.3642 -0.1221
  947MOL0     C30552  10.358   5.680   9.776 -0.4094  0.3865 -0.7297
  947MOL0     C30553  10.372   5.552   9.838 -0.3075  0.1719  0.0422
  947MOL0     C30554  10.495   5.506   9.902 -1.2747 -0.7243 -0.4689
  947MOL0     C30555  10.590   5.603   9.911 -0.0986  0.3386  0.4216
  947MOL0     O30556  10.707   5.568   9.971  0.1243 -0.3078  0.1146
  947MOL0     C30557  10.796   5.665  10.036 -0.3328  0.2833 -1.1693
  947MOL0     C30558  10.928   5.599  10.058  0.0165 -0.1130 -0.7058
  947MOL0     C30559  11.016   5.716  10.107 -0.2090 -0.2794  0.0390
  947MOL0     C30560  11.160   5.665  10.129 -0.1220 -0.1974 -0.6956
  947MOL0     C30561  11.253   5.783  10.175 -0.0942 -0.3013  0.1643
  947MOL0     C30562  11.384   5.735  10.232  0.2357  0.3649 -0.1738
  947MOL0     C30563  11.360   5.652  10.360 -0.5189 -0.3278  0.7747
  947MOL0     C30564  11.492   5.616  10.430  0.0696  0.4769 -0.4473
  947MOL0     N30565  11.551   5.500  10.361 -0.1887 -0.1965  0.2137
  947MOL0     C30566  11.667   5.494  10.294  0.6285 -0.2459  0.1222
  947MOL0     C30567  11.682   5.364  10.264  0.7429  0.5771  0.1621
  947MOL0     C30568  11.802   5.298  10.195  1.0839 -0.0089 -0.1105
  947MOL0     C30569  11.803   5.146  10.214  0.3835 -1.0856  0.2089
  947MOL0     C30570  11.841   5.097  10.356  0.3416 -0.3740  0.0458
  947MOL0     C30571  11.846   4.950  10.349  0.9300  0.3717 -0.8609
  947MOL0     O30572  11.861   4.874  10.472  0.3051  0.4110 -0.3621
  947MOL0     C30573  11.752   4.873  10.557  0.1487  0.1401  0.7002
  947MOL0     C30574  11.618   4.890  10.521 -0.3512 -0.1817  0.3232
  947MOL0     C30575  11.523   4.895  10.616  0.2118  0.1968  0.9167
  947MOL0     C30576  11.381   4.921  10.562 -0.4215  0.2557 -0.4126
  947MOL0     C30577  11.553   4.859  10.747 -0.1014  0.1955 -0.3417
  947MOL0     C30578  11.445   4.842  10.854 -0.2001 -0.0240 -0.4668
  947MOL0     O30579  11.310   4.834  10.824 -0.0878  0.0385  0.2961
  947MOL0     C30580  11.225   4.839  10.933 -0.4657  0.4792 -0.1824
  947MOL0     C30581  11.146   4.950  10.952 -0.2511  0.0901  0.1200
  947MOL0     C30582  11.049   4.942  11.044 -0.5049  0.6330 -0.0760
  947MOL0     C30583  11.026   4.831  11.128  0.1565 -0.6455 -0.2413
  947MOL0     O30584  10.938   4.860  11.231  0.3615 -0.4837  0.5427
  947MOL0     C30585  10.974   4.810  11.363  0.4465  0.0528 -0.4315
  947MOL0     C30586  10.841   4.797  11.442  0.2879  0.0482  0.1594
  947MOL0     C30587  10.778   4.936  11.439  0.2497 -0.1071 -0.5364
  947MOL0     C30588  10.651   4.950  11.540  1.2408 -1.2858  1.4019
  947MOL0     C30589  10.589   5.094  11.550  0.4380  0.3134 -0.4580
  947MOL0     C30590  10.464   5.085  11.644 -0.7826  0.2145 -1.1639
  947MOL0     C30591  10.379   5.210  11.664 -0.6305 -0.4193 -0.4952
  947MOL0     C30592  10.285   5.197  11.786  0.1191 -0.0860  0.1157
  947MOL0    Cl30593  10.165   5.326  11.802 -0.0304  0.0886  0.5527
  947MOL0     C30594  11.102   4.715  11.107 -0.7964 -1.1530 -0.3347
  947MOL0     C30595  11.203   4.717  11.009 -0.1222  0.0237  0.0098
  947MOL0     O30596  11.486   4.843  10.971 -0.1429 -0.2445  0.9628
  947MOL0     C30597  11.685   4.827  10.783  0.0385  0.0474 -0.4947
  947MOL0     C30598  11.786   4.844  10.696 -0.0458  0.3399  1.0478
  947MOL0     N30599  11.572   5.289  10.312  0.1004 -0.6620  0.3440
  947MOL0     N30600  11.495   5.380  10.364  0.0670 -0.9143  0.0320
  947MOL0     C30601  10.570   5.735   9.859  1.3176 -0.1487  0.2487
  947MOL0     C30602  10.457   5.770   9.786 -0.0968  0.5350  0.2352
  947MOL0     C30603  10.161   5.725   9.464  0.1141  0.8179 -0.9546
  947MOL0     C30604  10.070   5.828   9.506 -0.4264  0.1200 -0.0311
  947MOL0     C30605   9.971   5.873   9.421  0.0948 -0.1050  0.0925
  947MOL0     C30606   9.947   5.834   9.294  0.0195 -0.5463  0.1081
  947MOL0     O30607   9.840   5.885   9.229  0.0690  0.7411 -0.4499
  947MOL0     C30608   9.861   5.894   9.084  0.0844  0.5985 -0.2995
  947MOL0     C30609   9.772   6.004   9.024 -0.9267  0.2973  0.1635
  947MOL0     C30610   9.633   5.948   8.997  0.2428  0.2542 -0.0529
  947MOL0     C30611   9.536   6.054   8.996 -0.4456 -0.4977 -0.1220
  947MOL0     C30612   9.399   6.014   8.952  0.2663 -0.0057  0.1511
  947MOL0     C30613   9.299   5.969   8.907 -0.3009  1.3090  0.7167
  947MOL0     C30614  10.026   5.725   9.253 -0.0970 -0.8675  0.5000
  947MOL0     C30615  10.136   5.677   9.330  1.4039 -0.6845  0.5756
  947MOL0     C30616  10.221   5.573   9.265  0.2588 -0.3055  1.1447
  947MOL0     H30617  10.302   5.472   9.815  0.9650 -0.3196 -2.4371
  947MOL0     H30618  10.503   5.401   9.929 -1.5592 -0.7519 -0.4936
  947MOL0     H30619  10.761   5.692  10.136 -0.5034  1.2426 -1.4775
  947MOL0     H30620  10.809   5.762   9.988  0.9901  1.9852  2.2755
  947MOL0     H30621  10.933   5.513  10.126  0.7043  1.8895  1.9163
  947MOL0     H30622  10.968   5.564   9.963  3.9092  0.8119  0.4350
  947MOL0     H30623  11.024   5.798  10.035  0.2613  0.2511  0.6702
  947MOL0     H30624  10.973   5.758  10.199  0.5246  0.9317 -0.1495
  947MOL0     H30625  11.154   5.602  10.218  2.4235 -0.3132 -0.5525
  947MOL0     H30626  11.199   5.608  10.044  1.2774 -2.6744  1.4414
  947MOL0     H30627  11.195   5.855  10.233 -0.6227  0.2006 -0.9615
  947MOL0     H30628  11.281   5.837  10.083  1.0699 -1.6367 -0.3122
  947MOL0     H30629  11.436   5.676  10.155  0.1229 -0.9687  0.7260
  947MOL0     H30630  11.450   5.822  10.241 -0.6326  1.6256 -3.9588
  947MOL0     H30631  11.317   5.554  10.337 -0.9485 -1.3039  4.8635
  947MOL0     H30632  11.294   5.704  10.430 -1.4006 -0.6488  0.1971
  947MOL0     H30633  11.571   5.692  10.441  0.0663  0.2794  1.1604
  947MOL0     H30634  11.475   5.571  10.528  1.3181  0.2346 -0.3197
  947MOL0     H30635  11.729   5.578  10.263  3.0952 -2.8741 -2.6878
  947MOL0     H30636  11.893   5.341  10.239  2.4063 -3.4793  0.8814
  947MOL0     H30637  11.786   5.314  10.088  0.2804 -2.3286 -0.3993
  947MOL0     H30638  11.708   5.103  10.178 -0.5148  1.9316 -1.3572
  947MOL0     H30639  11.885   5.117  10.147  0.0709 -3.2234  0.6890
  947MOL0     H30640  11.934   5.145  10.388 -0.9568  2.2402  0.1155
  947MOL0     H30641  11.762   5.121  10.428  0.3892  1.9613 -0.6037
  947MOL0     H30642  11.761   4.912  10.291  1.0616  0.8485 -1.3793
  947MOL0     H30643  11.937   4.930  10.291  0.4643 -0.6886 -1.2383
  947MOL0     H30644  11.589   4.915  10.419  1.6477  2.0652  0.2043
  947MOL0     H30645  11.332   4.824  10.556 -2.7695  1.2402  1.3193
  947MOL0     H30646  11.392   4.961  10.461 -1.2086 -1.2591 -1.1255
  947MOL0     H30647  11.338   4.998  10.627 -1.2821 -2.5112  2.5685
  947MOL0     H30648  11.161   5.041  10.895  1.1539  1.6174  2.7727
  947MOL0     H30649  10.998   5.033  11.076  1.5772  2.1963 -0.9784
  947MOL0     H30650  11.027   4.714  11.356 -0.7214 -0.8508  2.0482
  947MOL0     H30651  11.037   4.883  11.414 -1.1303  0.5586  0.8742
  947MOL0     H30652  10.776   4.731  11.385 -2.4423  1.6244  1.2365
  947MOL0     H30653  10.860   4.756  11.541  1.0317 -0.7277 -0.3012
  947MOL0     H30654  10.739   4.956  11.339 -1.4914  3.2138  0.6351
  947MOL0     H30655  10.861   5.004  11.460  1.4206 -1.8866  0.8562
  947MOL0     H30656  10.675   4.910  11.639  2.8207  0.2694  1.7036
  947MOL0     H30657  10.573   4.879  11.509 -0.5351  0.0337  2.6993
  947MOL0     H30658  10.663   5.166  11.586  0.0427 -0.0301  1.1279
  947MOL0     H30659  10.552   5.119  11.451  1.5130  1.4356 -0.6013
  947MOL0     H30660  10.501   5.051  11.742 -0.9764 -0.6996 -1.3974
  947MOL0     H30661  10.399   5.006  11.605 -0.5476 -0.1575 -0.8144
  947MOL0     H30662  10.317   5.210  11.574 -4.3987  0.6657  1.8822
  947MOL0     H30663  10.454   5.289  11.678  2.3227 -2.9997 -0.7158
  947MOL0     H30664  10.348   5.200  11.876  2.9285  2.6237 -1.7076
  947MOL0     H30665  10.224   5.107  11.775 -1.3239  1.0516 -1.5295
  947MOL0     H30666  11.088   4.624  11.164 -0.2490 -0.8955  0.2237
  947MOL0     H30667  11.259   4.627  10.990  1.6321  0.9456  0.5928
  947MOL0     H30668  11.701   4.779  10.879  1.5889 -2.2493 -1.8048
  947MOL0     H30669  11.889   4.815  10.716 -0.1241 -0.9443 -0.2212
  947MOL0     H30670  10.637   5.819   9.872  2.0214 -0.7352  0.5368
  947MOL0     H30671  10.445   5.871   9.748 -2.9742  0.0394 -0.3909
  947MOL0     H30672  10.069   5.855   9.612 -1.2736 -2.4541  0.7006
  947MOL0     H30673   9.904   5.944   9.468 -0.4538 -0.8189  0.4165
  947MOL0     H30674   9.967   5.920   9.077  0.0805  1.2714  1.5178
  947MOL0     H30675   9.851   5.802   9.026  0.3571 -0.0560  0.6617
  947MOL0     H30676   9.828   6.039   8.936 -1.5838  1.7401  0.2805
  947MOL0     H30677   9.766   6.080   9.102 -1.6546 -0.1941  0.5909
  947MOL0     H30678   9.618   5.900   8.900 -3.4135  1.1869 -0.0830
  947MOL0     H30679   9.601   5.885   9.080  1.9945  1.9275  2.0064
  947MOL0     H30680   9.568   6.133   8.928 -1.7383 -0.2553 -0.4707
  947MOL0     H30681   9.528   6.089   9.100 -1.5369 -2.0369  0.3505
  947MOL0     H30682   9.206   5.932   8.868  0.9513 -0.4933 -0.7764
  947MOL0     H30683  10.011   5.687   9.153 -0.1725  3.6114 -1.4579
  947MOL0     H30684  10.193   5.555   9.160 -2.1669 -1.3997  1.8887
  947MOL0     H30685  10.315   5.627   9.255 -1.1501  2.0599 -0.1813
  947MOL0     H30686  10.224   5.474   9.312  0.5002  0.1467  2.0928
  948MOL0     O30687   0.090  10.750   1.960  0.8980  0.4823 -0.2792
  948MOL0     C30688   0.052  10.664   1.873  0.0634  0.2139  0.7033
  948MOL0     O30689   0.137  10.579   1.805 -0.7170 -0.1258  0.4148
  948MOL0     C30690   0.269  10.562   1.855  1.6312 -0.7175  0.7626
  948MOL0     C30691   0.369  10.546   1.762 -0.5005  0.1427 -0.1190
  948MOL0     C30692   0.501  10.526   1.816  0.2045 -0.3318  0.3421
  948MOL0     C30693   0.531  10.544   1.949  0.3071 -0.3012  0.3457
  948MOL0     O30694   0.665  10.560   1.983 -0.3449 -0.3597 -0.7033
  948MOL0     C30695   0.709  10.499   2.106  1.2464  0.1118 -0.3279
  948MOL0     C30696   0.665  10.351   2.112 -0.2269 -0.3686 -0.3945
  948MOL0     C30697   0.744  10.299   2.240  0.5448  0.2309  0.2785
  948MOL0     C30698   0.735  10.150   2.256  1.5531 -0.1412  0.0857
  948MOL0     C30699   0.791  10.101   2.394 -0.1153  0.7860  0.0618
  948MOL0     C30700   0.936  10.144   2.422 -0.2098 -0.3745  0.0099
  948MOL0     C30701   1.038  10.059   2.340 -0.2598 -0.1623 -0.0691
  948MOL0     C30702   1.174  10.108   2.356  0.2752  0.0764 -0.1845
  948MOL0     N30703   1.197  10.257   2.327  0.3093 -0.3886  0.3129
  948MOL0     C30704   1.155  10.317   2.207 -0.6351  0.4804 -0.0545
  948MOL0     C30705   1.178  10.444   2.225  0.4995  0.1395 -0.1547
  948MOL0     C30706   1.153  10.565   2.136 -0.4763  0.3286 -0.5930
  948MOL0     C30707   1.271  10.665   2.138 -0.7326 -0.3523  0.0909
  948MOL0     C30708   1.231  10.797   2.078 -0.5154 -0.1672 -0.4364
  948MOL0     C30709   1.357  10.879   2.053  0.6267  0.0328  0.0824
  948MOL0     O30710   1.437  10.816   1.947 -0.3441 -0.4389 -0.1104
  948MOL0     C30711   1.563  10.865   1.928  0.8175 -0.4829 -0.2567
  948MOL0     C30712   1.627  10.796   1.831 -0.3560 -0.0268 -0.5613
  948MOL0     C30713   1.756  10.834   1.792  0.2187  0.4318 -0.4762
  948MOL0     C30714   1.825  10.737   1.708 -0.6633 -0.2991  0.1572
  948MOL0     C30715   1.807  10.962   1.828 -0.4485 -0.2452 -0.1348
  948MOL0     C30716   1.944  11.009   1.792  0.0575 -0.5521  0.0337
  948MOL0     O30717   1.982  11.136   1.842 -0.7121 -0.1759  0.2590
  948MOL0     C30718   2.101  11.192   1.810  1.0671 -0.2390 -0.3259
  948MOL0     C30719   2.219  11.126   1.758  0.6523  0.3420 -0.4226
  948MOL0     C30720   2.332  11.206   1.728  0.2399  0.2268  0.6015
  948MOL0     C30721   2.339  11.343   1.750 -0.7073 -0.4238 -0.3830
  948MOL0     O30722   2.450  11.424   1.729 -0.1841 -0.3425  0.3389
  948MOL0     C30723   2.586  11.372   1.719 -0.4893 -0.2806 -0.1064
  948MOL0     C30724   2.683  11.469   1.783  0.1821  0.1502  0.2620
  948MOL0     C30725   2.648  11.612   1.727 -0.6568  0.4583 -0.3036
  948MOL0     C30726   2.775  11.705   1.735  0.2836  1.0968  0.2638
  948MOL0     C30727   2.869  11.683   1.619  0.4188 -0.4779  0.1478
  948MOL0     C30728   3.007  11.727   1.637  0.1880  0.0887 -0.9706
  948MOL0     C30729   3.077  11.671   1.764  0.1229  0.3317 -0.0728
  948MOL0     C30730   3.224  11.685   1.750 -0.1482 -0.4781  0.4240
  948MOL0    Cl30731   3.282  11.854   1.705 -0.2686  0.0954  0.4247
  948MOL0     C30732   2.215  11.408   1.779 -0.9150  0.1103 -0.1420
  948MOL0     C30733   2.105  11.333   1.811  0.1442  0.2039  0.7218
  948MOL0     O30734   2.016  10.936   1.725  0.5507 -0.0052 -0.9003
  948MOL0     C30735   1.733  11.042   1.924 -0.0732 -0.3662 -0.2020
  948MOL0     C30736   1.614  10.993   1.969 -0.5009 -0.1848  0.5480
  948MOL0     N30737   1.233  10.463   2.352  0.4892 -0.0588  0.1185
  948MOL0     N30738   1.245  10.354   2.412  0.6885  0.3717 -0.7230
  948MOL0     C30739   0.422  10.558   2.042  0.5465 -0.9151  0.1898
  948MOL0     C30740   0.294  10.567   1.990  0.0513 -0.2088 -0.2653
  948MOL0     C30741  -0.083  10.666   1.822 -0.2223  0.2232 -0.7016
  948MOL0     C30742  -0.123  10.636   1.692 -0.5809 -0.0334  0.2319
  948MOL0     C30743  -0.261  10.638   1.647 -0.3016 -0.0814  0.4838
  948MOL0     C30744  -0.358  10.665   1.742  0.2246  0.2695  0.4076
  948MOL0     O30745  -0.478  10.647   1.693 -0.3987  0.8596  0.1265
  948MOL0     C30746  -0.603  10.678   1.768  0.4703 -0.3829 -0.4831
  948MOL0     C30747  -0.720  10.709   1.675 -0.0202  0.1592  0.5555
  948MOL0     C30748  -0.862  10.713   1.741  0.1199  0.2297  0.3600
  948MOL0     C30749  -0.974  10.767   1.648 -0.0663  0.6283  0.1860
  948MOL0     C30750  -0.953  10.902   1.595  1.3309 -0.2483  0.5522
  948MOL0     C30751  -0.954  11.014   1.546 -0.2241  0.1995  0.2411
  948MOL0     C30752  -0.321  10.698   1.875 -0.4929 -0.1941  0.3102
  948MOL0     C30753  -0.189  10.706   1.908  0.4289 -0.2483  1.1439
  948MOL0     C30754  -0.168  10.745   2.045  0.3565 -0.6612  0.2174
  948MOL0     H30755   0.352  10.534   1.655  0.1169  1.0438 -0.3339
  948MOL0     H30756   0.586  10.511   1.750  0.1694 -1.1889  0.4841
  948MOL0     H30757   0.666  10.554   2.190 -2.0120 -0.3343 -1.5352
  948MOL0     H30758   0.817  10.515   2.106  1.9883 -3.4480 -2.8667
  948MOL0     H30759   0.556  10.338   2.116 -0.0737 -1.8965 -0.6880
  948MOL0     H30760   0.692  10.298   2.020  1.0934 -3.0116  1.4057
  948MOL0     H30761   0.851  10.315   2.228  0.5464  0.6033  0.7731
  948MOL0     H30762   0.705  10.348   2.330 -0.5948 -2.3580  1.3229
  948MOL0     H30763   0.627  10.133   2.250  1.5431  0.3313 -1.2843
  948MOL0     H30764   0.777  10.094   2.172  0.0278 -2.3641  0.7198
  948MOL0     H30765   0.798   9.992   2.396 -5.2864 -0.0516 -4.0222
  948MOL0     H30766   0.727  10.137   2.474 -2.5881  0.5824 -1.7227
  948MOL0     H30767   0.944  10.252   2.412 -1.2399  0.1573  3.7172
  948MOL0     H30768   0.948  10.130   2.530 -2.4392 -1.2718  0.1914
  948MOL0     H30769   1.017  10.047   2.233  2.1165 -0.7828 -0.5078
  948MOL0     H30770   1.054   9.959   2.382 -2.0585  0.5801  2.6194
  948MOL0     H30771   1.222  10.100   2.454 -1.9373 -2.0016  0.8217
  948MOL0     H30772   1.243  10.041   2.302  1.6056  0.7251  0.6549
  948MOL0     H30773   1.119  10.273   2.115  1.9763  0.5412 -1.2034
  948MOL0     H30774   1.058  10.610   2.167 -0.0543 -0.5214  2.2484
  948MOL0     H30775   1.151  10.537   2.030 -0.6067  1.6982 -0.9809
  948MOL0     H30776   1.300  10.679   2.242 -0.7225 -0.7717  0.1435
  948MOL0     H30777   1.347  10.621   2.074 -1.1694  0.2149 -0.8516
  948MOL0     H30778   1.175  10.785   1.985  0.2469 -0.8683 -0.8231
  948MOL0     H30779   1.180  10.855   2.155  2.1379 -0.4898  1.7303
  948MOL0     H30780   1.343  10.984   2.028 -0.2842 -0.0073  0.4093
  948MOL0     H30781   1.406  10.880   2.151 -1.6771  0.1460  1.3089
  948MOL0     H30782   1.586  10.699   1.803 -1.4324  0.2095  0.1462
  948MOL0     H30783   1.839  10.782   1.610 -0.6413  0.6488  0.5819
  948MOL0     H30784   1.768  10.644   1.706 -2.0742  0.5634 -1.3235
  948MOL0     H30785   1.926  10.717   1.746 -0.6748  1.7208  1.4202
  948MOL0     H30786   2.237  11.020   1.766 -1.6842  0.0135  2.3770
  948MOL0     H30787   2.417  11.151   1.688  0.4728  1.0361 -0.0459
  948MOL0     H30788   2.594  11.278   1.776  3.0504  2.2474  4.1860
  948MOL0     H30789   2.607  11.356   1.613  3.5760  1.4860  0.2200
  948MOL0     H30790   2.667  11.465   1.891  0.9956 -0.4544  0.3700
  948MOL0     H30791   2.788  11.441   1.776 -0.2581 -1.6981  0.5726
  948MOL0     H30792   2.566  11.650   1.789 -1.9226 -1.8060 -0.4577
  948MOL0     H30793   2.612  11.604   1.624 -1.7266  2.4507 -0.1330
  948MOL0     H30794   2.825  11.667   1.825  0.8682 -1.2033 -0.9393
  948MOL0     H30795   2.746  11.809   1.747 -1.9889  0.7804 -1.7014
  948MOL0     H30796   2.867  11.576   1.597 -1.0500 -0.7545  1.4637
  948MOL0     H30797   2.830  11.739   1.533  2.1295  0.2351 -0.2115
  948MOL0     H30798   3.019  11.835   1.643 -0.3458  0.0979 -0.0210
  948MOL0     H30799   3.045  11.695   1.539 -0.7340 -0.2093 -1.2374
  948MOL0     H30800   3.053  11.564   1.776 -1.9562  0.6904 -0.5512
  948MOL0     H30801   3.039  11.724   1.852  1.8859  0.3187  0.7296
  948MOL0     H30802   3.262  11.612   1.677  2.2974 -0.7625  1.8738
  948MOL0     H30803   3.262  11.650   1.847 -0.4274  0.0445  0.7237
  948MOL0     H30804   2.210  11.516   1.778 -0.5310  0.1392  0.6907
  948MOL0     H30805   2.016  11.386   1.845 -1.1360 -0.4846 -1.4039
  948MOL0     H30806   1.768  11.136   1.965 -0.5938  0.4778 -1.6301
  948MOL0     H30807   1.561  11.050   2.045 -0.5843 -0.6197  0.8159
  948MOL0     H30808   0.422  10.558   2.150 -0.9448 -0.4201  0.2127
  948MOL0     H30809   0.217  10.565   2.066  1.6990  0.6528  1.5393
  948MOL0     H30810  -0.048  10.607   1.619 -2.1956 -0.2137 -1.4121
  948MOL0     H30811  -0.296  10.613   1.547 -3.2135  1.3786  0.9930
  948MOL0     H30812  -0.633  10.593   1.831 -0.5012  1.2252  1.3124
  948MOL0     H30813  -0.573  10.765   1.827 -0.2740 -0.3787 -0.0997
  948MOL0     H30814  -0.727  10.647   1.585  1.0722  1.9448 -0.8445
  948MOL0     H30815  -0.694  10.806   1.631  0.5621  0.2998  1.2044
  948MOL0     H30816  -0.883  10.610   1.771  2.0232 -0.4227 -0.4166
  948MOL0     H30817  -0.849  10.772   1.832  1.2128 -2.1376  1.8304
  948MOL0     H30818  -1.063  10.774   1.711  0.2410  0.9756  0.5898
  948MOL0     H30819  -1.004  10.702   1.566 -0.7612  2.9160 -1.4467
  948MOL0     H30820  -0.952  11.110   1.498  2.5829 -1.4286 -3.4326
  948MOL0     H30821  -0.403  10.718   1.943 -0.5830  0.1408  0.1078
  948MOL0     H30822  -0.262  10.756   2.100 -0.6950  0.8559 -1.7681
  948MOL0     H30823  -0.105  10.667   2.090  0.7752 -1.0958 -1.0709
  948MOL0     H30824  -0.121  10.843   2.050 -0.5749 -0.2217  0.6200
  949MOL0     O30825   3.563   1.362   7.715  0.3665  0.3526 -0.2544
  949MOL0     C30826   3.510   1.473   7.706  0.4494 -0.3003  0.6748
  949MOL0     O30827   3.566   1.578   7.643  0.7822 -0.0470 -0.9076
  949MOL0     C30828   3.683   1.568   7.577  0.2131  0.3470 -0.2125
  949MOL0     C30829   3.685   1.544   7.439 -0.4489  0.5386 -0.4422
  949MOL0     C30830   3.811   1.520   7.375  0.3272  0.4761 -0.5659
  949MOL0     C30831   3.930   1.538   7.450  0.8181  0.7942 -0.8000
  949MOL0     O30832   4.054   1.524   7.390 -0.2983 -0.3723  0.4799
  949MOL0     C30833   4.085   1.385   7.362  0.1876  0.1113  0.7254
  949MOL0     C30834   4.224   1.383   7.299  0.5718  0.3935 -0.5100
  949MOL0     C30835   4.246   1.251   7.239 -1.1590  0.2143  0.4103
  949MOL0     C30836   4.395   1.241   7.191  0.0803 -0.2921  0.0745
  949MOL0     C30837   4.427   1.119   7.117  0.0343  0.2090  0.3081
  949MOL0     C30838   4.579   1.094   7.106 -0.5461  0.1189 -0.6356
  949MOL0     C30839   4.626   0.974   7.022 -0.4119  0.3625  0.0804
  949MOL0     C30840   4.784   0.970   7.012  0.9507  0.2496 -0.4608
  949MOL0     N30841   4.843   0.977   6.880  0.3899 -0.0385  0.1878
  949MOL0     C30842   4.841   1.089   6.805  0.4636 -0.0770  0.5970
  949MOL0     C30843   4.925   1.061   6.700 -0.1813 -0.2986  0.6582
  949MOL0     C30844   4.940   1.155   6.585  0.0612 -0.0439  0.5764
  949MOL0     C30845   5.003   1.082   6.458 -0.2996 -0.9801 -0.1287
  949MOL0     C30846   5.040   1.188   6.357 -0.6541 -0.1699 -0.1513
  949MOL0     C30847   5.143   1.139   6.259  0.1202 -0.2536  0.0169
  949MOL0     O30848   5.106   1.029   6.180 -0.1253  0.1529  0.2919
  949MOL0     C30849   5.203   0.969   6.098  1.2539 -0.2303  0.2463
  949MOL0     C30850   5.157   0.893   5.996 -0.5562  0.8575  0.4644
  949MOL0     C30851   5.238   0.827   5.903 -0.2385 -0.9279  0.6484
  949MOL0     C30852   5.163   0.755   5.792 -0.2597  0.2149 -0.9003
  949MOL0     C30853   5.379   0.823   5.921 -0.1759 -0.1791  0.0351
  949MOL0     C30854   5.469   0.759   5.835 -0.8390  0.8285  0.8304
  949MOL0     O30855   5.601   0.775   5.863  0.1538 -0.6947 -0.2862
  949MOL0     C30856   5.700   0.723   5.787 -0.0021  0.2858 -0.6925
  949MOL0     C30857   5.830   0.786   5.782 -0.2753  0.4379 -0.1593
  949MOL0     C30858   5.935   0.728   5.719 -0.3813  0.4824 -0.5803
  949MOL0     C30859   5.927   0.596   5.665  0.0955 -0.2394 -0.0290
  949MOL0     O30860   6.039   0.548   5.612 -0.0645 -0.5702  0.4141
  949MOL0     C30861   6.060   0.406   5.641  0.4586  0.3201  0.4634
  949MOL0     C30862   6.204   0.362   5.621  0.8305  0.5935  0.1527
  949MOL0     C30863   6.307   0.426   5.711  0.0287  0.1644 -0.2239
  949MOL0     C30864   6.444   0.350   5.698  0.5561  0.0511  0.2145
  949MOL0     C30865   6.554   0.414   5.781  0.5839  0.8066 -0.6260
  949MOL0     C30866   6.690   0.344   5.760 -0.0364  0.5204  0.5276
  949MOL0     C30867   6.798   0.411   5.834  0.0285 -0.3320 -0.1536
  949MOL0     C30868   6.950   0.362   5.831  0.2216  1.3997 -0.2059
  949MOL0    Cl30869   7.013   0.379   5.673 -0.5525 -0.1339  0.0282
  949MOL0     C30870   5.799   0.539   5.662  0.1436 -0.7370 -0.2871
  949MOL0     C30871   5.695   0.597   5.735  1.1285  0.2869  0.3088
  949MOL0     O30872   5.425   0.691   5.742  0.0245  0.1112  0.8181
  949MOL0     C30873   5.425   0.894   6.034  0.1698  0.5032  0.0768
  949MOL0     C30874   5.345   0.965   6.118  0.5647 -0.6662  0.1872
  949MOL0     N30875   4.976   0.936   6.709  0.4270  0.1431 -0.6761
  949MOL0     N30876   4.928   0.890   6.819 -0.5680  0.2491  0.0538
  949MOL0     C30877   3.923   1.563   7.589  0.2675 -0.5787  0.1861
  949MOL0     C30878   3.803   1.573   7.649  0.4773  1.1268 -0.2718
  949MOL0     C30879   3.376   1.483   7.779 -0.2097  0.0879  1.4650
  949MOL0     C30880   3.341   1.386   7.879  0.9014 -0.5273  1.2124
  949MOL0     C30881   3.228   1.406   7.957  1.1101  0.6470  0.1391
  949MOL0     C30882   3.137   1.510   7.932 -1.0060 -0.4590 -0.3214
  949MOL0     O30883   3.038   1.524   8.028  0.6041 -0.0572 -0.0944
  949MOL0     C30884   3.017   1.658   8.085  0.1415  0.3638  0.1018
  949MOL0     C30885   3.081   1.654   8.223 -0.9051 -0.7674 -0.0388
  949MOL0     C30886   3.035   1.536   8.313  0.1824  0.3899 -0.0737
  949MOL0     C30887   3.105   1.528   8.444 -0.7092  0.3811  0.0659
  949MOL0     C30888   3.062   1.417   8.528 -0.3457  0.1991  0.4313
  949MOL0     C30889   3.041   1.311   8.587  0.3989  0.4850  1.3355
  949MOL0     C30890   3.160   1.599   7.832  0.2849 -1.3511 -0.3173
  949MOL0     C30891   3.276   1.589   7.748 -0.0774 -0.3308 -0.3468
  949MOL0     C30892   3.285   1.691   7.645  0.0205  0.3020 -0.0150
  949MOL0     H30893   3.593   1.544   7.382 -0.6121  1.6625 -0.2094
  949MOL0     H30894   3.820   1.485   7.273  1.6546 -0.4099 -0.1631
  949MOL0     H30895   4.018   1.342   7.287  2.2793  0.8179 -1.6759
  949MOL0     H30896   4.082   1.327   7.455  0.3402 -1.1133 -0.0055
  949MOL0     H30897   4.222   1.465   7.226  1.5072  2.2434  1.4435
  949MOL0     H30898   4.292   1.417   7.378  1.1711  3.3456 -2.1285
  949MOL0     H30899   4.249   1.169   7.311  0.8603  1.7976  2.2605
  949MOL0     H30900   4.172   1.222   7.163  0.7683  0.1156 -1.5276
  949MOL0     H30901   4.405   1.323   7.119 -1.4564 -1.8793 -2.0836
  949MOL0     H30902   4.466   1.258   7.272 -0.2285 -1.4089  0.5992
  949MOL0     H30903   4.380   1.131   7.018  2.9460  0.3792 -1.1587
  949MOL0     H30904   4.384   1.042   7.180 -2.5749  0.9170 -0.4726
  949MOL0     H30905   4.602   1.190   7.059  0.2850  0.1621 -0.1435
  949MOL0     H30906   4.620   1.081   7.206 -0.3222  0.1715 -0.7211
  949MOL0     H30907   4.581   0.969   6.922 -1.2744 -1.2838  0.5182
  949MOL0     H30908   4.580   0.884   7.064 -0.1022 -1.5013 -3.2247
  949MOL0     H30909   4.827   1.053   7.069 -0.3140 -0.2534  1.3173
  949MOL0     H30910   4.813   0.875   7.058 -0.4163 -0.4625 -1.0233
  949MOL0     H30911   4.779   1.177   6.815  2.3968  2.0361 -3.6430
  949MOL0     H30912   4.991   1.242   6.625 -1.1094 -1.2177  5.1787
  949MOL0     H30913   4.839   1.186   6.556  0.4122  0.6604  0.0754
  949MOL0     H30914   5.094   1.034   6.494  0.6294  1.0361  0.3905
  949MOL0     H30915   4.942   1.008   6.405  1.5797 -0.2942 -3.5565
  949MOL0     H30916   4.948   1.206   6.301 -0.9591 -0.4027  0.2690
  949MOL0     H30917   5.075   1.282   6.401  0.1237 -0.4827 -0.0914
  949MOL0     H30918   5.158   1.214   6.181  1.6874 -1.6545 -1.0967
  949MOL0     H30919   5.234   1.112   6.313 -1.0245 -1.9116  1.2290
  949MOL0     H30920   5.051   0.882   5.978 -0.4943 -0.6640  0.9108
  949MOL0     H30921   5.054   0.750   5.787 -0.4258 -1.3970  2.0085
  949MOL0     H30922   5.199   0.652   5.800  2.6108  1.0365 -1.8711
  949MOL0     H30923   5.192   0.788   5.692  4.7172  0.8988  0.4876
  949MOL0     H30924   5.852   0.880   5.830 -0.0049  1.3524 -1.9965
  949MOL0     H30925   6.031   0.778   5.719 -0.9837  1.7733  1.8101
  949MOL0     H30926   6.040   0.385   5.747 -0.5745  0.0379  0.2270
  949MOL0     H30927   5.991   0.351   5.577 -0.1036 -0.4622  1.6980
  949MOL0     H30928   6.200   0.255   5.641 -0.6743  0.2798 -1.5973
  949MOL0     H30929   6.220   0.382   5.514  1.4237  2.7388  0.5809
  949MOL0     H30930   6.277   0.420   5.816  2.0516  5.5047  0.9980
  949MOL0     H30931   6.331   0.531   5.697  1.3853  0.6230  4.0001
  949MOL0     H30932   6.474   0.352   5.593  0.3041  1.1187  0.1527
  949MOL0     H30933   6.435   0.244   5.721  2.3801  0.0649  1.1810
  949MOL0     H30934   6.554   0.523   5.772 -3.8899  1.1833  1.2480
  949MOL0     H30935   6.538   0.396   5.888  3.8303  3.0354  0.3670
  949MOL0     H30936   6.719   0.325   5.656 -0.2952  1.2779  0.3109
  949MOL0     H30937   6.689   0.247   5.810 -1.1695  0.0286 -0.3961
  949MOL0     H30938   6.769   0.421   5.939 -2.6867 -0.5343 -0.7951
  949MOL0     H30939   6.799   0.513   5.794 -2.0295  1.2296  3.2567
  949MOL0     H30940   6.955   0.256   5.860 -2.8530  1.9324  2.8981
  949MOL0     H30941   7.010   0.424   5.898  1.3194  0.0105  0.1775
  949MOL0     H30942   5.793   0.447   5.605  1.9830 -0.6105 -0.7476
  949MOL0     H30943   5.603   0.539   5.738  1.2376 -0.1193 -2.2346
  949MOL0     H30944   5.528   0.891   6.066  0.3772 -0.8113 -0.6346
  949MOL0     H30945   5.388   1.017   6.202  2.7473  1.3954 -2.0232
  949MOL0     H30946   4.016   1.568   7.645  1.3874 -0.9014 -1.5666
  949MOL0     H30947   3.780   1.590   7.754  0.7683  0.6326 -0.1239
  949MOL0     H30948   3.413   1.309   7.903  1.7512 -0.9263 -2.1923
  949MOL0     H30949   3.199   1.345   8.041 -1.9708  2.3780  0.5125
  949MOL0     H30950   3.059   1.736   8.021 -0.4541 -1.3351 -2.5257
  949MOL0     H30951   2.911   1.684   8.092 -0.0663 -0.2732 -0.5716
  949MOL0     H30952   3.064   1.744   8.284 -0.9763 -0.9417  0.2003
  949MOL0     H30953   3.190   1.647   8.212 -0.8304  0.1084  0.0095
  949MOL0     H30954   2.929   1.546   8.338 -0.2489 -2.9561 -0.1397
  949MOL0     H30955   3.050   1.442   8.258 -2.1774  0.9198 -1.7680
  949MOL0     H30956   3.097   1.619   8.505 -2.7487 -0.1293  0.6634
  949MOL0     H30957   3.211   1.522   8.420 -0.0980  0.4532  2.4483
  949MOL0     H30958   3.031   1.226   8.652  1.1879 -0.6370  0.0373
  949MOL0     H30959   3.098   1.687   7.816  3.0612  0.5231 -1.5721
  949MOL0     H30960   3.201   1.761   7.658 -1.3146 -1.5202  1.7390
  949MOL0     H30961   3.376   1.750   7.657 -0.3935  1.5323 -2.3468
  949MOL0     H30962   3.290   1.648   7.544 -0.1504 -0.8464  0.4451
  950MOL0     O30963   8.636   1.243  10.362 -0.3820  0.4417  0.4633
  950MOL0     C30964   8.550   1.220  10.450 -0.6147  1.0047  0.1005
  950MOL0     O30965   8.584   1.186  10.583  1.0370  0.4157  0.4782
  950MOL0     C30966   8.710   1.144  10.601  0.0724  0.1311  0.5064
  950MOL0     C30967   8.739   1.006  10.590 -0.4638 -0.2984 -0.5396
  950MOL0     C30968   8.866   0.964  10.627  0.5299  0.5018 -0.2707
  950MOL0     C30969   8.958   1.046  10.680  0.1216 -0.4605  0.2263
  950MOL0     O30970   9.079   0.979  10.705 -0.3850 -0.1886 -1.0269
  950MOL0     C30971   9.178   1.065  10.751 -0.2688  0.2447  0.5246
  950MOL0     C30972   9.317   0.992  10.732 -0.2528 -0.1006 -0.5482
  950MOL0     C30973   9.349   0.908  10.859  0.0495  0.0086 -0.0074
  950MOL0     C30974   9.399   1.001  10.964 -0.3926  1.0096 -0.5544
  950MOL0     C30975   9.515   0.942  11.036 -0.1988 -0.0231  0.1062
  950MOL0     C30976   9.566   1.046  11.145 -0.0944 -0.0690  0.1132
  950MOL0     C30977   9.705   1.007  11.207  0.1760  0.4872  0.1946
  950MOL0     C30978   9.704   0.871  11.265  0.3868 -0.1188 -0.1724
  950MOL0     N30979   9.836   0.817  11.288  0.1251  0.5487 -0.0641
  950MOL0     C30980   9.932   0.877  11.360  0.1935 -0.4885 -0.4111
  950MOL0     C30981  10.048   0.818  11.340 -0.6521  0.1684  0.9270
  950MOL0     C30982  10.170   0.855  11.421  0.4584 -0.1122  0.1630
  950MOL0     C30983  10.283   0.904  11.325  0.2406 -0.8428  0.0648
  950MOL0     C30984  10.407   0.935  11.421  0.0576  0.3385 -0.3664
  950MOL0     C30985  10.541   0.951  11.347  0.6374 -0.4143  0.3933
  950MOL0     O30986  10.570   0.830  11.284  0.0936 -0.6605 -0.1820
  950MOL0     C30987  10.689   0.803  11.224  0.1301 -0.3712  0.1064
  950MOL0     C30988  10.695   0.696  11.139 -0.4227  0.0242 -0.4918
  950MOL0     C30989  10.808   0.666  11.066  0.0279  0.0169  0.1086
  950MOL0     C30990  10.802   0.552  10.976  1.4552  0.6042  0.0231
  950MOL0     C30991  10.924   0.750  11.077 -0.3576  0.4840 -0.2630
  950MOL0     C30992  11.054   0.730  11.007  0.0767 -0.1724 -0.1792
  950MOL0     O30993  11.068   0.614  10.930  0.8450 -0.3843  0.0977
  950MOL0     C30994  11.197   0.601  10.871 -0.3098 -0.2598 -0.1336
  950MOL0     C30995  11.283   0.501  10.912  0.3130  0.2136  0.1249
  950MOL0     C30996  11.420   0.495  10.860  0.4251 -1.1395  0.7330
  950MOL0     C30997  11.462   0.588  10.757  0.6402 -0.0117 -0.5959
  950MOL0     O30998  11.591   0.586  10.718 -0.3367  0.3227  0.0034
  950MOL0     C30999  11.636   0.673  10.615  0.4163 -0.3463 -0.1760
  950MOL0     C31000  11.782   0.638  10.573  0.0116  0.0241 -0.0846
  950MOL0     C31001  11.881   0.698  10.675 -0.3899  0.2356 -0.0609
  950MOL0     C31002  12.011   0.615  10.648 -0.5901  0.1530  0.4732
  950MOL0     C31003  12.097   0.649  10.769 -0.6833 -0.3354 -0.1008
  950MOL0     C31004  12.230   0.580  10.755  0.0105 -0.3033  0.1423
  950MOL0     C31005  12.319   0.647  10.650  0.6035  0.3872  0.2858
  950MOL0     C31006  12.411   0.542  10.596  0.2154 -0.6092 -0.8635
  950MOL0    Cl31007  12.495   0.615  10.452 -0.1399 -0.2415 -0.7650
  950MOL0     C31008  11.369   0.692  10.722  0.0215 -0.3836  0.3053
  950MOL0     C31009  11.239   0.688  10.771 -0.2140 -0.3320 -0.9237
  950MOL0     O31010  11.142   0.813  11.027  0.7817  0.1414 -0.1684
  950MOL0     C31011  10.919   0.848  11.183  0.1705  0.4708 -0.4559
  950MOL0     C31012  10.804   0.878  11.250 -0.4662 -0.4917  0.5784
  950MOL0     N31013  10.019   0.713  11.250  0.3371 -0.2574  0.0986
  950MOL0     N31014   9.893   0.713  11.229 -0.2801 -0.4986 -0.6056
  950MOL0     C31015   8.925   1.185  10.705 -0.3897 -0.1284 -0.3271
  950MOL0     C31016   8.801   1.240  10.656 -0.9116 -0.0462  0.0097
  950MOL0     C31017   8.409   1.258  10.408  0.7970  0.1965 -0.1301
  950MOL0     C31018   8.393   1.362  10.309 -0.3645 -0.0487  0.0732
  950MOL0     C31019   8.269   1.386  10.252 -0.8742  0.3150  0.2966
  950MOL0     C31020   8.156   1.314  10.287 -0.4404  0.3718  0.2010
  950MOL0     O31021   8.034   1.334  10.236 -0.0503  0.6571 -0.0153
  950MOL0     C31022   8.008   1.425  10.133 -1.0897 -0.1005  1.5794
  950MOL0     C31023   8.037   1.358   9.996  0.2393 -0.2700  0.3980
  950MOL0     C31024   8.043   1.475   9.887 -0.2120  0.3045 -0.2826
  950MOL0     C31025   8.165   1.472   9.789 -0.5928 -0.9855  0.3544
  950MOL0     C31026   8.165   1.349   9.716  0.6199  0.1303  0.2449
  950MOL0     C31027   8.151   1.245   9.658  0.5927  0.1120  0.6734
  950MOL0     C31028   8.168   1.215  10.373 -0.5109 -0.1570  0.1242
  950MOL0     C31029   8.291   1.183  10.440 -0.3576  0.0441  0.2633
  950MOL0     C31030   8.294   1.068  10.536  0.3481  0.3353  0.3063
  950MOL0     H31031   8.676   0.926  10.551 -0.0398 -2.7970  3.3573
  950MOL0     H31032   8.889   0.859  10.613  2.3564  0.7770  0.3674
  950MOL0     H31033   9.159   1.093  10.855 -2.1574  2.4976 -0.3262
  950MOL0     H31034   9.185   1.148  10.679  0.5055 -1.7381 -1.8267
  950MOL0     H31035   9.312   0.912  10.657  1.4870 -0.9892  0.2051
  950MOL0     H31036   9.395   1.064  10.705 -0.8952  1.1058  0.6934
  950MOL0     H31037   9.262   0.853  10.897  0.7076 -0.4121  0.9220
  950MOL0     H31038   9.428   0.837  10.833 -0.6844 -1.4750  1.6148
  950MOL0     H31039   9.432   1.093  10.915 -2.0095  0.3177 -3.1093
  950MOL0     H31040   9.316   1.026  11.031 -1.6045 -2.6273 -0.4929
  950MOL0     H31041   9.595   0.916  10.967  0.7360  0.2962  1.0399
  950MOL0     H31042   9.477   0.851  11.084  3.0292 -1.1489  0.7464
  950MOL0     H31043   9.579   1.138  11.088 -0.4289 -0.9874 -1.5238
  950MOL0     H31044   9.495   1.071  11.224 -0.5376 -0.9684  0.0162
  950MOL0     H31045   9.748   1.073  11.284  0.0078 -0.7475  1.3744
  950MOL0     H31046   9.781   1.015  11.128 -2.3403  1.0872 -2.3189
  950MOL0     H31047   9.659   0.888  11.363 -0.7579  1.6469 -0.9413
  950MOL0     H31048   9.638   0.804  11.209 -0.5138  2.3567 -2.3297
  950MOL0     H31049   9.907   0.964  11.419 -1.7437 -0.1903 -1.5612
  950MOL0     H31050  10.207   0.769  11.477  4.3192 -0.2200 -2.1852
  950MOL0     H31051  10.150   0.937  11.490  2.0758  1.3237 -0.9836
  950MOL0     H31052  10.316   0.823  11.258  3.4528 -0.1990  0.7041
  950MOL0     H31053  10.263   0.991  11.262  0.5876  0.2922  1.4613
  950MOL0     H31054  10.376   1.019  11.484 -5.5616 -2.6420  1.5272
  950MOL0     H31055  10.426   0.857  11.495  1.8215  1.1484  0.0837
  950MOL0     H31056  10.535   1.029  11.271 -5.5455 -0.8746 -0.0681
  950MOL0     H31057  10.630   0.973  11.406  0.1083  0.2080  0.9740
  950MOL0     H31058  10.600   0.643  11.131  0.0334 -0.7325 -0.9084
  950MOL0     H31059  10.876   0.482  11.016 -0.0096 -0.9994  0.0350
  950MOL0     H31060  10.814   0.574  10.870  0.4695  0.9637 -0.0196
  950MOL0     H31061  10.708   0.497  10.983  1.9642 -0.2936  0.0778
  950MOL0     H31062  11.255   0.440  10.997 -0.6232  1.0166  0.4069
  950MOL0     H31063  11.481   0.411  10.892  4.5670  1.4892  0.4850
  950MOL0     H31064  11.570   0.666  10.528  0.4526  2.7575 -0.5666
  950MOL0     H31065  11.639   0.779  10.642 -1.6673  0.0574 -1.2641
  950MOL0     H31066  11.795   0.529  10.573  1.6522  0.1132 -2.6324
  950MOL0     H31067  11.805   0.665  10.469  2.2598  3.3918  1.0968
  950MOL0     H31068  11.845   0.672  10.775 -1.0153 -2.4924 -0.8854
  950MOL0     H31069  11.893   0.805  10.656 -0.6187 -0.0109 -1.7921
  950MOL0     H31070  12.060   0.650  10.557 -0.6472 -0.6837  0.1180
  950MOL0     H31071  11.989   0.508  10.658  0.1458  0.1503  2.7294
  950MOL0     H31072  12.122   0.755  10.781 -0.0867 -0.2929 -1.4785
  950MOL0     H31073  12.052   0.615  10.863 -1.7421  0.2248 -0.3916
  950MOL0     H31074  12.211   0.475  10.732 -0.5431  0.3829 -2.9385
  950MOL0     H31075  12.280   0.595  10.851 -1.6441  2.2835  0.7078
  950MOL0     H31076  12.373   0.729  10.699 -0.9929  1.7200 -0.0927
  950MOL0     H31077  12.270   0.699  10.567  1.4646 -0.0372 -0.5056
  950MOL0     H31078  12.349   0.456  10.569 -1.3772 -1.8642  5.2283
  950MOL0     H31079  12.486   0.524  10.674 -1.1601 -0.6929  0.4773
  950MOL0     H31080  11.402   0.766  10.649 -0.1575 -0.0894  0.5221
  950MOL0     H31081  11.175   0.769  10.737  2.5319  3.0010  1.2548
  950MOL0     H31082  11.011   0.901  11.203  0.4364 -0.0860 -0.1782
  950MOL0     H31083  10.811   0.953  11.328  1.4594 -1.4221  1.3790
  950MOL0     H31084   8.983   1.257  10.762 -1.5788  1.4379 -1.0136
  950MOL0     H31085   8.771   1.344  10.668 -2.5616 -0.6177  1.1467
  950MOL0     H31086   8.473   1.414  10.258  0.9658 -0.9814  1.1148
  950MOL0     H31087   8.280   1.449  10.164  0.8825 -2.1006 -1.3709
  950MOL0     H31088   7.901   1.449  10.133 -1.1540 -0.3769  2.1396
  950MOL0     H31089   8.070   1.510  10.161 -1.0020 -0.5787  2.8691
  950MOL0     H31090   7.966   1.278   9.970 -2.8888  2.8973 -1.6851
  950MOL0     H31091   8.132   1.305  10.003 -0.8727 -2.5087 -0.4457
  950MOL0     H31092   7.955   1.454   9.825 -0.4818 -4.6349  1.2950
  950MOL0     H31093   8.046   1.568   9.944  0.9058 -1.4329  2.6873
  950MOL0     H31094   8.261   1.477   9.840 -0.2098 -1.0212 -0.3474
  950MOL0     H31095   8.156   1.559   9.723  0.3017 -0.5021  0.8594
  950MOL0     H31096   8.144   1.149   9.612  0.9913  0.0433  0.7485
  950MOL0     H31097   8.082   1.152  10.396 -2.4264  2.4413  0.5761
  950MOL0     H31098   8.320   1.097  10.638  0.9249  2.6395 -0.4422
  950MOL0     H31099   8.194   1.027  10.555  0.1630  1.5484  2.1339
  950MOL0     H31100   8.349   0.990  10.482  3.1203  2.9085 -0.8958
  951MOL0     O31101   2.161   1.791   6.535  0.3221  0.1241  0.7387
  951MOL0     C31102   2.176   1.851   6.638  0.2692  0.4916  0.6260
  951MOL0     O31103   2.278   1.833   6.731  0.7482  0.6663 -0.7482
  951MOL0     C31104   2.349   1.719   6.722 -0.1186 -0.0864 -1.1966
  951MOL0     C31105   2.292   1.591   6.695  0.5906 -0.3508 -0.4565
  951MOL0     C31106   2.378   1.473   6.691  0.5649 -0.5270 -0.8130
  951MOL0     C31107   2.515   1.485   6.723  0.8900 -0.8198  0.3389
  951MOL0     O31108   2.581   1.368   6.732 -0.2757 -0.4774 -0.1158
  951MOL0     C31109   2.711   1.373   6.806  0.0577  0.2052  0.2647
  951MOL0     C31110   2.764   1.240   6.841 -0.6660  0.2161  0.2042
  951MOL0     C31111   2.772   1.149   6.719  0.9615  0.6647 -1.0729
  951MOL0     C31112   2.755   1.002   6.755  0.3604 -0.6208  0.5348
  951MOL0     C31113   2.825   0.939   6.868 -0.6928 -0.4043 -0.2018
  951MOL0     C31114   2.980   0.941   6.864  0.1409 -0.4484  0.0612
  951MOL0     C31115   3.051   0.860   6.971 -0.4008  0.3563 -0.6809
  951MOL0     C31116   3.042   0.707   6.941  0.9923 -0.6244  0.1858
  951MOL0     N31117   3.068   0.621   7.056 -0.3115 -0.1811 -0.6009
  951MOL0     C31118   3.195   0.614   7.106  0.2472  0.6648  0.2672
  951MOL0     C31119   3.187   0.577   7.238  0.0522 -0.4724  0.1556
  951MOL0     C31120   3.300   0.530   7.322  0.0047 -0.1793 -0.0282
  951MOL0     C31121   3.337   0.388   7.286  0.4830 -0.3282  0.7704
  951MOL0     C31122   3.420   0.329   7.403  0.6780 -0.0222  0.0073
  951MOL0     C31123   3.536   0.429   7.449 -0.7965 -0.4625 -0.5107
  951MOL0     O31124   3.615   0.468   7.337 -0.2555 -0.4853 -0.0748
  951MOL0     C31125   3.744   0.426   7.325  0.3422 -0.6381 -0.1632
  951MOL0     C31126   3.792   0.405   7.199 -1.4354 -0.0722  0.4399
  951MOL0     C31127   3.926   0.372   7.172 -0.0548 -0.2743 -1.5477
  951MOL0     C31128   3.978   0.385   7.034  0.1887  0.2870  0.5236
  951MOL0     C31129   4.019   0.346   7.278 -0.4299 -0.2739 -0.0251
  951MOL0     C31130   4.163   0.302   7.269 -0.3400 -0.5833  0.3840
  951MOL0     O31131   4.240   0.299   7.383  0.2793 -0.5479 -0.0756
  951MOL0     C31132   4.376   0.285   7.366  0.3129 -0.3204 -0.2152
  951MOL0     C31133   4.462   0.394   7.347  0.0941  0.7398  0.6268
  951MOL0     C31134   4.599   0.366   7.329  0.4873 -0.2736 -0.5199
  951MOL0     C31135   4.650   0.233   7.324  0.1692 -0.6327  0.4539
  951MOL0     O31136   4.786   0.230   7.319 -0.1890  0.5534  0.5253
  951MOL0     C31137   4.844   0.136   7.412  1.0505  0.3715  0.0193
  951MOL0     C31138   4.995   0.142   7.395 -0.8302 -0.6587  1.1248
  951MOL0     C31139   5.052   0.280   7.423  0.5019 -0.2771  0.9707
  951MOL0     C31140   5.198   0.250   7.443 -0.7472  0.0482  0.2751
  951MOL0     C31141   5.287   0.381   7.461  1.1036  0.2144  1.2190
  951MOL0     C31142   5.311   0.463   7.336  0.0052 -1.0281  0.8205
  951MOL0     C31143   5.367   0.377   7.229 -0.2992  0.3680 -0.0426
  951MOL0     C31144   5.508   0.323   7.273  0.2039 -0.0666  0.0774
  951MOL0    Cl31145   5.611   0.446   7.352  0.1993 -0.1044  0.2526
  951MOL0     C31146   4.572   0.124   7.327  0.1486 -0.3048  0.2902
  951MOL0     C31147   4.439   0.156   7.352 -0.4929  0.6801 -0.5584
  951MOL0     O31148   4.204   0.265   7.158 -0.5668 -0.8633  0.3682
  951MOL0     C31149   3.967   0.367   7.411  0.4664  0.3379 -0.3807
  951MOL0     C31150   3.838   0.403   7.430  1.0944  0.3369 -0.2124
  951MOL0     N31151   3.046   0.578   7.267  0.2293 -0.1038  0.3658
  951MOL0     N31152   2.980   0.599   7.159 -0.3703  0.1913  0.7120
  951MOL0     C31153   2.571   1.614   6.752  0.7062  0.2859  0.9365
  951MOL0     C31154   2.492   1.730   6.751  0.0229 -0.3536 -0.5047
  951MOL0     C31155   2.065   1.927   6.678 -1.5276  0.5392  0.5137
  951MOL0     C31156   2.035   1.925   6.810  0.0924 -0.0323 -0.4257
  951MOL0     C31157   1.924   1.994   6.857 -0.5196  0.3182 -1.0469
  951MOL0     C31158   1.844   2.077   6.773 -0.6955 -0.1552 -0.5675
  951MOL0     O31159   1.734   2.149   6.808  0.0243  0.1063  0.3364
  951MOL0     C31160   1.682   2.149   6.945 -0.3802  0.8183 -0.5291
  951MOL0     C31161   1.751   2.253   7.037  0.4321 -0.2238 -0.1391
  951MOL0     C31162   1.714   2.396   7.003 -0.1814  0.4735 -0.8095
  951MOL0     C31163   1.577   2.437   7.067  0.4966  0.2001  0.9043
  951MOL0     C31164   1.521   2.550   6.988  0.6682  0.1865  0.1772
  951MOL0     C31165   1.474   2.647   6.920  0.1132  0.1400  0.9053
  951MOL0     C31166   1.877   2.082   6.641 -0.3452 -0.2099  0.7155
  951MOL0     C31167   1.990   2.008   6.589 -0.9006  0.2915  0.7125
  951MOL0     C31168   2.034   2.034   6.444 -0.1702  0.6911 -0.0920
  951MOL0     H31169   2.188   1.592   6.663  0.4698  1.6713 -0.1465
  951MOL0     H31170   2.351   1.374   6.657  0.3734 -2.2600  3.7380
  951MOL0     H31171   2.692   1.421   6.902  1.5886 -0.6565  1.0527
  951MOL0     H31172   2.787   1.430   6.751 -1.5918  0.4926 -1.8452
  951MOL0     H31173   2.862   1.252   6.886 -0.2277 -2.2001  0.0084
  951MOL0     H31174   2.700   1.194   6.917 -1.4218  1.0618  0.1003
  951MOL0     H31175   2.707   1.188   6.640 -0.3026  1.4961  0.3288
  951MOL0     H31176   2.872   1.163   6.676  1.0869  1.0972 -0.6465
  951MOL0     H31177   2.648   0.985   6.767 -0.2434  2.5710  0.6536
  951MOL0     H31178   2.785   0.952   6.663 -1.7888 -2.5710  0.8114
  951MOL0     H31179   2.788   0.836   6.878  1.8663 -1.2920  1.1580
  951MOL0     H31180   2.800   0.992   6.960  2.6604 -0.9761  1.1793
  951MOL0     H31181   3.017   0.904   6.768 -0.4427  2.6552 -1.4812
  951MOL0     H31182   3.006   1.047   6.874 -0.5583 -0.3970  1.6474
  951MOL0     H31183   3.008   0.884   7.069 -1.3232 -0.5798 -0.8394
  951MOL0     H31184   3.157   0.884   6.978  0.1811 -2.2202  5.0149
  951MOL0     H31185   2.944   0.678   6.901 -0.2846  2.1883  1.0204
  951MOL0     H31186   3.106   0.674   6.859  1.7537 -0.7144  0.8107
  951MOL0     H31187   3.290   0.603   7.054  0.9242 -0.1080  1.6242
  951MOL0     H31188   3.269   0.535   7.427 -0.5247  0.8314 -0.2130
  951MOL0     H31189   3.386   0.597   7.322 -1.7137  2.1717 -0.0419
  951MOL0     H31190   3.247   0.335   7.254 -1.4184  2.9600  0.2814
  951MOL0     H31191   3.403   0.383   7.199  0.3504 -1.8685  0.7196
  951MOL0     H31192   3.351   0.308   7.485 -0.1680 -1.3798 -1.0051
  951MOL0     H31193   3.465   0.232   7.380 -1.5118 -0.6224 -2.3397
  951MOL0     H31194   3.501   0.523   7.492 -0.5943 -0.7581  0.3314
  951MOL0     H31195   3.596   0.380   7.526 -0.5192 -1.2981 -1.2440
  951MOL0     H31196   3.719   0.437   7.125 -1.9351 -1.3466  0.3634
  951MOL0     H31197   3.899   0.420   6.967  2.4447  1.1305 -1.8933
  951MOL0     H31198   4.011   0.287   6.999  1.4262  1.5263 -2.0814
  951MOL0     H31199   4.060   0.458   7.029  0.8905 -0.5365 -2.8584
  951MOL0     H31200   4.432   0.498   7.349  0.8499  1.1999 -3.3995
  951MOL0     H31201   4.667   0.451   7.321 -1.1629  1.0223 -1.5021
  951MOL0     H31202   4.807   0.155   7.514  0.2568  0.9270 -0.3579
  951MOL0     H31203   4.815   0.032   7.392  0.8607  0.1212  1.4598
  951MOL0     H31204   5.035   0.069   7.466  0.6072 -0.3147  0.6918
  951MOL0     H31205   5.031   0.103   7.299  0.2167 -0.4422  1.4126
  951MOL0     H31206   5.006   0.329   7.509 -3.2049  1.3652 -1.6963
  951MOL0     H31207   5.026   0.351   7.344 -2.1857  0.2310  2.1983
  951MOL0     H31208   5.235   0.189   7.360  0.2213  1.1691 -0.1533
  951MOL0     H31209   5.195   0.190   7.534  1.1207 -0.7207 -0.1170
  951MOL0     H31210   5.238   0.445   7.535 -0.3694 -1.6310  1.9138
  951MOL0     H31211   5.381   0.351   7.509  1.4977 -0.6814 -0.0591
  951MOL0     H31212   5.364   0.556   7.359 -1.1889 -0.6530  2.2526
  951MOL0     H31213   5.214   0.499   7.300  2.1185  2.7768 -1.7652
  951MOL0     H31214   5.374   0.434   7.136  0.4184 -0.8053 -0.7253
  951MOL0     H31215   5.310   0.291   7.194 -0.5295  1.0410 -1.3818
  951MOL0     H31216   5.552   0.282   7.182 -0.1778 -2.6405  0.9703
  951MOL0     H31217   5.479   0.237   7.335 -0.2206 -1.1670 -1.5792
  951MOL0     H31218   4.625   0.030   7.321  0.9510  0.2386 -2.8010
  951MOL0     H31219   4.363   0.078   7.354  0.0002  0.1894  1.2438
  951MOL0     H31220   4.030   0.351   7.498  0.2663  2.8400  0.3097
  951MOL0     H31221   3.808   0.423   7.532 -0.2941  1.6446 -0.8398
  951MOL0     H31222   2.676   1.615   6.780  0.9803  0.2189 -0.0646
  951MOL0     H31223   2.551   1.821   6.762  1.3849 -1.1133 -1.2445
  951MOL0     H31224   2.096   1.871   6.881 -1.4054  1.7357  2.4062
  951MOL0     H31225   1.899   1.988   6.962  0.9120  1.0882 -0.6315
  951MOL0     H31226   1.573   2.156   6.951 -0.2506  1.5785  1.5604
  951MOL0     H31227   1.705   2.051   6.988 -2.1050  0.0381 -1.2932
  951MOL0     H31228   1.859   2.244   7.023  0.1419 -2.5813 -1.3544
  951MOL0     H31229   1.729   2.229   7.142 -0.8120  1.2300 -0.0151
  951MOL0     H31230   1.786   2.465   7.048 -0.2319  0.4784 -0.7350
  951MOL0     H31231   1.719   2.411   6.895  0.4188  3.1647 -0.4859
  951MOL0     H31232   1.585   2.474   7.169 -1.1925  1.5357  0.6078
  951MOL0     H31233   1.510   2.352   7.067 -2.1888  2.1838  1.5753
  951MOL0     H31234   1.420   2.725   6.871 -1.0823 -0.7552  0.7360
  951MOL0     H31235   1.814   2.137   6.572  0.5289 -0.8986 -0.6687
  951MOL0     H31236   2.024   1.943   6.385 -1.9573  1.5471 -1.2039
  951MOL0     H31237   1.971   2.108   6.394  0.1377  0.7235 -0.4428
  951MOL0     H31238   2.135   2.075   6.457 -0.3612  1.5232 -1.0888
  952MOL0     O31239   5.237   5.293   1.132 -0.0047 -0.2555  0.3186
  952MOL0     C31240   5.260   5.411   1.102 -0.3759 -0.5375  0.7008
  952MOL0     O31241   5.369   5.487   1.135  0.0432  0.3519  0.1107
  952MOL0     C31242   5.481   5.431   1.190 -0.2568 -0.0564  0.2205
  952MOL0     C31243   5.566   5.500   1.277  0.5791  0.0040  0.4880
  952MOL0     C31244   5.687   5.448   1.321  0.6940 -0.0665 -0.1223
  952MOL0     C31245   5.725   5.316   1.284 -0.5757  0.4152 -0.0175
  952MOL0     O31246   5.843   5.270   1.337  0.6899 -0.3316  0.4650
  952MOL0     C31247   5.925   5.183   1.260  0.6260 -0.4488 -0.0034
  952MOL0     C31248   6.070   5.196   1.306  0.0945  0.1568 -1.0718
  952MOL0     C31249   6.168   5.249   1.206 -0.0711  0.9143  0.0369
  952MOL0     C31250   6.122   5.391   1.156 -0.1442  0.4199  0.3301
  952MOL0     C31251   6.243   5.480   1.119 -0.5802  0.1262 -0.2323
  952MOL0     C31252   6.274   5.466   0.970  0.2128  0.2119  0.2857
  952MOL0     C31253   6.260   5.601   0.892 -1.1244 -0.0652 -0.5484
  952MOL0     C31254   6.274   5.574   0.740 -0.7639  0.2108  1.7621
  952MOL0     N31255   6.411   5.558   0.695  0.0764 -0.5539 -0.2854
  952MOL0     C31256   6.485   5.439   0.691  0.3874 -0.1282 -0.2357
  952MOL0     C31257   6.605   5.482   0.645  0.3892  0.4260  0.0949
  952MOL0     C31258   6.725   5.386   0.603  0.6049 -0.9250  0.3107
  952MOL0     C31259   6.862   5.457   0.634 -0.0603  0.4551 -0.2887
  952MOL0     C31260   6.969   5.369   0.566 -0.3692  1.0024  0.7477
  952MOL0     C31261   7.112   5.434   0.591  0.3544  0.0010  0.2739
  952MOL0     O31262   7.197   5.353   0.501  1.0298  0.0917 -0.5414
  952MOL0     C31263   7.330   5.343   0.534  0.0397 -0.2089 -0.8271
  952MOL0     C31264   7.412   5.268   0.455 -0.2437 -0.8494 -1.0122
  952MOL0     C31265   7.549   5.248   0.479 -0.0842 -0.4466  0.1908
  952MOL0     C31266   7.620   5.158   0.379 -0.3727  0.9033 -0.7259
  952MOL0     C31267   7.614   5.318   0.590 -0.1242 -1.1341  0.9256
  952MOL0     C31268   7.761   5.319   0.628  0.0044  0.1643 -0.9049
  952MOL0     O31269   7.845   5.278   0.533 -0.2604  1.3008 -0.4208
  952MOL0     C31270   7.976   5.255   0.559 -0.0017  0.5380  0.9438
  952MOL0     C31271   8.033   5.125   0.559  0.4010  0.2537 -1.0144
  952MOL0     C31272   8.163   5.110   0.597  0.2774 -0.1112 -0.2919
  952MOL0     C31273   8.245   5.221   0.610 -0.3822 -0.1283 -0.0981
  952MOL0     O31274   8.376   5.193   0.650 -0.1579 -0.0253 -0.9752
  952MOL0     C31275   8.478   5.295   0.649 -0.3580 -0.9159  0.5031
  952MOL0     C31276   8.617   5.235   0.672  0.5844  0.0637 -0.0438
  952MOL0     C31277   8.642   5.100   0.604 -0.1003  0.0816  0.1087
  952MOL0     C31278   8.783   5.065   0.567  0.1661  0.2278 -0.1444
  952MOL0     C31279   8.839   5.128   0.450 -0.1873  0.0026  1.4485
  952MOL0     C31280   8.998   5.090   0.432 -0.2386 -0.4202  0.3823
  952MOL0     C31281   9.100   5.121   0.540 -0.6115  0.4876  0.5385
  952MOL0     C31282   9.250   5.075   0.500  0.5739 -0.5800  0.0655
  952MOL0    Cl31283   9.370   5.110   0.624 -0.1814  0.0979 -0.3263
  952MOL0     C31284   8.192   5.348   0.595 -0.7427  0.2630  0.1923
  952MOL0     C31285   8.062   5.367   0.572  0.6489  0.1978 -0.5063
  952MOL0     O31286   7.796   5.356   0.744 -0.3270 -0.2612 -0.6333
  952MOL0     C31287   7.521   5.396   0.672 -0.7726 -0.6935  0.3784
  952MOL0     C31288   7.390   5.408   0.648  0.2475  0.2611  0.4252
  952MOL0     N31289   6.598   5.617   0.615  0.1958  0.5192  0.2254
  952MOL0     N31290   6.480   5.657   0.647  0.0309 -0.1194  0.9798
  952MOL0     C31291   5.652   5.242   1.191  0.3033  0.0275 -0.3706
  952MOL0     C31292   5.528   5.301   1.147 -0.5957 -0.3231 -0.1969
  952MOL0     C31293   5.147   5.490   1.044  0.9403 -0.0061 -0.1512
  952MOL0     C31294   5.133   5.628   1.084 -0.2099  0.5729 -0.3529
  952MOL0     C31295   5.035   5.707   1.037 -0.2882 -0.8350  0.0105
  952MOL0     C31296   4.964   5.670   0.928 -0.1125  0.7441 -0.4650
  952MOL0     O31297   4.887   5.762   0.862  0.2126 -0.2662  0.1644
  952MOL0     C31298   4.807   5.720   0.754  0.0347  0.4245  0.5905
  952MOL0     C31299   4.711   5.826   0.718  0.8913  0.2586  0.4293
  952MOL0     C31300   4.617   5.845   0.838 -0.2707 -0.4374 -0.5096
  952MOL0     C31301   4.509   5.940   0.797  0.5421  0.4117  0.4937
  952MOL0     C31302   4.399   5.930   0.892 -0.1686 -0.1173  0.4226
  952MOL0     C31303   4.305   5.939   0.972  0.0472 -0.6905 -0.0048
  952MOL0     C31304   4.975   5.532   0.883  0.2770  0.2840  0.0106
  952MOL0     C31305   5.068   5.438   0.942  0.2998 -0.1595 -0.3619
  952MOL0     C31306   5.072   5.290   0.906  0.0310 -0.3409 -0.5263
  952MOL0     H31307   5.535   5.603   1.295  1.6111  0.6532 -1.2215
  952MOL0     H31308   5.751   5.506   1.387  1.3369 -0.3758 -0.4654
  952MOL0     H31309   5.916   5.216   1.156 -2.5659 -2.0605 -0.3691
  952MOL0     H31310   5.894   5.079   1.265 -0.6384 -0.2413 -2.2182
  952MOL0     H31311   6.083   5.256   1.397 -0.4988 -0.4578 -0.5704
  952MOL0     H31312   6.104   5.097   1.339 -2.5225  0.1371  2.0158
  952MOL0     H31313   6.262   5.245   1.261  0.1000 -1.4652 -0.3363
  952MOL0     H31314   6.165   5.178   1.122 -1.6111  1.6682 -0.5927
  952MOL0     H31315   6.060   5.375   1.068  1.6464 -3.0354 -0.4745
  952MOL0     H31316   6.052   5.447   1.219  0.0518  1.3044 -0.2165
  952MOL0     H31317   6.331   5.442   1.172 -0.3965  2.4311  1.2502
  952MOL0     H31318   6.223   5.585   1.144  1.3792  0.9970 -2.0068
  952MOL0     H31319   6.374   5.423   0.961  0.5312  1.1384 -0.8605
  952MOL0     H31320   6.211   5.396   0.915  2.0564  0.1675 -1.9145
  952MOL0     H31321   6.320   5.678   0.940 -0.4881 -0.6723 -0.3500
  952MOL0     H31322   6.161   5.647   0.898  0.6853  3.9299  2.0599
  952MOL0     H31323   6.220   5.483   0.713 -0.5115  0.3098  0.9147
  952MOL0     H31324   6.227   5.653   0.681  0.6770 -2.3559 -3.3672
  952MOL0     H31325   6.466   5.336   0.718  3.0869 -0.4654  0.6688
  952MOL0     H31326   6.720   5.377   0.494  1.8434  2.2402 -0.1156
  952MOL0     H31327   6.717   5.288   0.650 -3.6080 -1.3434 -0.9287
  952MOL0     H31328   6.863   5.563   0.609 -1.7988  0.7199  0.6554
  952MOL0     H31329   6.893   5.471   0.738  1.7075  0.8059 -0.8305
  952MOL0     H31330   6.976   5.267   0.605 -1.4196  1.0727  1.1652
  952MOL0     H31331   6.948   5.374   0.459 -1.4732  2.1192  0.9879
  952MOL0     H31332   7.116   5.538   0.558  0.9020  0.6011  2.1643
  952MOL0     H31333   7.130   5.424   0.698 -1.2127 -0.5061  0.5218
  952MOL0     H31334   7.360   5.222   0.371 -0.6248  0.6682 -1.6433
  952MOL0     H31335   7.640   5.213   0.287 -0.1537 -0.6208 -1.6169
  952MOL0     H31336   7.554   5.077   0.347  1.3061 -1.1644  0.7958
  952MOL0     H31337   7.718   5.128   0.417 -0.2013  0.9508 -1.1281
  952MOL0     H31338   7.974   5.034   0.549  1.0129 -0.5262  1.6503
  952MOL0     H31339   8.201   5.011   0.618 -0.6669 -0.0050  2.1782
  952MOL0     H31340   8.486   5.355   0.557  1.6635  2.0489  2.4352
  952MOL0     H31341   8.451   5.366   0.728 -0.2403  2.7685 -2.4561
  952MOL0     H31342   8.688   5.312   0.640  0.5999  0.3878  0.7427
  952MOL0     H31343   8.640   5.233   0.779  1.6043  1.9906 -0.1808
  952MOL0     H31344   8.584   5.090   0.512  1.3233 -1.2593 -0.7051
  952MOL0     H31345   8.611   5.022   0.674  1.7539 -1.7074 -0.9336
  952MOL0     H31346   8.794   4.959   0.544 -0.3251  0.4039 -1.2744
  952MOL0     H31347   8.856   5.080   0.648 -0.7499  0.0285  0.7311
  952MOL0     H31348   8.791   5.093   0.358  0.0259  4.1394 -0.4321
  952MOL0     H31349   8.826   5.236   0.458 -3.5691 -0.1950  0.0992
  952MOL0     H31350   9.029   5.141   0.340  0.4694  2.7835  2.2421
  952MOL0     H31351   9.001   4.982   0.419 -0.0784 -0.2611 -1.1467
  952MOL0     H31352   9.069   5.059   0.625 -0.1678 -0.7197 -0.1421
  952MOL0     H31353   9.099   5.225   0.574 -1.3900  0.3194  1.0528
  952MOL0     H31354   9.275   5.138   0.414 -0.6064 -0.4589 -0.2121
  952MOL0     H31355   9.263   4.969   0.478  0.6578 -0.5925  0.1784
  952MOL0     H31356   8.249   5.438   0.614 -0.7983  0.2288  0.5195
  952MOL0     H31357   8.023   5.468   0.572  2.8527  1.1035 -1.4138
  952MOL0     H31358   7.560   5.466   0.745 -1.5403  0.8336 -0.6386
  952MOL0     H31359   7.331   5.467   0.717 -1.4151 -1.0922  0.2301
  952MOL0     H31360   5.696   5.146   1.168  1.3297 -0.2150  2.3164
  952MOL0     H31361   5.470   5.235   1.084 -0.0001 -2.9712  1.8289
  952MOL0     H31362   5.207   5.674   1.148 -0.6724  0.6043  0.1669
  952MOL0     H31363   5.040   5.813   1.059 -1.7311 -0.8192  0.3447
  952MOL0     H31364   4.876   5.701   0.671  0.0106 -3.1071  1.2424
  952MOL0     H31365   4.757   5.624   0.771 -0.4648  0.3806 -0.9742
  952MOL0     H31366   4.655   5.787   0.633  0.7314 -0.3181  0.7901
  952MOL0     H31367   4.765   5.917   0.690  2.4031 -1.2386 -1.8626
  952MOL0     H31368   4.557   5.757   0.863 -1.3654  0.5074  0.2596
  952MOL0     H31369   4.668   5.885   0.927 -0.4201  0.9592 -1.0378
  952MOL0     H31370   4.472   5.917   0.697  2.5948 -2.7703  0.3218
  952MOL0     H31371   4.548   6.042   0.806  1.5866 -0.0385  1.2668
  952MOL0     H31372   4.222   5.950   1.039 -0.4746 -0.0789 -0.7333
  952MOL0     H31373   4.906   5.490   0.811  0.0767 -1.5549  1.2114
  952MOL0     H31374   5.012   5.277   0.815 -1.6154 -0.4018  0.5184
  952MOL0     H31375   5.174   5.266   0.874  1.2381  1.0937  1.9604
  952MOL0     H31376   5.031   5.232   0.989 -2.8548  1.8757 -0.2297
  953MOL0     O31377   0.240   9.070   9.825  0.1428  0.1365  0.0953
  953MOL0     C31378   0.188   9.182   9.862 -0.0476  0.3682  0.4317
  953MOL0     O31379   0.259   9.300   9.879  0.4705 -0.1174  0.2754
  953MOL0     C31380   0.389   9.299   9.835  0.1515  0.8944  0.4297
  953MOL0     C31381   0.486   9.269   9.934  0.2588  0.8217  1.1970
  953MOL0     C31382   0.617   9.263   9.901 -0.2545  0.0651 -0.2988
  953MOL0     C31383   0.662   9.288   9.769  0.6763 -0.2546 -0.8103
  953MOL0     O31384   0.796   9.276   9.736  0.4395 -0.0470 -0.1473
  953MOL0     C31385   0.873   9.176   9.803  0.9754 -0.5229 -0.4716
  953MOL0     C31386   0.992   9.138   9.705 -0.2361 -0.0626  0.0816
  953MOL0     C31387   0.952   9.030   9.596  0.0586 -0.7181  0.6709
  953MOL0     C31388   0.897   9.107   9.471 -0.8791  0.0062 -0.0698
  953MOL0     C31389   0.837   9.004   9.361 -0.1829 -0.2334 -0.2239
  953MOL0     C31390   0.698   8.959   9.404 -0.4940  0.2068  0.6255
  953MOL0     C31391   0.590   9.059   9.437  0.2742 -0.0958  0.4819
  953MOL0     C31392   0.453   8.994   9.438 -0.0551  0.4726 -0.1117
  953MOL0     N31393   0.455   8.898   9.550  0.7102 -0.3291 -0.4898
  953MOL0     C31394   0.469   8.926   9.685 -1.0659 -0.4421 -0.5834
  953MOL0     C31395   0.421   8.817   9.749  0.1847  0.4692 -0.3527
  953MOL0     C31396   0.418   8.810   9.895  0.6624 -0.6118 -0.2212
  953MOL0     C31397   0.515   8.705   9.964 -0.0587 -1.3933  0.6353
  953MOL0     C31398   0.474   8.555   9.966  0.1965  0.1264  0.6391
  953MOL0     C31399   0.538   8.480  10.083  0.3317 -1.0352  0.0543
  953MOL0     O31400   0.673   8.517  10.065  0.2088  0.6022  0.1912
  953MOL0     C31401   0.770   8.493  10.156 -0.7675  0.3281 -0.9311
  953MOL0     C31402   0.761   8.461  10.295  0.6090  0.1001 -1.1968
  953MOL0     C31403   0.873   8.430  10.380  1.0951  0.7937  0.1817
  953MOL0     C31404   0.863   8.392  10.526 -0.4130 -0.8557 -0.2409
  953MOL0     C31405   1.003   8.419  10.324 -0.9761  0.0255 -0.6564
  953MOL0     C31406   1.129   8.375  10.396 -0.1236  0.3798  0.6528
  953MOL0     O31407   1.230   8.315  10.328 -0.5312  0.7860  0.3947
  953MOL0     C31408   1.338   8.274  10.401 -0.9192  0.2825 -0.1623
  953MOL0     C31409   1.328   8.162  10.476  0.0931  0.7954  0.0646
  953MOL0     C31410   1.432   8.115  10.555 -0.0675 -0.1562 -0.2388
  953MOL0     C31411   1.555   8.180  10.562  0.0115  0.2771 -0.9997
  953MOL0     O31412   1.676   8.120  10.611  0.6321 -0.5168 -0.0967
  953MOL0     C31413   1.677   8.057  10.739 -0.5041  0.0613 -0.6710
  953MOL0     C31414   1.805   7.962  10.754 -0.3772  0.3021 -0.2274
  953MOL0     C31415   1.791   7.835  10.663  0.4027  0.6153 -0.2817
  953MOL0     C31416   1.913   7.744  10.662  0.3550 -0.0382 -0.3287
  953MOL0     C31417   2.041   7.810  10.621  0.3786 -1.6035  0.2710
  953MOL0     C31418   2.145   7.700  10.570 -0.4553 -0.2890 -0.3548
  953MOL0     C31419   2.281   7.759  10.524  0.0710 -0.1287 -0.2453
  953MOL0     C31420   2.250   7.856  10.405 -0.2771 -0.9118 -0.7590
  953MOL0    Cl31421   2.154   7.773  10.271  0.4135 -0.5613 -0.0773
  953MOL0     C31422   1.562   8.299  10.487  0.3348  0.2447  0.1114
  953MOL0     C31423   1.463   8.344  10.403  0.5532  0.2275 -0.8532
  953MOL0     O31424   1.134   8.407  10.511 -0.3937 -0.2754 -0.7806
  953MOL0     C31425   1.014   8.457  10.186  0.0393  1.2058 -0.0224
  953MOL0     C31426   0.901   8.495  10.105  0.3083 -0.4957  0.0893
  953MOL0     N31427   0.380   8.723   9.656  0.2326 -0.4941 -0.4031
  953MOL0     N31428   0.401   8.778   9.532  0.6719 -0.5775 -0.3260
  953MOL0     C31429   0.569   9.335   9.669  0.5144 -0.8242 -0.1071
  953MOL0     C31430   0.426   9.338   9.704 -0.3625  0.1199 -0.7039
  953MOL0     C31431   0.036   9.182   9.853  0.2305 -1.2526  0.2387
  953MOL0     C31432  -0.030   9.077   9.780  0.6445 -0.1043  0.9432
  953MOL0     C31433  -0.166   9.069   9.774  0.3646 -0.4256  0.5111
  953MOL0     C31434  -0.251   9.170   9.816 -0.3152  0.1824 -0.7880
  953MOL0     O31435  -0.384   9.160   9.784 -0.1446 -0.1778  0.1100
  953MOL0     C31436  -0.478   9.266   9.819  0.8265  0.1079  0.3534
  953MOL0     C31437  -0.620   9.208   9.796  0.1486  0.4735 -0.2779
  953MOL0     C31438  -0.640   9.060   9.855 -0.6724 -0.1705  0.0531
  953MOL0     C31439  -0.774   9.005   9.811 -0.2744  0.0845  1.0970
  953MOL0     C31440  -0.893   9.070   9.871  0.1845  0.5378  1.2748
  953MOL0     C31441  -0.983   9.132   9.917  0.1333  0.1305  0.1950
  953MOL0     C31442  -0.193   9.273   9.891  0.2514 -0.3254 -0.1288
  953MOL0     C31443  -0.052   9.284   9.905  1.1660 -0.1029  0.0905
  953MOL0     C31444   0.001   9.404   9.975 -0.0202  0.4921 -0.0640
  953MOL0     H31445   0.465   9.249  10.038 -0.0801 -0.5384  0.8801
  953MOL0     H31446   0.688   9.229   9.976 -1.1578 -0.2790  0.4199
  953MOL0     H31447   0.815   9.086   9.825 -0.7469 -0.0549 -2.6661
  953MOL0     H31448   0.901   9.223   9.898 -0.5852 -2.2182  0.8907
  953MOL0     H31449   1.037   9.231   9.668 -1.1030  1.0309  1.6131
  953MOL0     H31450   1.072   9.104   9.772 -0.4719 -0.9601 -0.0804
  953MOL0     H31451   1.037   8.966   9.570  0.7436  0.0032  1.1127
  953MOL0     H31452   0.885   8.955   9.640  1.3421 -0.3410  3.4919
  953MOL0     H31453   0.821   9.176   9.509  0.0946  0.1167  1.8071
  953MOL0     H31454   0.976   9.172   9.431 -2.3176  0.2658 -2.7391
  953MOL0     H31455   0.905   8.919   9.363 -0.0036 -0.1586 -1.6323
  953MOL0     H31456   0.832   9.046   9.260 -3.3566  0.1259 -0.0387
  953MOL0     H31457   0.664   8.892   9.324  2.1082 -1.7717  1.0495
  953MOL0     H31458   0.711   8.882   9.480  1.4664 -1.7018 -1.4904
  953MOL0     H31459   0.592   9.147   9.373 -1.3641 -1.1871 -1.1676
  953MOL0     H31460   0.605   9.114   9.530 -0.0414 -1.0924  1.1460
  953MOL0     H31461   0.385   9.077   9.460 -2.2440 -1.0855 -0.6698
  953MOL0     H31462   0.429   8.943   9.344  3.2671 -0.1632 -0.7474
  953MOL0     H31463   0.501   9.017   9.733 -4.2478 -0.1427  1.2645
  953MOL0     H31464   0.315   8.800   9.931  0.9355  1.6256  1.3922
  953MOL0     H31465   0.455   8.907   9.931  2.0094 -1.1791 -0.0284
  953MOL0     H31466   0.613   8.717   9.916 -1.0469  1.7384 -0.9489
  953MOL0     H31467   0.530   8.742  10.066  0.3308 -3.7767  1.4907
  953MOL0     H31468   0.366   8.540   9.977  0.0129 -2.8916 -3.1077
  953MOL0     H31469   0.494   8.522   9.863 -3.9421 -2.7602  0.4829
  953MOL0     H31470   0.507   8.508  10.184  1.9340 -1.1811  0.6119
  953MOL0     H31471   0.514   8.373  10.084 -0.5504 -0.8594  2.1972
  953MOL0     H31472   0.661   8.475  10.333  2.1712  2.4722  2.6396
  953MOL0     H31473   0.894   8.480  10.583 -0.9700  0.7745 -2.2810
  953MOL0     H31474   0.910   8.301  10.564 -2.1192 -1.7341 -0.1187
  953MOL0     H31475   0.758   8.367  10.544 -0.4835 -2.5683 -2.5303
  953MOL0     H31476   1.231   8.113  10.475  0.4634  0.0296  0.4522
  953MOL0     H31477   1.419   8.027  10.617  3.0783  0.8364  2.0446
  953MOL0     H31478   1.676   8.136  10.815 -1.6086 -0.3903 -0.1946
  953MOL0     H31479   1.590   7.992  10.758  0.5786 -0.9406  1.1535
  953MOL0     H31480   1.889   8.026  10.727 -1.9606  2.0452 -1.2564
  953MOL0     H31481   1.816   7.950  10.862  1.9268  3.2445 -0.0015
  953MOL0     H31482   1.776   7.867  10.559  0.8530 -2.1187 -1.2830
  953MOL0     H31483   1.695   7.789  10.688  0.8310  0.8959  2.0540
  953MOL0     H31484   1.890   7.662  10.592 -1.7932  0.5033 -0.3208
  953MOL0     H31485   1.933   7.705  10.762  5.3169 -0.8548 -1.3590
  953MOL0     H31486   2.025   7.886  10.543  0.4377 -0.1106  1.6562
  953MOL0     H31487   2.091   7.868  10.699 -1.0741 -0.0065  0.0972
  953MOL0     H31488   2.112   7.655  10.476  1.2256  1.7478 -2.0307
  953MOL0     H31489   2.160   7.617  10.639 -1.8178  2.2522  3.3349
  953MOL0     H31490   2.354   7.693  10.477 -1.2360 -0.3629 -2.0462
  953MOL0     H31491   2.332   7.811  10.606  0.9977  0.4169 -1.1463
  953MOL0     H31492   2.347   7.899  10.379  0.1643 -0.5545  1.2943
  953MOL0     H31493   2.186   7.937  10.442  0.8387  0.2779 -1.3574
  953MOL0     H31494   1.656   8.352  10.479  1.1446 -1.2787 -0.9384
  953MOL0     H31495   1.473   8.436  10.346 -0.0576  0.9855  0.2313
  953MOL0     H31496   1.112   8.458  10.140  1.5900 -1.1141  2.8187
  953MOL0     H31497   0.927   8.518  10.002  1.4567  0.9796  0.6673
  953MOL0     H31498   0.618   9.357   9.574  0.5643  2.1045  0.4888
  953MOL0     H31499   0.350   9.379   9.638  0.6161  1.9138 -0.7695
  953MOL0     H31500   0.030   9.001   9.731  1.6116  1.8124 -0.9846
  953MOL0     H31501  -0.220   8.993   9.718 -1.1313  0.7868  0.2462
  953MOL0     H31502  -0.472   9.276   9.928 -1.3061 -1.6546  0.7037
  953MOL0     H31503  -0.455   9.365   9.779 -1.4547 -0.1443 -1.8829
  953MOL0     H31504  -0.646   9.199   9.690 -0.6827 -1.7840  0.0664
  953MOL0     H31505  -0.697   9.273   9.838  0.9266  0.7103  0.8276
  953MOL0     H31506  -0.565   8.996   9.808  0.2405  0.7330  0.2352
  953MOL0     H31507  -0.625   9.052   9.963 -3.2022  0.8876  0.5548
  953MOL0     H31508  -0.770   8.899   9.840 -2.2443 -0.1400  0.6562
  953MOL0     H31509  -0.780   9.005   9.701  0.9267 -0.6546  1.0158
  953MOL0     H31510  -1.070   9.180   9.956  1.0246  0.6432  1.6570
  953MOL0     H31511  -0.257   9.352   9.929  1.9123  0.7001  0.6503
  953MOL0     H31512   0.054   9.468   9.905  1.7003 -1.0879 -0.2758
  953MOL0     H31513  -0.085   9.457  10.018 -0.8186 -1.7650  1.3585
  953MOL0     H31514   0.070   9.357  10.046  2.6924  0.1638 -2.7130
  954MOL0     O31515   9.767   7.083   9.992  0.5898  0.1686  0.1447
  954MOL0     C31516   9.702   7.186  10.012 -1.2241  0.7150 -0.2484
  954MOL0     O31517   9.758   7.312  10.021 -0.0396  0.5346 -0.6475
  954MOL0     C31518   9.895   7.319  10.031  0.3370 -0.3113  0.6175
  954MOL0     C31519   9.961   7.251  10.134  0.2536 -0.0342  1.8225
  954MOL0     C31520  10.101   7.261  10.153  0.0364  0.4427 -0.1599
  954MOL0     C31521  10.182   7.350  10.072 -0.4911  0.3971  0.1038
  954MOL0     O31522  10.310   7.374  10.099 -0.3163 -0.5453 -0.3297
  954MOL0     C31523  10.354   7.506  10.102 -0.1935  0.0375 -0.9825
  954MOL0     C31524  10.456   7.523  10.217  0.2976 -0.0977 -0.3262
  954MOL0     C31525  10.595   7.480  10.175  0.5826  0.2916 -0.7066
  954MOL0     C31526  10.705   7.505  10.283  0.6711  0.1090 -0.9801
  954MOL0     C31527  10.834   7.551  10.218 -1.1307  0.2146  0.2690
  954MOL0     C31528  10.938   7.568  10.330 -0.5872 -0.3491 -0.0238
  954MOL0     C31529  11.078   7.605  10.280 -1.5256 -0.3470  0.5552
  954MOL0     C31530  11.102   7.750  10.261 -1.5332  0.3772 -0.3755
  954MOL0     N31531  11.096   7.822  10.392 -0.0741 -0.2082  0.4592
  954MOL0     C31532  11.195   7.821  10.491 -0.5719  0.5829  0.2697
  954MOL0     C31533  11.186   7.934  10.562 -0.3672  0.2058 -0.0064
  954MOL0     C31534  11.294   7.964  10.667 -0.1589  0.6764 -0.1582
  954MOL0     C31535  11.418   8.029  10.602  0.2790  0.4346 -0.2111
  954MOL0     C31536  11.524   8.046  10.708 -0.4493  1.1356 -0.2793
  954MOL0     C31537  11.651   8.095  10.639  0.1301 -0.3126 -0.9499
  954MOL0     O31538  11.692   8.008  10.540  0.8004 -0.6944  0.5844
  954MOL0     C31539  11.773   7.899  10.569  0.1955 -0.2173 -1.0164
  954MOL0     C31540  11.812   7.826  10.464 -0.4715  0.4474 -0.7679
  954MOL0     C31541  11.891   7.708  10.484  0.6827  0.6550  0.1284
  954MOL0     C31542  11.923   7.633  10.355 -0.4985  0.6045  0.6043
  954MOL0     C31543  11.934   7.677  10.612 -0.7878  0.3607 -0.1973
  954MOL0     C31544  12.040   7.563  10.639 -0.0353 -0.1456  0.4407
  954MOL0     O31545  12.052   7.528  10.769 -0.4899  0.5074  0.0971
  954MOL0     C31546  12.136   7.424  10.792 -1.0570 -0.8085 -0.9437
  954MOL0     C31547  12.279   7.455  10.804 -0.0965  1.0417 -0.2976
  954MOL0     C31548  12.370   7.350  10.816 -0.7409  0.1622 -0.1133
  954MOL0     C31549  12.330   7.216  10.828  0.8468  0.5788  0.4318
  954MOL0     O31550  12.426   7.116  10.852  0.0470 -0.2624 -0.1297
  954MOL0     C31551  12.382   6.983  10.874  0.1133  0.1998  0.3920
  954MOL0     C31552  12.487   6.885  10.923 -0.0996 -0.0087  0.5031
  954MOL0     C31553  12.551   6.940  11.056  0.3207 -0.4253  0.2026
  954MOL0     C31554  12.656   6.841  11.111  0.0602  0.0230 -0.4697
  954MOL0     C31555  12.712   6.884  11.244 -0.2168 -0.1682 -0.2319
  954MOL0     C31556  12.790   6.768  11.305 -0.7606 -0.0227  0.3299
  954MOL0     C31557  12.838   6.805  11.445  0.5693 -0.1971 -0.1223
  954MOL0     C31558  12.898   6.691  11.528  0.2399  0.1937  0.0093
  954MOL0    Cl31559  13.070   6.686  11.493 -0.0775  0.0440  0.0078
  954MOL0     C31560  12.194   7.190  10.807  0.0305  0.4915 -0.2007
  954MOL0     C31561  12.095   7.291  10.789  0.0903  0.3018  0.4602
  954MOL0     O31562  12.109   7.512  10.545 -0.3918 -0.3040 -0.5119
  954MOL0     C31563  11.893   7.752  10.717  0.1136 -0.6077 -0.4350
  954MOL0     C31564  11.811   7.856  10.701  0.4893  0.0822  0.3619
  954MOL0     N31565  11.073   7.998  10.519  0.4281 -0.1305  0.8336
  954MOL0     N31566  11.027   7.937  10.408 -0.2342  0.6580  0.0923
  954MOL0     C31567  10.113   7.413   9.966  0.1370 -0.1400 -0.4057
  954MOL0     C31568   9.969   7.404   9.947  0.1882  0.0719  0.1364
  954MOL0     C31569   9.544   7.179  10.034 -0.3625  1.0608  0.1318
  954MOL0     C31570   9.483   7.299  10.075 -1.2824 -0.7315 -0.0734
  954MOL0     C31571   9.350   7.308  10.091  0.2800 -0.2403  0.8203
  954MOL0     C31572   9.264   7.203  10.049 -0.3026  0.3295 -0.8033
  954MOL0     O31573   9.129   7.211  10.067  0.0004  0.7129  0.6614
  954MOL0     C31574   9.059   7.328  10.121  0.1682  0.8434  0.2494
  954MOL0     C31575   8.901   7.312  10.120 -0.5295 -0.5358 -0.6560
  954MOL0     C31576   8.850   7.208  10.223 -0.1146 -0.0514 -0.5469
  954MOL0     C31577   8.699   7.187  10.198 -0.5655 -0.3494  0.2447
  954MOL0     C31578   8.612   7.301  10.237  0.2619 -0.4808  0.1378
  954MOL0     C31579   8.523   7.392  10.237 -0.3643  0.3220 -0.1615
  954MOL0     C31580   9.318   7.085  10.002 -0.5258 -0.4934 -0.7406
  954MOL0     C31581   9.459   7.071  10.003 -0.1688  0.1006  0.4109
  954MOL0     C31582   9.527   6.950   9.946 -0.0740  0.0951  0.5637
  954MOL0     H31583   9.914   7.177  10.198  2.0343 -3.0713 -0.1359
  954MOL0     H31584  10.144   7.209  10.238 -1.0362 -0.4385 -0.1305
  954MOL0     H31585  10.266   7.568  10.121  0.8671  2.0332 -2.2515
  954MOL0     H31586  10.402   7.527  10.006  1.8681  0.4825  0.0644
  954MOL0     H31587  10.463   7.627  10.251  2.2899 -0.2523 -0.1810
  954MOL0     H31588  10.418   7.476  10.308  0.0506 -0.3791 -0.5701
  954MOL0     H31589  10.586   7.371  10.178 -3.0890  0.4333 -1.7625
  954MOL0     H31590  10.627   7.516  10.077  0.5951  0.5456 -0.6105
  954MOL0     H31591  10.680   7.578  10.360 -0.5693 -0.7985 -0.4870
  954MOL0     H31592  10.731   7.411  10.332  0.4902 -0.4392 -1.9126
  954MOL0     H31593  10.813   7.650  10.176  0.8981 -0.4434 -2.6196
  954MOL0     H31594  10.861   7.499  10.125  0.0467  2.5525 -0.8024
  954MOL0     H31595  10.902   7.652  10.391  1.1170  0.2937  0.1335
  954MOL0     H31596  10.949   7.476  10.388 -0.2340  0.2734  0.9175
  954MOL0     H31597  11.084   7.542  10.191 -3.8726  0.2204 -0.0703
  954MOL0     H31598  11.152   7.569  10.353  0.4088 -5.7852 -3.3872
  954MOL0     H31599  11.200   7.765  10.216 -0.2306 -1.0271  1.8347
  954MOL0     H31600  11.026   7.785  10.190 -1.3234  0.5122 -0.5327
  954MOL0     H31601  11.268   7.742  10.509  1.6816  2.2571 -1.0349
  954MOL0     H31602  11.323   7.873  10.720 -1.5733 -0.6630 -1.5659
  954MOL0     H31603  11.247   8.035  10.736 -2.0990  0.1022 -0.8163
  954MOL0     H31604  11.443   7.958  10.523 -0.5293 -0.0928 -0.0067
  954MOL0     H31605  11.402   8.124  10.551 -1.3303 -0.3848 -1.3299
  954MOL0     H31606  11.484   8.118  10.780 -0.7836  0.5820  0.1041
  954MOL0     H31607  11.548   7.948  10.750  3.2180  0.8602 -2.5691
  954MOL0     H31608  11.641   8.196  10.599  0.6799  0.8150  1.5146
  954MOL0     H31609  11.730   8.106  10.714 -1.5997 -0.9596  1.0753
  954MOL0     H31610  11.771   7.864  10.370  0.9248 -0.9668 -2.0106
  954MOL0     H31611  11.925   7.707  10.274 -0.1572 -0.5674 -0.4899
  954MOL0     H31612  11.853   7.550  10.343  0.0252  0.3805 -1.3046
  954MOL0     H31613  12.024   7.591  10.352 -0.7259 -0.0026  1.2253
  954MOL0     H31614  12.317   7.556  10.812  0.6616  0.5929  3.4627
  954MOL0     H31615  12.476   7.374  10.827 -0.1227 -3.0132  3.2188
  954MOL0     H31616  12.311   6.984  10.957 -0.2993  1.6993  0.0559
  954MOL0     H31617  12.329   6.942  10.788 -0.2037  0.2271  0.5729
  954MOL0     H31618  12.439   6.788  10.938  1.5511 -0.7101  1.5288
  954MOL0     H31619  12.558   6.866  10.842  1.1558 -0.7840  1.7414
  954MOL0     H31620  12.478   6.944  11.137 -1.2640 -2.7147 -0.9973
  954MOL0     H31621  12.595   7.039  11.039 -0.5094 -0.3168 -1.6002
  954MOL0     H31622  12.731   6.834  11.032  0.6567  0.5534  0.0374
  954MOL0     H31623  12.606   6.745  11.126  1.9079 -0.8991  0.0076
  954MOL0     H31624  12.772   6.975  11.230 -1.0527  0.4419  0.0459
  954MOL0     H31625  12.633   6.921  11.311  1.6506 -2.3151  3.5062
  954MOL0     H31626  12.883   6.751  11.248 -1.1936  2.7155 -1.3773
  954MOL0     H31627  12.736   6.674  11.314 -0.6169 -0.0301  1.2442
  954MOL0     H31628  12.750   6.835  11.503 -0.2458  0.6214 -1.7221
  954MOL0     H31629  12.906   6.891  11.440 -1.4293  1.4403 -0.6324
  954MOL0     H31630  12.851   6.594  11.507 -0.3492  0.1407  1.4769
  954MOL0     H31631  12.884   6.720  11.633  0.1683  1.4052 -0.3246
  954MOL0     H31632  12.164   7.087  10.798  0.5062  0.5310 -2.8891
  954MOL0     H31633  11.992   7.268  10.764 -0.0570  0.1519  1.1720
  954MOL0     H31634  11.931   7.729  10.816 -2.3621 -1.6524  0.3418
  954MOL0     H31635  11.786   7.910  10.792 -2.3305 -1.4733  0.6307
  954MOL0     H31636  10.157   7.500   9.918 -1.8389  1.2183  0.1195
  954MOL0     H31637   9.911   7.462   9.877 -0.3499  0.6432  1.0348
  954MOL0     H31638   9.539   7.391  10.088 -1.5439 -0.4798 -0.6980
  954MOL0     H31639   9.300   7.399  10.123 -1.0914 -0.6096 -0.1775
  954MOL0     H31640   9.096   7.339  10.223  0.6129  0.9841  0.0720
  954MOL0     H31641   9.083   7.411  10.054  0.3804 -1.5867 -2.8881
  954MOL0     H31642   8.866   7.294  10.018  0.6689 -0.7123 -1.0574
  954MOL0     H31643   8.864   7.406  10.161 -1.1465 -0.1390 -2.0528
  954MOL0     H31644   8.906   7.117  10.198 -1.6506 -0.7699 -1.5576
  954MOL0     H31645   8.870   7.238  10.327  0.1660  0.9235 -0.8730
  954MOL0     H31646   8.667   7.098  10.254  0.0234  0.7839  2.5253
  954MOL0     H31647   8.686   7.165  10.092 -0.9849  1.1728 -0.0485
  954MOL0     H31648   8.450   7.469  10.250 -1.0663 -0.2079 -0.8592
  954MOL0     H31649   9.258   7.003   9.964 -1.8469  0.3721 -0.5773
  954MOL0     H31650   9.605   6.903  10.006 -0.0094 -2.3846 -1.3140
  954MOL0     H31651   9.452   6.872   9.929  0.4162 -0.6644  1.7711
  954MOL0     H31652   9.574   6.973   9.850  0.5403 -1.5296  0.4552
  955MOL0     O31653  11.333   1.596   0.379  0.1260  0.5453 -0.0568
  955MOL0     C31654  11.245   1.620   0.459 -0.3120  0.4134  0.0335
  955MOL0     O31655  11.241   1.723   0.540  0.3721 -0.0914 -0.1357
  955MOL0     C31656  11.335   1.819   0.546 -0.1005  0.6086  0.2113
  955MOL0     C31657  11.289   1.936   0.612 -0.1688 -0.4192 -0.1317
  955MOL0     C31658  11.378   2.026   0.659 -0.0387  0.1656  0.0048
  955MOL0     C31659  11.519   2.005   0.654 -1.2914  0.1679  0.7208
  955MOL0     O31660  11.597   2.095   0.722 -0.3289  0.3159 -0.0563
  955MOL0     C31661  11.571   2.239   0.715 -0.0987 -0.6048  0.0039
  955MOL0     C31662  11.686   2.313   0.644 -0.9188 -0.5848  0.1849
  955MOL0     C31663  11.700   2.264   0.503 -1.1956 -0.9962  0.7684
  955MOL0     C31664  11.853   2.261   0.459 -0.3232 -0.0850  0.4452
  955MOL0     C31665  11.869   2.206   0.309 -0.3890  0.9681 -1.2739
  955MOL0     C31666  12.000   2.260   0.246 -0.0754 -0.3557  0.0136
  955MOL0     C31667  12.118   2.255   0.344  0.3873  0.4664 -0.4440
  955MOL0     C31668  12.258   2.281   0.285  0.5760 -0.4096 -0.0262
  955MOL0     N31669  12.367   2.292   0.387  0.1812 -0.3341  0.1915
  955MOL0     C31670  12.357   2.363   0.505 -0.4260  1.1014  1.1622
  955MOL0     C31671  12.480   2.343   0.564 -0.4055  0.3504 -0.4782
  955MOL0     C31672  12.511   2.408   0.699  0.5732  0.5835 -0.7186
  955MOL0     C31673  12.575   2.540   0.668 -0.6022  0.1588 -0.0479
  955MOL0     C31674  12.619   2.612   0.797 -1.3122 -0.0786  0.1205
  955MOL0     C31675  12.702   2.741   0.768  0.5289 -1.1096 -0.0677
  955MOL0     O31676  12.692   2.814   0.892 -0.5603  0.6619  0.9342
  955MOL0     C31677  12.772   2.929   0.888  0.0721  0.7750 -0.4890
  955MOL0     C31678  12.791   3.023   0.785 -0.4158 -0.2099 -0.4567
  955MOL0     C31679  12.873   3.137   0.803  0.3733 -0.2343  0.4736
  955MOL0     C31680  12.899   3.218   0.683  0.0279 -0.7462  0.3178
  955MOL0     C31681  12.930   3.171   0.926 -0.1157 -0.1592 -0.5796
  955MOL0     C31682  13.016   3.289   0.954 -0.5555 -0.3918  0.0290
  955MOL0     O31683  13.084   3.284   1.073  1.0883  0.1101  0.0862
  955MOL0     C31684  13.202   3.359   1.085  0.2838 -0.5585  0.2379
  955MOL0     C31685  13.315   3.349   0.997  0.4447 -0.3386  1.0876
  955MOL0     C31686  13.434   3.420   1.007  0.0926  0.8320 -0.8100
  955MOL0     C31687  13.446   3.496   1.119 -0.0036  0.0834  0.3669
  955MOL0     O31688  13.562   3.567   1.147  0.4324 -0.0686 -0.4067
  955MOL0     C31689  13.676   3.568   1.057  0.2049 -0.5778  0.4539
  955MOL0     C31690  13.799   3.614   1.132  0.3190 -0.1491  0.9857
  955MOL0     C31691  13.783   3.766   1.152 -0.3013  0.6426 -0.2723
  955MOL0     C31692  13.901   3.820   1.228 -0.0697  0.1669  0.2959
  955MOL0     C31693  13.900   3.970   1.227  0.0040  0.2859  0.1820
  955MOL0     C31694  14.029   4.025   1.277 -0.3053  0.5694 -0.8754
  955MOL0     C31695  14.016   4.177   1.280 -0.8486  0.2801  0.4479
  955MOL0     C31696  13.881   4.247   1.313 -0.6522  0.0777 -0.1719
  955MOL0    Cl31697  13.796   4.200   1.466  0.3423  0.5794 -0.4860
  955MOL0     C31698  13.350   3.490   1.218 -1.0147  0.1496 -1.3001
  955MOL0     C31699  13.221   3.436   1.197 -0.4072 -0.2312  0.1127
  955MOL0     O31700  13.028   3.384   0.874  0.1836  0.7357  0.0663
  955MOL0     C31701  12.898   3.076   1.030 -0.1820 -0.4746 -0.6392
  955MOL0     C31702  12.827   2.963   1.007  0.7945 -0.0355 -1.2348
  955MOL0     N31703  12.555   2.259   0.488 -0.0134 -0.0777 -0.1936
  955MOL0     N31704  12.483   2.232   0.382 -0.0381  0.0082 -0.2106
  955MOL0     C31705  11.563   1.888   0.588  0.7589  0.3424  0.4515
  955MOL0     C31706  11.470   1.803   0.528  0.3054 -0.1696  0.0454
  955MOL0     C31707  11.111   1.537   0.455  0.6224  0.7263  0.6308
  955MOL0     C31708  11.000   1.585   0.531  0.3545  0.2001 -0.1164
  955MOL0     C31709  10.879   1.525   0.516 -0.2008 -0.3627  0.5614
  955MOL0     C31710  10.856   1.428   0.420 -0.7638  0.0569 -0.0775
  955MOL0     O31711  10.741   1.356   0.402  0.1832 -0.3932  0.0878
  955MOL0     C31712  10.610   1.402   0.444  0.3221 -0.5884  0.8668
  955MOL0     C31713  10.547   1.474   0.331  0.3912 -0.3338  0.1438
  955MOL0     C31714  10.617   1.607   0.278 -0.4159 -0.6040 -0.2908
  955MOL0     C31715  10.556   1.660   0.147 -0.4473  0.4611 -0.3319
  955MOL0     C31716  10.407   1.657   0.142 -0.8286 -1.0992 -0.0697
  955MOL0     C31717  10.285   1.639   0.144 -0.4507  1.4575 -0.5637
  955MOL0     C31718  10.963   1.373   0.359 -0.0626 -0.2038  0.2310
  955MOL0     C31719  11.092   1.420   0.378 -0.0985 -0.0223  0.4269
  955MOL0     C31720  11.202   1.349   0.298  0.1448 -0.5986 -0.7413
  955MOL0     H31721  11.187   1.951   0.644  0.5009 -1.6175  2.9445
  955MOL0     H31722  11.342   2.107   0.721 -0.2875 -0.0460  0.1369
  955MOL0     H31723  11.554   2.283   0.814 -1.6940 -0.2524 -0.4008
  955MOL0     H31724  11.474   2.257   0.668 -0.5114 -0.1332  0.9993
  955MOL0     H31725  11.663   2.419   0.639 -2.4445 -0.9491 -1.2730
  955MOL0     H31726  11.778   2.299   0.702 -0.7232  0.4980  0.1602
  955MOL0     H31727  11.660   2.162   0.498 -0.6149 -1.1891 -0.0734
  955MOL0     H31728  11.640   2.329   0.439 -1.7842 -1.5036  0.7899
  955MOL0     H31729  11.903   2.357   0.471  0.7462 -0.5554 -0.1001
  955MOL0     H31730  11.909   2.199   0.530  1.0553  1.9603  1.2257
  955MOL0     H31731  11.785   2.238   0.247 -1.4111 -0.2983 -0.5935
  955MOL0     H31732  11.887   2.099   0.318  4.8320  1.7328  1.1970
  955MOL0     H31733  12.026   2.205   0.155 -1.8346  2.5199 -2.4095
  955MOL0     H31734  11.976   2.362   0.216  1.3331  0.4319  1.4075
  955MOL0     H31735  12.128   2.159   0.395  0.0725  0.6753  0.0124
  955MOL0     H31736  12.110   2.330   0.423  1.3276  0.8673 -0.7045
  955MOL0     H31737  12.286   2.195   0.223  2.1685  0.4341 -0.5402
  955MOL0     H31738  12.259   2.373   0.226 -0.6136 -0.7919 -0.6666
  955MOL0     H31739  12.269   2.420   0.534 -2.0649  0.2789 -1.7479
  955MOL0     H31740  12.576   2.338   0.754 -1.9537 -0.8044  0.6929
  955MOL0     H31741  12.423   2.424   0.761  1.4632 -0.2529  0.8288
  955MOL0     H31742  12.655   2.533   0.594 -2.1734  0.2540 -1.8428
  955MOL0     H31743  12.493   2.590   0.615  0.3868  0.7049 -1.1248
  955MOL0     H31744  12.533   2.632   0.861 -2.3234  1.2777 -1.5615
  955MOL0     H31745  12.691   2.543   0.843 -0.0872 -0.4452 -2.1789
  955MOL0     H31746  12.801   2.712   0.733 -0.0936 -1.2882 -1.7432
  955MOL0     H31747  12.655   2.801   0.689  1.4692  0.3614  0.4514
  955MOL0     H31748  12.750   2.998   0.687 -2.3594 -4.0746  1.1244
  955MOL0     H31749  12.854   3.317   0.698  3.4030  1.3888 -2.0069
  955MOL0     H31750  12.852   3.184   0.591 -0.3746  2.5934 -0.8776
  955MOL0     H31751  13.006   3.234   0.665 -0.2950  1.1020 -0.2203
  955MOL0     H31752  13.294   3.288   0.910  1.3018 -0.1577  0.7473
  955MOL0     H31753  13.514   3.404   0.936  1.7903  0.9347  0.9831
  955MOL0     H31754  13.700   3.464   1.031 -1.6003 -1.1547  0.9759
  955MOL0     H31755  13.671   3.630   0.967 -0.4826  0.0344  0.9061
  955MOL0     H31756  13.814   3.555   1.223 -1.0235 -3.4352 -0.7689
  955MOL0     H31757  13.883   3.593   1.065  0.4824 -0.5916  1.3260
  955MOL0     H31758  13.693   3.791   1.209 -0.6275  0.9937 -0.9275
  955MOL0     H31759  13.778   3.803   1.049 -0.3080 -0.5295 -0.7083
  955MOL0     H31760  13.993   3.780   1.185 -0.3197 -1.9731  1.6002
  955MOL0     H31761  13.909   3.776   1.327 -0.8994 -3.4595 -1.0975
  955MOL0     H31762  13.880   4.008   1.126  0.6902  2.1665  0.7248
  955MOL0     H31763  13.812   3.997   1.285  0.5984  2.6357  0.1064
  955MOL0     H31764  14.111   3.994   1.211 -1.0040 -4.6802  0.2641
  955MOL0     H31765  14.058   3.990   1.376  1.6195  1.2404 -1.1453
  955MOL0     H31766  14.065   4.220   1.191  0.6022  0.9857  1.5362
  955MOL0     H31767  14.096   4.197   1.352 -0.5327  0.3411  0.0855
  955MOL0     H31768  13.808   4.244   1.232 -1.7316  2.7105  0.5923
  955MOL0     H31769  13.887   4.355   1.330 -1.1375 -0.1819  2.0600
  955MOL0     H31770  13.371   3.550   1.306  3.3114 -1.2142 -1.1640
  955MOL0     H31771  13.143   3.444   1.272  2.0013 -1.0592  2.9088
  955MOL0     H31772  12.949   3.093   1.124  0.1596 -0.3428 -0.8492
  955MOL0     H31773  12.813   2.898   1.093  0.4438  2.6658  0.8740
  955MOL0     H31774  11.668   1.863   0.579  0.9858  1.7415 -1.2743
  955MOL0     H31775  11.518   1.712   0.495  2.1573  0.8145 -0.0955
  955MOL0     H31776  11.008   1.660   0.609 -3.3757 -1.0324  1.6996
  955MOL0     H31777  10.800   1.578   0.568 -1.3078 -2.0385  0.6546
  955MOL0     H31778  10.549   1.318   0.478 -0.6191  0.6949  2.5022
  955MOL0     H31779  10.615   1.485   0.515 -0.4237  0.5583 -0.3695
  955MOL0     H31780  10.449   1.514   0.360 -0.9724 -3.2105 -0.0911
  955MOL0     H31781  10.530   1.399   0.254  0.7055 -1.6664  1.3326
  955MOL0     H31782  10.616   1.682   0.357  0.7831 -1.1134  0.2254
  955MOL0     H31783  10.725   1.594   0.268 -0.3753  0.7167 -1.8946
  955MOL0     H31784  10.593   1.609   0.058 -2.6923  0.3843 -1.3033
  955MOL0     H31785  10.587   1.764   0.134 -0.8632  0.4096 -1.9753
  955MOL0     H31786  10.178   1.631   0.149 -0.3132 -1.3235 -0.0046
  955MOL0     H31787  10.934   1.300   0.284 -4.8877  0.7785  0.7522
  955MOL0     H31788  11.242   1.418   0.223 -2.5507 -1.1849 -2.8781
  955MOL0     H31789  11.279   1.301   0.360 -0.2715 -3.1656 -2.0413
  955MOL0     H31790  11.156   1.283   0.224  1.3053 -2.2846 -0.0520
  956MOL0     O31791  10.663   3.845   5.744  0.8244  0.7197  0.2930
  956MOL0     C31792  10.651   3.932   5.833  0.2432 -0.3443  0.0894
  956MOL0     O31793  10.754   3.984   5.899 -0.2901 -0.2370  0.4194
  956MOL0     C31794  10.858   3.901   5.921  0.5211 -0.0616  0.6864
  956MOL0     C31795  10.975   3.895   5.848 -0.0684  0.3389  0.1164
  956MOL0     C31796  11.076   3.805   5.870  0.0936 -0.0717 -0.1504
  956MOL0     C31797  11.070   3.723   5.976 -0.8576  0.7360  0.4333
  956MOL0     O31798  11.194   3.672   6.007 -0.6511  0.2056 -0.1281
  956MOL0     C31799  11.235   3.670   6.146 -0.7082 -0.6854  1.0662
  956MOL0     C31800  11.387   3.653   6.158 -0.4863  0.7879  0.3417
  956MOL0     C31801  11.425   3.656   6.298 -1.0676 -0.0449 -0.8517
  956MOL0     C31802  11.565   3.598   6.318  0.2634 -0.1114 -0.8608
  956MOL0     C31803  11.677   3.695   6.294 -0.4818  0.5506  0.1482
  956MOL0     C31804  11.806   3.641   6.360 -0.1322  0.1872  0.2597
  956MOL0     C31805  11.920   3.719   6.294 -0.0466  0.8274  0.1282
  956MOL0     C31806  12.059   3.659   6.328  0.5840 -0.0972 -0.7531
  956MOL0     N31807  12.101   3.699   6.464 -0.2232  0.3321  0.1893
  956MOL0     C31808  12.129   3.824   6.517 -0.5761  0.5161 -0.0485
  956MOL0     C31809  12.152   3.795   6.647  0.3508 -0.3964 -0.3046
  956MOL0     C31810  12.178   3.902   6.758 -0.0320 -0.3198 -0.3258
  956MOL0     C31811  12.335   3.921   6.771 -0.6134  0.7383  0.0532
  956MOL0     C31812  12.402   3.790   6.822 -0.1817 -0.4296 -0.4706
  956MOL0     C31813  12.547   3.808   6.804 -0.8439  0.3171  0.0743
  956MOL0     O31814  12.626   3.692   6.829 -0.6527  0.5288  0.2158
  956MOL0     C31815  12.739   3.662   6.748  0.4221  0.0101 -0.4237
  956MOL0     C31816  12.775   3.712   6.624 -0.1324  0.7023 -0.2470
  956MOL0     C31817  12.902   3.672   6.563 -0.7510  0.3700  0.2146
  956MOL0     C31818  12.926   3.731   6.431 -0.8035 -1.0491  1.1243
  956MOL0     C31819  12.987   3.582   6.630 -0.8721  0.4098  0.8237
  956MOL0     C31820  13.121   3.527   6.577  0.3353 -1.0301 -0.0940
  956MOL0     O31821  13.158   3.396   6.616 -0.3905  0.1392  0.2414
  956MOL0     C31822  13.258   3.334   6.536  0.3948 -0.2368  0.2608
  956MOL0     C31823  13.395   3.362   6.547  0.0867  0.1551  0.0546
  956MOL0     C31824  13.489   3.303   6.469  0.2790  0.0482 -0.7952
  956MOL0     C31825  13.445   3.203   6.377 -0.3742 -0.2759  0.3861
  956MOL0     O31826  13.541   3.137   6.294  0.3533 -0.0095 -0.2117
  956MOL0     C31827  13.519   2.996   6.277  0.0575 -0.1262 -0.5791
  956MOL0     C31828  13.523   2.918   6.412 -0.5740 -0.2818  0.6195
  956MOL0     C31829  13.648   2.934   6.495  0.6702 -0.8248  1.0362
  956MOL0     C31830  13.685   2.801   6.565  0.4580 -0.4383 -0.5998
  956MOL0     C31831  13.757   2.828   6.703  0.0897  0.0660  0.2812
  956MOL0     C31832  13.858   2.719   6.733 -0.2964 -0.3111  0.7774
  956MOL0     C31833  13.922   2.732   6.872 -0.2977 -0.5578  0.1575
  956MOL0     C31834  14.036   2.630   6.885  0.2415 -1.1013  0.0504
  956MOL0    Cl31835  13.960   2.467   6.940  0.4065 -0.2327 -0.4502
  956MOL0     C31836  13.310   3.164   6.361  0.0322 -0.5226 -0.5657
  956MOL0     C31837  13.217   3.231   6.446  0.1375 -0.0175 -0.2867
  956MOL0     O31838  13.191   3.609   6.515 -0.0592  0.1779 -0.6813
  956MOL0     C31839  12.941   3.527   6.750 -0.2156 -0.0740  0.0793
  956MOL0     C31840  12.821   3.564   6.809 -0.3608  0.0764  0.2195
  956MOL0     N31841  12.150   3.654   6.669 -0.0632 -0.7419  0.2208
  956MOL0     N31842  12.118   3.599   6.561 -0.0421  0.1090  1.5909
  956MOL0     C31843  10.956   3.718   6.052  1.5103  0.3589 -0.2772
  956MOL0     C31844  10.847   3.804   6.020 -0.7589 -0.0808  0.0450
  956MOL0     C31845  10.519   3.993   5.858  0.4607  0.4517  0.6487
  956MOL0     C31846  10.414   3.967   5.764 -0.4761 -0.5795 -0.5160
  956MOL0     C31847  10.285   4.016   5.798  0.5071 -0.4220 -0.5696
  956MOL0     C31848  10.256   4.098   5.900  0.3909  0.7831 -0.1575
  956MOL0     O31849  10.127   4.129   5.903 -0.3676  0.7704 -0.0701
  956MOL0     C31850  10.089   4.205   6.021 -0.1097  0.9768  0.7428
  956MOL0     C31851   9.937   4.228   6.006 -0.0222 -0.3391  0.7749
  956MOL0     C31852   9.906   4.295   5.863 -0.1423  0.6947  0.1200
  956MOL0     C31853   9.761   4.336   5.863  0.2497 -0.8124  1.1704
  956MOL0     C31854   9.737   4.433   5.752 -0.2174  0.5004 -0.3574
  956MOL0     C31855   9.715   4.506   5.655  0.2110  0.4911  0.1464
  956MOL0     C31856  10.354   4.145   5.983 -0.2840 -0.2155 -0.5179
  956MOL0     C31857  10.483   4.084   5.969 -0.4315 -0.2204 -0.3107
  956MOL0     C31858  10.584   4.123   6.078 -0.2227 -0.3846  0.0712
  956MOL0     H31859  10.991   3.967   5.768  0.4827  1.4366  1.1888
  956MOL0     H31860  11.159   3.801   5.800 -1.7099 -0.4526 -2.3856
  956MOL0     H31861  11.192   3.588   6.205 -2.4528 -2.9207 -2.9372
  956MOL0     H31862  11.214   3.770   6.185 -1.7014  0.7920 -2.8220
  956MOL0     H31863  11.424   3.564   6.107  0.2090  0.1808  1.8675
  956MOL0     H31864  11.435   3.736   6.106  0.2392 -0.1483 -0.5127
  956MOL0     H31865  11.430   3.758   6.337  0.8663  0.0968 -1.3836
  956MOL0     H31866  11.352   3.602   6.358 -0.3231  1.2462  1.3564
  956MOL0     H31867  11.589   3.564   6.419  1.9126 -2.8926 -2.0591
  956MOL0     H31868  11.578   3.509   6.255  1.7962  0.6591 -1.6937
  956MOL0     H31869  11.666   3.794   6.340 -1.3596  0.6533 -0.2576
  956MOL0     H31870  11.681   3.706   6.185 -0.9741 -0.9430 -0.0389
  956MOL0     H31871  11.812   3.653   6.469  0.8984  0.0220  0.2308
  956MOL0     H31872  11.828   3.539   6.327 -1.1898 -0.0991  0.4247
  956MOL0     H31873  11.914   3.827   6.309 -0.1595  1.1767 -2.1414
  956MOL0     H31874  11.925   3.715   6.185  0.7063 -2.7123  0.1485
  956MOL0     H31875  12.062   3.550   6.324  3.8625 -0.1975  1.1004
  956MOL0     H31876  12.137   3.697   6.261  0.3387  0.7253 -0.5924
  956MOL0     H31877  12.133   3.921   6.469  0.3182  1.2578  1.4679
  956MOL0     H31878  12.136   3.860   6.850  0.8173 -1.5607 -0.4706
  956MOL0     H31879  12.131   3.999   6.742 -2.7007 -1.0108  2.3997
  956MOL0     H31880  12.371   3.945   6.671  1.6025 -0.2603  0.5407
  956MOL0     H31881  12.357   4.001   6.843 -1.3813  0.1899  0.9218
  956MOL0     H31882  12.374   3.770   6.926 -1.4164  0.2203 -0.6623
  956MOL0     H31883  12.368   3.701   6.769 -0.7050 -1.4899  1.5562
  956MOL0     H31884  12.554   3.830   6.697 -1.4349  1.0418  0.1758
  956MOL0     H31885  12.588   3.883   6.873 -0.6317 -1.1088  1.5468
  956MOL0     H31886  12.705   3.777   6.572  0.7128  1.6894 -0.1750
  956MOL0     H31887  13.012   3.799   6.428  0.4457 -2.5994 -0.5969
  956MOL0     H31888  12.839   3.789   6.397  1.1524  0.4337 -1.7889
  956MOL0     H31889  12.959   3.660   6.355  1.1361 -0.5264  1.4172
  956MOL0     H31890  13.423   3.452   6.602  0.3799  0.1128 -0.0253
  956MOL0     H31891  13.593   3.334   6.477  0.5320 -0.8166 -0.5361
  956MOL0     H31892  13.424   2.983   6.225 -1.4868 -2.0255  2.4346
  956MOL0     H31893  13.598   2.976   6.204 -0.0098  2.8234 -1.5904
  956MOL0     H31894  13.434   2.942   6.470 -0.9960 -0.6137  0.1173
  956MOL0     H31895  13.504   2.812   6.389  3.1469 -0.8431 -0.5053
  956MOL0     H31896  13.635   3.023   6.558  2.2563 -0.9547  1.6064
  956MOL0     H31897  13.727   2.954   6.421  0.2053  0.4643  0.8584
  956MOL0     H31898  13.745   2.745   6.493 -1.0390 -2.3730 -0.4124
  956MOL0     H31899  13.593   2.747   6.587 -1.2807  2.2928 -0.6936
  956MOL0     H31900  13.805   2.926   6.701 -2.8071  1.6915  2.8940
  956MOL0     H31901  13.679   2.830   6.780  0.7198 -1.5105  1.0157
  956MOL0     H31902  13.934   2.713   6.654  0.2299 -0.5864  1.3012
  956MOL0     H31903  13.799   2.626   6.729 -2.5456  1.0585 -0.4017
  956MOL0     H31904  13.847   2.708   6.949  0.6024 -0.8589  0.9569
  956MOL0     H31905  13.970   2.828   6.893  0.8044 -0.6677 -1.6560
  956MOL0     H31906  14.103   2.667   6.964  0.4073  1.1423 -1.0816
  956MOL0     H31907  14.090   2.624   6.790 -0.3040  0.9408 -0.4373
  956MOL0     H31908  13.273   3.087   6.294  0.2102 -0.3746 -0.8367
  956MOL0     H31909  13.115   3.197   6.435  0.7638 -1.9544 -0.5819
  956MOL0     H31910  13.003   3.453   6.799 -1.4339 -1.8648 -0.9302
  956MOL0     H31911  12.790   3.519   6.903 -1.5798  0.8185  0.1941
  956MOL0     H31912  10.939   3.642   6.127  1.8670  1.3978  0.8783
  956MOL0     H31913  10.759   3.785   6.080 -2.4915  4.0445 -0.8758
  956MOL0     H31914  10.433   3.911   5.673 -0.0705 -0.7029 -0.3597
  956MOL0     H31915  10.204   3.985   5.732 -1.2955 -0.6816  1.6309
  956MOL0     H31916  10.115   4.163   6.118 -3.2905  1.0887  1.7499
  956MOL0     H31917  10.132   4.306   6.014  2.8865  0.0356  3.3035
  956MOL0     H31918   9.905   4.299   6.082  1.8808  1.7970 -0.3113
  956MOL0     H31919   9.890   4.129   6.009 -0.8977 -0.0482 -1.2460
  956MOL0     H31920   9.972   4.382   5.851 -0.1904  1.0602  2.1656
  956MOL0     H31921   9.924   4.223   5.782  0.0357 -0.3468  1.0486
  956MOL0     H31922   9.735   4.386   5.957  0.2673 -0.6460  1.0881
  956MOL0     H31923   9.700   4.249   5.838  0.3892 -0.5171 -0.3394
  956MOL0     H31924   9.691   4.563   5.567 -0.0563  2.1159  1.2305
  956MOL0     H31925  10.339   4.221   6.059  2.2317  1.5509 -1.6757
  956MOL0     H31926  10.667   4.167   6.021 -2.1948  0.3076 -2.4435
  956MOL0     H31927  10.540   4.204   6.138 -0.3500  0.8892 -1.6492
  956MOL0     H31928  10.617   4.047   6.149 -0.6210 -0.1454  0.5219
  957MOL0     O31929   4.685   4.921   8.409  0.3197 -0.3316  0.1361
  957MOL0     C31930   4.569   4.958   8.430  0.8768  0.5659  0.2743
  957MOL0     O31931   4.504   5.061   8.371 -0.4691  0.0022 -0.2240
  957MOL0     C31932   4.585   5.160   8.335 -0.2158 -0.1477 -1.0344
  957MOL0     C31933   4.578   5.263   8.425 -0.4829  0.2586 -0.5001
  957MOL0     C31934   4.661   5.369   8.417 -0.8322  0.8703  0.2828
  957MOL0     C31935   4.768   5.377   8.319  0.3697 -0.3665  0.1709
  957MOL0     O31936   4.855   5.487   8.305  0.5622  0.0726  0.2461
  957MOL0     C31937   4.859   5.574   8.417  0.0456 -0.5077 -0.7057
  957MOL0     C31938   4.979   5.670   8.402 -0.3857  0.1091  0.5136
  957MOL0     C31939   5.106   5.592   8.423 -0.5535 -0.3010 -0.3198
  957MOL0     C31940   5.243   5.677   8.412 -0.0453 -0.4239 -0.5524
  957MOL0     C31941   5.241   5.763   8.542 -0.3616 -0.3317  0.0321
  957MOL0     C31942   5.377   5.839   8.564 -0.6370 -0.3725  0.2830
  957MOL0     C31943   5.385   5.959   8.474  0.7100 -0.6821  0.5091
  957MOL0     C31944   5.461   6.081   8.547  0.5513  0.0688  0.3277
  957MOL0     N31945   5.604   6.039   8.575  0.3950 -0.3843 -0.0271
  957MOL0     C31946   5.688   6.011   8.476 -0.5792  0.4759  0.0243
  957MOL0     C31947   5.798   5.968   8.543  0.8303  0.6484 -1.3523
  957MOL0     C31948   5.919   5.930   8.474  0.2899  0.8580  0.2380
  957MOL0     C31949   6.046   6.009   8.502 -0.3669 -0.3606 -0.0943
  957MOL0     C31950   6.105   5.964   8.638 -0.7418  0.5507 -0.0285
  957MOL0     C31951   6.220   6.052   8.697  0.6555 -0.1613  0.3739
  957MOL0     O31952   6.315   6.060   8.589 -0.5777  0.1973 -0.3264
  957MOL0     C31953   6.445   6.063   8.617 -0.3948 -0.4008  0.3040
  957MOL0     C31954   6.497   6.087   8.748  0.2239  0.4226  0.1739
  957MOL0     C31955   6.633   6.079   8.767 -0.5952  0.4880  0.7759
  957MOL0     C31956   6.676   6.089   8.912 -0.8699  0.3792 -0.1188
  957MOL0     C31957   6.724   6.077   8.653 -1.1404  0.3686 -0.3456
  957MOL0     C31958   6.871   6.083   8.663  0.3862 -0.7949  0.2602
  957MOL0     O31959   6.934   6.076   8.778  0.2433  0.0615 -0.3495
  957MOL0     C31960   7.063   6.093   8.780 -0.5991 -0.3401 -0.3644
  957MOL0     C31961   7.158   5.999   8.743 -0.4132  0.4477  1.1215
  957MOL0     C31962   7.292   6.025   8.762 -0.5221 -0.5509 -0.5438
  957MOL0     C31963   7.332   6.151   8.821  0.0035  0.8590  0.1174
  957MOL0     O31964   7.464   6.181   8.834  0.0403 -0.3808 -0.0877
  957MOL0     C31965   7.510   6.209   8.969  0.9605  0.3775  0.5713
  957MOL0     C31966   7.659   6.191   8.964  0.5598 -0.2615 -0.0421
  957MOL0     C31967   7.729   6.237   9.090 -0.3557  0.0804  0.4178
  957MOL0     C31968   7.881   6.204   9.100 -0.2878 -0.4463  0.8810
  957MOL0     C31969   7.936   6.254   9.233  0.2738  0.6083 -0.8791
  957MOL0     C31970   8.070   6.204   9.268 -0.3230  0.7053 -0.1351
  957MOL0     C31971   8.105   6.208   9.417 -0.0992 -0.5659  0.4887
  957MOL0     C31972   8.258   6.180   9.441  0.0349 -0.3137  0.2813
  957MOL0    Cl31973   8.333   6.352   9.451  0.0914  0.0276  0.0832
  957MOL0     C31974   7.237   6.241   8.855  0.0241 -0.1534 -0.5673
  957MOL0     C31975   7.106   6.216   8.833 -0.6106 -0.6480  0.4918
  957MOL0     O31976   6.928   6.107   8.549 -0.4425 -0.2138 -0.2426
  957MOL0     C31977   6.660   6.080   8.529 -1.6964  0.5318  0.6007
  957MOL0     C31978   6.528   6.070   8.509  0.1821  0.5039 -0.3761
  957MOL0     N31979   5.775   5.967   8.678 -0.4950 -0.0861  0.8947
  957MOL0     N31980   5.656   6.007   8.697  0.2967  0.9239  0.1913
  957MOL0     C31981   4.761   5.271   8.218  0.7793  0.0914 -0.0003
  957MOL0     C31982   4.669   5.164   8.224  0.1333  0.2096  0.3492
  957MOL0     C31983   4.491   4.857   8.515 -0.4939  0.4370  0.6868
  957MOL0     C31984   4.572   4.761   8.585  0.6140  0.7323 -0.3078
  957MOL0     C31985   4.516   4.656   8.652  0.4576  0.7477 -1.0338
  957MOL0     C31986   4.380   4.648   8.666  0.4395  0.8164  0.3726
  957MOL0     O31987   4.328   4.548   8.741  0.2394  0.5254  0.3493
  957MOL0     C31988   4.184   4.513   8.733 -0.6436  0.0600  0.3489
  957MOL0     C31989   4.167   4.383   8.800  0.0140  0.9061 -0.5921
  957MOL0     C31990   4.023   4.366   8.846 -0.3774  0.1692 -0.3854
  957MOL0     C31991   4.005   4.251   8.949  0.5521  0.5576 -0.1713
  957MOL0     C31992   3.877   4.185   8.945  0.4954 -0.3952  1.2299
  957MOL0     C31993   3.766   4.126   8.940 -0.6970 -0.9396 -0.1203
  957MOL0     C31994   4.298   4.731   8.587  0.1989 -0.5758 -0.0637
  957MOL0     C31995   4.352   4.837   8.515  0.4437  0.3590  0.4156
  957MOL0     C31996   4.261   4.920   8.420 -1.3345 -0.1346  0.6223
  957MOL0     H31997   4.499   5.259   8.500  0.0023 -1.1333 -0.0267
  957MOL0     H31998   4.646   5.447   8.491 -0.9305  1.9203 -0.8142
  957MOL0     H31999   4.853   5.524   8.514 -1.9031  3.6072  1.5774
  957MOL0     H32000   4.771   5.639   8.418  0.1799 -0.3207  0.6356
  957MOL0     H32001   4.978   5.722   8.305  0.0353 -0.2609  0.3078
  957MOL0     H32002   4.975   5.749   8.478 -0.0587  1.0904 -0.4614
  957MOL0     H32003   5.110   5.547   8.523  0.7081  0.6567  0.0930
  957MOL0     H32004   5.115   5.534   8.331 -0.0429  1.5354 -1.4872
  957MOL0     H32005   5.332   5.614   8.410 -0.7510 -1.4507 -0.6908
  957MOL0     H32006   5.241   5.742   8.324  2.4081 -0.0794 -0.4152
  957MOL0     H32007   5.224   5.703   8.631 -1.7248  0.8106  0.5779
  957MOL0     H32008   5.159   5.836   8.546  0.5296  0.6645  1.4381
  957MOL0     H32009   5.386   5.874   8.668  1.1728  0.4370 -0.0983
  957MOL0     H32010   5.460   5.768   8.563 -1.6373 -1.5791  0.7168
  957MOL0     H32011   5.283   5.987   8.448 -1.1377 -5.3408  1.7186
  957MOL0     H32012   5.442   5.935   8.384 -2.1091  0.7258 -1.7999
  957MOL0     H32013   5.462   6.163   8.476 -1.6615 -0.4762 -0.4277
  957MOL0     H32014   5.387   6.104   8.624 -3.2520 -3.3692 -1.8924
  957MOL0     H32015   5.664   6.026   8.371  1.1683  1.0574 -0.3259
  957MOL0     H32016   5.897   5.930   8.367  0.7137  1.7077  0.1384
  957MOL0     H32017   5.941   5.826   8.501 -0.7858  0.6074  0.1745
  957MOL0     H32018   6.103   5.987   8.412 -2.4613  1.6286 -2.0289
  957MOL0     H32019   6.024   6.115   8.511 -0.5632 -0.5478  2.6893
  957MOL0     H32020   6.023   5.964   8.710  1.1017 -0.7152  2.2240
  957MOL0     H32021   6.144   5.864   8.617  0.4188  0.7392  1.0681
  957MOL0     H32022   6.181   6.149   8.729 -0.1123  0.6548 -2.7406
  957MOL0     H32023   6.259   5.992   8.780 -1.0455 -0.2349  1.1631
  957MOL0     H32024   6.436   6.104   8.836  1.9524  2.5163  1.0433
  957MOL0     H32025   6.747   6.011   8.943 -1.7316  0.0871  1.1932
  957MOL0     H32026   6.585   6.064   8.969 -0.5051  0.3300  0.4566
  957MOL0     H32027   6.714   6.185   8.949  1.3306 -1.3049  2.4289
  957MOL0     H32028   7.125   5.900   8.713 -1.1586  1.0855 -0.2286
  957MOL0     H32029   7.365   5.952   8.727 -0.8098 -1.1260  0.0451
  957MOL0     H32030   7.476   6.309   8.996 -0.7050  0.3589 -1.1807
  957MOL0     H32031   7.457   6.146   9.041 -0.6005  0.7976 -0.1438
  957MOL0     H32032   7.671   6.084   8.946 -1.6736 -0.6096  0.1432
  957MOL0     H32033   7.694   6.238   8.872 -1.0484  0.0396 -0.5384
  957MOL0     H32034   7.685   6.189   9.177 -1.0543  0.1638  0.1153
  957MOL0     H32035   7.714   6.344   9.106  0.8496  0.1276  1.3955
  957MOL0     H32036   7.933   6.267   9.028 -1.1273 -0.1845  0.4889
  957MOL0     H32037   7.899   6.096   9.090  0.1578 -0.3166  0.2071
  957MOL0     H32038   7.928   6.363   9.244 -1.6639  0.4301 -0.1223
  957MOL0     H32039   7.878   6.204   9.311  5.3659  0.2084  3.1710
  957MOL0     H32040   8.145   6.266   9.218 -1.9289  0.3909 -3.1023
  957MOL0     H32041   8.089   6.107   9.222 -0.0422  1.3677 -1.4719
  957MOL0     H32042   8.041   6.138   9.470  0.5942 -2.1492 -0.6805
  957MOL0     H32043   8.087   6.309   9.453 -0.7186 -0.7398  0.6696
  957MOL0     H32044   8.312   6.127   9.363  0.4767 -0.1255  0.4557
  957MOL0     H32045   8.280   6.133   9.538 -0.8005 -1.2876  0.0081
  957MOL0     H32046   7.261   6.335   8.903  1.5088 -0.3427 -0.8990
  957MOL0     H32047   7.041   6.298   8.861  0.7401  1.6497 -2.5527
  957MOL0     H32048   6.720   6.097   8.440  1.6385 -0.8308  2.4135
  957MOL0     H32049   6.497   6.045   8.408  1.4369 -0.1818 -0.6037
  957MOL0     H32050   4.836   5.271   8.140  0.4642 -1.6973 -0.3507
  957MOL0     H32051   4.685   5.080   8.157  1.6650  1.6755 -1.2210
  957MOL0     H32052   4.681   4.759   8.577  0.5977  0.5409 -0.5013
  957MOL0     H32053   4.572   4.595   8.723 -0.2260  0.2818 -0.8864
  957MOL0     H32054   4.129   4.588   8.792 -1.2849  0.6467 -0.9658
  957MOL0     H32055   4.155   4.516   8.628  0.9715 -3.8344 -0.3760
  957MOL0     H32056   4.233   4.370   8.886 -0.9233  1.9978  0.3262
  957MOL0     H32057   4.184   4.304   8.727 -1.6301  0.7621 -0.8535
  957MOL0     H32058   3.980   4.459   8.885  1.2320  1.2406 -1.0674
  957MOL0     H32059   3.972   4.333   8.755 -1.8046 -0.6314  0.6664
  957MOL0     H32060   4.027   4.294   9.047  3.6917  0.0226 -0.5165
  957MOL0     H32061   4.080   4.174   8.926  0.4694  0.5450 -0.4087
  957MOL0     H32062   3.675   4.069   8.943  0.4813 -2.9146  3.4672
  957MOL0     H32063   4.189   4.733   8.591  0.1714  2.0207 -0.2939
  957MOL0     H32064   4.300   4.904   8.319 -1.7878 -2.1526  0.7218
  957MOL0     H32065   4.157   4.886   8.425 -1.4367  0.1480  0.4343
  957MOL0     H32066   4.249   5.025   8.445  0.8857 -0.0399  1.4525
  958MOL0     O32067   7.104  10.080   4.892  0.1649 -0.0866  0.1148
  958MOL0     C32068   7.059  10.037   4.786  0.2540 -1.0166  0.1530
  958MOL0     O32069   7.138   9.982   4.685 -0.1570  0.0537 -0.3157
  958MOL0     C32070   7.271   9.973   4.699  0.3095 -0.3583 -0.2500
  958MOL0     C32071   7.338   9.856   4.743  0.3164  0.4391  0.1086
  958MOL0     C32072   7.477   9.848   4.747  0.6596  0.8532  0.4547
  958MOL0     C32073   7.551   9.956   4.723 -0.2128  0.4072 -0.7167
  958MOL0     O32074   7.691   9.933   4.734 -0.2344 -0.7266 -0.6786
  958MOL0     C32075   7.762  10.053   4.767  0.7136 -0.2625  0.4282
  958MOL0     C32076   7.907  10.017   4.779 -0.2000  0.4361  0.8020
  958MOL0     C32077   7.988  10.148   4.792  0.0521 -0.2002  0.0541
  958MOL0     C32078   8.131  10.118   4.822 -0.0744  0.1419  0.0825
  958MOL0     C32079   8.226  10.239   4.828  0.7877 -0.1247  0.0901
  958MOL0     C32080   8.368  10.182   4.829 -0.3170 -0.7044  0.2520
  958MOL0     C32081   8.470  10.289   4.882  0.4385  0.8265  0.0998
  958MOL0     C32082   8.466  10.312   5.034  0.1315  0.9797  0.2392
  958MOL0     N32083   8.566  10.411   5.076  0.3613  0.3689  0.3471
  958MOL0     C32084   8.524  10.532   5.107 -0.2841 -0.3389  0.8621
  958MOL0     C32085   8.634  10.596   5.147 -0.1541  0.6948 -0.5552
  958MOL0     C32086   8.623  10.736   5.196  0.0824 -0.3909 -0.2662
  958MOL0     C32087   8.749  10.819   5.178  0.1252 -0.3072 -0.5092
  958MOL0     C32088   8.770  10.850   5.033 -0.6839  0.2835 -0.0487
  958MOL0     C32089   8.898  10.930   5.008 -0.2057 -0.9560 -0.1854
  958MOL0     O32090   8.890  11.054   5.087  0.9577  0.0762  0.1117
  958MOL0     C32091   8.991  11.144   5.093  0.8746 -0.7430 -0.3291
  958MOL0     C32092   9.124  11.135   5.044 -0.0739  0.5003 -0.3399
  958MOL0     C32093   9.224  11.236   5.068  0.3900  0.4590  0.2515
  958MOL0     C32094   9.363  11.207   5.025  0.1008 -0.4109  1.0778
  958MOL0     C32095   9.189  11.347   5.148  0.3395 -0.2900  0.2158
  958MOL0     C32096   9.280  11.460   5.165 -0.6025  1.0174  0.4951
  958MOL0     O32097   9.287  11.518   5.290  0.0884 -0.7897 -0.3214
  958MOL0     C32098   9.392  11.612   5.304 -0.4499 -0.3214 -0.0709
  958MOL0     C32099   9.384  11.740   5.260  0.2020  0.0806 -0.2464
  958MOL0     C32100   9.487  11.828   5.263  0.0828  0.7239  0.0925
  958MOL0     C32101   9.607  11.794   5.323  0.0599 -0.6077 -0.0469
  958MOL0     O32102   9.712  11.880   5.333  0.4877  0.1217 -0.8124
  958MOL0     C32103   9.751  11.956   5.219 -0.6239  0.0778  0.2334
  958MOL0     C32104   9.895  11.912   5.192 -0.2534  1.4962  0.8388
  958MOL0     C32105   9.934  11.971   5.050  0.8790 -0.3932  0.4380
  958MOL0     C32106  10.081  11.981   5.025  0.0807 -0.4629 -0.1279
  958MOL0     C32107  10.153  12.087   5.115  0.6300  0.2962 -0.9065
  958MOL0     C32108  10.305  12.093   5.104 -0.0961 -0.4347  0.0987
  958MOL0     C32109  10.338  12.161   4.975  0.2311  0.1730  0.6469
  958MOL0     C32110  10.488  12.150   4.938  0.6788 -0.6614  0.3541
  958MOL0    Cl32111  10.600  12.227   5.062  0.0987  0.2968  0.0787
  958MOL0     C32112   9.620  11.668   5.375 -0.0974 -0.5574  1.0704
  958MOL0     C32113   9.519  11.575   5.364  0.2332  0.0520 -0.1796
  958MOL0     O32114   9.337  11.504   5.061  0.4437  0.4115  0.4548
  958MOL0     C32115   9.057  11.348   5.207 -0.2428 -0.2095  0.3515
  958MOL0     C32116   8.963  11.254   5.177  0.0979  0.3681 -0.7834
  958MOL0     N32117   8.738  10.508   5.137 -0.3065 -0.5284 -0.2481
  958MOL0     N32118   8.696  10.395   5.088 -0.2618 -0.5105 -0.3902
  958MOL0     C32119   7.488  10.081   4.677 -0.5049 -0.9264 -1.4739
  958MOL0     C32120   7.349  10.085   4.662  0.1570  0.3654  0.4545
  958MOL0     C32121   6.910  10.046   4.775  0.9353  0.0316 -0.2064
  958MOL0     C32122   6.842   9.970   4.674  0.6334 -0.4805  0.6277
  958MOL0     C32123   6.706   9.972   4.667  0.0155 -0.1193 -0.1091
  958MOL0     C32124   6.625  10.032   4.762  0.1886 -0.5852  0.4019
  958MOL0     O32125   6.489  10.020   4.780  0.3863  0.6498 -0.3772
  958MOL0     C32126   6.420   9.954   4.670  0.6406  0.0517  0.3072
  958MOL0     C32127   6.267   9.953   4.699 -0.0728 -0.0826 -0.2297
  958MOL0     C32128   6.229   9.874   4.829  0.6053  0.2348 -0.1291
  958MOL0     C32129   6.079   9.828   4.834  0.6814 -0.3235 -0.2709
  958MOL0     C32130   5.985   9.946   4.808 -0.1295 -0.4685 -0.2695
  958MOL0     C32131   5.918  10.045   4.802  0.5234 -0.2075  0.0245
  958MOL0     C32132   6.691  10.111   4.855  1.1080  0.2216 -1.7137
  958MOL0     C32133   6.825  10.125   4.853  0.1875 -0.1524  0.8079
  958MOL0     C32134   6.880  10.235   4.951 -0.2372 -0.1097 -0.2886
  958MOL0     H32135   7.270   9.774   4.763 -0.1435 -0.0195 -2.8312
  958MOL0     H32136   7.524   9.752   4.767 -1.1359 -0.1351  0.1009
  958MOL0     H32137   7.731  10.095   4.863 -1.1653 -0.4997 -0.0378
  958MOL0     H32138   7.739  10.124   4.687 -0.8511 -0.0223  1.0520
  958MOL0     H32139   7.936   9.952   4.862  0.4895  0.0968  0.3048
  958MOL0     H32140   7.931   9.961   4.688 -2.6568  0.4005  0.1227
  958MOL0     H32141   7.979  10.181   4.688 -0.5120 -1.5195 -0.3398
  958MOL0     H32142   7.946  10.217   4.865  0.3328 -2.7939  2.8496
  958MOL0     H32143   8.147  10.059   4.913  2.0689 -0.3068 -0.5181
  958MOL0     H32144   8.170  10.048   4.748 -0.2951  0.7487 -0.6233
  958MOL0     H32145   8.207  10.288   4.924 -1.0073  0.5313 -0.5499
  958MOL0     H32146   8.204  10.309   4.746  0.3345 -0.1099  0.2195
  958MOL0     H32147   8.393  10.088   4.880  1.3915  0.3030  1.3689
  958MOL0     H32148   8.394  10.155   4.726 -1.9530 -0.6849 -0.1992
  958MOL0     H32149   8.455  10.376   4.818 -0.7865 -1.2726 -2.6587
  958MOL0     H32150   8.566  10.247   4.850  0.4197  1.8536 -1.3498
  958MOL0     H32151   8.366  10.349   5.060 -1.5629 -0.7699 -3.1448
  958MOL0     H32152   8.494  10.220   5.087  1.8236  0.8961 -0.7444
  958MOL0     H32153   8.429  10.576   5.080 -1.4552 -2.6214  1.0435
  958MOL0     H32154   8.602  10.743   5.303 -0.2815  2.8344 -0.4321
  958MOL0     H32155   8.547  10.792   5.140  2.2858  2.6511 -0.4896
  958MOL0     H32156   8.742  10.910   5.238 -1.6474 -1.6636  1.5117
  958MOL0     H32157   8.829  10.758   5.221 -2.1172 -3.6622 -0.7070
  958MOL0     H32158   8.769  10.754   4.980  0.8086 -1.0677  2.2089
  958MOL0     H32159   8.686  10.904   4.988 -0.2567  0.5125 -0.5792
  958MOL0     H32160   8.988  10.871   5.031  1.5513  0.9444 -1.8097
  958MOL0     H32161   8.908  10.953   4.901 -4.4044 -1.7651 -0.9295
  958MOL0     H32162   9.153  11.051   4.981  0.3138  1.2460 -1.1938
  958MOL0     H32163   9.433  11.196   5.108 -0.2523 -2.8237  1.1274
  958MOL0     H32164   9.416  11.274   4.957  0.5469 -0.1810  1.6405
  958MOL0     H32165   9.346  11.107   4.984  1.3382 -0.9752  1.9023
  958MOL0     H32166   9.293  11.771   5.209 -0.3358 -0.6749  0.2408
  958MOL0     H32167   9.459  11.924   5.223 -0.6031  0.1232 -0.9103
  958MOL0     H32168   9.688  11.949   5.129 -1.4636  2.8598  0.4984
  958MOL0     H32169   9.752  12.064   5.239 -0.9834  0.3418 -1.0530
  958MOL0     H32170   9.962  11.952   5.269  2.4618  1.1919 -1.2051
  958MOL0     H32171   9.898  11.803   5.187  1.4770  1.5554 -0.2831
  958MOL0     H32172   9.878  12.060   5.023 -1.8755 -1.3012  2.6403
  958MOL0     H32173   9.896  11.894   4.983 -0.5942 -2.9268  3.8554
  958MOL0     H32174  10.092  12.012   4.921 -2.5610 -0.1837 -0.3936
  958MOL0     H32175  10.131  11.885   5.032  2.0784  0.5963  1.3263
  958MOL0     H32176  10.108  12.186   5.098 -0.3714  0.3906  1.7537
  958MOL0     H32177  10.135  12.062   5.220 -0.1340 -1.5946 -1.4554
  958MOL0     H32178  10.357  11.999   5.124  0.9211  0.6416  2.8880
  958MOL0     H32179  10.345  12.167   5.173 -0.5761  0.2959 -0.3925
  958MOL0     H32180  10.309  12.266   4.961  0.8246  0.1028 -1.4285
  958MOL0     H32181  10.284  12.105   4.899  2.1962 -0.7155 -0.1732
  958MOL0     H32182  10.507  12.205   4.845  0.5238  2.4411  2.0318
  958MOL0     H32183  10.507  12.044   4.922  2.7797 -0.1804 -0.7041
  958MOL0     H32184   9.709  11.637   5.428  0.4982 -1.3275 -0.3243
  958MOL0     H32185   9.531  11.480   5.413  1.7057 -0.2316 -1.0403
  958MOL0     H32186   9.035  11.437   5.267  0.7376 -0.1380  0.6306
  958MOL0     H32187   8.862  11.262   5.217  1.3362 -1.0609  3.0530
  958MOL0     H32188   7.540  10.173   4.653 -1.8860 -0.2667 -1.9850
  958MOL0     H32189   7.309  10.172   4.610 -0.7109  1.0512  2.1839
  958MOL0     H32190   6.882   9.904   4.598  0.0669  0.7478 -0.7871
  958MOL0     H32191   6.660   9.907   4.593 -1.3334 -0.8747  1.3466
  958MOL0     H32192   6.455  10.000   4.576  2.0777 -1.6498 -0.0386
  958MOL0     H32193   6.450   9.850   4.661  1.5381  0.4117 -1.3077
  958MOL0     H32194   6.209   9.909   4.618 -1.8971  0.1816  0.8731
  958MOL0     H32195   6.237  10.058   4.709 -2.1949 -0.7460  0.8252
  958MOL0     H32196   6.295   9.787   4.835 -0.6814 -0.8230 -0.7232
  958MOL0     H32197   6.270   9.935   4.911  1.6461  0.0378 -0.4809
  958MOL0     H32198   6.061   9.794   4.937 -0.0305  5.0306  1.6576
  958MOL0     H32199   6.058   9.753   4.757  0.6636  0.0906 -0.6707
  958MOL0     H32200   5.856  10.132   4.788  0.7602  0.0203  0.3964
  958MOL0     H32201   6.634  10.159   4.934  4.7144  0.2317  1.2022
  958MOL0     H32202   6.923  10.186   5.039  1.2980  1.2950 -0.1955
  958MOL0     H32203   6.953  10.292   4.893 -2.2365  1.5431 -1.2981
  958MOL0     H32204   6.794  10.294   4.984 -0.1217  0.0838 -0.3321
  959MOL0     O32205  11.370  10.991   5.457 -0.2414  0.1315 -0.1266
  959MOL0     C32206  11.372  11.037   5.341  0.4647  0.5767  0.6007
  959MOL0     O32207  11.488  11.070   5.267  1.4790 -0.3857 -0.4334
  959MOL0     C32208  11.593  11.102   5.344 -0.0018  0.1295 -0.1672
  959MOL0     C32209  11.600  11.201   5.447  0.4828  0.2445 -0.6257
  959MOL0     C32210  11.719  11.223   5.516  0.8488 -0.0167  0.1825
  959MOL0     C32211  11.832  11.149   5.490  0.9795 -0.1145  0.3898
  959MOL0     O32212  11.936  11.186   5.564 -0.5340  0.4888 -0.3008
  959MOL0     C32213  12.060  11.118   5.529  0.3481  0.0906  0.2128
  959MOL0     C32214  12.180  11.171   5.606  0.8931 -0.0535  0.1872
  959MOL0     C32215  12.201  11.092   5.731  0.3586  0.3630 -0.5188
  959MOL0     C32216  12.313  11.174   5.810  0.0150  0.8674  0.0374
  959MOL0     C32217  12.348  11.108   5.944 -1.0352 -0.1680  0.1607
  959MOL0     C32218  12.460  11.191   6.016  0.9052 -0.5410  0.3917
  959MOL0     C32219  12.493  11.127   6.146 -0.4096 -0.0599  0.4647
  959MOL0     C32220  12.568  11.218   6.236 -0.6179  0.0224  0.2160
  959MOL0     N32221  12.659  11.140   6.319 -0.4165 -0.6483 -0.0816
  959MOL0     C32222  12.797  11.154   6.337  0.0826 -0.5192 -0.6843
  959MOL0     C32223  12.834  11.064   6.428  0.8539  0.5441 -0.1199
  959MOL0     C32224  12.977  11.048   6.484 -0.1831  0.1433  0.0041
  959MOL0     C32225  13.067  10.993   6.378 -0.3605  0.4867  0.8165
  959MOL0     C32226  13.043  10.845   6.336 -0.2747 -0.3512 -0.3926
  959MOL0     C32227  13.069  10.747   6.455  0.1534  0.3244  0.1800
  959MOL0     O32228  13.197  10.757   6.510 -0.5677  0.2331 -0.2300
  959MOL0     C32229  13.291  10.711   6.427  0.5003  0.7813  0.3566
  959MOL0     C32230  13.285  10.579   6.373  0.1094  0.5552  0.9310
  959MOL0     C32231  13.388  10.522   6.293 -0.1335  0.0026  0.3102
  959MOL0     C32232  13.376  10.381   6.259 -0.3591  0.6805  0.3920
  959MOL0     C32233  13.496  10.611   6.265 -0.1992 -1.0257 -0.1646
  959MOL0     C32234  13.614  10.563   6.190 -0.1449  0.1741 -0.8883
  959MOL0     O32235  13.727  10.630   6.216 -0.0429 -0.2551 -0.0190
  959MOL0     C32236  13.854  10.587   6.183 -0.3379 -0.5437 -0.5543
  959MOL0     C32237  13.899  10.457   6.145  0.3950 -0.1976  0.4752
  959MOL0     C32238  14.030  10.437   6.112 -0.0515  0.2360  0.1315
  959MOL0     C32239  14.127  10.532   6.131 -0.0596 -0.4769 -0.8784
  959MOL0     O32240  14.266  10.518   6.110  0.2071 -0.2401 -0.2465
  959MOL0     C32241  14.297  10.447   5.994 -0.4361  0.2852  0.5989
  959MOL0     C32242  14.305  10.296   6.005  0.1197  0.5996 -0.0789
  959MOL0     C32243  14.279  10.234   5.867  0.1937 -0.5438 -0.7536
  959MOL0     C32244  14.303  10.089   5.879  0.8135 -0.1935 -0.3260
  959MOL0     C32245  14.263  10.015   5.754 -0.3022  0.3718  0.3779
  959MOL0     C32246  14.106  10.017   5.733 -0.5735  1.0346  0.4731
  959MOL0     C32247  14.055   9.961   5.597  0.3654  0.1764 -0.7287
  959MOL0     C32248  13.904   9.956   5.596 -0.6693  0.1346 -0.0168
  959MOL0    Cl32249  13.854   9.876   5.437  0.0721  0.1833 -0.0051
  959MOL0     C32250  14.083  10.655   6.183 -0.2333 -0.2768  0.2327
  959MOL0     C32251  13.949  10.689   6.207  0.0696 -0.3348 -0.4372
  959MOL0     O32252  13.605  10.483   6.101  0.0468  0.4574  0.3327
  959MOL0     C32253  13.500  10.741   6.322  0.0013 -0.3615  0.7311
  959MOL0     C32254  13.397  10.792   6.399 -0.0811 -0.2232 -0.5281
  959MOL0     N32255  12.724  10.986   6.458 -1.1478  0.4815 -0.8051
  959MOL0     N32256  12.624  11.044   6.403 -0.2942 -0.2404 -0.3914
  959MOL0     C32257  11.819  11.045   5.392 -0.3504 -0.8645  0.2531
  959MOL0     C32258  11.702  11.026   5.319  0.7666 -0.7632 -0.3725
  959MOL0     C32259  11.248  11.037   5.259  0.4984  0.3052  0.4460
  959MOL0     C32260  11.261  11.020   5.120  0.6274 -0.5655  0.2759
  959MOL0     C32261  11.143  11.029   5.042  0.3010 -0.2465 -0.7839
  959MOL0     C32262  11.017  11.056   5.094  0.3906  0.9117 -0.4386
  959MOL0     O32263  10.913  11.081   4.996  0.7888 -0.0508  0.4356
  959MOL0     C32264  10.775  11.079   5.048  0.2218  0.1028  0.8237
  959MOL0     C32265  10.662  11.087   4.947  0.9672 -0.1249  0.4821
  959MOL0     C32266  10.679  10.963   4.856 -0.0587  0.9319 -0.0153
  959MOL0     C32267  10.537  10.944   4.790 -0.1440  0.0968 -0.5018
  959MOL0     C32268  10.498  11.072   4.722  0.4502 -0.5171  0.3170
  959MOL0     C32269  10.458  11.170   4.662 -0.3691  0.3237  0.5671
  959MOL0     C32270  11.001  11.063   5.230 -0.2343  0.2936 -0.3460
  959MOL0     C32271  11.116  11.057   5.310 -0.2906  0.1769  0.3877
  959MOL0     C32272  11.102  11.068   5.454  0.1752 -0.6980 -0.0573
  959MOL0     H32273  11.508  11.244   5.486 -0.2981 -2.1370  0.3197
  959MOL0     H32274  11.732  11.307   5.584  0.0658  1.8231 -1.8306
  959MOL0     H32275  12.079  11.136   5.423  0.1619  2.0480  0.4709
  959MOL0     H32276  12.048  11.010   5.539  3.4972 -0.3150  0.5557
  959MOL0     H32277  12.265  11.173   5.537  0.2949 -1.3063 -0.6236
  959MOL0     H32278  12.167  11.272   5.646  0.7633 -0.0609  0.1642
  959MOL0     H32279  12.105  11.087   5.783  0.6889 -2.5933  0.0319
  959MOL0     H32280  12.240  10.991   5.715 -1.1872 -0.6899  1.7738
  959MOL0     H32281  12.411  11.167   5.762  1.1646  0.2424  2.3319
  959MOL0     H32282  12.279  11.278   5.807 -0.6744  0.6452 -0.1349
  959MOL0     H32283  12.391  11.010   5.923 -0.0024  0.2330  0.3026
  959MOL0     H32284  12.263  11.100   6.013  0.0490 -2.6818  1.3370
  959MOL0     H32285  12.539  11.208   5.943  0.1829  3.8486  0.3471
  959MOL0     H32286  12.405  11.285   6.034 -2.5924 -1.8970 -2.0419
  959MOL0     H32287  12.557  11.042   6.120 -2.1746 -1.5810  0.8889
  959MOL0     H32288  12.408  11.077   6.193 -1.2368  0.4335 -0.4665
  959MOL0     H32289  12.619  11.294   6.175 -0.9360 -0.0407 -0.1277
  959MOL0     H32290  12.492  11.265   6.300 -1.8944  0.0526 -1.2799
  959MOL0     H32291  12.854  11.230   6.284 -0.9116  1.9200  1.4998
  959MOL0     H32292  12.969  10.974   6.564 -0.9545 -4.5025 -3.8939
  959MOL0     H32293  13.006  11.152   6.501 -0.8731  0.5009 -0.9077
  959MOL0     H32294  13.067  11.057   6.289  1.7521 -0.2272  0.2485
  959MOL0     H32295  13.170  11.002   6.414  0.0091  0.7268 -0.2599
  959MOL0     H32296  12.945  10.837   6.289 -0.1859  1.7273 -1.0511
  959MOL0     H32297  13.115  10.820   6.258  1.0455 -0.9328  0.9521
  959MOL0     H32298  13.000  10.761   6.539  1.5447  1.5277  1.1591
  959MOL0     H32299  13.052  10.644   6.423  2.1603 -0.0530  0.2084
  959MOL0     H32300  13.206  10.514   6.411 -2.0297  1.0894 -2.1547
  959MOL0     H32301  13.367  10.369   6.151 -1.9516  1.8660  0.3577
  959MOL0     H32302  13.295  10.326   6.307 -0.2028 -1.4276 -1.5822
  959MOL0     H32303  13.470  10.333   6.287 -2.1516 -1.3161  3.5251
  959MOL0     H32304  13.826  10.378   6.140  0.8177 -0.5400 -0.5250
  959MOL0     H32305  14.056  10.333   6.094  0.5365  0.0997  1.6302
  959MOL0     H32306  14.226  10.476   5.916 -0.2678  3.0170  1.3391
  959MOL0     H32307  14.388  10.486   5.948 -0.6453  0.3545  0.2376
  959MOL0     H32308  14.410  10.284   6.034  0.6659  1.2221 -1.6945
  959MOL0     H32309  14.245  10.253   6.085  0.9062 -0.6714 -0.1535
  959MOL0     H32310  14.339  10.281   5.789 -1.2847  1.6484 -0.6912
  959MOL0     H32311  14.172  10.248   5.847  0.1201 -0.1551 -0.1089
  959MOL0     H32312  14.238  10.054   5.960  1.1212  0.4678  0.2168
  959MOL0     H32313  14.405  10.063   5.907  1.4278  2.4580  0.1265
  959MOL0     H32314  14.310  10.063   5.667 -0.1476 -3.5340 -1.9573
  959MOL0     H32315  14.301   9.913   5.763  0.3203  0.3247 -1.9982
  959MOL0     H32316  14.068  10.120   5.731 -2.3328  0.4176 -0.0062
  959MOL0     H32317  14.056   9.967   5.817 -1.2173 -0.1821 -0.6138
  959MOL0     H32318  14.084   9.856   5.581 -2.6657 -0.9835  0.6424
  959MOL0     H32319  14.087  10.031   5.519 -1.3661  0.3991 -1.2876
  959MOL0     H32320  13.870  10.059   5.589 -2.8658 -0.4233  1.2973
  959MOL0     H32321  13.873   9.898   5.683 -1.1575 -0.8886 -0.8479
  959MOL0     H32322  14.164  10.722   6.212 -0.6108  0.0344  0.5852
  959MOL0     H32323  13.930  10.792   6.234  2.2876  0.2056 -0.6649
  959MOL0     H32324  13.581  10.809   6.300 -0.8833  0.6682  0.5525
  959MOL0     H32325  13.403  10.891   6.444 -1.4340 -0.0948 -0.5685
  959MOL0     H32326  11.905  10.988   5.358  1.1650  1.7021 -0.4620
  959MOL0     H32327  11.704  10.954   5.238  0.4995  0.3868 -1.4355
  959MOL0     H32328  11.355  11.002   5.069  0.5846  1.6789 -0.6833
  959MOL0     H32329  11.150  11.014   4.934  1.5632  2.2524 -1.1237
  959MOL0     H32330  10.776  10.986   5.106  2.6653  0.3706  1.3370
  959MOL0     H32331  10.767  11.170   5.108  0.9440  2.9427 -3.0086
  959MOL0     H32332  10.684  11.177   4.889  1.1270 -1.6653 -1.9727
  959MOL0     H32333  10.559  11.090   4.985  0.2949  1.5976 -1.3298
  959MOL0     H32334  10.751  10.969   4.774  0.2213  0.9144  0.2283
  959MOL0     H32335  10.699  10.880   4.925 -2.4528  2.4310  2.7339
  959MOL0     H32336  10.465  10.914   4.866  0.7213 -2.0279 -0.4619
  959MOL0     H32337  10.541  10.868   4.711 -0.2284  0.3370 -0.7388
  959MOL0     H32338  10.410  11.252   4.613 -0.8124 -0.8987 -1.1134
  959MOL0     H32339  10.903  11.053   5.275 -0.5054  2.4283 -0.3327
  959MOL0     H32340  11.131  10.977   5.508  0.2129 -1.0599 -0.6836
  959MOL0     H32341  11.163  11.153   5.485  0.3553 -0.5639 -0.7629
  959MOL0     H32342  11.000  11.087   5.490 -0.2548  0.1360 -1.6284
  960MOL0     O32343   9.653   2.788   5.972  0.4719  0.1542 -0.0001
  960MOL0     C32344   9.613   2.717   5.881  0.3751 -0.1018 -0.0823
  960MOL0     O32345   9.695   2.684   5.776  0.2534  0.3528 -0.2200
  960MOL0     C32346   9.815   2.747   5.767 -0.1211 -0.8527 -0.2733
  960MOL0     C32347   9.919   2.711   5.848 -0.2731  0.4796  0.9784
  960MOL0     C32348  10.044   2.776   5.833  0.5340 -0.1626  1.3393
  960MOL0     C32349  10.061   2.883   5.732  1.0062  0.2784  0.3684
  960MOL0     O32350  10.183   2.935   5.694 -0.0144 -0.0857  0.5665
  960MOL0     C32351  10.275   2.942   5.801 -1.2323 -0.1292 -0.5792
  960MOL0     C32352  10.373   3.058   5.773 -0.0668 -0.1275 -0.6508
  960MOL0     C32353  10.513   3.036   5.852  0.1916 -0.3340 -0.0500
  960MOL0     C32354  10.596   2.920   5.810 -0.3625 -0.4491  0.0558
  960MOL0     C32355  10.746   2.932   5.836 -0.3178 -0.2810  0.0204
  960MOL0     C32356  10.774   2.925   5.996 -0.2705  0.3401 -0.1943
  960MOL0     C32357  10.919   2.892   6.016 -0.9470  0.2386 -0.2156
  960MOL0     C32358  10.965   2.891   6.163  0.0228  0.7169  0.2259
  960MOL0     N32359  11.107   2.861   6.179  0.1388  0.2382  1.0905
  960MOL0     C32360  11.159   2.774   6.269  0.3010  0.6373 -0.4890
  960MOL0     C32361  11.290   2.772   6.238  0.0913  0.2275  0.6105
  960MOL0     C32362  11.402   2.695   6.294 -0.5211  0.7053 -0.5517
  960MOL0     C32363  11.473   2.775   6.401  0.0520 -0.8472 -0.9229
  960MOL0     C32364  11.573   2.684   6.467  0.7985  0.2292  0.5893
  960MOL0     C32365  11.669   2.766   6.539 -0.1873 -0.4942 -0.0790
  960MOL0     O32366  11.615   2.800   6.666 -0.5753  0.4759 -0.1084
  960MOL0     C32367  11.707   2.803   6.770 -0.7876  0.1565  0.9245
  960MOL0     C32368  11.720   2.698   6.866  0.2556  0.1623 -0.0497
  960MOL0     C32369  11.801   2.712   6.979  0.9276 -0.7551 -0.3774
  960MOL0     C32370  11.821   2.595   7.067  0.8862  0.1221 -0.2520
  960MOL0     C32371  11.865   2.837   7.000 -0.2041  0.4106 -0.3566
  960MOL0     C32372  11.933   2.879   7.125 -0.0150  0.2382  0.3902
  960MOL0     O32373  12.033   2.963   7.112 -0.1231  0.1281  0.2934
  960MOL0     C32374  12.108   2.990   7.222  0.7096 -0.4247 -0.3202
  960MOL0     C32375  12.235   2.938   7.234  0.9992 -0.5248 -0.0013
  960MOL0     C32376  12.312   2.977   7.351  0.7640  0.3996 -0.0125
  960MOL0     C32377  12.259   3.060   7.453 -0.5807 -0.7031  0.6690
  960MOL0     O32378  12.328   3.092   7.568 -1.1767 -0.9155  0.0044
  960MOL0     C32379  12.460   3.034   7.589 -0.0393  0.8582 -0.0280
  960MOL0     C32380  12.494   3.084   7.729  0.3379  0.4286 -1.3654
  960MOL0     C32381  12.631   3.055   7.780 -0.6521 -0.1834 -0.6211
  960MOL0     C32382  12.651   3.092   7.926  0.3262 -0.0020  0.1805
  960MOL0     C32383  12.807   3.087   7.969 -0.5955  0.0136 -0.2138
  960MOL0     C32384  12.827   3.165   8.101 -0.3225 -0.2239  0.1659
  960MOL0     C32385  12.974   3.179   8.144 -0.2261  0.2716 -0.5074
  960MOL0     C32386  12.994   3.200   8.292  0.4927  0.1174 -0.2970
  960MOL0    Cl32387  13.172   3.206   8.323  0.1169  0.3285  0.2299
  960MOL0     C32388  12.133   3.117   7.428 -0.2911  0.6698  0.4646
  960MOL0     C32389  12.066   3.084   7.314  0.1764 -0.3558 -0.0095
  960MOL0     O32390  11.886   2.829   7.234 -0.2540 -0.0155  0.2776
  960MOL0     C32391  11.861   2.938   6.892  0.2047 -0.0722 -0.3050
  960MOL0     C32392  11.779   2.919   6.781 -0.0650 -0.8504  0.1729
  960MOL0     N32393  11.308   2.843   6.121  0.3461 -0.4504  0.4506
  960MOL0     N32394  11.200   2.902   6.082  0.1174 -0.5520 -0.7225
  960MOL0     C32395   9.951   2.918   5.665  0.1037  0.1650 -0.0442
  960MOL0     C32396   9.835   2.851   5.678  0.5839 -0.2183  0.5737
  960MOL0     C32397   9.485   2.659   5.886 -0.1399 -0.2624  0.5238
  960MOL0     C32398   9.447   2.559   5.789 -0.1763  0.6241 -0.6088
  960MOL0     C32399   9.312   2.514   5.778 -0.3424  0.0693  0.8292
  960MOL0     C32400   9.207   2.580   5.843  0.2413 -0.2334  0.0737
  960MOL0     O32401   9.074   2.565   5.811 -0.2758 -0.0919 -0.0629
  960MOL0     C32402   9.038   2.483   5.700 -0.0844  0.2777  0.9724
  960MOL0     C32403   8.888   2.485   5.685 -0.6025 -0.0823  0.6065
  960MOL0     C32404   8.843   2.460   5.549 -0.7629  0.0484  0.3414
  960MOL0     C32405   8.695   2.482   5.526 -0.2714  0.0631  0.3695
  960MOL0     C32406   8.619   2.369   5.574 -0.4899  0.0261 -0.9197
  960MOL0     C32407   8.555   2.270   5.600 -0.0818 -0.5337  0.2239
  960MOL0     C32408   9.249   2.669   5.947 -0.5651 -0.5991  0.6440
  960MOL0     C32409   9.385   2.702   5.980  0.9719  0.9643  0.6342
  960MOL0     C32410   9.399   2.784   6.097  0.3639 -0.1809 -0.1796
  960MOL0     H32411   9.906   2.623   5.911 -0.4164 -3.1580 -3.5947
  960MOL0     H32412  10.125   2.733   5.891 -0.0913 -1.3493  1.3625
  960MOL0     H32413  10.325   2.848   5.825  0.5972  0.3826 -2.1554
  960MOL0     H32414  10.222   2.989   5.885 -0.3187  0.5518 -0.3669
  960MOL0     H32415  10.401   3.070   5.668  2.8200 -0.2618  0.0132
  960MOL0     H32416  10.318   3.150   5.795 -0.0047 -0.8505  3.0990
  960MOL0     H32417  10.566   3.131   5.837 -1.4612  0.7188  0.4326
  960MOL0     H32418  10.488   3.042   5.959  2.3843 -0.5764  0.5191
  960MOL0     H32419  10.552   2.831   5.856  2.4947 -1.4102  1.1547
  960MOL0     H32420  10.592   2.911   5.701  2.4163  0.3681 -0.1912
  960MOL0     H32421  10.786   3.019   5.784  3.9304 -1.9111  0.1800
  960MOL0     H32422  10.783   2.842   5.787 -0.1873  0.5448 -1.4591
  960MOL0     H32423  10.747   3.021   6.040 -0.8734 -0.7945  2.0658
  960MOL0     H32424  10.706   2.849   6.036 -2.3992  3.6294  3.0791
  960MOL0     H32425  10.981   2.966   5.963  1.1972 -0.3002  1.4053
  960MOL0     H32426  10.942   2.797   5.967 -3.2178 -0.2056 -0.5283
  960MOL0     H32427  10.958   2.992   6.204  0.8727  1.7979 -2.1000
  960MOL0     H32428  10.894   2.822   6.209  1.6692 -1.4243 -0.2382
  960MOL0     H32429  11.104   2.724   6.348  0.0274 -0.9150 -1.6098
  960MOL0     H32430  11.471   2.676   6.212  0.3658 -1.1399  0.5778
  960MOL0     H32431  11.371   2.598   6.335 -1.2977  0.8427 -0.7882
  960MOL0     H32432  11.510   2.873   6.369  0.4241 -0.2161  1.3010
  960MOL0     H32433  11.405   2.803   6.482  1.3804  0.2952 -0.1575
  960MOL0     H32434  11.520   2.614   6.533  1.6180  0.0111  1.0289
  960MOL0     H32435  11.634   2.629   6.395 -1.3095 -0.3236 -0.8604
  960MOL0     H32436  11.757   2.705   6.560 -0.8286 -0.1979  4.3727
  960MOL0     H32437  11.703   2.853   6.481 -0.7207 -1.4128 -1.8529
  960MOL0     H32438  11.667   2.606   6.842  0.8327 -0.6178  1.5539
  960MOL0     H32439  11.731   2.586   7.128 -1.9761  0.3831 -4.0599
  960MOL0     H32440  11.907   2.606   7.134 -0.6899  0.6681  1.7833
  960MOL0     H32441  11.852   2.507   7.011 -1.1006 -0.8304  0.0971
  960MOL0     H32442  12.267   2.877   7.150 -0.3543 -2.1757  0.6037
  960MOL0     H32443  12.397   2.915   7.378  1.8097  2.0022  0.4904
  960MOL0     H32444  12.442   2.926   7.591 -2.9229  1.2805  0.4881
  960MOL0     H32445  12.541   3.057   7.519  1.1651  0.1452  1.0931
  960MOL0     H32446  12.475   3.192   7.737 -1.0680  0.1125  0.3655
  960MOL0     H32447  12.423   3.049   7.805  1.1025  2.0671  0.1903
  960MOL0     H32448  12.707   3.095   7.712  1.3738 -3.6994 -0.6514
  960MOL0     H32449  12.649   2.948   7.771  0.1059  0.0974 -3.8695
  960MOL0     H32450  12.593   3.014   7.975  1.2755  1.4084  3.8895
  960MOL0     H32451  12.607   3.191   7.942  1.2131  0.1290  2.0690
  960MOL0     H32452  12.827   2.982   7.992 -1.6322 -0.2670 -0.5326
  960MOL0     H32453  12.876   3.122   7.891  1.8068 -1.4351  1.1523
  960MOL0     H32454  12.765   3.118   8.177 -0.4949  1.8078  1.3555
  960MOL0     H32455  12.786   3.266   8.103  1.6101  0.6321  3.0480
  960MOL0     H32456  13.009   3.270   8.094  0.8836  0.6740  0.9035
  960MOL0     H32457  13.024   3.087   8.113  2.6783  0.9870  1.5786
  960MOL0     H32458  12.947   3.117   8.346 -1.0104  1.6173  0.7804
  960MOL0     H32459  12.943   3.291   8.325  1.0656  1.2429 -2.3418
  960MOL0     H32460  12.086   3.183   7.499 -2.6929 -0.9635  0.4933
  960MOL0     H32461  11.962   3.113   7.301  0.5308  1.3575  0.7605
  960MOL0     H32462  11.911   3.034   6.906 -0.1856  0.1217 -0.2384
  960MOL0     H32463  11.757   2.994   6.705 -0.5896 -1.6086 -0.4323
  960MOL0     H32464   9.954   2.999   5.593  0.1637 -0.4943 -0.7915
  960MOL0     H32465   9.750   2.890   5.623  0.9034  0.8765  0.8333
  960MOL0     H32466   9.516   2.514   5.719  0.1620  2.6766 -1.6855
  960MOL0     H32467   9.300   2.442   5.698  1.4794  0.7763 -0.1462
  960MOL0     H32468   9.099   2.509   5.613  1.5183  1.3898  2.3528
  960MOL0     H32469   9.065   2.378   5.718  2.7477  0.3742 -1.8242
  960MOL0     H32470   8.857   2.585   5.714 -0.5122  0.2249 -0.3333
  960MOL0     H32471   8.837   2.421   5.758 -1.3200  0.8524  0.9342
  960MOL0     H32472   8.897   2.521   5.476 -0.9168  0.0467  0.2229
  960MOL0     H32473   8.876   2.359   5.523  1.1808  0.6479  0.3132
  960MOL0     H32474   8.675   2.500   5.420 -4.5855 -1.3110  0.7689
  960MOL0     H32475   8.655   2.567   5.581  1.3016  0.7174  0.5492
  960MOL0     H32476   8.498   2.181   5.616 -0.0885 -1.1000 -2.5322
  960MOL0     H32477   9.168   2.719   6.000 -0.7787  1.5781 -1.6062
  960MOL0     H32478   9.454   2.734   6.177 -2.7013 -1.7197  1.0950
  960MOL0     H32479   9.444   2.882   6.077 -1.3565  0.6537 -0.0994
  960MOL0     H32480   9.304   2.820   6.137 -0.6832 -0.3017 -2.4331
  961MOL0     O32481   9.727   3.177   3.660 -0.0872 -0.4952  0.1345
  961MOL0     C32482   9.699   3.073   3.598  0.1232 -0.9535 -0.2783
  961MOL0     O32483   9.760   2.951   3.616  0.1348 -0.2924  0.6600
  961MOL0     C32484   9.857   2.944   3.708  0.6112  0.4528  0.6175
  961MOL0     C32485   9.970   3.027   3.702 -0.1459 -0.3478  0.2932
  961MOL0     C32486  10.073   3.012   3.795 -0.3823  0.8845  0.1208
  961MOL0     C32487  10.073   2.911   3.893  1.2644  0.8624 -0.5092
  961MOL0     O32488  10.166   2.887   3.993 -0.2572 -0.3749  0.2139
  961MOL0     C32489  10.299   2.919   3.953  0.3788  0.7191  0.0348
  961MOL0     C32490  10.410   2.919   4.060 -0.2315  0.0581 -0.8929
  961MOL0     C32491  10.553   2.938   3.996 -0.6385  0.3605 -0.4416
  961MOL0     C32492  10.657   2.972   4.098 -0.4442 -0.8926 -0.2724
  961MOL0     C32493  10.796   2.943   4.042 -0.5290  0.1411  0.0095
  961MOL0     C32494  10.883   3.002   4.145 -0.3425 -0.7971 -0.4876
  961MOL0     C32495  11.029   3.003   4.102 -0.2504  0.2531  0.0345
  961MOL0     C32496  11.103   3.074   4.216  0.8968 -0.1453  0.7024
  961MOL0     N32497  11.240   3.103   4.172 -0.4001  0.0750 -0.2832
  961MOL0     C32498  11.278   3.229   4.121  0.0250  0.0098 -0.5799
  961MOL0     C32499  11.410   3.210   4.115  0.1746  0.0529 -0.3252
  961MOL0     C32500  11.513   3.316   4.065 -0.7416  0.1853  0.1282
  961MOL0     C32501  11.556   3.400   4.181  0.2180  0.2880 -0.1850
  961MOL0     C32502  11.632   3.329   4.295  0.4191 -0.7193 -0.1530
  961MOL0     C32503  11.645   3.421   4.419 -0.7242  0.1527  0.3321
  961MOL0     O32504  11.697   3.546   4.361 -0.1213  0.1883  0.4463
  961MOL0     C32505  11.815   3.557   4.296 -0.2184 -0.5727  0.2931
  961MOL0     C32506  11.831   3.657   4.199 -0.5592  0.0003 -0.3399
  961MOL0     C32507  11.965   3.683   4.149  0.8215  0.2314 -0.0764
  961MOL0     C32508  11.955   3.787   4.040  0.5838 -0.0607 -0.3138
  961MOL0     C32509  12.077   3.606   4.183 -0.6753  0.6343 -0.8065
  961MOL0     C32510  12.212   3.618   4.128 -0.6018  0.3332 -0.6652
  961MOL0     O32511  12.319   3.591   4.216  0.0645  0.5022 -0.5018
  961MOL0     C32512  12.444   3.562   4.167  0.0653  0.4775  0.2179
  961MOL0     C32513  12.485   3.429   4.181  0.2403  0.6328  0.0923
  961MOL0     C32514  12.616   3.391   4.143  0.9729 -0.1864 -0.6964
  961MOL0     C32515  12.694   3.493   4.089 -0.5457 -0.4995  0.0618
  961MOL0     O32516  12.826   3.466   4.063  0.2110  0.1693  0.5189
  961MOL0     C32517  12.860   3.491   3.930 -0.8974 -0.3141  0.6715
  961MOL0     C32518  12.920   3.367   3.867  0.1953  0.6916  0.1749
  961MOL0     C32519  12.810   3.257   3.844 -0.1628  0.2855 -0.2857
  961MOL0     C32520  12.871   3.126   3.785 -0.1272  0.2025 -0.7336
  961MOL0     C32521  12.764   3.011   3.784 -0.4322 -0.1283 -0.3337
  961MOL0     C32522  12.833   2.873   3.740 -0.2573  0.1298 -0.0787
  961MOL0     C32523  12.745   2.743   3.733 -0.2282  0.7158 -1.1297
  961MOL0     C32524  12.825   2.616   3.724 -0.2258 -0.1049 -0.1668
  961MOL0    Cl32525  12.919   2.616   3.566  0.1706  0.0636 -0.8547
  961MOL0     C32526  12.651   3.621   4.067 -0.4482 -0.3066 -0.0029
  961MOL0     C32527  12.523   3.658   4.098 -0.6138  0.5423 -0.0566
  961MOL0     O32528  12.219   3.651   4.012 -0.1800  0.0048  0.0828
  961MOL0     C32529  12.055   3.501   4.276  0.7552 -0.3460  0.2403
  961MOL0     C32530  11.928   3.474   4.330  1.2167  0.0512 -0.5759
  961MOL0     N32531  11.446   3.085   4.149 -1.0287 -0.2316 -0.8295
  961MOL0     N32532  11.343   3.019   4.188  0.3097 -0.2414 -0.2934
  961MOL0     C32533   9.959   2.838   3.905 -1.0679 -0.1204  0.1526
  961MOL0     C32534   9.850   2.853   3.812  0.0026  0.3571  0.4876
  961MOL0     C32535   9.616   3.089   3.474  0.4404  0.0800 -0.1770
  961MOL0     C32536   9.648   3.015   3.359  0.0246 -0.7461 -0.1779
  961MOL0     C32537   9.565   3.023   3.247 -0.2110  0.1142 -0.1288
  961MOL0     C32538   9.462   3.120   3.248  0.2416 -0.3506  0.1798
  961MOL0     O32539   9.381   3.145   3.140 -0.1359  0.3562 -0.3529
  961MOL0     C32540   9.344   3.023   3.068 -0.6749  0.1108  0.6604
  961MOL0     C32541   9.238   3.044   2.958 -0.6682 -0.5477 -0.3465
  961MOL0     C32542   9.114   3.119   3.014  0.1017  0.2527  0.1386
  961MOL0     C32543   9.000   3.138   2.902  0.8916 -0.2313  0.2278
  961MOL0     C32544   8.969   3.017   2.834 -0.5877  0.7994  0.7418
  961MOL0     C32545   8.947   2.907   2.782 -0.0515  0.1372  0.1160
  961MOL0     C32546   9.440   3.204   3.356 -0.5224  0.6132 -0.0634
  961MOL0     C32547   9.509   3.187   3.471  0.5260  0.2848  0.6486
  961MOL0     C32548   9.464   3.264   3.589  0.0816 -0.0743 -0.3239
  961MOL0     H32549   9.985   3.108   3.632 -2.9230  2.4299  2.6084
  961MOL0     H32550  10.151   3.087   3.792  1.8477 -1.3088 -0.4956
  961MOL0     H32551  10.307   3.021   3.915  1.6710  0.4339 -0.5125
  961MOL0     H32552  10.335   2.850   3.876  0.4410 -1.5724  1.9865
  961MOL0     H32553  10.402   2.993   4.141  0.3950  1.4790 -2.0806
  961MOL0     H32554  10.403   2.821   4.108 -0.4880  1.8078  3.0736
  961MOL0     H32555  10.575   2.841   3.950  2.5696 -0.2201  2.0059
  961MOL0     H32556  10.549   3.015   3.919  0.6015  2.9495  1.8918
  961MOL0     H32557  10.645   3.080   4.116  2.7916 -0.4939  0.1922
  961MOL0     H32558  10.646   2.915   4.190 -1.1199  1.0358  0.8889
  961MOL0     H32559  10.823   2.996   3.950 -1.7657  1.2769  0.2754
  961MOL0     H32560  10.819   2.837   4.029  0.0798  0.3426 -0.5823
  961MOL0     H32561  10.850   3.106   4.156  0.9888 -0.6275  3.3190
  961MOL0     H32562  10.869   2.966   4.248 -0.3766  2.5238  0.7877
  961MOL0     H32563  11.048   3.061   4.011  3.4399  1.8645  1.5907
  961MOL0     H32564  11.059   2.899   4.089  3.6831  1.2118 -0.0446
  961MOL0     H32565  11.064   3.174   4.238 -0.4512 -0.0364 -1.7574
  961MOL0     H32566  11.108   3.002   4.297  2.1930 -1.0534 -0.1473
  961MOL0     H32567  11.217   3.312   4.086 -0.8006 -0.9967 -1.6105
  961MOL0     H32568  11.462   3.381   3.993  0.3797  0.3885 -0.4951
  961MOL0     H32569  11.593   3.267   4.010 -2.0857 -1.4482 -0.4686
  961MOL0     H32570  11.623   3.469   4.129  0.8116 -1.3739 -1.7341
  961MOL0     H32571  11.473   3.456   4.224 -0.6264  0.7632 -2.3443
  961MOL0     H32572  11.582   3.240   4.334 -1.3678  0.8326  1.2902
  961MOL0     H32573  11.731   3.300   4.258 -0.5105 -2.7929 -1.1189
  961MOL0     H32574  11.547   3.438   4.465 -1.0238  3.5168 -1.2534
  961MOL0     H32575  11.714   3.373   4.489 -0.8866 -1.2554 -0.4447
  961MOL0     H32576  11.752   3.724   4.167 -0.2822  0.7539  0.5199
  961MOL0     H32577  12.002   3.880   4.071  0.9332  0.6337 -2.7672
  961MOL0     H32578  11.853   3.810   4.009 -0.3436 -0.7325  1.9596
  961MOL0     H32579  12.006   3.751   3.951 -0.9536 -2.6277 -0.2653
  961MOL0     H32580  12.419   3.353   4.221  1.4774 -0.3186  0.3826
  961MOL0     H32581  12.657   3.291   4.149  1.6335  0.1113 -0.1202
  961MOL0     H32582  12.776   3.517   3.866  0.6275 -0.1411 -1.3679
  961MOL0     H32583  12.938   3.568   3.924  1.0020 -2.2815 -1.8993
  961MOL0     H32584  12.957   3.395   3.768  2.3338  0.4290  0.8470
  961MOL0     H32585  12.992   3.310   3.926 -3.9208 -2.0574  3.0659
  961MOL0     H32586  12.725   3.296   3.787 -2.0974 -1.6551  1.1187
  961MOL0     H32587  12.771   3.239   3.945  1.1538  1.8944  0.5745
  961MOL0     H32588  12.946   3.094   3.859 -0.0672  1.1498 -0.3761
  961MOL0     H32589  12.914   3.140   3.686  1.1617 -0.8894 -0.3658
  961MOL0     H32590  12.709   3.004   3.879 -3.2241 -1.7834 -1.9552
  961MOL0     H32591  12.694   3.041   3.707 -2.1767 -3.5278 -0.2652
  961MOL0     H32592  12.921   2.862   3.803 -0.2953  2.8480  0.5527
  961MOL0     H32593  12.864   2.890   3.636  0.8064 -1.1646 -0.0061
  961MOL0     H32594  12.664   2.742   3.659 -0.5184  0.2096 -0.8136
  961MOL0     H32595  12.691   2.754   3.827  0.5579  3.6551 -0.9431
  961MOL0     H32596  12.765   2.525   3.722  2.1493 -1.7695 -0.8150
  961MOL0     H32597  12.906   2.605   3.797  0.6411 -0.5539 -1.1669
  961MOL0     H32598  12.713   3.699   4.024 -2.2800  1.7425  0.9269
  961MOL0     H32599  12.481   3.756   4.076 -0.8293  0.3077 -0.7151
  961MOL0     H32600  12.142   3.441   4.303  1.7584  0.4761 -1.0413
  961MOL0     H32601  11.918   3.407   4.415 -1.4060 -3.2392 -3.1730
  961MOL0     H32602   9.951   2.771   3.990  0.1190 -1.4234 -0.7266
  961MOL0     H32603   9.765   2.785   3.816 -0.9430  1.4841  0.2404
  961MOL0     H32604   9.732   2.946   3.359  0.6410 -0.0158  0.7719
  961MOL0     H32605   9.600   2.955   3.170  2.4176  1.7249 -0.4387
  961MOL0     H32606   9.430   2.979   3.015 -1.4346  1.0623 -1.4544
  961MOL0     H32607   9.312   2.950   3.143  3.0534 -1.9390  0.5034
  961MOL0     H32608   9.210   2.949   2.910  3.0931 -2.0159  0.0233
  961MOL0     H32609   9.290   3.094   2.876  2.0152 -2.4778  0.0482
  961MOL0     H32610   9.068   3.050   3.085 -4.4021  2.3494 -0.3272
  961MOL0     H32611   9.144   3.212   3.064 -0.9205  0.0447  1.1947
  961MOL0     H32612   9.019   3.211   2.823  0.3475 -1.0488 -0.6877
  961MOL0     H32613   8.900   3.166   2.936 -0.4425 -1.4672 -2.4234
  961MOL0     H32614   8.952   2.812   2.734 -1.4620 -0.1958  0.5690
  961MOL0     H32615   9.367   3.282   3.336 -0.9014  0.5142  0.8792
  961MOL0     H32616   9.522   3.356   3.599 -0.9091  0.5132  0.1882
  961MOL0     H32617   9.360   3.298   3.592  0.5837  1.5024  0.0313
  961MOL0     H32618   9.488   3.207   3.680  2.1388  2.5429  0.9004
  962MOL0     O32619   6.271   5.356   3.777  0.0780  0.0339 -0.8539
  962MOL0     C32620   6.198   5.330   3.870  0.1885  0.1917 -0.1072
  962MOL0     O32621   6.243   5.298   3.999 -0.4921  0.2715  0.0515
  962MOL0     C32622   6.378   5.267   4.005 -0.2480  0.4104 -0.3899
  962MOL0     C32623   6.418   5.136   3.983 -0.7331  0.0713  0.6693
  962MOL0     C32624   6.555   5.110   3.971  0.0885  0.8116  0.9526
  962MOL0     C32625   6.649   5.209   3.994 -0.6997 -0.8428  0.3695
  962MOL0     O32626   6.780   5.157   4.004  0.2822 -0.8583  0.5471
  962MOL0     C32627   6.890   5.254   4.005 -0.0402  0.6219  0.3512
  962MOL0     C32628   7.019   5.190   3.943  0.4016  0.6380 -0.6650
  962MOL0     C32629   7.126   5.302   3.909  0.5135  0.6713  0.8341
  962MOL0     C32630   7.203   5.357   4.025 -0.1812  0.2322  0.2282
  962MOL0     C32631   7.309   5.254   4.054 -0.1814 -0.3476 -0.0289
  962MOL0     C32632   7.417   5.308   4.151  0.5814 -0.2396  0.4732
  962MOL0     C32633   7.391   5.266   4.296  0.0613  0.1815  0.2130
  962MOL0     C32634   7.519   5.306   4.377 -0.6126 -0.3282  0.0079
  962MOL0     N32635   7.532   5.448   4.394 -0.3219  0.0280  0.0034
  962MOL0     C32636   7.468   5.528   4.487  0.2371  1.1642 -0.3797
  962MOL0     C32637   7.525   5.647   4.485 -0.0884 -0.5179 -0.2858
  962MOL0     C32638   7.508   5.751   4.594 -0.4597 -0.3401  0.4551
  962MOL0     C32639   7.635   5.763   4.677  0.2117 -0.1835 -0.5935
  962MOL0     C32640   7.614   5.883   4.774  0.9544 -1.0465  0.4364
  962MOL0     C32641   7.750   5.907   4.841  0.0855  0.2572 -0.1068
  962MOL0     O32642   7.753   6.041   4.905 -0.4291  0.4817  0.4226
  962MOL0     C32643   7.865   6.070   4.976  0.5461 -1.5035  0.0928
  962MOL0     C32644   7.996   6.006   4.965 -0.1547 -0.2683  0.2265
  962MOL0     C32645   8.094   6.028   5.052 -0.9227  0.0812  0.1916
  962MOL0     C32646   8.219   5.945   5.020 -0.2088  0.2045 -0.6437
  962MOL0     C32647   8.085   6.130   5.146  0.0438 -0.7551  0.8487
  962MOL0     C32648   8.205   6.187   5.222 -0.1790  0.5836  0.6823
  962MOL0     O32649   8.288   6.091   5.273  0.4898  0.2440  0.5921
  962MOL0     C32650   8.406   6.112   5.334  0.4531  0.3646  0.3097
  962MOL0     C32651   8.429   6.199   5.437 -0.7074 -0.2660 -0.3740
  962MOL0     C32652   8.545   6.195   5.516 -0.6235 -0.3424 -0.2565
  962MOL0     C32653   8.658   6.118   5.475 -0.3975 -0.0709  0.2517
  962MOL0     O32654   8.788   6.126   5.519 -0.5567 -0.2463  0.1486
  962MOL0     C32655   8.795   6.121   5.662 -1.1517  0.2435 -0.4834
  962MOL0     C32656   8.920   6.199   5.708 -1.0960 -1.1928 -0.4679
  962MOL0     C32657   8.896   6.350   5.713 -1.0013  0.1709  0.5461
  962MOL0     C32658   9.028   6.421   5.689  0.5280 -0.2434  0.3941
  962MOL0     C32659   9.006   6.575   5.699 -0.4949 -0.2185 -0.1123
  962MOL0     C32660   9.122   6.647   5.635 -0.2183 -0.0553 -0.2785
  962MOL0     C32661   9.095   6.800   5.636  0.6533 -0.9527  0.4853
  962MOL0     C32662   8.992   6.850   5.531 -0.9893  0.1976  0.5055
  962MOL0    Cl32663   8.828   6.858   5.594 -0.2105 -0.5952  0.0862
  962MOL0     C32664   8.637   6.039   5.356 -0.0531  0.3040  0.0897
  962MOL0     C32665   8.512   6.032   5.294  0.2859  0.4068  0.0712
  962MOL0     O32666   8.207   6.306   5.247 -0.0500 -0.3104 -0.5992
  962MOL0     C32667   7.963   6.198   5.162  0.0447  0.7194 -0.7707
  962MOL0     C32668   7.851   6.164   5.077 -0.1699  0.1027 -0.2548
  962MOL0     N32669   7.627   5.634   4.395 -0.3146 -0.7428 -0.4420
  962MOL0     N32670   7.622   5.523   4.337 -0.2478  0.5938 -0.1045
  962MOL0     C32671   6.600   5.337   4.028 -0.3791  0.5434 -0.9399
  962MOL0     C32672   6.465   5.366   4.046  0.6581  0.5233 -0.3718
  962MOL0     C32673   6.052   5.320   3.848 -0.2642  0.5982 -0.2440
  962MOL0     C32674   5.972   5.263   3.948  0.3512  0.1089  0.8216
  962MOL0     C32675   5.837   5.222   3.931 -0.7925  0.0805 -0.7201
  962MOL0     C32676   5.777   5.231   3.804 -1.0861 -0.1383  0.1089
  962MOL0     O32677   5.655   5.189   3.768  0.4534 -0.1510  0.2692
  962MOL0     C32678   5.571   5.148   3.873  0.2952 -0.3220  0.8191
  962MOL0     C32679   5.524   5.258   3.963  0.4440  0.4335  0.3196
  962MOL0     C32680   5.459   5.372   3.886  0.1180 -0.2548 -0.2831
  962MOL0     C32681   5.360   5.462   3.971 -0.0495 -0.1360 -0.3548
  962MOL0     C32682   5.425   5.508   4.098 -0.1532 -0.3638 -0.1417
  962MOL0     C32683   5.477   5.556   4.198 -0.4010 -0.1208  0.1921
  962MOL0     C32684   5.863   5.276   3.701  0.4990  0.9316 -0.1993
  962MOL0     C32685   5.995   5.323   3.720 -0.8915 -0.0507 -0.0775
  962MOL0     C32686   6.059   5.384   3.593  0.4665  0.3745 -0.0233
  962MOL0     H32687   6.346   5.058   3.959 -0.7881  1.1506 -3.4579
  962MOL0     H32688   6.572   5.007   3.943  0.8996  1.0766  0.4155
  962MOL0     H32689   6.919   5.297   4.102  0.4210  4.2906 -1.2528
  962MOL0     H32690   6.864   5.342   3.946 -3.0057  0.0987  0.7204
  962MOL0     H32691   7.054   5.117   4.016  0.1015 -0.3369 -1.4688
  962MOL0     H32692   6.991   5.135   3.853 -0.7300  1.7040 -0.9919
  962MOL0     H32693   7.187   5.269   3.824 -1.0342  0.4305 -0.2276
  962MOL0     H32694   7.069   5.383   3.862 -1.5887 -0.6975  0.9026
  962MOL0     H32695   7.254   5.449   3.993  0.4310 -0.7377 -1.7387
  962MOL0     H32696   7.128   5.371   4.103 -0.9883  0.7284 -0.5992
  962MOL0     H32697   7.372   5.238   3.966  2.1702  1.8357  1.1402
  962MOL0     H32698   7.259   5.162   4.087  0.9161 -0.9940 -0.1126
  962MOL0     H32699   7.511   5.259   4.122  0.1283  0.5450 -2.6677
  962MOL0     H32700   7.434   5.415   4.142 -0.8039 -0.0102  0.4248
  962MOL0     H32701   7.382   5.158   4.308  0.4772 -0.0324 -1.3033
  962MOL0     H32702   7.300   5.313   4.336  0.2151 -0.1503  0.9692
  962MOL0     H32703   7.514   5.276   4.482  0.3686 -1.1728 -0.1730
  962MOL0     H32704   7.613   5.267   4.338 -1.2904 -0.4719 -1.5564
  962MOL0     H32705   7.398   5.484   4.557  2.8500  2.3405  3.2666
  962MOL0     H32706   7.418   5.731   4.652 -0.3300  3.1456  2.1321
  962MOL0     H32707   7.488   5.851   4.554  0.1444 -0.2401  0.3814
  962MOL0     H32708   7.660   5.670   4.729  2.8300 -0.5249 -2.2415
  962MOL0     H32709   7.719   5.778   4.608 -0.1963  0.8421 -0.8946
  962MOL0     H32710   7.586   5.971   4.716 -3.1775 -0.9044  2.2408
  962MOL0     H32711   7.536   5.870   4.850  0.2772  0.6026  0.0537
  962MOL0     H32712   7.776   5.836   4.920 -2.1675  1.6581  2.0672
  962MOL0     H32713   7.833   5.898   4.771  1.2141  0.1951  1.1898
  962MOL0     H32714   8.008   5.936   4.883 -0.6830 -1.2542  0.9664
  962MOL0     H32715   8.204   5.842   5.054 -0.2393  0.7709  1.2032
  962MOL0     H32716   8.308   5.983   5.071 -1.6417  4.0062 -0.6714
  962MOL0     H32717   8.252   5.935   4.917  0.8316 -0.6341 -0.2505
  962MOL0     H32718   8.353   6.267   5.472  1.3562  1.5598  0.8296
  962MOL0     H32719   8.549   6.253   5.607 -1.9015  0.2329 -0.5519
  962MOL0     H32720   8.714   6.155   5.728 -1.2153 -3.4776  1.6663
  962MOL0     H32721   8.813   6.018   5.694  1.4155  0.8454  0.2818
  962MOL0     H32722   8.958   6.166   5.806 -2.1181 -0.6516  0.1311
  962MOL0     H32723   9.009   6.181   5.647  0.7032  1.7681  1.0699
  962MOL0     H32724   8.846   6.382   5.805 -3.1450 -0.3364 -0.3703
  962MOL0     H32725   8.827   6.377   5.632 -0.1679 -0.6381 -0.4769
  962MOL0     H32726   9.057   6.386   5.589 -1.4746 -0.8747 -0.0220
  962MOL0     H32727   9.109   6.392   5.756  2.2137 -0.1851 -1.5129
  962MOL0     H32728   8.913   6.610   5.653 -0.3036  1.4317  0.6837
  962MOL0     H32729   9.001   6.610   5.802  1.3281  1.7066 -0.6087
  962MOL0     H32730   9.140   6.609   5.534 -2.7870 -0.5144 -0.6342
  962MOL0     H32731   9.215   6.630   5.690 -0.0416  0.5910 -0.3685
  962MOL0     H32732   9.181   6.857   5.599 -0.1888 -0.3676 -0.6305
  962MOL0     H32733   9.058   6.829   5.735 -1.2987 -0.1969 -0.4309
  962MOL0     H32734   9.002   6.777   5.451 -1.6499  0.7477 -0.0871
  962MOL0     H32735   9.026   6.937   5.474 -0.0095 -1.1726 -1.0523
  962MOL0     H32736   8.710   5.962   5.332  0.1141  1.5046 -4.1074
  962MOL0     H32737   8.486   5.958   5.219  0.7955  2.3929 -2.1697
  962MOL0     H32738   7.948   6.286   5.224 -2.5438  1.5915 -2.4334
  962MOL0     H32739   7.755   6.214   5.090  0.1590  0.5376  0.5221
  962MOL0     H32740   6.674   5.415   4.039  3.6077 -2.8939 -0.4605
  962MOL0     H32741   6.431   5.465   4.076  1.4494  0.5805  0.3911
  962MOL0     H32742   6.001   5.248   4.051 -2.8640 -1.7639  1.5819
  962MOL0     H32743   5.789   5.183   4.021  0.1133  0.8017  0.0893
  962MOL0     H32744   5.488   5.097   3.823 -0.3569  0.4690  1.0651
  962MOL0     H32745   5.614   5.068   3.934  1.5548  0.0904  0.5097
  962MOL0     H32746   5.611   5.297   4.017  0.1044 -0.1834  1.3426
  962MOL0     H32747   5.446   5.213   4.025  0.2596  2.2922  1.5152
  962MOL0     H32748   5.546   5.431   3.855 -0.0086  0.0902  0.0012
  962MOL0     H32749   5.410   5.336   3.796  1.9223  0.7245 -1.7120
  962MOL0     H32750   5.277   5.394   3.997  0.3450 -0.1643  0.8880
  962MOL0     H32751   5.323   5.550   3.918 -2.6285 -1.2785 -0.6230
  962MOL0     H32752   5.521   5.599   4.286  0.3744  0.3180 -0.3970
  962MOL0     H32753   5.823   5.271   3.601 -1.0605  2.7819  0.2669
  962MOL0     H32754   6.084   5.489   3.614  3.5786 -0.4219  0.6101
  962MOL0     H32755   6.152   5.338   3.562  0.0937  0.4927 -1.3899
  962MOL0     H32756   5.990   5.378   3.508  1.3468 -0.3189 -0.6926
  963MOL0     O32757   7.109   3.794   6.957  1.0310 -0.3888  0.4529
  963MOL0     C32758   7.140   3.914   6.954 -0.2524  0.8081 -0.3895
  963MOL0     O32759   7.052   4.021   6.950 -0.1095  0.5279  0.7796
  963MOL0     C32760   6.921   4.002   6.958  0.5301 -0.3502  0.3054
  963MOL0     C32761   6.861   3.934   7.065 -0.2948 -0.1370 -0.4792
  963MOL0     C32762   6.718   3.921   7.067 -0.3164  0.0747 -0.3678
  963MOL0     C32763   6.640   3.982   6.975  0.1994  0.6655  0.0134
  963MOL0     O32764   6.499   3.973   6.981 -0.1930 -0.0251 -0.2664
  963MOL0     C32765   6.431   3.957   7.114 -0.3532 -0.2316  0.4889
  963MOL0     C32766   6.422   3.807   7.153 -0.2905 -0.1964  0.2285
  963MOL0     C32767   6.306   3.780   7.254 -0.2407  0.0968 -0.0194
  963MOL0     C32768   6.361   3.836   7.381  0.1306 -0.3252  0.2176
  963MOL0     C32769   6.250   3.813   7.487  0.2943  0.2342  0.5278
  963MOL0     C32770   6.300   3.839   7.630  0.5240  0.6928  0.7198
  963MOL0     C32771   6.292   3.978   7.690  0.2055 -0.4408  0.2451
  963MOL0     C32772   6.345   4.092   7.603  0.2678 -0.3442  0.4700
  963MOL0     N32773   6.486   4.108   7.602  0.1609  0.8337 -0.2513
  963MOL0     C32774   6.549   4.200   7.684  0.4106  0.1337 -1.1835
  963MOL0     C32775   6.666   4.215   7.632  0.2436 -0.6478 -0.2712
  963MOL0     C32776   6.783   4.285   7.700 -0.1031  0.0607  0.3402
  963MOL0     C32777   6.868   4.187   7.787  0.5760 -1.3436 -0.2503
  963MOL0     C32778   6.957   4.262   7.888 -0.5786  0.3891 -0.1886
  963MOL0     C32779   7.088   4.318   7.836 -0.2277 -0.3100 -0.2737
  963MOL0     O32780   7.192   4.231   7.794 -0.3435 -0.4868  0.5788
  963MOL0     C32781   7.293   4.289   7.716 -0.5304 -0.9644 -0.6069
  963MOL0     C32782   7.363   4.211   7.631 -0.6340  0.1086  0.2200
  963MOL0     C32783   7.464   4.259   7.552 -0.6890 -0.6870  0.7454
  963MOL0     C32784   7.539   4.151   7.484 -0.7536  0.2661  0.2194
  963MOL0     C32785   7.495   4.390   7.540 -0.2432  0.2202  0.0513
  963MOL0     C32786   7.607   4.447   7.459  0.1842 -0.4508  0.3032
  963MOL0     O32787   7.625   4.575   7.476  0.4600 -0.1876 -0.2984
  963MOL0     C32788   7.702   4.651   7.384 -0.0775 -0.3409 -0.3310
  963MOL0     C32789   7.835   4.678   7.409  0.3427 -0.5510 -0.0297
  963MOL0     C32790   7.916   4.747   7.325 -0.1190  0.5225  0.1414
  963MOL0     C32791   7.867   4.781   7.199  0.0446  0.1555  0.2158
  963MOL0     O32792   7.949   4.834   7.102  0.2618 -0.5028 -0.6980
  963MOL0     C32793   8.096   4.844   7.128  0.0539 -0.0469  0.0537
  963MOL0     C32794   8.166   4.894   7.007  0.1145 -0.5869 -0.5482
  963MOL0     C32795   8.317   4.908   7.030  0.1767 -0.6804 -0.0096
  963MOL0     C32796   8.390   4.980   6.913  0.3799  0.6295 -0.1419
  963MOL0     C32797   8.409   5.127   6.934  0.1826  1.1535 -0.0967
  963MOL0     C32798   8.484   5.197   6.821 -0.2209 -0.1097 -0.6095
  963MOL0     C32799   8.504   5.353   6.853 -0.1356 -0.0815 -0.6053
  963MOL0     C32800   8.595   5.418   6.745  0.9065 -0.4621  0.8894
  963MOL0    Cl32801   8.663   5.554   6.834 -0.4150 -0.3412 -0.1619
  963MOL0     C32802   7.736   4.763   7.168  0.6683  0.8804  0.2423
  963MOL0     C32803   7.653   4.691   7.260  0.4923 -0.4340 -0.0740
  963MOL0     O32804   7.668   4.382   7.376  0.6486 -0.3462  0.5987
  963MOL0     C32805   7.421   4.477   7.623  0.6688  0.3545 -0.4348
  963MOL0     C32806   7.321   4.427   7.707 -0.0241  0.7076  0.3706
  963MOL0     N32807   6.670   4.145   7.509 -0.0092 -0.1608  0.0348
  963MOL0     N32808   6.561   4.083   7.492 -0.4794  0.0564 -0.6300
  963MOL0     C32809   6.699   4.049   6.870 -0.5349 -0.5754  0.0318
  963MOL0     C32810   6.841   4.065   6.863 -0.3060 -0.5078  0.2899
  963MOL0     C32811   7.281   3.941   6.939 -0.2794 -0.8381 -0.2063
  963MOL0     C32812   7.317   4.053   6.862  0.6374  0.9618  0.7832
  963MOL0     C32813   7.443   4.103   6.862 -0.3153  0.0091  0.1111
  963MOL0     C32814   7.546   4.042   6.924  0.5519  0.0631 -0.2489
  963MOL0     O32815   7.663   4.107   6.929  0.3454  0.4511 -0.3908
  963MOL0     C32816   7.739   4.105   7.052  0.0370  0.4693  0.5435
  963MOL0     C32817   7.860   4.184   7.033 -0.6935  0.0659 -0.3061
  963MOL0     C32818   7.977   4.110   6.956  0.4481 -0.3264  0.9127
  963MOL0     C32819   8.082   4.206   6.889  0.8806 -0.4088 -1.1174
  963MOL0     C32820   8.192   4.148   6.822 -0.8795 -0.0705 -0.4756
  963MOL0     C32821   8.292   4.113   6.768  0.6675 -0.7670 -0.6539
  963MOL0     C32822   7.529   3.916   6.973  0.7654  0.8370 -0.3380
  963MOL0     C32823   7.393   3.864   6.981 -0.6367  0.7701 -0.1410
  963MOL0     C32824   7.378   3.735   7.062 -0.0595  0.1160 -0.0354
  963MOL0     H32825   6.915   3.903   7.153 -1.4856 -0.8871  0.0195
  963MOL0     H32826   6.685   3.881   7.163  3.0083  0.0848  0.9116
  963MOL0     H32827   6.330   3.997   7.103 -1.0721 -2.0493  0.1739
  963MOL0     H32828   6.489   4.012   7.190 -1.5102  0.8118  0.6395
  963MOL0     H32829   6.400   3.761   7.057 -0.8208 -0.1865  0.3416
  963MOL0     H32830   6.520   3.772   7.186 -0.4388 -0.9134 -0.0954
  963MOL0     H32831   6.210   3.816   7.216  0.3375  1.7051 -0.0022
  963MOL0     H32832   6.304   3.671   7.270  1.6456  0.3161  2.1791
  963MOL0     H32833   6.451   3.783   7.413 -0.1713 -0.5647  0.6963
  963MOL0     H32834   6.393   3.939   7.368  0.6075 -0.3912  0.8132
  963MOL0     H32835   6.216   3.709   7.490 -1.4913  0.8193  2.7563
  963MOL0     H32836   6.165   3.880   7.470  0.5958  0.0029 -2.6578
  963MOL0     H32837   6.227   3.781   7.688  1.0286  0.8419  1.5184
  963MOL0     H32838   6.398   3.794   7.646  0.4964  0.1755 -0.4766
  963MOL0     H32839   6.352   3.972   7.781 -0.4561 -0.5102  0.6820
  963MOL0     H32840   6.187   4.005   7.710 -0.0206 -0.4445 -0.8705
  963MOL0     H32841   6.306   4.090   7.501 -0.8591  1.3650  0.8258
  963MOL0     H32842   6.295   4.185   7.632  1.4176 -0.4470  3.0856
  963MOL0     H32843   6.509   4.242   7.776 -0.4327 -1.7114 -0.6406
  963MOL0     H32844   6.759   4.368   7.766  2.9286  0.1791  1.4698
  963MOL0     H32845   6.858   4.319   7.627  1.5636 -2.8246  0.5261
  963MOL0     H32846   6.788   4.131   7.836 -2.3686  1.6224 -1.2954
  963MOL0     H32847   6.924   4.117   7.724 -0.6723 -1.6367 -1.0754
  963MOL0     H32848   6.901   4.346   7.928 -0.0746  0.1208  1.1548
  963MOL0     H32849   6.981   4.179   7.955  2.3827 -1.2144 -2.9111
  963MOL0     H32850   7.058   4.387   7.757 -0.2850  2.3212  1.8801
  963MOL0     H32851   7.125   4.390   7.910  1.3506  0.2610 -1.5636
  963MOL0     H32852   7.348   4.104   7.638  0.4758  0.0012  1.2954
  963MOL0     H32853   7.507   4.140   7.380  3.8514 -2.9108 -1.1806
  963MOL0     H32854   7.525   4.057   7.538  1.1362 -1.3748 -1.9263
  963MOL0     H32855   7.647   4.159   7.497 -0.8667 -0.4016  1.7175
  963MOL0     H32856   7.887   4.644   7.498  0.6947 -0.6835 -0.2805
  963MOL0     H32857   8.019   4.760   7.356 -0.5619  1.9403  1.1365
  963MOL0     H32858   8.109   4.926   7.199 -0.2696  1.6363 -1.7255
  963MOL0     H32859   8.135   4.746   7.158 -1.4776 -1.1543 -1.3882
  963MOL0     H32860   8.146   4.842   6.914 -2.5384  1.0847 -1.0446
  963MOL0     H32861   8.126   4.993   6.984 -1.7007 -0.7429  1.5390
  963MOL0     H32862   8.352   4.804   7.040  0.6690 -0.5183 -0.0145
  963MOL0     H32863   8.335   4.965   7.122  1.9567 -3.6457  1.6646
  963MOL0     H32864   8.327   4.955   6.827 -0.5595  0.0002  0.6957
  963MOL0     H32865   8.486   4.929   6.905 -0.0609 -0.2749  0.1203
  963MOL0     H32866   8.310   5.172   6.947  0.1548  0.7157  1.3974
  963MOL0     H32867   8.466   5.145   7.025  0.5907 -2.3805  0.4964
  963MOL0     H32868   8.419   5.191   6.733 -2.3925  0.2622  0.8729
  963MOL0     H32869   8.583   5.153   6.805  0.3272  1.0023 -0.4005
  963MOL0     H32870   8.551   5.370   6.950 -1.3840 -0.0551  0.0114
  963MOL0     H32871   8.402   5.394   6.853  0.6704  2.0885 -0.5468
  963MOL0     H32872   8.530   5.449   6.663 -1.6288 -2.7110  1.8761
  963MOL0     H32873   8.680   5.357   6.714  2.5634  2.0875  0.1247
  963MOL0     H32874   7.688   4.809   7.082 -1.4151 -0.5273  0.5671
  963MOL0     H32875   7.551   4.679   7.226  0.6899  1.0638 -1.3100
  963MOL0     H32876   7.429   4.585   7.627 -1.1542  0.6143 -2.2689
  963MOL0     H32877   7.266   4.508   7.754 -0.7232  1.3493 -1.4749
  963MOL0     H32878   6.637   4.087   6.790  1.4592 -2.6997 -2.6833
  963MOL0     H32879   6.881   4.124   6.782 -1.4215 -0.2252 -0.0770
  963MOL0     H32880   7.244   4.119   6.816 -0.6486 -0.2571  1.0091
  963MOL0     H32881   7.472   4.193   6.810 -1.5085  0.4071  0.1227
  963MOL0     H32882   7.677   4.149   7.131 -0.3023  1.8730 -0.4591
  963MOL0     H32883   7.766   4.001   7.075  2.2725  0.3846 -2.0108
  963MOL0     H32884   7.899   4.206   7.132 -0.1164 -0.2731 -0.4537
  963MOL0     H32885   7.845   4.271   6.968  2.9852 -1.3374 -3.4168
  963MOL0     H32886   8.035   4.049   7.025  1.2753 -0.5803  0.0280
  963MOL0     H32887   7.926   4.045   6.885 -1.1575  1.5248  0.2805
  963MOL0     H32888   8.112   4.268   6.975 -0.3913  0.9226 -1.5873
  963MOL0     H32889   8.035   4.275   6.818 -0.0752 -1.8592 -1.9454
  963MOL0     H32890   8.390   4.107   6.725  1.6208  3.0880  0.5705
  963MOL0     H32891   7.606   3.852   7.015 -0.2013 -0.2062 -0.1032
  963MOL0     H32892   7.468   3.691   7.108  0.9718  2.0990 -0.0634
  963MOL0     H32893   7.301   3.753   7.137 -1.8638 -0.5517 -1.6433
  963MOL0     H32894   7.345   3.668   6.982  0.3395  0.0461 -0.1471
  964MOL0     O32895   0.291   1.539  10.569 -0.0854  0.0658 -0.9954
  964MOL0     C32896   0.258   1.504  10.456  0.5544 -0.3834 -1.0616
  964MOL0     O32897   0.135   1.507  10.395 -0.0626  0.1615 -0.3296
  964MOL0     C32898   0.015   1.540  10.463 -0.3977 -0.3786  0.1097
  964MOL0     C32899  -0.100   1.463  10.442 -0.7689 -0.6048  0.9338
  964MOL0     C32900  -0.220   1.503  10.495  0.0842  0.2931  0.0656
  964MOL0     C32901  -0.234   1.623  10.568 -1.3452  0.0046  0.7413
  964MOL0     O32902  -0.352   1.655  10.632 -0.1309 -0.2060  0.5238
  964MOL0     C32903  -0.460   1.614  10.541  0.5057 -0.0177 -0.1598
  964MOL0     C32904  -0.574   1.688  10.601  0.4020 -0.1049  0.5391
  964MOL0     C32905  -0.707   1.629  10.559  0.1273  0.5553  0.2123
  964MOL0     C32906  -0.759   1.645  10.412  1.3995  0.6013  0.5969
  964MOL0     C32907  -0.888   1.561  10.403 -0.4068  0.1743  0.4041
  964MOL0     C32908  -0.988   1.608  10.288 -0.7113 -0.4823 -0.9515
  964MOL0     C32909  -1.052   1.743  10.317 -0.2921  0.0002  0.2046
  964MOL0     C32910  -1.208   1.739  10.330 -0.7404 -0.5642  0.0133
  964MOL0     N32911  -1.246   1.644  10.429  0.2087 -0.4551 -0.4106
  964MOL0     C32912  -1.225   1.647  10.561  0.2277 -0.3220  0.4979
  964MOL0     C32913  -1.267   1.533  10.606  0.5619  0.6767  0.0812
  964MOL0     C32914  -1.238   1.485  10.752 -0.9819  0.3132  0.4538
  964MOL0     C32915  -1.144   1.365  10.750  0.4415  0.2271  0.3520
  964MOL0     C32916  -1.108   1.303  10.886  0.5245  0.2753  0.2757
  964MOL0     C32917  -0.989   1.222  10.872  0.3436  0.3429  0.1000
  964MOL0     O32918  -0.879   1.314  10.861 -0.0868  0.0948 -0.6715
  964MOL0     C32919  -0.755   1.267  10.834 -0.1051  0.6526  0.0754
  964MOL0     C32920  -0.659   1.368  10.853  0.8984 -0.2513 -0.4963
  964MOL0     C32921  -0.522   1.336  10.834 -0.5325 -1.0172  0.3806
  964MOL0     C32922  -0.431   1.448  10.865  0.2863  0.2058  0.1432
  964MOL0     C32923  -0.479   1.197  10.808  0.2115 -0.2703  0.6433
  964MOL0     C32924  -0.338   1.149  10.793 -0.6048 -0.5087 -0.5580
  964MOL0     O32925  -0.239   1.230  10.831  0.5378  0.0998  0.2781
  964MOL0     C32926  -0.112   1.191  10.806 -0.1620 -0.2252 -0.0681
  964MOL0     C32927  -0.056   1.061  10.846 -0.0251  0.2525 -0.8775
  964MOL0     C32928   0.082   1.034  10.818  0.7401  0.2820  0.0173
  964MOL0     C32929   0.153   1.121  10.745  0.0546  0.3940  0.7260
  964MOL0     O32930   0.281   1.079  10.711 -0.2761 -0.3123 -0.5430
  964MOL0     C32931   0.371   1.171  10.653 -1.1518 -0.6104 -0.0740
  964MOL0     C32932   0.511   1.117  10.656  0.5816 -0.3726 -0.2426
  964MOL0     C32933   0.620   1.216  10.600  0.5832 -0.2621 -0.0456
  964MOL0     C32934   0.623   1.358  10.655 -0.0762 -0.6774  1.6991
  964MOL0     C32935   0.742   1.423  10.589  0.5242 -0.3869 -1.0113
  964MOL0     C32936   0.746   1.577  10.623  0.4577 -0.2398  0.4675
  964MOL0     C32937   0.830   1.654  10.530 -1.2897  0.4575  0.7095
  964MOL0     C32938   0.977   1.602  10.526  0.2397  0.0912 -0.0175
  964MOL0    Cl32939   1.059   1.655  10.675  0.7615 -0.3675  0.0778
  964MOL0     C32940   0.099   1.239  10.701  0.3679  0.2834  0.9140
  964MOL0     C32941  -0.030   1.273  10.733  0.6327 -0.1085 -0.3759
  964MOL0     O32942  -0.318   1.042  10.731 -0.6582 -0.1930  0.0892
  964MOL0     C32943  -0.584   1.099  10.794  1.2131  0.7868  0.3452
  964MOL0     C32944  -0.716   1.133  10.804  0.0382 -0.1191 -0.2918
  964MOL0     N32945  -1.322   1.459  10.503  0.5327  0.2203  0.7250
  964MOL0     N32946  -1.306   1.526  10.395  0.0193  0.4436  0.2863
  964MOL0     C32947  -0.121   1.701  10.571 -0.1555 -0.5055  0.0994
  964MOL0     C32948   0.007   1.659  10.529  0.1780 -0.0576 -0.2482
  964MOL0     C32949   0.366   1.468  10.369 -0.6009 -0.1923  0.6821
  964MOL0     C32950   0.478   1.560  10.357  0.3954  0.4745  0.3000
  964MOL0     C32951   0.578   1.523  10.263 -0.4352  0.2334 -0.7372
  964MOL0     C32952   0.568   1.414  10.182 -0.6596  0.4282  0.5250
  964MOL0     O32953   0.656   1.381  10.082 -0.0220 -0.0669 -0.4335
  964MOL0     C32954   0.792   1.407  10.118  0.1726 -0.6256  0.4644
  964MOL0     C32955   0.838   1.548  10.064 -0.6863  0.4119 -0.1303
  964MOL0     C32956   0.990   1.580  10.085 -0.4190  0.3692 -0.6470
  964MOL0     C32957   1.033   1.707  10.020  1.0685  0.0774  0.7822
  964MOL0     C32958   1.178   1.716  10.005  0.3730  0.7867 -0.9980
  964MOL0     C32959   1.299   1.717   9.982 -0.8047  0.6644  0.8173
  964MOL0     C32960   0.459   1.341  10.185 -0.2667 -0.3943  0.6020
  964MOL0     C32961   0.360   1.360  10.279  0.1370  0.0520  0.8054
  964MOL0     C32962   0.243   1.269  10.253  1.0516 -0.9331 -0.7834
  964MOL0     H32963  -0.094   1.376  10.378  1.7681  1.4257 -1.9232
  964MOL0     H32964  -0.290   1.421  10.482  1.6386 -0.7882 -2.1518
  964MOL0     H32965  -0.483   1.509  10.562 -2.0786  0.7035  0.9791
  964MOL0     H32966  -0.449   1.639  10.435 -0.6779 -0.2164 -0.3419
  964MOL0     H32967  -0.567   1.695  10.710  0.1736  2.3078  0.4534
  964MOL0     H32968  -0.561   1.789  10.559 -0.7446 -0.1158  0.1359
  964MOL0     H32969  -0.687   1.523  10.576  2.5512  1.3507  3.2599
  964MOL0     H32970  -0.782   1.663  10.631 -1.0942  0.6561 -1.0544
  964MOL0     H32971  -0.778   1.749  10.384 -0.2911  0.7095  1.9886
  964MOL0     H32972  -0.680   1.610  10.345  0.0667  1.6963 -1.6597
  964MOL0     H32973  -0.932   1.572  10.503  1.1804  0.4569  1.1043
  964MOL0     H32974  -0.868   1.455  10.383 -0.1296  0.0580  1.2516
  964MOL0     H32975  -0.929   1.609  10.196 -0.7378 -5.4437 -1.2763
  964MOL0     H32976  -1.066   1.538  10.258  1.0022 -1.7067 -2.7804
  964MOL0     H32977  -1.009   1.812  10.244  0.8548 -0.2208  0.6645
  964MOL0     H32978  -1.006   1.774  10.411  2.2135 -1.0688 -0.5863
  964MOL0     H32979  -1.254   1.837  10.347  0.0822 -0.2999  0.7718
  964MOL0     H32980  -1.239   1.698  10.233 -4.3486 -0.3168  0.9191
  964MOL0     H32981  -1.168   1.723  10.613 -0.9384  3.5752 -3.3385
  964MOL0     H32982  -1.321   1.453  10.815  0.5364 -1.6132  1.5583
  964MOL0     H32983  -1.198   1.571  10.807  1.5771 -1.9287  2.3317
  964MOL0     H32984  -1.191   1.285  10.691 -1.0120  1.7854 -0.7121
  964MOL0     H32985  -1.048   1.398  10.711  0.1339  2.3333  1.2240
  964MOL0     H32986  -1.087   1.382  10.959 -0.5900  0.5385  0.3329
  964MOL0     H32987  -1.187   1.239  10.925  0.5242  1.0729  1.6472
  964MOL0     H32988  -0.979   1.163  10.963  0.4233  1.6486  0.9742
  964MOL0     H32989  -1.002   1.161  10.782 -0.5057  3.3593 -1.9964
  964MOL0     H32990  -0.693   1.468  10.878  0.4802 -0.8856  1.7399
  964MOL0     H32991  -0.476   1.543  10.835 -1.7719 -0.7964 -0.1687
  964MOL0     H32992  -0.340   1.452  10.805  0.6806 -0.3847  0.6986
  964MOL0     H32993  -0.398   1.453  10.969 -0.7326  1.4598  0.4382
  964MOL0     H32994  -0.108   0.977  10.892 -1.2978  0.1723 -2.3528
  964MOL0     H32995   0.124   0.943  10.858 -1.7910  0.1572  2.7641
  964MOL0     H32996   0.335   1.184  10.550 -2.6536  2.7440  0.7485
  964MOL0     H32997   0.380   1.264  10.710 -2.4055 -1.1470  1.0380
  964MOL0     H32998   0.531   1.100  10.763  0.5730 -3.7969 -0.6754
  964MOL0     H32999   0.520   1.019  10.607 -0.1829  0.3120 -1.8145
  964MOL0     H33000   0.597   1.225  10.494  0.7157 -2.5884 -0.3339
  964MOL0     H33001   0.719   1.171  10.598  0.0341 -1.6096  0.8460
  964MOL0     H33002   0.640   1.352  10.763  0.5579 -2.0790  1.5375
  964MOL0     H33003   0.533   1.412  10.625 -0.1310 -1.6880 -0.0917
  964MOL0     H33004   0.826   1.376  10.641 -0.1714 -2.0684 -1.3162
  964MOL0     H33005   0.745   1.406  10.481 -1.7017  0.2085 -1.2073
  964MOL0     H33006   0.771   1.585  10.729 -1.4964  0.1521  0.9400
  964MOL0     H33007   0.648   1.624  10.613  0.0571  0.0096  4.3089
  964MOL0     H33008   0.820   1.759  10.558  1.0308  1.5953 -2.1145
  964MOL0     H33009   0.796   1.650  10.426 -1.6015  0.2165  0.8217
  964MOL0     H33010   1.023   1.648  10.437  1.0712  0.1548  0.4362
  964MOL0     H33011   0.974   1.493  10.515 -0.0246  0.1406 -0.4428
  964MOL0     H33012   0.159   1.291  10.627  1.6058 -1.5409  0.5642
  964MOL0     H33013  -0.074   1.364  10.691 -1.6475 -1.2768 -0.6985
  964MOL0     H33014  -0.569   0.999  10.756 -0.2134  0.2247  1.1909
  964MOL0     H33015  -0.785   1.051  10.787  0.2637 -0.3306 -0.1906
  964MOL0     H33016  -0.128   1.797  10.621 -0.9149 -1.8668  2.7850
  964MOL0     H33017   0.085   1.734  10.536 -0.7649  1.1821 -2.1167
  964MOL0     H33018   0.485   1.654  10.411  0.9482 -0.0803  1.2182
  964MOL0     H33019   0.667   1.584  10.275 -0.0549  0.0420 -2.3805
  964MOL0     H33020   0.811   1.401  10.225  3.6369 -0.4526 -0.0407
  964MOL0     H33021   0.867   1.338  10.078  3.2278  2.1221  1.0989
  964MOL0     H33022   0.772   1.626  10.104  2.2731  1.2928  3.6498
  964MOL0     H33023   0.820   1.542   9.956 -0.1615  0.4694 -0.2237
  964MOL0     H33024   0.997   1.601  10.192 -0.3456  0.0201 -0.5817
  964MOL0     H33025   1.062   1.500  10.064 -1.7129 -1.9256  2.7719
  964MOL0     H33026   1.011   1.793  10.084  2.0320  0.0849  1.1278
  964MOL0     H33027   0.980   1.724   9.926  0.2817  1.2884  1.4172
  964MOL0     H33028   1.404   1.716   9.961 -0.4938  2.2216  2.1315
  964MOL0     H33029   0.445   1.264  10.110  0.0415 -2.4147  2.4948
  964MOL0     H33030   0.193   1.260  10.351  2.1000  2.4658  0.1879
  964MOL0     H33031   0.181   1.316  10.176 -1.1080 -0.1763  1.2837
  964MOL0     H33032   0.281   1.172  10.220  2.2523 -0.3637 -1.1022
  965MOL0     O33033   6.238   2.150   6.661  0.1168 -0.5714 -0.6507
  965MOL0     C33034   6.255   2.223   6.563 -0.1873 -0.0253  0.6574
  965MOL0     O33035   6.375   2.272   6.517 -0.3231  0.2624 -0.1887
  965MOL0     C33036   6.478   2.288   6.602  0.1567  0.9855  0.0827
  965MOL0     C33037   6.597   2.305   6.535  0.6125  0.2390  0.4348
  965MOL0     C33038   6.722   2.318   6.604 -0.8322  1.1233 -0.1719
  965MOL0     C33039   6.726   2.318   6.744 -0.1701  0.3958  0.0944
  965MOL0     O33040   6.834   2.319   6.829  0.2637 -1.0226  0.2801
  965MOL0     C33041   6.968   2.349   6.790 -0.2298  0.5930  0.3056
  965MOL0     C33042   7.075   2.315   6.906  0.5190  0.0122 -0.2809
  965MOL0     C33043   7.211   2.343   6.853 -1.1536  0.0477 -0.2967
  965MOL0     C33044   7.327   2.295   6.936 -0.4167 -0.1158  0.7843
  965MOL0     C33045   7.327   2.348   7.076 -0.2235 -0.3835 -0.2756
  965MOL0     C33046   7.448   2.314   7.156  0.4671 -0.0158 -0.3155
  965MOL0     C33047   7.480   2.167   7.190  0.4182  0.7579  0.0755
  965MOL0     C33048   7.611   2.157   7.274 -0.3983 -0.7644  0.5864
  965MOL0     N33049   7.725   2.228   7.216  0.2573  0.9122 -0.2573
  965MOL0     C33050   7.779   2.218   7.085 -0.1103 -0.2498 -0.1749
  965MOL0     C33051   7.883   2.305   7.076  0.0905  0.1659  0.3460
  965MOL0     C33052   7.976   2.319   6.959  0.6068  0.2041  0.1963
  965MOL0     C33053   8.122   2.279   7.003 -0.6023 -0.0996  0.8336
  965MOL0     C33054   8.217   2.386   7.052 -0.5173 -0.0040 -0.4241
  965MOL0     C33055   8.351   2.326   7.100 -1.1784 -0.3762 -0.2352
  965MOL0     O33056   8.435   2.258   7.002 -0.4825  0.0827  0.0813
  965MOL0     C33057   8.566   2.237   7.039 -0.0975 -1.1271  0.3188
  965MOL0     C33058   8.616   2.258   7.163  0.0253  0.0874  0.0604
  965MOL0     C33059   8.751   2.221   7.189  0.0708  1.0219 -0.5595
  965MOL0     C33060   8.797   2.227   7.333  0.5621  0.1453 -1.0218
  965MOL0     C33061   8.835   2.176   7.081  0.8971  0.0111 -0.0747
  965MOL0     C33062   8.985   2.155   7.106  0.4796  0.8891  0.1093
  965MOL0     O33063   9.045   2.174   7.232 -0.0771  0.2094 -0.0956
  965MOL0     C33064   9.171   2.118   7.239  0.5896  0.8240 -0.5226
  965MOL0     C33065   9.202   1.979   7.279 -0.0852 -0.7940  0.8612
  965MOL0     C33066   9.333   1.939   7.294 -0.0822 -0.1351 -0.1971
  965MOL0     C33067   9.437   2.031   7.282  0.2197 -0.2668 -0.6396
  965MOL0     O33068   9.570   2.000   7.300 -0.4655 -0.3159  0.4760
  965MOL0     C33069   9.607   1.876   7.366  0.0620  1.0894  0.6078
  965MOL0     C33070   9.758   1.865   7.356  0.6831  0.1314 -0.6839
  965MOL0     C33071   9.814   1.976   7.437 -0.0364 -0.5274 -0.2461
  965MOL0     C33072   9.963   1.976   7.446 -0.0011 -0.0760  0.4854
  965MOL0     C33073  10.008   2.082   7.535  0.4244  0.1608 -0.1167
  965MOL0     C33074   9.927   2.218   7.548 -0.4421  1.2687  0.1249
  965MOL0     C33075   9.961   2.277   7.683 -0.9973 -0.9004  0.4396
  965MOL0     C33076   9.867   2.389   7.710  0.1742 -0.0513  0.2835
  965MOL0    Cl33077   9.702   2.331   7.746  0.2082 -0.3016  0.2391
  965MOL0     C33078   9.415   2.163   7.246  0.8437 -0.4149 -0.3561
  965MOL0     C33079   9.280   2.214   7.227 -0.1377  0.5922  0.3130
  965MOL0     O33080   9.044   2.101   7.009  0.5456  0.8222  0.2471
  965MOL0     C33081   8.781   2.167   6.951 -0.6227 -0.1618  0.1091
  965MOL0     C33082   8.645   2.209   6.930  0.1718  0.7082  0.2728
  965MOL0     N33083   7.883   2.389   7.191 -0.6445  0.4611  0.0730
  965MOL0     N33084   7.785   2.335   7.260  0.2865 -0.1060 -0.6035
  965MOL0     C33085   6.603   2.311   6.805 -0.3832 -0.4741 -0.3051
  965MOL0     C33086   6.481   2.294   6.743 -0.0539  0.7941  0.7482
  965MOL0     C33087   6.129   2.226   6.486  0.7774 -0.0918 -0.4608
  965MOL0     C33088   6.008   2.216   6.560  0.4383  0.3917 -0.0284
  965MOL0     C33089   5.887   2.250   6.497 -0.1764 -0.3084  0.2272
  965MOL0     C33090   5.886   2.282   6.362  0.6599  0.2671  0.6292
  965MOL0     O33091   5.770   2.321   6.290  0.2149  0.3504 -0.2652
  965MOL0     C33092   5.646   2.339   6.366 -0.7519  0.2839 -0.7179
  965MOL0     C33093   5.540   2.385   6.269 -0.1199 -0.8567 -0.2942
  965MOL0     C33094   5.403   2.411   6.329 -0.5641 -0.6469  0.3850
  965MOL0     C33095   5.298   2.442   6.225  0.2408  0.3461 -0.2438
  965MOL0     C33096   5.166   2.478   6.285 -0.1095  0.2642 -0.2918
  965MOL0     C33097   5.065   2.503   6.336  0.2089  0.6732 -0.5504
  965MOL0     C33098   6.007   2.284   6.292  0.5415  0.1590  0.0227
  965MOL0     C33099   6.127   2.254   6.350  0.6139 -0.5056 -0.5778
  965MOL0     C33100   6.243   2.255   6.262 -0.2582  0.0204 -0.2454
  965MOL0     H33101   6.585   2.307   6.427  0.0652  1.8219  0.4971
  965MOL0     H33102   6.819   2.327   6.555  0.1921  1.1659  1.7686
  965MOL0     H33103   6.981   2.453   6.758  1.3681  0.2237 -0.3415
  965MOL0     H33104   7.000   2.284   6.708 -0.0448 -0.7821  1.4176
  965MOL0     H33105   7.051   2.365   7.000  1.2212 -0.6599  0.2724
  965MOL0     H33106   7.062   2.209   6.931 -0.0141  0.0913 -0.2130
  965MOL0     H33107   7.220   2.287   6.760 -3.6918 -0.3646 -0.3589
  965MOL0     H33108   7.234   2.448   6.834  2.6454  0.4877  4.6398
  965MOL0     H33109   7.324   2.186   6.938  0.6678 -0.1434  1.6617
  965MOL0     H33110   7.422   2.324   6.890 -0.1698 -1.0029  0.7222
  965MOL0     H33111   7.239   2.317   7.133 -2.4122  4.3488 -0.5938
  965MOL0     H33112   7.314   2.457   7.073  1.0050 -0.1924  0.6751
  965MOL0     H33113   7.536   2.361   7.112  1.8572 -0.1058  2.1468
  965MOL0     H33114   7.450   2.363   7.254  0.7161 -0.3753 -0.1374
  965MOL0     H33115   7.499   2.123   7.092  2.3269 -0.1332  0.8027
  965MOL0     H33116   7.398   2.109   7.234  0.9685 -1.8648 -2.0683
  965MOL0     H33117   7.595   2.186   7.378 -1.3466 -1.0761  0.5400
  965MOL0     H33118   7.650   2.056   7.266 -2.2281 -1.4718  0.1012
  965MOL0     H33119   7.751   2.136   7.020 -0.2192 -0.9253  0.7006
  965MOL0     H33120   7.978   2.419   6.916  2.4174  0.0654 -0.1225
  965MOL0     H33121   7.942   2.256   6.877  0.0589 -2.0147  1.9967
  965MOL0     H33122   8.108   2.196   7.072 -0.8656 -1.2819 -0.5926
  965MOL0     H33123   8.172   2.222   6.924 -0.5034 -0.3715  1.0903
  965MOL0     H33124   8.236   2.457   6.971 -0.2640 -0.2371 -0.5747
  965MOL0     H33125   8.169   2.435   7.137  2.0525  1.9575  0.0071
  965MOL0     H33126   8.394   2.416   7.145 -3.0184  0.1968  0.5105
  965MOL0     H33127   8.335   2.260   7.186  1.3492 -0.5105  0.1959
  965MOL0     H33128   8.560   2.282   7.254  1.1745 -0.0984  0.8393
  965MOL0     H33129   8.853   2.137   7.360  0.5433 -0.4811 -2.8894
  965MOL0     H33130   8.707   2.235   7.394  0.4804  3.8394 -1.4289
  965MOL0     H33131   8.866   2.310   7.346 -0.5811  1.1124 -1.0279
  965MOL0     H33132   9.123   1.904   7.281 -0.2797 -0.8487 -2.8592
  965MOL0     H33133   9.363   1.840   7.328 -1.2038 -0.5060 -0.2497
  965MOL0     H33134   9.567   1.861   7.466 -2.4836  0.0351 -0.4609
  965MOL0     H33135   9.565   1.795   7.305 -3.5156  0.0445  4.0809
  965MOL0     H33136   9.784   1.769   7.401 -2.2979 -0.8666 -0.8534
  965MOL0     H33137   9.794   1.878   7.253  2.6499  0.5868  0.0138
  965MOL0     H33138   9.782   1.967   7.541 -1.9467 -1.8767 -0.9106
  965MOL0     H33139   9.782   2.075   7.401  2.4400 -0.0944 -1.4708
  965MOL0     H33140  10.003   2.007   7.349  0.3694  0.1724  0.7137
  965MOL0     H33141  10.004   1.877   7.470 -0.3264  0.3009  2.8665
  965MOL0     H33142  10.019   2.042   7.636  3.3823 -0.9956 -0.7641
  965MOL0     H33143  10.113   2.102   7.508  0.2268 -0.8185 -1.7865
  965MOL0     H33144   9.818   2.220   7.531 -0.3905  0.6151 -0.3615
  965MOL0     H33145   9.970   2.274   7.464  4.3720 -1.5098  0.3611
  965MOL0     H33146  10.061   2.320   7.691 -1.3954 -0.1700  1.9420
  965MOL0     H33147   9.944   2.203   7.762  0.0789  0.7312  2.2977
  965MOL0     H33148   9.873   2.458   7.625 -2.7044  1.1764  0.9535
  965MOL0     H33149   9.902   2.454   7.791 -0.5932  0.4476  0.2330
  965MOL0     H33150   9.504   2.221   7.229  0.0605  0.1452 -2.9000
  965MOL0     H33151   9.253   2.318   7.213  0.1938  0.5565 -0.6882
  965MOL0     H33152   8.843   2.126   6.872 -0.6008 -0.7565  0.4358
  965MOL0     H33153   8.597   2.210   6.832 -0.5752  1.7160  0.6253
  965MOL0     H33154   6.606   2.319   6.913  0.9973 -1.2921 -0.2636
  965MOL0     H33155   6.395   2.280   6.807 -0.1267 -1.6403  0.2137
  965MOL0     H33156   6.008   2.177   6.661  0.1012  0.9513  0.1892
  965MOL0     H33157   5.795   2.241   6.555 -0.2033  2.5681  0.7626
  965MOL0     H33158   5.619   2.248   6.420  3.9885 -1.8742 -1.4349
  965MOL0     H33159   5.675   2.426   6.426  2.4937 -0.5554 -0.8980
  965MOL0     H33160   5.521   2.321   6.182 -1.8866 -1.7527  0.6945
  965MOL0     H33161   5.573   2.484   6.239 -1.8270 -0.9407 -2.7854
  965MOL0     H33162   5.375   2.320   6.383 -1.8001 -0.1503  0.5975
  965MOL0     H33163   5.416   2.498   6.395  2.1833 -0.7348  0.1044
  965MOL0     H33164   5.283   2.353   6.163 -1.4238  1.8608 -2.1372
  965MOL0     H33165   5.332   2.519   6.155  0.9056 -0.1013 -0.4247
  965MOL0     H33166   4.979   2.539   6.388 -0.0821  2.7823 -2.3568
  965MOL0     H33167   6.001   2.311   6.187 -2.6681  2.9649  0.7439
  965MOL0     H33168   6.283   2.357   6.261 -0.4489  0.2089  2.6866
  965MOL0     H33169   6.319   2.182   6.292  1.3036  1.6181 -0.1556
  965MOL0     H33170   6.210   2.220   6.164  3.4716  0.8747 -2.0023
  966MOL0     O33171   7.720   7.845   7.457  0.2770  0.2966  0.1466
  966MOL0     C33172   7.713   7.957   7.406 -0.7640  0.3545 -0.7754
  966MOL0     O33173   7.822   8.050   7.396  0.2066 -0.4551 -0.2406
  966MOL0     C33174   7.955   8.029   7.424 -0.3108  0.5647 -0.5941
  966MOL0     C33175   8.006   7.933   7.514  0.0672  0.0212 -0.2348
  966MOL0     C33176   8.144   7.922   7.545  0.5402  0.1254 -0.5394
  966MOL0     C33177   8.230   8.013   7.486  0.1574  0.6089 -0.0569
  966MOL0     O33178   8.359   8.025   7.523 -0.0457 -0.3998 -0.2163
  966MOL0     C33179   8.398   7.975   7.649  1.0773  0.2853  1.0548
  966MOL0     C33180   8.549   7.981   7.658  0.1434  0.2253  0.7414
  966MOL0     C33181   8.616   8.112   7.673  1.0766  0.7410  0.1166
  966MOL0     C33182   8.762   8.106   7.647  0.6172 -0.2725  0.3249
  966MOL0     C33183   8.834   8.240   7.654  0.3178 -1.1383  0.3216
  966MOL0     C33184   8.974   8.222   7.601  0.4643  0.2297 -0.7041
  966MOL0     C33185   9.047   8.352   7.630  0.3905 -0.6288 -0.8995
  966MOL0     C33186   9.181   8.359   7.569  0.0027 -0.9278 -0.2917
  966MOL0     N33187   9.258   8.476   7.609 -0.5209  0.3230 -0.5974
  966MOL0     C33188   9.226   8.606   7.604 -0.3869 -0.2557  0.8665
  966MOL0     C33189   9.325   8.681   7.650 -0.6385 -0.8263 -0.7496
  966MOL0     C33190   9.337   8.840   7.652  0.2444  0.6430 -0.3575
  966MOL0     C33191   9.477   8.901   7.625  0.0510 -0.6657  0.0103
  966MOL0     C33192   9.566   8.879   7.742 -0.4560 -0.2302  0.7024
  966MOL0     C33193   9.706   8.923   7.694 -0.4584  0.4438  0.1313
  966MOL0     O33194   9.803   8.913   7.797  0.3765 -0.2752  0.8753
  966MOL0     C33195   9.941   8.938   7.783 -0.0109  0.2193  0.3013
  966MOL0     C33196  10.030   8.888   7.872 -0.0931 -0.6159  1.0827
  966MOL0     C33197  10.162   8.901   7.863 -0.5283 -0.5899  0.4441
  966MOL0     C33198  10.247   8.850   7.971  0.6295 -0.2047 -0.6383
  966MOL0     C33199  10.218   8.969   7.754  0.3256  0.2724 -0.7675
  966MOL0     C33200  10.362   8.990   7.725  0.2566 -0.0789 -0.0527
  966MOL0     O33201  10.405   9.123   7.720  0.4431 -0.7832  0.0806
  966MOL0     C33202  10.541   9.146   7.716 -0.5131  0.0229  0.6533
  966MOL0     C33203  10.614   9.134   7.600  0.0033  0.4655 -0.0617
  966MOL0     C33204  10.750   9.166   7.597  0.4709 -0.5198 -0.1791
  966MOL0     C33205  10.814   9.211   7.717  0.2907  0.4109 -0.5621
  966MOL0     O33206  10.948   9.254   7.712 -0.2089  0.5823 -0.0999
  966MOL0     C33207  11.003   9.303   7.835 -0.4365  0.1647  0.3045
  966MOL0     C33208  11.154   9.309   7.826  0.2048 -0.5241 -0.0301
  966MOL0     C33209  11.213   9.428   7.744  0.0016  1.3501  0.5422
  966MOL0     C33210  11.199   9.398   7.593  0.2765 -0.1339  0.8553
  966MOL0     C33211  11.285   9.493   7.507 -0.2111  0.1604  0.1954
  966MOL0     C33212  11.301   9.443   7.364  0.1226  1.1707  0.2859
  966MOL0     C33213  11.379   9.539   7.277 -0.1028 -0.1822 -0.7425
  966MOL0     C33214  11.442   9.466   7.151 -0.1009 -0.9851  0.2519
  966MOL0    Cl33215  11.317   9.427   7.029  0.0167  0.3800 -0.3054
  966MOL0     C33216  10.739   9.211   7.839  0.1907  0.8369  1.1330
  966MOL0     C33217  10.604   9.184   7.834  1.0677  0.3866 -0.1196
  966MOL0     O33218  10.440   8.899   7.720 -0.5123  0.2125  0.2885
  966MOL0     C33219  10.128   9.020   7.660 -1.3595 -0.1386  0.3819
  966MOL0     C33220   9.997   9.012   7.675 -0.0605  0.6157 -0.3765
  966MOL0     N33221   9.424   8.586   7.685 -0.2027 -0.1448 -0.3437
  966MOL0     N33222   9.383   8.466   7.666  0.4398  0.2746 -0.2202
  966MOL0     C33223   8.183   8.095   7.388  0.4440 -0.0554 -0.6622
  966MOL0     C33224   8.045   8.111   7.362 -0.2042 -0.6895 -0.3445
  966MOL0     C33225   7.588   8.004   7.360  0.3626 -0.2044  0.0869
  966MOL0     C33226   7.553   8.140   7.381 -0.4077  0.6618 -0.2107
  966MOL0     C33227   7.435   8.193   7.338  0.4846  1.1689  0.1049
  966MOL0     C33228   7.338   8.108   7.271  0.1760  0.0898 -0.3086
  966MOL0     O33229   7.212   8.154   7.247 -0.3935 -0.2235 -0.4266
  966MOL0     C33230   7.196   8.300   7.238 -0.0579  0.5172  0.8856
  966MOL0     C33231   7.047   8.319   7.192 -0.4843 -0.3324  0.1159
  966MOL0     C33232   6.948   8.238   7.275 -0.0688 -0.2248 -0.2510
  966MOL0     C33233   6.957   8.285   7.422  0.7646  0.0601  0.9418
  966MOL0     C33234   6.851   8.227   7.499 -0.8440  0.0722 -0.4538
  966MOL0     C33235   6.774   8.163   7.565 -0.7804 -0.3232 -0.0085
  966MOL0     C33236   7.371   7.973   7.248  0.3804  0.1529 -0.0270
  966MOL0     C33237   7.489   7.916   7.295 -0.7587 -0.4207  0.9051
  966MOL0     C33238   7.513   7.767   7.269 -0.4909  0.4753 -0.1640
  966MOL0     H33239   7.936   7.870   7.567 -0.5170  0.7325 -0.1617
  966MOL0     H33240   8.169   7.850   7.622 -1.4908 -0.6238 -0.5141
  966MOL0     H33241   8.380   7.867   7.651  1.4149  0.0290 -2.6132
  966MOL0     H33242   8.347   8.030   7.729 -0.2922  0.2903  0.2066
  966MOL0     H33243   8.585   7.913   7.736 -0.8504 -2.3026 -0.8801
  966MOL0     H33244   8.584   7.921   7.573 -1.8501 -0.9938  0.7152
  966MOL0     H33245   8.571   8.175   7.597 -0.1843  1.6850  1.5783
  966MOL0     H33246   8.590   8.141   7.776 -1.1713 -0.7787  0.0678
  966MOL0     H33247   8.807   8.042   7.724  2.9634  0.3169 -0.4630
  966MOL0     H33248   8.772   8.067   7.546 -1.2599 -0.6164  0.2471
  966MOL0     H33249   8.825   8.281   7.755  1.6277  1.3023 -0.4853
  966MOL0     H33250   8.781   8.309   7.588  1.2331  0.8422  1.5753
  966MOL0     H33251   9.027   8.139   7.650 -1.5239 -0.4127  0.4932
  966MOL0     H33252   8.980   8.212   7.493  0.8498 -0.7552 -0.6037
  966MOL0     H33253   9.056   8.368   7.738 -2.6410  0.9820 -0.7609
  966MOL0     H33254   8.980   8.434   7.599  2.1797  1.2879  0.0405
  966MOL0     H33255   9.242   8.273   7.598  4.0949  1.4313 -1.0378
  966MOL0     H33256   9.159   8.365   7.462  1.5766  0.5267 -0.5798
  966MOL0     H33257   9.140   8.649   7.552  0.5793 -0.9097 -1.4302
  966MOL0     H33258   9.287   8.876   7.742 -2.1032 -0.9243 -0.9311
  966MOL0     H33259   9.277   8.885   7.572  2.9646  2.1829 -1.6581
  966MOL0     H33260   9.523   8.859   7.535 -1.3515 -0.2503 -0.9212
  966MOL0     H33261   9.474   9.006   7.594 -0.1994  0.0772  2.3017
  966MOL0     H33262   9.531   8.948   7.819  0.5537  1.2523 -0.1154
  966MOL0     H33263   9.566   8.776   7.778  0.6922 -1.6473 -2.8815
  966MOL0     H33264   9.742   8.855   7.616 -0.9456 -0.0324  0.3127
  966MOL0     H33265   9.702   9.025   7.656 -2.1067  1.1578  2.0437
  966MOL0     H33266   9.987   8.830   7.953 -3.6555 -0.3968 -0.4776
  966MOL0     H33267  10.338   8.907   7.990 -0.6489  0.7732  3.7794
  966MOL0     H33268  10.273   8.748   7.941  0.4030 -0.6069  0.4545
  966MOL0     H33269  10.191   8.841   8.065 -0.9975 -0.8587 -1.6187
  966MOL0     H33270  10.561   9.094   7.514  0.3802 -0.7260  0.2368
  966MOL0     H33271  10.806   9.142   7.507  1.1822 -2.4394  0.7405
  966MOL0     H33272  10.960   9.401   7.854 -0.6160  0.3490 -0.9234
  966MOL0     H33273  10.985   9.230   7.914  1.2915  1.2883  1.8094
  966MOL0     H33274  11.190   9.320   7.928 -0.4880 -3.1104  0.5612
  966MOL0     H33275  11.190   9.216   7.780 -0.2445  0.1806 -1.9322
  966MOL0     H33276  11.313   9.449   7.783  0.5176 -1.3107  0.8433
  966MOL0     H33277  11.149   9.514   7.766 -1.4250  0.6897 -0.8250
  966MOL0     H33278  11.099   9.413   7.552  1.2217 -2.5282 -2.9206
  966MOL0     H33279  11.227   9.294   7.573 -1.1293 -0.2717 -0.6153
  966MOL0     H33280  11.250   9.597   7.511 -1.3672 -0.0675 -2.1496
  966MOL0     H33281  11.384   9.510   7.550  0.0284  5.3068 -1.7801
  966MOL0     H33282  11.204   9.439   7.315 -0.3306  1.7205  1.1124
  966MOL0     H33283  11.356   9.348   7.367  0.7483  1.5468  1.6200
  966MOL0     H33284  11.467   9.578   7.330  0.4297 -1.9614 -0.2484
  966MOL0     H33285  11.317   9.624   7.250 -0.5467 -0.7390 -1.5073
  966MOL0     H33286  11.493   9.375   7.182  2.9056  1.1801  2.2091
  966MOL0     H33287  11.530   9.519   7.113  0.6408 -0.0011  3.1034
  966MOL0     H33288  10.772   9.246   7.936 -0.0447  0.5309  1.3242
  966MOL0     H33289  10.538   9.194   7.919  0.5027  1.4355 -0.6614
  966MOL0     H33290  10.160   9.074   7.572 -3.4618  0.7831  0.1386
  966MOL0     H33291   9.939   9.051   7.592 -0.2153 -0.7640 -0.9482
  966MOL0     H33292   8.249   8.167   7.342 -1.0582  0.1233 -2.6685
  966MOL0     H33293   8.002   8.188   7.299 -0.1673  2.2384  2.9502
  966MOL0     H33294   7.622   8.208   7.431 -0.9139  1.7686 -0.9580
  966MOL0     H33295   7.406   8.295   7.362 -1.4288  1.0138 -1.2845
  966MOL0     H33296   7.216   8.344   7.336  0.2011 -1.6808  1.8896
  966MOL0     H33297   7.266   8.348   7.170  1.0177  1.8332  2.8575
  966MOL0     H33298   7.025   8.299   7.087 -2.4168  0.6599  0.2771
  966MOL0     H33299   7.029   8.425   7.211  1.4460 -0.2060  1.5444
  966MOL0     H33300   6.842   8.251   7.251 -0.5902 -0.3236  1.7846
  966MOL0     H33301   6.970   8.131   7.274 -1.9035 -0.6960  1.5890
  966MOL0     H33302   6.952   8.393   7.433 -1.0530  0.3035 -1.5070
  966MOL0     H33303   7.045   8.241   7.470  0.4999  0.2716  1.6355
  966MOL0     H33304   6.706   8.115   7.632  0.2680  2.9246  3.7620
  966MOL0     H33305   7.299   7.902   7.208  0.4717 -1.1465  1.9473
  966MOL0     H33306   7.452   7.744   7.181  1.8745  1.3156 -2.1428
  966MOL0     H33307   7.618   7.749   7.243 -0.7073  0.3697 -0.9976
  966MOL0     H33308   7.481   7.711   7.357 -0.4928  0.5641 -0.1073
  967MOL0     O33309   1.884   5.556   6.876  0.1993 -0.3876 -0.5258
  967MOL0     C33310   1.856   5.649   6.941  0.4827 -0.0391 -1.0149
  967MOL0     O33311   1.948   5.718   7.016 -0.0309  0.1735 -0.1723
  967MOL0     C33312   2.064   5.651   7.051  0.7554  0.2009 -0.2311
  967MOL0     C33313   2.182   5.716   7.030  0.2979  0.5321 -0.3232
  967MOL0     C33314   2.304   5.651   7.065 -1.0931  0.0639  0.3222
  967MOL0     C33315   2.306   5.532   7.127 -0.1742  1.2966 -0.7987
  967MOL0     O33316   2.429   5.477   7.173 -0.2386 -0.2728  0.4162
  967MOL0     C33317   2.439   5.365   7.261 -0.3810 -0.0067 -0.4403
  967MOL0     C33318   2.585   5.324   7.258  0.5794  0.3284 -0.0830
  967MOL0     C33319   2.611   5.220   7.137 -0.6197 -0.5323  0.5364
  967MOL0     C33320   2.763   5.186   7.122 -0.0693 -0.3796  0.0864
  967MOL0     C33321   2.843   5.308   7.064  0.5598  0.2678  0.3553
  967MOL0     C33322   2.993   5.268   7.025  0.0371  0.4486  0.2361
  967MOL0     C33323   3.103   5.379   7.030 -0.0404  1.1488  0.1756
  967MOL0     C33324   3.143   5.404   7.180  0.4840  0.6548 -0.3941
  967MOL0     N33325   3.256   5.498   7.185  0.0093 -0.1832  0.0662
  967MOL0     C33326   3.384   5.457   7.145 -0.7214 -0.1825  0.0579
  967MOL0     C33327   3.460   5.564   7.169  0.1819 -1.0862 -0.7412
  967MOL0     C33328   3.604   5.581   7.133  0.7265 -0.4803  0.8585
  967MOL0     C33329   3.678   5.476   7.206 -0.7258  0.3909 -0.0441
  967MOL0     C33330   3.827   5.459   7.164 -0.2413  0.4067  0.4786
  967MOL0     C33331   3.834   5.413   7.017  0.0692  0.0395  0.4822
  967MOL0     O33332   3.921   5.313   6.987 -0.2845  0.1156  0.3905
  967MOL0     C33333   4.057   5.332   6.979 -0.0030 -0.3585 -0.0555
  967MOL0     C33334   4.143   5.218   6.982 -0.3908  0.5098 -0.0208
  967MOL0     C33335   4.280   5.234   6.969  0.3250  0.5534 -0.0813
  967MOL0     C33336   4.361   5.106   6.962  0.7449  0.3741  0.2654
  967MOL0     C33337   4.334   5.362   6.955  0.9473 -0.0340 -0.1395
  967MOL0     C33338   4.478   5.394   6.939  0.9317  1.0654 -0.1734
  967MOL0     O33339   4.504   5.505   6.869  0.3368  0.8996 -0.4300
  967MOL0     C33340   4.639   5.515   6.832 -0.4848  0.5175  0.1938
  967MOL0     C33341   4.679   5.481   6.704 -0.3020  0.0186 -0.4858
  967MOL0     C33342   4.816   5.480   6.666 -0.0874  0.0530 -0.2986
  967MOL0     C33343   4.918   5.513   6.759 -0.8697 -0.4847 -0.2256
  967MOL0     O33344   5.054   5.509   6.716 -1.0777 -0.6618  0.0385
  967MOL0     C33345   5.160   5.496   6.829 -0.2201 -0.2130 -0.4975
  967MOL0     C33346   5.298   5.446   6.779 -0.3471 -0.1630 -0.0238
  967MOL0     C33347   5.372   5.535   6.684 -0.2257 -0.0491  0.8923
  967MOL0     C33348   5.375   5.682   6.723  0.2283 -0.5817 -0.1404
  967MOL0     C33349   5.481   5.769   6.665  0.3142 -1.0889  0.6872
  967MOL0     C33350   5.485   5.795   6.513  0.9694  0.4691 -0.3697
  967MOL0     C33351   5.379   5.898   6.457  0.9118  1.1250 -0.7947
  967MOL0     C33352   5.429   5.983   6.342 -0.3584 -0.1305  0.2547
  967MOL0    Cl33353   5.485   5.879   6.206 -0.4082  0.1640  0.0230
  967MOL0     C33354   4.875   5.560   6.885 -0.4606  0.3659  0.1137
  967MOL0     C33355   4.739   5.561   6.920  0.7312 -0.1907  0.0186
  967MOL0     O33356   4.560   5.311   6.977 -0.1315 -0.1150  0.1778
  967MOL0     C33357   4.249   5.474   6.958  0.2336  1.1254  0.4688
  967MOL0     C33358   4.114   5.459   6.976 -0.0688 -0.1796  0.7572
  967MOL0     N33359   3.384   5.662   7.241 -1.1564  0.4114  0.4175
  967MOL0     N33360   3.261   5.617   7.245 -1.1118  0.1888 -0.3184
  967MOL0     C33361   2.180   5.471   7.141  0.2109  0.7405 -0.0015
  967MOL0     C33362   2.066   5.535   7.111  0.9255  1.0403  0.2410
  967MOL0     C33363   1.722   5.715   6.921 -0.2979  1.0088 -0.3286
  967MOL0     C33364   1.717   5.858   6.924  0.7603 -1.2124  1.0988
  967MOL0     C33365   1.588   5.915   6.902 -0.2224 -0.2863 -0.8496
  967MOL0     C33366   1.469   5.836   6.888  0.0465  0.1719  0.3191
  967MOL0     O33367   1.348   5.906   6.876 -0.3167 -0.5034 -0.2074
  967MOL0     C33368   1.233   5.857   6.808 -0.3561 -0.2712  0.5312
  967MOL0     C33369   1.135   5.785   6.906 -0.2583 -0.3870 -0.0173
  967MOL0     C33370   1.013   5.737   6.824 -0.8476  1.2910  0.2343
  967MOL0     C33371   0.998   5.593   6.776 -0.4118  0.1802 -0.5979
  967MOL0     C33372   1.131   5.530   6.755 -0.0022 -0.1240  0.2078
  967MOL0     C33373   1.242   5.488   6.741 -0.7732  0.7913  0.2042
  967MOL0     C33374   1.483   5.699   6.879  0.6380  0.5100  0.0213
  967MOL0     C33375   1.609   5.637   6.893 -0.3631 -0.1776 -0.7025
  967MOL0     C33376   1.606   5.485   6.900 -0.4226 -0.6028  0.3493
  967MOL0     H33377   2.184   5.812   6.980  2.9855  0.1030 -1.2458
  967MOL0     H33378   2.397   5.705   7.048 -1.5971  0.8990  0.1325
  967MOL0     H33379   2.375   5.282   7.231 -0.1227  0.3651 -2.0904
  967MOL0     H33380   2.408   5.396   7.362  0.9173 -2.5721  0.8406
  967MOL0     H33381   2.647   5.414   7.249 -3.4362  3.2499 -1.0403
  967MOL0     H33382   2.616   5.276   7.352  3.5554  0.2535 -0.9810
  967MOL0     H33383   2.552   5.129   7.151  0.1047 -0.9445  0.9296
  967MOL0     H33384   2.574   5.270   7.046 -2.7900 -0.4181  1.4209
  967MOL0     H33385   2.802   5.154   7.219  0.0451  1.9773  0.8816
  967MOL0     H33386   2.761   5.099   7.056 -1.5762  0.0861 -0.5129
  967MOL0     H33387   2.853   5.390   7.136  2.8318  0.8265 -0.4729
  967MOL0     H33388   2.797   5.351   6.974 -1.9962  0.3143  1.6179
  967MOL0     H33389   3.028   5.186   7.088 -3.9035 -0.2971  1.7515
  967MOL0     H33390   2.997   5.232   6.922 -1.6193 -1.9628  0.9242
  967MOL0     H33391   3.084   5.470   6.973  0.1189  1.1916  0.1916
  967MOL0     H33392   3.197   5.338   6.994  0.1985  1.5910  0.2845
  967MOL0     H33393   3.058   5.443   7.236  0.5652 -0.0933  0.2638
  967MOL0     H33394   3.174   5.313   7.232 -0.6939  1.2193  1.3475
  967MOL0     H33395   3.395   5.366   7.086  1.1408 -0.1641  0.2970
  967MOL0     H33396   3.647   5.676   7.168  0.0993 -0.2004  0.8677
  967MOL0     H33397   3.624   5.569   7.026 -0.1984 -0.8535  0.7215
  967MOL0     H33398   3.688   5.503   7.311  0.6592  0.9799 -0.3051
  967MOL0     H33399   3.634   5.376   7.198  1.9826 -0.9340  0.2121
  967MOL0     H33400   3.891   5.548   7.178 -2.1369  1.8721  0.2248
  967MOL0     H33401   3.878   5.389   7.231  1.3077  1.1546  0.1299
  967MOL0     H33402   3.736   5.371   6.993  0.3209 -1.2340  1.5646
  967MOL0     H33403   3.857   5.503   6.959  3.2915  1.5662  3.7294
  967MOL0     H33404   4.094   5.122   6.974 -2.8496  1.7974 -3.0103
  967MOL0     H33405   4.302   5.014   6.966  1.9023 -0.3465  3.5786
  967MOL0     H33406   4.414   5.092   7.056 -0.7948 -1.5214  0.9101
  967MOL0     H33407   4.438   5.097   6.885 -0.6250  0.6630 -1.1904
  967MOL0     H33408   4.606   5.470   6.625 -0.2686 -0.0970 -0.5018
  967MOL0     H33409   4.839   5.440   6.568 -1.0971  0.2645 -0.6351
  967MOL0     H33410   5.181   5.594   6.873  2.1977 -0.5715 -0.7317
  967MOL0     H33411   5.125   5.430   6.909 -2.7191  0.6264 -0.8344
  967MOL0     H33412   5.368   5.425   6.860  1.8588  0.7729 -1.5762
  967MOL0     H33413   5.287   5.345   6.738  2.2211 -0.9954  1.1529
  967MOL0     H33414   5.324   5.524   6.586 -0.9347 -3.5345  1.5153
  967MOL0     H33415   5.474   5.497   6.680  0.4747  1.7197  1.2244
  967MOL0     H33416   5.389   5.695   6.831  3.3972  4.3912 -0.8245
  967MOL0     H33417   5.276   5.719   6.694  0.3541  0.8191  1.1023
  967MOL0     H33418   5.486   5.858   6.729 -1.2802 -1.2582  1.1017
  967MOL0     H33419   5.571   5.712   6.689  0.8684  0.2551  2.0146
  967MOL0     H33420   5.469   5.697   6.468 -0.2338 -0.8514  2.6122
  967MOL0     H33421   5.582   5.834   6.480  0.2420  0.6854 -2.3816
  967MOL0     H33422   5.347   5.971   6.532  0.7632  0.3765 -0.1282
  967MOL0     H33423   5.292   5.841   6.425  3.2174 -2.2654 -1.5784
  967MOL0     H33424   5.515   6.037   6.381 -1.6576  1.0934  1.4999
  967MOL0     H33425   5.345   6.042   6.305  0.0702  0.3591  0.0474
  967MOL0     H33426   4.940   5.604   6.960 -0.9414  0.7993  0.2817
  967MOL0     H33427   4.691   5.592   7.013  1.5186 -0.2857  0.4634
  967MOL0     H33428   4.278   5.577   6.938 -3.2237  2.1323 -0.0246
  967MOL0     H33429   4.058   5.552   6.973 -2.4509 -1.5374 -0.4404
  967MOL0     H33430   2.169   5.376   7.192 -1.1177  1.8128  1.8512
  967MOL0     H33431   1.967   5.491   7.124  0.0763  2.4532 -1.0581
  967MOL0     H33432   1.800   5.927   6.940  0.9042 -1.6305  2.2181
  967MOL0     H33433   1.562   6.020   6.907 -0.0482 -0.2758 -0.1768
  967MOL0     H33434   1.184   5.948   6.772 -0.0886 -0.6862 -0.9358
  967MOL0     H33435   1.257   5.793   6.722  1.9139  2.1145 -0.7490
  967MOL0     H33436   1.106   5.845   6.993 -0.8549  1.6847 -1.5562
  967MOL0     H33437   1.182   5.698   6.951 -0.8476 -0.5978  0.2111
  967MOL0     H33438   0.931   5.752   6.896 -0.1804  0.3186  1.2356
  967MOL0     H33439   0.993   5.804   6.740 -0.4221  1.6544  0.4184
  967MOL0     H33440   0.945   5.581   6.681 -0.8165  2.5746 -0.7444
  967MOL0     H33441   0.954   5.549   6.866  0.5703  1.8130  0.7367
  967MOL0     H33442   1.343   5.453   6.736 -0.5431  1.5029 -0.3105
  967MOL0     H33443   1.388   5.646   6.876  1.8514 -1.8748  0.7108
  967MOL0     H33444   1.506   5.443   6.910 -1.1371  1.0082  0.2718
  967MOL0     H33445   1.651   5.448   6.807 -2.2430  4.0036 -2.7424
  967MOL0     H33446   1.663   5.456   6.989  1.1450  1.5761  0.1515
  968MOL0     O33447  10.539   6.927   6.180 -0.1549 -0.0094  0.4811
  968MOL0     C33448  10.441   6.962   6.239  0.0527 -0.1852  0.8400
  968MOL0     O33449  10.361   6.877   6.308 -0.3575 -0.0878  0.0335
  968MOL0     C33450  10.348   6.753   6.270  0.1326 -0.2072 -0.3405
  968MOL0     C33451  10.324   6.663   6.376  0.1184 -0.2261  0.2371
  968MOL0     C33452  10.307   6.526   6.345 -0.0142  0.5066  0.1867
  968MOL0     C33453  10.294   6.476   6.212 -0.3821  0.4945 -0.3903
  968MOL0     O33454  10.266   6.343   6.192 -0.2382 -0.0157 -0.3476
  968MOL0     C33455  10.128   6.311   6.145  0.3635 -0.0497  0.4343
  968MOL0     C33456  10.141   6.239   6.009 -0.3729 -0.2729 -0.1808
  968MOL0     C33457  10.016   6.148   6.001  0.2524  0.3522 -0.7164
  968MOL0     C33458   9.881   6.218   5.988  0.4997 -1.0040  0.6851
  968MOL0     C33459   9.774   6.113   5.973 -0.0758  1.3696  0.8245
  968MOL0     C33460   9.633   6.171   5.973 -0.0595  0.4387  0.5695
  968MOL0     C33461   9.606   6.297   5.888  0.2908 -0.5359 -0.2357
  968MOL0     C33462   9.464   6.305   5.826  0.1214 -0.1344 -0.4418
  968MOL0     N33463   9.456   6.393   5.713  0.0628  0.7193 -0.1800
  968MOL0     C33464   9.531   6.500   5.675  0.3203  0.0069  0.3957
  968MOL0     C33465   9.487   6.532   5.551 -0.4097  0.1081  0.3739
  968MOL0     C33466   9.516   6.656   5.480  0.0589  0.8938 -0.0874
  968MOL0     C33467   9.505   6.785   5.559  0.8940  0.1059  0.1537
  968MOL0     C33468   9.476   6.913   5.477  0.5090 -0.0456  1.0478
  968MOL0     C33469   9.579   6.936   5.361  0.5241  0.0964  0.0528
  968MOL0     O33470   9.710   6.958   5.420  0.0875 -0.1357  1.0102
  968MOL0     C33471   9.825   6.938   5.340  0.4430 -0.5755  0.1673
  968MOL0     C33472   9.816   6.889   5.207 -0.3939 -0.5132 -0.1775
  968MOL0     C33473   9.937   6.854   5.136  0.3401 -0.1826 -0.7272
  968MOL0     C33474   9.905   6.798   5.006  0.2202 -0.2981 -0.8527
  968MOL0     C33475  10.063   6.851   5.203 -0.2479 -0.7129  0.4830
  968MOL0     C33476  10.189   6.807   5.142 -0.2600 -0.6908 -0.3109
  968MOL0     O33477  10.198   6.785   5.009  0.1023 -0.2697 -0.5780
  968MOL0     C33478  10.313   6.732   4.955  0.7116  0.5409  0.1570
  968MOL0     C33479  10.362   6.602   4.997  0.5199  0.1221 -0.4096
  968MOL0     C33480  10.474   6.549   4.926  0.3190  0.4919 -0.2828
  968MOL0     C33481  10.548   6.617   4.829  0.4459 -0.7684 -0.1275
  968MOL0     O33482  10.649   6.568   4.754  0.2403  0.7174 -0.7588
  968MOL0     C33483  10.663   6.428   4.759  0.0074  0.0567  0.0435
  968MOL0     C33484  10.729   6.385   4.642 -0.3554  0.1622 -0.2364
  968MOL0     C33485  10.774   6.242   4.663 -0.0666  0.0634 -0.8353
  968MOL0     C33486  10.837   6.183   4.535 -0.4076 -0.1425  0.4318
  968MOL0     C33487  10.862   6.032   4.552 -0.3540  0.1237  0.7411
  968MOL0     C33488  10.998   5.985   4.606  0.6774 -0.4518  0.0081
  968MOL0     C33489  11.114   5.994   4.503  0.3527  0.0314  0.0627
  968MOL0     C33490  11.201   6.110   4.528 -0.7018 -0.1220  0.4043
  968MOL0    Cl33491  11.345   6.105   4.429  0.2226 -0.3353 -0.0856
  968MOL0     C33492  10.500   6.746   4.807 -0.4738 -0.3411 -0.0828
  968MOL0     C33493  10.394   6.812   4.871  0.5865 -0.9647  1.4561
  968MOL0     O33494  10.274   6.771   5.222  0.1222 -0.2192 -0.5365
  968MOL0     C33495  10.063   6.891   5.338  0.2207 -0.6210  0.7929
  968MOL0     C33496   9.945   6.941   5.400  0.3149  0.0141  0.3358
  968MOL0     N33497   9.403   6.440   5.508  0.0044 -0.2447 -0.1082
  968MOL0     N33498   9.384   6.358   5.608  0.0657  0.2911  0.0387
  968MOL0     C33499  10.305   6.570   6.112  0.6202  0.1064 -0.3094
  968MOL0     C33500  10.331   6.704   6.139 -0.1377 -0.0589  0.2391
  968MOL0     C33501  10.419   7.109   6.245 -0.8642  0.2266  0.4311
  968MOL0     C33502  10.319   7.158   6.331  1.0841  0.5160 -0.8071
  968MOL0     C33503  10.293   7.298   6.345  0.5846  0.1846  0.6335
  968MOL0     C33504  10.376   7.390   6.283  0.2745  0.1045 -0.8374
  968MOL0     O33505  10.366   7.529   6.287 -0.6186  0.8846  0.4398
  968MOL0     C33506  10.282   7.576   6.388 -0.3451  0.5183 -0.0346
  968MOL0     C33507  10.288   7.721   6.420  0.5041 -0.1954  0.2584
  968MOL0     C33508  10.201   7.750   6.545  0.1990  0.6423  0.8836
  968MOL0     C33509  10.203   7.891   6.583  0.3852 -0.5274  0.0476
  968MOL0     C33510  10.108   7.959   6.491  0.7329 -0.2795  0.4587
  968MOL0     C33511  10.026   8.003   6.410 -0.7321  0.8321  0.3784
  968MOL0     C33512  10.470   7.341   6.201 -0.1478 -0.1249  0.2991
  968MOL0     C33513  10.496   7.203   6.179 -0.0713 -0.1113  0.2122
  968MOL0     C33514  10.593   7.170   6.067 -0.4921 -0.4118 -0.4456
  968MOL0     H33515  10.327   6.708   6.475 -0.9761  0.1498  0.1172
  968MOL0     H33516  10.294   6.467   6.436 -1.6824  1.9844  0.9722
  968MOL0     H33517  10.057   6.393   6.134 -1.5109 -1.4790  1.2801
  968MOL0     H33518  10.097   6.242   6.224 -2.0899 -0.3451 -0.6848
  968MOL0     H33519  10.141   6.307   5.923  0.4881  0.8786  0.7006
  968MOL0     H33520  10.237   6.188   6.005 -0.0657  0.2163  0.7506
  968MOL0     H33521  10.023   6.086   5.912 -1.9347 -0.6845 -0.2143
  968MOL0     H33522  10.016   6.089   6.093 -0.3635  0.7027 -0.4869
  968MOL0     H33523   9.867   6.274   6.081  1.5710  0.8701 -0.2248
  968MOL0     H33524   9.885   6.284   5.900 -0.5741 -2.5474 -0.5740
  968MOL0     H33525   9.792   6.040   6.053 -1.4424 -1.6091 -1.3604
  968MOL0     H33526   9.791   6.065   5.876 -0.0911  1.5814  0.7174
  968MOL0     H33527   9.563   6.091   5.948  2.4099 -1.1021 -2.0760
  968MOL0     H33528   9.614   6.201   6.077  2.6325  3.1440  0.4200
  968MOL0     H33529   9.673   6.286   5.803  0.0251  0.9074 -0.6618
  968MOL0     H33530   9.628   6.392   5.937  3.2053 -1.7126  0.9460
  968MOL0     H33531   9.442   6.202   5.796 -1.1517 -0.0183  0.0434
  968MOL0     H33532   9.396   6.345   5.901  1.1472 -0.5505  0.7562
  968MOL0     H33533   9.603   6.553   5.736 -1.0826  0.3559  1.8121
  968MOL0     H33534   9.446   6.661   5.396 -0.5253  3.7986  0.4869
  968MOL0     H33535   9.615   6.646   5.434 -1.6651  2.4860 -4.7534
  968MOL0     H33536   9.419   6.759   5.621  0.0963  1.2728 -0.4148
  968MOL0     H33537   9.586   6.801   5.630  1.3110 -0.1584 -0.2585
  968MOL0     H33538   9.381   6.896   5.425  0.1771 -1.8470  2.1475
  968MOL0     H33539   9.447   6.993   5.546  0.6927  2.4908 -1.6255
  968MOL0     H33540   9.582   6.850   5.293  0.0885 -0.1563  0.3521
  968MOL0     H33541   9.540   7.017   5.299 -1.7143 -0.7952  0.1818
  968MOL0     H33542   9.717   6.899   5.164  0.1415  3.2144 -0.9093
  968MOL0     H33543   9.959   6.859   4.933 -0.3521  1.4469  0.1279
  968MOL0     H33544   9.797   6.801   4.988 -0.5813 -1.1498  2.9917
  968MOL0     H33545   9.946   6.696   4.998  0.5996 -0.0672 -2.0421
  968MOL0     H33546  10.313   6.550   5.079 -0.2385  0.7875 -0.4235
  968MOL0     H33547  10.501   6.446   4.946  0.6250  0.5730 -0.2709
  968MOL0     H33548  10.721   6.401   4.847 -0.6000 -0.9027  0.1624
  968MOL0     H33549  10.566   6.377   4.755  0.5026 -0.8521 -0.6547
  968MOL0     H33550  10.663   6.390   4.555  2.6603 -0.5888 -2.7424
  968MOL0     H33551  10.816   6.449   4.624  1.4011 -2.2714 -0.9460
  968MOL0     H33552  10.693   6.182   4.706  1.7473 -1.4580  0.6220
  968MOL0     H33553  10.851   6.232   4.739  0.7165  1.9135 -1.3316
  968MOL0     H33554  10.938   6.224   4.522  0.2000 -2.3000 -2.7871
  968MOL0     H33555  10.775   6.199   4.446 -2.0149 -1.9008  1.1694
  968MOL0     H33556  10.782   5.996   4.617 -0.2587 -0.2305  0.6607
  968MOL0     H33557  10.858   5.997   4.449 -1.0800  1.2246  0.3781
  968MOL0     H33558  10.981   5.883   4.644 -2.0158  0.8723  2.7936
  968MOL0     H33559  11.023   6.043   4.696  0.4939  0.4643 -0.5245
  968MOL0     H33560  11.080   5.997   4.399  1.9280 -1.1147 -0.5217
  968MOL0     H33561  11.184   5.912   4.520  0.9749  0.9607  2.4005
  968MOL0     H33562  11.237   6.121   4.631  1.0975  1.2686 -0.3080
  968MOL0     H33563  11.150   6.203   4.504 -1.1130 -1.0385 -2.7086
  968MOL0     H33564  10.554   6.815   4.742  0.1412  0.6737  1.4255
  968MOL0     H33565  10.362   6.912   4.845 -1.9771 -1.3624  2.7860
  968MOL0     H33566  10.157   6.884   5.392  1.7305  2.5849 -1.0608
  968MOL0     H33567   9.949   6.971   5.505  0.0978  0.6718  0.1564
  968MOL0     H33568  10.289   6.530   6.012  1.5267  1.6128 -1.0902
  968MOL0     H33569  10.343   6.772   6.055 -1.4434  0.4368  0.4300
  968MOL0     H33570  10.241   7.097   6.375 -1.0810  3.5778 -0.0657
  968MOL0     H33571  10.209   7.328   6.408 -1.0298 -1.4844 -0.6282
  968MOL0     H33572  10.183   7.553   6.347  0.1548 -0.1301 -0.8941
  968MOL0     H33573  10.303   7.527   6.484 -2.0304 -0.3189 -0.0456
  968MOL0     H33574  10.234   7.767   6.337  0.5403 -2.0505 -0.8337
  968MOL0     H33575  10.393   7.752   6.414  0.8006 -1.3517 -0.7448
  968MOL0     H33576  10.095   7.724   6.532  0.2864  1.4690 -2.2147
  968MOL0     H33577  10.241   7.689   6.627 -0.3120  0.2742  0.8682
  968MOL0     H33578  10.305   7.926   6.569 -0.3656  1.6588 -0.3687
  968MOL0     H33579  10.171   7.905   6.687 -2.7825 -2.5290 -0.5201
  968MOL0     H33580   9.958   8.045   6.338 -2.5238  0.2632  1.6656
  968MOL0     H33581  10.520   7.423   6.149 -0.6895 -0.1467 -0.2740
  968MOL0     H33582  10.676   7.111   6.108  1.3009  3.9666  3.0285
  968MOL0     H33583  10.544   7.119   5.983 -2.5586  0.4537  0.1751
  968MOL0     H33584  10.639   7.264   6.035  1.3476 -0.9057  0.5791
  969MOL0     O33585   3.903  10.621   1.513  0.3171 -0.1406 -0.2200
  969MOL0     C33586   3.878  10.546   1.608 -1.1151 -0.2715  0.2437
  969MOL0     O33587   3.974  10.491   1.685  0.0381  0.2340 -0.8294
  969MOL0     C33588   4.100  10.483   1.637  0.4879 -0.0556 -0.4881
  969MOL0     C33589   4.145  10.460   1.512  0.1794 -0.8046 -0.2636
  969MOL0     C33590   4.279  10.442   1.481 -0.1152  0.2882  0.0683
  969MOL0     C33591   4.378  10.436   1.578  0.3408 -1.2165 -1.2026
  969MOL0     O33592   4.509  10.433   1.562 -0.5072 -0.4452  0.4524
  969MOL0     C33593   4.557  10.328   1.472 -0.6440 -0.1504 -0.1434
  969MOL0     C33594   4.710  10.334   1.475 -0.2435  0.5250 -0.6309
  969MOL0     C33595   4.767  10.198   1.427 -1.2202  0.5066 -1.4584
  969MOL0     C33596   4.919  10.187   1.473 -0.3231  0.9596 -0.4001
  969MOL0     C33597   4.985  10.097   1.374  0.6535 -0.2309  0.0402
  969MOL0     C33598   5.135  10.085   1.411 -0.2157  0.2374 -0.1531
  969MOL0     C33599   5.215  10.027   1.291  0.2698 -0.8004  0.0370
  969MOL0     C33600   5.193   9.888   1.251 -0.0900 -0.6605  1.0306
  969MOL0     N33601   5.258   9.840   1.132 -0.3968  0.3091  0.5121
  969MOL0     C33602   5.393   9.795   1.138  0.5242 -0.4095  1.0441
  969MOL0     C33603   5.419   9.750   1.011  0.3027  0.1801 -0.9037
  969MOL0     C33604   5.547   9.683   0.962 -0.4259  0.0551 -0.5636
  969MOL0     C33605   5.676   9.730   1.046 -0.3204 -0.7148 -1.0872
  969MOL0     C33606   5.804   9.668   0.982 -0.1319 -0.2744 -0.2259
  969MOL0     C33607   5.921   9.655   1.083 -0.0592 -0.5393 -0.0625
  969MOL0     O33608   5.987   9.778   1.107  0.4875  0.0577  0.7101
  969MOL0     C33609   6.092   9.772   1.181 -0.7565  0.8163  0.2792
  969MOL0     C33610   6.114   9.864   1.274  0.2543 -0.1897  0.4556
  969MOL0     C33611   6.232   9.876   1.344  0.9272 -0.3013 -0.0623
  969MOL0     C33612   6.235   9.987   1.446 -0.2963  0.3285 -0.4458
  969MOL0     C33613   6.339   9.783   1.322 -0.1060 -0.1861 -1.2169
  969MOL0     C33614   6.465   9.781   1.399  0.0817  1.0428  0.4850
  969MOL0     O33615   6.537   9.673   1.370  0.9565 -0.0359 -0.4665
  969MOL0     C33616   6.668   9.672   1.405  0.0186  0.1547 -0.6871
  969MOL0     C33617   6.771   9.709   1.310 -0.1900 -0.1379 -0.5789
  969MOL0     C33618   6.901   9.710   1.353 -0.2056 -0.4959  0.9701
  969MOL0     C33619   6.942   9.677   1.479 -0.6657  0.2982 -1.2835
  969MOL0     O33620   7.070   9.698   1.506 -0.2028 -0.4541  0.3148
  969MOL0     C33621   7.110   9.691   1.643 -0.1097 -0.5918 -1.1981
  969MOL0     C33622   7.241   9.767   1.664 -0.6320 -0.0352 -0.0842
  969MOL0     C33623   7.355   9.693   1.592 -0.2565 -0.4188 -0.2036
  969MOL0     C33624   7.488   9.775   1.592  0.3486 -0.1132  0.8076
  969MOL0     C33625   7.610   9.694   1.556 -0.1855 -0.4949  0.3487
  969MOL0     C33626   7.740   9.773   1.569 -0.9071  0.2898  0.5324
  969MOL0     C33627   7.873   9.695   1.566  0.4151  0.2609  0.4154
  969MOL0     C33628   7.981   9.800   1.590 -0.3040 -0.9917  0.4259
  969MOL0    Cl33629   8.147   9.733   1.589 -0.0378 -0.1733  0.0816
  969MOL0     C33630   6.845   9.624   1.574 -0.3677  0.3548  0.4644
  969MOL0     C33631   6.711   9.626   1.539  0.4949  0.4909  0.2906
  969MOL0     O33632   6.497   9.875   1.467 -0.0801  0.3662 -0.2488
  969MOL0     C33633   6.317   9.680   1.230  0.7053  0.4737  0.1222
  969MOL0     C33634   6.196   9.676   1.156 -0.2037 -0.0252  0.3467
  969MOL0     N33635   5.294   9.761   0.947 -0.0094  0.3252 -0.2670
  969MOL0     N33636   5.198   9.818   1.014  0.6455  0.6167  0.5303
  969MOL0     C33637   4.335  10.443   1.707  0.2380 -0.9714  0.2219
  969MOL0     C33638   4.201  10.468   1.735  0.5179  0.0680  0.4042
  969MOL0     C33639   3.736  10.515   1.646 -1.7098  0.1700 -0.1209
  969MOL0     C33640   3.641  10.545   1.550 -0.0610  0.1069 -0.9096
  969MOL0     C33641   3.510  10.510   1.584  0.6885 -0.5305 -0.1113
  969MOL0     C33642   3.476  10.460   1.702  0.5486  0.1619 -0.3468
  969MOL0     O33643   3.337  10.430   1.711  0.0110 -0.2280 -0.2694
  969MOL0     C33644   3.271  10.376   1.828  0.0099 -0.3220 -0.1298
  969MOL0     C33645   3.304  10.231   1.860 -0.6080  0.7827  0.2528
  969MOL0     C33646   3.278  10.139   1.739  0.2030  0.2705  0.0535
  969MOL0     C33647   3.314   9.996   1.764 -0.6754  0.8259  0.2759
  969MOL0     C33648   3.245   9.913   1.667  0.4542  0.9497  0.6579
  969MOL0     C33649   3.184   9.843   1.584 -0.1393  0.2116 -0.6785
  969MOL0     C33650   3.568  10.456   1.808 -0.3524 -0.0327  0.1629
  969MOL0     C33651   3.703  10.475   1.782 -0.1576  0.3998 -0.1389
  969MOL0     C33652   3.787  10.497   1.908  0.1920 -0.4690  0.5164
  969MOL0     H33653   4.071  10.448   1.433 -0.0902 -0.5395 -0.0557
  969MOL0     H33654   4.299  10.426   1.376 -0.6559  1.4580 -0.2250
  969MOL0     H33655   4.516  10.336   1.371 -0.1616  2.1072 -0.2042
  969MOL0     H33656   4.527  10.231   1.514 -2.7340  0.2063 -0.6717
  969MOL0     H33657   4.749  10.413   1.409  4.9803  0.2257  1.6052
  969MOL0     H33658   4.742  10.365   1.575 -1.7252  3.0196 -0.8341
  969MOL0     H33659   4.716  10.107   1.460  0.1784 -0.1159 -0.9460
  969MOL0     H33660   4.747  10.191   1.319 -0.5919  1.1741 -1.6270
  969MOL0     H33661   4.965  10.287   1.468  0.3812  0.9963  3.3721
  969MOL0     H33662   4.927  10.152   1.576 -0.7841 -1.9679 -1.2770
  969MOL0     H33663   4.968  10.132   1.272  1.3483 -0.7004 -0.2428
  969MOL0     H33664   4.942   9.997   1.384  2.6082 -1.2538 -1.1677
  969MOL0     H33665   5.180  10.182   1.436 -1.3955  0.2244  2.2881
  969MOL0     H33666   5.160  10.032   1.503  1.1150  3.3104  1.4360
  969MOL0     H33667   5.320  10.032   1.323  1.1224  2.0382 -2.6657
  969MOL0     H33668   5.206  10.093   1.204 -0.1763 -1.4102 -0.3793
  969MOL0     H33669   5.199   9.820   1.337 -5.7675 -0.6602  1.8178
  969MOL0     H33670   5.086   9.876   1.231 -0.1325  0.8192  0.2150
  969MOL0     H33671   5.460   9.805   1.223  1.5260 -0.8583  0.3341
  969MOL0     H33672   5.546   9.728   0.862 -1.9724  1.3813 -0.0002
  969MOL0     H33673   5.536   9.575   0.956  0.5206 -0.1110  0.2846
  969MOL0     H33674   5.689   9.839   1.044  1.2399 -0.8478  0.2562
  969MOL0     H33675   5.670   9.704   1.152 -1.4970  1.1154 -0.6562
  969MOL0     H33676   5.773   9.570   0.945  3.4181 -2.2029  1.3631
  969MOL0     H33677   5.836   9.730   0.898 -1.3874 -0.5076 -0.8951
  969MOL0     H33678   5.869   9.609   1.168 -0.1556 -0.4465 -0.0695
  969MOL0     H33679   5.982   9.578   1.036  0.3828 -0.4496  0.3552
  969MOL0     H33680   6.032   9.928   1.305  0.1825 -0.2397  0.3691
  969MOL0     H33681   6.306  10.067   1.426 -0.5991  0.4890 -0.8967
  969MOL0     H33682   6.268   9.950   1.543 -1.2141  0.7576  0.0431
  969MOL0     H33683   6.135  10.030   1.460 -0.2259 -0.3893  3.0273
  969MOL0     H33684   6.733   9.748   1.216  1.0923  0.0553 -1.0250
  969MOL0     H33685   6.977   9.745   1.284  1.3746 -0.2073  2.7963
  969MOL0     H33686   7.038   9.733   1.714  0.9280 -1.6564  0.5457
  969MOL0     H33687   7.128   9.586   1.666 -0.5056 -0.4278 -0.0675
  969MOL0     H33688   7.214   9.860   1.612 -3.1973 -0.7201 -0.0982
  969MOL0     H33689   7.272   9.786   1.767  3.8301 -1.8382 -0.8580
  969MOL0     H33690   7.323   9.644   1.500  3.0983 -0.5453 -1.4334
  969MOL0     H33691   7.382   9.604   1.649  0.1415 -1.3285 -1.7423
  969MOL0     H33692   7.502   9.833   1.683 -0.0660  0.9346  0.2263
  969MOL0     H33693   7.494   9.848   1.511 -0.1219 -0.7897  0.1463
  969MOL0     H33694   7.619   9.617   1.632 -0.2509 -1.0110 -0.1641
  969MOL0     H33695   7.597   9.638   1.463 -0.1517  0.5814 -0.3282
  969MOL0     H33696   7.729   9.835   1.658 -1.0644 -0.5223  1.0958
  969MOL0     H33697   7.746   9.841   1.484 -1.8334  0.8672  0.9155
  969MOL0     H33698   7.883   9.644   1.470  0.3418 -1.7484  1.4120
  969MOL0     H33699   7.886   9.621   1.646 -1.2188 -1.7457 -1.0593
  969MOL0     H33700   7.969   9.853   1.685 -0.0900 -0.1567  0.0001
  969MOL0     H33701   7.963   9.873   1.510 -1.3106 -1.0542  0.5895
  969MOL0     H33702   6.865   9.579   1.671 -0.5527 -0.4986  0.1084
  969MOL0     H33703   6.635   9.602   1.612  2.2617  1.1277  2.4425
  969MOL0     H33704   6.384   9.601   1.200  2.3385  1.7239  0.3074
  969MOL0     H33705   6.185   9.607   1.073  0.5272  0.4929 -0.2034
  969MOL0     H33706   4.401  10.435   1.794 -0.1226  1.3398  0.7597
  969MOL0     H33707   4.177  10.472   1.840 -0.6484 -1.5913  0.2525
  969MOL0     H33708   3.658  10.586   1.451  1.1529 -0.2596 -0.8649
  969MOL0     H33709   3.436  10.530   1.507  2.0339  2.4264 -0.8018
  969MOL0     H33710   3.286  10.432   1.921 -4.5713 -2.9900  2.5700
  969MOL0     H33711   3.162  10.383   1.827 -0.1665 -2.4010  0.1766
  969MOL0     H33712   3.240  10.216   1.948 -1.9406  2.8845 -0.2897
  969MOL0     H33713   3.407  10.217   1.893 -0.5596 -0.6567 -0.4399
  969MOL0     H33714   3.172  10.152   1.716  0.7834  5.3620 -1.0382
  969MOL0     H33715   3.327  10.170   1.647 -0.4254  1.0533 -0.0296
  969MOL0     H33716   3.278   9.962   1.861 -1.0621  0.4541  0.0083
  969MOL0     H33717   3.423   9.989   1.753 -0.9508  0.5835 -4.3168
  969MOL0     H33718   3.128   9.767   1.533  0.3545  0.1342 -1.1180
  969MOL0     H33719   3.528  10.428   1.905  0.2098 -1.6421 -0.0474
  969MOL0     H33720   3.722  10.512   1.994 -0.8779  0.3037 -0.3919
  969MOL0     H33721   3.854  10.415   1.933 -2.1585 -1.4000  4.7355
  969MOL0     H33722   3.839  10.591   1.887 -0.1190 -0.6012 -0.9479
  970MOL0     O33723   3.451   5.455   1.997  0.1168 -0.0971 -0.0351
  970MOL0     C33724   3.437   5.404   1.888  0.1644  0.2340  0.4840
  970MOL0     O33725   3.540   5.351   1.807 -0.0550  0.2809  0.7762
  970MOL0     C33726   3.665   5.355   1.863  0.1260  0.2069 -0.1427
  970MOL0     C33727   3.700   5.265   1.960 -0.2807  0.4248 -0.6954
  970MOL0     C33728   3.827   5.269   2.019 -0.5383 -0.7165  0.8240
  970MOL0     C33729   3.923   5.355   1.967 -0.5979  0.0336 -0.0995
  970MOL0     O33730   4.052   5.365   2.010  0.0989  0.7365  0.7051
  970MOL0     C33731   4.096   5.290   2.121  0.5027 -0.0651  0.7031
  970MOL0     C33732   4.130   5.141   2.094 -0.4555 -1.0095 -0.1087
  970MOL0     C33733   4.148   5.061   2.221  0.3961 -0.1117  0.6438
  970MOL0     C33734   4.165   4.908   2.187 -0.6364  0.4344 -0.0528
  970MOL0     C33735   4.261   4.848   2.296 -0.5731  0.2037  0.1566
  970MOL0     C33736   4.291   4.701   2.267  1.0685  0.9711  0.3257
  970MOL0     C33737   4.362   4.639   2.391 -0.3157  0.3509  0.3253
  970MOL0     C33738   4.511   4.693   2.400 -0.5738 -0.0185  0.0678
  970MOL0     N33739   4.558   4.672   2.536  0.5371  0.8330  0.7192
  970MOL0     C33740   4.641   4.576   2.582  0.3968  0.3002  0.3244
  970MOL0     C33741   4.667   4.614   2.702  0.2431  0.9198 -0.2704
  970MOL0     C33742   4.748   4.525   2.793 -0.6426  0.5804  0.7166
  970MOL0     C33743   4.895   4.561   2.759  0.3998 -0.8008 -0.3132
  970MOL0     C33744   5.003   4.475   2.831  0.1638  1.0485  0.0939
  970MOL0     C33745   4.972   4.326   2.869 -0.7577 -0.2605  0.2105
  970MOL0     O33746   4.939   4.250   2.754  0.2648 -0.0926  1.0688
  970MOL0     C33747   5.031   4.191   2.665  0.0429 -0.6308 -0.1645
  970MOL0     C33748   4.979   4.142   2.544 -0.6496  0.2278  0.3365
  970MOL0     C33749   5.064   4.078   2.455  0.3403  1.0807  0.6708
  970MOL0     C33750   5.002   4.023   2.324  0.6587 -0.3885  0.6030
  970MOL0     C33751   5.200   4.051   2.478 -0.0974 -0.5842  0.2703
  970MOL0     C33752   5.286   3.982   2.379 -0.0971 -0.6031  0.1681
  970MOL0     O33753   5.401   3.937   2.436 -0.0162  0.1921  0.1188
  970MOL0     C33754   5.464   3.843   2.356  1.2941 -0.8430  0.7499
  970MOL0     C33755   5.597   3.860   2.322 -0.7373  0.2021 -0.1560
  970MOL0     C33756   5.665   3.759   2.255  0.0359  0.7003 -0.0210
  970MOL0     C33757   5.597   3.644   2.225  0.0501  0.7718 -0.0469
  970MOL0     O33758   5.641   3.546   2.139  0.1223  0.2976  0.3774
  970MOL0     C33759   5.763   3.560   2.056  0.1890  0.6857 -0.6183
  970MOL0     C33760   5.755   3.476   1.934  0.5740  0.2472 -1.2603
  970MOL0     C33761   5.769   3.323   1.964  0.1248  0.8410  0.4089
  970MOL0     C33762   5.838   3.281   2.092  0.5203  0.4283  0.4849
  970MOL0     C33763   5.856   3.127   2.102  0.3512  0.6013 -0.4633
  970MOL0     C33764   5.731   3.048   2.053  0.5731 -0.0281 -0.4360
  970MOL0     C33765   5.730   2.882   2.078 -0.0799 -0.2446  0.5147
  970MOL0     C33766   5.605   2.827   2.031 -0.1175  0.6781 -0.4735
  970MOL0    Cl33767   5.461   2.897   2.122  0.1131 -0.3080  0.0497
  970MOL0     C33768   5.470   3.617   2.271 -0.5784 -0.1329  0.0784
  970MOL0     C33769   5.406   3.716   2.342 -0.7138  0.2467 -0.1019
  970MOL0     O33770   5.263   3.980   2.257 -0.7882  0.5690  0.1307
  970MOL0     C33771   5.250   4.104   2.600  0.3331 -0.0518 -0.2443
  970MOL0     C33772   5.170   4.184   2.685  0.1678 -0.4175  0.6007
  970MOL0     N33773   4.592   4.725   2.734 -0.0140 -0.4327 -0.3657
  970MOL0     N33774   4.524   4.761   2.632 -0.5313 -0.5714  0.0490
  970MOL0     C33775   3.886   5.444   1.866 -0.3402 -0.0016  0.0629
  970MOL0     C33776   3.756   5.452   1.820 -0.2088 -0.3365 -0.3612
  970MOL0     C33777   3.306   5.411   1.825 -0.4326 -0.4527 -0.0269
  970MOL0     C33778   3.296   5.468   1.696  0.1236 -0.2083  0.1452
  970MOL0     C33779   3.178   5.473   1.627  0.3742  0.1244  0.1592
  970MOL0     C33780   3.061   5.415   1.680 -0.3569  0.3670  0.0640
  970MOL0     O33781   2.953   5.428   1.605 -0.2764  0.7626  0.0321
  970MOL0     C33782   2.822   5.416   1.665 -0.0154 -0.7953 -0.8681
  970MOL0     C33783   2.753   5.281   1.656  0.0222 -0.3157  0.0699
  970MOL0     C33784   2.615   5.283   1.729 -0.6010 -0.0270 -0.7844
  970MOL0     C33785   2.560   5.143   1.738 -0.0906 -0.4150 -0.5559
  970MOL0     C33786   2.503   5.097   1.615 -0.4729  0.2467  0.1080
  970MOL0     C33787   2.461   5.048   1.514 -0.9655 -1.2502 -0.3407
  970MOL0     C33788   3.066   5.368   1.816  0.2888 -0.2022 -0.1085
  970MOL0     C33789   3.185   5.370   1.888  0.2219  0.6677 -0.1624
  970MOL0     C33790   3.185   5.309   2.028 -1.0109  0.0603  0.5634
  970MOL0     H33791   3.634   5.188   1.997  1.8596 -0.4891  1.4329
  970MOL0     H33792   3.859   5.196   2.093 -1.2599 -1.5816  0.3048
  970MOL0     H33793   4.028   5.304   2.207  2.8489 -0.6970  2.7809
  970MOL0     H33794   4.185   5.342   2.156  0.7804  1.0280 -1.4759
  970MOL0     H33795   4.049   5.090   2.041 -1.2813 -0.1511  0.3000
  970MOL0     H33796   4.227   5.140   2.044  0.8417  2.0200  2.0157
  970MOL0     H33797   4.236   5.098   2.274 -0.9456  4.2025  0.2584
  970MOL0     H33798   4.059   5.077   2.282 -0.4679 -0.5091 -0.4638
  970MOL0     H33799   4.073   4.848   2.190 -0.2078 -0.2138  0.7352
  970MOL0     H33800   4.204   4.893   2.086 -0.4797 -2.5904  0.3571
  970MOL0     H33801   4.209   4.861   2.391  3.3639 -0.6831  2.6617
  970MOL0     H33802   4.348   4.914   2.295 -0.7050  0.4645 -2.6943
  970MOL0     H33803   4.203   4.640   2.246  0.4593  1.9422  0.0081
  970MOL0     H33804   4.356   4.692   2.180  0.9990  0.5201  0.3162
  970MOL0     H33805   4.366   4.530   2.381  1.2155  0.4498 -0.3383
  970MOL0     H33806   4.311   4.666   2.485 -1.1851 -1.1508  0.3230
  970MOL0     H33807   4.582   4.649   2.330  1.2186  0.5864  1.4517
  970MOL0     H33808   4.504   4.801   2.384 -2.8470 -0.0678  0.3057
  970MOL0     H33809   4.678   4.487   2.531 -0.9727 -1.1935  1.7962
  970MOL0     H33810   4.726   4.420   2.773  0.5970  0.0817  1.8454
  970MOL0     H33811   4.744   4.553   2.898  3.8317  0.2786  1.1647
  970MOL0     H33812   4.901   4.551   2.650  0.5859  0.2960 -0.4101
  970MOL0     H33813   4.911   4.668   2.773 -0.6471 -0.4230 -1.7220
  970MOL0     H33814   5.086   4.475   2.760 -0.7060 -0.0468 -0.9647
  970MOL0     H33815   5.032   4.520   2.926  1.2828 -1.7257  1.1953
  970MOL0     H33816   5.055   4.285   2.927 -0.1978  0.4480 -0.0733
  970MOL0     H33817   4.881   4.322   2.930 -0.9515 -0.6104 -0.0911
  970MOL0     H33818   4.875   4.161   2.522 -0.5157  1.8141  0.9117
  970MOL0     H33819   5.027   3.919   2.297 -0.4354 -0.9662  1.7189
  970MOL0     H33820   5.047   4.083   2.244 -1.1721 -2.1853 -1.9041
  970MOL0     H33821   4.894   4.033   2.312  0.3075 -1.2114  2.6169
  970MOL0     H33822   5.633   3.962   2.330  1.0650 -0.0977 -3.1084
  970MOL0     H33823   5.765   3.769   2.215  0.2309  1.7143  0.6978
  970MOL0     H33824   5.761   3.658   2.007  2.0764  0.1194 -1.9396
  970MOL0     H33825   5.859   3.548   2.107 -0.2467  1.3827  0.3858
  970MOL0     H33826   5.656   3.491   1.890  1.5497  1.0979 -3.3490
  970MOL0     H33827   5.832   3.511   1.864  2.7539 -1.9896 -0.1235
  970MOL0     H33828   5.820   3.282   1.877 -0.9983  0.8244 -0.2619
  970MOL0     H33829   5.662   3.298   1.970  0.7717 -3.9073 -2.5750
  970MOL0     H33830   5.777   3.318   2.175  0.9542  1.1125  0.5058
  970MOL0     H33831   5.940   3.319   2.093  0.9079 -0.3657 -2.1470
  970MOL0     H33832   5.944   3.088   2.050 -0.0728  0.7251 -1.2983
  970MOL0     H33833   5.877   3.102   2.206 -3.3619 -1.3777  0.0103
  970MOL0     H33834   5.731   3.076   1.947 -3.0784 -0.1886 -0.5952
  970MOL0     H33835   5.654   3.101   2.109 -2.6357 -2.8151 -1.8114
  970MOL0     H33836   5.739   2.875   2.187 -1.3507  0.7363  0.7048
  970MOL0     H33837   5.821   2.837   2.037  1.9592  3.0151  1.0262
  970MOL0     H33838   5.595   2.718   2.031  2.5024  0.3620 -1.6677
  970MOL0     H33839   5.603   2.842   1.923  0.1623 -2.3043 -0.9719
  970MOL0     H33840   5.398   3.539   2.249 -1.2082  0.2104  0.8721
  970MOL0     H33841   5.305   3.702   2.380  0.3324  0.8690  3.2409
  970MOL0     H33842   5.350   4.088   2.639 -0.8160 -0.8628  2.6630
  970MOL0     H33843   5.210   4.234   2.773  1.7479  0.6286 -0.6521
  970MOL0     H33844   3.966   5.508   1.832 -2.5459  2.2542 -1.2341
  970MOL0     H33845   3.736   5.521   1.738 -0.2269 -1.8015 -1.6275
  970MOL0     H33846   3.384   5.505   1.644 -0.8087  0.0558 -1.2875
  970MOL0     H33847   3.178   5.522   1.530 -1.6260  2.0857  1.0593
  970MOL0     H33848   2.821   5.453   1.767 -2.0093  0.9334 -1.4566
  970MOL0     H33849   2.755   5.491   1.623  1.1938  2.9875  3.2152
  970MOL0     H33850   2.822   5.208   1.698  2.1709  1.4899 -0.1095
  970MOL0     H33851   2.727   5.258   1.553 -2.1686  0.8847  0.2787
  970MOL0     H33852   2.620   5.320   1.832 -3.6016  1.5806 -1.1142
  970MOL0     H33853   2.547   5.351   1.676 -2.6999  1.9198  3.8728
  970MOL0     H33854   2.473   5.132   1.803 -1.5767 -2.7298 -2.7503
  970MOL0     H33855   2.642   5.080   1.777 -1.3861 -1.6937  0.2154
  970MOL0     H33856   2.429   5.005   1.421  1.2821  1.1859 -2.4221
  970MOL0     H33857   2.979   5.320   1.861 -0.4455  0.8872 -0.3177
  970MOL0     H33858   3.263   5.234   2.040 -0.2779  0.2488 -2.3050
  970MOL0     H33859   3.207   5.390   2.099 -2.0231  0.6795  0.2115
  970MOL0     H33860   3.086   5.272   2.057 -0.3602 -0.1537  2.6582
  971MOL0     O33861   4.751   9.235   1.400  0.0321  0.2732 -0.4475
  971MOL0     C33862   4.688   9.138   1.431 -0.0276 -0.1505 -0.3071
  971MOL0     O33863   4.735   9.035   1.499 -0.1940  0.5360  0.4059
  971MOL0     C33864   4.871   9.017   1.530  0.7091  0.6481  0.1514
  971MOL0     C33865   4.907   8.923   1.626  0.4119 -0.3332  0.0596
  971MOL0     C33866   5.037   8.909   1.667 -0.1342  0.5813 -0.1581
  971MOL0     C33867   5.139   8.975   1.600 -1.0649  0.7371 -0.6704
  971MOL0     O33868   5.276   8.961   1.623  0.3867 -0.6601 -0.4186
  971MOL0     C33869   5.317   8.872   1.720  0.0068 -0.3157  0.6199
  971MOL0     C33870   5.469   8.874   1.738 -0.2399  0.4593  0.0375
  971MOL0     C33871   5.535   8.736   1.735  0.5277  0.5033 -0.7487
  971MOL0     C33872   5.689   8.752   1.732  0.4374  0.3028  0.1666
  971MOL0     C33873   5.755   8.619   1.774  0.5576 -0.0041 -0.2351
  971MOL0     C33874   5.741   8.592   1.917  0.1400 -0.7156 -0.2337
  971MOL0     C33875   5.857   8.522   1.993  0.0086  0.4989 -0.5367
  971MOL0     C33876   5.858   8.565   2.131 -0.4674 -0.5598 -0.3993
  971MOL0     N33877   5.926   8.461   2.216  0.2230 -0.1537 -0.1611
  971MOL0     C33878   6.051   8.471   2.271  0.1994 -0.3912 -0.3389
  971MOL0     C33879   6.097   8.347   2.272 -0.7620 -0.1415  0.3470
  971MOL0     C33880   6.234   8.295   2.313 -1.3346 -0.3006  0.7142
  971MOL0     C33881   6.345   8.372   2.241  0.5503  0.5677 -0.2226
  971MOL0     C33882   6.340   8.380   2.084  0.6422 -0.0324  0.0269
  971MOL0     C33883   6.321   8.239   2.026 -0.1159  0.5350  0.4140
  971MOL0     O33884   6.405   8.147   2.092 -0.1338 -0.0972 -0.1576
  971MOL0     C33885   6.543   8.152   2.071 -0.2943 -0.0238 -0.6701
  971MOL0     C33886   6.600   8.236   1.976  0.1217  0.5220 -0.8800
  971MOL0     C33887   6.734   8.239   1.952 -0.1690  0.8476  0.7242
  971MOL0     C33888   6.783   8.340   1.846  0.1525 -0.7700  0.2582
  971MOL0     C33889   6.818   8.148   2.031 -0.2623  0.0912 -0.3528
  971MOL0     C33890   6.970   8.155   2.016 -0.2147 -0.6730 -0.6761
  971MOL0     O33891   7.045   8.052   2.076  0.1207  0.8005  0.0209
  971MOL0     C33892   7.182   8.047   2.068 -0.5351 -0.3218  0.2426
  971MOL0     C33893   7.255   8.026   2.190 -0.9323 -0.1212  0.8796
  971MOL0     C33894   7.400   8.010   2.184  0.9353 -0.7323 -0.7478
  971MOL0     C33895   7.471   8.001   2.065  0.7811  0.3561  0.0719
  971MOL0     O33896   7.608   7.991   2.069 -0.3144  0.2400 -0.0463
  971MOL0     C33897   7.675   8.072   2.162  0.3872 -0.5152  0.3176
  971MOL0     C33898   7.737   7.986   2.266  0.3493 -0.2934 -0.4545
  971MOL0     C33899   7.787   7.847   2.224  0.4548 -0.1276  0.4583
  971MOL0     C33900   7.865   7.783   2.344 -0.4682  0.7035  0.6029
  971MOL0     C33901   7.938   7.660   2.315 -0.3064  0.3834 -0.3375
  971MOL0     C33902   7.863   7.526   2.319 -0.2481 -0.9051  0.0071
  971MOL0     C33903   7.867   7.475   2.459 -0.7833 -0.5037 -1.3313
  971MOL0     C33904   7.787   7.351   2.472  0.0012  0.4464  0.2650
  971MOL0    Cl33905   7.871   7.230   2.373  0.2701  0.1303 -0.4617
  971MOL0     C33906   7.389   8.001   1.953 -0.1687 -0.5275  0.1555
  971MOL0     C33907   7.249   8.035   1.948  0.1594  0.1467  0.2693
  971MOL0     O33908   7.017   8.262   1.968  0.2257 -0.1579 -0.5875
  971MOL0     C33909   6.757   8.066   2.124  0.2879 -0.1260 -1.2356
  971MOL0     C33910   6.625   8.063   2.143 -0.1423  0.8584 -0.1806
  971MOL0     N33911   5.994   8.261   2.237  0.4725  0.3070  0.0496
  971MOL0     N33912   5.891   8.335   2.218  0.1897  0.5897  0.1840
  971MOL0     C33913   5.111   9.052   1.494  0.3020 -0.2890  0.1938
  971MOL0     C33914   4.979   9.079   1.454  0.2351  0.5412 -0.4110
  971MOL0     C33915   4.542   9.131   1.402 -0.4797 -0.0392  0.6108
  971MOL0     C33916   4.465   9.017   1.447 -0.4311  0.8765 -0.2339
  971MOL0     C33917   4.332   8.999   1.426  0.0807  0.1516 -0.7736
  971MOL0     C33918   4.260   9.110   1.374  0.3102  0.6039  0.1495
  971MOL0     O33919   4.131   9.079   1.367  0.0599  0.6568 -0.4387
  971MOL0     C33920   4.035   9.170   1.306 -0.0590 -0.8817  0.4846
  971MOL0     C33921   3.999   9.282   1.404  0.6172 -0.7093  0.0529
  971MOL0     C33922   3.889   9.386   1.359  0.4346 -0.2063 -0.0291
  971MOL0     C33923   3.746   9.322   1.358 -0.3235 -0.1735 -0.2706
  971MOL0     C33924   3.644   9.432   1.366 -0.6105 -1.1953 -0.1634
  971MOL0     C33925   3.554   9.517   1.358 -0.1206  0.9809  1.4562
  971MOL0     C33926   4.332   9.226   1.329  0.4322 -0.3682 -0.7860
  971MOL0     C33927   4.471   9.236   1.343  0.1317 -0.3816 -0.0891
  971MOL0     C33928   4.537   9.357   1.279  0.3890  1.1127  0.9530
  971MOL0     H33929   4.827   8.871   1.679  1.0296 -1.2863  0.0761
  971MOL0     H33930   5.067   8.837   1.743  1.1458 -1.3045 -2.3431
  971MOL0     H33931   5.286   8.774   1.682  1.5274 -1.4192  2.0582
  971MOL0     H33932   5.265   8.888   1.814 -1.2046 -2.0959  0.2974
  971MOL0     H33933   5.505   8.931   1.651 -1.5605  1.6840  0.2463
  971MOL0     H33934   5.495   8.926   1.831  1.1119 -1.5573  0.8550
  971MOL0     H33935   5.508   8.680   1.825  0.4870  2.3318  0.4352
  971MOL0     H33936   5.491   8.679   1.653 -1.8288  1.6067 -0.3406
  971MOL0     H33937   5.722   8.769   1.629  0.8977  0.1484  0.2872
  971MOL0     H33938   5.733   8.824   1.802 -0.4687 -0.5684  1.6641
  971MOL0     H33939   5.862   8.619   1.751  0.6139 -1.7329 -0.1042
  971MOL0     H33940   5.702   8.537   1.726  1.0009 -0.4034 -0.0483
  971MOL0     H33941   5.736   8.694   1.956  0.2839  0.1659 -2.3890
  971MOL0     H33942   5.639   8.555   1.930 -1.1276  2.6065  0.0930
  971MOL0     H33943   5.952   8.539   1.942 -0.8631 -0.5678 -2.6600
  971MOL0     H33944   5.846   8.413   1.994 -0.2814  0.4674  2.8489
  971MOL0     H33945   5.917   8.657   2.138  1.7372 -1.9268 -0.0280
  971MOL0     H33946   5.756   8.587   2.163 -0.4122  0.9323 -1.1700
  971MOL0     H33947   6.110   8.560   2.288 -0.8168  0.2236  0.0344
  971MOL0     H33948   6.249   8.191   2.285  1.6988  0.8097 -2.4402
  971MOL0     H33949   6.253   8.306   2.420  1.4993 -0.8866  0.3566
  971MOL0     H33950   6.356   8.473   2.282 -0.3593  0.6230 -0.1037
  971MOL0     H33951   6.438   8.320   2.265  1.1834  1.9633  0.4557
  971MOL0     H33952   6.260   8.444   2.046  0.9458  0.3042 -0.0466
  971MOL0     H33953   6.435   8.416   2.042 -0.4342 -0.3919 -3.0131
  971MOL0     H33954   6.216   8.210   2.024  0.0714 -0.1784 -2.0820
  971MOL0     H33955   6.352   8.235   1.921  0.4923 -1.0740  0.6300
  971MOL0     H33956   6.549   8.297   1.902  2.3043  1.7783 -1.4406
  971MOL0     H33957   6.822   8.435   1.882  1.5975  0.6272 -4.3082
  971MOL0     H33958   6.704   8.363   1.774  0.7862 -1.6270 -0.7405
  971MOL0     H33959   6.870   8.302   1.791  1.2763 -0.8107  1.9838
  971MOL0     H33960   7.192   8.033   2.278 -1.8611  0.4017  0.1997
  971MOL0     H33961   7.440   8.012   2.284 -0.7455  0.5403 -0.0706
  971MOL0     H33962   7.759   8.113   2.104  0.8484 -1.5778  0.2011
  971MOL0     H33963   7.625   8.157   2.208 -2.8461 -2.2589  0.2686
  971MOL0     H33964   7.830   8.040   2.285  0.6970 -0.4572 -1.6275
  971MOL0     H33965   7.666   7.972   2.348  0.4895 -0.9208 -0.4310
  971MOL0     H33966   7.866   7.872   2.153 -0.6036  0.9644 -0.3612
  971MOL0     H33967   7.707   7.788   2.178  2.1016 -1.6263 -0.6343
  971MOL0     H33968   7.795   7.762   2.425 -2.4830  0.7950 -1.0211
  971MOL0     H33969   7.937   7.861   2.370  0.6319  0.5986 -1.8787
  971MOL0     H33970   7.981   7.668   2.215  2.7642 -1.6737  0.6572
  971MOL0     H33971   8.025   7.646   2.380 -0.4506 -1.5148 -0.4714
  971MOL0     H33972   7.910   7.460   2.246  0.0088  0.8755 -1.5068
  971MOL0     H33973   7.761   7.540   2.284 -0.1864 -1.3647 -0.3691
  971MOL0     H33974   7.833   7.549   2.533 -0.0139 -1.3051 -0.1315
  971MOL0     H33975   7.971   7.452   2.486 -0.9853 -0.9502 -0.9188
  971MOL0     H33976   7.681   7.367   2.448 -0.2589 -1.6479 -0.1560
  971MOL0     H33977   7.785   7.317   2.576 -1.5327 -0.9949 -0.1848
  971MOL0     H33978   7.438   7.993   1.857 -1.3987 -0.5621 -0.4853
  971MOL0     H33979   7.192   8.039   1.855  0.8430 -0.6793 -0.2032
  971MOL0     H33980   6.821   8.003   2.185 -1.3805 -0.6138  0.0917
  971MOL0     H33981   6.585   7.998   2.220  2.1731  0.4369  0.7340
  971MOL0     H33982   5.191   9.097   1.436 -0.1524  1.0625  0.5742
  971MOL0     H33983   4.969   9.145   1.369 -0.1601  3.6539  1.8494
  971MOL0     H33984   4.520   8.946   1.507  2.9804  1.9029 -1.9140
  971MOL0     H33985   4.271   8.914   1.456 -0.8197 -0.1999 -3.3632
  971MOL0     H33986   4.068   9.210   1.210 -0.3101 -1.3910  0.1819
  971MOL0     H33987   3.947   9.107   1.285 -1.0487  1.1227 -1.7715
  971MOL0     H33988   4.092   9.335   1.427 -0.1756  1.2647 -1.0709
  971MOL0     H33989   3.963   9.228   1.492  0.6366 -0.7826  0.0156
  971MOL0     H33990   3.888   9.468   1.432  2.0306 -0.7815  0.6779
  971MOL0     H33991   3.921   9.434   1.266 -3.0423 -0.0891 -1.3176
  971MOL0     H33992   3.732   9.254   1.442 -0.6715  1.1543  0.7843
  971MOL0     H33993   3.726   9.268   1.265  1.8718 -0.7372 -0.4676
  971MOL0     H33994   3.487   9.601   1.355 -2.9885 -1.1528  0.7121
  971MOL0     H33995   4.275   9.309   1.288 -0.3413 -1.2370 -1.5090
  971MOL0     H33996   4.593   9.315   1.194  1.5905  1.6807  1.4377
  971MOL0     H33997   4.462   9.432   1.253  0.2179  1.4343  2.3403
  971MOL0     H33998   4.613   9.406   1.341  0.8642 -0.5657  1.7632
  972MOL0     O33999   1.420   6.078  11.366  0.1965 -0.1840 -0.8371
  972MOL0     C34000   1.350   6.085  11.469  0.8282 -0.0665 -0.2267
  972MOL0     O34001   1.395   6.112  11.592  0.0319  0.1017  0.3722
  972MOL0     C34002   1.530   6.123  11.603  0.5362 -0.2213 -0.2842
  972MOL0     C34003   1.602   6.023  11.668  0.9862 -0.1126  0.1517
  972MOL0     C34004   1.733   6.041  11.683 -0.4463  0.4532  0.2511
  972MOL0     C34005   1.806   6.142  11.625  0.1651 -0.0621 -0.0669
  972MOL0     O34006   1.943   6.133  11.625 -0.3533 -0.0996  0.1354
  972MOL0     C34007   2.020   6.251  11.594 -0.7693  0.2550  0.1984
  972MOL0     C34008   2.155   6.235  11.649 -0.3505 -0.3039 -0.1487
  972MOL0     C34009   2.232   6.362  11.644  0.4215  0.4492  0.0476
  972MOL0     C34010   2.355   6.349  11.728  0.1063 -0.0967 -0.0706
  972MOL0     C34011   2.450   6.473  11.717  0.4655 -0.0297  0.3174
  972MOL0     C34012   2.555   6.470  11.601  0.1686 -0.1854  0.0622
  972MOL0     C34013   2.650   6.595  11.610 -0.6638 -0.2750 -0.0927
  972MOL0     C34014   2.754   6.574  11.729 -0.0971 -0.2424  0.5439
  972MOL0     N34015   2.893   6.612  11.700 -0.1878 -0.3584  0.2706
  972MOL0     C34016   2.939   6.744  11.667 -0.7817 -0.3442 -0.7575
  972MOL0     C34017   3.076   6.733  11.666 -0.2021 -0.3887 -0.9514
  972MOL0     C34018   3.172   6.856  11.647  0.1568  0.2550 -0.0438
  972MOL0     C34019   3.267   6.816  11.531 -0.5068  0.1849  0.1333
  972MOL0     C34020   3.368   6.926  11.499 -0.7690  0.2111  0.4749
  972MOL0     C34021   3.482   6.871  11.409 -1.0034  0.2381 -0.1440
  972MOL0     O34022   3.590   6.967  11.390  0.2418  0.4121 -0.1479
  972MOL0     C34023   3.713   6.907  11.397 -0.7414 -0.2183  0.6567
  972MOL0     C34024   3.734   6.776  11.364 -0.1325 -0.8945 -0.2897
  972MOL0     C34025   3.859   6.724  11.385  0.0531  0.7258  0.5857
  972MOL0     C34026   3.877   6.585  11.338  0.3232  0.2086 -0.1894
  972MOL0     C34027   3.962   6.794  11.439 -0.5243  0.2488  0.5646
  972MOL0     C34028   4.087   6.726  11.495  0.9529 -0.1275 -0.4099
  972MOL0     O34029   4.193   6.809  11.516  0.0066 -0.6175  0.3307
  972MOL0     C34030   4.300   6.745  11.560 -0.4823 -0.5378  0.3326
  972MOL0     C34031   4.300   6.677  11.690 -0.1469  0.0756  0.2014
  972MOL0     C34032   4.419   6.623  11.731  0.3409 -0.0129  0.4132
  972MOL0     C34033   4.541   6.653  11.666 -0.0164 -0.2892  1.2010
  972MOL0     O34034   4.652   6.613  11.724 -0.1887 -0.0618 -0.0208
  972MOL0     C34035   4.777   6.672  11.687 -0.0939  0.5430 -0.1750
  972MOL0     C34036   4.862   6.598  11.790 -0.3459 -0.6573 -1.2697
  972MOL0     C34037   5.010   6.602  11.748  0.6406  0.5070  0.4095
  972MOL0     C34038   5.094   6.563  11.867  0.7283 -0.4427  0.5261
  972MOL0     C34039   5.234   6.525  11.820  0.3034  0.0710 -1.1130
  972MOL0     C34040   5.303   6.454  11.951  0.3192 -1.1003  1.1919
  972MOL0     C34041   5.450   6.404  11.922  0.8147  0.2850  0.2079
  972MOL0     C34042   5.503   6.296  12.024  0.5299  0.0000 -0.3786
  972MOL0    Cl34043   5.646   6.219  11.960  0.1889  0.0089  0.1127
  972MOL0     C34044   4.542   6.733  11.549  0.7189  0.4964  0.0175
  972MOL0     C34045   4.422   6.771  11.493  0.0250 -0.0797  0.0573
  972MOL0     O34046   4.072   6.612  11.539  0.0460 -0.3059 -0.4674
  972MOL0     C34047   3.943   6.927  11.462 -0.8247  0.7791 -0.0327
  972MOL0     C34048   3.822   6.983  11.444 -0.1856 -0.1985 -0.3215
  972MOL0     N34049   3.109   6.596  11.687  0.1470 -0.0614  0.6154
  972MOL0     N34050   2.997   6.533  11.709 -0.1683  0.7812 -0.5854
  972MOL0     C34051   1.737   6.238  11.551 -0.4420 -1.0312  1.0418
  972MOL0     C34052   1.598   6.237  11.548 -0.0198  0.2683  0.5872
  972MOL0     C34053   1.209   6.060  11.440  0.2730 -0.8272  0.5624
  972MOL0     C34054   1.174   5.959  11.349  0.2444  0.3154  0.1112
  972MOL0     C34055   1.045   5.939  11.321  0.0597  0.6207 -0.3900
  972MOL0     C34056   0.942   6.018  11.370  0.5764 -0.8492 -1.1223
  972MOL0     O34057   0.822   5.993  11.312 -0.2338 -0.7575  0.6386
  972MOL0     C34058   0.714   6.069  11.366 -0.2985  0.2012 -0.5268
  972MOL0     C34059   0.588   6.019  11.287  0.3352 -0.3478 -0.5156
  972MOL0     C34060   0.456   6.037  11.364 -1.5283  0.0829  0.2743
  972MOL0     C34061   0.350   6.102  11.278  1.0667 -0.2195 -0.3948
  972MOL0     C34062   0.384   6.238  11.222 -0.1559  0.1918 -0.9181
  972MOL0     C34063   0.415   6.344  11.185  0.8065  0.1101 -0.3540
  972MOL0     C34064   0.972   6.114  11.473 -1.2335 -1.0583  0.7351
  972MOL0     C34065   1.108   6.134  11.502  1.4045 -0.2412 -0.1682
  972MOL0     C34066   1.135   6.239  11.606  0.1024  0.0035 -0.0687
  972MOL0     H34067   1.561   5.934  11.715 -0.3054  2.0584  3.5852
  972MOL0     H34068   1.783   5.967  11.745 -1.8183  1.2402  2.4192
  972MOL0     H34069   1.983   6.340  11.646 -0.1357  0.2572  0.6622
  972MOL0     H34070   2.019   6.268  11.486 -0.2758  0.2796  0.1951
  972MOL0     H34071   2.141   6.203  11.753  1.1073  0.4522  0.3127
  972MOL0     H34072   2.219   6.158  11.604  0.7697  0.7660 -0.4158
  972MOL0     H34073   2.255   6.388  11.540  1.4062 -2.9464 -0.6983
  972MOL0     H34074   2.166   6.440  11.683 -1.7065 -0.5962 -1.3066
  972MOL0     H34075   2.329   6.335  11.834  4.9199 -0.5056  1.3087
  972MOL0     H34076   2.403   6.253  11.704 -2.4483 -1.5066  0.1175
  972MOL0     H34077   2.507   6.485  11.810  0.8034 -3.6590  0.7363
  972MOL0     H34078   2.395   6.566  11.699 -0.2234 -0.3584  0.6970
  972MOL0     H34079   2.625   6.386  11.604 -0.1590 -0.4279  1.8481
  972MOL0     H34080   2.499   6.473  11.507  0.4470  1.1943 -0.0725
  972MOL0     H34081   2.589   6.682  11.634 -1.5909 -1.0716  0.4791
  972MOL0     H34082   2.700   6.616  11.514  1.5236 -2.5856  0.4423
  972MOL0     H34083   2.712   6.629  11.813 -0.9616  1.1122 -0.7227
  972MOL0     H34084   2.766   6.468  11.754 -0.9987 -0.3252  0.6811
  972MOL0     H34085   2.885   6.838  11.662  0.2477  0.3669  0.6595
  972MOL0     H34086   3.229   6.878  11.737  0.4307 -1.2998  0.1961
  972MOL0     H34087   3.119   6.949  11.624 -0.1878  1.2285  3.9480
  972MOL0     H34088   3.317   6.722  11.559 -2.5242 -0.7863  0.6803
  972MOL0     H34089   3.209   6.787  11.443  1.3694  1.9746 -1.7959
  972MOL0     H34090   3.315   7.003  11.442 -0.6210 -1.2768 -1.8101
  972MOL0     H34091   3.397   6.965  11.597 -1.1458 -0.7154  0.9718
  972MOL0     H34092   3.518   6.783  11.463 -1.5697 -1.4451 -2.3867
  972MOL0     H34093   3.447   6.841  11.310 -1.5279 -2.3690  0.7507
  972MOL0     H34094   3.651   6.727  11.315  0.7569 -0.9600 -1.7862
  972MOL0     H34095   3.800   6.575  11.260  1.0317 -1.2597 -0.7459
  972MOL0     H34096   3.861   6.511  11.416 -2.1475  1.2841  0.4346
  972MOL0     H34097   3.973   6.570  11.287  0.2473 -1.1136  0.0129
  972MOL0     H34098   4.211   6.668  11.752  0.7826 -3.8335  1.2372
  972MOL0     H34099   4.399   6.569  11.823 -1.4617 -1.9146 -0.9844
  972MOL0     H34100   4.797   6.649  11.582  1.2725 -0.4171  0.2627
  972MOL0     H34101   4.782   6.780  11.701 -0.6062  0.2974  2.4852
  972MOL0     H34102   4.855   6.642  11.890  2.9420 -2.9989  0.1666
  972MOL0     H34103   4.844   6.492  11.808  0.7349 -0.2703  3.3028
  972MOL0     H34104   5.036   6.696  11.697  0.8159  0.3868  0.2737
  972MOL0     H34105   5.026   6.523  11.674  4.1996 -1.8346  3.3521
  972MOL0     H34106   5.045   6.482  11.921 -2.6469  1.4412  0.5246
  972MOL0     H34107   5.096   6.652  11.931 -3.7144  1.3394 -1.3877
  972MOL0     H34108   5.235   6.451  11.739  0.8824 -0.7630 -0.3705
  972MOL0     H34109   5.290   6.615  11.791 -0.8636  0.4831 -2.1531
  972MOL0     H34110   5.243   6.376  11.998 -0.5409 -0.8439  0.5438
  972MOL0     H34111   5.312   6.528  12.031  0.1709  1.0326 -0.6574
  972MOL0     H34112   5.516   6.491  11.920  0.4887  0.5217 -0.6025
  972MOL0     H34113   5.449   6.347  11.829 -0.3175 -1.1802  1.0644
  972MOL0     H34114   5.423   6.221  12.032 -2.0226  2.7068  2.2229
  972MOL0     H34115   5.512   6.338  12.125 -1.3875  0.5527 -0.3937
  972MOL0     H34116   4.633   6.763  11.499 -1.2083  4.8563 -1.4081
  972MOL0     H34117   4.414   6.833  11.403 -1.4476  1.4894  1.1952
  972MOL0     H34118   4.029   6.990  11.486 -0.1760 -0.6523  1.6675
  972MOL0     H34119   3.803   7.084  11.480  2.1870  0.7342 -1.4664
  972MOL0     H34120   1.793   6.307  11.489 -2.4542 -0.3452 -0.1229
  972MOL0     H34121   1.544   6.324  11.511 -1.4945 -0.2030  1.5345
  972MOL0     H34122   1.247   5.887  11.311 -1.0564  0.1579 -2.2753
  972MOL0     H34123   1.015   5.858  11.255 -1.4347  1.1197 -0.3634
  972MOL0     H34124   0.697   6.044  11.471 -0.3126  3.5444  0.3610
  972MOL0     H34125   0.721   6.178  11.364 -0.3801  0.2924  1.6560
  972MOL0     H34126   0.590   5.912  11.263  1.0326 -0.3842 -0.3126
  972MOL0     H34127   0.597   6.072  11.193  0.4058  0.0806 -0.2698
  972MOL0     H34128   0.418   5.950  11.419 -0.4121  0.1453  1.1926
  972MOL0     H34129   0.489   6.100  11.447 -0.4037 -0.9794  0.6853
  972MOL0     H34130   0.259   6.123  11.335  1.1862  0.9827 -0.6243
  972MOL0     H34131   0.312   6.027  11.208 -0.5158 -0.1431  0.3402
  972MOL0     H34132   0.429   6.448  11.164 -0.1194  0.4617  0.7021
  972MOL0     H34133   0.895   6.176  11.517  0.0754 -0.1842  1.8631
  972MOL0     H34134   1.153   6.194  11.704 -1.6107 -2.1450 -0.6637
  972MOL0     H34135   1.217   6.307  11.582  0.2038  0.1008  0.5432
  972MOL0     H34136   1.049   6.305  11.617  0.9657  1.0463  0.5246
  973MOL0     O34137   4.168   7.232   3.383 -0.2380 -0.0245 -1.1035
  973MOL0     C34138   4.097   7.244   3.482  0.1406  0.6669  0.4341
  973MOL0     O34139   4.107   7.351   3.568 -0.6550  0.2449 -0.6022
  973MOL0     C34140   4.212   7.441   3.557 -0.3092  0.5386 -0.0555
  973MOL0     C34141   4.336   7.417   3.620  0.4261  0.7962 -0.9895
  973MOL0     C34142   4.439   7.506   3.602 -1.0429  1.0309  0.5032
  973MOL0     C34143   4.430   7.614   3.513  0.0532  0.2525 -0.3940
  973MOL0     O34144   4.535   7.695   3.513 -0.6724  0.6166  0.2165
  973MOL0     C34145   4.549   7.801   3.419  0.0608 -0.1894 -0.2533
  973MOL0     C34146   4.689   7.849   3.441  0.4005 -0.7291 -0.1747
  973MOL0     C34147   4.715   7.890   3.584 -0.4147  0.8065  0.1132
  973MOL0     C34148   4.866   7.931   3.615  0.3087  0.8778  0.8208
  973MOL0     C34149   4.881   7.968   3.762 -0.3576 -0.2882  0.3724
  973MOL0     C34150   5.029   7.971   3.792  0.0326 -0.9824  0.4698
  973MOL0     C34151   5.068   8.024   3.932  0.1080 -0.0246 -0.0096
  973MOL0     C34152   5.216   7.986   3.956  0.2024 -0.6414  0.0333
  973MOL0     N34153   5.252   8.078   4.064  0.3319  0.0245  0.2009
  973MOL0     C34154   5.259   8.048   4.197  0.0705  0.3455 -0.0350
  973MOL0     C34155   5.310   8.154   4.258  0.0829  0.4582  0.6826
  973MOL0     C34156   5.317   8.179   4.412  0.2194 -0.2688  0.7690
  973MOL0     C34157   5.362   8.061   4.499 -0.2417  0.7975 -0.4142
  973MOL0     C34158   5.512   8.036   4.481  0.2106  0.1434  0.7771
  973MOL0     C34159   5.568   7.926   4.564 -0.5765  0.4335  0.1792
  973MOL0     O34160   5.541   7.952   4.702 -0.4083 -0.6597 -0.2335
  973MOL0     C34161   5.629   7.907   4.800  1.1514  0.5478 -0.0390
  973MOL0     C34162   5.768   7.877   4.777  0.5698 -0.9714 -0.4516
  973MOL0     C34163   5.865   7.861   4.881  0.4062  0.6672  0.0711
  973MOL0     C34164   6.012   7.835   4.838  0.1601  0.0758 -0.3107
  973MOL0     C34165   5.815   7.855   5.021 -0.1148  0.7136 -0.3813
  973MOL0     C34166   5.898   7.818   5.135 -0.6852 -0.3277 -0.3261
  973MOL0     O34167   6.017   7.759   5.118  0.2612  0.1889  0.2195
  973MOL0     C34168   6.089   7.732   5.228 -0.3043 -0.1934 -0.6762
  973MOL0     C34169   6.175   7.616   5.224  1.0026  0.4420 -0.3932
  973MOL0     C34170   6.273   7.589   5.317 -0.3224  0.1109 -0.4486
  973MOL0     C34171   6.281   7.684   5.423 -0.6710  0.9522 -0.6357
  973MOL0     O34172   6.366   7.659   5.527 -0.3257 -1.1760  0.1627
  973MOL0     C34173   6.498   7.642   5.490 -0.1360 -0.0537 -0.2991
  973MOL0     C34174   6.596   7.642   5.609 -0.7732 -0.1256 -0.5043
  973MOL0     C34175   6.724   7.559   5.570  0.1229 -1.3981  0.1685
  973MOL0     C34176   6.838   7.579   5.673 -0.4693 -0.5728 -0.6473
  973MOL0     C34177   6.961   7.496   5.648  0.5827  1.1093  0.0443
  973MOL0     C34178   7.072   7.540   5.754 -0.2130  0.4945  0.2666
  973MOL0     C34179   7.195   7.446   5.727 -0.2256  0.6979 -0.3148
  973MOL0     C34180   7.322   7.473   5.815 -0.1551  0.0700 -0.4468
  973MOL0    Cl34181   7.395   7.634   5.761 -0.1849 -0.2555 -0.1853
  973MOL0     C34182   6.205   7.801   5.424  0.3316  0.0334  0.3882
  973MOL0     C34183   6.101   7.819   5.335  0.2980 -0.5038  0.4898
  973MOL0     O34184   5.842   7.832   5.244 -0.0170  0.0807 -0.0906
  973MOL0     C34185   5.676   7.889   5.039  0.0540  0.2395 -0.6329
  973MOL0     C34186   5.581   7.906   4.928  0.2182 -0.3966 -0.2287
  973MOL0     N34187   5.343   8.240   4.154 -0.0512  0.3690  0.2117
  973MOL0     N34188   5.314   8.199   4.039 -0.4207 -0.0951  0.2663
  973MOL0     C34189   4.312   7.627   3.445 -0.7013  0.4949  0.6346
  973MOL0     C34190   4.202   7.544   3.465  0.2539  0.6836 -0.7594
  973MOL0     C34191   3.966   7.170   3.481  0.2668 -0.3903 -0.5876
  973MOL0     C34192   3.873   7.221   3.573  0.3334 -0.7077 -0.1413
  973MOL0     C34193   3.742   7.164   3.595 -0.7647 -0.8468  1.5968
  973MOL0     C34194   3.705   7.055   3.513  0.5316 -1.4228 -0.7822
  973MOL0     O34195   3.586   6.998   3.529  0.5430 -0.1638 -0.3828
  973MOL0     C34196   3.518   6.931   3.428 -0.3708  1.1283  0.2837
  973MOL0     C34197   3.366   6.942   3.428 -0.4399 -0.0873  0.4723
  973MOL0     C34198   3.312   6.846   3.326 -0.1599 -0.4355 -0.7834
  973MOL0     C34199   3.170   6.798   3.365 -0.2900  0.8538  0.2211
  973MOL0     C34200   3.084   6.911   3.346  0.0493  0.6349  0.3914
  973MOL0     C34201   3.027   7.016   3.334  1.1156 -0.1509  0.2162
  973MOL0     C34202   3.797   7.005   3.420 -0.8556  0.2483 -0.1983
  973MOL0     C34203   3.928   7.058   3.404 -1.4757  0.0633 -0.4726
  973MOL0     C34204   4.018   7.002   3.292 -0.2351 -0.8329 -0.6490
  973MOL0     H34205   4.339   7.328   3.681  1.8378  1.5242  0.0540
  973MOL0     H34206   4.534   7.484   3.651 -2.0931  0.8804  2.5755
  973MOL0     H34207   4.471   7.878   3.424 -1.1383 -1.4266  2.4599
  973MOL0     H34208   4.554   7.766   3.315  2.9889 -0.8405  0.0189
  973MOL0     H34209   4.760   7.774   3.403 -1.5832 -0.9279 -3.9565
  973MOL0     H34210   4.698   7.939   3.380 -0.2256  0.4691  1.4665
  973MOL0     H34211   4.655   7.980   3.600  2.0658  2.4239  1.0267
  973MOL0     H34212   4.686   7.812   3.655  1.6988 -1.6262 -1.5040
  973MOL0     H34213   4.921   7.842   3.582 -3.6675 -0.1426 -4.3354
  973MOL0     H34214   4.894   8.014   3.550  2.9251  1.2617  2.3004
  973MOL0     H34215   4.840   7.882   3.814 -0.9542 -1.5318 -2.0193
  973MOL0     H34216   4.834   8.066   3.778  1.0283  0.6689 -1.0503
  973MOL0     H34217   5.081   7.875   3.779  1.3310 -0.4780  1.5972
  973MOL0     H34218   5.073   8.039   3.719 -0.1629 -0.6702  0.6395
  973MOL0     H34219   5.000   7.984   4.008  0.3430 -1.5292 -0.5561
  973MOL0     H34220   5.051   8.132   3.929 -0.8921 -0.0991 -4.9867
  973MOL0     H34221   5.214   7.885   3.999 -0.9617  0.4534  2.7920
  973MOL0     H34222   5.282   8.002   3.870  0.7475  1.8814  0.8253
  973MOL0     H34223   5.225   7.954   4.240  1.3011 -1.4045 -2.6254
  973MOL0     H34224   5.221   8.210   4.455 -1.5095 -2.0572 -1.5427
  973MOL0     H34225   5.387   8.263   4.422 -0.9565  0.7991  0.3233
  973MOL0     H34226   5.325   8.075   4.601  1.1218 -1.5547  0.4708
  973MOL0     H34227   5.315   7.970   4.461  1.0567  1.1928 -3.3158
  973MOL0     H34228   5.529   8.003   4.378  0.7002 -0.8659  1.1739
  973MOL0     H34229   5.567   8.130   4.496  0.0929  0.3247  0.1269
  973MOL0     H34230   5.523   7.828   4.547 -2.2059  0.6533  2.7564
  973MOL0     H34231   5.672   7.914   4.533 -0.9772 -0.0754 -1.0263
  973MOL0     H34232   5.810   7.894   4.678 -2.9277  5.5833 -1.4005
  973MOL0     H34233   6.073   7.918   4.876 -2.6117  0.7765  3.0673
  973MOL0     H34234   6.020   7.825   4.729  0.9918 -1.6871 -0.1324
  973MOL0     H34235   6.059   7.744   4.877  2.3129  0.1971 -2.3874
  973MOL0     H34236   6.172   7.547   5.139  0.6986  1.7154 -1.4499
  973MOL0     H34237   6.337   7.502   5.310  0.5837  0.8653 -2.0673
  973MOL0     H34238   6.500   7.546   5.437 -2.5985  1.2231 -3.0213
  973MOL0     H34239   6.530   7.721   5.422  2.0357 -1.3191 -0.8250
  973MOL0     H34240   6.614   7.742   5.650 -1.3024 -0.2238 -0.0181
  973MOL0     H34241   6.548   7.586   5.690  1.3563  0.4323  1.2552
  973MOL0     H34242   6.764   7.596   5.475  1.4553  1.2033  1.6437
  973MOL0     H34243   6.705   7.452   5.554 -2.8953 -1.2321  1.9364
  973MOL0     H34244   6.799   7.539   5.767  0.4999 -0.7088 -0.2909
  973MOL0     H34245   6.867   7.684   5.683 -0.5519 -0.7373  2.1821
  973MOL0     H34246   6.941   7.389   5.641 -0.3565  1.2858 -0.0975
  973MOL0     H34247   6.989   7.519   5.544  0.5324  0.3924 -0.1337
  973MOL0     H34248   7.030   7.529   5.854  1.4307  3.1506  1.3605
  973MOL0     H34249   7.105   7.643   5.739  1.0476 -0.2189 -2.5333
  973MOL0     H34250   7.219   7.444   5.621  0.1779 -1.0888 -0.2272
  973MOL0     H34251   7.162   7.342   5.739  0.3402  0.3271 -1.7605
  973MOL0     H34252   7.393   7.390   5.804 -0.7357 -0.2468 -2.2464
  973MOL0     H34253   7.301   7.473   5.922  4.1531 -2.4012  0.6319
  973MOL0     H34254   6.229   7.878   5.498  1.1266 -2.1362  2.5051
  973MOL0     H34255   6.054   7.916   5.325  1.8030  0.2945  0.7961
  973MOL0     H34256   5.634   7.898   5.139  0.4929  0.1276 -0.4340
  973MOL0     H34257   5.476   7.929   4.948 -0.3928 -3.3914  0.4469
  973MOL0     H34258   4.298   7.706   3.372  1.8686 -1.4170 -2.1616
  973MOL0     H34259   4.120   7.570   3.399 -0.4429  1.6074  0.4400
  973MOL0     H34260   3.894   7.311   3.631 -1.2421  1.2673 -2.4424
  973MOL0     H34261   3.668   7.190   3.669 -0.2945 -1.3314  2.2487
  973MOL0     H34262   3.554   6.957   3.328  1.8498 -1.0036  0.4314
  973MOL0     H34263   3.544   6.825   3.441  0.5306  1.1279 -1.2983
  973MOL0     H34264   3.326   7.043   3.422 -1.7291 -0.6738 -1.4832
  973MOL0     H34265   3.343   6.905   3.529  1.1130 -2.3217  0.0784
  973MOL0     H34266   3.306   6.884   3.223 -1.0392  2.4884  0.2355
  973MOL0     H34267   3.378   6.759   3.329 -1.1749 -1.1821  0.8079
  973MOL0     H34268   3.156   6.779   3.471  0.8301 -0.2453  0.1997
  973MOL0     H34269   3.143   6.711   3.304  0.2123 -1.4467  3.0833
  973MOL0     H34270   2.966   7.100   3.311 -0.3821 -1.2165  0.1653
  973MOL0     H34271   3.777   6.915   3.363 -1.9633 -1.1101  2.2129
  973MOL0     H34272   3.978   6.907   3.257 -0.6396 -1.1855  0.7196
  973MOL0     H34273   4.026   7.077   3.213  1.8459  1.0309  1.1544
  973MOL0     H34274   4.119   6.995   3.333 -0.4760  0.2356  0.1784
  974MOL0     O34275   7.093   5.517   5.208  0.1508 -0.0956 -0.6891
  974MOL0     C34276   7.091   5.396   5.223  1.1520  0.5293 -1.0228
  974MOL0     O34277   7.185   5.321   5.285 -0.4632 -0.1033  0.5147
  974MOL0     C34278   7.275   5.387   5.355  0.4455 -0.3630 -0.5679
  974MOL0     C34279   7.239   5.430   5.487  0.7790 -0.5601  0.5593
  974MOL0     C34280   7.330   5.508   5.567  1.1992 -0.3023  0.2081
  974MOL0     C34281   7.458   5.541   5.521 -0.1025 -0.4147 -0.1476
  974MOL0     O34282   7.553   5.613   5.601 -0.2529 -0.0939  0.4932
  974MOL0     C34283   7.513   5.655   5.732 -0.6082  0.4941 -0.1132
  974MOL0     C34284   7.636   5.701   5.803  0.2675  0.5191  0.3734
  974MOL0     C34285   7.747   5.595   5.830  0.4730 -0.2443 -0.4469
  974MOL0     C34286   7.856   5.656   5.921 -0.0567 -0.3345 -0.6397
  974MOL0     C34287   7.973   5.558   5.962  0.5354 -1.1488 -0.2478
  974MOL0     C34288   8.070   5.555   5.846  0.0998  0.7474  0.6135
  974MOL0     C34289   8.180   5.457   5.872  0.1406  0.4719 -0.0640
  974MOL0     C34290   8.283   5.439   5.753 -0.3161  0.4653  0.4065
  974MOL0     N34291   8.417   5.391   5.793  0.0358  0.1429  0.3228
  974MOL0     C34292   8.524   5.475   5.808 -0.1742  0.2750 -0.5058
  974MOL0     C34293   8.623   5.389   5.834 -0.3800 -0.4187 -0.2599
  974MOL0     C34294   8.773   5.428   5.851 -0.2503 -0.2317 -0.1779
  974MOL0     C34295   8.865   5.297   5.857 -0.0656 -0.7603  0.0047
  974MOL0     C34296   9.012   5.330   5.899 -0.3217  0.0019 -1.0603
  974MOL0     C34297   9.045   5.333   6.044  0.1241  0.9957 -1.1283
  974MOL0     O34298   9.188   5.368   6.051 -0.2667 -0.1071 -0.2806
  974MOL0     C34299   9.233   5.396   6.180 -0.2811  0.3416  0.4191
  974MOL0     C34300   9.185   5.330   6.295  0.1006 -0.0832 -1.2910
  974MOL0     C34301   9.260   5.325   6.416 -0.4323  0.4660  0.6294
  974MOL0     C34302   9.212   5.240   6.525 -0.1324  0.0514  0.5616
  974MOL0     C34303   9.385   5.402   6.422 -1.0902 -1.1060 -0.3600
  974MOL0     C34304   9.475   5.410   6.534 -0.6537  0.2720  0.1617
  974MOL0     O34305   9.575   5.497   6.528  0.4235  0.3380 -0.1008
  974MOL0     C34306   9.672   5.496   6.627  0.0805 -0.2833 -0.0470
  974MOL0     C34307   9.648   5.524   6.763  0.7535  0.7295 -0.0607
  974MOL0     C34308   9.753   5.522   6.862  0.4715  0.3772 -0.3956
  974MOL0     C34309   9.880   5.508   6.821 -0.3230 -0.3138 -0.9125
  974MOL0     O34310   9.974   5.530   6.917  0.0297  0.8204 -0.5577
  974MOL0     C34311  10.101   5.587   6.879  0.0077  1.2361  0.0236
  974MOL0     C34312  10.215   5.480   6.895  0.0613  0.5481  0.4565
  974MOL0     C34313  10.351   5.548   6.864 -0.2741 -0.5432  0.2067
  974MOL0     C34314  10.467   5.459   6.904 -0.5708  0.7585 -0.6002
  974MOL0     C34315  10.559   5.405   6.790  0.4710 -0.3832  0.8191
  974MOL0     C34316  10.610   5.497   6.685 -1.0725  0.3565 -0.7847
  974MOL0     C34317  10.747   5.457   6.632 -0.4465 -0.7582 -0.7006
  974MOL0     C34318  10.778   5.559   6.515 -0.3667  0.9244  0.6949
  974MOL0    Cl34319  10.737   5.734   6.541  0.2668  0.1281 -0.1718
  974MOL0     C34320   9.907   5.478   6.685  0.1217 -0.0010  0.4238
  974MOL0     C34321   9.801   5.460   6.599 -0.1317  0.7710  0.8074
  974MOL0     O34322   9.448   5.336   6.632 -0.1485  0.2729 -0.4027
  974MOL0     C34323   9.424   5.477   6.314  0.4062  0.3735  0.5042
  974MOL0     C34324   9.353   5.467   6.190 -0.2814 -0.2876  0.4085
  974MOL0     N34325   8.582   5.254   5.838 -0.4317  0.2791  0.1341
  974MOL0     N34326   8.455   5.258   5.808 -0.0392  0.1136 -0.5824
  974MOL0     C34327   7.493   5.491   5.392  0.1623 -0.0381  0.0985
  974MOL0     C34328   7.408   5.418   5.310  1.2579  0.5573 -0.3347
  974MOL0     C34329   6.982   5.321   5.157  0.5286  0.2527 -0.9217
  974MOL0     C34330   7.005   5.196   5.102 -1.0195  0.4855 -0.0161
  974MOL0     C34331   6.915   5.129   5.029  0.3857  0.8762 -1.1062
  974MOL0     C34332   6.785   5.182   5.002  0.0023 -0.3086  0.2272
  974MOL0     O34333   6.695   5.098   4.937 -0.5169 -0.2508  0.1703
  974MOL0     C34334   6.571   5.154   4.899 -0.1054  0.0099 -0.0000
  974MOL0     C34335   6.509   5.070   4.789  0.4526  0.7767  0.3986
  974MOL0     C34336   6.395   4.986   4.844 -0.2338  0.2075  0.3130
  974MOL0     C34337   6.326   4.892   4.729 -0.6835 -0.4672 -0.8500
  974MOL0     C34338   6.192   4.851   4.772  0.1112  1.3712 -0.4846
  974MOL0     C34339   6.079   4.810   4.806 -0.0191 -0.0814  0.2655
  974MOL0     C34340   6.759   5.298   5.070 -0.0666 -0.0132 -0.0202
  974MOL0     C34341   6.851   5.372   5.147  0.4105  0.8079 -0.7885
  974MOL0     C34342   6.813   5.507   5.205 -0.2721 -0.6195 -1.4545
  974MOL0     H34343   7.146   5.388   5.524  0.1416 -1.3085 -1.7284
  974MOL0     H34344   7.291   5.527   5.666 -0.9212 -0.5825 -0.5381
  974MOL0     H34345   7.478   5.567   5.788 -0.8170  0.8901  0.3848
  974MOL0     H34346   7.431   5.728   5.736 -1.7761 -0.5007 -3.0570
  974MOL0     H34347   7.694   5.775   5.746  1.3953 -1.3931 -1.0798
  974MOL0     H34348   7.598   5.749   5.893 -4.1211  1.1671 -1.5679
  974MOL0     H34349   7.700   5.513   5.885 -3.7597  1.3862 -1.2110
  974MOL0     H34350   7.786   5.568   5.731  2.4417 -1.8945  0.7002
  974MOL0     H34351   7.893   5.747   5.873 -1.6016  0.0169 -1.2461
  974MOL0     H34352   7.805   5.681   6.015 -1.8792 -3.5747 -0.6080
  974MOL0     H34353   7.926   5.461   5.977  0.0429 -1.0617 -1.1327
  974MOL0     H34354   8.019   5.588   6.056 -2.9834  3.1047  0.4674
  974MOL0     H34355   8.024   5.523   5.752  3.5273 -2.1083 -0.3215
  974MOL0     H34356   8.107   5.658   5.833  1.0061  0.6209  2.0408
  974MOL0     H34357   8.137   5.358   5.889  0.0892  0.7914  1.8992
  974MOL0     H34358   8.234   5.487   5.962 -0.6582 -0.2356  0.6751
  974MOL0     H34359   8.240   5.363   5.687  0.6870  1.3243 -1.3107
  974MOL0     H34360   8.292   5.524   5.685 -0.3812  0.0793 -0.0935
  974MOL0     H34361   8.527   5.582   5.793 -3.2355  1.0074  2.7398
  974MOL0     H34362   8.773   5.486   5.944 -0.3797  2.3441 -1.6760
  974MOL0     H34363   8.798   5.497   5.770 -0.6794 -0.9126 -0.9024
  974MOL0     H34364   8.821   5.223   5.925 -0.5513  1.5219  2.3280
  974MOL0     H34365   8.866   5.259   5.754  1.6280 -0.2658 -0.1913
  974MOL0     H34366   9.069   5.248   5.853  0.5184 -0.6775  1.0878
  974MOL0     H34367   9.046   5.422   5.851  1.6664 -1.8999 -3.6304
  974MOL0     H34368   8.993   5.411   6.100  0.5393 -0.7315  1.9067
  974MOL0     H34369   9.020   5.237   6.091  3.6322 -0.0489 -1.1036
  974MOL0     H34370   9.100   5.263   6.287  2.9797 -5.1168  3.2448
  974MOL0     H34371   9.289   5.163   6.541 -0.8617 -0.4457  1.9050
  974MOL0     H34372   9.114   5.197   6.501  1.3064 -1.0666 -4.4162
  974MOL0     H34373   9.204   5.302   6.615  1.5706 -2.7231  2.8206
  974MOL0     H34374   9.547   5.550   6.792  0.6096 -0.9124  1.0966
  974MOL0     H34375   9.732   5.544   6.966 -0.0262 -1.9548  0.0716
  974MOL0     H34376  10.101   5.634   6.781  1.8465  1.1792 -0.0346
  974MOL0     H34377  10.123   5.657   6.960  1.5303  0.9170 -0.0955
  974MOL0     H34378  10.217   5.428   6.992 -0.5118 -0.3848 -0.0166
  974MOL0     H34379  10.198   5.406   6.816 -0.9840 -0.7214  1.8037
  974MOL0     H34380  10.348   5.641   6.922  0.0624 -0.1703 -0.3594
  974MOL0     H34381  10.362   5.568   6.757  1.6756 -1.0005  0.2995
  974MOL0     H34382  10.415   5.379   6.957  1.6457  0.8228  1.8504
  974MOL0     H34383  10.522   5.502   6.988 -2.5478 -0.3228  1.3501
  974MOL0     H34384  10.642   5.354   6.839  1.9446 -1.0205 -2.0743
  974MOL0     H34385  10.507   5.321   6.743 -1.6123 -1.3079  4.3917
  974MOL0     H34386  10.618   5.597   6.729 -0.1007 -0.2472  0.4847
  974MOL0     H34387  10.535   5.495   6.606 -1.4578 -3.0383 -0.5109
  974MOL0     H34388  10.747   5.352   6.603  0.5872 -1.1925  0.7576
  974MOL0     H34389  10.819   5.471   6.713  0.3644 -0.7333 -1.4022
  974MOL0     H34390  10.716   5.527   6.431 -0.1935  1.6166  0.2981
  974MOL0     H34391  10.885   5.548   6.492 -0.0600 -1.7197  2.8502
  974MOL0     H34392  10.007   5.470   6.643 -0.2494  0.5063 -0.5958
  974MOL0     H34393   9.816   5.425   6.498 -0.7478 -3.4769  2.0240
  974MOL0     H34394   9.512   5.540   6.319  1.6898 -1.3402  0.5572
  974MOL0     H34395   9.376   5.521   6.099 -0.5445 -1.2861 -0.2528
  974MOL0     H34396   7.591   5.493   5.346 -0.4416  0.0998 -1.2207
  974MOL0     H34397   7.448   5.379   5.217 -0.8080 -0.8824 -0.7033
  974MOL0     H34398   7.107   5.158   5.100 -0.9228  0.7039 -1.9639
  974MOL0     H34399   6.940   5.037   4.977 -1.5058  0.5565 -1.5083
  974MOL0     H34400   6.511   5.161   4.990 -0.8419  2.4360 -0.6073
  974MOL0     H34401   6.579   5.258   4.866 -1.2129 -1.0319 -4.1017
  974MOL0     H34402   6.573   4.994   4.744 -2.5480 -1.5578 -0.2825
  974MOL0     H34403   6.475   5.138   4.711  0.0595 -0.3938 -0.4819
  974MOL0     H34404   6.427   4.923   4.928 -0.2229 -3.4557 -2.1659
  974MOL0     H34405   6.322   5.056   4.884 -1.6121 -0.5426 -0.8056
  974MOL0     H34406   6.392   4.806   4.717  0.6781  0.2706  0.8054
  974MOL0     H34407   6.314   4.956   4.641 -1.2948 -1.4232 -1.4695
  974MOL0     H34408   5.981   4.774   4.831  0.7963 -0.1446  3.8833
  974MOL0     H34409   6.658   5.338   5.067  0.6019  1.9114  1.4296
  974MOL0     H34410   6.857   5.516   5.305 -1.1881  0.8500 -1.1615
  974MOL0     H34411   6.856   5.593   5.155 -0.8034 -1.0883 -2.7473
  974MOL0     H34412   6.704   5.514   5.209 -0.4586 -2.8043 -1.4557
  975MOL0     O34413   6.179   6.446  11.330 -0.7117 -0.0893  0.5618
  975MOL0     C34414   6.293   6.423  11.296  0.0766  0.1318 -0.4198
  975MOL0     O34415   6.382   6.507  11.226  0.7918 -0.1935 -0.3819
  975MOL0     C34416   6.344   6.581  11.118 -0.0811  0.3713  0.4829
  975MOL0     C34417   6.236   6.539  11.037  0.2192  0.2561  0.5395
  975MOL0     C34418   6.214   6.604  10.914 -0.1866  0.3801  0.5424
  975MOL0     C34419   6.290   6.715  10.867  0.1789  0.2183 -0.1689
  975MOL0     O34420   6.280   6.788  10.744  0.0451 -0.1893 -0.8716
  975MOL0     C34421   6.245   6.716  10.625  1.1126  0.0627 -0.2787
  975MOL0     C34422   6.345   6.605  10.583  0.9948  0.1857  0.1655
  975MOL0     C34423   6.489   6.656  10.565 -0.4050  0.3954  0.1478
  975MOL0     C34424   6.568   6.588  10.458 -1.1771  0.9161  0.1631
  975MOL0     C34425   6.711   6.641  10.450 -0.5595  0.5209  0.2127
  975MOL0     C34426   6.807   6.560  10.361  0.1105 -0.1688 -0.7128
  975MOL0     C34427   6.947   6.624  10.347 -1.0716 -0.6223 -0.4035
  975MOL0     C34428   7.021   6.638  10.488  0.6179 -0.1638  1.2297
  975MOL0     N34429   7.155   6.697  10.470 -0.3296  0.4048  0.3335
  975MOL0     C34430   7.271   6.614  10.450  0.0232  0.2860  0.0679
  975MOL0     C34431   7.371   6.703  10.438  0.4225  0.3850  0.1716
  975MOL0     C34432   7.515   6.688  10.398 -0.3325 -0.2153 -0.1197
  975MOL0     C34433   7.596   6.626  10.517  1.1148 -0.2388 -0.9216
  975MOL0     C34434   7.642   6.731  10.617  0.1123  0.5959  0.2601
  975MOL0     C34435   7.794   6.738  10.640  0.0977  0.1224  0.3212
  975MOL0     O34436   7.855   6.607  10.652 -0.2956  0.6713  0.7626
  975MOL0     C34437   7.994   6.610  10.644  0.3224 -0.7699 -0.5286
  975MOL0     C34438   8.069   6.590  10.760 -0.1999  0.5710 -1.0316
  975MOL0     C34439   8.218   6.585  10.759  0.7504  0.0402 -0.2574
  975MOL0     C34440   8.278   6.581  10.897 -0.1326  0.9226 -0.4897
  975MOL0     C34441   8.287   6.603  10.636  0.2660 -0.0659  0.8610
  975MOL0     C34442   8.431   6.586  10.617 -0.1058 -0.7055 -0.0985
  975MOL0     O34443   8.460   6.585  10.477 -0.2841 -0.1485  0.4911
  975MOL0     C34444   8.587   6.535  10.443 -0.3912  0.3946 -1.0601
  975MOL0     C34445   8.598   6.445  10.337  0.3401 -0.1782  0.4918
  975MOL0     C34446   8.719   6.393  10.296  0.0565  0.1101  0.0022
  975MOL0     C34447   8.840   6.430  10.358 -0.3424 -1.7940 -0.4045
  975MOL0     O34448   8.954   6.374  10.306 -0.1106 -0.4928 -0.5696
  975MOL0     C34449   9.083   6.424  10.344 -0.4270  0.5777  0.2857
  975MOL0     C34450   9.117   6.557  10.274  0.4035 -0.2699 -0.3555
  975MOL0     C34451   9.255   6.623  10.311  0.0375  0.8793 -0.1307
  975MOL0     C34452   9.282   6.745  10.220 -0.1384 -0.1032 -0.5849
  975MOL0     C34453   9.390   6.840  10.289  0.9544  0.4469  0.2042
  975MOL0     C34454   9.536   6.787  10.287 -0.1776 -0.0097  0.3473
  975MOL0     C34455   9.633   6.896  10.337  0.3425 -0.6698 -0.4792
  975MOL0     C34456   9.778   6.878  10.295  0.3317  0.4172  0.1482
  975MOL0    Cl34457   9.825   6.709  10.335  0.3033  0.1417  0.1465
  975MOL0     C34458   8.830   6.519  10.467 -0.3562  0.5015 -0.2549
  975MOL0     C34459   8.711   6.570  10.512 -0.0969 -0.3213  0.1112
  975MOL0     O34460   8.513   6.579  10.712  0.1452  0.0954  0.3476
  975MOL0     C34461   8.204   6.639  10.528 -0.0968  0.4278  0.6463
  975MOL0     C34462   8.069   6.639  10.525 -0.5504  0.2227 -0.5209
  975MOL0     N34463   7.320   6.831  10.438  0.6290  0.5897 -0.0685
  975MOL0     N34464   7.192   6.827  10.450 -0.2485  0.8531  1.3407
  975MOL0     C34465   6.389   6.762  10.962 -0.0004 -0.1694 -0.1207
  975MOL0     C34466   6.413   6.698  11.083 -0.3931  0.3356 -0.4672
  975MOL0     C34467   6.358   6.296  11.349 -0.6985 -0.0929  0.5443
  975MOL0     C34468   6.497   6.279  11.324 -0.4682  0.4897  0.0181
  975MOL0     C34469   6.573   6.176  11.381 -0.3776 -0.4666 -0.2050
  975MOL0     C34470   6.512   6.084  11.465  0.4846 -1.3283 -0.4974
  975MOL0     O34471   6.598   5.987  11.513  0.0233 -0.1495  0.5785
  975MOL0     C34472   6.552   5.904  11.620  0.9586 -0.0326  0.1989
  975MOL0     C34473   6.675   5.854  11.704  1.0099 -0.0051 -0.6189
  975MOL0     C34474   6.790   5.797  11.620  0.5443 -0.4766  0.0271
  975MOL0     C34475   6.883   5.704  11.694  0.7754 -0.6065 -1.0318
  975MOL0     C34476   6.958   5.759  11.810  0.5207 -0.1223  1.2286
  975MOL0     C34477   7.030   5.800  11.897  0.0645  0.9504  0.9225
  975MOL0     C34478   6.368   6.092  11.490 -1.1030  0.2574  0.3542
  975MOL0     C34479   6.290   6.195  11.429 -0.6246  0.5804  0.1857
  975MOL0     C34480   6.142   6.187  11.446  0.4930 -0.6760  0.5379
  975MOL0     H34481   6.188   6.443  11.056 -2.4304  1.0449 -1.4709
  975MOL0     H34482   6.148   6.561  10.839 -0.1251 -0.4251  0.9451
  975MOL0     H34483   6.258   6.786  10.543  0.4665  0.5138 -0.0065
  975MOL0     H34484   6.146   6.670  10.625  0.2043  1.9107 -0.7318
  975MOL0     H34485   6.343   6.529  10.662 -1.2317  0.8097  0.7933
  975MOL0     H34486   6.310   6.557  10.492 -0.3683  0.3879  0.5625
  975MOL0     H34487   6.488   6.760  10.530 -2.4350 -0.8110 -4.0592
  975MOL0     H34488   6.546   6.656  10.658  0.8909 -1.7351 -0.5772
  975MOL0     H34489   6.582   6.480  10.466  2.9229  1.1996 -0.9513
  975MOL0     H34490   6.520   6.618  10.365 -2.9407  2.6631  1.5363
  975MOL0     H34491   6.753   6.653  10.551  1.0656  1.4034 -0.5327
  975MOL0     H34492   6.715   6.747  10.422  0.3540 -0.1250 -2.3797
  975MOL0     H34493   6.815   6.463  10.411  1.0681 -1.0539 -2.5108
  975MOL0     H34494   6.753   6.556  10.266 -1.0519 -0.7021 -0.0573
  975MOL0     H34495   6.934   6.717  10.291 -1.8956 -1.0726 -0.9860
  975MOL0     H34496   7.003   6.558  10.280 -2.2845 -0.1580 -1.9322
  975MOL0     H34497   6.968   6.701  10.560  2.5499  2.3867  0.5809
  975MOL0     H34498   7.029   6.540  10.536  0.4229 -0.4285  0.7248
  975MOL0     H34499   7.289   6.507  10.456  1.0892  0.4514 -0.0015
  975MOL0     H34500   7.571   6.774  10.360  1.6333 -0.5511  1.7994
  975MOL0     H34501   7.512   6.602  10.329 -0.2572 -2.9340  2.9978
  975MOL0     H34502   7.526   6.564  10.575 -0.3125  1.9772 -0.1330
  975MOL0     H34503   7.675   6.558  10.484 -0.4424 -2.7036  0.1161
  975MOL0     H34504   7.607   6.828  10.581  0.0754  0.7928  0.8077
  975MOL0     H34505   7.586   6.715  10.710 -0.9181  0.5290 -0.3596
  975MOL0     H34506   7.834   6.792  10.553 -2.7820  2.5006  0.3185
  975MOL0     H34507   7.823   6.802  10.724 -0.2228  1.0784 -0.2771
  975MOL0     H34508   8.005   6.570  10.846 -3.1697  1.6889 -2.8334
  975MOL0     H34509   8.339   6.671  10.897  0.8106  0.3202 -1.7005
  975MOL0     H34510   8.322   6.483  10.917  0.2604  1.5872  2.2053
  975MOL0     H34511   8.204   6.584  10.978  0.5897  0.2493  0.2010
  975MOL0     H34512   8.508   6.428  10.278 -0.9735 -2.3242  2.8792
  975MOL0     H34513   8.718   6.336  10.204 -0.6213  1.5267 -0.9046
  975MOL0     H34514   9.098   6.432  10.452  2.9259 -0.1743 -0.0048
  975MOL0     H34515   9.151   6.344  10.313  0.4834  0.7168  1.8324
  975MOL0     H34516   9.121   6.544  10.165  0.3777 -1.4044 -0.2255
  975MOL0     H34517   9.034   6.624  10.298  0.8640  0.4237 -0.6391
  975MOL0     H34518   9.344   6.561  10.303  2.0331  3.3809  1.2332
  975MOL0     H34519   9.237   6.649  10.416 -1.9875 -3.6399  0.8660
  975MOL0     H34520   9.194   6.810  10.211 -2.3032 -2.1434  3.1349
  975MOL0     H34521   9.313   6.714  10.120 -1.5903 -0.4617 -0.9568
  975MOL0     H34522   9.383   6.928  10.225 -2.3287  0.8151  0.8825
  975MOL0     H34523   9.358   6.863  10.391  4.2430  3.2613  0.7816
  975MOL0     H34524   9.557   6.767  10.181 -0.8336 -1.2551  0.4390
  975MOL0     H34525   9.549   6.696  10.345 -1.2375 -0.1665  0.3555
  975MOL0     H34526   9.623   6.888  10.445 -2.3958 -2.1062 -0.7471
  975MOL0     H34527   9.603   6.997  10.307 -0.6974 -0.1258  2.1016
  975MOL0     H34528   9.839   6.949  10.351 -0.0488  2.1644 -1.5437
  975MOL0     H34529   9.794   6.895  10.188  1.1391  0.0940  0.2171
  975MOL0     H34530   8.923   6.550  10.515 -1.8267  4.7708  0.2589
  975MOL0     H34531   8.724   6.631  10.601 -1.6359 -0.7196  0.6343
  975MOL0     H34532   8.240   6.646  10.426  0.6872  2.2112  1.0213
  975MOL0     H34533   8.013   6.647  10.432 -0.7384 -0.9839 -0.5206
  975MOL0     H34534   6.450   6.847  10.934 -2.7707  0.8660 -3.7741
  975MOL0     H34535   6.487   6.725  11.158  0.1652 -3.3497  0.5114
  975MOL0     H34536   6.549   6.348  11.258 -3.6251  3.1059 -0.0125
  975MOL0     H34537   6.681   6.176  11.366 -0.2088  0.4719  0.7995
  975MOL0     H34538   6.490   5.961  11.690  0.8527 -0.7813  0.7351
  975MOL0     H34539   6.501   5.816  11.579  1.6426 -1.2116  1.7674
  975MOL0     H34540   6.647   5.792  11.790 -0.1143  0.4299 -0.6513
  975MOL0     H34541   6.725   5.943  11.741  1.1201 -0.4818  0.4068
  975MOL0     H34542   6.741   5.745  11.536 -2.3743 -1.3316  2.1037
  975MOL0     H34543   6.851   5.876  11.575 -1.8923  1.5884  0.1317
  975MOL0     H34544   6.955   5.663  11.623  0.4334  1.3947 -2.5998
  975MOL0     H34545   6.822   5.622  11.734 -2.2205  2.4232  1.1757
  975MOL0     H34546   7.108   5.806  11.971  0.8674  1.5931  0.0470
  975MOL0     H34547   6.328   6.019  11.559 -1.5227  2.0750  2.1260
  975MOL0     H34548   6.097   6.209  11.348  1.7279  0.5706  0.2269
  975MOL0     H34549   6.123   6.090  11.492  1.7675 -0.5881  1.2943
  975MOL0     H34550   6.106   6.259  11.519 -1.0189  0.7193 -1.4700
  976MOL0     O34551   8.781   2.623   1.444 -0.3476 -0.5213  0.3427
  976MOL0     C34552   8.720   2.706   1.512  0.6035 -0.0722  0.1065
  976MOL0     O34553   8.735   2.717   1.650 -0.3631 -0.1697  0.8469
  976MOL0     C34554   8.830   2.642   1.719  0.4989  0.4463 -0.2152
  976MOL0     C34555   8.810   2.512   1.785  0.2365 -0.5344  0.3864
  976MOL0     C34556   8.906   2.464   1.874  0.8110 -0.0480 -0.0206
  976MOL0     C34557   9.025   2.531   1.889 -0.8950 -0.2257  0.1365
  976MOL0     O34558   9.107   2.491   1.995 -0.7189 -0.3087 -0.1831
  976MOL0     C34559   9.214   2.571   2.036 -0.1691  0.5704 -0.1459
  976MOL0     C34560   9.267   2.509   2.161 -0.5385 -0.3417  0.3806
  976MOL0     C34561   9.403   2.555   2.202 -0.4272  0.1560  0.4066
  976MOL0     C34562   9.430   2.501   2.341 -0.0417 -0.6596  0.3480
  976MOL0     C34563   9.561   2.544   2.410 -0.4116 -0.6458  0.7208
  976MOL0     C34564   9.678   2.497   2.322  1.3413 -0.0880  0.1755
  976MOL0     C34565   9.807   2.517   2.393  0.2940  1.1430 -0.0638
  976MOL0     C34566   9.825   2.415   2.509 -0.3696  0.5186  0.8683
  976MOL0     N34567   9.841   2.272   2.466 -0.0072  0.1419 -0.1756
  976MOL0     C34568   9.935   2.219   2.385  0.4247 -0.3166  1.0093
  976MOL0     C34569   9.900   2.090   2.368  0.4037  0.2212 -0.0874
  976MOL0     C34570   9.956   1.984   2.280 -0.4231  0.0459 -0.3134
  976MOL0     C34571  10.113   1.968   2.298  0.6002  0.0443 -1.0182
  976MOL0     C34572  10.156   1.926   2.437  0.8804  0.1762  0.1452
  976MOL0     C34573  10.307   1.939   2.467  0.3242 -0.1799 -0.1399
  976MOL0     O34574  10.340   2.074   2.470  0.1355  0.2883  0.2369
  976MOL0     C34575  10.462   2.114   2.515 -0.3415  1.0904 -0.2794
  976MOL0     C34576  10.497   2.241   2.474 -0.3306 -0.1761 -0.2809
  976MOL0     C34577  10.625   2.296   2.503  0.2674  0.6673  0.6865
  976MOL0     C34578  10.655   2.424   2.427 -0.0220 -0.1603 -0.0006
  976MOL0     C34579  10.726   2.219   2.577  0.0899  0.6055  0.3731
  976MOL0     C34580  10.857   2.265   2.616  0.4648  0.2690  0.3519
  976MOL0     O34581  10.913   2.184   2.706 -0.4758  0.0276  0.9489
  976MOL0     C34582  11.038   2.218   2.762 -0.8703  0.2632 -0.8960
  976MOL0     C34583  11.154   2.273   2.702  0.6131 -0.0194  0.3692
  976MOL0     C34584  11.282   2.275   2.760  0.0394  0.3816  0.2272
  976MOL0     C34585  11.310   2.224   2.883 -0.1605  0.3727 -0.4692
  976MOL0     O34586  11.437   2.234   2.936  0.6413  0.7124 -0.1239
  976MOL0     C34587  11.461   2.193   3.071 -0.0843  0.4439 -0.7598
  976MOL0     C34588  11.610   2.211   3.093  0.7963  0.1676 -0.3985
  976MOL0     C34589  11.708   2.142   2.989 -0.3477  0.2331 -0.9119
  976MOL0     C34590  11.851   2.152   3.050 -0.2308 -0.3596  0.4318
  976MOL0     C34591  11.951   2.045   3.012 -0.6519 -1.0731  0.3940
  976MOL0     C34592  11.938   1.911   3.090 -0.6289  0.4301 -0.1390
  976MOL0     C34593  11.971   1.922   3.238  0.7739 -0.4647  0.5015
  976MOL0     C34594  12.006   1.781   3.300 -0.3289 -0.4272 -0.1113
  976MOL0    Cl34595  11.889   1.660   3.248  0.5208  0.6703  0.0652
  976MOL0     C34596  11.189   2.171   2.953 -0.5540  0.1970  1.0009
  976MOL0     C34597  11.063   2.161   2.889 -0.2149  0.1009  0.0673
  976MOL0     O34598  10.894   2.376   2.580  0.1941 -0.8223  0.5827
  976MOL0     C34599  10.681   2.088   2.612  0.2013 -0.2139  0.3148
  976MOL0     C34600  10.557   2.035   2.587 -0.9210  0.0791 -0.1107
  976MOL0     N34601   9.793   2.071   2.453  0.1334  0.3684 -0.2075
  976MOL0     N34602   9.766   2.170   2.519  0.1846  0.4903 -0.1203
  976MOL0     C34603   9.054   2.645   1.805  0.2437  0.8702  0.4245
  976MOL0     C34604   8.956   2.702   1.733  0.6496 -0.6960  0.6844
  976MOL0     C34605   8.622   2.799   1.449 -0.1575  0.3039 -0.8775
  976MOL0     C34606   8.620   2.936   1.486 -0.5367  0.3890  0.0079
  976MOL0     C34607   8.521   3.024   1.432  0.1386 -0.0616  0.0207
  976MOL0     C34608   8.409   2.976   1.356 -0.6293 -0.7173  0.1126
  976MOL0     O34609   8.318   3.071   1.318 -0.8015  0.0134 -0.2133
  976MOL0     C34610   8.221   3.040   1.229 -0.0613  0.6133  0.3350
  976MOL0     C34611   8.156   3.163   1.172 -0.4102  0.2220  1.1153
  976MOL0     C34612   8.093   3.258   1.272 -0.0309 -1.1138 -0.1146
  976MOL0     C34613   7.968   3.212   1.366 -0.3286 -0.1257  0.7123
  976MOL0     C34614   8.007   3.106   1.458  0.0743  0.0587  0.7224
  976MOL0     C34615   8.050   3.021   1.535 -0.1921 -0.0196 -0.2639
  976MOL0     C34616   8.405   2.838   1.331 -0.1687 -0.2156  0.2925
  976MOL0     C34617   8.508   2.757   1.379 -0.2290 -0.4051  0.3450
  976MOL0     C34618   8.510   2.611   1.342  0.0241 -0.6561  0.3262
  976MOL0     H34619   8.714   2.463   1.780  1.3073 -2.6817 -0.0815
  976MOL0     H34620   8.886   2.381   1.941  4.3791 -0.2825  0.9127
  976MOL0     H34621   9.177   2.672   2.055 -2.0737  0.3513 -2.1673
  976MOL0     H34622   9.288   2.584   1.957  0.7675  1.5678  0.8584
  976MOL0     H34623   9.189   2.522   2.236 -2.1964  1.1658 -1.4930
  976MOL0     H34624   9.284   2.402   2.149 -0.0431 -0.2021 -0.2027
  976MOL0     H34625   9.474   2.510   2.133 -3.1304 -0.3854 -2.2326
  976MOL0     H34626   9.417   2.664   2.203 -1.1465  0.2610  1.5751
  976MOL0     H34627   9.347   2.551   2.393 -1.4177  1.1107 -3.2560
  976MOL0     H34628   9.418   2.393   2.346  0.3509 -0.8505 -2.0226
  976MOL0     H34629   9.565   2.505   2.512 -1.3967 -0.3364  0.8956
  976MOL0     H34630   9.550   2.653   2.410 -3.0158 -0.8147 -1.1449
  976MOL0     H34631   9.669   2.393   2.288 -0.0564  0.2248 -0.4881
  976MOL0     H34632   9.678   2.556   2.230 -1.0797  0.9703  0.7689
  976MOL0     H34633   9.816   2.620   2.429 -1.4491  1.7229 -1.1525
  976MOL0     H34634   9.888   2.511   2.319  1.5144  1.5975  1.2016
  976MOL0     H34635   9.913   2.447   2.566  1.9759  1.5673 -2.9777
  976MOL0     H34636   9.745   2.424   2.583 -0.6938  1.8359  0.3834
  976MOL0     H34637  10.007   2.266   2.319 -0.6454 -0.1424 -0.0706
  976MOL0     H34638   9.927   1.997   2.175 -3.9704 -2.6656  0.1308
  976MOL0     H34639   9.901   1.891   2.297 -1.1763  0.6899  0.8292
  976MOL0     H34640  10.153   1.892   2.231  0.1341 -0.8997 -0.2461
  976MOL0     H34641  10.159   2.063   2.269 -0.4879  2.0640  3.0573
  976MOL0     H34642  10.103   1.983   2.514  0.4881  1.2547 -0.8877
  976MOL0     H34643  10.127   1.821   2.447  0.2548  0.2556 -0.7663
  976MOL0     H34644  10.323   1.886   2.561  2.8681 -3.0258 -2.0013
  976MOL0     H34645  10.374   1.879   2.406  2.7462  2.6399 -0.4708
  976MOL0     H34646  10.419   2.286   2.413  1.9731  0.4042 -3.0217
  976MOL0     H34647  10.695   2.498   2.497  2.0378 -3.6033  2.8542
  976MOL0     H34648  10.570   2.470   2.377  0.8143  0.5986 -0.7428
  976MOL0     H34649  10.736   2.412   2.355 -0.0051 -1.0342  0.1529
  976MOL0     H34650  11.136   2.315   2.603 -0.9832 -0.2251  0.5434
  976MOL0     H34651  11.357   2.316   2.694  0.7368 -1.9162 -0.5021
  976MOL0     H34652  11.398   2.249   3.140 -3.1175 -1.5974 -1.6689
  976MOL0     H34653  11.443   2.085   3.079  1.9006 -0.0430 -2.0120
  976MOL0     H34654  11.624   2.319   3.100 -1.5445  0.4909  0.3091
  976MOL0     H34655  11.627   2.175   3.195  1.8614 -0.2792 -0.7189
  976MOL0     H34656  11.699   2.187   2.890  5.3354 -2.1852 -2.9805
  976MOL0     H34657  11.687   2.036   2.970 -2.3213  0.8707 -2.6328
  976MOL0     H34658  11.846   2.146   3.159  1.5724  2.1887  0.7352
  976MOL0     H34659  11.897   2.245   3.017 -1.4346  0.1132  0.0353
  976MOL0     H34660  11.930   2.019   2.908  1.7035 -0.0138 -0.4248
  976MOL0     H34661  12.052   2.084   3.031  0.0999 -1.9025 -1.7146
  976MOL0     H34662  11.999   1.836   3.039 -0.3189 -0.4681  1.4822
  976MOL0     H34663  11.833   1.881   3.087 -0.8971  1.3306 -0.2242
  976MOL0     H34664  11.880   1.962   3.284 -0.9434 -1.3893 -1.8939
  976MOL0     H34665  12.054   1.987   3.267 -0.6939  0.9255  1.7753
  976MOL0     H34666  12.007   1.797   3.409 -0.9843 -1.2458  0.0210
  976MOL0     H34667  12.110   1.763   3.272  0.2774  3.6742 -1.2380
  976MOL0     H34668  11.193   2.142   3.057 -0.6689  1.3704  1.3478
  976MOL0     H34669  10.986   2.101   2.935  0.8743  1.2839  3.8241
  976MOL0     H34670  10.755   2.022   2.657  0.0524 -0.0568  0.8024
  976MOL0     H34671  10.553   1.927   2.603  2.8245 -0.2009 -0.2557
  976MOL0     H34672   9.151   2.692   1.813  0.3927  0.7378 -0.4460
  976MOL0     H34673   8.982   2.795   1.683 -0.6611 -1.0809 -0.7932
  976MOL0     H34674   8.686   2.972   1.564 -0.8380 -0.5958  0.7378
  976MOL0     H34675   8.513   3.130   1.454 -1.2939 -0.3080  0.7617
  976MOL0     H34676   8.260   2.975   1.151 -2.4833  0.4552 -0.8315
  976MOL0     H34677   8.140   2.981   1.273  1.0146 -1.1995  0.0105
  976MOL0     H34678   8.090   3.126   1.092  2.1919  0.4780 -1.3255
  976MOL0     H34679   8.225   3.222   1.111 -0.7576  0.8930  1.3514
  976MOL0     H34680   8.174   3.301   1.332  1.3307 -1.1358 -1.8594
  976MOL0     H34681   8.042   3.340   1.220  0.0179 -2.1354 -1.8201
  976MOL0     H34682   7.887   3.179   1.300 -0.5225  0.1596  0.8042
  976MOL0     H34683   7.945   3.307   1.414  2.1916  0.6685  0.4680
  976MOL0     H34684   8.084   2.946   1.604 -0.3368 -0.5819 -0.7883
  976MOL0     H34685   8.315   2.798   1.285 -1.1165  1.1008  0.9259
  976MOL0     H34686   8.411   2.587   1.300 -1.5242  0.1249  3.2821
  976MOL0     H34687   8.589   2.583   1.271 -0.9453  0.7630 -1.4078
  976MOL0     H34688   8.528   2.544   1.426  3.9336  0.4208  0.5460
  977MOL0     O34689   0.676   9.674   2.097  0.6736  0.0838  0.0846
  977MOL0     C34690   0.722   9.597   2.010  0.8323  0.0022 -0.7293
  977MOL0     O34691   0.645   9.535   1.917 -0.2543  0.7498  0.6298
  977MOL0     C34692   0.507   9.538   1.926 -0.2028  0.1349 -0.6354
  977MOL0     C34693   0.443   9.660   1.918  0.9636 -0.2182 -0.5926
  977MOL0     C34694   0.305   9.674   1.908  0.2465  0.2832  0.5351
  977MOL0     C34695   0.225   9.561   1.921  0.0338  0.2001 -0.3287
  977MOL0     O34696   0.086   9.570   1.931  0.2949 -0.6317  0.5055
  977MOL0     C34697   0.031   9.669   2.022  0.0338 -0.0632  0.7932
  977MOL0     C34698  -0.113   9.637   2.044  0.4391  0.1959  0.0192
  977MOL0     C34699  -0.151   9.494   2.085  0.5799 -0.6243 -0.5049
  977MOL0     C34700  -0.301   9.490   2.149  0.0510  0.7218 -0.1463
  977MOL0     C34701  -0.316   9.560   2.288 -0.5901 -0.6700  0.9624
  977MOL0     C34702  -0.225   9.506   2.399  0.0473 -0.0961  0.8718
  977MOL0     C34703  -0.236   9.355   2.424 -0.9144 -0.2806  0.8223
  977MOL0     C34704  -0.214   9.312   2.566 -0.0056 -0.4772  0.3050
  977MOL0     N34705  -0.076   9.315   2.599 -0.1008 -0.1121  0.3964
  977MOL0     C34706   0.013   9.220   2.545 -0.8728 -0.7460 -0.9768
  977MOL0     C34707   0.125   9.251   2.610 -0.5008  0.3103 -0.2775
  977MOL0     C34708   0.254   9.165   2.609  0.1154  0.1265  0.4701
  977MOL0     C34709   0.255   9.058   2.720 -0.3276  0.3706  0.7135
  977MOL0     C34710   0.380   8.968   2.720  0.0775 -0.1485  0.0854
  977MOL0     C34711   0.497   9.038   2.667 -0.2136 -1.0013 -0.5575
  977MOL0     O34712   0.602   8.939   2.677 -0.2594  0.0101 -0.6166
  977MOL0     C34713   0.726   8.970   2.614  0.3321  0.4963 -0.0714
  977MOL0     C34714   0.761   9.094   2.561  0.3307 -0.2856  0.3796
  977MOL0     C34715   0.883   9.110   2.486 -1.3552  0.4872  0.1172
  977MOL0     C34716   0.907   9.249   2.421 -0.4146  0.0944 -0.1671
  977MOL0     C34717   0.980   9.013   2.483  0.5045 -0.7869  0.3443
  977MOL0     C34718   1.117   9.026   2.426  0.7943 -0.2431  0.3585
  977MOL0     O34719   1.175   8.906   2.376 -0.4891 -0.1480 -0.3922
  977MOL0     C34720   1.304   8.896   2.320  0.9438 -0.0309  0.2664
  977MOL0     C34721   1.343   8.775   2.269 -0.6415 -0.9422  0.6271
  977MOL0     C34722   1.472   8.750   2.225 -0.4638  0.0877  0.4082
  977MOL0     C34723   1.564   8.851   2.200  0.3023 -0.5286  0.3068
  977MOL0     O34724   1.682   8.833   2.136  0.0206  0.7777 -0.0365
  977MOL0     C34725   1.746   8.709   2.179 -0.9966  0.6612  0.8628
  977MOL0     C34726   1.900   8.710   2.145 -0.3973  0.2319  0.0563
  977MOL0     C34727   1.974   8.826   2.196 -0.2296  0.0691 -0.2209
  977MOL0     C34728   2.113   8.832   2.142 -0.4472  0.2882 -0.3868
  977MOL0     C34729   2.191   8.962   2.169  0.7062  1.1106 -1.0820
  977MOL0     C34730   2.325   8.956   2.096 -0.8100 -0.7844  0.2859
  977MOL0     C34731   2.314   8.918   1.946 -0.6754  0.6805  0.3059
  977MOL0     C34732   2.451   8.934   1.868 -0.3216 -0.7972 -0.8557
  977MOL0    Cl34733   2.507   9.107   1.874  0.2301  0.5774  0.1077
  977MOL0     C34734   1.526   8.984   2.232 -0.3588 -0.1445 -0.4442
  977MOL0     C34735   1.402   8.996   2.302 -0.4081 -0.5906  0.3761
  977MOL0     O34736   1.174   9.129   2.446  0.4461  0.1470  0.0059
  977MOL0     C34737   0.944   8.883   2.539 -0.3122  0.0697 -0.9075
  977MOL0     C34738   0.820   8.868   2.605 -0.5873  0.3373  0.5534
  977MOL0     N34739   0.103   9.349   2.702  0.2849 -0.1241  0.3716
  977MOL0     N34740  -0.016   9.388   2.697  0.6521 -0.1070  0.4880
  977MOL0     C34741   0.293   9.439   1.933 -0.0636 -0.0814 -0.8272
  977MOL0     C34742   0.434   9.419   1.932 -0.1089  0.4405 -0.1282
  977MOL0     C34743   0.864   9.574   1.997 -0.1350  0.2912 -0.0359
  977MOL0     C34744   0.911   9.546   1.865  0.2408  0.1436  0.0208
  977MOL0     C34745   1.045   9.516   1.841 -0.7732 -0.1667 -0.1793
  977MOL0     C34746   1.142   9.543   1.941  0.1119 -0.7833  0.2588
  977MOL0     O34747   1.282   9.512   1.926 -0.3596 -0.0278  0.3801
  977MOL0     C34748   1.340   9.516   1.792 -0.0127 -0.5248 -0.6934
  977MOL0     C34749   1.367   9.364   1.750  0.5959 -1.0647 -0.2900
  977MOL0     C34750   1.475   9.298   1.839 -0.5069 -0.2594 -0.0654
  977MOL0     C34751   1.416   9.216   1.958 -0.1409 -0.0451 -0.1052
  977MOL0     C34752   1.321   9.105   1.912  0.1429  0.3946  0.1466
  977MOL0     C34753   1.261   8.996   1.877  0.7599  0.1751 -1.1882
  977MOL0     C34754   1.098   9.572   2.066  0.5443 -0.2400 -0.1801
  977MOL0     C34755   0.955   9.582   2.100 -1.2445 -0.4661 -0.2616
  977MOL0     C34756   0.922   9.593   2.248 -0.2649  0.1128  0.2555
  977MOL0     H34757   0.497   9.754   1.924 -0.1456  0.3542  1.8764
  977MOL0     H34758   0.264   9.775   1.906  0.3265  0.3234  0.7964
  977MOL0     H34759   0.033   9.772   1.986 -1.4305  0.1254  1.1975
  977MOL0     H34760   0.080   9.662   2.120 -0.2537 -0.8120  0.8920
  977MOL0     H34761  -0.144   9.708   2.121  1.3180  0.5340  0.0766
  977MOL0     H34762  -0.182   9.654   1.962 -0.7013 -1.2203  0.6264
  977MOL0     H34763  -0.144   9.434   1.993 -1.3686 -2.4554  0.4588
  977MOL0     H34764  -0.089   9.458   2.168  0.8526  0.7889 -0.0760
  977MOL0     H34765  -0.363   9.539   2.073 -0.3388 -2.1539 -1.8201
  977MOL0     H34766  -0.334   9.387   2.161 -1.1809  1.0400 -0.6421
  977MOL0     H34767  -0.418   9.553   2.325 -1.5308  0.7007 -1.1886
  977MOL0     H34768  -0.297   9.666   2.270 -2.6525 -0.2722  0.8941
  977MOL0     H34769  -0.122   9.523   2.367 -0.2550 -1.3627 -0.8443
  977MOL0     H34770  -0.261   9.554   2.491 -0.6016  0.3475  0.4016
  977MOL0     H34771  -0.166   9.298   2.363 -0.3458  0.6454  0.5987
  977MOL0     H34772  -0.341   9.332   2.403 -1.3597  1.0550  1.4966
  977MOL0     H34773  -0.276   9.376   2.629  0.5636  0.1481  0.2318
  977MOL0     H34774  -0.246   9.207   2.576 -2.3120  0.2811  1.7126
  977MOL0     H34775   0.008   9.146   2.466  1.9543 -0.7796 -1.2529
  977MOL0     H34776   0.331   9.241   2.623 -0.7796  1.0085  0.7167
  977MOL0     H34777   0.250   9.114   2.513 -0.0911  1.6472 -0.3627
  977MOL0     H34778   0.245   9.110   2.816  0.0720  0.0966  0.9078
  977MOL0     H34779   0.166   8.996   2.710 -0.4744  0.6506  0.2887
  977MOL0     H34780   0.394   8.940   2.825 -2.9824  2.4485  1.3564
  977MOL0     H34781   0.371   8.873   2.668 -0.6783 -0.2165  0.3329
  977MOL0     H34782   0.485   9.066   2.562 -0.7073 -0.9966 -0.5029
  977MOL0     H34783   0.512   9.128   2.727  0.8117  0.6452 -3.1122
  977MOL0     H34784   0.699   9.183   2.558  1.6400  0.6634  0.4358
  977MOL0     H34785   0.977   9.309   2.480 -0.0612 -0.0284 -0.4523
  977MOL0     H34786   0.814   9.306   2.424 -0.5377 -0.1412  0.5900
  977MOL0     H34787   0.955   9.239   2.323 -1.8890  1.1521 -1.0339
  977MOL0     H34788   1.274   8.691   2.277 -2.2605  0.0956 -1.6699
  977MOL0     H34789   1.499   8.652   2.189 -0.3636 -0.4017  1.7447
  977MOL0     H34790   1.718   8.669   2.277 -1.5204 -1.5939 -0.1375
  977MOL0     H34791   1.691   8.635   2.120 -0.8797  1.9140 -0.9096
  977MOL0     H34792   1.951   8.624   2.188 -2.8010 -1.8453 -0.9582
  977MOL0     H34793   1.902   8.705   2.036 -0.2280 -0.3793  0.0898
  977MOL0     H34794   1.973   8.815   2.305  2.7676  0.3996 -0.0984
  977MOL0     H34795   1.924   8.921   2.176 -1.4021 -1.0941 -3.4096
  977MOL0     H34796   2.100   8.818   2.034 -2.0796 -0.7408 -0.0962
  977MOL0     H34797   2.172   8.744   2.168 -1.9225 -0.6127  0.0016
  977MOL0     H34798   2.127   9.049   2.148 -1.6988 -0.3222 -0.1169
  977MOL0     H34799   2.211   8.972   2.276  0.1958  0.2552 -0.8950
  977MOL0     H34800   2.382   8.878   2.147 -0.3152  0.0578  1.0596
  977MOL0     H34801   2.387   9.045   2.114  2.3794 -2.8034  0.0177
  977MOL0     H34802   2.242   8.981   1.893 -0.1795 -1.9780 -3.9509
  977MOL0     H34803   2.280   8.814   1.938 -2.7022  1.0773  2.4805
  977MOL0     H34804   2.454   8.886   1.770  0.2670  1.5388 -2.0580
  977MOL0     H34805   2.522   8.887   1.937  0.9801  1.0690 -0.8343
  977MOL0     H34806   1.598   9.065   2.221  0.1792 -0.5750 -0.1449
  977MOL0     H34807   1.387   9.097   2.337 -0.4467  0.1484 -1.6400
  977MOL0     H34808   1.009   8.796   2.537 -0.6776 -0.1931 -1.5254
  977MOL0     H34809   0.803   8.766   2.638 -1.8403 -1.8193 -5.5388
  977MOL0     H34810   0.236   9.349   1.950 -2.0262  1.6112  2.7558
  977MOL0     H34811   0.487   9.326   1.916  1.0884  1.3394 -1.8152
  977MOL0     H34812   0.847   9.537   1.778  0.7347  1.6109 -0.5324
  977MOL0     H34813   1.082   9.460   1.755  1.0156  0.5121  0.1054
  977MOL0     H34814   1.264   9.552   1.721 -2.6487 -1.0797  1.6780
  977MOL0     H34815   1.436   9.569   1.793  1.3759 -2.8357  2.1815
  977MOL0     H34816   1.398   9.369   1.645  1.6224 -2.1001 -0.0661
  977MOL0     H34817   1.277   9.301   1.759  1.2820 -2.0830 -0.3511
  977MOL0     H34818   1.541   9.242   1.772 -0.9870  0.3759 -1.0847
  977MOL0     H34819   1.543   9.372   1.881 -0.4654  0.4554 -1.3467
  977MOL0     H34820   1.362   9.285   2.025  3.4509  1.4667  1.5065
  977MOL0     H34821   1.499   9.183   2.021  0.8978  0.3371 -1.2313
  977MOL0     H34822   1.221   8.903   1.843  3.5138 -1.5175 -0.1885
  977MOL0     H34823   1.162   9.599   2.149 -0.3680 -0.1099  0.4997
  977MOL0     H34824   0.857   9.507   2.266  0.4016 -0.9508 -1.9546
  977MOL0     H34825   1.008   9.586   2.315  1.0788 -1.1780 -1.4837
  977MOL0     H34826   0.867   9.687   2.258  1.1601  0.9866  0.1592
  978MOL0     O34827  10.786   6.251   9.007  0.7470 -0.5610 -0.2225
  978MOL0     C34828  10.742   6.336   9.082  0.2148 -0.7730 -0.1307
  978MOL0     O34829  10.805   6.396   9.184  0.0455 -0.5387 -0.1305
  978MOL0     C34830  10.918   6.338   9.233  0.4856  0.4117  0.0929
  978MOL0     C34831  10.925   6.199   9.244 -0.4404 -0.0991  0.5589
  978MOL0     C34832  11.057   6.147   9.266 -0.4665  1.0074  0.7141
  978MOL0     C34833  11.176   6.222   9.262 -0.4436  0.7970 -0.8565
  978MOL0     O34834  11.302   6.165   9.287  0.3243  0.5493 -0.0908
  978MOL0     C34835  11.308   6.027   9.291  0.1179  0.3791 -0.6446
  978MOL0     C34836  11.452   5.993   9.276 -0.0246  0.2286  0.3900
  978MOL0     C34837  11.528   5.989   9.412 -0.6476 -0.7769 -0.5278
  978MOL0     C34838  11.671   5.943   9.392 -0.4643  0.0588  0.6265
  978MOL0     C34839  11.715   5.856   9.515 -0.2073  0.6214 -0.8529
  978MOL0     C34840  11.861   5.815   9.496  0.3422  0.3592  0.1434
  978MOL0     C34841  11.966   5.917   9.484  0.4045  0.5665 -0.7466
  978MOL0     C34842  12.106   5.863   9.447  0.7251 -0.1477 -0.0902
  978MOL0     N34843  12.159   5.763   9.549  0.3615 -0.1449  0.4663
  978MOL0     C34844  12.207   5.800   9.670  0.4276  0.5601 -0.3705
  978MOL0     C34845  12.249   5.677   9.722 -0.6466 -0.6261  0.2992
  978MOL0     C34846  12.305   5.659   9.862  0.0163  0.0956  0.9389
  978MOL0     C34847  12.439   5.588   9.864 -0.7398 -0.0760 -0.1022
  978MOL0     C34848  12.547   5.659   9.777 -0.2686  0.6362  0.0899
  978MOL0     C34849  12.682   5.594   9.760  0.1119  0.6626  0.2465
  978MOL0     O34850  12.672   5.445   9.752  0.1810 -0.4824  0.5458
  978MOL0     C34851  12.783   5.379   9.720  0.0395 -0.0325 -0.3090
  978MOL0     C34852  12.905   5.444   9.696 -0.6863 -0.4590  0.1678
  978MOL0     C34853  13.009   5.370   9.651 -0.6610  0.4451 -0.1746
  978MOL0     C34854  13.124   5.452   9.605 -0.1074 -0.9338  0.5499
  978MOL0     C34855  12.998   5.222   9.636 -1.1284  0.7043  0.0992
  978MOL0     C34856  13.115   5.140   9.596 -0.0592 -0.1754 -0.6063
  978MOL0     O34857  13.092   5.008   9.571  0.0536  0.1122 -0.0911
  978MOL0     C34858  13.192   4.929   9.515 -0.5050 -0.8800  0.3149
  978MOL0     C34859  13.251   4.966   9.394  1.1045  0.4025 -0.6739
  978MOL0     C34860  13.358   4.901   9.340 -1.2828  0.6954 -0.2234
  978MOL0     C34861  13.417   4.799   9.416 -0.6662  0.8048  0.1851
  978MOL0     O34862  13.528   4.742   9.365 -0.0955 -1.1750  0.6570
  978MOL0     C34863  13.618   4.667   9.447 -0.8161 -0.0081 -0.4662
  978MOL0     C34864  13.751   4.645   9.366 -0.4335 -0.5245 -0.0536
  978MOL0     C34865  13.850   4.550   9.432 -0.1060 -0.5016 -0.4220
  978MOL0     C34866  13.977   4.506   9.355  0.6698  0.4933  1.0772
  978MOL0     C34867  14.089   4.460   9.448  0.9335  1.0400 -0.2924
  978MOL0     C34868  14.057   4.324   9.508 -0.5910  0.0053 -0.1090
  978MOL0     C34869  14.164   4.284   9.617  0.6889 -0.3727 -0.2962
  978MOL0     C34870  14.159   4.133   9.651  0.2677  0.3350  0.3421
  978MOL0    Cl34871  13.994   4.095   9.719 -0.0979 -0.2866 -0.2380
  978MOL0     C34872  13.374   4.775   9.554  0.1677 -1.0417  0.0925
  978MOL0     C34873  13.254   4.838   9.593  0.5995  0.2903  0.2204
  978MOL0     O34874  13.227   5.192   9.612 -0.8672  0.1005  0.9266
  978MOL0     C34875  12.878   5.162   9.661 -0.1777  0.3087  0.4436
  978MOL0     C34876  12.774   5.240   9.693 -0.6814 -0.4989 -0.1146
  978MOL0     N34877  12.221   5.574   9.631  0.0711  0.0684  0.3060
  978MOL0     N34878  12.164   5.630   9.529  0.1066 -0.3146  0.2782
  978MOL0     C34879  11.159   6.358   9.254  0.5116 -0.1445  0.2165
  978MOL0     C34880  11.032   6.415   9.242  0.3230  0.2640 -0.4219
  978MOL0     C34881  10.609   6.396   9.049 -0.2136  0.9092  0.1516
  978MOL0     C34882  10.553   6.496   9.129 -0.5222 -0.5876 -0.2711
  978MOL0     C34883  10.422   6.541   9.119 -0.8565 -0.5194 -0.5110
  978MOL0     C34884  10.351   6.519   9.001 -0.2406  0.5003 -0.1039
  978MOL0     O34885  10.237   6.592   8.980  0.4313 -0.3651  0.2071
  978MOL0     C34886  10.262   6.703   8.897 -0.3796 -0.3090 -0.9019
  978MOL0     C34887  10.133   6.787   8.889  0.1719  0.2803  1.0431
  978MOL0     C34888  10.014   6.702   8.839 -0.0869 -0.4441 -0.4400
  978MOL0     C34889  10.015   6.663   8.693 -0.1870 -0.5569 -0.5197
  978MOL0     C34890  10.008   6.768   8.596 -0.0797 -0.7412 -0.4778
  978MOL0     C34891  10.001   6.861   8.513 -0.3142  0.3638  0.0116
  978MOL0     C34892  10.410   6.423   8.914 -0.4464  0.3658  1.0440
  978MOL0     C34893  10.530   6.357   8.936 -0.6607  0.4590 -0.5265
  978MOL0     C34894  10.554   6.243   8.835 -0.1155  0.4183  0.1183
  978MOL0     H34895  10.835   6.139   9.230  0.0166 -1.0440  1.5271
  978MOL0     H34896  11.053   6.039   9.268  2.3984  0.6807 -2.2375
  978MOL0     H34897  11.270   5.979   9.201 -0.1630 -2.0136  0.6745
  978MOL0     H34898  11.258   5.994   9.382  0.7973 -0.5685 -0.6016
  978MOL0     H34899  11.466   5.899   9.222 -2.5764 -0.0930  0.1755
  978MOL0     H34900  11.494   6.075   9.218  1.5555  0.2139  1.4534
  978MOL0     H34901  11.535   6.084   9.464 -0.3504 -1.0163 -0.1218
  978MOL0     H34902  11.477   5.915   9.475 -3.1334  1.7828  0.6516
  978MOL0     H34903  11.678   5.880   9.302 -0.4028 -0.2029  0.8132
  978MOL0     H34904  11.730   6.030   9.360  2.3843 -2.3070 -1.1136
  978MOL0     H34905  11.656   5.765   9.512 -1.2480  1.2778 -0.8590
  978MOL0     H34906  11.707   5.907   9.611 -0.2544  0.2854 -0.6798
  978MOL0     H34907  11.894   5.761   9.585  1.3925  1.2940  0.3520
  978MOL0     H34908  11.866   5.751   9.407 -0.6887  0.5449 -0.0625
  978MOL0     H34909  11.968   5.970   9.580  1.0733 -0.7275 -0.0073
  978MOL0     H34910  11.943   5.985   9.402  1.0302  1.9614  0.2074
  978MOL0     H34911  12.090   5.824   9.346 -1.9382  0.8022 -0.1399
  978MOL0     H34912  12.184   5.939   9.458  1.3515 -0.9630  1.3714
  978MOL0     H34913  12.204   5.891   9.730  0.7995  1.2210 -1.3346
  978MOL0     H34914  12.232   5.593   9.909 -0.5030  1.9895  2.9564
  978MOL0     H34915  12.313   5.760   9.905 -1.1859  0.6526 -0.0559
  978MOL0     H34916  12.478   5.600   9.965 -0.5210  2.9371 -0.4547
  978MOL0     H34917  12.417   5.482   9.847 -3.7541  0.5249 -0.3915
  978MOL0     H34918  12.505   5.682   9.679  0.6202 -0.9085 -0.6874
  978MOL0     H34919  12.560   5.762   9.812 -1.3602  1.0857 -0.7864
  978MOL0     H34920  12.721   5.641   9.669 -2.3717 -0.4317 -1.4904
  978MOL0     H34921  12.749   5.622   9.842  0.9638 -0.9903  0.1647
  978MOL0     H34922  12.913   5.551   9.705  0.3630 -0.5015 -0.1668
  978MOL0     H34923  13.132   5.462   9.497 -0.8207  0.1138  0.5818
  978MOL0     H34924  13.217   5.418   9.652  0.1912 -2.8859 -1.2657
  978MOL0     H34925  13.112   5.551   9.650 -1.5568 -0.3957 -0.9670
  978MOL0     H34926  13.205   5.049   9.341 -0.0258  0.7978  0.8320
  978MOL0     H34927  13.400   4.917   9.241 -1.9637 -0.1069 -0.6623
  978MOL0     H34928  13.648   4.725   9.535 -1.2420  1.5511 -1.3144
  978MOL0     H34929  13.582   4.577   9.499 -0.8045  0.2544  0.0085
  978MOL0     H34930  13.732   4.608   9.265  1.2836 -1.5554 -0.0412
  978MOL0     H34931  13.795   4.744   9.363 -0.1846 -0.5286  2.0569
  978MOL0     H34932  13.796   4.464   9.472 -0.5467  1.2605  3.1823
  978MOL0     H34933  13.887   4.603   9.520 -0.6117 -2.8455  1.3128
  978MOL0     H34934  14.016   4.589   9.295  2.5386 -0.3609  1.0520
  978MOL0     H34935  13.943   4.427   9.287 -2.2676  1.8371  0.8457
  978MOL0     H34936  14.187   4.460   9.400  1.9559 -1.2741  1.5776
  978MOL0     H34937  14.094   4.537   9.525 -0.5902  0.9526 -0.0620
  978MOL0     H34938  14.053   4.254   9.424  0.2675  0.2542 -0.3700
  978MOL0     H34939  13.960   4.338   9.556  0.1728 -2.1157  2.3130
  978MOL0     H34940  14.142   4.338   9.710 -1.6893 -1.0548 -0.4004
  978MOL0     H34941  14.263   4.312   9.579  1.7048 -0.4225  2.0911
  978MOL0     H34942  14.234   4.105   9.726  0.1576 -3.3011 -0.6880
  978MOL0     H34943  14.177   4.082   9.556  2.0263  1.1809  0.2014
  978MOL0     H34944  13.420   4.709   9.626  0.5744 -0.8833 -0.0178
  978MOL0     H34945  13.207   4.829   9.691 -0.4340  1.3481 -0.1594
  978MOL0     H34946  12.849   5.059   9.643 -3.9570  1.1143  1.2501
  978MOL0     H34947  12.675   5.195   9.702 -1.1275  0.3959 -0.4992
  978MOL0     H34948  11.237   6.432   9.268  0.2965  0.5925 -2.1255
  978MOL0     H34949  11.041   6.522   9.229 -0.3435  0.2508 -1.0389
  978MOL0     H34950  10.611   6.532   9.213 -0.1763  2.5278 -1.6938
  978MOL0     H34951  10.389   6.607   9.199 -2.6438 -1.8468 -0.0936
  978MOL0     H34952  10.340   6.764   8.941 -1.1443 -0.2691  0.4579
  978MOL0     H34953  10.285   6.680   8.793  2.5990  0.4740 -0.5012
  978MOL0     H34954  10.146   6.875   8.825  1.4715 -1.0090 -0.5430
  978MOL0     H34955  10.111   6.823   8.990  2.3944 -1.7376  2.3501
  978MOL0     H34956  10.003   6.609   8.894 -1.5193  0.3546  0.6897
  978MOL0     H34957   9.929   6.767   8.863  1.6511  2.5370 -1.7590
  978MOL0     H34958   9.922   6.610   8.673 -0.8921  0.9198 -1.2860
  978MOL0     H34959  10.103   6.601   8.672  1.3974  0.9146  1.3087
  978MOL0     H34960   9.998   6.939   8.440  0.2834  0.0054 -0.4027
  978MOL0     H34961  10.361   6.416   8.818 -0.0118  1.5083  0.7211
  978MOL0     H34962  10.617   6.275   8.751 -1.1908 -0.1770 -0.9411
  978MOL0     H34963  10.582   6.145   8.875  0.7348  0.8233  0.5547
  978MOL0     H34964  10.458   6.223   8.786 -0.4438 -2.3841  1.7371
  979MOL0     O34965   4.081   7.159   4.267 -0.0692  0.1218  1.0706
  979MOL0     C34966   4.056   7.037   4.270  0.0214 -0.2179  0.3225
  979MOL0     O34967   4.092   6.939   4.185 -0.2130 -0.7948  0.0359
  979MOL0     C34968   4.159   6.983   4.076  0.1176 -0.1271  0.4308
  979MOL0     C34969   4.294   7.025   4.086  0.3829  0.7451 -0.2169
  979MOL0     C34970   4.357   7.066   3.978 -0.6972 -0.3861  0.3889
  979MOL0     C34971   4.301   7.058   3.853 -0.3346  0.0950  0.0271
  979MOL0     O34972   4.382   7.104   3.749  0.2672  0.7053 -0.2148
  979MOL0     C34973   4.387   7.027   3.629  0.2274 -0.0562  0.6540
  979MOL0     C34974   4.482   7.093   3.527 -0.2783 -0.3948  0.4223
  979MOL0     C34975   4.618   7.141   3.583  0.1497  0.3625 -0.4264
  979MOL0     C34976   4.692   7.213   3.469  0.4014 -0.2067 -1.3318
  979MOL0     C34977   4.834   7.249   3.512  0.0145  1.1874 -0.0983
  979MOL0     C34978   4.847   7.373   3.600  0.9617  0.7650  0.1275
  979MOL0     C34979   4.981   7.410   3.641  0.0654  0.7917 -0.3698
  979MOL0     C34980   4.977   7.530   3.741  0.9993 -0.1526  0.6684
  979MOL0     N34981   5.117   7.574   3.749  0.3446 -0.1104  0.6275
  979MOL0     C34982   5.213   7.533   3.841 -0.3505 -0.1656  0.3271
  979MOL0     C34983   5.336   7.565   3.800  0.0530  0.5008  0.1547
  979MOL0     C34984   5.456   7.531   3.879  0.0244  0.1022  0.5861
  979MOL0     C34985   5.494   7.650   3.972  0.5362  1.0492 -0.2710
  979MOL0     C34986   5.545   7.773   3.894  0.2490  0.6595 -0.6486
  979MOL0     C34987   5.573   7.893   3.982 -0.2707 -0.5119  0.7723
  979MOL0     O34988   5.705   7.866   4.043 -0.1287 -0.4148  0.3150
  979MOL0     C34989   5.731   7.953   4.145 -0.2098 -0.3665 -0.4385
  979MOL0     C34990   5.710   8.094   4.123  0.4205 -0.2560 -0.1742
  979MOL0     C34991   5.755   8.186   4.216 -0.5449 -0.0032  0.3300
  979MOL0     C34992   5.742   8.322   4.178  0.6859  0.2539  0.5276
  979MOL0     C34993   5.837   8.139   4.329  0.2311 -0.1969 -0.8591
  979MOL0     C34994   5.920   8.228   4.417  0.6063  0.3887  0.2424
  979MOL0     O34995   5.970   8.172   4.536 -0.1675 -0.7757  0.2624
  979MOL0     C34996   6.075   8.232   4.601 -0.1303 -0.6430  0.0149
  979MOL0     C34997   6.084   8.367   4.638  0.2013  0.3230  0.9104
  979MOL0     C34998   6.212   8.423   4.684  0.5223  0.6129  0.5045
  979MOL0     C34999   6.317   8.334   4.706 -0.3015 -0.0131  0.2123
  979MOL0     O35000   6.441   8.361   4.768 -0.3901  0.0693 -0.1509
  979MOL0     C35001   6.465   8.498   4.795 -1.2856  0.2637  0.5286
  979MOL0     C35002   6.617   8.498   4.832  0.0819  0.1449 -0.2583
  979MOL0     C35003   6.629   8.573   4.960 -0.1090  0.4142 -0.2112
  979MOL0     C35004   6.534   8.523   5.070 -0.3859  0.1392 -1.0518
  979MOL0     C35005   6.621   8.517   5.195  0.1082  0.3577 -0.5205
  979MOL0     C35006   6.547   8.481   5.316 -0.3864 -0.3663 -1.2695
  979MOL0     C35007   6.635   8.459   5.440 -0.1601  0.2038  0.5647
  979MOL0     C35008   6.683   8.586   5.504 -0.0753 -0.4621  0.1680
  979MOL0    Cl35009   6.735   8.561   5.678  0.0668 -0.2226  0.1303
  979MOL0     C35010   6.298   8.198   4.689  0.0151 -0.2719 -0.0248
  979MOL0     C35011   6.183   8.153   4.629  0.0177  0.3831  0.3249
  979MOL0     O35012   5.939   8.339   4.380  0.3515  0.0401  1.0375
  979MOL0     C35013   5.849   8.006   4.356  0.3771  0.2916 -0.0696
  979MOL0     C35014   5.801   7.914   4.265  0.0394  0.2432  0.3160
  979MOL0     N35015   5.319   7.623   3.677  0.2178  0.1520 -0.5672
  979MOL0     N35016   5.188   7.632   3.647 -0.2959  0.1771  0.3067
  979MOL0     C35017   4.170   7.022   3.843  0.0902 -0.6654 -0.1649
  979MOL0     C35018   4.094   6.975   3.956 -0.1312 -0.2465  0.1502
  979MOL0     C35019   3.948   7.010   4.373  0.3020  0.9608 -0.0269
  979MOL0     C35020   3.845   7.100   4.386 -0.0470 -0.3321  0.0846
  979MOL0     C35021   3.738   7.073   4.472  0.6395 -0.1968 -0.4401
  979MOL0     C35022   3.725   6.953   4.536 -0.3591  0.2968  1.1404
  979MOL0     O35023   3.595   6.934   4.584  0.4515 -0.8356 -0.2987
  979MOL0     C35024   3.576   6.820   4.658  0.1234  0.6187 -0.5822
  979MOL0     C35025   3.526   6.705   4.578 -0.6580  0.2549  0.3991
  979MOL0     C35026   3.386   6.731   4.521  0.1441 -0.2006 -0.1462
  979MOL0     C35027   3.321   6.621   4.437  0.1257  0.1615  0.7416
  979MOL0     C35028   3.258   6.676   4.313  0.1441  0.5236 -1.1973
  979MOL0     C35029   3.201   6.720   4.212 -1.0004  0.5473  0.1788
  979MOL0     C35030   3.830   6.857   4.528  0.6773  0.0054  0.8019
  979MOL0     C35031   3.940   6.886   4.446 -0.9538 -0.8414  0.5939
  979MOL0     C35032   4.052   6.785   4.445 -0.1274 -1.3587  0.4760
  979MOL0     H35033   4.337   7.027   4.185  1.7968 -2.8039 -0.6076
  979MOL0     H35034   4.453   7.114   3.997 -0.5391 -0.2941 -0.5951
  979MOL0     H35035   4.290   7.013   3.581  0.2063  0.5804  0.4980
  979MOL0     H35036   4.441   6.937   3.659  3.9513  2.2696  1.6354
  979MOL0     H35037   4.491   7.031   3.437 -1.1922 -1.5939  1.1159
  979MOL0     H35038   4.422   7.181   3.502 -2.2587 -1.7793  0.0198
  979MOL0     H35039   4.605   7.207   3.669 -0.4392  0.0162 -0.2508
  979MOL0     H35040   4.671   7.049   3.609  0.4745  0.3561 -1.0622
  979MOL0     H35041   4.690   7.146   3.382 -2.4700 -0.9211 -0.8137
  979MOL0     H35042   4.645   7.309   3.444  0.5805  0.3067  0.2212
  979MOL0     H35043   4.890   7.269   3.420 -1.3785  3.0164 -0.6036
  979MOL0     H35044   4.880   7.159   3.553  0.7473  0.4420 -2.4109
  979MOL0     H35045   4.796   7.448   3.538  0.4523  1.6844  1.6074
  979MOL0     H35046   4.786   7.363   3.691  2.8598 -0.1617  1.3488
  979MOL0     H35047   5.038   7.443   3.554  0.2157 -0.1077 -0.6217
  979MOL0     H35048   5.034   7.323   3.682 -2.5906 -0.6126  0.3109
  979MOL0     H35049   4.918   7.612   3.701  1.8394 -0.1931 -0.6975
  979MOL0     H35050   4.925   7.509   3.835 -2.5185 -1.3933 -1.3773
  979MOL0     H35051   5.188   7.498   3.941 -1.0201 -0.0080  0.2174
  979MOL0     H35052   5.546   7.518   3.817 -1.5950  0.2243 -1.9280
  979MOL0     H35053   5.439   7.435   3.929 -1.2203 -1.2092 -2.0993
  979MOL0     H35054   5.405   7.690   4.020  1.7158  2.6003  0.7087
  979MOL0     H35055   5.581   7.619   4.031  0.2908 -2.0618 -1.3327
  979MOL0     H35056   5.633   7.747   3.835 -0.5751 -2.7312 -0.6082
  979MOL0     H35057   5.469   7.811   3.824  0.1633  0.3885 -0.7026
  979MOL0     H35058   5.579   7.978   3.914  0.3569 -1.8351 -0.9290
  979MOL0     H35059   5.497   7.913   4.059  0.2698 -2.1274  1.7890
  979MOL0     H35060   5.664   8.131   4.033  1.3411  2.4533  0.3770
  979MOL0     H35061   5.717   8.388   4.261 -0.6275 -0.3346  0.6265
  979MOL0     H35062   5.670   8.334   4.097  1.9568  0.3872 -0.6353
  979MOL0     H35063   5.841   8.357   4.144 -0.4643  4.9949  1.3739
  979MOL0     H35064   5.996   8.429   4.621  0.0736  0.0512  0.5602
  979MOL0     H35065   6.216   8.530   4.705 -1.5273  0.5562  1.4078
  979MOL0     H35066   6.444   8.556   4.704 -2.0883 -0.0148  0.5282
  979MOL0     H35067   6.400   8.546   4.869  0.3952  2.1210  0.9007
  979MOL0     H35068   6.662   8.400   4.853 -0.1397  0.0561 -0.1889
  979MOL0     H35069   6.668   8.553   4.753  2.4905  0.9910  1.7753
  979MOL0     H35070   6.599   8.676   4.941 -1.5197 -0.3360 -2.3933
  979MOL0     H35071   6.735   8.570   4.988  0.5772  0.1863 -2.6158
  979MOL0     H35072   6.481   8.430   5.050  0.4326 -0.4301 -0.6572
  979MOL0     H35073   6.457   8.597   5.091  1.5572  1.7496  0.9746
  979MOL0     H35074   6.698   8.441   5.178  0.2802  1.0881 -3.4516
  979MOL0     H35075   6.667   8.615   5.207 -0.8159  0.6619  0.7435
  979MOL0     H35076   6.501   8.382   5.308  2.3701 -2.0408  1.4094
  979MOL0     H35077   6.468   8.551   5.346  0.5857 -0.3181  1.4402
  979MOL0     H35078   6.716   8.386   5.432 -1.4316 -1.2859  0.8228
  979MOL0     H35079   6.573   8.408   5.514  2.1399 -1.8295  1.2016
  979MOL0     H35080   6.598   8.655   5.516 -0.0751 -0.6607  1.4640
  979MOL0     H35081   6.764   8.634   5.447  2.0994 -2.4350  1.4447
  979MOL0     H35082   6.369   8.122   4.722 -0.0549 -0.8102 -1.0806
  979MOL0     H35083   6.171   8.049   4.599  2.5878  0.3800 -0.8736
  979MOL0     H35084   5.904   7.974   4.444 -2.3352 -0.7158  1.3547
  979MOL0     H35085   5.839   7.812   4.276  1.4180  0.7870  0.8439
  979MOL0     H35086   4.130   7.012   3.742  1.9107 -0.5711 -0.9413
  979MOL0     H35087   3.999   6.925   3.944  1.1646 -2.2522 -2.6630
  979MOL0     H35088   3.843   7.193   4.330  1.5695  1.7807  3.2284
  979MOL0     H35089   3.658   7.147   4.467  1.2849  0.4367 -2.8378
  979MOL0     H35090   3.668   6.785   4.707 -0.4325 -0.5517 -0.3380
  979MOL0     H35091   3.498   6.847   4.730 -1.0621 -3.7217  0.1005
  979MOL0     H35092   3.526   6.615   4.640 -3.1196  0.6885  1.1411
  979MOL0     H35093   3.598   6.696   4.496 -0.9953  0.7494  0.0411
  979MOL0     H35094   3.319   6.751   4.605 -0.8897  0.8425 -1.1701
  979MOL0     H35095   3.387   6.822   4.461  1.0607 -0.0693  0.0607
  979MOL0     H35096   3.251   6.557   4.493  0.3744 -0.6376  0.1497
  979MOL0     H35097   3.400   6.556   4.399 -0.5749  0.8062 -2.0116
  979MOL0     H35098   3.163   6.747   4.116  0.8105 -0.5162 -0.9197
  979MOL0     H35099   3.829   6.764   4.584  0.7032  0.7376  2.0515
  979MOL0     H35100   4.049   6.737   4.346  1.0193 -1.4395  0.4733
  979MOL0     H35101   4.145   6.839   4.461  0.7356 -2.1952 -1.4030
  979MOL0     H35102   4.043   6.715   4.528 -2.4454 -0.0573  1.4450
  980MOL0     O35103   6.493   7.643  10.371 -0.0359  0.1373  0.9677
  980MOL0     C35104   6.432   7.738  10.322 -0.1088  0.6438 -0.9356
  980MOL0     O35105   6.493   7.859  10.305 -0.3914  0.3699  0.5349
  980MOL0     C35106   6.631   7.867  10.306  0.5045 -0.2812  0.3850
  980MOL0     C35107   6.711   7.793  10.221 -0.5681  0.0605 -0.4234
  980MOL0     C35108   6.845   7.795  10.242  0.3573 -0.2774 -0.2734
  980MOL0     C35109   6.904   7.889  10.332  0.0126  0.4335  1.3229
  980MOL0     O35110   7.036   7.907  10.347 -0.4083  0.6103 -0.1697
  980MOL0     C35111   7.114   7.884  10.227  0.1182 -0.0298 -0.3589
  980MOL0     C35112   7.254   7.943  10.249  0.5327 -0.7327 -0.1991
  980MOL0     C35113   7.265   8.092  10.201 -0.1628 -0.0870  0.4171
  980MOL0     C35114   7.402   8.141  10.255 -0.8982  0.6668  0.2524
  980MOL0     C35115   7.413   8.289  10.224 -0.6863 -0.0312  0.5647
  980MOL0     C35116   7.546   8.351  10.259 -0.7026  1.2995 -0.2132
  980MOL0     C35117   7.538   8.501  10.251  0.0983 -0.3850  0.3599
  980MOL0     C35118   7.675   8.558  10.287 -0.6973  0.5688  0.3011
  980MOL0     N35119   7.773   8.576  10.181  0.4996 -0.0494 -0.1359
  980MOL0     C35120   7.769   8.678  10.091 -0.4859  0.2000  0.4471
  980MOL0     C35121   7.877   8.668  10.019  1.4537 -0.4970  0.7173
  980MOL0     C35122   7.912   8.770   9.917 -0.0944 -1.2741 -0.9316
  980MOL0     C35123   7.865   8.748   9.766 -0.2000  0.2723  0.4286
  980MOL0     C35124   7.905   8.615   9.705  0.8596  0.8548  0.1270
  980MOL0     C35125   8.051   8.588   9.675  0.3196 -0.1055 -0.1440
  980MOL0     O35126   8.087   8.694   9.590 -0.4003  0.4834  0.7109
  980MOL0     C35127   8.207   8.692   9.518  0.3481  0.0387  0.3790
  980MOL0     C35128   8.217   8.789   9.413 -0.1709 -0.2311  0.7517
  980MOL0     C35129   8.326   8.786   9.330 -0.5221 -0.2227  0.0081
  980MOL0     C35130   8.322   8.893   9.224  0.1792 -0.6489 -0.1268
  980MOL0     C35131   8.428   8.682   9.343  0.3891 -0.0081  0.1276
  980MOL0     C35132   8.545   8.660   9.254  0.0081 -0.7762  0.9723
  980MOL0     O35133   8.635   8.559   9.283 -0.4990 -0.8254  0.4936
  980MOL0     C35134   8.731   8.522   9.192 -0.2932 -0.5002 -0.0743
  980MOL0     C35135   8.704   8.432   9.093  1.1140 -0.6481 -0.1456
  980MOL0     C35136   8.808   8.374   9.014 -0.2296 -0.5758  0.6417
  980MOL0     C35137   8.945   8.414   9.040  0.2492  0.0504  0.6308
  980MOL0     O35138   9.052   8.355   8.971 -0.2299 -0.3496 -0.0825
  980MOL0     C35139   9.024   8.260   8.860  0.9432  0.3027 -0.7524
  980MOL0     C35140   9.167   8.218   8.807  0.7820  0.0796  0.3600
  980MOL0     C35141   9.243   8.337   8.743 -0.2017 -0.6473  0.1105
  980MOL0     C35142   9.361   8.279   8.664  0.2448 -0.1665  0.3238
  980MOL0     C35143   9.460   8.395   8.632 -0.0834  0.5106  0.2994
  980MOL0     C35144   9.597   8.333   8.600  0.1944 -0.5403 -0.1737
  980MOL0     C35145   9.602   8.229   8.492  0.7527  0.1584  0.1277
  980MOL0     C35146   9.626   8.090   8.548  1.1128  0.0262 -0.7947
  980MOL0    Cl35147   9.809   8.089   8.585 -0.4795 -0.0679 -0.3175
  980MOL0     C35148   8.966   8.509   9.142  0.0405 -0.6938  0.3302
  980MOL0     C35149   8.861   8.558   9.219  0.0768 -0.3017 -1.2012
  980MOL0     O35150   8.546   8.724   9.150 -0.3923  0.6779 -0.5925
  980MOL0     C35151   8.412   8.582   9.442  0.4069 -0.8212 -0.1546
  980MOL0     C35152   8.304   8.591   9.533 -0.3238 -0.1890 -0.0525
  980MOL0     N35153   7.954   8.559  10.054 -0.0407  0.3481 -0.4049
  980MOL0     N35154   7.889   8.499  10.154  0.4027  0.4375 -0.3746
  980MOL0     C35155   6.826   7.964  10.414 -0.0581  0.4575 -0.1399
  980MOL0     C35156   6.688   7.957  10.395 -0.5585 -0.3993  0.0223
  980MOL0     C35157   6.286   7.727  10.285 -0.1790 -0.0766  0.6624
  980MOL0     C35158   6.226   7.607  10.327 -0.5324  0.1452  0.6673
  980MOL0     C35159   6.086   7.580  10.311 -0.1427 -0.5316 -0.4890
  980MOL0     C35160   6.002   7.675  10.251 -1.0959 -0.5175  0.8753
  980MOL0     O35161   5.865   7.648  10.257 -0.6035  0.2966  0.3511
  980MOL0     C35162   5.775   7.756  10.217  0.0642  0.8647  0.7023
  980MOL0     C35163   5.775   7.866  10.318  0.1529 -0.4415  0.5715
  980MOL0     C35164   5.719   7.835  10.458 -0.8987  0.2561  0.9795
  980MOL0     C35165   5.808   7.776  10.563 -0.3455 -0.5424 -0.2689
  980MOL0     C35166   5.895   7.887  10.609 -0.1639  0.8743  0.5777
  980MOL0     C35167   5.968   7.971  10.648 -0.0242  0.3044  0.1504
  980MOL0     C35168   6.063   7.790  10.195 -0.2623  0.0318 -0.0332
  980MOL0     C35169   6.200   7.818  10.217  0.6529 -0.4497  0.4623
  980MOL0     C35170   6.253   7.935  10.153  0.7913 -0.4638  0.3244
  980MOL0     H35171   6.670   7.732  10.141  0.6019  0.3947 -1.3059
  980MOL0     H35172   6.906   7.724  10.188  0.5036 -1.6048  1.5684
  980MOL0     H35173   7.064   7.923  10.138 -2.4113 -1.6271  0.2492
  980MOL0     H35174   7.120   7.775  10.221  3.4787 -0.0600  1.2767
  980MOL0     H35175   7.282   7.938  10.355 -1.3705  2.5694  0.6200
  980MOL0     H35176   7.324   7.887  10.188 -0.5823 -4.4930  1.6586
  980MOL0     H35177   7.251   8.094  10.093 -2.8237  0.4386  0.7055
  980MOL0     H35178   7.188   8.160  10.240 -1.6206 -0.6379 -1.3691
  980MOL0     H35179   7.400   8.123  10.363 -2.3652 -0.1826  0.0996
  980MOL0     H35180   7.484   8.083  10.211  0.0066  1.3450  1.0055
  980MOL0     H35181   7.335   8.346  10.277  0.3989  1.5143  0.5523
  980MOL0     H35182   7.394   8.304  10.117 -0.9586 -0.6747  0.5207
  980MOL0     H35183   7.580   8.322  10.359  1.8804  0.9785 -1.1114
  980MOL0     H35184   7.619   8.308  10.190 -1.2446 -1.8997  0.9915
  980MOL0     H35185   7.478   8.540  10.334 -0.4567 -0.6977  0.1072
  980MOL0     H35186   7.498   8.533  10.154 -1.9088 -1.5948  0.7395
  980MOL0     H35187   7.665   8.657  10.330 -1.2868  1.4345 -1.7331
  980MOL0     H35188   7.720   8.489  10.360  0.3199  0.1849 -0.6515
  980MOL0     H35189   7.686   8.748  10.083 -0.5882  0.0156 -0.1452
  980MOL0     H35190   8.021   8.779   9.922 -0.2627  0.2598  1.4429
  980MOL0     H35191   7.867   8.864   9.950 -0.7726 -2.2028  0.9594
  980MOL0     H35192   7.756   8.740   9.773 -0.0700 -0.8889  1.3722
  980MOL0     H35193   7.896   8.828   9.697  2.4622 -0.4473  0.6747
  980MOL0     H35194   7.869   8.542   9.778  1.4005  1.5438  1.1103
  980MOL0     H35195   7.852   8.593   9.612 -1.9721  0.3081  1.7358
  980MOL0     H35196   8.118   8.590   9.762  1.6140  3.0190 -1.0823
  980MOL0     H35197   8.070   8.491   9.629  0.6495  0.2526 -0.7793
  980MOL0     H35198   8.136   8.861   9.410  1.0845  1.1945 -1.6598
  980MOL0     H35199   8.418   8.944   9.237 -0.5931  0.6605  0.6156
  980MOL0     H35200   8.240   8.965   9.233  0.5205 -0.1575 -0.8329
  980MOL0     H35201   8.323   8.850   9.123 -3.0207 -0.2002 -0.4646
  980MOL0     H35202   8.601   8.399   9.087  0.3709  0.8858  2.4768
  980MOL0     H35203   8.784   8.304   8.934  2.5634 -0.0563 -0.7807
  980MOL0     H35204   8.976   8.172   8.905  1.7691  1.1229  1.8754
  980MOL0     H35205   8.960   8.306   8.783  1.0603  2.2508  0.2651
  980MOL0     H35206   9.223   8.174   8.890  1.1387 -0.1401  0.0016
  980MOL0     H35207   9.149   8.143   8.729 -0.3292 -0.2049  0.8598
  980MOL0     H35208   9.274   8.410   8.819  0.0069 -0.0591 -0.5233
  980MOL0     H35209   9.181   8.392   8.671 -0.7855 -0.0088  1.0800
  980MOL0     H35210   9.314   8.238   8.574  0.1137 -1.2325  0.8642
  980MOL0     H35211   9.396   8.190   8.718  1.2031 -0.6233 -0.9843
  980MOL0     H35212   9.420   8.449   8.546 -0.1517 -1.0149 -0.6583
  980MOL0     H35213   9.475   8.454   8.723 -1.6247  1.2234  0.1232
  980MOL0     H35214   9.631   8.280   8.690  0.9697 -1.1205 -0.8004
  980MOL0     H35215   9.668   8.413   8.578 -2.3359  1.1774 -2.6630
  980MOL0     H35216   9.685   8.251   8.425  0.6396  1.7647  0.4738
  980MOL0     H35217   9.507   8.234   8.439 -0.1695 -2.4962  1.3228
  980MOL0     H35218   9.596   8.013   8.478 -1.8938 -1.2282  1.6300
  980MOL0     H35219   9.566   8.064   8.636  1.6017  0.1968 -0.4018
  980MOL0     H35220   9.073   8.525   9.155  0.5143 -2.5162 -0.9325
  980MOL0     H35221   8.864   8.625   9.305 -4.3166 -1.0218 -0.2225
  980MOL0     H35222   8.481   8.499   9.451  0.9765 -0.2808  0.5547
  980MOL0     H35223   8.290   8.519   9.613 -1.6582 -1.0324 -1.0113
  980MOL0     H35224   6.871   8.022  10.494  3.2157 -0.6522 -1.0526
  980MOL0     H35225   6.611   8.000  10.459 -0.3264 -0.6433  0.4641
  980MOL0     H35226   6.283   7.531  10.380 -1.4335 -0.8825  0.2274
  980MOL0     H35227   6.048   7.489  10.356  0.0022 -0.5615 -0.4276
  980MOL0     H35228   5.805   7.794  10.119  0.1925  0.9934  0.7917
  980MOL0     H35229   5.680   7.706  10.196  1.0681  0.4398 -4.1810
  980MOL0     H35230   5.713   7.945  10.274 -1.6439 -1.9198  0.3352
  980MOL0     H35231   5.880   7.895  10.330  0.7331 -1.8035 -0.9047
  980MOL0     H35232   5.696   7.936  10.495 -0.2490  0.6390  0.3704
  980MOL0     H35233   5.629   7.774  10.447 -1.1330  0.3690  2.1630
  980MOL0     H35234   5.885   7.713  10.519 -0.6146 -1.4368  0.5186
  980MOL0     H35235   5.755   7.735  10.650 -2.2971 -0.0177 -1.1552
  980MOL0     H35236   6.041   8.047  10.669  0.3531 -0.6303  2.5614
  980MOL0     H35237   6.014   7.864  10.133  0.4911 -2.7239 -4.4412
  980MOL0     H35238   6.287   7.915  10.050 -0.1407  0.1994 -0.1307
  980MOL0     H35239   6.185   8.019  10.134  0.8311 -1.1810 -4.2344
  980MOL0     H35240   6.330   7.977  10.217 -1.0925  0.6717  1.9516
  981MOL0     O35241   5.828   7.823   0.344 -0.6091  0.3463 -0.6329
  981MOL0     C35242   5.812   7.825   0.226  0.4254 -0.1550 -0.0018
  981MOL0     O35243   5.895   7.875   0.125  0.3119 -0.0634 -0.7036
  981MOL0     C35244   6.016   7.921   0.156 -0.8934  0.6659  0.0708
  981MOL0     C35245   6.056   8.041   0.094  0.1325  1.1387 -0.3871
  981MOL0     C35246   6.192   8.089   0.117  0.2315  0.3975 -0.3929
  981MOL0     C35247   6.282   8.017   0.197 -0.2030 -0.3388  0.1299
  981MOL0     O35248   6.413   8.055   0.228 -0.0188 -0.5746 -0.1929
  981MOL0     C35249   6.493   8.110   0.122  0.2911 -0.4246  0.7780
  981MOL0     C35250   6.642   8.113   0.165  0.5584  0.1187  0.1388
  981MOL0     C35251   6.734   8.197   0.071  0.5372 -0.9998 -0.6955
  981MOL0     C35252   6.869   8.205   0.141  0.2604  0.5369  0.1456
  981MOL0     C35253   6.967   8.282   0.056  0.5848  0.6014  0.0703
  981MOL0     C35254   7.108   8.277   0.102 -0.2149 -0.5593 -0.5797
  981MOL0     C35255   7.217   8.320  -0.002  0.2825 -0.3421 -0.0553
  981MOL0     C35256   7.212   8.469  -0.005  0.0259  0.2293  0.3289
  981MOL0     N35257   7.302   8.515  -0.108 -0.5330  0.2459  0.4581
  981MOL0     C35258   7.431   8.545  -0.074  0.1290  0.5318 -0.2249
  981MOL0     C35259   7.499   8.563  -0.189  1.0489 -0.5474 -0.5207
  981MOL0     C35260   7.644   8.594  -0.206 -0.2605 -0.5527 -0.0048
  981MOL0     C35261   7.667   8.717  -0.299 -0.6887  0.7521  0.2095
  981MOL0     C35262   7.814   8.764  -0.297  0.8192  0.2405  1.1380
  981MOL0     C35263   7.846   8.852  -0.422  1.4423 -0.4773  0.1101
  981MOL0     O35264   7.837   8.776  -0.542  0.0644 -0.2037  0.3399
  981MOL0     C35265   7.964   8.743  -0.581  0.0413 -1.0520 -0.3318
  981MOL0     C35266   8.017   8.620  -0.536  0.5712  0.1240  0.5420
  981MOL0     C35267   8.147   8.578  -0.578 -0.3169  0.1548  0.5419
  981MOL0     C35268   8.207   8.454  -0.509  0.2527  0.7871 -0.0118
  981MOL0     C35269   8.225   8.657  -0.675  0.4022 -0.5078  0.0342
  981MOL0     C35270   8.366   8.631  -0.712  0.8900 -0.1075 -0.5833
  981MOL0     O35271   8.448   8.559  -0.628 -0.4603 -0.0444 -0.4848
  981MOL0     C35272   8.566   8.517  -0.665  0.4430  0.2447  0.7124
  981MOL0     C35273   8.668   8.533  -0.575  0.3022  0.2114 -0.8202
  981MOL0     C35274   8.803   8.502  -0.599 -0.6892  0.1596  0.6937
  981MOL0     C35275   8.835   8.420  -0.715  0.7125 -0.4344 -0.4369
  981MOL0     O35276   8.956   8.380  -0.761 -0.4414  0.2405 -0.4044
  981MOL0     C35277   9.073   8.405  -0.677 -0.1104 -0.2245  0.1872
  981MOL0     C35278   9.141   8.542  -0.709  0.2687  0.2717 -0.3704
  981MOL0     C35279   9.093   8.663  -0.617 -0.1831  0.7562 -0.0930
  981MOL0     C35280   9.160   8.799  -0.640  0.5027  0.7208  0.1570
  981MOL0     C35281   9.308   8.790  -0.591  0.1022  0.0412 -0.2330
  981MOL0     C35282   9.385   8.923  -0.606  0.2205 -0.4965  0.6360
  981MOL0     C35283   9.365   9.017  -0.488  0.2470 -0.0801  0.3514
  981MOL0     C35284   9.372   9.165  -0.533  0.0707  0.4144  0.3907
  981MOL0    Cl35285   9.333   9.255  -0.395  0.2146 -0.3508 -0.1500
  981MOL0     C35286   8.729   8.397  -0.802 -0.5833 -1.0812  1.0211
  981MOL0     C35287   8.599   8.450  -0.783  0.0119 -0.3619 -0.3062
  981MOL0     O35288   8.395   8.673  -0.824 -0.4889  0.2872 -0.8111
  981MOL0     C35289   8.169   8.787  -0.718  0.0661 -0.6297 -0.3319
  981MOL0     C35290   8.034   8.824  -0.675  0.2069 -0.4033  0.3146
  981MOL0     N35291   7.412   8.532  -0.297 -0.1405  0.3076  0.6788
  981MOL0     N35292   7.297   8.519  -0.247 -0.1000 -0.0870  0.9334
  981MOL0     C35293   6.235   7.903   0.262  0.2565 -0.2020  0.1269
  981MOL0     C35294   6.110   7.850   0.238 -0.4741  0.1521 -0.0769
  981MOL0     C35295   5.695   7.755   0.179 -0.5677 -0.1298  1.2355
  981MOL0     C35296   5.588   7.827   0.116  0.5411  0.5831  0.2772
  981MOL0     C35297   5.484   7.756   0.067 -0.2718 -0.1432 -1.4427
  981MOL0     C35298   5.471   7.617   0.082  0.2245  0.4862 -0.7369
  981MOL0     O35299   5.360   7.556   0.038  0.9917  0.2651  0.2749
  981MOL0     C35300   5.311   7.444   0.123  0.2089 -0.4468 -0.8157
  981MOL0     C35301   5.166   7.392   0.087  0.2953 -0.2956  0.0952
  981MOL0     C35302   5.082   7.359   0.210 -0.1204  0.2556 -0.8418
  981MOL0     C35303   4.934   7.356   0.188 -0.2335  0.1084 -0.0111
  981MOL0     C35304   4.898   7.246   0.093  0.3870 -0.2759  0.1024
  981MOL0     C35305   4.865   7.159   0.016 -1.1940 -0.3167 -0.0401
  981MOL0     C35306   5.575   7.550   0.146  0.1839 -0.3359 -0.8993
  981MOL0     C35307   5.697   7.609   0.185  0.6772 -0.8585 -0.2810
  981MOL0     C35308   5.811   7.524   0.236 -0.0617 -0.6973  0.6008
  981MOL0     H35309   5.988   8.103   0.036  0.9377  2.8371  0.3908
  981MOL0     H35310   6.222   8.180   0.065 -3.2176  2.0009  0.1831
  981MOL0     H35311   6.454   8.209   0.095 -0.7170 -0.0891  3.2543
  981MOL0     H35312   6.488   8.045   0.034  0.6904 -1.1370  1.2733
  981MOL0     H35313   6.641   8.119   0.274 -2.2870  0.5639  0.1560
  981MOL0     H35314   6.679   8.014   0.137  0.9499  1.0434 -3.0621
  981MOL0     H35315   6.744   8.157  -0.030 -1.7546  2.5659 -2.5519
  981MOL0     H35316   6.690   8.298   0.069  0.5191 -0.9824  0.0439
  981MOL0     H35317   6.862   8.246   0.242  1.3804 -0.1152  0.5011
  981MOL0     H35318   6.905   8.102   0.150  0.3470  0.6735  1.5620
  981MOL0     H35319   6.941   8.388   0.044 -1.0811  0.0495 -1.6855
  981MOL0     H35320   6.964   8.243  -0.046  0.6680 -1.5475  0.8303
  981MOL0     H35321   7.116   8.342   0.190  0.1992 -0.5219 -0.6393
  981MOL0     H35322   7.124   8.170   0.118  1.6609 -0.0444  1.6647
  981MOL0     H35323   7.199   8.287  -0.104 -0.9575 -0.2415  0.1136
  981MOL0     H35324   7.316   8.280   0.022 -0.6194 -1.1946  2.6311
  981MOL0     H35325   7.110   8.502  -0.026  0.5931  2.8172  1.1905
  981MOL0     H35326   7.252   8.511   0.088  1.7825 -1.6694  0.5110
  981MOL0     H35327   7.466   8.550   0.029 -3.5503  0.3143  1.1803
  981MOL0     H35328   7.688   8.498  -0.234  0.0791 -0.5278  0.4415
  981MOL0     H35329   7.687   8.624  -0.110 -2.5464 -0.6820  1.1285
  981MOL0     H35330   7.634   8.696  -0.401  3.1974  0.0626 -1.0463
  981MOL0     H35331   7.597   8.798  -0.279 -0.5762  0.8646  0.1477
  981MOL0     H35332   7.828   8.818  -0.203 -1.6912  2.5824  0.2711
  981MOL0     H35333   7.879   8.676  -0.296  0.3401 -0.1650 -0.7214
  981MOL0     H35334   7.767   8.928  -0.433  2.0387  0.0175 -0.8777
  981MOL0     H35335   7.935   8.910  -0.397 -1.3565  2.9871  3.2404
  981MOL0     H35336   7.964   8.565  -0.459  0.0056  0.0742  0.1282
  981MOL0     H35337   8.133   8.395  -0.453 -2.6990  1.4411 -2.9051
  981MOL0     H35338   8.294   8.480  -0.447 -0.7756  0.6908  1.5491
  981MOL0     H35339   8.257   8.388  -0.580  0.0711  0.6077  0.0285
  981MOL0     H35340   8.656   8.591  -0.484  1.7501  1.4162 -1.3677
  981MOL0     H35341   8.881   8.525  -0.527  4.3682  0.4724 -4.2245
  981MOL0     H35342   9.059   8.393  -0.569  0.0447  2.6920  0.6125
  981MOL0     H35343   9.146   8.333  -0.714  2.1484 -0.0434  3.8474
  981MOL0     H35344   9.249   8.538  -0.691  0.3038  0.3103 -0.5714
  981MOL0     H35345   9.132   8.569  -0.815 -2.4886  0.8691 -0.0635
  981MOL0     H35346   9.094   8.634  -0.512  0.4405  0.4570 -0.1788
  981MOL0     H35347   8.986   8.674  -0.636 -0.3195  0.8861  0.7093
  981MOL0     H35348   9.104   8.875  -0.584 -1.2511 -1.4927  1.5577
  981MOL0     H35349   9.149   8.822  -0.746  0.7003 -0.1506 -0.0546
  981MOL0     H35350   9.324   8.755  -0.488 -0.6075  2.1267  0.6460
  981MOL0     H35351   9.369   8.724  -0.653  3.8048  3.1130 -0.2344
  981MOL0     H35352   9.355   8.965  -0.703  1.0775 -0.7651  0.2437
  981MOL0     H35353   9.492   8.900  -0.608  0.4512  0.5595  0.2367
  981MOL0     H35354   9.436   8.991  -0.409 -0.0287 -2.2815 -0.0608
  981MOL0     H35355   9.262   9.016  -0.451 -0.8600  0.9845 -2.4193
  981MOL0     H35356   9.295   9.199  -0.603 -1.0660  4.4494  3.2540
  981MOL0     H35357   9.478   9.172  -0.558  0.4554 -0.9301  1.4993
  981MOL0     H35358   8.760   8.341  -0.889  1.2515 -0.4784  1.2541
  981MOL0     H35359   8.524   8.429  -0.858 -1.2909 -0.4934  0.9902
  981MOL0     H35360   8.220   8.858  -0.782 -1.0647 -0.1273 -0.6967
  981MOL0     H35361   7.991   8.915  -0.717  0.9014 -0.3662 -0.3403
  981MOL0     H35362   6.308   7.848   0.321 -1.0800 -1.1976  0.9017
  981MOL0     H35363   6.087   7.752   0.279  1.7548 -0.9199 -1.2067
  981MOL0     H35364   5.588   7.935   0.111 -2.1308  0.6260  0.2536
  981MOL0     H35365   5.402   7.816   0.028  0.4694  2.5005  0.6958
  981MOL0     H35366   5.384   7.363   0.109 -1.0057 -1.5718 -0.8777
  981MOL0     H35367   5.325   7.470   0.228 -1.6118 -0.9388 -0.4128
  981MOL0     H35368   5.164   7.312   0.012 -1.3920 -1.4942  1.3308
  981MOL0     H35369   5.117   7.472   0.032  2.0915  0.9821  0.2769
  981MOL0     H35370   5.108   7.259   0.246 -0.3677  1.0955  1.9685
  981MOL0     H35371   5.096   7.435   0.288 -1.8944 -1.3742  1.1914
  981MOL0     H35372   4.892   7.449   0.149 -2.9508 -1.8888 -2.2527
  981MOL0     H35373   4.878   7.347   0.282 -0.8679 -4.1515 -0.6101
  981MOL0     H35374   4.831   7.089  -0.058  0.3076 -2.5994  1.3008
  981MOL0     H35375   5.572   7.445   0.176  3.5042  0.4546  3.2246
  981MOL0     H35376   5.838   7.574   0.330 -1.3957 -0.8188  1.0638
  981MOL0     H35377   5.772   7.426   0.265  0.3144 -1.6841 -1.9341
  981MOL0     H35378   5.890   7.503   0.163 -1.6393 -2.4411 -0.6988
  982MOL0     O35379   4.772   1.372   9.053 -0.5540  0.9118  0.1342
  982MOL0     C35380   4.691   1.415   8.986  0.4464  0.2478  0.9213
  982MOL0     O35381   4.697   1.421   8.848  0.2635 -0.0002 -0.6013
  982MOL0     C35382   4.791   1.338   8.789 -0.6222  0.3663  1.2173
  982MOL0     C35383   4.785   1.196   8.786  0.7777 -0.0547  0.7659
  982MOL0     C35384   4.893   1.125   8.738 -0.1810  0.5206 -0.7565
  982MOL0     C35385   5.016   1.189   8.695  0.6051  0.7038 -0.0934
  982MOL0     O35386   5.116   1.115   8.637  0.1185 -0.4079 -0.0433
  982MOL0     C35387   5.176   1.155   8.509  0.9003 -0.3658 -0.1604
  982MOL0     C35388   5.210   1.034   8.410 -0.8720  0.2423 -0.3063
  982MOL0     C35389   5.329   0.938   8.455  0.3616 -0.6900 -0.0696
  982MOL0     C35390   5.281   0.865   8.577  0.3405  0.2513 -0.4401
  982MOL0     C35391   5.350   0.920   8.706 -0.0889  0.6657 -0.2886
  982MOL0     C35392   5.344   0.800   8.808 -0.1871 -1.1627  0.1495
  982MOL0     C35393   5.441   0.827   8.921 -0.4803  0.0826  0.2295
  982MOL0     C35394   5.423   0.958   8.996 -0.0175  0.1611 -0.3526
  982MOL0     N35395   5.284   0.960   9.044 -0.2748  1.2378  0.9174
  982MOL0     C35396   5.186   1.046   9.000  0.0708 -0.0042 -0.5080
  982MOL0     C35397   5.083   1.017   9.081 -0.0329  0.2595  0.5894
  982MOL0     C35398   4.948   1.085   9.076 -0.2550  0.6422  0.3456
  982MOL0     C35399   4.937   1.154   9.210  0.5592 -0.1375 -0.1659
  982MOL0     C35400   5.024   1.276   9.229  0.6877 -1.0512  0.5013
  982MOL0     C35401   4.998   1.333   9.370 -0.0855  0.1030 -1.3404
  982MOL0     O35402   5.053   1.261   9.485 -0.2600  0.4662 -0.4939
  982MOL0     C35403   5.191   1.253   9.483  0.6946 -0.4069 -0.1136
  982MOL0     C35404   5.264   1.137   9.449  0.8326  0.1237  0.1322
  982MOL0     C35405   5.403   1.137   9.456 -0.3175  0.2922  0.5174
  982MOL0     C35406   5.471   1.022   9.398 -0.9983  0.3427 -0.0274
  982MOL0     C35407   5.471   1.250   9.505  0.7625 -0.5497 -0.0079
  982MOL0     C35408   5.613   1.253   9.532 -1.3300 -0.3369 -0.4225
  982MOL0     O35409   5.696   1.181   9.450  0.2352 -0.3703  0.7842
  982MOL0     C35410   5.828   1.214   9.455 -0.3054  0.0837 -0.9969
  982MOL0     C35411   5.881   1.330   9.402 -0.1707  0.5625 -0.1374
  982MOL0     C35412   6.009   1.374   9.428 -0.0505  0.1419  0.3209
  982MOL0     C35413   6.093   1.294   9.520  0.1129  0.5456 -0.3368
  982MOL0     O35414   6.221   1.329   9.549  0.1996  0.1487  0.3369
  982MOL0     C35415   6.308   1.231   9.613 -0.9792 -0.2473 -0.8239
  982MOL0     C35416   6.336   1.097   9.543 -0.2435  0.2267 -0.1670
  982MOL0     C35417   6.415   1.115   9.417  0.1930  0.4288 -0.8107
  982MOL0     C35418   6.491   0.983   9.383 -0.7105  0.5321  0.3430
  982MOL0     C35419   6.582   1.009   9.261 -0.0912  0.1316  0.5050
  982MOL0     C35420   6.663   0.889   9.225 -0.3289 -0.2324  0.6904
  982MOL0     C35421   6.770   0.845   9.332  0.7726 -0.6644  0.5675
  982MOL0     C35422   6.844   0.732   9.262 -0.4223  0.4618 -0.3319
  982MOL0    Cl35423   6.737   0.591   9.280 -0.5883  0.1021  0.4717
  982MOL0     C35424   6.039   1.172   9.581  1.2473 -0.0371 -0.2115
  982MOL0     C35425   5.907   1.135   9.544 -0.7227 -0.5795  0.4895
  982MOL0     O35426   5.660   1.329   9.616  0.2837 -0.5441  0.3840
  982MOL0     C35427   5.396   1.362   9.534 -0.2668  0.6658  1.0314
  982MOL0     C35428   5.260   1.361   9.527  0.0127  0.4821 -0.0152
  982MOL0     N35429   5.116   0.907   9.166 -0.7441 -0.3461  0.5670
  982MOL0     N35430   5.247   0.886   9.147 -0.8649  0.7341 -0.2458
  982MOL0     C35431   5.020   1.329   8.695  1.0912  0.1345  0.3513
  982MOL0     C35432   4.910   1.396   8.741  0.2940  0.0639 -0.1441
  982MOL0     C35433   4.568   1.457   9.051 -0.3787 -0.6356  0.4624
  982MOL0     C35434   4.454   1.471   8.979 -0.2406  0.6090 -0.4460
  982MOL0     C35435   4.337   1.487   9.043  0.6818 -0.9412 -0.4885
  982MOL0     C35436   4.327   1.491   9.179 -0.1458 -0.7257  0.5755
  982MOL0     O35437   4.200   1.516   9.231  0.3759 -0.2886 -0.3984
  982MOL0     C35438   4.092   1.564   9.144  0.5028  0.2324 -0.0099
  982MOL0     C35439   3.982   1.624   9.225  0.1567  0.1290 -0.1663
  982MOL0     C35440   3.848   1.607   9.154  0.5431 -0.3796 -0.8720
  982MOL0     C35441   3.817   1.724   9.061  0.1652  0.2275 -0.7045
  982MOL0     C35442   3.902   1.728   8.945  0.1157 -0.2741  0.6169
  982MOL0     C35443   3.985   1.723   8.856 -0.1921  0.3203 -0.1096
  982MOL0     C35444   4.434   1.482   9.255 -1.0540 -0.0865  0.4519
  982MOL0     C35445   4.560   1.466   9.196 -0.5996 -0.4266 -0.7920
  982MOL0     C35446   4.676   1.460   9.297 -0.5654  0.5098 -0.2511
  982MOL0     H35447   4.698   1.136   8.812  0.2981  0.4682  0.4028
  982MOL0     H35448   4.891   1.016   8.741 -3.5052  0.5031  1.6220
  982MOL0     H35449   5.255   1.228   8.524 -2.2609  3.5119 -0.7129
  982MOL0     H35450   5.099   1.212   8.456  1.3448 -0.7616 -1.2643
  982MOL0     H35451   5.119   0.976   8.391 -1.0859 -0.3190  2.1323
  982MOL0     H35452   5.243   1.078   8.315 -2.9920  0.1033 -1.1724
  982MOL0     H35453   5.354   0.876   8.368 -1.2363  1.5050 -2.2287
  982MOL0     H35454   5.418   0.999   8.470 -0.3368  0.3532 -0.1142
  982MOL0     H35455   5.172   0.868   8.588  0.4595 -1.3289  1.9728
  982MOL0     H35456   5.303   0.760   8.553  1.8518  0.1139  1.2612
  982MOL0     H35457   5.297   1.011   8.737 -1.6771  0.4801 -2.2352
  982MOL0     H35458   5.455   0.948   8.693 -0.2302  0.7574 -1.2899
  982MOL0     H35459   5.246   0.769   8.845 -0.6629 -0.3116 -0.3838
  982MOL0     H35460   5.382   0.711   8.757 -2.5861 -1.2195 -1.7292
  982MOL0     H35461   5.543   0.814   8.884 -0.3923  0.4753  0.3308
  982MOL0     H35462   5.426   0.743   8.989 -0.1240 -1.0336 -1.0343
  982MOL0     H35463   5.491   0.958   9.082 -0.7380  2.4561  0.2732
  982MOL0     H35464   5.455   1.036   8.926  0.3360 -1.3557 -1.9608
  982MOL0     H35465   5.173   1.103   8.909 -1.5741 -0.0421 -0.3232
  982MOL0     H35466   4.873   1.006   9.062 -0.8815  1.4157 -0.8764
  982MOL0     H35467   4.928   1.153   8.992  0.2525 -2.1023 -2.1511
  982MOL0     H35468   4.831   1.170   9.234  0.3154 -0.0953 -1.1782
  982MOL0     H35469   4.961   1.089   9.294 -2.9870  1.3123  2.2110
  982MOL0     H35470   5.126   1.236   9.221  0.4447 -1.4087 -1.2945
  982MOL0     H35471   5.006   1.357   9.158  2.3807 -1.5556 -0.5692
  982MOL0     H35472   5.038   1.435   9.369 -2.5290  1.1165 -2.0755
  982MOL0     H35473   4.891   1.350   9.384  0.2181  0.6172  0.6965
  982MOL0     H35474   5.203   1.049   9.432 -1.8046  1.6274  1.1689
  982MOL0     H35475   5.554   0.981   9.456 -1.3734 -0.1240  0.1826
  982MOL0     H35476   5.504   1.055   9.298  0.0727 -1.0719 -0.1719
  982MOL0     H35477   5.409   0.938   9.366  1.7416 -2.2196  0.8446
  982MOL0     H35478   5.810   1.392   9.347 -1.4367 -1.1717 -0.5256
  982MOL0     H35479   6.054   1.463   9.385  0.4611 -1.0715 -1.8354
  982MOL0     H35480   6.403   1.285   9.613 -1.4733  0.7450 -3.1086
  982MOL0     H35481   6.290   1.221   9.720 -1.8123  1.7166 -0.7361
  982MOL0     H35482   6.388   1.032   9.613  0.8717  2.0520  0.7722
  982MOL0     H35483   6.241   1.046   9.520 -0.6619  0.0493  1.7705
  982MOL0     H35484   6.483   1.200   9.430 -0.9040  0.9008  2.9040
  982MOL0     H35485   6.349   1.143   9.334  0.5862  3.4303 -0.2461
  982MOL0     H35486   6.421   0.904   9.355  0.0910 -0.0039 -0.1998
  982MOL0     H35487   6.551   0.957   9.471  2.2651  2.2599 -1.0365
  982MOL0     H35488   6.509   1.028   9.182 -0.9785 -2.9853  0.4419
  982MOL0     H35489   6.651   1.092   9.278  2.9184 -2.0052 -0.4359
  982MOL0     H35490   6.712   0.906   9.129 -1.0755  1.7674  0.6133
  982MOL0     H35491   6.588   0.812   9.204  2.3905 -2.0324 -3.7874
  982MOL0     H35492   6.722   0.810   9.424 -1.3818 -3.2574 -1.3749
  982MOL0     H35493   6.831   0.935   9.345  2.8777 -1.5846 -1.9268
  982MOL0     H35494   6.940   0.714   9.313 -2.0473 -1.1086  2.4383
  982MOL0     H35495   6.852   0.751   9.155 -0.6319 -1.0115 -0.6289
  982MOL0     H35496   6.087   1.114   9.659 -1.4003 -0.6611  1.0798
  982MOL0     H35497   5.858   1.042   9.574  0.0454 -1.8520 -1.9559
  982MOL0     H35498   5.427   1.456   9.579  1.0050  0.1848  1.1931
  982MOL0     H35499   5.212   1.454   9.553 -3.6355 -0.6831 -1.8075
  982MOL0     H35500   5.101   1.383   8.647 -0.8092  1.4350 -1.6142
  982MOL0     H35501   4.919   1.504   8.732 -2.1217  0.1691 -2.1792
  982MOL0     H35502   4.451   1.461   8.871 -1.3384  0.1015 -0.3857
  982MOL0     H35503   4.250   1.491   8.978 -0.5468 -0.3331  1.1205
  982MOL0     H35504   4.134   1.644   9.083 -3.0404 -0.2830 -3.5099
  982MOL0     H35505   4.057   1.488   9.074 -0.4104  1.2304 -0.6684
  982MOL0     H35506   3.986   1.728   9.258 -1.0801 -0.5738  2.4725
  982MOL0     H35507   3.988   1.570   9.321  1.5935  1.4512  0.5263
  982MOL0     H35508   3.832   1.509   9.110  0.4650 -1.7779  2.0531
  982MOL0     H35509   3.777   1.618   9.237 -1.4881 -0.7866 -2.4630
  982MOL0     H35510   3.822   1.817   9.118  1.3195  0.3657 -1.0115
  982MOL0     H35511   3.710   1.715   9.038  0.0258 -1.4503  0.4161
  982MOL0     H35512   4.045   1.724   8.767  0.2574  4.1901  0.0989
  982MOL0     H35513   4.426   1.486   9.363 -2.0373  0.0952  0.3852
  982MOL0     H35514   4.765   1.516   9.269 -1.9878  3.1747  0.2605
  982MOL0     H35515   4.642   1.487   9.398 -3.4420 -1.3934 -0.5907
  982MOL0     H35516   4.712   1.356   9.296  0.4655  0.8528 -0.0398
  983MOL0     O35517   0.516  10.784   6.321 -0.1799  0.4773  0.3282
  983MOL0     C35518   0.435  10.811   6.414 -0.4106 -0.4388  0.1217
  983MOL0     O35519   0.474  10.843   6.550  0.5097  0.3088 -0.1522
  983MOL0     C35520   0.607  10.818   6.567 -0.3934  0.6324  0.5109
  983MOL0     C35521   0.705  10.908   6.621 -0.0973  0.5556 -0.0794
  983MOL0     C35522   0.836  10.871   6.649 -0.5643 -0.0997 -0.5853
  983MOL0     C35523   0.881  10.740   6.637  0.1171 -0.5639  0.2928
  983MOL0     O35524   1.008  10.692   6.648 -0.5197 -0.3091  0.1957
  983MOL0     C35525   1.122  10.787   6.680  0.7638 -0.0413  0.1285
  983MOL0     C35526   1.234  10.694   6.749  0.2028 -0.3555  0.4487
  983MOL0     C35527   1.351  10.777   6.802  0.2144  0.6881  0.4765
  983MOL0     C35528   1.463  10.698   6.863 -0.0376  0.3871  0.5312
  983MOL0     C35529   1.578  10.794   6.895  0.5437 -0.5115  0.4150
  983MOL0     C35530   1.704  10.707   6.887 -0.1645 -1.1302  0.2380
  983MOL0     C35531   1.839  10.787   6.866 -0.4524 -0.0320 -0.6554
  983MOL0     C35532   1.943  10.682   6.838 -0.6808 -0.0247 -0.2204
  983MOL0     N35533   2.076  10.733   6.794 -0.0225  0.0127  0.0435
  983MOL0     C35534   2.168  10.805   6.867 -0.0255 -0.0823  0.2477
  983MOL0     C35535   2.266  10.841   6.779  0.4080 -0.0986  0.4478
  983MOL0     C35536   2.405  10.895   6.819  0.4508 -0.0763  0.4620
  983MOL0     C35537   2.505  10.773   6.824 -0.0580 -0.1554 -0.0094
  983MOL0     C35538   2.639  10.825   6.856 -0.3093  1.1788 -0.4034
  983MOL0     C35539   2.747  10.714   6.836  0.0141 -0.1003  0.9916
  983MOL0     O35540   2.747  10.634   6.713  0.4809  0.0279  0.1343
  983MOL0     C35541   2.863  10.635   6.635  0.9116 -0.1917 -0.4522
  983MOL0     C35542   2.911  10.520   6.584 -0.2607  0.2241  0.1689
  983MOL0     C35543   3.020  10.509   6.500  0.1812 -1.1509 -0.2594
  983MOL0     C35544   3.056  10.366   6.461 -0.3137 -0.1394  0.4958
  983MOL0     C35545   3.086  10.631   6.464  0.4075 -0.0201  0.2310
  983MOL0     C35546   3.194  10.638   6.361  0.2394  0.8947 -1.0676
  983MOL0     O35547   3.231  10.513   6.312  0.3643  0.0987  0.5321
  983MOL0     C35548   3.316  10.507   6.201  0.5201  0.0085 -0.8554
  983MOL0     C35549   3.454  10.484   6.229 -0.3358  0.8117  0.2450
  983MOL0     C35550   3.537  10.476   6.121 -0.7697  0.8680  0.4989
  983MOL0     C35551   3.498  10.472   5.985 -0.0074 -0.3584  0.2614
  983MOL0     O35552   3.581  10.434   5.878  0.0635  0.5657 -0.2143
  983MOL0     C35553   3.708  10.360   5.908  0.5009 -1.0419 -0.0907
  983MOL0     C35554   3.670  10.213   5.922  0.9806  0.3017 -0.6692
  983MOL0     C35555   3.784  10.141   5.988 -0.0988  0.1019 -0.1561
  983MOL0     C35556   3.783  10.156   6.135 -0.1514  0.4221 -0.0794
  983MOL0     C35557   3.899  10.250   6.182  0.9733  1.1265  0.1365
  983MOL0     C35558   4.019  10.160   6.223  0.0163 -0.3275  0.4285
  983MOL0     C35559   4.010  10.076   6.347 -1.1756 -0.7354 -0.4813
  983MOL0     C35560   4.105   9.952   6.348 -0.0673  0.6435 -0.3418
  983MOL0    Cl35561   4.276   9.991   6.404  0.0693  0.2222  0.1435
  983MOL0     C35562   3.361  10.469   5.964  0.0983 -0.5232 -0.0595
  983MOL0     C35563   3.267  10.496   6.072 -0.5650 -0.6548 -0.5776
  983MOL0     O35564   3.240  10.743   6.331 -0.4940 -0.2948 -0.3609
  983MOL0     C35565   3.035  10.755   6.505 -0.1948 -0.9627 -0.5154
  983MOL0     C35566   2.928  10.757   6.595  0.5052 -0.7478 -0.0620
  983MOL0     N35567   2.232  10.787   6.653 -0.5729  1.0285 -0.1348
  983MOL0     N35568   2.110  10.734   6.660 -0.2114  0.2730 -0.1955
  983MOL0     C35569   0.793  10.646   6.594  0.1735  0.0675  0.1093
  983MOL0     C35570   0.660  10.682   6.556  0.8669 -0.4411  0.5518
  983MOL0     C35571   0.286  10.809   6.387 -0.3280  0.2737 -0.2851
  983MOL0     C35572   0.246  10.773   6.260  0.1151 -1.0404  0.5557
  983MOL0     C35573   0.113  10.762   6.227  0.8895 -0.7247  0.2190
  983MOL0     C35574   0.019  10.789   6.319  0.1868 -0.0752 -0.4455
  983MOL0     O35575  -0.117  10.800   6.293  0.0199  1.0274  0.2735
  983MOL0     C35576  -0.162  10.740   6.172 -0.7095 -0.9048  1.2526
  983MOL0     C35577  -0.315  10.740   6.183 -0.7529  0.2456  0.1532
  983MOL0     C35578  -0.388  10.875   6.174 -0.5398 -0.1389  0.0976
  983MOL0     C35579  -0.537  10.865   6.175  1.0516  0.4808 -0.0262
  983MOL0     C35580  -0.594  10.995   6.218  0.0359 -0.1883  0.3714
  983MOL0     C35581  -0.621  11.110   6.252 -0.4628 -0.1050  0.0131
  983MOL0     C35582   0.055  10.832   6.450  0.7758 -0.5811 -0.3881
  983MOL0     C35583   0.186  10.843   6.483  0.5509  0.2536  0.1850
  983MOL0     C35584   0.212  10.900   6.616 -0.6182  0.2545  0.2545
  983MOL0     H35585   0.672  11.010   6.637 -0.2684  0.6495 -0.9461
  983MOL0     H35586   0.900  10.949   6.690 -0.7277  0.5413 -1.5181
  983MOL0     H35587   1.104  10.861   6.758  0.1393  1.5289 -1.4522
  983MOL0     H35588   1.153  10.840   6.590 -2.9180  0.1824 -1.1617
  983MOL0     H35589   1.194  10.643   6.837  2.6243 -0.8228  1.3685
  983MOL0     H35590   1.278  10.621   6.680  2.6928 -0.6420  2.2130
  983MOL0     H35591   1.399  10.832   6.720 -0.4561 -0.1853 -0.5333
  983MOL0     H35592   1.314  10.850   6.875 -0.0777  0.8022  0.2165
  983MOL0     H35593   1.422  10.646   6.950 -0.7687 -0.1526 -0.1158
  983MOL0     H35594   1.483  10.618   6.791 -1.6831 -1.4192  1.9525
  983MOL0     H35595   1.570  10.842   6.993 -1.0290 -0.5769  0.3293
  983MOL0     H35596   1.597  10.875   6.823  1.6611 -0.6335  0.5456
  983MOL0     H35597   1.707  10.665   6.988 -2.0472  2.4619  1.9321
  983MOL0     H35598   1.699  10.631   6.808 -2.6857  0.8855 -1.7174
  983MOL0     H35599   1.875  10.841   6.954  2.3776 -2.1147 -0.4077
  983MOL0     H35600   1.826  10.845   6.774 -1.8984 -3.7967 -3.0686
  983MOL0     H35601   1.948  10.618   6.926  0.5420 -2.7704 -2.1367
  983MOL0     H35602   1.913  10.622   6.751  0.0708 -0.6010 -0.0905
  983MOL0     H35603   2.175  10.806   6.975  1.7946  1.5606  0.1730
  983MOL0     H35604   2.402  10.945   6.916 -0.6562 -0.3126  0.5695
  983MOL0     H35605   2.439  10.973   6.750  1.2905  0.0418  1.0054
  983MOL0     H35606   2.474  10.706   6.905 -0.7649  1.8979  1.5111
  983MOL0     H35607   2.496  10.727   6.726  0.8381  0.6076 -0.4639
  983MOL0     H35608   2.652  10.910   6.787 -3.1877  0.8650 -1.4781
  983MOL0     H35609   2.642  10.864   6.958  0.4687  1.8486 -0.6666
  983MOL0     H35610   2.845  10.762   6.836  0.4238 -0.8785 -0.3292
  983MOL0     H35611   2.750  10.649   6.923 -0.7076 -2.6556 -0.7755
  983MOL0     H35612   2.858  10.431   6.616  1.2626  0.2431  3.1434
  983MOL0     H35613   3.163  10.343   6.452  0.4714  2.3267  2.5357
  983MOL0     H35614   3.013  10.352   6.361 -1.7728  0.1487  1.0672
  983MOL0     H35615   3.012  10.290   6.526 -2.1875  1.2230  0.8717
  983MOL0     H35616   3.509  10.486   6.322  1.6911  0.0133 -0.8862
  983MOL0     H35617   3.641  10.469   6.152 -0.8836 -1.5213  0.4781
  983MOL0     H35618   3.776  10.370   5.824  2.5481 -2.4634  1.3093
  983MOL0     H35619   3.752  10.410   5.995 -3.8963  2.5686  0.4580
  983MOL0     H35620   3.583  10.192   5.985  0.6002  0.6728 -1.0654
  983MOL0     H35621   3.649  10.176   5.821  0.6389  0.6737 -0.7369
  983MOL0     H35622   3.873  10.183   5.941 -0.6764 -1.5104 -2.8952
  983MOL0     H35623   3.770  10.038   5.955  1.4401 -0.5566  1.1392
  983MOL0     H35624   3.796  10.053   6.172  1.5327  0.2920 -0.9272
  983MOL0     H35625   3.687  10.200   6.161  0.1595  1.1266 -0.1189
  983MOL0     H35626   3.922  10.323   6.105 -3.0604  1.2652 -1.1309
  983MOL0     H35627   3.859  10.302   6.270  0.9185 -0.8654  1.3715
  983MOL0     H35628   4.100  10.233   6.228  0.5988 -0.8962 -0.4398
  983MOL0     H35629   4.032  10.097   6.134 -0.3399  1.0795 -0.6636
  983MOL0     H35630   3.907  10.038   6.350 -0.4501 -2.7633  1.0164
  983MOL0     H35631   4.032  10.129   6.441 -2.6840 -1.0620  0.0851
  983MOL0     H35632   4.105   9.908   6.248  0.0170  0.8598 -0.4375
  983MOL0     H35633   4.055   9.883   6.417 -0.7934  0.7564 -0.7441
  983MOL0     H35634   3.330  10.474   5.860  0.8661 -0.8672 -0.3162
  983MOL0     H35635   3.160  10.515   6.074 -0.4132  0.1737  0.7026
  983MOL0     H35636   3.087  10.845   6.474  1.3908 -0.1606  3.8056
  983MOL0     H35637   2.896  10.856   6.627  0.2735 -0.5068 -1.0028
  983MOL0     H35638   0.815  10.539   6.594  2.2178  0.3921 -2.6395
  983MOL0     H35639   0.589  10.609   6.518  0.3157  0.8552 -1.0412
  983MOL0     H35640   0.324  10.762   6.184  0.8700 -0.3173  1.2055
  983MOL0     H35641   0.080  10.744   6.125 -3.0057 -0.3480  1.2368
  983MOL0     H35642  -0.137  10.803   6.086 -2.0435 -0.2288  1.3355
  983MOL0     H35643  -0.110  10.646   6.152 -2.0090 -1.0903 -1.8010
  983MOL0     H35644  -0.341  10.705   6.283 -3.7816 -2.6710 -1.4470
  983MOL0     H35645  -0.363  10.665   6.119  0.6966 -1.9343  1.4700
  983MOL0     H35646  -0.355  10.945   6.252 -0.6233  0.5215 -0.4572
  983MOL0     H35647  -0.364  10.930   6.083 -1.1792 -0.1506 -0.0868
  983MOL0     H35648  -0.546  10.776   6.238  0.2858 -0.2698 -1.1636
  983MOL0     H35649  -0.575  10.829   6.079  1.4748 -3.0174  0.9604
  983MOL0     H35650  -0.647  11.208   6.285 -0.3531 -0.8952  2.7544
  983MOL0     H35651  -0.020  10.855   6.525  2.8208  0.1697  1.5489
  983MOL0     H35652   0.277  10.840   6.681 -2.1839 -0.2215  1.4396
  983MOL0     H35653   0.268  10.992   6.593  1.2045 -0.5145  1.3619
  983MOL0     H35654   0.122  10.931   6.670 -1.2266  3.3169 -2.2412
  984MOL0     O35655   8.162   6.457   1.997  0.4526 -0.5211 -0.0469
  984MOL0     C35656   8.163   6.353   2.060  0.3920 -0.5554 -0.7153
  984MOL0     O35657   8.267   6.271   2.062  0.0197 -0.4374  0.3281
  984MOL0     C35658   8.388   6.296   2.006 -1.0643  0.1123 -0.1139
  984MOL0     C35659   8.454   6.423   2.003  0.0660 -0.1438  1.1523
  984MOL0     C35660   8.565   6.444   1.930 -0.3885 -0.0388  0.2354
  984MOL0     C35661   8.639   6.333   1.878 -0.5832  0.6076  0.1306
  984MOL0     O35662   8.750   6.355   1.811  0.5385  0.1104  0.1451
  984MOL0     C35663   8.838   6.245   1.766  0.1507  0.1029 -0.2741
  984MOL0     C35664   8.946   6.308   1.679 -0.3849  0.3769  0.0384
  984MOL0     C35665   9.040   6.193   1.629 -0.6990 -0.5113 -0.1635
  984MOL0     C35666   9.132   6.265   1.521 -0.0183  0.0291  0.1202
  984MOL0     C35667   9.247   6.171   1.465  0.9051  0.7573 -0.2215
  984MOL0     C35668   9.345   6.136   1.577 -0.0404  0.3877 -0.2581
  984MOL0     C35669   9.409   6.251   1.655  0.6003 -0.1471  0.7383
  984MOL0     C35670   9.498   6.208   1.770  0.3742  0.3134 -0.9374
  984MOL0     N35671   9.615   6.123   1.752  0.5048  0.3685 -0.3070
  984MOL0     C35672   9.619   5.985   1.762 -0.4172 -0.0851  0.2203
  984MOL0     C35673   9.747   5.957   1.741 -0.1156  0.0119  0.5209
  984MOL0     C35674   9.807   5.818   1.759 -0.0764 -0.4136  0.8247
  984MOL0     C35675   9.925   5.814   1.855  0.4216 -0.7721 -0.0963
  984MOL0     C35676   9.886   5.857   1.998 -0.7224  0.2650 -0.3935
  984MOL0     C35677   9.997   5.865   2.098  0.2209 -1.6340 -0.2464
  984MOL0     O35678  10.050   5.733   2.109  0.3131 -0.7686 -0.0771
  984MOL0     C35679  10.180   5.737   2.151  0.3535 -0.0317  0.0836
  984MOL0     C35680  10.263   5.685   2.050 -0.3727 -0.5509 -0.5210
  984MOL0     C35681  10.402   5.677   2.070 -0.3565 -0.0886 -0.0385
  984MOL0     C35682  10.472   5.617   1.949 -0.1366  0.2030  0.4683
  984MOL0     C35683  10.454   5.727   2.191 -0.6677 -0.6331 -0.2496
  984MOL0     C35684  10.599   5.712   2.235  0.1415 -0.7700 -0.1675
  984MOL0     O35685  10.681   5.632   2.159  0.4093  0.2542 -0.4224
  984MOL0     C35686  10.794   5.591   2.213 -0.6580  1.3322  0.0003
  984MOL0     C35687  10.897   5.588   2.122 -0.8599 -0.8458  0.1962
  984MOL0     C35688  11.027   5.545   2.149  0.5985 -0.1914 -0.2051
  984MOL0     C35689  11.052   5.491   2.280 -0.2616 -1.0266  0.0759
  984MOL0     O35690  11.172   5.426   2.320  0.0783 -0.1260 -0.4060
  984MOL0     C35691  11.284   5.426   2.232 -1.1907 -0.0449  0.8883
  984MOL0     C35692  11.409   5.357   2.288  0.6939 -0.3543 -0.0301
  984MOL0     C35693  11.530   5.380   2.200 -0.2251 -0.0732  0.2061
  984MOL0     C35694  11.640   5.284   2.240 -0.8274 -0.3219  0.8968
  984MOL0     C35695  11.764   5.328   2.181  0.0683  1.2083  0.7238
  984MOL0     C35696  11.872   5.220   2.185 -0.2675 -0.6171  0.8164
  984MOL0     C35697  12.007   5.278   2.134 -0.7126  0.8004  0.5117
  984MOL0     C35698  12.122   5.182   2.101  0.4597 -0.3549 -0.5439
  984MOL0    Cl35699  12.082   5.040   1.994 -0.3744  0.6208  0.0669
  984MOL0     C35700  10.948   5.496   2.368  0.0197 -0.3616 -0.1558
  984MOL0     C35701  10.817   5.539   2.339  0.0216 -0.0582  0.2996
  984MOL0     O35702  10.631   5.769   2.341 -0.0990  0.3227  0.3897
  984MOL0     C35703  10.374   5.797   2.278  0.0010  0.4545  0.5528
  984MOL0     C35704  10.235   5.808   2.257  0.0924  0.5271  0.1455
  984MOL0     N35705   9.805   6.075   1.692 -0.5902 -0.3721  0.1776
  984MOL0     N35706   9.728   6.172   1.700  0.9389 -0.4136 -0.0746
  984MOL0     C35707   8.578   6.212   1.892  0.3509  0.1077 -0.8371
  984MOL0     C35708   8.466   6.194   1.966  1.0345 -0.4227  0.3175
  984MOL0     C35709   8.056   6.321   2.155  0.6879  0.3284  1.1253
  984MOL0     C35710   8.036   6.187   2.196 -0.1859  0.3320  0.8177
  984MOL0     C35711   7.941   6.150   2.293  0.5377 -0.4179  0.9183
  984MOL0     C35712   7.859   6.244   2.344  0.5125  0.6098  0.2091
  984MOL0     O35713   7.751   6.219   2.427  0.4263 -0.2910 -0.4313
  984MOL0     C35714   7.711   6.079   2.475 -0.2956 -1.0451  0.4339
  984MOL0     C35715   7.803   6.011   2.580 -1.1030  0.1785  1.1446
  984MOL0     C35716   7.737   5.940   2.701 -0.3384  0.0804 -0.6851
  984MOL0     C35717   7.843   5.859   2.781 -0.8364  0.2985 -0.7305
  984MOL0     C35718   7.888   5.732   2.736  0.2963  0.2179  0.1437
  984MOL0     C35719   7.939   5.626   2.701  0.4963 -0.3988 -0.8501
  984MOL0     C35720   7.868   6.372   2.300 -0.0637  0.0493 -0.6951
  984MOL0     C35721   7.965   6.416   2.211  0.0048  0.3806  0.6575
  984MOL0     C35722   7.967   6.561   2.173  0.2105  0.1667  0.5011
  984MOL0     H35723   8.404   6.513   2.036 -3.2467 -0.9157 -1.1718
  984MOL0     H35724   8.597   6.547   1.920 -0.6138 -0.1664 -2.2894
  984MOL0     H35725   8.782   6.182   1.697  0.0104 -0.3908  0.2831
  984MOL0     H35726   8.880   6.181   1.844  2.6311  1.3272 -0.5107
  984MOL0     H35727   8.899   6.354   1.591  1.6877  1.6938 -0.4576
  984MOL0     H35728   9.004   6.384   1.733  1.1468 -0.6568 -0.0941
  984MOL0     H35729   9.101   6.155   1.711 -1.4201  0.2380  0.7387
  984MOL0     H35730   8.980   6.112   1.588 -0.6830 -1.1720  1.0699
  984MOL0     H35731   9.062   6.283   1.438 -0.9964 -1.3203  0.6091
  984MOL0     H35732   9.187   6.352   1.556  3.5958 -1.3328 -1.7018
  984MOL0     H35733   9.300   6.217   1.382  1.3180 -0.8752 -0.8983
  984MOL0     H35734   9.214   6.085   1.407  4.2259 -0.5054 -0.4310
  984MOL0     H35735   9.293   6.068   1.646  0.1702  1.7202  1.2660
  984MOL0     H35736   9.427   6.079   1.532  1.6584  0.5434  2.4241
  984MOL0     H35737   9.340   6.318   1.707 -1.3187 -1.0617 -0.5378
  984MOL0     H35738   9.476   6.308   1.590  1.6105 -3.4255 -1.3157
  984MOL0     H35739   9.531   6.296   1.826 -2.3371 -0.1425  1.6757
  984MOL0     H35740   9.428   6.160   1.839 -1.3300  0.9874 -2.1147
  984MOL0     H35741   9.547   5.912   1.799 -0.4153 -0.6110 -0.7770
  984MOL0     H35742   9.847   5.777   1.666 -1.3258  1.5181 -0.6336
  984MOL0     H35743   9.730   5.753   1.801 -2.1242  2.7610  2.3535
  984MOL0     H35744   9.961   5.711   1.854  0.2218 -0.8498 -2.0490
  984MOL0     H35745   9.998   5.888   1.821  1.9497 -3.2307 -2.5858
  984MOL0     H35746   9.845   5.959   1.999  0.6624  0.8478 -0.7513
  984MOL0     H35747   9.803   5.792   2.027  1.4202 -2.6216 -0.2952
  984MOL0     H35748  10.080   5.934   2.081 -0.3322 -0.3079  2.0221
  984MOL0     H35749   9.949   5.895   2.192 -0.4404 -0.4354 -0.9482
  984MOL0     H35750  10.218   5.655   1.956 -0.9800  0.8986 -0.7108
  984MOL0     H35751  10.443   5.671   1.859  1.9831 -0.5367 -0.7336
  984MOL0     H35752  10.435   5.515   1.939 -1.7683  0.9996 -2.8874
  984MOL0     H35753  10.580   5.613   1.966 -0.5194  0.7023  3.7978
  984MOL0     H35754  10.874   5.617   2.019  0.9780  0.2258  0.0329
  984MOL0     H35755  11.091   5.542   2.061  1.4341  2.4266  0.2516
  984MOL0     H35756  11.260   5.371   2.140  1.6833 -1.2660  0.7282
  984MOL0     H35757  11.308   5.528   2.200 -2.5923 -0.9618 -3.9157
  984MOL0     H35758  11.438   5.392   2.387  0.4398  2.1343 -0.7464
  984MOL0     H35759  11.401   5.249   2.278  2.6588 -0.3380 -3.4255
  984MOL0     H35760  11.572   5.481   2.201  0.2689 -0.2712  1.6867
  984MOL0     H35761  11.504   5.366   2.095  2.9419  0.4184 -0.7388
  984MOL0     H35762  11.617   5.182   2.208  0.1388 -0.2330 -0.1399
  984MOL0     H35763  11.650   5.282   2.349  1.1915  1.3683  0.7962
  984MOL0     H35764  11.745   5.348   2.076 -0.6995  0.2236  0.6556
  984MOL0     H35765  11.798   5.423   2.223 -0.6265  2.5484 -1.6095
  984MOL0     H35766  11.846   5.133   2.124 -1.3112  0.1291  0.1496
  984MOL0     H35767  11.888   5.191   2.289  0.4158 -2.1361  0.3129
  984MOL0     H35768  12.038   5.356   2.204  0.2105  1.4685 -0.6189
  984MOL0     H35769  11.986   5.324   2.037 -0.3153 -1.1082 -0.5287
  984MOL0     H35770  12.152   5.143   2.198 -2.8013  0.2186  0.8189
  984MOL0     H35771  12.209   5.232   2.057  0.3546 -1.6499 -2.3508
  984MOL0     H35772  10.969   5.465   2.470  0.2960 -2.3590 -0.7763
  984MOL0     H35773  10.731   5.544   2.404  2.1736 -1.0261  3.4731
  984MOL0     H35774  10.409   5.854   2.363  1.5617  1.1450 -0.4994
  984MOL0     H35775  10.170   5.868   2.321  0.0328  2.1931 -1.4062
  984MOL0     H35776   8.612   6.123   1.840 -2.3088 -0.2152 -2.1984
  984MOL0     H35777   8.424   6.093   1.967  0.5386 -0.2525  2.6427
  984MOL0     H35778   8.111   6.116   2.162 -0.1306  1.2143 -1.0114
  984MOL0     H35779   7.918   6.046   2.314 -4.1760 -0.0386 -1.0136
  984MOL0     H35780   7.611   6.077   2.518 -0.0378  0.1851  1.1314
  984MOL0     H35781   7.708   6.023   2.381 -3.2769 -0.5557  0.1297
  984MOL0     H35782   7.883   6.072   2.622  0.1419 -2.1618  2.3582
  984MOL0     H35783   7.859   5.933   2.526 -0.8707  0.3227  1.1775
  984MOL0     H35784   7.697   6.011   2.774 -3.2173 -1.0098 -1.0819
  984MOL0     H35785   7.660   5.873   2.661 -0.2702 -1.1819  1.1542
  984MOL0     H35786   7.806   5.857   2.884  2.0125  3.0707  0.4923
  984MOL0     H35787   7.933   5.921   2.785 -0.1837 -0.6619  2.4950
  984MOL0     H35788   7.982   5.539   2.656  0.3066 -0.5440 -0.7493
  984MOL0     H35789   7.799   6.434   2.357 -1.9166 -3.3108  1.0582
  984MOL0     H35790   8.054   6.617   2.208 -0.7348  0.6363  2.1834
  984MOL0     H35791   7.958   6.568   2.064 -0.2743  1.7568  0.6203
  984MOL0     H35792   7.880   6.604   2.223 -0.8255 -1.4473  0.1703
  985MOL0     O35793   9.705   9.404   1.123 -0.4609 -0.7149  0.6262
  985MOL0     C35794   9.621   9.462   1.188  0.2729 -0.2104  0.5895
  985MOL0     O35795   9.485   9.453   1.172 -0.2081  0.5706 -0.7905
  985MOL0     C35796   9.433   9.373   1.076  0.2461 -0.5055 -0.7302
  985MOL0     C35797   9.373   9.430   0.960 -0.8944 -0.5579 -0.7477
  985MOL0     C35798   9.303   9.351   0.869  0.5911 -0.3726 -0.2235
  985MOL0     C35799   9.295   9.217   0.900  0.3738  0.0322  1.3786
  985MOL0     O35800   9.241   9.128   0.802  0.3136  0.0751  0.4170
  985MOL0     C35801   9.179   9.180   0.684 -0.1207 -0.2073 -0.5550
  985MOL0     C35802   9.141   9.063   0.588  0.7280 -0.2401  0.6302
  985MOL0     C35803   9.265   8.980   0.532  0.2743 -0.9700 -0.6901
  985MOL0     C35804   9.319   9.048   0.402  0.6881 -0.3315 -0.4765
  985MOL0     C35805   9.409   8.950   0.322 -1.0671  0.3337 -0.0247
  985MOL0     C35806   9.552   8.916   0.382  0.6959 -0.8771 -0.2389
  985MOL0     C35807   9.652   8.869   0.278  0.2243  0.2488  0.1813
  985MOL0     C35808   9.783   8.841   0.344 -0.1012 -0.2134 -0.0459
  985MOL0     N35809   9.838   8.977   0.364  0.0382  0.3998 -1.0221
  985MOL0     C35810   9.874   9.058   0.265 -0.5960 -0.5063 -0.0354
  985MOL0     C35811   9.950   9.156   0.322  0.2605  0.2178  0.2374
  985MOL0     C35812  10.005   9.280   0.249 -0.2005  0.0956  0.3940
  985MOL0     C35813  10.060   9.251   0.111  0.0410  0.6663 -0.4496
  985MOL0     C35814  10.174   9.146   0.114  0.3801  0.1512 -0.3419
  985MOL0     C35815  10.308   9.193   0.163 -0.3443  0.6361  0.0612
  985MOL0     O35816  10.381   9.069   0.173 -1.0571  0.0084 -0.0700
  985MOL0     C35817  10.496   9.058   0.240 -0.2494  0.0294  0.2999
  985MOL0     C35818  10.534   8.936   0.307  0.3697 -0.0814  0.1933
  985MOL0     C35819  10.663   8.915   0.360 -0.4104 -0.6126 -0.8985
  985MOL0     C35820  10.710   8.786   0.414  0.0272 -0.2309  0.2815
  985MOL0     C35821  10.761   9.024   0.356  0.1077 -0.2326  0.4892
  985MOL0     C35822  10.903   9.031   0.419  0.2352  0.2888 -0.5756
  985MOL0     O35823  10.935   8.916   0.493 -0.4397 -0.1312 -0.1130
  985MOL0     C35824  11.054   8.927   0.561  0.2423 -0.3380 -0.4811
  985MOL0     C35825  11.149   8.829   0.537 -0.5516  0.4056  0.6902
  985MOL0     C35826  11.269   8.830   0.604 -0.8673  0.4623  0.0373
  985MOL0     C35827  11.305   8.934   0.693 -0.0516 -0.5899 -1.2582
  985MOL0     O35828  11.426   8.943   0.753 -0.1176 -0.3111 -0.4039
  985MOL0     C35829  11.550   8.898   0.691 -0.2439  0.3932  0.1383
  985MOL0     C35830  11.665   8.928   0.786  0.3046  0.1556  0.4962
  985MOL0     C35831  11.800   8.856   0.746  0.1522  0.0375  0.6672
  985MOL0     C35832  11.928   8.923   0.799 -0.8405 -0.1464  0.3823
  985MOL0     C35833  12.047   8.858   0.727  0.0573  0.2919 -0.5517
  985MOL0     C35834  12.182   8.915   0.763 -0.1046 -0.1387 -0.2468
  985MOL0     C35835  12.288   8.830   0.692  0.9102  0.0197 -0.5157
  985MOL0     C35836  12.319   8.699   0.764 -0.0304  0.0453 -0.2208
  985MOL0    Cl35837  12.482   8.630   0.708  0.2348 -0.0139 -0.2449
  985MOL0     C35838  11.204   9.034   0.718 -0.3386 -0.7482  0.3262
  985MOL0     C35839  11.080   9.025   0.660 -1.1533  0.6873  0.6180
  985MOL0     O35840  10.974   9.134   0.405 -0.3166 -0.4075 -0.6754
  985MOL0     C35841  10.715   9.139   0.294 -0.1886 -0.9157  0.1180
  985MOL0     C35842  10.588   9.154   0.232 -0.0266 -0.5831 -0.0578
  985MOL0     N35843   9.966   9.124   0.459  0.3665  0.1263  0.2663
  985MOL0     N35844   9.893   9.015   0.483 -0.0352  0.9401  0.5410
  985MOL0     C35845   9.360   9.153   1.002 -0.1359  0.6216 -0.8504
  985MOL0     C35846   9.435   9.236   1.092 -0.1625  0.3028  0.1371
  985MOL0     C35847   9.679   9.545   1.301 -0.0850 -0.5935 -0.1497
  985MOL0     C35848   9.620   9.542   1.427 -0.1157  0.2237 -0.1079
  985MOL0     C35849   9.663   9.629   1.528 -0.8418  0.3089  0.5468
  985MOL0     C35850   9.775   9.713   1.515  0.2712  0.1334 -0.0994
  985MOL0     O35851   9.827   9.788   1.623 -0.0118  0.6297  0.5852
  985MOL0     C35852   9.764   9.799   1.747  0.9076 -0.5430 -0.9851
  985MOL0     C35853   9.641   9.889   1.737  0.6011  0.0534  0.2735
  985MOL0     C35854   9.664  10.036   1.769 -0.1569  0.0696 -0.3643
  985MOL0     C35855   9.527  10.108   1.773 -0.2708 -0.1129 -0.4482
  985MOL0     C35856   9.459  10.093   1.900  1.0356 -0.9853 -0.2077
  985MOL0     C35857   9.379  10.080   1.997 -0.0700  0.0445 -0.3466
  985MOL0     C35858   9.835   9.714   1.384  0.6974  0.2392  0.1286
  985MOL0     C35859   9.786   9.634   1.281 -0.1303 -0.0533  0.0856
  985MOL0     C35860   9.853   9.648   1.149 -0.5363 -1.2119  0.1577
  985MOL0     H35861   9.381   9.538   0.959  0.0187 -0.6095 -2.1432
  985MOL0     H35862   9.248   9.396   0.787  0.7396 -1.9446 -1.2403
  985MOL0     H35863   9.256   9.239   0.633 -1.2284  0.6480 -1.2995
  985MOL0     H35864   9.088   9.234   0.713 -1.0431 -3.3295  3.1475
  985MOL0     H35865   9.068   8.998   0.637  0.6389 -0.4363  0.2373
  985MOL0     H35866   9.096   9.113   0.502  1.1036  0.1794  0.6746
  985MOL0     H35867   9.343   8.972   0.608  1.1036  2.9112 -0.9618
  985MOL0     H35868   9.224   8.880   0.513  0.4167 -0.6990 -2.6831
  985MOL0     H35869   9.237   9.077   0.335  0.2454 -0.7756 -0.1327
  985MOL0     H35870   9.382   9.133   0.428  2.5072 -1.8493  0.3738
  985MOL0     H35871   9.427   8.994   0.223  2.6469  0.9281  0.7529
  985MOL0     H35872   9.361   8.853   0.310 -1.6633  0.6386 -0.1193
  985MOL0     H35873   9.585   9.005   0.437  0.1531 -0.1529 -1.0662
  985MOL0     H35874   9.527   8.844   0.460 -1.0378  3.2170  3.4173
  985MOL0     H35875   9.666   8.936   0.192  1.7075 -0.3450 -0.0705
  985MOL0     H35876   9.615   8.775   0.236  2.0498  0.6849 -2.7237
  985MOL0     H35877   9.782   8.789   0.440  2.6836  2.8008  1.8291
  985MOL0     H35878   9.847   8.794   0.269 -0.6630  2.1351 -2.1186
  985MOL0     H35879   9.844   9.040   0.162 -2.2536  3.6056 -0.4684
  985MOL0     H35880  10.077   9.329   0.315 -0.7792  0.6260  0.6476
  985MOL0     H35881   9.922   9.349   0.233 -0.0689  0.9346  2.8280
  985MOL0     H35882   9.970   9.213   0.063 -1.9309  2.4107  1.6773
  985MOL0     H35883  10.108   9.334   0.059  1.2938  0.1862 -0.1003
  985MOL0     H35884  10.138   9.063   0.176  1.7473  0.6297  1.1487
  985MOL0     H35885  10.195   9.100   0.017 -0.7846 -2.8198  0.6843
  985MOL0     H35886  10.362   9.262   0.098 -1.4533 -0.8394 -2.5487
  985MOL0     H35887  10.299   9.244   0.260  0.3250  2.9093 -0.9961
  985MOL0     H35888  10.464   8.854   0.303  0.6174 -0.2434 -1.5334
  985MOL0     H35889  10.689   8.765   0.519  0.4659 -4.7424 -0.3263
  985MOL0     H35890  10.816   8.768   0.395  0.1671  1.5442 -0.8008
  985MOL0     H35891  10.661   8.710   0.353 -1.2437 -0.8682  2.0097
  985MOL0     H35892  11.133   8.747   0.467  0.7323 -0.8565  1.7908
  985MOL0     H35893  11.333   8.746   0.578 -2.1861 -0.5495 -0.0709
  985MOL0     H35894  11.557   8.789   0.679 -1.5404  0.0058  2.3137
  985MOL0     H35895  11.553   8.952   0.596  1.1095  0.1534  0.0329
  985MOL0     H35896  11.668   9.037   0.773 -2.5919  0.1403 -1.3878
  985MOL0     H35897  11.647   8.901   0.890  3.2721 -2.3455  0.4863
  985MOL0     H35898  11.817   8.868   0.639 -0.1427  1.0857  0.7277
  985MOL0     H35899  11.801   8.750   0.773 -0.6978 -0.0359  0.4588
  985MOL0     H35900  11.929   8.907   0.907  2.3970  0.1675  0.4673
  985MOL0     H35901  11.922   9.029   0.773 -0.5251 -0.6403 -1.9666
  985MOL0     H35902  12.050   8.749   0.736  1.0079  0.4892  3.8126
  985MOL0     H35903  12.034   8.878   0.620  0.1348 -2.6718 -1.1911
  985MOL0     H35904  12.189   8.914   0.873 -1.0851  3.0254 -0.0504
  985MOL0     H35905  12.205   9.016   0.729  2.1984 -0.1116  1.1425
  985MOL0     H35906  12.383   8.883   0.683  1.0464 -0.3316 -1.2326
  985MOL0     H35907  12.251   8.800   0.593 -0.2482  0.6007 -0.2822
  985MOL0     H35908  12.240   8.627   0.740 -1.4325  1.8199 -1.1330
  985MOL0     H35909  12.328   8.710   0.873  1.6000  1.0135 -0.4173
  985MOL0     H35910  11.228   9.101   0.801 -0.0963 -1.9128  1.2300
  985MOL0     H35911  11.000   9.096   0.675 -2.6458 -0.0097 -2.8494
  985MOL0     H35912  10.778   9.228   0.298 -0.9315 -0.2881 -1.3565
  985MOL0     H35913  10.562   9.248   0.186  1.0315 -1.2423 -2.1675
  985MOL0     H35914   9.352   9.048   1.026  1.2121  0.7288  0.2157
  985MOL0     H35915   9.495   9.183   1.165  2.1642  0.7918 -1.3015
  985MOL0     H35916   9.540   9.473   1.449 -0.4157  0.9168  1.0802
  985MOL0     H35917   9.607   9.626   1.621 -0.0761 -1.3853  0.9990
  985MOL0     H35918   9.735   9.697   1.774 -1.2228  0.1886 -0.2560
  985MOL0     H35919   9.839   9.833   1.819 -1.0138 -2.0098  1.9209
  985MOL0     H35920   9.563   9.846   1.800 -0.7908 -2.2851 -2.8050
  985MOL0     H35921   9.607   9.885   1.633 -0.9885 -0.4893  0.7926
  985MOL0     H35922   9.721  10.040   1.863 -0.9115 -1.0261  0.1643
  985MOL0     H35923   9.737  10.080   1.700  0.7690  0.8337  1.0390
  985MOL0     H35924   9.463  10.072   1.692 -2.8219  1.6610  0.6582
  985MOL0     H35925   9.547  10.214   1.753  1.8460 -0.1674  1.0015
  985MOL0     H35926   9.294  10.068   2.062 -2.3951 -0.1747 -3.2065
  985MOL0     H35927   9.908   9.792   1.370 -1.0600  2.0361  0.5336
  985MOL0     H35928   9.944   9.705   1.169  0.6284 -3.0753  0.5114
  985MOL0     H35929   9.889   9.553   1.107  0.6545 -0.5475 -0.3605
  985MOL0     H35930   9.789   9.708   1.084  0.2338  1.2116  1.5054
  986MOL0     O35931   6.662   5.827  10.705  0.6371  0.3616  0.0616
  986MOL0     C35932   6.609   5.809  10.813  0.4357 -0.2242  0.3572
  986MOL0     O35933   6.639   5.717  10.901 -0.2243  0.0007 -1.2030
  986MOL0     C35934   6.743   5.633  10.880 -0.3474  0.6875  1.0036
  986MOL0     C35935   6.823   5.597  10.985 -0.5779 -0.0513  0.1268
  986MOL0     C35936   6.921   5.495  10.974  0.2507  0.1795 -0.1485
  986MOL0     C35937   6.958   5.446  10.852  0.0191 -0.5002 -0.6786
  986MOL0     O35938   7.075   5.364  10.855  0.3542  0.0676  0.2700
  986MOL0     C35939   7.093   5.271  10.738 -0.1148 -0.9541 -0.2676
  986MOL0     C35940   7.119   5.127  10.797  0.3257 -0.4059 -0.2425
  986MOL0     C35941   7.241   5.101  10.888  0.3874 -0.4855  0.4817
  986MOL0     C35942   7.231   4.952  10.941  0.3929 -0.5232  0.1946
  986MOL0     C35943   7.338   4.927  11.049  0.3901  0.7587 -0.0856
  986MOL0     C35944   7.355   4.781  11.085  0.8744  0.5869 -0.6723
  986MOL0     C35945   7.467   4.754  11.181 -0.2809 -0.5233 -0.3432
  986MOL0     C35946   7.604   4.760  11.104  0.7705 -0.6891  0.1679
  986MOL0     N35947   7.710   4.694  11.178 -0.6414 -0.0008  0.4465
  986MOL0     C35948   7.728   4.560  11.191  0.3823 -0.6424  0.0504
  986MOL0     C35949   7.851   4.555  11.249  0.4370 -0.0060  0.2932
  986MOL0     C35950   7.919   4.430  11.275 -0.6861 -0.0030  0.0087
  986MOL0     C35951   8.046   4.451  11.363  0.3855  0.8910 -0.3978
  986MOL0     C35952   8.117   4.316  11.388 -0.0777  0.2266 -0.9492
  986MOL0     C35953   8.261   4.333  11.418 -0.5084 -0.4004 -0.3150
  986MOL0     O35954   8.280   4.421  11.532 -0.1560  0.4249 -0.3103
  986MOL0     C35955   8.416   4.434  11.572  0.3339  0.3470 -0.2662
  986MOL0     C35956   8.446   4.556  11.641  0.3160  0.0940  0.3953
  986MOL0     C35957   8.576   4.585  11.679  0.1532  0.9773 -0.0404
  986MOL0     C35958   8.600   4.717  11.758  0.1030  1.0228  0.1721
  986MOL0     C35959   8.678   4.491  11.648 -0.3614  0.6339 -0.2144
  986MOL0     C35960   8.824   4.513  11.664  0.7297 -0.6286 -0.0119
  986MOL0     O35961   8.863   4.636  11.684  0.1045  0.0900  0.1721
  986MOL0     C35962   9.003   4.652  11.681  0.3813 -0.1471  0.1531
  986MOL0     C35963   9.078   4.661  11.801  0.1394  1.3977 -0.1057
  986MOL0     C35964   9.220   4.680  11.798  0.7533 -0.7439  1.0617
  986MOL0     C35965   9.277   4.727  11.676 -0.6527  0.0992 -1.5104
  986MOL0     O35966   9.409   4.762  11.676 -0.0604 -0.0174 -0.5409
  986MOL0     C35967   9.449   4.879  11.614 -0.1322 -0.1990 -0.2741
  986MOL0     C35968   9.598   4.911  11.644  0.0953 -1.3071 -0.2139
  986MOL0     C35969   9.692   4.824  11.548  0.2942 -0.7100 -0.8407
  986MOL0     C35970   9.845   4.861  11.569 -0.0577  0.5492 -0.1506
  986MOL0     C35971   9.939   4.774  11.483  0.7747 -0.0592  0.5481
  986MOL0     C35972   9.920   4.625  11.492 -0.0367 -0.2569 -0.2153
  986MOL0     C35973  10.006   4.563  11.382 -1.2322  0.1060 -0.8680
  986MOL0     C35974  10.029   4.412  11.392 -0.5447 -0.6359  0.0723
  986MOL0    Cl35975   9.897   4.327  11.316 -0.1077  0.4225  0.2902
  986MOL0     C35976   9.202   4.721  11.559  0.3538 -0.0622 -0.4643
  986MOL0     C35977   9.059   4.683  11.563  0.0482 -0.1376  0.2236
  986MOL0     O35978   8.897   4.413  11.660 -0.7338  1.1423 -0.1446
  986MOL0     C35979   8.645   4.367  11.581 -0.3440  1.0192 -0.6836
  986MOL0     C35980   8.514   4.340  11.549 -0.4855 -0.6790  0.4276
  986MOL0     N35981   7.898   4.686  11.285  0.3839 -0.1873  0.7107
  986MOL0     N35982   7.820   4.770  11.218  0.4376 -0.0081 -0.5157
  986MOL0     C35983   6.872   5.474  10.745  0.4829 -0.1095  0.5720
  986MOL0     C35984   6.759   5.559  10.765 -0.4662  0.0543  0.8985
  986MOL0     C35985   6.484   5.884  10.834  1.2361  0.5496 -0.2482
  986MOL0     C35986   6.482   5.956  10.957  0.1725  0.2087  0.3662
  986MOL0     C35987   6.370   6.023  10.999  0.4985 -0.5600  0.4811
  986MOL0     C35988   6.253   6.017  10.925  0.0070 -0.0622 -0.1358
  986MOL0     O35989   6.146   6.086  10.979  0.3929 -0.1327 -0.0787
  986MOL0     C35990   6.004   6.069  10.932  0.4399  0.2813 -0.0998
  986MOL0     C35991   5.980   6.169  10.819  0.9657  0.1348  0.4379
  986MOL0     C35992   5.844   6.159  10.742 -0.1728  0.0392 -0.4683
  986MOL0     C35993   5.745   6.262  10.797 -0.3623  0.0572 -0.8195
  986MOL0     C35994   5.637   6.277  10.705  0.5785  0.1884  0.5058
  986MOL0     C35995   5.549   6.287  10.618 -0.8177  0.6000  0.3000
  986MOL0     C35996   6.257   5.947  10.800 -0.4741  0.1601 -0.2654
  986MOL0     C35997   6.368   5.876  10.754 -0.2897  0.4522  0.3162
  986MOL0     C35998   6.363   5.786  10.627  0.1730 -0.2962 -0.0248
  986MOL0     H35999   6.804   5.645  11.081 -3.3068  0.4802 -0.5841
  986MOL0     H36000   6.969   5.471  11.069 -1.1572  1.4767  0.9436
  986MOL0     H36001   7.174   5.301  10.671  1.8494 -4.7514  0.1487
  986MOL0     H36002   7.004   5.258  10.677 -2.1729 -0.7820  2.4893
  986MOL0     H36003   7.027   5.088  10.842  1.2476 -3.3242 -0.6482
  986MOL0     H36004   7.143   5.060  10.714  2.3525 -1.7287  1.3072
  986MOL0     H36005   7.332   5.121  10.831 -1.4018 -0.1076 -2.4513
  986MOL0     H36006   7.240   5.177  10.967  3.4614  0.6902 -0.4671
  986MOL0     H36007   7.129   4.943  10.979  0.0985  3.2700  0.7210
  986MOL0     H36008   7.256   4.887  10.857  0.8969  0.9940 -0.8543
  986MOL0     H36009   7.317   4.983  11.140  0.8070 -1.9580  1.8030
  986MOL0     H36010   7.435   4.967  11.016 -0.5271  3.0624 -0.1583
  986MOL0     H36011   7.260   4.751  11.131  0.1502  1.2075 -1.7195
  986MOL0     H36012   7.369   4.712  11.001  3.9366 -0.2331  0.3616
  986MOL0     H36013   7.446   4.650  11.208 -4.9169  0.5162  0.9189
  986MOL0     H36014   7.471   4.821  11.267  0.9076 -0.0016 -0.7818
  986MOL0     H36015   7.582   4.705  11.012 -2.4744 -2.3688  1.7795
  986MOL0     H36016   7.626   4.864  11.082 -2.8757  0.2575  0.3949
  986MOL0     H36017   7.682   4.476  11.141 -2.4004 -2.0273  4.4091
  986MOL0     H36018   7.944   4.385  11.178 -1.4574  1.0463 -0.6962
  986MOL0     H36019   7.843   4.372  11.328 -0.4955 -0.4520 -0.2039
  986MOL0     H36020   8.113   4.525  11.318  1.8545 -0.1010  0.0508
  986MOL0     H36021   8.014   4.496  11.457 -2.3788 -1.0760 -0.3001
  986MOL0     H36022   8.066   4.267  11.472 -0.2270 -0.0508 -1.1986
  986MOL0     H36023   8.121   4.253  11.298  2.2626 -0.6546 -0.2917
  986MOL0     H36024   8.294   4.232  11.444  1.9234  1.0919  3.1683
  986MOL0     H36025   8.314   4.370  11.330 -2.5007  1.7907 -0.7061
  986MOL0     H36026   8.363   4.625  11.657 -0.8873 -0.7677 -1.6129
  986MOL0     H36027   8.671   4.704  11.840  0.8125 -1.3379 -0.7353
  986MOL0     H36028   8.508   4.749  11.807 -0.8037  2.3289 -2.2436
  986MOL0     H36029   8.625   4.799  11.690  1.8030  1.5545  1.3716
  986MOL0     H36030   9.018   4.643  11.889 -1.5861 -0.0479 -1.4979
  986MOL0     H36031   9.272   4.677  11.893 -1.2397 -0.0353  2.2127
  986MOL0     H36032   9.449   4.859  11.506  0.7479 -0.6510 -0.2012
  986MOL0     H36033   9.391   4.965  11.646  0.9434  2.0130 -3.7032
  986MOL0     H36034   9.612   5.017  11.623 -2.3550 -0.7657  0.5596
  986MOL0     H36035   9.616   4.899  11.752 -1.5738  1.0693  0.3954
  986MOL0     H36036   9.670   4.847  11.444 -0.8718  0.0784 -0.4501
  986MOL0     H36037   9.672   4.719  11.571 -2.5956  0.2855  2.1164
  986MOL0     H36038   9.877   4.866  11.673  1.2374 -2.2525 -0.3362
  986MOL0     H36039   9.855   4.964  11.532 -0.7338  1.2350  1.5051
  986MOL0     H36040   9.921   4.803  11.379  1.3251  0.6787  0.6528
  986MOL0     H36041  10.046   4.792  11.499  1.5783 -2.5565 -1.2439
  986MOL0     H36042   9.818   4.596  11.468 -0.3163  1.1516 -0.8342
  986MOL0     H36043   9.947   4.590  11.592 -0.1903  0.4604  0.0839
  986MOL0     H36044  10.108   4.603  11.380  0.2672 -3.3577 -0.6041
  986MOL0     H36045   9.960   4.577  11.284 -0.2909 -0.1841 -1.3582
  986MOL0     H36046  10.032   4.384  11.498  0.6221  1.5130  0.6850
  986MOL0     H36047  10.123   4.387  11.342 -1.2052 -1.7521 -0.6431
  986MOL0     H36048   9.251   4.750  11.466  0.6618  2.3877  0.3983
  986MOL0     H36049   9.000   4.685  11.472  1.4660 -3.0821 -0.8859
  986MOL0     H36050   8.720   4.293  11.554 -0.9248  0.5181 -0.9393
  986MOL0     H36051   8.493   4.253  11.488 -0.7279 -0.4278  0.1448
  986MOL0     H36052   6.909   5.441  10.648  0.1381  1.1754 -0.0195
  986MOL0     H36053   6.691   5.587  10.685  1.2163  1.8426  0.0298
  986MOL0     H36054   6.572   5.944  11.016  1.5912 -4.0543 -2.1902
  986MOL0     H36055   6.377   6.073  11.095 -0.7573  0.2508  0.1802
  986MOL0     H36056   5.996   5.970  10.886 -2.2121  1.2446 -1.9186
  986MOL0     H36057   5.934   6.083  11.014  0.5354  0.3428 -0.0276
  986MOL0     H36058   6.054   6.154  10.739  1.4155 -0.7971  1.0176
  986MOL0     H36059   6.000   6.269  10.860  1.1016 -0.2336  1.2804
  986MOL0     H36060   5.852   6.186  10.636 -1.8558 -4.9569 -2.1782
  986MOL0     H36061   5.810   6.055  10.747  0.2802 -0.0890 -0.0265
  986MOL0     H36062   5.802   6.355  10.808  1.7305 -1.1246 -1.2165
  986MOL0     H36063   5.715   6.230  10.898  1.9205  0.6635  0.1030
  986MOL0     H36064   5.482   6.268  10.536  2.8836 -0.9976 -2.6540
  986MOL0     H36065   6.169   5.941  10.737  1.8153 -1.1297 -3.6325
  986MOL0     H36066   6.407   5.841  10.543  2.0239  2.2920  2.4606
  986MOL0     H36067   6.430   5.701  10.639  0.9122 -0.0504 -2.0160
  986MOL0     H36068   6.266   5.736  10.619  0.7421 -1.1254 -2.3416
  987MOL0     O36069   9.595  11.222  11.281 -0.4947 -0.2328  0.6650
  987MOL0     C36070   9.533  11.127  11.234 -0.0326 -0.2525 -0.1008
  987MOL0     O36071   9.587  11.001  11.213 -0.3709 -0.5544  0.4131
  987MOL0     C36072   9.720  10.976  11.227 -0.2123  0.1447  0.6818
  987MOL0     C36073   9.761  10.876  11.322  0.3844  0.3723  0.1080
  987MOL0     C36074   9.893  10.842  11.340  0.8101  0.9655 -0.3150
  987MOL0     C36075   9.991  10.920  11.282  0.0264  0.7138 -0.0526
  987MOL0     O36076  10.121  10.875  11.303 -0.5471  0.2903  0.1866
  987MOL0     C36077  10.204  10.989  11.354 -0.7172 -0.3359 -0.1235
  987MOL0     C36078  10.328  10.952  11.445 -0.2473 -0.3914  0.6461
  987MOL0     C36079  10.306  10.847  11.553 -0.7048 -0.7196  0.9544
  987MOL0     C36080  10.428  10.821  11.638 -0.3412  0.4897  0.1431
  987MOL0     C36081  10.498  10.947  11.687  0.0416  0.0394 -0.3614
  987MOL0     C36082  10.606  10.929  11.779  0.3887 -0.3201 -0.6863
  987MOL0     C36083  10.726  10.853  11.721  0.5630 -1.6236 -0.2775
  987MOL0     C36084  10.712  10.701  11.748 -0.5410  0.0332 -0.0221
  987MOL0     N36085  10.842  10.634  11.729 -0.7736  0.0048  0.6253
  987MOL0     C36086  10.904  10.612  11.606  0.1677 -0.2682 -0.1345
  987MOL0     C36087  11.020  10.552  11.641 -0.0677  0.0682  0.5235
  987MOL0     C36088  11.134  10.527  11.546 -0.6797  0.0169 -0.1919
  987MOL0     C36089  11.225  10.644  11.526  0.3756 -0.1065  0.4910
  987MOL0     C36090  11.350  10.634  11.622  0.4777 -0.3243 -0.6764
  987MOL0     C36091  11.410  10.768  11.643 -0.3953  0.0245  0.4408
  987MOL0     O36092  11.547  10.749  11.697 -0.5907 -0.4053 -0.1221
  987MOL0     C36093  11.650  10.713  11.610 -0.5671 -0.2338 -0.1986
  987MOL0     C36094  11.698  10.584  11.606 -0.7197 -0.0013  0.8894
  987MOL0     C36095  11.818  10.554  11.529 -0.0792 -0.3062 -0.4013
  987MOL0     C36096  11.856  10.410  11.527  0.4274  0.7076  0.8157
  987MOL0     C36097  11.880  10.652  11.448 -0.2036  0.0995 -1.1446
  987MOL0     C36098  11.999  10.626  11.363  0.6796 -0.1699 -0.6546
  987MOL0     O36099  12.068  10.505  11.372  0.0179 -0.2586  0.1542
  987MOL0     C36100  12.182  10.488  11.298 -0.2471 -0.0475 -0.4676
  987MOL0     C36101  12.309  10.487  11.364  0.6057  0.3953  0.2951
  987MOL0     C36102  12.426  10.470  11.290 -0.5935  0.0349 -0.3964
  987MOL0     C36103  12.422  10.466  11.148 -0.6197 -0.3645  0.0590
  987MOL0     O36104  12.536  10.451  11.070  0.3139 -1.1039 -0.2506
  987MOL0     C36105  12.665  10.455  11.120  0.3916  0.1144  0.2256
  987MOL0     C36106  12.763  10.460  11.004  0.1750  0.5053  0.4906
  987MOL0     C36107  12.905  10.429  11.050  0.6461 -0.1627 -0.1494
  987MOL0     C36108  12.990  10.417  10.923  0.0913  0.3684  0.3789
  987MOL0     C36109  13.140  10.396  10.962 -0.2315 -0.3246 -0.3107
  987MOL0     C36110  13.233  10.359  10.841 -0.9057 -0.6077  0.4379
  987MOL0     C36111  13.387  10.363  10.886  0.1743  0.2041 -0.3683
  987MOL0     C36112  13.438  10.496  10.942 -0.0012  0.6119  0.1627
  987MOL0    Cl36113  13.611  10.471  11.000  0.0082 -0.2212 -0.2271
  987MOL0     C36114  12.300  10.464  11.084 -0.7588 -0.4787 -0.1462
  987MOL0     C36115  12.184  10.476  11.162  0.6572 -0.5912  0.1869
  987MOL0     O36116  12.027  10.713  11.285 -0.7311 -0.1175  0.3884
  987MOL0     C36117  11.808  10.774  11.438  0.2064  0.2741  0.2361
  987MOL0     C36118  11.698  10.805  11.515  0.0188 -0.1503 -0.5982
  987MOL0     N36119  11.029  10.535  11.777 -0.3255  0.2742 -0.1287
  987MOL0     N36120  10.925  10.589  11.829  0.0787  1.0745 -0.0616
  987MOL0     C36121   9.955  11.017  11.189 -1.0148  0.4168  0.3799
  987MOL0     C36122   9.819  11.049  11.153 -0.9822 -0.1483 -0.6047
  987MOL0     C36123   9.393  11.132  11.195  0.7699  0.6116 -0.2774
  987MOL0     C36124   9.351  11.052  11.080 -0.7811  0.2978  0.1863
  987MOL0     C36125   9.218  11.044  11.038  0.3277 -0.2127  0.7179
  987MOL0     C36126   9.119  11.117  11.106 -0.5428  0.7935 -0.0499
  987MOL0     O36127   8.991  11.107  11.062  0.3315  0.8249 -0.5108
  987MOL0     C36128   8.894  11.188  11.132 -0.7912  0.0799  0.6624
  987MOL0     C36129   8.763  11.171  11.056 -0.4956  0.2555 -0.5240
  987MOL0     C36130   8.717  11.028  11.089  0.3444  1.0091 -0.3706
  987MOL0     C36131   8.657  10.997  11.230  0.1840 -0.0930  0.6638
  987MOL0     C36132   8.513  11.015  11.226 -0.6700  0.4305 -0.5004
  987MOL0     C36133   8.393  11.029  11.209 -0.6106  0.1912  0.7146
  987MOL0     C36134   9.168  11.210  11.201  0.8515  0.1825 -0.4110
  987MOL0     C36135   9.297  11.215  11.252 -0.3230  0.4462 -0.5306
  987MOL0     C36136   9.336  11.326  11.353  0.6432 -0.4624 -0.1718
  987MOL0     H36137   9.687  10.817  11.374 -1.2340  1.2937 -1.0377
  987MOL0     H36138   9.928  10.772  11.415  0.5439  0.7275 -0.4160
  987MOL0     H36139  10.144  11.062  11.408  0.0211 -0.1389  0.4458
  987MOL0     H36140  10.237  11.044  11.266 -0.3254  0.5568  0.5647
  987MOL0     H36141  10.412  10.913  11.387 -0.3630 -2.1724  1.6228
  987MOL0     H36142  10.353  11.048  11.492  0.9931 -0.3782 -0.0010
  987MOL0     H36143  10.226  10.881  11.620 -2.2266  0.2515 -1.2598
  987MOL0     H36144  10.283  10.756  11.497  0.9671 -0.3956 -0.3460
  987MOL0     H36145  10.406  10.761  11.727 -0.3972 -1.4637 -1.1365
  987MOL0     H36146  10.493  10.763  11.573 -1.7858  0.4922 -1.3732
  987MOL0     H36147  10.419  11.008  11.731 -1.5428 -0.4426 -2.3329
  987MOL0     H36148  10.536  11.009  11.605  1.8283 -0.1105  0.3135
  987MOL0     H36149  10.637  11.030  11.807  0.2343  0.4234 -3.0120
  987MOL0     H36150  10.570  10.888  11.874 -0.9863  0.6713 -0.7666
  987MOL0     H36151  10.814  10.892  11.773 -1.6155  2.6949  0.6200
  987MOL0     H36152  10.739  10.879  11.616 -0.5276  0.7018  0.1176
  987MOL0     H36153  10.669  10.683  11.847 -0.3358  2.9959  0.7046
  987MOL0     H36154  10.638  10.662  11.678  0.3675  0.8849 -1.5152
  987MOL0     H36155  10.866  10.641  11.509  2.4950  1.4523 -0.6037
  987MOL0     H36156  11.114  10.492  11.444 -2.0943  1.3738 -0.4148
  987MOL0     H36157  11.182  10.437  11.585 -0.6671 -0.0369 -0.3300
  987MOL0     H36158  11.261  10.641  11.423 -1.1159  2.6741 -0.2253
  987MOL0     H36159  11.158  10.730  11.536 -2.9608 -2.3812 -0.5458
  987MOL0     H36160  11.318  10.601  11.721  2.2598 -1.4086 -0.4281
  987MOL0     H36161  11.415  10.557  11.580  0.9126 -0.8049  0.8227
  987MOL0     H36162  11.418  10.831  11.554  1.4058  2.3608  2.1040
  987MOL0     H36163  11.351  10.836  11.704  1.2376  1.5916  0.3788
  987MOL0     H36164  11.652  10.508  11.667 -0.7648 -1.0623 -0.4311
  987MOL0     H36165  11.852  10.368  11.426 -0.4104 -4.3070  2.6900
  987MOL0     H36166  11.776  10.350  11.570 -1.0964  1.1035 -1.3129
  987MOL0     H36167  11.954  10.405  11.576  1.6085  6.5496 -0.0865
  987MOL0     H36168  12.313  10.491  11.473  3.7723  0.6502  0.2663
  987MOL0     H36169  12.518  10.483  11.347 -1.0758  4.4383 -0.2193
  987MOL0     H36170  12.677  10.546  11.181 -0.9665 -0.0906  0.8227
  987MOL0     H36171  12.692  10.367  11.180 -1.8100 -0.5967  0.2383
  987MOL0     H36172  12.727  10.389  10.929 -3.6556  1.2446  1.4326
  987MOL0     H36173  12.757  10.559  10.959  1.8250 -0.5715 -2.3632
  987MOL0     H36174  12.893  10.329  11.093 -3.8820  0.7904  1.2613
  987MOL0     H36175  12.936  10.503  11.124 -0.7754  1.7466 -1.3791
  987MOL0     H36176  12.978  10.500  10.853 -0.0552 -2.0543 -2.7039
  987MOL0     H36177  12.949  10.332  10.868  1.5260  0.1456 -0.4225
  987MOL0     H36178  13.170  10.490  11.009 -1.0623 -0.9762  1.6457
  987MOL0     H36179  13.164  10.318  11.034  2.2996 -1.0105 -1.7804
  987MOL0     H36180  13.215  10.439  10.768 -0.0324 -0.4911  0.3438
  987MOL0     H36181  13.198  10.265  10.798  0.2146 -0.2988 -1.2476
  987MOL0     H36182  13.450  10.326  10.805  2.9846  1.7799  0.9486
  987MOL0     H36183  13.403  10.285  10.960 -0.8056 -3.4204 -3.6360
  987MOL0     H36184  13.366  10.515  11.022  0.6836 -1.3762  1.3344
  987MOL0     H36185  13.424  10.567  10.860 -0.6679 -0.8197 -1.0366
  987MOL0     H36186  12.293  10.450  10.977  0.7774 -1.0971 -0.1938
  987MOL0     H36187  12.092  10.488  11.106  2.5000  3.1118 -2.5275
  987MOL0     H36188  11.845  10.841  11.362  1.1283 -0.9094 -0.3973
  987MOL0     H36189  11.651  10.902  11.501  3.1239  1.5267 -0.1447
  987MOL0     H36190  10.048  11.059  11.153 -1.1267  2.0234  1.8607
  987MOL0     H36191   9.800  11.119  11.072 -0.7364 -0.5794 -1.0404
  987MOL0     H36192   9.430  10.987  11.043 -0.5202  0.4341  0.5083
  987MOL0     H36193   9.183  10.967  10.970  0.6266 -0.6192  1.0166
  987MOL0     H36194   8.885  11.172  11.240 -0.1316 -1.9908  0.4527
  987MOL0     H36195   8.920  11.290  11.102  0.7617 -0.7128 -0.8484
  987MOL0     H36196   8.777  11.186  10.949  0.0044  0.2802 -0.4551
  987MOL0     H36197   8.688  11.241  11.094 -0.9697  1.1985 -3.0463
  987MOL0     H36198   8.647  11.001  11.009  0.5286  2.6416 -1.1372
  987MOL0     H36199   8.798  10.956  11.105 -0.8900 -0.6098 -1.1250
  987MOL0     H36200   8.706  11.051  11.311  2.6079  2.6393 -2.3488
  987MOL0     H36201   8.661  10.890  11.250 -4.1589 -0.8010 -1.1178
  987MOL0     H36202   8.288  11.006  11.201 -0.7498  0.8161  0.7061
  987MOL0     H36203   9.113  11.290  11.250  1.3022 -0.5695  1.3742
  987MOL0     H36204   9.419  11.387  11.315  2.6930 -3.5509 -0.9665
  987MOL0     H36205   9.255  11.400  11.359  1.6679  0.9557 -2.2111
  987MOL0     H36206   9.356  11.302  11.457  0.7471  1.3722  0.2731
  988MOL0     O36207   2.107   8.579   8.713 -0.8391  0.1650 -0.2204
  988MOL0     C36208   2.129   8.470   8.665  0.2545  0.8431  0.3808
  988MOL0     O36209   2.234   8.386   8.682  0.5284 -0.5170  0.1776
  988MOL0     C36210   2.338   8.420   8.756 -0.9609 -0.4547 -0.2549
  988MOL0     C36211   2.371   8.545   8.820 -0.4084  0.1573  0.2850
  988MOL0     C36212   2.504   8.554   8.878 -0.3113  0.0185  0.4050
  988MOL0     C36213   2.598   8.444   8.873  1.0737 -0.2382  0.4666
  988MOL0     O36214   2.725   8.453   8.918  0.4154  0.0646 -0.2461
  988MOL0     C36215   2.807   8.344   8.942 -0.0749 -0.1401  0.0623
  988MOL0     C36216   2.763   8.247   9.057  0.7417  0.0993 -0.4005
  988MOL0     C36217   2.845   8.120   9.065 -0.0091 -0.3423  0.7646
  988MOL0     C36218   2.953   8.121   9.167 -0.1717  0.7962  0.3618
  988MOL0     C36219   3.003   7.976   9.186  0.3540 -0.2910 -0.3291
  988MOL0     C36220   3.133   7.982   9.271  0.1276 -0.4906  0.1824
  988MOL0     C36221   3.179   7.844   9.313 -1.0461  0.2547  0.1670
  988MOL0     C36222   3.234   7.755   9.197  0.4651 -0.5229  0.5894
  988MOL0     N36223   3.253   7.616   9.236 -0.0242  1.0905 -0.0819
  988MOL0     C36224   3.346   7.577   9.327 -0.1490 -0.1355 -0.8470
  988MOL0     C36225   3.317   7.445   9.339 -0.9202 -0.6890 -0.6509
  988MOL0     C36226   3.388   7.335   9.420 -0.0589  0.0912  0.2851
  988MOL0     C36227   3.473   7.396   9.539  0.3168  1.1076  0.0650
  988MOL0     C36228   3.552   7.272   9.592 -0.1172  0.1483  0.0655
  988MOL0     C36229   3.640   7.313   9.708 -0.3581  0.3669  0.2208
  988MOL0     O36230   3.729   7.210   9.751  0.0521 -0.0724 -0.2492
  988MOL0     C36231   3.860   7.201   9.715  0.6273  0.0293 -0.1071
  988MOL0     C36232   3.940   7.314   9.712  0.1342 -0.2832 -0.4522
  988MOL0     C36233   4.078   7.299   9.678  0.2969  0.1262 -0.2222
  988MOL0     C36234   4.158   7.419   9.658  0.6809  0.4886  0.0884
  988MOL0     C36235   4.132   7.167   9.687 -0.3173 -0.1944 -0.2255
  988MOL0     C36236   4.280   7.132   9.679 -0.0790 -0.3273  0.5842
  988MOL0     O36237   4.308   7.007   9.627 -0.2537 -0.2309  0.1019
  988MOL0     C36238   4.436   6.971   9.610 -0.3416 -0.3567  1.1388
  988MOL0     C36239   4.502   6.884   9.694 -0.1413  0.1622  0.3893
  988MOL0     C36240   4.633   6.852   9.656  0.5777 -0.2254 -0.2485
  988MOL0     C36241   4.690   6.912   9.545  1.0316  0.5319 -0.2610
  988MOL0     O36242   4.818   6.881   9.515  0.4459  0.5922 -0.1782
  988MOL0     C36243   4.868   6.756   9.548  0.0065 -0.1824  0.3243
  988MOL0     C36244   4.990   6.710   9.468  0.5263  0.3817  0.2078
  988MOL0     C36245   5.036   6.576   9.526  0.1026 -0.5144  0.9228
  988MOL0     C36246   5.127   6.503   9.424  0.1204 -0.2073 -0.1508
  988MOL0     C36247   5.082   6.449   9.287  0.4143 -0.1357 -0.5680
  988MOL0     C36248   4.972   6.339   9.302 -0.0849  0.1143 -0.2700
  988MOL0     C36249   4.902   6.309   9.165 -0.0330  0.1271 -0.6357
  988MOL0     C36250   4.771   6.237   9.196  0.0600 -0.3956  0.3071
  988MOL0    Cl36251   4.812   6.060   9.191 -0.3159  0.1458  0.2966
  988MOL0     C36252   4.628   6.997   9.459  0.4612  0.4451 -0.0688
  988MOL0     C36253   4.496   7.038   9.498  0.6636 -0.3124 -0.1554
  988MOL0     O36254   4.366   7.213   9.717  0.0561  0.0381 -0.0724
  988MOL0     C36255   4.047   7.054   9.707 -0.2243 -0.6375  0.2744
  988MOL0     C36256   3.913   7.071   9.724  0.8794  0.1008  0.4937
  988MOL0     N36257   3.226   7.411   9.248 -0.1396 -0.5681  0.3887
  988MOL0     N36258   3.178   7.515   9.195 -0.2391 -0.5892  0.8526
  988MOL0     C36259   2.555   8.325   8.817 -0.0507  0.0967  0.0081
  988MOL0     C36260   2.433   8.316   8.757 -0.0771 -0.6015 -0.0959
  988MOL0     C36261   2.020   8.420   8.570 -0.6651  0.4033  0.2160
  988MOL0     C36262   2.026   8.280   8.526 -0.5053 -0.0982 -0.1597
  988MOL0     C36263   1.934   8.229   8.434  0.1350 -0.5217 -0.0225
  988MOL0     C36264   1.835   8.313   8.383 -0.8024 -0.1202 -0.6290
  988MOL0     O36265   1.726   8.271   8.310 -0.4815 -0.1269 -0.0389
  988MOL0     C36266   1.711   8.129   8.282 -0.1054 -0.0548  0.4147
  988MOL0     C36267   1.577   8.099   8.221  0.4831 -0.6159  1.0204
  988MOL0     C36268   1.539   8.164   8.085 -0.0909  0.3713 -0.2028
  988MOL0     C36269   1.628   8.127   7.960  0.8214  0.1648 -0.1977
  988MOL0     C36270   1.578   8.009   7.889  0.1985  0.2059 -0.3057
  988MOL0     C36271   1.519   7.921   7.833 -0.3917  0.3632 -0.0533
  988MOL0     C36272   1.834   8.454   8.419 -0.0687 -0.5970 -0.3293
  988MOL0     C36273   1.927   8.515   8.510  0.2016  1.0684 -0.2854
  988MOL0     C36274   1.916   8.662   8.535  0.1732  0.0019  0.9091
  988MOL0     H36275   2.293   8.619   8.838 -0.8878 -0.7873  2.2939
  988MOL0     H36276   2.538   8.649   8.918 -0.3605  0.7869 -1.2861
  988MOL0     H36277   2.910   8.379   8.956 -0.0650 -0.5383  1.0934
  988MOL0     H36278   2.820   8.282   8.853  0.5357  1.2795 -0.8789
  988MOL0     H36279   2.770   8.295   9.155 -1.5048 -3.6370  1.8397
  988MOL0     H36280   2.661   8.216   9.031  1.0194 -1.1683 -0.0352
  988MOL0     H36281   2.780   8.038   9.098 -2.3358  1.2686  0.4112
  988MOL0     H36282   2.888   8.103   8.965 -2.7908 -0.0751 -0.5719
  988MOL0     H36283   3.029   8.192   9.132 -0.1695  0.7424  0.2550
  988MOL0     H36284   2.926   8.168   9.261 -1.4983  0.4347  0.1756
  988MOL0     H36285   3.027   7.919   9.096  2.4967 -0.1165  0.0831
  988MOL0     H36286   2.925   7.916   9.235 -0.8074  2.2159  1.0948
  988MOL0     H36287   3.214   8.041   9.228  1.0107 -1.0881  0.9856
  988MOL0     H36288   3.106   8.038   9.362 -0.1194  0.1212 -0.2593
  988MOL0     H36289   3.088   7.798   9.353 -1.2202 -0.5559 -1.1253
  988MOL0     H36290   3.260   7.862   9.385 -0.2684  1.0027 -0.8795
  988MOL0     H36291   3.160   7.751   9.116  0.2019  1.0124  0.7359
  988MOL0     H36292   3.330   7.793   9.160 -0.3570 -0.3342 -1.4908
  988MOL0     H36293   3.422   7.637   9.375  0.2250  0.5422 -2.2266
  988MOL0     H36294   3.457   7.275   9.360  0.8947  1.5285 -0.1166
  988MOL0     H36295   3.309   7.267   9.451 -3.1126  2.8969 -0.7166
  988MOL0     H36296   3.550   7.456   9.489  0.5853  0.0296 -0.8673
  988MOL0     H36297   3.426   7.450   9.622 -1.3219 -0.7168  0.3953
  988MOL0     H36298   3.488   7.190   9.624  1.1482 -0.6924  0.4876
  988MOL0     H36299   3.628   7.242   9.519  1.5377 -1.9249  2.5042
  988MOL0     H36300   3.689   7.405   9.679 -0.2134 -0.4354 -2.2504
  988MOL0     H36301   3.571   7.336   9.791 -1.5721 -0.6821 -0.4492
  988MOL0     H36302   3.901   7.416   9.716  3.1428  1.0234 -1.3609
  988MOL0     H36303   4.091   7.504   9.673 -0.7587 -0.7079  0.5700
  988MOL0     H36304   4.196   7.422   9.555  1.4528 -1.6727  0.2616
  988MOL0     H36305   4.240   7.420   9.730  1.4500 -0.2242 -0.7513
  988MOL0     H36306   4.452   6.827   9.772 -0.5004 -0.8006 -0.5249
  988MOL0     H36307   4.693   6.781   9.713  3.4891  1.8025 -0.5487
  988MOL0     H36308   4.893   6.753   9.654 -0.1941 -1.2161  0.3523
  988MOL0     H36309   4.796   6.674   9.538 -0.0912  0.0303 -0.8751
  988MOL0     H36310   4.968   6.696   9.361 -0.0658 -0.9177  0.4804
  988MOL0     H36311   5.066   6.788   9.475  1.8527 -1.0261  4.7794
  988MOL0     H36312   4.954   6.507   9.552 -1.5587  1.0516  0.0163
  988MOL0     H36313   5.097   6.594   9.614  0.9758 -2.3646  0.7516
  988MOL0     H36314   5.169   6.415   9.474  3.0640  0.4718 -1.2480
  988MOL0     H36315   5.220   6.555   9.399  1.4798 -2.1881  0.5496
  988MOL0     H36316   5.031   6.536   9.243  2.2818  0.3340 -1.8920
  988MOL0     H36317   5.165   6.416   9.225  0.6960  0.3419 -0.4505
  988MOL0     H36318   4.894   6.372   9.371  0.5201  0.9949  0.0215
  988MOL0     H36319   5.023   6.250   9.341 -0.1060 -0.1583 -0.8563
  988MOL0     H36320   4.959   6.252   9.091 -0.5704 -0.3639 -0.6840
  988MOL0     H36321   4.894   6.412   9.130  1.0446  0.7093  0.7793
  988MOL0     H36322   4.697   6.263   9.120 -1.2789 -0.1208  1.6639
  988MOL0     H36323   4.727   6.266   9.292 -1.3515 -1.1562 -0.0971
  988MOL0     H36324   4.683   7.025   9.370  0.3508 -1.7394 -0.8986
  988MOL0     H36325   4.443   7.116   9.443  1.8143  2.0214  1.8567
  988MOL0     H36326   4.094   6.957   9.713  0.1465 -0.4943 -0.2212
  988MOL0     H36327   3.851   6.983   9.736 -1.2241  1.2491 -1.1392
  988MOL0     H36328   2.613   8.234   8.817  0.3593  0.3509  0.4229
  988MOL0     H36329   2.415   8.219   8.712  1.4740 -0.2488 -1.6134
  988MOL0     H36330   2.109   8.220   8.561 -0.7819 -0.1081  0.5047
  988MOL0     H36331   1.938   8.121   8.423 -1.8494 -1.0006  2.6772
  988MOL0     H36332   1.796   8.098   8.220  1.1813  0.2279  1.9652
  988MOL0     H36333   1.711   8.073   8.376 -2.1394 -2.0483 -0.6861
  988MOL0     H36334   1.512   8.139   8.300  1.3873  0.4207  1.2636
  988MOL0     H36335   1.554   7.994   8.200  1.1550 -0.2611 -1.9072
  988MOL0     H36336   1.436   8.136   8.064 -0.3723  0.2303  1.2524
  988MOL0     H36337   1.542   8.273   8.101 -2.0772  0.9902 -3.2339
  988MOL0     H36338   1.735   8.131   7.980  0.9720 -1.8237 -0.3745
  988MOL0     H36339   1.617   8.200   7.879 -3.5471  0.4322  0.3721
  988MOL0     H36340   1.464   7.852   7.773 -0.8745  0.2405  0.5299
  988MOL0     H36341   1.762   8.513   8.362 -0.8505  1.8943  2.9121
  988MOL0     H36342   1.842   8.709   8.470  3.6451  2.9130 -1.3761
  988MOL0     H36343   1.894   8.679   8.640  0.1328  3.8658  0.4357
  988MOL0     H36344   2.006   8.715   8.499 -0.2482 -0.8156 -1.5705
  989MOL0     O36345  11.197   6.504   2.711  0.3504 -0.0199 -0.4471
  989MOL0     C36346  11.172   6.618   2.745  0.1345  0.6276  0.2259
  989MOL0     O36347  11.256   6.706   2.798 -0.2719 -0.1513 -1.0213
  989MOL0     C36348  11.392   6.687   2.814 -0.5145  0.0126  1.0378
  989MOL0     C36349  11.466   6.572   2.785 -0.1819  0.1448 -0.6042
  989MOL0     C36350  11.595   6.568   2.837 -1.2823 -0.7885 -0.0624
  989MOL0     C36351  11.645   6.672   2.915  0.5275  0.3894  0.3032
  989MOL0     O36352  11.772   6.665   2.982  0.4555  0.1703 -0.2054
  989MOL0     C36353  11.879   6.604   2.915 -0.0873  0.1474 -0.7795
  989MOL0     C36354  12.011   6.653   2.978 -0.1856 -0.6554 -0.6850
  989MOL0     C36355  12.130   6.595   2.900  0.0439  0.0711 -0.2742
  989MOL0     C36356  12.283   6.626   2.954 -0.2471 -0.2638 -0.6284
  989MOL0     C36357  12.400   6.570   2.875 -0.3467 -0.1016  0.6152
  989MOL0     C36358  12.415   6.425   2.916 -1.0224 -0.0194 -0.4000
  989MOL0     C36359  12.510   6.368   2.811  0.0961  0.2594 -0.2762
  989MOL0     C36360  12.528   6.217   2.849  0.2599  0.6663 -0.1115
  989MOL0     N36361  12.667   6.170   2.817  0.1884  0.5879 -0.2535
  989MOL0     C36362  12.745   6.187   2.700  0.0978 -0.2455 -0.5617
  989MOL0     C36363  12.856   6.110   2.721 -0.4588 -0.7338 -0.5484
  989MOL0     C36364  12.979   6.104   2.632  0.0968 -0.1061  0.0968
  989MOL0     C36365  12.990   5.963   2.560  0.3647  0.1543  0.3137
  989MOL0     C36366  12.867   5.922   2.476 -0.3123 -0.0408  0.1893
  989MOL0     C36367  12.880   5.785   2.402 -0.3822  0.2731 -0.0863
  989MOL0     O36368  12.887   5.688   2.512 -1.0346 -0.5908  0.8872
  989MOL0     C36369  12.904   5.562   2.472  0.1780 -0.5102 -0.2451
  989MOL0     C36370  12.877   5.503   2.349  0.2575  0.5469 -0.8491
  989MOL0     C36371  12.899   5.371   2.323  0.1241 -0.9143 -0.0433
  989MOL0     C36372  12.859   5.329   2.184  0.0467 -0.5150 -0.1105
  989MOL0     C36373  12.962   5.284   2.416  0.6366  0.6166 -0.5174
  989MOL0     C36374  12.992   5.131   2.393 -0.2597 -0.3868 -0.5216
  989MOL0     O36375  12.958   5.077   2.275 -0.6707 -0.3061  0.2270
  989MOL0     C36376  12.996   4.947   2.259 -0.2888 -0.1951 -0.3732
  989MOL0     C36377  13.130   4.916   2.262 -0.3829 -0.8406 -0.0580
  989MOL0     C36378  13.176   4.785   2.253  0.3409  0.2885  0.5528
  989MOL0     C36379  13.075   4.685   2.232 -1.2385 -0.1405 -0.0105
  989MOL0     O36380  13.125   4.558   2.227  0.3031 -0.7121 -0.5139
  989MOL0     C36381  13.043   4.462   2.164 -0.0344 -0.9931 -0.4508
  989MOL0     C36382  13.135   4.358   2.104  0.6754 -0.4458 -0.3938
  989MOL0     C36383  13.194   4.276   2.209  0.1224  0.7981  0.2999
  989MOL0     C36384  13.265   4.155   2.164  0.7487 -0.1134 -0.1771
  989MOL0     C36385  13.314   4.066   2.274 -0.8665  0.0461 -0.2121
  989MOL0     C36386  13.207   3.988   2.356  0.1347 -0.4964 -0.0011
  989MOL0     C36387  13.274   3.892   2.452  0.1437  0.3585  0.5289
  989MOL0     C36388  13.169   3.801   2.531  0.3993  0.2950 -0.0184
  989MOL0    Cl36389  13.076   3.710   2.407 -0.0752  0.1211  0.1834
  989MOL0     C36390  12.939   4.717   2.230 -0.2946  0.5537 -0.8521
  989MOL0     C36391  12.898   4.856   2.236  0.3739 -0.6394 -0.3179
  989MOL0     O36392  13.033   5.069   2.492 -0.1354  0.4762 -0.3086
  989MOL0     C36393  12.986   5.343   2.543 -0.0003  0.0124 -0.0621
  989MOL0     C36394  12.971   5.480   2.570  0.4572 -1.0543  0.3795
  989MOL0     N36395  12.846   6.045   2.839  0.3541 -0.4103  0.7596
  989MOL0     N36396  12.739   6.086   2.894 -0.5350  0.4963 -0.1193
  989MOL0     C36397  11.563   6.777   2.955 -0.7897 -0.5708  0.2119
  989MOL0     C36398  11.443   6.784   2.902  0.1852  0.1768 -0.2598
  989MOL0     C36399  11.032   6.667   2.742 -1.0050  0.6273  0.2290
  989MOL0     C36400  11.002   6.808   2.766 -0.0771  0.4389  1.0459
  989MOL0     C36401  10.878   6.863   2.749  0.2622  0.1527  1.0290
  989MOL0     C36402  10.774   6.779   2.702 -0.1977  0.3279  0.9420
  989MOL0     O36403  10.645   6.818   2.688 -0.3044  0.0626 -0.2778
  989MOL0     C36404  10.605   6.954   2.736 -0.1473 -0.4621  0.1598
  989MOL0     C36405  10.455   6.969   2.717 -0.9230  0.5214  0.1551
  989MOL0     C36406  10.415   7.104   2.777  0.1541  0.2006 -0.3584
  989MOL0     C36407  10.269   7.130   2.775  0.9051  0.1208  0.3171
  989MOL0     C36408  10.192   7.047   2.872 -0.2526 -0.1938 -0.1242
  989MOL0     C36409  10.125   6.984   2.951  0.5136 -0.4388 -0.5875
  989MOL0     C36410  10.795   6.639   2.668 -0.4659 -0.4934 -0.7450
  989MOL0     C36411  10.920   6.578   2.694  1.1335 -0.0418 -0.6702
  989MOL0     C36412  10.907   6.423   2.687  0.6750 -0.2233 -0.4204
  989MOL0     H36413  11.422   6.487   2.733 -0.3931 -1.5114  2.1083
  989MOL0     H36414  11.656   6.488   2.797 -1.9079 -0.6272 -1.4066
  989MOL0     H36415  11.874   6.619   2.806 -0.5327 -0.4397 -0.8436
  989MOL0     H36416  11.880   6.496   2.933 -1.6331  0.0885 -0.9031
  989MOL0     H36417  12.019   6.762   2.978 -0.4430 -0.6200  1.0750
  989MOL0     H36418  12.020   6.628   3.084 -2.0145  1.0212 -0.0749
  989MOL0     H36419  12.116   6.487   2.909  2.8007 -0.2628  0.8413
  989MOL0     H36420  12.112   6.635   2.800 -5.9902  0.2120  0.4793
  989MOL0     H36421  12.300   6.734   2.955  0.0502 -0.2289 -3.2959
  989MOL0     H36422  12.299   6.594   3.057  1.2167  2.1732 -0.0221
  989MOL0     H36423  12.488   6.631   2.900 -0.4665 -0.0060  0.8035
  989MOL0     H36424  12.392   6.581   2.766 -0.1652 -1.6385  0.4279
  989MOL0     H36425  12.468   6.417   3.011  0.6355 -0.1664 -1.3016
  989MOL0     H36426  12.320   6.371   2.925 -2.0468  2.0161  1.8324
  989MOL0     H36427  12.600   6.429   2.821 -0.3084  0.6114  1.5493
  989MOL0     H36428  12.472   6.382   2.710 -1.6110 -0.7396  0.1794
  989MOL0     H36429  12.511   6.205   2.957  0.6100  1.0159 -0.0152
  989MOL0     H36430  12.450   6.158   2.800  0.0006 -0.3097  1.4021
  989MOL0     H36431  12.722   6.250   2.615 -1.4407 -0.7821 -0.5827
  989MOL0     H36432  13.065   6.111   2.700 -1.1554 -2.7741  2.1560
  989MOL0     H36433  12.989   6.186   2.560  1.0706  0.4090  0.8007
  989MOL0     H36434  13.062   5.967   2.478  0.8719 -1.2647  0.6561
  989MOL0     H36435  13.012   5.890   2.639 -0.9366  0.7653  1.2809
  989MOL0     H36436  12.782   5.904   2.542 -0.6417  3.1601  0.7992
  989MOL0     H36437  12.830   5.995   2.404 -2.6494 -1.3684 -0.0647
  989MOL0     H36438  12.791   5.763   2.342 -0.4009 -0.1985  0.1049
  989MOL0     H36439  12.968   5.792   2.338 -1.2648  0.5975 -1.2914
  989MOL0     H36440  12.815   5.565   2.285 -0.8683  0.8615  0.5060
  989MOL0     H36441  12.820   5.408   2.120  2.3400  1.9122  1.3113
  989MOL0     H36442  12.793   5.241   2.191 -1.2350  0.4333  0.2032
  989MOL0     H36443  12.946   5.294   2.128  1.2058 -2.0482  2.4613
  989MOL0     H36444  13.204   4.987   2.296  0.1352 -1.8074  0.9114
  989MOL0     H36445  13.280   4.766   2.276  0.6895  1.9621  0.4726
  989MOL0     H36446  12.967   4.428   2.234 -1.0477  1.5378 -0.2162
  989MOL0     H36447  12.991   4.509   2.080 -1.7854  0.0210  1.1271
  989MOL0     H36448  13.068   4.297   2.043  1.0076 -0.2516 -0.9603
  989MOL0     H36449  13.215   4.406   2.046  1.5229  0.7259  1.6345
  989MOL0     H36450  13.118   4.250   2.283 -0.8613  2.3446 -0.1412
  989MOL0     H36451  13.258   4.341   2.270 -0.7930  0.8799  1.1952
  989MOL0     H36452  13.357   4.181   2.110  1.9631 -2.2939  0.7039
  989MOL0     H36453  13.193   4.107   2.097  1.1219  1.0954 -1.4952
  989MOL0     H36454  13.384   3.996   2.229  1.4649 -0.2634  3.4825
  989MOL0     H36455  13.374   4.125   2.343  0.1852 -1.8994  0.6017
  989MOL0     H36456  13.135   3.939   2.289  1.4880 -2.3772 -0.1557
  989MOL0     H36457  13.149   4.061   2.413 -0.3150 -0.9391  0.1138
  989MOL0     H36458  13.332   3.955   2.520  1.5347  0.4116 -0.6648
  989MOL0     H36459  13.338   3.820   2.401 -2.0280 -0.2819 -1.5104
  989MOL0     H36460  13.091   3.863   2.577 -1.6454  0.9914 -3.9665
  989MOL0     H36461  13.228   3.744   2.603 -0.6463 -1.8239 -0.7221
  989MOL0     H36462  12.872   4.632   2.234  2.9962 -2.2202  1.8812
  989MOL0     H36463  12.794   4.886   2.236  0.3571 -0.6399  1.0805
  989MOL0     H36464  13.030   5.282   2.621 -0.4606 -1.3992 -0.8660
  989MOL0     H36465  12.992   5.528   2.665  1.6678  2.4917 -1.5063
  989MOL0     H36466  11.599   6.857   3.018 -1.1522  1.0890 -1.5683
  989MOL0     H36467  11.379   6.862   2.941  1.6837  1.8001 -0.8981
  989MOL0     H36468  11.079   6.878   2.795  1.2434  0.2227 -1.6600
  989MOL0     H36469  10.861   6.970   2.743  0.1887  0.0867 -3.4453
  989MOL0     H36470  10.625   6.974   2.842 -1.1646  0.5028  0.1929
  989MOL0     H36471  10.662   7.026   2.676  0.2788 -1.2914 -0.4421
  989MOL0     H36472  10.412   6.885   2.773  3.0267 -0.6873  1.7312
  989MOL0     H36473  10.438   6.972   2.609  2.4377 -0.5884 -0.5321
  989MOL0     H36474  10.444   7.091   2.882  3.3663 -2.2901 -1.3837
  989MOL0     H36475  10.467   7.189   2.732 -0.5999  1.0070  0.2601
  989MOL0     H36476  10.242   7.131   2.669 -0.9092  1.5098  0.7439
  989MOL0     H36477  10.260   7.236   2.797 -0.0328  0.0553  0.2656
  989MOL0     H36478  10.067   6.926   3.020 -0.1618 -1.5825 -2.0711
  989MOL0     H36479  10.707   6.585   2.636 -0.5295 -0.2826 -0.9247
  989MOL0     H36480  10.916   6.371   2.591 -1.8470 -1.4585 -0.0766
  989MOL0     H36481  10.989   6.391   2.752  0.1667  1.1151  0.9466
  989MOL0     H36482  10.806   6.395   2.720  0.5202  0.4710 -0.2836
  990MOL0     O36483  10.163   1.548   3.433 -0.0696  0.0018 -0.7432
  990MOL0     C36484  10.114   1.474   3.347  0.1912  0.4379  0.2018
  990MOL0     O36485  10.182   1.373   3.281  0.6552  0.2033 -0.2347
  990MOL0     C36486  10.312   1.366   3.308 -0.7220 -0.5542 -0.7196
  990MOL0     C36487  10.373   1.311   3.425  0.3650 -0.0077  0.2485
  990MOL0     C36488  10.511   1.330   3.461 -0.4938  0.2653 -0.3721
  990MOL0     C36489  10.596   1.395   3.363  0.6111 -0.3244 -0.5326
  990MOL0     O36490  10.728   1.406   3.403  0.2128  0.0880 -0.1471
  990MOL0     C36491  10.811   1.509   3.348  0.2719  0.4038  0.6451
  990MOL0     C36492  10.950   1.469   3.411  0.2623 -0.3875 -0.1983
  990MOL0     C36493  10.979   1.328   3.353 -1.4254  0.3561 -0.0361
  990MOL0     C36494  11.120   1.286   3.388 -1.0115 -0.0583  0.6005
  990MOL0     C36495  11.226   1.385   3.346 -0.4758  0.7168 -0.2444
  990MOL0     C36496  11.369   1.320   3.355 -0.1288 -1.2198 -0.4205
  990MOL0     C36497  11.484   1.421   3.326  0.9205 -0.2300 -0.8092
  990MOL0     C36498  11.617   1.362   3.298 -0.1919  0.1009 -0.4116
  990MOL0     N36499  11.697   1.334   3.413 -0.1656 -0.1075 -0.5801
  990MOL0     C36500  11.742   1.210   3.457  0.5185 -0.4785  0.2893
  990MOL0     C36501  11.804   1.230   3.573  0.6841 -0.4741  0.6174
  990MOL0     C36502  11.843   1.113   3.661 -0.8568 -0.1770 -1.1112
  990MOL0     C36503  11.927   1.014   3.583  0.4388 -0.0551  0.2429
  990MOL0     C36504  12.060   1.070   3.519 -0.3458 -0.6899  0.6818
  990MOL0     C36505  12.137   1.154   3.614  0.4343 -0.5479 -0.3736
  990MOL0     O36506  12.181   1.069   3.727  0.8341 -0.5178 -0.0272
  990MOL0     C36507  12.290   1.101   3.795 -0.1850  0.1406  0.4798
  990MOL0     C36508  12.361   1.005   3.868  0.1616 -0.5451  0.1005
  990MOL0     C36509  12.485   1.030   3.930  1.0038  0.4160 -0.3431
  990MOL0     C36510  12.548   0.917   4.013 -0.3573 -0.8668  0.1000
  990MOL0     C36511  12.552   1.153   3.915 -0.2102 -0.2537  0.5565
  990MOL0     C36512  12.690   1.180   3.956 -0.1199 -0.0370  0.1791
  990MOL0     O36513  12.729   1.309   3.946  0.1127  0.1994  0.1450
  990MOL0     C36514  12.847   1.339   4.011 -0.6675  1.0887  0.6826
  990MOL0     C36515  12.972   1.339   3.950  0.6983  0.0454 -0.3433
  990MOL0     C36516  13.092   1.363   4.018 -0.7325  0.2721  0.5332
  990MOL0     C36517  13.087   1.405   4.148  0.3806  0.8051 -0.3786
  990MOL0     O36518  13.214   1.423   4.207  0.6011  0.4995  0.4478
  990MOL0     C36519  13.218   1.484   4.335 -0.1114  0.0423  1.0509
  990MOL0     C36520  13.356   1.524   4.377  0.6407  0.4729 -1.1994
  990MOL0     C36521  13.474   1.429   4.363  0.0872 -0.5693 -0.1415
  990MOL0     C36522  13.599   1.501   4.408  0.5571 -0.6557 -0.2670
  990MOL0     C36523  13.719   1.410   4.426  0.5482  0.2799  0.0711
  990MOL0     C36524  13.850   1.469   4.500  0.5971 -0.8190  0.4791
  990MOL0     C36525  13.900   1.598   4.435  0.0831 -0.1194  0.3985
  990MOL0     C36526  13.942   1.574   4.283  1.2342 -0.3488 -0.5153
  990MOL0    Cl36527  14.011   1.724   4.221 -0.0023  0.0081 -0.1062
  990MOL0     C36528  12.958   1.408   4.208  0.0196 -0.0932 -0.4648
  990MOL0     C36529  12.846   1.367   4.140  0.1999 -0.2600 -0.8600
  990MOL0     O36530  12.760   1.086   4.003 -0.1338 -0.9138 -0.7683
  990MOL0     C36531  12.486   1.254   3.845 -0.6071  0.7349  0.2556
  990MOL0     C36532  12.355   1.221   3.797 -0.2824 -0.4447 -0.3136
  990MOL0     N36533  11.818   1.369   3.593  0.3277  0.6385  0.0520
  990MOL0     N36534  11.754   1.427   3.500 -0.0700 -0.0726  0.0090
  990MOL0     C36535  10.534   1.446   3.252  0.5425 -0.5202  0.4977
  990MOL0     C36536  10.396   1.438   3.225 -0.0277 -0.1969  0.6442
  990MOL0     C36537   9.970   1.489   3.310 -0.2460 -0.3572 -0.5704
  990MOL0     C36538   9.926   1.417   3.195 -0.1039 -0.0339 -0.4672
  990MOL0     C36539   9.800   1.432   3.138  0.4296  0.4873 -1.1945
  990MOL0     C36540   9.706   1.528   3.196 -0.0568 -0.0822  0.4765
  990MOL0     O36541   9.578   1.551   3.151 -0.1853 -0.4238 -0.1616
  990MOL0     C36542   9.554   1.517   3.012 -0.0153 -0.3894 -0.3594
  990MOL0     C36543   9.419   1.576   2.966  0.0592  0.1901 -1.0274
  990MOL0     C36544   9.430   1.723   2.998  0.1233  0.3531  0.3596
  990MOL0     C36545   9.340   1.803   2.903  0.5423 -0.2879  0.3083
  990MOL0     C36546   9.197   1.766   2.918  0.1637 -0.0516 -0.5340
  990MOL0     C36547   9.081   1.733   2.943  0.5460 -0.3031  0.8480
  990MOL0     C36548   9.749   1.596   3.307 -0.0127 -0.9050 -0.2688
  990MOL0     C36549   9.881   1.584   3.364 -0.2340 -0.3488  0.7051
  990MOL0     C36550   9.898   1.650   3.504  0.3779 -0.2859  0.0342
  990MOL0     H36551  10.306   1.255   3.490 -2.6963  2.4218 -0.5967
  990MOL0     H36552  10.547   1.287   3.554 -0.2452  2.6678  0.6988
  990MOL0     H36553  10.782   1.609   3.383  1.8336  0.8650  0.7084
  990MOL0     H36554  10.812   1.517   3.239  0.4204  0.6493  0.6624
  990MOL0     H36555  11.018   1.554   3.400 -0.3021  0.0495 -0.3988
  990MOL0     H36556  10.950   1.448   3.519  1.4633 -1.3798 -0.3835
  990MOL0     H36557  10.906   1.258   3.396 -0.3087 -1.6887 -1.2978
  990MOL0     H36558  10.963   1.341   3.245 -3.1243 -2.1930 -0.1907
  990MOL0     H36559  11.136   1.273   3.496  2.0837 -0.2966  0.1889
  990MOL0     H36560  11.139   1.188   3.342  0.4909  0.9513 -1.0495
  990MOL0     H36561  11.229   1.472   3.412 -0.9683  0.4934  0.0723
  990MOL0     H36562  11.209   1.415   3.242  2.2699  1.9386 -0.4308
  990MOL0     H36563  11.393   1.281   3.455  1.3325 -0.7686 -0.5759
  990MOL0     H36564  11.384   1.241   3.281  1.6681 -1.4348  0.1293
  990MOL0     H36565  11.492   1.483   3.416 -1.7011  1.5371 -1.6597
  990MOL0     H36566  11.451   1.465   3.232  2.8614  1.2340 -0.8470
  990MOL0     H36567  11.596   1.268   3.247 -2.0364 -0.3121  0.9872
  990MOL0     H36568  11.672   1.431   3.234  0.5859  0.9567  1.1220
  990MOL0     H36569  11.713   1.113   3.417 -4.2067  0.7475  0.0497
  990MOL0     H36570  11.756   1.060   3.701 -0.4858  1.7487  2.7056
  990MOL0     H36571  11.893   1.145   3.753  0.9296 -4.8926 -0.1627
  990MOL0     H36572  11.953   0.932   3.651  2.4584  1.2867  1.1743
  990MOL0     H36573  11.872   0.964   3.502  0.9305 -0.6218  0.2457
  990MOL0     H36574  12.112   0.984   3.478 -1.4526 -1.4247  0.7874
  990MOL0     H36575  12.029   1.134   3.436  0.8308  1.7284  1.9936
  990MOL0     H36576  12.226   1.184   3.557 -0.5229  3.3702 -0.0647
  990MOL0     H36577  12.091   1.249   3.641 -1.0933 -1.3074 -0.1919
  990MOL0     H36578  12.316   0.908   3.887  0.0194 -0.7406 -1.1344
  990MOL0     H36579  12.634   0.877   3.959  0.4157  0.5853  0.2219
  990MOL0     H36580  12.484   0.829   4.025 -0.3795 -1.2603 -2.3408
  990MOL0     H36581  12.585   0.954   4.109  0.3887  0.5920 -0.7304
  990MOL0     H36582  12.969   1.316   3.844 -0.9449 -0.7478 -0.1623
  990MOL0     H36583  13.185   1.368   3.963 -1.4290  1.9305 -0.5781
  990MOL0     H36584  13.154   1.573   4.340 -1.6488 -1.0127  0.7744
  990MOL0     H36585  13.178   1.416   4.410  0.9166 -1.0100  0.6666
  990MOL0     H36586  13.384   1.620   4.334 -0.3611  0.8998 -0.9423
  990MOL0     H36587  13.344   1.534   4.486 -0.6824 -4.8342 -0.5618
  990MOL0     H36588  13.474   1.395   4.259  2.2140 -1.8472  0.2283
  990MOL0     H36589  13.455   1.345   4.431 -0.7647 -0.3417 -0.0885
  990MOL0     H36590  13.587   1.539   4.510  0.3052  0.6130 -0.7492
  990MOL0     H36591  13.623   1.580   4.336 -1.1451 -1.1556 -1.4422
  990MOL0     H36592  13.696   1.324   4.489  2.3590  0.2794  0.8004
  990MOL0     H36593  13.754   1.371   4.330  0.4163  4.7788 -2.0581
  990MOL0     H36594  13.928   1.392   4.492  1.6074  0.2429 -0.1823
  990MOL0     H36595  13.834   1.485   4.606 -1.6454 -0.4265  0.1244
  990MOL0     H36596  13.997   1.627   4.476 -0.4905 -0.9511  2.4810
  990MOL0     H36597  13.823   1.673   4.454  0.5933 -0.0453  2.2724
  990MOL0     H36598  13.852   1.550   4.226  0.5074 -0.1816  0.5254
  990MOL0     H36599  14.010   1.489   4.275 -0.4102 -1.6051 -1.9551
  990MOL0     H36600  12.943   1.429   4.314 -0.0194 -0.0461 -0.4789
  990MOL0     H36601  12.755   1.368   4.200 -0.2974 -2.5787 -1.4803
  990MOL0     H36602  12.535   1.349   3.827  1.7898 -0.6225 -1.0160
  990MOL0     H36603  12.297   1.306   3.763  0.8731  0.6609  0.4080
  990MOL0     H36604  10.589   1.489   3.169 -1.0229 -2.8445 -1.9181
  990MOL0     H36605  10.348   1.490   3.142 -0.7147  0.9529  1.7236
  990MOL0     H36606   9.988   1.344   3.144  0.1153  1.2131 -2.0879
  990MOL0     H36607   9.761   1.369   3.059 -2.5929  1.1758 -0.3979
  990MOL0     H36608   9.637   1.555   2.951  1.4289 -2.1127  0.4483
  990MOL0     H36609   9.552   1.410   2.994  1.1581 -0.7110  1.1613
  990MOL0     H36610   9.330   1.533   3.012  0.4165  0.5794  0.0535
  990MOL0     H36611   9.422   1.561   2.858  0.5405  0.9476 -1.1307
  990MOL0     H36612   9.400   1.734   3.103 -0.2179 -2.5639  0.6539
  990MOL0     H36613   9.530   1.765   2.985 -0.4625  1.2535 -1.6448
  990MOL0     H36614   9.368   1.790   2.798 -1.3973 -0.7047 -0.1968
  990MOL0     H36615   9.343   1.910   2.921  0.6832 -0.2285 -0.0521
  990MOL0     H36616   8.980   1.709   2.972 -0.9558  2.7374 -1.3338
  990MOL0     H36617   9.674   1.660   3.352  0.4607 -0.7648  0.3344
  990MOL0     H36618   9.800   1.697   3.517  1.1082  1.7607 -1.4047
  990MOL0     H36619   9.920   1.573   3.579  1.4098 -1.4248 -1.3880
  990MOL0     H36620   9.984   1.717   3.508  1.1629 -1.3193  0.9958
  991MOL0     O36621   8.083   6.181  10.938 -0.0702 -1.1015 -0.3744
  991MOL0     C36622   7.985   6.171  10.865  0.5786 -0.0902 -0.1153
  991MOL0     O36623   7.987   6.169  10.734 -0.0761  0.8648  0.3229
  991MOL0     C36624   8.112   6.156  10.674  0.1238 -0.1534  0.6652
  991MOL0     C36625   8.181   6.267  10.638 -0.0063 -0.3189  0.1435
  991MOL0     C36626   8.300   6.251  10.573  0.1612  0.3918  0.7745
  991MOL0     C36627   8.350   6.118  10.542 -0.2136  0.4618 -1.3367
  991MOL0     O36628   8.475   6.109  10.488  0.4160 -0.3140 -0.0709
  991MOL0     C36629   8.578   6.110  10.588 -0.0677  0.7701 -0.7810
  991MOL0     C36630   8.723   6.096  10.530  0.7905  0.4403 -0.5603
  991MOL0     C36631   8.828   6.141  10.638 -0.1441  0.1798  0.4657
  991MOL0     C36632   8.974   6.115  10.594 -0.5113  1.3037  0.8440
  991MOL0     C36633   9.079   6.160  10.692 -0.9697 -0.5080  0.1340
  991MOL0     C36634   9.209   6.076  10.698 -0.3337  0.0885 -0.5299
  991MOL0     C36635   9.299   6.148  10.806 -0.5936 -0.3004  0.0721
  991MOL0     C36636   9.442   6.092  10.803  0.3207 -0.3227  0.0936
  991MOL0     N36637   9.542   6.181  10.865  0.0714 -0.1088 -0.3780
  991MOL0     C36638   9.582   6.174  11.000  0.0957  0.7436 -0.2097
  991MOL0     C36639   9.671   6.266  11.021  0.2730 -0.1009  0.4759
  991MOL0     C36640   9.743   6.292  11.155  0.2172  0.9804  0.5459
  991MOL0     C36641   9.900   6.304  11.149  0.3857 -0.2915 -0.4292
  991MOL0     C36642   9.946   6.401  11.264 -0.6626 -0.1336  0.0274
  991MOL0     C36643  10.093   6.421  11.283 -1.2074 -0.1651  0.0607
  991MOL0     O36644  10.088   6.493  11.412 -0.3576 -0.0351  0.4265
  991MOL0     C36645  10.195   6.474  11.498 -0.8200 -0.0095 -0.2531
  991MOL0     C36646  10.328   6.472  11.454 -0.3903 -1.2083  0.4163
  991MOL0     C36647  10.430   6.462  11.552 -0.6957  0.3742  0.6886
  991MOL0     C36648  10.576   6.470  11.496  0.4761 -0.2422  0.8607
  991MOL0     C36649  10.392   6.439  11.689  0.1552  0.2068  0.3564
  991MOL0     C36650  10.496   6.414  11.790 -0.6224  1.4317  0.0273
  991MOL0     O36651  10.455   6.429  11.917 -0.2192 -0.3807 -0.4107
  991MOL0     C36652  10.553   6.413  12.013 -0.6462 -0.1102 -0.0958
  991MOL0     C36653  10.541   6.317  12.118  0.0416  0.7301  0.7300
  991MOL0     C36654  10.638   6.311  12.224 -0.1042  0.1789  0.1916
  991MOL0     C36655  10.754   6.392  12.223 -0.3491 -0.4010 -0.5744
  991MOL0     O36656  10.853   6.408  12.319 -0.1118 -0.4104 -0.0309
  991MOL0     C36657  10.816   6.411  12.450 -0.6136  0.2775  0.4839
  991MOL0     C36658  10.947   6.437  12.527  0.0270 -1.0222 -0.1909
  991MOL0     C36659  10.988   6.582  12.545  0.6246 -0.5751  0.5873
  991MOL0     C36660  11.014   6.648  12.403  0.0319 -0.6052  0.2050
  991MOL0     C36661  11.012   6.793  12.416  0.5596 -0.7463  0.1010
  991MOL0     C36662  11.133   6.860  12.498 -0.3433  0.4689  0.1178
  991MOL0     C36663  11.268   6.834  12.425  0.0511  0.6698 -0.0880
  991MOL0     C36664  11.395   6.895  12.504  0.0333  0.5281 -0.2735
  991MOL0    Cl36665  11.432   6.785  12.642 -0.0534  0.2816  0.3925
  991MOL0     C36666  10.765   6.488  12.119  0.2998  0.8233  0.7356
  991MOL0     C36667  10.663   6.493  12.020 -0.1107  0.3058  0.5984
  991MOL0     O36668  10.612   6.373  11.760  0.2185 -0.0898 -0.1847
  991MOL0     C36669  10.259   6.420  11.722 -0.2882 -0.1691  0.5460
  991MOL0     C36670  10.157   6.446  11.630 -0.1173  0.4342  0.0737
  991MOL0     N36671   9.698   6.317  10.890  0.4521  0.7731  0.7991
  991MOL0     N36672   9.616   6.271  10.797 -0.3860 -0.8159 -0.4838
  991MOL0     C36673   8.273   6.008  10.574  0.1064  0.2976  0.4123
  991MOL0     C36674   8.156   6.026  10.644  0.3386  0.3432  0.6549
  991MOL0     C36675   7.850   6.167  10.932 -0.6987 -0.5133 -0.2717
  991MOL0     C36676   7.835   6.096  11.056  0.6314  0.9878  0.6181
  991MOL0     C36677   7.709   6.065  11.118 -0.8001 -0.3423 -0.3272
  991MOL0     C36678   7.591   6.110  11.061  0.5149  0.7150 -0.2694
  991MOL0     O36679   7.470   6.079  11.117  0.6503  0.4073 -0.1899
  991MOL0     C36680   7.360   6.092  11.019  1.0976 -0.0876  0.2024
  991MOL0     C36681   7.242   6.005  11.055 -0.4869 -0.3022  0.1422
  991MOL0     C36682   7.204   6.021  11.201  0.0214  0.0494  0.3241
  991MOL0     C36683   7.077   5.947  11.244 -0.5228  0.1462  0.5589
  991MOL0     C36684   7.079   5.801  11.223  0.2005  0.3544  0.2636
  991MOL0     C36685   7.082   5.685  11.205  0.1063 -0.5597  0.3614
  991MOL0     C36686   7.603   6.186  10.941 -0.2321  0.2735  0.3829
  991MOL0     C36687   7.732   6.210  10.874 -0.0980  0.7595  0.6951
  991MOL0     C36688   7.723   6.297  10.758  0.2547  0.0481  0.0453
  991MOL0     H36689   8.137   6.364  10.660 -1.2428 -1.2511  1.9590
  991MOL0     H36690   8.365   6.328  10.533 -0.6082 -0.3268 -2.0102
  991MOL0     H36691   8.570   6.029  10.661 -0.4365 -0.3744 -2.0490
  991MOL0     H36692   8.585   6.206  10.641  1.3000  0.7064 -0.7997
  991MOL0     H36693   8.744   5.993  10.501  2.7922  0.9533 -1.0559
  991MOL0     H36694   8.730   6.158  10.441 -3.4769  2.6205  0.3623
  991MOL0     H36695   8.805   6.247  10.656  0.4710  0.3258  0.4038
  991MOL0     H36696   8.818   6.088  10.733 -0.9395  1.1328  0.9395
  991MOL0     H36697   8.988   6.007  10.587  0.8392  1.4537  1.0256
  991MOL0     H36698   8.991   6.153  10.492 -1.9688  2.0936  0.8672
  991MOL0     H36699   9.038   6.153  10.793  2.2638 -1.1760  1.5632
  991MOL0     H36700   9.107   6.263  10.669  0.0790 -1.2835 -2.3828
  991MOL0     H36701   9.186   5.973  10.726 -0.6567  0.3867  0.3378
  991MOL0     H36702   9.256   6.069  10.600 -2.4188 -0.4483 -1.5573
  991MOL0     H36703   9.257   6.136  10.906  0.2723  1.9449  0.7668
  991MOL0     H36704   9.306   6.255  10.782 -2.8341  0.4295  2.2705
  991MOL0     H36705   9.432   6.001  10.863 -0.8406 -0.3813 -0.1695
  991MOL0     H36706   9.484   6.062  10.707  1.7169  1.4178  0.1056
  991MOL0     H36707   9.559   6.109  11.084  1.5788  0.9049  0.3512
  991MOL0     H36708   9.727   6.201  11.214  2.4937 -0.0003 -0.2570
  991MOL0     H36709   9.706   6.383  11.205 -1.0901 -0.0659  1.5742
  991MOL0     H36710   9.942   6.207  11.176 -1.0064 -0.5235  1.0492
  991MOL0     H36711   9.945   6.335  11.054  0.3747 -0.8283 -0.6117
  991MOL0     H36712   9.900   6.500  11.267 -1.5884 -0.5574  0.1972
  991MOL0     H36713   9.911   6.346  11.352 -0.2807  3.0078  2.3536
  991MOL0     H36714  10.148   6.326  11.285  1.6677  1.4059  0.5323
  991MOL0     H36715  10.118   6.480  11.195 -0.3552 -2.9742 -1.7352
  991MOL0     H36716  10.357   6.475  11.350 -2.4444 -2.4833 -0.2414
  991MOL0     H36717  10.644   6.517  11.568  0.3797 -0.0834  0.8484
  991MOL0     H36718  10.572   6.535  11.409  0.2326  0.7216  1.5739
  991MOL0     H36719  10.619   6.374  11.464 -0.3625 -0.2013 -0.4621
  991MOL0     H36720  10.451   6.255  12.124  1.1743 -1.3245 -1.7488
  991MOL0     H36721  10.634   6.248  12.312  1.0452  0.1687  0.2606
  991MOL0     H36722  10.746   6.494  12.460 -0.3817  0.2319  2.9855
  991MOL0     H36723  10.782   6.309  12.470  0.3710 -0.4762 -1.4215
  991MOL0     H36724  10.926   6.396  12.626 -1.7333  2.2897  0.9340
  991MOL0     H36725  11.034   6.383  12.487  2.0936  1.5274  0.5293
  991MOL0     H36726  11.081   6.587  12.603  0.7428 -1.9078  0.5576
  991MOL0     H36727  10.911   6.636  12.602 -0.0551 -0.4175 -0.4568
  991MOL0     H36728  10.927   6.626  12.341 -0.6273 -0.1308  0.9402
  991MOL0     H36729  11.101   6.621  12.343  0.7761  4.3627 -1.4695
  991MOL0     H36730  11.012   6.841  12.318 -2.6567 -0.7726 -0.0423
  991MOL0     H36731  10.913   6.805  12.462  0.3226  0.1652 -0.6162
  991MOL0     H36732  11.146   6.807  12.593  3.9257  1.5239  0.2985
  991MOL0     H36733  11.117   6.968  12.504 -1.3857  0.3724 -0.5877
  991MOL0     H36734  11.250   6.881  12.328 -2.8267 -1.8335 -0.9472
  991MOL0     H36735  11.276   6.726  12.405  0.3422  0.3788  1.5159
  991MOL0     H36736  11.379   6.999  12.531 -1.4124  0.9293 -2.3981
  991MOL0     H36737  11.486   6.897  12.443  3.5339  2.0698  4.4611
  991MOL0     H36738  10.840   6.564  12.106 -0.1595  0.8546 -2.5143
  991MOL0     H36739  10.675   6.573  11.947  0.3053 -0.9248 -0.7366
  991MOL0     H36740  10.221   6.386  11.818 -0.9584 -0.3561  0.2163
  991MOL0     H36741  10.050   6.452  11.647  0.0687  0.4411  1.3396
  991MOL0     H36742   8.306   5.907  10.550 -0.7360  0.6676 -2.7039
  991MOL0     H36743   8.102   5.935  10.668 -1.5705  0.7850 -1.6400
  991MOL0     H36744   7.926   6.062  11.104 -1.5466 -1.2744  3.6015
  991MOL0     H36745   7.714   6.011  11.212  1.7201  0.6263  0.1906
  991MOL0     H36746   7.328   6.193  10.991 -1.0753 -0.4319  1.2239
  991MOL0     H36747   7.389   6.048  10.923 -0.3225 -0.2321 -0.1853
  991MOL0     H36748   7.260   5.901  11.028  0.4374  0.6820 -3.6016
  991MOL0     H36749   7.160   6.036  10.989  0.3813 -1.8980 -1.8083
  991MOL0     H36750   7.285   5.983  11.263 -2.1894 -3.4763  1.3443
  991MOL0     H36751   7.179   6.126  11.224 -0.4834 -0.3392  1.7002
  991MOL0     H36752   6.990   5.988  11.193 -0.9057 -0.6377  0.5673
  991MOL0     H36753   7.051   5.976  11.346  1.6780 -0.5640  1.3845
  991MOL0     H36754   7.096   5.579  11.212 -1.8117 -0.9156 -0.6833
  991MOL0     H36755   7.522   6.239  10.891 -2.5227 -1.9879  1.4551
  991MOL0     H36756   7.790   6.258  10.680  1.2518  1.2583  0.2699
  991MOL0     H36757   7.625   6.285  10.712 -0.5368 -0.6663  1.8401
  991MOL0     H36758   7.734   6.404  10.775 -2.4477  0.9497 -2.9211
  992MOL0     O36759  10.637   4.494   2.200  0.7022  0.6748 -0.1046
  992MOL0     C36760  10.601   4.604   2.225 -0.4053  0.0969  0.1576
  992MOL0     O36761  10.689   4.707   2.260  0.3964  0.7321 -0.1474
  992MOL0     C36762  10.821   4.686   2.285 -0.0228  0.6315  0.1555
  992MOL0     C36763  10.912   4.675   2.178 -0.2922  0.0230  0.6857
  992MOL0     C36764  11.050   4.654   2.206  1.0794 -0.8672  0.0706
  992MOL0     C36765  11.094   4.632   2.340  0.0092  0.1553 -0.2795
  992MOL0     O36766  11.218   4.581   2.381 -0.6142 -0.1609  0.1872
  992MOL0     C36767  11.282   4.484   2.304 -0.7321 -0.4509  0.1727
  992MOL0     C36768  11.408   4.413   2.380  0.0552 -0.7749  0.4867
  992MOL0     C36769  11.344   4.332   2.495  0.2683 -0.5007  0.1701
  992MOL0     C36770  11.443   4.306   2.608  0.3146 -0.4452 -0.7717
  992MOL0     C36771  11.564   4.232   2.577  0.0255  0.1836  0.1769
  992MOL0     C36772  11.645   4.216   2.703  1.0197 -0.8333 -0.7967
  992MOL0     C36773  11.779   4.135   2.702 -0.0597 -0.4456  0.0394
  992MOL0     C36774  11.888   4.229   2.650 -0.0949 -0.1198  0.2040
  992MOL0     N36775  12.018   4.157   2.632  0.0788  0.5279 -0.6622
  992MOL0     C36776  12.072   4.085   2.733 -0.3953 -0.5665  0.7792
  992MOL0     C36777  12.198   4.055   2.683  0.0103 -0.3826  0.3123
  992MOL0     C36778  12.323   3.996   2.755 -1.2414  0.2872  0.3522
  992MOL0     C36779  12.369   4.078   2.875  0.7757 -0.6310 -0.2040
  992MOL0     C36780  12.513   4.044   2.932 -0.1383  0.0253  0.0776
  992MOL0     C36781  12.522   3.911   3.005  0.0151  0.3758  0.2227
  992MOL0     O36782  12.454   3.919   3.133 -0.9636 -0.7672  0.6473
  992MOL0     C36783  12.536   3.961   3.236  0.3018 -0.4195  0.9392
  992MOL0     C36784  12.665   4.008   3.224  0.1933 -0.0974 -0.6275
  992MOL0     C36785  12.739   4.058   3.332 -0.5610  0.9364  0.1921
  992MOL0     C36786  12.859   4.141   3.313 -0.2465 -1.2014  0.3798
  992MOL0     C36787  12.678   4.054   3.465 -0.7239  0.4845  0.4864
  992MOL0     C36788  12.732   4.105   3.592  0.3021 -0.0490 -0.3937
  992MOL0     O36789  12.654   4.089   3.711 -0.3292  0.2545 -0.1794
  992MOL0     C36790  12.713   4.111   3.832 -0.5288  0.0958  0.2202
  992MOL0     C36791  12.664   4.219   3.904  0.2736  0.0150  0.1963
  992MOL0     C36792  12.711   4.241   4.035  0.3292 -0.2233 -0.0019
  992MOL0     C36793  12.798   4.155   4.098 -0.0592  0.5081 -0.8199
  992MOL0     O36794  12.839   4.183   4.217  0.0098 -0.1094 -0.2614
  992MOL0     C36795  12.869   4.081   4.314 -0.0865 -0.7536  0.3307
  992MOL0     C36796  12.747   3.986   4.337 -0.6476 -0.3774  0.2603
  992MOL0     C36797  12.639   4.065   4.417  0.6275  0.2240 -0.6433
  992MOL0     C36798  12.658   4.039   4.568 -0.0146 -1.0138 -0.6358
  992MOL0     C36799  12.535   4.090   4.648 -0.3536  0.1688 -0.0962
  992MOL0     C36800  12.550   4.095   4.796  0.0684  0.1328 -0.5763
  992MOL0     C36801  12.414   4.095   4.862  0.2953  0.2655  0.0218
  992MOL0     C36802  12.425   4.093   5.016  0.8302 -0.9419  0.2249
  992MOL0    Cl36803  12.353   3.950   5.089  0.0181 -0.1716  0.2323
  992MOL0     C36804  12.836   4.041   4.024 -0.0528 -0.3892 -0.2894
  992MOL0     C36805  12.784   4.015   3.899 -0.1476  0.8265  0.7139
  992MOL0     O36806  12.843   4.154   3.593  0.3994  0.0358  0.5906
  992MOL0     C36807  12.546   4.000   3.474  0.0759  0.0987  0.7318
  992MOL0     C36808  12.484   3.951   3.359  0.9002 -0.3608 -0.3502
  992MOL0     N36809  12.189   4.086   2.549 -0.8045 -0.0930  1.0477
  992MOL0     N36810  12.080   4.148   2.518 -0.1983  0.0599  0.1347
  992MOL0     C36811  11.000   4.639   2.444 -0.6604  0.3538 -0.1841
  992MOL0     C36812  10.870   4.670   2.413 -0.1782 -0.7593 -0.8395
  992MOL0     C36813  10.455   4.647   2.207  0.5827  0.5422  0.7840
  992MOL0     C36814  10.413   4.785   2.220 -1.2337 -0.6977  0.5017
  992MOL0     C36815  10.288   4.822   2.199  0.8418 -0.3059 -0.1945
  992MOL0     C36816  10.185   4.735   2.163  0.0430 -0.1302 -0.6240
  992MOL0     O36817  10.063   4.782   2.113 -0.1541 -0.1610 -0.0896
  992MOL0     C36818   9.946   4.713   2.168  1.1166  1.0557 -0.4499
  992MOL0     C36819   9.822   4.807   2.186  0.5841 -0.1667  0.1803
  992MOL0     C36820   9.858   4.938   2.260 -0.0841 -0.4066  0.0737
  992MOL0     C36821   9.734   5.029   2.293 -0.5970 -0.7098  0.1312
  992MOL0     C36822   9.670   5.066   2.165  0.0301  0.4523 -0.1269
  992MOL0     C36823   9.620   5.107   2.055 -0.7503  0.4895 -1.0099
  992MOL0     C36824  10.217   4.593   2.159  0.0602 -0.0908  0.0890
  992MOL0     C36825  10.350   4.552   2.165 -0.2317 -0.2700 -0.9302
  992MOL0     C36826  10.363   4.411   2.129 -0.2732  0.4210  0.5765
  992MOL0     H36827  10.878   4.688   2.075 -0.6669 -0.7800  0.7006
  992MOL0     H36828  11.117   4.652   2.121  4.6180  0.1000  2.5535
  992MOL0     H36829  11.319   4.532   2.213 -5.0999  0.9730 -1.1133
  992MOL0     H36830  11.207   4.409   2.274 -0.5387 -0.0037 -1.5066
  992MOL0     H36831  11.459   4.346   2.309  2.0927  0.7793  0.4063
  992MOL0     H36832  11.486   4.482   2.413  1.0234 -1.5955 -0.0350
  992MOL0     H36833  11.263   4.390   2.540 -0.4764  0.0438 -1.7399
  992MOL0     H36834  11.302   4.237   2.459  1.5128 -0.9482 -0.1630
  992MOL0     H36835  11.477   4.397   2.658  0.4602 -2.3054  2.8454
  992MOL0     H36836  11.385   4.262   2.690  2.5239  1.7278  2.1664
  992MOL0     H36837  11.624   4.290   2.507  0.4605 -0.4869 -0.0050
  992MOL0     H36838  11.542   4.131   2.541  0.8564 -0.8356  2.3389
  992MOL0     H36839  11.667   4.314   2.746  0.8518 -1.1039 -0.0861
  992MOL0     H36840  11.584   4.157   2.772  0.7013 -0.9036 -1.1360
  992MOL0     H36841  11.759   4.042   2.646  0.0555 -0.1781 -0.4487
  992MOL0     H36842  11.804   4.095   2.800  0.2112  0.1602  0.2170
  992MOL0     H36843  11.864   4.268   2.550 -0.1702  2.3485  1.1008
  992MOL0     H36844  11.893   4.312   2.721 -2.9343  0.8671 -0.6198
  992MOL0     H36845  12.037   4.069   2.834  0.5506  1.8393  1.5453
  992MOL0     H36846  12.402   3.988   2.679 -0.0289 -0.6631  1.6470
  992MOL0     H36847  12.305   3.893   2.789 -0.2798  0.5260  1.6853
  992MOL0     H36848  12.363   4.180   2.836 -1.0528 -2.0908 -4.4151
  992MOL0     H36849  12.288   4.077   2.948  1.4228  1.3395  0.5864
  992MOL0     H36850  12.581   4.048   2.846  0.3838  1.1177  0.5310
  992MOL0     H36851  12.546   4.126   2.995  0.3302 -1.0774  1.3134
  992MOL0     H36852  12.460   3.844   2.945  0.2548  0.2305  0.1358
  992MOL0     H36853  12.621   3.864   3.007 -0.3822 -0.7242 -2.4859
  992MOL0     H36854  12.711   4.020   3.127  1.9317 -1.2598  0.0073
  992MOL0     H36855  12.942   4.098   3.370 -0.9287 -1.8765  0.8706
  992MOL0     H36856  12.837   4.241   3.351 -2.3946 -1.3192 -0.4257
  992MOL0     H36857  12.880   4.147   3.205 -1.0699 -2.5469  0.1268
  992MOL0     H36858  12.599   4.285   3.849  1.9932  1.4466 -0.2265
  992MOL0     H36859  12.678   4.328   4.091 -1.8558  1.6979 -3.8657
  992MOL0     H36860  12.957   4.025   4.282  0.4950  0.9430 -1.1870
  992MOL0     H36861  12.899   4.129   4.408 -0.4274 -0.0310  0.0786
  992MOL0     H36862  12.702   3.965   4.240  0.2360  0.4516 -0.3560
  992MOL0     H36863  12.778   3.890   4.381  0.8600  0.9105  2.1952
  992MOL0     H36864  12.538   4.033   4.391  0.3623  0.7305 -0.2650
  992MOL0     H36865  12.646   4.173   4.402  0.2956  0.4167  0.4910
  992MOL0     H36866  12.749   4.090   4.601 -0.0739 -0.5002 -1.2381
  992MOL0     H36867  12.671   3.932   4.587 -0.5402 -0.3488  5.0769
  992MOL0     H36868  12.502   4.189   4.615 -1.2703 -0.8310 -2.4139
  992MOL0     H36869  12.447   4.032   4.617  2.0377 -2.4969 -2.5676
  992MOL0     H36870  12.597   4.187   4.829 -1.0863  0.4191  0.3212
  992MOL0     H36871  12.599   4.001   4.824 -1.9716 -0.7374  0.3449
  992MOL0     H36872  12.349   4.013   4.830  0.8089 -0.6772  1.3173
  992MOL0     H36873  12.358   4.182   4.826 -0.5946 -0.3690 -0.1626
  992MOL0     H36874  12.378   4.185   5.049 -0.7144 -1.6004 -0.0710
  992MOL0     H36875  12.528   4.091   5.053  1.3588 -0.6803 -1.1943
  992MOL0     H36876  12.902   3.970   4.073 -0.0095  0.4382  0.9167
  992MOL0     H36877  12.815   3.927   3.844 -1.8317  1.1520 -0.8615
  992MOL0     H36878  12.493   4.000   3.569 -0.4379  0.5097  0.4544
  992MOL0     H36879  12.379   3.925   3.366  0.0505  2.9941  1.7389
  992MOL0     H36880  11.026   4.616   2.547 -0.6897  0.1079 -0.2301
  992MOL0     H36881  10.791   4.680   2.488  1.7591 -0.1522  1.2386
  992MOL0     H36882  10.485   4.860   2.251  0.8357 -2.4664  0.2057
  992MOL0     H36883  10.270   4.926   2.224  2.2726 -0.0507 -0.1533
  992MOL0     H36884   9.919   4.630   2.102 -5.3301  0.1287  2.4911
  992MOL0     H36885   9.969   4.668   2.265 -2.8895  0.5406  0.4562
  992MOL0     H36886   9.739   4.753   2.233 -1.6565  1.2421 -1.8858
  992MOL0     H36887   9.789   4.836   2.086 -0.3443 -0.5806  0.3554
  992MOL0     H36888   9.916   4.908   2.347  0.5608  1.2463  0.2615
  992MOL0     H36889   9.924   4.997   2.196 -1.7252  0.7306 -0.6441
  992MOL0     H36890   9.770   5.128   2.323 -0.5908 -0.3295 -1.0800
  992MOL0     H36891   9.665   4.986   2.365 -1.3954 -0.5594 -0.5319
  992MOL0     H36892   9.576   5.156   1.970 -0.9870 -0.8783 -1.6970
  992MOL0     H36893  10.132   4.532   2.129 -1.5238  1.8475  0.4208
  992MOL0     H36894  10.413   4.365   2.215  0.0363 -1.0677 -0.3514
  992MOL0     H36895  10.265   4.364   2.115 -1.6263  3.5432 -1.7468
  992MOL0     H36896  10.410   4.412   2.030 -0.6250 -0.2161  0.3937
  993MOL0     O36897   3.671   2.575   2.681  0.0182  0.1934 -0.3212
  993MOL0     C36898   3.558   2.566   2.631  0.4066  0.0784 -0.7776
  993MOL0     O36899   3.537   2.614   2.506 -0.4737 -0.2507  0.1557
  993MOL0     C36900   3.647   2.666   2.444  0.0058 -0.6757  0.5619
  993MOL0     C36901   3.659   2.803   2.425  0.6761 -0.2831  1.0124
  993MOL0     C36902   3.762   2.847   2.332  0.0264  0.2084 -0.8412
  993MOL0     C36903   3.851   2.750   2.272  0.7741 -0.3957 -0.0572
  993MOL0     O36904   3.950   2.792   2.185  0.5431 -0.3390  0.0935
  993MOL0     C36905   3.926   2.920   2.117 -0.9943 -0.5142  0.2503
  993MOL0     C36906   4.043   2.935   2.021 -0.1693 -0.1703 -0.5245
  993MOL0     C36907   4.052   2.816   1.917  0.3373 -0.1491 -0.5317
  993MOL0     C36908   4.166   2.849   1.820 -0.3277  0.2129  0.0327
  993MOL0     C36909   4.161   2.754   1.702  0.1807 -0.6312 -0.4951
  993MOL0     C36910   4.287   2.765   1.614  0.7962 -0.3590  0.0354
  993MOL0     C36911   4.287   2.670   1.489 -0.2239  0.4663  0.1542
  993MOL0     C36912   4.421   2.681   1.413 -0.3330  0.3193  0.1149
  993MOL0     N36913   4.529   2.639   1.495 -0.7446  0.5117 -0.1773
  993MOL0     C36914   4.550   2.508   1.527 -0.6223 -0.1439  0.0792
  993MOL0     C36915   4.670   2.497   1.594 -0.3902 -0.7633 -0.2893
  993MOL0     C36916   4.735   2.368   1.629 -0.3111 -0.5553 -0.1053
  993MOL0     C36917   4.726   2.336   1.780 -0.1815  0.1542 -0.1246
  993MOL0     C36918   4.798   2.437   1.867 -0.9438  0.0055 -0.7496
  993MOL0     C36919   4.796   2.399   2.006 -0.1705 -0.0612  0.1089
  993MOL0     O36920   4.882   2.290   2.034 -0.1084 -0.4820 -0.2548
  993MOL0     C36921   5.017   2.305   2.045  0.4904  0.1345 -0.5484
  993MOL0     C36922   5.090   2.428   2.054 -0.2973  0.6909 -0.4247
  993MOL0     C36923   5.227   2.434   2.059 -0.3156 -0.0562 -0.6290
  993MOL0     C36924   5.293   2.573   2.080  0.4267  0.1643  0.9095
  993MOL0     C36925   5.300   2.310   2.067 -1.1840 -0.6532  0.3868
  993MOL0     C36926   5.441   2.304   2.090 -0.7020 -0.2543  0.3509
  993MOL0     O36927   5.485   2.185   2.142  0.6162  0.1040 -0.4011
  993MOL0     C36928   5.613   2.167   2.140 -0.3839  0.2237  0.3080
  993MOL0     C36929   5.686   2.188   2.013 -0.1752  0.1715 -0.1856
  993MOL0     C36930   5.823   2.171   2.001  0.4089 -0.9077  0.4506
  993MOL0     C36931   5.892   2.130   2.111  0.1231  0.0287  0.1134
  993MOL0     O36932   6.027   2.103   2.092  0.1792  0.0120 -0.1642
  993MOL0     C36933   6.122   2.197   2.150  0.0508 -0.2448  0.7893
  993MOL0     C36934   6.203   2.103   2.243 -0.5923  0.2261  0.0069
  993MOL0     C36935   6.355   2.145   2.272  0.5219 -0.9799  0.4331
  993MOL0     C36936   6.419   2.037   2.367  0.1333 -0.2444  0.3975
  993MOL0     C36937   6.574   2.034   2.356  0.2409 -0.8752 -0.1262
  993MOL0     C36938   6.642   2.166   2.402 -0.3595  0.7337  0.8752
  993MOL0     C36939   6.795   2.147   2.424  0.9286 -0.2270  0.3261
  993MOL0     C36940   6.861   2.274   2.464 -0.5158  0.6654 -0.0271
  993MOL0    Cl36941   7.035   2.248   2.489  0.4765  0.4703  0.0746
  993MOL0     C36942   5.829   2.098   2.236 -0.5680 -0.4617  0.2139
  993MOL0     C36943   5.693   2.122   2.243  0.6033 -0.1784 -0.8486
  993MOL0     O36944   5.509   2.406   2.084 -0.4194  0.7692 -0.2512
  993MOL0     C36945   5.226   2.191   2.074 -0.2531  0.1610  0.4869
  993MOL0     C36946   5.087   2.188   2.064 -0.8804 -0.1626  0.0587
  993MOL0     N36947   4.714   2.623   1.601  0.0473 -0.2171 -0.1521
  993MOL0     N36948   4.627   2.712   1.555  0.4270  0.3282 -0.4233
  993MOL0     C36949   3.843   2.614   2.307  0.1246  0.1166  0.4034
  993MOL0     C36950   3.731   2.573   2.387 -0.7416  0.3302  0.4272
  993MOL0     C36951   3.437   2.542   2.715 -0.2041  0.2078  0.7575
  993MOL0     C36952   3.439   2.588   2.847 -0.3203  0.2450 -0.4275
  993MOL0     C36953   3.329   2.578   2.926  0.0212  0.3356  0.4631
  993MOL0     C36954   3.217   2.504   2.881 -0.0527 -0.2048  0.4418
  993MOL0     O36955   3.110   2.507   2.970 -0.5742  0.1483  0.3167
  993MOL0     C36956   2.993   2.431   2.939 -0.2457 -0.3732  0.6446
  993MOL0     C36957   2.979   2.324   3.043  0.3498  0.1794  0.3279
  993MOL0     C36958   2.839   2.264   3.052  0.5212  0.0023  0.3419
  993MOL0     C36959   2.841   2.129   3.134  0.4481 -0.3687 -1.6038
  993MOL0     C36960   2.887   2.145   3.272  0.3999 -0.2335  0.2526
  993MOL0     C36961   2.919   2.164   3.382 -0.3483 -0.0083  0.2429
  993MOL0     C36962   3.214   2.459   2.744  0.9524 -0.0739 -0.1959
  993MOL0     C36963   3.324   2.475   2.660  0.2948 -0.2326  0.9585
  993MOL0     C36964   3.317   2.420   2.525 -0.4694  0.0557 -0.1804
  993MOL0     H36965   3.599   2.874   2.481  3.2613  1.7611  1.3706
  993MOL0     H36966   3.771   2.954   2.312  0.8387  0.6987  1.7459
  993MOL0     H36967   3.931   3.014   2.173 -2.6392 -0.1558 -0.1601
  993MOL0     H36968   3.834   2.921   2.058 -1.5944  0.7253  1.1570
  993MOL0     H36969   4.025   3.029   1.967 -0.6515 -1.4656 -2.7141
  993MOL0     H36970   4.137   2.953   2.075 -0.2630  0.4730 -0.5676
  993MOL0     H36971   4.068   2.725   1.974  0.1841  0.6833  0.8931
  993MOL0     H36972   3.959   2.804   1.859  0.1517  0.0627 -0.2823
  993MOL0     H36973   4.149   2.954   1.794 -1.7034 -0.2560 -1.0939
  993MOL0     H36974   4.262   2.834   1.870 -0.4580  2.7658  1.2252
  993MOL0     H36975   4.069   2.763   1.644  0.2594 -2.2941 -0.9351
  993MOL0     H36976   4.152   2.656   1.751 -4.5460  0.1892  0.8029
  993MOL0     H36977   4.304   2.866   1.575 -2.5471 -1.2409 -4.6203
  993MOL0     H36978   4.363   2.740   1.689  0.9668 -2.0810 -0.6650
  993MOL0     H36979   4.205   2.706   1.427 -1.6414 -0.3407  1.4914
  993MOL0     H36980   4.265   2.569   1.524 -0.2484  0.8212  1.2127
  993MOL0     H36981   4.412   2.624   1.320  0.3252  1.8489 -0.9215
  993MOL0     H36982   4.437   2.785   1.382 -1.4228 -0.6674 -4.5102
  993MOL0     H36983   4.485   2.424   1.505 -0.8613  0.0765 -0.0742
  993MOL0     H36984   4.843   2.379   1.614 -0.4212  0.0338 -0.5173
  993MOL0     H36985   4.707   2.293   1.555  0.1123 -1.2754  0.4493
  993MOL0     H36986   4.627   2.317   1.822  0.6615 -2.2444  0.9350
  993MOL0     H36987   4.767   2.235   1.791 -1.6356 -0.3838  0.7639
  993MOL0     H36988   4.904   2.444   1.841 -0.6610  0.1226  0.3599
  993MOL0     H36989   4.761   2.539   1.861  2.0539  1.1290 -2.2875
  993MOL0     H36990   4.828   2.486   2.065 -1.0384  0.4454 -0.1383
  993MOL0     H36991   4.695   2.372   2.036 -1.7530  0.0498 -4.3946
  993MOL0     H36992   5.035   2.521   2.063  0.8736  1.6151 -2.1316
  993MOL0     H36993   5.361   2.577   2.166 -1.0274  0.9248  2.0889
  993MOL0     H36994   5.213   2.644   2.104  0.5886  0.8030 -0.3434
  993MOL0     H36995   5.357   2.605   1.998  0.5585 -1.4484  0.3674
  993MOL0     H36996   5.634   2.227   1.927  3.3122  2.3417 -1.4821
  993MOL0     H36997   5.872   2.189   1.906 -1.2124  0.0434 -0.2317
  993MOL0     H36998   6.183   2.234   2.067 -0.5291 -0.2477  0.3556
  993MOL0     H36999   6.082   2.293   2.185  1.6547  2.1915 -3.3851
  993MOL0     H37000   6.149   2.095   2.338  1.4483  0.3919  1.2367
  993MOL0     H37001   6.204   2.006   2.192 -1.1218  0.6151 -0.7547
  993MOL0     H37002   6.363   2.247   2.311 -2.4715 -0.5028  0.0561
  993MOL0     H37003   6.405   2.135   2.175 -0.1755  0.1814 -0.0746
  993MOL0     H37004   6.370   1.945   2.336 -2.3437  1.4727 -1.1477
  993MOL0     H37005   6.391   2.057   2.470  0.5325  4.9648 -0.2340
  993MOL0     H37006   6.622   1.950   2.408 -1.4040 -0.3945  2.3240
  993MOL0     H37007   6.595   2.008   2.252  0.7644  0.0492 -0.2602
  993MOL0     H37008   6.587   2.188   2.494 -0.1008 -0.8829  1.4527
  993MOL0     H37009   6.626   2.232   2.317 -0.1860 -0.1488  0.1472
  993MOL0     H37010   6.839   2.115   2.329 -2.7626 -2.7709 -0.7616
  993MOL0     H37011   6.814   2.078   2.507 -0.7111 -0.4395  0.5685
  993MOL0     H37012   6.818   2.309   2.558 -0.4194 -2.4191  1.2553
  993MOL0     H37013   6.853   2.348   2.384  0.0670  0.5340 -0.2154
  993MOL0     H37014   5.890   2.048   2.311  1.4400  3.6329  1.6062
  993MOL0     H37015   5.642   2.110   2.337  1.6974 -1.3635 -0.3863
  993MOL0     H37016   5.276   2.095   2.081 -1.3331 -0.4350  0.3183
  993MOL0     H37017   5.037   2.091   2.055 -1.7995  0.4955 -2.8931
  993MOL0     H37018   3.902   2.537   2.259 -0.5425 -1.7523  2.4059
  993MOL0     H37019   3.713   2.467   2.398  1.0186  0.2423  3.4406
  993MOL0     H37020   3.530   2.636   2.884  0.0808 -1.1437  0.5004
  993MOL0     H37021   3.323   2.628   3.021  1.7431 -1.5556  1.6611
  993MOL0     H37022   2.913   2.506   2.941  0.0516 -0.0605  0.8836
  993MOL0     H37023   2.981   2.375   2.846 -1.9305  0.1622  0.4981
  993MOL0     H37024   3.005   2.367   3.140  1.0553  1.8697 -0.5696
  993MOL0     H37025   3.053   2.244   3.035 -1.4082 -1.8945  3.0106
  993MOL0     H37026   2.774   2.334   3.106 -0.2634 -2.0617  2.2061
  993MOL0     H37027   2.795   2.240   2.954 -2.1351  0.8565  1.2408
  993MOL0     H37028   2.914   2.063   3.087  1.0199 -1.7197  1.0026
  993MOL0     H37029   2.741   2.086   3.121 -0.1479  0.2004  0.6703
  993MOL0     H37030   2.948   2.193   3.480  1.0509  0.6985 -0.3447
  993MOL0     H37031   3.120   2.422   2.705  1.9343 -2.0220 -0.8646
  993MOL0     H37032   3.409   2.372   2.490 -0.1175 -0.1232  0.9741
  993MOL0     H37033   3.238   2.344   2.518  1.6067 -2.1981 -0.6824
  993MOL0     H37034   3.291   2.502   2.458  2.0507  1.2986  0.2478
  994MOL0     O37035   4.635   8.878   6.394 -0.1265 -0.2062 -0.7488
  994MOL0     C37036   4.633   8.825   6.282 -0.3784  0.1660  1.0638
  994MOL0     O37037   4.558   8.717   6.249  0.2858 -0.8241 -0.3629
  994MOL0     C37038   4.428   8.699   6.293  0.1499 -0.6706  0.0056
  994MOL0     C37039   4.386   8.571   6.329  0.1345  1.0109  0.5047
  994MOL0     C37040   4.257   8.558   6.387 -0.6684 -0.1337  0.0627
  994MOL0     C37041   4.174   8.666   6.412 -0.4009 -0.0695  0.2806
  994MOL0     O37042   4.051   8.654   6.473  0.0608 -0.5305  0.5070
  994MOL0     C37043   3.969   8.533   6.469 -0.1600  0.9165 -0.0610
  994MOL0     C37044   3.845   8.560   6.368 -0.2917  0.7783 -0.3711
  994MOL0     C37045   3.755   8.670   6.430  0.0020 -0.2327  0.2088
  994MOL0     C37046   3.710   8.632   6.570 -0.1398 -0.5763 -0.4160
  994MOL0     C37047   3.587   8.707   6.622 -0.7773  0.8521 -0.1679
  994MOL0     C37048   3.598   8.861   6.606  1.0202  0.1886  0.3746
  994MOL0     C37049   3.487   8.927   6.682 -0.0858 -1.0434 -0.4194
  994MOL0     C37050   3.527   8.930   6.833  0.3435 -0.0186 -0.0551
  994MOL0     N37051   3.425   8.993   6.918 -0.0679 -0.3747  0.6664
  994MOL0     C37052   3.407   8.968   7.054 -0.5246 -0.0390  1.3300
  994MOL0     C37053   3.320   9.057   7.093  1.0169 -0.1934  0.0389
  994MOL0     C37054   3.300   9.096   7.237  0.0590  0.5640  0.1856
  994MOL0     C37055   3.404   9.197   7.281 -0.8263 -0.0919  0.1948
  994MOL0     C37056   3.449   9.193   7.423  0.0895 -0.4710 -0.7570
  994MOL0     C37057   3.577   9.270   7.457  0.5987  0.2233 -0.5435
  994MOL0     O37058   3.694   9.192   7.426 -0.1021  0.1066  0.4181
  994MOL0     C37059   3.812   9.240   7.476  0.8651  0.1082  0.3684
  994MOL0     C37060   3.889   9.154   7.535 -0.5953 -0.1330 -0.4163
  994MOL0     C37061   4.011   9.192   7.585 -0.3462  0.3757 -0.0529
  994MOL0     C37062   4.102   9.076   7.614 -0.2502 -0.0588  0.2590
  994MOL0     C37063   4.052   9.329   7.566 -0.2793 -0.1654 -0.0072
  994MOL0     C37064   4.189   9.375   7.599  1.0690 -0.0069  0.4148
  994MOL0     O37065   4.188   9.508   7.632  0.7791  0.0146 -0.0185
  994MOL0     C37066   4.311   9.562   7.653  0.2315 -0.5632  0.0401
  994MOL0     C37067   4.378   9.633   7.550  0.2679  0.6489 -0.1890
  994MOL0     C37068   4.505   9.690   7.569  0.0908  0.0288 -0.5448
  994MOL0     C37069   4.568   9.668   7.691  0.4388 -0.1789  1.4778
  994MOL0     O37070   4.693   9.722   7.700  0.0161 -1.0243  0.3203
  994MOL0     C37071   4.802   9.635   7.726  0.2441  0.9714 -0.0753
  994MOL0     C37072   4.919   9.734   7.723 -0.4070 -0.2736  0.4218
  994MOL0     C37073   5.055   9.661   7.720  0.5049  1.2058 -0.4323
  994MOL0     C37074   5.146   9.752   7.633  0.5143  0.5660 -0.4910
  994MOL0     C37075   5.295   9.711   7.638  0.2696 -0.2615  0.8324
  994MOL0     C37076   5.385   9.820   7.576 -0.6229 -0.2571  0.6085
  994MOL0     C37077   5.528   9.773   7.566  0.5228 -0.1543 -0.6657
  994MOL0     C37078   5.624   9.869   7.648  0.5973  0.0898  0.0323
  994MOL0    Cl37079   5.793   9.807   7.655  0.0251  0.1154  0.2775
  994MOL0     C37080   4.504   9.598   7.795 -0.3521 -0.1275  0.1744
  994MOL0     C37081   4.373   9.555   7.770 -0.0659 -0.0293  0.2872
  994MOL0     O37082   4.286   9.302   7.593  0.2934  0.2611  0.6686
  994MOL0     C37083   3.965   9.420   7.496 -1.0520 -0.5140 -0.2240
  994MOL0     C37084   3.848   9.370   7.450  0.2636 -0.6052 -0.1466
  994MOL0     N37085   3.280   9.137   6.985  0.1955  0.1168 -0.4585
  994MOL0     N37086   3.354   9.099   6.880  0.1756 -0.2409 -0.9758
  994MOL0     C37087   4.202   8.789   6.360  0.0006  0.3899  1.0164
  994MOL0     C37088   4.334   8.805   6.299 -0.4947 -0.1678 -0.7026
  994MOL0     C37089   4.736   8.871   6.187 -0.6613 -0.0530 -0.2231
  994MOL0     C37090   4.833   8.965   6.230  0.1266 -1.5321 -0.5939
  994MOL0     C37091   4.932   9.025   6.144  0.3975  0.3957 -0.0564
  994MOL0     C37092   4.936   8.986   6.012  0.3596 -0.6275  0.5843
  994MOL0     O37093   5.024   9.052   5.925  0.4519  0.6054 -0.3388
  994MOL0     C37094   5.103   8.967   5.840  0.3919 -0.1066 -0.1505
  994MOL0     C37095   5.255   8.986   5.860  0.8675 -0.0816 -0.5519
  994MOL0     C37096   5.295   9.132   5.839 -0.4713 -0.5933 -0.4853
  994MOL0     C37097   5.451   9.156   5.854  0.6819 -0.3583 -0.1189
  994MOL0     C37098   5.504   9.093   5.976 -0.1579 -0.2216  0.0352
  994MOL0     C37099   5.554   9.042   6.071  0.3994 -0.3310 -0.0480
  994MOL0     C37100   4.849   8.884   5.964  0.0823 -0.1926 -0.4926
  994MOL0     C37101   4.752   8.826   6.051 -0.9326 -0.0975 -0.4740
  994MOL0     C37102   4.678   8.705   5.992  0.0912 -0.3048 -0.1663
  994MOL0     H37103   4.449   8.482   6.323 -1.7355 -0.2772 -2.5120
  994MOL0     H37104   4.233   8.460   6.428 -0.7249 -1.5291 -3.0395
  994MOL0     H37105   3.934   8.502   6.567 -0.1091  0.2896 -0.2369
  994MOL0     H37106   4.026   8.444   6.439  2.1006  2.6982 -1.3579
  994MOL0     H37107   3.881   8.579   6.267  1.0799 -1.4956 -0.3823
  994MOL0     H37108   3.778   8.474   6.371 -1.3056  1.4049 -2.7940
  994MOL0     H37109   3.810   8.765   6.432 -1.5888  0.7229  0.7733
  994MOL0     H37110   3.666   8.678   6.368  1.0580  0.9092 -1.2500
  994MOL0     H37111   3.680   8.527   6.565 -1.1607 -0.2762 -0.8994
  994MOL0     H37112   3.791   8.644   6.642 -1.3598 -1.8987  1.2526
  994MOL0     H37113   3.561   8.673   6.723 -1.1058  1.9530  0.1296
  994MOL0     H37114   3.502   8.681   6.558 -0.6790 -0.7500  0.3002
  994MOL0     H37115   3.698   8.904   6.620  1.2426  0.9812 -2.8562
  994MOL0     H37116   3.569   8.887   6.504 -0.6475  2.4196  1.3493
  994MOL0     H37117   3.387   8.894   6.654 -0.0270 -2.3829  0.8758
  994MOL0     H37118   3.492   9.033   6.654  0.6584 -1.1490 -0.7090
  994MOL0     H37119   3.541   8.828   6.870  0.1548 -0.0368 -0.0365
  994MOL0     H37120   3.624   8.979   6.851  0.3503 -0.3058  0.7189
  994MOL0     H37121   3.461   8.902   7.121 -0.4140 -0.0980  1.1857
  994MOL0     H37122   3.299   8.997   7.284 -1.6806  0.7100  0.5488
  994MOL0     H37123   3.198   9.132   7.259 -0.3509 -0.2620 -0.3161
  994MOL0     H37124   3.499   9.188   7.227 -0.2869 -1.7991  1.3327
  994MOL0     H37125   3.368   9.294   7.244 -0.1614  0.0592 -0.0601
  994MOL0     H37126   3.369   9.241   7.480 -1.7045  0.3299 -3.7195
  994MOL0     H37127   3.458   9.091   7.460  0.2871  0.3539  1.6238
  994MOL0     H37128   3.571   9.366   7.403  1.2826  2.3237  2.8174
  994MOL0     H37129   3.577   9.296   7.563  3.8847 -0.1317 -0.3820
  994MOL0     H37130   3.857   9.050   7.537 -1.2247  0.0648  0.0260
  994MOL0     H37131   4.177   9.066   7.535 -2.0028 -2.5846 -1.2150
  994MOL0     H37132   4.054   8.979   7.628  2.5845 -2.0110 -2.3738
  994MOL0     H37133   4.163   9.101   7.702  0.7482 -1.0113 -0.1361
  994MOL0     H37134   4.325   9.654   7.458 -3.0288  0.6862  1.5812
  994MOL0     H37135   4.545   9.758   7.495  2.3614  0.8136  1.2761
  994MOL0     H37136   4.794   9.589   7.825 -2.1463 -0.5279 -0.8765
  994MOL0     H37137   4.809   9.564   7.644 -2.1472 -0.2727  0.6818
  994MOL0     H37138   4.914   9.787   7.628 -1.4652 -2.3386 -0.7441
  994MOL0     H37139   4.917   9.811   7.801 -2.1358  0.5441 -0.3679
  994MOL0     H37140   5.060   9.558   7.681 -0.8654 -0.3444  3.0782
  994MOL0     H37141   5.091   9.665   7.823  3.6693  1.1314 -1.4230
  994MOL0     H37142   5.149   9.854   7.673  2.9408 -0.4507  2.2849
  994MOL0     H37143   5.111   9.763   7.530  0.1586  0.1759 -0.4114
  994MOL0     H37144   5.332   9.697   7.740 -0.7980  0.4558  1.3401
  994MOL0     H37145   5.306   9.619   7.581  2.6263 -0.2013  1.0889
  994MOL0     H37146   5.389   9.912   7.635  1.9928  0.8850 -1.1524
  994MOL0     H37147   5.352   9.851   7.477 -0.0582 -3.8553 -0.8571
  994MOL0     H37148   5.560   9.784   7.462  2.5546  5.3730  0.1891
  994MOL0     H37149   5.538   9.671   7.603 -0.3681 -0.7839 -2.0865
  994MOL0     H37150   5.586   9.871   7.750 -1.3812 -0.2434 -0.6609
  994MOL0     H37151   5.630   9.974   7.619  1.8323  0.4812  1.5429
  994MOL0     H37152   4.550   9.584   7.893  0.7259  0.0985 -0.2913
  994MOL0     H37153   4.327   9.504   7.854  0.2144 -0.9542 -0.1053
  994MOL0     H37154   3.989   9.523   7.472  0.7190 -0.8158  0.1013
  994MOL0     H37155   3.785   9.446   7.404  2.7270  0.2679 -2.2785
  994MOL0     H37156   4.131   8.868   6.382 -1.3504 -1.0490  2.1375
  994MOL0     H37157   4.373   8.898   6.259  4.3076 -1.5835  0.0692
  994MOL0     H37158   4.827   9.001   6.332 -1.4231 -0.2891 -1.0661
  994MOL0     H37159   4.985   9.115   6.174  0.7369  0.8556 -1.8991
  994MOL0     H37160   5.084   8.860   5.852 -1.0862 -0.1209 -2.0699
  994MOL0     H37161   5.082   9.001   5.738  0.8929  0.7084  0.0102
  994MOL0     H37162   5.312   8.933   5.784 -1.3714 -0.2732 -2.1906
  994MOL0     H37163   5.284   8.948   5.958  1.7420 -0.0078 -0.7741
  994MOL0     H37164   5.270   9.172   5.740  2.4164  1.6259 -0.4757
  994MOL0     H37165   5.238   9.191   5.911 -2.3695 -1.2167 -1.4275
  994MOL0     H37166   5.476   9.262   5.866  2.8816 -0.6859 -1.3911
  994MOL0     H37167   5.500   9.119   5.764 -0.9097 -2.7855 -0.0732
  994MOL0     H37168   5.572   9.000   6.167  0.9834  0.2798  0.1161
  994MOL0     H37169   4.857   8.847   5.862  2.2004 -1.8117  0.1984
  994MOL0     H37170   4.689   8.688   5.884 -1.4054 -2.2188 -0.0618
  994MOL0     H37171   4.714   8.622   6.052 -1.2427  0.8202  2.3724
  994MOL0     H37172   4.571   8.718   6.012  0.5667  0.7332  2.0188
  995MOL0     O37173   5.294   1.788  10.425  0.2653 -0.6651  0.2753
  995MOL0     C37174   5.225   1.862  10.358  0.2196 -0.1876  1.3938
  995MOL0     O37175   5.243   1.994  10.347  0.8531  0.3178 -0.1213
  995MOL0     C37176   5.357   2.054  10.399  0.7370  0.2332  0.5758
  995MOL0     C37177   5.356   2.111  10.531  0.1818 -0.4795  0.5125
  995MOL0     C37178   5.468   2.164  10.583 -0.6341  0.3174  0.6390
  995MOL0     C37179   5.590   2.158  10.521 -0.6099  0.6499  0.1538
  995MOL0     O37180   5.710   2.202  10.577 -0.5559 -0.3158 -0.1387
  995MOL0     C37181   5.726   2.191  10.717  0.0479  1.0400  0.8209
  995MOL0     C37182   5.723   2.325  10.781  0.5726 -0.4956  0.3453
  995MOL0     C37183   5.760   2.317  10.933 -0.0290 -0.0874  0.3726
  995MOL0     C37184   5.641   2.290  11.023 -0.1045 -0.9780  0.5100
  995MOL0     C37185   5.680   2.294  11.173  0.1234 -0.1931  0.3117
  995MOL0     C37186   5.736   2.424  11.223 -0.1547  0.4143  0.1644
  995MOL0     C37187   5.737   2.413  11.373  0.1386  0.0533 -0.5495
  995MOL0     C37188   5.840   2.500  11.446  0.6054  0.3721  0.1510
  995MOL0     N37189   5.810   2.650  11.431  0.3438 -0.1351 -0.2787
  995MOL0     C37190   5.695   2.700  11.478 -0.0053 -0.2607  0.1868
  995MOL0     C37191   5.671   2.804  11.395  0.2539  0.0875 -0.9930
  995MOL0     C37192   5.549   2.901  11.406 -0.2994  0.8040 -0.3563
  995MOL0     C37193   5.596   3.034  11.473  0.5300 -0.4317  0.0056
  995MOL0     C37194   5.649   3.018  11.615 -0.1312 -0.1996 -0.2777
  995MOL0     C37195   5.668   3.158  11.684  0.1111  0.2741  0.4840
  995MOL0     O37196   5.646   3.146  11.828  0.1054  0.3286  0.2475
  995MOL0     C37197   5.749   3.088  11.901 -0.4882 -0.4536  0.6602
  995MOL0     C37198   5.706   3.036  12.023 -0.5573 -0.0243  0.5507
  995MOL0     C37199   5.790   2.962  12.108 -0.6399  0.0821 -0.3332
  995MOL0     C37200   5.739   2.939  12.250  0.8679  0.4949 -0.5183
  995MOL0     C37201   5.921   2.937  12.068 -0.4028 -0.5208  0.3208
  995MOL0     C37202   6.017   2.858  12.151  0.1919 -0.2319 -0.5676
  995MOL0     O37203   6.147   2.873  12.113  0.8393 -0.0229  0.7036
  995MOL0     C37204   6.251   2.821  12.192  0.4552 -0.1083  1.2290
  995MOL0     C37205   6.352   2.909  12.217 -0.2506  0.8363  0.1019
  995MOL0     C37206   6.461   2.875  12.291 -0.4415  0.2677  0.2413
  995MOL0     C37207   6.459   2.751  12.362  0.1945  0.1907  0.8913
  995MOL0     O37208   6.556   2.729  12.447  0.1043  0.3123 -0.0729
  995MOL0     C37209   6.656   2.644  12.397 -0.6696  0.7770 -0.0428
  995MOL0     C37210   6.763   2.600  12.495 -0.5925  0.0535  0.3620
  995MOL0     C37211   6.883   2.552  12.417  1.2726 -0.1676 -0.2428
  995MOL0     C37212   6.997   2.514  12.506 -0.7770  0.0989 -0.3792
  995MOL0     C37213   7.113   2.461  12.422  0.4428  0.6322 -0.4567
  995MOL0     C37214   7.233   2.411  12.502  0.0843  0.5001  0.0128
  995MOL0     C37215   7.355   2.370  12.414  0.2252 -0.6447 -0.4416
  995MOL0     C37216   7.475   2.311  12.492  0.1174 -0.2039 -0.2863
  995MOL0    Cl37217   7.594   2.248  12.376 -0.0808  0.0569 -0.4396
  995MOL0     C37218   6.351   2.660  12.350  0.8686  0.3121  0.6076
  995MOL0     C37219   6.253   2.693  12.253  0.3568  0.9480 -0.1956
  995MOL0     O37220   5.977   2.784  12.246 -0.6108 -0.3107  0.6629
  995MOL0     C37221   5.965   2.999  11.946  0.0551  0.2102 -0.1516
  995MOL0     C37222   5.885   3.078  11.865  0.1497  0.2114 -0.8727
  995MOL0     N37223   5.766   2.802  11.297  0.0057 -0.9377 -0.6478
  995MOL0     N37224   5.856   2.717  11.326 -0.5919  0.2452 -0.4354
  995MOL0     C37225   5.597   2.096  10.393 -0.5522 -0.0739  0.2595
  995MOL0     C37226   5.480   2.049  10.334 -0.5654 -0.3248 -0.5313
  995MOL0     C37227   5.106   1.807  10.296 -0.9402 -0.4723  0.3704
  995MOL0     C37228   4.992   1.883  10.310  0.8221 -0.0758 -0.2785
  995MOL0     C37229   4.869   1.838  10.251 -0.3146  0.0621  0.4326
  995MOL0     C37230   4.858   1.716  10.201 -0.0672 -0.1577 -0.6950
  995MOL0     O37231   4.734   1.652  10.167  0.5324  0.1778 -0.8367
  995MOL0     C37232   4.609   1.711  10.219 -0.0574  0.4346 -0.1602
  995MOL0     C37233   4.479   1.627  10.174  0.1958 -0.2455 -0.8496
  995MOL0     C37234   4.466   1.586  10.026 -0.3365  0.4043  0.7878
  995MOL0     C37235   4.318   1.559  10.000 -0.6429  0.0310 -0.9859
  995MOL0     C37236   4.283   1.522   9.863  0.0340  0.0911 -0.1635
  995MOL0     C37237   4.264   1.474   9.750 -0.4608 -0.5643 -0.2910
  995MOL0     C37238   4.972   1.636  10.190 -0.7027 -0.2857  1.3631
  995MOL0     C37239   5.099   1.685  10.220  0.9916 -0.8422 -0.4784
  995MOL0     C37240   5.220   1.603  10.186  0.0904 -0.0854  0.4599
  995MOL0     H37241   5.260   2.112  10.582  0.3614 -2.3501  0.9682
  995MOL0     H37242   5.460   2.218  10.677 -0.8917  0.8905  0.2924
  995MOL0     H37243   5.821   2.137  10.727  0.7192  1.6310 -1.6169
  995MOL0     H37244   5.640   2.134  10.753  1.4836 -2.4254 -0.7668
  995MOL0     H37245   5.797   2.386  10.728 -1.4381  2.4119  0.6536
  995MOL0     H37246   5.627   2.374  10.763  0.7450 -0.5329 -0.7435
  995MOL0     H37247   5.833   2.239  10.956 -2.0369 -1.3999  2.8418
  995MOL0     H37248   5.792   2.417  10.963 -0.2490  1.0654 -2.8017
  995MOL0     H37249   5.568   2.370  11.008  0.9977 -0.0351 -0.0082
  995MOL0     H37250   5.594   2.194  11.000 -0.7473 -0.4623 -0.3886
  995MOL0     H37251   5.748   2.212  11.199  1.2893  0.1567 -1.4441
  995MOL0     H37252   5.583   2.281  11.220 -0.6320 -0.9000 -1.3582
  995MOL0     H37253   5.840   2.428  11.189 -0.0932 -2.7730 -0.3087
  995MOL0     H37254   5.677   2.509  11.189  0.1762 -0.4127 -2.7416
  995MOL0     H37255   5.771   2.312  11.397 -0.6730  0.1356  1.0811
  995MOL0     H37256   5.637   2.427  11.416 -0.3784 -1.2823 -1.2825
  995MOL0     H37257   5.875   2.483  11.549 -0.6325  2.9839  1.0952
  995MOL0     H37258   5.926   2.475  11.384  0.4954 -1.1401  0.5567
  995MOL0     H37259   5.634   2.658  11.557  0.4630 -0.9779  0.1777
  995MOL0     H37260   5.460   2.858  11.453 -0.6809  0.4441 -1.3847
  995MOL0     H37261   5.509   2.924  11.307  1.6704  0.7652 -1.2120
  995MOL0     H37262   5.678   3.082  11.418 -0.7144 -1.3246 -2.7877
  995MOL0     H37263   5.512   3.104  11.476  1.0462  0.1683  1.7260
  995MOL0     H37264   5.570   2.970  11.673 -0.1182 -0.4184 -0.4418
  995MOL0     H37265   5.744   2.962  11.614  1.6569  2.6074 -1.6573
  995MOL0     H37266   5.760   3.209  11.654 -0.1839  1.4794  1.5474
  995MOL0     H37267   5.583   3.214  11.644  1.6931  0.8862 -2.2957
  995MOL0     H37268   5.599   3.051  12.037 -0.2759  0.9164  1.9850
  995MOL0     H37269   5.635   2.975  12.247  1.0585  1.4176  1.9453
  995MOL0     H37270   5.810   2.979  12.322  2.1640  0.1448 -1.5631
  995MOL0     H37271   5.741   2.831  12.270 -1.3583  0.3625 -0.7174
  995MOL0     H37272   6.347   3.003  12.162  0.6578  1.0849  0.4196
  995MOL0     H37273   6.542   2.946  12.297 -1.5925  2.3404 -4.1720
  995MOL0     H37274   6.621   2.553  12.347 -0.6405 -0.0002  1.3073
  995MOL0     H37275   6.704   2.693  12.312 -0.0499  1.9588  0.9678
  995MOL0     H37276   6.796   2.685  12.555 -2.8716  1.1990  0.1007
  995MOL0     H37277   6.728   2.513  12.550  0.1347 -0.9881 -0.7610
  995MOL0     H37278   6.913   2.622  12.339  1.2938 -0.2279 -0.2890
  995MOL0     H37279   6.850   2.463  12.362  0.2748  0.9714 -1.5522
  995MOL0     H37280   6.961   2.428  12.563 -3.0586  0.3404 -1.3533
  995MOL0     H37281   7.014   2.602  12.569  0.9164 -2.3128  2.8053
  995MOL0     H37282   7.082   2.377  12.359 -0.2905 -0.2214  0.9864
  995MOL0     H37283   7.150   2.540  12.355  0.7716 -0.9308 -2.2214
  995MOL0     H37284   7.203   2.326  12.563  0.0370  0.7192  0.2964
  995MOL0     H37285   7.269   2.494  12.563  1.5001  0.9461 -1.3432
  995MOL0     H37286   7.394   2.456  12.359  0.7529 -1.3653 -1.2324
  995MOL0     H37287   7.321   2.302  12.335  0.8178  1.8843 -3.0392
  995MOL0     H37288   7.459   2.232  12.565  0.3531 -0.2532 -0.2887
  995MOL0     H37289   7.517   2.390  12.555  0.0908 -0.1224 -0.3701
  995MOL0     H37290   6.355   2.560  12.394 -0.2889 -0.3195 -0.6289
  995MOL0     H37291   6.178   2.621  12.220  0.1875  0.3725  1.3844
  995MOL0     H37292   6.070   2.992  11.922  0.3912 -4.0702  1.7133
  995MOL0     H37293   5.916   3.119  11.770  2.9471  1.7474  0.5745
  995MOL0     H37294   5.697   2.081  10.351 -0.4048 -0.0809  0.6122
  995MOL0     H37295   5.482   1.998  10.238  0.4936 -3.4903  1.0549
  995MOL0     H37296   5.000   1.985  10.346 -0.6087 -0.4305  1.1550
  995MOL0     H37297   4.779   1.897  10.268  2.0056  3.0668  4.0517
  995MOL0     H37298   4.612   1.706  10.328 -2.6120  1.3153  0.0289
  995MOL0     H37299   4.599   1.813  10.179 -3.2374  1.6287  3.1381
  995MOL0     H37300   4.391   1.688  10.194  1.6563  1.9366 -0.6301
  995MOL0     H37301   4.466   1.538  10.235 -1.7128  2.0297  2.3196
  995MOL0     H37302   4.500   1.669   9.963  1.5434 -1.6670 -1.0575
  995MOL0     H37303   4.517   1.491  10.007 -1.0993 -0.2485  1.8675
  995MOL0     H37304   4.265   1.652  10.026 -1.3644 -1.1751  2.3991
  995MOL0     H37305   4.278   1.480  10.064  1.8446 -0.4060  0.1437
  995MOL0     H37306   4.255   1.439   9.650  1.7499 -3.8362  0.4823
  995MOL0     H37307   4.960   1.538  10.144  3.5790 -0.1581 -0.4719
  995MOL0     H37308   5.194   1.559  10.089 -3.0300  4.1138 -0.9178
  995MOL0     H37309   5.313   1.658  10.176 -0.3144  0.6280  0.5514
  995MOL0     H37310   5.227   1.537  10.273 -1.2498  0.6349  1.1520
  996MOL0     O37311   5.453   3.448   6.616 -0.0197  0.0395 -0.3373
  996MOL0     C37312   5.475   3.396   6.507 -0.2974 -0.0546 -0.2221
  996MOL0     O37313   5.604   3.380   6.448  0.6910 -0.0317 -0.3913
  996MOL0     C37314   5.701   3.460   6.500 -0.3720  0.1417  0.2535
  996MOL0     C37315   5.788   3.419   6.602  0.4771  0.8663  0.1588
  996MOL0     C37316   5.879   3.510   6.655 -0.1267 -0.0313 -0.3630
  996MOL0     C37317   5.904   3.639   6.599  0.1145 -0.3406  0.2361
  996MOL0     O37318   5.999   3.723   6.655 -0.4307  0.5306  0.1692
  996MOL0     C37319   6.000   3.859   6.618  0.4597  0.2992  0.2912
  996MOL0     C37320   6.102   3.937   6.703  0.5346  0.6592  0.6797
  996MOL0     C37321   6.063   4.090   6.689  0.0020  0.3898 -0.3787
  996MOL0     C37322   6.126   4.162   6.809  0.2793  0.8053  0.0575
  996MOL0     C37323   6.122   4.308   6.809 -0.2524 -0.0308 -0.2535
  996MOL0     C37324   5.980   4.363   6.807  0.1724  0.3288 -0.0024
  996MOL0     C37325   5.995   4.518   6.809 -0.8923 -0.5287 -0.4151
  996MOL0     C37326   5.865   4.598   6.837 -0.0164 -0.1513  0.0932
  996MOL0     N37327   5.816   4.561   6.971 -0.1569  0.1844  0.6043
  996MOL0     C37328   5.691   4.520   6.988  0.3864  0.8106 -0.4121
  996MOL0     C37329   5.684   4.507   7.117 -0.5430 -0.6386  0.7352
  996MOL0     C37330   5.566   4.469   7.192 -0.3051  0.1019  0.2647
  996MOL0     C37331   5.427   4.481   7.118 -0.6681 -0.5100 -1.1037
  996MOL0     C37332   5.388   4.353   7.041 -0.7497 -0.5848  0.6734
  996MOL0     C37333   5.248   4.346   6.974  0.2685 -0.0710 -0.7455
  996MOL0     O37334   5.208   4.472   6.917 -0.7363  1.1329  0.2587
  996MOL0     C37335   5.073   4.495   6.902  1.1743 -0.7640 -0.1919
  996MOL0     C37336   5.030   4.622   6.932 -0.1113 -0.1577 -0.2512
  996MOL0     C37337   4.893   4.658   6.941  0.0758  1.1782  0.0087
  996MOL0     C37338   4.852   4.799   6.972 -0.3181  0.3895  0.0587
  996MOL0     C37339   4.799   4.552   6.913 -0.0407  0.9146  0.0506
  996MOL0     C37340   4.648   4.569   6.913 -0.4862  0.3233 -0.6945
  996MOL0     O37341   4.565   4.465   6.899  0.0908 -0.2658 -0.0664
  996MOL0     C37342   4.428   4.487   6.908  0.6345  0.7462  0.6559
  996MOL0     C37343   4.365   4.367   6.952  0.7119  0.0699  0.7436
  996MOL0     C37344   4.226   4.372   6.959  1.0107  0.5391 -1.0574
  996MOL0     C37345   4.155   4.490   6.934  0.0696 -0.1310  0.1163
  996MOL0     O37346   4.024   4.507   6.955  0.1558  0.6021  0.4567
  996MOL0     C37347   3.957   4.519   6.827  0.4125  0.0450 -0.0266
  996MOL0     C37348   3.814   4.461   6.848 -0.0399 -0.5299 -1.1822
  996MOL0     C37349   3.740   4.543   6.955  0.3658 -0.7637 -0.6095
  996MOL0     C37350   3.614   4.476   7.004  0.0211  0.6057  0.8173
  996MOL0     C37351   3.508   4.581   7.065 -0.0142 -0.2949 -0.8327
  996MOL0     C37352   3.390   4.497   7.119 -0.9580 -0.2309 -0.2087
  996MOL0     C37353   3.290   4.475   7.013 -0.3028 -0.1032 -0.4870
  996MOL0     C37354   3.163   4.406   7.072 -0.7317  0.8589  0.6611
  996MOL0    Cl37355   3.050   4.417   6.936 -0.0836 -0.0825 -0.1121
  996MOL0     C37356   4.222   4.604   6.877 -0.4418  0.6156  0.0782
  996MOL0     C37357   4.355   4.598   6.857  0.4024  1.3070  0.3298
  996MOL0     O37358   4.606   4.681   6.944 -0.3842 -0.5956 -0.2615
  996MOL0     C37359   4.846   4.423   6.873  0.4211  0.3101  0.3970
  996MOL0     C37360   4.982   4.399   6.868  0.1076  0.6397 -0.8562
  996MOL0     N37361   5.806   4.548   7.177  0.5189  0.5486  0.2227
  996MOL0     N37362   5.883   4.579   7.082  0.3235 -0.2049  0.4927
  996MOL0     C37363   5.822   3.679   6.484 -0.0693  0.3234  0.9957
  996MOL0     C37364   5.724   3.588   6.438 -0.2844 -0.4742  0.5996
  996MOL0     C37365   5.363   3.354   6.425 -0.0173  0.5556 -0.3514
  996MOL0     C37366   5.387   3.257   6.326 -0.3885  0.1969  0.1566
  996MOL0     C37367   5.294   3.198   6.256  0.3684  0.2825  0.9891
  996MOL0     C37368   5.164   3.243   6.271  0.3770 -0.8199  0.8867
  996MOL0     O37369   5.070   3.191   6.187  0.5013  0.2144  0.3405
  996MOL0     C37370   4.943   3.257   6.148  0.9810 -0.6287 -0.2267
  996MOL0     C37371   4.870   3.179   6.038 -0.9275  0.1709  0.1382
  996MOL0     C37372   4.719   3.227   6.011 -0.5446  0.5798 -0.5857
  996MOL0     C37373   4.648   3.126   5.921 -0.2056  0.3064 -1.1615
  996MOL0     C37374   4.504   3.153   5.937  1.3154  0.2848  0.0042
  996MOL0     C37375   4.387   3.168   5.960 -0.1137 -0.5776 -0.2522
  996MOL0     C37376   5.134   3.328   6.371  0.3187  0.1617 -0.1314
  996MOL0     C37377   5.230   3.388   6.449  0.0991 -0.2859 -0.4442
  996MOL0     C37378   5.183   3.500   6.539  0.3443  0.3028 -0.7767
  996MOL0     H37379   5.777   3.322   6.650  3.3032  0.0503 -0.6181
  996MOL0     H37380   5.947   3.488   6.737 -0.8165  2.0321  0.8548
  996MOL0     H37381   5.896   3.894   6.611  0.5774  0.2946 -3.0649
  996MOL0     H37382   6.035   3.859   6.515  0.8155  0.1265  0.4124
  996MOL0     H37383   6.088   3.913   6.808 -1.5366 -1.2137  0.0622
  996MOL0     H37384   6.202   3.910   6.668 -0.4608 -2.7942  0.1383
  996MOL0     H37385   6.106   4.132   6.598  0.7516  1.0381  0.2599
  996MOL0     H37386   5.954   4.100   6.696 -0.5767 -2.9453 -2.3770
  996MOL0     H37387   6.080   4.126   6.902  1.3320  2.5074  1.2781
  996MOL0     H37388   6.225   4.118   6.819 -1.0567 -2.9748 -1.3424
  996MOL0     H37389   6.180   4.338   6.721  0.8394 -1.0606  0.0897
  996MOL0     H37390   6.163   4.343   6.904  1.8280  0.4066 -1.2536
  996MOL0     H37391   5.934   4.328   6.714  1.4428 -0.7565 -0.2520
  996MOL0     H37392   5.911   4.333   6.887 -0.8987  0.0201 -1.0151
  996MOL0     H37393   6.028   4.552   6.711  0.2374 -3.0842 -1.0033
  996MOL0     H37394   6.071   4.546   6.882 -0.9277 -0.0432 -0.5621
  996MOL0     H37395   5.880   4.706   6.824  0.2073 -0.1979 -0.0483
  996MOL0     H37396   5.789   4.576   6.762  1.2839  1.5639 -1.8606
  996MOL0     H37397   5.614   4.514   6.912  0.1243 -0.1734 -0.0806
  996MOL0     H37398   5.567   4.534   7.280  2.7237  0.3312  0.1728
  996MOL0     H37399   5.574   4.369   7.237 -2.9728  0.9360  2.9130
  996MOL0     H37400   5.345   4.496   7.189 -0.0521 -1.1565 -0.2436
  996MOL0     H37401   5.424   4.575   7.062  0.7715  1.5427  1.9780
  996MOL0     H37402   5.471   4.334   6.973 -0.7575 -1.5094  0.9143
  996MOL0     H37403   5.396   4.276   7.118  1.2752  0.2282  1.3385
  996MOL0     H37404   5.247   4.277   6.890 -0.0295  1.0629 -1.6926
  996MOL0     H37405   5.179   4.298   7.044  0.5948  0.1309 -0.2767
  996MOL0     H37406   5.106   4.695   6.959 -1.6171  1.8790 -1.2235
  996MOL0     H37407   4.799   4.798   7.068  1.8637 -3.1183  1.3822
  996MOL0     H37408   4.780   4.845   6.903  0.5131  1.2527 -0.2421
  996MOL0     H37409   4.939   4.864   6.981 -1.2453  1.8766 -1.1564
  996MOL0     H37410   4.422   4.290   7.003 -0.5869 -1.1238  0.4377
  996MOL0     H37411   4.173   4.285   6.995  0.1559  0.8938 -1.4049
  996MOL0     H37412   3.943   4.621   6.792 -0.5032 -0.7356 -2.1555
  996MOL0     H37413   4.000   4.469   6.739  2.4239  3.5297 -1.2102
  996MOL0     H37414   3.759   4.460   6.753  0.7584 -0.0595 -1.6590
  996MOL0     H37415   3.817   4.358   6.884 -0.7669  0.5562  2.4961
  996MOL0     H37416   3.721   4.639   6.906 -3.8597 -0.0131  1.9510
  996MOL0     H37417   3.789   4.573   7.048 -2.5983 -1.6807  1.3675
  996MOL0     H37418   3.635   4.401   7.081 -2.4141  1.4023  2.3819
  996MOL0     H37419   3.562   4.420   6.926 -0.9549  1.7975  0.5681
  996MOL0     H37420   3.550   4.649   7.138 -1.6616 -1.3106  1.1695
  996MOL0     H37421   3.479   4.649   6.984  0.4961 -1.7135 -2.2673
  996MOL0     H37422   3.353   4.550   7.207  0.3554 -3.8077  2.7779
  996MOL0     H37423   3.427   4.396   7.140  0.9671  0.0912 -1.7081
  996MOL0     H37424   3.330   4.391   6.954  1.6931 -1.5194  2.5816
  996MOL0     H37425   3.266   4.570   6.965 -2.9805  0.2494  1.3048
  996MOL0     H37426   3.128   4.449   7.167  1.3151  1.1376  1.3505
  996MOL0     H37427   3.187   4.301   7.094  3.2052  1.1866 -1.1228
  996MOL0     H37428   4.165   4.691   6.846 -0.2154 -0.0820 -2.4605
  996MOL0     H37429   4.409   4.673   6.800 -0.8128 -0.0955 -2.9312
  996MOL0     H37430   4.777   4.346   6.841  0.8415  0.7695 -1.7340
  996MOL0     H37431   5.023   4.307   6.828  2.1525  1.2848 -0.3420
  996MOL0     H37432   5.834   3.767   6.422 -3.1826 -0.4890 -1.0248
  996MOL0     H37433   5.666   3.623   6.353 -1.7496  1.6095  2.3370
  996MOL0     H37434   5.490   3.226   6.314 -0.0818  1.1660  0.2029
  996MOL0     H37435   5.309   3.137   6.167 -2.2996  2.3147 -1.0261
  996MOL0     H37436   4.886   3.287   6.237  0.1032  0.1935 -1.0411
  996MOL0     H37437   4.958   3.352   6.094 -2.8127 -0.0345 -0.4988
  996MOL0     H37438   4.869   3.074   6.069 -0.1915 -0.3678 -1.5463
  996MOL0     H37439   4.935   3.188   5.950  0.5966 -1.7637  0.9837
  996MOL0     H37440   4.670   3.235   6.109  1.0252 -0.4236  0.3201
  996MOL0     H37441   4.730   3.329   5.972  0.6017  0.3365 -0.9313
  996MOL0     H37442   4.674   3.022   5.941 -1.7767 -0.0352 -0.7734
  996MOL0     H37443   4.686   3.135   5.818  0.0358 -1.0622 -1.2002
  996MOL0     H37444   4.283   3.182   5.978 -0.1605 -1.1021 -0.1196
  996MOL0     H37445   5.032   3.359   6.395  0.3882 -1.7112  3.1672
  996MOL0     H37446   5.098   3.559   6.502  1.3392  1.7772 -0.8094
  996MOL0     H37447   5.151   3.465   6.637  2.3626  0.0509 -0.1616
  996MOL0     H37448   5.259   3.575   6.562  0.5517  0.2560 -1.2857
  997MOL0     O37449   8.690   2.629  10.192  0.4362  0.0016  1.1623
  997MOL0     C37450   8.803   2.682  10.183 -0.2386  0.1027  0.7945
  997MOL0     O37451   8.889   2.709  10.280  0.3209  0.3548  0.2243
  997MOL0     C37452   8.849   2.734  10.413 -0.5450 -0.8635 -0.2739
  997MOL0     C37453   8.722   2.770  10.456  0.3494 -0.6873 -0.2836
  997MOL0     C37454   8.689   2.776  10.589  0.7612 -0.2713 -0.3856
  997MOL0     C37455   8.792   2.768  10.682  0.4155 -0.4582 -1.2419
  997MOL0     O37456   8.775   2.777  10.822  0.1427  0.4202  0.8224
  997MOL0     C37457   8.669   2.850  10.871 -0.0348 -0.0153  0.7680
  997MOL0     C37458   8.704   2.905  11.009 -0.8113 -0.0413 -0.0478
  997MOL0     C37459   8.578   2.896  11.097  0.6708 -0.3390 -0.2375
  997MOL0     C37460   8.615   2.954  11.242  0.2898 -0.7208  0.2192
  997MOL0     C37461   8.527   2.917  11.355 -0.1812  0.3727 -0.2711
  997MOL0     C37462   8.539   2.994  11.483 -0.0889 -0.5585  0.0413
  997MOL0     C37463   8.640   2.951  11.586 -0.4287 -0.8175 -0.8970
  997MOL0     C37464   8.652   3.061  11.685  0.4274  0.4585 -0.1954
  997MOL0     N37465   8.736   3.022  11.804  0.1550 -0.3033 -0.2373
  997MOL0     C37466   8.872   3.041  11.814  0.4664  0.7732  0.4000
  997MOL0     C37467   8.915   2.973  11.926 -0.1022 -0.8288 -1.2938
  997MOL0     C37468   9.050   2.990  12.000 -0.4156 -0.5196 -0.3903
  997MOL0     C37469   9.076   2.882  12.108 -0.9877 -0.8950  0.9413
  997MOL0     C37470   9.188   2.905  12.207  0.2935  0.4498 -0.5283
  997MOL0     C37471   9.326   2.878  12.140  0.3368 -0.9323  0.4042
  997MOL0     O37472   9.438   2.903  12.233 -0.4405  0.2506  0.0985
  997MOL0     C37473   9.573   2.913  12.200 -0.5072  0.5187 -0.5628
  997MOL0     C37474   9.667   2.932  12.303 -0.8006 -0.8651  0.8102
  997MOL0     C37475   9.801   2.916  12.279 -0.3827  0.2708  0.0347
  997MOL0     C37476   9.894   2.938  12.400  0.0491 -0.8311 -0.5918
  997MOL0     C37477   9.855   2.889  12.148  1.1867 -0.5912  0.2406
  997MOL0     C37478   9.998   2.875  12.110 -0.2760 -0.0355  0.9227
  997MOL0     O37479  10.022   2.853  11.976  0.0480  0.7225 -0.4824
  997MOL0     C37480  10.147   2.831  11.949 -0.6282 -0.2825  0.4557
  997MOL0     C37481  10.235   2.932  11.924  0.4876 -0.8038 -0.2415
  997MOL0     C37482  10.361   2.909  11.875  0.4595  0.1604 -0.4032
  997MOL0     C37483  10.415   2.778  11.865 -0.2135  0.3081  0.6409
  997MOL0     O37484  10.538   2.753  11.817  0.4183 -0.0121 -0.3261
  997MOL0     C37485  10.559   2.618  11.761 -0.5370 -0.6448 -0.4459
  997MOL0     C37486  10.673   2.629  11.663  0.0535 -0.9575  0.1928
  997MOL0     C37487  10.682   2.507  11.567  0.0097 -0.7094 -0.1402
  997MOL0     C37488  10.830   2.467  11.536 -0.1406 -0.6644 -0.2367
  997MOL0     C37489  10.926   2.571  11.460 -0.2778 -0.6443 -0.2025
  997MOL0     C37490  11.081   2.539  11.459 -0.1247  0.1766  1.1214
  997MOL0     C37491  11.158   2.645  11.388 -0.2648 -0.1888 -0.0064
  997MOL0     C37492  11.300   2.644  11.442 -0.0261 -0.9071 -0.1676
  997MOL0    Cl37493  11.376   2.809  11.406  0.2752 -0.0764 -0.5350
  997MOL0     C37494  10.326   2.673  11.903 -0.4553  0.4508 -0.0329
  997MOL0     C37495  10.195   2.699  11.946  0.1056 -0.4570 -0.7258
  997MOL0     O37496  10.088   2.882  12.198 -0.1648 -0.5898  0.4845
  997MOL0     C37497   9.752   2.875  12.044 -0.5466  0.2300 -0.2110
  997MOL0     C37498   9.619   2.885  12.066  0.2456 -1.1515  0.4695
  997MOL0     N37499   8.803   2.901  11.967 -0.4354  0.2375 -0.1304
  997MOL0     N37500   8.697   2.927  11.895  0.1988 -0.1369  0.8652
  997MOL0     C37501   8.922   2.740  10.637  0.1757  0.5400  0.2066
  997MOL0     C37502   8.949   2.712  10.506 -0.1264  0.4947  0.0560
  997MOL0     C37503   8.854   2.687  10.045  0.0382  0.0852  0.2221
  997MOL0     C37504   8.969   2.608  10.020  0.0433  0.2213 -0.6668
  997MOL0     C37505   9.012   2.597   9.888  0.0513 -0.1196 -0.6169
  997MOL0     C37506   8.939   2.648   9.777  0.7189  0.3534 -0.0811
  997MOL0     O37507   8.982   2.634   9.643 -0.2338  0.0484 -0.0827
  997MOL0     C37508   9.054   2.753   9.610 -0.1729  0.6585 -0.4051
  997MOL0     C37509   9.193   2.749   9.670  0.2624 -0.3187 -1.1146
  997MOL0     C37510   9.277   2.620   9.629  0.4968  0.4350 -0.4753
  997MOL0     C37511   9.297   2.615   9.477 -0.2262  0.4044  0.8679
  997MOL0     C37512   9.384   2.505   9.457  0.0106  0.5988 -0.4177
  997MOL0     C37513   9.445   2.402   9.449 -0.2073  0.4054 -0.0013
  997MOL0     C37514   8.824   2.727   9.803 -0.9960 -0.0305  0.4194
  997MOL0     C37515   8.779   2.738   9.934 -0.3019 -0.7425  0.0708
  997MOL0     C37516   8.650   2.806   9.963 -0.3663 -0.6767  0.5660
  997MOL0     H37517   8.645   2.781  10.380  0.3970 -2.6118 -0.6710
  997MOL0     H37518   8.588   2.796  10.624  0.7644  0.1686 -0.6146
  997MOL0     H37519   8.579   2.787  10.871 -2.7351  3.4290 -2.0678
  997MOL0     H37520   8.649   2.937  10.809  1.5609 -0.2099 -0.0783
  997MOL0     H37521   8.787   2.853  11.056 -1.3681  0.0079  1.0270
  997MOL0     H37522   8.733   3.010  10.996  0.8224 -0.7228 -2.5318
  997MOL0     H37523   8.492   2.954  11.061 -0.3379 -1.8872 -0.4397
  997MOL0     H37524   8.551   2.790  11.103  1.7421 -0.7712 -2.2701
  997MOL0     H37525   8.717   2.930  11.271  0.9720 -0.7647 -1.9850
  997MOL0     H37526   8.612   3.064  11.242  2.7482 -0.4485  4.7525
  997MOL0     H37527   8.548   2.813  11.382  0.5491  1.5943  4.6817
  997MOL0     H37528   8.420   2.914  11.331 -0.4078  1.5694  0.5371
  997MOL0     H37529   8.538   3.101  11.464 -2.1818 -0.7883 -1.4717
  997MOL0     H37530   8.446   2.983  11.540  0.0785  1.3344  0.7682
  997MOL0     H37531   8.733   2.941  11.529  0.0277  0.1372 -0.3444
  997MOL0     H37532   8.619   2.857  11.637  1.6606 -1.9744 -2.0735
  997MOL0     H37533   8.685   3.149  11.629  1.7032 -0.4485 -0.9164
  997MOL0     H37534   8.550   3.084  11.718  1.0866  1.4956  1.2694
  997MOL0     H37535   8.934   3.103  11.749 -0.6600  1.0060 -0.4868
  997MOL0     H37536   9.056   3.087  12.049 -1.7227 -0.7738  0.3158
  997MOL0     H37537   9.122   2.996  11.918 -1.0891  0.6892 -0.9220
  997MOL0     H37538   8.982   2.876  12.163 -0.5578  0.1164  1.8125
  997MOL0     H37539   9.098   2.787  12.058 -0.0080 -0.3991  0.3982
  997MOL0     H37540   9.178   3.011  12.234 -1.2385  0.4064 -0.8112
  997MOL0     H37541   9.168   2.843  12.295  2.3533 -0.6464 -0.7767
  997MOL0     H37542   9.323   2.779  12.092 -3.2197 -0.2908 -1.0558
  997MOL0     H37543   9.338   2.952  12.060  0.5327 -0.5536  0.7827
  997MOL0     H37544   9.624   2.960  12.398 -4.2180  1.5836 -1.2091
  997MOL0     H37545   9.837   2.997  12.471 -0.0326  0.8120 -1.9542
  997MOL0     H37546   9.989   2.987  12.377  0.5207 -0.1668  2.4086
  997MOL0     H37547   9.934   2.845  12.443  0.5068 -0.6461 -0.6099
  997MOL0     H37548  10.190   3.028  11.948  1.8531 -0.5720  1.6376
  997MOL0     H37549  10.425   2.991  11.843 -1.4774  1.8015 -0.3148
  997MOL0     H37550  10.602   2.551  11.836 -1.4467 -1.9465 -1.0514
  997MOL0     H37551  10.475   2.575  11.705 -1.2361 -0.4331  0.4190
  997MOL0     H37552  10.658   2.718  11.601  0.3590  0.1346  1.6132
  997MOL0     H37553  10.770   2.634  11.715  0.3342 -3.9280  0.1057
  997MOL0     H37554  10.638   2.535  11.471  1.1352 -0.8551 -0.7209
  997MOL0     H37555  10.633   2.417  11.606  3.5610 -1.3819  3.3335
  997MOL0     H37556  10.819   2.386  11.464  2.6664 -0.8644 -0.5565
  997MOL0     H37557  10.889   2.432  11.622 -1.8103 -1.0068  0.8256
  997MOL0     H37558  10.886   2.585  11.359 -0.6168 -2.1083 -0.2870
  997MOL0     H37559  10.908   2.671  11.500  1.8875  0.4460 -1.7050
  997MOL0     H37560  11.104   2.451  11.399  1.9616  0.9692  0.6907
  997MOL0     H37561  11.119   2.516  11.559 -1.7783  1.5943  2.1583
  997MOL0     H37562  11.116   2.742  11.418 -0.1792  0.2047 -1.1259
  997MOL0     H37563  11.143   2.642  11.280 -3.0572  2.8111  0.1503
  997MOL0     H37564  11.360   2.566  11.394 -2.4915 -2.5754 -0.6919
  997MOL0     H37565  11.302   2.633  11.551  0.1714 -4.6650 -0.4089
  997MOL0     H37566  10.344   2.566  11.898 -0.9891  0.3643 -0.2110
  997MOL0     H37567  10.129   2.620  11.980 -0.5940 -0.3687 -1.8383
  997MOL0     H37568   9.782   2.849  11.943 -0.2206 -2.4023  0.5123
  997MOL0     H37569   9.552   2.850  11.988 -1.5709  2.1149  0.3904
  997MOL0     H37570   8.996   2.733  10.716  0.8218  0.7334 -0.3750
  997MOL0     H37571   9.043   2.668  10.475 -1.7732 -3.4685  0.1066
  997MOL0     H37572   9.020   2.575  10.110 -0.0955 -0.1699 -0.7312
  997MOL0     H37573   9.106   2.542   9.886 -0.9431 -2.0094  0.9431
  997MOL0     H37574   9.067   2.772   9.503 -0.7530  2.7577 -0.1527
  997MOL0     H37575   9.004   2.845   9.643 -1.8814 -0.0587 -0.8487
  997MOL0     H37576   9.179   2.755   9.778 -0.3215  0.6458 -1.2331
  997MOL0     H37577   9.246   2.838   9.633  1.1859 -0.6273 -0.5765
  997MOL0     H37578   9.376   2.620   9.674 -0.0249  1.4948  0.7127
  997MOL0     H37579   9.229   2.531   9.672  2.0155 -0.6378 -0.9137
  997MOL0     H37580   9.336   2.711   9.445 -2.8785  2.1847  2.5865
  997MOL0     H37581   9.209   2.597   9.414 -0.5621  0.1410  1.4019
  997MOL0     H37582   9.493   2.308   9.433 -0.1509  0.5052 -0.4357
  997MOL0     H37583   8.765   2.774   9.726 -1.5833 -1.3515  0.0336
  997MOL0     H37584   8.676   2.871  10.047 -1.5423  1.5984 -0.7109
  997MOL0     H37585   8.603   2.866   9.884  0.0703 -0.9154  0.1224
  997MOL0     H37586   8.568   2.740   9.993 -1.1423  0.6651  1.4954
  998MOL0     O37587   0.638   6.910   7.810 -0.3802 -0.4200 -0.3270
  998MOL0     C37588   0.580   7.017   7.812  0.3123  0.7429 -0.2196
  998MOL0     O37589   0.636   7.134   7.796 -0.4510 -0.4667  0.5665
  998MOL0     C37590   0.773   7.146   7.795  0.5924 -0.3062 -0.4986
  998MOL0     C37591   0.831   7.116   7.669  0.5134  0.0124 -0.2006
  998MOL0     C37592   0.970   7.140   7.666 -0.2851 -0.3754  0.6588
  998MOL0     C37593   1.050   7.182   7.777 -0.3248  0.4657  0.3577
  998MOL0     O37594   1.183   7.205   7.772 -1.0196 -0.4695  0.3324
  998MOL0     C37595   1.250   7.255   7.656 -0.1673 -0.3696 -0.3166
  998MOL0     C37596   1.393   7.294   7.685 -0.1560  0.2847 -0.9914
  998MOL0     C37597   1.416   7.391   7.812 -0.3709 -0.0883 -0.6803
  998MOL0     C37598   1.556   7.460   7.802  0.4043 -0.1630  0.2335
  998MOL0     C37599   1.590   7.565   7.919  0.3147 -0.2194 -0.4644
  998MOL0     C37600   1.725   7.640   7.902  0.0723  0.3546 -0.2131
  998MOL0     C37601   1.762   7.721   8.021 -0.0687 -0.7617 -0.7414
  998MOL0     C37602   1.880   7.808   7.989 -0.2939  0.0878 -0.5493
  998MOL0     N37603   1.939   7.884   8.100 -0.3355 -0.0887  0.2429
  998MOL0     C37604   1.987   7.819   8.216  0.0691  0.0275  0.4286
  998MOL0     C37605   2.069   7.913   8.279  0.3348 -0.4614  0.1120
  998MOL0     C37606   2.140   7.876   8.414  1.1033 -0.0356  0.3251
  998MOL0     C37607   2.290   7.907   8.423  0.2287  0.7518  0.6756
  998MOL0     C37608   2.315   8.057   8.460  0.0173  0.4528 -0.2077
  998MOL0     C37609   2.467   8.098   8.462 -0.2264 -0.2352  0.0290
  998MOL0     O37610   2.527   8.014   8.564 -0.5479  0.7546 -0.6980
  998MOL0     C37611   2.654   8.038   8.604 -0.0625  0.5379 -0.3543
  998MOL0     C37612   2.739   8.129   8.553  0.5449 -0.4606  0.6804
  998MOL0     C37613   2.864   8.156   8.604  0.4707  0.2329  0.4165
  998MOL0     C37614   2.943   8.264   8.539 -0.4005 -0.0785  0.9021
  998MOL0     C37615   2.925   8.062   8.696  0.6110  0.5489  0.8320
  998MOL0     C37616   3.067   8.058   8.744 -0.0449  0.8520  0.7291
  998MOL0     O37617   3.084   7.975   8.853 -0.1858 -0.4274 -0.3959
  998MOL0     C37618   3.216   7.957   8.879 -0.8578  0.2285 -0.6764
  998MOL0     C37619   3.298   7.861   8.827 -0.0887  0.5513 -0.0768
  998MOL0     C37620   3.437   7.850   8.858  0.8792  0.5391 -0.3444
  998MOL0     C37621   3.491   7.941   8.947 -0.2276 -0.8174 -0.6406
  998MOL0     O37622   3.625   7.919   8.988  0.2769 -0.7741  1.2116
  998MOL0     C37623   3.675   7.966   9.115 -1.2887 -0.0645  0.0477
  998MOL0     C37624   3.767   7.858   9.188  0.5276  0.4179  0.4849
  998MOL0     C37625   3.693   7.722   9.206  0.3293 -0.3825 -0.2118
  998MOL0     C37626   3.774   7.633   9.296  0.3402  0.4080  0.0863
  998MOL0     C37627   3.895   7.564   9.252 -0.1542  0.3276 -1.0287
  998MOL0     C37628   3.941   7.451   9.345 -0.1818  0.0005 -0.8717
  998MOL0     C37629   4.007   7.333   9.267 -0.1629  0.2001  0.4054
  998MOL0     C37630   3.913   7.272   9.164 -0.5787 -0.3309 -0.1473
  998MOL0    Cl37631   3.785   7.183   9.266 -0.3180 -0.4794 -0.0781
  998MOL0     C37632   3.408   8.041   9.006  0.0730  0.9482  0.5328
  998MOL0     C37633   3.271   8.031   8.980 -1.0754 -0.7857 -0.1632
  998MOL0     O37634   3.156   8.137   8.705  0.3652 -0.0030 -0.1855
  998MOL0     C37635   2.844   7.948   8.726  0.1271 -0.5678 -0.5339
  998MOL0     C37636   2.704   7.945   8.692  0.0814  0.6379  0.0323
  998MOL0     N37637   2.078   8.022   8.190 -0.7749 -0.4736  0.4953
  998MOL0     N37638   2.009   7.999   8.081 -0.3623  0.5001 -0.7967
  998MOL0     C37639   0.983   7.199   7.895 -0.6858  0.4049 -0.4426
  998MOL0     C37640   0.846   7.181   7.903 -0.7064 -0.1671 -0.2955
  998MOL0     C37641   0.437   6.989   7.821 -0.1289  0.0486  0.5054
  998MOL0     C37642   0.383   6.866   7.766 -0.8668  0.0172 -0.5100
  998MOL0     C37643   0.242   6.847   7.786 -0.4606  0.7683  1.1492
  998MOL0     C37644   0.155   6.943   7.850  0.7756  0.6727 -0.2339
  998MOL0     O37645   0.028   6.892   7.875 -0.5656 -0.4449 -0.0375
  998MOL0     C37646  -0.041   6.936   7.996  0.2730  1.0095 -0.1060
  998MOL0     C37647  -0.113   6.823   8.052  0.4002  1.1777 -0.3463
  998MOL0     C37648  -0.256   6.791   7.999  0.0953 -0.4058 -0.4383
  998MOL0     C37649  -0.338   6.685   8.076 -0.6551 -0.1162 -0.0061
  998MOL0     C37650  -0.403   6.741   8.202 -0.4639 -0.8450  0.2421
  998MOL0     C37651  -0.455   6.772   8.307  0.0603  0.6735  0.3624
  998MOL0     C37652   0.214   7.060   7.904  0.3934 -0.7349 -0.2272
  998MOL0     C37653   0.354   7.086   7.895  0.8436 -0.4734  0.0580
  998MOL0     C37654   0.401   7.205   7.969 -0.2501 -0.4410 -0.8978
  998MOL0     H37655   0.780   7.058   7.593  1.6216 -1.0681 -0.1676
  998MOL0     H37656   1.017   7.125   7.569 -1.6257 -1.9091  0.1898
  998MOL0     H37657   1.194   7.338   7.613  2.2247  1.1635 -0.6736
  998MOL0     H37658   1.257   7.173   7.584 -2.4600 -0.7121 -0.2037
  998MOL0     H37659   1.447   7.200   7.702 -1.6578 -0.5198 -0.5648
  998MOL0     H37660   1.433   7.346   7.597  2.7022  0.9188  0.5317
  998MOL0     H37661   1.340   7.469   7.805  2.1601  2.5150 -0.8332
  998MOL0     H37662   1.402   7.332   7.904 -1.6157  1.1947 -0.0033
  998MOL0     H37663   1.625   7.375   7.797 -0.6057 -0.9252 -1.1458
  998MOL0     H37664   1.557   7.504   7.702 -3.1265 -0.9997 -0.3007
  998MOL0     H37665   1.586   7.512   8.015  1.4552 -3.2883 -1.9883
  998MOL0     H37666   1.506   7.635   7.923 -0.3460 -1.0142  0.0550
  998MOL0     H37667   1.809   7.575   7.876  0.6973  1.2854 -0.5751
  998MOL0     H37668   1.712   7.712   7.821 -6.0263  1.3102  1.1387
  998MOL0     H37669   1.788   7.647   8.098 -0.5739  3.2703  3.8473
  998MOL0     H37670   1.678   7.776   8.064 -0.0097 -0.7409 -0.6506
  998MOL0     H37671   1.955   7.754   7.931 -0.9105  0.9187 -2.1981
  998MOL0     H37672   1.841   7.873   7.909 -1.5670 -1.9176 -1.6368
  998MOL0     H37673   1.956   7.719   8.244 -3.1936  0.6598 -0.5204
  998MOL0     H37674   2.124   7.772   8.445  1.1743 -0.1196  0.0881
  998MOL0     H37675   2.100   7.941   8.492  0.6993 -0.3035  0.3427
  998MOL0     H37676   2.331   7.845   8.504 -2.6029 -3.0900 -0.5594
  998MOL0     H37677   2.340   7.896   8.327 -3.2381  1.0147 -1.3083
  998MOL0     H37678   2.268   8.104   8.374  0.7148 -0.9064 -1.3715
  998MOL0     H37679   2.259   8.077   8.552 -2.4001 -0.6973 -1.3232
  998MOL0     H37680   2.509   8.082   8.362  0.7290 -1.3044  0.5812
  998MOL0     H37681   2.483   8.202   8.494  2.3954 -0.1217 -1.3567
  998MOL0     H37682   2.702   8.192   8.473  0.4827 -3.1542 -1.5714
  998MOL0     H37683   3.007   8.218   8.462 -1.1297 -1.9743  1.3663
  998MOL0     H37684   3.000   8.311   8.620 -1.3142  1.8665  0.4664
  998MOL0     H37685   2.875   8.339   8.497  0.5055 -0.7788 -2.0866
  998MOL0     H37686   3.251   7.790   8.760  0.4930 -0.5421  0.6399
  998MOL0     H37687   3.497   7.769   8.816 -0.0417 -0.0378 -0.5714
  998MOL0     H37688   3.724   8.063   9.104 -0.3722 -0.3143  1.5801
  998MOL0     H37689   3.601   7.988   9.193  1.4590  2.6799  2.1368
  998MOL0     H37690   3.850   7.830   9.123 -1.7591  1.3889 -3.1659
  998MOL0     H37691   3.805   7.910   9.276  0.7262  1.1974 -0.0505
  998MOL0     H37692   3.665   7.676   9.111  0.0789 -0.1138 -0.2693
  998MOL0     H37693   3.607   7.743   9.271  0.5470 -0.4122  0.0906
  998MOL0     H37694   3.704   7.554   9.324 -1.1156  1.5507 -0.2373
  998MOL0     H37695   3.805   7.683   9.389  0.5308 -0.4564  0.4928
  998MOL0     H37696   3.860   7.525   9.156 -2.8289  0.7067 -0.2727
  998MOL0     H37697   3.980   7.631   9.237  1.6061 -2.2643 -3.9744
  998MOL0     H37698   3.861   7.402   9.402  1.4937 -0.8636  0.8156
  998MOL0     H37699   4.006   7.492   9.422 -0.2483 -1.5004  0.0130
  998MOL0     H37700   4.055   7.259   9.333  0.1608  0.3907  0.3884
  998MOL0     H37701   4.092   7.365   9.206 -0.5291 -2.1216 -1.4666
  998MOL0     H37702   3.971   7.200   9.105 -0.6646  0.8267 -1.7081
  998MOL0     H37703   3.874   7.345   9.092 -0.4585 -0.2552 -0.1377
  998MOL0     H37704   3.448   8.120   9.069  0.4636  1.2047 -0.0271
  998MOL0     H37705   3.225   8.119   9.024 -1.9362 -1.2791 -0.0596
  998MOL0     H37706   2.886   7.872   8.791 -0.3336  0.5604  1.1364
  998MOL0     H37707   2.645   7.864   8.733  1.1995 -0.2655 -0.0848
  998MOL0     H37708   1.044   7.213   7.984 -1.7248 -0.3978  0.4117
  998MOL0     H37709   0.794   7.201   7.996 -0.5783 -1.3413  0.0454
  998MOL0     H37710   0.443   6.793   7.713  1.6333  0.8694  0.9885
  998MOL0     H37711   0.213   6.744   7.767  0.0159  0.4679  1.9833
  998MOL0     H37712   0.017   6.991   8.071 -0.9032  2.7196 -0.3659
  998MOL0     H37713  -0.127   6.999   7.970 -0.7554 -0.5929 -0.7598
  998MOL0     H37714  -0.134   6.831   8.159 -0.6392 -0.8794 -0.3504
  998MOL0     H37715  -0.051   6.732   8.052 -0.1967  0.7378  1.0990
  998MOL0     H37716  -0.325   6.876   7.994 -0.1920 -0.4751  1.4893
  998MOL0     H37717  -0.241   6.748   7.900 -0.3515 -1.9257  0.1249
  998MOL0     H37718  -0.265   6.608   8.104  0.5557  1.2774  0.8510
  998MOL0     H37719  -0.415   6.651   8.007  0.6680 -2.9697 -0.2444
  998MOL0     H37720  -0.489   6.807   8.402 -0.1503 -0.5262  0.7446
  998MOL0     H37721   0.145   7.130   7.950 -1.1034 -1.6418 -0.9964
  998MOL0     H37722   0.507   7.203   7.995 -0.3695  1.4438 -0.1099
  998MOL0     H37723   0.384   7.302   7.923 -1.3605 -0.2148 -0.0638
  998MOL0     H37724   0.348   7.215   8.064  0.7269  0.2793 -0.4047
  999MOL0     O37725   7.413  11.008   3.309 -0.7022  0.6201  0.9022
  999MOL0     C37726   7.459  11.049   3.412  0.7395 -0.2241 -0.1338
  999MOL0     O37727   7.589  11.041   3.446  0.4567  0.0652  0.3569
  999MOL0     C37728   7.685  10.982   3.369 -0.5362 -0.4182 -0.4217
  999MOL0     C37729   7.656  10.866   3.302 -0.1678  0.1955 -0.1954
  999MOL0     C37730   7.759  10.803   3.240  0.2159  0.1062 -0.3876
  999MOL0     C37731   7.893  10.852   3.244  0.3873 -0.3662 -0.3317
  999MOL0     O37732   7.995  10.810   3.167  1.3368 -0.4281  0.1809
  999MOL0     C37733   7.962  10.760   3.039 -0.2095 -0.4745 -0.3479
  999MOL0     C37734   7.970  10.609   3.041 -0.0039 -0.6433  0.2337
  999MOL0     C37735   8.103  10.553   3.029 -0.6289 -0.5705 -0.0229
  999MOL0     C37736   8.086  10.409   2.974 -0.9880  0.2978  0.4075
  999MOL0     C37737   8.225  10.330   2.962 -1.2185 -0.6081  0.2943
  999MOL0     C37738   8.315  10.384   2.852 -0.4734 -0.5979 -0.0496
  999MOL0     C37739   8.458  10.322   2.870 -0.1556  0.4085 -0.5343
  999MOL0     C37740   8.551  10.312   2.749 -0.0811  0.4513 -0.3317
  999MOL0     N37741   8.683  10.268   2.773 -0.0178 -0.0303 -0.0601
  999MOL0     C37742   8.724  10.141   2.772  0.1519  0.0763  0.2884
  999MOL0     C37743   8.856  10.147   2.769  0.0940 -0.4510 -0.3019
  999MOL0     C37744   8.955  10.033   2.741 -0.3211  0.1854  0.1729
  999MOL0     C37745   9.063  10.038   2.854 -0.7877 -0.5320 -0.1077
  999MOL0     C37746   9.015  10.010   2.998 -0.2747 -0.3343 -0.5073
  999MOL0     C37747   8.920   9.888   3.004  1.0115 -0.2166 -0.0638
  999MOL0     O37748   8.980   9.770   2.948  0.2491  0.2397 -0.2063
  999MOL0     C37749   9.083   9.701   3.015 -0.0924 -0.5852 -0.1229
  999MOL0     C37750   9.125   9.582   2.961 -1.0097 -0.7462  0.0245
  999MOL0     C37751   9.225   9.500   3.014  0.7888 -0.8037  1.5866
  999MOL0     C37752   9.264   9.379   2.936  0.5190 -0.0851 -0.0323
  999MOL0     C37753   9.276   9.532   3.135 -0.8131  0.0091  0.2146
  999MOL0     C37754   9.376   9.451   3.201  0.0252  1.2863  0.2665
  999MOL0     O37755   9.478   9.523   3.262  0.0972  0.2347 -0.0369
  999MOL0     C37756   9.585   9.450   3.298 -0.2956 -0.2014  0.4177
  999MOL0     C37757   9.677   9.402   3.201  0.6567  0.0695  0.4957
  999MOL0     C37758   9.787   9.322   3.233  0.2646  0.8358 -0.1171
  999MOL0     C37759   9.805   9.267   3.368 -0.3046  0.2760  0.2998
  999MOL0     O37760   9.908   9.175   3.395  0.6493 -0.7688 -0.8475
  999MOL0     C37761  10.008   9.156   3.305 -0.1065  0.6822 -0.4174
  999MOL0     C37762  10.127   9.085   3.367  0.3211  0.8508 -0.6534
  999MOL0     C37763  10.239   9.029   3.278  0.6447 -0.1949  0.6286
  999MOL0     C37764  10.191   8.922   3.176  0.1079  0.4586 -0.4441
  999MOL0     C37765  10.306   8.889   3.087  0.7389 -0.1416 -0.2080
  999MOL0     C37766  10.253   8.778   2.996 -0.3544 -0.3900  0.2414
  999MOL0     C37767  10.374   8.730   2.910  0.4534 -0.2261 -0.1734
  999MOL0     C37768  10.486   8.650   2.980  0.3241 -0.1376  0.3253
  999MOL0    Cl37769  10.414   8.519   3.089 -0.2452 -0.2023 -0.3602
  999MOL0     C37770   9.711   9.323   3.467  0.6768 -0.1227 -0.2148
  999MOL0     C37771   9.609   9.411   3.429 -1.2050  1.8577 -1.4406
  999MOL0     O37772   9.372   9.325   3.192 -0.8444  0.4248  0.3492
  999MOL0     C37773   9.245   9.657   3.190 -0.5781  0.0328  0.5349
  999MOL0     C37774   9.140   9.733   3.137 -0.1365  0.1844  0.6278
  999MOL0     N37775   8.897  10.277   2.758  0.4417 -0.5626 -0.2379
  999MOL0     N37776   8.790  10.345   2.778 -0.1898  0.1636 -0.5426
  999MOL0     C37777   7.915  10.958   3.328  0.0649  0.6693 -0.0633
  999MOL0     C37778   7.820  11.024   3.403 -0.8644 -1.1464 -0.4387
  999MOL0     C37779   7.359  11.093   3.513  0.3944  0.0930 -0.2250
  999MOL0     C37780   7.395  11.082   3.642 -0.0826 -0.0015 -0.1964
  999MOL0     C37781   7.320  11.137   3.745 -0.4705 -0.1060  0.6581
  999MOL0     C37782   7.205  11.210   3.719  0.0387 -0.1974 -0.2547
  999MOL0     O37783   7.128  11.272   3.807  0.3583  0.4760  0.1381
  999MOL0     C37784   7.152  11.252   3.950  0.6825 -0.7636  0.6985
  999MOL0     C37785   7.068  11.340   4.047 -0.8190 -0.5711  1.1167
  999MOL0     C37786   6.923  11.327   4.028 -0.0160  0.4193 -0.5372
  999MOL0     C37787   6.863  11.197   4.082  0.3486  0.8206 -0.2509
  999MOL0     C37788   6.811  11.226   4.218 -0.4841  0.4256 -0.3691
  999MOL0     C37789   6.759  11.241   4.325  0.2705 -0.5505  0.4573
  999MOL0     C37790   7.165  11.225   3.584  0.2613  0.6151 -1.1725
  999MOL0     C37791   7.244  11.170   3.484 -0.4517 -0.5094 -0.4156
  999MOL0     C37792   7.214  11.215   3.340  1.1428 -0.2250 -0.7584
  999MOL0     H37793   7.556  10.824   3.301  0.5999 -1.7439 -1.7585
  999MOL0     H37794   7.729  10.715   3.184  0.9851 -2.0514  2.3722
  999MOL0     H37795   8.037  10.791   2.965 -1.9978 -0.0076 -2.0197
  999MOL0     H37796   7.866  10.784   2.993 -2.0547 -2.4331  2.1713
  999MOL0     H37797   7.907  10.571   3.122 -1.1329  0.3669 -0.1283
  999MOL0     H37798   7.915  10.568   2.956  1.6396 -0.5144 -0.9337
  999MOL0     H37799   8.158  10.613   2.956 -1.5127  2.2711  1.5114
  999MOL0     H37800   8.155  10.551   3.126  0.8176  4.1468 -0.4370
  999MOL0     H37801   8.018  10.345   3.031  0.8135 -0.8456  1.3713
  999MOL0     H37802   8.045  10.412   2.873 -2.1971  2.0623  0.8998
  999MOL0     H37803   8.202  10.224   2.944 -0.7335 -0.7389  0.4351
  999MOL0     H37804   8.278  10.321   3.057  0.1622  1.9234 -0.1582
  999MOL0     H37805   8.278  10.356   2.753  1.8107  0.9226 -1.4318
  999MOL0     H37806   8.321  10.493   2.852 -1.1683 -0.5258  1.8425
  999MOL0     H37807   8.442  10.221   2.909 -1.0549  1.2500  1.4063
  999MOL0     H37808   8.516  10.375   2.946 -0.5952  1.7961 -1.1480
  999MOL0     H37809   8.511  10.234   2.683  2.1204 -0.9265 -0.1361
  999MOL0     H37810   8.545  10.407   2.694 -3.4031  1.5103  1.5556
  999MOL0     H37811   8.673  10.047   2.757  1.0998 -0.3734 -0.1894
  999MOL0     H37812   9.015  10.054   2.652  1.4205  1.3946  1.5341
  999MOL0     H37813   8.911   9.934   2.733  0.8357 -0.3083 -0.3909
  999MOL0     H37814   9.142   9.965   2.836 -0.1715  0.2694 -0.7978
  999MOL0     H37815   9.105  10.140   2.851 -1.6521 -0.1869 -1.3354
  999MOL0     H37816   9.103  10.002   3.063 -0.2257  0.5750 -0.4561
  999MOL0     H37817   8.956  10.094   3.034 -0.6343 -1.3063  1.3187
  999MOL0     H37818   8.889   9.878   3.109  0.1838  0.5100 -0.2303
  999MOL0     H37819   8.830   9.914   2.949  1.0558 -0.0414 -0.0534
  999MOL0     H37820   9.083   9.548   2.867  0.2468 -1.0963 -0.4360
  999MOL0     H37821   9.215   9.287   2.971  1.5182 -1.0722 -1.1011
  999MOL0     H37822   9.372   9.364   2.940  0.7557  1.5889  0.4449
  999MOL0     H37823   9.241   9.394   2.830 -1.6731  1.9071  0.6539
  999MOL0     H37824   9.663   9.416   3.094  2.5616 -1.0761  0.0478
  999MOL0     H37825   9.857   9.293   3.156 -0.4785 -1.2288 -0.0612
  999MOL0     H37826   9.983   9.087   3.225  1.5312 -2.7842  1.7919
  999MOL0     H37827  10.039   9.253   3.266  0.7051  1.2577  1.5167
  999MOL0     H37828  10.172   9.161   3.431  2.6835 -0.4262 -0.6553
  999MOL0     H37829  10.084   9.009   3.433 -0.4525  0.6762 -1.3419
  999MOL0     H37830  10.309   8.983   3.349  1.6656  1.0670  0.4790
  999MOL0     H37831  10.287   9.112   3.225 -0.5847 -0.5463 -1.1127
  999MOL0     H37832  10.113   8.965   3.112 -0.4709 -1.4128 -1.0503
  999MOL0     H37833  10.143   8.837   3.224 -0.2692 -0.5198 -2.4500
  999MOL0     H37834  10.332   8.961   3.009  2.2078  0.1362  0.5077
  999MOL0     H37835  10.395   8.862   3.145 -0.6930  0.6815  2.5419
  999MOL0     H37836  10.166   8.815   2.940 -0.5343 -2.3963 -0.8759
  999MOL0     H37837  10.213   8.697   3.058 -0.8272 -2.0408 -2.1058
  999MOL0     H37838  10.419   8.817   2.861  0.5346 -0.8504 -1.2480
  999MOL0     H37839  10.329   8.675   2.827 -0.3347  0.6543 -0.3463
  999MOL0     H37840  10.557   8.719   3.025 -0.8269  1.9610 -0.9200
  999MOL0     H37841  10.541   8.594   2.905 -0.1261  1.1046 -0.9758
  999MOL0     H37842   9.735   9.286   3.566  2.9740  1.2331 -0.1850
  999MOL0     H37843   9.532   9.443   3.498 -0.5277  1.1030 -0.2981
  999MOL0     H37844   9.284   9.697   3.283  0.2543 -1.6402  0.9376
  999MOL0     H37845   9.097   9.818   3.189 -2.8769 -0.9671  0.3917
  999MOL0     H37846   8.018  10.988   3.341 -0.7993  2.7126  3.7120
  999MOL0     H37847   7.841  11.112   3.463 -2.5079  0.4959 -2.1161
  999MOL0     H37848   7.487  11.034   3.674 -0.2685 -0.0681  0.2427
  999MOL0     H37849   7.339  11.122   3.851 -1.2100  1.6028  1.0720
  999MOL0     H37850   7.139  11.147   3.976 -1.4363 -0.5221  0.7764
  999MOL0     H37851   7.257  11.277   3.969  0.6169 -1.0258  1.4473
  999MOL0     H37852   7.104  11.444   4.045  0.0822 -0.8778 -0.0389
  999MOL0     H37853   7.092  11.304   4.147  0.4883 -3.0397  0.0013
  999MOL0     H37854   6.881  11.420   4.068  0.4283  0.6380 -0.5685
  999MOL0     H37855   6.910  11.336   3.920  3.7610  0.6164 -1.1293
  999MOL0     H37856   6.942  11.122   4.089 -0.3542  0.1411  0.6361
  999MOL0     H37857   6.787  11.153   4.017 -0.4356 -0.2631  1.3374
  999MOL0     H37858   6.707  11.265   4.416 -3.7579 -1.9147 -1.3028
  999MOL0     H37859   7.072  11.277   3.565  0.0631  0.5131 -0.5220
  999MOL0     H37860   7.127  11.279   3.354  0.3301 -1.8760  3.3662
  999MOL0     H37861   7.298  11.274   3.301 -0.4809  2.0935 -0.9044
  999MOL0     H37862   7.192  11.132   3.272 -1.7077  0.3630 -0.6606
 1000MOL0     O37863   9.926   2.924  11.194 -0.5807 -0.2145  0.3632
 1000MOL0     C37864   9.910   2.906  11.075  0.8054 -0.3216 -0.3474
 1000MOL0     O37865   9.804   2.837  11.023  0.0429 -0.2785 -0.2617
 1000MOL0     C37866   9.715   2.779  11.113 -0.1983 -0.6727 -0.4397
 1000MOL0     C37867   9.752   2.691  11.215  0.4020  0.5893 -1.0267
 1000MOL0     C37868   9.655   2.629  11.297 -0.1457  0.1348 -0.9666
 1000MOL0     C37869   9.519   2.668  11.282 -0.4888  0.1485  0.4822
 1000MOL0     O37870   9.427   2.647  11.385  0.2053  0.0281 -0.1082
 1000MOL0     C37871   9.395   2.506  11.399  0.3218  0.4389  0.5598
 1000MOL0     C37872   9.330   2.471  11.531  0.4863  0.2161  0.2867
 1000MOL0     C37873   9.416   2.500  11.652  0.1689  0.0991  0.6068
 1000MOL0     C37874   9.338   2.446  11.779 -0.8115 -0.2466  0.4162
 1000MOL0     C37875   9.396   2.500  11.912 -0.7833  0.7207 -0.4233
 1000MOL0     C37876   9.546   2.463  11.920  0.5073 -0.0212 -0.5834
 1000MOL0     C37877   9.616   2.490  12.060  0.6992  0.7035  0.4130
 1000MOL0     C37878   9.766   2.460  12.047  0.0723 -0.5795  0.3083
 1000MOL0     N37879   9.809   2.325  12.061  0.3371  0.2002  0.2344
 1000MOL0     C37880   9.896   2.279  12.163  0.4607 -0.7006  0.8993
 1000MOL0     C37881   9.907   2.142  12.151  0.4316 -1.0331 -0.4453
 1000MOL0     C37882   9.979   2.049  12.242  0.5454  0.0814  0.0029
 1000MOL0     C37883  10.099   2.127  12.314  0.6446  0.3626 -0.0412
 1000MOL0     C37884  10.182   2.035  12.409  1.1329 -0.8925  0.4198
 1000MOL0     C37885  10.272   2.114  12.503  0.1334 -0.0940 -0.5851
 1000MOL0     O37886  10.374   2.019  12.539 -0.2846  0.3020  0.5931
 1000MOL0     C37887  10.493   2.067  12.587 -0.5884 -0.4026  0.7747
 1000MOL0     C37888  10.532   2.196  12.624  0.1928  0.1688  0.7828
 1000MOL0     C37889  10.658   2.219  12.681  0.8640  0.1229 -0.1537
 1000MOL0     C37890  10.695   2.365  12.701 -0.1518 -0.0538 -0.2024
 1000MOL0     C37891  10.742   2.107  12.709  0.0616  0.2640 -0.9519
 1000MOL0     C37892  10.871   2.120  12.777  0.4659 -0.0516  0.0204
 1000MOL0     O37893  10.917   2.240  12.818 -0.3201  0.1327 -0.5070
 1000MOL0     C37894  11.046   2.250  12.860 -0.4173 -0.3406 -0.2066
 1000MOL0     C37895  11.085   2.197  12.984 -0.6975  0.6739 -0.0935
 1000MOL0     C37896  11.222   2.205  13.025  0.3543  0.1178 -0.6806
 1000MOL0     C37897  11.314   2.276  12.949  0.3813  0.2939 -0.2893
 1000MOL0     O37898  11.441   2.296  13.002  0.3129  0.7479  0.8005
 1000MOL0     C37899  11.550   2.340  12.915  0.2934 -0.5204  0.2542
 1000MOL0     C37900  11.664   2.401  12.998 -0.0587  0.8208  0.3661
 1000MOL0     C37901  11.620   2.545  13.011  0.4047  0.4612  0.2662
 1000MOL0     C37902  11.736   2.628  13.069 -0.0047 -0.9799 -0.3944
 1000MOL0     C37903  11.710   2.775  13.034 -0.1757  0.5264 -0.4745
 1000MOL0     C37904  11.802   2.859  13.120  0.8418  0.4178 -0.5437
 1000MOL0     C37905  11.755   2.887  13.266  0.0365 -0.6141 -0.3920
 1000MOL0     C37906  11.622   2.951  13.271  0.2579 -0.6987  0.0229
 1000MOL0    Cl37907  11.598   3.018  13.439  0.1348  0.1098 -0.2648
 1000MOL0     C37908  11.267   2.323  12.824  0.7985 -1.4748 -0.2008
 1000MOL0     C37909  11.139   2.311  12.782  0.1600  0.8976  0.2866
 1000MOL0     O37910  10.935   2.013  12.783  0.2960 -0.8067 -0.0784
 1000MOL0     C37911  10.701   1.977  12.658 -0.7626  0.5672 -0.1658
 1000MOL0     C37912  10.579   1.964  12.598 -0.1319 -0.3265 -0.9436
 1000MOL0     N37913   9.820   2.111  12.046 -0.5496  0.6228 -0.0176
 1000MOL0     N37914   9.768   2.213  11.990 -0.1828 -0.7053 -0.2437
 1000MOL0     C37915   9.483   2.745  11.177  0.5273 -0.7498 -0.0542
 1000MOL0     C37916   9.582   2.800  11.087  0.5530 -0.9318 -0.5238
 1000MOL0     C37917  10.002   2.949  10.974 -0.0064 -0.2484 -0.5136
 1000MOL0     C37918   9.952   2.971  10.847 -0.4451  0.0787 -0.9430
 1000MOL0     C37919  10.038   3.004  10.742  0.1260 -0.4226  0.1022
 1000MOL0     C37920  10.172   3.020  10.772 -0.3196  0.3970 -0.2811
 1000MOL0     O37921  10.244   3.052  10.654 -0.3670  0.3938 -0.1721
 1000MOL0     C37922  10.370   3.118  10.667 -0.7023  0.3749  0.0882
 1000MOL0     C37923  10.482   3.005  10.683  0.0994 -0.6645  0.3721
 1000MOL0     C37924  10.626   3.050  10.653 -0.1885 -0.1952  0.0886
 1000MOL0     C37925  10.672   3.176  10.735  0.0278 -0.5493  0.9293
 1000MOL0     C37926  10.670   3.169  10.878  0.2361  0.0903 -0.5368
 1000MOL0     C37927  10.669   3.158  10.998 -0.5273 -0.3883 -0.1483
 1000MOL0     C37928  10.220   3.026  10.906  0.9566 -0.3325  0.4915
 1000MOL0     C37929  10.135   2.985  11.010  0.6295 -0.3474  0.0179
 1000MOL0     C37930  10.185   3.004  11.146 -0.3309  0.3604  0.3980
 1000MOL0     H37931   9.854   2.656  11.226 -0.0193  0.1139  2.0882
 1000MOL0     H37932   9.674   2.567  11.383 -2.7242 -0.7112 -0.9121
 1000MOL0     H37933   9.484   2.444  11.396  2.6859  3.6114 -0.0986
 1000MOL0     H37934   9.325   2.469  11.324 -0.1641  0.8207  0.8151
 1000MOL0     H37935   9.239   2.529  11.547 -0.6173 -1.9329  2.4161
 1000MOL0     H37936   9.311   2.365  11.513 -0.0890  0.3520  0.0917
 1000MOL0     H37937   9.512   2.448  11.648 -0.9946 -2.6066  3.5250
 1000MOL0     H37938   9.443   2.606  11.654  0.4169  0.0295  1.2960
 1000MOL0     H37939   9.231   2.467  11.776 -0.6570  0.5680  0.4146
 1000MOL0     H37940   9.346   2.337  11.775 -0.3838 -0.2001 -0.0954
 1000MOL0     H37941   9.350   2.448  11.996  0.7644 -0.6704 -0.3803
 1000MOL0     H37942   9.397   2.608  11.925  2.7137  1.0020 -1.7170
 1000MOL0     H37943   9.565   2.357  11.901 -0.6610 -0.2335 -0.6060
 1000MOL0     H37944   9.605   2.515  11.843  3.3739 -2.6114 -0.3172
 1000MOL0     H37945   9.568   2.439  12.144 -1.3708  0.1824 -0.9870
 1000MOL0     H37946   9.602   2.598  12.071 -1.3762  0.4912  0.4037
 1000MOL0     H37947   9.803   2.506  11.955  0.0215 -1.7676 -0.3315
 1000MOL0     H37948   9.815   2.507  12.133  0.5256  0.9310 -0.7460
 1000MOL0     H37949   9.967   2.331  12.226  0.4414  0.2032  0.2003
 1000MOL0     H37950  10.012   1.974  12.169  1.8078  1.4159 -0.8750
 1000MOL0     H37951   9.909   2.006  12.313 -2.1585 -0.0792 -2.5592
 1000MOL0     H37952  10.162   2.170  12.235 -0.5013 -1.8954 -2.3210
 1000MOL0     H37953  10.050   2.213  12.362 -1.0607 -0.2282 -0.6254
 1000MOL0     H37954  10.103   1.982  12.463 -0.4327 -0.1609 -1.0595
 1000MOL0     H37955  10.232   1.952  12.357 -1.4063 -1.8049 -0.7230
 1000MOL0     H37956  10.316   2.195  12.443  1.2168  0.9230  1.4854
 1000MOL0     H37957  10.210   2.151  12.585 -0.8325 -1.4896 -0.6594
 1000MOL0     H37958  10.464   2.280  12.611  1.9008  1.4000 -0.7374
 1000MOL0     H37959  10.691   2.395  12.806 -0.6865 -0.5259 -0.0780
 1000MOL0     H37960  10.617   2.428  12.658  0.5691  1.3480  0.4798
 1000MOL0     H37961  10.788   2.395  12.653 -1.8763  0.9575 -3.1840
 1000MOL0     H37962  11.010   2.142  13.040 -0.7010  0.1898 -0.5608
 1000MOL0     H37963  11.250   2.157  13.118  0.5303  2.1942  0.4048
 1000MOL0     H37964  11.582   2.249  12.863  1.3658 -0.7065  1.2090
 1000MOL0     H37965  11.508   2.408  12.840 -0.4259 -0.2990  0.8515
 1000MOL0     H37966  11.677   2.358  13.097  0.3945  0.0187 -0.0379
 1000MOL0     H37967  11.749   2.383  12.933 -1.6656 -1.1724 -1.3238
 1000MOL0     H37968  11.538   2.545  13.083 -0.1349  2.2716 -0.3021
 1000MOL0     H37969  11.580   2.590  12.920  0.5422 -0.0255 -0.0424
 1000MOL0     H37970  11.834   2.597  13.032 -0.2516 -0.1034 -1.8767
 1000MOL0     H37971  11.724   2.614  13.177  1.3021 -1.2604 -0.2675
 1000MOL0     H37972  11.745   2.798  12.933 -0.2144  1.6990 -0.2280
 1000MOL0     H37973  11.605   2.805  13.039 -0.8172 -1.6923  1.9590
 1000MOL0     H37974  11.832   2.951  13.070  2.7430 -0.1608 -0.5437
 1000MOL0     H37975  11.897   2.806  13.129  0.1155 -1.3157 -2.2460
 1000MOL0     H37976  11.825   2.960  13.309 -0.8184  1.2811 -2.0354
 1000MOL0     H37977  11.752   2.793  13.322 -0.1852  0.8389  2.1993
 1000MOL0     H37978  11.542   2.880  13.247 -1.6446  1.0790  0.7578
 1000MOL0     H37979  11.619   3.037  13.203  0.5687 -0.1181  0.7410
 1000MOL0     H37980  11.325   2.394  12.766 -2.5514  0.8442 -0.9816
 1000MOL0     H37981  11.106   2.348  12.686  2.2267  1.9234 -0.0942
 1000MOL0     H37982  10.763   1.889  12.671 -1.4941 -0.0422 -0.7288
 1000MOL0     H37983  10.537   1.867  12.572 -1.2653  0.2029 -1.1436
 1000MOL0     H37984   9.383   2.787  11.179  0.8147  0.1554 -2.0945
 1000MOL0     H37985   9.551   2.862  11.003  1.6616  2.6402  1.4851
 1000MOL0     H37986   9.846   2.971  10.824 -0.3908  4.6147 -2.2242
 1000MOL0     H37987   9.993   3.020  10.645 -1.9995 -1.4845  0.8646
 1000MOL0     H37988  10.385   3.172  10.573  3.0782  2.1479  1.5062
 1000MOL0     H37989  10.359   3.195  10.744 -0.1451 -1.0926  1.7030
 1000MOL0     H37990  10.459   2.925  10.613  0.0679  0.7800 -1.3165
 1000MOL0     H37991  10.471   2.965  10.784 -0.6585 -1.4251 -0.0066
 1000MOL0     H37992  10.707   2.977  10.660  1.5487  1.3989 -2.0258
 1000MOL0     H37993  10.625   3.074  10.547  1.5591  1.1494  0.3277
 1000MOL0     H37994  10.606   3.257  10.703  1.6725  0.4814  0.0319
 1000MOL0     H37995  10.774   3.198  10.704  0.2975 -1.4745  1.1160
 1000MOL0     H37996  10.657   3.130  11.100 -2.3339 -1.7441 -0.6652
 1000MOL0     H37997  10.322   3.061  10.920  1.4212 -1.3039 -0.3334
 1000MOL0     H37998  10.288   3.042  11.145  0.1107 -0.7660  1.0869
 1000MOL0     H37999  10.126   3.072  11.208  0.7523  2.2567 -0.5613
 1000MOL0     H38000  10.200   2.909  11.197  1.2696 -0.1141 -0.8619
 1001MOL0     O38001   6.140   8.857   4.193 -0.1441  0.3486  0.1581
 1001MOL0     C38002   6.085   8.937   4.271  0.5728  0.0000 -0.0909
 1001MOL0     O38003   6.097   9.069   4.266 -0.2740 -0.1493 -0.3069
 1001MOL0     C38004   6.213   9.116   4.207 -0.2314 -0.3854 -0.5707
 1001MOL0     C38005   6.245   9.103   4.069  0.1521  0.1049 -0.2001
 1001MOL0     C38006   6.366   9.138   4.019 -0.4373  0.0115  0.2452
 1001MOL0     C38007   6.469   9.196   4.098  0.1417 -0.1742  0.8206
 1001MOL0     O38008   6.595   9.236   4.067  0.0619 -0.1125  0.2883
 1001MOL0     C38009   6.658   9.161   3.962  0.5745 -0.4234  0.2787
 1001MOL0     C38010   6.801   9.220   3.946  0.5306 -0.1923 -0.0730
 1001MOL0     C38011   6.882   9.190   4.076  0.0862  0.1620 -0.7993
 1001MOL0     C38012   6.995   9.300   4.088  0.1616  0.2572  0.5328
 1001MOL0     C38013   7.049   9.295   4.234  0.3067  0.5130  0.5635
 1001MOL0     C38014   7.130   9.157   4.256  0.7758 -0.3795 -0.0533
 1001MOL0     C38015   7.230   9.167   4.370  0.1955 -0.0708  0.1094
 1001MOL0     C38016   7.310   9.042   4.391 -0.1829  0.1276 -0.7422
 1001MOL0     N38017   7.207   8.936   4.421  0.0087 -0.4799 -1.0816
 1001MOL0     C38018   7.132   8.944   4.541  0.8745  0.2711  0.4584
 1001MOL0     C38019   7.036   8.857   4.515 -0.7886 -0.2787 -0.3495
 1001MOL0     C38020   6.924   8.829   4.620  0.4942 -0.4036  0.2579
 1001MOL0     C38021   6.971   8.796   4.766 -0.4670 -0.7500 -1.1047
 1001MOL0     C38022   7.011   8.646   4.785 -0.8475  0.0177 -1.0610
 1001MOL0     C38023   7.035   8.616   4.929 -0.3629 -0.2845 -0.0127
 1001MOL0     O38024   7.157   8.681   4.968  0.6520  1.4518  0.1952
 1001MOL0     C38025   7.273   8.613   4.957 -0.0840 -0.0521 -0.4694
 1001MOL0     C38026   7.380   8.681   5.007 -0.6228  0.2283  0.9937
 1001MOL0     C38027   7.509   8.637   4.998 -0.3630  0.9321 -0.1194
 1001MOL0     C38028   7.622   8.713   5.058  0.0037 -0.0350 -0.7001
 1001MOL0     C38029   7.530   8.504   4.949  0.3084 -0.7029 -0.4365
 1001MOL0     C38030   7.651   8.422   4.955  0.6316 -0.3087 -0.0338
 1001MOL0     O38031   7.647   8.285   4.929 -0.5315 -0.2012 -1.1457
 1001MOL0     C38032   7.775   8.223   4.945 -0.6093 -0.8770  0.8026
 1001MOL0     C38033   7.812   8.187   5.071 -0.3238  0.1263 -0.0612
 1001MOL0     C38034   7.951   8.150   5.091 -0.0028 -0.4124  0.3887
 1001MOL0     C38035   8.038   8.133   4.980  0.0286 -0.3434 -0.2716
 1001MOL0     O38036   8.153   8.077   5.008 -0.5148  0.5324 -0.5834
 1001MOL0     C38037   8.244   8.048   4.904  0.5691  0.4570 -0.4701
 1001MOL0     C38038   8.370   7.997   4.976 -0.6875 -0.5445  0.3673
 1001MOL0     C38039   8.435   8.102   5.068 -0.0484 -0.0330 -1.1584
 1001MOL0     C38040   8.576   8.074   5.111  1.3439 -0.4178 -0.2325
 1001MOL0     C38041   8.672   8.099   4.991 -0.2512  0.2228  0.4349
 1001MOL0     C38042   8.817   8.101   5.038  0.6674 -0.0074  0.6273
 1001MOL0     C38043   8.878   8.221   5.098  0.9322 -0.5390 -0.1191
 1001MOL0     C38044   9.009   8.192   5.179  0.5034  0.9794  0.6035
 1001MOL0    Cl38045   8.983   8.162   5.350 -0.1953  0.0323 -0.0768
 1001MOL0     C38046   7.990   8.166   4.850 -0.2301  0.6588  0.0741
 1001MOL0     C38047   7.863   8.219   4.832  0.3078  0.6321 -0.5140
 1001MOL0     O38048   7.752   8.486   4.971  0.2325 -0.6706 -0.8449
 1001MOL0     C38049   7.418   8.434   4.897 -0.5941 -0.2319  0.6109
 1001MOL0     C38050   7.290   8.483   4.900 -0.3071 -0.2454  0.2607
 1001MOL0     N38051   7.050   8.797   4.398 -0.2171 -0.2283  0.2464
 1001MOL0     N38052   7.146   8.848   4.331  0.1166  0.5146  0.1950
 1001MOL0     C38053   6.435   9.215   4.237 -0.5914 -0.4763 -0.0972
 1001MOL0     C38054   6.312   9.180   4.284  0.4832  0.0798 -0.5819
 1001MOL0     C38055   5.972   8.884   4.352  0.5634  0.3247  0.5476
 1001MOL0     C38056   5.865   8.962   4.372  0.4228 -1.0469  0.7726
 1001MOL0     C38057   5.750   8.915   4.442 -0.3584 -0.3463 -0.0050
 1001MOL0     C38058   5.756   8.783   4.495  0.3792 -0.2411 -0.2242
 1001MOL0     O38059   5.646   8.736   4.563  1.1272  0.0450 -0.2519
 1001MOL0     C38060   5.594   8.824   4.668 -0.3181  0.8521  0.0586
 1001MOL0     C38061   5.473   8.770   4.742 -0.4992  0.8859  0.8088
 1001MOL0     C38062   5.380   8.691   4.645 -0.7931  0.2258  0.2408
 1001MOL0     C38063   5.242   8.675   4.699  0.4172 -0.2156  0.4724
 1001MOL0     C38064   5.169   8.805   4.698  0.1496  0.3840  0.3374
 1001MOL0     C38065   5.116   8.909   4.694 -0.1344  0.0084 -0.3640
 1001MOL0     C38066   5.865   8.707   4.474 -0.0044 -0.3519  0.4637
 1001MOL0     C38067   5.969   8.755   4.399  0.1222 -0.2258  0.1832
 1001MOL0     C38068   6.080   8.650   4.385 -0.0926 -0.8829 -0.6764
 1001MOL0     H38069   6.179   9.059   3.995  2.7314 -0.4681 -2.3003
 1001MOL0     H38070   6.380   9.122   3.913 -0.9096  0.3200  0.1326
 1001MOL0     H38071   6.608   9.170   3.865 -0.8747  0.8525  1.1047
 1001MOL0     H38072   6.661   9.052   3.977  0.4024 -0.6389 -1.0848
 1001MOL0     H38073   6.857   9.179   3.862  0.4598 -1.3008  0.4018
 1001MOL0     H38074   6.791   9.328   3.932 -0.3984 -0.5146 -2.3609
 1001MOL0     H38075   6.818   9.202   4.164 -0.7993  0.4800 -1.4715
 1001MOL0     H38076   6.932   9.095   4.057 -0.4757 -0.6981  1.6519
 1001MOL0     H38077   7.072   9.279   4.013  0.0994 -0.4708  0.6664
 1001MOL0     H38078   6.951   9.397   4.064 -3.4334 -0.8259  2.1303
 1001MOL0     H38079   6.974   9.308   4.313  0.2320 -0.3726  0.6512
 1001MOL0     H38080   7.116   9.381   4.231 -1.1465  1.6797  0.3082
 1001MOL0     H38081   7.060   9.075   4.275 -1.4087  1.0990 -1.2894
 1001MOL0     H38082   7.185   9.134   4.165 -1.7232  3.0074 -2.6870
 1001MOL0     H38083   7.181   9.191   4.464 -1.1455  2.2307 -1.0886
 1001MOL0     H38084   7.298   9.251   4.351 -0.8577  0.9108  0.5522
 1001MOL0     H38085   7.353   9.010   4.295 -0.1825 -1.7263 -0.1762
 1001MOL0     H38086   7.391   9.049   4.464 -0.7422  0.0626 -0.1112
 1001MOL0     H38087   7.141   9.020   4.619 -1.1822  1.3910 -0.3221
 1001MOL0     H38088   6.847   8.759   4.585 -2.0496  2.1402  0.3717
 1001MOL0     H38089   6.873   8.924   4.639  0.3536 -0.5567  0.6503
 1001MOL0     H38090   7.058   8.858   4.791 -0.6611 -0.5861 -0.8366
 1001MOL0     H38091   6.888   8.820   4.833  0.0132 -2.8806  0.3462
 1001MOL0     H38092   6.924   8.588   4.753 -2.8608  0.8128  2.3738
 1001MOL0     H38093   7.099   8.624   4.725 -1.4453 -2.0924 -1.2388
 1001MOL0     H38094   6.947   8.651   4.984  0.3365 -2.2909  2.5448
 1001MOL0     H38095   7.043   8.510   4.953 -1.9817 -0.0298  1.8533
 1001MOL0     H38096   7.368   8.782   5.044 -2.5837 -0.8163  3.5684
 1001MOL0     H38097   7.665   8.647   5.134 -3.3718  0.1479  1.6024
 1001MOL0     H38098   7.580   8.805   5.100 -1.8252 -0.1539 -2.1522
 1001MOL0     H38099   7.689   8.751   4.981 -0.5737  1.4060 -0.5156
 1001MOL0     H38100   7.743   8.198   5.155  0.6358  0.1103  0.7503
 1001MOL0     H38101   7.977   8.121   5.192 -0.5673  0.7287  0.8816
 1001MOL0     H38102   8.209   7.962   4.846 -1.6161 -0.0310  1.4300
 1001MOL0     H38103   8.263   8.137   4.843  1.1580  1.3045  0.9154
 1001MOL0     H38104   8.357   7.902   5.030  2.7476 -1.1884  0.2647
 1001MOL0     H38105   8.439   7.979   4.893 -1.4213  2.1776 -0.9445
 1001MOL0     H38106   8.371   8.122   5.154  0.8571 -1.1422 -0.1850
 1001MOL0     H38107   8.437   8.194   5.009  0.8375  0.5949 -0.2005
 1001MOL0     H38108   8.586   7.981   5.168 -1.3848  0.8363  2.5863
 1001MOL0     H38109   8.592   8.157   5.180  0.3434  1.4753 -2.1665
 1001MOL0     H38110   8.675   8.009   4.928  2.6076 -0.1047  0.9281
 1001MOL0     H38111   8.639   8.192   4.943  1.1509  0.8091  0.5830
 1001MOL0     H38112   8.874   8.084   4.946  1.7985  1.3046  1.0500
 1001MOL0     H38113   8.841   8.008   5.091 -0.2670 -1.7112 -1.7484
 1001MOL0     H38114   8.807   8.283   5.153 -0.6796  0.0188 -2.6652
 1001MOL0     H38115   8.899   8.288   5.014  0.2873  0.3238  0.3926
 1001MOL0     H38116   9.072   8.282   5.174  0.6676  0.8161 -0.5085
 1001MOL0     H38117   9.056   8.106   5.131 -0.5865  2.2635 -3.1372
 1001MOL0     H38118   8.061   8.143   4.770 -1.1144 -3.7677  0.2912
 1001MOL0     H38119   7.818   8.250   4.737 -2.3026  0.5890  0.6125
 1001MOL0     H38120   7.420   8.342   4.840  2.1752  1.3427 -2.1161
 1001MOL0     H38121   7.206   8.428   4.860 -1.3579 -1.7053  3.9785
 1001MOL0     H38122   6.506   9.248   4.312  0.1882 -1.7450 -0.2377
 1001MOL0     H38123   6.292   9.184   4.391  3.2774 -0.0173  0.0277
 1001MOL0     H38124   5.861   9.053   4.313  2.0435 -1.6742 -0.3613
 1001MOL0     H38125   5.662   8.975   4.465  1.6726  2.9830 -0.3139
 1001MOL0     H38126   5.682   8.850   4.728 -0.6102 -0.2737  1.0015
 1001MOL0     H38127   5.550   8.915   4.624 -0.0285  0.6698 -0.6278
 1001MOL0     H38128   5.418   8.853   4.786 -1.2706  2.6444 -3.0540
 1001MOL0     H38129   5.511   8.704   4.820  1.5705 -0.1465 -0.9745
 1001MOL0     H38130   5.371   8.741   4.549 -0.7284 -1.6842 -0.8189
 1001MOL0     H38131   5.426   8.593   4.628 -0.6675  0.7287 -2.9596
 1001MOL0     H38132   5.241   8.629   4.799  1.1700 -1.3211 -0.0059
 1001MOL0     H38133   5.197   8.605   4.629  1.0785 -1.8756  1.6290
 1001MOL0     H38134   5.061   8.999   4.673  1.9598  1.1301 -1.4268
 1001MOL0     H38135   5.859   8.608   4.519  0.7916 -0.6986 -0.1686
 1001MOL0     H38136   6.079   8.586   4.473 -1.7809  0.9701  0.7225
 1001MOL0     H38137   6.073   8.585   4.297 -0.9990 -0.5889 -0.8263
 1001MOL0     H38138   6.183   8.688   4.375 -0.5110 -0.1196 -2.5853
 1002MOL0     O38139   2.846  11.071  10.831 -0.0942  0.5503  0.0255
 1002MOL0     C38140   2.885  11.121  10.933  0.4287 -0.6681  0.6514
 1002MOL0     O38141   2.993  11.080  11.012  0.6056 -0.0953 -0.0078
 1002MOL0     C38142   3.064  10.967  10.992  0.3605  0.8388 -0.8682
 1002MOL0     C38143   3.002  10.841  10.984  0.5951 -0.2650  0.3802
 1002MOL0     C38144   3.063  10.723  11.003 -0.6943  0.0399  0.5994
 1002MOL0     C38145   3.208  10.724  11.024  0.1296  0.2999 -0.2559
 1002MOL0     O38146   3.281  10.613  11.045 -0.5997 -0.3556 -0.2162
 1002MOL0     C38147   3.333  10.542  10.933  0.1265  0.0348  0.6023
 1002MOL0     C38148   3.429  10.438  10.994 -0.2570  0.2987 -0.1478
 1002MOL0     C38149   3.474  10.332  10.893  0.0428  0.2061  0.3646
 1002MOL0     C38150   3.596  10.256  10.933  0.6592 -0.4273 -0.0025
 1002MOL0     C38151   3.634  10.147  10.823  0.9014 -0.1857  0.0451
 1002MOL0     C38152   3.726  10.028  10.860  0.1266  0.9612 -0.7956
 1002MOL0     C38153   3.857  10.080  10.898  0.4327  0.1546 -0.2726
 1002MOL0     C38154   3.952   9.966  10.952 -0.7686  0.5126 -0.3604
 1002MOL0     N38155   4.094  10.009  10.967  0.1500 -0.2918 -1.1291
 1002MOL0     C38156   4.155  10.103  10.891  0.5537  0.7613  0.4036
 1002MOL0     C38157   4.267  10.135  10.947 -0.7452 -0.7291 -0.1322
 1002MOL0     C38158   4.366  10.235  10.900  0.0778 -0.0518  0.1175
 1002MOL0     C38159   4.437  10.295  11.024 -0.7054 -0.3808 -0.1645
 1002MOL0     C38160   4.522  10.426  10.989 -0.1414  0.1586 -0.3863
 1002MOL0     C38161   4.441  10.546  10.937  0.9288 -0.4366 -0.5729
 1002MOL0     O38162   4.322  10.556  11.017  0.0990 -0.0992  0.8395
 1002MOL0     C38163   4.221  10.627  10.960 -0.4374 -0.2527  1.1348
 1002MOL0     C38164   4.101  10.557  10.946  0.7634 -0.4135  0.5036
 1002MOL0     C38165   3.988  10.632  10.906 -0.7656 -0.1009  0.6238
 1002MOL0     C38166   3.854  10.559  10.889 -0.5749 -0.1625  0.9020
 1002MOL0     C38167   4.000  10.774  10.881  0.3739 -0.7966  0.2063
 1002MOL0     C38168   3.889  10.870  10.855  1.0648 -0.1155  0.6922
 1002MOL0     O38169   3.756  10.836  10.890  0.3272 -0.0263 -0.4465
 1002MOL0     C38170   3.664  10.931  10.871  0.4092 -1.0267  0.1115
 1002MOL0     C38171   3.659  11.049  10.956  0.4607 -0.9965 -0.3803
 1002MOL0     C38172   3.561  11.151  10.931  0.4216  0.3445 -0.6207
 1002MOL0     C38173   3.463  11.145  10.831 -0.1862 -0.1573 -0.6690
 1002MOL0     O38174   3.373  11.246  10.816 -0.2468  0.0156 -0.1217
 1002MOL0     C38175   3.246  11.219  10.757 -0.2184  0.8213 -0.4596
 1002MOL0     C38176   3.233  11.223  10.607  0.3624 -0.6241  0.4700
 1002MOL0     C38177   3.085  11.200  10.570 -0.2868  0.1728 -0.4527
 1002MOL0     C38178   3.067  11.145  10.415 -0.9467  0.5176 -0.9687
 1002MOL0     C38179   2.924  11.159  10.376 -0.1606  0.4464  0.0720
 1002MOL0     C38180   2.911  11.134  10.225 -0.0730  0.4079 -0.1906
 1002MOL0     C38181   2.770  11.120  10.169 -0.5478  0.3845 -0.2791
 1002MOL0     C38182   2.688  11.251  10.153 -0.2129 -0.3268 -0.0032
 1002MOL0    Cl38183   2.539  11.216  10.044 -0.0376 -0.2924 -0.4315
 1002MOL0     C38184   3.471  11.029  10.747  0.6480 -0.3957 -0.1792
 1002MOL0     C38185   3.564  10.925  10.771  0.7101 -0.3247  0.4124
 1002MOL0     O38186   3.921  10.975  10.800  0.2923 -0.1653  0.1770
 1002MOL0     C38187   4.122  10.837  10.904 -0.9671  0.2473  0.2763
 1002MOL0     C38188   4.227  10.757  10.940  0.2336 -0.1491  0.0308
 1002MOL0     N38189   4.286  10.047  11.056  0.5218 -0.1774 -0.6238
 1002MOL0     N38190   4.179   9.979  11.075 -0.4254  0.5304  1.1090
 1002MOL0     C38191   3.271  10.848  11.033 -0.1748  1.1623 -0.0539
 1002MOL0     C38192   3.206  10.962  11.018 -0.1313 -0.1748 -0.8281
 1002MOL0     C38193   2.819  11.242  10.984 -0.1461 -0.2362  0.9160
 1002MOL0     C38194   2.868  11.301  11.105  0.5036 -0.6863  0.9359
 1002MOL0     C38195   2.831  11.428  11.144 -0.1224 -0.1748  0.6011
 1002MOL0     C38196   2.728  11.495  11.079  0.5273 -0.8008 -0.1694
 1002MOL0     O38197   2.681  11.614  11.140 -0.0976  0.0174 -0.0990
 1002MOL0     C38198   2.557  11.666  11.104  0.2724  0.3412 -0.0456
 1002MOL0     C38199   2.579  11.765  10.990  0.6490 -0.2662  0.1798
 1002MOL0     C38200   2.452  11.820  10.932  0.1623 -0.7625  0.2154
 1002MOL0     C38201   2.485  11.905  10.803  0.1620  0.0336  0.2480
 1002MOL0     C38202   2.371  11.991  10.770  0.2791 -0.5620 -0.0411
 1002MOL0     C38203   2.292  12.072  10.733  0.3568 -0.2987  0.7968
 1002MOL0     C38204   2.664  11.426  10.971 -0.0442  0.3599  0.0145
 1002MOL0     C38205   2.715  11.310  10.912  0.1967  0.0638 -1.2643
 1002MOL0     C38206   2.644  11.263  10.788 -1.2135  0.4066 -1.0417
 1002MOL0     H38207   2.895  10.844  10.963  0.8576  0.1255 -0.9746
 1002MOL0     H38208   3.013  10.626  11.005  0.5875 -0.7027 -1.0896
 1002MOL0     H38209   3.375  10.611  10.860 -1.2103  0.1168 -0.1221
 1002MOL0     H38210   3.255  10.489  10.877 -0.4752  1.0262  0.4834
 1002MOL0     H38211   3.516  10.486  11.041  0.0547  0.5327 -0.9407
 1002MOL0     H38212   3.377  10.388  11.077 -2.7068  1.5752 -0.8489
 1002MOL0     H38213   3.387  10.270  10.872 -1.4663  2.0400  0.9135
 1002MOL0     H38214   3.504  10.384  10.802 -1.7653 -2.4770 -1.9149
 1002MOL0     H38215   3.667  10.339  10.937  0.1645 -0.0462  1.3930
 1002MOL0     H38216   3.592  10.217  11.035 -2.0214 -2.1558 -0.6679
 1002MOL0     H38217   3.680  10.198  10.738 -1.5429  2.0941 -0.0469
 1002MOL0     H38218   3.542  10.097  10.791  0.0020  1.3135  0.1987
 1002MOL0     H38219   3.690   9.966  10.943 -0.2676  0.2093 -1.5011
 1002MOL0     H38220   3.743   9.954  10.780 -0.2972 -1.2372  1.0400
 1002MOL0     H38221   3.843  10.146  10.984  3.9279 -0.4016  0.8884
 1002MOL0     H38222   3.893  10.139  10.813  2.8778 -0.9010 -0.0502
 1002MOL0     H38223   3.922   9.913  11.043 -1.3568  3.1468  1.0856
 1002MOL0     H38224   3.959   9.882  10.882 -1.7758 -0.6922  0.9471
 1002MOL0     H38225   4.117  10.141  10.797  1.2636  2.5999  0.8049
 1002MOL0     H38226   4.311  10.316  10.851 -3.8608 -2.6543 -0.1470
 1002MOL0     H38227   4.428  10.181  10.828 -0.2060 -1.9217  1.2281
 1002MOL0     H38228   4.379  10.323  11.112 -0.3357 -0.3192  0.0631
 1002MOL0     H38229   4.510  10.220  11.058  2.1386  2.6276  0.9835
 1002MOL0     H38230   4.580  10.464  11.074  0.8836  0.3535 -1.1624
 1002MOL0     H38231   4.601  10.405  10.917 -1.0329  0.8544 -1.6021
 1002MOL0     H38232   4.509  10.631  10.945  1.9533 -1.3001  0.4239
 1002MOL0     H38233   4.429  10.538  10.829 -1.1112 -0.0430 -0.4232
 1002MOL0     H38234   4.096  10.449  10.960  0.9830 -0.9029 -2.6073
 1002MOL0     H38235   3.821  10.587  10.788 -1.3218  1.7096  1.6081
 1002MOL0     H38236   3.776  10.597  10.956 -0.0605  0.9980  0.8621
 1002MOL0     H38237   3.862  10.452  10.909  2.8794  0.1074  1.6152
 1002MOL0     H38238   3.729  11.070  11.037 -0.8857  2.3209  0.0903
 1002MOL0     H38239   3.557  11.247  10.983 -1.7314 -1.0116  1.9524
 1002MOL0     H38240   3.225  11.114  10.781  3.1421 -0.2642 -1.6941
 1002MOL0     H38241   3.163  11.281  10.791 -2.8846 -2.7170 -0.0146
 1002MOL0     H38242   3.259  11.321  10.565 -4.3049  0.3006 -0.9512
 1002MOL0     H38243   3.292  11.148  10.554 -0.5321 -1.3389  0.4467
 1002MOL0     H38244   3.021  11.288  10.585 -0.2255 -0.0876  1.6434
 1002MOL0     H38245   3.043  11.133  10.646  1.2686  0.7723  0.9946
 1002MOL0     H38246   3.097  11.040  10.410  0.5335  0.3213  5.0200
 1002MOL0     H38247   3.134  11.205  10.352  0.1696  2.0937  1.5572
 1002MOL0     H38248   2.873  11.090  10.444  0.1548  1.4134  1.3063
 1002MOL0     H38249   2.884  11.257  10.400 -1.1888 -0.1253  0.7625
 1002MOL0     H38250   2.959  11.039  10.200 -0.7185  0.5985 -2.3996
 1002MOL0     H38251   2.962  11.211  10.167  0.8599 -1.9692 -2.7432
 1002MOL0     H38252   2.716  11.050  10.233  2.8661 -0.6756  1.7185
 1002MOL0     H38253   2.772  11.077  10.069 -0.1956  0.0166 -0.1177
 1002MOL0     H38254   2.742  11.327  10.095 -2.2719  0.2154 -1.3320
 1002MOL0     H38255   2.653  11.293  10.248 -0.6951  0.6105 -0.5753
 1002MOL0     H38256   3.409  11.026  10.659 -2.8691 -2.7155  2.1045
 1002MOL0     H38257   3.565  10.843  10.701  0.2099  1.1288 -1.3562
 1002MOL0     H38258   4.150  10.940  10.882  2.5534 -0.7352 -0.5772
 1002MOL0     H38259   4.316  10.818  10.952 -1.0136  2.1829 -1.7597
 1002MOL0     H38260   3.376  10.854  11.058 -0.9769  0.6838  4.0664
 1002MOL0     H38261   3.256  11.057  11.035 -3.7160  1.9370 -1.0836
 1002MOL0     H38262   2.952  11.268  11.164 -0.0702 -2.3420  0.8981
 1002MOL0     H38263   2.866  11.476  11.235 -0.1733 -1.3739  1.2597
 1002MOL0     H38264   2.487  11.588  11.075 -1.7762  2.6786 -1.8556
 1002MOL0     H38265   2.522  11.717  11.194 -2.3743 -2.8904  0.9229
 1002MOL0     H38266   2.647  11.722  10.917  1.9553  0.3932  0.9660
 1002MOL0     H38267   2.634  11.851  11.029  0.0452 -0.3646  1.2795
 1002MOL0     H38268   2.379  11.741  10.910 -1.7037  1.3179 -1.5960
 1002MOL0     H38269   2.407  11.895  10.998 -0.2675  0.5653 -1.4963
 1002MOL0     H38270   2.503  11.841  10.715 -1.8468 -1.5569  0.9208
 1002MOL0     H38271   2.575  11.964  10.822  1.4130 -1.9269  0.6197
 1002MOL0     H38272   2.217  12.141  10.699 -1.8263 -2.8211  0.1099
 1002MOL0     H38273   2.574  11.458  10.920  1.2081  2.7281 -0.8474
 1002MOL0     H38274   2.568  11.334  10.754 -1.1407  0.6023 -0.7966
 1002MOL0     H38275   2.722  11.251  10.712  0.6772 -4.0409  1.2805
 1002MOL0     H38276   2.596  11.168  10.810  2.3542 -1.0656  1.0949
 1003MOL0     O38277   1.472   3.543   1.316 -0.1661 -0.3295 -0.1128
 1003MOL0     C38278   1.415   3.534   1.206  0.2023 -0.0209  0.6048
 1003MOL0     O38279   1.410   3.641   1.107 -0.1688  0.8594 -0.1855
 1003MOL0     C38280   1.521   3.720   1.107  0.8130 -0.3839 -0.1469
 1003MOL0     C38281   1.496   3.849   1.151  0.1057  0.0564  0.3119
 1003MOL0     C38282   1.595   3.949   1.157 -0.0214  0.8844 -0.4965
 1003MOL0     C38283   1.725   3.907   1.120  0.4718 -0.4634  0.0545
 1003MOL0     O38284   1.837   3.979   1.141 -0.7715 -0.3529 -0.5976
 1003MOL0     C38285   1.826   4.121   1.108  0.0826  0.2562 -0.9286
 1003MOL0     C38286   1.966   4.176   1.142 -0.0813  0.2877  0.1319
 1003MOL0     C38287   2.020   4.300   1.068 -0.3780 -0.3735 -0.6851
 1003MOL0     C38288   2.093   4.255   0.946  0.3569  0.1235  0.7269
 1003MOL0     C38289   2.238   4.190   0.957 -0.2268  0.1106 -1.0176
 1003MOL0     C38290   2.289   4.187   0.815 -0.6792  0.3355 -0.6059
 1003MOL0     C38291   2.429   4.132   0.797  0.2532 -1.0421  0.0716
 1003MOL0     C38292   2.536   4.193   0.891 -0.2602 -1.1740  0.2143
 1003MOL0     N38293   2.667   4.145   0.852 -0.4771 -0.0374 -0.1093
 1003MOL0     C38294   2.723   4.139   0.724 -0.7262  0.0925 -0.5445
 1003MOL0     C38295   2.843   4.076   0.741 -0.2703  0.0097  0.1953
 1003MOL0     C38296   2.947   4.054   0.639  0.4462  0.3496 -0.2820
 1003MOL0     C38297   3.044   4.162   0.640 -0.7021 -0.8007 -0.8626
 1003MOL0     C38298   3.134   4.154   0.767  0.8019 -0.1512  0.3497
 1003MOL0     C38299   3.277   4.195   0.759  0.7396 -0.1236  0.1260
 1003MOL0     O38300   3.339   4.130   0.659 -0.7643  0.1855 -0.2758
 1003MOL0     C38301   3.473   4.129   0.663  1.3612  0.3336  0.1501
 1003MOL0     C38302   3.561   4.186   0.760  0.1767 -1.1118  0.1118
 1003MOL0     C38303   3.700   4.180   0.746 -0.0099  0.4234 -0.0445
 1003MOL0     C38304   3.781   4.246   0.855  0.6488 -0.6502  0.2857
 1003MOL0     C38305   3.761   4.102   0.630 -0.1229  0.6388 -0.3296
 1003MOL0     C38306   3.895   4.067   0.611  0.2206 -0.2036 -0.4618
 1003MOL0     O38307   3.970   4.082   0.725  0.0631  0.2210 -0.0419
 1003MOL0     C38308   4.103   4.044   0.728 -0.3876  0.2713  0.6471
 1003MOL0     C38309   4.175   4.116   0.826  0.0828 -0.0508 -0.8624
 1003MOL0     C38310   4.318   4.110   0.820  0.6287 -0.5119  0.2836
 1003MOL0     C38311   4.388   4.039   0.725  0.1406 -0.2986 -0.2943
 1003MOL0     O38312   4.525   4.034   0.712  0.1066 -0.3884 -0.3622
 1003MOL0     C38313   4.592   4.154   0.739 -0.6047 -1.3762 -0.3229
 1003MOL0     C38314   4.743   4.138   0.705 -0.0982  0.0942 -0.1572
 1003MOL0     C38315   4.820   4.041   0.804 -0.0063  0.2133 -0.0396
 1003MOL0     C38316   4.969   4.055   0.787 -0.6651  0.0690  0.1968
 1003MOL0     C38317   5.063   3.948   0.858 -0.4107  0.0249  0.1659
 1003MOL0     C38318   5.025   3.802   0.828  0.8005 -0.7023 -0.0036
 1003MOL0     C38319   5.129   3.701   0.877  0.8094 -0.4449  0.4073
 1003MOL0     C38320   5.075   3.562   0.898 -0.5627 -0.6076 -0.3109
 1003MOL0    Cl38321   5.025   3.512   0.733  0.0500  0.2167 -0.1048
 1003MOL0     C38322   4.311   3.956   0.639  0.0590 -0.3901 -0.0973
 1003MOL0     C38323   4.168   3.964   0.634 -0.2839  0.7310  0.2090
 1003MOL0     O38324   3.937   4.040   0.500  0.5241  0.1678 -0.1461
 1003MOL0     C38325   3.670   4.053   0.532 -0.5846  0.4510 -0.0319
 1003MOL0     C38326   3.532   4.076   0.549 -0.9484 -0.1550 -0.8083
 1003MOL0     N38327   2.860   4.039   0.876  0.3251  0.3540 -0.0475
 1003MOL0     N38328   2.756   4.089   0.940 -0.6501 -0.4350  0.3899
 1003MOL0     C38329   1.746   3.782   1.069 -0.1709 -0.1798  0.5791
 1003MOL0     C38330   1.647   3.688   1.067  0.3536  0.1925 -0.0697
 1003MOL0     C38331   1.323   3.422   1.162 -0.3286  0.0200  0.4056
 1003MOL0     C38332   1.240   3.433   1.051 -0.0398  0.2003  0.4152
 1003MOL0     C38333   1.158   3.327   1.009 -0.4906 -0.9864 -0.7352
 1003MOL0     C38334   1.156   3.210   1.081 -1.8293  0.7489 -0.8077
 1003MOL0     O38335   1.073   3.113   1.030  0.3893 -0.1548  0.3354
 1003MOL0     C38336   1.053   2.984   1.091 -0.3418 -0.3136  0.8708
 1003MOL0     C38337   0.977   2.886   1.000  0.0608  0.6299  0.2121
 1003MOL0     C38338   0.842   2.926   0.964  0.1638 -0.2387 -0.3042
 1003MOL0     C38339   0.794   2.843   0.842 -0.1941  0.3649 -0.9869
 1003MOL0     C38340   0.662   2.891   0.808 -0.5042  0.6895  0.1385
 1003MOL0     C38341   0.555   2.921   0.759  0.3425  0.7745  0.5578
 1003MOL0     C38342   1.236   3.196   1.194  0.8972 -0.0809 -1.1161
 1003MOL0     C38343   1.317   3.300   1.238  0.5345  0.5439 -0.4548
 1003MOL0     C38344   1.388   3.277   1.372  0.5574 -0.9595  0.4119
 1003MOL0     H38345   1.394   3.877   1.175 -0.2735 -1.9485  1.3234
 1003MOL0     H38346   1.575   4.050   1.191  1.0795  0.7859  0.5222
 1003MOL0     H38347   1.752   4.177   1.167  0.9762 -0.3960  0.8569
 1003MOL0     H38348   1.795   4.127   1.003 -1.2648  1.5519 -0.5023
 1003MOL0     H38349   1.987   4.187   1.248 -0.8853  1.4570  0.1875
 1003MOL0     H38350   2.023   4.093   1.099  0.4863  0.7154  0.0522
 1003MOL0     H38351   1.933   4.365   1.051  0.0076  0.4996  0.5310
 1003MOL0     H38352   2.089   4.360   1.129 -0.5302  1.1779 -1.9934
 1003MOL0     H38353   2.022   4.190   0.894  1.1028 -1.5887  1.7900
 1003MOL0     H38354   2.104   4.348   0.889  1.0494 -0.1638  0.3876
 1003MOL0     H38355   2.245   4.090   1.000 -1.0223 -1.3307 -3.9495
 1003MOL0     H38356   2.301   4.260   1.013  0.0264 -0.3993 -0.6552
 1003MOL0     H38357   2.219   4.131   0.752  1.9924 -4.0099 -0.1253
 1003MOL0     H38358   2.281   4.293   0.788  0.5078  0.2213 -1.4663
 1003MOL0     H38359   2.454   4.147   0.692  1.1529 -3.8783 -0.1852
 1003MOL0     H38360   2.420   4.024   0.811  2.8969 -1.1924  1.2553
 1003MOL0     H38361   2.550   4.301   0.889  1.4764 -1.3770 -0.2940
 1003MOL0     H38362   2.504   4.177   0.995 -1.8780  0.8890  0.0997
 1003MOL0     H38363   2.680   4.172   0.629 -0.8014 -3.0163 -1.7075
 1003MOL0     H38364   2.903   4.034   0.541  0.9827 -0.5158 -0.3624
 1003MOL0     H38365   2.996   3.959   0.661 -0.1087  0.4502  1.5905
 1003MOL0     H38366   3.102   4.158   0.547  1.4087  0.0139  0.3395
 1003MOL0     H38367   3.005   4.264   0.636 -1.0487 -0.9136 -0.4090
 1003MOL0     H38368   3.089   4.222   0.840  1.7045  2.3780 -1.3351
 1003MOL0     H38369   3.136   4.053   0.808 -0.9792 -0.8774 -1.2262
 1003MOL0     H38370   3.281   4.304   0.761  1.1471 -0.1257  2.7626
 1003MOL0     H38371   3.313   4.158   0.855  2.1488 -0.2054 -0.4201
 1003MOL0     H38372   3.519   4.233   0.848  0.3783  0.5762 -0.6692
 1003MOL0     H38373   3.714   4.308   0.915 -1.0391 -0.2746 -1.8540
 1003MOL0     H38374   3.863   4.307   0.815 -0.2038 -0.0104 -0.5112
 1003MOL0     H38375   3.811   4.162   0.920  1.1237  0.1871  1.1772
 1003MOL0     H38376   4.122   4.173   0.901  0.9259  0.8779 -0.9598
 1003MOL0     H38377   4.380   4.157   0.896  1.8142 -1.0368 -0.3400
 1003MOL0     H38378   4.545   4.234   0.682 -1.8688 -1.7472  0.1647
 1003MOL0     H38379   4.583   4.193   0.841 -0.0230  1.9314 -1.3980
 1003MOL0     H38380   4.763   4.122   0.599  2.5421  0.2731  0.2435
 1003MOL0     H38381   4.786   4.238   0.721  2.4993 -0.8213 -0.8001
 1003MOL0     H38382   4.785   3.943   0.771 -0.7441 -0.0408  1.4049
 1003MOL0     H38383   4.782   4.063   0.904 -2.5208 -0.3844 -0.7845
 1003MOL0     H38384   5.004   4.155   0.815 -0.0623  0.0572 -0.4906
 1003MOL0     H38385   4.989   4.054   0.680 -2.7749 -0.1504 -0.2408
 1003MOL0     H38386   5.167   3.974   0.839 -0.3183 -0.6495 -0.2877
 1003MOL0     H38387   5.056   3.962   0.966 -1.5029  0.2280  0.0793
 1003MOL0     H38388   5.012   3.799   0.719 -3.6184 -2.9270  0.3432
 1003MOL0     H38389   4.927   3.780   0.872 -0.8850  0.6827 -2.7346
 1003MOL0     H38390   5.149   3.725   0.981 -2.7179 -0.7653  1.2701
 1003MOL0     H38391   5.221   3.710   0.818  0.7770  1.2725  0.5540
 1003MOL0     H38392   4.997   3.552   0.974 -0.9303 -0.0201 -0.6065
 1003MOL0     H38393   5.160   3.506   0.937 -0.2582  0.8250  1.2090
 1003MOL0     H38394   4.373   3.896   0.573 -0.5172  1.4934 -2.4808
 1003MOL0     H38395   4.121   3.905   0.556  2.1477  0.9307 -1.5186
 1003MOL0     H38396   3.710   3.999   0.448  0.2167 -0.4481  0.9051
 1003MOL0     H38397   3.468   4.043   0.469 -0.9914  3.8000 -2.6389
 1003MOL0     H38398   1.846   3.755   1.036 -0.2713  1.9875 -1.8238
 1003MOL0     H38399   1.662   3.589   1.026 -0.2801 -0.3416  0.9377
 1003MOL0     H38400   1.250   3.515   0.981  0.8535  1.1501  1.6136
 1003MOL0     H38401   1.096   3.322   0.920  0.9334 -0.8116 -1.7768
 1003MOL0     H38402   1.149   2.940   1.117 -0.4258 -1.6375 -0.8101
 1003MOL0     H38403   1.008   3.006   1.188 -0.3779 -1.0418  1.0211
 1003MOL0     H38404   0.967   2.791   1.054 -0.7408  2.5883  3.8365
 1003MOL0     H38405   1.044   2.876   0.914 -1.3060 -0.8469 -0.7299
 1003MOL0     H38406   0.768   2.906   1.042  0.1357 -0.2201 -0.3262
 1003MOL0     H38407   0.827   3.029   0.931 -0.4210 -0.4887 -0.8436
 1003MOL0     H38408   0.785   2.736   0.864 -0.2902  1.0394  2.9634
 1003MOL0     H38409   0.856   2.863   0.754  0.2413  0.9184 -0.5619
 1003MOL0     H38410   0.462   2.936   0.710 -0.0535  1.1531  1.4103
 1003MOL0     H38411   1.236   3.102   1.248 -2.4811  0.8046  0.6509
 1003MOL0     H38412   1.353   3.341   1.453 -1.3639  0.8656 -1.7521
 1003MOL0     H38413   1.378   3.175   1.412  1.9798 -1.0823  0.5250
 1003MOL0     H38414   1.492   3.303   1.352  0.2918 -0.7384 -0.7448
 1004MOL0     O38415   2.923   4.822   8.497  0.8877 -0.1086  0.0472
 1004MOL0     C38416   2.899   4.897   8.404  0.1660  0.1775  0.3925
 1004MOL0     O38417   2.990   4.986   8.352  0.4200 -0.3817 -0.3530
 1004MOL0     C38418   3.108   5.012   8.415 -0.1470  0.4597  0.2242
 1004MOL0     C38419   3.115   5.100   8.521 -1.2620  0.2751  0.1171
 1004MOL0     C38420   3.237   5.115   8.588 -0.2000  0.3698  0.4696
 1004MOL0     C38421   3.351   5.049   8.558 -0.2571 -0.2260 -0.0639
 1004MOL0     O38422   3.469   5.064   8.625  0.4583  0.0302 -0.0853
 1004MOL0     C38423   3.471   5.133   8.757  0.0761  0.4234  0.6839
 1004MOL0     C38424   3.580   5.061   8.848  0.0631  0.2135 -0.0114
 1004MOL0     C38425   3.641   5.165   8.951 -0.2149 -0.4142  0.1270
 1004MOL0     C38426   3.767   5.116   9.009  1.0439 -0.5840  0.2469
 1004MOL0     C38427   3.835   5.210   9.104 -0.3898  0.8910 -0.1611
 1004MOL0     C38428   3.759   5.249   9.221 -0.1212  0.5128  0.0465
 1004MOL0     C38429   3.835   5.344   9.319  0.3233 -1.2420 -0.3658
 1004MOL0     C38430   3.884   5.476   9.249  0.0560  0.0522 -0.0936
 1004MOL0     N38431   3.953   5.571   9.344 -0.4337  0.1398 -0.5482
 1004MOL0     C38432   4.085   5.558   9.373 -0.2610 -0.5252 -0.1364
 1004MOL0     C38433   4.109   5.654   9.464 -0.0119  0.1821 -0.6772
 1004MOL0     C38434   4.234   5.688   9.538 -0.1168 -0.0895  0.1192
 1004MOL0     C38435   4.280   5.826   9.513  0.2771  0.3326  0.0722
 1004MOL0     C38436   4.311   5.849   9.364  0.4872 -0.5549 -0.2379
 1004MOL0     C38437   4.392   5.977   9.347 -0.5206  0.0032 -0.0654
 1004MOL0     O38438   4.313   6.080   9.284  0.8738  0.8670 -0.7301
 1004MOL0     C38439   4.295   6.070   9.151 -0.0911  0.2457  1.1901
 1004MOL0     C38440   4.228   6.182   9.089  0.2356  0.3214  0.3223
 1004MOL0     C38441   4.187   6.185   8.952 -0.3334  0.5165 -0.2600
 1004MOL0     C38442   4.116   6.306   8.902  0.1653 -0.8934 -0.5448
 1004MOL0     C38443   4.205   6.064   8.872  0.3130 -0.7984  0.1061
 1004MOL0     C38444   4.184   6.050   8.724 -0.0160 -0.6024  0.0640
 1004MOL0     O38445   4.228   5.935   8.665  0.1806 -0.6747 -0.6307
 1004MOL0     C38446   4.167   5.915   8.548 -0.2176  0.5970 -0.8333
 1004MOL0     C38447   4.229   5.947   8.433 -0.6485  0.1237 -0.0128
 1004MOL0     C38448   4.158   5.911   8.315  0.2078  0.4749  0.1861
 1004MOL0     C38449   4.038   5.845   8.318  0.4618  0.2417 -0.4322
 1004MOL0     O38450   3.970   5.808   8.201 -0.6769  0.3393 -0.0499
 1004MOL0     C38451   4.034   5.714   8.110  0.0188  0.0278 -0.7930
 1004MOL0     C38452   4.111   5.770   7.988  0.7945 -0.4288 -0.3168
 1004MOL0     C38453   4.051   5.898   7.927 -0.9607  0.8142  0.1594
 1004MOL0     C38454   4.107   5.917   7.781  0.0178  0.7011 -0.8306
 1004MOL0     C38455   4.097   6.060   7.743 -0.7311  0.0032 -0.9104
 1004MOL0     C38456   4.159   6.072   7.607  0.2499  0.3645  0.6060
 1004MOL0     C38457   4.127   6.212   7.555 -0.5119 -0.2725 -0.4675
 1004MOL0     C38458   4.134   6.214   7.407  0.5401 -0.3928 -0.2673
 1004MOL0    Cl38459   4.285   6.150   7.343  0.0768  0.2785  0.1100
 1004MOL0     C38460   3.978   5.812   8.439 -0.2959  0.2851  0.4409
 1004MOL0     C38461   4.044   5.847   8.552  0.8639  0.2992  0.2643
 1004MOL0     O38462   4.132   6.146   8.664 -0.0524 -0.4980  0.0089
 1004MOL0     C38463   4.271   5.958   8.934 -0.0960 -0.4775  1.2428
 1004MOL0     C38464   4.318   5.961   9.066  0.1822  0.1857  0.6282
 1004MOL0     N38465   3.984   5.718   9.495  1.0135  0.1485  0.3923
 1004MOL0     N38466   3.892   5.663   9.423 -0.8947  0.2035 -0.1023
 1004MOL0     C38467   3.354   4.978   8.439 -0.0971  0.0378  0.3036
 1004MOL0     C38468   3.227   4.955   8.373 -0.1181  0.7569 -0.2092
 1004MOL0     C38469   2.759   4.886   8.353  0.0206 -1.2459  0.1246
 1004MOL0     C38470   2.722   4.987   8.263 -0.0255 -0.3568 -0.3073
 1004MOL0     C38471   2.593   4.983   8.204 -0.2919  0.8533  0.4238
 1004MOL0     C38472   2.498   4.879   8.225  0.3821  0.6547 -0.1683
 1004MOL0     O38473   2.380   4.881   8.153 -0.1064 -0.8117 -0.1773
 1004MOL0     C38474   2.266   4.794   8.188 -0.0818 -0.0935 -0.1269
 1004MOL0     C38475   2.146   4.879   8.260  0.0529  1.0503 -0.7659
 1004MOL0     C38476   2.025   4.785   8.284 -0.1266  0.4743 -0.3815
 1004MOL0     C38477   1.916   4.871   8.352  0.2909  0.2184 -0.3409
 1004MOL0     C38478   1.791   4.805   8.372 -0.8615  0.2404  1.6477
 1004MOL0     C38479   1.689   4.746   8.384 -0.2772 -0.5865 -0.7347
 1004MOL0     C38480   2.535   4.786   8.319  0.0843  1.0964 -0.3713
 1004MOL0     C38481   2.662   4.782   8.378  0.3447  0.7873 -0.8923
 1004MOL0     C38482   2.682   4.660   8.472  0.8631  0.5683  0.2294
 1004MOL0     H38483   3.030   5.159   8.555 -0.0149  2.2810 -0.0408
 1004MOL0     H38484   3.243   5.193   8.663  0.1047 -0.1506  0.9981
 1004MOL0     H38485   3.377   5.142   8.812 -1.2986  2.0539 -1.7389
 1004MOL0     H38486   3.506   5.233   8.731  1.2279 -0.1862 -0.1886
 1004MOL0     H38487   3.528   4.984   8.906 -0.4919 -1.2059 -2.2588
 1004MOL0     H38488   3.659   5.021   8.785 -0.4750  3.5416 -3.1591
 1004MOL0     H38489   3.663   5.267   8.917 -0.2752  0.0857  1.4947
 1004MOL0     H38490   3.569   5.166   9.034  0.7695 -2.5711  1.0707
 1004MOL0     H38491   3.745   5.019   9.055 -1.9168 -0.1808 -0.1285
 1004MOL0     H38492   3.839   5.104   8.927 -0.6184 -0.9403 -1.2117
 1004MOL0     H38493   3.874   5.293   9.045  2.1839 -0.0788  0.0765
 1004MOL0     H38494   3.921   5.152   9.138 -1.2423  0.5746  1.5714
 1004MOL0     H38495   3.665   5.298   9.194 -1.1674 -1.4844 -0.1457
 1004MOL0     H38496   3.737   5.161   9.281 -0.9816  0.1347 -0.7963
 1004MOL0     H38497   3.922   5.287   9.355 -0.4032 -1.4840  1.0606
 1004MOL0     H38498   3.774   5.377   9.403 -0.2786  0.2910 -1.3461
 1004MOL0     H38499   3.932   5.455   9.153 -2.6896  2.1517 -2.0682
 1004MOL0     H38500   3.788   5.521   9.221 -0.2313  2.6224  4.1448
 1004MOL0     H38501   4.156   5.485   9.336 -1.9844 -1.6534 -1.4281
 1004MOL0     H38502   4.313   5.615   9.516  0.9326  1.1084 -0.1731
 1004MOL0     H38503   4.216   5.690   9.646  0.8218  0.7089  0.2667
 1004MOL0     H38504   4.200   5.896   9.541 -2.0156 -1.4802 -1.6280
 1004MOL0     H38505   4.365   5.845   9.580  0.6146 -2.4813  0.5577
 1004MOL0     H38506   4.364   5.759   9.332 -1.6282 -2.9869  2.5126
 1004MOL0     H38507   4.226   5.840   9.297  2.2294  1.0867 -2.8298
 1004MOL0     H38508   4.415   6.020   9.445 -0.0709 -3.2870  1.3794
 1004MOL0     H38509   4.486   5.967   9.293 -1.5826 -0.3851 -1.9201
 1004MOL0     H38510   4.180   6.259   9.148 -2.9618  0.6994 -2.4539
 1004MOL0     H38511   4.020   6.282   8.856  0.0079  0.6769 -1.0775
 1004MOL0     H38512   4.181   6.357   8.830 -0.4401  1.8653  0.7083
 1004MOL0     H38513   4.091   6.382   8.977  0.4355  0.1801 -1.5173
 1004MOL0     H38514   4.321   6.004   8.426 -0.6321  0.2087  0.8218
 1004MOL0     H38515   4.207   5.954   8.229  0.4202  0.7749  0.4546
 1004MOL0     H38516   4.098   5.646   8.168 -2.0131 -0.1289  1.4293
 1004MOL0     H38517   3.950   5.655   8.073 -3.3203  4.2391 -0.7433
 1004MOL0     H38518   4.214   5.771   8.026 -0.2792  0.4145  2.9179
 1004MOL0     H38519   4.128   5.689   7.916  1.0453 -1.5508  0.9620
 1004MOL0     H38520   4.077   5.989   7.982  1.8207  1.2958 -1.7730
 1004MOL0     H38521   3.943   5.883   7.916 -1.1083 -1.2322  3.1197
 1004MOL0     H38522   4.048   5.846   7.721  1.8252 -3.7234  2.1196
 1004MOL0     H38523   4.212   5.891   7.794 -0.1571 -0.0118 -0.7644
 1004MOL0     H38524   3.995   6.098   7.751 -1.0535 -0.8275 -0.9933
 1004MOL0     H38525   4.159   6.113   7.817 -1.7998 -2.2714  1.7943
 1004MOL0     H38526   4.111   6.004   7.536 -2.5089  2.3298  0.4023
 1004MOL0     H38527   4.267   6.058   7.599  0.0911 -0.9599  0.4768
 1004MOL0     H38528   4.194   6.283   7.604 -2.0080  0.4240  0.6484
 1004MOL0     H38529   4.031   6.248   7.592  0.7972  0.5883  2.4435
 1004MOL0     H38530   4.136   6.317   7.372  0.1513  0.2938  1.6602
 1004MOL0     H38531   4.049   6.165   7.358 -0.7387  3.2285 -1.9921
 1004MOL0     H38532   3.877   5.773   8.443 -0.4030  0.5570  0.3843
 1004MOL0     H38533   3.994   5.838   8.647 -0.6926 -0.6009 -0.5885
 1004MOL0     H38534   4.304   5.864   8.891 -0.3172 -1.1269  2.4626
 1004MOL0     H38535   4.373   5.874   9.101 -2.1139 -1.5951  0.0296
 1004MOL0     H38536   3.442   4.930   8.399  0.1544  0.0924  0.7809
 1004MOL0     H38537   3.221   4.900   8.279  1.4035  1.0893 -0.5180
 1004MOL0     H38538   2.786   5.068   8.230 -0.2395  0.3257  0.8846
 1004MOL0     H38539   2.564   5.058   8.131 -0.8037  1.7950  1.5607
 1004MOL0     H38540   2.232   4.764   8.089 -1.2255 -2.0080  0.7776
 1004MOL0     H38541   2.284   4.701   8.244 -2.6966 -1.8907 -2.0291
 1004MOL0     H38542   2.113   4.962   8.196 -0.9547  1.6747  0.5232
 1004MOL0     H38543   2.186   4.912   8.356 -1.4146 -0.8262  0.5552
 1004MOL0     H38544   1.994   4.745   8.187 -0.5366 -3.3312  1.1738
 1004MOL0     H38545   2.059   4.714   8.360  0.7048  2.8347  1.5826
 1004MOL0     H38546   1.892   4.961   8.295  0.1974  0.7535  0.5140
 1004MOL0     H38547   1.952   4.900   8.452  0.7428  0.6655 -0.6233
 1004MOL0     H38548   1.604   4.681   8.399 -0.3103 -0.4167 -0.1514
 1004MOL0     H38549   2.468   4.703   8.334  0.9183  0.2544 -1.1418
 1004MOL0     H38550   2.767   4.605   8.430  1.0398  0.2262  1.0185
 1004MOL0     H38551   2.700   4.697   8.573  0.2660  0.5961  0.3290
 1004MOL0     H38552   2.590   4.600   8.465  1.4887 -0.2129 -2.9339
 1005MOL0     O38553   3.391   6.028   7.544  0.3076  0.7576 -0.4836
 1005MOL0     C38554   3.309   6.111   7.562 -0.2714 -0.4071  0.3539
 1005MOL0     O38555   3.294   6.196   7.676  0.1998  0.3766  0.6380
 1005MOL0     C38556   3.409   6.223   7.739 -0.5964  0.6132  0.1409
 1005MOL0     C38557   3.395   6.223   7.876 -0.1502 -0.3032 -0.2232
 1005MOL0     C38558   3.499   6.250   7.960 -0.4235  0.8436 -0.5143
 1005MOL0     C38559   3.628   6.277   7.911 -0.4168  0.0073  0.1175
 1005MOL0     O38560   3.735   6.307   7.993 -0.0817 -0.6981  0.0187
 1005MOL0     C38561   3.769   6.198   8.084  0.9558 -0.6806  1.2916
 1005MOL0     C38562   3.924   6.197   8.092 -0.4690  0.8825 -0.0542
 1005MOL0     C38563   3.989   6.319   8.161  0.7560 -0.3524 -0.1365
 1005MOL0     C38564   4.116   6.271   8.225  0.4012 -0.7378  0.0135
 1005MOL0     C38565   4.201   6.385   8.279 -0.5465  0.0686  0.2341
 1005MOL0     C38566   4.141   6.480   8.378 -0.6285 -0.2686 -0.0298
 1005MOL0     C38567   4.117   6.413   8.517 -0.8942 -0.2507  0.6544
 1005MOL0     C38568   4.029   6.503   8.602 -0.2095  0.7034  0.5595
 1005MOL0     N38569   4.077   6.637   8.627  0.1942  0.7875 -0.0514
 1005MOL0     C38570   4.179   6.662   8.716  0.5886  0.0139  1.0068
 1005MOL0     C38571   4.181   6.796   8.721 -1.3064 -0.8454 -1.1863
 1005MOL0     C38572   4.275   6.891   8.798 -0.1854  0.0947 -0.3458
 1005MOL0     C38573   4.396   6.919   8.704 -0.8258  0.2126 -0.6974
 1005MOL0     C38574   4.499   7.029   8.741 -0.3563 -0.1512  0.4176
 1005MOL0     C38575   4.620   7.026   8.649 -0.3742 -0.2792  0.4796
 1005MOL0     O38576   4.700   7.132   8.701  0.3024  0.7664  0.2536
 1005MOL0     C38577   4.764   7.202   8.602 -0.2521  0.4244 -0.0215
 1005MOL0     C38578   4.859   7.131   8.536  0.2368 -0.5554 -0.0511
 1005MOL0     C38579   4.934   7.195   8.435 -0.1755  0.3422 -0.2011
 1005MOL0     C38580   5.042   7.101   8.382 -0.7840 -0.2598  0.2542
 1005MOL0     C38581   4.918   7.334   8.408 -0.6758 -0.3769 -0.1365
 1005MOL0     C38582   4.990   7.393   8.290 -0.0226 -0.7951 -0.0072
 1005MOL0     O38583   5.036   7.525   8.304 -0.4352 -0.0947 -0.5300
 1005MOL0     C38584   5.129   7.582   8.223  0.0621 -0.0898 -0.0170
 1005MOL0     C38585   5.136   7.723   8.214  0.0032  0.3589 -0.0580
 1005MOL0     C38586   5.235   7.789   8.145  0.0025  0.4064 -0.5534
 1005MOL0     C38587   5.337   7.727   8.084 -0.0939  1.0374 -0.0721
 1005MOL0     O38588   5.436   7.795   8.007  0.5911  0.3859 -0.3960
 1005MOL0     C38589   5.390   7.921   7.952  0.6958 -0.4159  0.4939
 1005MOL0     C38590   5.497   7.972   7.851  0.3947 -0.3710  0.3323
 1005MOL0     C38591   5.645   7.978   7.907 -0.1949 -0.3278  0.2875
 1005MOL0     C38592   5.738   8.055   7.809  0.2788  0.5898 -0.0527
 1005MOL0     C38593   5.884   8.031   7.861 -0.5422  0.1666  0.7586
 1005MOL0     C38594   5.997   8.092   7.780  0.9457  0.2875  0.4829
 1005MOL0     C38595   6.140   8.070   7.839 -0.4998  0.5134 -0.5251
 1005MOL0     C38596   6.246   8.159   7.778  0.1235 -0.0865 -0.7958
 1005MOL0    Cl38597   6.409   8.124   7.854  0.3795  0.1778 -0.1156
 1005MOL0     C38598   5.351   7.588   8.100 -0.2718 -0.1516  0.1851
 1005MOL0     C38599   5.247   7.519   8.177 -0.1979  0.6480  0.1820
 1005MOL0     O38600   4.991   7.334   8.184  0.7545  0.5401 -0.2953
 1005MOL0     C38601   4.812   7.404   8.475 -0.2759 -0.1744 -0.1171
 1005MOL0     C38602   4.744   7.341   8.578  0.0819  1.0301  0.6290
 1005MOL0     N38603   4.078   6.845   8.643  0.1814 -0.9487 -0.8261
 1005MOL0     N38604   4.020   6.750   8.583  0.4060  0.4124  0.0131
 1005MOL0     C38605   3.641   6.290   7.774  0.8799 -0.2254  0.3441
 1005MOL0     C38606   3.532   6.261   7.687 -0.1761  0.6955 -0.0242
 1005MOL0     C38607   3.189   6.111   7.466  0.1020  0.5940 -0.0813
 1005MOL0     C38608   3.141   5.995   7.417  0.7233  0.0861  0.1006
 1005MOL0     C38609   3.029   5.985   7.341  0.1092 -0.2609  0.1246
 1005MOL0     C38610   2.966   6.100   7.297 -0.1493  0.4998  0.3188
 1005MOL0     O38611   2.858   6.095   7.218  0.0422 -0.1154  0.1411
 1005MOL0     C38612   2.743   6.164   7.252  0.7037  0.1723 -0.6508
 1005MOL0     C38613   2.623   6.091   7.173  0.3195  0.0808  0.1779
 1005MOL0     C38614   2.484   6.150   7.219 -0.0983 -0.7798 -0.2309
 1005MOL0     C38615   2.378   6.097   7.118  0.1092  0.7156 -0.3635
 1005MOL0     C38616   2.240   6.122   7.166  0.4918 -1.2748 -0.2230
 1005MOL0     C38617   2.122   6.142   7.188  0.1425  0.1715 -0.3295
 1005MOL0     C38618   3.011   6.221   7.334  0.3312 -0.5862 -0.7507
 1005MOL0     C38619   3.118   6.227   7.426  0.0830  0.4982  0.4574
 1005MOL0     C38620   3.164   6.364   7.462 -0.2544  0.2262  0.1435
 1005MOL0     H38621   3.297   6.208   7.921 -0.7012  2.8151 -0.1079
 1005MOL0     H38622   3.489   6.242   8.068 -2.4211  0.9993 -0.6542
 1005MOL0     H38623   3.733   6.107   8.035  1.3118 -1.3987  2.3034
 1005MOL0     H38624   3.710   6.214   8.174  1.9203 -1.3211  2.0619
 1005MOL0     H38625   3.956   6.115   8.157  1.0411  1.9266  0.5670
 1005MOL0     H38626   3.967   6.199   7.992 -0.7471  0.2973 -0.1869
 1005MOL0     H38627   3.994   6.399   8.087  0.6199  0.1036  0.3432
 1005MOL0     H38628   3.919   6.350   8.239 -0.3964 -0.8226 -0.9530
 1005MOL0     H38629   4.088   6.196   8.299 -0.4640 -0.2440  0.2002
 1005MOL0     H38630   4.174   6.233   8.141  1.7301 -1.8740  1.3906
 1005MOL0     H38631   4.250   6.433   8.194 -0.1287  1.5999  1.2882
 1005MOL0     H38632   4.286   6.343   8.334 -0.7579 -0.1479  0.4023
 1005MOL0     H38633   4.211   6.563   8.386 -2.8902  1.7346  0.0880
 1005MOL0     H38634   4.050   6.522   8.334  0.1446 -2.0602 -3.6714
 1005MOL0     H38635   4.213   6.401   8.567  0.5530  0.8452 -1.6855
 1005MOL0     H38636   4.073   6.317   8.490 -1.1696  0.3631 -1.2334
 1005MOL0     H38637   3.934   6.524   8.551 -0.7891  2.8363  2.3336
 1005MOL0     H38638   3.996   6.458   8.697  0.8389  1.1550  1.1477
 1005MOL0     H38639   4.242   6.596   8.774 -0.5615 -0.1281  2.1556
 1005MOL0     H38640   4.318   6.853   8.891 -2.3687  0.9011  1.0751
 1005MOL0     H38641   4.215   6.979   8.823 -2.0108 -0.2577 -3.0227
 1005MOL0     H38642   4.464   6.835   8.689  0.2474  0.6885  1.1111
 1005MOL0     H38643   4.349   6.936   8.607 -1.8193  0.5952 -0.1638
 1005MOL0     H38644   4.446   7.124   8.731  1.5911  0.9890  0.4326
 1005MOL0     H38645   4.527   7.028   8.847  0.1334 -2.3281  0.3204
 1005MOL0     H38646   4.674   6.932   8.653 -2.6871 -1.8084 -1.4158
 1005MOL0     H38647   4.582   7.045   8.548 -0.4576  0.5428  0.6570
 1005MOL0     H38648   4.856   7.026   8.565  0.0621 -0.4930  0.1595
 1005MOL0     H38649   5.115   7.163   8.328  1.1542 -1.6345  1.1568
 1005MOL0     H38650   5.006   7.015   8.325  0.0260 -0.5442  0.1476
 1005MOL0     H38651   5.105   7.060   8.461 -2.0543  0.4107  1.6457
 1005MOL0     H38652   5.063   7.785   8.266  2.8204  1.9747  2.2739
 1005MOL0     H38653   5.226   7.896   8.128 -0.3056  0.7774  1.6434
 1005MOL0     H38654   5.302   7.911   7.888 -0.0675  0.4277  1.3819
 1005MOL0     H38655   5.367   7.993   8.032  0.0625 -0.2787  0.1948
 1005MOL0     H38656   5.497   7.906   7.764  0.2019  3.1815 -2.5700
 1005MOL0     H38657   5.463   8.070   7.819  0.6264 -0.4757 -0.2368
 1005MOL0     H38658   5.675   7.873   7.920 -0.0564 -0.3155  0.0701
 1005MOL0     H38659   5.641   8.016   8.009 -0.2065  1.1672 -0.2468
 1005MOL0     H38660   5.714   8.161   7.813 -2.5981  0.1063 -1.4694
 1005MOL0     H38661   5.727   8.013   7.708  1.5910  0.4432 -0.1538
 1005MOL0     H38662   5.890   8.067   7.964  1.2192  2.5425 -0.0680
 1005MOL0     H38663   5.898   7.922   7.860 -2.5434 -0.1216  0.4413
 1005MOL0     H38664   5.986   8.201   7.772  0.3957  0.2081  0.1004
 1005MOL0     H38665   5.995   8.045   7.682  1.8949  1.0592  0.0756
 1005MOL0     H38666   6.165   7.964   7.829  1.4494  1.0138 -1.3291
 1005MOL0     H38667   6.133   8.099   7.944 -1.1769  1.8653 -0.9286
 1005MOL0     H38668   6.221   8.265   7.794 -0.1689 -0.3064  0.2736
 1005MOL0     H38669   6.256   8.134   7.672 -2.2184  0.1869 -1.1504
 1005MOL0     H38670   5.441   7.541   8.063 -1.0384 -2.7106  1.3722
 1005MOL0     H38671   5.262   7.412   8.184 -3.3182  0.1010  0.2010
 1005MOL0     H38672   4.802   7.510   8.453 -1.4977 -0.1103  0.6142
 1005MOL0     H38673   4.670   7.393   8.637 -2.6951 -1.0577 -0.7780
 1005MOL0     H38674   3.729   6.328   7.723  1.9438 -1.4273  1.2049
 1005MOL0     H38675   3.536   6.275   7.579 -1.1310  0.4131 -0.1013
 1005MOL0     H38676   3.192   5.908   7.455 -1.2777 -1.4304 -0.5315
 1005MOL0     H38677   2.992   5.887   7.314 -0.7886  0.4011 -1.1488
 1005MOL0     H38678   2.728   6.156   7.361 -0.5670  3.0147 -0.5201
 1005MOL0     H38679   2.750   6.266   7.213  5.5405  0.3277  0.0181
 1005MOL0     H38680   2.631   5.985   7.200  0.7366 -0.2002 -0.9937
 1005MOL0     H38681   2.643   6.104   7.067  0.2549 -3.4864 -0.4076
 1005MOL0     H38682   2.469   6.146   7.327 -0.6430  3.2418 -0.0293
 1005MOL0     H38683   2.492   6.259   7.213  2.2259 -0.6195  3.0693
 1005MOL0     H38684   2.392   5.990   7.102 -2.1572  0.5705 -1.8660
 1005MOL0     H38685   2.390   6.149   7.022 -0.1448 -0.9849 -1.3575
 1005MOL0     H38686   2.021   6.160   7.219 -0.4869 -1.0848 -1.5583
 1005MOL0     H38687   2.961   6.308   7.292 -1.6999 -1.1545  0.3693
 1005MOL0     H38688   3.260   6.372   7.513  0.5061  1.6214 -1.4090
 1005MOL0     H38689   3.172   6.419   7.368 -0.0389  0.2922  0.1984
 1005MOL0     H38690   3.090   6.418   7.522  1.3139  2.3433  0.2815
 1006MOL0     O38691   3.097   3.104   3.467 -0.0330 -0.0894 -0.5349
 1006MOL0     C38692   3.047   3.203   3.525 -0.0066  0.5210 -0.5389
 1006MOL0     O38693   2.921   3.241   3.524 -0.4744  0.2872  0.0671
 1006MOL0     C38694   2.822   3.160   3.468 -0.0075 -0.7724 -0.1249
 1006MOL0     C38695   2.735   3.224   3.379  0.2258  0.3589  0.0083
 1006MOL0     C38696   2.629   3.148   3.323  0.3024 -0.4236 -0.3710
 1006MOL0     C38697   2.612   3.013   3.343 -0.2626  0.5901  0.4105
 1006MOL0     O38698   2.511   2.954   3.277  0.4021 -0.2371  0.6260
 1006MOL0     C38699   2.441   2.839   3.305  0.3328  0.3982 -1.0494
 1006MOL0     C38700   2.325   2.872   3.406  0.3327  0.3203  0.1754
 1006MOL0     C38701   2.202   2.939   3.340  1.0769  0.3388 -0.0077
 1006MOL0     C38702   2.130   2.839   3.246 -0.2915  0.3081 -0.7259
 1006MOL0     C38703   2.001   2.880   3.195 -1.1362 -1.2274 -0.9513
 1006MOL0     C38704   1.926   2.779   3.103 -0.1302 -0.0605  0.3502
 1006MOL0     C38705   1.775   2.814   3.083  0.2328 -0.3567  0.1239
 1006MOL0     C38706   1.764   2.966   3.018  0.2309  0.1788  0.9361
 1006MOL0     N38707   1.629   2.991   2.999  0.6517  0.8632 -0.2170
 1006MOL0     C38708   1.550   2.940   2.898 -0.0406 -1.4176 -0.0987
 1006MOL0     C38709   1.424   2.970   2.931 -0.4259 -0.4107  0.3622
 1006MOL0     C38710   1.301   2.930   2.856 -0.4988 -0.0047  0.3223
 1006MOL0     C38711   1.291   2.781   2.838  0.5985  0.8502 -0.3135
 1006MOL0     C38712   1.147   2.756   2.787 -0.5093 -0.1437  0.0549
 1006MOL0     C38713   1.132   2.609   2.744 -0.0073  0.3410 -0.2881
 1006MOL0     O38714   1.158   2.517   2.849 -0.3401  0.4390 -0.7463
 1006MOL0     C38715   1.234   2.400   2.836  0.0868  0.6000 -0.1016
 1006MOL0     C38716   1.256   2.315   2.947 -0.6777 -0.3626  0.0503
 1006MOL0     C38717   1.336   2.194   2.929  0.4891 -0.1929  0.1939
 1006MOL0     C38718   1.363   2.103   3.054 -0.1936  0.1081  0.7265
 1006MOL0     C38719   1.376   2.158   2.798  0.5358  0.6202  0.2370
 1006MOL0     C38720   1.459   2.042   2.764 -0.6456  0.1257  0.4210
 1006MOL0     O38721   1.550   2.071   2.668 -1.0679 -0.2570  0.5055
 1006MOL0     C38722   1.623   1.975   2.607 -0.4561  0.1990  0.2301
 1006MOL0     C38723   1.705   1.900   2.687  1.0414 -0.2774  0.2942
 1006MOL0     C38724   1.795   1.809   2.635 -0.3698  0.2902 -1.3517
 1006MOL0     C38725   1.806   1.793   2.495  0.3675 -0.0742 -0.0551
 1006MOL0     O38726   1.883   1.699   2.435  0.6241  0.7197  0.4524
 1006MOL0     C38727   1.959   1.607   2.520  0.1468  0.5558 -0.6168
 1006MOL0     C38728   2.059   1.532   2.438  0.1495  0.1098 -0.1116
 1006MOL0     C38729   2.032   1.496   2.296  0.8088  0.0873  0.2424
 1006MOL0     C38730   1.902   1.414   2.288 -0.1946  0.7994  0.8504
 1006MOL0     C38731   1.895   1.379   2.139  0.3821 -0.1010  0.0739
 1006MOL0     C38732   1.794   1.272   2.104  0.2973  0.7020 -0.2617
 1006MOL0     C38733   1.652   1.315   2.126  0.5462 -0.4708 -0.1504
 1006MOL0     C38734   1.603   1.401   2.012 -0.3540 -0.0033 -0.2668
 1006MOL0    Cl38735   1.435   1.445   2.041 -0.3601 -0.6238  0.3473
 1006MOL0     C38736   1.725   1.863   2.405  0.3219  0.0322 -0.9590
 1006MOL0     C38737   1.634   1.953   2.466  0.5652 -0.5298 -0.0796
 1006MOL0     O38738   1.441   1.931   2.816  0.2190 -0.1618  0.0783
 1006MOL0     C38739   1.348   2.249   2.692  0.2816  0.2423 -0.9266
 1006MOL0     C38740   1.288   2.368   2.714  0.2508 -0.0840 -0.2040
 1006MOL0     N38741   1.425   3.039   3.048 -0.1622  0.1264 -0.2150
 1006MOL0     N38742   1.546   3.055   3.088 -0.2662  0.4952  0.1440
 1006MOL0     C38743   2.704   2.945   3.435  0.5376 -0.4717 -0.1922
 1006MOL0     C38744   2.811   3.021   3.486 -0.1666  0.7985 -0.2092
 1006MOL0     C38745   3.151   3.304   3.561  1.0575  0.0027 -0.3816
 1006MOL0     C38746   3.163   3.409   3.478  0.3521  0.6862 -0.0282
 1006MOL0     C38747   3.264   3.495   3.509 -0.5538  0.7586 -0.3126
 1006MOL0     C38748   3.353   3.472   3.619  0.2255  0.3071 -0.1714
 1006MOL0     O38749   3.445   3.573   3.647 -0.3026 -0.3688  0.0970
 1006MOL0     C38750   3.544   3.571   3.541  0.0740  0.2297 -0.0952
 1006MOL0     C38751   3.622   3.699   3.547  0.0266 -0.6822 -0.0864
 1006MOL0     C38752   3.711   3.706   3.678 -0.3023  0.5520  0.4094
 1006MOL0     C38753   3.815   3.816   3.681 -0.9309  0.6891 -0.4430
 1006MOL0     C38754   3.914   3.784   3.576  0.2638  0.4793  0.6607
 1006MOL0     C38755   4.008   3.761   3.508  0.3601 -0.3541 -0.1445
 1006MOL0     C38756   3.327   3.372   3.707 -0.2589  0.2228  0.5407
 1006MOL0     C38757   3.226   3.284   3.676 -0.0373 -0.0075 -0.1554
 1006MOL0     C38758   3.198   3.172   3.774 -0.3846 -0.5052  0.7445
 1006MOL0     H38759   2.747   3.331   3.362  0.3721  0.0932 -1.7708
 1006MOL0     H38760   2.555   3.189   3.255 -0.9965 -0.2187  1.1326
 1006MOL0     H38761   2.509   2.761   3.341  0.0315  0.6933  0.1823
 1006MOL0     H38762   2.404   2.800   3.209  0.8227 -0.1034 -1.0405
 1006MOL0     H38763   2.300   2.786   3.469 -1.3173 -1.2668 -2.4622
 1006MOL0     H38764   2.362   2.941   3.482  0.2550 -0.1915  0.6826
 1006MOL0     H38765   2.135   2.962   3.423  0.1447  1.9691 -1.1629
 1006MOL0     H38766   2.228   3.029   3.284 -2.6862  2.8147  1.8186
 1006MOL0     H38767   2.193   2.812   3.161  2.4230 -2.0575  1.8145
 1006MOL0     H38768   2.115   2.738   3.286 -0.6714  0.8832  0.6310
 1006MOL0     H38769   2.017   2.970   3.136  1.6464 -0.6990  0.4332
 1006MOL0     H38770   1.937   2.915   3.276 -0.1725 -3.4593  0.8986
 1006MOL0     H38771   1.973   2.761   3.006 -1.8489 -0.6965 -0.4147
 1006MOL0     H38772   1.927   2.683   3.155 -0.4213 -1.0097 -1.3232
 1006MOL0     H38773   1.729   2.821   3.182  1.2492  0.2157  0.5646
 1006MOL0     H38774   1.727   2.733   3.027  1.1907 -2.5984  2.3387
 1006MOL0     H38775   1.816   3.042   3.077 -0.8653  1.9424 -0.2849
 1006MOL0     H38776   1.807   2.963   2.918 -1.4431 -1.6432  0.1938
 1006MOL0     H38777   1.582   2.902   2.802 -0.1309  0.1630 -0.7862
 1006MOL0     H38778   1.303   2.983   2.760 -1.7720  0.7494  0.6935
 1006MOL0     H38779   1.213   2.967   2.910 -2.0076 -1.7587 -0.8084
 1006MOL0     H38780   1.372   2.746   2.774  0.5077  0.1332 -0.0456
 1006MOL0     H38781   1.299   2.739   2.939  1.6778  0.1171 -0.6914
 1006MOL0     H38782   1.072   2.788   2.860 -0.1668  1.5893 -0.3289
 1006MOL0     H38783   1.133   2.820   2.701  2.1047  1.1436  0.4862
 1006MOL0     H38784   1.027   2.609   2.713  0.6707  2.2117 -2.9507
 1006MOL0     H38785   1.200   2.591   2.660  0.3920 -0.2815  0.1652
 1006MOL0     H38786   1.220   2.341   3.046 -1.6237 -1.0837 -0.0933
 1006MOL0     H38787   1.295   2.018   3.043  1.1788 -1.1247  1.4106
 1006MOL0     H38788   1.346   2.155   3.149 -0.5368  1.7494 -0.1954
 1006MOL0     H38789   1.469   2.074   3.053  1.0417  4.1052 -1.2102
 1006MOL0     H38790   1.710   1.903   2.795 -2.8882  0.2211  0.6110
 1006MOL0     H38791   1.852   1.747   2.703  0.1502 -0.7645 -2.7110
 1006MOL0     H38792   2.006   1.655   2.607 -0.6847 -0.7898  0.6149
 1006MOL0     H38793   1.881   1.537   2.552  0.2986  1.4183  1.8644
 1006MOL0     H38794   2.154   1.585   2.444  0.0046  0.3829 -0.2167
 1006MOL0     H38795   2.080   1.435   2.483  1.1911 -0.1087 -1.0230
 1006MOL0     H38796   2.114   1.434   2.259  0.7731 -1.4550  2.5694
 1006MOL0     H38797   2.021   1.581   2.227  1.0129 -0.7713 -0.8740
 1006MOL0     H38798   1.812   1.469   2.318 -1.2470 -0.6752  0.4996
 1006MOL0     H38799   1.928   1.328   2.350 -0.4319  0.6013  0.6777
 1006MOL0     H38800   1.876   1.471   2.083  1.3205  0.3088  0.4119
 1006MOL0     H38801   1.997   1.346   2.116  0.5345 -0.4513  1.2031
 1006MOL0     H38802   1.816   1.193   2.177  0.5403  1.0862  0.0866
 1006MOL0     H38803   1.815   1.243   2.001 -0.4287  1.9509 -0.7735
 1006MOL0     H38804   1.644   1.362   2.225  0.3925  1.4028 -1.0045
 1006MOL0     H38805   1.583   1.230   2.128  0.2061 -0.2579 -1.7070
 1006MOL0     H38806   1.605   1.350   1.915 -1.4979 -1.0442  0.2416
 1006MOL0     H38807   1.662   1.493   2.018  0.6250 -0.6428  0.2610
 1006MOL0     H38808   1.722   1.847   2.297 -1.8994 -0.2747 -0.8985
 1006MOL0     H38809   1.575   2.013   2.397  2.0633  0.2613 -0.7193
 1006MOL0     H38810   1.394   2.239   2.594  4.4150  1.8667  0.6214
 1006MOL0     H38811   1.290   2.429   2.624 -0.6477 -3.1737 -2.4740
 1006MOL0     H38812   2.711   2.837   3.449  0.4821 -0.6166 -1.1952
 1006MOL0     H38813   2.876   2.961   3.549 -1.3978  0.1225  0.4581
 1006MOL0     H38814   3.107   3.418   3.386  1.5148  3.4714 -0.5714
 1006MOL0     H38815   3.278   3.588   3.455  0.0491 -0.0451 -1.5855
 1006MOL0     H38816   3.602   3.479   3.545 -0.7367 -0.3032 -0.3543
 1006MOL0     H38817   3.512   3.578   3.437  0.7311 -1.8602 -0.4714
 1006MOL0     H38818   3.565   3.789   3.521  1.4061 -0.1201 -1.3328
 1006MOL0     H38819   3.694   3.691   3.465  1.0123 -0.3041  0.7286
 1006MOL0     H38820   3.643   3.736   3.759 -1.2729 -1.5243  0.4489
 1006MOL0     H38821   3.758   3.609   3.700 -0.0440  0.4632 -0.4981
 1006MOL0     H38822   3.869   3.821   3.776  0.6655 -1.6474 -1.1376
 1006MOL0     H38823   3.753   3.906   3.675  0.2829  1.9524  3.2087
 1006MOL0     H38824   4.100   3.758   3.454  1.3279  0.5996  1.3999
 1006MOL0     H38825   3.395   3.361   3.791 -0.8231 -2.6150  0.7243
 1006MOL0     H38826   3.170   3.213   3.871 -0.3226 -1.4503  1.1772
 1006MOL0     H38827   3.106   3.119   3.747 -1.3526  2.0435 -1.3940
 1006MOL0     H38828   3.283   3.102   3.772  1.8813  2.0979 -0.5950
 1007MOL0     O38829   6.069   8.261   5.797  0.8740  0.6907  0.3367
 1007MOL0     C38830   6.060   8.180   5.707 -0.2478 -0.2184  0.7011
 1007MOL0     O38831   6.160   8.100   5.661  0.3324 -0.9783 -0.2305
 1007MOL0     C38832   6.288   8.120   5.699  0.0349 -0.0485  0.0759
 1007MOL0     C38833   6.373   8.007   5.729  0.8564 -0.0602 -0.6074
 1007MOL0     C38834   6.509   8.019   5.761  0.3846 -0.1810  0.5123
 1007MOL0     C38835   6.566   8.146   5.774 -0.2786  0.3287 -0.4497
 1007MOL0     O38836   6.702   8.164   5.801  0.2302  0.0497  0.5771
 1007MOL0     C38837   6.747   8.083   5.909 -0.6454 -0.5661  0.0736
 1007MOL0     C38838   6.848   8.160   5.998 -0.6383  0.5989 -0.3461
 1007MOL0     C38839   6.978   8.206   5.933  0.0831 -0.1314  0.6327
 1007MOL0     C38840   7.084   8.097   5.913  0.0873  0.5261 -0.3162
 1007MOL0     C38841   7.233   8.149   5.905  0.4888 -0.2179 -0.4936
 1007MOL0     C38842   7.326   8.030   5.909 -0.0780  0.2671  0.2524
 1007MOL0     C38843   7.474   8.072   5.897  0.7139 -0.3037  0.4428
 1007MOL0     C38844   7.555   7.957   5.879  0.6479 -0.3557 -0.5126
 1007MOL0     N38845   7.694   7.996   5.910 -0.0255  0.2942  0.1693
 1007MOL0     C38846   7.763   7.969   6.023 -0.6335 -0.3500  0.1181
 1007MOL0     C38847   7.888   8.017   6.000  1.0958  0.5372  0.1129
 1007MOL0     C38848   8.001   7.997   6.107  0.2423 -0.7132 -0.2682
 1007MOL0     C38849   8.127   8.082   6.070  1.0216  0.4502 -0.5840
 1007MOL0     C38850   8.117   8.236   6.116 -0.4067  0.3876  0.0482
 1007MOL0     C38851   8.228   8.327   6.060 -0.1609 -0.3323 -0.2217
 1007MOL0     O38852   8.344   8.254   6.085  0.3449 -0.2589 -0.1785
 1007MOL0     C38853   8.451   8.328   6.118 -0.0231  0.3532  0.4442
 1007MOL0     C38854   8.508   8.346   6.243  0.1103  0.1972  0.9090
 1007MOL0     C38855   8.625   8.423   6.262 -0.3834 -0.0149  0.1989
 1007MOL0     C38856   8.679   8.445   6.401  0.1159  0.1012 -0.0772
 1007MOL0     C38857   8.678   8.491   6.149  0.3032 -0.6422  0.3201
 1007MOL0     C38858   8.796   8.588   6.155 -0.0213  0.1324  0.2968
 1007MOL0     O38859   8.812   8.665   6.048 -0.6705  0.1526  0.3838
 1007MOL0     C38860   8.950   8.688   6.026 -0.2785 -0.1566 -0.4091
 1007MOL0     C38861   9.035   8.582   5.985  0.6441 -0.1297  0.3773
 1007MOL0     C38862   9.176   8.603   5.980  0.2404  0.3475  0.1837
 1007MOL0     C38863   9.223   8.735   6.000  0.0329 -0.3429 -1.2162
 1007MOL0     O38864   9.354   8.775   6.018 -0.1207 -0.2751  0.6906
 1007MOL0     C38865   9.450   8.687   5.976 -0.1627  0.5497  0.2934
 1007MOL0     C38866   9.579   8.744   6.014 -0.6873  0.2136 -0.1993
 1007MOL0     C38867   9.696   8.694   5.932 -0.3631 -0.0416 -0.2807
 1007MOL0     C38868   9.832   8.743   5.995  0.1983 -0.3675  0.0462
 1007MOL0     C38869   9.950   8.686   5.923  0.1472 -0.2035 -0.7916
 1007MOL0     C38870  10.085   8.748   5.967  0.2829 -0.1744  1.1046
 1007MOL0     C38871  10.205   8.723   5.876  0.4663  0.5000 -0.2989
 1007MOL0     C38872  10.245   8.573   5.869 -0.3537  0.0058  0.7352
 1007MOL0    Cl38873  10.299   8.534   6.040  0.2621  0.5455  0.1449
 1007MOL0     C38874   9.138   8.840   6.025 -0.5664  0.6902  0.1589
 1007MOL0     C38875   9.002   8.817   6.036 -0.1561  0.7832 -0.1375
 1007MOL0     O38876   8.869   8.590   6.255  0.1989 -0.4902 -0.2510
 1007MOL0     C38877   8.617   8.469   6.024 -0.3229 -0.5209  0.3310
 1007MOL0     C38878   8.504   8.387   6.007  0.3363 -0.6564 -0.4032
 1007MOL0     N38879   7.893   8.063   5.874 -0.1350 -0.2522  0.4429
 1007MOL0     N38880   7.778   8.064   5.825  0.2481 -0.5082  0.2663
 1007MOL0     C38881   6.484   8.264   5.756 -1.1296 -0.1026  0.2119
 1007MOL0     C38882   6.349   8.248   5.710  0.1284  0.5871 -0.6515
 1007MOL0     C38883   5.933   8.177   5.620 -0.3766 -0.7594 -0.4984
 1007MOL0     C38884   5.896   8.057   5.560 -1.0916 -0.3363 -0.6493
 1007MOL0     C38885   5.776   8.041   5.489  1.4985 -0.9344  0.0115
 1007MOL0     C38886   5.685   8.149   5.477 -0.2877 -0.5243  0.9027
 1007MOL0     O38887   5.567   8.128   5.410 -0.0166  0.2354  0.0735
 1007MOL0     C38888   5.469   8.237   5.415  0.0164  0.4545 -0.1919
 1007MOL0     C38889   5.336   8.191   5.353 -0.3228 -0.7716 -0.2086
 1007MOL0     C38890   5.349   8.168   5.204  0.4327  0.4293  0.3301
 1007MOL0     C38891   5.212   8.102   5.162  0.6014  0.1985 -0.0871
 1007MOL0     C38892   5.216   8.076   5.017 -0.6615 -0.2158 -0.5963
 1007MOL0     C38893   5.227   8.075   4.899  0.1942  0.4538 -1.0224
 1007MOL0     C38894   5.731   8.268   5.539  0.8457 -0.2038 -0.2679
 1007MOL0     C38895   5.848   8.285   5.613 -0.3751  0.0499  0.2188
 1007MOL0     C38896   5.882   8.425   5.659  0.2019  0.6466  0.6934
 1007MOL0     H38897   6.324   7.910   5.732 -1.2036  0.9085 -0.7199
 1007MOL0     H38898   6.562   7.925   5.772  2.1075  0.6955 -0.0249
 1007MOL0     H38899   6.787   7.988   5.873  0.3042 -1.1800  2.5319
 1007MOL0     H38900   6.670   8.051   5.980 -0.4364  1.3640  1.2405
 1007MOL0     H38901   6.795   8.244   6.044 -1.7342 -0.2522 -0.0226
 1007MOL0     H38902   6.881   8.100   6.083 -0.1416  1.1585 -0.1421
 1007MOL0     H38903   6.954   8.245   5.834 -1.2389  0.2168  1.0719
 1007MOL0     H38904   7.015   8.287   5.997  2.5511  0.2183 -1.0962
 1007MOL0     H38905   7.083   8.034   6.002 -0.5072 -1.8778 -1.9286
 1007MOL0     H38906   7.059   8.031   5.829  2.4550 -2.5866  1.2180
 1007MOL0     H38907   7.250   8.216   5.990 -0.3612 -0.3334 -0.2237
 1007MOL0     H38908   7.250   8.208   5.814  0.2456  0.4458 -0.1176
 1007MOL0     H38909   7.311   7.972   6.000  1.9882 -0.3034  0.2770
 1007MOL0     H38910   7.311   7.957   5.829  2.6063 -0.7866  0.5836
 1007MOL0     H38911   7.503   8.123   5.990 -0.2101  2.5275 -0.7211
 1007MOL0     H38912   7.487   8.140   5.813 -1.4225 -0.1319  0.2028
 1007MOL0     H38913   7.527   7.865   5.931  1.4669 -2.4810 -3.5741
 1007MOL0     H38914   7.550   7.922   5.776  1.2652 -2.5008  0.1300
 1007MOL0     H38915   7.733   7.939   6.123  0.5325  3.5582  1.8621
 1007MOL0     H38916   8.041   7.895   6.112  0.2699 -0.8127 -1.9982
 1007MOL0     H38917   7.966   8.014   6.209  0.6882 -1.4504  0.0211
 1007MOL0     H38918   8.215   8.038   6.116  0.0328  1.7879  2.9176
 1007MOL0     H38919   8.149   8.073   5.963  0.4998 -2.4630 -0.5235
 1007MOL0     H38920   8.019   8.277   6.089  0.2942  2.1524  0.1041
 1007MOL0     H38921   8.126   8.220   6.223  1.2058  2.0270  0.2075
 1007MOL0     H38922   8.203   8.333   5.954 -3.0647  1.4011  0.4532
 1007MOL0     H38923   8.222   8.425   6.108 -1.0904 -1.6280  2.5528
 1007MOL0     H38924   8.472   8.292   6.330  2.0511  0.1024  1.6879
 1007MOL0     H38925   8.777   8.398   6.394  2.2500  3.2570  4.0624
 1007MOL0     H38926   8.610   8.397   6.470 -1.4571  0.5037 -1.2827
 1007MOL0     H38927   8.696   8.550   6.427  1.5895  0.3720 -1.8528
 1007MOL0     H38928   9.000   8.482   5.964  3.4197 -0.9020 -0.9753
 1007MOL0     H38929   9.237   8.515   5.962 -2.3970 -1.7665  0.9766
 1007MOL0     H38930   9.434   8.587   6.019 -0.9387  0.8637  0.7545
 1007MOL0     H38931   9.439   8.675   5.868  1.8366 -2.5657  0.3156
 1007MOL0     H38932   9.580   8.853   6.000 -1.2229  0.0678 -1.4987
 1007MOL0     H38933   9.601   8.711   6.116  1.7913 -0.2372 -0.8101
 1007MOL0     H38934   9.689   8.727   5.828  3.4851  1.5032 -0.2117
 1007MOL0     H38935   9.695   8.585   5.942 -2.4177  0.1334  2.9024
 1007MOL0     H38936   9.852   8.703   6.095  1.5826  1.3240  0.5158
 1007MOL0     H38937   9.836   8.852   6.005  0.6456 -0.4170  0.4538
 1007MOL0     H38938   9.960   8.582   5.953  0.0823 -0.6363 -2.1896
 1007MOL0     H38939   9.941   8.703   5.815 -1.9980 -3.1508 -1.1820
 1007MOL0     H38940  10.103   8.715   6.070  2.8635 -3.5069 -0.1852
 1007MOL0     H38941  10.077   8.856   5.981 -1.3429  0.2828 -2.4152
 1007MOL0     H38942  10.278   8.795   5.913 -1.0283  0.7243  2.4900
 1007MOL0     H38943  10.167   8.752   5.777 -2.2929  1.6003  1.0014
 1007MOL0     H38944  10.334   8.571   5.806 -1.4753 -1.3490 -0.8716
 1007MOL0     H38945  10.165   8.509   5.832  0.3787  0.3429 -1.5655
 1007MOL0     H38946   9.190   8.934   6.044  2.4074 -0.8857  0.5659
 1007MOL0     H38947   8.934   8.901   6.043 -1.6545 -0.3918  0.1001
 1007MOL0     H38948   8.661   8.514   5.935 -1.9773  2.6291  0.9288
 1007MOL0     H38949   8.477   8.372   5.903  1.0747  1.0949 -0.8978
 1007MOL0     H38950   6.535   8.360   5.752 -1.0686 -0.1851 -2.9443
 1007MOL0     H38951   6.284   8.335   5.702  0.3671  0.6003 -4.5641
 1007MOL0     H38952   5.954   7.965   5.566  1.1485  1.0653  0.4437
 1007MOL0     H38953   5.759   7.951   5.430  0.9116  0.5383 -2.1841
 1007MOL0     H38954   5.447   8.264   5.518 -0.7498  1.5281 -0.6157
 1007MOL0     H38955   5.507   8.323   5.360  1.7848 -1.2441 -1.7910
 1007MOL0     H38956   5.260   8.266   5.379 -3.3522 -3.8592  0.5732
 1007MOL0     H38957   5.315   8.092   5.394  0.4534 -0.2272  1.6000
 1007MOL0     H38958   5.376   8.258   5.148 -4.0240  1.8674  0.1084
 1007MOL0     H38959   5.432   8.099   5.189  0.2110 -0.1513  1.6399
 1007MOL0     H38960   5.129   8.168   5.187 -2.0275 -2.7574 -0.4430
 1007MOL0     H38961   5.190   8.015   5.224  1.7853 -0.0236  0.0455
 1007MOL0     H38962   5.268   8.073   4.800  2.1928  0.1721 -0.2383
 1007MOL0     H38963   5.653   8.343   5.551 -3.0121 -4.1250  2.5793
 1007MOL0     H38964   5.882   8.433   5.768  0.6639 -1.4148  0.8929
 1007MOL0     H38965   5.985   8.451   5.632  1.1174 -0.9900  2.4009
 1007MOL0     H38966   5.818   8.502   5.615  2.8743  0.7461 -3.6370
 1008MOL0     O38967   5.039   9.537   8.984 -0.2986  0.4128 -0.2745
 1008MOL0     C38968   4.932   9.476   8.958 -0.8952 -1.0327  0.1513
 1008MOL0     O38969   4.913   9.348   8.980 -0.3432  0.1782  0.0611
 1008MOL0     C38970   5.022   9.271   9.016  0.1294  0.1835  0.1382
 1008MOL0     C38971   5.034   9.207   9.145 -0.7536 -0.2429 -0.0298
 1008MOL0     C38972   5.145   9.132   9.173  0.0680 -0.9260  0.3682
 1008MOL0     C38973   5.237   9.100   9.071 -0.2362  0.5043 -0.1173
 1008MOL0     O38974   5.358   9.037   9.099  0.3954 -0.1444 -0.9232
 1008MOL0     C38975   5.368   8.967   9.230  0.5615  0.4837 -0.4236
 1008MOL0     C38976   5.504   8.904   9.235 -0.0726 -1.1180 -0.7361
 1008MOL0     C38977   5.618   8.981   9.156 -0.1805  0.2570 -0.6756
 1008MOL0     C38978   5.754   8.923   9.196 -0.1486  0.3981 -0.5920
 1008MOL0     C38979   5.880   8.996   9.139  0.8174  0.6642 -0.2895
 1008MOL0     C38980   5.996   8.909   9.205 -0.0349  0.6586  0.3638
 1008MOL0     C38981   6.127   8.931   9.125  1.0889  0.1049  0.0608
 1008MOL0     C38982   6.240   8.846   9.183  0.4190 -0.4368 -0.5077
 1008MOL0     N38983   6.233   8.703   9.157  0.1831  0.9534  0.2403
 1008MOL0     C38984   6.175   8.613   9.239  0.4529 -0.0216  0.5111
 1008MOL0     C38985   6.176   8.498   9.179  0.1551 -0.1044  0.7498
 1008MOL0     C38986   6.108   8.369   9.226 -0.0343 -1.0729  0.3850
 1008MOL0     C38987   6.155   8.320   9.357  0.1184  0.3082  0.0145
 1008MOL0     C38988   6.081   8.188   9.401 -0.2498  0.1590  0.7081
 1008MOL0     C38989   5.929   8.178   9.383 -0.0319  0.5234  0.0207
 1008MOL0     O38990   5.867   8.298   9.425 -0.1298 -0.3286  0.2037
 1008MOL0     C38991   5.740   8.334   9.376 -0.7967 -0.0686 -0.2929
 1008MOL0     C38992   5.645   8.241   9.361 -0.8487 -0.1981 -0.1822
 1008MOL0     C38993   5.521   8.274   9.309  0.5477  1.0958 -0.4433
 1008MOL0     C38994   5.420   8.160   9.305  1.2033  0.3766 -0.4171
 1008MOL0     C38995   5.489   8.412   9.269  0.3120  0.0271  0.6549
 1008MOL0     C38996   5.359   8.458   9.214 -0.4215  0.0526  0.2560
 1008MOL0     O38997   5.349   8.594   9.193  0.6236  0.1179 -0.8341
 1008MOL0     C38998   5.238   8.638   9.120  0.2018  0.1630 -0.0194
 1008MOL0     C38999   5.265   8.724   9.016 -0.9592 -0.8433  0.7090
 1008MOL0     C39000   5.169   8.784   8.944 -0.1555  0.3688  0.4431
 1008MOL0     C39001   5.034   8.780   8.978 -0.5167 -0.3408  0.4914
 1008MOL0     O39002   4.960   8.869   8.909  0.2352  0.2022 -0.3509
 1008MOL0     C39003   4.817   8.877   8.928  0.0594 -0.1315 -0.0496
 1008MOL0     C39004   4.761   8.932   8.802 -0.8901  0.8485 -0.5749
 1008MOL0     C39005   4.610   8.958   8.804 -0.1593 -0.5612  0.1259
 1008MOL0     C39006   4.548   9.003   8.675 -0.5346 -0.1067  0.3889
 1008MOL0     C39007   4.408   9.058   8.696 -0.2745 -0.4235  0.0174
 1008MOL0     C39008   4.363   9.139   8.570  0.9349  0.1915  0.2679
 1008MOL0     C39009   4.211   9.171   8.583 -0.4568  0.6833 -0.3111
 1008MOL0     C39010   4.166   9.247   8.468 -0.3350 -0.0657 -0.1096
 1008MOL0    Cl39011   3.987   9.270   8.467  0.1030 -0.2422 -0.1589
 1008MOL0     C39012   5.004   8.701   9.087  0.1383  1.3170 -0.6224
 1008MOL0     C39013   5.099   8.625   9.162 -0.1772  0.6751 -0.1448
 1008MOL0     O39014   5.276   8.375   9.182 -0.0128  0.6050 -0.3108
 1008MOL0     C39015   5.597   8.507   9.282  0.2452  0.0937 -0.0411
 1008MOL0     C39016   5.722   8.461   9.325 -0.1751  0.0935  0.6622
 1008MOL0     N39017   6.229   8.511   9.048  0.0792  0.7979 -0.1475
 1008MOL0     N39018   6.269   8.635   9.043  0.7423 -0.6678 -0.7237
 1008MOL0     C39019   5.230   9.160   8.942 -0.0687 -0.1781 -0.3960
 1008MOL0     C39020   5.127   9.245   8.921  0.0558  0.0827 -0.1006
 1008MOL0     C39021   4.836   9.560   8.884 -0.4454 -0.4558  0.4571
 1008MOL0     C39022   4.879   9.689   8.834  0.1889  0.5386 -0.1372
 1008MOL0     C39023   4.804   9.764   8.751 -0.7416  0.0040  0.7371
 1008MOL0     C39024   4.675   9.718   8.716  0.1605  0.7358  0.0387
 1008MOL0     O39025   4.583   9.790   8.648  0.3501  0.2053 -0.3411
 1008MOL0     C39026   4.623   9.878   8.543 -0.5251  0.3357  0.7444
 1008MOL0     C39027   4.492   9.942   8.471  0.2068  0.0716 -0.4149
 1008MOL0     C39028   4.538  10.061   8.403 -0.4885 -0.0402 -0.5757
 1008MOL0     C39029   4.467  10.096   8.263  0.1658 -0.2470 -0.0202
 1008MOL0     C39030   4.327  10.109   8.286  0.3139  0.6628 -0.7132
 1008MOL0     C39031   4.210  10.127   8.294  0.3107 -0.9614 -0.3179
 1008MOL0     C39032   4.634   9.595   8.766  0.1235 -0.8945  0.5446
 1008MOL0     C39033   4.710   9.519   8.844  0.3074 -0.3947  0.2937
 1008MOL0     C39034   4.656   9.380   8.879  0.8913  0.0147  0.0411
 1008MOL0     H39035   4.964   9.228   9.225  1.4139  1.0980  1.6278
 1008MOL0     H39036   5.154   9.111   9.279 -2.1452  0.3282  0.8716
 1008MOL0     H39037   5.288   8.893   9.226  1.8590 -0.9689 -0.8635
 1008MOL0     H39038   5.356   9.037   9.313  0.4690  1.7316 -1.4627
 1008MOL0     H39039   5.533   8.885   9.339 -0.1859 -1.4878 -0.7706
 1008MOL0     H39040   5.486   8.813   9.176  1.7543 -1.5755 -0.6359
 1008MOL0     H39041   5.610   8.967   9.048  1.5266  1.7113 -1.0363
 1008MOL0     H39042   5.619   9.087   9.185  0.7763 -0.1387  0.8313
 1008MOL0     H39043   5.770   8.931   9.303 -1.7176 -2.4686 -0.0431
 1008MOL0     H39044   5.751   8.816   9.171  0.4625  0.4852 -1.0703
 1008MOL0     H39045   5.874   9.102   9.165 -1.9000  1.6075 -3.8470
 1008MOL0     H39046   5.888   8.980   9.031 -0.3816 -1.0338 -0.1657
 1008MOL0     H39047   5.996   8.933   9.312 -1.7777 -0.4850  0.6494
 1008MOL0     H39048   5.972   8.802   9.201  1.5229  0.1503  2.6418
 1008MOL0     H39049   6.149   9.038   9.118 -1.2203  0.8013  1.9621
 1008MOL0     H39050   6.114   8.915   9.017  0.1342  1.7023 -0.0943
 1008MOL0     H39051   6.338   8.883   9.151  0.1716 -1.9921 -3.4265
 1008MOL0     H39052   6.221   8.860   9.290 -3.7070 -2.0345 -0.8237
 1008MOL0     H39053   6.138   8.638   9.339 -0.4080  1.0730 -0.0472
 1008MOL0     H39054   6.141   8.292   9.156  1.1065  0.9976 -1.4836
 1008MOL0     H39055   5.999   8.376   9.222 -0.0545 -1.9603 -1.1024
 1008MOL0     H39056   6.260   8.292   9.351  0.1144  0.3353 -5.7618
 1008MOL0     H39057   6.142   8.409   9.420 -2.1406  0.6191 -0.7911
 1008MOL0     H39058   6.137   8.114   9.343 -0.0957  1.4928 -0.9571
 1008MOL0     H39059   6.112   8.171   9.505  0.9647 -0.6822  0.2323
 1008MOL0     H39060   5.909   8.161   9.277  3.0178  0.5201 -0.6513
 1008MOL0     H39061   5.893   8.089   9.436 -1.1804 -0.4928 -2.3184
 1008MOL0     H39062   5.677   8.141   9.391  1.5896  0.0146 -1.8019
 1008MOL0     H39063   5.416   8.117   9.204 -2.0171  1.5215 -0.8872
 1008MOL0     H39064   5.322   8.193   9.339  1.3170  0.4918 -0.2021
 1008MOL0     H39065   5.450   8.074   9.365 -1.9487 -0.2507  0.4228
 1008MOL0     H39066   5.368   8.748   8.993 -1.0995 -1.2246 -0.3578
 1008MOL0     H39067   5.202   8.861   8.875 -1.5482  1.7405  1.2558
 1008MOL0     H39068   4.774   8.783   8.965  1.4740 -0.8362 -0.1510
 1008MOL0     H39069   4.799   8.952   9.006 -0.3113  0.8870 -1.0881
 1008MOL0     H39070   4.809   9.030   8.797 -1.5696  1.2140 -0.2041
 1008MOL0     H39071   4.793   8.873   8.716  0.3313  0.4839  0.1157
 1008MOL0     H39072   4.581   9.035   8.877 -2.5709 -2.7096  1.6437
 1008MOL0     H39073   4.559   8.864   8.830 -0.4171 -0.3767  0.3036
 1008MOL0     H39074   4.548   8.918   8.607  0.1965  0.1473  0.0641
 1008MOL0     H39075   4.612   9.078   8.629 -0.0253 -0.4548  0.5206
 1008MOL0     H39076   4.343   8.971   8.705  0.5698 -1.4351 -2.6711
 1008MOL0     H39077   4.401   9.120   8.786  1.3777 -0.3440  0.1143
 1008MOL0     H39078   4.374   9.069   8.487  0.2052 -0.5317  0.7654
 1008MOL0     H39079   4.430   9.225   8.563 -1.3311  1.9782 -1.1222
 1008MOL0     H39080   4.197   9.225   8.678  0.2118 -0.3685  0.4094
 1008MOL0     H39081   4.156   9.077   8.587  1.7335 -0.6871 -0.9886
 1008MOL0     H39082   4.192   9.188   8.380 -0.3343 -1.9336  1.0816
 1008MOL0     H39083   4.221   9.341   8.467  1.8583 -1.2624  0.3832
 1008MOL0     H39084   4.904   8.695   9.127  0.7221 -0.3142  0.6970
 1008MOL0     H39085   5.082   8.546   9.234 -1.0225 -0.3514 -1.4294
 1008MOL0     H39086   5.581   8.606   9.241  0.5569  0.7680  1.3985
 1008MOL0     H39087   5.795   8.541   9.325 -3.0832  2.9715  2.8262
 1008MOL0     H39088   5.308   9.149   8.867 -0.0815 -1.3014 -0.2549
 1008MOL0     H39089   5.124   9.308   8.833  0.6224  1.1084  0.5943
 1008MOL0     H39090   4.971   9.732   8.873  0.5975  0.3967 -0.9177
 1008MOL0     H39091   4.837   9.864   8.726  0.7559 -0.7250 -0.3216
 1008MOL0     H39092   4.696   9.946   8.587  2.0260 -1.4817 -0.4729
 1008MOL0     H39093   4.678   9.808   8.480 -1.3099  1.9041 -1.8409
 1008MOL0     H39094   4.416   9.969   8.545 -2.9912 -2.4725 -2.4978
 1008MOL0     H39095   4.446   9.863   8.412 -0.4425 -0.4361  0.7591
 1008MOL0     H39096   4.545  10.149   8.468  0.9004 -1.8755  1.8763
 1008MOL0     H39097   4.641  10.055   8.367  0.0300  1.9031  0.4224
 1008MOL0     H39098   4.485  10.025   8.182 -0.5267  1.8094 -2.0701
 1008MOL0     H39099   4.508  10.192   8.228 -0.1495  0.2349  0.8970
 1008MOL0     H39100   4.104  10.137   8.297  0.4127  3.1650 -2.6648
 1008MOL0     H39101   4.539   9.558   8.729 -0.1193  0.6159 -0.4041
 1008MOL0     H39102   4.638   9.372   8.987  1.6141 -2.0611  0.0575
 1008MOL0     H39103   4.567   9.351   8.823  2.1133 -3.3356 -0.3455
 1008MOL0     H39104   4.721   9.300   8.845 -0.7845 -0.4762 -2.2722
 1009MOL0     O39105   3.437   6.249   2.095 -0.1799 -0.4845 -0.0790
 1009MOL0     C39106   3.510   6.345   2.115  0.7307  0.5638  0.0596
 1009MOL0     O39107   3.532   6.400   2.236  0.1017  0.2066 -0.3247
 1009MOL0     C39108   3.455   6.361   2.341  0.4654  1.0544  0.2053
 1009MOL0     C39109   3.514   6.382   2.466 -0.8151 -0.3043  0.0968
 1009MOL0     C39110   3.447   6.357   2.584 -0.5139 -0.0597  0.0448
 1009MOL0     C39111   3.319   6.311   2.581  0.3776 -0.2376  0.2750
 1009MOL0     O39112   3.274   6.288   2.710  0.0026  0.6370  0.3367
 1009MOL0     C39113   3.145   6.213   2.717  0.7061 -1.0285 -0.2538
 1009MOL0     C39114   3.135   6.068   2.672 -0.8779  0.5334  0.7544
 1009MOL0     C39115   3.196   5.990   2.783 -0.0221  0.0793  0.3975
 1009MOL0     C39116   3.226   5.849   2.732 -0.2814  0.3040  0.1588
 1009MOL0     C39117   3.310   5.777   2.841  0.5286 -0.2198 -0.0423
 1009MOL0     C39118   3.346   5.634   2.787  0.6414 -0.2918  0.3211
 1009MOL0     C39119   3.443   5.558   2.875 -0.2325 -1.0822  0.5467
 1009MOL0     C39120   3.573   5.646   2.909  1.2637  0.2535  0.2947
 1009MOL0     N39121   3.665   5.557   2.974 -0.0200 -1.2580 -0.5645
 1009MOL0     C39122   3.753   5.476   2.912 -0.4965 -0.9546 -0.8328
 1009MOL0     C39123   3.801   5.405   3.021  0.1666 -0.3530  1.1915
 1009MOL0     C39124   3.893   5.281   3.026 -0.5366  0.0479 -0.0206
 1009MOL0     C39125   4.032   5.304   3.071  0.1714  0.3670 -0.6417
 1009MOL0     C39126   4.131   5.193   3.025 -0.0485  0.0984 -0.4902
 1009MOL0     C39127   4.252   5.188   3.110 -0.5197  0.6409 -0.5568
 1009MOL0     O39128   4.337   5.088   3.057 -0.5986 -0.0304 -0.1470
 1009MOL0     C39129   4.467   5.075   3.087  0.0214  0.2747 -0.0073
 1009MOL0     C39130   4.528   5.128   3.200  0.2715  0.8413  0.0605
 1009MOL0     C39131   4.666   5.118   3.223 -1.1555  0.2194 -0.4051
 1009MOL0     C39132   4.714   5.195   3.343 -0.6405  0.7253 -0.0913
 1009MOL0     C39133   4.745   5.056   3.129 -0.9277  0.6532  0.5388
 1009MOL0     C39134   4.894   5.035   3.138 -0.1710 -0.7793 -0.2655
 1009MOL0     O39135   4.956   4.980   3.027  0.2073 -0.3381 -0.2314
 1009MOL0     C39136   5.093   4.947   3.033  0.2228  0.4543 -0.2596
 1009MOL0     C39137   5.179   5.022   2.954  0.3787 -1.2362 -0.8777
 1009MOL0     C39138   5.317   4.983   2.950 -0.9531 -0.3401  0.8144
 1009MOL0     C39139   5.370   4.874   3.017 -0.1097  0.1408  0.3096
 1009MOL0     O39140   5.503   4.840   3.012  0.2212  0.2308  0.8867
 1009MOL0     C39141   5.587   4.953   3.038 -0.0612 -0.0190  0.5073
 1009MOL0     C39142   5.734   4.909   3.053  0.5298  0.3425 -0.0064
 1009MOL0     C39143   5.796   4.895   2.912  0.5117 -0.1286 -0.0116
 1009MOL0     C39144   5.821   4.751   2.858  0.2374 -0.4398  0.9590
 1009MOL0     C39145   5.716   4.654   2.893  0.4849 -0.4539  0.7846
 1009MOL0     C39146   5.749   4.509   2.847 -0.0612 -0.1278  0.6973
 1009MOL0     C39147   5.622   4.414   2.852 -0.2151 -0.0229  0.1273
 1009MOL0     C39148   5.541   4.412   2.988  0.6727  0.1270 -0.4018
 1009MOL0    Cl39149   5.397   4.305   2.941  0.1675  0.3379 -0.1978
 1009MOL0     C39150   5.287   4.803   3.096 -0.1071 -0.5483 -0.0838
 1009MOL0     C39151   5.143   4.836   3.100  0.8091  0.2684  0.5138
 1009MOL0     O39152   4.961   5.092   3.226  0.4939 -0.2727  0.0249
 1009MOL0     C39153   4.691   5.005   3.009  0.4812 -0.0647 -0.4792
 1009MOL0     C39154   4.553   5.016   2.992 -0.9488  0.7719  0.5714
 1009MOL0     N39155   3.753   5.458   3.137  0.4959  0.2375  0.0211
 1009MOL0     N39156   3.675   5.555   3.117  0.3352  0.5740 -0.2369
 1009MOL0     C39157   3.249   6.289   2.456 -0.1905  0.7956 -0.1283
 1009MOL0     C39158   3.314   6.323   2.343  0.0451 -0.6089  0.1246
 1009MOL0     C39159   3.597   6.396   2.010 -0.2419 -0.1131  0.4219
 1009MOL0     C39160   3.684   6.501   2.048 -0.4295  0.2244 -0.0610
 1009MOL0     C39161   3.763   6.563   1.945 -0.1011  0.9742 -0.2923
 1009MOL0     C39162   3.773   6.520   1.818 -0.3101  0.5693  0.5193
 1009MOL0     O39163   3.851   6.572   1.720  0.0930 -0.9228 -0.2284
 1009MOL0     C39164   3.892   6.702   1.745  0.2431  0.6521 -0.3873
 1009MOL0     C39165   3.932   6.784   1.614  0.0660 -0.3754  0.2209
 1009MOL0     C39166   4.082   6.763   1.573 -0.3195  0.1176  0.5081
 1009MOL0     C39167   4.185   6.845   1.659 -0.0548  0.7088 -0.0092
 1009MOL0     C39168   4.316   6.803   1.610  0.2474  0.4595 -0.2973
 1009MOL0     C39169   4.421   6.746   1.580  0.2580  0.1366  0.6567
 1009MOL0     C39170   3.691   6.411   1.788 -0.2189 -0.0503 -0.0897
 1009MOL0     C39171   3.592   6.359   1.878 -0.1909  0.1478  0.2035
 1009MOL0     C39172   3.499   6.248   1.816 -0.1032 -0.2675 -0.3714
 1009MOL0     H39173   3.615   6.419   2.479 -1.0993 -0.5926  4.5831
 1009MOL0     H39174   3.497   6.361   2.680 -0.8323 -1.5331  0.2894
 1009MOL0     H39175   3.062   6.270   2.673 -1.9582 -0.9414  4.2272
 1009MOL0     H39176   3.116   6.214   2.823 -2.4379  2.7815 -0.8972
 1009MOL0     H39177   3.031   6.037   2.658 -0.5924  0.8451 -2.7412
 1009MOL0     H39178   3.189   6.054   2.578  1.0382  2.9914  1.3602
 1009MOL0     H39179   3.288   6.039   2.815  0.3999  0.2933 -1.0867
 1009MOL0     H39180   3.131   5.984   2.871 -0.9802  0.1423 -0.2881
 1009MOL0     H39181   3.142   5.786   2.702 -1.4147  2.5664 -1.7712
 1009MOL0     H39182   3.288   5.853   2.641  0.4308 -1.1289  0.5478
 1009MOL0     H39183   3.250   5.768   2.932 -0.7840  1.0965 -0.7320
 1009MOL0     H39184   3.408   5.825   2.857  0.4772  0.3700 -1.3436
 1009MOL0     H39185   3.252   5.583   2.765  0.1625  1.3770 -1.8489
 1009MOL0     H39186   3.398   5.653   2.692  1.1503 -2.8265  0.0209
 1009MOL0     H39187   3.473   5.469   2.819  1.4081  0.3757 -1.0364
 1009MOL0     H39188   3.385   5.524   2.961 -0.0925 -3.3781 -0.2026
 1009MOL0     H39189   3.610   5.697   2.820  0.1456 -0.4523 -0.6130
 1009MOL0     H39190   3.549   5.720   2.987  0.8542 -1.0725  1.4707
 1009MOL0     H39191   3.780   5.463   2.808  1.3775  1.2881 -0.7147
 1009MOL0     H39192   3.888   5.233   2.928 -1.5392  2.0807 -1.0177
 1009MOL0     H39193   3.854   5.202   3.092 -0.1088 -1.1979 -1.2000
 1009MOL0     H39194   4.069   5.405   3.054  3.5391 -1.1533 -3.6377
 1009MOL0     H39195   4.038   5.287   3.179  4.2564  1.0301 -0.5794
 1009MOL0     H39196   4.088   5.093   3.034  0.3769  0.0072  0.6350
 1009MOL0     H39197   4.167   5.221   2.926 -1.8728  3.4066 -0.3730
 1009MOL0     H39198   4.298   5.288   3.105  1.1182  0.0016  0.6142
 1009MOL0     H39199   4.234   5.162   3.214 -2.1502 -0.3462 -1.0472
 1009MOL0     H39200   4.461   5.175   3.272 -0.7183 -1.2556  0.5776
 1009MOL0     H39201   4.632   5.257   3.381 -1.1491 -1.3631  2.4709
 1009MOL0     H39202   4.796   5.259   3.310 -1.2827  2.5597  1.6923
 1009MOL0     H39203   4.748   5.130   3.424 -3.6021 -4.8420 -2.6841
 1009MOL0     H39204   5.128   5.105   2.906 -1.8873 -2.2249 -0.2733
 1009MOL0     H39205   5.379   5.045   2.885 -1.9044  0.8042  0.9670
 1009MOL0     H39206   5.578   5.014   2.948  0.0572 -1.0794 -0.2414
 1009MOL0     H39207   5.551   5.005   3.127  1.3856  2.2742 -0.1691
 1009MOL0     H39208   5.789   4.990   3.102 -1.6021  0.4277  2.4522
 1009MOL0     H39209   5.739   4.831   3.128 -0.9386  0.4876  0.2612
 1009MOL0     H39210   5.891   4.948   2.902  1.3206 -1.3548  0.7985
 1009MOL0     H39211   5.732   4.948   2.841 -1.8343  0.0542  2.1001
 1009MOL0     H39212   5.909   4.713   2.910  0.8037 -1.3115 -0.5574
 1009MOL0     H39213   5.835   4.760   2.750  1.7166  1.5872  1.2657
 1009MOL0     H39214   5.711   4.659   3.002  0.1794  3.3693  0.7185
 1009MOL0     H39215   5.619   4.677   2.848 -0.7399 -3.6938  1.4926
 1009MOL0     H39216   5.830   4.457   2.898 -1.1182 -0.3999  2.1445
 1009MOL0     H39217   5.801   4.506   2.751 -0.0166  1.6193  0.6240
 1009MOL0     H39218   5.647   4.312   2.821 -0.5814 -0.4286  1.1136
 1009MOL0     H39219   5.544   4.444   2.782 -1.8704 -0.4388  1.7273
 1009MOL0     H39220   5.510   4.514   3.013  0.5450  0.2617 -1.0798
 1009MOL0     H39221   5.594   4.366   3.071 -2.5100 -0.3984  1.5185
 1009MOL0     H39222   5.334   4.719   3.146  0.0515  0.0770  0.8406
 1009MOL0     H39223   5.075   4.782   3.166  0.9794 -3.1016 -1.8388
 1009MOL0     H39224   4.733   4.947   2.928 -2.7700 -3.9747  0.3224
 1009MOL0     H39225   4.519   4.969   2.900 -2.8449 -0.6766  1.9237
 1009MOL0     H39226   3.143   6.265   2.461 -0.1779  0.7076 -0.2903
 1009MOL0     H39227   3.265   6.297   2.250  0.8837 -0.2619 -0.4220
 1009MOL0     H39228   3.675   6.547   2.145 -1.8281  1.8305 -0.8849
 1009MOL0     H39229   3.810   6.650   1.990 -3.2666  2.8268 -0.2224
 1009MOL0     H39230   3.811   6.767   1.779  0.0506  0.9482 -1.3605
 1009MOL0     H39231   3.968   6.700   1.824 -0.1990 -1.6367  0.0456
 1009MOL0     H39232   3.926   6.891   1.638 -1.3468 -0.5157  0.5938
 1009MOL0     H39233   3.866   6.765   1.529 -2.7834  2.8186  1.4828
 1009MOL0     H39234   4.108   6.657   1.581  0.5242  0.4869  4.2046
 1009MOL0     H39235   4.083   6.787   1.466  0.5890 -1.7584  0.0430
 1009MOL0     H39236   4.175   6.814   1.764  0.3627  1.2037  0.1791
 1009MOL0     H39237   4.174   6.953   1.651 -0.5174  0.5249 -3.7374
 1009MOL0     H39238   4.510   6.694   1.553  1.1125  2.2456 -0.7646
 1009MOL0     H39239   3.692   6.377   1.685 -0.4294  0.5058 -0.2789
 1009MOL0     H39240   3.503   6.240   1.707  2.2171  0.6493 -0.4137
 1009MOL0     H39241   3.523   6.148   1.854 -0.7652  0.2720  1.5770
 1009MOL0     H39242   3.399   6.284   1.840 -0.1275 -0.2538 -0.4969
 1010MOL0     O39243   0.787   0.817   9.246 -0.2336 -0.1582 -0.1778
 1010MOL0     C39244   0.748   0.892   9.341 -0.3723  0.3507 -0.3353
 1010MOL0     O39245   0.818   0.969   9.418 -0.3777 -0.0597 -0.2350
 1010MOL0     C39246   0.954   0.944   9.426 -0.8387  0.4040  0.5023
 1010MOL0     C39247   1.021   0.813   9.440  0.4582  0.1990 -1.1350
 1010MOL0     C39248   1.162   0.800   9.441 -0.2318 -0.3626  0.0263
 1010MOL0     C39249   1.243   0.918   9.425  0.3906  0.0196 -0.5541
 1010MOL0     O39250   1.375   0.918   9.426  0.1152 -0.0129  0.0289
 1010MOL0     C39251   1.452   0.812   9.377 -0.1845  0.4089  0.1331
 1010MOL0     C39252   1.601   0.860   9.399  0.1831 -0.9079  0.0346
 1010MOL0     C39253   1.716   0.766   9.328 -0.1026 -0.0188  0.2073
 1010MOL0     C39254   1.709   0.756   9.179  0.1246 -0.1744 -0.9942
 1010MOL0     C39255   1.804   0.662   9.123 -0.5758  0.2867  0.0954
 1010MOL0     C39256   1.831   0.685   8.968 -0.1245  0.3179 -0.6179
 1010MOL0     C39257   1.927   0.573   8.929  0.3034  0.1003 -0.1205
 1010MOL0     C39258   1.980   0.617   8.794  0.3977 -0.3697 -0.2859
 1010MOL0     N39259   2.072   0.524   8.734  0.4008 -0.2846  0.1853
 1010MOL0     C39260   2.044   0.391   8.706 -0.4849 -0.3148 -0.2586
 1010MOL0     C39261   2.145   0.360   8.624  1.0789  0.8814  0.1525
 1010MOL0     C39262   2.161   0.226   8.560  0.0926  0.0615  0.4299
 1010MOL0     C39263   2.156   0.251   8.402 -0.4407  0.3784  0.1332
 1010MOL0     C39264   2.243   0.152   8.324  0.2589 -0.5310  0.6714
 1010MOL0     C39265   2.390   0.136   8.362 -0.7372 -0.0496  0.7957
 1010MOL0     O39266   2.444   0.041   8.259  0.0727  0.1212 -0.0013
 1010MOL0     C39267   2.584   0.062   8.248  1.2930 -0.0529 -0.1753
 1010MOL0     C39268   2.620   0.150   8.147 -0.7528  0.7859 -0.5158
 1010MOL0     C39269   2.758   0.167   8.114  0.0770 -0.2087  0.2980
 1010MOL0     C39270   2.792   0.256   7.992 -0.0386  0.4359  0.7118
 1010MOL0     C39271   2.865   0.087   8.177 -0.8736 -0.7690 -0.1682
 1010MOL0     C39272   3.015   0.103   8.167  0.1248 -0.0974  0.3041
 1010MOL0     O39273   3.096   0.035   8.260  0.3500  0.0940 -0.0004
 1010MOL0     C39274   3.232   0.061   8.259 -0.2449 -0.2555 -0.0411
 1010MOL0     C39275   3.299   0.095   8.381 -0.3711  0.9947  0.7487
 1010MOL0     C39276   3.432   0.124   8.381  0.3060 -0.2792  0.0507
 1010MOL0     C39277   3.509   0.129   8.263  0.7533 -0.2711 -0.2913
 1010MOL0     O39278   3.635   0.164   8.272  0.5668 -0.6162  0.4446
 1010MOL0     C39279   3.716   0.170   8.148 -0.2976  0.0797 -0.1255
 1010MOL0     C39280   3.851   0.198   8.193  0.1916  0.6401  0.4775
 1010MOL0     C39281   3.899   0.079   8.253  0.4120 -0.2042  0.4654
 1010MOL0     C39282   4.042   0.109   8.304  0.3975 -1.0785 -0.0108
 1010MOL0     C39283   4.114  -0.003   8.370  1.2916 -0.1464  0.1686
 1010MOL0     C39284   4.253   0.037   8.420 -0.2916 -0.5306  0.1165
 1010MOL0     C39285   4.331  -0.076   8.478 -0.4405  0.0231  0.0960
 1010MOL0     C39286   4.470  -0.021   8.522  0.5959 -0.6511  0.4270
 1010MOL0    Cl39287   4.573  -0.160   8.592  0.2804 -0.0756  0.0063
 1010MOL0     C39288   3.438   0.101   8.146  0.6438 -0.7229  0.4171
 1010MOL0     C39289   3.313   0.063   8.147  0.5815  0.9247  0.1145
 1010MOL0     O39290   3.056   0.174   8.073 -1.2241  0.7979 -0.1056
 1010MOL0     C39291   2.820  -0.000   8.281 -0.8495  0.1210 -0.7872
 1010MOL0     C39292   2.684  -0.017   8.308  0.0554  0.2599 -0.6708
 1010MOL0     N39293   2.238   0.454   8.614 -0.4958 -0.2927  0.3268
 1010MOL0     N39294   2.187   0.555   8.676 -0.8085 -0.0396 -0.9018
 1010MOL0     C39295   1.183   1.047   9.406  0.3292  1.5795 -0.5060
 1010MOL0     C39296   1.043   1.050   9.418  0.6393 -0.4188  0.1191
 1010MOL0     C39297   0.600   0.872   9.378  0.6529 -1.0739 -0.6220
 1010MOL0     C39298   0.526   0.985   9.427 -0.2874 -0.3401 -0.4877
 1010MOL0     C39299   0.390   0.974   9.454  0.1354 -0.8495 -0.7331
 1010MOL0     C39300   0.320   0.853   9.432  0.0979 -0.9367  0.3524
 1010MOL0     O39301   0.190   0.860   9.468 -0.8962  0.1308 -0.5296
 1010MOL0     C39302   0.096   0.766   9.420  0.5718 -0.2561 -0.0283
 1010MOL0     C39303  -0.042   0.820   9.381  0.1922  0.2452 -0.0570
 1010MOL0     C39304  -0.051   0.959   9.329  0.4933  0.2820 -0.3621
 1010MOL0     C39305  -0.026   0.971   9.175  0.2630  0.0461 -0.1352
 1010MOL0     C39306   0.110   0.960   9.129 -0.0767  0.4482 -1.0394
 1010MOL0     C39307   0.223   0.947   9.081  0.2659 -0.4695  0.2382
 1010MOL0     C39308   0.398   0.742   9.386  0.1471 -0.0058  0.5088
 1010MOL0     C39309   0.533   0.750   9.357  0.1244  0.7132 -0.2060
 1010MOL0     C39310   0.601   0.619   9.324  0.1335 -0.2693  0.3611
 1010MOL0     H39311   0.962   0.724   9.458  4.0522 -2.2500 -0.2926
 1010MOL0     H39312   1.214   0.707   9.461 -1.7357 -1.0148  1.0582
 1010MOL0     H39313   1.429   0.790   9.272 -0.0350  2.1910 -0.3028
 1010MOL0     H39314   1.444   0.718   9.431  1.0533 -0.5177 -1.2043
 1010MOL0     H39315   1.616   0.958   9.353 -2.4549  1.1974  3.1580
 1010MOL0     H39316   1.613   0.871   9.507 -0.5422 -0.9449  0.1252
 1010MOL0     H39317   1.818   0.800   9.352  0.1494 -0.9859  0.5327
 1010MOL0     H39318   1.705   0.669   9.377  1.4847 -1.0347 -1.3307
 1010MOL0     H39319   1.608   0.721   9.153  0.5045 -1.2138 -1.1113
 1010MOL0     H39320   1.723   0.857   9.140  1.9729  0.7914  1.8527
 1010MOL0     H39321   1.777   0.557   9.141  2.7896 -0.4333  1.9073
 1010MOL0     H39322   1.903   0.673   9.169 -0.9865  0.9408  0.8413
 1010MOL0     H39323   1.734   0.671   8.918  0.8169  1.1195 -2.8041
 1010MOL0     H39324   1.874   0.781   8.937 -0.6539  0.5604 -0.6237
 1010MOL0     H39325   1.874   0.479   8.908 -0.6005  0.1704  1.5962
 1010MOL0     H39326   2.004   0.547   9.001 -2.6484 -1.7238  2.6630
 1010MOL0     H39327   1.899   0.629   8.722 -0.2734  2.2212  0.7836
 1010MOL0     H39328   2.037   0.710   8.800  1.4699 -1.0797  3.7323
 1010MOL0     H39329   1.956   0.332   8.730 -0.7475 -0.1657 -0.8298
 1010MOL0     H39330   2.079   0.158   8.582 -0.2751  0.7061  1.0793
 1010MOL0     H39331   2.252   0.175   8.594  1.2888 -0.7442 -3.5244
 1010MOL0     H39332   2.049   0.239   8.384 -0.4660  1.8526 -0.8594
 1010MOL0     H39333   2.194   0.348   8.367  0.8524  0.0997  0.6886
 1010MOL0     H39334   2.202   0.052   8.340 -0.6713 -0.0708  1.2421
 1010MOL0     H39335   2.243   0.178   8.218 -1.1092  1.5297  1.1263
 1010MOL0     H39336   2.444   0.230   8.349 -0.0381 -0.7070 -1.3957
 1010MOL0     H39337   2.404   0.096   8.463 -2.0581 -1.1233  0.5882
 1010MOL0     H39338   2.535   0.196   8.098 -0.7813 -0.2305 -1.4726
 1010MOL0     H39339   2.852   0.199   7.921 -2.5721 -1.1713 -0.2608
 1010MOL0     H39340   2.852   0.343   8.021 -0.8913  2.0157 -1.8587
 1010MOL0     H39341   2.700   0.290   7.944 -1.7239 -2.1855  1.8282
 1010MOL0     H39342   3.244   0.110   8.473  1.7511 -0.2381  2.3106
 1010MOL0     H39343   3.477   0.177   8.464  1.8857  0.4542 -1.2314
 1010MOL0     H39344   3.725   0.076   8.093  3.2324  1.2063 -1.7489
 1010MOL0     H39345   3.685   0.237   8.066 -1.1987 -1.2105 -0.8763
 1010MOL0     H39346   3.902   0.219   8.099 -1.5809  0.5552 -0.5430
 1010MOL0     H39347   3.862   0.288   8.255  0.2058 -0.3460  1.9650
 1010MOL0     H39348   3.898  -0.012   8.192  0.5309 -0.7935  1.3176
 1010MOL0     H39349   3.829   0.054   8.334 -0.0207  1.4497  0.6436
 1010MOL0     H39350   4.036   0.199   8.366 -1.5679  1.8376 -3.9768
 1010MOL0     H39351   4.105   0.142   8.222  3.0485 -1.5052  1.7348
 1010MOL0     H39352   4.054  -0.057   8.445  3.4086 -2.1248  0.5411
 1010MOL0     H39353   4.134  -0.072   8.288 -2.0410 -2.0246  0.7510
 1010MOL0     H39354   4.226   0.114   8.493 -2.1879 -0.8244 -0.2335
 1010MOL0     H39355   4.316   0.081   8.342 -0.3681 -3.3081 -1.6344
 1010MOL0     H39356   4.338  -0.160   8.408 -0.1891 -0.0680  0.2294
 1010MOL0     H39357   4.278  -0.122   8.562  0.5224 -0.4700  0.4491
 1010MOL0     H39358   4.473   0.058   8.598  2.3631 -0.2677  0.0138
 1010MOL0     H39359   4.510   0.016   8.428  0.3609 -2.3946 -0.4082
 1010MOL0     H39360   3.481   0.102   8.046 -0.0627  3.0205 -0.0070
 1010MOL0     H39361   3.273   0.045   8.048 -0.6101 -0.1167  0.7647
 1010MOL0     H39362   2.887  -0.057   8.345 -1.4986  0.2336  0.0103
 1010MOL0     H39363   2.656  -0.095   8.378 -1.9781 -1.1306 -2.9173
 1010MOL0     H39364   1.253   1.128   9.388  2.4293 -0.2030 -0.9583
 1010MOL0     H39365   0.994   1.147   9.415 -2.6588 -1.9231  0.1548
 1010MOL0     H39366   0.586   1.071   9.452 -0.4985 -0.0727 -0.9053
 1010MOL0     H39367   0.322   1.052   9.486 -2.0904 -2.9264 -0.0798
 1010MOL0     H39368   0.137   0.717   9.331 -1.2264 -0.1529 -0.9518
 1010MOL0     H39369   0.093   0.691   9.500  0.8189 -1.1923 -0.8784
 1010MOL0     H39370  -0.106   0.831   9.470 -0.8907  0.9617 -0.9022
 1010MOL0     H39371  -0.094   0.745   9.320  2.7598 -0.6924 -1.2284
 1010MOL0     H39372  -0.155   0.988   9.347 -0.0914  0.1742 -3.0797
 1010MOL0     H39373   0.010   1.032   9.383  0.6337  1.4082 -1.9914
 1010MOL0     H39374  -0.057   1.072   9.146 -0.4430 -0.4191 -1.0780
 1010MOL0     H39375  -0.083   0.894   9.122 -0.2278 -0.1026  0.5903
 1010MOL0     H39376   0.320   0.933   9.039  0.4023 -0.2188  0.4679
 1010MOL0     H39377   0.357   0.643   9.369 -0.0271 -0.2092  1.9268
 1010MOL0     H39378   0.680   0.608   9.399 -0.1701  1.6886  1.0469
 1010MOL0     H39379   0.545   0.525   9.328  3.6061 -2.7058 -2.3088
 1010MOL0     H39380   0.645   0.622   9.224  3.8622 -1.1375  1.8251
 1011MOL0     O39381   3.409   5.791   4.522  0.5431  0.0606  0.0204
 1011MOL0     C39382   3.327   5.807   4.615 -0.2703 -0.8966  0.0557
 1011MOL0     O39383   3.341   5.898   4.719 -0.4006 -0.7661 -0.1316
 1011MOL0     C39384   3.459   5.975   4.723  0.3767 -0.0921 -0.6389
 1011MOL0     C39385   3.521   5.979   4.849 -0.5848 -0.2703 -0.3573
 1011MOL0     C39386   3.628   6.068   4.878  0.4756 -0.3951  0.2941
 1011MOL0     C39387   3.672   6.155   4.779 -1.0054  0.1118 -0.0878
 1011MOL0     O39388   3.789   6.235   4.793  0.8550  0.0716 -0.9526
 1011MOL0     C39389   3.788   6.329   4.901 -0.2385 -0.2796 -0.4258
 1011MOL0     C39390   3.921   6.375   4.950 -1.1971  0.3821  0.2067
 1011MOL0     C39391   4.018   6.437   4.841 -0.2282  0.0137  1.1054
 1011MOL0     C39392   4.143   6.486   4.908 -0.5579 -0.0949 -0.4194
 1011MOL0     C39393   4.257   6.533   4.806  0.3955 -0.1397  0.4256
 1011MOL0     C39394   4.387   6.591   4.847 -0.4652  0.6754 -0.9399
 1011MOL0     C39395   4.472   6.507   4.928 -1.1652  0.3424 -0.5572
 1011MOL0     C39396   4.526   6.375   4.864 -0.1578 -0.5885 -0.4156
 1011MOL0     N39397   4.632   6.410   4.770 -0.4218  0.5131  0.9086
 1011MOL0     C39398   4.742   6.481   4.803 -1.2495 -0.0345 -0.9051
 1011MOL0     C39399   4.802   6.494   4.684 -0.1122 -0.5556  0.1145
 1011MOL0     C39400   4.931   6.565   4.669  0.1105  0.3868  0.6830
 1011MOL0     C39401   5.049   6.462   4.657  0.2051 -1.1666  0.3684
 1011MOL0     C39402   5.187   6.535   4.683  0.1874  0.6166 -0.4608
 1011MOL0     C39403   5.310   6.447   4.654 -0.2444  0.2581 -0.9347
 1011MOL0     O39404   5.366   6.396   4.774  0.1713 -0.5302 -0.1611
 1011MOL0     C39405   5.495   6.353   4.776  0.0179 -0.5542  0.3303
 1011MOL0     C39406   5.532   6.254   4.685 -0.0092  1.0575  0.0040
 1011MOL0     C39407   5.660   6.192   4.685 -1.2674 -0.4678  0.1281
 1011MOL0     C39408   5.681   6.080   4.586  0.0624 -0.7860  0.5354
 1011MOL0     C39409   5.761   6.253   4.769  0.4735 -0.7983  0.6352
 1011MOL0     C39410   5.898   6.185   4.782 -0.2641 -0.0105  0.1698
 1011MOL0     O39411   5.938   6.106   4.683  0.8099  0.0211  0.3347
 1011MOL0     C39412   6.053   6.032   4.708  1.1500 -0.4997 -0.1412
 1011MOL0     C39413   6.178   6.094   4.719  0.2315 -0.1379 -0.3106
 1011MOL0     C39414   6.300   6.019   4.726 -0.1628  0.0727 -0.3969
 1011MOL0     C39415   6.291   5.881   4.718  0.0763 -0.0899  1.2997
 1011MOL0     O39416   6.413   5.808   4.703 -0.2188 -0.5995  0.3778
 1011MOL0     C39417   6.406   5.667   4.744  0.0221 -0.8594  0.2202
 1011MOL0     C39418   6.536   5.625   4.812 -0.4572 -0.2987  0.3161
 1011MOL0     C39419   6.673   5.656   4.741 -0.2886  0.0428 -0.4883
 1011MOL0     C39420   6.797   5.621   4.830  0.9861  0.0884 -0.6278
 1011MOL0     C39421   6.940   5.655   4.774  0.0902  0.9268 -0.4371
 1011MOL0     C39422   7.044   5.593   4.874  0.5149  0.0706 -0.0277
 1011MOL0     C39423   7.189   5.582   4.805  0.8135  0.2722 -0.3149
 1011MOL0     C39424   7.302   5.594   4.907 -0.1840  0.5379 -0.2747
 1011MOL0    Cl39425   7.441   5.494   4.874  0.3745  0.1688 -0.1827
 1011MOL0     C39426   6.172   5.819   4.692  0.1734 -0.2046  0.5687
 1011MOL0     C39427   6.045   5.892   4.693  0.0943 -0.9346  0.0924
 1011MOL0     O39428   5.957   6.193   4.888  0.1260 -0.6048  0.0602
 1011MOL0     C39429   5.721   6.344   4.866  0.8580 -0.0471 -0.1314
 1011MOL0     C39430   5.595   6.404   4.862  0.0430  0.3911 -0.1924
 1011MOL0     N39431   4.727   6.430   4.583 -0.3970  0.4386  0.9002
 1011MOL0     N39432   4.620   6.391   4.636  0.3964  0.7091 -0.1547
 1011MOL0     C39433   3.616   6.143   4.642  0.7263 -0.7812  0.6931
 1011MOL0     C39434   3.503   6.065   4.618  0.2330 -0.0062 -0.4398
 1011MOL0     C39435   3.208   5.720   4.636  0.0055 -0.4403  0.2163
 1011MOL0     C39436   3.182   5.683   4.771 -0.2193  0.3380 -0.5465
 1011MOL0     C39437   3.098   5.581   4.795 -0.1169  0.6991  0.6896
 1011MOL0     C39438   3.018   5.529   4.692  1.1259 -0.4545  0.4344
 1011MOL0     O39439   2.926   5.436   4.730  0.6105 -0.8967  0.2272
 1011MOL0     C39440   2.809   5.483   4.804  0.6509 -0.2041 -0.3927
 1011MOL0     C39441   2.705   5.528   4.704 -1.0183 -1.3695 -0.4503
 1011MOL0     C39442   2.635   5.408   4.641 -0.2117 -0.0051  0.1649
 1011MOL0     C39443   2.595   5.456   4.496  0.5394 -0.1163 -0.1528
 1011MOL0     C39444   2.499   5.363   4.435  0.3219  0.3564  0.7928
 1011MOL0     C39445   2.413   5.299   4.379  0.6389 -0.1701  0.5594
 1011MOL0     C39446   3.027   5.568   4.556 -0.2816 -0.4572 -0.6127
 1011MOL0     C39447   3.129   5.666   4.534  0.2291 -0.1227  0.7345
 1011MOL0     C39448   3.152   5.693   4.390  0.8868 -0.7852  0.7777
 1011MOL0     H39449   3.502   5.913   4.933  0.0436 -1.9055 -1.4304
 1011MOL0     H39450   3.664   6.075   4.980 -0.3564 -0.0999  0.5721
 1011MOL0     H39451   3.721   6.294   4.981 -0.2440  0.7233  0.0273
 1011MOL0     H39452   3.748   6.416   4.849  1.4118  0.5558 -0.3412
 1011MOL0     H39453   3.891   6.448   5.026 -0.1922  1.3571 -0.3132
 1011MOL0     H39454   3.980   6.297   4.999 -0.7101  1.5802  1.5773
 1011MOL0     H39455   4.039   6.367   4.759 -0.9142  1.1436 -0.0728
 1011MOL0     H39456   3.964   6.524   4.803 -1.6257 -0.2045  2.5271
 1011MOL0     H39457   4.111   6.568   4.973 -0.2272 -0.4098  0.1523
 1011MOL0     H39458   4.186   6.399   4.959 -1.2348 -1.0879 -1.4836
 1011MOL0     H39459   4.216   6.616   4.749 -0.0406 -3.0770 -4.0759
 1011MOL0     H39460   4.284   6.466   4.723  0.7445  0.6637 -0.1337
 1011MOL0     H39461   4.435   6.630   4.756  1.1909  1.0496  0.0465
 1011MOL0     H39462   4.363   6.680   4.906 -2.2089 -0.5307  0.2399
 1011MOL0     H39463   4.424   6.470   5.020  2.8520 -3.5284  0.3642
 1011MOL0     H39464   4.557   6.565   4.964 -1.6084  1.5854 -1.4862
 1011MOL0     H39465   4.555   6.305   4.943 -1.1559 -2.5311 -1.6786
 1011MOL0     H39466   4.449   6.324   4.805  0.6825 -1.4240 -0.8181
 1011MOL0     H39467   4.784   6.515   4.898  0.0490 -1.2486 -1.0093
 1011MOL0     H39468   4.944   6.620   4.762  0.5754 -1.0662  1.5062
 1011MOL0     H39469   4.929   6.631   4.582 -1.5670  1.6523  1.6323
 1011MOL0     H39470   5.045   6.381   4.730  1.2691 -1.5800 -0.0133
 1011MOL0     H39471   5.039   6.422   4.556  1.6416  1.4437 -0.9121
 1011MOL0     H39472   5.197   6.624   4.620 -0.0229  0.3612 -0.8625
 1011MOL0     H39473   5.197   6.568   4.787  1.7496  2.2691 -1.0773
 1011MOL0     H39474   5.286   6.366   4.584  0.6952  1.9717 -3.4153
 1011MOL0     H39475   5.380   6.511   4.599  1.2354 -2.4668 -2.4316
 1011MOL0     H39476   5.454   6.216   4.620 -0.0403  1.1155  0.0076
 1011MOL0     H39477   5.769   6.095   4.523 -0.7710  2.3848 -0.0922
 1011MOL0     H39478   5.596   6.061   4.520 -0.0014  0.0122  0.3779
 1011MOL0     H39479   5.688   5.982   4.635 -1.5967 -0.6392  1.1360
 1011MOL0     H39480   6.193   6.202   4.718  4.5483 -0.5559 -0.1805
 1011MOL0     H39481   6.400   6.062   4.734  1.5456 -3.7334  1.1255
 1011MOL0     H39482   6.324   5.653   4.815  0.0736 -2.8741 -0.0619
 1011MOL0     H39483   6.383   5.609   4.654  1.0666 -1.4487  0.3234
 1011MOL0     H39484   6.538   5.685   4.904  1.0948  1.7531 -0.9578
 1011MOL0     H39485   6.539   5.519   4.837  2.9780 -0.7453 -1.4298
 1011MOL0     H39486   6.673   5.763   4.718  1.7612  0.3316  0.6229
 1011MOL0     H39487   6.685   5.600   4.648  2.6995 -1.6520  0.7865
 1011MOL0     H39488   6.795   5.513   4.848 -0.6618  0.4299  1.7626
 1011MOL0     H39489   6.784   5.677   4.923 -0.6648  2.4710 -2.1696
 1011MOL0     H39490   6.953   5.598   4.682 -3.4274 -2.5118  0.9260
 1011MOL0     H39491   6.954   5.763   4.765  0.0473  0.8859 -1.0601
 1011MOL0     H39492   7.009   5.497   4.912 -1.5744  1.2574  1.2400
 1011MOL0     H39493   7.039   5.663   4.958 -1.1833 -0.5963  0.4783
 1011MOL0     H39494   7.207   5.665   4.737  0.1330  0.3910 -0.3562
 1011MOL0     H39495   7.195   5.487   4.750 -0.3489 -0.6713  1.1140
 1011MOL0     H39496   7.256   5.537   4.988 -3.1922 -3.1325 -4.1266
 1011MOL0     H39497   7.326   5.700   4.918 -2.2276  0.9697  0.3224
 1011MOL0     H39498   6.179   5.715   4.661  0.9682 -0.4999  1.7135
 1011MOL0     H39499   5.949   5.849   4.670 -0.9578  1.0431  0.5367
 1011MOL0     H39500   5.787   6.382   4.944  0.1633  2.5293 -0.6888
 1011MOL0     H39501   5.570   6.488   4.928 -2.3295  0.9466 -1.6449
 1011MOL0     H39502   3.664   6.205   4.567  0.6345 -2.2656 -0.6530
 1011MOL0     H39503   3.450   6.059   4.524 -2.1785 -0.3735  0.8558
 1011MOL0     H39504   3.241   5.723   4.853 -1.5527  1.8334 -0.2746
 1011MOL0     H39505   3.078   5.556   4.898  3.3043  0.2969  1.3663
 1011MOL0     H39506   2.772   5.413   4.879 -2.2143  3.0045  1.4495
 1011MOL0     H39507   2.827   5.575   4.862 -0.2861 -0.5952  0.5522
 1011MOL0     H39508   2.754   5.596   4.634  0.5950 -0.4493  1.4577
 1011MOL0     H39509   2.627   5.590   4.748  0.3851  2.0890 -2.4215
 1011MOL0     H39510   2.712   5.332   4.630 -0.5025 -0.4849  1.2750
 1011MOL0     H39511   2.548   5.377   4.699  0.1243  0.0147  0.6846
 1011MOL0     H39512   2.679   5.474   4.429 -0.0697 -2.1974 -1.5922
 1011MOL0     H39513   2.534   5.546   4.508  3.0992  1.5390  1.2742
 1011MOL0     H39514   2.325   5.249   4.342  0.3116 -0.3906  1.5854
 1011MOL0     H39515   2.974   5.527   4.470 -2.9025  0.9275  0.2345
 1011MOL0     H39516   3.183   5.798   4.394 -1.0565 -0.2122  4.2422
 1011MOL0     H39517   3.231   5.634   4.342 -1.2537 -0.6738 -3.3156
 1011MOL0     H39518   3.054   5.678   4.344  0.7450  0.5858  0.5914
 1012MOL0     O39519   1.250   3.138   9.275  0.1849 -0.3369  0.3570
 1012MOL0     C39520   1.331   3.171   9.356 -0.4244 -0.4730 -0.4520
 1012MOL0     O39521   1.474   3.179   9.334 -0.2282  0.2273 -0.7244
 1012MOL0     C39522   1.526   3.094   9.241  0.1394 -0.6392  0.4021
 1012MOL0     C39523   1.493   2.958   9.221 -1.0738  0.2368  0.1658
 1012MOL0     C39524   1.544   2.890   9.111 -0.4567  1.0759  0.0144
 1012MOL0     C39525   1.643   2.952   9.037  0.3816 -0.4725  0.2681
 1012MOL0     O39526   1.695   2.899   8.922 -0.3517  0.5075 -0.2902
 1012MOL0     C39527   1.720   2.752   8.920  0.6539 -0.1887 -0.3176
 1012MOL0     C39528   1.820   2.707   8.811 -0.2271  0.2523  0.6158
 1012MOL0     C39529   1.886   2.574   8.851 -0.4543  0.2288 -0.5318
 1012MOL0     C39530   1.982   2.535   8.749 -0.2581  0.4251  0.0033
 1012MOL0     C39531   2.107   2.618   8.749 -0.2016  0.1607  0.2853
 1012MOL0     C39532   2.229   2.524   8.745  0.1623 -0.5258 -0.4880
 1012MOL0     C39533   2.251   2.459   8.887  0.4345 -0.0862 -0.1841
 1012MOL0     C39534   2.380   2.368   8.906 -1.1867  0.3174  0.0246
 1012MOL0     N39535   2.500   2.446   8.873 -0.7256  0.2594  0.1354
 1012MOL0     C39536   2.592   2.420   8.774  0.0321  0.4354 -0.0973
 1012MOL0     C39537   2.683   2.521   8.785  0.1782 -0.3913 -0.1482
 1012MOL0     C39538   2.802   2.542   8.707 -1.0370 -0.8624 -0.0290
 1012MOL0     C39539   2.786   2.528   8.558  0.2993  0.3248 -0.0414
 1012MOL0     C39540   2.900   2.556   8.476  0.7333  0.4319 -1.4080
 1012MOL0     C39541   2.956   2.694   8.509 -0.1205  0.5265 -0.2422
 1012MOL0     O39542   3.044   2.761   8.415  0.4750  0.5493  0.0128
 1012MOL0     C39543   3.171   2.719   8.388  0.2469  0.0789  0.9881
 1012MOL0     C39544   3.261   2.653   8.475 -0.4695 -0.2654 -0.2156
 1012MOL0     C39545   3.390   2.613   8.440 -0.0184  0.6268  0.2668
 1012MOL0     C39546   3.494   2.579   8.552 -0.1113 -0.1389 -0.0558
 1012MOL0     C39547   3.429   2.635   8.302  0.1216 -0.2421  0.0188
 1012MOL0     C39548   3.564   2.610   8.245  0.0292 -1.1192  0.6651
 1012MOL0     O39549   3.596   2.670   8.122  0.2213  0.5362 -0.4672
 1012MOL0     C39550   3.726   2.657   8.072  0.8972  0.6506  0.3654
 1012MOL0     C39551   3.782   2.760   8.006  0.0546 -0.0964 -0.1339
 1012MOL0     C39552   3.906   2.755   7.947 -0.6218  0.6569 -0.8580
 1012MOL0     C39553   3.983   2.641   7.958 -1.1808 -0.1724  0.4565
 1012MOL0     O39554   4.109   2.647   7.895  0.2104 -0.4652  0.1851
 1012MOL0     C39555   4.206   2.542   7.916 -0.1169  0.4255 -0.1147
 1012MOL0     C39556   4.327   2.563   7.822  0.3565 -0.4104  0.2394
 1012MOL0     C39557   4.453   2.472   7.857 -0.1623 -0.5476  0.2976
 1012MOL0     C39558   4.540   2.453   7.729 -0.0496 -0.8297 -0.4876
 1012MOL0     C39559   4.645   2.348   7.751 -0.3263 -0.0598 -0.7234
 1012MOL0     C39560   4.727   2.319   7.626  0.2441  0.7725  0.0089
 1012MOL0     C39561   4.828   2.201   7.649  0.3942 -0.5588  0.0626
 1012MOL0     C39562   4.829   2.104   7.538  0.1385  0.3964 -0.1992
 1012MOL0    Cl39563   4.678   1.999   7.552 -0.3152 -0.5041  0.0451
 1012MOL0     C39564   3.940   2.528   8.026  0.4004 -0.3777  0.8488
 1012MOL0     C39565   3.804   2.537   8.075 -0.5538 -0.2421 -0.3178
 1012MOL0     O39566   3.637   2.538   8.307 -0.2394 -0.4476  0.2979
 1012MOL0     C39567   3.329   2.697   8.216  0.2836  0.5960 -0.2243
 1012MOL0     C39568   3.202   2.740   8.255 -0.3092 -0.8240 -0.0254
 1012MOL0     N39569   2.650   2.602   8.894  0.3091  0.1770  0.6077
 1012MOL0     N39570   2.536   2.561   8.943 -0.2367 -0.1137  0.1144
 1012MOL0     C39571   1.680   3.082   9.062 -0.0232  0.0380  0.5320
 1012MOL0     C39572   1.617   3.158   9.159  0.2784 -0.3892  0.0947
 1012MOL0     C39573   1.280   3.218   9.488 -0.0070  0.6824 -0.1879
 1012MOL0     C39574   1.375   3.217   9.593  0.3912 -0.0497  0.9055
 1012MOL0     C39575   1.326   3.223   9.724  0.4876 -0.4539  0.4777
 1012MOL0     C39576   1.194   3.262   9.755 -0.5348 -0.5269 -0.7377
 1012MOL0     O39577   1.158   3.286   9.888 -0.0071 -0.3227 -0.2179
 1012MOL0     C39578   1.249   3.314   9.998 -0.9098  0.2306  0.3841
 1012MOL0     C39579   1.311   3.453   9.968  0.0015  0.2943 -0.0352
 1012MOL0     C39580   1.202   3.550   9.966  0.1408  0.0919  0.1527
 1012MOL0     C39581   1.238   3.696   9.936 -0.3526  0.9113 -0.1775
 1012MOL0     C39582   1.147   3.786   9.995 -0.4260 -0.3032 -0.1396
 1012MOL0     C39583   1.073   3.865  10.046  0.0669 -0.5093 -0.2744
 1012MOL0     C39584   1.102   3.267   9.654 -0.6832 -0.0167 -0.0279
 1012MOL0     C39585   1.142   3.251   9.517 -0.1859 -0.7041 -0.5193
 1012MOL0     C39586   1.035   3.273   9.412 -0.7923  0.6025 -1.3754
 1012MOL0     H39587   1.424   2.913   9.292  0.7423 -0.5555  1.5317
 1012MOL0     H39588   1.515   2.788   9.089 -1.6486  1.0328  1.5773
 1012MOL0     H39589   1.628   2.696   8.908  0.3458  0.7495 -3.0559
 1012MOL0     H39590   1.766   2.725   9.016  0.7124  2.9750  0.6799
 1012MOL0     H39591   1.766   2.691   8.718 -3.3757 -0.3515  2.4212
 1012MOL0     H39592   1.900   2.782   8.811  0.7558 -0.7643  0.7132
 1012MOL0     H39593   1.924   2.562   8.953  0.2602 -0.7183 -0.8896
 1012MOL0     H39594   1.819   2.487   8.848  1.4547 -1.4299  1.2245
 1012MOL0     H39595   2.003   2.429   8.769  0.4719  0.7620  1.0573
 1012MOL0     H39596   1.935   2.537   8.650 -0.3965 -1.6957 -0.0256
 1012MOL0     H39597   2.109   2.681   8.839 -3.4285 -0.1209  0.6951
 1012MOL0     H39598   2.102   2.680   8.660 -1.7476 -1.0942 -0.5616
 1012MOL0     H39599   2.226   2.450   8.665 -0.1075 -0.8682 -0.1636
 1012MOL0     H39600   2.312   2.591   8.721 -1.7970  1.4610 -2.1427
 1012MOL0     H39601   2.166   2.393   8.902 -0.0026  0.6829  0.8019
 1012MOL0     H39602   2.265   2.531   8.968 -0.5526 -1.5780  1.3727
 1012MOL0     H39603   2.394   2.326   9.006 -0.1923 -0.9106 -0.6042
 1012MOL0     H39604   2.373   2.281   8.841  0.2995  0.5467 -0.4859
 1012MOL0     H39605   2.601   2.333   8.710 -0.1978 -0.3151  0.8749
 1012MOL0     H39606   2.871   2.460   8.730  1.7229  1.1101 -0.7269
 1012MOL0     H39607   2.851   2.637   8.733  0.0576 -1.2253 -0.6804
 1012MOL0     H39608   2.752   2.428   8.529 -0.1522  0.6200 -0.5532
 1012MOL0     H39609   2.707   2.595   8.523  0.7733  0.9089 -0.0110
 1012MOL0     H39610   2.976   2.478   8.483  1.7609  1.4383 -0.8316
 1012MOL0     H39611   2.870   2.571   8.372  1.1858  2.9467 -1.2478
 1012MOL0     H39612   2.867   2.758   8.512 -1.4720 -1.2936  0.6828
 1012MOL0     H39613   2.998   2.695   8.610 -1.3863  0.9661  0.3086
 1012MOL0     H39614   3.226   2.637   8.577 -0.4376 -3.8500 -0.6379
 1012MOL0     H39615   3.458   2.572   8.655  2.4540  0.2929  0.9410
 1012MOL0     H39616   3.575   2.653   8.551  0.7015 -0.8681  2.7687
 1012MOL0     H39617   3.544   2.485   8.530  2.2454  1.1319 -0.5089
 1012MOL0     H39618   3.723   2.850   7.995 -1.5503 -1.2936 -1.9235
 1012MOL0     H39619   3.950   2.847   7.910  0.7912  0.2698 -0.2013
 1012MOL0     H39620   4.231   2.530   8.022 -1.8745 -2.9822  0.0511
 1012MOL0     H39621   4.152   2.449   7.897 -1.0557  0.8546  0.3866
 1012MOL0     H39622   4.288   2.533   7.724  1.2473 -2.4193  0.4565
 1012MOL0     H39623   4.357   2.668   7.818  0.1435 -0.3822 -2.2157
 1012MOL0     H39624   4.424   2.373   7.892  0.8723 -1.5464 -1.5200
 1012MOL0     H39625   4.519   2.523   7.928  0.9750  0.5742 -1.4770
 1012MOL0     H39626   4.585   2.551   7.710  1.8000 -1.7320 -1.0154
 1012MOL0     H39627   4.481   2.419   7.644  0.1606 -0.1925 -0.8892
 1012MOL0     H39628   4.716   2.374   7.829 -2.3766 -0.4574  1.3702
 1012MOL0     H39629   4.606   2.253   7.789  1.6844  0.0516  1.8549
 1012MOL0     H39630   4.782   2.409   7.597 -1.1644  1.9814  0.9576
 1012MOL0     H39631   4.655   2.294   7.547  1.2290  1.2422 -1.0586
 1012MOL0     H39632   4.829   2.144   7.742  3.1732  0.6814  0.9212
 1012MOL0     H39633   4.928   2.245   7.651  0.4632 -0.7423  0.9192
 1012MOL0     H39634   4.912   2.033   7.545  0.2507  0.7110  2.4711
 1012MOL0     H39635   4.832   2.160   7.444 -0.2441 -0.6649 -0.8603
 1012MOL0     H39636   3.994   2.435   8.016  1.2700  0.0897  1.0214
 1012MOL0     H39637   3.753   2.451   8.118 -1.8329  0.4861 -0.2993
 1012MOL0     H39638   3.348   2.725   8.113 -1.9090  1.5489 -0.4123
 1012MOL0     H39639   3.128   2.756   8.178 -0.1161  1.1015  0.1409
 1012MOL0     H39640   1.745   3.141   8.997  0.1221  3.2335  3.3060
 1012MOL0     H39641   1.623   3.265   9.170 -1.2402 -0.0690 -1.7127
 1012MOL0     H39642   1.475   3.187   9.566 -0.3033 -2.3635  0.6767
 1012MOL0     H39643   1.400   3.235   9.803  0.0431 -1.1113  0.9968
 1012MOL0     H39644   1.197   3.309  10.094  0.2313  0.1499  1.0192
 1012MOL0     H39645   1.328   3.238   9.997 -0.5568  0.4342  3.5542
 1012MOL0     H39646   1.365   3.464   9.874  2.3641  3.0792  1.4701
 1012MOL0     H39647   1.392   3.474  10.039  0.3194 -0.9240 -0.0186
 1012MOL0     H39648   1.120   3.513   9.904 -0.2519 -0.2053  0.8393
 1012MOL0     H39649   1.173   3.555  10.072  1.1343 -0.2636  0.4553
 1012MOL0     H39650   1.244   3.712   9.828  1.8559 -2.6062 -0.7671
 1012MOL0     H39651   1.343   3.712   9.962 -0.8409  0.3652  2.3417
 1012MOL0     H39652   0.997   3.926  10.091  1.2554  1.2277 -0.4939
 1012MOL0     H39653   0.998   3.296   9.671 -0.8158 -1.0375  1.0334
 1012MOL0     H39654   1.061   3.344   9.332  1.9288 -0.2845 -1.3589
 1012MOL0     H39655   1.019   3.175   9.366 -3.8129  0.7606 -0.8876
 1012MOL0     H39656   0.943   3.310   9.459 -0.8990 -3.0131  1.6885
 1013MOL0     O39657   4.970   2.704   2.282  0.6508 -0.1627 -0.3816
 1013MOL0     C39658   4.890   2.769   2.352  0.2626  0.5340  0.8624
 1013MOL0     O39659   4.865   2.903   2.325 -0.0920 -0.0884  0.2409
 1013MOL0     C39660   4.951   2.987   2.264 -0.9388  1.0716  1.3792
 1013MOL0     C39661   5.095   2.967   2.251  0.4972  0.3904 -1.0154
 1013MOL0     C39662   5.164   3.072   2.188  0.4045 -0.1615  0.6992
 1013MOL0     C39663   5.096   3.180   2.129  0.2715  0.4367 -0.5963
 1013MOL0     O39664   5.151   3.291   2.072  0.0548 -0.2396  0.1217
 1013MOL0     C39665   5.293   3.287   2.050 -0.3452 -0.0837 -0.1357
 1013MOL0     C39666   5.332   3.380   1.941  0.6149  0.3771  0.1459
 1013MOL0     C39667   5.324   3.314   1.804 -0.4170 -0.6357  0.5442
 1013MOL0     C39668   5.172   3.304   1.762 -0.0995  1.2355  0.0101
 1013MOL0     C39669   5.160   3.249   1.621 -0.3396 -0.8323 -0.1194
 1013MOL0     C39670   5.010   3.209   1.587 -0.3575 -0.2436 -0.2139
 1013MOL0     C39671   5.002   3.147   1.446  0.0737 -0.3887 -0.2289
 1013MOL0     C39672   4.879   3.054   1.407 -0.7195 -0.7801 -0.8826
 1013MOL0     N39673   4.747   3.121   1.375 -0.8479 -0.2046  0.6411
 1013MOL0     C39674   4.652   3.062   1.299  0.0704 -0.2205  0.0033
 1013MOL0     C39675   4.541   3.139   1.318 -0.2307 -0.6314  0.3443
 1013MOL0     C39676   4.401   3.122   1.265  0.3871 -1.1042  0.8692
 1013MOL0     C39677   4.296   3.203   1.349  0.2811 -0.2754  0.6944
 1013MOL0     C39678   4.152   3.182   1.308  0.0263  0.5769  0.8193
 1013MOL0     C39679   4.041   3.265   1.373 -0.1094  0.8669  0.3193
 1013MOL0     O39680   3.910   3.242   1.317 -0.2162 -0.7236  0.1414
 1013MOL0     C39681   3.784   3.279   1.372 -0.0718 -0.3177 -0.1658
 1013MOL0     C39682   3.763   3.353   1.487  0.0163 -0.1403 -0.0431
 1013MOL0     C39683   3.635   3.405   1.522 -0.1092 -0.0733  0.3985
 1013MOL0     C39684   3.610   3.486   1.649  0.1450  0.2451 -0.2036
 1013MOL0     C39685   3.529   3.364   1.437 -0.1381  0.5101 -0.6861
 1013MOL0     C39686   3.387   3.413   1.452 -0.5120  0.2980  1.3898
 1013MOL0     O39687   3.300   3.322   1.404 -0.0445 -0.2934  0.2970
 1013MOL0     C39688   3.167   3.348   1.415  0.1448 -0.1772 -0.1734
 1013MOL0     C39689   3.106   3.398   1.532  0.2134 -0.2651 -0.0304
 1013MOL0     C39690   2.966   3.423   1.532  0.8731 -0.1670  0.2225
 1013MOL0     C39691   2.882   3.379   1.428 -0.4371  0.3010  0.1050
 1013MOL0     O39692   2.746   3.404   1.430  0.1417  0.4606  0.0115
 1013MOL0     C39693   2.676   3.423   1.565  0.0380 -0.5841  0.1577
 1013MOL0     C39694   2.550   3.501   1.525  0.2657  0.6720 -0.0770
 1013MOL0     C39695   2.443   3.510   1.637  0.5522 -0.2522 -0.0662
 1013MOL0     C39696   2.479   3.584   1.771  0.1678  0.4853 -0.1859
 1013MOL0     C39697   2.452   3.733   1.750  0.1122 -1.1328  0.7099
 1013MOL0     C39698   2.459   3.813   1.880  0.5697  0.6647  0.6678
 1013MOL0     C39699   2.370   3.755   1.999  1.0996 -1.2305 -0.1548
 1013MOL0     C39700   2.357   3.860   2.105 -0.6314  0.4872 -0.4225
 1013MOL0    Cl39701   2.257   3.999   2.055  0.0532 -0.1045 -0.1693
 1013MOL0     C39702   2.946   3.332   1.314  0.4488  0.2939 -0.0015
 1013MOL0     C39703   3.087   3.307   1.314 -0.5110 -0.1415  0.3698
 1013MOL0     O39704   3.364   3.533   1.479  0.5876  0.6779  0.1126
 1013MOL0     C39705   3.549   3.275   1.334 -0.1512 -0.3352  1.2863
 1013MOL0     C39706   3.677   3.234   1.307 -0.0612  1.3817 -1.1260
 1013MOL0     N39707   4.584   3.259   1.372  0.0683 -0.2646 -0.5358
 1013MOL0     N39708   4.701   3.242   1.420  0.2241  0.0786 -0.3924
 1013MOL0     C39709   4.957   3.184   2.132  0.3981  0.0256 -0.2028
 1013MOL0     C39710   4.883   3.092   2.216  0.1961  0.3638 -0.1637
 1013MOL0     C39711   4.800   2.723   2.458  0.5714 -0.3033  0.0000
 1013MOL0     C39712   4.727   2.808   2.545 -0.9480 -1.0371 -0.0493
 1013MOL0     C39713   4.639   2.758   2.645  0.0887 -0.1063  0.1130
 1013MOL0     C39714   4.630   2.619   2.660 -0.3868 -0.5566 -0.3486
 1013MOL0     O39715   4.556   2.564   2.765 -0.2363  0.5357 -0.5316
 1013MOL0     C39716   4.415   2.564   2.738 -0.4153  0.4461 -0.1381
 1013MOL0     C39717   4.342   2.507   2.854  0.6884 -0.4575 -0.3860
 1013MOL0     C39718   4.375   2.347   2.863  0.0034 -0.3003 -0.6107
 1013MOL0     C39719   4.304   2.278   2.977  0.3566 -0.9357 -0.6922
 1013MOL0     C39720   4.323   2.133   2.963  0.7128  0.2690  0.1618
 1013MOL0     C39721   4.334   2.012   2.942 -0.1290 -0.2814 -0.1567
 1013MOL0     C39722   4.703   2.537   2.569  0.5823  0.0592 -0.1682
 1013MOL0     C39723   4.790   2.580   2.477 -0.1707 -0.0898 -0.4437
 1013MOL0     C39724   4.870   2.478   2.400  0.3918 -0.3243 -0.0126
 1013MOL0     H39725   5.154   2.882   2.285  0.5546  0.4688 -0.9151
 1013MOL0     H39726   5.272   3.078   2.179  0.4705 -1.3217  0.6339
 1013MOL0     H39727   5.334   3.187   2.029  1.2206  0.1544  1.5072
 1013MOL0     H39728   5.349   3.321   2.137  1.2284 -1.3943 -0.5767
 1013MOL0     H39729   5.281   3.476   1.950 -0.6391 -0.2675  0.1426
 1013MOL0     H39730   5.438   3.402   1.954  1.0096 -1.9430  1.4000
 1013MOL0     H39731   5.373   3.372   1.725 -2.7780  0.2369 -0.3704
 1013MOL0     H39732   5.386   3.224   1.793  1.5154  0.9103 -2.8469
 1013MOL0     H39733   5.121   3.232   1.828  1.5304  0.7976  0.8459
 1013MOL0     H39734   5.128   3.404   1.766 -1.0109  0.9810 -2.2719
 1013MOL0     H39735   5.233   3.170   1.603  0.9102  0.4855 -1.1226
 1013MOL0     H39736   5.183   3.333   1.555 -0.6104 -0.0919  0.7071
 1013MOL0     H39737   4.980   3.130   1.657 -0.0950  0.1012  0.2942
 1013MOL0     H39738   4.943   3.295   1.601 -0.7443 -0.4174 -0.9683
 1013MOL0     H39739   5.093   3.087   1.439  0.5267  0.1425  0.9181
 1013MOL0     H39740   5.008   3.221   1.365 -3.8900  0.9124  0.4412
 1013MOL0     H39741   4.908   2.979   1.333 -0.2479 -2.3806  0.8512
 1013MOL0     H39742   4.859   2.985   1.488  0.2676 -4.1395 -3.2977
 1013MOL0     H39743   4.656   2.972   1.239  1.1214  0.2077 -0.6093
 1013MOL0     H39744   4.382   3.015   1.255  1.5117 -1.4731  2.2419
 1013MOL0     H39745   4.396   3.169   1.167  2.1775 -1.6901  0.4591
 1013MOL0     H39746   4.303   3.167   1.452 -2.5709 -2.4325  0.2477
 1013MOL0     H39747   4.316   3.308   1.326  0.2776 -0.5028 -0.4353
 1013MOL0     H39748   4.138   3.201   1.201  1.3216  2.3716  0.9279
 1013MOL0     H39749   4.129   3.076   1.327  0.3802  0.1725 -0.8340
 1013MOL0     H39750   4.029   3.247   1.481 -0.7531  0.7066  0.2265
 1013MOL0     H39751   4.063   3.372   1.360 -1.2764  0.9122 -1.6312
 1013MOL0     H39752   3.853   3.377   1.543 -0.9469  0.6655  1.2277
 1013MOL0     H39753   3.586   3.421   1.735 -0.2496  0.3699 -0.2173
 1013MOL0     H39754   3.536   3.566   1.642 -0.2879 -0.0167  1.0946
 1013MOL0     H39755   3.706   3.533   1.672  0.4978 -0.2862 -0.5799
 1013MOL0     H39756   3.153   3.430   1.624  0.4507 -2.1607  0.5275
 1013MOL0     H39757   2.928   3.478   1.618  1.8122 -0.4856  0.8636
 1013MOL0     H39758   2.648   3.323   1.601 -2.4877 -1.0672 -2.8294
 1013MOL0     H39759   2.738   3.470   1.643  1.1274 -1.0173 -0.4264
 1013MOL0     H39760   2.563   3.601   1.482  1.6596  0.8226  0.6184
 1013MOL0     H39761   2.501   3.438   1.450  2.2465 -0.0148 -0.8585
 1013MOL0     H39762   2.408   3.407   1.651 -1.5131  0.5185  0.7868
 1013MOL0     H39763   2.366   3.566   1.584  1.3982  1.0394  0.0343
 1013MOL0     H39764   2.581   3.555   1.798 -0.1948 -0.1274  0.5787
 1013MOL0     H39765   2.420   3.549   1.856  3.6206 -1.2866  1.6723
 1013MOL0     H39766   2.526   3.779   1.683 -0.0145 -1.6716  0.1954
 1013MOL0     H39767   2.355   3.764   1.713  0.4725 -0.2823  0.4573
 1013MOL0     H39768   2.437   3.917   1.854  0.2447  0.4428  0.0209
 1013MOL0     H39769   2.561   3.815   1.919  1.7025  2.7510 -2.0117
 1013MOL0     H39770   2.433   3.675   2.040  1.2350  0.6623  3.7254
 1013MOL0     H39771   2.270   3.720   1.971  2.2955 -3.5306 -1.9081
 1013MOL0     H39772   2.457   3.889   2.139 -0.8613 -0.4470  1.1337
 1013MOL0     H39773   2.319   3.816   2.198  0.5623  0.0914 -0.0953
 1013MOL0     H39774   2.884   3.304   1.230 -1.7756 -1.6844  2.1125
 1013MOL0     H39775   3.135   3.247   1.236  0.9822 -0.6992  1.6646
 1013MOL0     H39776   3.469   3.233   1.273 -1.0055  5.7200 -2.5969
 1013MOL0     H39777   3.695   3.168   1.222  1.9438  1.0785 -0.5150
 1013MOL0     H39778   4.900   3.256   2.075  0.0100 -1.7585 -2.1970
 1013MOL0     H39779   4.779   3.109   2.242  0.2061 -1.0282  0.8850
 1013MOL0     H39780   4.737   2.916   2.537 -0.6315 -1.1163 -0.7560
 1013MOL0     H39781   4.579   2.821   2.709  2.1777  0.9948  1.1016
 1013MOL0     H39782   4.379   2.667   2.741 -0.6309  0.3715 -0.1564
 1013MOL0     H39783   4.398   2.508   2.646  2.7966 -3.2553  1.2290
 1013MOL0     H39784   4.235   2.520   2.837  1.0571  0.0762 -2.4768
 1013MOL0     H39785   4.374   2.551   2.949  2.7732  1.0468 -1.7063
 1013MOL0     H39786   4.362   2.292   2.769  1.8735 -0.8814 -0.5594
 1013MOL0     H39787   4.483   2.334   2.872 -0.0009  0.7851  1.8223
 1013MOL0     H39788   4.202   2.317   2.970  0.2813 -0.7876  0.8369
 1013MOL0     H39789   4.352   2.304   3.072  0.8956 -1.9023 -0.6869
 1013MOL0     H39790   4.335   1.905   2.927 -0.1508 -0.1392 -1.2344
 1013MOL0     H39791   4.699   2.429   2.574  1.4296 -0.0121 -0.8495
 1013MOL0     H39792   4.866   2.471   2.291  0.0026 -2.1852  0.1014
 1013MOL0     H39793   4.972   2.491   2.437 -1.0714 -1.5506  5.4012
 1013MOL0     H39794   4.845   2.377   2.433 -0.2358 -1.1766 -2.8336
 1014MOL0     O39795   8.208   3.404   4.364  0.6045 -0.2197 -0.0680
 1014MOL0     C39796   8.184   3.418   4.247  0.3982 -0.6222  1.3583
 1014MOL0     O39797   8.281   3.416   4.139  0.8228  0.0509 -0.5141
 1014MOL0     C39798   8.395   3.479   4.171 -0.7916 -1.1882  0.1072
 1014MOL0     C39799   8.423   3.597   4.094  0.5526 -0.1730 -0.3428
 1014MOL0     C39800   8.542   3.664   4.116  0.1056 -0.3657 -0.2026
 1014MOL0     C39801   8.643   3.613   4.195 -0.1038 -0.1827 -0.0924
 1014MOL0     O39802   8.764   3.679   4.195  0.3277  0.4108 -0.6145
 1014MOL0     C39803   8.866   3.646   4.282 -0.4101  0.0099 -0.2616
 1014MOL0     C39804   8.996   3.703   4.222 -0.5776  0.0918  0.5827
 1014MOL0     C39805   9.126   3.660   4.297  0.0861 -0.1417  0.2744
 1014MOL0     C39806   9.245   3.729   4.239 -0.1738 -0.3300  0.0127
 1014MOL0     C39807   9.371   3.695   4.312 -0.0874  1.4574 -0.6941
 1014MOL0     C39808   9.500   3.767   4.264  0.3967 -0.9419  0.1535
 1014MOL0     C39809   9.628   3.703   4.310  0.3655 -1.2090  0.0001
 1014MOL0     C39810   9.736   3.806   4.264  0.3978 -0.0949  1.1077
 1014MOL0     N39811   9.880   3.776   4.308  0.4363 -0.7622 -0.8180
 1014MOL0     C39812   9.921   3.771   4.439  0.0163  0.6513 -0.2549
 1014MOL0     C39813  10.054   3.744   4.420  0.6285  0.3197  0.8077
 1014MOL0     C39814  10.159   3.737   4.524  0.3246 -0.1005  0.7059
 1014MOL0     C39815  10.222   3.600   4.512  0.3703  0.7042  0.5259
 1014MOL0     C39816  10.346   3.603   4.609  0.6932  0.0978 -0.2240
 1014MOL0     C39817  10.427   3.478   4.631  0.6238  0.4431 -0.4099
 1014MOL0     O39818  10.535   3.521   4.716 -0.0799  0.2827 -0.2952
 1014MOL0     C39819  10.646   3.441   4.709 -0.5553 -0.5718 -0.7849
 1014MOL0     C39820  10.650   3.320   4.638  0.2548  0.4091 -0.7995
 1014MOL0     C39821  10.764   3.239   4.624 -0.1145 -0.5487  0.7839
 1014MOL0     C39822  10.740   3.100   4.565  0.7000 -0.4654 -0.0906
 1014MOL0     C39823  10.885   3.283   4.679 -0.1847 -0.2465  0.5365
 1014MOL0     C39824  11.016   3.219   4.675 -0.4030 -0.4729  0.8536
 1014MOL0     O39825  11.130   3.295   4.719  0.1040  0.1026 -0.0187
 1014MOL0     C39826  11.252   3.237   4.715 -0.0093 -0.3353  0.9245
 1014MOL0     C39827  11.331   3.263   4.828 -0.0470  0.6153  0.0014
 1014MOL0     C39828  11.459   3.212   4.842 -0.5854  0.1464  0.6093
 1014MOL0     C39829  11.511   3.122   4.746 -0.1612 -0.2620  0.4564
 1014MOL0     O39830  11.630   3.070   4.783 -0.0960  0.7819  0.3929
 1014MOL0     C39831  11.695   2.967   4.699 -0.6848  0.2567 -0.1132
 1014MOL0     C39832  11.825   2.916   4.768  0.1328 -0.9391  0.0421
 1014MOL0     C39833  11.925   3.019   4.809 -0.0831  0.0620  0.0387
 1014MOL0     C39834  12.053   3.011   4.730  0.3465  0.3218  0.3426
 1014MOL0     C39835  12.148   3.125   4.777 -0.5618  0.1238 -0.4595
 1014MOL0     C39836  12.200   3.098   4.918 -0.0435 -0.5408 -0.2917
 1014MOL0     C39837  12.308   3.202   4.945  0.2219 -0.4395 -0.1240
 1014MOL0     C39838  12.272   3.357   4.941  0.2439  0.8683  0.8918
 1014MOL0    Cl39839  12.386   3.455   5.026  0.0967 -0.3486  0.0061
 1014MOL0     C39840  11.445   3.111   4.627 -0.1323 -0.1920 -0.2654
 1014MOL0     C39841  11.316   3.165   4.601  0.4561  0.5090  0.0189
 1014MOL0     O39842  11.021   3.109   4.614 -0.9389 -0.2095  0.4350
 1014MOL0     C39843  10.879   3.411   4.750  0.4704  0.2832 -0.3303
 1014MOL0     C39844  10.762   3.486   4.763  0.4574 -0.5437 -1.0018
 1014MOL0     N39845  10.083   3.730   4.281 -0.4871  0.2458  0.2156
 1014MOL0     N39846   9.976   3.752   4.218  0.0294 -0.0239  0.1482
 1014MOL0     C39847   8.622   3.493   4.275 -0.0359 -0.1142 -0.0658
 1014MOL0     C39848   8.492   3.435   4.260 -0.2601  0.2980  0.0215
 1014MOL0     C39849   8.034   3.428   4.229 -0.2697 -0.0521  0.5809
 1014MOL0     C39850   7.947   3.391   4.332  0.1807 -0.8644  0.1836
 1014MOL0     C39851   7.809   3.394   4.316  0.0728 -0.6768 -0.0074
 1014MOL0     C39852   7.752   3.427   4.192  0.0241 -0.1498 -0.5305
 1014MOL0     O39853   7.616   3.411   4.178  0.2468  0.0458  0.9054
 1014MOL0     C39854   7.544   3.295   4.231 -0.4666  0.5514  1.0554
 1014MOL0     C39855   7.386   3.305   4.203 -0.7679  0.5064 -0.0228
 1014MOL0     C39856   7.356   3.330   4.060 -0.0418  0.6833  0.9855
 1014MOL0     C39857   7.208   3.319   4.032  0.5638 -0.4428  0.1884
 1014MOL0     C39858   7.164   3.383   3.904 -0.3839  0.4691  0.3886
 1014MOL0     C39859   7.148   3.455   3.806 -0.0592  0.6325  0.1444
 1014MOL0     C39860   7.836   3.462   4.088 -0.3110  0.3327  0.3911
 1014MOL0     C39861   7.975   3.452   4.097 -0.0395 -0.4123 -0.1951
 1014MOL0     C39862   8.043   3.456   3.970 -0.1826 -0.0127 -0.3013
 1014MOL0     H39863   8.354   3.626   4.016  0.9272 -0.8809 -0.9449
 1014MOL0     H39864   8.570   3.748   4.054 -1.6832  0.8326  0.5022
 1014MOL0     H39865   8.874   3.539   4.304 -0.0179 -0.2044 -1.3607
 1014MOL0     H39866   8.839   3.689   4.379 -0.0643 -1.8347  0.6913
 1014MOL0     H39867   9.007   3.681   4.115  1.8318 -1.3708  1.0576
 1014MOL0     H39868   9.002   3.813   4.219  4.1730  0.0525  0.5288
 1014MOL0     H39869   9.125   3.680   4.404  0.4872 -0.7632  0.4003
 1014MOL0     H39870   9.129   3.551   4.288 -3.6112 -0.3792  0.3678
 1014MOL0     H39871   9.260   3.699   4.135  3.6264  1.7522 -0.1888
 1014MOL0     H39872   9.238   3.838   4.235  0.4488 -0.2903 -0.1097
 1014MOL0     H39873   9.383   3.588   4.295  0.2612  1.1069  1.4780
 1014MOL0     H39874   9.353   3.708   4.420  0.4223 -0.6649 -0.3221
 1014MOL0     H39875   9.497   3.761   4.155 -1.3563  1.0295  0.0344
 1014MOL0     H39876   9.491   3.874   4.286 -3.2534 -0.7425 -1.6093
 1014MOL0     H39877   9.625   3.606   4.260  0.4256 -1.2877  0.1495
 1014MOL0     H39878   9.625   3.688   4.418 -2.8783 -1.3759 -0.0220
 1014MOL0     H39879   9.731   3.812   4.155 -0.1630 -3.4174  0.8261
 1014MOL0     H39880   9.714   3.909   4.294  1.4555  0.9405 -1.3924
 1014MOL0     H39881   9.862   3.799   4.526 -0.8663 -1.6477 -0.0284
 1014MOL0     H39882  10.110   3.761   4.618 -2.7662 -2.3409 -0.1623
 1014MOL0     H39883  10.229   3.818   4.499 -0.9565  1.5125  2.1188
 1014MOL0     H39884  10.162   3.511   4.530  2.8564 -1.0983  0.4091
 1014MOL0     H39885  10.262   3.579   4.413  1.6505 -1.1582  1.3688
 1014MOL0     H39886  10.416   3.675   4.566  2.3310 -0.8896  0.6973
 1014MOL0     H39887  10.308   3.636   4.706 -1.0415 -2.0096 -0.1005
 1014MOL0     H39888  10.379   3.398   4.687  4.2424 -1.4102  0.3523
 1014MOL0     H39889  10.446   3.429   4.534 -1.5814  1.6169 -1.5054
 1014MOL0     H39890  10.555   3.277   4.607 -1.0748  3.3458 -1.0720
 1014MOL0     H39891  10.646   3.093   4.509  1.3839 -4.1564 -1.0894
 1014MOL0     H39892  10.737   3.030   4.649 -2.3100 -0.1840  0.1186
 1014MOL0     H39893  10.817   3.080   4.489 -2.1871 -0.0340 -3.3600
 1014MOL0     H39894  11.309   3.322   4.916 -0.7164 -0.7926  0.8206
 1014MOL0     H39895  11.525   3.229   4.926  0.7753 -3.0326  0.3039
 1014MOL0     H39896  11.627   2.884   4.676 -2.3431  1.3541  0.6232
 1014MOL0     H39897  11.729   3.014   4.606  3.5588 -0.7479  0.7384
 1014MOL0     H39898  11.790   2.868   4.861  2.1018 -0.2809  1.1719
 1014MOL0     H39899  11.889   2.842   4.719  2.6982 -0.5626  2.5874
 1014MOL0     H39900  11.954   2.992   4.911 -1.3731  2.5427  1.1471
 1014MOL0     H39901  11.875   3.116   4.805  0.1964  0.2945  1.6102
 1014MOL0     H39902  12.032   3.017   4.622 -2.0828 -0.3838  0.7213
 1014MOL0     H39903  12.105   2.915   4.745  1.3920  0.4511 -1.9855
 1014MOL0     H39904  12.234   3.118   4.711 -2.2294 -2.4122 -2.5602
 1014MOL0     H39905  12.090   3.217   4.772  1.8769  1.9455  1.9717
 1014MOL0     H39906  12.241   2.996   4.919 -1.2549 -1.0424 -0.1040
 1014MOL0     H39907  12.118   3.112   4.989  0.1912 -1.6668  0.2422
 1014MOL0     H39908  12.390   3.180   4.876 -0.4183 -0.1899 -0.9879
 1014MOL0     H39909  12.343   3.189   5.048 -1.0878  0.4129  0.4570
 1014MOL0     H39910  12.171   3.370   4.982 -0.0159  0.4692  0.3835
 1014MOL0     H39911  12.280   3.396   4.840 -1.3285 -1.8788 -0.4088
 1014MOL0     H39912  11.494   3.050   4.551  1.4200  1.0909 -0.3564
 1014MOL0     H39913  11.262   3.133   4.512  1.1489 -1.2482  0.1940
 1014MOL0     H39914  10.971   3.444   4.798  2.0219 -1.0858 -2.1790
 1014MOL0     H39915  10.762   3.567   4.835  2.2464 -0.9991 -0.4323
 1014MOL0     H39916   8.688   3.438   4.342 -0.5965  0.4585  0.9837
 1014MOL0     H39917   8.459   3.339   4.297 -1.7456 -0.4508 -3.0091
 1014MOL0     H39918   7.999   3.368   4.425 -0.3325  1.0389  0.9715
 1014MOL0     H39919   7.744   3.376   4.401  1.5121 -0.8383  1.0834
 1014MOL0     H39920   7.590   3.203   4.194 -0.2282  0.8425  0.6105
 1014MOL0     H39921   7.547   3.294   4.340 -0.2373 -0.8864  1.0566
 1014MOL0     H39922   7.344   3.389   4.260  2.0599  0.1580  2.8545
 1014MOL0     H39923   7.341   3.210   4.234 -0.2378  0.3019  0.1278
 1014MOL0     H39924   7.391   3.427   4.024  0.4437 -0.1799 -1.0032
 1014MOL0     H39925   7.407   3.258   3.995  0.8271  2.7577 -0.7478
 1014MOL0     H39926   7.154   3.375   4.110 -0.1075  0.2501 -0.7490
 1014MOL0     H39927   7.179   3.214   4.034 -0.3590 -0.2104 -0.0842
 1014MOL0     H39928   7.136   3.532   3.732  0.8226 -0.6516 -1.3689
 1014MOL0     H39929   7.784   3.481   3.994 -0.2350  1.2962  0.5357
 1014MOL0     H39930   7.982   3.475   3.881 -1.7023  0.1304  0.7266
 1014MOL0     H39931   8.121   3.531   3.984  0.6830 -1.4277  3.5239
 1014MOL0     H39932   8.088   3.357   3.962 -1.9464 -0.8435 -0.6388
 1015MOL0     O39933   2.142  10.684   0.923 -0.0274  0.2914  0.1218
 1015MOL0     C39934   2.100  10.572   0.943  0.3986  0.9064  0.2174
 1015MOL0     O39935   2.178  10.468   0.975  0.3737 -0.5508 -0.1053
 1015MOL0     C39936   2.282  10.513   1.045 -0.5602  0.2726 -0.9243
 1015MOL0     C39937   2.417  10.479   0.999  0.3677 -0.1407  0.6488
 1015MOL0     C39938   2.527  10.528   1.064 -0.1180  0.0613  0.7366
 1015MOL0     C39939   2.511  10.606   1.181  0.4606 -0.1992 -0.0601
 1015MOL0     O39940   2.612  10.651   1.255  0.2326 -0.3314 -0.1443
 1015MOL0     C39941   2.751  10.628   1.218  0.2262  0.1555  0.7854
 1015MOL0     C39942   2.834  10.700   1.317  0.5554 -0.0589 -1.2105
 1015MOL0     C39943   2.984  10.688   1.320 -0.4093  0.0207  0.1908
 1015MOL0     C39944   3.051  10.753   1.441  1.2500 -0.4244 -0.6307
 1015MOL0     C39945   3.201  10.758   1.436 -0.9460  0.0359 -0.5978
 1015MOL0     C39946   3.253  10.813   1.304  0.5146 -1.2281 -0.3055
 1015MOL0     C39947   3.402  10.856   1.316  0.3516  0.0130 -0.2658
 1015MOL0     C39948   3.456  10.890   1.180  0.6868 -0.8456 -0.4603
 1015MOL0     N39949   3.595  10.932   1.196 -0.0781  0.2866  0.1131
 1015MOL0     C39950   3.708  10.852   1.217 -0.5324  0.3573 -0.8231
 1015MOL0     C39951   3.815  10.936   1.193  0.4457  0.3364 -0.1942
 1015MOL0     C39952   3.954  10.893   1.209  0.1612  0.1470 -0.4170
 1015MOL0     C39953   4.023  10.970   1.325 -0.0715  0.5266 -0.0173
 1015MOL0     C39954   4.160  10.925   1.344 -0.5367 -0.2574 -0.3852
 1015MOL0     C39955   4.165  10.789   1.421  1.1714 -0.4838  0.6290
 1015MOL0     O39956   4.302  10.767   1.436 -0.0351  0.1807 -0.1345
 1015MOL0     C39957   4.388  10.720   1.344  0.0939 -0.4002  0.5674
 1015MOL0     C39958   4.360  10.708   1.217  0.6882  0.8174  0.8324
 1015MOL0     C39959   4.462  10.683   1.119  0.4499  0.6309  0.2525
 1015MOL0     C39960   4.429  10.697   0.972 -0.3286 -0.7471 -0.9175
 1015MOL0     C39961   4.592  10.663   1.159  0.0910 -0.2238 -0.1722
 1015MOL0     C39962   4.704  10.651   1.070  0.5920  0.1420  0.4407
 1015MOL0     O39963   4.805  10.736   1.088  0.4916  0.3733 -0.2937
 1015MOL0     C39964   4.921  10.734   1.008 -1.0598 -0.6095  0.3440
 1015MOL0     C39965   4.936  10.705   0.871 -0.1130  0.7260 -1.0149
 1015MOL0     C39966   5.065  10.700   0.808  0.7206 -0.1955  0.3150
 1015MOL0     C39967   5.181  10.717   0.884 -0.4897 -0.2571 -0.0909
 1015MOL0     O39968   5.298  10.719   0.815  0.3539 -0.3579  0.2626
 1015MOL0     C39969   5.414  10.694   0.881 -0.4040  0.2110 -0.3967
 1015MOL0     C39970   5.521  10.680   0.787 -0.3476  1.1585 -0.0917
 1015MOL0     C39971   5.594  10.809   0.758  0.9683 -0.2635  0.2864
 1015MOL0     C39972   5.703  10.845   0.857  0.2571 -0.0624  0.3268
 1015MOL0     C39973   5.770  10.985   0.825  0.2907 -0.4229 -0.6945
 1015MOL0     C39974   5.886  11.015   0.917 -0.1252  0.3431  0.1228
 1015MOL0     C39975   5.963  11.139   0.869 -0.2854 -0.1759  0.5751
 1015MOL0     C39976   6.092  11.154   0.953 -0.1420  0.6573 -0.3523
 1015MOL0    Cl39977   6.071  11.251   1.103 -0.0593  0.4273  0.0195
 1015MOL0     C39978   5.170  10.739   1.022  0.0092  0.1431  0.9682
 1015MOL0     C39979   5.044  10.749   1.078  0.3027 -0.0528  0.5684
 1015MOL0     O39980   4.700  10.565   0.986  1.1550 -0.0720  0.6677
 1015MOL0     C39981   4.620  10.668   1.302 -0.7622 -0.6120  0.8149
 1015MOL0     C39982   4.516  10.692   1.389  0.2658 -0.2298  0.3787
 1015MOL0     N39983   3.768  11.061   1.174  0.4102  0.0774 -0.5779
 1015MOL0     N39984   3.638  11.067   1.179  0.3831  0.1072  0.2415
 1015MOL0     C39985   2.385  10.643   1.224  0.2165  0.1368  0.0688
 1015MOL0     C39986   2.269  10.591   1.158  0.5270  0.7972 -0.6334
 1015MOL0     C39987   1.960  10.559   0.931  0.2534  0.5419  0.4771
 1015MOL0     C39988   1.886  10.554   1.049  1.0671 -0.5424 -0.4199
 1015MOL0     C39989   1.748  10.571   1.050  0.1241  0.5218  0.1539
 1015MOL0     C39990   1.681  10.605   0.928 -0.4585  0.2534  0.1559
 1015MOL0     O39991   1.546  10.618   0.942  0.5016  0.4271  0.0889
 1015MOL0     C39992   1.487  10.739   0.881 -0.2113  0.4305 -0.0250
 1015MOL0     C39993   1.339  10.737   0.901  0.6426  0.4958  0.8455
 1015MOL0     C39994   1.273  10.607   0.855  0.0069  0.0673  0.0213
 1015MOL0     C39995   1.136  10.633   0.780 -0.3394 -0.1675 -0.1697
 1015MOL0     C39996   1.117  10.742   0.695 -0.0932  0.2031  0.0136
 1015MOL0     C39997   1.134  10.840   0.631  0.0115 -0.1247  0.4237
 1015MOL0     C39998   1.748  10.601   0.808 -0.1804 -0.0084 -0.1321
 1015MOL0     C39999   1.889  10.583   0.807  0.4097 -0.5335 -0.0436
 1015MOL0     C40000   1.955  10.592   0.677  0.3353  0.3913  0.3096
 1015MOL0     H40001   2.417  10.418   0.909 -1.8083 -1.3091  1.3717
 1015MOL0     H40002   2.626  10.494   1.035  0.2601  1.2448  0.6058
 1015MOL0     H40003   2.762  10.662   1.114 -0.9646 -1.2241  0.1734
 1015MOL0     H40004   2.773  10.521   1.223 -2.0859 -0.3493  1.2500
 1015MOL0     H40005   2.801  10.804   1.310 -1.5146 -0.3504  1.8746
 1015MOL0     H40006   2.792  10.670   1.414  0.5093 -0.9181 -1.4873
 1015MOL0     H40007   3.026  10.587   1.317  1.4751  0.5567  3.7714
 1015MOL0     H40008   3.030  10.726   1.228  0.8615 -0.5639  0.5637
 1015MOL0     H40009   3.009  10.854   1.452  0.2793 -0.6094 -2.2858
 1015MOL0     H40010   3.010  10.699   1.528  0.1205 -1.4275 -1.7417
 1015MOL0     H40011   3.236  10.654   1.442 -2.1046 -0.3111  0.8663
 1015MOL0     H40012   3.233  10.827   1.514 -0.1171  2.6482 -3.0860
 1015MOL0     H40013   3.241  10.739   1.225 -0.5411  0.0990 -1.4522
 1015MOL0     H40014   3.185  10.895   1.278 -1.6944 -2.5690  1.0075
 1015MOL0     H40015   3.458  10.771   1.355 -0.6618 -0.6506 -0.2214
 1015MOL0     H40016   3.413  10.945   1.379  3.8932 -0.8108  0.5002
 1015MOL0     H40017   3.448  10.804   1.112 -0.2995 -2.3069  1.3902
 1015MOL0     H40018   3.397  10.971   1.136 -0.8940 -1.0774  1.1268
 1015MOL0     H40019   3.723  10.749   1.246 -0.9416  0.6964  0.6670
 1015MOL0     H40020   4.010  10.911   1.117  0.3721  2.7140  0.1562
 1015MOL0     H40021   3.960  10.785   1.227  2.0740  0.3575  0.4678
 1015MOL0     H40022   4.024  11.073   1.287 -1.6882  0.3799 -0.5302
 1015MOL0     H40023   3.963  10.972   1.416  0.8935 -0.5019  0.6547
 1015MOL0     H40024   4.218  10.930   1.251 -1.6567 -2.4082 -1.2759
 1015MOL0     H40025   4.213  10.993   1.411  0.1383 -0.4871 -0.6731
 1015MOL0     H40026   4.102  10.795   1.509 -1.0045  0.5008 -0.9019
 1015MOL0     H40027   4.119  10.711   1.360  0.5519  2.7776 -3.5373
 1015MOL0     H40028   4.263  10.727   1.172  1.8752  2.3932 -1.2504
 1015MOL0     H40029   4.327  10.670   0.945 -1.0006  0.4646  0.2814
 1015MOL0     H40030   4.483  10.632   0.902  1.3687  1.7649 -2.1201
 1015MOL0     H40031   4.457  10.794   0.928  1.2229 -0.2772  0.9720
 1015MOL0     H40032   4.852  10.678   0.807  1.1908  0.2498 -2.6078
 1015MOL0     H40033   5.057  10.668   0.705 -2.8209  2.2956 -0.3900
 1015MOL0     H40034   5.447  10.780   0.939 -2.2416  2.2094 -2.1504
 1015MOL0     H40035   5.406  10.605   0.944 -0.5188  0.9759  0.6950
 1015MOL0     H40036   5.595  10.615   0.835 -3.2364 -0.8457  2.0244
 1015MOL0     H40037   5.482  10.637   0.695 -2.6086  2.5999  0.0931
 1015MOL0     H40038   5.526  10.894   0.755 -0.6633 -1.5573 -1.5869
 1015MOL0     H40039   5.637  10.805   0.658  0.1405 -3.7056 -0.0538
 1015MOL0     H40040   5.773  10.761   0.858 -0.7954 -1.0471  3.6000
 1015MOL0     H40041   5.650  10.860   0.951  0.5415  2.7731  0.1144
 1015MOL0     H40042   5.799  10.993   0.720  0.5556 -0.2728 -0.6125
 1015MOL0     H40043   5.693  11.061   0.841 -1.6618 -1.4336 -4.1441
 1015MOL0     H40044   5.944  10.923   0.922 -2.2560 -1.0182  2.8300
 1015MOL0     H40045   5.843  11.032   1.016 -0.4067  1.4308 -0.1730
 1015MOL0     H40046   5.907  11.232   0.877 -0.6759 -0.1780 -1.5206
 1015MOL0     H40047   5.985  11.122   0.763 -2.1786  0.9005 -0.0194
 1015MOL0     H40048   6.175  11.201   0.900  1.8486 -0.3472  1.6957
 1015MOL0     H40049   6.136  11.058   0.981  2.0845  1.2977 -1.3861
 1015MOL0     H40050   5.260  10.762   1.078  1.5473  2.0735 -2.0321
 1015MOL0     H40051   5.043  10.773   1.184 -0.3684  1.0879  0.3231
 1015MOL0     H40052   4.722  10.660   1.337  0.5603  2.0631 -1.8876
 1015MOL0     H40053   4.544  10.703   1.493 -1.6223 -0.1585  0.9154
 1015MOL0     H40054   2.389  10.700   1.316  1.2092  3.1707 -1.6708
 1015MOL0     H40055   2.173  10.610   1.206  0.7705 -0.2094  0.2943
 1015MOL0     H40056   1.936  10.533   1.143 -0.7743 -1.4091  0.4237
 1015MOL0     H40057   1.694  10.564   1.144  0.4237  1.7362  0.4343
 1015MOL0     H40058   1.518  10.831   0.932  1.7858  1.3691 -2.6904
 1015MOL0     H40059   1.505  10.732   0.773 -1.2558 -0.9740 -0.1445
 1015MOL0     H40060   1.299  10.829   0.859 -0.2742  0.2725  1.2108
 1015MOL0     H40061   1.323  10.738   1.010 -1.7489  0.0796  0.5331
 1015MOL0     H40062   1.345  10.551   0.794  0.5344 -0.0173  0.7079
 1015MOL0     H40063   1.266  10.548   0.947  0.8661  2.3856  1.6795
 1015MOL0     H40064   1.067  10.637   0.865 -0.1477  0.9817 -0.0587
 1015MOL0     H40065   1.111  10.543   0.723  2.8898 -1.0035 -0.4815
 1015MOL0     H40066   1.146  10.924   0.566  0.3362 -1.8570 -1.9018
 1015MOL0     H40067   1.687  10.624   0.721 -0.3263  0.3868  0.0677
 1015MOL0     H40068   1.882  10.605   0.597 -0.4527 -0.2176  0.9103
 1015MOL0     H40069   2.022  10.679   0.671  0.2750  0.5536  1.5401
 1015MOL0     H40070   2.020  10.507   0.654 -3.2454 -2.0792 -1.7069
 1016MOL0     O40071  11.313   2.059   4.445  0.2154 -0.0835  0.9748
 1016MOL0     C40072  11.410   2.005   4.393 -0.5903  0.3996 -0.0639
 1016MOL0     O40073  11.409   1.930   4.280 -0.4448 -0.7474  0.5619
 1016MOL0     C40074  11.280   1.929   4.221 -0.1781  0.0209  0.1064
 1016MOL0     C40075  11.187   1.826   4.257  0.3007 -0.1609 -0.5408
 1016MOL0     C40076  11.058   1.819   4.211 -0.0877  0.5184 -0.3123
 1016MOL0     C40077  11.014   1.914   4.128  0.2687 -0.7088  0.7444
 1016MOL0     O40078  10.881   1.907   4.088  0.3743  0.1075  0.0251
 1016MOL0     C40079  10.790   2.024   4.081 -0.2834  0.4815 -0.7119
 1016MOL0     C40080  10.704   2.012   3.958 -0.1672 -0.0764 -0.0201
 1016MOL0     C40081  10.605   2.130   3.952  0.2097 -0.0418  0.1820
 1016MOL0     C40082  10.496   2.097   4.053 -0.0071 -0.3796  0.7425
 1016MOL0     C40083  10.392   2.209   4.060 -0.2438 -0.3227 -0.0509
 1016MOL0     C40084  10.267   2.173   4.138  0.0801  0.0019  0.9694
 1016MOL0     C40085  10.192   2.047   4.095 -0.4210  0.1224 -0.5812
 1016MOL0     C40086  10.169   2.034   3.948 -0.1773  0.3563  0.9303
 1016MOL0     N40087  10.133   1.902   3.889 -1.4430  0.3691 -0.3225
 1016MOL0     C40088  10.213   1.786   3.878  0.3822 -0.1814  0.3634
 1016MOL0     C40089  10.136   1.700   3.812 -0.1130  0.2243 -0.5325
 1016MOL0     C40090  10.168   1.555   3.772  0.1298 -0.3329  0.1584
 1016MOL0     C40091  10.269   1.493   3.869  1.1265 -0.4486 -1.0697
 1016MOL0     C40092  10.280   1.343   3.829  0.5364 -0.1239  0.8949
 1016MOL0     C40093  10.408   1.283   3.882 -0.0042 -0.8735 -0.0472
 1016MOL0     O40094  10.432   1.162   3.823  0.6895 -0.3549  0.2671
 1016MOL0     C40095  10.515   1.076   3.887 -0.1115  0.0742 -0.0539
 1016MOL0     C40096  10.516   0.947   3.843 -0.3340 -0.7610 -0.7146
 1016MOL0     C40097  10.600   0.858   3.903  0.6401  0.0691 -0.0522
 1016MOL0     C40098  10.593   0.719   3.832 -0.1687  0.8311 -0.0068
 1016MOL0     C40099  10.692   0.890   4.010 -0.7004  0.4282  0.1470
 1016MOL0     C40100  10.804   0.800   4.058  0.6347  0.3325  0.1324
 1016MOL0     O40101  10.872   0.842   4.163 -0.3849  0.1768 -0.5742
 1016MOL0     C40102  10.946   0.744   4.224 -0.1429 -0.8946  0.2108
 1016MOL0     C40103  11.077   0.703   4.183 -0.7863  0.8162  0.3318
 1016MOL0     C40104  11.154   0.619   4.257  0.1090 -0.0585  0.0683
 1016MOL0     C40105  11.096   0.558   4.371 -0.0494 -0.8323  0.9555
 1016MOL0     O40106  11.162   0.472   4.452 -0.6854  0.1201 -0.6582
 1016MOL0     C40107  11.298   0.431   4.419  0.7403 -0.3716  0.2069
 1016MOL0     C40108  11.407   0.527   4.450 -0.0056  0.3529 -0.8716
 1016MOL0     C40109  11.531   0.441   4.450  0.2133 -0.0841 -0.6241
 1016MOL0     C40110  11.647   0.532   4.480  0.9593 -0.6663  0.7960
 1016MOL0     C40111  11.787   0.460   4.473  0.0221 -0.2875 -0.0599
 1016MOL0     C40112  11.890   0.546   4.551 -0.5224 -1.2756 -0.4928
 1016MOL0     C40113  12.036   0.495   4.529  0.0007  0.5359  0.2987
 1016MOL0     C40114  12.077   0.365   4.594  0.3492  0.5113 -0.4411
 1016MOL0    Cl40115  12.122   0.400   4.772 -0.5853  0.3738  0.0506
 1016MOL0     C40116  10.966   0.591   4.408  0.6010  0.2573  0.3369
 1016MOL0     C40117  10.892   0.687   4.336 -0.4901  1.0034  0.1287
 1016MOL0     O40118  10.828   0.690   3.999  0.4176 -0.1199  0.4918
 1016MOL0     C40119  10.689   1.024   4.042  0.3640  0.0998  0.0838
 1016MOL0     C40120  10.607   1.111   3.987  0.7881  0.6629 -0.6719
 1016MOL0     N40121  10.017   1.759   3.779  0.3456  0.5818  0.6140
 1016MOL0     N40122  10.026   1.880   3.819  0.6835  0.5703 -0.3824
 1016MOL0     C40123  11.098   2.023   4.087 -0.3252 -0.3882  0.8703
 1016MOL0     C40124  11.232   2.034   4.135 -0.7048  0.1938 -0.3560
 1016MOL0     C40125  11.538   2.003   4.468  0.5408  0.3676 -0.3382
 1016MOL0     C40126  11.608   1.881   4.472  0.5538 -0.0549  0.5660
 1016MOL0     C40127  11.734   1.881   4.521 -0.5826  0.1544 -0.3437
 1016MOL0     C40128  11.793   1.993   4.579  0.3159  0.7007  0.0092
 1016MOL0     O40129  11.926   1.986   4.614 -0.5707  0.7796 -0.3338
 1016MOL0     C40130  11.992   1.866   4.664 -0.7438 -0.6187  0.4457
 1016MOL0     C40131  11.952   1.805   4.793  0.2812 -0.1839 -0.6206
 1016MOL0     C40132  11.951   1.897   4.921  0.5017 -0.0066  0.3080
 1016MOL0     C40133  12.079   1.946   4.958 -0.1196  0.5348 -0.5017
 1016MOL0     C40134  12.123   2.060   4.876 -0.5738 -0.1589  0.5343
 1016MOL0     C40135  12.173   2.145   4.815 -0.5091 -0.2901 -0.4373
 1016MOL0     C40136  11.714   2.108   4.591 -1.1386 -0.2056 -0.3268
 1016MOL0     C40137  11.587   2.113   4.541 -0.5514 -0.7669  0.1920
 1016MOL0     C40138  11.501   2.242   4.552 -0.4196  0.0417 -0.8536
 1016MOL0     H40139  11.216   1.751   4.330  2.0493 -0.3031 -1.3305
 1016MOL0     H40140  10.995   1.737   4.245  0.0235  0.9188  0.8904
 1016MOL0     H40141  10.843   2.120   4.079 -0.3268  0.5201 -0.1202
 1016MOL0     H40142  10.732   2.015   4.173  1.2838  2.2701  0.5371
 1016MOL0     H40143  10.768   2.021   3.869 -0.6543  1.2787 -0.2600
 1016MOL0     H40144  10.638   1.926   3.950 -0.6441  0.0871  1.9065
 1016MOL0     H40145  10.651   2.224   3.985 -0.3424 -0.5224  2.4964
 1016MOL0     H40146  10.577   2.137   3.846 -0.2225  0.2916  0.3159
 1016MOL0     H40147  10.450   2.006   4.013  1.8494 -1.1583  0.2663
 1016MOL0     H40148  10.535   2.083   4.154  0.2478 -2.5594  0.3896
 1016MOL0     H40149  10.380   2.249   3.959  2.9220  2.0665  0.3200
 1016MOL0     H40150  10.436   2.293   4.116 -0.2021 -1.0711  1.0616
 1016MOL0     H40151  10.293   2.152   4.242 -0.5619  0.8099  1.3106
 1016MOL0     H40152  10.200   2.260   4.142  0.4229  0.3178  0.0225
 1016MOL0     H40153  10.092   2.040   4.138 -0.3576 -1.1944 -0.5921
 1016MOL0     H40154  10.247   1.957   4.125 -0.7956 -0.4087 -1.4313
 1016MOL0     H40155  10.084   2.093   3.911  0.4790 -0.1757 -1.6684
 1016MOL0     H40156  10.260   2.062   3.893  1.5776 -2.4014  2.2204
 1016MOL0     H40157  10.316   1.778   3.912  0.9519  0.8391 -1.0187
 1016MOL0     H40158  10.204   1.543   3.670  2.7240 -2.0706  1.1639
 1016MOL0     H40159  10.069   1.508   3.773 -0.4165  0.7869  0.1780
 1016MOL0     H40160  10.370   1.532   3.856  1.9328 -1.5430  1.3406
 1016MOL0     H40161  10.223   1.508   3.967 -0.5775 -2.9170 -1.3755
 1016MOL0     H40162  10.202   1.287   3.883  1.6410  0.0740  2.7841
 1016MOL0     H40163  10.260   1.321   3.723 -1.3807  0.1837  1.1424
 1016MOL0     H40164  10.491   1.347   3.850  0.0317 -1.2197 -0.6559
 1016MOL0     H40165  10.396   1.285   3.991  0.2289 -1.3751 -0.0096
 1016MOL0     H40166  10.457   0.930   3.754  1.4911  1.9781 -2.5999
 1016MOL0     H40167  10.682   0.714   3.768  0.0383  0.6779  0.2904
 1016MOL0     H40168  10.499   0.722   3.775  0.1658  0.6933 -0.5781
 1016MOL0     H40169  10.595   0.636   3.902  1.6689 -0.2862 -1.2903
 1016MOL0     H40170  11.118   0.742   4.090 -1.4876  1.4491  0.2780
 1016MOL0     H40171  11.253   0.598   4.217  0.3611  0.6711  0.2994
 1016MOL0     H40172  11.320   0.352   4.492  0.6528 -0.8114 -0.2451
 1016MOL0     H40173  11.309   0.396   4.316  0.2318  2.0081 -0.7067
 1016MOL0     H40174  11.415   0.605   4.374 -2.1398  1.5630  0.0402
 1016MOL0     H40175  11.385   0.573   4.547 -0.8475 -2.9678  0.6699
 1016MOL0     H40176  11.558   0.395   4.355 -3.0319 -0.4654 -1.4881
 1016MOL0     H40177  11.527   0.369   4.532  1.2814  0.4317 -0.1087
 1016MOL0     H40178  11.634   0.581   4.577 -1.6057 -1.5892  0.9899
 1016MOL0     H40179  11.656   0.610   4.403 -0.3724  1.5949  2.7835
 1016MOL0     H40180  11.781   0.363   4.522 -1.2998  1.0387  2.6609
 1016MOL0     H40181  11.817   0.443   4.369 -0.5367 -1.3657 -0.0585
 1016MOL0     H40182  11.871   0.564   4.657  0.7542 -0.2063 -0.4169
 1016MOL0     H40183  11.890   0.643   4.499 -0.9166 -0.6917  0.5556
 1016MOL0     H40184  12.105   0.573   4.561  0.7356 -0.4586  1.1857
 1016MOL0     H40185  12.040   0.478   4.421 -0.3003  0.1725  0.3442
 1016MOL0     H40186  12.165   0.314   4.553 -0.2338 -0.6623 -0.2936
 1016MOL0     H40187  11.993   0.295   4.601  0.1781  0.8763  2.1474
 1016MOL0     H40188  10.922   0.554   4.500  1.4613 -0.5045  0.4626
 1016MOL0     H40189  10.803   0.725   4.385  0.4940  2.2841  1.0077
 1016MOL0     H40190  10.754   1.064   4.120 -0.2622 -0.5703  0.9735
 1016MOL0     H40191  10.604   1.212   4.028 -3.3290  1.4173 -2.2936
 1016MOL0     H40192  11.055   2.092   4.015 -2.5913 -2.9626 -0.4288
 1016MOL0     H40193  11.304   2.115   4.121  0.6957 -0.4455  2.2869
 1016MOL0     H40194  11.587   1.781   4.434 -1.2001  0.3982  0.2675
 1016MOL0     H40195  11.788   1.787   4.521 -1.9453 -0.6871  1.2585
 1016MOL0     H40196  11.990   1.785   4.590 -0.0310 -2.1066  1.9767
 1016MOL0     H40197  12.099   1.888   4.665 -0.4739 -1.3976 -2.5853
 1016MOL0     H40198  12.019   1.722   4.813 -0.1050 -0.1843  0.8361
 1016MOL0     H40199  11.853   1.758   4.791  0.1869 -0.0249 -0.0424
 1016MOL0     H40200  11.875   1.975   4.912 -0.0681 -0.0291  3.6547
 1016MOL0     H40201  11.909   1.841   5.005 -0.3232  1.9243  1.2394
 1016MOL0     H40202  12.149   1.863   4.968  2.9596  2.4791 -3.6025
 1016MOL0     H40203  12.069   1.995   5.055 -1.9295 -2.6248  1.0578
 1016MOL0     H40204  12.217   2.215   4.747  1.7865 -1.3285 -0.1332
 1016MOL0     H40205  11.766   2.190   4.639  0.1848 -1.7246  0.9360
 1016MOL0     H40206  11.568   2.329   4.558 -0.5152  0.0676 -0.0487
 1016MOL0     H40207  11.449   2.261   4.457 -0.0185 -0.4911 -1.1833
 1016MOL0     H40208  11.428   2.241   4.633 -1.1767 -0.7216 -1.5363
 1017MOL0     O40209   6.305   7.061   6.365  0.9351 -0.1491 -0.2960
 1017MOL0     C40210   6.408   7.125   6.348 -0.3750 -0.6660  0.2911
 1017MOL0     O40211   6.432   7.209   6.243 -0.4489  0.0799 -0.6000
 1017MOL0     C40212   6.324   7.219   6.155 -0.0630  0.0812 -0.3362
 1017MOL0     C40213   6.249   7.333   6.153 -0.6556  0.0181  0.8562
 1017MOL0     C40214   6.134   7.345   6.076  0.1768 -0.0299 -0.8351
 1017MOL0     C40215   6.096   7.242   5.993 -0.3184  0.4936 -1.1610
 1017MOL0     O40216   5.980   7.246   5.916 -0.5045  0.1335 -0.1679
 1017MOL0     C40217   5.876   7.349   5.931 -0.3981  0.7381 -0.0467
 1017MOL0     C40218   5.790   7.332   5.808 -0.1694  0.1631 -1.2338
 1017MOL0     C40219   5.745   7.188   5.782  0.4603 -0.4614  0.5275
 1017MOL0     C40220   5.666   7.177   5.646 -0.3780  0.0209  0.3898
 1017MOL0     C40221   5.646   7.028   5.592 -0.4576  0.1551  0.5164
 1017MOL0     C40222   5.588   7.019   5.457 -0.1516  0.2025 -0.0847
 1017MOL0     C40223   5.664   7.082   5.337  0.8689 -0.0601  0.3262
 1017MOL0     C40224   5.594   7.040   5.213 -0.1179 -0.0218  0.8156
 1017MOL0     N40225   5.641   6.913   5.155  1.0686  0.0793  0.2549
 1017MOL0     C40226   5.765   6.878   5.117  0.2278 -0.6225  0.4959
 1017MOL0     C40227   5.760   6.763   5.049  0.0653 -0.0289 -0.2296
 1017MOL0     C40228   5.878   6.686   4.991 -0.7020 -1.2791  0.8613
 1017MOL0     C40229   5.969   6.639   5.102  0.2683 -0.1763  0.3473
 1017MOL0     C40230   6.087   6.555   5.046  0.8522  0.4223  0.2960
 1017MOL0     C40231   6.178   6.482   5.154  0.6179 -0.2270  0.3341
 1017MOL0     O40232   6.196   6.341   5.118 -0.0469  0.1278  0.2557
 1017MOL0     C40233   6.301   6.257   5.148  0.2717  0.0383  0.9278
 1017MOL0     C40234   6.307   6.127   5.101 -0.5699 -0.0856 -0.1223
 1017MOL0     C40235   6.410   6.038   5.122  0.8768  0.6046  0.5650
 1017MOL0     C40236   6.398   5.900   5.051  0.9784 -0.9093  0.1937
 1017MOL0     C40237   6.521   6.084   5.197  0.1308 -0.2748  0.6173
 1017MOL0     C40238   6.630   5.991   5.224  0.1534  0.7143  0.1017
 1017MOL0     O40239   6.745   6.068   5.260  0.8974 -0.0123  0.6148
 1017MOL0     C40240   6.875   6.025   5.263  0.3205  0.8450 -0.5000
 1017MOL0     C40241   6.923   5.903   5.209  0.9646  0.8047 -0.8913
 1017MOL0     C40242   7.055   5.859   5.211  0.0391 -0.5554  0.1409
 1017MOL0     C40243   7.152   5.956   5.258 -0.2157 -0.9655  0.4106
 1017MOL0     O40244   7.287   5.929   5.247  0.3338  0.4826  0.4545
 1017MOL0     C40245   7.344   5.794   5.215  0.6143  0.2529  0.1485
 1017MOL0     C40246   7.495   5.817   5.198  0.2159 -0.0234 -0.5542
 1017MOL0     C40247   7.586   5.865   5.315 -0.8726  0.7758  0.3586
 1017MOL0     C40248   7.733   5.816   5.290  0.0296  0.0502  0.0958
 1017MOL0     C40249   7.817   5.840   5.415 -0.4677 -0.0640 -0.7921
 1017MOL0     C40250   7.960   5.805   5.376  0.2082 -0.5422  0.4952
 1017MOL0     C40251   8.064   5.795   5.479 -0.2367 -0.7047  0.5053
 1017MOL0     C40252   8.182   5.718   5.429  0.1813  0.6176  0.1234
 1017MOL0    Cl40253   8.323   5.766   5.531 -0.2135  0.0176 -0.4254
 1017MOL0     C40254   7.106   6.085   5.297  0.6055 -1.0047  0.8836
 1017MOL0     C40255   6.972   6.110   5.305 -0.5370  0.1060 -0.4227
 1017MOL0     O40256   6.633   5.866   5.212  0.4933 -0.0755 -0.0539
 1017MOL0     C40257   6.518   6.211   5.246 -0.5284 -0.6211 -0.3598
 1017MOL0     C40258   6.410   6.298   5.224  0.3869  0.7473 -0.3963
 1017MOL0     N40259   5.624   6.729   5.035 -0.0083 -0.2687  0.3528
 1017MOL0     N40260   5.554   6.823   5.101  0.7457  0.3353  0.0704
 1017MOL0     C40261   6.179   7.131   5.985  0.3588 -0.4689 -0.5306
 1017MOL0     C40262   6.289   7.114   6.073 -0.1969 -0.0335 -0.9970
 1017MOL0     C40263   6.527   7.115   6.442 -0.6149 -0.4307 -0.5644
 1017MOL0     C40264   6.649   7.177   6.397  0.2792  0.7279 -0.3457
 1017MOL0     C40265   6.775   7.149   6.462  0.2549 -0.8772  0.3110
 1017MOL0     C40266   6.773   7.072   6.580  0.0275 -0.2276  0.3825
 1017MOL0     O40267   6.883   7.034   6.652 -0.1827 -0.5264 -0.0945
 1017MOL0     C40268   7.022   7.077   6.618 -0.2442  0.2039  0.0123
 1017MOL0     C40269   7.092   7.134   6.743 -0.6707  0.8130  0.6958
 1017MOL0     C40270   7.209   7.228   6.703  0.2523  0.5433 -0.6323
 1017MOL0     C40271   7.316   7.134   6.645 -0.6685 -0.5471  0.2254
 1017MOL0     C40272   7.440   7.207   6.626 -0.2730 -0.6099 -0.4356
 1017MOL0     C40273   7.541   7.269   6.604 -0.1033  0.4189 -1.3334
 1017MOL0     C40274   6.649   7.028   6.628  0.2431  0.3691 -0.0291
 1017MOL0     C40275   6.533   7.040   6.562 -0.1495  0.5789  0.4181
 1017MOL0     C40276   6.410   6.973   6.627 -1.0729  0.1766 -0.9139
 1017MOL0     H40277   6.283   7.415   6.214 -0.5706  1.7125 -1.3292
 1017MOL0     H40278   6.072   7.430   6.104  1.6293 -0.2813  3.9574
 1017MOL0     H40279   5.920   7.447   5.907  4.2344 -1.5086 -2.0194
 1017MOL0     H40280   5.817   7.343   6.023  0.0511 -1.3128  0.1581
 1017MOL0     H40281   5.698   7.392   5.813 -1.9952 -2.4573 -1.5302
 1017MOL0     H40282   5.845   7.364   5.719 -0.9516 -3.0638 -3.0249
 1017MOL0     H40283   5.837   7.130   5.771  0.7740  0.1115  0.1030
 1017MOL0     H40284   5.684   7.136   5.857  0.6983 -0.9927  0.3549
 1017MOL0     H40285   5.572   7.231   5.647 -0.8492 -0.7497 -0.3576
 1017MOL0     H40286   5.729   7.227   5.571 -1.1459 -1.5839 -1.4011
 1017MOL0     H40287   5.603   6.965   5.670 -0.9925  1.0759  0.9769
 1017MOL0     H40288   5.741   6.977   5.573  1.4309  3.0501  1.5422
 1017MOL0     H40289   5.573   6.912   5.438 -1.8472  0.4020 -0.0226
 1017MOL0     H40290   5.482   7.048   5.460 -0.5640 -1.2829  1.2061
 1017MOL0     H40291   5.767   7.046   5.334  0.5808 -0.8484 -1.5406
 1017MOL0     H40292   5.680   7.190   5.340  1.7402 -0.2027  2.3670
 1017MOL0     H40293   5.485   7.040   5.219 -0.2701 -1.7530 -0.8875
 1017MOL0     H40294   5.622   7.118   5.141  0.5084 -0.1710  0.8896
 1017MOL0     H40295   5.860   6.926   5.136  0.3130 -0.5956 -0.0026
 1017MOL0     H40296   5.934   6.750   4.923 -3.7942 -0.6042 -1.2586
 1017MOL0     H40297   5.838   6.604   4.930 -0.8598 -0.9163  0.4806
 1017MOL0     H40298   6.002   6.721   5.168  0.3634  0.2413 -0.2094
 1017MOL0     H40299   5.916   6.559   5.154  1.2318 -1.5742 -0.7310
 1017MOL0     H40300   6.040   6.488   4.973  1.5002  1.9711 -1.6470
 1017MOL0     H40301   6.145   6.618   4.977  1.1168 -1.0049 -0.8560
 1017MOL0     H40302   6.278   6.525   5.162  1.0225 -1.4485  2.7679
 1017MOL0     H40303   6.143   6.490   5.258  4.0285 -2.8560  1.8617
 1017MOL0     H40304   6.225   6.094   5.039 -0.0092 -0.3554 -0.7386
 1017MOL0     H40305   6.484   5.873   4.989  0.2972 -1.2844 -0.6055
 1017MOL0     H40306   6.312   5.909   4.984  1.3941  0.7843 -0.1436
 1017MOL0     H40307   6.371   5.824   5.126 -1.5979 -0.1337  0.1484
 1017MOL0     H40308   6.847   5.837   5.170  0.1913  1.2269 -0.1383
 1017MOL0     H40309   7.092   5.761   5.182  3.2893  0.0530  1.7980
 1017MOL0     H40310   7.326   5.727   5.299  1.0934  1.0581  0.9159
 1017MOL0     H40311   7.306   5.751   5.122  1.1721  1.4065 -0.6433
 1017MOL0     H40312   7.524   5.713   5.182 -1.8820 -1.1937  2.4337
 1017MOL0     H40313   7.523   5.880   5.113 -0.6975 -0.9268 -1.5572
 1017MOL0     H40314   7.551   5.820   5.408 -1.4845 -0.3859 -0.3992
 1017MOL0     H40315   7.576   5.970   5.343  2.8292  0.8755  1.8692
 1017MOL0     H40316   7.766   5.871   5.201 -0.4848  0.8876  0.4177
 1017MOL0     H40317   7.740   5.710   5.260  2.1572  0.5391 -1.4008
 1017MOL0     H40318   7.815   5.947   5.438  3.3438  0.1824 -0.9206
 1017MOL0     H40319   7.785   5.790   5.507 -1.3986  3.2403  0.8545
 1017MOL0     H40320   7.984   5.878   5.298 -2.9864 -0.4424 -0.5652
 1017MOL0     H40321   7.939   5.706   5.334 -0.5841 -0.8462  1.5519
 1017MOL0     H40322   8.033   5.756   5.577  0.5261 -0.1502  0.9833
 1017MOL0     H40323   8.094   5.897   5.505  0.7543 -0.4175 -1.5509
 1017MOL0     H40324   8.206   5.733   5.324 -2.3029  2.1209 -0.3219
 1017MOL0     H40325   8.155   5.614   5.450 -0.2650  0.5093 -0.9181
 1017MOL0     H40326   7.178   6.162   5.321  2.2356 -0.1626 -5.0710
 1017MOL0     H40327   6.938   6.201   5.355 -0.0943  0.3953 -0.6402
 1017MOL0     H40328   6.602   6.253   5.302 -0.3067  2.8756 -2.9862
 1017MOL0     H40329   6.406   6.398   5.267 -0.0361  0.4147  0.3622
 1017MOL0     H40330   6.171   7.052   5.911  1.3701 -0.2179 -0.9319
 1017MOL0     H40331   6.346   7.021   6.074 -1.5929 -0.9309  0.4689
 1017MOL0     H40332   6.664   7.233   6.305  2.9757 -1.3885 -1.3491
 1017MOL0     H40333   6.861   7.199   6.420 -0.1935  0.9796  1.5069
 1017MOL0     H40334   7.073   6.998   6.562  2.0834  1.4781  0.2548
 1017MOL0     H40335   7.024   7.160   6.547  1.3576 -2.4222 -3.2643
 1017MOL0     H40336   7.119   7.049   6.806 -0.1859  1.8358  1.9168
 1017MOL0     H40337   7.019   7.182   6.808 -1.8706 -1.7193  1.3123
 1017MOL0     H40338   7.173   7.298   6.627  2.0064  0.2999 -1.7263
 1017MOL0     H40339   7.250   7.278   6.791 -1.0517 -4.1113  3.0856
 1017MOL0     H40340   7.279   7.090   6.552 -1.1489 -0.9003  0.5745
 1017MOL0     H40341   7.333   7.051   6.715 -2.0126  0.4798  1.8624
 1017MOL0     H40342   7.636   7.313   6.582 -0.2302  1.5971  0.2867
 1017MOL0     H40343   6.664   6.965   6.715  1.9752  1.0279  0.1913
 1017MOL0     H40344   6.399   6.881   6.570  1.8540 -1.4721  0.9282
 1017MOL0     H40345   6.425   6.946   6.732 -1.0255  2.5291 -0.2475
 1017MOL0     H40346   6.314   7.025   6.638 -1.0316  0.2826 -1.0475
 1018MOL0     O40347   2.493   3.586   7.619 -0.8273  0.2834 -0.2216
 1018MOL0     C40348   2.499   3.468   7.602 -0.1923 -0.1286  0.1604
 1018MOL0     O40349   2.614   3.396   7.570  0.2527 -0.1921 -0.3464
 1018MOL0     C40350   2.728   3.463   7.520  0.7454  0.7586  0.1923
 1018MOL0     C40351   2.731   3.574   7.441 -0.0947 -0.3257 -0.7557
 1018MOL0     C40352   2.856   3.626   7.405  0.0163 -0.5876  0.3602
 1018MOL0     C40353   2.977   3.565   7.435 -0.4957  0.2352  0.5393
 1018MOL0     O40354   3.098   3.614   7.373  0.4386 -0.1679  0.9075
 1018MOL0     C40355   3.218   3.595   7.447 -0.4109  0.4496  0.4953
 1018MOL0     C40356   3.355   3.653   7.396 -1.2560  0.1146  0.9044
 1018MOL0     C40357   3.467   3.663   7.504 -0.2214  0.0737  0.9603
 1018MOL0     C40358   3.577   3.765   7.468 -0.9740  0.1589  0.5551
 1018MOL0     C40359   3.685   3.707   7.367  0.4232  0.1138 -0.2383
 1018MOL0     C40360   3.781   3.818   7.324  0.8681 -0.3574 -0.3295
 1018MOL0     C40361   3.867   3.769   7.213  0.3708  0.0260  0.2368
 1018MOL0     C40362   3.923   3.883   7.136 -0.3717 -0.3696 -0.8186
 1018MOL0     N40363   3.968   3.998   7.216 -0.4015  0.1877  0.1233
 1018MOL0     C40364   3.937   4.128   7.186 -0.6332  0.2662  0.3834
 1018MOL0     C40365   4.002   4.198   7.286  0.8310  0.3746  0.6231
 1018MOL0     C40366   3.998   4.343   7.305  0.3235 -0.2847  0.6247
 1018MOL0     C40367   4.120   4.404   7.386 -0.7099  0.0739  1.2027
 1018MOL0     C40368   4.247   4.379   7.312  0.2042  0.6799 -0.4752
 1018MOL0     C40369   4.367   4.437   7.386 -0.1534  0.1621 -0.3733
 1018MOL0     O40370   4.487   4.426   7.311 -0.4666 -0.4019 -0.1349
 1018MOL0     C40371   4.609   4.469   7.371 -0.7206  0.6897  0.0560
 1018MOL0     C40372   4.635   4.477   7.511  0.8642 -0.9116  0.1748
 1018MOL0     C40373   4.756   4.533   7.564 -0.2746  1.0306  0.5388
 1018MOL0     C40374   4.760   4.542   7.712 -0.8451 -0.0459  1.3000
 1018MOL0     C40375   4.864   4.561   7.471  0.4642 -0.1210  0.7951
 1018MOL0     C40376   4.992   4.614   7.510 -0.3908 -0.0674  0.2772
 1018MOL0     O40377   5.098   4.565   7.450 -0.5970 -0.2303  0.0146
 1018MOL0     C40378   5.219   4.623   7.479 -0.6587  0.0563 -0.0642
 1018MOL0     C40379   5.284   4.708   7.378 -0.8152  0.2536 -0.3981
 1018MOL0     C40380   5.418   4.747   7.395  0.0772 -0.0175 -0.3594
 1018MOL0     C40381   5.484   4.726   7.518  0.0157  0.5647  0.1111
 1018MOL0     O40382   5.599   4.787   7.569  0.8105  0.1895  0.1180
 1018MOL0     C40383   5.685   4.875   7.489  0.0145 -0.2486  0.0673
 1018MOL0     C40384   5.823   4.857   7.531 -0.5098 -0.0083  0.3295
 1018MOL0     C40385   5.883   4.730   7.480  0.4432  0.3980  0.5673
 1018MOL0     C40386   6.020   4.719   7.537 -0.4329 -0.9595  0.2913
 1018MOL0     C40387   6.102   4.603   7.476  0.2334 -1.0769 -0.4894
 1018MOL0     C40388   6.252   4.623   7.479 -0.0243  0.2924 -0.2222
 1018MOL0     C40389   6.310   4.638   7.619  0.3137 -0.9705 -0.2533
 1018MOL0     C40390   6.317   4.510   7.695 -0.1362  0.0699 -0.8417
 1018MOL0    Cl40391   6.397   4.557   7.841 -0.3207  0.2098 -0.2441
 1018MOL0     C40392   5.411   4.646   7.620  0.1445 -1.3508  0.2124
 1018MOL0     C40393   5.282   4.596   7.592 -0.3286 -0.1867 -0.0948
 1018MOL0     O40394   4.993   4.709   7.586  0.9027 -0.2126 -0.5563
 1018MOL0     C40395   4.841   4.541   7.333  0.3488  0.3282 -0.4767
 1018MOL0     C40396   4.718   4.500   7.282 -0.0192 -0.2925 -0.5643
 1018MOL0     N40397   4.078   4.106   7.362 -0.6369 -0.2677  0.5717
 1018MOL0     N40398   4.061   3.989   7.313 -0.1858 -0.4994  0.5708
 1018MOL0     C40399   2.973   3.451   7.514 -0.0863  1.1229 -0.2002
 1018MOL0     C40400   2.847   3.401   7.561  0.0245  0.6396  0.5492
 1018MOL0     C40401   2.379   3.389   7.607 -0.2372  0.5029 -0.8399
 1018MOL0     C40402   2.384   3.250   7.618  0.0967  0.3277  0.0058
 1018MOL0     C40403   2.268   3.178   7.660 -0.6260 -0.3580 -0.1038
 1018MOL0     C40404   2.147   3.240   7.691  0.3753 -0.6080 -0.3521
 1018MOL0     O40405   2.046   3.164   7.746  0.5042 -0.0045  0.4964
 1018MOL0     C40406   1.907   3.205   7.738 -1.2429 -0.0227 -0.4574
 1018MOL0     C40407   1.824   3.095   7.666 -0.1412  1.3315 -0.0485
 1018MOL0     C40408   1.676   3.126   7.658 -0.0981 -0.3772 -0.4083
 1018MOL0     C40409   1.641   3.241   7.558  0.2378 -0.1661  0.0689
 1018MOL0     C40410   1.505   3.230   7.505 -0.0574 -0.4556 -0.0810
 1018MOL0     C40411   1.392   3.226   7.465 -0.1317 -0.0646  0.4411
 1018MOL0     C40412   2.138   3.377   7.672  0.1675 -0.0432 -0.2468
 1018MOL0     C40413   2.247   3.450   7.629 -0.3195 -0.3591  0.0238
 1018MOL0     C40414   2.216   3.596   7.599 -0.6458 -0.4767  0.2049
 1018MOL0     H40415   2.642   3.626   7.408 -0.5668  0.0495  1.0255
 1018MOL0     H40416   2.859   3.709   7.335  2.8994 -0.2722  0.7711
 1018MOL0     H40417   3.235   3.487   7.450  1.9732  0.7895  1.3279
 1018MOL0     H40418   3.202   3.627   7.551  1.6315 -1.4228  1.4477
 1018MOL0     H40419   3.388   3.590   7.313 -1.2922  0.2692  0.7732
 1018MOL0     H40420   3.340   3.747   7.343  4.4272  0.4853 -0.6069
 1018MOL0     H40421   3.405   3.691   7.589 -1.9570  1.3298 -0.6345
 1018MOL0     H40422   3.514   3.566   7.521 -0.0940 -0.5409 -2.2642
 1018MOL0     H40423   3.533   3.854   7.423  0.9792  0.1875 -1.5101
 1018MOL0     H40424   3.624   3.798   7.561  0.5639  0.6142 -0.3412
 1018MOL0     H40425   3.634   3.659   7.282  0.2758  0.0222 -0.0993
 1018MOL0     H40426   3.732   3.630   7.429 -2.7675 -0.0237  2.2751
 1018MOL0     H40427   3.711   3.893   7.287  1.1527  0.3152  0.4855
 1018MOL0     H40428   3.832   3.860   7.411 -2.8860  2.9099  0.5557
 1018MOL0     H40429   3.812   3.708   7.142 -0.1419  1.0913 -0.3029
 1018MOL0     H40430   3.937   3.697   7.256  0.0818 -0.9654 -0.9195
 1018MOL0     H40431   4.009   3.838   7.085  0.0329 -0.6483  0.0710
 1018MOL0     H40432   3.849   3.929   7.072 -1.3720  2.1114  1.8990
 1018MOL0     H40433   3.872   4.170   7.110  0.3137  1.2463  0.0875
 1018MOL0     H40434   3.902   4.356   7.355 -1.1247 -0.2201 -2.0283
 1018MOL0     H40435   3.984   4.402   7.215  2.2573  1.2139  1.2216
 1018MOL0     H40436   4.109   4.512   7.383  0.7035  0.3927  3.9408
 1018MOL0     H40437   4.110   4.364   7.488  0.6801 -1.3670  0.8169
 1018MOL0     H40438   4.265   4.272   7.298 -2.0236  0.4187 -1.9714
 1018MOL0     H40439   4.244   4.420   7.210  5.0836  1.3153 -0.5960
 1018MOL0     H40440   4.349   4.544   7.397  1.2813  0.6718 -2.4147
 1018MOL0     H40441   4.374   4.388   7.484 -1.2180  1.8425  0.6058
 1018MOL0     H40442   4.555   4.443   7.577 -1.8859  0.8221 -2.0137
 1018MOL0     H40443   4.707   4.634   7.741 -2.8085 -0.0186 -1.9408
 1018MOL0     H40444   4.861   4.538   7.754  0.2646  0.1039 -1.1828
 1018MOL0     H40445   4.711   4.457   7.760 -0.1908 -0.5072  1.1571
 1018MOL0     H40446   5.231   4.727   7.285  2.7941  3.2991 -2.1399
 1018MOL0     H40447   5.453   4.816   7.319  0.3752  0.8591  0.5578
 1018MOL0     H40448   5.671   4.857   7.382  0.2466  1.1084 -0.2014
 1018MOL0     H40449   5.659   4.980   7.505  0.4244 -0.0624 -0.4538
 1018MOL0     H40450   5.885   4.942   7.500 -2.5350  3.1081  3.9402
 1018MOL0     H40451   5.841   4.854   7.639 -0.6986  2.0512  0.4516
 1018MOL0     H40452   5.880   4.721   7.371  1.4470  1.5043  0.4222
 1018MOL0     H40453   5.827   4.646   7.521  0.2243  0.9809  1.5031
 1018MOL0     H40454   6.023   4.725   7.646  0.8746 -1.8105  0.3216
 1018MOL0     H40455   6.066   4.813   7.508 -1.9313  0.4042  2.0872
 1018MOL0     H40456   6.081   4.511   7.530  0.6304 -0.6536  0.3933
 1018MOL0     H40457   6.068   4.593   7.372  0.5592 -1.2030 -0.5858
 1018MOL0     H40458   6.290   4.707   7.421 -1.6519  1.0686 -0.2281
 1018MOL0     H40459   6.303   4.535   7.439 -0.1490 -0.4473  1.1659
 1018MOL0     H40460   6.244   4.701   7.678 -1.7361 -0.9399 -2.4525
 1018MOL0     H40461   6.405   4.680   7.587  1.0935 -1.6551  1.0447
 1018MOL0     H40462   6.383   4.440   7.642 -1.3905 -1.2345 -0.7401
 1018MOL0     H40463   6.216   4.478   7.723 -0.9602  3.8526  1.2283
 1018MOL0     H40464   5.455   4.625   7.717  0.2665 -1.8631  0.0501
 1018MOL0     H40465   5.230   4.533   7.664 -0.5219 -2.0865 -1.8104
 1018MOL0     H40466   4.915   4.571   7.260 -0.1486 -1.4573 -1.7683
 1018MOL0     H40467   4.692   4.498   7.177 -1.4511 -1.0627 -0.2229
 1018MOL0     H40468   3.055   3.383   7.535 -1.0657 -0.3621 -1.0126
 1018MOL0     H40469   2.834   3.311   7.619 -4.1843  0.0436 -0.9583
 1018MOL0     H40470   2.479   3.200   7.599  0.5953  0.5427  1.7948
 1018MOL0     H40471   2.277   3.073   7.681  2.1597  0.3412  2.9595
 1018MOL0     H40472   1.858   3.229   7.832 -3.3659 -1.5034 -1.1035
 1018MOL0     H40473   1.900   3.295   7.676  1.7768  0.8037  0.2622
 1018MOL0     H40474   1.830   3.000   7.722 -1.1010  1.9656  1.1836
 1018MOL0     H40475   1.864   3.083   7.565  1.0644  0.1486  0.5298
 1018MOL0     H40476   1.620   3.037   7.631  0.1729 -0.9212  0.7635
 1018MOL0     H40477   1.650   3.160   7.759  0.5909 -1.9233  0.3223
 1018MOL0     H40478   1.711   3.229   7.475 -2.0182 -1.9016 -1.7308
 1018MOL0     H40479   1.666   3.340   7.598  0.5371 -0.2146  0.0028
 1018MOL0     H40480   1.294   3.209   7.424  0.8343  0.9735 -2.5503
 1018MOL0     H40481   2.045   3.425   7.699 -0.6547 -1.8348  0.2945
 1018MOL0     H40482   2.109   3.615   7.608 -0.4173  0.0313  2.0703
 1018MOL0     H40483   2.263   3.665   7.669 -4.2033  1.0472  1.3226
 1018MOL0     H40484   2.245   3.628   7.498 -2.0599 -2.5397 -0.9237
 1019MOL0     O40485   4.342  10.811   4.586  0.0531 -0.1672  0.7357
 1019MOL0     C40486   4.259  10.794   4.502  0.2214  0.8162  0.4913
 1019MOL0     O40487   4.274  10.721   4.386  0.4925  0.1353 -0.1488
 1019MOL0     C40488   4.387  10.653   4.383 -0.0923  0.4328 -0.2220
 1019MOL0     C40489   4.402  10.529   4.445  0.5508  0.3779  0.7432
 1019MOL0     C40490   4.513  10.451   4.413  0.1074  0.3521  0.2964
 1019MOL0     C40491   4.617  10.485   4.323  0.6541 -0.0683 -0.7346
 1019MOL0     O40492   4.722  10.401   4.310 -0.7356 -0.0786  0.3617
 1019MOL0     C40493   4.830  10.445   4.219 -0.0705  0.2025 -0.0533
 1019MOL0     C40494   4.932  10.328   4.213  0.2656 -0.5765 -1.0379
 1019MOL0     C40495   5.083  10.350   4.166 -0.9090  0.1323  0.4443
 1019MOL0     C40496   5.168  10.423   4.275  0.6562  0.7927 -0.4211
 1019MOL0     C40497   5.322  10.409   4.268  0.1550 -0.1270 -0.4124
 1019MOL0     C40498   5.376  10.476   4.140 -0.5147  0.1212  0.5351
 1019MOL0     C40499   5.527  10.434   4.126  0.7555 -0.6864 -0.2834
 1019MOL0     C40500   5.589  10.524   4.017  0.7941  0.1816  1.1025
 1019MOL0     N40501   5.733  10.510   3.986  0.5506 -0.3570 -0.2368
 1019MOL0     C40502   5.825  10.613   3.989  0.6094 -0.1042  0.2954
 1019MOL0     C40503   5.945  10.560   3.948 -0.0566 -0.7348 -0.2832
 1019MOL0     C40504   6.082  10.633   3.935  0.4389 -0.1223  0.6593
 1019MOL0     C40505   6.126  10.602   3.788  0.0508  0.2928  0.1677
 1019MOL0     C40506   6.059  10.704   3.688  0.2018  0.6502  0.1404
 1019MOL0     C40507   6.093  10.667   3.542  0.1494 -0.6801  1.2267
 1019MOL0     O40508   6.087  10.787   3.450 -0.2893  0.6511  0.3400
 1019MOL0     C40509   6.104  10.781   3.320  0.0273  0.0242  0.0133
 1019MOL0     C40510   6.125  10.662   3.250 -0.0256 -0.8123 -0.4569
 1019MOL0     C40511   6.167  10.669   3.114 -0.1168 -0.0807  0.1473
 1019MOL0     C40512   6.180  10.536   3.051  0.2288  1.0000  0.4164
 1019MOL0     C40513   6.183  10.793   3.045 -0.0407 -0.4387 -0.3464
 1019MOL0     C40514   6.257  10.811   2.923 -0.5834  0.4698 -0.2837
 1019MOL0     O40515   6.244  10.931   2.860  0.4837 -0.5410 -0.6384
 1019MOL0     C40516   6.337  10.966   2.763  0.1354  0.8027  0.2417
 1019MOL0     C40517   6.440  11.051   2.806 -0.4378 -0.5513  0.4521
 1019MOL0     C40518   6.539  11.090   2.709 -0.1572 -0.0544 -0.1844
 1019MOL0     C40519   6.539  11.042   2.585 -0.2823  0.6616  0.9323
 1019MOL0     O40520   6.630  11.064   2.483  0.6193  0.1177 -0.8469
 1019MOL0     C40521   6.699  11.187   2.489 -0.0562  0.1900  0.0888
 1019MOL0     C40522   6.808  11.194   2.384  0.4889 -0.0501 -0.6546
 1019MOL0     C40523   6.903  11.075   2.403 -0.5629 -0.5981  0.0500
 1019MOL0     C40524   7.018  11.096   2.296 -0.0571  0.4832 -0.3741
 1019MOL0     C40525   7.106  10.960   2.311  0.7217 -0.7330  0.8580
 1019MOL0     C40526   7.217  10.964   2.206 -1.0000  0.2374  0.1229
 1019MOL0     C40527   7.207  10.853   2.109  0.8673  0.6193  0.0237
 1019MOL0     C40528   7.313  10.859   2.001  0.6467  0.1199 -0.3044
 1019MOL0    Cl40529   7.303  10.711   1.905 -0.3494  0.0356 -0.0336
 1019MOL0     C40530   6.434  10.958   2.547 -0.4790 -0.1012 -0.4956
 1019MOL0     C40531   6.329  10.927   2.631  0.8671 -0.4486 -0.4463
 1019MOL0     O40532   6.330  10.727   2.875 -0.6236 -0.1744  0.5877
 1019MOL0     C40533   6.147  10.914   3.118 -0.1300  0.1365  0.6058
 1019MOL0     C40534   6.106  10.903   3.247  0.1073  0.2500 -1.0191
 1019MOL0     N40535   5.927  10.430   3.934 -0.2166 -0.6623 -0.0644
 1019MOL0     N40536   5.799  10.395   3.946 -0.4351 -0.6503  0.0626
 1019MOL0     C40537   4.594  10.606   4.255  0.2277  0.0751 -0.9375
 1019MOL0     C40538   4.486  10.691   4.287 -1.7820  0.5255 -0.4856
 1019MOL0     C40539   4.120  10.841   4.520  0.2953  0.1070  0.7298
 1019MOL0     C40540   4.006  10.761   4.487 -1.1790  0.5740 -0.0715
 1019MOL0     C40541   3.874  10.805   4.511 -0.3113  1.2592 -0.1461
 1019MOL0     C40542   3.850  10.936   4.561 -0.5895 -0.3946  0.1605
 1019MOL0     O40543   3.730  10.986   4.603  0.1197 -0.6710  0.1119
 1019MOL0     C40544   3.621  10.965   4.511  0.0076 -0.1198  0.5262
 1019MOL0     C40545   3.519  11.081   4.533 -0.2102 -0.3557  0.1746
 1019MOL0     C40546   3.593  11.214   4.496  0.7063  0.3135 -0.1024
 1019MOL0     C40547   3.498  11.332   4.505 -0.4499  0.7870 -0.1018
 1019MOL0     C40548   3.563  11.453   4.461 -0.1046 -0.3016 -0.7533
 1019MOL0     C40549   3.641  11.536   4.421  0.3177  0.4299 -0.1110
 1019MOL0     C40550   3.957  11.024   4.571  0.6035  0.1786  0.1535
 1019MOL0     C40551   4.091  10.981   4.552 -0.5337  0.6290  0.4448
 1019MOL0     C40552   4.204  11.074   4.581  0.5150 -0.7242 -0.3686
 1019MOL0     H40553   4.326  10.493   4.514  0.7080  1.2622  1.4029
 1019MOL0     H40554   4.520  10.357   4.467  2.2463  0.0705 -0.3918
 1019MOL0     H40555   4.877  10.536   4.258 -0.3537  0.5763 -0.5637
 1019MOL0     H40556   4.794  10.464   4.118 -2.6586 -1.6024  0.4150
 1019MOL0     H40557   4.926  10.279   4.311  3.5893 -1.6437 -1.2337
 1019MOL0     H40558   4.890  10.260   4.138 -0.9104 -0.6636 -0.3345
 1019MOL0     H40559   5.134  10.253   4.168  2.2710  1.6793  0.8042
 1019MOL0     H40560   5.087  10.387   4.063  1.8367 -2.1802 -0.4109
 1019MOL0     H40561   5.141  10.529   4.280  0.2159  0.7238 -1.2352
 1019MOL0     H40562   5.134  10.375   4.367 -1.0931 -0.7955 -1.8168
 1019MOL0     H40563   5.346  10.303   4.272 -1.8409 -0.7727 -3.0794
 1019MOL0     H40564   5.360  10.443   4.365 -1.1854 -1.5053  0.6480
 1019MOL0     H40565   5.323  10.448   4.049  2.7049  0.1562 -1.5287
 1019MOL0     H40566   5.374  10.585   4.151 -0.6275 -0.0367  2.6771
 1019MOL0     H40567   5.551  10.330   4.103  1.1470 -0.2853 -1.7880
 1019MOL0     H40568   5.580  10.456   4.220 -0.1177 -1.1472  0.3337
 1019MOL0     H40569   5.536  10.495   3.926  1.6442 -3.7978  1.6886
 1019MOL0     H40570   5.566  10.630   4.034 -0.7155 -0.1350  1.1086
 1019MOL0     H40571   5.800  10.717   4.007 -2.7907 -0.9027  0.8104
 1019MOL0     H40572   6.153  10.598   4.010  0.7928  1.2633  0.9861
 1019MOL0     H40573   6.080  10.741   3.951 -0.0860 -0.1183  0.5983
 1019MOL0     H40574   6.234  10.590   3.771 -0.2233 -1.6156 -0.3868
 1019MOL0     H40575   6.100  10.503   3.750 -0.6722 -0.2495  1.9638
 1019MOL0     H40576   5.951  10.701   3.703  0.1926 -0.8675 -0.0485
 1019MOL0     H40577   6.093  10.807   3.704  0.9125  0.3314  0.7617
 1019MOL0     H40578   6.196  10.633   3.536 -0.1587 -1.4804 -0.2968
 1019MOL0     H40579   6.028  10.582   3.516  2.6399 -1.9821 -1.3705
 1019MOL0     H40580   6.138  10.565   3.296 -1.6983 -0.7033  0.3291
 1019MOL0     H40581   6.277  10.491   3.075  0.0251 -0.1018 -0.6862
 1019MOL0     H40582   6.174  10.550   2.942 -1.9318 -2.1900 -0.0370
 1019MOL0     H40583   6.100  10.471   3.087 -0.0602  0.8920 -0.3996
 1019MOL0     H40584   6.460  11.076   2.910  3.4245  1.1836 -0.5311
 1019MOL0     H40585   6.611  11.157   2.753 -0.0100 -1.1801  1.3864
 1019MOL0     H40586   6.624  11.266   2.478  0.5305  1.1739  2.4195
 1019MOL0     H40587   6.755  11.204   2.582  0.2381  0.1879 -0.0897
 1019MOL0     H40588   6.771  11.187   2.281  0.4760  2.5848 -0.8912
 1019MOL0     H40589   6.865  11.287   2.390  2.8101 -1.4487  4.8123
 1019MOL0     H40590   6.863  10.975   2.382  0.5362 -0.4874 -3.1699
 1019MOL0     H40591   6.945  11.085   2.504 -0.4247 -0.9052  0.0250
 1019MOL0     H40592   7.085  11.180   2.315  0.3774 -0.1076  0.7525
 1019MOL0     H40593   6.974  11.090   2.196  1.7607 -1.8980 -1.1279
 1019MOL0     H40594   7.143  10.946   2.413  1.2813 -3.8599  0.3326
 1019MOL0     H40595   7.038  10.877   2.292 -0.5384  0.1408  1.4444
 1019MOL0     H40596   7.312  10.954   2.258 -0.8931 -1.4376 -0.3341
 1019MOL0     H40597   7.217  11.059   2.152  0.0731  0.7652  1.0142
 1019MOL0     H40598   7.107  10.863   2.065 -1.1330  0.7212  4.1530
 1019MOL0     H40599   7.215  10.752   2.149 -2.3297  0.6354  1.0118
 1019MOL0     H40600   7.415  10.865   2.041  0.9115 -0.0871 -0.9449
 1019MOL0     H40601   7.309  10.947   1.937 -2.3115  0.9616  0.8753
 1019MOL0     H40602   6.431  10.925   2.444  1.4816 -0.7730 -0.3742
 1019MOL0     H40603   6.247  10.861   2.602  0.0433 -0.7422  2.1984
 1019MOL0     H40604   6.166  11.007   3.066  0.5854 -1.5247 -2.3342
 1019MOL0     H40605   6.077  10.987   3.310  0.1950 -1.3490  1.2588
 1019MOL0     H40606   4.666  10.652   4.188 -0.4916 -0.0009 -1.7847
 1019MOL0     H40607   4.480  10.787   4.237 -0.4236  1.9761  1.9243
 1019MOL0     H40608   4.020  10.662   4.446  1.0497  0.4575  0.8470
 1019MOL0     H40609   3.788  10.741   4.500  0.3826 -0.0620  1.6672
 1019MOL0     H40610   3.652  10.959   4.406  1.8749 -0.7390  1.0876
 1019MOL0     H40611   3.570  10.869   4.523 -0.6385  0.2451  0.7969
 1019MOL0     H40612   3.490  11.084   4.639 -3.2854 -2.7003 -0.4364
 1019MOL0     H40613   3.436  11.058   4.465  0.9344 -3.9174 -0.2314
 1019MOL0     H40614   3.677  11.230   4.565 -0.3389  1.4533  0.9466
 1019MOL0     H40615   3.633  11.199   4.395  0.3491 -1.0798 -0.0597
 1019MOL0     H40616   3.472  11.345   4.610  1.8551 -1.8604  0.9407
 1019MOL0     H40617   3.407  11.315   4.447 -1.5050  0.7253  1.5225
 1019MOL0     H40618   3.722  11.600   4.394  3.4342 -2.6307  1.2995
 1019MOL0     H40619   3.914  11.122   4.592 -2.3149 -1.2268  1.3575
 1019MOL0     H40620   4.173  11.177   4.559  1.0017  0.0814  2.2811
 1019MOL0     H40621   4.233  11.056   4.685 -0.3707  1.6341  0.3608
 1019MOL0     H40622   4.296  11.072   4.523  2.3490 -1.6517  2.3514
 1020MOL0     O40623   3.436   9.128   8.374  0.7476 -0.2897  0.2838
 1020MOL0     C40624   3.365   9.162   8.279  0.3597  0.3360 -0.9105
 1020MOL0     O40625   3.261   9.083   8.222 -0.5951  0.1246  0.8152
 1020MOL0     C40626   3.222   8.961   8.281 -0.8826 -0.0077 -0.1926
 1020MOL0     C40627   3.236   8.846   8.204 -0.4569 -0.9263  0.8498
 1020MOL0     C40628   3.206   8.726   8.269 -0.3799 -0.5500  0.3612
 1020MOL0     C40629   3.143   8.724   8.393 -0.3937  0.0507  1.0726
 1020MOL0     O40630   3.100   8.608   8.446  0.3341 -0.3766 -0.7938
 1020MOL0     C40631   3.168   8.571   8.569  0.0239  0.9353 -0.5719
 1020MOL0     C40632   3.266   8.461   8.530 -0.2472 -0.4910 -0.1306
 1020MOL0     C40633   3.366   8.440   8.655 -0.1209 -0.2081 -0.2287
 1020MOL0     C40634   3.476   8.339   8.630 -0.3384 -0.0428 -0.0016
 1020MOL0     C40635   3.556   8.311   8.754  0.0799  0.2319 -0.0059
 1020MOL0     C40636   3.677   8.407   8.747 -1.1566 -0.1662  0.0651
 1020MOL0     C40637   3.777   8.356   8.857  1.3444 -0.1766  0.0634
 1020MOL0     C40638   3.863   8.225   8.835  0.1826  0.1858  0.2552
 1020MOL0     N40639   3.959   8.216   8.948 -0.2872 -0.1315  0.3060
 1020MOL0     C40640   4.070   8.298   8.941 -0.0834  0.6501  0.1037
 1020MOL0     C40641   4.121   8.296   9.063 -0.8850 -0.1810 -1.3121
 1020MOL0     C40642   4.252   8.347   9.119  0.4253  0.0169 -0.4346
 1020MOL0     C40643   4.363   8.248   9.093  0.5249 -0.4747 -0.2140
 1020MOL0     C40644   4.505   8.304   9.151  0.1169 -0.2131  0.1551
 1020MOL0     C40645   4.605   8.200   9.113 -0.4005 -0.2052  0.3375
 1020MOL0     O40646   4.724   8.266   9.081  0.6063 -0.6307 -1.2009
 1020MOL0     C40647   4.842   8.198   9.080  0.7060  0.3246  0.6439
 1020MOL0     C40648   4.863   8.059   9.118 -0.2439 -0.2252  0.4733
 1020MOL0     C40649   4.990   7.998   9.102 -0.4958  0.4754 -0.3431
 1020MOL0     C40650   5.000   7.858   9.163 -0.0564  0.2829 -0.5733
 1020MOL0     C40651   5.092   8.074   9.033  0.4732  0.3179  0.6167
 1020MOL0     C40652   5.227   8.016   9.005 -0.2791 -0.7572  0.7428
 1020MOL0     O40653   5.292   8.060   8.891  0.6424  0.3532  0.4787
 1020MOL0     C40654   5.433   8.048   8.892 -0.1193 -0.3235 -0.4428
 1020MOL0     C40655   5.497   7.958   8.803 -0.1825  0.5079 -0.1241
 1020MOL0     C40656   5.633   7.957   8.794 -0.3105  0.7737 -0.8206
 1020MOL0     C40657   5.717   8.050   8.862  0.6103  0.5742  0.4197
 1020MOL0     O40658   5.846   8.068   8.829  0.3219  0.2454 -0.2884
 1020MOL0     C40659   5.931   8.103   8.939  0.7446 -0.8604  0.7182
 1020MOL0     C40660   6.073   8.059   8.912  0.9993  0.2366 -0.0721
 1020MOL0     C40661   6.103   7.915   8.953 -0.4509  0.8354  1.1202
 1020MOL0     C40662   6.029   7.807   8.869 -0.2715 -0.0801 -0.2917
 1020MOL0     C40663   6.059   7.669   8.914 -0.0111  1.2532  0.2293
 1020MOL0     C40664   6.206   7.643   8.905  0.4553  0.5953 -0.4497
 1020MOL0     C40665   6.231   7.492   8.903  0.2443 -0.1393 -0.1883
 1020MOL0     C40666   6.380   7.470   8.895  0.5697  1.1370 -0.1508
 1020MOL0    Cl40667   6.410   7.282   8.912 -0.2605 -0.4070 -0.2297
 1020MOL0     C40668   5.648   8.149   8.947  0.3239  0.7491  0.2918
 1020MOL0     C40669   5.511   8.140   8.962  0.2862 -0.3631 -0.3783
 1020MOL0     O40670   5.276   7.937   9.087  0.1881 -0.0655 -0.6566
 1020MOL0     C40671   5.068   8.208   8.999  0.0467 -0.2130  0.0601
 1020MOL0     C40672   4.941   8.269   9.017 -0.2552 -0.9345  0.7726
 1020MOL0     N40673   4.039   8.233   9.146 -0.0093 -0.9293 -0.1228
 1020MOL0     N40674   3.947   8.174   9.073 -0.0836  0.2903 -0.2299
 1020MOL0     C40675   3.121   8.840   8.463  0.1737 -0.0366  0.2050
 1020MOL0     C40676   3.164   8.962   8.402  0.6061 -0.5561 -0.3693
 1020MOL0     C40677   3.382   9.298   8.226 -0.4657 -0.0962 -0.9039
 1020MOL0     C40678   3.279   9.349   8.139 -0.0948 -0.0689 -0.4525
 1020MOL0     C40679   3.286   9.480   8.096 -0.7990  0.4783  0.0581
 1020MOL0     C40680   3.373   9.578   8.145  0.1760  0.1475 -0.3362
 1020MOL0     O40681   3.370   9.703   8.088  0.4170  0.3169 -0.3903
 1020MOL0     C40682   3.429   9.815   8.161 -0.2997 -0.0822  0.5455
 1020MOL0     C40683   3.412   9.939   8.069 -0.1388  0.2844 -0.8540
 1020MOL0     C40684   3.527   9.960   7.969 -0.4210  0.3346 -0.0146
 1020MOL0     C40685   3.633  10.062   8.002 -0.6788 -0.7016  0.4817
 1020MOL0     C40686   3.576  10.199   8.021  0.1978  0.6451 -0.4813
 1020MOL0     C40687   3.524  10.305   8.031  0.0592  0.7652 -0.0740
 1020MOL0     C40688   3.461   9.532   8.237  0.6524  0.2574 -0.4084
 1020MOL0     C40689   3.477   9.396   8.270 -0.5206 -0.2954 -0.6299
 1020MOL0     C40690   3.601   9.368   8.354 -0.1031  0.0682 -0.5099
 1020MOL0     H40691   3.287   8.846   8.108 -0.5847 -2.9887  0.7415
 1020MOL0     H40692   3.217   8.631   8.220  2.6268 -0.9783  1.6464
 1020MOL0     H40693   3.099   8.525   8.641  2.4418 -2.4312 -0.1916
 1020MOL0     H40694   3.233   8.647   8.614  1.2896 -0.0215 -0.7636
 1020MOL0     H40695   3.218   8.363   8.517  1.9225 -1.7124  0.6068
 1020MOL0     H40696   3.317   8.495   8.440  1.8425 -3.2532 -0.1139
 1020MOL0     H40697   3.411   8.539   8.673 -2.6999  1.0766 -0.3722
 1020MOL0     H40698   3.307   8.422   8.745 -0.4974  0.4363 -0.3337
 1020MOL0     H40699   3.432   8.246   8.591 -0.5374  0.3842 -0.8088
 1020MOL0     H40700   3.542   8.365   8.547  0.8178  0.6261  1.0993
 1020MOL0     H40701   3.583   8.206   8.739  0.4200  0.4077 -0.6760
 1020MOL0     H40702   3.511   8.312   8.853  0.2615 -3.0127  0.2354
 1020MOL0     H40703   3.725   8.405   8.649 -0.3165 -0.9766  0.4775
 1020MOL0     H40704   3.645   8.508   8.773 -1.4777 -0.6892  1.8329
 1020MOL0     H40705   3.719   8.344   8.949  1.0082 -4.2409 -0.4726
 1020MOL0     H40706   3.848   8.436   8.882 -1.8859  2.4979  1.3981
 1020MOL0     H40707   3.796   8.139   8.825 -2.9781  2.6223 -1.7098
 1020MOL0     H40708   3.923   8.243   8.746  2.0118  1.9664  1.7678
 1020MOL0     H40709   4.115   8.343   8.853  1.1133  0.5984  0.6671
 1020MOL0     H40710   4.243   8.363   9.227 -3.3148  0.4522 -0.6891
 1020MOL0     H40711   4.260   8.443   9.068 -0.2031  0.6114  0.5574
 1020MOL0     H40712   4.338   8.150   9.135 -0.6849 -0.4308 -0.8001
 1020MOL0     H40713   4.377   8.246   8.984 -1.3760 -2.6557 -0.4893
 1020MOL0     H40714   4.516   8.400   9.101 -0.7065 -0.5281 -0.6740
 1020MOL0     H40715   4.506   8.325   9.258 -2.9188 -1.8212  0.6421
 1020MOL0     H40716   4.613   8.138   9.202 -1.8618  0.2027  0.7804
 1020MOL0     H40717   4.587   8.143   9.021  0.7991  0.2301 -0.1941
 1020MOL0     H40718   4.783   7.998   9.161  0.5145  0.4208  2.9867
 1020MOL0     H40719   5.066   7.801   9.098  1.5591  0.7587  0.5815
 1020MOL0     H40720   4.902   7.810   9.163  0.7882 -1.5285 -0.5217
 1020MOL0     H40721   5.040   7.863   9.265 -0.5671  0.6681 -0.3895
 1020MOL0     H40722   5.441   7.875   8.764 -1.2113  0.5567  1.1659
 1020MOL0     H40723   5.668   7.885   8.721  1.1642 -2.2481  2.5420
 1020MOL0     H40724   5.928   8.212   8.946 -0.2289 -0.9615  2.8088
 1020MOL0     H40725   5.905   8.069   9.040  2.1663 -1.4460  0.9035
 1020MOL0     H40726   6.097   8.067   8.805 -3.0965 -0.1278 -1.2168
 1020MOL0     H40727   6.138   8.124   8.971 -0.1210  1.5643 -0.2560
 1020MOL0     H40728   6.091   7.904   9.061  1.1082  0.4386  1.2746
 1020MOL0     H40729   6.211   7.900   8.941 -0.8739 -1.1713 -0.7159
 1020MOL0     H40730   6.043   7.815   8.761 -1.0319 -1.0627 -0.4798
 1020MOL0     H40731   5.921   7.823   8.881 -1.3015 -5.8627  0.9992
 1020MOL0     H40732   6.019   7.645   9.013  0.3738  0.5350  0.2173
 1020MOL0     H40733   6.006   7.602   8.845  1.7497 -0.4800  0.4833
 1020MOL0     H40734   6.269   7.685   8.984 -0.3920  1.7057 -0.3332
 1020MOL0     H40735   6.239   7.683   8.808 -0.5546 -0.4361 -1.2357
 1020MOL0     H40736   6.182   7.441   8.819 -3.2181  1.8927  0.3993
 1020MOL0     H40737   6.200   7.445   8.996  1.7875  0.8037  0.8362
 1020MOL0     H40738   6.432   7.517   8.979  1.3891  0.6481 -0.3817
 1020MOL0     H40739   6.403   7.511   8.796 -0.2499  0.9684 -0.4199
 1020MOL0     H40740   5.705   8.231   8.991 -0.1912  0.6550  1.1507
 1020MOL0     H40741   5.465   8.218   9.021 -2.2844 -1.4405 -0.8303
 1020MOL0     H40742   5.151   8.267   8.960  0.5750  0.3362  1.9017
 1020MOL0     H40743   4.933   8.374   8.989  1.6035 -0.3674  2.2111
 1020MOL0     H40744   3.077   8.832   8.561  0.6557  2.1972  0.6407
 1020MOL0     H40745   3.157   9.047   8.469 -0.1356  1.1428 -2.4767
 1020MOL0     H40746   3.210   9.284   8.086  1.6740 -0.5916 -2.2569
 1020MOL0     H40747   3.225   9.513   8.013 -1.1628  1.1260  0.5688
 1020MOL0     H40748   3.365   9.834   8.247 -1.6537  2.9003 -0.9944
 1020MOL0     H40749   3.531   9.793   8.194 -0.2275  0.3896  0.6459
 1020MOL0     H40750   3.392  10.028   8.130 -1.6464 -0.4322 -0.2413
 1020MOL0     H40751   3.323   9.914   8.010  0.4734 -0.7598 -1.3530
 1020MOL0     H40752   3.583   9.870   7.943  0.3985  1.4203 -2.3205
 1020MOL0     H40753   3.478   9.994   7.877  0.0377  3.1411  0.6824
 1020MOL0     H40754   3.694  10.077   7.913 -0.6176  2.7920  0.9566
 1020MOL0     H40755   3.702  10.030   8.081  2.3209  1.5452 -1.0148
 1020MOL0     H40756   3.481  10.402   8.036 -0.0920  0.6632  0.7173
 1020MOL0     H40757   3.533   9.603   8.277 -0.9146  1.6314  0.1045
 1020MOL0     H40758   3.688   9.414   8.306  0.0726 -0.3058 -0.5522
 1020MOL0     H40759   3.591   9.385   8.461  0.6242  0.4357 -0.4973
 1020MOL0     H40760   3.621   9.261   8.344 -0.2079  0.1031 -1.1513
 1021MOL0     O40761   9.537   2.805   1.426  0.0977  0.4246  0.0648
 1021MOL0     C40762   9.436   2.838   1.485 -0.4890 -1.0716  0.2108
 1021MOL0     O40763   9.430   2.844   1.627 -0.0911 -0.3142  0.2442
 1021MOL0     C40764   9.550   2.817   1.696 -0.3954  0.0629  0.2900
 1021MOL0     C40765   9.560   2.708   1.778  0.2867  0.2274  0.4649
 1021MOL0     C40766   9.675   2.692   1.852  0.3594  0.3368  0.1083
 1021MOL0     C40767   9.766   2.796   1.866 -0.5865  0.3712  0.0741
 1021MOL0     O40768   9.868   2.790   1.953  0.4737 -0.2399  0.4712
 1021MOL0     C40769   9.968   2.698   1.923 -0.2109 -0.1740 -0.0995
 1021MOL0     C40770  10.080   2.757   1.843 -0.6071  0.2159  1.1718
 1021MOL0     C40771  10.158   2.865   1.916 -1.1032 -0.0052  0.8623
 1021MOL0     C40772  10.208   2.825   2.061 -0.1806 -0.0764  0.1658
 1021MOL0     C40773  10.326   2.900   2.104  0.2277  0.4088 -0.2381
 1021MOL0     C40774  10.352   2.888   2.248 -0.2344  0.5717  0.6417
 1021MOL0     C40775  10.401   2.748   2.276  0.4461  0.0749  0.0559
 1021MOL0     C40776  10.477   2.749   2.409  0.2808 -0.0434  0.7604
 1021MOL0     N40777  10.619   2.792   2.402  0.8907 -1.1092  1.2450
 1021MOL0     C40778  10.725   2.721   2.342  0.9637  0.1554  0.6853
 1021MOL0     C40779  10.834   2.801   2.360  0.7165 -0.6839 -0.3563
 1021MOL0     C40780  10.983   2.780   2.323 -0.5885 -0.2219  0.4802
 1021MOL0     C40781  11.024   2.829   2.179  1.1956  0.9219 -1.6371
 1021MOL0     C40782  11.147   2.746   2.125 -0.5703  0.0665 -0.8761
 1021MOL0     C40783  11.179   2.785   1.984 -0.2310 -0.5204 -0.4731
 1021MOL0     O40784  11.232   2.669   1.902  0.5955  0.1023  0.2259
 1021MOL0     C40785  11.345   2.613   1.948 -0.6853 -0.7186  0.2122
 1021MOL0     C40786  11.436   2.669   2.050  0.5376  0.1718 -0.8026
 1021MOL0     C40787  11.542   2.599   2.105 -0.2112  0.7344  0.8860
 1021MOL0     C40788  11.622   2.664   2.208 -0.4316 -0.5519 -0.2495
 1021MOL0     C40789  11.560   2.468   2.048  0.4043  0.1883  0.0802
 1021MOL0     C40790  11.679   2.380   2.088  0.4192  0.2342 -0.7223
 1021MOL0     O40791  11.681   2.266   2.021 -0.0475  0.1866  0.8385
 1021MOL0     C40792  11.793   2.190   2.025  1.4008 -0.0022 -0.4641
 1021MOL0     C40793  11.878   2.179   1.917  0.2695  0.8729 -0.2305
 1021MOL0     C40794  11.981   2.085   1.933  0.3641  0.5368 -0.0366
 1021MOL0     C40795  12.011   2.013   2.051  0.2969 -0.0587  0.3251
 1021MOL0     O40796  12.108   1.921   2.054 -0.0884 -0.2582  0.3811
 1021MOL0     C40797  12.174   1.907   2.190 -0.4943  0.3612 -0.2026
 1021MOL0     C40798  12.313   1.844   2.162 -0.2291  1.1162 -0.4968
 1021MOL0     C40799  12.376   1.807   2.294 -0.7601  0.0568  0.1296
 1021MOL0     C40800  12.516   1.749   2.281  0.4589  0.2813  0.2515
 1021MOL0     C40801  12.574   1.725   2.424  0.2763 -0.7505  0.0997
 1021MOL0     C40802  12.706   1.646   2.420 -0.2995 -0.3875  0.3894
 1021MOL0     C40803  12.765   1.598   2.548  0.1032 -0.1596 -0.3012
 1021MOL0     C40804  12.914   1.561   2.548  0.7502  0.4023 -1.0880
 1021MOL0    Cl40805  12.970   1.547   2.707  0.0799  0.2240 -0.4901
 1021MOL0     C40806  11.916   2.029   2.155 -0.5087 -0.9033  0.5673
 1021MOL0     C40807  11.804   2.112   2.144  0.0110  0.7093  0.0069
 1021MOL0     O40808  11.766   2.411   2.169  0.1998 -0.3825 -0.0731
 1021MOL0     C40809  11.474   2.417   1.947 -0.0826  0.0798  0.0171
 1021MOL0     C40810  11.366   2.491   1.897 -1.0827 -1.3462 -0.8155
 1021MOL0     N40811  10.796   2.918   2.423  0.3324  0.1794 -0.6412
 1021MOL0     N40812  10.666   2.915   2.442 -0.8641  0.4997 -0.1752
 1021MOL0     C40813   9.749   2.911   1.789 -1.6287  0.9659 -1.0362
 1021MOL0     C40814   9.639   2.921   1.710  0.3574  1.2668  0.3840
 1021MOL0     C40815   9.310   2.874   1.415 -0.4700  0.4671  0.0693
 1021MOL0     C40816   9.190   2.858   1.481 -0.1185 -0.2486 -0.7651
 1021MOL0     C40817   9.076   2.908   1.427  0.3547 -0.2978 -0.1167
 1021MOL0     C40818   9.067   2.955   1.301 -0.3867  0.2722 -0.4654
 1021MOL0     O40819   8.944   2.963   1.245  0.2173  0.2128  0.0159
 1021MOL0     C40820   8.910   3.035   1.127 -0.1146 -0.3092 -0.0558
 1021MOL0     C40821   8.758   3.049   1.126 -0.6808  0.9574  0.4763
 1021MOL0     C40822   8.695   3.077   0.995  0.9941  0.0471  1.3160
 1021MOL0     C40823   8.544   3.068   1.000 -0.4221  0.5921  0.0077
 1021MOL0     C40824   8.474   3.120   0.875  0.1436 -0.3396  0.3052
 1021MOL0     C40825   8.413   3.171   0.783 -0.2698 -0.3814  0.2830
 1021MOL0     C40826   9.189   2.960   1.224  0.1629  0.7161  0.8150
 1021MOL0     C40827   9.318   2.919   1.276  0.3981  0.3556  0.0065
 1021MOL0     C40828   9.442   2.935   1.195 -0.9689  0.2213 -0.2585
 1021MOL0     H40829   9.484   2.632   1.767  0.4385  0.2294 -0.7243
 1021MOL0     H40830   9.699   2.601   1.906  0.0444  0.7366  0.9448
 1021MOL0     H40831   9.925   2.611   1.872  0.9541  0.4711 -2.3226
 1021MOL0     H40832  10.003   2.657   2.018 -0.1635  1.1224  0.4511
 1021MOL0     H40833  10.150   2.682   1.805 -0.9487 -0.4304  1.7721
 1021MOL0     H40834  10.033   2.801   1.755 -0.1975 -0.4215  0.6245
 1021MOL0     H40835  10.243   2.893   1.852  0.5929 -0.5363  2.7684
 1021MOL0     H40836  10.088   2.948   1.920 -0.9944  0.0614  1.4654
 1021MOL0     H40837  10.124   2.838   2.130  2.3120  0.0795  3.3672
 1021MOL0     H40838  10.235   2.719   2.067  0.7969  0.2567  2.4454
 1021MOL0     H40839  10.304   3.006   2.088 -2.9389 -0.1934 -0.4715
 1021MOL0     H40840  10.416   2.876   2.046 -0.1964  0.2225 -0.8302
 1021MOL0     H40841  10.431   2.961   2.270 -2.2400  2.2353  2.8798
 1021MOL0     H40842  10.271   2.922   2.312  0.6098  1.1184  1.4516
 1021MOL0     H40843  10.471   2.718   2.197 -0.2647  0.0950 -0.5919
 1021MOL0     H40844  10.315   2.680   2.280 -0.6768  1.5211  1.3554
 1021MOL0     H40845  10.425   2.812   2.483 -1.2033 -1.4169  0.9438
 1021MOL0     H40846  10.476   2.651   2.458 -0.9829 -1.0155 -1.0965
 1021MOL0     H40847  10.722   2.629   2.284  2.2362  0.5126  0.0031
 1021MOL0     H40848  10.995   2.672   2.328  2.3687  0.0130 -0.1500
 1021MOL0     H40849  11.048   2.826   2.398  0.7348 -1.1732 -0.0562
 1021MOL0     H40850  10.939   2.823   2.110  0.7348 -1.6502 -0.9528
 1021MOL0     H40851  11.053   2.933   2.195  1.3235  0.5472  0.9153
 1021MOL0     H40852  11.225   2.767   2.198  0.5159 -2.7451 -1.0922
 1021MOL0     H40853  11.131   2.637   2.126  1.8467 -0.3448 -0.0897
 1021MOL0     H40854  11.096   2.832   1.930  0.5994  0.1608 -1.1793
 1021MOL0     H40855  11.253   2.864   1.997  0.0155 -0.7034 -0.7477
 1021MOL0     H40856  11.416   2.765   2.097 -2.2226 -0.5269 -0.3769
 1021MOL0     H40857  11.725   2.685   2.179 -0.7073  0.9507 -0.1958
 1021MOL0     H40858  11.625   2.600   2.298 -1.9671 -0.5699 -0.1926
 1021MOL0     H40859  11.583   2.757   2.249  0.4854 -0.1417 -0.2942
 1021MOL0     H40860  11.869   2.227   1.821  1.6429  1.1732 -0.2419
 1021MOL0     H40861  12.048   2.067   1.849 -0.3023 -0.6621 -0.3298
 1021MOL0     H40862  12.195   2.008   2.227  4.9995 -0.9478  1.2634
 1021MOL0     H40863  12.116   1.851   2.263 -1.4916  0.0700 -1.2036
 1021MOL0     H40864  12.307   1.758   2.095  0.4218 -1.3977  2.4634
 1021MOL0     H40865  12.378   1.914   2.107  2.3759 -2.5688 -2.5781
 1021MOL0     H40866  12.310   1.744   2.356  0.5069  1.0559  2.6322
 1021MOL0     H40867  12.386   1.904   2.343 -0.3233  1.6265 -2.8527
 1021MOL0     H40868  12.587   1.809   2.223 -0.1956  0.7765 -0.0412
 1021MOL0     H40869  12.498   1.656   2.225  3.1160 -1.4773  2.0733
 1021MOL0     H40870  12.593   1.823   2.469  1.9479  0.4586 -2.9657
 1021MOL0     H40871  12.504   1.673   2.490  0.0723  1.3538  1.6648
 1021MOL0     H40872  12.785   1.702   2.370  0.6210 -4.1946 -2.8901
 1021MOL0     H40873  12.688   1.561   2.355 -0.4873  0.5095 -0.7666
 1021MOL0     H40874  12.699   1.516   2.578 -0.1387 -0.3414 -1.2937
 1021MOL0     H40875  12.754   1.679   2.620 -1.1379 -0.2215 -0.4128
 1021MOL0     H40876  12.961   1.655   2.517 -2.5054  2.4504 -0.3590
 1021MOL0     H40877  12.931   1.466   2.496 -2.8075 -0.5825 -0.7115
 1021MOL0     H40878  11.914   1.958   2.237 -2.8622 -0.3804  1.0255
 1021MOL0     H40879  11.713   2.123   2.203 -0.8868  1.3262 -1.4338
 1021MOL0     H40880  11.481   2.321   1.898  1.5553 -0.1276  0.5890
 1021MOL0     H40881  11.300   2.461   1.817  0.0761  0.6943 -2.6354
 1021MOL0     H40882   9.816   2.997   1.796 -2.0188  1.4666 -2.9822
 1021MOL0     H40883   9.628   3.015   1.656 -2.8883  1.6985  1.5778
 1021MOL0     H40884   9.189   2.824   1.584  3.2832 -3.4610 -1.6205
 1021MOL0     H40885   8.977   2.897   1.470 -0.4395 -2.0570 -2.2133
 1021MOL0     H40886   8.954   3.135   1.134 -2.1526  1.0589 -3.9524
 1021MOL0     H40887   8.959   2.978   1.048  3.0042  1.1597  0.6299
 1021MOL0     H40888   8.731   3.118   1.206  2.7852  0.6364  2.1033
 1021MOL0     H40889   8.727   2.947   1.152  0.7365  0.1523 -0.7983
 1021MOL0     H40890   8.726   3.180   0.976  2.5457 -0.4453  1.0486
 1021MOL0     H40891   8.739   3.014   0.916 -0.9409  0.5531 -0.2519
 1021MOL0     H40892   8.512   3.112   1.094  1.4784 -2.1423  2.0893
 1021MOL0     H40893   8.519   2.962   1.013 -1.9889  1.3174  4.7987
 1021MOL0     H40894   8.361   3.215   0.700 -0.9350  2.4616  2.0539
 1021MOL0     H40895   9.185   2.994   1.121  0.0208 -2.8218 -0.4924
 1021MOL0     H40896   9.502   3.003   1.255 -2.5522  1.7272 -0.3089
 1021MOL0     H40897   9.498   2.841   1.192 -0.8090  0.3407 -1.5984
 1021MOL0     H40898   9.424   2.981   1.097  1.5608  1.6146 -0.1361
 1022MOL0     O40899   1.198   4.908   6.380 -0.6001 -0.0860  0.1603
 1022MOL0     C40900   1.088   4.957   6.406  0.1220  0.2022  0.1305
 1022MOL0     O40901   1.062   5.099   6.415 -0.0715  1.1050 -0.5369
 1022MOL0     C40902   1.174   5.190   6.404 -1.1994  0.4026  0.2762
 1022MOL0     C40903   1.156   5.291   6.313 -0.9115 -0.2685 -0.7228
 1022MOL0     C40904   1.258   5.391   6.292  0.7017 -0.3869  0.5486
 1022MOL0     C40905   1.377   5.392   6.368 -0.1236  0.2491 -0.1430
 1022MOL0     O40906   1.475   5.485   6.336  0.7037 -0.0956  0.3382
 1022MOL0     C40907   1.590   5.482   6.412 -0.2910  0.8866  0.3336
 1022MOL0     C40908   1.673   5.608   6.381 -0.1217  0.4526 -0.1490
 1022MOL0     C40909   1.792   5.609   6.476  0.0524 -0.1348 -0.7159
 1022MOL0     C40910   1.902   5.716   6.453  0.2878  0.7421  0.1610
 1022MOL0     C40911   1.997   5.709   6.573  0.7755 -0.1540  0.4378
 1022MOL0     C40912   2.129   5.780   6.550  0.7028 -0.1920 -1.1825
 1022MOL0     C40913   2.214   5.767   6.675  0.4659  0.3696 -0.3064
 1022MOL0     C40914   2.358   5.816   6.641  0.4736  0.4372  0.3242
 1022MOL0     N40915   2.449   5.807   6.760  0.4039 -0.7014 -1.1530
 1022MOL0     C40916   2.520   5.703   6.803 -0.4649  0.0929  0.1192
 1022MOL0     C40917   2.596   5.760   6.899 -0.1637  0.9606 -0.7835
 1022MOL0     C40918   2.686   5.682   6.984  0.5422 -0.5164 -0.7383
 1022MOL0     C40919   2.821   5.744   7.003 -0.4456 -0.4639 -0.0603
 1022MOL0     C40920   2.896   5.745   6.871 -0.1102 -0.3930 -0.0255
 1022MOL0     C40921   3.035   5.799   6.907 -0.1480 -0.4873  0.5395
 1022MOL0     O40922   3.121   5.804   6.792  0.0986 -0.2785 -0.4465
 1022MOL0     C40923   3.256   5.798   6.806  0.1060  0.2894  0.5327
 1022MOL0     C40924   3.324   5.764   6.685 -0.7948  0.0037  0.0045
 1022MOL0     C40925   3.466   5.766   6.688  0.7590 -0.2459  1.0012
 1022MOL0     C40926   3.538   5.746   6.556  1.0454  0.5001  0.6968
 1022MOL0     C40927   3.525   5.797   6.808  0.0702  0.0163  0.7722
 1022MOL0     C40928   3.670   5.798   6.826  0.2699 -0.3537 -0.9504
 1022MOL0     O40929   3.735   5.904   6.884  0.3735 -0.2019 -0.6505
 1022MOL0     C40930   3.872   5.909   6.890  0.1711 -0.0270 -0.1921
 1022MOL0     C40931   3.943   5.927   7.004 -0.5055 -0.5382 -0.7633
 1022MOL0     C40932   4.080   5.940   7.011 -0.2833 -0.5865  0.0919
 1022MOL0     C40933   4.156   5.930   6.892  0.0965  0.0276 -0.0614
 1022MOL0     O40934   4.292   5.944   6.887 -0.1229  0.1747  0.5319
 1022MOL0     C40935   4.368   5.916   7.007  1.0380 -1.3189  0.0440
 1022MOL0     C40936   4.520   5.915   6.975 -0.8828 -0.7562 -1.3829
 1022MOL0     C40937   4.570   6.044   6.907  0.3686 -0.5616 -0.3811
 1022MOL0     C40938   4.717   6.065   6.905  0.2711  0.4416  0.1555
 1022MOL0     C40939   4.799   5.962   6.815 -0.2614  0.9954  0.8030
 1022MOL0     C40940   4.946   5.992   6.785  0.2282  0.0065 -1.4381
 1022MOL0     C40941   5.023   5.884   6.710  0.5067 -0.0140 -0.0838
 1022MOL0     C40942   4.949   5.820   6.602 -0.4609  0.2695  0.6524
 1022MOL0    Cl40943   4.885   5.936   6.478  0.3843  0.1562 -0.1072
 1022MOL0     C40944   4.090   5.908   6.771 -0.2143  0.1610 -0.4405
 1022MOL0     C40945   3.946   5.901   6.769  0.6798 -0.3354  0.2653
 1022MOL0     O40946   3.726   5.696   6.796 -0.3776 -0.6243  0.5998
 1022MOL0     C40947   3.456   5.814   6.920  0.2570  0.4440 -0.3228
 1022MOL0     C40948   3.315   5.823   6.922  0.0560  0.3173  0.4641
 1022MOL0     N40949   2.562   5.889   6.932  0.0555  0.3332  0.0490
 1022MOL0     N40950   2.466   5.911   6.846  1.1278 -0.7976  0.2847
 1022MOL0     C40951   1.395   5.291   6.462 -0.5609  0.8322  0.6605
 1022MOL0     C40952   1.296   5.189   6.482  0.1038 -0.3144  0.6633
 1022MOL0     C40953   0.967   4.861   6.418  0.7080  0.1945  0.1888
 1022MOL0     C40954   0.842   4.928   6.408  0.0007  0.0032 -0.9335
 1022MOL0     C40955   0.721   4.857   6.432 -0.1494 -0.9825 -0.1322
 1022MOL0     C40956   0.726   4.726   6.473 -0.2556 -0.4092  0.2913
 1022MOL0     O40957   0.600   4.674   6.502  0.3849 -0.2375  0.3084
 1022MOL0     C40958   0.573   4.563   6.594 -0.1972 -0.4290 -0.4231
 1022MOL0     C40959   0.586   4.618   6.730  0.2460  0.5281  0.6317
 1022MOL0     C40960   0.584   4.512   6.850  0.2101  0.4603  0.7386
 1022MOL0     C40961   0.446   4.466   6.890  0.6997  0.0793 -0.3801
 1022MOL0     C40962   0.373   4.395   6.775 -0.2461 -0.1930 -0.1826
 1022MOL0     C40963   0.299   4.354   6.688 -0.5186  0.1957 -0.4484
 1022MOL0     C40964   0.852   4.660   6.481  1.3975 -0.4095 -1.1440
 1022MOL0     C40965   0.967   4.726   6.455 -0.1397 -0.4310  0.6234
 1022MOL0     C40966   1.096   4.651   6.466 -0.2554 -0.6031 -0.5152
 1022MOL0     H40967   1.065   5.291   6.253 -0.8949  1.1697 -0.7743
 1022MOL0     H40968   1.248   5.468   6.216  0.8421  2.0583  2.8616
 1022MOL0     H40969   1.657   5.401   6.383  0.8605  2.0900 -0.4329
 1022MOL0     H40970   1.567   5.475   6.518 -0.4275 -4.6979  0.2646
 1022MOL0     H40971   1.713   5.608   6.279  2.0861 -1.7341  0.6149
 1022MOL0     H40972   1.606   5.694   6.394 -1.7665 -0.9626  1.1818
 1022MOL0     H40973   1.757   5.628   6.578  3.3507 -1.1336  0.7618
 1022MOL0     H40974   1.837   5.509   6.475 -1.7116 -1.0192  1.2280
 1022MOL0     H40975   1.960   5.689   6.364 -0.2820 -0.4964  0.1426
 1022MOL0     H40976   1.855   5.813   6.435  0.7328  0.9875  0.2959
 1022MOL0     H40977   2.026   5.606   6.592  1.3635  0.0246  0.5199
 1022MOL0     H40978   1.951   5.761   6.658  1.3959  4.9468 -1.9538
 1022MOL0     H40979   2.183   5.728   6.471  2.5428 -0.9050  0.4656
 1022MOL0     H40980   2.104   5.885   6.529 -2.0737 -0.5450 -0.1212
 1022MOL0     H40981   2.222   5.662   6.706  0.7220  0.6724  0.6948
 1022MOL0     H40982   2.174   5.828   6.756  2.1129  1.8169 -0.5316
 1022MOL0     H40983   2.407   5.759   6.562 -0.8990 -0.1035 -0.1648
 1022MOL0     H40984   2.341   5.918   6.604  0.4355 -0.0033 -0.9222
 1022MOL0     H40985   2.527   5.597   6.777  2.0026 -0.2940  2.0725
 1022MOL0     H40986   2.689   5.576   6.955 -3.2152 -1.8760  2.9192
 1022MOL0     H40987   2.643   5.687   7.084  3.8402  1.1869  0.7596
 1022MOL0     H40988   2.808   5.845   7.043  1.7392  0.1460 -0.7176
 1022MOL0     H40989   2.883   5.697   7.081  1.8436  3.1796  0.5570
 1022MOL0     H40990   2.895   5.645   6.827  0.0375  0.1120 -1.2173
 1022MOL0     H40991   2.851   5.818   6.803  2.0488 -1.2593 -2.5633
 1022MOL0     H40992   3.025   5.903   6.938 -1.2360 -0.4011 -0.0507
 1022MOL0     H40993   3.088   5.742   6.984  0.6903  1.5406  1.5283
 1022MOL0     H40994   3.263   5.763   6.595 -1.6992  4.2146  0.3299
 1022MOL0     H40995   3.597   5.654   6.549  1.1784  0.7078 -1.7441
 1022MOL0     H40996   3.601   5.834   6.544  0.0864  1.0477 -0.5470
 1022MOL0     H40997   3.466   5.730   6.474  2.2790 -2.3338  0.0300
 1022MOL0     H40998   3.882   5.937   7.094 -0.8725 -3.0246 -0.6615
 1022MOL0     H40999   4.118   5.943   7.113 -1.1141 -2.3208  0.4792
 1022MOL0     H41000   4.359   6.002   7.073  1.6925 -0.9192 -0.3786
 1022MOL0     H41001   4.342   5.821   7.055 -0.7519  0.8133  3.7729
 1022MOL0     H41002   4.570   5.894   7.070  3.1166 -0.5918 -3.2468
 1022MOL0     H41003   4.560   5.832   6.917  1.1302 -0.1052 -1.0254
 1022MOL0     H41004   4.516   6.118   6.966  0.6926 -1.4122  1.0198
 1022MOL0     H41005   4.541   6.048   6.801  3.5108  1.3260 -1.2886
 1022MOL0     H41006   4.751   6.058   7.009  0.9902 -3.1592 -0.1728
 1022MOL0     H41007   4.737   6.163   6.862  2.8045 -0.4013 -0.7930
 1022MOL0     H41008   4.780   5.863   6.859  1.5749  0.3210  0.1434
 1022MOL0     H41009   4.756   5.971   6.715 -3.1284 -3.9890  1.2293
 1022MOL0     H41010   4.997   6.000   6.881  0.2510  1.0591 -1.5244
 1022MOL0     H41011   4.953   6.087   6.730 -3.3328  1.9406  1.0493
 1022MOL0     H41012   5.049   5.808   6.784  0.9785  1.8945  1.8062
 1022MOL0     H41013   5.108   5.926   6.655 -0.2159  1.2278 -0.2883
 1022MOL0     H41014   4.865   5.759   6.638  1.3486 -3.3865 -0.7841
 1022MOL0     H41015   5.019   5.754   6.550 -1.0357  0.4977 -0.4362
 1022MOL0     H41016   4.147   5.905   6.679  1.2171  0.9907  0.3865
 1022MOL0     H41017   3.885   5.876   6.683 -0.2434 -1.2663  1.1572
 1022MOL0     H41018   3.498   5.834   7.018 -4.0392  0.2676  1.7769
 1022MOL0     H41019   3.267   5.853   7.015 -1.9303 -3.7787  0.9551
 1022MOL0     H41020   1.488   5.286   6.517  0.0329  2.8403 -0.0781
 1022MOL0     H41021   1.294   5.112   6.558 -2.2150 -0.4345  0.5425
 1022MOL0     H41022   0.836   5.032   6.380 -1.6156  0.3686  0.5548
 1022MOL0     H41023   0.628   4.911   6.421  0.6499  0.6195  0.5694
 1022MOL0     H41024   0.476   4.518   6.571 -0.7339  0.6448 -0.3141
 1022MOL0     H41025   0.645   4.482   6.579 -0.2973 -0.5852 -0.0713
 1022MOL0     H41026   0.517   4.700   6.749 -0.9309 -0.4162  0.5333
 1022MOL0     H41027   0.684   4.668   6.737  0.5158  0.0321  0.4459
 1022MOL0     H41028   0.637   4.425   6.811 -1.6164 -0.4680  0.1869
 1022MOL0     H41029   0.632   4.555   6.938  2.1539  4.5023 -1.9734
 1022MOL0     H41030   0.387   4.549   6.931  0.0044 -0.4838 -0.2207
 1022MOL0     H41031   0.453   4.398   6.975 -1.2235 -0.7877 -0.8449
 1022MOL0     H41032   0.243   4.293   6.620 -0.5585 -0.3799  0.0924
 1022MOL0     H41033   0.857   4.557   6.515  2.0549 -0.2260 -0.6557
 1022MOL0     H41034   1.076   4.543   6.467 -0.1730 -0.6361  1.8955
 1022MOL0     H41035   1.154   4.663   6.374  0.8739 -0.9385  0.1483
 1022MOL0     H41036   1.150   4.676   6.557 -0.6143 -0.2785 -0.3854
 1023MOL0     O41037  10.008   6.328   9.416 -0.6671 -0.3509  0.4964
 1023MOL0     C41038   9.960   6.364   9.524 -0.6852 -0.1133 -0.7868
 1023MOL0     O41039  10.024   6.348   9.645  0.0842  0.0940  0.4801
 1023MOL0     C41040  10.154   6.304   9.631  0.4886 -0.1266 -0.0310
 1023MOL0     C41041  10.255   6.400   9.621 -0.8362  0.1599 -0.1759
 1023MOL0     C41042  10.383   6.342   9.612  0.1679 -0.8776 -0.4748
 1023MOL0     C41043  10.414   6.206   9.618  0.1858  0.2525  0.2301
 1023MOL0     O41044  10.533   6.140   9.597 -0.2249  0.1694 -0.2476
 1023MOL0     C41045  10.652   6.208   9.594 -0.6689 -0.1365 -1.4099
 1023MOL0     C41046  10.775   6.118   9.579 -0.5154  0.5218 -0.1371
 1023MOL0     C41047  10.777   6.007   9.683 -0.1648 -0.1977  0.6117
 1023MOL0     C41048  10.925   5.955   9.694  0.4627  0.7195  0.6603
 1023MOL0     C41049  10.977   5.889   9.559 -0.0921  0.7621 -0.0754
 1023MOL0     C41050  11.124   5.856   9.561 -0.1448 -0.4885 -0.4434
 1023MOL0     C41051  11.170   5.769   9.677  0.3317 -0.7818 -0.0041
 1023MOL0     C41052  11.322   5.758   9.677  0.9100  0.1548 -0.3493
 1023MOL0     N41053  11.361   5.656   9.776  0.7641 -0.1789  0.2304
 1023MOL0     C41054  11.308   5.529   9.800  0.3513 -0.3272 -0.2745
 1023MOL0     C41055  11.409   5.460   9.864  1.1305 -0.3169 -0.5838
 1023MOL0     C41056  11.405   5.322   9.928  0.3764 -0.1271 -0.8365
 1023MOL0     C41057  11.305   5.329  10.049  0.6634 -0.3249  0.4849
 1023MOL0     C41058  11.265   5.183  10.099  0.0736 -0.1221  0.5521
 1023MOL0     C41059  11.367   5.079  10.127  0.2626  0.1191 -0.1528
 1023MOL0     O41060  11.407   5.007  10.007 -0.8200  0.4245 -0.2373
 1023MOL0     C41061  11.517   4.932  10.018 -0.6696 -0.2538  0.2343
 1023MOL0     C41062  11.522   4.833  10.113  0.4933 -0.2142 -0.7023
 1023MOL0     C41063  11.632   4.750  10.132 -0.4922  0.6851  0.0815
 1023MOL0     C41064  11.620   4.643  10.236  0.9921 -0.0196  0.1959
 1023MOL0     C41065  11.750   4.773  10.052  0.3280  0.2026  0.4034
 1023MOL0     C41066  11.876   4.695  10.064  0.2145  0.0923 -1.0210
 1023MOL0     O41067  11.977   4.775  10.040  0.1438 -0.2120 -0.1004
 1023MOL0     C41068  12.109   4.734  10.043  0.6284  0.2577 -0.5695
 1023MOL0     C41069  12.146   4.612   9.986 -0.3647  0.6276 -0.0860
 1023MOL0     C41070  12.282   4.566   9.971 -0.0094 -0.4163  0.7687
 1023MOL0     C41071  12.377   4.660  10.001  0.6095  0.0060  0.5989
 1023MOL0     O41072  12.505   4.632  10.013 -0.2603 -0.3002 -0.7229
 1023MOL0     C41073  12.559   4.500   9.980  0.1881  0.2209  0.5416
 1023MOL0     C41074  12.714   4.495   9.982 -0.1639  0.2979  0.3353
 1023MOL0     C41075  12.781   4.537  10.112 -0.6094 -0.0355  0.0267
 1023MOL0     C41076  12.926   4.498  10.104 -0.3435  0.3293  0.7942
 1023MOL0     C41077  13.014   4.560  10.214  0.3653  0.1202 -0.2979
 1023MOL0     C41078  13.040   4.707  10.204 -0.9587 -0.1094  0.3012
 1023MOL0     C41079  13.121   4.751  10.325 -1.0991  0.2631 -0.1755
 1023MOL0     C41080  13.268   4.694  10.330 -0.3396  0.0949  0.0060
 1023MOL0    Cl41081  13.342   4.675  10.174 -0.0383  0.1122  0.5176
 1023MOL0     C41082  12.346   4.788  10.056  0.1673 -0.0191  0.1839
 1023MOL0     C41083  12.211   4.818  10.087 -0.5724 -0.2836 -0.1406
 1023MOL0     O41084  11.876   4.585  10.123  0.4210 -0.0528  0.5709
 1023MOL0     C41085  11.740   4.878   9.957 -0.5364 -0.5920 -0.0408
 1023MOL0     C41086  11.633   4.960   9.943 -0.4914 -0.4961  0.3087
 1023MOL0     N41087  11.502   5.557   9.900 -0.3650  0.1832 -0.3154
 1023MOL0     N41088  11.465   5.676   9.860  0.2514 -0.6177  0.3659
 1023MOL0     C41089  10.307   6.115   9.630 -0.4870  0.0121 -0.6209
 1023MOL0     C41090  10.177   6.165   9.643 -0.1115 -0.5146 -0.5087
 1023MOL0     C41091   9.820   6.419   9.522  0.2011  0.4668 -0.3533
 1023MOL0     C41092   9.793   6.524   9.608 -0.5141  0.2168  0.6039
 1023MOL0     C41093   9.665   6.585   9.618 -0.3621  0.1280  0.1394
 1023MOL0     C41094   9.559   6.533   9.548  0.0507  0.4989 -0.0095
 1023MOL0     O41095   9.444   6.583   9.585 -0.2986  0.0282  0.0530
 1023MOL0     C41096   9.321   6.524   9.544  0.1234 -0.8072 -0.2330
 1023MOL0     C41097   9.219   6.553   9.662 -0.0067  0.0930 -0.5875
 1023MOL0     C41098   9.270   6.494   9.798 -0.0183 -0.6936 -0.7925
 1023MOL0     C41099   9.190   6.521   9.913  0.4599 -0.6059  0.0527
 1023MOL0     C41100   9.087   6.422   9.939  0.9313 -0.6064  0.6780
 1023MOL0     C41101   8.997   6.348   9.960 -0.3675  0.0598 -0.8103
 1023MOL0     C41102   9.587   6.432   9.449 -0.0303  0.1015 -0.4892
 1023MOL0     C41103   9.715   6.384   9.430 -0.0058 -0.6633 -0.8521
 1023MOL0     C41104   9.740   6.280   9.325 -0.3549  0.6628 -0.5913
 1023MOL0     H41105  10.224   6.502   9.602  0.2249  0.6409  0.5941
 1023MOL0     H41106  10.469   6.404   9.588 -1.2199  1.2846 -0.1764
 1023MOL0     H41107  10.657   6.271   9.683  0.2333  1.0505 -2.2650
 1023MOL0     H41108  10.653   6.286   9.518 -0.1707  1.6432  0.3356
 1023MOL0     H41109  10.781   6.071   9.481 -0.4609  2.8595 -1.2980
 1023MOL0     H41110  10.865   6.176   9.597 -0.0575 -0.7626  2.2221
 1023MOL0     H41111  10.760   6.059   9.778  1.3894  1.0571  0.2606
 1023MOL0     H41112  10.703   5.930   9.661 -1.2358  0.6309  1.2434
 1023MOL0     H41113  10.987   6.042   9.716 -1.4870  2.0553  1.1023
 1023MOL0     H41114  10.933   5.874   9.766 -2.0954 -0.7526 -0.5473
 1023MOL0     H41115  10.961   5.957   9.474 -1.5785 -0.6393 -0.9779
 1023MOL0     H41116  10.920   5.797   9.543  1.1402 -0.1776  0.7177
 1023MOL0     H41117  11.147   5.803   9.469 -0.6863  0.0208 -0.8765
 1023MOL0     H41118  11.181   5.949   9.566 -1.9379  0.7919 -2.3601
 1023MOL0     H41119  11.114   5.677   9.660 -1.1936  0.2304 -0.6991
 1023MOL0     H41120  11.152   5.809   9.777  1.8170 -1.3339  0.5035
 1023MOL0     H41121  11.354   5.713   9.583  0.6074 -0.2927 -0.2363
 1023MOL0     H41122  11.350   5.864   9.683 -1.2044  0.8153 -1.3897
 1023MOL0     H41123  11.222   5.479   9.758 -0.1864  0.0764  0.3387
 1023MOL0     H41124  11.508   5.293   9.950  1.0192  1.2707 -1.8489
 1023MOL0     H41125  11.361   5.254   9.855 -1.2556  1.9658 -1.9286
 1023MOL0     H41126  11.344   5.405  10.118  0.1237  2.2861 -1.8865
 1023MOL0     H41127  11.214   5.383  10.021  2.4326  1.8047 -1.6646
 1023MOL0     H41128  11.212   5.208  10.191  0.0238 -1.9100  1.0369
 1023MOL0     H41129  11.181   5.145  10.040 -0.3471  1.3556  0.1312
 1023MOL0     H41130  11.453   5.122  10.181  0.6302 -0.5335 -0.2048
 1023MOL0     H41131  11.319   5.004  10.191 -1.9595  1.0148 -0.7065
 1023MOL0     H41132  11.432   4.810  10.168  0.3823  1.0810 -0.3126
 1023MOL0     H41133  11.523   4.655  10.284 -0.4864 -0.1288 -2.5552
 1023MOL0     H41134  11.704   4.650  10.305  1.2088 -6.3797  1.2139
 1023MOL0     H41135  11.632   4.543  10.194  1.7643  0.0572  0.2176
 1023MOL0     H41136  12.065   4.549   9.950 -1.0550  0.8825  0.9847
 1023MOL0     H41137  12.295   4.464   9.935  1.3135 -0.4534  1.2872
 1023MOL0     H41138  12.516   4.436  10.058 -2.6354  0.0822 -0.9959
 1023MOL0     H41139  12.510   4.477   9.884  0.2208  1.8059  0.1260
 1023MOL0     H41140  12.750   4.395   9.954  1.2389  0.4015  1.5940
 1023MOL0     H41141  12.748   4.552   9.895 -0.1959  1.3010  0.9654
 1023MOL0     H41142  12.733   4.495  10.201 -0.5732 -0.8610 -0.3353
 1023MOL0     H41143  12.776   4.647  10.110  2.8841  0.2812  0.7429
 1023MOL0     H41144  12.967   4.534  10.009 -2.2442  1.2420  0.2655
 1023MOL0     H41145  12.931   4.389  10.113  0.9086  0.2418 -0.6774
 1023MOL0     H41146  12.956   4.546  10.306 -2.2445 -1.6073 -2.0498
 1023MOL0     H41147  13.112   4.512  10.208  2.1367  3.4496 -0.0818
 1023MOL0     H41148  12.939   4.750  10.198 -1.2431 -0.9630 -2.4544
 1023MOL0     H41149  13.091   4.729  10.110  1.3069 -0.5220  1.3891
 1023MOL0     H41150  13.072   4.749  10.423 -0.5995  0.9312  0.0904
 1023MOL0     H41151  13.120   4.860  10.311 -2.3130 -0.0840 -3.9948
 1023MOL0     H41152  13.262   4.599  10.384  1.4254  0.2083  0.4990
 1023MOL0     H41153  13.329   4.762  10.391  1.0108 -0.7646 -0.3240
 1023MOL0     H41154  12.412   4.870  10.082 -0.0333  0.8710 -1.9031
 1023MOL0     H41155  12.187   4.909  10.141 -1.2250 -2.1037  2.8180
 1023MOL0     H41156  11.827   4.910   9.901 -0.5421  3.4651  1.8961
 1023MOL0     H41157  11.624   5.038   9.868  1.0697 -0.0091  0.5990
 1023MOL0     H41158  10.323   6.010   9.611  1.8394 -0.0129  1.1041
 1023MOL0     H41159  10.093   6.096   9.644 -0.3241 -0.2842  1.7905
 1023MOL0     H41160   9.882   6.562   9.658 -1.2611  0.8562  1.4817
 1023MOL0     H41161   9.648   6.674   9.678 -1.0651 -0.9931  1.6879
 1023MOL0     H41162   9.284   6.580   9.458 -1.2753  1.5621  1.7823
 1023MOL0     H41163   9.334   6.417   9.526  1.0710 -0.9685  1.2064
 1023MOL0     H41164   9.127   6.502   9.633 -0.2735  0.1964  0.0440
 1023MOL0     H41165   9.202   6.661   9.665  3.0916  0.6994 -0.6058
 1023MOL0     H41166   9.281   6.385   9.789  1.3790 -0.7387  0.8391
 1023MOL0     H41167   9.367   6.541   9.814 -1.1293  1.2008  0.8944
 1023MOL0     H41168   9.136   6.612   9.886  1.2199 -0.7606 -2.2277
 1023MOL0     H41169   9.247   6.551  10.002 -1.3347  1.0734  0.7051
 1023MOL0     H41170   8.922   6.273   9.978 -0.7011  0.5521 -0.1186
 1023MOL0     H41171   9.514   6.382   9.387  0.4862 -1.5629  0.2119
 1023MOL0     H41172   9.649   6.262   9.267 -0.1701 -2.8327 -0.0351
 1023MOL0     H41173   9.822   6.297   9.256 -0.7912 -1.4133 -1.7021
 1023MOL0     H41174   9.757   6.183   9.375  0.9655  0.7987 -0.7375
 1024MOL0     O41175   0.369   3.546  10.875  0.3559  0.5086 -0.0730
 1024MOL0     C41176   0.334   3.637  10.793 -0.3095  0.7473 -0.5588
 1024MOL0     O41177   0.407   3.752  10.766  0.4797  0.2148  0.8693
 1024MOL0     C41178   0.539   3.741  10.801  0.2009  0.2563  0.2356
 1024MOL0     C41179   0.624   3.650  10.724 -0.6264 -0.5252 -0.2863
 1024MOL0     C41180   0.763   3.651  10.742  0.3647 -0.2944 -0.1677
 1024MOL0     C41181   0.813   3.736  10.841 -1.0524 -0.4167  0.0291
 1024MOL0     O41182   0.945   3.729  10.858 -0.7624  0.1622  0.4313
 1024MOL0     C41183   1.007   3.850  10.912 -0.3336  1.1471  0.0680
 1024MOL0     C41184   1.149   3.846  10.852 -0.6053 -0.0189 -0.8639
 1024MOL0     C41185   1.144   3.886  10.707  0.2465 -0.2335  0.1674
 1024MOL0     C41186   1.276   3.864  10.628  0.2204  0.2425 -0.4183
 1024MOL0     C41187   1.242   3.884  10.483 -1.1105 -0.2652 -0.0370
 1024MOL0     C41188   1.267   4.030  10.435  0.5518  0.3031  0.0560
 1024MOL0     C41189   1.241   4.042  10.291  0.9520  0.5597  0.0087
 1024MOL0     C41190   1.234   4.178  10.230 -1.1999 -0.1113 -0.2562
 1024MOL0     N41191   1.111   4.248  10.287  0.0291  0.2963  0.4991
 1024MOL0     C41192   0.984   4.223  10.226  0.8155 -0.2074 -0.3819
 1024MOL0     C41193   0.905   4.319  10.286 -0.1377 -0.4490 -0.1340
 1024MOL0     C41194   0.760   4.332  10.247  0.8524  0.9494 -0.6375
 1024MOL0     C41195   0.665   4.256  10.341  0.1224 -0.1523 -0.5380
 1024MOL0     C41196   0.517   4.270  10.291  0.3528  0.1958  0.0787
 1024MOL0     C41197   0.426   4.157  10.331 -0.4915 -0.7890  0.5495
 1024MOL0     O41198   0.421   4.160  10.477 -0.4191  0.3881  0.0740
 1024MOL0     C41199   0.313   4.090  10.529  0.2213 -0.0370  0.0620
 1024MOL0     C41200   0.320   4.074  10.669  0.4627 -0.9915  0.3693
 1024MOL0     C41201   0.215   4.016  10.742 -0.2964  0.0891 -0.1673
 1024MOL0     C41202   0.218   4.017  10.896  0.3227  0.7122  0.7670
 1024MOL0     C41203   0.099   3.971  10.677  0.5720 -0.3177  0.1329
 1024MOL0     C41204  -0.024   3.926  10.747  0.7765 -0.0711  0.4920
 1024MOL0     O41205  -0.140   3.947  10.668 -0.0732 -0.0669  0.8841
 1024MOL0     C41206  -0.258   3.880  10.684 -0.2349  0.7745  0.3818
 1024MOL0     C41207  -0.274   3.750  10.754  0.0495  0.2657 -0.2141
 1024MOL0     C41208  -0.397   3.689  10.775 -0.3347  0.1742 -0.5946
 1024MOL0     C41209  -0.511   3.751  10.717  0.3065  0.7327 -0.1284
 1024MOL0     O41210  -0.640   3.698  10.730 -0.0183  0.3025  0.3217
 1024MOL0     C41211  -0.688   3.637  10.850  0.8606  0.8002 -0.1026
 1024MOL0     C41212  -0.685   3.730  10.966  0.1591 -0.3770 -0.3659
 1024MOL0     C41213  -0.773   3.856  10.927  0.1162 -1.1104 -0.1082
 1024MOL0     C41214  -0.835   3.924  11.052 -0.0971 -0.3655  0.3398
 1024MOL0     C41215  -0.732   3.992  11.140  0.3926 -0.0483 -0.3662
 1024MOL0     C41216  -0.806   4.069  11.240  0.3412  0.0362 -0.7497
 1024MOL0     C41217  -0.883   4.198  11.196 -0.1162 -0.4585  0.5022
 1024MOL0     C41218  -0.935   4.264  11.315 -0.1466  0.1232 -1.3427
 1024MOL0    Cl41219  -0.807   4.318  11.426 -0.0044 -0.4231  0.1629
 1024MOL0     C41220  -0.496   3.867  10.645  1.1299  0.1858 -0.2136
 1024MOL0     C41221  -0.371   3.932  10.631 -0.0953  0.6773  0.5570
 1024MOL0     O41222  -0.020   3.857  10.848  0.2576 -0.6475 -0.1517
 1024MOL0     C41223   0.093   3.991  10.544 -0.5512  0.2217 -0.1811
 1024MOL0     C41224   0.196   4.039  10.462  0.2602  0.8653 -0.0627
 1024MOL0     N41225   0.983   4.396  10.372 -0.1407  0.4985  0.3086
 1024MOL0     N41226   1.103   4.354  10.371 -0.4294 -0.1902  0.8749
 1024MOL0     C41227   0.733   3.817  10.923 -0.6307  0.0242  0.0298
 1024MOL0     C41228   0.591   3.822  10.900  0.1774 -0.1372 -0.5665
 1024MOL0     C41229   0.210   3.611  10.719 -0.8025  0.1542  0.4004
 1024MOL0     C41230   0.200   3.665  10.588  0.0006  0.1924 -0.7616
 1024MOL0     C41231   0.087   3.617  10.513  0.3223  0.2492 -0.4105
 1024MOL0     C41232  -0.020   3.549  10.567 -0.0312  0.3723  0.2724
 1024MOL0     O41233  -0.140   3.521  10.505  0.1977 -0.2104  0.3061
 1024MOL0     C41234  -0.168   3.542  10.369  0.2889 -0.7524 -0.1727
 1024MOL0     C41235  -0.185   3.689  10.338 -0.0574 -0.0728  0.3717
 1024MOL0     C41236  -0.331   3.719  10.316 -0.2146 -0.1255 -0.3525
 1024MOL0     C41237  -0.388   3.676  10.189  0.8484 -0.3798 -0.0824
 1024MOL0     C41238  -0.529   3.711  10.188  1.0376 -0.8366 -0.0283
 1024MOL0     C41239  -0.653   3.713  10.186 -0.0549 -0.8757 -0.3512
 1024MOL0     C41240  -0.017   3.514  10.696 -0.0062 -0.3098 -0.6237
 1024MOL0     C41241   0.097   3.540  10.777  0.5984 -0.8088 -0.2179
 1024MOL0     C41242   0.099   3.486  10.919 -0.6383 -0.1568 -0.4224
 1024MOL0     H41243   0.579   3.606  10.635 -0.5117 -1.9838  0.3444
 1024MOL0     H41244   0.830   3.599  10.674 -0.8784 -0.8803 -0.9874
 1024MOL0     H41245   1.017   3.846  11.020 -2.8085 -2.3987  0.3453
 1024MOL0     H41246   0.952   3.941  10.888 -1.5442  0.2697 -0.6195
 1024MOL0     H41247   1.225   3.908  10.900  0.5184 -1.7520 -0.2895
 1024MOL0     H41248   1.197   3.748  10.861 -0.3292  0.0032 -1.9325
 1024MOL0     H41249   1.065   3.828  10.658 -1.3594 -0.0840  2.4299
 1024MOL0     H41250   1.124   3.994  10.698  0.3682 -0.3303 -1.7268
 1024MOL0     H41251   1.350   3.933  10.669  0.7398 -0.8366  0.5198
 1024MOL0     H41252   1.315   3.762  10.641  2.8198  1.1219 -0.6174
 1024MOL0     H41253   1.136   3.860  10.471 -0.8980 -1.8817  0.8768
 1024MOL0     H41254   1.302   3.815  10.422  1.2439 -1.5673  3.4074
 1024MOL0     H41255   1.197   4.083  10.501  1.4684  1.8963 -0.1992
 1024MOL0     H41256   1.368   4.066  10.453  1.0579 -0.2946 -1.4538
 1024MOL0     H41257   1.149   3.990  10.263  0.5715  0.0280  2.0946
 1024MOL0     H41258   1.319   3.982  10.245  0.7539  0.3154 -0.0116
 1024MOL0     H41259   1.330   4.226  10.246 -0.7047 -0.7133 -1.3247
 1024MOL0     H41260   1.220   4.173  10.121  1.1465  0.2361 -0.6067
 1024MOL0     H41261   0.959   4.156  10.144 -1.5175 -0.3357  0.3531
 1024MOL0     H41262   0.754   4.302  10.142 -0.0812  0.8724 -0.5629
 1024MOL0     H41263   0.740   4.440  10.246  0.4112  0.8670 -0.7601
 1024MOL0     H41264   0.707   4.156  10.355  1.1342  0.3533  0.1598
 1024MOL0     H41265   0.672   4.300  10.441  2.4753 -1.4852 -0.0615
 1024MOL0     H41266   0.486   4.365  10.336 -0.7342 -0.5015  0.8575
 1024MOL0     H41267   0.521   4.265  10.182  0.3358  0.8874  0.0374
 1024MOL0     H41268   0.333   4.178  10.278  0.4566  0.4659 -0.6886
 1024MOL0     H41269   0.462   4.055  10.310  1.9351  0.0224  0.5094
 1024MOL0     H41270   0.396   4.130  10.720 -1.6860  1.9083  0.6283
 1024MOL0     H41271   0.126   4.063  10.932 -1.2589 -0.4964 -1.5354
 1024MOL0     H41272   0.312   4.058  10.936  2.7211 -2.4378 -1.1944
 1024MOL0     H41273   0.220   3.919  10.943  1.2151  0.0026 -0.6771
 1024MOL0     H41274  -0.187   3.704  10.798 -0.5164 -2.0429 -1.3988
 1024MOL0     H41275  -0.411   3.598  10.833 -1.0025 -0.3172 -1.5063
 1024MOL0     H41276  -0.791   3.613  10.825  0.5384  2.9355 -1.0260
 1024MOL0     H41277  -0.631   3.545  10.871 -1.0847 -1.3422 -3.3285
 1024MOL0     H41278  -0.713   3.685  11.062 -2.2072  0.2225 -0.6940
 1024MOL0     H41279  -0.581   3.756  10.987 -0.2510 -0.6944  2.4756
 1024MOL0     H41280  -0.848   3.821  10.855  0.8041 -0.5901 -1.1019
 1024MOL0     H41281  -0.717   3.933  10.873  2.5882 -0.2509  3.3693
 1024MOL0     H41282  -0.891   3.848  11.107  0.2612  0.5661  2.0884
 1024MOL0     H41283  -0.901   3.999  11.006 -0.1456 -1.1860 -0.9756
 1024MOL0     H41284  -0.673   3.909  11.179  0.1494 -0.2139 -0.3507
 1024MOL0     H41285  -0.667   4.063  11.088 -1.6904  1.3395 -1.2506
 1024MOL0     H41286  -0.727   4.091  11.312  0.0531 -1.3456  0.0121
 1024MOL0     H41287  -0.869   4.003  11.300 -0.0723  2.9322  2.2867
 1024MOL0     H41288  -0.970   4.168  11.138 -0.8881  0.2063  1.2993
 1024MOL0     H41289  -0.821   4.268  11.139 -1.5483  0.6343  0.2511
 1024MOL0     H41290  -0.998   4.196  11.374  1.0656  0.3581  0.3003
 1024MOL0     H41291  -0.992   4.354  11.289 -0.0948  0.6583  0.2736
 1024MOL0     H41292  -0.584   3.908  10.596  2.1697  2.9914  0.0999
 1024MOL0     H41293  -0.368   4.020  10.568 -2.7060  0.6826  0.3472
 1024MOL0     H41294   0.006   3.970  10.482 -0.0390  0.1929 -0.9149
 1024MOL0     H41295   0.186   4.055  10.355 -4.7560  3.3106  0.4432
 1024MOL0     H41296   0.782   3.854  11.013  0.6059  0.9333 -0.9677
 1024MOL0     H41297   0.534   3.876  10.975  0.8595 -0.5998  0.3121
 1024MOL0     H41298   0.274   3.730  10.544 -1.4795  3.8747  1.6807
 1024MOL0     H41299   0.062   3.649  10.413 -0.1466  0.9770 -0.0619
 1024MOL0     H41300  -0.092   3.506  10.300  1.6645 -3.7381  2.6334
 1024MOL0     H41301  -0.258   3.487  10.342 -0.8166 -0.3989  2.4609
 1024MOL0     H41302  -0.134   3.719  10.246 -2.9636  0.0325 -1.3225
 1024MOL0     H41303  -0.141   3.765  10.402 -2.0274  2.0224 -0.6337
 1024MOL0     H41304  -0.394   3.675  10.393  1.4105  2.7124  2.8611
 1024MOL0     H41305  -0.355   3.824  10.332 -0.5809  0.6622 -4.7568
 1024MOL0     H41306  -0.377   3.569  10.170  0.1105 -0.4651 -0.0479
 1024MOL0     H41307  -0.339   3.725  10.105  0.2640 -0.4316 -0.4565
 1024MOL0     H41308  -0.760   3.703  10.189 -0.0299 -1.0472 -0.0403
 1024MOL0     H41309  -0.107   3.470  10.739 -0.5911 -3.0473 -4.1612
 1024MOL0     H41310  -0.004   3.478  10.956 -0.9378  2.1901 -0.6352
 1024MOL0     H41311   0.151   3.390  10.910 -0.7380 -0.0539 -2.4789
 1024MOL0     H41312   0.148   3.550  10.993  1.5966 -0.5502 -1.4841
  11.39989  11.39989  11.39989
